* GENERATED BY CHARMM-GUI (HTTP://WWW.CHARMM-GUI.ORG) V3.7 ON MAY, 16. 2026. JOB
* INPUT GENERATION
*  DATE:     5/16/26      3:19:36      CREATED BY USER: charmm-gui
*
    114090  EXT
         1         1  ECLIPA    HB6S            0.0392194376        5.5926207782       20.4268731125  LPSA1     1               0.0000000000
         2         1  ECLIPA    OB6             1.4636753019        4.8587059762       21.7186880833  LPSA1     1               0.0000000000
         3         1  ECLIPA    CB6             1.0929169857        5.8087193403       20.7015387066  LPSA1     1               0.0000000000
         4         1  ECLIPA    HB6R            1.1388167348        6.8491201107       21.0989931632  LPSA1     1               0.0000000000
         5         1  ECLIPA    CB5             1.9488648134        5.7693159098       19.4427053689  LPSA1     1               0.0000000000
         6         1  ECLIPA    OB5             1.8941873303        4.4086135168       18.9650107694  LPSA1     1               0.0000000000
         7         1  ECLIPA    HB5             2.9853200720        6.0484904773       19.7444713089  LPSA1     1               0.0000000000
         8         1  ECLIPA    CB1             2.6942704603        4.2127957818       17.7912331526  LPSA1     1               0.0000000000
         9         1  ECLIPA    HB1             3.7592431959        4.5057154506       17.9662188668  LPSA1     1               0.0000000000
        10         1  ECLIPA    OA6             2.6932795811        2.8854915469       17.3313018649  LPSA1     1               0.0000000000
        11         1  ECLIPA    CA6             1.4753119498        2.1587600310       17.5649804025  LPSA1     1               0.0000000000
        12         1  ECLIPA    HA6R            0.6053972607        2.8231598898       17.7586996601  LPSA1     1               0.0000000000
        13         1  ECLIPA    HA6S            1.6370178407        1.4841875187       18.4381124346  LPSA1     1               0.0000000000
        14         1  ECLIPA    CB4             1.4707271283        6.7359784449       18.3447506931  LPSA1     1               0.0000000000
        15         1  ECLIPA    HB4             0.4061252151        6.5404601651       18.0517888825  LPSA1     1               0.0000000000
        16         1  ECLIPA    OB4             1.6773008643        8.0800810264       18.8271859329  LPSA1     1               0.0000000000
        17         1  ECLIPA    PB              0.3776288390        9.0303750048       19.2788009898  LPSA1     1               0.0000000000
        18         1  ECLIPA    OPB4            0.7794140192        9.8807367786       20.4843237098  LPSA1     1               0.0000000000
        19         1  ECLIPA    OPB3           -0.6832545525        7.9957111771       19.6441952307  LPSA1     1               0.0000000000
        20         1  ECLIPA    OPB2            0.0232479606        9.8526408734       18.0310577149  LPSA1     1               0.0000000000
        21         1  ECLIPA    CB3             2.3303716855        6.4902989550       17.1314184532  LPSA1     1               0.0000000000
        22         1  ECLIPA    OB3             1.9127683600        7.2075030112       16.0074779716  LPSA1     1               0.0000000000
        23         1  ECLIPA    HB3             3.4060128355        6.6698597565       17.3584149581  LPSA1     1               0.0000000000
        24         1  ECLIPA    C71             2.3524553352        8.3736680620       15.8329709877  LPSA1     1               0.0000000000
        25         1  ECLIPA    O71             3.4024204811        8.8569360317       16.2552725736  LPSA1     1               0.0000000000
        26         1  ECLIPA    C72             1.7545197215        8.7282810732       14.4740225640  LPSA1     1               0.0000000000
        27         1  ECLIPA    H72R            2.2198149490        8.2544189767       13.5953761216  LPSA1     1               0.0000000000
        28         1  ECLIPA    H72S            2.0464152420        9.7387385527       14.6851533777  LPSA1     1               0.0000000000
        29         1  ECLIPA    CB2             2.1885749243        5.0647342158       16.6764182826  LPSA1     1               0.0000000000
        30         1  ECLIPA    HB2             1.0934147287        4.8494545617       16.5173939174  LPSA1     1               0.0000000000
        31         1  ECLIPA    NB2             2.9545035232        4.8209378945       15.4581777933  LPSA1     1               0.0000000000
        32         1  ECLIPA    HNB2            3.9024088316        4.5531667466       15.5803596090  LPSA1     1               0.0000000000
        33         1  ECLIPA    CA4             2.3574604935        0.6638795645       15.7974629013  LPSA1     1               0.0000000000
        34         1  ECLIPA    HA4             3.1174241287        1.4374254539       15.5426373129  LPSA1     1               0.0000000000
        35         1  ECLIPA    OA4             2.8129942171       -0.1736551839       16.8319885817  LPSA1     1               0.0000000000
        36         1  ECLIPA    HOA4            3.0623414039        0.3153563420       17.6216324220  LPSA1     1               0.0000000000
        37         1  ECLIPA    CA5             1.1506484034        1.3355178307       16.3370357582  LPSA1     1               0.0000000000
        38         1  ECLIPA    HA5             0.3329942726        0.6088045302       16.5707487884  LPSA1     1               0.0000000000
        39         1  ECLIPA    OA5             0.7206489012        2.2326364815       15.3312387089  LPSA1     1               0.0000000000
        40         1  ECLIPA    CA1             0.3502742584        1.5819225858       14.1030912691  LPSA1     1               0.0000000000
        41         1  ECLIPA    HA1             0.2230182942        2.4451965694       13.4168237732  LPSA1     1               0.0000000000
        42         1  ECLIPA    OA1            -0.8395606346        0.8218120671       14.1548300805  LPSA1     1               0.0000000000
        43         1  ECLIPA    OPA2           -2.5163831154        0.8692586468       16.0508613206  LPSA1     1               0.0000000000
        44         1  ECLIPA    OPA3           -1.9515249304        3.0176052188       14.8482485733  LPSA1     1               0.0000000000
        45         1  ECLIPA    OPA4           -3.2703771983        1.2665226264       13.6191105059  LPSA1     1               0.0000000000
        46         1  ECLIPA    PA             -2.2321083316        1.5316859830       14.7024586792  LPSA1     1               0.0000000000
        47         1  ECLIPA    CA3             2.0604167867       -0.0880206892       14.5312556714  LPSA1     1               0.0000000000
        48         1  ECLIPA    HA3             1.3948987552       -0.9633443781       14.7254362034  LPSA1     1               0.0000000000
        49         1  ECLIPA    OA3             3.3592537341       -0.5388893794       14.2131228375  LPSA1     1               0.0000000000
        50         1  ECLIPA    C31             4.2323268274        0.1088542008       13.4552561071  LPSA1     1               0.0000000000
        51         1  ECLIPA    O31             4.2428517262        0.0217478561       12.2384435674  LPSA1     1               0.0000000000
        52         1  ECLIPA    C32             5.5587441503        0.1727610456       14.2078900601  LPSA1     1               0.0000000000
        53         1  ECLIPA    H32R            6.2833488769       -0.4863285148       13.7100160910  LPSA1     1               0.0000000000
        54         1  ECLIPA    H32S            5.5020068053       -0.1900758527       15.1943341426  LPSA1     1               0.0000000000
        55         1  ECLIPA    CA2             1.5361085553        0.8704571886       13.5045873279  LPSA1     1               0.0000000000
        56         1  ECLIPA    HA2             2.3082124371        1.6560030551       13.3362640361  LPSA1     1               0.0000000000
        57         1  ECLIPA    NA2             1.2251204075        0.2138800309       12.2226252248  LPSA1     1               0.0000000000
        58         1  ECLIPA    HNA2            1.5512440471       -0.7133360299       12.1195433841  LPSA1     1               0.0000000000
        59         1  ECLIPA    C73             0.2401706187        8.8666559274       14.3050657379  LPSA1     1               0.0000000000
        60         1  ECLIPA    H73R           -0.0807326202        9.3684651886       15.2543013704  LPSA1     1               0.0000000000
        61         1  ECLIPA    O73            -0.2641778353        7.6007516841       14.2701327061  LPSA1     1               0.0000000000
        62         1  ECLIPA    C81            -1.3699739788        7.4724604371       14.9649897242  LPSA1     1               0.0000000000
        63         1  ECLIPA    O81            -1.9978506138        8.3765398646       15.5136736767  LPSA1     1               0.0000000000
        64         1  ECLIPA    C82            -1.9687193609        6.2525139532       14.3422896921  LPSA1     1               0.0000000000
        65         1  ECLIPA    H82R           -2.9042556950        6.0324586588       14.8755253696  LPSA1     1               0.0000000000
        66         1  ECLIPA    H82S           -1.2414806838        5.4339846992       14.5518968937  LPSA1     1               0.0000000000
        67         1  ECLIPA    C83            -2.1587790142        6.3709534183       12.8096899369  LPSA1     1               0.0000000000
        68         1  ECLIPA    H83R           -1.1860182803        6.1733554050       12.2969325587  LPSA1     1               0.0000000000
        69         1  ECLIPA    H83S           -2.4797482218        7.3968448035       12.5392888585  LPSA1     1               0.0000000000
        70         1  ECLIPA    C84            -3.1408630159        5.3187522909       12.2855603071  LPSA1     1               0.0000000000
        71         1  ECLIPA    H84R           -4.1777574344        5.5555879151       12.5987891094  LPSA1     1               0.0000000000
        72         1  ECLIPA    H84S           -2.8368678160        4.3495065337       12.7636109171  LPSA1     1               0.0000000000
        73         1  ECLIPA    C85            -3.0461489552        5.1208178974       10.7676421905  LPSA1     1               0.0000000000
        74         1  ECLIPA    H85R           -1.9548831845        5.1231134756       10.5449917594  LPSA1     1               0.0000000000
        75         1  ECLIPA    H85S           -3.4845566239        5.9895722565       10.2353402282  LPSA1     1               0.0000000000
        76         1  ECLIPA    C86            -3.5894538437        3.7575084296       10.2856127872  LPSA1     1               0.0000000000
        77         1  ECLIPA    H86R           -4.6613945478        3.8288940445        9.9958981292  LPSA1     1               0.0000000000
        78         1  ECLIPA    H86S           -3.5372255687        3.0264861433       11.1301892569  LPSA1     1               0.0000000000
        79         1  ECLIPA    C87            -2.7314475189        3.1440929673        9.1595532983  LPSA1     1               0.0000000000
        80         1  ECLIPA    H87R           -3.2075447840        2.2075547800        8.7970022442  LPSA1     1               0.0000000000
        81         1  ECLIPA    H87S           -1.7403866802        2.8483279574        9.5770700289  LPSA1     1               0.0000000000
        82         1  ECLIPA    C88            -2.4620580852        4.1295636975        8.0205121814  LPSA1     1               0.0000000000
        83         1  ECLIPA    H88R           -1.6907378908        4.8566436238        8.3505542829  LPSA1     1               0.0000000000
        84         1  ECLIPA    H88S           -3.3812087948        4.7410088405        7.8788926747  LPSA1     1               0.0000000000
        85         1  ECLIPA    C89            -1.9985347806        3.4552332767        6.7151619798  LPSA1     1               0.0000000000
        86         1  ECLIPA    H89R           -1.5847666088        2.4381097886        6.8946629645  LPSA1     1               0.0000000000
        87         1  ECLIPA    H89S           -1.1715395096        4.0389025385        6.2586153268  LPSA1     1               0.0000000000
        88         1  ECLIPA    C810           -3.1412899943        3.4205719391        5.6966173815  LPSA1     1               0.0000000000
        89         1  ECLIPA    H810R          -3.7918693265        4.2899169827        5.9309041621  LPSA1     1               0.0000000000
        90         1  ECLIPA    H810S          -3.7266656023        2.4891540282        5.8643010860  LPSA1     1               0.0000000000
        91         1  ECLIPA    C811           -2.6779558499        3.4997498522        4.2337777272  LPSA1     1               0.0000000000
        92         1  ECLIPA    H811R          -3.4596590961        3.1115276404        3.5397014676  LPSA1     1               0.0000000000
        93         1  ECLIPA    H811S          -1.7717559019        2.8589378680        4.1530188168  LPSA1     1               0.0000000000
        94         1  ECLIPA    C812           -2.2669059551        4.8952812174        3.7360870601  LPSA1     1               0.0000000000
        95         1  ECLIPA    H812R          -1.8379914666        4.7516826179        2.7130761956  LPSA1     1               0.0000000000
        96         1  ECLIPA    H812S          -1.4870422861        5.3089256962        4.4085683612  LPSA1     1               0.0000000000
        97         1  ECLIPA    C813           -3.3843639837        5.9361128033        3.6361621974  LPSA1     1               0.0000000000
        98         1  ECLIPA    H813R          -4.1491347523        5.5526117759        2.9287515270  LPSA1     1               0.0000000000
        99         1  ECLIPA    H813S          -3.8780950616        6.0934654197        4.6238749043  LPSA1     1               0.0000000000
       100         1  ECLIPA    C814           -2.8776913279        7.2857895116        3.1274736855  LPSA1     1               0.0000000000
       101         1  ECLIPA    H814R          -2.2441269384        7.1795244926        2.2184437025  LPSA1     1               0.0000000000
       102         1  ECLIPA    H814S          -2.2777196042        7.7804593761        3.9167663276  LPSA1     1               0.0000000000
       103         1  ECLIPA    H814T          -3.7357979270        7.9438756651        2.8863156072  LPSA1     1               0.0000000000
       104         1  ECLIPA    C74            -0.3653252622        9.5494250052       13.0172865608  LPSA1     1               0.0000000000
       105         1  ECLIPA    H74R           -0.3890647398       10.6002906840       12.7161717754  LPSA1     1               0.0000000000
       106         1  ECLIPA    H74S           -1.4486113227        9.5117393494       13.1991196596  LPSA1     1               0.0000000000
       107         1  ECLIPA    C75            -0.0615299241        8.9977949782       11.6581017198  LPSA1     1               0.0000000000
       108         1  ECLIPA    H75R           -0.9639141385        9.3421095337       11.0929328500  LPSA1     1               0.0000000000
       109         1  ECLIPA    H75S           -0.0148491422        7.9325990512       11.8790838482  LPSA1     1               0.0000000000
       110         1  ECLIPA    C76             1.1968691827        9.3975540951       10.9134815299  LPSA1     1               0.0000000000
       111         1  ECLIPA    H76R            2.1044864951        8.9836697330       11.3827664591  LPSA1     1               0.0000000000
       112         1  ECLIPA    H76S            1.3243450848       10.4733524638       10.8734569076  LPSA1     1               0.0000000000
       113         1  ECLIPA    C77             1.1301414860        9.0990799128        9.4414338096  LPSA1     1               0.0000000000
       114         1  ECLIPA    H77R            0.2341139629        9.6532017898        9.1082228256  LPSA1     1               0.0000000000
       115         1  ECLIPA    H77S            0.8594851387        8.0675001394        9.2637674404  LPSA1     1               0.0000000000
       116         1  ECLIPA    C78             2.4947503527        9.3818996213        8.8022407340  LPSA1     1               0.0000000000
       117         1  ECLIPA    H78R            2.8366876700       10.4088020918        9.0557248592  LPSA1     1               0.0000000000
       118         1  ECLIPA    H78S            3.2004019250        8.7010657931        9.3300405068  LPSA1     1               0.0000000000
       119         1  ECLIPA    C79             2.6417938128        9.0288674589        7.3107721010  LPSA1     1               0.0000000000
       120         1  ECLIPA    H79R            3.0811064731        8.0207550022        7.2080569210  LPSA1     1               0.0000000000
       121         1  ECLIPA    H79S            3.3413862374        9.7576843455        6.8444087075  LPSA1     1               0.0000000000
       122         1  ECLIPA    C710            1.3620377873        8.9593512802        6.4744560514  LPSA1     1               0.0000000000
       123         1  ECLIPA    H710R           0.4759486374        8.5146272591        6.9356024865  LPSA1     1               0.0000000000
       124         1  ECLIPA    H710S           0.9685456944        9.9473997209        6.4497120183  LPSA1     1               0.0000000000
       125         1  ECLIPA    C711            1.5490861670        8.6356307874        4.9767230521  LPSA1     1               0.0000000000
       126         1  ECLIPA    H711R           2.3533818216        9.2176016653        4.4551871502  LPSA1     1               0.0000000000
       127         1  ECLIPA    H711S           1.8558216187        7.5933037758        4.9045875478  LPSA1     1               0.0000000000
       128         1  ECLIPA    C712            0.2013821952        8.8430082573        4.2939900309  LPSA1     1               0.0000000000
       129         1  ECLIPA    H712R          -0.2940450617        9.7419714068        4.4419336164  LPSA1     1               0.0000000000
       130         1  ECLIPA    H712S          -0.5983813225        8.3851165284        4.8791890209  LPSA1     1               0.0000000000
       131         1  ECLIPA    C713            0.1232330835        8.8464698804        2.7699498476  LPSA1     1               0.0000000000
       132         1  ECLIPA    H713R          -0.0024809266        7.8315808943        2.9005056329  LPSA1     1               0.0000000000
       133         1  ECLIPA    H713S          -0.8385609918        8.9730027416        2.2738307515  LPSA1     1               0.0000000000
       134         1  ECLIPA    C714            1.2421163179        9.3824355931        1.8530605226  LPSA1     1               0.0000000000
       135         1  ECLIPA    H714R           1.1408469985       10.4365178588        1.6592415941  LPSA1     1               0.0000000000
       136         1  ECLIPA    H714S           2.2812542812        9.2511621228        2.2067691532  LPSA1     1               0.0000000000
       137         1  ECLIPA    H714T           1.1077978210        9.0062733965        0.8450582686  LPSA1     1               0.0000000000
       138         1  ECLIPA    C51             2.4309759319        5.0173071722       14.2393752165  LPSA1     1               0.0000000000
       139         1  ECLIPA    O51             1.2329978388        5.1353197734       14.0723259480  LPSA1     1               0.0000000000
       140         1  ECLIPA    C52             3.3698217177        5.1410199824       13.0699053628  LPSA1     1               0.0000000000
       141         1  ECLIPA    H52R            3.7079599181        6.1909870562       12.9423976669  LPSA1     1               0.0000000000
       142         1  ECLIPA    H52S            4.2541949240        4.5225680350       13.2513891201  LPSA1     1               0.0000000000
       143         1  ECLIPA    C53             2.6568110461        4.6828044924       11.7947693192  LPSA1     1               0.0000000000
       144         1  ECLIPA    H53R            1.9565898304        3.8343069091       12.0085561495  LPSA1     1               0.0000000000
       145         1  ECLIPA    O53             3.6784499429        4.3150942032       10.9004278749  LPSA1     1               0.0000000000
       146         1  ECLIPA    C61             3.6768231594        3.0833720323       10.5403814299  LPSA1     1               0.0000000000
       147         1  ECLIPA    O61             3.0570541590        2.1398234028       10.9729659533  LPSA1     1               0.0000000000
       148         1  ECLIPA    C62             4.7505268702        2.9449584788        9.6064039627  LPSA1     1               0.0000000000
       149         1  ECLIPA    H62R            5.6018499039        2.9245277724       10.2809357176  LPSA1     1               0.0000000000
       150         1  ECLIPA    H62S            5.0034275988        3.8378218206        9.0137074315  LPSA1     1               0.0000000000
       151         1  ECLIPA    C63             4.3396184161        1.6588911571        8.9043902248  LPSA1     1               0.0000000000
       152         1  ECLIPA    H63R            3.4182689192        1.5907779979        8.3305312252  LPSA1     1               0.0000000000
       153         1  ECLIPA    H63S            4.6606791138        0.6898629814        9.4278953124  LPSA1     1               0.0000000000
       154         1  ECLIPA    C64             4.9346782077        1.6434298454        7.5622394077  LPSA1     1               0.0000000000
       155         1  ECLIPA    H64R            5.3261704055        0.5896742454        7.6297649329  LPSA1     1               0.0000000000
       156         1  ECLIPA    H64S            5.8143989438        2.0486585845        7.9138821923  LPSA1     1               0.0000000000
       157         1  ECLIPA    C65             5.2757714146        2.9711338771        6.6793829235  LPSA1     1               0.0000000000
       158         1  ECLIPA    H65R            5.8603553695        3.7313061434        7.2652102461  LPSA1     1               0.0000000000
       159         1  ECLIPA    H65S            4.3659801577        2.9816737357        6.1020510078  LPSA1     1               0.0000000000
       160         1  ECLIPA    C66             6.1417203188        3.2492447970        5.3454074995  LPSA1     1               0.0000000000
       161         1  ECLIPA    H66R            7.2518187056        3.2293858790        5.5992674742  LPSA1     1               0.0000000000
       162         1  ECLIPA    H66S            6.0751795793        4.1659204825        4.7994075374  LPSA1     1               0.0000000000
       163         1  ECLIPA    C67             5.8404149202        2.3557140643        4.1177708586  LPSA1     1               0.0000000000
       164         1  ECLIPA    H67R            5.6534344640        1.3468583936        4.5304254738  LPSA1     1               0.0000000000
       165         1  ECLIPA    H67S            6.7296736615        2.4261224044        3.4453724417  LPSA1     1               0.0000000000
       166         1  ECLIPA    C68             4.5811103905        1.8591574479        3.3926935222  LPSA1     1               0.0000000000
       167         1  ECLIPA    H68R            4.4452241278        2.8285916681        2.9465883176  LPSA1     1               0.0000000000
       168         1  ECLIPA    H68S            3.8693410008        1.5123773070        4.1931279320  LPSA1     1               0.0000000000
       169         1  ECLIPA    C69             4.6823411742        0.8808933246        2.1601785095  LPSA1     1               0.0000000000
       170         1  ECLIPA    H69R            5.2186690629       -0.0965481792        2.1030237008  LPSA1     1               0.0000000000
       171         1  ECLIPA    H69S            5.2845301476        1.3971504499        1.3938788695  LPSA1     1               0.0000000000
       172         1  ECLIPA    C610            3.3985175237        0.1941403657        1.8920558935  LPSA1     1               0.0000000000
       173         1  ECLIPA    H610R           2.6757195488        1.0097661662        1.9880795105  LPSA1     1               0.0000000000
       174         1  ECLIPA    H610S           3.2520598177       -0.5815477210        2.6883516353  LPSA1     1               0.0000000000
       175         1  ECLIPA    C611            3.4763702969       -0.4390717154        0.5323104601  LPSA1     1               0.0000000000
       176         1  ECLIPA    H611R           4.2413705780       -1.2028976934        0.5183556679  LPSA1     1               0.0000000000
       177         1  ECLIPA    H611S           2.5672511248       -1.0361002914        0.3816411776  LPSA1     1               0.0000000000
       178         1  ECLIPA    C612            3.7287369531        0.5970734413       -0.5621299979  LPSA1     1               0.0000000000
       179         1  ECLIPA    H612R           2.8213274890        1.2384912926       -0.6264197109  LPSA1     1               0.0000000000
       180         1  ECLIPA    H612S           4.5982283457        1.2451721278       -0.3770738517  LPSA1     1               0.0000000000
       181         1  ECLIPA    H612T           3.8955788183        0.1194144956       -1.5441867252  LPSA1     1               0.0000000000
       182         1  ECLIPA    C54             1.8836982139        5.8606646649       11.1809781214  LPSA1     1               0.0000000000
       183         1  ECLIPA    H54R            2.6424584233        6.6201771311       10.8855106329  LPSA1     1               0.0000000000
       184         1  ECLIPA    H54S            1.2571087428        6.2840984910       11.9853003603  LPSA1     1               0.0000000000
       185         1  ECLIPA    C55             0.9824736487        5.5507781813        9.9730689302  LPSA1     1               0.0000000000
       186         1  ECLIPA    H55R            0.2578019883        6.3774909327        9.8281797745  LPSA1     1               0.0000000000
       187         1  ECLIPA    H55S            0.3656514382        4.6568125159       10.2040591242  LPSA1     1               0.0000000000
       188         1  ECLIPA    C56             1.8265773436        5.4203196402        8.7043551259  LPSA1     1               0.0000000000
       189         1  ECLIPA    H56R            2.5854600088        4.6342559328        8.8607571640  LPSA1     1               0.0000000000
       190         1  ECLIPA    H56S            2.3788389740        6.3673942030        8.5087160566  LPSA1     1               0.0000000000
       191         1  ECLIPA    C57             1.1152080125        4.9994754550        7.4311615802  LPSA1     1               0.0000000000
       192         1  ECLIPA    H57R            0.2608537544        5.6652971360        7.1850799550  LPSA1     1               0.0000000000
       193         1  ECLIPA    H57S            0.7081155615        3.9705733856        7.5554094639  LPSA1     1               0.0000000000
       194         1  ECLIPA    C58             2.1569604157        4.9536011842        6.3132991461  LPSA1     1               0.0000000000
       195         1  ECLIPA    H58R            2.7481025751        5.8938003386        6.2293415589  LPSA1     1               0.0000000000
       196         1  ECLIPA    H58S            2.8791873601        4.1479587301        6.5361166257  LPSA1     1               0.0000000000
       197         1  ECLIPA    C59             1.5277235586        4.6306871333        4.9832364004  LPSA1     1               0.0000000000
       198         1  ECLIPA    H59R            0.7995115235        5.4645049382        4.7884260303  LPSA1     1               0.0000000000
       199         1  ECLIPA    H59S            0.8785131278        3.7426012198        5.0691064304  LPSA1     1               0.0000000000
       200         1  ECLIPA    C510            2.6186892778        4.4255235025        3.8897259219  LPSA1     1               0.0000000000
       201         1  ECLIPA    H510R           3.5990738767        4.0185755447        4.0679950375  LPSA1     1               0.0000000000
       202         1  ECLIPA    H510S           3.0565552356        5.4540853883        3.8669732477  LPSA1     1               0.0000000000
       203         1  ECLIPA    C511            2.0071597839        3.8004443666        2.5950030242  LPSA1     1               0.0000000000
       204         1  ECLIPA    H511R           1.8155795367        2.7579678731        2.4361680472  LPSA1     1               0.0000000000
       205         1  ECLIPA    H511S           0.9168653892        4.1067989191        2.6151355137  LPSA1     1               0.0000000000
       206         1  ECLIPA    C512            2.6378691399        4.0416265182        1.2032356509  LPSA1     1               0.0000000000
       207         1  ECLIPA    H512R           1.7525443316        3.9847754228        0.5621940256  LPSA1     1               0.0000000000
       208         1  ECLIPA    H512S           2.9907103764        4.9781907915        0.9639219912  LPSA1     1               0.0000000000
       209         1  ECLIPA    C513            4.0399146133        3.7425062006        0.7086544104  LPSA1     1               0.0000000000
       210         1  ECLIPA    H513R           3.7604669114        2.7231457760        0.5305125996  LPSA1     1               0.0000000000
       211         1  ECLIPA    H513S           4.7329976154        4.0341098174        1.5250986085  LPSA1     1               0.0000000000
       212         1  ECLIPA    C514            4.6521399174        4.3069481775       -0.5773603306  LPSA1     1               0.0000000000
       213         1  ECLIPA    H514R           4.8975408514        5.4019128469       -0.4978241334  LPSA1     1               0.0000000000
       214         1  ECLIPA    H514S           5.6233894278        3.8356962607       -0.7580892190  LPSA1     1               0.0000000000
       215         1  ECLIPA    H514T           3.9964623259        4.1462265277       -1.4692216261  LPSA1     1               0.0000000000
       216         1  ECLIPA    C33             6.0559717996        1.5754735164       14.6180532371  LPSA1     1               0.0000000000
       217         1  ECLIPA    H33R            7.1242346700        1.3913236441       14.9308941019  LPSA1     1               0.0000000000
       218         1  ECLIPA    O33             5.4010005568        2.1560795774       15.6776297345  LPSA1     1               0.0000000000
       219         1  ECLIPA    HO33            5.6800460936        1.7837855398       16.5071681726  LPSA1     1               0.0000000000
       220         1  ECLIPA    C34             5.8879169694        2.6090675669       13.5701738627  LPSA1     1               0.0000000000
       221         1  ECLIPA    H34R            5.0627406894        2.6480200556       12.8585300735  LPSA1     1               0.0000000000
       222         1  ECLIPA    H34S            6.2745219874        1.7984730622       13.0756285276  LPSA1     1               0.0000000000
       223         1  ECLIPA    C35             6.7647020782        3.8502814632       13.6621698412  LPSA1     1               0.0000000000
       224         1  ECLIPA    H35R            7.8211744678        3.6084443851       13.9357206087  LPSA1     1               0.0000000000
       225         1  ECLIPA    H35S            6.3623477147        4.4374489437       14.4990152004  LPSA1     1               0.0000000000
       226         1  ECLIPA    C36             6.7750221094        4.6503485055       12.3623696849  LPSA1     1               0.0000000000
       227         1  ECLIPA    H36R            5.9374535094        4.3412918583       11.7289258592  LPSA1     1               0.0000000000
       228         1  ECLIPA    H36S            7.5845359025        4.4922675066       11.6556398805  LPSA1     1               0.0000000000
       229         1  ECLIPA    C37             6.7830664559        6.0965375417       12.6122161463  LPSA1     1               0.0000000000
       230         1  ECLIPA    H37R            7.8251729237        6.5128935514       12.6286693559  LPSA1     1               0.0000000000
       231         1  ECLIPA    H37S            6.3314031507        6.3223386183       13.5859106578  LPSA1     1               0.0000000000
       232         1  ECLIPA    C38             6.0438330977        6.7639219614       11.5160039104  LPSA1     1               0.0000000000
       233         1  ECLIPA    H38R            4.9626464919        6.8720477258       11.4967607208  LPSA1     1               0.0000000000
       234         1  ECLIPA    H38S            6.5437569887        7.6322704254       11.8690943206  LPSA1     1               0.0000000000
       235         1  ECLIPA    C39             6.5519597604        6.4136403941       10.1867020169  LPSA1     1               0.0000000000
       236         1  ECLIPA    H39R            6.5295956538        5.3495139818       10.0007250414  LPSA1     1               0.0000000000
       237         1  ECLIPA    H39S            7.5879499660        6.8843766532       10.3863370180  LPSA1     1               0.0000000000
       238         1  ECLIPA    C310            5.6927782695        6.7964487071        8.9641834551  LPSA1     1               0.0000000000
       239         1  ECLIPA    H310R           6.4463720131        7.4769143098        9.1854958371  LPSA1     1               0.0000000000
       240         1  ECLIPA    H310S           4.7167144893        7.2342809994        9.0421181139  LPSA1     1               0.0000000000
       241         1  ECLIPA    C311            5.9674495013        6.3583720821        7.5319033889  LPSA1     1               0.0000000000
       242         1  ECLIPA    H311R           6.9499369143        6.4788099867        7.8180068468  LPSA1     1               0.0000000000
       243         1  ECLIPA    H311S           5.5275006942        5.4411863071        7.3430731197  LPSA1     1               0.0000000000
       244         1  ECLIPA    C312            5.9743327782        7.0485576691        6.1979125082  LPSA1     1               0.0000000000
       245         1  ECLIPA    H312R           5.0863956938        7.6482501709        6.4724219780  LPSA1     1               0.0000000000
       246         1  ECLIPA    H312S           7.0278595810        7.4692606579        5.9746409651  LPSA1     1               0.0000000000
       247         1  ECLIPA    C313            5.7908315401        6.4192307253        4.8938394382  LPSA1     1               0.0000000000
       248         1  ECLIPA    H313R           6.8425350230        6.1627977031        4.6161441661  LPSA1     1               0.0000000000
       249         1  ECLIPA    H313S           5.0837047372        5.6506727600        5.1824723639  LPSA1     1               0.0000000000
       250         1  ECLIPA    C314            5.1314922194        7.1443429010        3.7814348714  LPSA1     1               0.0000000000
       251         1  ECLIPA    H314R           5.9175408907        7.4650016754        3.1052968309  LPSA1     1               0.0000000000
       252         1  ECLIPA    H314S           5.0844126945        6.7321880385        2.7937029755  LPSA1     1               0.0000000000
       253         1  ECLIPA    H314T           4.4349903619        7.9728802172        4.0702591487  LPSA1     1               0.0000000000
       254         1  ECLIPA    C11             0.4130839482        0.6861039583       11.2511295475  LPSA1     1               0.0000000000
       255         1  ECLIPA    O11             0.1135429083        1.8604867702       11.0885497668  LPSA1     1               0.0000000000
       256         1  ECLIPA    C12            -0.1339283537       -0.3728589624       10.3297323256  LPSA1     1               0.0000000000
       257         1  ECLIPA    H12R           -1.2019280566       -0.5428019997       10.5602682276  LPSA1     1               0.0000000000
       258         1  ECLIPA    H12S            0.4365564611       -1.3085175202       10.5138083075  LPSA1     1               0.0000000000
       259         1  ECLIPA    C13             0.0041439594        0.0057574666        8.8611014614  LPSA1     1               0.0000000000
       260         1  ECLIPA    H13R           -0.2376890827        1.0721992649        8.6465809831  LPSA1     1               0.0000000000
       261         1  ECLIPA    O13            -0.8797429873       -0.8263635033        8.1232989588  LPSA1     1               0.0000000000
       262         1  ECLIPA    HO13           -1.1604644934       -0.4501882313        7.2852623674  LPSA1     1               0.0000000000
       263         1  ECLIPA    C14             1.4377000876       -0.2537673589        8.4360023859  LPSA1     1               0.0000000000
       264         1  ECLIPA    H14R            1.7823623428       -1.1665817539        8.9520948754  LPSA1     1               0.0000000000
       265         1  ECLIPA    H14S            2.0162508194        0.5977285712        8.8091714274  LPSA1     1               0.0000000000
       266         1  ECLIPA    C15             1.6607333599       -0.4048843743        6.9468965826  LPSA1     1               0.0000000000
       267         1  ECLIPA    H15R            1.0680036356       -1.2571919343        6.5618228852  LPSA1     1               0.0000000000
       268         1  ECLIPA    H15S            2.6859936042       -0.7067717550        6.8184440032  LPSA1     1               0.0000000000
       269         1  ECLIPA    C16             1.4761185780        0.8937500942        6.1727595750  LPSA1     1               0.0000000000
       270         1  ECLIPA    H16R            2.3691243023        1.5482431717        6.2747849288  LPSA1     1               0.0000000000
       271         1  ECLIPA    H16S            0.6363826118        1.4400638636        6.6421146030  LPSA1     1               0.0000000000
       272         1  ECLIPA    C17             1.2324825239        0.5943440722        4.6973404343  LPSA1     1               0.0000000000
       273         1  ECLIPA    H17R            1.9935999661       -0.1586787906        4.3894175766  LPSA1     1               0.0000000000
       274         1  ECLIPA    H17S            1.3655512091        1.4899437675        4.0599051240  LPSA1     1               0.0000000000
       275         1  ECLIPA    C18            -0.1661148264        0.0272915842        4.4669669316  LPSA1     1               0.0000000000
       276         1  ECLIPA    H18R           -0.2602941985       -0.8820014463        5.0934210391  LPSA1     1               0.0000000000
       277         1  ECLIPA    H18S           -0.9311733470        0.7714227476        4.7871435502  LPSA1     1               0.0000000000
       278         1  ECLIPA    C19            -0.4226888871       -0.3577282553        3.0172578062  LPSA1     1               0.0000000000
       279         1  ECLIPA    H19R           -1.3860367238       -0.9077869050        2.9355827809  LPSA1     1               0.0000000000
       280         1  ECLIPA    H19S            0.3954013132       -1.0225917793        2.6488319826  LPSA1     1               0.0000000000
       281         1  ECLIPA    C110           -0.4848958829        0.8621177465        2.1123144401  LPSA1     1               0.0000000000
       282         1  ECLIPA    H110R          -1.2203094803        1.6216714941        2.4634566864  LPSA1     1               0.0000000000
       283         1  ECLIPA    H110S           0.5200933809        1.3192680503        2.1108343596  LPSA1     1               0.0000000000
       284         1  ECLIPA    C111           -0.8552938466        0.4328670170        0.7042827336  LPSA1     1               0.0000000000
       285         1  ECLIPA    H111R          -0.2225343512       -0.4259422754        0.3880787556  LPSA1     1               0.0000000000
       286         1  ECLIPA    H111S          -1.9046447551        0.0672629765        0.7591881880  LPSA1     1               0.0000000000
       287         1  ECLIPA    C112           -0.7788292526        1.5946741649       -0.2895534068  LPSA1     1               0.0000000000
       288         1  ECLIPA    H112R          -1.5477457377        2.3130568262        0.0675487981  LPSA1     1               0.0000000000
       289         1  ECLIPA    H112S           0.1984053503        2.1207425101       -0.2103372693  LPSA1     1               0.0000000000
       290         1  ECLIPA    C113           -0.9490612784        1.0908663652       -1.7364330552  LPSA1     1               0.0000000000
       291         1  ECLIPA    H113R          -0.0113306876        0.5464360731       -1.9861759669  LPSA1     1               0.0000000000
       292         1  ECLIPA    H113S          -1.7579402526        0.3317441529       -1.7911096929  LPSA1     1               0.0000000000
       293         1  ECLIPA    C114           -1.2048942313        2.1064973614       -2.8564530202  LPSA1     1               0.0000000000
       294         1  ECLIPA    H114R          -2.0700056969        2.7713536328       -2.6732147732  LPSA1     1               0.0000000000
       295         1  ECLIPA    H114S          -0.3063357043        2.7364788595       -3.0290903941  LPSA1     1               0.0000000000
       296         1  ECLIPA    H114T          -1.4622929116        1.5413882578       -3.7810009819  LPSA1     1               0.0000000000
       297         2  AKDO      C1              3.3883887305        6.0522821536       22.4161068388  LPSA1     2               0.0000000000
       298         2  AKDO      O11             3.5036313365        7.3028181743       22.4094990358  LPSA1     2               0.0000000000
       299         2  AKDO      O12             4.2586032275        5.2136303272       22.0632284733  LPSA1     2               0.0000000000
       300         2  AKDO      C2              2.0352234689        5.4559959502       22.8784632706  LPSA1     2               0.0000000000
       301         2  AKDO      C6             -0.0880468270        6.0169253601       23.8603107099  LPSA1     2               0.0000000000
       302         2  AKDO      H6             -0.5276199612        5.5403697656       22.9472417938  LPSA1     2               0.0000000000
       303         2  AKDO      O6              1.2074720835        6.4893268825       23.4670671460  LPSA1     2               0.0000000000
       304         2  AKDO      C3              2.1796905550        4.3525991188       23.9283379960  LPSA1     2               0.0000000000
       305         2  AKDO      H31             2.7821411172        4.7251653026       24.7859500970  LPSA1     2               0.0000000000
       306         2  AKDO      H32             2.7268634458        3.5137880733       23.4472608871  LPSA1     2               0.0000000000
       307         2  AKDO      C4              0.8428674750        3.8411256227       24.3716681658  LPSA1     2               0.0000000000
       308         2  AKDO      H4              0.2824803287        3.4837893319       23.4793970088  LPSA1     2               0.0000000000
       309         2  AKDO      O4              0.9090834776        2.8375067202       25.3839588107  LPSA1     2               0.0000000000
       310         2  AKDO      C5              0.0163160852        4.9476284839       24.9590060982  LPSA1     2               0.0000000000
       311         2  AKDO      H5             -1.0178615665        4.5406880897       25.0854849610  LPSA1     2               0.0000000000
       312         2  AKDO      O5              0.6060610594        5.3185747696       26.2494833786  LPSA1     2               0.0000000000
       313         2  AKDO      C7             -1.0097336638        7.1870450561       24.1642740316  LPSA1     2               0.0000000000
       314         2  AKDO      H7             -0.6326901634        7.6921802200       25.0763247690  LPSA1     2               0.0000000000
       315         2  AKDO      O7             -2.3644727294        6.7470230548       24.3682746946  LPSA1     2               0.0000000000
       316         2  AKDO      HO7            -2.7311224077        6.6103415937       23.4911647788  LPSA1     2               0.0000000000
       317         2  AKDO      C8             -1.0003640237        8.1814282047       23.0248145196  LPSA1     2               0.0000000000
       318         2  AKDO      H81             0.0571478531        8.5061033127       22.8561655772  LPSA1     2               0.0000000000
       319         2  AKDO      H82            -1.3478478436        7.6768692828       22.0900810800  LPSA1     2               0.0000000000
       320         2  AKDO      O8             -1.8238955600        9.3289302385       23.3379907470  LPSA1     2               0.0000000000
       321         2  AKDO      HO8            -1.3998848932       10.0620037836       22.8748109085  LPSA1     2               0.0000000000
       322         3  AKDO      C1              0.3541593452        1.0773813736       23.7770103282  LPSA1     3               1.0000000000
       323         3  AKDO      O11             0.9321922213        1.0665852718       22.6498435760  LPSA1     3               1.0000000000
       324         3  AKDO      O12            -0.8127847337        0.6813831354       24.0441863983  LPSA1     3               1.0000000000
       325         3  AKDO      C2              1.1612948359        1.5149892744       25.0301714221  LPSA1     3               1.0000000000
       326         3  AKDO      C6              3.3411518308        1.8613733515       25.7668650593  LPSA1     3               1.0000000000
       327         3  AKDO      H6              3.1524789552        2.9294725651       26.0203046988  LPSA1     3               1.0000000000
       328         3  AKDO      O6              2.4952791422        1.4010071572       24.7003508030  LPSA1     3               1.0000000000
       329         3  AKDO      C3              0.9348379716        0.7315309807       26.3303581308  LPSA1     3               1.0000000000
       330         3  AKDO      H31             1.1598839867       -0.3293491831       26.1195890882  LPSA1     3               1.0000000000
       331         3  AKDO      H32            -0.1267404286        0.8203891796       26.6128006343  LPSA1     3               1.0000000000
       332         3  AKDO      C4              1.8230772836        1.2235998591       27.4389695583  LPSA1     3               1.0000000000
       333         3  AKDO      H4              1.7266999520        2.3342425956       27.4963608109  LPSA1     3               1.0000000000
       334         3  AKDO      O4              1.5542992701        0.7215658536       28.7289909918  LPSA1     3               1.0000000000
       335         3  AKDO      HO4             1.3777531320        1.4465040166       29.3448952011  LPSA1     3               1.0000000000
       336         3  AKDO      C5              3.2145385529        0.9868370236       27.0583916400  LPSA1     3               1.0000000000
       337         3  AKDO      H5              3.8883645435        1.3099089064       27.8840002220  LPSA1     3               1.0000000000
       338         3  AKDO      O5              3.4563442897       -0.4318146029       26.8872417832  LPSA1     3               1.0000000000
       339         3  AKDO      HO5             2.9024709384       -0.7124853928       26.1598350303  LPSA1     3               1.0000000000
       340         3  AKDO      C7              4.6503888593        1.9372950386       25.2481885513  LPSA1     3               1.0000000000
       341         3  AKDO      H7              4.4409398599        0.8923187703       24.9856233954  LPSA1     3               1.0000000000
       342         3  AKDO      O7              5.3859353001        2.4105386611       26.3759866906  LPSA1     3               1.0000000000
       343         3  AKDO      HO7             6.2777682726        2.0471693918       26.3110098910  LPSA1     3               1.0000000000
       344         3  AKDO      C8              5.0650985635        2.5350963342       23.9328257216  LPSA1     3               1.0000000000
       345         3  AKDO      H81             4.3313730036        2.1940921933       23.2030419247  LPSA1     3               1.0000000000
       346         3  AKDO      H82             5.0419793236        3.5719411556       24.1501696284  LPSA1     3               1.0000000000
       347         3  AKDO      O8              6.3205652058        2.2660579994       23.2959622787  LPSA1     3               1.0000000000
       348         3  AKDO      HO8             6.4059217739        1.3131165192       23.1384882041  LPSA1     3               1.0000000000
       349         4  AHEP      C1             -0.2917806294        5.7661269638       27.2497168240  LPSA1     4               2.0000000000
       350         4  AHEP      H1             -0.5483956286        6.7898578319       26.9090384874  LPSA1     4               2.0000000000
       351         4  AHEP      C5             -1.4551260955        3.7869224708       27.9974245849  LPSA1     4               2.0000000000
       352         4  AHEP      H5             -0.6349432642        3.2057471172       27.5131010658  LPSA1     4               2.0000000000
       353         4  AHEP      O5             -1.5350623888        5.0577502359       27.3135025465  LPSA1     4               2.0000000000
       354         4  AHEP      C2              0.1820450947        5.9759338990       28.7064751301  LPSA1     4               2.0000000000
       355         4  AHEP      H2              1.1829057624        6.4600936551       28.6728145024  LPSA1     4               2.0000000000
       356         4  AHEP      O2             -0.6771802335        6.9027656139       29.3768063003  LPSA1     4               2.0000000000
       357         4  AHEP      HO2            -0.1409434528        7.4993022217       29.8907702021  LPSA1     4               2.0000000000
       358         4  AHEP      C3              0.3182790246        4.6850651475       29.4989047098  LPSA1     4               2.0000000000
       359         4  AHEP      H3              1.1206163960        4.0297377157       29.0933132987  LPSA1     4               2.0000000000
       360         4  AHEP      O3              0.6012924854        4.9813127587       30.8865327280  LPSA1     4               2.0000000000
       361         4  AHEP      C4             -1.0306744382        3.9968736103       29.4556414685  LPSA1     4               2.0000000000
       362         4  AHEP      H4             -1.8258390441        4.5864229887       29.9692640374  LPSA1     4               2.0000000000
       363         4  AHEP      O4             -0.8286547639        2.7285598713       30.0632308209  LPSA1     4               2.0000000000
       364         4  AHEP      P4             -1.5739621872        2.3057728923       31.4822585172  LPSA1     4               2.0000000000
       365         4  AHEP      OP42           -0.5528574943        1.3806835464       32.1337555543  LPSA1     4               2.0000000000
       366         4  AHEP      OP43           -2.8342433911        1.6081339354       30.9676216361  LPSA1     4               2.0000000000
       367         4  AHEP      OP44           -1.8625693296        3.5916382039       32.2687017792  LPSA1     4               2.0000000000
       368         4  AHEP      C6             -2.7957624872        3.0308985481       27.8024329317  LPSA1     4               2.0000000000
       369         4  AHEP      H6             -2.5810324540        1.9677607808       28.0843334088  LPSA1     4               2.0000000000
       370         4  AHEP      O6             -3.8827548940        3.4750070963       28.6523640700  LPSA1     4               2.0000000000
       371         4  AHEP      HO6            -4.0759721025        2.7793895639       29.3009767711  LPSA1     4               2.0000000000
       372         4  AHEP      C7             -3.3072914424        3.0341012783       26.3489308576  LPSA1     4               2.0000000000
       373         4  AHEP      H71            -4.0945756000        2.2613480499       26.2061571513  LPSA1     4               2.0000000000
       374         4  AHEP      H72            -2.4708372546        2.7952892569       25.6563577263  LPSA1     4               2.0000000000
       375         4  AHEP      O7             -3.8716324098        4.2808625439       25.9099050835  LPSA1     4               2.0000000000
       376         4  AHEP      HO7            -4.7261799248        4.3084193318       26.3496984747  LPSA1     4               2.0000000000
       377         5  AHEP      C1              1.7767304653        4.4627601132       31.4640331272  LPSA1     5               3.0000000000
       378         5  AHEP      H1              2.0604296022        3.4944810802       30.9846705563  LPSA1     5               3.0000000000
       379         5  AHEP      C5              2.5733946843        6.6480008245       31.9704958264  LPSA1     5               3.0000000000
       380         5  AHEP      H5              1.5886700473        7.0214722379       31.6029228597  LPSA1     5               3.0000000000
       381         5  AHEP      O5              2.8415769069        5.4030520384       31.2827871351  LPSA1     5               3.0000000000
       382         5  AHEP      C2              1.5850678832        4.2167270596       32.9683686754  LPSA1     5               3.0000000000
       383         5  AHEP      H2              0.7035619818        3.5433926807       33.0887630328  LPSA1     5               3.0000000000
       384         5  AHEP      O2              2.7214870188        3.5389665568       33.5220558379  LPSA1     5               3.0000000000
       385         5  AHEP      HO2             2.5106877148        2.6054909946       33.6199191974  LPSA1     5               3.0000000000
       386         5  AHEP      C3              1.2902322268        5.5030940172       33.7301271001  LPSA1     5               3.0000000000
       387         5  AHEP      H3              0.3538853705        5.9491209236       33.3162618255  LPSA1     5               3.0000000000
       388         5  AHEP      O3              1.1566288029        5.3381319046       35.1626137724  LPSA1     5               3.0000000000
       389         5  AHEP      C4              2.4360334793        6.4454355033       33.4692896011  LPSA1     5               3.0000000000
       390         5  AHEP      H4              3.4054241996        6.0258698707       33.8477373184  LPSA1     5               3.0000000000
       391         5  AHEP      O4              2.0819715173        7.7016658780       34.0580762409  LPSA1     5               3.0000000000
       392         5  AHEP      P4              3.0009670327        8.2934883597       35.3056405322  LPSA1     5               3.0000000000
       393         5  AHEP      OP42            2.2188739898        9.4730750620       35.8562104599  LPSA1     5               3.0000000000
       394         5  AHEP      OP43            4.2700318180        8.7345192452       34.6146906624  LPSA1     5               3.0000000000
       395         5  AHEP      OP44            3.1478470930        7.1579921731       36.3128373267  LPSA1     5               3.0000000000
       396         5  AHEP      C6              3.5994762877        7.6922283546       31.5750621784  LPSA1     5               3.0000000000
       397         5  AHEP      H6              3.3256909974        8.6705149365       32.0461221608  LPSA1     5               3.0000000000
       398         5  AHEP      O6              4.9242715544        7.4059924763       31.9867266534  LPSA1     5               3.0000000000
       399         5  AHEP      HO6             5.3238728656        6.6564928367       31.5707578532  LPSA1     5               3.0000000000
       400         5  AHEP      C7              3.6172487071        7.8740365271       30.0923189232  LPSA1     5               3.0000000000
       401         5  AHEP      H71             3.9507133460        8.8988681064       30.0083081657  LPSA1     5               3.0000000000
       402         5  AHEP      H72             2.6224748661        7.7908620061       29.6048330397  LPSA1     5               3.0000000000
       403         5  AHEP      O7              4.6671566653        7.2119078341       29.4072077870  LPSA1     5               3.0000000000
       404         6  AHEP      C1              4.2264170498        6.0373604875       28.7973886215  LPSA1     6               4.0000000000
       405         6  AHEP      H1              3.1845009436        5.8230978868       29.0539968006  LPSA1     6               4.0000000000
       406         6  AHEP      C5              5.5655675158        6.4479790184       26.9688544023  LPSA1     6               4.0000000000
       407         6  AHEP      H5              5.8917090688        7.3491215602       27.5178285453  LPSA1     6               4.0000000000
       408         6  AHEP      O5              4.2421876221        6.2006960225       27.3942842336  LPSA1     6               4.0000000000
       409         6  AHEP      C2              5.1025473616        4.8802692407       29.2298016977  LPSA1     6               4.0000000000
       410         6  AHEP      H2              5.0632767688        4.8396934675       30.3455753809  LPSA1     6               4.0000000000
       411         6  AHEP      O2              4.6175745761        3.6644657524       28.7343353178  LPSA1     6               4.0000000000
       412         6  AHEP      HO2             4.2917948884        3.1894663990       29.4946094676  LPSA1     6               4.0000000000
       413         6  AHEP      C3              6.4906650188        5.1739593221       28.7906490365  LPSA1     6               4.0000000000
       414         6  AHEP      H3              6.6022923944        6.1129997182       29.2418190850  LPSA1     6               4.0000000000
       415         6  AHEP      O3              7.4426635586        4.2341212945       29.2762315934  LPSA1     6               4.0000000000
       416         6  AHEP      HO3             8.0046963508        4.4593317325       30.0164317231  LPSA1     6               4.0000000000
       417         6  AHEP      C4              6.5595186331        5.3737436557       27.3148662557  LPSA1     6               4.0000000000
       418         6  AHEP      H4              6.3413495618        4.4803552518       26.7331224814  LPSA1     6               4.0000000000
       419         6  AHEP      O4              7.8833343704        5.8351824697       26.9897036066  LPSA1     6               4.0000000000
       420         6  AHEP      HO4             8.0373048125        6.7416116371       27.2487861366  LPSA1     6               4.0000000000
       421         6  AHEP      C6              5.4147960964        6.6240177718       25.4580992380  LPSA1     6               4.0000000000
       422         6  AHEP      H6              6.4371784518        6.4365591581       25.1345046206  LPSA1     6               4.0000000000
       423         6  AHEP      O6              5.2643591277        5.6063828210       24.5903857103  LPSA1     6               4.0000000000
       424         6  AHEP      HO6             4.8026295596        5.9969511488       23.8299386474  LPSA1     6               4.0000000000
       425         6  AHEP      C7              4.6590793980        7.8798805962       25.0561487602  LPSA1     6               4.0000000000
       426         6  AHEP      H71             4.9348998692        8.4271642098       24.1120482269  LPSA1     6               4.0000000000
       427         6  AHEP      H72             4.9623171450        8.5052549932       25.8852014429  LPSA1     6               4.0000000000
       428         6  AHEP      O7              3.2727911456        7.8966941861       25.2597129133  LPSA1     6               4.0000000000
       429         6  AHEP      HO7             3.1994788215        8.0863431777       26.1925371755  LPSA1     6               4.0000000000
       430         7  AGLC      C1             -0.1473587393        5.1673685892       35.6574988151  LPSA1     7               4.0000000000
       431         7  AGLC      H1             -0.8650113788        5.8520297582       35.1593851910  LPSA1     7               4.0000000000
       432         7  AGLC      C5              0.2601044929        2.8565288550       36.0965004353  LPSA1     7               4.0000000000
       433         7  AGLC      H5              1.3053947972        3.0355482207       35.8092368019  LPSA1     7               4.0000000000
       434         7  AGLC      O5             -0.5615052645        3.8276790045       35.4328273796  LPSA1     7               4.0000000000
       435         7  AGLC      C2             -0.2876849744        5.3771940118       37.1685248719  LPSA1     7               4.0000000000
       436         7  AGLC      H2             -1.3071695712        5.0511468237       37.4450316714  LPSA1     7               4.0000000000
       437         7  AGLC      O2             -0.2195441876        6.7437726697       37.5574311965  LPSA1     7               4.0000000000
       438         7  AGLC      HO2             0.7249652173        6.9913821488       37.5547691273  LPSA1     7               4.0000000000
       439         7  AGLC      C3              0.6119343597        4.4656368602       37.9699095107  LPSA1     7               4.0000000000
       440         7  AGLC      H3              1.6515913055        4.6163577225       37.6057176575  LPSA1     7               4.0000000000
       441         7  AGLC      O3              0.5773340110        4.7519033553       39.3971990733  LPSA1     7               4.0000000000
       442         7  AGLC      C4              0.1681670628        3.0476598441       37.6117949267  LPSA1     7               4.0000000000
       443         7  AGLC      H4             -0.8975093036        2.8892793104       37.9297192223  LPSA1     7               4.0000000000
       444         7  AGLC      O4              1.0195100523        2.1086682340       38.2572118145  LPSA1     7               4.0000000000
       445         7  AGLC      HO4             0.5178455740        1.3866315399       38.6485288908  LPSA1     7               4.0000000000
       446         7  AGLC      C6             -0.1090916889        1.5111107662       35.5100913622  LPSA1     7               4.0000000000
       447         7  AGLC      H61             0.0616009431        1.5291997880       34.4064268161  LPSA1     7               4.0000000000
       448         7  AGLC      H62             0.5560644834        0.6968989386       35.8872602173  LPSA1     7               4.0000000000
       449         7  AGLC      O6             -1.4827054602        1.2152884803       35.7853773586  LPSA1     7               4.0000000000
       450         7  AGLC      HO6            -1.4646493754        0.5552579121       36.4837760056  LPSA1     7               4.0000000000
       451         8  AGLC      C1              1.8362826737        5.1408795685       39.9230892007  LPSA1     8               5.0000000000
       452         8  AGLC      H1              2.6065302827        4.4632058197       39.5072620679  LPSA1     8               5.0000000000
       453         8  AGLC      C5              1.3846446294        7.5337022567       40.2161620485  LPSA1     8               5.0000000000
       454         8  AGLC      H5              0.3423297984        7.3482227090       39.8811417845  LPSA1     8               5.0000000000
       455         8  AGLC      O5              2.1964566416        6.5117341943       39.6009844961  LPSA1     8               5.0000000000
       456         8  AGLC      C2              1.9194784639        4.9822088170       41.4366004735  LPSA1     8               5.0000000000
       457         8  AGLC      H2              2.9752494612        5.2205734460       41.6980255030  LPSA1     8               5.0000000000
       458         8  AGLC      O2              1.6582873442        3.6634153850       41.9496644317  LPSA1     8               5.0000000000
       459         8  AGLC      C3              1.0190950718        5.9715630663       42.1254091748  LPSA1     8               5.0000000000
       460         8  AGLC      H3             -0.0115684188        5.7812606815       41.7217577908  LPSA1     8               5.0000000000
       461         8  AGLC      O3              1.0220642752        5.6654016048       43.5382392669  LPSA1     8               5.0000000000
       462         8  AGLC      C4              1.4639978495        7.3664786602       41.7292320720  LPSA1     8               5.0000000000
       463         8  AGLC      H4              2.5341774809        7.4775278452       42.0349696309  LPSA1     8               5.0000000000
       464         8  AGLC      O4              0.6885806296        8.3800287225       42.3645122957  LPSA1     8               5.0000000000
       465         8  AGLC      HO4            -0.2106866828        8.0525410203       42.4323183382  LPSA1     8               5.0000000000
       466         8  AGLC      C6              1.7186951556        8.9675266363       39.7395898395  LPSA1     8               5.0000000000
       467         8  AGLC      H61             1.8084362213        9.0244375712       38.6273415055  LPSA1     8               5.0000000000
       468         8  AGLC      H62             0.8909888511        9.6573629099       40.0168740787  LPSA1     8               5.0000000000
       469         8  AGLC      O6              2.8925235589        9.5149739730       40.3456453241  LPSA1     8               5.0000000000
       470         8  AGLC      HO6             2.6533258823        9.8712359459       41.1992608555  LPSA1     8               5.0000000000
       471         9  AGAL      C1              2.4048914946        2.6001164597       41.4275316849  LPSA1     9               6.0000000000
       472         9  AGAL      H1              2.3939480170        2.6603220701       40.3337178702  LPSA1     9               6.0000000000
       473         9  AGAL      C5              3.8954545067        2.4408865670       43.2466200994  LPSA1     9               6.0000000000
       474         9  AGAL      H5              3.1807890148        3.1591621091       43.7139654436  LPSA1     9               6.0000000000
       475         9  AGAL      O5              3.7768223588        2.6022143598       41.8445841891  LPSA1     9               6.0000000000
       476         9  AGAL      C2              1.6978587710        1.3218718473       41.8509883916  LPSA1     9               6.0000000000
       477         9  AGAL      H2              2.2647650970        0.4964505123       41.3630347200  LPSA1     9               6.0000000000
       478         9  AGAL      O2              0.4086941060        1.3597081094       41.2045763365  LPSA1     9               6.0000000000
       479         9  AGAL      C3              1.7779974117        1.1138203322       43.3595422644  LPSA1     9               6.0000000000
       480         9  AGAL      H3              1.2846487502        1.9463082801       43.8996533987  LPSA1     9               6.0000000000
       481         9  AGAL      O3              1.0915339015       -0.0598886719       43.7846677929  LPSA1     9               6.0000000000
       482         9  AGAL      HO3             0.3856877231       -0.1404782890       43.1451982537  LPSA1     9               6.0000000000
       483         9  AGAL      C4              3.2576408546        1.0775571666       43.6855978142  LPSA1     9               6.0000000000
       484         9  AGAL      H4              3.4070589131        0.9491777546       44.7769643451  LPSA1     9               6.0000000000
       485         9  AGAL      O4              3.7846017340       -0.0743740475       43.0344458183  LPSA1     9               6.0000000000
       486         9  AGAL      HO4             4.6250468895       -0.2788112790       43.4815584423  LPSA1     9               6.0000000000
       487         9  AGAL      C6              5.2424548151        3.0117074651       43.8016301483  LPSA1     9               6.0000000000
       488         9  AGAL      H61             5.2398899680        4.0773491169       43.7062828798  LPSA1     9               6.0000000000
       489         9  AGAL      H62             5.3196446726        2.7466105642       44.8825135794  LPSA1     9               6.0000000000
       490         9  AGAL      O6              6.5054035610        2.9271054148       43.1069068812  LPSA1     9               6.0000000000
       491         9  AGAL      HO6             6.6438296329        2.2011920779       42.4911353308  LPSA1     9               6.0000000000
       492        10  AGAL      C1             -0.7983342520        0.8642277189       41.7415576683  LPSA1     10              7.0000000000
       493        10  AGAL      H1             -0.6647786214       -0.2010454313       41.8638379771  LPSA1     10              7.0000000000
       494        10  AGAL      C5             -1.4082829351        2.7719958466       43.0412449107  LPSA1     10              7.0000000000
       495        10  AGAL      H5             -0.4754125028        3.2224037467       42.6404794707  LPSA1     10              7.0000000000
       496        10  AGAL      O5             -1.1821225179        1.3435774618       43.0487438462  LPSA1     10              7.0000000000
       497        10  AGAL      C2             -1.9177749162        1.1529791612       40.7548737143  LPSA1     10              7.0000000000
       498        10  AGAL      H2             -2.8485553345        0.6778195092       41.1266929955  LPSA1     10              7.0000000000
       499        10  AGAL      O2             -1.7146414985        0.5034199978       39.5074571980  LPSA1     10              7.0000000000
       500        10  AGAL      HO2            -2.5742788872        0.1376169267       39.2360800287  LPSA1     10              7.0000000000
       501        10  AGAL      C3             -2.1356348524        2.6632052992       40.6834978878  LPSA1     10              7.0000000000
       502        10  AGAL      H3             -1.1512547647        3.1296625959       40.4356236037  LPSA1     10              7.0000000000
       503        10  AGAL      O3             -3.0738344291        3.0652774247       39.6782012955  LPSA1     10              7.0000000000
       504        10  AGAL      HO3            -2.5908792017        3.5666074319       39.0229624697  LPSA1     10              7.0000000000
       505        10  AGAL      C4             -2.5199140590        3.1399598458       42.0660322088  LPSA1     10              7.0000000000
       506        10  AGAL      H4             -2.6165879113        4.2435515396       42.0836457499  LPSA1     10              7.0000000000
       507        10  AGAL      O4             -3.7615170846        2.5811099623       42.4632945996  LPSA1     10              7.0000000000
       508        10  AGAL      HO4            -3.6358136928        1.6477264373       42.6049383767  LPSA1     10              7.0000000000
       509        10  AGAL      C6             -1.5669246366        3.4218804551       44.4174490911  LPSA1     10              7.0000000000
       510        10  AGAL      H61            -0.7599828893        3.0840610677       45.0957500392  LPSA1     10              7.0000000000
       511        10  AGAL      H62            -1.4517779454        4.5284444136       44.2801806050  LPSA1     10              7.0000000000
       512        10  AGAL      O6             -2.8122379294        3.1451518725       45.0618963519  LPSA1     10              7.0000000000
       513        10  AGAL      HO6            -2.6706928467        2.7841188219       45.9307502301  LPSA1     10              7.0000000000
       514        11  BGLC      C1              1.8422064824        6.3295929377       44.4875789503  LPSA1     11              6.0000000000
       515        11  BGLC      H1              1.4957043150        7.3779862593       44.6164681950  LPSA1     11              6.0000000000
       516        11  BGLC      C5              4.0944495193        6.8137116531       45.2009533343  LPSA1     11              6.0000000000
       517        11  BGLC      H5              3.9084206662        7.9115879010       45.3810967906  LPSA1     11              6.0000000000
       518        11  BGLC      O5              3.2253473950        6.2500399494       44.1738117594  LPSA1     11              6.0000000000
       519        11  BGLC      C2              1.6725182092        5.5683424666       45.7955168519  LPSA1     11              6.0000000000
       520        11  BGLC      H2              1.9689917791        4.5021786041       45.6421531076  LPSA1     11              6.0000000000
       521        11  BGLC      O2              0.3127933175        5.5657969459       46.1785712892  LPSA1     11              6.0000000000
       522        11  BGLC      HO2             0.0182276181        4.6677200848       46.3046672876  LPSA1     11              6.0000000000
       523        11  BGLC      C3              2.5309400585        6.1020969428       46.9192525323  LPSA1     11              6.0000000000
       524        11  BGLC      H3              2.2290719568        7.1410181490       47.1807136312  LPSA1     11              6.0000000000
       525        11  BGLC      O3              2.4371526194        5.2215792260       48.0507810774  LPSA1     11              6.0000000000
       526        11  BGLC      C4              3.9530933106        6.0452633744       46.4679002731  LPSA1     11              6.0000000000
       527        11  BGLC      H4              4.2499208430        5.0130117580       46.2005564453  LPSA1     11              6.0000000000
       528        11  BGLC      O4              4.8645421571        6.4685630463       47.4717842087  LPSA1     11              6.0000000000
       529        11  BGLC      HO4             4.9019941026        5.7830360978       48.1554263131  LPSA1     11              6.0000000000
       530        11  BGLC      C6              5.4459985407        6.6313687581       44.6750564403  LPSA1     11              6.0000000000
       531        11  BGLC      H61             6.2913940987        6.9733406695       45.3164697960  LPSA1     11              6.0000000000
       532        11  BGLC      H62             5.6948656867        5.7816024889       44.0815655961  LPSA1     11              6.0000000000
       533        11  BGLC      O6              5.4362900030        7.3545016886       43.5491117083  LPSA1     11              6.0000000000
       534        11  BGLC      HO6             6.1665162186        7.9277829470       43.8345459294  LPSA1     11              6.0000000000
       535        12  BGLCNA    C1              2.1051394217        5.7496219874       49.3154415055  LPSA1     12              7.0000000000
       536        12  BGLCNA    H1              1.0032422144        5.8493825727       49.3725964654  LPSA1     12              7.0000000000
       537        12  BGLCNA    C5              2.3342521182        7.5258242922       50.8759269553  LPSA1     12              7.0000000000
       538        12  BGLCNA    H5              1.2277131502        7.6445709079       50.9463815929  LPSA1     12              7.0000000000
       539        12  BGLCNA    O5              2.6890062283        7.0198032450       49.5749204855  LPSA1     12              7.0000000000
       540        12  BGLCNA    C2              2.6099628434        4.7543192172       50.3510359638  LPSA1     12              7.0000000000
       541        12  BGLCNA    H2              3.7329022888        4.7897363168       50.3028076963  LPSA1     12              7.0000000000
       542        12  BGLCNA    N               2.0927171942        3.4453101800       50.0482098994  LPSA1     12              7.0000000000
       543        12  BGLCNA    HN              1.1065227017        3.3914339522       49.9436782819  LPSA1     12              7.0000000000
       544        12  BGLCNA    C               2.8910587593        2.3750731593       49.8986692294  LPSA1     12              7.0000000000
       545        12  BGLCNA    O               4.0963562390        2.4385823449       50.0814386816  LPSA1     12              7.0000000000
       546        12  BGLCNA    CT              2.2273686950        1.0706583958       49.5462459327  LPSA1     12              7.0000000000
       547        12  BGLCNA    HT1             2.2706853714        0.3698719951       50.4031218175  LPSA1     12              7.0000000000
       548        12  BGLCNA    HT2             2.7748764426        0.5769721727       48.7151993882  LPSA1     12              7.0000000000
       549        12  BGLCNA    HT3             1.1781462433        1.2503841197       49.2356566645  LPSA1     12              7.0000000000
       550        12  BGLCNA    C3              2.2237682536        5.1704626840       51.7566042445  LPSA1     12              7.0000000000
       551        12  BGLCNA    H3              1.1168396466        5.2155302838       51.8001416416  LPSA1     12              7.0000000000
       552        12  BGLCNA    O3              2.6437381924        4.2011615201       52.7615352109  LPSA1     12              7.0000000000
       553        12  BGLCNA    C4              2.8203665464        6.5542875824       51.9593969919  LPSA1     12              7.0000000000
       554        12  BGLCNA    H4              3.9378113171        6.5052342502       51.8979149139  LPSA1     12              7.0000000000
       555        12  BGLCNA    O4              2.4835202350        7.0461326668       53.2481644575  LPSA1     12              7.0000000000
       556        12  BGLCNA    HO4             1.5680337414        7.3150754039       53.3214806954  LPSA1     12              7.0000000000
       557        12  BGLCNA    C6              2.9435945503        8.9082545603       50.9410775436  LPSA1     12              7.0000000000
       558        12  BGLCNA    H61             2.7712497393        9.3853086386       51.9196789880  LPSA1     12              7.0000000000
       559        12  BGLCNA    H62             4.0467012428        8.8312101502       50.8206251588  LPSA1     12              7.0000000000
       560        12  BGLCNA    O6              2.4248451778        9.7598867852       49.9149429417  LPSA1     12              7.0000000000
       561        12  BGLCNA    HO6             1.6201850291       10.2176807332       50.1766488450  LPSA1     12              7.0000000000
       562        13  AGAL      C1              1.7274157925        3.9754589574       53.8336094820  LPSA1     13              8.0000000000
       563        13  AGAL      H1              1.2869404963        4.9494988400       54.1520678901  LPSA1     13              8.0000000000
       564        13  AGAL      C5              1.2321632559        1.6954611422       53.2643481188  LPSA1     13              8.0000000000
       565        13  AGAL      H5              2.0724276962        1.8243748535       52.5401102839  LPSA1     13              8.0000000000
       566        13  AGAL      O5              0.6958100195        3.0254070061       53.4599400786  LPSA1     13              8.0000000000
       567        13  AGAL      C2              2.3661721742        3.4072465497       55.1064029773  LPSA1     13              8.0000000000
       568        13  AGAL      H2              1.5119878282        3.2037227640       55.7990272335  LPSA1     13              8.0000000000
       569        13  AGAL      O2              3.2202047983        4.3424447173       55.7635742177  LPSA1     13              8.0000000000
       570        13  AGAL      C3              2.9789885600        2.0525262598       54.8968612110  LPSA1     13              8.0000000000
       571        13  AGAL      H3              3.6717403458        2.0875716743       54.0217835450  LPSA1     13              8.0000000000
       572        13  AGAL      O3              3.7372291640        1.5782993938       55.9951167914  LPSA1     13              8.0000000000
       573        13  AGAL      HO3             4.5626126105        1.1820408747       55.6845428140  LPSA1     13              8.0000000000
       574        13  AGAL      C4              1.8564789740        1.1329852470       54.5336115423  LPSA1     13              8.0000000000
       575        13  AGAL      H4              2.3396337131        0.1807775089       54.3410851985  LPSA1     13              8.0000000000
       576        13  AGAL      O4              0.9341951545        0.8367756336       55.5741863307  LPSA1     13              8.0000000000
       577        13  AGAL      HO4             0.6576244961        1.6294247046       56.0455226697  LPSA1     13              8.0000000000
       578        13  AGAL      C6              0.3123160319        0.7299122248       52.5387203830  LPSA1     13              8.0000000000
       579        13  AGAL      H61            -0.0329022099        1.1941524396       51.5945005124  LPSA1     13              8.0000000000
       580        13  AGAL      H62             0.8922603252       -0.1721061142       52.2711175713  LPSA1     13              8.0000000000
       581        13  AGAL      O6             -0.8208281737        0.2877586094       53.2717646812  LPSA1     13              8.0000000000
       582        13  AGAL      HO6            -0.5277247523       -0.3432397570       53.9512747667  LPSA1     13              8.0000000000
       583        14  ARHM      C1              2.7514589010        4.8123657688       57.0132759854  LPSA1     14              9.0000000000
       584        14  ARHM      H1              1.6461609137        4.8199623670       57.0375831828  LPSA1     14              9.0000000000
       585        14  ARHM      C5              4.4746314201        6.2746949639       57.1785990338  LPSA1     14              9.0000000000
       586        14  ARHM      H5              4.9067390167        5.8985474167       56.2040290271  LPSA1     14              9.0000000000
       587        14  ARHM      O5              3.0752915681        6.1557605658       57.1876400197  LPSA1     14              9.0000000000
       588        14  ARHM      C2              3.3607871321        3.9825741767       58.1206104770  LPSA1     14              9.0000000000
       589        14  ARHM      H2              3.0598410528        2.9298545029       57.9451505591  LPSA1     14              9.0000000000
       590        14  ARHM      O2              3.0119739767        4.3696236123       59.4635848183  LPSA1     14              9.0000000000
       591        14  ARHM      C3              4.8603456508        4.1027593197       58.0724592864  LPSA1     14              9.0000000000
       592        14  ARHM      H3              5.2124983682        3.8876429654       57.0334491415  LPSA1     14              9.0000000000
       593        14  ARHM      O3              5.5199117969        3.1705135618       58.9216908778  LPSA1     14              9.0000000000
       594        14  ARHM      HO3             5.3715730867        3.4459062775       59.8261943425  LPSA1     14              9.0000000000
       595        14  ARHM      C4              5.2105043058        5.5442049638       58.3253678394  LPSA1     14              9.0000000000
       596        14  ARHM      H4              4.7838545416        5.9248506844       59.2809105832  LPSA1     14              9.0000000000
       597        14  ARHM      O4              6.6296242916        5.7513700733       58.3894006570  LPSA1     14              9.0000000000
       598        14  ARHM      HO4             6.9531621493        5.9146503676       59.2838375817  LPSA1     14              9.0000000000
       599        14  ARHM      C6              4.5624603413        7.7424969964       57.1819971236  LPSA1     14              9.0000000000
       600        14  ARHM      H61             4.1306610119        8.4649431080       56.4827848691  LPSA1     14              9.0000000000
       601        14  ARHM      H62             4.8069101497        8.1821018728       58.1181133026  LPSA1     14              9.0000000000
       602        14  ARHM      H63             5.4806566485        7.6271026190       56.6553693042  LPSA1     14              9.0000000000
       603        15  ARHM      C1              1.6456011274        4.4935764168       59.7479121027  LPSA1     15             10.0000000000
       604        15  ARHM      H1              1.0488522627        3.8665078138       59.0446420566  LPSA1     15             10.0000000000
       605        15  ARHM      C5              1.7907868030        6.7552746746       60.6347177668  LPSA1     15             10.0000000000
       606        15  ARHM      H5              2.8805162405        6.8818014732       60.4451875295  LPSA1     15             10.0000000000
       607        15  ARHM      O5              1.1827914944        5.8614725822       59.6761427675  LPSA1     15             10.0000000000
       608        15  ARHM      C2              1.4136543237        3.9602378855       61.1428161650  LPSA1     15             10.0000000000
       609        15  ARHM      H2              1.8457229482        2.9315210516       61.2072612656  LPSA1     15             10.0000000000
       610        15  ARHM      O2             -0.0169265878        3.8937375456       61.3091873737  LPSA1     15             10.0000000000
       611        15  ARHM      C3              2.1236706527        4.8385271010       62.1355769313  LPSA1     15             10.0000000000
       612        15  ARHM      H3              3.1975195587        4.9177357800       61.8408056525  LPSA1     15             10.0000000000
       613        15  ARHM      O3              2.0550704701        4.1909873197       63.4047826994  LPSA1     15             10.0000000000
       614        15  ARHM      C4              1.5249560043        6.2252699713       62.0351753132  LPSA1     15             10.0000000000
       615        15  ARHM      H4              0.4179945237        6.1389151151       62.1636537787  LPSA1     15             10.0000000000
       616        15  ARHM      O4              2.0000306350        7.1543769552       63.0071802125  LPSA1     15             10.0000000000
       617        15  ARHM      HO4             1.4046464742        7.9147591655       62.9684284901  LPSA1     15             10.0000000000
       618        15  ARHM      C6              1.1878269545        8.1558488726       60.4560245582  LPSA1     15             10.0000000000
       619        15  ARHM      H61             1.6865724631        8.9536444427       61.0392278895  LPSA1     15             10.0000000000
       620        15  ARHM      H62             1.1256256855        8.4209270797       59.3809413600  LPSA1     15             10.0000000000
       621        15  ARHM      H63             0.1895831764        8.1337857861       60.8826304039  LPSA1     15             10.0000000000
       622        16  BMANNA    C1             -0.5691804560        3.4099513469       62.5134993074  LPSA1     16             11.0000000000
       623        16  BMANNA    H1             -0.3767474839        4.1572571101       63.3171615916  LPSA1     16             11.0000000000
       624        16  BMANNA    C5             -0.5920978918        1.7337395467       64.2083724418  LPSA1     16             11.0000000000
       625        16  BMANNA    H5             -0.4021545491        2.5452309899       64.9526881593  LPSA1     16             11.0000000000
       626        16  BMANNA    O5             -0.0529977369        2.1290387586       62.9294779223  LPSA1     16             11.0000000000
       627        16  BMANNA    C2             -2.0814590111        3.2962400945       62.3190474367  LPSA1     16             11.0000000000
       628        16  BMANNA    H2             -2.4461255622        4.3179311118       62.0456096775  LPSA1     16             11.0000000000
       629        16  BMANNA    N              -2.4964945271        2.3874313372       61.2674700696  LPSA1     16             11.0000000000
       630        16  BMANNA    HN             -2.7120317264        1.4661644500       61.5525601266  LPSA1     16             11.0000000000
       631        16  BMANNA    C              -2.7337977879        2.7271626860       59.9999486767  LPSA1     16             11.0000000000
       632        16  BMANNA    O              -2.6367616292        3.8639099882       59.5442026693  LPSA1     16             11.0000000000
       633        16  BMANNA    CT             -3.1049467080        1.5671321561       59.1159297364  LPSA1     16             11.0000000000
       634        16  BMANNA    HT1            -4.1825625689        1.6206573024       58.9101273942  LPSA1     16             11.0000000000
       635        16  BMANNA    HT2            -2.8950991814        0.5801655131       59.5623353729  LPSA1     16             11.0000000000
       636        16  BMANNA    HT3            -2.5309637308        1.6319621829       58.1750522394  LPSA1     16             11.0000000000
       637        16  BMANNA    C3             -2.6879968375        2.8857333833       63.6496117534  LPSA1     16             11.0000000000
       638        16  BMANNA    H3             -2.4199379734        3.6696402353       64.3919056158  LPSA1     16             11.0000000000
       639        16  BMANNA    O3             -4.1041901028        2.8380508055       63.5759156874  LPSA1     16             11.0000000000
       640        16  BMANNA    HO3            -4.4713946231        3.3941905739       64.2687221407  LPSA1     16             11.0000000000
       641        16  BMANNA    C4             -2.1047799969        1.5585313938       64.1250250693  LPSA1     16             11.0000000000
       642        16  BMANNA    H4             -2.3443462594        0.7634353615       63.3782472384  LPSA1     16             11.0000000000
       643        16  BMANNA    O4             -2.6204987893        1.0976101273       65.3873813772  LPSA1     16             11.0000000000
       644        16  BMANNA    HO4            -2.5282313652        0.1454123333       65.4397540977  LPSA1     16             11.0000000000
       645        16  BMANNA    C6              0.0951026079        0.5129197462       64.7897870911  LPSA1     16             11.0000000000
       646        16  BMANNA    H61             0.0285885017        0.5405947160       65.8966867932  LPSA1     16             11.0000000000
       647        16  BMANNA    H62            -0.4608158772       -0.3472789819       64.4551895693  LPSA1     16             11.0000000000
       648        16  BMANNA    O6              1.4385990078        0.2648635490       64.3931991582  LPSA1     16             11.0000000000
       649        16  BMANNA    HO6             1.4843347209       -0.5425702433       63.8725802381  LPSA1     16             11.0000000000
       650        17  BGLCNA    C1              3.2426277336        4.2632128814       64.1444256438  LPSA1     17             11.0000000000
       651        17  BGLCNA    H1              3.6953687083        5.2642012860       63.9838248174  LPSA1     17             11.0000000000
       652        17  BGLCNA    C5              5.4062826450        3.3073355133       64.5620418741  LPSA1     17             11.0000000000
       653        17  BGLCNA    H5              5.9126142952        4.2817467622       64.3738950752  LPSA1     17             11.0000000000
       654        17  BGLCNA    O5              4.1942358181        3.2520238846       63.7790322736  LPSA1     17             11.0000000000
       655        17  BGLCNA    C2              2.7923769261        4.0812549858       65.5804551878  LPSA1     17             11.0000000000
       656        17  BGLCNA    H2              2.3884863089        3.0504226898       65.7479176560  LPSA1     17             11.0000000000
       657        17  BGLCNA    N               1.7150196668        5.0036635960       65.8831718282  LPSA1     17             11.0000000000
       658        17  BGLCNA    HN              1.7139905678        5.8394494407       65.3593806756  LPSA1     17             11.0000000000
       659        17  BGLCNA    C               0.7682577423        4.8563896833       66.8141166509  LPSA1     17             11.0000000000
       660        17  BGLCNA    O               0.5913945525        3.8386356347       67.4650190835  LPSA1     17             11.0000000000
       661        17  BGLCNA    CT             -0.0766744914        6.0890080083       67.0317875664  LPSA1     17             11.0000000000
       662        17  BGLCNA    HT1            -1.0572136754        6.0189507930       66.5206931635  LPSA1     17             11.0000000000
       663        17  BGLCNA    HT2             0.4873945942        6.9741476699       66.6788476744  LPSA1     17             11.0000000000
       664        17  BGLCNA    HT3            -0.2606440559        6.2187521841       68.1180086445  LPSA1     17             11.0000000000
       665        17  BGLCNA    C3              4.0303810779        4.2690372866       66.4345791582  LPSA1     17             11.0000000000
       666        17  BGLCNA    H3              4.4659631786        5.2406035762       66.1013470370  LPSA1     17             11.0000000000
       667        17  BGLCNA    O3              3.6497177117        4.3807691174       67.8334232516  LPSA1     17             11.0000000000
       668        17  BGLCNA    C4              5.0230482129        3.1749387555       66.0452293221  LPSA1     17             11.0000000000
       669        17  BGLCNA    H4              4.5082789875        2.1940858016       66.1249603984  LPSA1     17             11.0000000000
       670        17  BGLCNA    O4              6.1716752535        3.1796657523       66.8975793925  LPSA1     17             11.0000000000
       671        17  BGLCNA    HO4             6.7570486044        2.4401676872       66.7091180432  LPSA1     17             11.0000000000
       672        17  BGLCNA    C6              6.3686680068        2.1923765255       64.1209767848  LPSA1     17             11.0000000000
       673        17  BGLCNA    H61             7.4157370776        2.5525715919       64.1780395955  LPSA1     17             11.0000000000
       674        17  BGLCNA    H62             6.2715954681        1.3222865696       64.8098041954  LPSA1     17             11.0000000000
       675        17  BGLCNA    O6              6.1833533752        1.7099948114       62.7897438620  LPSA1     17             11.0000000000
       676        17  BGLCNA    HO6             6.1242087473        2.4555748418       62.1878190913  LPSA1     17             11.0000000000
       677        18  AGAL      C1              4.4204119666        5.2619064106       68.6304236125  LPSA1     18             12.0000000000
       678        18  AGAL      H1              5.4234535364        4.8051360835       68.8029191955  LPSA1     18             12.0000000000
       679        18  AGAL      C5              3.4189939470        7.2966875632       67.8554527342  LPSA1     18             12.0000000000
       680        18  AGAL      H5              2.6710135560        6.6329139950       67.4002660626  LPSA1     18             12.0000000000
       681        18  AGAL      O5              4.6067313444        6.5276785344       68.0097592950  LPSA1     18             12.0000000000
       682        18  AGAL      C2              3.8076009885        5.6008559865       69.9738680758  LPSA1     18             12.0000000000
       683        18  AGAL      H2              4.5432225947        6.3278296805       70.3953227281  LPSA1     18             12.0000000000
       684        18  AGAL      O2              3.7905266586        4.4998306211       70.8781374332  LPSA1     18             12.0000000000
       685        18  AGAL      C3              2.4850294340        6.3570361336       69.8462784979  LPSA1     18             12.0000000000
       686        18  AGAL      H3              1.8171309373        5.7759950684       69.1721959947  LPSA1     18             12.0000000000
       687        18  AGAL      O3              1.7925017843        6.5136342985       71.0866975318  LPSA1     18             12.0000000000
       688        18  AGAL      HO3             0.8611105485        6.2770167809       70.9819391462  LPSA1     18             12.0000000000
       689        18  AGAL      C4              2.7732430604        7.6793099322       69.1635961288  LPSA1     18             12.0000000000
       690        18  AGAL      H4              1.8383158048        8.2397899037       68.9380676443  LPSA1     18             12.0000000000
       691        18  AGAL      O4              3.6017603362        8.5142943863       69.9446945584  LPSA1     18             12.0000000000
       692        18  AGAL      HO4             3.0917828528        8.8313941097       70.7019906324  LPSA1     18             12.0000000000
       693        18  AGAL      C6              3.6080848443        8.3271353432       66.7691937933  LPSA1     18             12.0000000000
       694        18  AGAL      H61             3.8368609477        7.7507284153       65.8406110202  LPSA1     18             12.0000000000
       695        18  AGAL      H62             2.6520995142        8.8724174714       66.6308770226  LPSA1     18             12.0000000000
       696        18  AGAL      O6              4.6617436145        9.2640036523       66.9742270231  LPSA1     18             12.0000000000
       697        18  AGAL      HO6             5.2328932681        8.9281023006       67.6838749572  LPSA1     18             12.0000000000
       698        19  ARHM      C1              4.1612387753        4.9126475193       72.1715275211  LPSA1     19             13.0000000000
       699        19  ARHM      H1              3.8796799485        5.9699962365       72.3520185386  LPSA1     19             13.0000000000
       700        19  ARHM      C5              6.0889941057        3.5630406373       72.2354976536  LPSA1     19             13.0000000000
       701        19  ARHM      H5              5.8341930913        3.2258334862       71.2023577713  LPSA1     19             13.0000000000
       702        19  ARHM      O5              5.5696263605        4.8695972662       72.4224298922  LPSA1     19             13.0000000000
       703        19  ARHM      C2              3.4597389846        3.9783237195       73.1099765848  LPSA1     19             13.0000000000
       704        19  ARHM      H2              2.3702154581        3.9326932911       72.8601818785  LPSA1     19             13.0000000000
       705        19  ARHM      O2              3.5791793973        4.4430002992       74.4575769496  LPSA1     19             13.0000000000
       706        19  ARHM      C3              3.9997888962        2.5783470867       72.9550055602  LPSA1     19             13.0000000000
       707        19  ARHM      H3              3.8607983491        2.2462889982       71.8984560171  LPSA1     19             13.0000000000
       708        19  ARHM      O3              3.2971468670        1.6877743984       73.8149613877  LPSA1     19             13.0000000000
       709        19  ARHM      HO3             3.3452424157        2.0754650671       74.6897775274  LPSA1     19             13.0000000000
       710        19  ARHM      C4              5.4839495650        2.5938330141       73.2030331744  LPSA1     19             13.0000000000
       711        19  ARHM      H4              5.6608439959        2.9457787685       74.2541748714  LPSA1     19             13.0000000000
       712        19  ARHM      O4              6.1145055547        1.3306942305       73.0009376098  LPSA1     19             13.0000000000
       713        19  ARHM      HO4             5.9701716830        0.9975850640       72.1169092776  LPSA1     19             13.0000000000
       714        19  ARHM      C6              7.6018434712        3.6324769279       72.2839268946  LPSA1     19             13.0000000000
       715        19  ARHM      H61             7.9307733112        4.3167787564       71.4787218581  LPSA1     19             13.0000000000
       716        19  ARHM      H62             8.0375977820        3.9631046241       73.2476841872  LPSA1     19             13.0000000000
       717        19  ARHM      H63             8.0044517867        2.6210987031       72.0642308455  LPSA1     19             13.0000000000
       718        20  ARHM      C1              2.7370453505        5.5419916327       74.6920068016  LPSA1     20             14.0000000000
       719        20  ARHM      H1              2.0494150556        5.7529885635       73.8477978162  LPSA1     20             14.0000000000
       720        20  ARHM      C5              4.2044717988        6.6362451177       75.9892553967  LPSA1     20             14.0000000000
       721        20  ARHM      H5              5.0478592235        5.8998342002       75.8324372242  LPSA1     20             14.0000000000
       722        20  ARHM      O5              3.4186953737        6.7274210240       74.8389218112  LPSA1     20             14.0000000000
       723        20  ARHM      C2              1.9800742534        5.3073972303       75.9549190614  LPSA1     20             14.0000000000
       724        20  ARHM      H2              1.5067158091        4.3228900891       75.8651170668  LPSA1     20             14.0000000000
       725        20  ARHM      O2              1.0078620138        6.3266987558       76.1675816099  LPSA1     20             14.0000000000
       726        20  ARHM      C3              2.8705011363        5.2170296677       77.1469574155  LPSA1     20             14.0000000000
       727        20  ARHM      H3              3.6597671688        4.4402248586       76.9708023363  LPSA1     20             14.0000000000
       728        20  ARHM      O3              2.1031137135        4.9259855009       78.2969176996  LPSA1     20             14.0000000000
       729        20  ARHM      C4              3.5373185337        6.4889762992       77.3051302522  LPSA1     20             14.0000000000
       730        20  ARHM      H4              2.8783728009        7.3964160218       77.3741010018  LPSA1     20             14.0000000000
       731        20  ARHM      O4              4.4495292234        6.4951073459       78.4062619502  LPSA1     20             14.0000000000
       732        20  ARHM      HO4             5.1371012401        7.1279129632       78.1619204500  LPSA1     20             14.0000000000
       733        20  ARHM      C6              4.7129729433        7.9234625314       75.9545214211  LPSA1     20             14.0000000000
       734        20  ARHM      H61             4.3653358926        8.9295809362       76.1654092801  LPSA1     20             14.0000000000
       735        20  ARHM      H62             5.3888388275        7.7280803667       76.8297184204  LPSA1     20             14.0000000000
       736        20  ARHM      H63             5.1995780418        7.9128878627       74.9470602261  LPSA1     20             14.0000000000
       737        21  BMANNA    C1             -0.1230351711        6.0353560253       75.4092854037  LPSA1     21             15.0000000000
       738        21  BMANNA    H1              0.0894149595        5.1845206885       74.7174788532  LPSA1     21             15.0000000000
       739        21  BMANNA    C5             -1.5507822693        6.6534781637       73.6474903297  LPSA1     21             15.0000000000
       740        21  BMANNA    H5             -1.2521854168        5.7281348849       73.0854431465  LPSA1     21             15.0000000000
       741        21  BMANNA    O5             -0.4829883167        7.0841902172       74.5143460333  LPSA1     21             15.0000000000
       742        21  BMANNA    C2             -1.2618760500        5.6677634944       76.3463504002  LPSA1     21             15.0000000000
       743        21  BMANNA    H2             -0.8901745070        4.7768504942       76.9235676554  LPSA1     21             15.0000000000
       744        21  BMANNA    N              -1.6395329770        6.7258570844       77.2920011902  LPSA1     21             15.0000000000
       745        21  BMANNA    HN             -1.6394985449        7.6356609862       76.8968251063  LPSA1     21             15.0000000000
       746        21  BMANNA    C              -2.0042673688        6.5170492619       78.5798495967  LPSA1     21             15.0000000000
       747        21  BMANNA    O              -2.2366686105        5.4071934465       79.0215312786  LPSA1     21             15.0000000000
       748        21  BMANNA    CT             -2.1542712267        7.7237082044       79.4770785207  LPSA1     21             15.0000000000
       749        21  BMANNA    HT1            -3.0949013819        8.2735584426       79.2785482526  LPSA1     21             15.0000000000
       750        21  BMANNA    HT2            -1.2878061403        8.3520625599       79.2773953204  LPSA1     21             15.0000000000
       751        21  BMANNA    HT3            -2.1126640520        7.4410581916       80.5522091317  LPSA1     21             15.0000000000
       752        21  BMANNA    C3             -2.3948059747        5.2065271860       75.4648067000  LPSA1     21             15.0000000000
       753        21  BMANNA    H3             -2.0110510296        4.3111398454       74.9235619230  LPSA1     21             15.0000000000
       754        21  BMANNA    O3             -3.5242311477        4.8119560054       76.2356523089  LPSA1     21             15.0000000000
       755        21  BMANNA    HO3            -3.7597998279        5.5670472741       76.7776538513  LPSA1     21             15.0000000000
       756        21  BMANNA    C4             -2.7656865034        6.2908451170       74.4661023941  LPSA1     21             15.0000000000
       757        21  BMANNA    H4             -3.1149051463        7.1948626428       74.9991231682  LPSA1     21             15.0000000000
       758        21  BMANNA    O4             -3.8206872323        5.9255669525       73.5862780119  LPSA1     21             15.0000000000
       759        21  BMANNA    HO4            -4.6052529665        6.4518010003       73.7889044809  LPSA1     21             15.0000000000
       760        21  BMANNA    C6             -1.8634454441        7.7081006847       72.6134914759  LPSA1     21             15.0000000000
       761        21  BMANNA    H61            -2.4748191375        7.2417346864       71.8054956956  LPSA1     21             15.0000000000
       762        21  BMANNA    H62            -2.4904069775        8.4928446688       73.0856539708  LPSA1     21             15.0000000000
       763        21  BMANNA    O6             -0.6903530080        8.3149547637       72.0616356535  LPSA1     21             15.0000000000
       764        21  BMANNA    HO6            -0.2058228995        8.7288728419       72.7880815965  LPSA1     21             15.0000000000
       765        22  BGLCNA    C1              2.7315056508        4.1180830971       79.2448248931  LPSA1     22             15.0000000000
       766        22  BGLCNA    H1              3.8355964014        4.2288137063       79.2439088688  LPSA1     22             15.0000000000
       767        22  BGLCNA    C5              2.9430988597        1.9277563663       80.1010603121  LPSA1     22             15.0000000000
       768        22  BGLCNA    H5              4.0494951746        2.0875909933       80.1015299795  LPSA1     22             15.0000000000
       769        22  BGLCNA    O5              2.3874787078        2.7453602601       79.0570149740  LPSA1     22             15.0000000000
       770        22  BGLCNA    C2              2.1622132699        4.6066962905       80.5489768306  LPSA1     22             15.0000000000
       771        22  BGLCNA    H2              1.0480975991        4.4747373352       80.4934496543  LPSA1     22             15.0000000000
       772        22  BGLCNA    N               2.4740506023        6.0062192383       80.7337488018  LPSA1     22             15.0000000000
       773        22  BGLCNA    HN              3.3604247419        6.2893093334       80.3778485054  LPSA1     22             15.0000000000
       774        22  BGLCNA    C               1.6799662966        6.8820617994       81.3516555115  LPSA1     22             15.0000000000
       775        22  BGLCNA    O               0.6010624994        6.6183700493       81.8560019484  LPSA1     22             15.0000000000
       776        22  BGLCNA    CT              2.2051395258        8.2685388780       81.3950508916  LPSA1     22             15.0000000000
       777        22  BGLCNA    HT1             1.7851719375        8.8199717140       80.5465111249  LPSA1     22             15.0000000000
       778        22  BGLCNA    HT2             3.2758520699        8.2260797294       81.1866721074  LPSA1     22             15.0000000000
       779        22  BGLCNA    HT3             2.0192282988        8.7820091088       82.3649235684  LPSA1     22             15.0000000000
       780        22  BGLCNA    C3              2.7218781359        3.7883121246       81.6862145177  LPSA1     22             15.0000000000
       781        22  BGLCNA    H3              3.8304101295        3.8727335949       81.6473282884  LPSA1     22             15.0000000000
       782        22  BGLCNA    O3              2.2568886853        4.3933228930       82.9035813701  LPSA1     22             15.0000000000
       783        22  BGLCNA    C4              2.3730232468        2.3382785518       81.4611689194  LPSA1     22             15.0000000000
       784        22  BGLCNA    H4              1.2589718046        2.2517522930       81.4160502203  LPSA1     22             15.0000000000
       785        22  BGLCNA    O4              2.8618387075        1.4873022396       82.5046116857  LPSA1     22             15.0000000000
       786        22  BGLCNA    HO4             2.1630199119        0.8528704054       82.7162782647  LPSA1     22             15.0000000000
       787        22  BGLCNA    C6              2.6585387851        0.4840046514       79.7816949978  LPSA1     22             15.0000000000
       788        22  BGLCNA    H61             2.7740932391       -0.1271131860       80.6977707595  LPSA1     22             15.0000000000
       789        22  BGLCNA    H62             1.6194135520        0.3554185472       79.4421003202  LPSA1     22             15.0000000000
       790        22  BGLCNA    O6              3.5530944920       -0.0417406408       78.8062619418  LPSA1     22             15.0000000000
       791        22  BGLCNA    HO6             3.4772537827        0.4651535440       77.9923561051  LPSA1     22             15.0000000000
       792        23  AGAL      C1              2.9235842035        4.1236074444       84.1049927931  LPSA1     23             16.0000000000
       793        23  AGAL      H1              2.6602094407        3.1000121592       84.4485619648  LPSA1     23             16.0000000000
       794        23  AGAL      C5              4.8077380966        5.5579945439       83.7257310373  LPSA1     23             16.0000000000
       795        23  AGAL      H5              4.2729521361        5.9229382939       82.8211583267  LPSA1     23             16.0000000000
       796        23  AGAL      O5              4.3522668765        4.2168229592       84.0027220980  LPSA1     23             16.0000000000
       797        23  AGAL      C2              2.4462428772        5.0696309835       85.1837094147  LPSA1     23             16.0000000000
       798        23  AGAL      H2              2.9899617986        4.7658636786       86.1036178734  LPSA1     23             16.0000000000
       799        23  AGAL      O2              1.0310080103        4.9367886222       85.4270293230  LPSA1     23             16.0000000000
       800        23  AGAL      C3              2.8967604784        6.4956253681       84.8794199144  LPSA1     23             16.0000000000
       801        23  AGAL      H3              2.5441934710        6.7689014099       83.8611938548  LPSA1     23             16.0000000000
       802        23  AGAL      O3              2.3417183747        7.4737909597       85.7528448739  LPSA1     23             16.0000000000
       803        23  AGAL      HO3             2.3498694217        7.1311028454       86.6459879970  LPSA1     23             16.0000000000
       804        23  AGAL      C4              4.4171381516        6.5103827508       84.8616012481  LPSA1     23             16.0000000000
       805        23  AGAL      H4              4.8014636983        7.5297247379       84.6590342453  LPSA1     23             16.0000000000
       806        23  AGAL      O4              4.9874406293        6.0973992693       86.0962372611  LPSA1     23             16.0000000000
       807        23  AGAL      HO4             5.8558103792        5.7296011410       85.8382955025  LPSA1     23             16.0000000000
       808        23  AGAL      C6              6.2743129450        5.4993889391       83.3261249683  LPSA1     23             16.0000000000
       809        23  AGAL      H61             6.4116609312        4.6910124619       82.5759487740  LPSA1     23             16.0000000000
       810        23  AGAL      H62             6.5887517993        6.4381623496       82.8187719677  LPSA1     23             16.0000000000
       811        23  AGAL      O6              7.1260947562        5.2518260701       84.4433491565  LPSA1     23             16.0000000000
       812        23  AGAL      HO6             8.0513070258        5.1379029600       84.1929974862  LPSA1     23             16.0000000000
       813        24  ARHM      C1              0.5828202454        3.8956862136       86.2795766266  LPSA1     24             17.0000000000
       814        24  ARHM      H1              1.3898584020        3.1350861744       86.3840746087  LPSA1     24             17.0000000000
       815        24  ARHM      C5             -1.7306321463        4.0221799761       85.6352261746  LPSA1     24             17.0000000000
       816        24  ARHM      H5             -1.4365816087        4.8389743892       84.9353537364  LPSA1     24             17.0000000000
       817        24  ARHM      O5             -0.5845072128        3.1720650157       85.8085525227  LPSA1     24             17.0000000000
       818        24  ARHM      C2              0.2704027474        4.5471300723       87.6020572777  LPSA1     24             17.0000000000
       819        24  ARHM      H2              1.1433569793        5.1594212151       87.9316083213  LPSA1     24             17.0000000000
       820        24  ARHM      O2             -0.0704116453        3.5675172198       88.5946378389  LPSA1     24             17.0000000000
       821        24  ARHM      C3             -0.8992088175        5.4796819442       87.4177681161  LPSA1     24             17.0000000000
       822        24  ARHM      H3             -0.6268259262        6.2150174519       86.6243055893  LPSA1     24             17.0000000000
       823        24  ARHM      O3             -1.1439127808        6.2513846437       88.5835070906  LPSA1     24             17.0000000000
       824        24  ARHM      HO3            -1.7267206595        5.7745347737       89.1755769894  LPSA1     24             17.0000000000
       825        24  ARHM      C4             -2.0962832710        4.6681817549       86.9571471447  LPSA1     24             17.0000000000
       826        24  ARHM      H4             -2.3116642072        3.8637077829       87.7019073737  LPSA1     24             17.0000000000
       827        24  ARHM      O4             -3.2624142215        5.4624199006       86.8126981799  LPSA1     24             17.0000000000
       828        24  ARHM      HO4            -4.0407248946        4.9387435993       86.9773565496  LPSA1     24             17.0000000000
       829        24  ARHM      C6             -2.8952068099        3.2541015812       84.9621899965  LPSA1     24             17.0000000000
       830        24  ARHM      H61            -3.5384113254        3.9838709583       84.4169609179  LPSA1     24             17.0000000000
       831        24  ARHM      H62            -2.4833238041        2.5548680571       84.2122983841  LPSA1     24             17.0000000000
       832        24  ARHM      H63            -3.5047397864        2.6761355809       85.6834926833  LPSA1     24             17.0000000000
       833        25  ARHM      C1              1.0241324056        2.9006260187       89.1476376145  LPSA1     25             18.0000000000
       834        25  ARHM      H1              1.8962749412        3.0130199796       88.4697528807  LPSA1     25             18.0000000000
       835        25  ARHM      C5             -0.2285702511        1.1467409970       90.1790309411  LPSA1     25             18.0000000000
       836        25  ARHM      H5             -1.1826832198        1.6076208051       89.8421620925  LPSA1     25             18.0000000000
       837        25  ARHM      O5              0.8227618609        1.4863691379       89.2546752563  LPSA1     25             18.0000000000
       838        25  ARHM      C2              1.3654119639        3.5139015745       90.4676223178  LPSA1     25             18.0000000000
       839        25  ARHM      H2              1.3889844523        4.6277949280       90.3669329861  LPSA1     25             18.0000000000
       840        25  ARHM      O2              2.6517348754        3.0289279664       90.8924748101  LPSA1     25             18.0000000000
       841        25  ARHM      C3              0.2668312960        3.1970139538       91.4475507648  LPSA1     25             18.0000000000
       842        25  ARHM      H3             -0.7069477700        3.6049407317       91.0839065244  LPSA1     25             18.0000000000
       843        25  ARHM      O3              0.6492759629        3.7689674179       92.7018009269  LPSA1     25             18.0000000000
       844        25  ARHM      C4              0.0938061648        1.7200679669       91.5408672119  LPSA1     25             18.0000000000
       845        25  ARHM      H4              1.0818322713        1.3005935612       91.7911003164  LPSA1     25             18.0000000000
       846        25  ARHM      O4             -0.8959025691        1.3704786817       92.5129950118  LPSA1     25             18.0000000000
       847        25  ARHM      HO4            -0.5168627188        0.6583785700       93.0418881204  LPSA1     25             18.0000000000
       848        25  ARHM      C6             -0.4462364559       -0.3840542636       90.2058744730  LPSA1     25             18.0000000000
       849        25  ARHM      H61            -0.5760263112       -0.7710717614       89.1748997762  LPSA1     25             18.0000000000
       850        25  ARHM      H62             0.4196589854       -0.9028513721       90.6639406452  LPSA1     25             18.0000000000
       851        25  ARHM      H63            -1.3535569747       -0.6270757866       90.7997857031  LPSA1     25             18.0000000000
       852        26  BMANNA    C1              3.7418796874        3.6595323233       90.2767886964  LPSA1     26             19.0000000000
       853        26  BMANNA    H1              3.4318279461        4.6132875470       89.8336246398  LPSA1     26             19.0000000000
       854        26  BMANNA    C5              5.4119132309        3.6255102804       88.5933585710  LPSA1     26             19.0000000000
       855        26  BMANNA    H5              5.0216479560        4.5779585239       88.1788504189  LPSA1     26             19.0000000000
       856        26  BMANNA    O5              4.3301560002        2.9006099283       89.2151555128  LPSA1     26             19.0000000000
       857        26  BMANNA    C2              4.7580108037        3.8849984064       91.3504048265  LPSA1     26             19.0000000000
       858        26  BMANNA    H2              4.2531665045        4.5231738440       92.1266282132  LPSA1     26             19.0000000000
       859        26  BMANNA    N               5.1957366512        2.6130209774       91.9126991839  LPSA1     26             19.0000000000
       860        26  BMANNA    HN              5.5262140226        1.9566150980       91.2506813411  LPSA1     26             19.0000000000
       861        26  BMANNA    C               5.2033901836        2.3353779746       93.2202046113  LPSA1     26             19.0000000000
       862        26  BMANNA    O               4.6746774900        3.0830210511       94.0211141798  LPSA1     26             19.0000000000
       863        26  BMANNA    CT              5.9436831404        1.0848009871       93.6547564771  LPSA1     26             19.0000000000
       864        26  BMANNA    HT1             5.9186575879        0.3388513892       92.8390281582  LPSA1     26             19.0000000000
       865        26  BMANNA    HT2             5.5528332830        0.6443940747       94.5974408169  LPSA1     26             19.0000000000
       866        26  BMANNA    HT3             6.9889789927        1.3742135236       93.8629091568  LPSA1     26             19.0000000000
       867        26  BMANNA    C3              5.8883136947        4.6953748931       90.7641705856  LPSA1     26             19.0000000000
       868        26  BMANNA    H3              5.5337761206        5.6472022482       90.3394142526  LPSA1     26             19.0000000000
       869        26  BMANNA    O3              6.8010371956        5.0781529517       91.7767191359  LPSA1     26             19.0000000000
       870        26  BMANNA    HO3             6.4077676903        5.7969931428       92.2760299376  LPSA1     26             19.0000000000
       871        26  BMANNA    C4              6.5006899430        3.9300415359       89.6196719679  LPSA1     26             19.0000000000
       872        26  BMANNA    H4              6.9396612038        2.9775552605       89.9785738439  LPSA1     26             19.0000000000
       873        26  BMANNA    O4              7.5275312283        4.6939997777       89.0169615475  LPSA1     26             19.0000000000
       874        26  BMANNA    HO4             8.3285806259        4.5857605029       89.5467279931  LPSA1     26             19.0000000000
       875        26  BMANNA    C6              5.8635381383        2.7905206245       87.4205769655  LPSA1     26             19.0000000000
       876        26  BMANNA    H61             4.9843133222        2.3262319120       86.9178693875  LPSA1     26             19.0000000000
       877        26  BMANNA    H62             6.3878559886        3.4071650230       86.6515433008  LPSA1     26             19.0000000000
       878        26  BMANNA    O6              6.7162970154        1.7561014480       87.8938342221  LPSA1     26             19.0000000000
       879        26  BMANNA    HO6             7.5721408137        2.1542170415       88.1333146776  LPSA1     26             19.0000000000
       880        27  BGLCNA    C1             -0.3651136112        4.3451245749       93.4682218372  LPSA1     27             19.0000000000
       881        27  BGLCNA    H1             -1.3187045109        3.7760245667       93.4240286007  LPSA1     27             19.0000000000
       882        27  BGLCNA    C5             -1.5905901634        6.3156244802       93.9104066362  LPSA1     27             19.0000000000
       883        27  BGLCNA    H5             -2.5040249075        5.6712206885       93.9280560912  LPSA1     27             19.0000000000
       884        27  BGLCNA    O5             -0.6085334385        5.6907884996       93.0674131899  LPSA1     27             19.0000000000
       885        27  BGLCNA    C2              0.2180592904        4.3366400124       94.8661088724  LPSA1     27             19.0000000000
       886        27  BGLCNA    H2              1.1390412147        4.9749462915       94.8339772815  LPSA1     27             19.0000000000
       887        27  BGLCNA    N               0.6090317467        2.9973185595       95.2970298168  LPSA1     27             19.0000000000
       888        27  BGLCNA    HN             -0.0094036437        2.2612810016       95.0440283209  LPSA1     27             19.0000000000
       889        27  BGLCNA    C               1.7721460007        2.7942635111       95.9636184251  LPSA1     27             19.0000000000
       890        27  BGLCNA    O               2.3875539968        3.7104103696       96.4883202756  LPSA1     27             19.0000000000
       891        27  BGLCNA    CT              2.3201255535        1.3975549097       96.0662284797  LPSA1     27             19.0000000000
       892        27  BGLCNA    HT1             1.6849617509        0.7221196175       95.4935602345  LPSA1     27             19.0000000000
       893        27  BGLCNA    HT2             2.3468326243        1.0127295967       97.0931035152  LPSA1     27             19.0000000000
       894        27  BGLCNA    HT3             3.3623905755        1.3891307726       95.6710351956  LPSA1     27             19.0000000000
       895        27  BGLCNA    C3             -0.7423220877        4.9707847487       95.8184577526  LPSA1     27             19.0000000000
       896        27  BGLCNA    H3             -1.6963613122        4.3946024001       95.7723661547  LPSA1     27             19.0000000000
       897        27  BGLCNA    O3             -0.1265304854        4.8466224689       97.1273359946  LPSA1     27             19.0000000000
       898        27  BGLCNA    C4             -1.0424884045        6.3709955090       95.3243893827  LPSA1     27             19.0000000000
       899        27  BGLCNA    H4             -0.1177410132        6.9764682561       95.2545331847  LPSA1     27             19.0000000000
       900        27  BGLCNA    O4             -1.9695042008        7.0175327186       96.1715559742  LPSA1     27             19.0000000000
       901        27  BGLCNA    HO4            -2.8198652392        6.5815963974       96.0681727671  LPSA1     27             19.0000000000
       902        27  BGLCNA    C6             -2.0063509160        7.6502216340       93.3165336794  LPSA1     27             19.0000000000
       903        27  BGLCNA    H61            -2.9131849868        8.0174646218       93.8471014730  LPSA1     27             19.0000000000
       904        27  BGLCNA    H62            -1.2101746720        8.4154000791       93.4577007251  LPSA1     27             19.0000000000
       905        27  BGLCNA    O6             -2.3054499825        7.5154392529       91.9217764062  LPSA1     27             19.0000000000
       906        27  BGLCNA    HO6            -2.5662149679        8.3484946840       91.5173299922  LPSA1     27             19.0000000000
       907        28  AGAL      C1             -0.9677960634        4.9954981675       98.2441917293  LPSA1     28             20.0000000000
       908        28  AGAL      H1             -1.2159198095        6.0765246158       98.3290590598  LPSA1     28             20.0000000000
       909        28  AGAL      C5             -1.9461143289        2.8124408762       98.1354489723  LPSA1     28             20.0000000000
       910        28  AGAL      H5             -1.1141363577        2.5453171918       97.4335290187  LPSA1     28             20.0000000000
       911        28  AGAL      O5             -2.1853564911        4.2354738945       98.0550223888  LPSA1     28             20.0000000000
       912        28  AGAL      C2             -0.3632939554        4.6084508813       99.6138315094  LPSA1     28             20.0000000000
       913        28  AGAL      H2             -1.2078114268        4.8556541292      100.3002060827  LPSA1     28             20.0000000000
       914        28  AGAL      O2              0.7657686569        5.3544986488      100.0969942047  LPSA1     28             20.0000000000
       915        28  AGAL      C3             -0.1091431582        3.1144776168       99.6892264268  LPSA1     28             20.0000000000
       916        28  AGAL      H3              0.5552921510        2.8403349331       98.8410126774  LPSA1     28             20.0000000000
       917        28  AGAL      O3              0.5598028985        2.6474730093      100.8594634100  LPSA1     28             20.0000000000
       918        28  AGAL      HO3             1.3595452881        2.1714389324      100.6187936524  LPSA1     28             20.0000000000
       919        28  AGAL      C4             -1.4267827327        2.4159162248       99.4923467632  LPSA1     28             20.0000000000
       920        28  AGAL      H4             -1.2418804534        1.3205334516       99.5020752147  LPSA1     28             20.0000000000
       921        28  AGAL      O4             -2.3865391742        2.7094293862      100.4865216196  LPSA1     28             20.0000000000
       922        28  AGAL      HO4            -2.3965117909        1.9801185517      101.1115026119  LPSA1     28             20.0000000000
       923        28  AGAL      C6             -3.1581385357        2.0180166676       97.6581059850  LPSA1     28             20.0000000000
       924        28  AGAL      H61            -3.2977371613        2.2982135831       96.6019276503  LPSA1     28             20.0000000000
       925        28  AGAL      H62            -3.0000859089        0.9216580920       97.7546601910  LPSA1     28             20.0000000000
       926        28  AGAL      O6             -4.4070226940        2.2781457506       98.2747792217  LPSA1     28             20.0000000000
       927        28  AGAL      HO6            -4.7118554315        3.1493409197       97.9991352442  LPSA1     28             20.0000000000
       928        29  ARHM      C1              0.6069228823        5.6185775887      101.4802795843  LPSA1     29             21.0000000000
       929        29  ARHM      H1             -0.0358835383        4.8519651199      101.9609102629  LPSA1     29             21.0000000000
       930        29  ARHM      C5              0.8016005401        7.9582173444      101.1273891278  LPSA1     29             21.0000000000
       931        29  ARHM      H5              0.9604184166        7.7369586642      100.0483189943  LPSA1     29             21.0000000000
       932        29  ARHM      O5              0.0139244446        6.9053023486      101.6944268016  LPSA1     29             21.0000000000
       933        29  ARHM      C2              1.9376115924        5.5685518317      102.1744107443  LPSA1     29             21.0000000000
       934        29  ARHM      H2              2.4116950228        4.5866593440      101.9253700343  LPSA1     29             21.0000000000
       935        29  ARHM      O2              1.7812663455        5.7133630537      103.6052801056  LPSA1     29             21.0000000000
       936        29  ARHM      C3              2.8116047891        6.6530473723      101.6158263212  LPSA1     29             21.0000000000
       937        29  ARHM      H3              2.9481766899        6.4957928540      100.5350345556  LPSA1     29             21.0000000000
       938        29  ARHM      O3              4.0913425792        6.5819281120      102.2147138134  LPSA1     29             21.0000000000
       939        29  ARHM      HO3             4.4580442882        7.4664968476      102.2016756417  LPSA1     29             21.0000000000
       940        29  ARHM      C4              2.1772771312        8.0148965521      101.7990775434  LPSA1     29             21.0000000000
       941        29  ARHM      H4              2.1054374815        8.2001607045      102.8750151964  LPSA1     29             21.0000000000
       942        29  ARHM      O4              3.0112939982        9.0802644108      101.3400613708  LPSA1     29             21.0000000000
       943        29  ARHM      HO4             3.2917167760        9.0040699420      100.4250182246  LPSA1     29             21.0000000000
       944        29  ARHM      C6             -0.1175150467        9.1858176083      101.2160461328  LPSA1     29             21.0000000000
       945        29  ARHM      H61            -1.0974894949        8.9043715712      100.7708558262  LPSA1     29             21.0000000000
       946        29  ARHM      H62            -0.2742640310        9.5044124819      102.2664132833  LPSA1     29             21.0000000000
       947        29  ARHM      H63             0.3198432265       10.0211010979      100.6312324379  LPSA1     29             21.0000000000
       948        30  ARHM      C1              1.7681340674        4.5348123580      104.3725340887  LPSA1     30             22.0000000000
       949        30  ARHM      H1              2.6844070347        3.9342589927      104.1617782006  LPSA1     30             22.0000000000
       950        30  ARHM      C5             -0.6189680716        4.3898779008      104.4896249212  LPSA1     30             22.0000000000
       951        30  ARHM      H5             -0.6286183719        5.3390815924      103.9096260529  LPSA1     30             22.0000000000
       952        30  ARHM      O5              0.6077078487        3.7187054705      104.1589322369  LPSA1     30             22.0000000000
       953        30  ARHM      C2              1.7734004929        4.9307698761      105.8275588819  LPSA1     30             22.0000000000
       954        30  ARHM      H2              2.6525555784        5.5869902189      106.0290465351  LPSA1     30             22.0000000000
       955        30  ARHM      O2              1.8091590034        3.7473592735      106.6098730166  LPSA1     30             22.0000000000
       956        30  ARHM      C3              0.5107094904        5.6506450516      106.2279568565  LPSA1     30             22.0000000000
       957        30  ARHM      H3              0.4113696579        6.4994641893      105.5272944576  LPSA1     30             22.0000000000
       958        30  ARHM      O3              0.6050279153        6.2183794780      107.5470066547  LPSA1     30             22.0000000000
       959        30  ARHM      C4             -0.6660345834        4.7468178974      105.9573551810  LPSA1     30             22.0000000000
       960        30  ARHM      H4             -0.5974287814        3.8095662843      106.5485261262  LPSA1     30             22.0000000000
       961        30  ARHM      O4             -1.9178848048        5.3059267533      106.3183349623  LPSA1     30             22.0000000000
       962        30  ARHM      HO4            -2.2657386751        5.9398654280      105.6896011734  LPSA1     30             22.0000000000
       963        30  ARHM      C6             -1.8338467025        3.5529376350      104.0525470357  LPSA1     30             22.0000000000
       964        30  ARHM      H61            -2.7641052583        4.1355407544      104.2304599891  LPSA1     30             22.0000000000
       965        30  ARHM      H62            -1.7651060579        3.3455464296      102.9692711319  LPSA1     30             22.0000000000
       966        30  ARHM      H63            -1.8943526140        2.5962944877      104.6173589926  LPSA1     30             22.0000000000
       967        31  BMANNA    C1              3.0894287365        3.3063978353      106.8925966288  LPSA1     31             23.0000000000
       968        31  BMANNA    H1              3.7551012361        4.1545096216      107.1590483874  LPSA1     31             23.0000000000
       969        31  BMANNA    C5              4.9101901602        1.9995409572      106.1520838966  LPSA1     31             23.0000000000
       970        31  BMANNA    H5              5.5356991556        2.8749665870      106.4734925224  LPSA1     31             23.0000000000
       971        31  BMANNA    O5              3.6296638869        2.5196533398      105.8270784478  LPSA1     31             23.0000000000
       972        31  BMANNA    C2              2.8914861321        2.4303274454      108.0810975464  LPSA1     31             23.0000000000
       973        31  BMANNA    H2              2.5328520950        3.0862375043      108.9145017558  LPSA1     31             23.0000000000
       974        31  BMANNA    N               1.8783320249        1.4180248331      107.8268227874  LPSA1     31             23.0000000000
       975        31  BMANNA    HN              1.7012098147        1.2156879733      106.8633850264  LPSA1     31             23.0000000000
       976        31  BMANNA    C               1.1090271306        0.8925708798      108.7797023855  LPSA1     31             23.0000000000
       977        31  BMANNA    O               1.1794657942        1.2652941232      109.9409019586  LPSA1     31             23.0000000000
       978        31  BMANNA    CT              0.1178071786       -0.1437427580      108.3388648859  LPSA1     31             23.0000000000
       979        31  BMANNA    HT1             0.5935738133       -0.7892508284      107.5677008522  LPSA1     31             23.0000000000
       980        31  BMANNA    HT2            -0.7654986463        0.3644374489      107.9023304567  LPSA1     31             23.0000000000
       981        31  BMANNA    HT3            -0.2170862248       -0.7638429954      109.1936186684  LPSA1     31             23.0000000000
       982        31  BMANNA    C3              4.2360382442        1.9173317464      108.4822816435  LPSA1     31             23.0000000000
       983        31  BMANNA    H3              4.9460777445        2.7547553360      108.6550100859  LPSA1     31             23.0000000000
       984        31  BMANNA    O3              4.1249349283        1.3278132798      109.7554746346  LPSA1     31             23.0000000000
       985        31  BMANNA    HO3             3.2449841755        1.5104650187      110.1224958071  LPSA1     31             23.0000000000
       986        31  BMANNA    C4              4.7880236258        1.0915978274      107.3227470423  LPSA1     31             23.0000000000
       987        31  BMANNA    H4              4.1657467673        0.1909882524      107.1038679805  LPSA1     31             23.0000000000
       988        31  BMANNA    O4              6.1286595829        0.7060388791      107.4116388645  LPSA1     31             23.0000000000
       989        31  BMANNA    HO4             6.5201814462        1.1346254183      108.1771432729  LPSA1     31             23.0000000000
       990        31  BMANNA    C6              5.6489757522        1.3004768198      105.0077477766  LPSA1     31             23.0000000000
       991        31  BMANNA    H61             6.7066313248        1.1243184666      105.2905079691  LPSA1     31             23.0000000000
       992        31  BMANNA    H62             5.2249538964        0.2825094701      104.8573291815  LPSA1     31             23.0000000000
       993        31  BMANNA    O6              5.6364663550        2.0068644371      103.7722353732  LPSA1     31             23.0000000000
       994        31  BMANNA    HO6             6.1213949014        2.8457191306      103.7738136429  LPSA1     31             23.0000000000
       995        32  BGLCNA    C1              0.3207064619        5.3523907772      108.6172506242  LPSA1     32             23.0000000000
       996        32  BGLCNA    H1              0.7241366584        4.3486253603      108.4128556055  LPSA1     32             23.0000000000
       997        32  BGLCNA    C5             -1.3238933705        4.2493102276      109.9275234434  LPSA1     32             23.0000000000
       998        32  BGLCNA    H5             -0.8714637262        3.2866582249      109.5883154725  LPSA1     32             23.0000000000
       999        32  BGLCNA    O5             -1.0666363477        5.2194067951      108.9058713083  LPSA1     32             23.0000000000
      1000        32  BGLCNA    C2              1.0216786625        5.8681207116      109.8530067632  LPSA1     32             23.0000000000
      1001        32  BGLCNA    H2              0.4923012627        6.8076049390      110.1523852858  LPSA1     32             23.0000000000
      1002        32  BGLCNA    N               2.3998133177        6.1753684127      109.5543055002  LPSA1     32             23.0000000000
      1003        32  BGLCNA    HN              2.7873791506        5.5786974836      108.8735409367  LPSA1     32             23.0000000000
      1004        32  BGLCNA    C               3.1458912769        7.1666123396      110.0658634739  LPSA1     32             23.0000000000
      1005        32  BGLCNA    O               2.7539370484        7.9708260551      110.8894819554  LPSA1     32             23.0000000000
      1006        32  BGLCNA    CT              4.5452243133        7.2486507810      109.5280439850  LPSA1     32             23.0000000000
      1007        32  BGLCNA    HT1             4.5828063388        6.6555821584      108.5963539133  LPSA1     32             23.0000000000
      1008        32  BGLCNA    HT2             5.2939431658        6.8400049090      110.2374216088  LPSA1     32             23.0000000000
      1009        32  BGLCNA    HT3             4.8208295203        8.3033127707      109.3114055971  LPSA1     32             23.0000000000
      1010        32  BGLCNA    C3              0.8526720131        4.8139716443      110.9269833454  LPSA1     32             23.0000000000
      1011        32  BGLCNA    H3              1.1870143011        3.8508698501      110.4768208719  LPSA1     32             23.0000000000
      1012        32  BGLCNA    O3              1.6678808424        5.0456683425      112.0901309563  LPSA1     32             23.0000000000
      1013        32  BGLCNA    C4             -0.6303780822        4.6871511684      111.2053552697  LPSA1     32             23.0000000000
      1014        32  BGLCNA    H4             -1.0081647238        5.6944643370      111.5139917254  LPSA1     32             23.0000000000
      1015        32  BGLCNA    O4             -0.9084739327        3.7594310046      112.2405908782  LPSA1     32             23.0000000000
      1016        32  BGLCNA    HO4            -0.9383720241        4.2640403447      113.0620260577  LPSA1     32             23.0000000000
      1017        32  BGLCNA    C6             -2.8154323424        4.0034774131      110.0449582322  LPSA1     32             23.0000000000
      1018        32  BGLCNA    H61            -3.0399463254        3.1492908512      110.7185879291  LPSA1     32             23.0000000000
      1019        32  BGLCNA    H62            -3.3032271955        4.8937826201      110.4814831029  LPSA1     32             23.0000000000
      1020        32  BGLCNA    O6             -3.4142119988        3.7331275584      108.7777705489  LPSA1     32             23.0000000000
      1021        32  BGLCNA    HO6            -2.8316699189        3.1895359462      108.2395792209  LPSA1     32             23.0000000000
      1022        33  AGAL      C1              2.1700617975        3.8564314812      112.6767356400  LPSA1     33             24.0000000000
      1023        33  AGAL      H1              1.4165631754        3.0448566067      112.6053118728  LPSA1     33             24.0000000000
      1024        33  AGAL      C5              4.4584995515        4.3625829727      112.1982284285  LPSA1     33             24.0000000000
      1025        33  AGAL      H5              4.0342976082        5.3242464988      111.8366632395  LPSA1     33             24.0000000000
      1026        33  AGAL      O5              3.3905159984        3.4001372774      112.0523397709  LPSA1     33             24.0000000000
      1027        33  AGAL      C2              2.4786375403        4.1108665740      114.1417607056  LPSA1     33             24.0000000000
      1028        33  AGAL      H2              2.9433269567        3.1794185185      114.5317501499  LPSA1     33             24.0000000000
      1029        33  AGAL      O2              1.2520151181        4.2685462278      114.8755775243  LPSA1     33             24.0000000000
      1030        33  AGAL      C3              3.5546010938        5.1764084789      114.2918837996  LPSA1     33             24.0000000000
      1031        33  AGAL      H3              3.2606244969        6.0954020349      113.7224889859  LPSA1     33             24.0000000000
      1032        33  AGAL      O3              3.7186910331        5.6462952352      115.6212206605  LPSA1     33             24.0000000000
      1033        33  AGAL      HO3             3.9139932542        4.9401246788      116.2395105566  LPSA1     33             24.0000000000
      1034        33  AGAL      C4              4.8271870125        4.6407794398      113.6425230103  LPSA1     33             24.0000000000
      1035        33  AGAL      H4              5.5905628523        5.4406635276      113.6535629743  LPSA1     33             24.0000000000
      1036        33  AGAL      O4              5.4130180580        3.4864415885      114.2456289737  LPSA1     33             24.0000000000
      1037        33  AGAL      HO4             4.8768093729        3.0691225467      114.9195610269  LPSA1     33             24.0000000000
      1038        33  AGAL      C6              5.6284757068        4.0797901822      111.2602161525  LPSA1     33             24.0000000000
      1039        33  AGAL      H61             5.2144092773        4.1525561029      110.2364416692  LPSA1     33             24.0000000000
      1040        33  AGAL      H62             6.4257001464        4.8477851045      111.3692253682  LPSA1     33             24.0000000000
      1041        33  AGAL      O6              6.2738919516        2.8162082896      111.4021126781  LPSA1     33             24.0000000000
      1042        33  AGAL      HO6             5.8080412278        2.1289538932      110.9073438700  LPSA1     33             24.0000000000
      1043        34  ARHM      C1              1.1564566710        3.4850510323      116.0514939477  LPSA1     34             25.0000000000
      1044        34  ARHM      H1              2.0783491599        3.6521773943      116.6486540300  LPSA1     34             25.0000000000
      1045        34  ARHM      C5             -0.0963419866        1.6659615579      115.0532849371  LPSA1     34             25.0000000000
      1046        34  ARHM      H5             -0.0227517618        2.1388357663      114.0556452077  LPSA1     34             25.0000000000
      1047        34  ARHM      O5              1.0565183731        2.0575262679      115.8263272381  LPSA1     34             25.0000000000
      1048        34  ARHM      C2             -0.0602211851        3.9912481364      116.8124632386  LPSA1     34             25.0000000000
      1049        34  ARHM      H2             -0.0220113411        5.1106491721      116.8432985437  LPSA1     34             25.0000000000
      1050        34  ARHM      O2             -0.1649340063        3.5202773978      118.1860664466  LPSA1     34             25.0000000000
      1051        34  ARHM      C3             -1.3039090174        3.6289886310      116.0102768717  LPSA1     34             25.0000000000
      1052        34  ARHM      H3             -1.2365397244        4.0895053399      114.9928773781  LPSA1     34             25.0000000000
      1053        34  ARHM      O3             -2.4792688087        4.1476549630      116.6424380559  LPSA1     34             25.0000000000
      1054        34  ARHM      HO3            -3.1376407319        4.3882815773      115.9729040946  LPSA1     34             25.0000000000
      1055        34  ARHM      C4             -1.3573726934        2.1269352988      115.7905982783  LPSA1     34             25.0000000000
      1056        34  ARHM      H4             -1.3522438201        1.6021441036      116.7777892066  LPSA1     34             25.0000000000
      1057        34  ARHM      O4             -2.5424558570        1.7377184506      115.0900327560  LPSA1     34             25.0000000000
      1058        34  ARHM      HO4            -3.2960588906        1.7893088462      115.6892026263  LPSA1     34             25.0000000000
      1059        34  ARHM      C6             -0.1448240149        0.1421377086      114.7883547469  LPSA1     34             25.0000000000
      1060        34  ARHM      H61            -0.1586047284       -0.3668683652      115.7456906475  LPSA1     34             25.0000000000
      1061        34  ARHM      H62            -1.1050343286       -0.1342266806      114.3145108878  LPSA1     34             25.0000000000
      1062        34  ARHM      H63             0.6854015811       -0.2593899676      114.1751319088  LPSA1     34             25.0000000000
      1063        35  ARHM      C1              0.9304107487        3.7383551226      119.0603302691  LPSA1     35             26.0000000000
      1064        35  ARHM      H1              1.3638099180        4.7475013749      118.8691511223  LPSA1     35             26.0000000000
      1065        35  ARHM      C5              1.4559596204        1.3896344045      119.2031778897  LPSA1     35             26.0000000000
      1066        35  ARHM      H5              0.6270261291        1.1345646510      118.5075885844  LPSA1     35             26.0000000000
      1067        35  ARHM      O5              1.9479918226        2.7249810162      118.9391009219  LPSA1     35             26.0000000000
      1068        35  ARHM      C2              0.4328952225        3.6967694407      120.5037876515  LPSA1     35             26.0000000000
      1069        35  ARHM      H2             -0.3640060197        4.4627152126      120.6608585329  LPSA1     35             26.0000000000
      1070        35  ARHM      O2              1.5019166014        3.9622004138      121.4243240507  LPSA1     35             26.0000000000
      1071        35  ARHM      C3             -0.1529095405        2.3427164635      120.8294042065  LPSA1     35             26.0000000000
      1072        35  ARHM      H3             -0.9774876266        2.1160849266      120.1152433664  LPSA1     35             26.0000000000
      1073        35  ARHM      O3             -0.7620539210        2.3476279002      122.1229784425  LPSA1     35             26.0000000000
      1074        35  ARHM      HO3            -0.2287595037        2.8203856361      122.7731431478  LPSA1     35             26.0000000000
      1075        35  ARHM      C4              0.9292612198        1.2887864910      120.6427595014  LPSA1     35             26.0000000000
      1076        35  ARHM      H4              1.7828099664        1.4826815538      121.3366617546  LPSA1     35             26.0000000000
      1077        35  ARHM      O4              0.4493234270       -0.0328995898      120.8960768578  LPSA1     35             26.0000000000
      1078        35  ARHM      HO4            -0.4593100634       -0.1453260101      120.6070689031  LPSA1     35             26.0000000000
      1079        35  ARHM      C6              2.5762243413        0.3790864072      118.8586442445  LPSA1     35             26.0000000000
      1080        35  ARHM      H61             2.7998703446        0.3700032549      117.7703127178  LPSA1     35             26.0000000000
      1081        35  ARHM      H62             3.4846303392        0.6297513031      119.4443863516  LPSA1     35             26.0000000000
      1082        35  ARHM      H63             2.2376179020       -0.6514129175      119.1087635449  LPSA1     35             26.0000000000
      1083        36  BMANNA    C1              1.9280440716        5.2969156994      121.4838858037  LPSA1     36             27.0000000000
      1084        36  BMANNA    H1              1.1205063105        5.9684152208      121.1473914033  LPSA1     36             27.0000000000
      1085        36  BMANNA    C5              3.4433618209        6.9566124150      120.7382394171  LPSA1     36             27.0000000000
      1086        36  BMANNA    H5              2.6050268052        7.6040753478      120.5087269677  LPSA1     36             27.0000000000
      1087        36  BMANNA    O5              3.0616256764        5.5590080207      120.6643483914  LPSA1     36             27.0000000000
      1088        36  BMANNA    C2              2.2818817994        5.5941376153      122.9238941215  LPSA1     36             27.0000000000
      1089        36  BMANNA    H2              1.3255526789        5.4397757608      123.4870055828  LPSA1     36             27.0000000000
      1090        36  BMANNA    N               3.2974967203        4.7123653549      123.4854941256  LPSA1     36             27.0000000000
      1091        36  BMANNA    HN              4.0411407484        4.4364390373      122.8818164679  LPSA1     36             27.0000000000
      1092        36  BMANNA    C               3.3358313085        4.4291397273      124.8005373351  LPSA1     36             27.0000000000
      1093        36  BMANNA    O               2.4562544603        4.7459426555      125.5890051722  LPSA1     36             27.0000000000
      1094        36  BMANNA    CT              4.5442397586        3.7125227306      125.3131158250  LPSA1     36             27.0000000000
      1095        36  BMANNA    HT1             5.4707520461        4.1264186913      124.8666962101  LPSA1     36             27.0000000000
      1096        36  BMANNA    HT2             4.4914134819        2.6236158161      125.1270458564  LPSA1     36             27.0000000000
      1097        36  BMANNA    HT3             4.5855849953        3.8735732756      126.4137512575  LPSA1     36             27.0000000000
      1098        36  BMANNA    C3              2.6440516690        7.0681721675      123.0304342449  LPSA1     36             27.0000000000
      1099        36  BMANNA    H3              1.7824271692        7.6821306630      122.6616907250  LPSA1     36             27.0000000000
      1100        36  BMANNA    O3              2.9342797019        7.4829006224      124.3633998676  LPSA1     36             27.0000000000
      1101        36  BMANNA    HO3             2.2752915121        8.0951376621      124.7077961297  LPSA1     36             27.0000000000
      1102        36  BMANNA    C4              3.8228060304        7.3576988316      122.1445960426  LPSA1     36             27.0000000000
      1103        36  BMANNA    H4              4.7130902218        6.7775740645      122.4727911498  LPSA1     36             27.0000000000
      1104        36  BMANNA    O4              4.1610321088        8.7335046185      122.2199530123  LPSA1     36             27.0000000000
      1105        36  BMANNA    HO4             4.3370310538        8.8283199964      123.1662521164  LPSA1     36             27.0000000000
      1106        36  BMANNA    C6              4.4574666045        7.3092763639      119.7215977830  LPSA1     36             27.0000000000
      1107        36  BMANNA    H61             4.1753211930        7.0106587009      118.6898809237  LPSA1     36             27.0000000000
      1108        36  BMANNA    H62             4.6342062390        8.4111359745      119.7095672469  LPSA1     36             27.0000000000
      1109        36  BMANNA    O6              5.5973633059        6.6056949420      120.1229375665  LPSA1     36             27.0000000000
      1110        36  BMANNA    HO6             6.1998519864        7.1844924014      120.6233788534  LPSA1     36             27.0000000000
      1111        37  ECLIPA    HB6S           -7.2111188882       -8.3101565367       20.4247392743  LPSA2     1               0.0000000000
      1112        37  ECLIPA    OB6            -8.7114531591       -7.7371993687       21.7104577781  LPSA2     1               0.0000000000
      1113        37  ECLIPA    CB6            -8.2330792388       -8.6432740719       20.6968991423  LPSA2     1               0.0000000000
      1114        37  ECLIPA    HB6R           -8.1618683187       -9.6789552981       21.1005319469  LPSA2     1               0.0000000000
      1115        37  ECLIPA    CB5            -9.0868049673       -8.7096943144       19.4329337593  LPSA2     1               0.0000000000
      1116        37  ECLIPA    OB5            -9.2037808556       -7.3516529328       18.9639371005  LPSA2     1               0.0000000000
      1117        37  ECLIPA    HB5           -10.0818256039       -9.1108165934       19.7378918579  LPSA2     1               0.0000000000
      1118        37  ECLIPA    CB1           -10.0058693894       -7.2553549668       17.7815864629  LPSA2     1               0.0000000000
      1119        37  ECLIPA    HB1           -11.0310214980       -7.6639629052       17.9599720290  LPSA2     1               0.0000000000
      1120        37  ECLIPA    OA6           -10.1587635278       -5.9286449495       17.3303002160  LPSA2     1               0.0000000000
      1121        37  ECLIPA    CA6            -9.0358330754       -5.0596394004       17.5610835620  LPSA2     1               0.0000000000
      1122        37  ECLIPA    HA6R           -8.0901722838       -5.6167093929       17.7538422422  LPSA2     1               0.0000000000
      1123        37  ECLIPA    HA6S           -9.2718594062       -4.4228528166       18.4442432451  LPSA2     1               0.0000000000
      1124        37  ECLIPA    CB4            -8.4941150775       -9.6115064328       18.3295684448  LPSA2     1               0.0000000000
      1125        37  ECLIPA    HB4            -7.4582224165       -9.2997000981       18.0470912645  LPSA2     1               0.0000000000
      1126        37  ECLIPA    OB4            -8.5551314033      -10.9491446293       18.8423886815  LPSA2     1               0.0000000000
      1127        37  ECLIPA    PB             -7.1864926905      -11.7646457519       19.3148453678  LPSA2     1               0.0000000000
      1128        37  ECLIPA    OPB4           -7.5724492095      -12.6686557373       20.5022824237  LPSA2     1               0.0000000000
      1129        37  ECLIPA    OPB3           -6.1842941183      -10.6525678685       19.6907005561  LPSA2     1               0.0000000000
      1130        37  ECLIPA    OPB2           -6.8227042695      -12.6315300082       18.1090842025  LPSA2     1               0.0000000000
      1131        37  ECLIPA    CB3            -9.3555780259       -9.5051900323       17.0863871042  LPSA2     1               0.0000000000
      1132        37  ECLIPA    OB3            -8.8490786951      -10.2165892611       15.9508763963  LPSA2     1               0.0000000000
      1133        37  ECLIPA    HB3           -10.4081901519       -9.7867322710       17.3331158125  LPSA2     1               0.0000000000
      1134        37  ECLIPA    C71            -9.2212035465      -11.4733701917       15.7646095432  LPSA2     1               0.0000000000
      1135        37  ECLIPA    O71           -10.2357426434      -11.9650055751       16.2424613696  LPSA2     1               0.0000000000
      1136        37  ECLIPA    C72            -8.6649848673      -11.9209480927       14.3850969915  LPSA2     1               0.0000000000
      1137        37  ECLIPA    H72R           -9.0068498279      -11.2121252709       13.6015337674  LPSA2     1               0.0000000000
      1138        37  ECLIPA    H72S           -9.0520804213      -12.9318256138       14.1609540531  LPSA2     1               0.0000000000
      1139        37  ECLIPA    CB2            -9.3996306892       -8.0518078561       16.6639402927  LPSA2     1               0.0000000000
      1140        37  ECLIPA    HB2            -8.3398861981       -7.6977410568       16.5120153871  LPSA2     1               0.0000000000
      1141        37  ECLIPA    NB2           -10.1954734497       -7.8939737958       15.4517271173  LPSA2     1               0.0000000000
      1142        37  ECLIPA    HNB2          -11.1658184500       -7.7276325184       15.5721195892  LPSA2     1               0.0000000000
      1143        37  ECLIPA    CA4           -10.1320450525       -3.6305662735       15.8082654181  LPSA2     1               0.0000000000
      1144        37  ECLIPA    HA4           -10.7631452251       -4.5068087606       15.5265219873  LPSA2     1               0.0000000000
      1145        37  ECLIPA    OA4           -10.7572880593       -2.8961016158       16.8666281603  LPSA2     1               0.0000000000
      1146        37  ECLIPA    HOA4          -10.8013657872       -3.4869301780       17.6194702966  LPSA2     1               0.0000000000
      1147        37  ECLIPA    CA5            -8.8327401141       -4.1834278872       16.3369683286  LPSA2     1               0.0000000000
      1148        37  ECLIPA    HA5            -8.0870440671       -3.3864992393       16.5654403061  LPSA2     1               0.0000000000
      1149        37  ECLIPA    OA5            -8.2906735170       -5.0275532423       15.3356060176  LPSA2     1               0.0000000000
      1150        37  ECLIPA    CA1            -7.9976104799       -4.3478721656       14.1024189540  LPSA2     1               0.0000000000
      1151        37  ECLIPA    HA1            -7.7654652823       -5.1962866968       13.4221104457  LPSA2     1               0.0000000000
      1152        37  ECLIPA    OA1            -6.8879433863       -3.4754073684       14.1321879395  LPSA2     1               0.0000000000
      1153        37  ECLIPA    OPA2           -5.3247511798       -3.2514283551       16.0324296954  LPSA2     1               0.0000000000
      1154        37  ECLIPA    OPA3           -5.5260484617       -5.5138824923       14.8664051551  LPSA2     1               0.0000000000
      1155        37  ECLIPA    OPA4           -4.4182738393       -3.6273502979       13.6289414314  LPSA2     1               0.0000000000
      1156        37  ECLIPA    PA             -5.4321764960       -4.0035328423       14.7036723269  LPSA2     1               0.0000000000
      1157        37  ECLIPA    CA3            -9.9225015265       -2.8442256240       14.5283475865  LPSA2     1               0.0000000000
      1158        37  ECLIPA    HA3            -9.3076402181       -1.9403621946       14.7268634029  LPSA2     1               0.0000000000
      1159        37  ECLIPA    OA3           -11.2482775008       -2.4198512844       14.2102006163  LPSA2     1               0.0000000000
      1160        37  ECLIPA    C31           -12.0982344504       -3.1177710523       13.4981795001  LPSA2     1               0.0000000000
      1161        37  ECLIPA    O31           -12.0321978877       -3.3126133976       12.2963192508  LPSA2     1               0.0000000000
      1162        37  ECLIPA    C32           -13.3862059755       -3.3897063441       14.2911702609  LPSA2     1               0.0000000000
      1163        37  ECLIPA    H32R          -14.1898696040       -2.8875484682       13.7180525448  LPSA2     1               0.0000000000
      1164        37  ECLIPA    H32S          -13.2884379141       -2.9230460262       15.2859829346  LPSA2     1               0.0000000000
      1165        37  ECLIPA    CA2            -9.2690187942       -3.7679699135       13.5099975758  LPSA2     1               0.0000000000
      1166        37  ECLIPA    HA2            -9.9452725614       -4.6365814757       13.3389122368  LPSA2     1               0.0000000000
      1167        37  ECLIPA    NA2            -9.0180370710       -3.0934787053       12.2247490475  LPSA2     1               0.0000000000
      1168        37  ECLIPA    HNA2           -9.4549549998       -2.2088901614       12.1294892597  LPSA2     1               0.0000000000
      1169        37  ECLIPA    C73            -7.1172241633      -11.9170623109       14.3579349174  LPSA2     1               0.0000000000
      1170        37  ECLIPA    H73R           -6.7518968543      -12.4207233525       15.2861628660  LPSA2     1               0.0000000000
      1171        37  ECLIPA    O73            -6.7120373574      -10.5541346527       14.2695758205  LPSA2     1               0.0000000000
      1172        37  ECLIPA    C81            -5.6357265812      -10.1404086365       14.9434162989  LPSA2     1               0.0000000000
      1173        37  ECLIPA    O81            -4.8943004868      -10.8525275246       15.5979744448  LPSA2     1               0.0000000000
      1174        37  ECLIPA    C82            -5.1880606445       -8.7982115541       14.3372406118  LPSA2     1               0.0000000000
      1175        37  ECLIPA    H82R           -4.2745275898       -8.4541831553       14.8598445425  LPSA2     1               0.0000000000
      1176        37  ECLIPA    H82S           -5.9713853944       -8.0424459917       14.5574983001  LPSA2     1               0.0000000000
      1177        37  ECLIPA    C83            -4.9443632946       -8.8414937012       12.8075316609  LPSA2     1               0.0000000000
      1178        37  ECLIPA    H83R           -5.9268319260       -8.7532167542       12.2885626080  LPSA2     1               0.0000000000
      1179        37  ECLIPA    H83S           -4.4955427115       -9.8174382519       12.5370216336  LPSA2     1               0.0000000000
      1180        37  ECLIPA    C84            -4.0834641152       -7.6744359408       12.2916168989  LPSA2     1               0.0000000000
      1181        37  ECLIPA    H84R           -3.0239961323       -7.7872209063       12.6007711659  LPSA2     1               0.0000000000
      1182        37  ECLIPA    H84S           -4.4952677558       -6.7441062111       12.7651627071  LPSA2     1               0.0000000000
      1183        37  ECLIPA    C85            -4.1957356564       -7.4857352437       10.7703838703  LPSA2     1               0.0000000000
      1184        37  ECLIPA    H85R           -5.2789888624       -7.6131716981       10.5443862582  LPSA2     1               0.0000000000
      1185        37  ECLIPA    H85S           -3.6600105319       -8.2964398005       10.2349731650  LPSA2     1               0.0000000000
      1186        37  ECLIPA    C86            -3.8153175942       -6.0682527446       10.2863200281  LPSA2     1               0.0000000000
      1187        37  ECLIPA    H86R           -2.7441278332       -6.0126701816        9.9923086553  LPSA2     1               0.0000000000
      1188        37  ECLIPA    H86S           -3.9467119587       -5.3475724045       11.1304773857  LPSA2     1               0.0000000000
      1189        37  ECLIPA    C87            -4.7367943800       -5.5576786565        9.1600420321  LPSA2     1               0.0000000000
      1190        37  ECLIPA    H87R           -4.3698244541       -4.5727639130        8.7978138442  LPSA2     1               0.0000000000
      1191        37  ECLIPA    H87S           -5.7552816066       -5.3778367496        9.5767752598  LPSA2     1               0.0000000000
      1192        37  ECLIPA    C88            -4.8890762792       -6.5674385238        8.0210929570  LPSA2     1               0.0000000000
      1193        37  ECLIPA    H88R           -5.5700592374       -7.3794066939        8.3498969720  LPSA2     1               0.0000000000
      1194        37  ECLIPA    H88S           -3.9050257759       -7.0682292737        7.8795809497  LPSA2     1               0.0000000000
      1195        37  ECLIPA    C89            -5.4260724398       -5.9509066182        6.7171859703  LPSA2     1               0.0000000000
      1196        37  ECLIPA    H89R           -5.9550049335       -4.9884982509        6.8958212037  LPSA2     1               0.0000000000
      1197        37  ECLIPA    H89S           -6.1811866881       -6.6263534786        6.2605322672  LPSA2     1               0.0000000000
      1198        37  ECLIPA    C810           -4.2893146536       -5.7859922931        5.7066300348  LPSA2     1               0.0000000000
      1199        37  ECLIPA    H810R          -3.5436318760       -6.5724965388        5.9368779504  LPSA2     1               0.0000000000
      1200        37  ECLIPA    H810S          -3.8199620114       -4.7901248311        5.8653554112  LPSA2     1               0.0000000000
      1201        37  ECLIPA    C811           -4.7354410851       -5.9373774757        4.2542495645  LPSA2     1               0.0000000000
      1202        37  ECLIPA    H811R          -4.0181887595       -5.4538722979        3.5442280522  LPSA2     1               0.0000000000
      1203        37  ECLIPA    H811S          -5.7152132897       -5.4153063946        4.2175254608  LPSA2     1               0.0000000000
      1204        37  ECLIPA    C812           -5.0327884017       -7.3659261243        3.7761070212  LPSA2     1               0.0000000000
      1205        37  ECLIPA    H812R          -5.4459234125       -7.2788976864        2.7417509708  LPSA2     1               0.0000000000
      1206        37  ECLIPA    H812S          -5.7935617902       -7.8269709520        4.4291731212  LPSA2     1               0.0000000000
      1207        37  ECLIPA    C813           -3.8896240635       -8.3724687788        3.8517406307  LPSA2     1               0.0000000000
      1208        37  ECLIPA    H813R          -3.0152555181       -8.0035831545        3.4308550325  LPSA2     1               0.0000000000
      1209        37  ECLIPA    H813S          -3.3689153419       -8.4524016273        4.8152342123  LPSA2     1               0.0000000000
      1210        37  ECLIPA    C814           -4.1526608466       -9.7026546876        3.1639317862  LPSA2     1               0.0000000000
      1211        37  ECLIPA    H814R          -4.7605733580       -9.6162429738        2.2319449419  LPSA2     1               0.0000000000
      1212        37  ECLIPA    H814S          -4.6900535681      -10.3080736489        3.9112699509  LPSA2     1               0.0000000000
      1213        37  ECLIPA    H814T          -3.1935710010      -10.1998218961        2.9015183662  LPSA2     1               0.0000000000
      1214        37  ECLIPA    C74            -6.4845282315      -12.6336714270       13.1309428235  LPSA2     1               0.0000000000
      1215        37  ECLIPA    H74R           -6.7282560788      -13.7090914861       13.0368546490  LPSA2     1               0.0000000000
      1216        37  ECLIPA    H74S           -5.3845598293      -12.5821472835       13.3216567206  LPSA2     1               0.0000000000
      1217        37  ECLIPA    C75            -6.7221558272      -11.9113647596       11.7854316645  LPSA2     1               0.0000000000
      1218        37  ECLIPA    H75R           -5.7850553717      -12.0015916307       11.1919923440  LPSA2     1               0.0000000000
      1219        37  ECLIPA    H75S           -6.8809333749      -10.8268396479       11.9727836206  LPSA2     1               0.0000000000
      1220        37  ECLIPA    C76            -7.8989795573      -12.4271040739       10.9541869573  LPSA2     1               0.0000000000
      1221        37  ECLIPA    H76R           -8.8527588387      -12.0285175430       11.3725236305  LPSA2     1               0.0000000000
      1222        37  ECLIPA    H76S           -7.9714166885      -13.5383597452       10.9901137503  LPSA2     1               0.0000000000
      1223        37  ECLIPA    C77            -7.7959083995      -12.0340914506        9.4740366552  LPSA2     1               0.0000000000
      1224        37  ECLIPA    H77R           -6.9367945081      -12.5362013214        8.9950180350  LPSA2     1               0.0000000000
      1225        37  ECLIPA    H77S           -7.6824811343      -10.9498968355        9.3193497176  LPSA2     1               0.0000000000
      1226        37  ECLIPA    C78            -9.0987556265      -12.3822106082        8.8174358309  LPSA2     1               0.0000000000
      1227        37  ECLIPA    H78R           -9.3211057040      -13.4530603060        9.0207326231  LPSA2     1               0.0000000000
      1228        37  ECLIPA    H78S           -9.8152509511      -11.7285434961        9.3657514035  LPSA2     1               0.0000000000
      1229        37  ECLIPA    C79            -9.2657751701      -12.0792970551        7.3408354607  LPSA2     1               0.0000000000
      1230        37  ECLIPA    H79R           -9.8329845911      -11.1302417400        7.1841632811  LPSA2     1               0.0000000000
      1231        37  ECLIPA    H79S           -9.7950469439      -12.9726112376        6.9651443866  LPSA2     1               0.0000000000
      1232        37  ECLIPA    C710           -8.0592052102      -12.1692406883        6.4556180299  LPSA2     1               0.0000000000
      1233        37  ECLIPA    H710R          -7.2896333819      -11.4935589717        6.8611712630  LPSA2     1               0.0000000000
      1234        37  ECLIPA    H710S          -7.7140040779      -13.2292150005        6.4826861762  LPSA2     1               0.0000000000
      1235        37  ECLIPA    C711           -8.3209912330      -11.7918223841        5.0074681442  LPSA2     1               0.0000000000
      1236        37  ECLIPA    H711R          -9.0901369381      -12.4784479000        4.5772673023  LPSA2     1               0.0000000000
      1237        37  ECLIPA    H711S          -8.7004100072      -10.7467989176        4.9287842696  LPSA2     1               0.0000000000
      1238        37  ECLIPA    C712           -6.9702069068      -11.8664685142        4.2953784504  LPSA2     1               0.0000000000
      1239        37  ECLIPA    H712R          -6.6561884252      -12.9386297411        4.2727190321  LPSA2     1               0.0000000000
      1240        37  ECLIPA    H712S          -6.2351763200      -11.2851235142        4.8738916224  LPSA2     1               0.0000000000
      1241        37  ECLIPA    C713           -7.0589875111      -11.3164223157        2.9114272516  LPSA2     1               0.0000000000
      1242        37  ECLIPA    H713R          -7.3444274085      -10.2400169882        2.8734141395  LPSA2     1               0.0000000000
      1243        37  ECLIPA    H713S          -6.1059678115      -11.4474544912        2.3280432513  LPSA2     1               0.0000000000
      1244        37  ECLIPA    C714           -8.1244366898      -12.1675264505        2.3299438540  LPSA2     1               0.0000000000
      1245        37  ECLIPA    H714R          -7.6828341397      -13.1724297671        2.1026902400  LPSA2     1               0.0000000000
      1246        37  ECLIPA    H714S          -9.1932437303      -12.1199170508        2.5626149128  LPSA2     1               0.0000000000
      1247        37  ECLIPA    H714T          -8.4492322183      -11.6394346518        1.4663432190  LPSA2     1               0.0000000000
      1248        37  ECLIPA    C51            -9.6528608207       -8.0212959721       14.2346736871  LPSA2     1               0.0000000000
      1249        37  ECLIPA    O51            -8.4466259807       -8.0090581998       14.0770895396  LPSA2     1               0.0000000000
      1250        37  ECLIPA    C52           -10.5733164535       -8.2356711487       13.0570626335  LPSA2     1               0.0000000000
      1251        37  ECLIPA    H52R          -10.7756001390       -9.3215220495       12.9389239574  LPSA2     1               0.0000000000
      1252        37  ECLIPA    H52S          -11.5205884479       -7.7211507804       13.2535699627  LPSA2     1               0.0000000000
      1253        37  ECLIPA    C53            -9.9435275655       -7.6808567848       11.7615433143  LPSA2     1               0.0000000000
      1254        37  ECLIPA    H53R           -9.3403202170       -6.7670656066       11.9858162174  LPSA2     1               0.0000000000
      1255        37  ECLIPA    O53           -11.0271256616       -7.4318176676       10.8478518948  LPSA2     1               0.0000000000
      1256        37  ECLIPA    C61           -11.3053265620       -6.1709951837       10.5255022378  LPSA2     1               0.0000000000
      1257        37  ECLIPA    O61           -10.6774100335       -5.1945359421       10.8539314768  LPSA2     1               0.0000000000
      1258        37  ECLIPA    C62           -12.5245324529       -6.1328406321        9.5906780236  LPSA2     1               0.0000000000
      1259        37  ECLIPA    H62R          -13.4398594364       -6.1807326470       10.2103508905  LPSA2     1               0.0000000000
      1260        37  ECLIPA    H62S          -12.4876870632       -7.0699026789        9.0044007143  LPSA2     1               0.0000000000
      1261        37  ECLIPA    C63           -12.5366169277       -4.8482900460        8.7050028669  LPSA2     1               0.0000000000
      1262        37  ECLIPA    H63R          -11.5186079162       -4.7204889649        8.2754248891  LPSA2     1               0.0000000000
      1263        37  ECLIPA    H63S          -12.7634169213       -3.9532863145        9.3319590430  LPSA2     1               0.0000000000
      1264        37  ECLIPA    C64           -13.5084787248       -4.8657458243        7.5079483894  LPSA2     1               0.0000000000
      1265        37  ECLIPA    H64R          -13.4871314571       -3.8796733800        6.9884777894  LPSA2     1               0.0000000000
      1266        37  ECLIPA    H64S          -14.5269729931       -5.0384533078        7.9202895033  LPSA2     1               0.0000000000
      1267        37  ECLIPA    C65           -13.1386361012       -5.9841695225        6.5272013373  LPSA2     1               0.0000000000
      1268        37  ECLIPA    H65R          -13.2473135307       -6.9084253763        7.1352673263  LPSA2     1               0.0000000000
      1269        37  ECLIPA    H65S          -12.0762980214       -5.8954536533        6.2168985874  LPSA2     1               0.0000000000
      1270        37  ECLIPA    C66           -13.9918301745       -6.1684016251        5.2592492468  LPSA2     1               0.0000000000
      1271        37  ECLIPA    H66R          -15.0525128570       -6.2973669243        5.5371185823  LPSA2     1               0.0000000000
      1272        37  ECLIPA    H66S          -13.6231638533       -7.1125859580        4.7918990764  LPSA2     1               0.0000000000
      1273        37  ECLIPA    C67           -13.9338901581       -5.0914843571        4.1749472818  LPSA2     1               0.0000000000
      1274        37  ECLIPA    H67R          -14.1463406972       -4.0744440610        4.5734338456  LPSA2     1               0.0000000000
      1275        37  ECLIPA    H67S          -14.6845735712       -5.3060115319        3.3742541565  LPSA2     1               0.0000000000
      1276        37  ECLIPA    C68           -12.5812117082       -4.9846445005        3.5215793542  LPSA2     1               0.0000000000
      1277        37  ECLIPA    H68R          -12.1657418934       -5.9295212049        3.1081343774  LPSA2     1               0.0000000000
      1278        37  ECLIPA    H68S          -11.8842150203       -4.5737374223        4.2860267155  LPSA2     1               0.0000000000
      1279        37  ECLIPA    C69           -12.7358783633       -4.0819960938        2.3408026719  LPSA2     1               0.0000000000
      1280        37  ECLIPA    H69R          -13.4385934173       -3.2564561203        2.4923551359  LPSA2     1               0.0000000000
      1281        37  ECLIPA    H69S          -13.0594654164       -4.6928330964        1.4706406024  LPSA2     1               0.0000000000
      1282        37  ECLIPA    C610          -11.4613355951       -3.4405751951        2.0591384118  LPSA2     1               0.0000000000
      1283        37  ECLIPA    H610R         -10.7219005816       -4.2574163007        2.1377091552  LPSA2     1               0.0000000000
      1284        37  ECLIPA    H610S         -11.1925992981       -2.5905858496        2.7379373787  LPSA2     1               0.0000000000
      1285        37  ECLIPA    C611          -11.5308379024       -2.8673658301        0.6880149397  LPSA2     1               0.0000000000
      1286        37  ECLIPA    H611R         -12.4444492926       -2.2852298995        0.7796884667  LPSA2     1               0.0000000000
      1287        37  ECLIPA    H611S         -10.7779655607       -2.1215437559        0.5876701325  LPSA2     1               0.0000000000
      1288        37  ECLIPA    C612          -11.3805746160       -3.7814950441       -0.5232127655  LPSA2     1               0.0000000000
      1289        37  ECLIPA    H612R         -10.4330522455       -4.3108962810       -0.6462275348  LPSA2     1               0.0000000000
      1290        37  ECLIPA    H612S         -12.0553181498       -4.5018094093       -0.1708782549  LPSA2     1               0.0000000000
      1291        37  ECLIPA    H612T         -11.6902920101       -3.4359129581       -1.5295177958  LPSA2     1               0.0000000000
      1292        37  ECLIPA    C54            -9.0212892550       -8.7795186706       11.1702740148  LPSA2     1               0.0000000000
      1293        37  ECLIPA    H54R           -9.6736858218       -9.6320580474       10.8824737000  LPSA2     1               0.0000000000
      1294        37  ECLIPA    H54S           -8.3444605714       -9.1287338910       11.9776260743  LPSA2     1               0.0000000000
      1295        37  ECLIPA    C55            -8.1504076649       -8.3795264043        9.9636733324  LPSA2     1               0.0000000000
      1296        37  ECLIPA    H55R           -7.3389403236       -9.1248797296        9.8238989910  LPSA2     1               0.0000000000
      1297        37  ECLIPA    H55S           -7.6382348881       -7.4215084471       10.2014315899  LPSA2     1               0.0000000000
      1298        37  ECLIPA    C56            -9.0048611791       -8.3427303451        8.6898788338  LPSA2     1               0.0000000000
      1299        37  ECLIPA    H56R           -9.8482513008       -7.6479352625        8.8601640225  LPSA2     1               0.0000000000
      1300        37  ECLIPA    H56S           -9.4395197458       -9.3518297938        8.5049510347  LPSA2     1               0.0000000000
      1301        37  ECLIPA    C57            -8.3489539304       -7.8472951192        7.4035860337  LPSA2     1               0.0000000000
      1302        37  ECLIPA    H57R           -7.4158705721       -8.4074537997        7.1810459678  LPSA2     1               0.0000000000
      1303        37  ECLIPA    H57S           -8.0625243616       -6.7798114540        7.5435634438  LPSA2     1               0.0000000000
      1304        37  ECLIPA    C58            -9.3612811650       -7.9415731901        6.2401307597  LPSA2     1               0.0000000000
      1305        37  ECLIPA    H58R           -9.8621987789       -8.9318572594        6.2161817702  LPSA2     1               0.0000000000
      1306        37  ECLIPA    H58S          -10.1695472535       -7.2061394613        6.4601207711  LPSA2     1               0.0000000000
      1307        37  ECLIPA    C59            -8.7045562030       -7.6876669592        4.8680038508  LPSA2     1               0.0000000000
      1308        37  ECLIPA    H59R           -7.8661988129       -8.4064031841        4.7170181294  LPSA2     1               0.0000000000
      1309        37  ECLIPA    H59S           -8.2609519613       -6.6723103150        4.9591786701  LPSA2     1               0.0000000000
      1310        37  ECLIPA    C510           -9.6373990964       -7.8785394415        3.6398255007  LPSA2     1               0.0000000000
      1311        37  ECLIPA    H510R         -10.6170120257       -7.3887953419        3.8214044072  LPSA2     1               0.0000000000
      1312        37  ECLIPA    H510S          -9.8189251126       -8.9696951865        3.5160949792  LPSA2     1               0.0000000000
      1313        37  ECLIPA    C511           -9.0968749062       -7.3654316105        2.2856211098  LPSA2     1               0.0000000000
      1314        37  ECLIPA    H511R          -9.2388101954       -6.2666759923        2.2698271964  LPSA2     1               0.0000000000
      1315        37  ECLIPA    H511S          -8.0046629231       -7.5752513317        2.2106806132  LPSA2     1               0.0000000000
      1316        37  ECLIPA    C512           -9.7906090701       -7.9382266328        1.0298175617  LPSA2     1               0.0000000000
      1317        37  ECLIPA    H512R          -9.1545372065       -7.7525583872        0.1308105455  LPSA2     1               0.0000000000
      1318        37  ECLIPA    H512S          -9.9193204101       -9.0396531402        1.1179336997  LPSA2     1               0.0000000000
      1319        37  ECLIPA    C513          -11.1275064711       -7.2986262389        0.6578673916  LPSA2     1               0.0000000000
      1320        37  ECLIPA    H513R         -11.0031873792       -6.1985988671        0.5188898668  LPSA2     1               0.0000000000
      1321        37  ECLIPA    H513S         -11.8839228881       -7.4107121505        1.4621931759  LPSA2     1               0.0000000000
      1322        37  ECLIPA    C514          -11.6449020965       -7.9438019018       -0.6328995738  LPSA2     1               0.0000000000
      1323        37  ECLIPA    H514R         -11.6620287788       -9.0365590213       -0.6235568093  LPSA2     1               0.0000000000
      1324        37  ECLIPA    H514S         -12.7292656862       -7.7845001490       -0.7320726339  LPSA2     1               0.0000000000
      1325        37  ECLIPA    H514T         -11.1102728236       -7.5222938276       -1.5220279269  LPSA2     1               0.0000000000
      1326        37  ECLIPA    C33           -13.8137308146       -4.8591052935       14.4627618430  LPSA2     1               0.0000000000
      1327        37  ECLIPA    H33R          -14.8631048259       -4.8862902623       14.8587873465  LPSA2     1               0.0000000000
      1328        37  ECLIPA    O33           -13.0119541835       -5.4916028294       15.4443730271  LPSA2     1               0.0000000000
      1329        37  ECLIPA    HO33          -13.2414689791       -5.2461834478       16.3487584327  LPSA2     1               0.0000000000
      1330        37  ECLIPA    C34           -13.7568750190       -5.6950850245       13.1896331782  LPSA2     1               0.0000000000
      1331        37  ECLIPA    H34R          -12.7316017483       -5.7656871157       12.7840514657  LPSA2     1               0.0000000000
      1332        37  ECLIPA    H34S          -14.4379568925       -5.3005951604       12.3974977614  LPSA2     1               0.0000000000
      1333        37  ECLIPA    C35           -14.0750820992       -7.1143434193       13.5340717807  LPSA2     1               0.0000000000
      1334        37  ECLIPA    H35R          -15.1084175661       -7.0948358257       13.9140854320  LPSA2     1               0.0000000000
      1335        37  ECLIPA    H35S          -13.5228598358       -7.5557722188       14.3670799497  LPSA2     1               0.0000000000
      1336        37  ECLIPA    C36           -13.8527699920       -8.0616937169       12.3921724101  LPSA2     1               0.0000000000
      1337        37  ECLIPA    H36R          -13.2300532444       -7.6676640699       11.5951794633  LPSA2     1               0.0000000000
      1338        37  ECLIPA    H36S          -14.8627877148       -7.9345654604       12.1448319666  LPSA2     1               0.0000000000
      1339        37  ECLIPA    C37           -13.6992257636       -9.5512613406       12.6072233131  LPSA2     1               0.0000000000
      1340        37  ECLIPA    H37R          -14.6718539967      -10.1077031192       12.5024346793  LPSA2     1               0.0000000000
      1341        37  ECLIPA    H37S          -13.2863381679       -9.7763554342       13.5985100479  LPSA2     1               0.0000000000
      1342        37  ECLIPA    C38           -12.9484620851      -10.2572133693       11.5788314013  LPSA2     1               0.0000000000
      1343        37  ECLIPA    H38R          -11.8697747292      -10.1298042228       11.4945840201  LPSA2     1               0.0000000000
      1344        37  ECLIPA    H38S          -13.2900168536      -11.2336207974       11.9343633171  LPSA2     1               0.0000000000
      1345        37  ECLIPA    C39           -13.5189076978      -10.0087377987       10.2745190496  LPSA2     1               0.0000000000
      1346        37  ECLIPA    H39R          -13.5385773553       -8.9409614415       10.1837887159  LPSA2     1               0.0000000000
      1347        37  ECLIPA    H39S          -14.5111497759      -10.5909112863       10.3668319940  LPSA2     1               0.0000000000
      1348        37  ECLIPA    C310          -12.6598449029      -10.3396298603        9.0722327412  LPSA2     1               0.0000000000
      1349        37  ECLIPA    H310R         -13.1270527279      -11.2344166508        9.4326890111  LPSA2     1               0.0000000000
      1350        37  ECLIPA    H310S         -11.6005884801      -10.2688658403        9.1740792243  LPSA2     1               0.0000000000
      1351        37  ECLIPA    C311          -12.7207388295       -9.9376005083        7.5813891461  LPSA2     1               0.0000000000
      1352        37  ECLIPA    H311R         -13.6350744063      -10.4801300478        7.8099732742  LPSA2     1               0.0000000000
      1353        37  ECLIPA    H311S         -12.6436945931       -8.8783331299        7.4253411094  LPSA2     1               0.0000000000
      1354        37  ECLIPA    C312          -12.9413963329      -10.5084123073        6.1416374352  LPSA2     1               0.0000000000
      1355        37  ECLIPA    H312R         -11.8818616505      -10.7399792695        6.2690946229  LPSA2     1               0.0000000000
      1356        37  ECLIPA    H312S         -13.7620333679      -11.3236693856        6.0730310043  LPSA2     1               0.0000000000
      1357        37  ECLIPA    C313          -12.8015771474       -9.7174069784        4.8667121906  LPSA2     1               0.0000000000
      1358        37  ECLIPA    H313R         -13.8431792371       -9.8938428328        4.6908627092  LPSA2     1               0.0000000000
      1359        37  ECLIPA    H313S         -12.2661714532       -8.8575628178        5.2559408491  LPSA2     1               0.0000000000
      1360        37  ECLIPA    C314          -12.1327022389      -10.1706677444        3.6085951951  LPSA2     1               0.0000000000
      1361        37  ECLIPA    H314R         -13.0437410497      -10.6500379987        3.1297006554  LPSA2     1               0.0000000000
      1362        37  ECLIPA    H314S         -12.1077171925       -9.9752378925        2.5452893456  LPSA2     1               0.0000000000
      1363        37  ECLIPA    H314T         -11.2809352629      -10.7843722896        3.9925768155  LPSA2     1               0.0000000000
      1364        37  ECLIPA    C11            -8.1499561531       -3.4769459770       11.2545122756  LPSA2     1               0.0000000000
      1365        37  ECLIPA    O11            -7.7116662765       -4.6088815456       11.0938201637  LPSA2     1               0.0000000000
      1366        37  ECLIPA    C12            -7.7295176520       -2.3648611781       10.3274098447  LPSA2     1               0.0000000000
      1367        37  ECLIPA    H12R           -6.6860799303       -2.0722085882       10.5537715167  LPSA2     1               0.0000000000
      1368        37  ECLIPA    H12S           -8.4025461800       -1.5014416088       10.5150667261  LPSA2     1               0.0000000000
      1369        37  ECLIPA    C13            -7.8529568320       -2.7486878914        8.8572444425  LPSA2     1               0.0000000000
      1370        37  ECLIPA    H13R           -7.4738280822       -3.7764072285        8.6443525642  LPSA2     1               0.0000000000
      1371        37  ECLIPA    O13            -7.0530228041       -1.8297215738        8.1210414775  LPSA2     1               0.0000000000
      1372        37  ECLIPA    HO13           -6.7173304137       -2.1691983229        7.2886107957  LPSA2     1               0.0000000000
      1373        37  ECLIPA    C14            -9.3375314801       -2.6578028941        8.4506517875  LPSA2     1               0.0000000000
      1374        37  ECLIPA    H14R           -9.8300519810       -1.8067296124        8.9707429027  LPSA2     1               0.0000000000
      1375        37  ECLIPA    H14S           -9.8087135387       -3.6077396666        8.7833677002  LPSA2     1               0.0000000000
      1376        37  ECLIPA    C15            -9.6218074209       -2.5216646867        6.9666296148  LPSA2     1               0.0000000000
      1377        37  ECLIPA    H15R           -9.0740555346       -1.6325826884        6.5823419904  LPSA2     1               0.0000000000
      1378        37  ECLIPA    H15S          -10.7063112390       -2.3165089344        6.8319766935  LPSA2     1               0.0000000000
      1379        37  ECLIPA    C16            -9.2278331801       -3.7950495240        6.2261078788  LPSA2     1               0.0000000000
      1380        37  ECLIPA    H16R          -10.0107938708       -4.5758360088        6.2970212738  LPSA2     1               0.0000000000
      1381        37  ECLIPA    H16S           -8.3093304959       -4.2328462218        6.6751161609  LPSA2     1               0.0000000000
      1382        37  ECLIPA    C17            -8.9449487997       -3.4714253228        4.7771223586  LPSA2     1               0.0000000000
      1383        37  ECLIPA    H17R           -9.7696986582       -2.8027924374        4.4196146979  LPSA2     1               0.0000000000
      1384        37  ECLIPA    H17S           -9.0374235489       -4.4128447219        4.1942496163  LPSA2     1               0.0000000000
      1385        37  ECLIPA    C18            -7.5240575101       -2.8374872822        4.6999853490  LPSA2     1               0.0000000000
      1386        37  ECLIPA    H18R           -7.6054423593       -1.8603328164        5.2535291724  LPSA2     1               0.0000000000
      1387        37  ECLIPA    H18S           -6.7404020284       -3.5157925887        5.0422922702  LPSA2     1               0.0000000000
      1388        37  ECLIPA    C19            -6.8902374029       -2.5193566541        3.3566032770  LPSA2     1               0.0000000000
      1389        37  ECLIPA    H19R           -6.2694287947       -1.6262429424        3.1778814020  LPSA2     1               0.0000000000
      1390        37  ECLIPA    H19S           -7.8448545274       -1.9489721499        3.3022667617  LPSA2     1               0.0000000000
      1391        37  ECLIPA    C110           -6.4616359890       -3.7096884303        2.3597790251  LPSA2     1               0.0000000000
      1392        37  ECLIPA    H110R          -5.8145839453       -4.4924499473        2.6396782653  LPSA2     1               0.0000000000
      1393        37  ECLIPA    H110S          -7.2172011245       -4.5465652561        2.4155758519  LPSA2     1               0.0000000000
      1394        37  ECLIPA    C111           -6.1278726808       -3.3091465666        0.8324556992  LPSA2     1               0.0000000000
      1395        37  ECLIPA    H111R          -6.7834557743       -2.5979461379        0.4204026182  LPSA2     1               0.0000000000
      1396        37  ECLIPA    H111S          -5.3819123418       -2.5169558164        0.7899389049  LPSA2     1               0.0000000000
      1397        37  ECLIPA    C112           -6.5697580662       -4.3102372214       -0.3294105794  LPSA2     1               0.0000000000
      1398        37  ECLIPA    H112R          -5.8688155808       -5.0455300889        0.0008464441  LPSA2     1               0.0000000000
      1399        37  ECLIPA    H112S          -7.5470437829       -4.8643840995       -0.3249645093  LPSA2     1               0.0000000000
      1400        37  ECLIPA    C113           -6.7180824737       -3.8065277566       -1.7700035812  LPSA2     1               0.0000000000
      1401        37  ECLIPA    H113R          -7.7810840756       -3.5929613617       -2.0563384036  LPSA2     1               0.0000000000
      1402        37  ECLIPA    H113S          -6.0236962592       -2.9449330304       -1.8876030653  LPSA2     1               0.0000000000
      1403        37  ECLIPA    C114           -6.5478622240       -4.7351502493       -2.8735356059  LPSA2     1               0.0000000000
      1404        37  ECLIPA    H114R          -5.5291039597       -4.8639924877       -2.6161572099  LPSA2     1               0.0000000000
      1405        37  ECLIPA    H114S          -7.2447343315       -5.5840423278       -2.9596687158  LPSA2     1               0.0000000000
      1406        37  ECLIPA    H114T          -6.3709659705       -4.3530086302       -3.8620792522  LPSA2     1               0.0000000000
      1407        38  AKDO      C1            -10.4789368634       -9.1282675257       22.4144547757  LPSA2     2               0.0000000000
      1408        38  AKDO      O11           -10.4450794561      -10.3829151354       22.4092533596  LPSA2     2               0.0000000000
      1409        38  AKDO      O12           -11.4367697005       -8.3827265798       22.0624084415  LPSA2     2               0.0000000000
      1410        38  AKDO      C2             -9.1988512657       -8.3919947350       22.8749644658  LPSA2     2               0.0000000000
      1411        38  AKDO      C6             -7.0349565531       -8.7153243232       23.8600319880  LPSA2     2               0.0000000000
      1412        38  AKDO      H6             -6.6512493577       -8.1896206883       22.9500241175  LPSA2     2               0.0000000000
      1413        38  AKDO      O6             -8.2623472720       -9.3333529098       23.4567639233  LPSA2     2               0.0000000000
      1414        38  AKDO      C3             -9.4788718919       -7.3147111352       23.9257902242  LPSA2     2               0.0000000000
      1415        38  AKDO      H31           -10.0302451981       -7.7591010342       24.7853218860  LPSA2     2               0.0000000000
      1416        38  AKDO      H32           -10.1295041495       -6.5440193441       23.4542843636  LPSA2     2               0.0000000000
      1417        38  AKDO      C4             -8.2161310859       -6.6529139892       24.3744414446  LPSA2     2               0.0000000000
      1418        38  AKDO      H4             -7.6932427917       -6.2382639252       23.4813727290  LPSA2     2               0.0000000000
      1419        38  AKDO      O4             -8.4487371475       -5.6470970999       25.3682422162  LPSA2     2               0.0000000000
      1420        38  AKDO      C5             -7.2642367372       -7.6637786955       24.9635065892  LPSA2     2               0.0000000000
      1421        38  AKDO      H5             -6.2795332617       -7.1464264370       25.0878666826  LPSA2     2               0.0000000000
      1422        38  AKDO      O5             -7.8059370641       -8.0963141664       26.2526624163  LPSA2     2               0.0000000000
      1423        38  AKDO      C7             -5.9804840510       -9.7664602660       24.1650213889  LPSA2     2               0.0000000000
      1424        38  AKDO      H7             -6.2796303447      -10.3155197259       25.0806704741  LPSA2     2               0.0000000000
      1425        38  AKDO      O7             -4.7047761230       -9.1300969648       24.3530745384  LPSA2     2               0.0000000000
      1426        38  AKDO      HO7            -4.3249948830       -9.0348657340       23.4869244419  LPSA2     2               0.0000000000
      1427        38  AKDO      C8             -5.8723059159      -10.7582110239       23.0172150712  LPSA2     2               0.0000000000
      1428        38  AKDO      H81            -6.8831994934      -11.2054037254       22.8579758529  LPSA2     2               0.0000000000
      1429        38  AKDO      H82            -5.6035528817      -10.2133264994       22.0881268036  LPSA2     2               0.0000000000
      1430        38  AKDO      O8             -4.8909928068      -11.7926022245       23.2523074433  LPSA2     2               0.0000000000
      1431        38  AKDO      HO8            -5.2542789958      -12.6046577152       22.8758514395  LPSA2     2               0.0000000000
      1432        39  AKDO      C1             -8.0927588300       -3.8347255449       23.7944777501  LPSA2     3               1.0000000000
      1433        39  AKDO      O11            -8.6526455148       -3.8795288164       22.6612322785  LPSA2     3               1.0000000000
      1434        39  AKDO      O12            -6.9165185282       -3.4658527801       24.0817381566  LPSA2     3               1.0000000000
      1435        39  AKDO      C2             -8.9107315325       -4.3621507255       25.0105560392  LPSA2     3               1.0000000000
      1436        39  AKDO      C6            -11.1532437164       -4.8686902110       25.7858108782  LPSA2     3               1.0000000000
      1437        39  AKDO      H6            -10.8699569027       -5.9340560214       25.9774176480  LPSA2     3               1.0000000000
      1438        39  AKDO      O6            -10.3280678471       -4.3315889210       24.7241945067  LPSA2     3               1.0000000000
      1439        39  AKDO      C3             -8.6985975770       -3.5695752926       26.3234004304  LPSA2     3               1.0000000000
      1440        39  AKDO      H31            -8.9822079960       -2.5047122199       26.1492813015  LPSA2     3               1.0000000000
      1441        39  AKDO      H32            -7.6225563002       -3.5627188622       26.5949788475  LPSA2     3               1.0000000000
      1442        39  AKDO      C4             -9.5234141103       -4.1775698799       27.4242919721  LPSA2     3               1.0000000000
      1443        39  AKDO      H4             -9.2875769973       -5.2677085478       27.4804013953  LPSA2     3               1.0000000000
      1444        39  AKDO      O4             -9.2720274855       -3.6300010865       28.7047940392  LPSA2     3               1.0000000000
      1445        39  AKDO      HO4            -9.0037169060       -4.3060872273       29.3545757335  LPSA2     3               1.0000000000
      1446        39  AKDO      C5            -10.9685776859       -4.0611090023       27.0496847410  LPSA2     3               1.0000000000
      1447        39  AKDO      H5            -11.5662036802       -4.4948237916       27.8837665194  LPSA2     3               1.0000000000
      1448        39  AKDO      O5            -11.3871206659       -2.7074946542       26.8463923097  LPSA2     3               1.0000000000
      1449        39  AKDO      HO5           -10.7700528828       -2.3431418381       26.2036164504  LPSA2     3               1.0000000000
      1450        39  AKDO      C7            -12.5931089270       -4.8595219370       25.3577947973  LPSA2     3               1.0000000000
      1451        39  AKDO      H7            -12.9019617907       -3.8133822787       25.1230939347  LPSA2     3               1.0000000000
      1452        39  AKDO      O7            -13.4319029727       -5.3435571104       26.4166109907  LPSA2     3               1.0000000000
      1453        39  AKDO      HO7           -14.3286719686       -5.2247175716       26.0885176682  LPSA2     3               1.0000000000
      1454        39  AKDO      C8            -12.7413059917       -5.7083463026       24.1314078571  LPSA2     3               1.0000000000
      1455        39  AKDO      H81           -12.0290329252       -5.4076470950       23.3457729240  LPSA2     3               1.0000000000
      1456        39  AKDO      H82           -12.4893496474       -6.7455130054       24.3347325517  LPSA2     3               1.0000000000
      1457        39  AKDO      O8            -14.0675679002       -5.5965157282       23.6321420841  LPSA2     3               1.0000000000
      1458        39  AKDO      HO8           -14.0485556414       -4.7631784316       23.1430334432  LPSA2     3               1.0000000000
      1459        40  AHEP      C1             -6.8605116416       -8.4441367228       27.2501600600  LPSA2     4               2.0000000000
      1460        40  AHEP      H1             -6.4823878985       -9.4317447769       26.9097382645  LPSA2     4               2.0000000000
      1461        40  AHEP      C5             -5.9187221179       -6.3456366329       28.0002976244  LPSA2     4               2.0000000000
      1462        40  AHEP      H5             -6.8041052989       -5.8648457167       27.5190452786  LPSA2     4               2.0000000000
      1463        40  AHEP      O5             -5.6966116854       -7.6013929935       27.3187316464  LPSA2     4               2.0000000000
      1464        40  AHEP      C2             -7.3158914015       -8.7013599416       28.6994295090  LPSA2     4               2.0000000000
      1465        40  AHEP      H2             -8.2459374499       -9.3043230378       28.6754014492  LPSA2     4               2.0000000000
      1466        40  AHEP      O2             -6.3554886654       -9.5041049951       29.3595074657  LPSA2     4               2.0000000000
      1467        40  AHEP      HO2            -6.7635073059      -10.1752690210       29.8904459173  LPSA2     4               2.0000000000
      1468        40  AHEP      C3             -7.5914183897       -7.4404341866       29.4932401546  LPSA2     4               2.0000000000
      1469        40  AHEP      H3             -8.4636274773       -6.8766460404       29.0957586755  LPSA2     4               2.0000000000
      1470        40  AHEP      O3             -7.8221501570       -7.7766053342       30.8819185574  LPSA2     4               2.0000000000
      1471        40  AHEP      C4             -6.3239743754       -6.6093197715       29.4553445135  LPSA2     4               2.0000000000
      1472        40  AHEP      H4             -5.4651056483       -7.0997783219       29.9691853358  LPSA2     4               2.0000000000
      1473        40  AHEP      O4             -6.6737617034       -5.3801859336       30.0680557626  LPSA2     4               2.0000000000
      1474        40  AHEP      P4             -5.9721984343       -4.8783699264       31.4860384963  LPSA2     4               2.0000000000
      1475        40  AHEP      OP42           -7.0826810754       -4.0739206578       32.1498240705  LPSA2     4               2.0000000000
      1476        40  AHEP      OP43           -4.7644904629       -4.0716821580       31.0179162594  LPSA2     4               2.0000000000
      1477        40  AHEP      OP44           -5.6049707403       -6.1216917790       32.3092181706  LPSA2     4               2.0000000000
      1478        40  AHEP      C6             -4.6703607760       -5.4349325618       27.7921069644  LPSA2     4               2.0000000000
      1479        40  AHEP      H6             -5.0116033904       -4.4067587671       28.0811308167  LPSA2     4               2.0000000000
      1480        40  AHEP      O6             -3.4970448143       -5.7289916331       28.5928044027  LPSA2     4               2.0000000000
      1481        40  AHEP      HO6            -3.4473741041       -5.0815076405       29.3338457624  LPSA2     4               2.0000000000
      1482        40  AHEP      C7             -4.1697331132       -5.3788602705       26.3322771930  LPSA2     4               2.0000000000
      1483        40  AHEP      H71            -3.4856908540       -4.5137451366       26.2026198254  LPSA2     4               2.0000000000
      1484        40  AHEP      H72            -5.0365084856       -5.2412522321       25.6530118449  LPSA2     4               2.0000000000
      1485        40  AHEP      O7             -3.4286104959       -6.5226857230       25.8600355671  LPSA2     4               2.0000000000
      1486        40  AHEP      HO7            -2.6645056600       -6.5476163387       26.4304830102  LPSA2     4               2.0000000000
      1487        41  AHEP      C1             -9.0462172568       -7.3931692562       31.4557999281  LPSA2     5               3.0000000000
      1488        41  AHEP      H1             -9.4468420683       -6.4624970719       30.9783675772  LPSA2     5               3.0000000000
      1489        41  AHEP      C5             -9.5639544469       -9.6629658327       31.9501329472  LPSA2     5               3.0000000000
      1490        41  AHEP      H5             -8.5498939910       -9.9122775002       31.5929816235  LPSA2     5               3.0000000000
      1491        41  AHEP      O5             -9.9847396090       -8.4554171796       31.2679246332  LPSA2     5               3.0000000000
      1492        41  AHEP      C2             -8.9015070188       -7.1189139557       32.9592381453  LPSA2     5               3.0000000000
      1493        41  AHEP      H2             -8.1039133073       -6.3489388198       33.0822214859  LPSA2     5               3.0000000000
      1494        41  AHEP      O2            -10.1164981547       -6.5520392212       33.4774740538  LPSA2     5               3.0000000000
      1495        41  AHEP      HO2            -9.9989002023       -5.6118235049       33.6188114799  LPSA2     5               3.0000000000
      1496        41  AHEP      C3             -8.4635742953       -8.3665947102       33.7319558971  LPSA2     5               3.0000000000
      1497        41  AHEP      H3             -7.4812803047       -8.6995219523       33.3165510078  LPSA2     5               3.0000000000
      1498        41  AHEP      O3             -8.3383772539       -8.1882422943       35.1636561794  LPSA2     5               3.0000000000
      1499        41  AHEP      C4             -9.4846927730       -9.4457496410       33.4671775095  LPSA2     5               3.0000000000
      1500        41  AHEP      H4            -10.4950158667       -9.1327334873       33.8418853082  LPSA2     5               3.0000000000
      1501        41  AHEP      O4             -9.0204074689      -10.6574498117       34.0771788872  LPSA2     5               3.0000000000
      1502        41  AHEP      P4             -9.8643806628      -11.3497213614       35.3348593316  LPSA2     5               3.0000000000
      1503        41  AHEP      OP42           -8.9236372047      -12.4133329114       35.9047488302  LPSA2     5               3.0000000000
      1504        41  AHEP      OP43          -11.0251683004      -12.0007100795       34.6223173691  LPSA2     5               3.0000000000
      1505        41  AHEP      OP44          -10.1067571534      -10.2255225937       36.3458397885  LPSA2     5               3.0000000000
      1506        41  AHEP      C6            -10.4603868946      -10.8043871285       31.5490525157  LPSA2     5               3.0000000000
      1507        41  AHEP      H6            -10.1340035518      -11.7500073569       32.0558772484  LPSA2     5               3.0000000000
      1508        41  AHEP      O6            -11.7284956067      -10.4329877590       32.0473396730  LPSA2     5               3.0000000000
      1509        41  AHEP      HO6           -12.3522359289       -9.9819642074       31.5058840512  LPSA2     5               3.0000000000
      1510        41  AHEP      C7            -10.4658987490      -11.0790795179       30.0588163441  LPSA2     5               3.0000000000
      1511        41  AHEP      H71           -10.5495061169      -12.1877622390       29.9349296010  LPSA2     5               3.0000000000
      1512        41  AHEP      H72            -9.4984623607      -10.7909284868       29.5995389733  LPSA2     5               3.0000000000
      1513        41  AHEP      O7            -11.5966797396      -10.5019327270       29.3964439083  LPSA2     5               3.0000000000
      1514        42  AHEP      C1            -11.3548725205       -9.2413916425       28.8441499095  LPSA2     6               4.0000000000
      1515        42  AHEP      H1            -10.3292803977       -8.9058915177       29.0583690406  LPSA2     6               4.0000000000
      1516        42  AHEP      C5            -12.6587863210       -9.7038640065       27.0165730909  LPSA2     6               4.0000000000
      1517        42  AHEP      H5            -12.9752566054      -10.6363871845       27.5441507054  LPSA2     6               4.0000000000
      1518        42  AHEP      O5            -11.3642404830       -9.3786891974       27.4584429026  LPSA2     6               4.0000000000
      1519        42  AHEP      C2            -12.3771624818       -8.1654653221       29.2382970824  LPSA2     6               4.0000000000
      1520        42  AHEP      H2            -12.3096053046       -8.1330215129       30.3518786318  LPSA2     6               4.0000000000
      1521        42  AHEP      O2            -11.9667120598       -6.9196091491       28.7421012235  LPSA2     6               4.0000000000
      1522        42  AHEP      HO2           -11.6966572959       -6.3944864723       29.4912628466  LPSA2     6               4.0000000000
      1523        42  AHEP      C3            -13.7833793904       -8.5085594203       28.7627183983  LPSA2     6               4.0000000000
      1524        42  AHEP      H3            -14.1739309113       -9.3970576880       29.0711913300  LPSA2     6               4.0000000000
      1525        42  AHEP      O3            -14.8155137016       -7.6223268822       29.2301059078  LPSA2     6               4.0000000000
      1526        42  AHEP      HO3           -15.2553488250       -7.9804688498       30.0111846602  LPSA2     6               4.0000000000
      1527        42  AHEP      C4            -13.7789344012       -8.7035265907       27.2880161970  LPSA2     6               4.0000000000
      1528        42  AHEP      H4            -13.6516162963       -7.7908716727       26.7056239489  LPSA2     6               4.0000000000
      1529        42  AHEP      O4            -15.0338093743       -9.3618881761       26.9495363083  LPSA2     6               4.0000000000
      1530        42  AHEP      HO4           -15.0810782661      -10.2930945013       27.2088569068  LPSA2     6               4.0000000000
      1531        42  AHEP      C6            -12.2252546039       -9.8118861613       25.5461634369  LPSA2     6               4.0000000000
      1532        42  AHEP      H6            -13.3067951621       -9.8828887693       25.3753032279  LPSA2     6               4.0000000000
      1533        42  AHEP      O6            -12.4861007676       -8.9124231900       24.5396868258  LPSA2     6               4.0000000000
      1534        42  AHEP      HO6           -11.9945102979       -9.2492574950       23.7709681252  LPSA2     6               4.0000000000
      1535        42  AHEP      C7            -11.1859032158      -10.9583527193       25.1573822404  LPSA2     6               4.0000000000
      1536        42  AHEP      H71           -11.3362492970      -11.5439204071       24.2002810646  LPSA2     6               4.0000000000
      1537        42  AHEP      H72           -11.2315697163      -11.6951273833       25.9726405074  LPSA2     6               4.0000000000
      1538        42  AHEP      O7             -9.8270587277      -10.7962357197       25.3527658387  LPSA2     6               4.0000000000
      1539        42  AHEP      HO7            -9.8918909072      -11.0413971920       26.2647704313  LPSA2     6               4.0000000000
      1540        43  AGLC      C1             -7.0677232156       -7.8652777394       35.6562433314  LPSA2     7               4.0000000000
      1541        43  AGLC      H1             -6.2830516209       -8.4714187916       35.1558798405  LPSA2     7               4.0000000000
      1542        43  AGLC      C5             -7.7552224565       -5.6116923162       36.0908347551  LPSA2     7               4.0000000000
      1543        43  AGLC      H5             -8.7969304016       -5.8920054236       35.8114575977  LPSA2     7               4.0000000000
      1544        43  AGLC      O5             -6.8155289820       -6.4848439678       35.4325112183  LPSA2     7               4.0000000000
      1545        43  AGLC      C2             -6.9058199396       -8.0470451252       37.1691753046  LPSA2     7               4.0000000000
      1546        43  AGLC      H2             -5.9169468701       -7.6098501599       37.4341742946  LPSA2     7               4.0000000000
      1547        43  AGLC      O2             -6.8318719565       -9.4062644145       37.5743972615  LPSA2     7               4.0000000000
      1548        43  AGLC      HO2            -7.7351241120       -9.7895871271       37.5349300872  LPSA2     7               4.0000000000
      1549        43  AGLC      C3             -7.9061015225       -7.2508982383       37.9670585155  LPSA2     7               4.0000000000
      1550        43  AGLC      H3             -8.9204977500       -7.5276232939       37.6040722648  LPSA2     7               4.0000000000
      1551        43  AGLC      O3             -7.8348165877       -7.5330959515       39.3927724247  LPSA2     7               4.0000000000
      1552        43  AGLC      C4             -7.6385515995       -5.7914253045       37.6052440639  LPSA2     7               4.0000000000
      1553        43  AGLC      H4             -6.5989306757       -5.5117388491       37.9260828760  LPSA2     7               4.0000000000
      1554        43  AGLC      O4             -8.5951923195       -4.9469057314       38.2370575979  LPSA2     7               4.0000000000
      1555        43  AGLC      HO4            -8.1491777003       -4.2209627490       38.6910006525  LPSA2     7               4.0000000000
      1556        43  AGLC      C6             -7.5426765258       -4.2214702561       35.5127203245  LPSA2     7               4.0000000000
      1557        43  AGLC      H61            -7.6923566364       -4.2774778415       34.4062781729  LPSA2     7               4.0000000000
      1558        43  AGLC      H62            -8.2785652633       -3.4719338183       35.8887852898  LPSA2     7               4.0000000000
      1559        43  AGLC      O6             -6.2178356701       -3.7581443027       35.7664566166  LPSA2     7               4.0000000000
      1560        43  AGLC      HO6            -6.2272239544       -3.1645485296       36.5061789083  LPSA2     7               4.0000000000
      1561        44  AGLC      C1             -9.0421600657       -8.0652278065       39.9200307657  LPSA2     8               5.0000000000
      1562        44  AGLC      H1             -9.9045374323       -7.5019256747       39.5105473583  LPSA2     8               5.0000000000
      1563        44  AGLC      C5             -8.3167853539      -10.3921778443       40.2176807596  LPSA2     8               5.0000000000
      1564        44  AGLC      H5             -7.3016699006      -10.0942589054       39.8809271099  LPSA2     8               5.0000000000
      1565        44  AGLC      O5             -9.2440623346       -9.4632024762       39.6028291180  LPSA2     8               5.0000000000
      1566        44  AGLC      C2             -9.1470614103       -7.9215624760       41.4332110711  LPSA2     8               5.0000000000
      1567        44  AGLC      H2            -10.1665900135       -8.2776995752       41.7014679903  LPSA2     8               5.0000000000
      1568        44  AGLC      O2             -9.0290064170       -6.5890495712       41.9511571694  LPSA2     8               5.0000000000
      1569        44  AGLC      C3             -8.1399288271       -8.7921663160       42.1199170706  LPSA2     8               5.0000000000
      1570        44  AGLC      H3             -7.1344616470       -8.4876577104       41.7184063397  LPSA2     8               5.0000000000
      1571        44  AGLC      O3             -8.1672657359       -8.4969967462       43.5329829302  LPSA2     8               5.0000000000
      1572        44  AGLC      C4             -8.4226504109      -10.2229955269       41.7286544221  LPSA2     8               5.0000000000
      1573        44  AGLC      H4             -9.4692059195      -10.4678091573       42.0282908738  LPSA2     8               5.0000000000
      1574        44  AGLC      O4             -7.5493448404      -11.1088022246       42.4101689312  LPSA2     8               5.0000000000
      1575        44  AGLC      HO4            -6.6645073154      -10.7372310014       42.3765189925  LPSA2     8               5.0000000000
      1576        44  AGLC      C6             -8.4656676647      -11.8583916112       39.7469176352  LPSA2     8               5.0000000000
      1577        44  AGLC      H61            -8.5595843293      -11.9193261973       38.6350035280  LPSA2     8               5.0000000000
      1578        44  AGLC      H62            -7.5553402848      -12.4438768970       40.0121885238  LPSA2     8               5.0000000000
      1579        44  AGLC      O6             -9.5528241812      -12.5503510859       40.3625416564  LPSA2     8               5.0000000000
      1580        44  AGLC      HO6            -9.3120210004      -12.8551095042       41.2359143566  LPSA2     8               5.0000000000
      1581        45  AGAL      C1             -9.8931096133       -5.6115248383       41.4420728601  LPSA2     9               6.0000000000
      1582        45  AGAL      H1             -9.8814746622       -5.6380470277       40.3417336663  LPSA2     9               6.0000000000
      1583        45  AGAL      C5            -11.3880506935       -5.6008895741       43.2844400419  LPSA2     9               6.0000000000
      1584        45  AGAL      H5            -10.6334700319       -6.2687643133       43.7533043407  LPSA2     9               6.0000000000
      1585        45  AGAL      O5            -11.2547869186       -5.7822044230       41.8658080463  LPSA2     9               6.0000000000
      1586        45  AGAL      C2             -9.3607286253       -4.2471093852       41.8439038710  LPSA2     9               6.0000000000
      1587        45  AGAL      H2            -10.0430752233       -3.5069583536       41.3695639224  LPSA2     9               6.0000000000
      1588        45  AGAL      O2             -8.0782021848       -4.0852798052       41.1938998107  LPSA2     9               6.0000000000
      1589        45  AGAL      C3             -9.4769451716       -4.0454051256       43.3400306799  LPSA2     9               6.0000000000
      1590        45  AGAL      H3             -8.8738885053       -4.8068704260       43.8881352112  LPSA2     9               6.0000000000
      1591        45  AGAL      O3             -8.9622296113       -2.7811092285       43.7213200527  LPSA2     9               6.0000000000
      1592        45  AGAL      HO3            -8.1309647724       -2.6895921890       43.2400554549  LPSA2     9               6.0000000000
      1593        45  AGAL      C4            -10.9549046957       -4.1965795618       43.6876856411  LPSA2     9               6.0000000000
      1594        45  AGAL      H4            -11.0921709181       -4.1005604501       44.7842740767  LPSA2     9               6.0000000000
      1595        45  AGAL      O4            -11.7575566748       -3.1955666335       43.0714972098  LPSA2     9               6.0000000000
      1596        45  AGAL      HO4           -12.5425078015       -3.0729838596       43.6186373400  LPSA2     9               6.0000000000
      1597        45  AGAL      C6            -12.7283443390       -6.0690583992       43.8484908524  LPSA2     9               6.0000000000
      1598        45  AGAL      H61           -12.8740446070       -7.1368832356       43.5984017106  LPSA2     9               6.0000000000
      1599        45  AGAL      H62           -12.7165767945       -6.0047382478       44.9571635231  LPSA2     9               6.0000000000
      1600        45  AGAL      O6            -13.8698779308       -5.3387062839       43.4068977811  LPSA2     9               6.0000000000
      1601        45  AGAL      HO6           -14.2815399905       -5.8315420195       42.6874599675  LPSA2     9               6.0000000000
      1602        46  AGAL      C1             -6.9222396872       -3.4689530702       41.7485094436  LPSA2     10              7.0000000000
      1603        46  AGAL      H1             -7.1060704055       -2.3745767201       41.8361150185  LPSA2     10              7.0000000000
      1604        46  AGAL      C5             -6.0875316881       -5.3371140738       43.0494660398  LPSA2     10              7.0000000000
      1605        46  AGAL      H5             -6.9600440514       -5.8925641879       42.6480539000  LPSA2     10              7.0000000000
      1606        46  AGAL      O5             -6.5092783160       -3.9510169594       43.0530118338  LPSA2     10              7.0000000000
      1607        46  AGAL      C2             -5.7848810168       -3.6562751708       40.7548617089  LPSA2     10              7.0000000000
      1608        46  AGAL      H2             -4.9050626469       -3.0856965323       41.1222115389  LPSA2     10              7.0000000000
      1609        46  AGAL      O2             -6.0531149985       -3.0618902405       39.4815458604  LPSA2     10              7.0000000000
      1610        46  AGAL      HO2            -5.2122487995       -2.6136202748       39.2490725382  LPSA2     10              7.0000000000
      1611        46  AGAL      C3             -5.4058208626       -5.1369432117       40.7022162773  LPSA2     10              7.0000000000
      1612        46  AGAL      H3             -6.3255631456       -5.7137153210       40.4497560635  LPSA2     10              7.0000000000
      1613        46  AGAL      O3             -4.4313480821       -5.4245793683       39.7039985890  LPSA2     10              7.0000000000
      1614        46  AGAL      HO3            -4.8124016781       -5.9551841717       39.0108037302  LPSA2     10              7.0000000000
      1615        46  AGAL      C4             -4.9476671387       -5.5758857375       42.0790243880  LPSA2     10              7.0000000000
      1616        46  AGAL      H4             -4.7166647908       -6.6667438821       42.0791505528  LPSA2     10              7.0000000000
      1617        46  AGAL      O4             -3.7758537680       -4.8943191598       42.4811624245  LPSA2     10              7.0000000000
      1618        46  AGAL      HO4            -4.0305012505       -3.9901639211       42.6218503303  LPSA2     10              7.0000000000
      1619        46  AGAL      C6             -5.8542306872       -5.9759733429       44.4322093466  LPSA2     10              7.0000000000
      1620        46  AGAL      H61            -6.6974346288       -5.7264459369       45.0987619892  LPSA2     10              7.0000000000
      1621        46  AGAL      H62            -5.8604773238       -7.0813665845       44.2774290765  LPSA2     10              7.0000000000
      1622        46  AGAL      O6             -4.6478252123       -5.6439292010       45.1330739746  LPSA2     10              7.0000000000
      1623        46  AGAL      HO6            -4.8406813005       -5.1109407595       45.9051141171  LPSA2     10              7.0000000000
      1624        47  BGLC      C1             -8.9218448031       -9.2516554551       44.4742910057  LPSA2     11              6.0000000000
      1625        47  BGLC      H1             -8.4362180431      -10.2380848547       44.6209248723  LPSA2     11              6.0000000000
      1626        47  BGLC      C5            -11.1426605667      -10.0358347155       45.0679492336  LPSA2     11              6.0000000000
      1627        47  BGLC      H5            -10.8093558465      -11.0671535222       45.3430755654  LPSA2     11              6.0000000000
      1628        47  BGLC      O5            -10.2991542073       -9.3913113806       44.0843119250  LPSA2     11              6.0000000000
      1629        47  BGLC      C2             -8.8511753175       -8.4708594552       45.7837939856  LPSA2     11              6.0000000000
      1630        47  BGLC      H2             -9.2719445978       -7.4446672412       45.6432258935  LPSA2     11              6.0000000000
      1631        47  BGLC      O2             -7.5015814103       -8.2995762790       46.1691031412  LPSA2     11              6.0000000000
      1632        47  BGLC      HO2            -7.3389894347       -7.3644502112       46.2927821739  LPSA2     11              6.0000000000
      1633        47  BGLC      C3             -9.6408921190       -9.1113897010       46.8980557741  LPSA2     11              6.0000000000
      1634        47  BGLC      H3             -9.2121112291      -10.1022436236       47.1692081729  LPSA2     11              6.0000000000
      1635        47  BGLC      O3             -9.6565893746       -8.2324706653       48.0435478922  LPSA2     11              6.0000000000
      1636        47  BGLC      C4            -11.0589267723       -9.2260713552       46.3965096464  LPSA2     11              6.0000000000
      1637        47  BGLC      H4            -11.4414846523       -8.2029297082       46.1781402563  LPSA2     11              6.0000000000
      1638        47  BGLC      O4            -11.9079593962       -9.7292420243       47.4214684554  LPSA2     11              6.0000000000
      1639        47  BGLC      HO4           -12.0040531022       -9.0707399925       48.1283610198  LPSA2     11              6.0000000000
      1640        47  BGLC      C6            -12.5961834996       -9.9406420413       44.5128705486  LPSA2     11              6.0000000000
      1641        47  BGLC      H61           -13.2111300434      -10.0106364234       45.4088815286  LPSA2     11              6.0000000000
      1642        47  BGLC      H62           -12.7377743679       -9.0122302909       44.0076119224  LPSA2     11              6.0000000000
      1643        47  BGLC      O6            -13.2128578770      -10.6208568570       43.4139730687  LPSA2     11              6.0000000000
      1644        47  BGLC      HO6           -13.2855816487      -11.5850875056       43.6015113699  LPSA2     11              6.0000000000
      1645        48  BGLCNA    C1             -9.2407012120       -8.7063202449       49.3129835892  LPSA2     12              7.0000000000
      1646        48  BGLCNA    H1             -8.1293807120       -8.6839975743       49.3673870587  LPSA2     12              7.0000000000
      1647        48  BGLCNA    C5             -9.2471535923      -10.4995180427       50.8789668573  LPSA2     12              7.0000000000
      1648        48  BGLCNA    H5             -8.1353255060      -10.4847782332       50.9493509640  LPSA2     12              7.0000000000
      1649        48  BGLCNA    O5             -9.6867098592      -10.0265042236       49.5914863305  LPSA2     12              7.0000000000
      1650        48  BGLCNA    C2             -9.8496079104       -7.7723589290       50.3505526361  LPSA2     12              7.0000000000
      1651        48  BGLCNA    H2            -10.9617801461       -7.9350957911       50.2990861642  LPSA2     12              7.0000000000
      1652        48  BGLCNA    N              -9.4953897830       -6.4118191540       50.0526268948  LPSA2     12              7.0000000000
      1653        48  BGLCNA    HN             -8.5224059138       -6.2411699696       49.9521219465  LPSA2     12              7.0000000000
      1654        48  BGLCNA    C             -10.4090079793       -5.4497943667       49.9218209649  LPSA2     12              7.0000000000
      1655        48  BGLCNA    O             -11.5986598961       -5.6508310025       50.0887951441  LPSA2     12              7.0000000000
      1656        48  BGLCNA    CT             -9.9032215454       -4.0803274655       49.5931535453  LPSA2     12              7.0000000000
      1657        48  BGLCNA    HT1           -10.0121890531       -3.3799828933       50.4377449195  LPSA2     12              7.0000000000
      1658        48  BGLCNA    HT2           -10.4655806016       -3.6345566875       48.7781617807  LPSA2     12              7.0000000000
      1659        48  BGLCNA    HT3            -8.8765772356       -4.1400500997       49.2378846680  LPSA2     12              7.0000000000
      1660        48  BGLCNA    C3             -9.4129151824       -8.1375840043       51.7566660386  LPSA2     12              7.0000000000
      1661        48  BGLCNA    H3             -8.3046297036       -8.0536120785       51.8002085438  LPSA2     12              7.0000000000
      1662        48  BGLCNA    O3             -9.9547968984       -7.2416475785       52.7736904538  LPSA2     12              7.0000000000
      1663        48  BGLCNA    C4             -9.8398253279       -9.5797420069       51.9482779232  LPSA2     12              7.0000000000
      1664        48  BGLCNA    H4            -10.9388608598       -9.6528889335       51.8316235953  LPSA2     12              7.0000000000
      1665        48  BGLCNA    O4             -9.5106445683      -10.0219343984       53.2503676522  LPSA2     12              7.0000000000
      1666        48  BGLCNA    HO4            -8.5663720143      -10.1711746425       53.2963730144  LPSA2     12              7.0000000000
      1667        48  BGLCNA    C6             -9.6969219009      -11.9444199588       50.9479451973  LPSA2     12              7.0000000000
      1668        48  BGLCNA    H61            -9.4343557130      -12.4091117462       51.9256061081  LPSA2     12              7.0000000000
      1669        48  BGLCNA    H62           -10.8018601527      -11.9931206546       50.8284850456  LPSA2     12              7.0000000000
      1670        48  BGLCNA    O6             -9.1047093969      -12.7127404332       49.8989311448  LPSA2     12              7.0000000000
      1671        48  BGLCNA    HO6            -8.2408438526      -13.0293950899       50.1803515305  LPSA2     12              7.0000000000
      1672        49  AGAL      C1             -9.0714334428       -6.8995060503       53.8387743526  LPSA2     13              8.0000000000
      1673        49  AGAL      H1             -8.5179575681       -7.8149370851       54.1536903540  LPSA2     13              8.0000000000
      1674        49  AGAL      C5             -8.8505147425       -4.5690470684       53.2671145085  LPSA2     13              8.0000000000
      1675        49  AGAL      H5             -9.6631656994       -4.7975970969       52.5386563695  LPSA2     13              8.0000000000
      1676        49  AGAL      O5             -8.1656892730       -5.8353228312       53.4761795197  LPSA2     13              8.0000000000
      1677        49  AGAL      C2             -9.7727464926       -6.3904587474       55.0974907477  LPSA2     13              8.0000000000
      1678        49  AGAL      H2             -8.9529367869       -6.0957263331       55.7961615612  LPSA2     13              8.0000000000
      1679        49  AGAL      O2            -10.5114421413       -7.4155821689       55.7558963580  LPSA2     13              8.0000000000
      1680        49  AGAL      C3            -10.5419031475       -5.1069640314       54.8829529606  LPSA2     13              8.0000000000
      1681        49  AGAL      H3            -11.2227839120       -5.2414318161       54.0117721335  LPSA2     13              8.0000000000
      1682        49  AGAL      O3            -11.3645222695       -4.7800580992       55.9883267093  LPSA2     13              8.0000000000
      1683        49  AGAL      HO3           -12.1752729038       -4.3413001121       55.7022884953  LPSA2     13              8.0000000000
      1684        49  AGAL      C4             -9.5504793400       -4.0349869734       54.5108809837  LPSA2     13              8.0000000000
      1685        49  AGAL      H4            -10.1129289942       -3.1071599221       54.2328207210  LPSA2     13              8.0000000000
      1686        49  AGAL      O4             -8.6373102396       -3.6971295619       55.5651706634  LPSA2     13              8.0000000000
      1687        49  AGAL      HO4            -8.2714664223       -4.4815023611       55.9749646353  LPSA2     13              8.0000000000
      1688        49  AGAL      C6             -8.0592775259       -3.4933816804       52.5463647350  LPSA2     13              8.0000000000
      1689        49  AGAL      H61            -7.6593499632       -3.9228163879       51.6050541381  LPSA2     13              8.0000000000
      1690        49  AGAL      H62            -8.7547129588       -2.6543719308       52.3101167601  LPSA2     13              8.0000000000
      1691        49  AGAL      O6             -6.9758427814       -2.9378357685       53.2754900113  LPSA2     13              8.0000000000
      1692        49  AGAL      HO6            -7.3112516582       -2.3407459988       53.9741734985  LPSA2     13              8.0000000000
      1693        50  ARHM      C1             -9.9944927124       -7.8232131815       57.0040714649  LPSA2     14              9.0000000000
      1694        50  ARHM      H1             -8.8925562451       -7.7277510387       57.0358347106  LPSA2     14              9.0000000000
      1695        50  ARHM      C5            -11.5601989838       -9.4339638745       57.1730082478  LPSA2     14              9.0000000000
      1696        50  ARHM      H5            -12.0523506642       -9.1359718896       56.2079565695  LPSA2     14              9.0000000000
      1697        50  ARHM      O5            -10.1868217337       -9.1755598125       57.1516552051  LPSA2     14              9.0000000000
      1698        50  ARHM      C2            -10.6848898475       -7.0776598031       58.1170425006  LPSA2     14              9.0000000000
      1699        50  ARHM      H2            -10.5134505717       -6.0017027145       57.9439746776  LPSA2     14              9.0000000000
      1700        50  ARHM      O2            -10.2966901452       -7.4287706860       59.4599071123  LPSA2     14              9.0000000000
      1701        50  ARHM      C3            -12.1562784326       -7.3654094815       58.0800786347  LPSA2     14              9.0000000000
      1702        50  ARHM      H3            -12.5362197071       -7.2005139337       57.0397637109  LPSA2     14              9.0000000000
      1703        50  ARHM      O3            -12.9110224871       -6.4830068292       58.8884053539  LPSA2     14              9.0000000000
      1704        50  ARHM      HO3           -12.8151265908       -6.7426754705       59.8087059580  LPSA2     14              9.0000000000
      1705        50  ARHM      C4            -12.3593520666       -8.8268552417       58.3392323949  LPSA2     14              9.0000000000
      1706        50  ARHM      H4            -11.8887504370       -9.1880330196       59.2828888000  LPSA2     14              9.0000000000
      1707        50  ARHM      O4            -13.7563592442       -9.1366972286       58.4126316496  LPSA2     14              9.0000000000
      1708        50  ARHM      HO4           -14.0688147030       -9.4397161691       59.2681100180  LPSA2     14              9.0000000000
      1709        50  ARHM      C6            -11.1799538122      -10.8336170514       57.1970951422  LPSA2     14              9.0000000000
      1710        50  ARHM      H61           -10.6246927835      -11.4787829759       56.5307005209  LPSA2     14              9.0000000000
      1711        50  ARHM      H62           -11.4317870479      -11.2992784057       58.1865360628  LPSA2     14              9.0000000000
      1712        50  ARHM      H63           -11.9054895366      -11.0027482156       56.3510093764  LPSA2     14              9.0000000000
      1713        51  ARHM      C1             -8.9292508948       -7.4087512982       59.7480966446  LPSA2     15             10.0000000000
      1714        51  ARHM      H1             -8.4071660576       -6.7254708751       59.0423249150  LPSA2     15             10.0000000000
      1715        51  ARHM      C5             -8.7970734008       -9.6783883243       60.6388813292  LPSA2     15             10.0000000000
      1716        51  ARHM      H5             -9.8659199163       -9.9394242770       60.4431319176  LPSA2     15             10.0000000000
      1717        51  ARHM      O5             -8.3064583796       -8.7123302755       59.6855918800  LPSA2     15             10.0000000000
      1718        51  ARHM      C2             -8.7660923806       -6.8440285427       61.1412463345  LPSA2     15             10.0000000000
      1719        51  ARHM      H2             -9.3175454541       -5.8768738084       61.2070790909  LPSA2     15             10.0000000000
      1720        51  ARHM      O2             -7.3552863679       -6.5933865137       61.3034283720  LPSA2     15             10.0000000000
      1721        51  ARHM      C3             -9.3711817065       -7.7990427906       62.1311766437  LPSA2     15             10.0000000000
      1722        51  ARHM      H3            -10.4268900637       -8.0026490371       61.8364110519  LPSA2     15             10.0000000000
      1723        51  ARHM      O3             -9.3738992979       -7.1360767156       63.3947685441  LPSA2     15             10.0000000000
      1724        51  ARHM      C4             -8.6189795428       -9.1075812991       62.0334140759  LPSA2     15             10.0000000000
      1725        51  ARHM      H4             -7.5524234419       -8.8829621969       62.1975974299  LPSA2     15             10.0000000000
      1726        51  ARHM      O4             -8.9426593573      -10.0721604057       63.0185650689  LPSA2     15             10.0000000000
      1727        51  ARHM      HO4            -8.2847534000      -10.7680762063       62.9351254578  LPSA2     15             10.0000000000
      1728        51  ARHM      C6             -7.9925920821      -10.9839005051       60.4665026155  LPSA2     15             10.0000000000
      1729        51  ARHM      H61            -8.4143950679      -11.8292421578       61.0456547935  LPSA2     15             10.0000000000
      1730        51  ARHM      H62            -7.9537081962      -11.2422343438       59.3874922580  LPSA2     15             10.0000000000
      1731        51  ARHM      H63            -6.9516221352      -10.8576787605       60.8116552260  LPSA2     15             10.0000000000
      1732        52  BMANNA    C1             -6.8543687265       -6.0546400695       62.5074642925  LPSA2     16             11.0000000000
      1733        52  BMANNA    H1             -6.9588983872       -6.8200432034       63.3142730945  LPSA2     16             11.0000000000
      1734        52  BMANNA    C5             -7.0201525822       -4.3801813600       64.2005098693  LPSA2     16             11.0000000000
      1735        52  BMANNA    H5             -7.1247319708       -5.2108361790       64.9485523148  LPSA2     16             11.0000000000
      1736        52  BMANNA    O5             -7.5126726080       -4.8428103139       62.9204346695  LPSA2     16             11.0000000000
      1737        52  BMANNA    C2             -5.3696017537       -5.7536996482       62.3089289585  LPSA2     16             11.0000000000
      1738        52  BMANNA    H2             -4.8532190912       -6.7024346082       62.0511630274  LPSA2     16             11.0000000000
      1739        52  BMANNA    N              -5.0674898303       -4.8001271794       61.2591970269  LPSA2     16             11.0000000000
      1740        52  BMANNA    HN             -4.9085107039       -3.8708709470       61.5694640336  LPSA2     16             11.0000000000
      1741        52  BMANNA    C              -4.7968712523       -5.0953604748       59.9907815898  LPSA2     16             11.0000000000
      1742        52  BMANNA    O              -4.7545371986       -6.2311959635       59.5550638306  LPSA2     16             11.0000000000
      1743        52  BMANNA    CT             -4.5848209182       -3.9334239039       59.0611395963  LPSA2     16             11.0000000000
      1744        52  BMANNA    HT1            -3.5375194775       -3.8125628303       58.7816992941  LPSA2     16             11.0000000000
      1745        52  BMANNA    HT2            -4.9174880067       -2.9851053245       59.5150373203  LPSA2     16             11.0000000000
      1746        52  BMANNA    HT3            -5.0942768852       -4.0980072590       58.0983185288  LPSA2     16             11.0000000000
      1747        52  BMANNA    C3             -4.8216411854       -5.2754492984       63.6295060508  LPSA2     16             11.0000000000
      1748        52  BMANNA    H3             -5.0238559704       -6.0924017974       64.3476811257  LPSA2     16             11.0000000000
      1749        52  BMANNA    O3             -3.4205031182       -5.0742451530       63.5644236085  LPSA2     16             11.0000000000
      1750        52  BMANNA    HO3            -2.9898652147       -5.5748307571       64.2644080115  LPSA2     16             11.0000000000
      1751        52  BMANNA    C4             -5.5497656247       -4.0370451880       64.1054429812  LPSA2     16             11.0000000000
      1752        52  BMANNA    H4             -5.3921672738       -3.2146527015       63.3703020744  LPSA2     16             11.0000000000
      1753        52  BMANNA    O4             -5.0917862955       -3.5462428952       65.3640123980  LPSA2     16             11.0000000000
      1754        52  BMANNA    HO4            -5.2834698844       -2.6049362454       65.4441302337  LPSA2     16             11.0000000000
      1755        52  BMANNA    C6             -7.8127142315       -3.2181189162       64.7656050341  LPSA2     16             11.0000000000
      1756        52  BMANNA    H61            -7.7571135391       -3.2708840809       65.8800102648  LPSA2     16             11.0000000000
      1757        52  BMANNA    H62            -7.3541665015       -2.2631622267       64.4352263464  LPSA2     16             11.0000000000
      1758        52  BMANNA    O6             -9.1765268593       -3.1901906719       64.3651652304  LPSA2     16             11.0000000000
      1759        52  BMANNA    HO6            -9.3417173082       -2.4013940640       63.8474949129  LPSA2     16             11.0000000000
      1760        53  BGLCNA    C1            -10.5379520566       -7.3587461317       64.1447157431  LPSA2     17             11.0000000000
      1761        53  BGLCNA    H1            -10.8699146809       -8.4070452752       63.9846080077  LPSA2     17             11.0000000000
      1762        53  BGLCNA    C5            -12.8154247076       -6.7039392698       64.5583386577  LPSA2     17             11.0000000000
      1763        53  BGLCNA    H5            -13.2102924708       -7.7198159968       64.3408684749  LPSA2     17             11.0000000000
      1764        53  BGLCNA    O5            -11.6139582929       -6.4767611564       63.7892326331  LPSA2     17             11.0000000000
      1765        53  BGLCNA    C2            -10.1165425631       -7.1326787488       65.5840023560  LPSA2     17             11.0000000000
      1766        53  BGLCNA    H2             -9.8331547756       -6.0631460892       65.7560701907  LPSA2     17             11.0000000000
      1767        53  BGLCNA    N              -8.9341024211       -7.9212335367       65.8753986963  LPSA2     17             11.0000000000
      1768        53  BGLCNA    HN             -8.8563054491       -8.7671702647       65.3689266631  LPSA2     17             11.0000000000
      1769        53  BGLCNA    C              -8.0177109286       -7.6696804551       66.8090692914  LPSA2     17             11.0000000000
      1770        53  BGLCNA    O              -7.9802660904       -6.6415828860       67.4642900734  LPSA2     17             11.0000000000
      1771        53  BGLCNA    CT             -7.0350201728       -8.7966839146       67.0255164465  LPSA2     17             11.0000000000
      1772        53  BGLCNA    HT1            -6.0662971268       -8.6230605574       66.5147127568  LPSA2     17             11.0000000000
      1773        53  BGLCNA    HT2            -7.4961512745       -9.7389837192       66.6728565914  LPSA2     17             11.0000000000
      1774        53  BGLCNA    HT3            -6.8378417250       -8.9113122454       68.1109745580  LPSA2     17             11.0000000000
      1775        53  BGLCNA    C3            -11.3175765580       -7.4790186216       66.4450904441  LPSA2     17             11.0000000000
      1776        53  BGLCNA    H3            -11.6148515103       -8.5005554576       66.1155956431  LPSA2     17             11.0000000000
      1777        53  BGLCNA    O3            -10.9057598475       -7.4953603041       67.8460890144  LPSA2     17             11.0000000000
      1778        53  BGLCNA    C4            -12.4532145661       -6.5443261253       66.0352796552  LPSA2     17             11.0000000000
      1779        53  BGLCNA    H4            -12.0857152068       -5.5219766736       66.0586950268  LPSA2     17             11.0000000000
      1780        53  BGLCNA    O4            -13.5849187889       -6.6378993757       66.9020571248  LPSA2     17             11.0000000000
      1781        53  BGLCNA    HO4           -14.2195979366       -5.9322602849       66.7230218698  LPSA2     17             11.0000000000
      1782        53  BGLCNA    C6            -13.8807234943       -5.6862913483       64.1241554502  LPSA2     17             11.0000000000
      1783        53  BGLCNA    H61           -14.8879366219       -6.1443532875       64.1662564563  LPSA2     17             11.0000000000
      1784        53  BGLCNA    H62           -13.8864872290       -4.8053727954       64.8073924310  LPSA2     17             11.0000000000
      1785        53  BGLCNA    O6            -13.7056453226       -5.1884300221       62.8018446677  LPSA2     17             11.0000000000
      1786        53  BGLCNA    HO6           -13.6786262421       -5.9114219385       62.1521092490  LPSA2     17             11.0000000000
      1787        54  AGAL      C1            -11.5356942062       -8.4437467991       68.6902181871  LPSA2     18             12.0000000000
      1788        54  AGAL      H1            -12.6101736798       -8.1561167075       68.8199410317  LPSA2     18             12.0000000000
      1789        54  AGAL      C5            -10.2913879440      -10.3900356264       67.8975225460  LPSA2     18             12.0000000000
      1790        54  AGAL      H5             -9.6455080067       -9.6509299075       67.4110978079  LPSA2     18             12.0000000000
      1791        54  AGAL      O5            -11.5122285140       -9.7197044420       68.1150583070  LPSA2     18             12.0000000000
      1792        54  AGAL      C2            -10.9143816539       -8.7279504284       70.0054150686  LPSA2     18             12.0000000000
      1793        54  AGAL      H2            -11.5737460846       -9.5454367707       70.4106501781  LPSA2     18             12.0000000000
      1794        54  AGAL      O2            -11.0443318847       -7.6268451710       70.8921501504  LPSA2     18             12.0000000000
      1795        54  AGAL      C3             -9.5239876385       -9.3507225861       69.8716123545  LPSA2     18             12.0000000000
      1796        54  AGAL      H3             -8.9354401128       -8.6981911710       69.1850225875  LPSA2     18             12.0000000000
      1797        54  AGAL      O3             -8.8357325355       -9.4127265450       71.1080445749  LPSA2     18             12.0000000000
      1798        54  AGAL      HO3            -7.9244333835       -9.1147427509       71.0002194061  LPSA2     18             12.0000000000
      1799        54  AGAL      C4             -9.6412019148      -10.7018659894       69.1925673232  LPSA2     18             12.0000000000
      1800        54  AGAL      H4             -8.6524905465      -11.1479546526       68.9551128990  LPSA2     18             12.0000000000
      1801        54  AGAL      O4            -10.3723311021      -11.6718827997       69.9394145677  LPSA2     18             12.0000000000
      1802        54  AGAL      HO4            -9.8482860216      -11.9111248607       70.7156436617  LPSA2     18             12.0000000000
      1803        54  AGAL      C6            -10.4044591287      -11.4384899029       66.8052770300  LPSA2     18             12.0000000000
      1804        54  AGAL      H61           -10.7184139567      -10.9095160646       65.8678365664  LPSA2     18             12.0000000000
      1805        54  AGAL      H62            -9.3999504634      -11.8669284175       66.6322225793  LPSA2     18             12.0000000000
      1806        54  AGAL      O6            -11.3012641219      -12.5168711115       67.0686952933  LPSA2     18             12.0000000000
      1807        54  AGAL      HO6           -12.0250338164      -12.2350409132       67.6509795040  LPSA2     18             12.0000000000
      1808        55  ARHM      C1            -11.3831602754       -8.0996595909       72.1708865552  LPSA2     19             13.0000000000
      1809        55  ARHM      H1            -10.9809214699       -9.1222985856       72.3541033105  LPSA2     19             13.0000000000
      1810        55  ARHM      C5            -13.4771245832       -6.9686015707       72.2457460775  LPSA2     19             13.0000000000
      1811        55  ARHM      H5            -13.2475914028       -6.6110143947       71.2132632163  LPSA2     19             13.0000000000
      1812        55  ARHM      O5            -12.7917090545       -8.2106445268       72.4159606794  LPSA2     19             13.0000000000
      1813        55  ARHM      C2            -10.7942938055       -7.0936704506       73.1083884677  LPSA2     19             13.0000000000
      1814        55  ARHM      H2             -9.7158480422       -6.9297247917       72.8655088326  LPSA2     19             13.0000000000
      1815        55  ARHM      O2            -10.8466617897       -7.5480396969       74.4483673047  LPSA2     19             13.0000000000
      1816        55  ARHM      C3            -11.4940479451       -5.7683160480       72.9538857625  LPSA2     19             13.0000000000
      1817        55  ARHM      H3            -11.4042880408       -5.4405222578       71.8935263832  LPSA2     19             13.0000000000
      1818        55  ARHM      O3            -10.8743873900       -4.7722166204       73.7549052568  LPSA2     19             13.0000000000
      1819        55  ARHM      HO3           -10.8139911147       -5.1474751179       74.6430861321  LPSA2     19             13.0000000000
      1820        55  ARHM      C4            -12.9688510982       -5.9425374358       73.2409833524  LPSA2     19             13.0000000000
      1821        55  ARHM      H4            -13.0820261868       -6.3300200843       74.2840520529  LPSA2     19             13.0000000000
      1822        55  ARHM      O4            -13.7199869975       -4.7323743954       73.1388919624  LPSA2     19             13.0000000000
      1823        55  ARHM      HO4           -13.6626399403       -4.4157562940       72.2219152578  LPSA2     19             13.0000000000
      1824        55  ARHM      C6            -14.9964110053       -7.2087595711       72.2794636697  LPSA2     19             13.0000000000
      1825        55  ARHM      H61           -15.2104998066       -7.9431962923       71.4778147340  LPSA2     19             13.0000000000
      1826        55  ARHM      H62           -15.3528381268       -7.6135511423       73.2468017922  LPSA2     19             13.0000000000
      1827        55  ARHM      H63           -15.5449965952       -6.2668983704       72.0673361794  LPSA2     19             13.0000000000
      1828        56  ARHM      C1             -9.8424122135       -8.4875692104       74.6989135336  LPSA2     20             14.0000000000
      1829        56  ARHM      H1             -9.1693614639       -8.6824659102       73.8422454206  LPSA2     20             14.0000000000
      1830        56  ARHM      C5            -11.1413489289       -9.6443141264       76.0152963847  LPSA2     20             14.0000000000
      1831        56  ARHM      H5            -12.1021759488       -9.0465439717       75.8737034956  LPSA2     20             14.0000000000
      1832        56  ARHM      O5            -10.3860144553       -9.6842914093       74.8358867208  LPSA2     20             14.0000000000
      1833        56  ARHM      C2             -9.1194386147       -8.1918714342       75.9534899154  LPSA2     20             14.0000000000
      1834        56  ARHM      H2             -8.7797148881       -7.1472739364       75.8491765905  LPSA2     20             14.0000000000
      1835        56  ARHM      O2             -8.0652048700       -9.1253468396       76.1634616495  LPSA2     20             14.0000000000
      1836        56  ARHM      C3            -10.0032810892       -8.2101149633       77.1518225565  LPSA2     20             14.0000000000
      1837        56  ARHM      H3            -10.8994525608       -7.5487003702       76.9753004382  LPSA2     20             14.0000000000
      1838        56  ARHM      O3             -9.2919657949       -7.8609843903       78.3069097816  LPSA2     20             14.0000000000
      1839        56  ARHM      C4            -10.5256638108       -9.5015935976       77.3497098720  LPSA2     20             14.0000000000
      1840        56  ARHM      H4             -9.7849238564      -10.3606007106       77.4025995717  LPSA2     20             14.0000000000
      1841        56  ARHM      O4            -11.4193196715       -9.6608183594       78.4697859818  LPSA2     20             14.0000000000
      1842        56  ARHM      HO4           -12.0216642235      -10.3726259669       78.2067632322  LPSA2     20             14.0000000000
      1843        56  ARHM      C6            -11.4085783689      -10.8329711263       75.9253710445  LPSA2     20             14.0000000000
      1844        56  ARHM      H61           -10.8675884943      -11.7953991029       75.9995857914  LPSA2     20             14.0000000000
      1845        56  ARHM      H62           -12.1167131509      -10.8479560927       76.8297520405  LPSA2     20             14.0000000000
      1846        56  ARHM      H63           -12.0542761474      -10.7747307459       74.9631040220  LPSA2     20             14.0000000000
      1847        57  BMANNA    C1             -6.9822487718       -8.7259114640       75.4024129253  LPSA2     21             15.0000000000
      1848        57  BMANNA    H1             -7.2922034304       -7.9032487618       74.7167877568  LPSA2     21             15.0000000000
      1849        57  BMANNA    C5             -5.4986798457       -9.1826442121       73.6545979831  LPSA2     21             15.0000000000
      1850        57  BMANNA    H5             -5.8949378354       -8.2946402785       73.0933990710  LPSA2     21             15.0000000000
      1851        57  BMANNA    O5             -6.5217618434       -9.7305343020       74.5122467132  LPSA2     21             15.0000000000
      1852        57  BMANNA    C2             -5.9058833652       -8.2357937652       76.3431032985  LPSA2     21             15.0000000000
      1853        57  BMANNA    H2             -6.3789732857       -7.3932242349       76.9191103426  LPSA2     21             15.0000000000
      1854        57  BMANNA    N              -5.4189164555       -9.2428950802       77.2840896150  LPSA2     21             15.0000000000
      1855        57  BMANNA    HN             -5.2657741704      -10.1414020049       76.8936973149  LPSA2     21             15.0000000000
      1856        57  BMANNA    C              -5.0905941575       -8.9963533887       78.5748290237  LPSA2     21             15.0000000000
      1857        57  BMANNA    O              -4.9827752308       -7.8702170742       79.0397408940  LPSA2     21             15.0000000000
      1858        57  BMANNA    CT             -4.8163724935      -10.1980833468       79.4646760608  LPSA2     21             15.0000000000
      1859        57  BMANNA    HT1            -3.8065323477      -10.6128510757       79.2787072257  LPSA2     21             15.0000000000
      1860        57  BMANNA    HT2            -5.5918893792      -10.9732432039       79.3126094402  LPSA2     21             15.0000000000
      1861        57  BMANNA    HT3            -4.8623650509       -9.9117048821       80.5400072042  LPSA2     21             15.0000000000
      1862        57  BMANNA    C3             -4.8302259368       -7.6729465151       75.4616629898  LPSA2     21             15.0000000000
      1863        57  BMANNA    H3             -5.3026060567       -6.8303431977       74.9081441115  LPSA2     21             15.0000000000
      1864        57  BMANNA    O3             -3.7577009523       -7.1462272220       76.2106033052  LPSA2     21             15.0000000000
      1865        57  BMANNA    HO3            -3.4049306685       -7.8346910706       76.7736670584  LPSA2     21             15.0000000000
      1866        57  BMANNA    C4             -4.3330994723       -8.7111521311       74.4813591430  LPSA2     21             15.0000000000
      1867        57  BMANNA    H4             -3.8759649924       -9.5785754790       75.0157344945  LPSA2     21             15.0000000000
      1868        57  BMANNA    O4             -3.3444584743       -8.2135263184       73.6007329810  LPSA2     21             15.0000000000
      1869        57  BMANNA    HO4            -2.5086295428       -8.6479062264       73.7929866479  LPSA2     21             15.0000000000
      1870        57  BMANNA    C6             -5.0644768984      -10.1788107743       72.6202146106  LPSA2     21             15.0000000000
      1871        57  BMANNA    H61            -4.5084889954       -9.6562695181       71.8077508133  LPSA2     21             15.0000000000
      1872        57  BMANNA    H62            -4.3627867865      -10.9000717044       73.0885322060  LPSA2     21             15.0000000000
      1873        57  BMANNA    O6             -6.1733533905      -10.8795042034       72.0726957881  LPSA2     21             15.0000000000
      1874        57  BMANNA    HO6            -6.6010770505      -11.3642951889       72.7941943018  LPSA2     21             15.0000000000
      1875        58  BGLCNA    C1            -10.0286818587       -7.1450111291       79.2480047225  LPSA2     22             15.0000000000
      1876        58  BGLCNA    H1            -11.1167087352       -7.3854238922       79.2410640449  LPSA2     22             15.0000000000
      1877        58  BGLCNA    C5            -10.5078559816       -5.0024005041       80.1081727384  LPSA2     22             15.0000000000
      1878        58  BGLCNA    H5            -11.5911037230       -5.2851845217       80.1113954354  LPSA2     22             15.0000000000
      1879        58  BGLCNA    O5             -9.8457803303       -5.7431470920       79.0701958134  LPSA2     22             15.0000000000
      1880        58  BGLCNA    C2             -9.4264612077       -7.5772446855       80.5524581626  LPSA2     22             15.0000000000
      1881        58  BGLCNA    H2             -8.3341463131       -7.3203186362       80.5018928784  LPSA2     22             15.0000000000
      1882        58  BGLCNA    N              -9.5881144665       -9.0043465890       80.7320135053  LPSA2     22             15.0000000000
      1883        58  BGLCNA    HN            -10.4328877634       -9.3916403947       80.3847910629  LPSA2     22             15.0000000000
      1884        58  BGLCNA    C              -8.7140191340       -9.8053153256       81.3468185425  LPSA2     22             15.0000000000
      1885        58  BGLCNA    O              -7.6712052231       -9.4308225651       81.8612470461  LPSA2     22             15.0000000000
      1886        58  BGLCNA    CT             -9.1000396842      -11.2534264017       81.3870361056  LPSA2     22             15.0000000000
      1887        58  BGLCNA    HT1            -8.5899239581      -11.7311245954       80.5299522824  LPSA2     22             15.0000000000
      1888        58  BGLCNA    HT2           -10.1969777308      -11.3492896153       81.2769318870  LPSA2     22             15.0000000000
      1889        58  BGLCNA    HT3            -8.7957510271      -11.7127426215       82.3543567616  LPSA2     22             15.0000000000
      1890        58  BGLCNA    C3            -10.0795752133       -6.8276815754       81.6860045258  LPSA2     22             15.0000000000
      1891        58  BGLCNA    H3            -11.1763465058       -7.0326721558       81.6531385340  LPSA2     22             15.0000000000
      1892        58  BGLCNA    O3             -9.5379712455       -7.3665137101       82.9000681690  LPSA2     22             15.0000000000
      1893        58  BGLCNA    C4             -9.8931821300       -5.3523828905       81.4668973449  LPSA2     22             15.0000000000
      1894        58  BGLCNA    H4             -8.7992087621       -5.1384991624       81.4171799327  LPSA2     22             15.0000000000
      1895        58  BGLCNA    O4            -10.4418492283       -4.5805780344       82.5380924889  LPSA2     22             15.0000000000
      1896        58  BGLCNA    HO4            -9.8448864351       -3.8414594408       82.7152874465  LPSA2     22             15.0000000000
      1897        58  BGLCNA    C6            -10.3613972576       -3.5391465350       79.7763431924  LPSA2     22             15.0000000000
      1898        58  BGLCNA    H61           -10.5696513623       -2.9452435753       80.6882674506  LPSA2     22             15.0000000000
      1899        58  BGLCNA    H62            -9.3177686764       -3.3107105319       79.4559862276  LPSA2     22             15.0000000000
      1900        58  BGLCNA    O6            -11.3042852282       -3.1062015741       78.7971912031  LPSA2     22             15.0000000000
      1901        58  BGLCNA    HO6           -11.1954011272       -3.5988191015       77.9775596336  LPSA2     22             15.0000000000
      1902        59  AGAL      C1            -10.2320809495       -7.1821934538       84.1025058265  LPSA2     23             16.0000000000
      1903        59  AGAL      H1            -10.0993668782       -6.1386399670       84.4505917896  LPSA2     23             16.0000000000
      1904        59  AGAL      C5            -11.9320142901       -8.8168164395       83.7332888605  LPSA2     23             16.0000000000
      1905        59  AGAL      H5            -11.3734268227       -9.1360174046       82.8216181521  LPSA2     23             16.0000000000
      1906        59  AGAL      O5            -11.6373382615       -7.4349189102       83.9992159873  LPSA2     23             16.0000000000
      1907        59  AGAL      C2             -9.6449709888       -8.0578972656       85.1813674743  LPSA2     23             16.0000000000
      1908        59  AGAL      H2            -10.2257427376       -7.8307130332       86.1046250662  LPSA2     23             16.0000000000
      1909        59  AGAL      O2             -8.2490744284       -7.7513602922       85.4202952389  LPSA2     23             16.0000000000
      1910        59  AGAL      C3             -9.9251633803       -9.5205304420       84.8761816288  LPSA2     23             16.0000000000
      1911        59  AGAL      H3             -9.5584626850       -9.7604072714       83.8573106185  LPSA2     23             16.0000000000
      1912        59  AGAL      O3             -9.2061159295      -10.3909163412       85.7373173263  LPSA2     23             16.0000000000
      1913        59  AGAL      HO3            -9.3682206025      -10.1213926222       86.6415260302  LPSA2     23             16.0000000000
      1914        59  AGAL      C4            -11.4356475092       -9.7311420993       84.8608580269  LPSA2     23             16.0000000000
      1915        59  AGAL      H4            -11.6794627417      -10.7869895584       84.6208560770  LPSA2     23             16.0000000000
      1916        59  AGAL      O4            -12.0560225226       -9.4155718702       86.1020286062  LPSA2     23             16.0000000000
      1917        59  AGAL      HO4           -12.9546060200       -9.1240051046       85.8665788711  LPSA2     23             16.0000000000
      1918        59  AGAL      C6            -13.3898977374       -8.9146707897       83.3481312277  LPSA2     23             16.0000000000
      1919        59  AGAL      H61           -13.6321914608       -8.1394045033       82.5812733360  LPSA2     23             16.0000000000
      1920        59  AGAL      H62           -13.5377908780       -9.9058985850       82.8703223702  LPSA2     23             16.0000000000
      1921        59  AGAL      O6            -14.2882047847       -8.7696695437       84.4516285229  LPSA2     23             16.0000000000
      1922        59  AGAL      HO6           -15.2108349657       -8.7699185195       84.1572009252  LPSA2     23             16.0000000000
      1923        60  ARHM      C1             -7.9418557684       -6.6711249251       86.2863073172  LPSA2     24             17.0000000000
      1924        60  ARHM      H1             -8.8349885413       -6.0203187315       86.3886193766  LPSA2     24             17.0000000000
      1925        60  ARHM      C5             -5.6413886506       -6.4805068973       85.6899798507  LPSA2     24             17.0000000000
      1926        60  ARHM      H5             -5.8954681461       -7.2976335986       85.0320686090  LPSA2     24             17.0000000000
      1927        60  ARHM      O5             -6.8917066973       -5.7965733416       85.8232663803  LPSA2     24             17.0000000000
      1928        60  ARHM      C2             -7.5551190877       -7.2918335692       87.6085304132  LPSA2     24             17.0000000000
      1929        60  ARHM      H2             -8.3529446505       -8.0060069203       87.9293390150  LPSA2     24             17.0000000000
      1930        60  ARHM      O2             -7.3277362023       -6.2934649457       88.6146196836  LPSA2     24             17.0000000000
      1931        60  ARHM      C3             -6.2836319276       -8.0791939864       87.4293926754  LPSA2     24             17.0000000000
      1932        60  ARHM      H3             -6.4685341450       -8.8408893359       86.6318217254  LPSA2     24             17.0000000000
      1933        60  ARHM      O3             -5.9422936197       -8.8085169782       88.6036993315  LPSA2     24             17.0000000000
      1934        60  ARHM      HO3            -5.4063953563       -8.2408014648       89.1697727044  LPSA2     24             17.0000000000
      1935        60  ARHM      C4             -5.1913075686       -7.1255004341       86.9824302746  LPSA2     24             17.0000000000
      1936        60  ARHM      H4             -5.0528529416       -6.3082610908       87.7284711678  LPSA2     24             17.0000000000
      1937        60  ARHM      O4             -3.9563908751       -7.7978308783       86.7949567035  LPSA2     24             17.0000000000
      1938        60  ARHM      HO4            -3.2169457290       -7.1981657011       86.9739217907  LPSA2     24             17.0000000000
      1939        60  ARHM      C6             -4.5648944845       -5.6398370913       84.9641399625  LPSA2     24             17.0000000000
      1940        60  ARHM      H61            -3.8440749350       -6.3022161941       84.4295982079  LPSA2     24             17.0000000000
      1941        60  ARHM      H62            -5.0488335860       -4.9850423185       84.2171207510  LPSA2     24             17.0000000000
      1942        60  ARHM      H63            -4.0166040315       -4.9945991602       85.6808586378  LPSA2     24             17.0000000000
      1943        61  ARHM      C1             -8.4913646001       -5.7300761723       89.1464772770  LPSA2     25             18.0000000000
      1944        61  ARHM      H1             -9.3451077907       -5.9484926956       88.4668215119  LPSA2     25             18.0000000000
      1945        61  ARHM      C5             -7.4689305434       -3.8507397717       90.1958519473  LPSA2     25             18.0000000000
      1946        61  ARHM      H5             -6.4707635093       -4.2070476181       89.8514244777  LPSA2     25             18.0000000000
      1947        61  ARHM      O5             -8.4586793032       -4.2952414832       89.2519074498  LPSA2     25             18.0000000000
      1948        61  ARHM      C2             -8.7654134183       -6.3905812467       90.4651518817  LPSA2     25             18.0000000000
      1949        61  ARHM      H2             -8.6546588092       -7.5024918304       90.3645834037  LPSA2     25             18.0000000000
      1950        61  ARHM      O2            -10.0943474038       -6.0831278170       90.9076723060  LPSA2     25             18.0000000000
      1951        61  ARHM      C3             -7.7210143840       -5.9356048439       91.4512548475  LPSA2     25             18.0000000000
      1952        61  ARHM      H3             -6.7072325093       -6.2352070117       91.0811386989  LPSA2     25             18.0000000000
      1953        61  ARHM      O3             -8.0138608203       -6.5385671463       92.7072040532  LPSA2     25             18.0000000000
      1954        61  ARHM      C4             -7.7393088579       -4.4397105864       91.5748239094  LPSA2     25             18.0000000000
      1955        61  ARHM      H4             -8.7475997352       -4.0870986554       91.9056430026  LPSA2     25             18.0000000000
      1956        61  ARHM      O4             -6.7757908018       -4.0124611624       92.5395407637  LPSA2     25             18.0000000000
      1957        61  ARHM      HO4            -7.1585360553       -3.3019072454       93.0578447323  LPSA2     25             18.0000000000
      1958        61  ARHM      C6             -7.4184769041       -2.3108353607       90.2044059403  LPSA2     25             18.0000000000
      1959        61  ARHM      H61            -7.3289807622       -1.9221271068       89.1719911892  LPSA2     25             18.0000000000
      1960        61  ARHM      H62            -8.3347794956       -1.8875165545       90.6638520057  LPSA2     25             18.0000000000
      1961        61  ARHM      H63            -6.5367259943       -1.9795018628       90.7893422953  LPSA2     25             18.0000000000
      1962        62  BMANNA    C1            -11.1020388728       -6.8290939088       90.2741706239  LPSA2     26             19.0000000000
      1963        62  BMANNA    H1            -10.6972952847       -7.7738904381       89.8473269627  LPSA2     26             19.0000000000
      1964        62  BMANNA    C5            -12.7814149215       -6.9651133018       88.5916241869  LPSA2     26             19.0000000000
      1965        62  BMANNA    H5            -12.2733534563       -7.8680861803       88.1795324525  LPSA2     26             19.0000000000
      1966        62  BMANNA    O5            -11.7858332084       -6.1378941380       89.2260264391  LPSA2     26             19.0000000000
      1967        62  BMANNA    C2            -12.1015630327       -7.1697497984       91.3349250364  LPSA2     26             19.0000000000
      1968        62  BMANNA    H2            -11.5354519503       -7.7219865124       92.1044840287  LPSA2     26             19.0000000000
      1969        62  BMANNA    N             -12.7007651735       -5.9763811434       91.9284793461  LPSA2     26             19.0000000000
      1970        62  BMANNA    HN            -13.0867511739       -5.3252413392       91.2878479072  LPSA2     26             19.0000000000
      1971        62  BMANNA    C             -12.7304332389       -5.6983142738       93.2371062152  LPSA2     26             19.0000000000
      1972        62  BMANNA    O             -12.1199569943       -6.3900235979       94.0371703398  LPSA2     26             19.0000000000
      1973        62  BMANNA    CT            -13.5887523729       -4.5235937165       93.6577918003  LPSA2     26             19.0000000000
      1974        62  BMANNA    HT1           -13.6530876150       -3.7781247781       92.8410130225  LPSA2     26             19.0000000000
      1975        62  BMANNA    HT2           -13.2540753189       -4.0302565308       94.5969084530  LPSA2     26             19.0000000000
      1976        62  BMANNA    HT3           -14.6025837068       -4.9142673230       93.8512440072  LPSA2     26             19.0000000000
      1977        62  BMANNA    C3            -13.1118762454       -8.1165065847       90.7349842668  LPSA2     26             19.0000000000
      1978        62  BMANNA    H3            -12.5820682037       -9.0105220426       90.3219545791  LPSA2     26             19.0000000000
      1979        62  BMANNA    O3            -13.9937839280       -8.6058824371       91.7267466288  LPSA2     26             19.0000000000
      1980        62  BMANNA    HO3           -13.5241695722       -9.2399170955       92.2800272350  LPSA2     26             19.0000000000
      1981        62  BMANNA    C4            -13.8209883807       -7.4014131626       89.6073577502  LPSA2     26             19.0000000000
      1982        62  BMANNA    H4            -14.3466666343       -6.5010233239       89.9837645978  LPSA2     26             19.0000000000
      1983        62  BMANNA    O4            -14.8096036161       -8.2027586309       88.9911315870  LPSA2     26             19.0000000000
      1984        62  BMANNA    HO4           -15.5507873859       -8.2822826338       89.5994107934  LPSA2     26             19.0000000000
      1985        62  BMANNA    C6            -13.3337169471       -6.1899953131       87.4075045132  LPSA2     26             19.0000000000
      1986        62  BMANNA    H61           -12.4948160442       -5.6481641900       86.9299995767  LPSA2     26             19.0000000000
      1987        62  BMANNA    H62           -13.7524809507       -6.8787852404       86.6410082494  LPSA2     26             19.0000000000
      1988        62  BMANNA    O6            -14.3422197669       -5.2498980603       87.7797733388  LPSA2     26             19.0000000000
      1989        62  BMANNA    HO6           -15.0741265758       -5.7487743636       88.1394280944  LPSA2     26             19.0000000000
      1990        63  BGLCNA    C1             -6.9494371010       -7.0246476711       93.4761330702  LPSA2     27             19.0000000000
      1991        63  BGLCNA    H1             -6.0641930650       -6.3548536218       93.4329429913  LPSA2     27             19.0000000000
      1992        63  BGLCNA    C5             -5.5102756444       -8.8498914709       93.9209444539  LPSA2     27             19.0000000000
      1993        63  BGLCNA    H5             -4.6780040633       -8.1030754665       93.9352214059  LPSA2     27             19.0000000000
      1994        63  BGLCNA    O5             -6.5494565076       -8.3299222340       93.0721363705  LPSA2     27             19.0000000000
      1995        63  BGLCNA    C2             -7.5333277231       -7.0896420847       94.8704545481  LPSA2     27             19.0000000000
      1996        63  BGLCNA    H2             -8.3725986531       -7.8309899112       94.8394550300  LPSA2     27             19.0000000000
      1997        63  BGLCNA    N              -8.0710405904       -5.8005840134       95.2934048529  LPSA2     27             19.0000000000
      1998        63  BGLCNA    HN             -7.5311821224       -4.9988320978       95.0619271768  LPSA2     27             19.0000000000
      1999        63  BGLCNA    C              -9.2509699332       -5.7121310491       95.9538142112  LPSA2     27             19.0000000000
      2000        63  BGLCNA    O              -9.7693833576       -6.6764600210       96.4992933867  LPSA2     27             19.0000000000
      2001        63  BGLCNA    CT             -9.9390196525       -4.3681131612       96.0138562527  LPSA2     27             19.0000000000
      2002        63  BGLCNA    HT1            -9.4245719465       -3.6406964794       95.3610643263  LPSA2     27             19.0000000000
      2003        63  BGLCNA    HT2           -10.0018316609       -3.9944972006       97.0541779744  LPSA2     27             19.0000000000
      2004        63  BGLCNA    HT3           -10.9894070875       -4.5144936839       95.6705138873  LPSA2     27             19.0000000000
      2005        63  BGLCNA    C3             -6.5050989015       -7.6195237737       95.8246132712  LPSA2     27             19.0000000000
      2006        63  BGLCNA    H3             -5.6264388215       -6.9314680060       95.7743928101  LPSA2     27             19.0000000000
      2007        63  BGLCNA    O3             -7.1276536516       -7.5524293816       97.1309291314  LPSA2     27             19.0000000000
      2008        63  BGLCNA    C4             -6.0424489869       -8.9873300374       95.3448075934  LPSA2     27             19.0000000000
      2009        63  BGLCNA    H4             -6.9056253271       -9.6944593050       95.3345889316  LPSA2     27             19.0000000000
      2010        63  BGLCNA    O4             -5.0251284141       -9.5211479529       96.1859867577  LPSA2     27             19.0000000000
      2011        63  BGLCNA    HO4            -4.2307661037       -8.9976663158       96.0874367113  LPSA2     27             19.0000000000
      2012        63  BGLCNA    C6             -4.9355098828      -10.1140651491       93.3165388456  LPSA2     27             19.0000000000
      2013        63  BGLCNA    H61            -3.9895054879      -10.3746191291       93.8468508866  LPSA2     27             19.0000000000
      2014        63  BGLCNA    H62            -5.6364975515      -10.9678856842       93.4525541463  LPSA2     27             19.0000000000
      2015        63  BGLCNA    O6             -4.6531760714       -9.9251896479       91.9238965330  LPSA2     27             19.0000000000
      2016        63  BGLCNA    HO6            -4.3590329630      -10.7448537704       91.5390233032  LPSA2     27             19.0000000000
      2017        64  AGAL      C1             -6.2762563512       -7.6039498347       98.2418997773  LPSA2     28             20.0000000000
      2018        64  AGAL      H1             -5.9053702509       -8.6494169302       98.3251419612  LPSA2     28             20.0000000000
      2019        64  AGAL      C5             -5.5604775346       -5.3186003089       98.1286005165  LPSA2     28             20.0000000000
      2020        64  AGAL      H5             -6.4183764635       -5.1479265535       97.4302417468  LPSA2     28             20.0000000000
      2021        64  AGAL      O5             -5.1582711381       -6.7087009042       98.0501281036  LPSA2     28             20.0000000000
      2022        64  AGAL      C2             -6.9182227443       -7.2855804740       99.6119274159  LPSA2     28             20.0000000000
      2023        64  AGAL      H2             -6.0518121389       -7.4324629117      100.2958006898  LPSA2     28             20.0000000000
      2024        64  AGAL      O2             -7.9471500279       -8.1560288909      100.1063436249  LPSA2     28             20.0000000000
      2025        64  AGAL      C3             -7.3430026407       -5.8315842075       99.6857523703  LPSA2     28             20.0000000000
      2026        64  AGAL      H3             -8.0420554028       -5.6294466378       98.8436496914  LPSA2     28             20.0000000000
      2027        64  AGAL      O3             -8.0419735458       -5.4424567661      100.8647142456  LPSA2     28             20.0000000000
      2028        64  AGAL      HO3            -8.9097630707       -5.1026781200      100.6108615359  LPSA2     28             20.0000000000
      2029        64  AGAL      C4             -6.1174153350       -4.9867631490       99.4900757421  LPSA2     28             20.0000000000
      2030        64  AGAL      H4             -6.4342681400       -3.9205291638       99.4888067897  LPSA2     28             20.0000000000
      2031        64  AGAL      O4             -5.1455674225       -5.1585311467      100.5111699615  LPSA2     28             20.0000000000
      2032        64  AGAL      HO4            -5.2182145155       -4.4124642225      101.0969937857  LPSA2     28             20.0000000000
      2033        64  AGAL      C6             -4.4538300684       -4.3854619128       97.6533114353  LPSA2     28             20.0000000000
      2034        64  AGAL      H61            -4.3235633362       -4.5782818436       96.5706159867  LPSA2     28             20.0000000000
      2035        64  AGAL      H62            -4.7275389958       -3.3123346068       97.7630535750  LPSA2     28             20.0000000000
      2036        64  AGAL      O6             -3.1961794867       -4.5449943359       98.3082299108  LPSA2     28             20.0000000000
      2037        64  AGAL      HO6            -2.7658565232       -5.3673689219       98.0557215779  LPSA2     28             20.0000000000
      2038        65  ARHM      C1             -7.7611705761       -8.3986826691      101.4876628331  LPSA2     29             21.0000000000
      2039        65  ARHM      H1             -7.2174065776       -7.5609510581      101.9655116674  LPSA2     29             21.0000000000
      2040        65  ARHM      C5             -7.6978381929      -10.7315697527      101.1374648835  LPSA2     29             21.0000000000
      2041        65  ARHM      H5             -7.8770511472      -10.4898520468      100.0738865859  LPSA2     29             21.0000000000
      2042        65  ARHM      O5             -7.0274119354       -9.6089099156      101.7125561342  LPSA2     29             21.0000000000
      2043        65  ARHM      C2             -9.0948523611       -8.5057739923      102.1648923412  LPSA2     29             21.0000000000
      2044        65  ARHM      H2             -9.6810282655       -7.5870504263      101.9194726106  LPSA2     29             21.0000000000
      2045        65  ARHM      O2             -8.9203370281       -8.6267505678      103.5979659814  LPSA2     29             21.0000000000
      2046        65  ARHM      C3             -9.8450164575       -9.6793257718      101.5891218194  LPSA2     29             21.0000000000
      2047        65  ARHM      H3             -9.9903487387       -9.5427701525      100.4945601785  LPSA2     29             21.0000000000
      2048        65  ARHM      O3            -11.1232123111       -9.7343069795      102.1853865628  LPSA2     29             21.0000000000
      2049        65  ARHM      HO3           -11.3521423703      -10.6615811873      102.2338615314  LPSA2     29             21.0000000000
      2050        65  ARHM      C4             -9.0556237177      -10.9580188457      101.7930118428  LPSA2     29             21.0000000000
      2051        65  ARHM      H4             -8.9514697130      -11.0863819902      102.8825522831  LPSA2     29             21.0000000000
      2052        65  ARHM      O4             -9.7053128018      -12.1457046670      101.3278165919  LPSA2     29             21.0000000000
      2053        65  ARHM      HO4           -10.0481173801      -12.0481191282      100.4313598014  LPSA2     29             21.0000000000
      2054        65  ARHM      C6             -6.6738885903      -11.8553753508      101.1798588998  LPSA2     29             21.0000000000
      2055        65  ARHM      H61            -5.7175698298      -11.4513370725      100.7788248481  LPSA2     29             21.0000000000
      2056        65  ARHM      H62            -6.5346394340      -12.1961898965      102.2014704607  LPSA2     29             21.0000000000
      2057        65  ARHM      H63            -6.9881920156      -12.7284190761      100.5786714868  LPSA2     29             21.0000000000
      2058        66  ARHM      C1             -9.0451687535       -7.4487859177      104.3690726769  LPSA2     30             22.0000000000
      2059        66  ARHM      H1            -10.0261950170       -6.9640863479      104.1610379772  LPSA2     30             22.0000000000
      2060        66  ARHM      C5             -6.6906735784       -7.0403301630      104.4942445444  LPSA2     30             22.0000000000
      2061        66  ARHM      H5             -6.5808183777       -7.9812874018      103.9128131459  LPSA2     30             22.0000000000
      2062        66  ARHM      O5             -7.9790939315       -6.5000315766      104.1612037141  LPSA2     30             22.0000000000
      2063        66  ARHM      C2             -9.0111381926       -7.8538489960      105.8253069633  LPSA2     30             22.0000000000
      2064        66  ARHM      H2             -9.8082829261       -8.6099049165      106.0281493402  LPSA2     30             22.0000000000
      2065        66  ARHM      O2             -9.1937721156       -6.6783974506      106.6053778308  LPSA2     30             22.0000000000
      2066        66  ARHM      C3             -7.6736966394       -8.4342503986      106.2210081505  LPSA2     30             22.0000000000
      2067        66  ARHM      H3             -7.4774423971       -9.2766818119      105.5178540495  LPSA2     30             22.0000000000
      2068        66  ARHM      O3             -7.7125502573       -9.0063453751      107.5430755937  LPSA2     30             22.0000000000
      2069        66  ARHM      C4             -6.5994468188       -7.4063200943      105.9645851336  LPSA2     30             22.0000000000
      2070        66  ARHM      H4             -6.7649209696       -6.4759637166      106.5563571179  LPSA2     30             22.0000000000
      2071        66  ARHM      O4             -5.2989722084       -7.8812389583      106.3107102213  LPSA2     30             22.0000000000
      2072        66  ARHM      HO4            -4.8832470352       -8.4024445749      105.6257010614  LPSA2     30             22.0000000000
      2073        66  ARHM      C6             -5.5781354532       -6.0754447236      104.0486934627  LPSA2     30             22.0000000000
      2074        66  ARHM      H61            -4.5935823871       -6.5546193668      104.2312859595  LPSA2     30             22.0000000000
      2075        66  ARHM      H62            -5.6748255384       -5.8672522633      102.9674305285  LPSA2     30             22.0000000000
      2076        66  ARHM      H63            -5.6302742987       -5.1350721805      104.6314127848  LPSA2     30             22.0000000000
      2077        67  BMANNA    C1            -10.5176326541       -6.3816084840      106.8987246715  LPSA2     31             23.0000000000
      2078        67  BMANNA    H1            -11.0705905632       -7.3084341307      107.1563217105  LPSA2     31             23.0000000000
      2079        67  BMANNA    C5            -12.5037639647       -5.2643156080      106.1978194570  LPSA2     31             23.0000000000
      2080        67  BMANNA    H5            -13.0112504107       -6.2163095798      106.4938385541  LPSA2     31             23.0000000000
      2081        67  BMANNA    O5            -11.1563321807       -5.6353197217      105.8569791872  LPSA2     31             23.0000000000
      2082        67  BMANNA    C2            -10.4203045547       -5.4839965110      108.0885733553  LPSA2     31             23.0000000000
      2083        67  BMANNA    H2             -9.9834620620       -6.1010593549      108.9152333954  LPSA2     31             23.0000000000
      2084        67  BMANNA    N              -9.5215774664       -4.3717344011      107.8241815447  LPSA2     31             23.0000000000
      2085        67  BMANNA    HN             -9.3670042947       -4.1741102673      106.8610587157  LPSA2     31             23.0000000000
      2086        67  BMANNA    C              -8.8198422374       -3.7570789725      108.7697930866  LPSA2     31             23.0000000000
      2087        67  BMANNA    O              -8.8934235109       -4.1170882007      109.9334799599  LPSA2     31             23.0000000000
      2088        67  BMANNA    CT             -7.9425524523       -2.6230753399      108.3283186169  LPSA2     31             23.0000000000
      2089        67  BMANNA    HT1            -8.4935709274       -2.0353961780      107.5670273376  LPSA2     31             23.0000000000
      2090        67  BMANNA    HT2            -7.0021189202       -3.0260374219      107.9011420469  LPSA2     31             23.0000000000
      2091        67  BMANNA    HT3            -7.6824186450       -1.9754978958      109.1934761404  LPSA2     31             23.0000000000
      2092        67  BMANNA    C3            -11.8140721268       -5.1074727604      108.5084369929  LPSA2     31             23.0000000000
      2093        67  BMANNA    H3            -12.4062902338       -6.0402234375      108.6697615151  LPSA2     31             23.0000000000
      2094        67  BMANNA    O3            -11.7885041821       -4.4561470341      109.7613364400  LPSA2     31             23.0000000000
      2095        67  BMANNA    HO3           -10.9090949700       -4.6176772057      110.1356565589  LPSA2     31             23.0000000000
      2096        67  BMANNA    C4            -12.4978120435       -4.3439228833      107.4081185549  LPSA2     31             23.0000000000
      2097        67  BMANNA    H4            -11.9441956996       -3.4156907393      107.1302033584  LPSA2     31             23.0000000000
      2098        67  BMANNA    O4            -13.8128338336       -3.9478914757      107.7721487704  LPSA2     31             23.0000000000
      2099        67  BMANNA    HO4           -14.2705273765       -4.6748804960      108.1972165283  LPSA2     31             23.0000000000
      2100        67  BMANNA    C6            -13.2468981779       -4.6621693111      105.0161669607  LPSA2     31             23.0000000000
      2101        67  BMANNA    H61           -14.3084029607       -4.5546390273      105.2340685040  LPSA2     31             23.0000000000
      2102        67  BMANNA    H62           -12.9265048704       -3.6157282815      104.8476155103  LPSA2     31             23.0000000000
      2103        67  BMANNA    O6            -13.1346164249       -5.3989159646      103.7987010383  LPSA2     31             23.0000000000
      2104        67  BMANNA    HO6           -13.6153785371       -6.2342124325      103.8280207971  LPSA2     31             23.0000000000
      2105        68  BGLCNA    C1             -7.5205409532       -8.1100242256      108.6095834374  LPSA2     32             23.0000000000
      2106        68  BGLCNA    H1             -8.0305046402       -7.1534384958      108.4065748486  LPSA2     32             23.0000000000
      2107        68  BGLCNA    C5             -6.0168943715       -6.8374338805      109.9125477342  LPSA2     32             23.0000000000
      2108        68  BGLCNA    H5             -6.5605800583       -5.9181080149      109.5768819340  LPSA2     32             23.0000000000
      2109        68  BGLCNA    O5             -6.1572786189       -7.8336549541      108.8954805310  LPSA2     32             23.0000000000
      2110        68  BGLCNA    C2             -8.1446013879       -8.6819278139      109.8567968400  LPSA2     32             23.0000000000
      2111        68  BGLCNA    H2             -7.5105366771       -9.5574272211      110.1527985081  LPSA2     32             23.0000000000
      2112        68  BGLCNA    N              -9.4673686086       -9.1387306495      109.5966914910  LPSA2     32             23.0000000000
      2113        68  BGLCNA    HN             -9.9418404776       -8.6508104822      108.8805962575  LPSA2     32             23.0000000000
      2114        68  BGLCNA    C             -10.0258098883      -10.2186359304      110.1200757598  LPSA2     32             23.0000000000
      2115        68  BGLCNA    O              -9.5294486899      -10.9878456519      110.9318021614  LPSA2     32             23.0000000000
      2116        68  BGLCNA    CT            -11.3615286450      -10.4293817284      109.5584926065  LPSA2     32             23.0000000000
      2117        68  BGLCNA    HT1           -11.5221952776       -9.8694814168      108.6141838681  LPSA2     32             23.0000000000
      2118        68  BGLCNA    HT2           -12.1673131347      -10.1264281934      110.2646727943  LPSA2     32             23.0000000000
      2119        68  BGLCNA    HT3           -11.4647898382      -11.5145467055      109.3254314413  LPSA2     32             23.0000000000
      2120        68  BGLCNA    C3             -8.1003265248       -7.6264273948      110.9306718413  LPSA2     32             23.0000000000
      2121        68  BGLCNA    H3             -8.5435772471       -6.7095899145      110.4746698699  LPSA2     32             23.0000000000
      2122        68  BGLCNA    O3             -8.8923723293       -7.9431469631      112.0905618796  LPSA2     32             23.0000000000
      2123        68  BGLCNA    C4             -6.6500182311       -7.3355931039      111.2027959687  LPSA2     32             23.0000000000
      2124        68  BGLCNA    H4             -6.1584239896       -8.2917863850      111.5132753113  LPSA2     32             23.0000000000
      2125        68  BGLCNA    O4             -6.4846857648       -6.3926670916      112.2466843079  LPSA2     32             23.0000000000
      2126        68  BGLCNA    HO4            -6.4327981468       -6.8808528188      113.0768444677  LPSA2     32             23.0000000000
      2127        68  BGLCNA    C6             -4.5636838227       -6.4513350190      110.0263310603  LPSA2     32             23.0000000000
      2128        68  BGLCNA    H61            -4.5094940881       -5.5751675178      110.6769571275  LPSA2     32             23.0000000000
      2129        68  BGLCNA    H62            -3.9638319523       -7.2568219271      110.5007863484  LPSA2     32             23.0000000000
      2130        68  BGLCNA    O6             -3.9880230065       -6.0604992908      108.7799475600  LPSA2     32             23.0000000000
      2131        68  BGLCNA    HO6            -4.6418141369       -5.5833010060      108.2549030107  LPSA2     32             23.0000000000
      2132        69  AGAL      C1             -9.5286474874       -6.8252351850      112.6803931554  LPSA2     33             24.0000000000
      2133        69  AGAL      H1             -8.8721890380       -5.9325256014      112.6087992499  LPSA2     33             24.0000000000
      2134        69  AGAL      C5            -11.7433401575       -7.6010567224      112.2136849318  LPSA2     33             24.0000000000
      2135        69  AGAL      H5            -11.2055133363       -8.5039011905      111.8424440595  LPSA2     33             24.0000000000
      2136        69  AGAL      O5            -10.7975470670       -6.5243521418      112.0608455496  LPSA2     33             24.0000000000
      2137        69  AGAL      C2             -9.8010879351       -7.1225131405      114.1459989575  LPSA2     33             24.0000000000
      2138        69  AGAL      H2            -10.3784604144       -6.2543027309      114.5351187451  LPSA2     33             24.0000000000
      2139        69  AGAL      O2             -8.5588973843       -7.1182216431      114.8700488168  LPSA2     33             24.0000000000
      2140        69  AGAL      C3            -10.7430038486       -8.3206047041      114.3060573472  LPSA2     33             24.0000000000
      2141        69  AGAL      H3            -10.3453356439       -9.1909415965      113.7244001217  LPSA2     33             24.0000000000
      2142        69  AGAL      O3            -10.8301587035       -8.8176974951      115.6385049683  LPSA2     33             24.0000000000
      2143        69  AGAL      HO3           -11.1125262911       -8.1195344272      116.2356764173  LPSA2     33             24.0000000000
      2144        69  AGAL      C4            -12.0812203511       -7.9432964578      113.6643659923  LPSA2     33             24.0000000000
      2145        69  AGAL      H4            -12.7553503549       -8.8300821334      113.6632293350  LPSA2     33             24.0000000000
      2146        69  AGAL      O4            -12.8279024894       -6.9209979324      114.3266011037  LPSA2     33             24.0000000000
      2147        69  AGAL      HO4           -12.3195639605       -6.3219805733      114.8824592293  LPSA2     33             24.0000000000
      2148        69  AGAL      C6            -12.9258748313       -7.4590046818      111.2622182209  LPSA2     33             24.0000000000
      2149        69  AGAL      H61           -12.5059186515       -7.4826498727      110.2364965988  LPSA2     33             24.0000000000
      2150        69  AGAL      H62           -13.6216356076       -8.3187231326      111.3784366698  LPSA2     33             24.0000000000
      2151        69  AGAL      O6            -13.7314846221       -6.2923476379      111.3926526154  LPSA2     33             24.0000000000
      2152        69  AGAL      HO6           -13.3665171615       -5.5365474241      110.9110516777  LPSA2     33             24.0000000000
      2153        70  ARHM      C1             -8.5629794571       -6.3426539422      116.0530683629  LPSA2     34             25.0000000000
      2154        70  ARHM      H1             -9.4539803231       -6.6240217523      116.6513887070  LPSA2     34             25.0000000000
      2155        70  ARHM      C5             -7.5310231781       -4.3764125337      115.0765384596  LPSA2     34             25.0000000000
      2156        70  ARHM      H5             -7.5450661803       -4.8472756665      114.0704645062  LPSA2     34             25.0000000000
      2157        70  ARHM      O5             -8.6327318005       -4.9072676608      115.8377132298  LPSA2     34             25.0000000000
      2158        70  ARHM      C2             -7.2958312784       -6.7066788863      116.8052353917  LPSA2     34             25.0000000000
      2159        70  ARHM      H2             -7.2024002710       -7.8202908420      116.8386695652  LPSA2     34             25.0000000000
      2160        70  ARHM      O2             -7.2639282576       -6.2092108065      118.1696103973  LPSA2     34             25.0000000000
      2161        70  ARHM      C3             -6.0970927109       -6.2025614606      116.0108181182  LPSA2     34             25.0000000000
      2162        70  ARHM      H3             -6.1079246860       -6.6696569703      114.9942147659  LPSA2     34             25.0000000000
      2163        70  ARHM      O3             -4.8599378749       -6.5698444908      116.6305732800  LPSA2     34             25.0000000000
      2164        70  ARHM      HO3            -4.2015821120       -6.7282310049      115.9455278436  LPSA2     34             25.0000000000
      2165        70  ARHM      C4             -6.2258909626       -4.7088780689      115.8067689367  LPSA2     34             25.0000000000
      2166        70  ARHM      H4             -6.2906157331       -4.1900597092      116.7911863296  LPSA2     34             25.0000000000
      2167        70  ARHM      O4             -5.0884043591       -4.1998354428      115.1123058467  LPSA2     34             25.0000000000
      2168        70  ARHM      HO4            -4.3335051866       -4.1712411284      115.7146672621  LPSA2     34             25.0000000000
      2169        70  ARHM      C6             -7.6809715210       -2.8400490164      114.8607083696  LPSA2     34             25.0000000000
      2170        70  ARHM      H61            -7.7191602820       -2.2583539315      115.8002466659  LPSA2     34             25.0000000000
      2171        70  ARHM      H62            -6.7582184991       -2.4894686042      114.3873474346  LPSA2     34             25.0000000000
      2172        70  ARHM      H63            -8.5156481818       -2.5584938692      114.1883703000  LPSA2     34             25.0000000000
      2173        71  ARHM      C1             -8.3058661663       -6.5525119319      119.0641400663  LPSA2     35             26.0000000000
      2174        71  ARHM      H1             -8.6543652633       -7.5851397467      118.8671301507  LPSA2     35             26.0000000000
      2175        71  ARHM      C5             -9.0965950930       -4.2957086932      119.2094920463  LPSA2     35             26.0000000000
      2176        71  ARHM      H5             -8.3031404479       -3.9566375963      118.5108531272  LPSA2     35             26.0000000000
      2177        71  ARHM      O5             -9.4330798106       -5.6722531134      118.9593785820  LPSA2     35             26.0000000000
      2178        71  ARHM      C2             -7.8081637276       -6.4670159261      120.5046333174  LPSA2     35             26.0000000000
      2179        71  ARHM      H2             -6.9299671994       -7.1413230163      120.6524841347  LPSA2     35             26.0000000000
      2180        71  ARHM      O2             -8.8358542202       -6.8455297533      121.4373180408  LPSA2     35             26.0000000000
      2181        71  ARHM      C3             -7.3751227321       -5.0560870742      120.8257101238  LPSA2     35             26.0000000000
      2182        71  ARHM      H3             -6.5719806117       -4.7449970613      120.1157424744  LPSA2     35             26.0000000000
      2183        71  ARHM      O3             -6.7841204478       -4.9791177184      122.1231947489  LPSA2     35             26.0000000000
      2184        71  ARHM      HO3            -7.2460359696       -5.5980858238      122.6918109093  LPSA2     35             26.0000000000
      2185        71  ARHM      C4             -8.5770143037       -4.1349557692      120.6472946364  LPSA2     35             26.0000000000
      2186        71  ARHM      H4             -9.4111796303       -4.4332305429      121.3327874124  LPSA2     35             26.0000000000
      2187        71  ARHM      O4             -8.2406011408       -2.7789173265      120.9468051165  LPSA2     35             26.0000000000
      2188        71  ARHM      HO4            -7.3531066251       -2.5807945053      120.6298900496  LPSA2     35             26.0000000000
      2189        71  ARHM      C6            -10.3303218897       -3.4415419182      118.8466986947  LPSA2     35             26.0000000000
      2190        71  ARHM      H61           -10.5644266188       -3.4608048306      117.7617703446  LPSA2     35             26.0000000000
      2191        71  ARHM      H62           -11.2146481793       -3.7979260856      119.4147487531  LPSA2     35             26.0000000000
      2192        71  ARHM      H63           -10.0780443853       -2.3976244944      119.1156380533  LPSA2     35             26.0000000000
      2193        72  BMANNA    C1             -9.1014993274       -8.2150753639      121.4881126264  LPSA2     36             27.0000000000
      2194        72  BMANNA    H1             -8.2311744309       -8.8060657561      121.1304426143  LPSA2     36             27.0000000000
      2195        72  BMANNA    C5            -10.3818288711      -10.0030931882      120.7206752501  LPSA2     36             27.0000000000
      2196        72  BMANNA    H5             -9.4717981388      -10.4272746624      120.3428999627  LPSA2     36             27.0000000000
      2197        72  BMANNA    O5            -10.1897310215       -8.5887169998      120.6724969510  LPSA2     36             27.0000000000
      2198        72  BMANNA    C2             -9.4203360226       -8.5652553007      122.9269275802  LPSA2     36             27.0000000000
      2199        72  BMANNA    H2             -8.4954217601       -8.3026982949      123.4915315242  LPSA2     36             27.0000000000
      2200        72  BMANNA    N             -10.5423882938       -7.8098128876      123.5012413158  LPSA2     36             27.0000000000
      2201        72  BMANNA    HN            -11.3125505480       -7.6327749899      122.8910549884  LPSA2     36             27.0000000000
      2202        72  BMANNA    C             -10.6095163671       -7.5368084447      124.8233895243  LPSA2     36             27.0000000000
      2203        72  BMANNA    O              -9.6614954291       -7.7265436608      125.5753828096  LPSA2     36             27.0000000000
      2204        72  BMANNA    CT            -11.9037883997       -6.9561808186      125.3416603819  LPSA2     36             27.0000000000
      2205        72  BMANNA    HT1           -12.7605377777       -7.4764209822      124.8721843861  LPSA2     36             27.0000000000
      2206        72  BMANNA    HT2           -11.9702965341       -5.8707436629      125.1428167219  LPSA2     36             27.0000000000
      2207        72  BMANNA    HT3           -11.9578432229       -7.0985625650      126.4434597980  LPSA2     36             27.0000000000
      2208        72  BMANNA    C3             -9.5752373583      -10.0743412767      123.0148338678  LPSA2     36             27.0000000000
      2209        72  BMANNA    H3             -8.6571547783      -10.5746893296      122.6594271841  LPSA2     36             27.0000000000
      2210        72  BMANNA    O3             -9.8045427464      -10.5205200831      124.3414367485  LPSA2     36             27.0000000000
      2211        72  BMANNA    HO3            -9.1175963874      -11.0888274441      124.6888420540  LPSA2     36             27.0000000000
      2212        72  BMANNA    C4            -10.6922056455      -10.4902917283      122.1294666066  LPSA2     36             27.0000000000
      2213        72  BMANNA    H4            -11.5852660781       -9.9651316013      122.4991087117  LPSA2     36             27.0000000000
      2214        72  BMANNA    O4            -10.9174514883      -11.8943436564      122.2259659486  LPSA2     36             27.0000000000
      2215        72  BMANNA    HO4           -11.0998139387      -12.0207572266      123.1705413097  LPSA2     36             27.0000000000
      2216        72  BMANNA    C6            -11.3660559931      -10.3781696633      119.7228246416  LPSA2     36             27.0000000000
      2217        72  BMANNA    H61           -11.1213138373      -10.1397022895      118.6734540812  LPSA2     36             27.0000000000
      2218        72  BMANNA    H62           -11.4027569009      -11.4963193878      119.7095745431  LPSA2     36             27.0000000000
      2219        72  BMANNA    O6            -12.5366505948       -9.6767480878      120.1350523532  LPSA2     36             27.0000000000
      2220        72  BMANNA    HO6           -13.0480556544      -10.3447520088      120.6476134767  LPSA2     36             27.0000000000
      2221        73  ECLIPA    HB6S            8.1876876167       -4.7549950230       20.4266122006  LPSA3     1               0.0000000000
      2222        73  ECLIPA    OB6             8.9811622007       -3.3543325046       21.7177027988  LPSA3     1               0.0000000000
      2223        73  ECLIPA    CB6             8.0172673253       -3.6937462426       20.7007805486  LPSA3     1               0.0000000000
      2224        73  ECLIPA    HB6R            6.9812214227       -3.6059368956       21.0994734415  LPSA3     1               0.0000000000
      2225        73  ECLIPA    CB5             8.0922045091       -2.8440328612       19.4365045281  LPSA3     1               0.0000000000
      2226        73  ECLIPA    OB5             9.4480895344       -2.9602706084       18.9620950442  LPSA3     1               0.0000000000
      2227        73  ECLIPA    HB5             7.8639851719       -1.7980197845       19.7435291653  LPSA3     1               0.0000000000
      2228        73  ECLIPA    CB1             9.6801559985       -2.1745683032       17.7870818239  LPSA3     1               0.0000000000
      2229        73  ECLIPA    HB1             9.4366985456       -1.0989008212       17.9663252268  LPSA3     1               0.0000000000
      2230        73  ECLIPA    OA6            11.0135643237       -2.2272123605       17.3312562947  LPSA3     1               0.0000000000
      2231        73  ECLIPA    CA6            11.6890470333       -3.4761052387       17.5636012746  LPSA3     1               0.0000000000
      2232        73  ECLIPA    HA6R           10.9855310938       -4.3218270097       17.7582193456  LPSA3     1               0.0000000000
      2233        73  ECLIPA    HA6S           12.3574061401       -3.3483584650       18.4467688942  LPSA3     1               0.0000000000
      2234        73  ECLIPA    CB4             7.1079666156       -3.2865877317       18.3379806605  LPSA3     1               0.0000000000
      2235        73  ECLIPA    HB4             7.2492203711       -4.3584979905       18.0552291637  LPSA3     1               0.0000000000
      2236        73  ECLIPA    OB4             5.7982286117       -3.0099625237       18.8674325511  LPSA3     1               0.0000000000
      2237        73  ECLIPA    PB              4.7850300009       -4.2394920824       19.3278756121  LPSA3     1               0.0000000000
      2238        73  ECLIPA    OPB4            3.9464382708       -3.8011925299       20.5420098532  LPSA3     1               0.0000000000
      2239        73  ECLIPA    OPB3            5.7389253923       -5.3980363002       19.6656561469  LPSA3     1               0.0000000000
      2240        73  ECLIPA    OPB2            3.9302693270       -4.5238553085       18.1036131275  LPSA3     1               0.0000000000
      2241        73  ECLIPA    CB3             7.3674580528       -2.4645697147       17.0935611493  LPSA3     1               0.0000000000
      2242        73  ECLIPA    OB3             6.6478100411       -2.8663527667       15.9262959928  LPSA3     1               0.0000000000
      2243        73  ECLIPA    HB3             7.2397281623       -1.3770931603       17.3304919255  LPSA3     1               0.0000000000
      2244        73  ECLIPA    C71             5.3766944362       -2.5216515285       15.8949054599  LPSA3     1               0.0000000000
      2245        73  ECLIPA    O71             4.9688940910       -1.5950358745       16.5753471169  LPSA3     1               0.0000000000
      2246        73  ECLIPA    C72             4.9107858266       -2.8566140772       14.4355845002  LPSA3     1               0.0000000000
      2247        73  ECLIPA    H72R            5.6291884489       -2.5587300424       13.6417167428  LPSA3     1               0.0000000000
      2248        73  ECLIPA    H72S            3.9170679720       -2.4906337398       14.1832744933  LPSA3     1               0.0000000000
      2249        73  ECLIPA    CB2             8.8001319291       -2.6400445163       16.6670303229  LPSA3     1               0.0000000000
      2250        73  ECLIPA    HB2             8.9748481251       -3.7432152849       16.5113571905  LPSA3     1               0.0000000000
      2251        73  ECLIPA    NB2             9.0716284443       -1.8708628084       15.4519089396  LPSA3     1               0.0000000000
      2252        73  ECLIPA    HNB2            9.4140765214       -0.9464662407       15.5828764637  LPSA3     1               0.0000000000
      2253        73  ECLIPA    CA4            13.2723562311       -2.6055727960       15.7986266123  LPSA3     1               0.0000000000
      2254        73  ECLIPA    HA4            12.4895678593       -1.8655599368       15.5176592156  LPSA3     1               0.0000000000
      2255        73  ECLIPA    OA4            14.0977472032       -2.0293046638       16.8147286737  LPSA3     1               0.0000000000
      2256        73  ECLIPA    HOA4           13.5571573250       -2.0446224777       17.6130023309  LPSA3     1               0.0000000000
      2257        73  ECLIPA    CA5            12.5231386075       -3.8108910832       16.3409546403  LPSA3     1               0.0000000000
      2258        73  ECLIPA    HA5            13.1876033185       -4.6789489825       16.5699754484  LPSA3     1               0.0000000000
      2259        73  ECLIPA    OA5            11.5986100441       -4.2107419704       15.3388407118  LPSA3     1               0.0000000000
      2260        73  ECLIPA    CA1            12.2187925885       -4.6118158399       14.1055677495  LPSA3     1               0.0000000000
      2261        73  ECLIPA    HA1            11.3444817768       -4.7041210021       13.4235824135  LPSA3     1               0.0000000000
      2262        73  ECLIPA    OA1            12.8822841285       -5.8529663103       14.1385336356  LPSA3     1               0.0000000000
      2263        73  ECLIPA    OPA2           12.8486356614       -7.4446091786       15.9941163753  LPSA3     1               0.0000000000
      2264        73  ECLIPA    OPA3           10.6223214522       -6.9175866322       14.8940351104  LPSA3     1               0.0000000000
      2265        73  ECLIPA    OPA4           12.3700345955       -8.2671652766       13.6310334070  LPSA3     1               0.0000000000
      2266        73  ECLIPA    PA             12.1058767435       -7.2027973049       14.6929722480  LPSA3     1               0.0000000000
      2267        73  ECLIPA    CA3            14.0268855094       -2.9391686552       14.5282393257  LPSA3     1               0.0000000000
      2268        73  ECLIPA    HA3            14.7986536258       -3.7157776861       14.7345426238  LPSA3     1               0.0000000000
      2269        73  ECLIPA    OA3            14.6916155941       -1.6939045424       14.1927389389  LPSA3     1               0.0000000000
      2270        73  ECLIPA    C31            13.9691679867       -0.7888448998       13.4990129915  LPSA3     1               0.0000000000
      2271        73  ECLIPA    O31            13.9318452288       -0.7832809154       12.2836081393  LPSA3     1               0.0000000000
      2272        73  ECLIPA    C32            14.0194548616        0.5420234504       14.2821606445  LPSA3     1               0.0000000000
      2273        73  ECLIPA    H32R           14.6341977595        1.2504615511       13.6926525683  LPSA3     1               0.0000000000
      2274        73  ECLIPA    H32S           14.4618647341        0.3660122491       15.2763897844  LPSA3     1               0.0000000000
      2275        73  ECLIPA    CA2            12.9981300669       -3.4496401281       13.5124958834  LPSA3     1               0.0000000000
      2276        73  ECLIPA    HA2            12.2393916977       -2.6528638734       13.3391586756  LPSA3     1               0.0000000000
      2277        73  ECLIPA    NA2            13.6162260133       -3.8085919660       12.2239950351  LPSA3     1               0.0000000000
      2278        73  ECLIPA    HNA2           14.5582959289       -3.5290732599       12.1192931775  LPSA3     1               0.0000000000
      2279        73  ECLIPA    C73             4.6215004456       -4.3362065916       14.3640763682  LPSA3     1               0.0000000000
      2280        73  ECLIPA    H73R            4.0419911448       -4.5880372510       15.2901458016  LPSA3     1               0.0000000000
      2281        73  ECLIPA    O73             5.9001972805       -4.9337831967       14.2699689974  LPSA3     1               0.0000000000
      2282        73  ECLIPA    C81             6.1276361687       -6.0444602347       14.9522515070  LPSA3     1               0.0000000000
      2283        73  ECLIPA    O81             5.2912035397       -6.6682684736       15.5844765319  LPSA3     1               0.0000000000
      2284        73  ECLIPA    C82             7.3807282517       -6.6871269188       14.3446707887  LPSA3     1               0.0000000000
      2285        73  ECLIPA    H82R            7.5750223080       -7.6400235786       14.8660646637  LPSA3     1               0.0000000000
      2286        73  ECLIPA    H82S            8.2464197179       -6.0243108208       14.5609420431  LPSA3     1               0.0000000000
      2287        73  ECLIPA    C83             7.2949953382       -6.9104064794       12.8110723148  LPSA3     1               0.0000000000
      2288        73  ECLIPA    H83R            7.5390059164       -5.9541269171       12.2918368741  LPSA3     1               0.0000000000
      2289        73  ECLIPA    H83S            6.2593475082       -7.1946290066       12.5384814449  LPSA3     1               0.0000000000
      2290        73  ECLIPA    C84             8.3074814516       -7.9460597469       12.2914980765  LPSA3     1               0.0000000000
      2291        73  ECLIPA    H84R            8.0257580310       -8.9734988022       12.6006846307  LPSA3     1               0.0000000000
      2292        73  ECLIPA    H84S            9.2919156804       -7.6893339320       12.7648810650  LPSA3     1               0.0000000000
      2293        73  ECLIPA    C85             8.5112756149       -7.8645974760       10.7704609544  LPSA3     1               0.0000000000
      2294        73  ECLIPA    H85R            8.5595724184       -6.7751328425       10.5443301656  LPSA3     1               0.0000000000
      2295        73  ECLIPA    H85S            7.6251761905       -8.2634552150       10.2350307855  LPSA3     1               0.0000000000
      2296        73  ECLIPA    C86             9.8491608935       -8.4676810062       10.2863878416  LPSA3     1               0.0000000000
      2297        73  ECLIPA    H86R            9.7298649827       -9.5337167800        9.9931078819  LPSA3     1               0.0000000000
      2298        73  ECLIPA    H86S           10.5816869846       -8.4541875966       11.1303404290  LPSA3     1               0.0000000000
      2299        73  ECLIPA    C87            10.5010190779       -7.6401257546        9.1596685428  LPSA3     1               0.0000000000
      2300        73  ECLIPA    H87R           11.4139330645       -8.1596546113        8.7970859607  LPSA3     1               0.0000000000
      2301        73  ECLIPA    H87S           10.8421439293       -6.6640021922        9.5768292001  LPSA3     1               0.0000000000
      2302        73  ECLIPA    C88             9.5292455145       -7.3282404849        8.0199115689  LPSA3     1               0.0000000000
      2303        73  ECLIPA    H88R            8.8374414732       -6.5252039440        8.3494529722  LPSA3     1               0.0000000000
      2304        73  ECLIPA    H88S            8.8768792836       -8.2191742739        7.8791147285  LPSA3     1               0.0000000000
      2305        73  ECLIPA    C89            10.2242957237       -6.8973643178        6.7148102227  LPSA3     1               0.0000000000
      2306        73  ECLIPA    H89R           11.2588284183       -6.5288850002        6.8935145852  LPSA3     1               0.0000000000
      2307        73  ECLIPA    H89S            9.6783571948       -6.0445929238        6.2585266912  LPSA3     1               0.0000000000
      2308        73  ECLIPA    C810           10.2057033215       -8.0429728710        5.6983531173  LPSA3     1               0.0000000000
      2309        73  ECLIPA    H810R           9.3077487910       -8.6515848370        5.9322153108  LPSA3     1               0.0000000000
      2310        73  ECLIPA    H810S          11.1109892476       -8.6675772330        5.8645334698  LPSA3     1               0.0000000000
      2311        73  ECLIPA    C811           10.1424740451       -7.5808875574        4.2374138363  LPSA3     1               0.0000000000
      2312        73  ECLIPA    H811R          10.5023618575       -8.3728530968        3.5398301310  LPSA3     1               0.0000000000
      2313        73  ECLIPA    H811S          10.8104928744       -6.6996017413        4.1807564355  LPSA3     1               0.0000000000
      2314        73  ECLIPA    C812            8.7721700553       -7.1037708540        3.7373033990  LPSA3     1               0.0000000000
      2315        73  ECLIPA    H812R           8.9374977837       -6.6839710924        2.7145814600  LPSA3     1               0.0000000000
      2316        73  ECLIPA    H812S           8.3965387350       -6.3037124372        4.4084572234  LPSA3     1               0.0000000000
      2317        73  ECLIPA    C813            7.6809308837       -8.1693453294        3.6357204667  LPSA3     1               0.0000000000
      2318        73  ECLIPA    H813R           8.0304826876       -8.9496876130        2.9276149137  LPSA3     1               0.0000000000
      2319        73  ECLIPA    H813S           7.5015842328       -8.6553240620        4.6232988945  LPSA3     1               0.0000000000
      2320        73  ECLIPA    C814            6.3569926735       -7.5967615989        3.1286700708  LPSA3     1               0.0000000000
      2321        73  ECLIPA    H814R           6.4904530743       -6.9730476389        2.2176152032  LPSA3     1               0.0000000000
      2322        73  ECLIPA    H814S           5.8892610429       -6.9719097667        3.9185094074  LPSA3     1               0.0000000000
      2323        73  ECLIPA    H814T           5.6596208821       -8.4243088592        2.8867411209  LPSA3     1               0.0000000000
      2324        73  ECLIPA    C74             3.8057742207       -4.7913477194       13.1236383419  LPSA3     1               0.0000000000
      2325        73  ECLIPA    H74R            2.7836444671       -4.3646821217       13.0489564458  LPSA3     1               0.0000000000
      2326        73  ECLIPA    H74S            3.6689376394       -5.8829253176       13.3115165480  LPSA3     1               0.0000000000
      2327        73  ECLIPA    C75             4.5520847273       -4.6568498431       11.7777019048  LPSA3     1               0.0000000000
      2328        73  ECLIPA    H75R            4.3118213657       -5.5677949112       11.1886178271  LPSA3     1               0.0000000000
      2329        73  ECLIPA    H75S            5.6468773089       -4.6754275572       11.9703175375  LPSA3     1               0.0000000000
      2330        73  ECLIPA    C76             4.2299977095       -3.4054059131       10.9463280109  LPSA3     1               0.0000000000
      2331        73  ECLIPA    H76R            4.7771342227       -2.5350277265       11.3739694140  LPSA3     1               0.0000000000
      2332        73  ECLIPA    H76S            3.1435972218       -3.1607122822       10.9843957909  LPSA3     1               0.0000000000
      2333        73  ECLIPA    C77             4.6154716041       -3.5256435568        9.4589266388  LPSA3     1               0.0000000000
      2334        73  ECLIPA    H77R            3.9774480073       -4.3033072200        8.9911464153  LPSA3     1               0.0000000000
      2335        73  ECLIPA    H77S            5.6548206819       -3.8540519190        9.3145262440  LPSA3     1               0.0000000000
      2336        73  ECLIPA    C78             4.5187555859       -2.1449986967        8.7991415800  LPSA3     1               0.0000000000
      2337        73  ECLIPA    H78R            3.5384515739       -1.7477423479        9.0849680650  LPSA3     1               0.0000000000
      2338        73  ECLIPA    H78S            5.2401221176       -1.4856718503        9.3269848775  LPSA3     1               0.0000000000
      2339        73  ECLIPA    C79             4.8594670309       -2.0466350062        7.2965232533  LPSA3     1               0.0000000000
      2340        73  ECLIPA    H79R            5.9136279402       -1.7376640336        7.1868439091  LPSA3     1               0.0000000000
      2341        73  ECLIPA    H79S            4.3754062356       -1.2158369683        6.7845862105  LPSA3     1               0.0000000000
      2342        73  ECLIPA    C710            4.5144272963       -3.2571596036        6.4473891567  LPSA3     1               0.0000000000
      2343        73  ECLIPA    H710R           5.0460765412       -4.1389456502        6.8579495395  LPSA3     1               0.0000000000
      2344        73  ECLIPA    H710S           3.4157155615       -3.4387871405        6.4900049205  LPSA3     1               0.0000000000
      2345        73  ECLIPA    C711            4.9206578610       -3.0890628370        4.9824405789  LPSA3     1               0.0000000000
      2346        73  ECLIPA    H711R           4.3723004837       -2.2281704052        4.5348976284  LPSA3     1               0.0000000000
      2347        73  ECLIPA    H711S           6.0156515042       -2.8953277875        4.9203946516  LPSA3     1               0.0000000000
      2348        73  ECLIPA    C712            4.6109011312       -4.3878528824        4.2420414534  LPSA3     1               0.0000000000
      2349        73  ECLIPA    H712R           3.5104047373       -4.5462058612        4.2600512491  LPSA3     1               0.0000000000
      2350        73  ECLIPA    H712S           5.0805687195       -5.2073120252        4.8253977924  LPSA3     1               0.0000000000
      2351        73  ECLIPA    C713            5.1339579334       -4.4273176184        2.8178899788  LPSA3     1               0.0000000000
      2352        73  ECLIPA    H713R           6.2467418935       -4.3071891394        2.8367483634  LPSA3     1               0.0000000000
      2353        73  ECLIPA    H713S           4.9065636375       -5.4010880166        2.3271620536  LPSA3     1               0.0000000000
      2354        73  ECLIPA    C714            4.4686195228       -3.3872984272        1.9561907855  LPSA3     1               0.0000000000
      2355        73  ECLIPA    H714R           3.3824270114       -3.4675469775        1.8503703029  LPSA3     1               0.0000000000
      2356        73  ECLIPA    H714S           4.7819252492       -2.3498276097        2.2337539527  LPSA3     1               0.0000000000
      2357        73  ECLIPA    H714T           4.7186259940       -3.6544917968        0.9257174634  LPSA3     1               0.0000000000
      2358        73  ECLIPA    C51             8.8630486040       -2.3913824473       14.2301061101  LPSA3     1               0.0000000000
      2359        73  ECLIPA    O51             8.6579750817       -3.5794071267       14.0761443642  LPSA3     1               0.0000000000
      2360        73  ECLIPA    C52             8.8351645757       -1.4575947457       13.0465028183  LPSA3     1               0.0000000000
      2361        73  ECLIPA    H52R            7.8168817073       -1.0891393695       12.8597702397  LPSA3     1               0.0000000000
      2362        73  ECLIPA    H52S            9.4731240569       -0.5947664313       13.2477664730  LPSA3     1               0.0000000000
      2363        73  ECLIPA    C53             9.2578490749       -2.1712338163       11.7535624735  LPSA3     1               0.0000000000
      2364        73  ECLIPA    H53R           10.0573703530       -2.9148711704       11.9797913046  LPSA3     1               0.0000000000
      2365        73  ECLIPA    O53             9.6748637219       -1.1417408198       10.8414453502  LPSA3     1               0.0000000000
      2366        73  ECLIPA    C61            10.9585684482       -1.0737688386       10.5112576595  LPSA3     1               0.0000000000
      2367        73  ECLIPA    O61            11.8250285943       -1.8390026143       10.8587619034  LPSA3     1               0.0000000000
      2368        73  ECLIPA    C62            11.1900254497        0.1315490069        9.5838713044  LPSA3     1               0.0000000000
      2369        73  ECLIPA    H62R           11.2992711950        1.0440772338       10.1982709423  LPSA3     1               0.0000000000
      2370        73  ECLIPA    H62S           10.2570523240        0.2513157036        9.0038962286  LPSA3     1               0.0000000000
      2371        73  ECLIPA    C63            12.4562178872       -0.0569458235        8.7013518503  LPSA3     1               0.0000000000
      2372        73  ECLIPA    H63R           12.4181495898       -1.0819515392        8.2734134357  LPSA3     1               0.0000000000
      2373        73  ECLIPA    H63S           13.3738560953        0.0252825517        9.3292886369  LPSA3     1               0.0000000000
      2374        73  ECLIPA    C64            12.5943369137        0.9070320533        7.5083418359  LPSA3     1               0.0000000000
      2375        73  ECLIPA    H64R           13.5632582888        0.7267968912        6.9877299101  LPSA3     1               0.0000000000
      2376        73  ECLIPA    H64S           12.5870785399        1.9392816489        7.9216501685  LPSA3     1               0.0000000000
      2377        73  ECLIPA    C65            11.4349884493        0.7201800890        6.5286856547  LPSA3     1               0.0000000000
      2378        73  ECLIPA    H65R           10.5483266972        0.9807008203        7.1377187200  LPSA3     1               0.0000000000
      2379        73  ECLIPA    H65S           11.3475469394       -0.3422445010        6.2169224765  LPSA3     1               0.0000000000
      2380        73  ECLIPA    C66            11.3895696011        1.6024730132        5.2718342111  LPSA3     1               0.0000000000
      2381        73  ECLIPA    H66R           11.4028158164        2.6675325839        5.5715207747  LPSA3     1               0.0000000000
      2382        73  ECLIPA    H66S           10.4066376205        1.3789951271        4.7935426260  LPSA3     1               0.0000000000
      2383        73  ECLIPA    C67            12.4681404773        1.4043168778        4.2052592135  LPSA3     1               0.0000000000
      2384        73  ECLIPA    H67R           13.5038569001        1.4350965623        4.5950607276  LPSA3     1               0.0000000000
      2385        73  ECLIPA    H67S           12.3558905021        2.1568743014        3.3846335030  LPSA3     1               0.0000000000
      2386        73  ECLIPA    C68            12.4114771796        0.0731245451        3.5387923196  LPSA3     1               0.0000000000
      2387        73  ECLIPA    H68R           11.3735316500       -0.0995804615        3.2342762153  LPSA3     1               0.0000000000
      2388        73  ECLIPA    H68S           12.6508385038       -0.7165537231        4.2876952945  LPSA3     1               0.0000000000
      2389        73  ECLIPA    C69            13.3621859350        0.1416215036        2.3191009760  LPSA3     1               0.0000000000
      2390        73  ECLIPA    H69R           14.2131781050        0.8193353544        2.4021317326  LPSA3     1               0.0000000000
      2391        73  ECLIPA    H69S           12.7077178939        0.4297233193        1.4631625868  LPSA3     1               0.0000000000
      2392        73  ECLIPA    C610           14.1554538377       -1.1121154615        2.0865721907  LPSA3     1               0.0000000000
      2393        73  ECLIPA    H610R          13.3008267058       -1.5289903258        2.5301437385  LPSA3     1               0.0000000000
      2394        73  ECLIPA    H610S          14.7238739345       -1.7120601852        2.7961220135  LPSA3     1               0.0000000000
      2395        73  ECLIPA    C611           14.7427879651       -1.2528301958        0.6834348168  LPSA3     1               0.0000000000
      2396        73  ECLIPA    H611R          15.6173627220       -0.6464861008        0.6743676117  LPSA3     1               0.0000000000
      2397        73  ECLIPA    H611S          15.1669254108       -2.2614726017        0.5182075179  LPSA3     1               0.0000000000
      2398        73  ECLIPA    C612           14.0705454048       -0.6263312978       -0.5261708513  LPSA3     1               0.0000000000
      2399        73  ECLIPA    H612R          13.9037725310       -1.6700831077       -0.6274253501  LPSA3     1               0.0000000000
      2400        73  ECLIPA    H612S          13.0727724523       -0.1683583434       -0.3174177494  LPSA3     1               0.0000000000
      2401        73  ECLIPA    H612T          14.0997361126       -0.9026692435       -1.5993564564  LPSA3     1               0.0000000000
      2402        73  ECLIPA    C54             8.0106129060       -2.8932642948       11.1737647064  LPSA3     1               0.0000000000
      2403        73  ECLIPA    H54R            7.2747320150       -2.1108188258       10.8808786998  LPSA3     1               0.0000000000
      2404        73  ECLIPA    H54S            7.5543141665       -3.5047808795       11.9782289757  LPSA3     1               0.0000000000
      2405        73  ECLIPA    C55             8.2615039954       -3.8202283084        9.9745893929  LPSA3     1               0.0000000000
      2406        73  ECLIPA    H55R            7.3965138846       -4.5004316774        9.8260298659  LPSA3     1               0.0000000000
      2407        73  ECLIPA    H55S            9.1276471289       -4.4784816419       10.2037680396  LPSA3     1               0.0000000000
      2408        73  ECLIPA    C56             8.4341207754       -2.9817111812        8.7151119378  LPSA3     1               0.0000000000
      2409        73  ECLIPA    H56R            9.2586500241       -2.2592819017        8.8653266512  LPSA3     1               0.0000000000
      2410        73  ECLIPA    H56S            7.5118297272       -2.3895184959        8.5124605895  LPSA3     1               0.0000000000
      2411        73  ECLIPA    C57             8.8182238518       -3.7149968073        7.4605630500  LPSA3     1               0.0000000000
      2412        73  ECLIPA    H57R            8.1163575063       -4.5377125667        7.1938077003  LPSA3     1               0.0000000000
      2413        73  ECLIPA    H57S            9.8320762188       -4.1663701205        7.5573860386  LPSA3     1               0.0000000000
      2414        73  ECLIPA    C58             8.8824529051       -2.6808066797        6.3663517580  LPSA3     1               0.0000000000
      2415        73  ECLIPA    H58R            7.9849651025       -2.0304388381        6.2638987704  LPSA3     1               0.0000000000
      2416        73  ECLIPA    H58S            9.7550356228       -2.0010155090        6.5011694156  LPSA3     1               0.0000000000
      2417        73  ECLIPA    C59             9.0156828322       -3.4478008552        5.1308148380  LPSA3     1               0.0000000000
      2418        73  ECLIPA    H59R            8.1551025782       -4.1364392550        4.8955798332  LPSA3     1               0.0000000000
      2419        73  ECLIPA    H59S            9.9729885434       -4.0072990563        5.0934016442  LPSA3     1               0.0000000000
      2420        73  ECLIPA    C510            8.9517975413       -2.5520629081        4.0418362137  LPSA3     1               0.0000000000
      2421        73  ECLIPA    H510R           9.5659448775       -1.6110194792        3.9871071617  LPSA3     1               0.0000000000
      2422        73  ECLIPA    H510S           7.8962967802       -2.1748777255        4.0165644301  LPSA3     1               0.0000000000
      2423        73  ECLIPA    C511            9.1987179893       -3.5519172000        2.9940078209  LPSA3     1               0.0000000000
      2424        73  ECLIPA    H511R          10.2408457144       -3.9640250052        2.8951502155  LPSA3     1               0.0000000000
      2425        73  ECLIPA    H511S           8.6953963275       -4.5336037821        2.8233822401  LPSA3     1               0.0000000000
      2426        73  ECLIPA    C512            8.5457816262       -2.4233289169        2.1500790210  LPSA3     1               0.0000000000
      2427        73  ECLIPA    H512R           8.2413606665       -3.3272067308        1.4965265197  LPSA3     1               0.0000000000
      2428        73  ECLIPA    H512S           7.5420812693       -2.4571187176        2.2559141533  LPSA3     1               0.0000000000
      2429        73  ECLIPA    C513            9.1932540339       -0.6340794821        1.7262740613  LPSA3     1               0.0000000000
      2430        73  ECLIPA    H513R          10.0864807852       -0.6149240955        1.0177794053  LPSA3     1               0.0000000000
      2431        73  ECLIPA    H513S           9.8210529885       -0.1322961360        2.3537415567  LPSA3     1               0.0000000000
      2432        73  ECLIPA    C514            9.3922541496        0.4615634884        0.5275818664  LPSA3     1               0.0000000000
      2433        73  ECLIPA    H514R           8.6887855454        0.5330273089       -0.2254190632  LPSA3     1               0.0000000000
      2434        73  ECLIPA    H514S          10.3365992699        0.8869337188        0.0630216175  LPSA3     1               0.0000000000
      2435        73  ECLIPA    H514T           9.2392771653       -0.1250481641       -0.2657297241  LPSA3     1               0.0000000000
      2436        73  ECLIPA    C33            12.6409538161        1.1980916142       14.4715501661  LPSA3     1               0.0000000000
      2437        73  ECLIPA    H33R           12.7747091676        2.2408801531       14.8560247066  LPSA3     1               0.0000000000
      2438        73  ECLIPA    O33            11.9214494497        0.4893776716       15.4538274347  LPSA3     1               0.0000000000
      2439        73  ECLIPA    HO33           12.1466198260        0.7071236383       16.3619616091  LPSA3     1               0.0000000000
      2440        73  ECLIPA    C34            11.7944498552        1.2402355380       13.2116107197  LPSA3     1               0.0000000000
      2441        73  ECLIPA    H34R           11.6012174128        0.2459761506       12.7772613481  LPSA3     1               0.0000000000
      2442        73  ECLIPA    H34S           12.2851053178        1.8723479542       12.4259260636  LPSA3     1               0.0000000000
      2443        73  ECLIPA    C35            10.4045483034        1.7309321785       13.4984768322  LPSA3     1               0.0000000000
      2444        73  ECLIPA    H35R           10.5265141204        2.5661343021       14.1840408083  LPSA3     1               0.0000000000
      2445        73  ECLIPA    H35S            9.7909303082        1.2835838285       14.2887901727  LPSA3     1               0.0000000000
      2446        73  ECLIPA    C36             9.7276528220        1.8347004672       12.1332179731  LPSA3     1               0.0000000000
      2447        73  ECLIPA    H36R            9.8752377079        0.9525881625       11.5441515977  LPSA3     1               0.0000000000
      2448        73  ECLIPA    H36S            9.9593276290        2.6963638518       11.4781017723  LPSA3     1               0.0000000000
      2449        73  ECLIPA    C37             8.2989800135        1.7825234802       12.3055838609  LPSA3     1               0.0000000000
      2450        73  ECLIPA    H37R            8.1184865903        2.8280540923       12.1661706009  LPSA3     1               0.0000000000
      2451        73  ECLIPA    H37S            8.1468404418        1.4976209044       13.3431326763  LPSA3     1               0.0000000000
      2452        73  ECLIPA    C38             7.3487858653        1.2707033962       11.2607695434  LPSA3     1               0.0000000000
      2453        73  ECLIPA    H38R            7.2584492562        0.1837926301       11.3206676393  LPSA3     1               0.0000000000
      2454        73  ECLIPA    H38S            6.2437715803        1.5020588763       11.3302890494  LPSA3     1               0.0000000000
      2455        73  ECLIPA    C39             7.8367173867        1.9314281083       10.0124170415  LPSA3     1               0.0000000000
      2456        73  ECLIPA    H39R            8.8985684184        1.8812947272        9.8505235753  LPSA3     1               0.0000000000
      2457        73  ECLIPA    H39S            7.4916001749        3.0144993315        9.9230097470  LPSA3     1               0.0000000000
      2458        73  ECLIPA    C310            7.4288823412        0.9903509369        8.9464641750  LPSA3     1               0.0000000000
      2459        73  ECLIPA    H310R           6.5298177064        1.4122348522        9.3482041530  LPSA3     1               0.0000000000
      2460        73  ECLIPA    H310S           6.9399750673        0.0253755827        9.0636849466  LPSA3     1               0.0000000000
      2461        73  ECLIPA    C311            7.8527114460        1.3626311988        7.4970817260  LPSA3     1               0.0000000000
      2462        73  ECLIPA    H311R           7.9775282583        2.5003648239        7.5134757245  LPSA3     1               0.0000000000
      2463        73  ECLIPA    H311S           8.7155418229        0.7272431385        7.4200138327  LPSA3     1               0.0000000000
      2464        73  ECLIPA    C312            7.1936672069        0.6457045120        6.2242398140  LPSA3     1               0.0000000000
      2465        73  ECLIPA    H312R           6.1660465850        0.2979259513        6.0890923361  LPSA3     1               0.0000000000
      2466        73  ECLIPA    H312S           6.4905768073        1.3082088676        6.0778445872  LPSA3     1               0.0000000000
      2467        73  ECLIPA    C313            7.8720327017        0.6212112722        4.8334086883  LPSA3     1               0.0000000000
      2468        73  ECLIPA    H313R           8.2723791019        1.6430504904        4.6015719479  LPSA3     1               0.0000000000
      2469        73  ECLIPA    H313S           8.6012914163       -0.0572497672        5.2255324561  LPSA3     1               0.0000000000
      2470        73  ECLIPA    C314            7.1963503808       -0.0650620408        3.5813682177  LPSA3     1               0.0000000000
      2471        73  ECLIPA    H314R           6.5336921639        0.5554888110        3.1625088844  LPSA3     1               0.0000000000
      2472        73  ECLIPA    H314S           7.3910367506        0.4279305823        2.5909435013  LPSA3     1               0.0000000000
      2473        73  ECLIPA    H314T           6.2405014031       -0.6330239261        3.7586315921  LPSA3     1               0.0000000000
      2474        73  ECLIPA    C11            13.1014107690       -4.6058263002       11.2551837531  LPSA3     1               0.0000000000
      2475        73  ECLIPA    O11            11.9142249338       -4.8569870042       11.0949458565  LPSA3     1               0.0000000000
      2476        73  ECLIPA    C12            14.1310027665       -5.2002884752       10.3291029657  LPSA3     1               0.0000000000
      2477        73  ECLIPA    H12R           14.2507167118       -6.2766896227       10.5540317828  LPSA3     1               0.0000000000
      2478        73  ECLIPA    H12S           15.0931431750       -4.6770691745       10.5130752729  LPSA3     1               0.0000000000
      2479        73  ECLIPA    C13            13.7725780581       -5.0185455091        8.8580273489  LPSA3     1               0.0000000000
      2480        73  ECLIPA    H13R           12.6969660982       -5.2263958819        8.6445447955  LPSA3     1               0.0000000000
      2481        73  ECLIPA    O13            14.5520871082       -5.9581944495        8.1243050335  LPSA3     1               0.0000000000
      2482        73  ECLIPA    HO13           14.1657388600       -6.2311092163        7.2870664080  LPSA3     1               0.0000000000
      2483        73  ECLIPA    C14            14.1022685975       -3.5687061869        8.4511076391  LPSA3     1               0.0000000000
      2484        73  ECLIPA    H14R           15.0225579460       -3.2174360453        8.9683682807  LPSA3     1               0.0000000000
      2485        73  ECLIPA    H14S           13.2413238422       -2.9484412210        8.7821754561  LPSA3     1               0.0000000000
      2486        73  ECLIPA    C15            14.2886246844       -3.3151470390        6.9678883635  LPSA3     1               0.0000000000
      2487        73  ECLIPA    H15R           15.0771369425       -3.9981428710        6.5812726217  LPSA3     1               0.0000000000
      2488        73  ECLIPA    H15S           14.6604397067       -2.2743783762        6.8330635973  LPSA3     1               0.0000000000
      2489        73  ECLIPA    C16            12.9817654067       -3.5103300805        6.2152841825  LPSA3     1               0.0000000000
      2490        73  ECLIPA    H16R           12.3338017346       -2.6130593381        6.2875481279  LPSA3     1               0.0000000000
      2491        73  ECLIPA    H16S           12.3931552066       -4.3419761381        6.6601650243  LPSA3     1               0.0000000000
      2492        73  ECLIPA    C17            13.2832843220       -3.7827248236        4.7553472153  LPSA3     1               0.0000000000
      2493        73  ECLIPA    H17R           14.0583664914       -3.0631978648        4.4086880891  LPSA3     1               0.0000000000
      2494        73  ECLIPA    H17S           12.3548494251       -3.5648392045        4.1934171835  LPSA3     1               0.0000000000
      2495        73  ECLIPA    C18            13.7808194329       -5.2199864185        4.5650646742  LPSA3     1               0.0000000000
      2496        73  ECLIPA    H18R           14.6814382520       -5.3769075240        5.1678996481  LPSA3     1               0.0000000000
      2497        73  ECLIPA    H18S           12.9689779902       -5.9421017314        4.8413546857  LPSA3     1               0.0000000000
      2498        73  ECLIPA    C19            14.1412501858       -5.5543286041        3.1618471692  LPSA3     1               0.0000000000
      2499        73  ECLIPA    H19R           14.6650593446       -6.5109075873        2.9917619729  LPSA3     1               0.0000000000
      2500        73  ECLIPA    H19S           14.7676470647       -4.7332866786        2.6887881774  LPSA3     1               0.0000000000
      2501        73  ECLIPA    C110           12.7377208960       -5.6907772329        2.5952081484  LPSA3     1               0.0000000000
      2502        73  ECLIPA    H110R          11.9071801565       -6.3379587747        2.7640200498  LPSA3     1               0.0000000000
      2503        73  ECLIPA    H110S          12.7375387029       -4.8019772638        2.2093889835  LPSA3     1               0.0000000000
      2504        73  ECLIPA    C111           12.6141067770       -5.9379449587        1.1588580359  LPSA3     1               0.0000000000
      2505        73  ECLIPA    H111R          13.7264180329       -5.8281610397        1.1005517138  LPSA3     1               0.0000000000
      2506        73  ECLIPA    H111S          13.0911419919       -6.9146355462        1.1749994287  LPSA3     1               0.0000000000
      2507        73  ECLIPA    C112           11.3076274915       -5.5362521936       -0.0467380286  LPSA3     1               0.0000000000
      2508        73  ECLIPA    H112R          10.8031544280       -6.3686845337        0.2862662964  LPSA3     1               0.0000000000
      2509        73  ECLIPA    H112S          10.5805530671       -4.7137537146        0.3278590556  LPSA3     1               0.0000000000
      2510        73  ECLIPA    C113           11.4975982625       -5.7160829114       -1.8533939346  LPSA3     1               0.0000000000
      2511        73  ECLIPA    H113R          12.3079422272       -5.2255774149       -2.4155391769  LPSA3     1               0.0000000000
      2512        73  ECLIPA    H113S          12.0455590785       -6.5694056271       -2.3089391434  LPSA3     1               0.0000000000
      2513        73  ECLIPA    C114           10.9317804201       -6.2047815803       -3.0266538451  LPSA3     1               0.0000000000
      2514        73  ECLIPA    H114R          10.3660813040       -7.0863403979       -2.6957467380  LPSA3     1               0.0000000000
      2515        73  ECLIPA    H114S          10.5664157404       -5.1829267203       -3.2628077578  LPSA3     1               0.0000000000
      2516        73  ECLIPA    H114T          11.4541333892       -6.5757209469       -3.9971735800  LPSA3     1               0.0000000000
      2517        74  AKDO      C1              7.8752572507       -1.3896457195       22.4133233934  LPSA3     2               0.0000000000
      2518        74  AKDO      O11             6.6342919498       -1.1993432777       22.4239382497  LPSA3     2               0.0000000000
      2519        74  AKDO      O12             8.7573386144       -0.5507558240       22.0899860869  LPSA3     2               0.0000000000
      2520        74  AKDO      C2              8.4078630371       -2.7697792380       22.8804420463  LPSA3     2               0.0000000000
      2521        74  AKDO      C6              7.7582223091       -4.8669658773       23.8569476197  LPSA3     2               0.0000000000
      2522        74  AKDO      H6              8.2119667299       -5.3317513975       22.9434378130  LPSA3     2               0.0000000000
      2523        74  AKDO      O6              7.3357531980       -3.5516176322       23.4686976411  LPSA3     2               0.0000000000
      2524        74  AKDO      C3              9.5244339489       -2.6746854659       23.9257545940  LPSA3     2               0.0000000000
      2525        74  AKDO      H31             9.1789226326       -2.0593267901       24.7866545389  LPSA3     2               0.0000000000
      2526        74  AKDO      H32            10.3903479194       -2.1633765281       23.4495980344  LPSA3     2               0.0000000000
      2527        74  AKDO      C4              9.9817593203       -4.0273182067       24.3694559119  LPSA3     2               0.0000000000
      2528        74  AKDO      H4             10.3113339700       -4.6149296174       23.4790392401  LPSA3     2               0.0000000000
      2529        74  AKDO      O4             11.0056576944       -3.9444569719       25.3692702485  LPSA3     2               0.0000000000
      2530        74  AKDO      C5              8.8357998801       -4.8087616213       24.9571333776  LPSA3     2               0.0000000000
      2531        74  AKDO      H5              9.1918033057       -5.8618822138       25.0804460547  LPSA3     2               0.0000000000
      2532        74  AKDO      O5              8.5002529760       -4.2095941999       26.2511769855  LPSA3     2               0.0000000000
      2533        74  AKDO      C7              6.5543082180       -5.7343079588       24.1673809470  LPSA3     2               0.0000000000
      2534        74  AKDO      H7              6.0710784939       -5.3395189686       25.0811038499  LPSA3     2               0.0000000000
      2535        74  AKDO      O7              6.9424041540       -7.0975174308       24.3812740412  LPSA3     2               0.0000000000
      2536        74  AKDO      HO7             6.9929297437       -7.4854911856       23.5092476243  LPSA3     2               0.0000000000
      2537        74  AKDO      C8              5.5425491277       -5.6810712401       23.0447855672  LPSA3     2               0.0000000000
      2538        74  AKDO      H81             5.2948916234       -4.6105144054       22.8495090120  LPSA3     2               0.0000000000
      2539        74  AKDO      H82             6.0148325184       -6.0675205456       22.1048078255  LPSA3     2               0.0000000000
      2540        74  AKDO      O8              4.3179920723       -6.3704454213       23.4087254454  LPSA3     2               0.0000000000
      2541        74  AKDO      HO8             3.6923132273       -5.9807375933       22.7889173191  LPSA3     2               0.0000000000
      2542        75  AKDO      C1             12.7440426786       -4.6190802273       23.8034456172  LPSA3     3               1.0000000000
      2543        75  AKDO      O11            12.8303312653       -4.0739781912       22.6696891214  LPSA3     3               1.0000000000
      2544        75  AKDO      O12            12.9581960725       -5.8338040925       24.0942983863  LPSA3     3               1.0000000000
      2545        75  AKDO      C2             12.3493825326       -3.7086481591       25.0043903588  LPSA3     3               1.0000000000
      2546        75  AKDO      C6             12.2119693668       -1.4232958632       25.7904096393  LPSA3     3               1.0000000000
      2547        75  AKDO      H6             11.1148555723       -1.5320339702       25.9833414162  LPSA3     3               1.0000000000
      2548        75  AKDO      O6             12.6123680366       -2.3115529818       24.7167983224  LPSA3     3               1.0000000000
      2549        75  AKDO      C3             13.0923526845       -4.0487083048       26.3183893795  LPSA3     3               1.0000000000
      2550        75  AKDO      H31            14.1880474036       -3.9420325817       26.1487463922  LPSA3     3               1.0000000000
      2551        75  AKDO      H32            12.9295521553       -5.1141585176       26.5881411346  LPSA3     3               1.0000000000
      2552        75  AKDO      C4             12.6314108288       -3.1335405742       27.4222163501  LPSA3     3               1.0000000000
      2553        75  AKDO      H4             11.5186557232       -3.1955753708       27.4842806037  LPSA3     3               1.0000000000
      2554        75  AKDO      O4             13.1579738639       -3.4757704343       28.6878742972  LPSA3     3               1.0000000000
      2555        75  AKDO      HO4            12.4596438136       -3.6147998645       29.3479459443  LPSA3     3               1.0000000000
      2556        75  AKDO      C5             12.9863822384       -1.7282837832       27.0551083726  LPSA3     3               1.0000000000
      2557        75  AKDO      H5             12.6543310602       -1.0632770819       27.8855956259  LPSA3     3               1.0000000000
      2558        75  AKDO      O5             14.3951367982       -1.5489435936       26.8513784180  LPSA3     3               1.0000000000
      2559        75  AKDO      HO5            14.6464716844       -2.1970736895       26.1875136134  LPSA3     3               1.0000000000
      2560        75  AKDO      C7             12.4369835962       -0.0099236355       25.3518444322  LPSA3     3               1.0000000000
      2561        75  AKDO      H7             13.5200663904        0.1375567958       25.1390409047  LPSA3     3               1.0000000000
      2562        75  AKDO      O7             12.0360555098        0.8944752386       26.3864283803  LPSA3     3               1.0000000000
      2563        75  AKDO      HO7            12.3486390892        1.7657984983       26.1310518187  LPSA3     3               1.0000000000
      2564        75  AKDO      C8             11.6278446723        0.2119467311       24.1118335987  LPSA3     3               1.0000000000
      2565        75  AKDO      H81            11.8633548886       -0.5257358281       23.3235307492  LPSA3     3               1.0000000000
      2566        75  AKDO      H82            10.5570953321        0.1698062943       24.3197792119  LPSA3     3               1.0000000000
      2567        75  AKDO      O8             11.9206555740        1.4652820668       23.5662881523  LPSA3     3               1.0000000000
      2568        75  AKDO      HO8            12.8033568032        1.3795638424       23.2147250715  LPSA3     3               1.0000000000
      2569        76  AHEP      C1              7.9963342485       -5.0836228608       27.2467376573  LPSA3     4               2.0000000000
      2570        76  AHEP      H1              6.9623705510       -5.2855685436       26.9033590692  LPSA3     4               2.0000000000
      2571        76  AHEP      C5              9.9128584067       -6.3477129236       28.0014740955  LPSA3     4               2.0000000000
      2572        76  AHEP      H5             10.5255597840       -5.5503916504       27.5168780412  LPSA3     4               2.0000000000
      2573        76  AHEP      O5              8.6366848040       -6.3676336137       27.3209316555  LPSA3     4               2.0000000000
      2574        76  AHEP      C2              7.8135051921       -4.5887443667       28.6974742293  LPSA3     4               2.0000000000
      2575        76  AHEP      H2              7.3725268705       -3.5707918649       28.6679999013  LPSA3     4               2.0000000000
      2576        76  AHEP      O2              6.8321285974       -5.3781070735       29.3558827421  LPSA3     4               2.0000000000
      2577        76  AHEP      HO2             6.3303182326       -4.8253587927       29.9424407145  LPSA3     4               2.0000000000
      2578        76  AHEP      C3              9.1081947767       -4.5199701234       29.4924531062  LPSA3     4               2.0000000000
      2579        76  AHEP      H3              9.8042057914       -3.7532898120       29.0905720628  LPSA3     4               2.0000000000
      2580        76  AHEP      O3              8.8113909172       -4.2131781327       30.8749719110  LPSA3     4               2.0000000000
      2581        76  AHEP      C4              9.7274272384       -5.9071805816       29.4596778954  LPSA3     4               2.0000000000
      2582        76  AHEP      H4              9.0998819128       -6.6724084739       29.9710411021  LPSA3     4               2.0000000000
      2583        76  AHEP      O4             11.0118248074       -5.7808630385       30.0627493133  LPSA3     4               2.0000000000
      2584        76  AHEP      P4             11.3914724228       -6.5420146709       31.4871875274  LPSA3     4               2.0000000000
      2585        76  AHEP      OP42           12.4033756285       -5.5846223560       32.1206627170  LPSA3     4               2.0000000000
      2586        76  AHEP      OP43           11.9711966177       -7.9060045337       31.0511631946  LPSA3     4               2.0000000000
      2587        76  AHEP      OP44           10.1192840136       -6.6148255681       32.3191448610  LPSA3     4               2.0000000000
      2588        76  AHEP      C6             10.6149835238       -7.7192443794       27.7924104030  LPSA3     4               2.0000000000
      2589        76  AHEP      H6             11.6834943947       -7.5447478427       28.0862247345  LPSA3     4               2.0000000000
      2590        76  AHEP      O6             10.1429717505       -8.8243040682       28.6021176337  LPSA3     4               2.0000000000
      2591        76  AHEP      HO6            10.7809804829       -8.9654393811       29.3188897279  LPSA3     4               2.0000000000
      2592        76  AHEP      C7             10.5889847050       -8.2153639503       26.3325734577  LPSA3     4               2.0000000000
      2593        76  AHEP      H71            11.3121000499       -9.0545282434       26.2023818586  LPSA3     4               2.0000000000
      2594        76  AHEP      H72            10.8767879159       -7.3886460853       25.6509557492  LPSA3     4               2.0000000000
      2595        76  AHEP      O7              9.3211560281       -8.7106206338       25.8720952382  LPSA3     4               2.0000000000
      2596        76  AHEP      HO7             9.2525110287       -9.5169144840       26.3691205602  LPSA3     4               2.0000000000
      2597        77  AHEP      C1              9.3856160198       -3.0714371161       31.4601244812  LPSA3     5               3.0000000000
      2598        77  AHEP      H1             10.3681786728       -2.8401631448       30.9818318971  LPSA3     5               3.0000000000
      2599        77  AHEP      C5              7.2267704978       -2.1671346906       31.9583445633  LPSA3     5               3.0000000000
      2600        77  AHEP      H5              6.8218132493       -3.1402834646       31.5933927335  LPSA3     5               3.0000000000
      2601        77  AHEP      O5              8.4987678567       -1.9510541243       31.2965651980  LPSA3     5               3.0000000000
      2602        77  AHEP      C2              9.6253168971       -3.2739881177       32.9637308974  LPSA3     5               3.0000000000
      2603        77  AHEP      H2             10.2572675519       -4.1866396852       33.0844018089  LPSA3     5               3.0000000000
      2604        77  AHEP      O2             10.3586275553       -2.1623482779       33.4933049497  LPSA3     5               3.0000000000
      2605        77  AHEP      HO2            11.2626340189       -2.4327659268       33.6355822195  LPSA3     5               3.0000000000
      2606        77  AHEP      C3              8.3251737419       -3.5090980467       33.7267111988  LPSA3     5               3.0000000000
      2607        77  AHEP      H3              7.8452147574       -4.4294997008       33.3118538439  LPSA3     5               3.0000000000
      2608        77  AHEP      O3              8.4798491912       -3.6336950914       35.1660040191  LPSA3     5               3.0000000000
      2609        77  AHEP      C4              7.4298836989       -2.3199467825       33.4632506732  LPSA3     5               3.0000000000
      2610        77  AHEP      H4              7.9060152260       -1.3810125322       33.8427346475  LPSA3     5               3.0000000000
      2611        77  AHEP      O4              6.1540974408       -2.5897491237       34.0566526028  LPSA3     5               3.0000000000
      2612        77  AHEP      P4              5.6257112107       -1.5993210606       35.2998573685  LPSA3     5               3.0000000000
      2613        77  AHEP      OP42            4.4174491730       -2.3462791184       35.8449713660  LPSA3     5               3.0000000000
      2614        77  AHEP      OP43            5.2374578059       -0.2674785475       34.6513209109  LPSA3     5               3.0000000000
      2615        77  AHEP      OP44            6.7561007583       -1.5253674324       36.3219669627  LPSA3     5               3.0000000000
      2616        77  AHEP      C6              6.2095945199       -1.0854270150       31.5560619879  LPSA3     5               3.0000000000
      2617        77  AHEP      H6              5.2307933060       -1.3300764126       32.0383238765  LPSA3     5               3.0000000000
      2618        77  AHEP      O6              6.5990860316        0.2329819583       31.9777213652  LPSA3     5               3.0000000000
      2619        77  AHEP      HO6             7.3527598892        0.5543293435       31.4945142155  LPSA3     5               3.0000000000
      2620        77  AHEP      C7              5.9629171435       -1.0910514144       30.0664290142  LPSA3     5               3.0000000000
      2621        77  AHEP      H71             4.8919810833       -0.8335868543       29.9078089747  LPSA3     5               3.0000000000
      2622        77  AHEP      H72             6.0989167282       -2.0939957271       29.6125657031  LPSA3     5               3.0000000000
      2623        77  AHEP      O7              6.7217087701       -0.0634693878       29.4298213724  LPSA3     5               3.0000000000
      2624        78  AHEP      C1              7.8933364224       -0.5373099184       28.8244402707  LPSA3     6               4.0000000000
      2625        78  AHEP      H1              8.0834664800       -1.5916580397       29.0604461949  LPSA3     6               4.0000000000
      2626        78  AHEP      C5              7.6009275702        0.8180695305       27.0040798936  LPSA3     6               4.0000000000
      2627        78  AHEP      H5              6.7233391765        1.1427214182       27.6066414622  LPSA3     6               4.0000000000
      2628        78  AHEP      O5              7.7563445478       -0.5203016476       27.4246118591  LPSA3     6               4.0000000000
      2629        78  AHEP      C2              9.0828075648        0.3077987994       29.2459754281  LPSA3     6               4.0000000000
      2630        78  AHEP      H2              9.1414420570        0.2309926593       30.3526516705  LPSA3     6               4.0000000000
      2631        78  AHEP      O2             10.2662308475       -0.2616345796       28.7292562011  LPSA3     6               4.0000000000
      2632        78  AHEP      HO2            10.7781420733       -0.5859360289       29.4652446103  LPSA3     6               4.0000000000
      2633        78  AHEP      C3              8.8614097440        1.7548540578       28.8496842519  LPSA3     6               4.0000000000
      2634        78  AHEP      H3              7.9346073828        2.0398533745       29.3914303585  LPSA3     6               4.0000000000
      2635        78  AHEP      O3              9.9494759192        2.6305640667       29.2110979589  LPSA3     6               4.0000000000
      2636        78  AHEP      HO3             9.7846650966        3.1554327915       29.9883208920  LPSA3     6               4.0000000000
      2637        78  AHEP      C4              8.6961919831        1.7716491679       27.3541717702  LPSA3     6               4.0000000000
      2638        78  AHEP      H4              9.6112206262        1.4982593969       26.8059683827  LPSA3     6               4.0000000000
      2639        78  AHEP      O4              8.3341296177        3.0563008667       26.8649643283  LPSA3     6               4.0000000000
      2640        78  AHEP      HO4             7.4669762270        3.3436797760       27.1866362869  LPSA3     6               4.0000000000
      2641        78  AHEP      C6              7.3653510570        0.7560263879       25.5231897826  LPSA3     6               4.0000000000
      2642        78  AHEP      H6              7.1991464995        1.8123645239       25.2673946334  LPSA3     6               4.0000000000
      2643        78  AHEP      O6              8.4057188652        0.5471823774       24.6405959506  LPSA3     6               4.0000000000
      2644        78  AHEP      HO6             7.9960940251        0.0492192876       23.9111546584  LPSA3     6               4.0000000000
      2645        78  AHEP      C7              6.2622014754       -0.2103468797       25.1963088607  LPSA3     6               4.0000000000
      2646        78  AHEP      H71             5.8539363325        0.0360598452       24.1792850093  LPSA3     6               4.0000000000
      2647        78  AHEP      H72             5.6019561708        0.0000966687       26.0742893214  LPSA3     6               4.0000000000
      2648        78  AHEP      O7              6.1200895579       -1.5815338298       25.3541253614  LPSA3     6               4.0000000000
      2649        78  AHEP      HO7             5.9184183676       -1.5530606411       26.2818985084  LPSA3     6               4.0000000000
      2650        79  AGLC      C1              8.6386972816       -4.9300912615       35.6706789910  LPSA3     7               4.0000000000
      2651        79  AGLC      H1              7.9781585589       -5.5749471268       35.1269742003  LPSA3     7               4.0000000000
      2652        79  AGLC      C5             10.9418986545       -4.6501111060       36.1078568209  LPSA3     7               4.0000000000
      2653        79  AGLC      H5             10.8308254763       -3.5768948503       35.8299360704  LPSA3     7               4.0000000000
      2654        79  AGLC      O5              9.9463850765       -5.4048736044       35.4312873079  LPSA3     7               4.0000000000
      2655        79  AGLC      C2              8.3828975743       -5.0977267408       37.1721819460  LPSA3     7               4.0000000000
      2656        79  AGLC      H2              8.6535084077       -6.1521611342       37.4323638888  LPSA3     7               4.0000000000
      2657        79  AGLC      O2              7.0097768216       -4.9480528692       37.5400194893  LPSA3     7               4.0000000000
      2658        79  AGLC      HO2             6.8165600952       -3.9908682847       37.5430464916  LPSA3     7               4.0000000000
      2659        79  AGLC      C3              9.3323787139       -4.2542795104       37.9793655818  LPSA3     7               4.0000000000
      2660        79  AGLC      H3              9.2298213310       -3.2082974568       37.6087596392  LPSA3     7               4.0000000000
      2661        79  AGLC      O3              9.0474109477       -4.2570616304       39.4053511646  LPSA3     7               4.0000000000
      2662        79  AGLC      C4             10.7275708426       -4.7571964812       37.6173805544  LPSA3     7               4.0000000000
      2663        79  AGLC      H4             10.8325492593       -5.8283115262       37.9310901215  LPSA3     7               4.0000000000
      2664        79  AGLC      O4             11.6823884917       -3.9511446702       38.2833725055  LPSA3     7               4.0000000000
      2665        79  AGLC      HO4            12.4034936531       -4.4639563205       38.6694287990  LPSA3     7               4.0000000000
      2666        79  AGLC      C6             12.2752426295       -5.0849482755       35.5108725652  LPSA3     7               4.0000000000
      2667        79  AGLC      H61            12.2311643757       -4.9100586654       34.4097503055  LPSA3     7               4.0000000000
      2668        79  AGLC      H62            13.1164577934       -4.4716483690       35.9010767827  LPSA3     7               4.0000000000
      2669        79  AGLC      O6             12.5708848481       -6.4679097435       35.7104897935  LPSA3     7               4.0000000000
      2670        79  AGLC      HO6            12.9815829096       -6.5510309136       36.5625079690  LPSA3     7               4.0000000000
      2671        80  AGLC      C1              8.7246254077       -2.9772760350       39.9278031793  LPSA3     8               5.0000000000
      2672        80  AGLC      H1              9.4244539006       -2.2273619620       39.5173078259  LPSA3     8               5.0000000000
      2673        80  AGLC      C5              6.3179432921       -3.3199754884       40.2113795512  LPSA3     8               5.0000000000
      2674        80  AGLC      H5              6.4533970439       -4.3684164268       39.8746584482  LPSA3     8               5.0000000000
      2675        80  AGLC      O5              7.3831064213       -2.5486515302       39.6039256651  LPSA3     8               5.0000000000
      2676        80  AGLC      C2              8.8726592000       -2.9126457026       41.4397781546  LPSA3     8               5.0000000000
      2677        80  AGLC      H2              8.6896458861       -1.8494696524       41.7093400350  LPSA3     8               5.0000000000
      2678        80  AGLC      O2             10.1694403717       -3.2519624688       41.9496758037  LPSA3     8               5.0000000000
      2679        80  AGLC      C3              7.8423077778       -3.7673716000       42.1251430927  LPSA3     8               5.0000000000
      2680        80  AGLC      H3              7.9885619568       -4.8040985602       41.7191887984  LPSA3     8               5.0000000000
      2681        80  AGLC      O3              8.1401992096       -3.7906261533       43.5397700998  LPSA3     8               5.0000000000
      2682        80  AGLC      C4              6.4711742473       -3.2580798121       41.7245635197  LPSA3     8               5.0000000000
      2683        80  AGLC      H4              6.4068050702       -2.1866295165       42.0389465770  LPSA3     8               5.0000000000
      2684        80  AGLC      O4              5.4134282542       -3.9952271549       42.3409433456  LPSA3     8               5.0000000000
      2685        80  AGLC      HO4             5.7386906809       -4.8857047883       42.4398380585  LPSA3     8               5.0000000000
      2686        80  AGLC      C6              4.8974827274       -2.9284604153       39.7443509595  LPSA3     8               5.0000000000
      2687        80  AGLC      H61             4.8338979902       -2.8348016851       38.6329387405  LPSA3     8               5.0000000000
      2688        80  AGLC      H62             4.1692684969       -3.7141003729       40.0405946915  LPSA3     8               5.0000000000
      2689        80  AGLC      O6              4.4178352435       -1.7346498774       40.3593789992  LPSA3     8               5.0000000000
      2690        80  AGLC      HO6             4.0284176818       -1.9467755209       41.2152130726  LPSA3     8               5.0000000000
      2691        81  AGAL      C1             11.2747377121       -2.5435199779       41.4391255360  LPSA3     9               6.0000000000
      2692        81  AGAL      H1             11.2546936324       -2.5236045909       40.3323281459  LPSA3     9               6.0000000000
      2693        81  AGAL      C5             11.5334890133       -1.0673532743       43.2832772300  LPSA3     9               6.0000000000
      2694        81  AGAL      H5             10.7480960486       -1.7033220176       43.7468055086  LPSA3     9               6.0000000000
      2695        81  AGAL      O5             11.3356073906       -1.1711085053       41.8645280650  LPSA3     9               6.0000000000
      2696        81  AGAL      C2             12.5348786059       -3.2917975816       41.8484347414  LPSA3     9               6.0000000000
      2697        81  AGAL      H2             13.3667136266       -2.7248451800       41.3725033149  LPSA3     9               6.0000000000
      2698        81  AGAL      O2             12.4758230937       -4.5926729449       41.2088152519  LPSA3     9               6.0000000000
      2699        81  AGAL      C3             12.7530393551       -3.2117563974       43.3515912830  LPSA3     9               6.0000000000
      2700        81  AGAL      H3             11.8953567918       -3.6759385637       43.8872674032  LPSA3     9               6.0000000000
      2701        81  AGAL      O3             13.8997898215       -3.9335165077       43.7744281063  LPSA3     9               6.0000000000
      2702        81  AGAL      HO3            13.9513007608       -4.6812509121       43.1612212482  LPSA3     9               6.0000000000
      2703        81  AGAL      C4             12.8500620509       -1.7328013085       43.7004089657  LPSA3     9               6.0000000000
      2704        81  AGAL      H4             12.9562938755       -1.6145030378       44.7929034567  LPSA3     9               6.0000000000
      2705        81  AGAL      O4             14.0191201564       -1.1358671892       43.1551856764  LPSA3     9               6.0000000000
      2706        81  AGAL      HO4            14.1087815142       -0.2618119995       43.5303947295  LPSA3     9               6.0000000000
      2707        81  AGAL      C6             11.2811083925        0.3337862388       43.8504987782  LPSA3     9               6.0000000000
      2708        81  AGAL      H61            10.2447657626        0.6580835266       43.6021562345  LPSA3     9               6.0000000000
      2709        81  AGAL      H62            11.3314955388        0.3079283710       44.9584819792  LPSA3     9               6.0000000000
      2710        81  AGAL      O6             12.2129259665        1.3276271397       43.4246191709  LPSA3     9               6.0000000000
      2711        81  AGAL      HO6            11.8064737464        1.7874603982       42.6753234449  LPSA3     9               6.0000000000
      2712        82  AGAL      C1             12.9226548784       -5.8275166728       41.7507776067  LPSA3     10              7.0000000000
      2713        82  AGAL      H1             14.0294572340       -5.8228346639       41.8423116270  LPSA3     10              7.0000000000
      2714        82  AGAL      C5             10.9452850909       -6.3413301201       43.0475080359  LPSA3     10              7.0000000000
      2715        82  AGAL      H5             10.5394034324       -5.3909594378       42.6414403727  LPSA3     10              7.0000000000
      2716        82  AGAL      O5             12.3803774868       -6.1743248640       43.0518329881  LPSA3     10              7.0000000000
      2717        82  AGAL      C2             12.5387682748       -6.9097860358       40.7508397039  LPSA3     10              7.0000000000
      2718        82  AGAL      H2             12.9663662219       -7.8647456492       41.1232032978  LPSA3     10              7.0000000000
      2719        82  AGAL      O2             13.1504677182       -6.7562868239       39.4697987216  LPSA3     10              7.0000000000
      2720        82  AGAL      HO2            13.5566604642       -7.6156016747       39.3061554076  LPSA3     10              7.0000000000
      2721        82  AGAL      C3             11.0237175538       -7.0408250665       40.6966132385  LPSA3     10              7.0000000000
      2722        82  AGAL      H3             10.5984605690       -6.0420072827       40.4436276728  LPSA3     10              7.0000000000
      2723        82  AGAL      O3             10.5856529591       -7.9602127522       39.6989559060  LPSA3     10              7.0000000000
      2724        82  AGAL      HO3            10.0828015661       -7.5241844918       39.0034865410  LPSA3     10              7.0000000000
      2725        82  AGAL      C4             10.5359596737       -7.4285075211       42.0766937739  LPSA3     10              7.0000000000
      2726        82  AGAL      H4              9.4286645850       -7.4481354991       42.0909455806  LPSA3     10              7.0000000000
      2727        82  AGAL      O4             11.0277004267       -8.7065515304       42.4743517900  LPSA3     10              7.0000000000
      2728        82  AGAL      HO4            11.9697456442       -8.6058139734       42.5987802305  LPSA3     10              7.0000000000
      2729        82  AGAL      C6             10.2666665328       -6.4508206314       44.4224605961  LPSA3     10              7.0000000000
      2730        82  AGAL      H61            10.6577690670       -5.6746012400       45.1014729580  LPSA3     10              7.0000000000
      2731        82  AGAL      H62             9.1746344238       -6.2769650365       44.2749032964  LPSA3     10              7.0000000000
      2732        82  AGAL      O6             10.3727991373       -7.6994817867       45.0931885713  LPSA3     10              7.0000000000
      2733        82  AGAL      HO6            10.8940655925       -7.6435155723       45.9026866599  LPSA3     10              7.0000000000
      2734        83  BGLC      C1              7.5206076858       -2.9350691541       44.4915845485  LPSA3     11              6.0000000000
      2735        83  BGLC      H1              6.4617581203       -3.2357053714       44.6201867403  LPSA3     11              6.0000000000
      2736        83  BGLC      C5              7.1452037021       -0.6785582169       45.2149356483  LPSA3     11              6.0000000000
      2737        83  BGLC      H5              6.0692450580       -0.9148628727       45.5086397243  LPSA3     11              6.0000000000
      2738        83  BGLC      O5              7.6475821071       -1.5556323531       44.1609701339  LPSA3     11              6.0000000000
      2739        83  BGLC      C2              8.2761315264       -3.1313031460       45.7927329744  LPSA3     11              6.0000000000
      2740        83  BGLC      H2              9.3402016369       -2.8928753450       45.6079237316  LPSA3     11              6.0000000000
      2741        83  BGLC      O2              8.2289852190       -4.4892507816       46.1919474943  LPSA3     11              6.0000000000
      2742        83  BGLC      HO2             9.1131931766       -4.8483525610       46.2995686803  LPSA3     11              6.0000000000
      2743        83  BGLC      C3              7.8023447587       -2.2442872630       46.9235753281  LPSA3     11              6.0000000000
      2744        83  BGLC      H3              6.7472869246       -2.4916261043       47.1833805797  LPSA3     11              6.0000000000
      2745        83  BGLC      O3              8.6788082983       -2.3866289843       48.0557920267  LPSA3     11              6.0000000000
      2746        83  BGLC      C4              7.9358105176       -0.8224786403       46.4659133896  LPSA3     11              6.0000000000
      2747        83  BGLC      H4              8.9873759921       -0.5787085835       46.2031114897  LPSA3     11              6.0000000000
      2748        83  BGLC      O4              7.5148580528        0.1046516843       47.4542775821  LPSA3     11              6.0000000000
      2749        83  BGLC      HO4             8.1873793610        0.1498817460       48.1459466198  LPSA3     11              6.0000000000
      2750        83  BGLC      C6              7.1837825400        0.6489831257       44.6134366429  LPSA3     11              6.0000000000
      2751        83  BGLC      H61             7.0170913152        1.5175925191       45.3042901863  LPSA3     11              6.0000000000
      2752        83  BGLC      H62             8.0365257159        0.8961495846       43.9528236776  LPSA3     11              6.0000000000
      2753        83  BGLC      O6              6.1114982638        0.4964816727       43.7464731521  LPSA3     11              6.0000000000
      2754        83  BGLC      HO6             5.5538876682        1.2789926654       43.8887611971  LPSA3     11              6.0000000000
      2755        84  BGLCNA    C1              8.1220514558       -2.6836529106       49.3226849661  LPSA3     12              7.0000000000
      2756        84  BGLCNA    H1              7.9701098343       -3.7792385393       49.3884996668  LPSA3     12              7.0000000000
      2757        84  BGLCNA    C5              6.3546764741       -2.3836412713       50.8697420203  LPSA3     12              7.0000000000
      2758        84  BGLCNA    H5              6.1876885835       -3.4857506960       50.9605783702  LPSA3     12              7.0000000000
      2759        84  BGLCNA    O5              6.8842107989       -2.0390866375       49.5760380008  LPSA3     12              7.0000000000
      2760        84  BGLCNA    C2              9.1369214149       -2.2309790035       50.3548574513  LPSA3     12              7.0000000000
      2761        84  BGLCNA    H2              9.1532876220       -1.1092880661       50.3021630182  LPSA3     12              7.0000000000
      2762        84  BGLCNA    N              10.4211152221       -2.8005154245       50.0457082732  LPSA3     12              7.0000000000
      2763        84  BGLCNA    HN             10.4085628817       -3.7897109179       50.0100165399  LPSA3     12              7.0000000000
      2764        84  BGLCNA    C              11.5306837503       -2.0737116497       49.9195971123  LPSA3     12              7.0000000000
      2765        84  BGLCNA    O              11.5369114388       -0.8659157973       50.0708518368  LPSA3     12              7.0000000000
      2766        84  BGLCNA    CT             12.7901459800       -2.8014754207       49.5654889914  LPSA3     12              7.0000000000
      2767        84  BGLCNA    HT1            13.4972544328       -2.7849316666       50.4186609140  LPSA3     12              7.0000000000
      2768        84  BGLCNA    HT2            13.3093690278       -2.2972329412       48.7327903312  LPSA3     12              7.0000000000
      2769        84  BGLCNA    HT3            12.5598008025       -3.8365036279       49.2496214075  LPSA3     12              7.0000000000
      2770        84  BGLCNA    C3              8.7000869435       -2.6012347076       51.7618437900  LPSA3     12              7.0000000000
      2771        84  BGLCNA    H3              8.6031488889       -3.7087898007       51.8061655695  LPSA3     12              7.0000000000
      2772        84  BGLCNA    O3              9.6805028352       -2.2243842164       52.7690570413  LPSA3     12              7.0000000000
      2773        84  BGLCNA    C4              7.3433890848       -1.9353717039       51.9521993637  LPSA3     12              7.0000000000
      2774        84  BGLCNA    H4              7.4488130636       -0.8250106001       51.8852859976  LPSA3     12              7.0000000000
      2775        84  BGLCNA    O4              6.8132137096       -2.2149626276       53.2328215211  LPSA3     12              7.0000000000
      2776        84  BGLCNA    HO4             6.5538176789       -3.1414797010       53.2832210610  LPSA3     12              7.0000000000
      2777        84  BGLCNA    C6              4.9973264755       -1.7206890766       50.9319490699  LPSA3     12              7.0000000000
      2778        84  BGLCNA    H61             4.5263141750       -1.9213082018       51.9116283419  LPSA3     12              7.0000000000
      2779        84  BGLCNA    H62             5.1177026650       -0.6197620865       50.8183816248  LPSA3     12              7.0000000000
      2780        84  BGLCNA    O6              4.1161255217       -2.2063252777       49.9146688142  LPSA3     12              7.0000000000
      2781        84  BGLCNA    HO6             3.6718729709       -2.9886724779       50.2439556372  LPSA3     12              7.0000000000
      2782        85  AGAL      C1              9.8760949241       -3.1465231866       53.8471778228  LPSA3     13              8.0000000000
      2783        85  AGAL      H1              8.8834984513       -3.5524090598       54.1575314940  LPSA3     13              8.0000000000
      2784        85  AGAL      C5             12.1439694732       -3.7358615747       53.2739104498  LPSA3     13              8.0000000000
      2785        85  AGAL      H5             12.0424857908       -2.8993090645       52.5430953589  LPSA3     13              8.0000000000
      2786        85  AGAL      O5             10.7898027197       -4.2116732049       53.4892303780  LPSA3     13              8.0000000000
      2787        85  AGAL      C2             10.4902320006       -2.5324559114       55.1168621194  LPSA3     13              8.0000000000
      2788        85  AGAL      H2             10.6474876045       -3.3969094031       55.8032726333  LPSA3     13              8.0000000000
      2789        85  AGAL      O2              9.5504791858       -1.6572536872       55.7565519837  LPSA3     13              8.0000000000
      2790        85  AGAL      C3             11.8944570631       -1.9676324836       54.9019348374  LPSA3     13              8.0000000000
      2791        85  AGAL      H3             11.8606384406       -1.2812503206       54.0245486283  LPSA3     13              8.0000000000
      2792        85  AGAL      O3             12.4285577462       -1.2183599858       56.0033899003  LPSA3     13              8.0000000000
      2793        85  AGAL      HO3            12.8344600370       -0.4145470352       55.6421200490  LPSA3     13              8.0000000000
      2794        85  AGAL      C4             12.7799984419       -3.1208616784       54.5175293726  LPSA3     13              8.0000000000
      2795        85  AGAL      H4             13.7828158814       -2.7222100600       54.2267281419  LPSA3     13              8.0000000000
      2796        85  AGAL      O4             12.9818445476       -4.0384502636       55.5985038024  LPSA3     13              8.0000000000
      2797        85  AGAL      HO4            12.1364197295       -4.3045612500       55.9687229253  LPSA3     13              8.0000000000
      2798        85  AGAL      C6             13.0689339634       -4.6945025136       52.5498959137  LPSA3     13              8.0000000000
      2799        85  AGAL      H61            12.5834587055       -5.0327402629       51.6088901616  LPSA3     13              8.0000000000
      2800        85  AGAL      H62            14.0062600092       -4.1392336437       52.3079150336  LPSA3     13              8.0000000000
      2801        85  AGAL      O6             13.4402219002       -5.8351861148       53.3082627762  LPSA3     13              8.0000000000
      2802        85  AGAL      HO6            14.0747295734       -5.5647855603       53.9796204671  LPSA3     13              8.0000000000
      2803        86  ARHM      C1              9.0383731504       -2.0610820539       57.0095979291  LPSA3     14              9.0000000000
      2804        86  ARHM      H1              9.0018756995       -3.1714077395       57.0465194107  LPSA3     14              9.0000000000
      2805        86  ARHM      C5              7.6284356254       -0.1621640364       57.1844513160  LPSA3     14              9.0000000000
      2806        86  ARHM      H5              8.0331761365        0.1885369635       56.2081126195  LPSA3     14              9.0000000000
      2807        86  ARHM      O5              7.6994856907       -1.5994114014       57.1862741286  LPSA3     14              9.0000000000
      2808        86  ARHM      C2              9.9263592200       -1.5069593827       58.1110087873  LPSA3     14              9.0000000000
      2809        86  ARHM      H2             10.9636132814       -1.8587549554       57.9274128128  LPSA3     14              9.0000000000
      2810        86  ARHM      O2              9.5526920640       -1.8399801601       59.4608220032  LPSA3     14              9.0000000000
      2811        86  ARHM      C3              9.8819191599       -0.0022884920       58.0543363573  LPSA3     14              9.0000000000
      2812        86  ARHM      H3             10.1109515280        0.3310013026       57.0167699998  LPSA3     14              9.0000000000
      2813        86  ARHM      O3             10.8756712799        0.6143110492       58.8707141635  LPSA3     14              9.0000000000
      2814        86  ARHM      HO3            10.6046759466        0.4976315750       59.7863592577  LPSA3     14              9.0000000000
      2815        86  ARHM      C4              8.4536329696        0.4320882076       58.3251699075  LPSA3     14              9.0000000000
      2816        86  ARHM      H4              8.0519099997        0.0061018082       59.2786382407  LPSA3     14              9.0000000000
      2817        86  ARHM      O4              8.3364485556        1.8544751405       58.3957203625  LPSA3     14              9.0000000000
      2818        86  ARHM      HO4             8.1180657277        2.1520691372       59.2825467745  LPSA3     14              9.0000000000
      2819        86  ARHM      C6              6.1616192639        0.2496062719       57.2749141738  LPSA3     14              9.0000000000
      2820        86  ARHM      H61             5.5591242088       -0.3020941258       56.5579246258  LPSA3     14              9.0000000000
      2821        86  ARHM      H62             5.7969825402        0.0913798094       58.3104734771  LPSA3     14              9.0000000000
      2822        86  ARHM      H63             5.9884029067        1.3013316598       56.9977549959  LPSA3     14              9.0000000000
      2823        87  ARHM      C1              9.3450230767       -3.1967082775       59.7460553889  LPSA3     15             10.0000000000
      2824        87  ARHM      H1              9.9397558633       -3.8268557245       59.0451507731  LPSA3     15             10.0000000000
      2825        87  ARHM      C5              7.0844080482       -2.9708160900       60.6384240662  LPSA3     15             10.0000000000
      2826        87  ARHM      H5              7.0026003426       -1.8716940303       60.4469333773  LPSA3     15             10.0000000000
      2827        87  ARHM      O5              7.9533116211       -3.6016187192       59.6737259267  LPSA3     15             10.0000000000
      2828        87  ARHM      C2              9.8760806648       -3.4591109296       61.1400956849  LPSA3     15             10.0000000000
      2829        87  ARHM      H2             10.9180416855       -3.0710419043       61.2150597703  LPSA3     15             10.0000000000
      2830        87  ARHM      O2              9.8977609611       -4.8874956660       61.3016458372  LPSA3     15             10.0000000000
      2831        87  ARHM      C3              9.0282005798       -2.7182026403       62.1351192650  LPSA3     15             10.0000000000
      2832        87  ARHM      H3              8.9948813270       -1.6403853988       61.8425940935  LPSA3     15             10.0000000000
      2833        87  ARHM      O3              9.6699256977       -2.8218101203       63.4057481751  LPSA3     15             10.0000000000
      2834        87  ARHM      C4              7.6160075529       -3.2591240478       62.0371848109  LPSA3     15             10.0000000000
      2835        87  ARHM      H4              7.6594280295       -4.3673256523       62.1527704299  LPSA3     15             10.0000000000
      2836        87  ARHM      O4              6.7203489883       -2.7788953620       63.0409460919  LPSA3     15             10.0000000000
      2837        87  ARHM      HO4             5.8949570754       -3.2630826452       62.9434000504  LPSA3     15             10.0000000000
      2838        87  ARHM      C6              5.6700686068       -3.5644437230       60.4591883785  LPSA3     15             10.0000000000
      2839        87  ARHM      H61             4.9077463841       -3.0064889426       61.0442611926  LPSA3     15             10.0000000000
      2840        87  ARHM      H62             5.4051831261       -3.5541263320       59.3812665998  LPSA3     15             10.0000000000
      2841        87  ARHM      H63             5.6343969244       -4.6134776985       60.8175082679  LPSA3     15             10.0000000000
      2842        88  BMANNA    C1             10.3508998102       -5.4687341848       62.5056840698  LPSA3     16             11.0000000000
      2843        88  BMANNA    H1              9.6127995365       -5.2448305659       63.3113359684  LPSA3     16             11.0000000000
      2844        88  BMANNA    C5             12.0149247070       -5.5717359926       64.2048985978  LPSA3     16             11.0000000000
      2845        88  BMANNA    H5             11.2199920425       -5.3344737609       64.9587408889  LPSA3     16             11.0000000000
      2846        88  BMANNA    O5             11.6497680114       -5.0136007473       62.9223186233  LPSA3     16             11.0000000000
      2847        88  BMANNA    C2             10.3968834365       -6.9841295335       62.3137632198  LPSA3     16             11.0000000000
      2848        88  BMANNA    H2              9.3610911136       -7.2770368323       62.0389656925  LPSA3     16             11.0000000000
      2849        88  BMANNA    N              11.2822548035       -7.4561756790       61.2547609800  LPSA3     16             11.0000000000
      2850        88  BMANNA    HN             12.1966211263       -7.6895807836       61.5559515055  LPSA3     16             11.0000000000
      2851        88  BMANNA    C              10.9435955719       -7.6843590567       59.9813466995  LPSA3     16             11.0000000000
      2852        88  BMANNA    O               9.8302415222       -7.4697814251       59.5138405430  LPSA3     16             11.0000000000
      2853        88  BMANNA    CT             12.0661376424       -8.1440965593       59.0771849689  LPSA3     16             11.0000000000
      2854        88  BMANNA    HT1            11.9860958672       -9.2211448978       58.8794001421  LPSA3     16             11.0000000000
      2855        88  BMANNA    HT2            13.0488533995       -7.9474490078       59.5484445684  LPSA3     16             11.0000000000
      2856        88  BMANNA    HT3            12.0021610281       -7.5851638636       58.1180954269  LPSA3     16             11.0000000000
      2857        88  BMANNA    C3             10.7574722706       -7.6081438554       63.6552321535  LPSA3     16             11.0000000000
      2858        88  BMANNA    H3              9.9874590935       -7.3109731798       64.4004342469  LPSA3     16             11.0000000000
      2859        88  BMANNA    O3             10.7781793697       -9.0243944408       63.5848768044  LPSA3     16             11.0000000000
      2860        88  BMANNA    HO3            10.1211874654       -9.3428917130       64.2182730966  LPSA3     16             11.0000000000
      2861        88  BMANNA    C4             12.0909406127       -7.0852892045       64.1276685369  LPSA3     16             11.0000000000
      2862        88  BMANNA    H4             12.8351897008       -7.4120158330       63.3928418581  LPSA3     16             11.0000000000
      2863        88  BMANNA    O4             12.5260358852       -7.6224617962       65.3753843983  LPSA3     16             11.0000000000
      2864        88  BMANNA    HO4            13.4882918953       -7.5668650536       65.4130960784  LPSA3     16             11.0000000000
      2865        88  BMANNA    C6             13.2944273909       -4.9674527930       64.7609350037  LPSA3     16             11.0000000000
      2866        88  BMANNA    H61            13.2322505936       -5.0221375391       65.8696859314  LPSA3     16             11.0000000000
      2867        88  BMANNA    H62            14.1728896723       -5.5685356014       64.4540979200  LPSA3     16             11.0000000000
      2868        88  BMANNA    O6             13.5530981775       -3.6146969543       64.3855997446  LPSA3     16             11.0000000000
      2869        88  BMANNA    HO6            14.3742439194       -3.5958825976       63.8814133295  LPSA3     16             11.0000000000
      2870        89  BGLCNA    C1              9.6567279959       -1.6274224229       64.1403573589  LPSA3     17             11.0000000000
      2871        89  BGLCNA    H1              8.6758620592       -1.1311229353       63.9821190661  LPSA3     17             11.0000000000
      2872        89  BGLCNA    C5             10.7052673928        0.5007342306       64.5632893218  LPSA3     17             11.0000000000
      2873        89  BGLCNA    H5              9.7616716723        1.0589254389       64.3559265149  LPSA3     17             11.0000000000
      2874        89  BGLCNA    O5             10.7052687187       -0.7128414372       63.7797973179  LPSA3     17             11.0000000000
      2875        89  BGLCNA    C2              9.8212700326       -2.0858818415       65.5769794765  LPSA3     17             11.0000000000
      2876        89  BGLCNA    H2             10.8302944349       -2.5380405224       65.7473407816  LPSA3     17             11.0000000000
      2877        89  BGLCNA    N               8.8411371030       -3.1153586659       65.8762579838  LPSA3     17             11.0000000000
      2878        89  BGLCNA    HN              7.9995788948       -3.0606061797       65.3564633990  LPSA3     17             11.0000000000
      2879        89  BGLCNA    C               8.9397286144       -4.0699336348       66.8082150353  LPSA3     17             11.0000000000
      2880        89  BGLCNA    O               9.9363300224       -4.3035698823       67.4675213003  LPSA3     17             11.0000000000
      2881        89  BGLCNA    CT              7.6811911321       -4.8508863108       67.0485346594  LPSA3     17             11.0000000000
      2882        89  BGLCNA    HT1             7.7165402867       -5.8425657964       66.5589358691  LPSA3     17             11.0000000000
      2883        89  BGLCNA    HT2             6.8224837643       -4.2558006379       66.6795700518  LPSA3     17             11.0000000000
      2884        89  BGLCNA    HT3             7.5441870978       -5.0247500528       68.1327270413  LPSA3     17             11.0000000000
      2885        89  BGLCNA    C3              9.6886309394       -0.8390524713       66.4324463873  LPSA3     17             11.0000000000
      2886        89  BGLCNA    H3              8.7367612047       -0.3670610485       66.0964555797  LPSA3     17             11.0000000000
      2887        89  BGLCNA    O3              9.5553820310       -1.2084636107       67.8331369917  LPSA3     17             11.0000000000
      2888        89  BGLCNA    C4             10.8281139432        0.1097086137       66.0453174436  LPSA3     17             11.0000000000
      2889        89  BGLCNA    H4             11.8036599927       -0.4300491422       66.1397679549  LPSA3     17             11.0000000000
      2890        89  BGLCNA    O4             10.8618480270        1.2579231660       66.8941450795  LPSA3     17             11.0000000000
      2891        89  BGLCNA    HO4            11.6478828771        1.7935140376       66.7311181674  LPSA3     17             11.0000000000
      2892        89  BGLCNA    C6             11.8589285038        1.4103192483       64.1246015177  LPSA3     17             11.0000000000
      2893        89  BGLCNA    H61            11.5560001694        2.4762815295       64.1726715415  LPSA3     17             11.0000000000
      2894        89  BGLCNA    H62            12.7311746476        1.2715450835       64.8036008646  LPSA3     17             11.0000000000
      2895        89  BGLCNA    O6             12.3275099075        1.1775245522       62.8028799713  LPSA3     17             11.0000000000
      2896        89  BGLCNA    HO6            11.6103675303        1.2066510524       62.1720781202  LPSA3     17             11.0000000000
      2897        90  AGAL      C1              8.7070529465       -0.3893681391       68.6250099430  LPSA3     18             12.0000000000
      2898        90  AGAL      H1              9.2216754451        0.5810635391       68.8118708264  LPSA3     18             12.0000000000
      2899        90  AGAL      C5              6.6412249962       -1.2876696378       67.8541399978  LPSA3     18             12.0000000000
      2900        90  AGAL      H5              7.2642503449       -2.0782565741       67.4034138098  LPSA3     18             12.0000000000
      2901        90  AGAL      O5              7.4571755702       -0.1096550336       67.9830041787  LPSA3     18             12.0000000000
      2902        90  AGAL      C2              8.3422682027       -0.9941550960       69.9720246042  LPSA3     18             12.0000000000
      2903        90  AGAL      H2              7.6480751897       -0.2292182616       70.3983556239  LPSA3     18             12.0000000000
      2904        90  AGAL      O2              9.4485734903       -1.0614258617       70.8687401990  LPSA3     18             12.0000000000
      2905        90  AGAL      C3              7.5214825862       -2.2826357725       69.8461976105  LPSA3     18             12.0000000000
      2906        90  AGAL      H3              8.0746808350       -2.9715267881       69.1672813959  LPSA3     18             12.0000000000
      2907        90  AGAL      O3              7.3325752425       -2.9853343604       71.0765983189  LPSA3     18             12.0000000000
      2908        90  AGAL      HO3             7.5490990701       -3.9216169138       70.9892370383  LPSA3     18             12.0000000000
      2909        90  AGAL      C4              6.2113795371       -1.9218550541       69.1701787735  LPSA3     18             12.0000000000
      2910        90  AGAL      H4              5.6250123849       -2.8392080932       68.9347318750  LPSA3     18             12.0000000000
      2911        90  AGAL      O4              5.3752298065       -1.0862107900       69.9635213982  LPSA3     18             12.0000000000
      2912        90  AGAL      HO4             5.0536224118       -1.6030028022       70.7175173146  LPSA3     18             12.0000000000
      2913        90  AGAL      C6              5.6244294955       -1.0790312213       66.7770826918  LPSA3     18             12.0000000000
      2914        90  AGAL      H61             6.1879536616       -0.8742394491       65.8358168073  LPSA3     18             12.0000000000
      2915        90  AGAL      H62             5.0306093074       -2.0050929750       66.6314396940  LPSA3     18             12.0000000000
      2916        90  AGAL      O6              4.7386164205       -0.0055313893       67.0371416259  LPSA3     18             12.0000000000
      2917        90  AGAL      HO6             5.1101330650        0.6178053667       67.6770270409  LPSA3     18             12.0000000000
      2918        91  ARHM      C1              9.0507129093       -0.6798023433       72.1656849062  LPSA3     19             13.0000000000
      2919        91  ARHM      H1              7.9794870369       -0.9111911497       72.3493361935  LPSA3     19             13.0000000000
      2920        91  ARHM      C5             10.5122010030        1.1954104284       72.2579727901  LPSA3     19             13.0000000000
      2921        91  ARHM      H5             10.8235311912        0.9250112042       71.2214670239  LPSA3     19             13.0000000000
      2922        91  ARHM      O5              9.1781386092        0.7204434604       72.4251327029  LPSA3     19             13.0000000000
      2923        91  ARHM      C2              9.9358346415       -1.4224421901       73.1130219124  LPSA3     19             13.0000000000
      2924        91  ARHM      H2              9.9338171562       -2.5143994794       72.8704750043  LPSA3     19             13.0000000000
      2925        91  ARHM      O2              9.4648412139       -1.2673809960       74.4548720912  LPSA3     19             13.0000000000
      2926        91  ARHM      C3             11.3552161932       -0.9556866186       72.9675462573  LPSA3     19             13.0000000000
      2927        91  ARHM      H3             11.6758045192       -1.0915684547       71.9115464915  LPSA3     19             13.0000000000
      2928        91  ARHM      O3             12.1972789423       -1.7590209415       73.7802253123  LPSA3     19             13.0000000000
      2929        91  ARHM      HO3            11.8594524760       -1.6507424504       74.6746318339  LPSA3     19             13.0000000000
      2930        91  ARHM      C4             11.4291742670        0.5214229244       73.2507890364  LPSA3     19             13.0000000000
      2931        91  ARHM      H4             11.0780276098        0.7177274011       74.2891003240  LPSA3     19             13.0000000000
      2932        91  ARHM      O4             12.7440784483        1.0302488414       73.1632634558  LPSA3     19             13.0000000000
      2933        91  ARHM      HO4            13.0669078469        0.9934232184       72.2598253707  LPSA3     19             13.0000000000
      2934        91  ARHM      C6             10.5370810330        2.7218758237       72.3001032696  LPSA3     19             13.0000000000
      2935        91  ARHM      H61             9.9010587019        3.0674628368       71.4603056538  LPSA3     19             13.0000000000
      2936        91  ARHM      H62            10.1911131374        3.1682478218       73.2505845225  LPSA3     19             13.0000000000
      2937        91  ARHM      H63            11.5553963086        3.0903438817       72.0935890342  LPSA3     19             13.0000000000
      2938        92  ARHM      C1              8.2983440746       -2.0100640462       74.7023953115  LPSA3     20             14.0000000000
      2939        92  ARHM      H1              8.0867056825       -2.7224580494       73.8709280370  LPSA3     20             14.0000000000
      2940        92  ARHM      C5              7.1911334897       -0.3382547681       75.9743035539  LPSA3     20             14.0000000000
      2941        92  ARHM      H5              8.0739642771        0.3212233242       75.8171654098  LPSA3     20             14.0000000000
      2942        92  ARHM      O5              7.1155588193       -1.2158176905       74.8480607067  LPSA3     20             14.0000000000
      2943        92  ARHM      C2              8.5528801964       -2.8041104773       75.9493628259  LPSA3     20             14.0000000000
      2944        92  ARHM      H2              9.5406600399       -3.3278648590       75.8464754467  LPSA3     20             14.0000000000
      2945        92  ARHM      O2              7.5044681877       -3.7493364542       76.1618244615  LPSA3     20             14.0000000000
      2946        92  ARHM      C3              8.6547729864       -1.9051484838       77.1283440378  LPSA3     20             14.0000000000
      2947        92  ARHM      H3              9.4861157533       -1.1771170031       76.9583696463  LPSA3     20             14.0000000000
      2948        92  ARHM      O3              8.9381947724       -2.7198853750       78.2658870187  LPSA3     20             14.0000000000
      2949        92  ARHM      C4              7.3721343449       -1.1433043719       77.2497061463  LPSA3     20             14.0000000000
      2950        92  ARHM      H4              6.4717341166       -1.7995562585       77.3326126986  LPSA3     20             14.0000000000
      2951        92  ARHM      O4              7.4117852449       -0.2775117828       78.3741097351  LPSA3     20             14.0000000000
      2952        92  ARHM      HO4             6.8037320082        0.4167483654       78.1067465094  LPSA3     20             14.0000000000
      2953        92  ARHM      C6              5.9386270098        0.5541578515       76.0481999296  LPSA3     20             14.0000000000
      2954        92  ARHM      H61             4.9844860956       -0.0041008437       76.1150856781  LPSA3     20             14.0000000000
      2955        92  ARHM      H62             6.0376631348        1.3278177136       76.8283137362  LPSA3     20             14.0000000000
      2956        92  ARHM      H63             5.8473944675        1.1197969268       75.1401530395  LPSA3     20             14.0000000000
      2957        93  BMANNA    C1              7.7401320754       -4.8970792031       75.4089778363  LPSA3     21             15.0000000000
      2958        93  BMANNA    H1              8.5989366666       -4.7311023067       74.7164687543  LPSA3     21             15.0000000000
      2959        93  BMANNA    C5              7.0502626389       -6.2897667529       73.6480467689  LPSA3     21             15.0000000000
      2960        93  BMANNA    H5              7.9737201532       -6.0420881607       73.0877985664  LPSA3     21             15.0000000000
      2961        93  BMANNA    O5              6.6790208514       -5.1984857185       74.5088512680  LPSA3     21             15.0000000000
      2962        93  BMANNA    C2              8.0454024740       -6.0528762830       76.3514935300  LPSA3     21             15.0000000000
      2963        93  BMANNA    H2              8.9486057268       -5.7227279819       76.9286219521  LPSA3     21             15.0000000000
      2964        93  BMANNA    N               6.9635798438       -6.3953937636       77.2965948809  LPSA3     21             15.0000000000
      2965        93  BMANNA    HN              6.0519994261       -6.3592043827       76.9025047434  LPSA3     21             15.0000000000
      2966        93  BMANNA    C               7.1357458088       -6.7621321760       78.5931325254  LPSA3     21             15.0000000000
      2967        93  BMANNA    O               8.2364078917       -7.0785455265       79.0243576496  LPSA3     21             15.0000000000
      2968        93  BMANNA    CT              5.9167893509       -6.8303105458       79.4874098712  LPSA3     21             15.0000000000
      2969        93  BMANNA    HT1             5.3452993901       -7.7571909111       79.2888766029  LPSA3     21             15.0000000000
      2970        93  BMANNA    HT2             5.2874693444       -5.9336059461       79.3231290839  LPSA3     21             15.0000000000
      2971        93  BMANNA    HT3             6.2200962660       -6.8246334336       80.5599285818  LPSA3     21             15.0000000000
      2972        93  BMANNA    C3              8.4506801241       -7.1976888071       75.4662330648  LPSA3     21             15.0000000000
      2973        93  BMANNA    H3              9.3561361948       -6.8594117219       74.9099054779  LPSA3     21             15.0000000000
      2974        93  BMANNA    O3              8.8357276324       -8.3243526111       76.2286321270  LPSA3     21             15.0000000000
      2975        93  BMANNA    HO3             8.1038564678       -8.5480518690       76.8039974302  LPSA3     21             15.0000000000
      2976        93  BMANNA    C4              7.3463027206       -7.5085541146       74.4774496073  LPSA3     21             15.0000000000
      2977        93  BMANNA    H4              6.4157487655       -7.7837092827       75.0128079589  LPSA3     21             15.0000000000
      2978        93  BMANNA    O4              7.6600612906       -8.5686601729       73.6011494294  LPSA3     21             15.0000000000
      2979        93  BMANNA    HO4             7.1169622033       -9.3384513509       73.7629141777  LPSA3     21             15.0000000000
      2980        93  BMANNA    C6              6.0007159323       -6.5707390530       72.6019070974  LPSA3     21             15.0000000000
      2981        93  BMANNA    H61             6.4261711215       -7.2173375467       71.8031226483  LPSA3     21             15.0000000000
      2982        93  BMANNA    H62             5.2011879900       -7.1505779545       73.0871753552  LPSA3     21             15.0000000000
      2983        93  BMANNA    O6              5.4269707876       -5.3941760962       72.0312630888  LPSA3     21             15.0000000000
      2984        93  BMANNA    HO6             5.0981750503       -4.8857530034       72.7863111470  LPSA3     21             15.0000000000
      2985        94  BGLCNA    C1              9.7715577334       -2.1564854956       79.2393743076  LPSA3     22             15.0000000000
      2986        94  BGLCNA    H1              9.7175238456       -1.0445602050       79.2378233695  LPSA3     22             15.0000000000
      2987        94  BGLCNA    C5             11.9698215329       -2.0525746567       80.1001103947  LPSA3     22             15.0000000000
      2988        94  BGLCNA    H5             11.8380530492       -0.9506657983       80.1066192117  LPSA3     22             15.0000000000
      2989        94  BGLCNA    O5             11.1246315881       -2.5803138009       79.0689638097  LPSA3     22             15.0000000000
      2990        94  BGLCNA    C2              9.2561382146       -2.6886740662       80.5485737653  LPSA3     22             15.0000000000
      2991        94  BGLCNA    H2              9.3384448415       -3.8068307582       80.4976715491  LPSA3     22             15.0000000000
      2992        94  BGLCNA    N               7.8745147768       -2.3087114421       80.7317204665  LPSA3     22             15.0000000000
      2993        94  BGLCNA    HN              7.6239652990       -1.4091041056       80.3927719436  LPSA3     22             15.0000000000
      2994        94  BGLCNA    C               6.9527722060       -3.0484157559       81.3518686201  LPSA3     22             15.0000000000
      2995        94  BGLCNA    O               7.1836909263       -4.1409342349       81.8475533507  LPSA3     22             15.0000000000
      2996        94  BGLCNA    CT              5.5844120131       -2.4193361053       81.3996059129  LPSA3     22             15.0000000000
      2997        94  BGLCNA    HT1             5.0184169501       -2.8430182719       80.5424820048  LPSA3     22             15.0000000000
      2998        94  BGLCNA    HT2             5.6601641715       -1.3216354937       81.2737081431  LPSA3     22             15.0000000000
      2999        94  BGLCNA    HT3             5.0764482132       -2.6438058269       82.3620955108  LPSA3     22             15.0000000000
      3000        94  BGLCNA    C3             10.1037942788       -2.1644555767       81.6843241546  LPSA3     22             15.0000000000
      3001        94  BGLCNA    H3             10.0802449454       -1.0490373350       81.6503472187  LPSA3     22             15.0000000000
      3002        94  BGLCNA    O3              9.4919057953       -2.6228193066       82.8999908816  LPSA3     22             15.0000000000
      3003        94  BGLCNA    C4             11.5291364214       -2.5904625086       81.4592020451  LPSA3     22             15.0000000000
      3004        94  BGLCNA    H4             11.5544852429       -3.6983158691       81.4137823113  LPSA3     22             15.0000000000
      3005        94  BGLCNA    O4             12.4041270940       -2.1698139706       82.5075393528  LPSA3     22             15.0000000000
      3006        94  BGLCNA    HO4            13.0478867050       -2.8535721670       82.7467034449  LPSA3     22             15.0000000000
      3007        94  BGLCNA    C6             13.3953946617       -2.4110122397       79.7682549382  LPSA3     22             15.0000000000
      3008        94  BGLCNA    H61            14.0090682627       -2.3003498016       80.6860456013  LPSA3     22             15.0000000000
      3009        94  BGLCNA    H62            13.4624021996       -3.4765184075       79.4526905167  LPSA3     22             15.0000000000
      3010        94  BGLCNA    O6             13.9742527059       -1.5514225251       78.7819431988  LPSA3     22             15.0000000000
      3011        94  BGLCNA    HO6            13.4767122435       -1.5434363254       77.9506952790  LPSA3     22             15.0000000000
      3012        95  AGAL      C1              9.7805725060       -1.9573551887       84.0969595250  LPSA3     23             16.0000000000
      3013        95  AGAL      H1             10.7902947964       -2.2551939995       84.4498243283  LPSA3     23             16.0000000000
      3014        95  AGAL      C5              8.4372883289       -0.0207549311       83.7126837974  LPSA3     23             16.0000000000
      3015        95  AGAL      H5              8.0345098776       -0.5123324725       82.8012373164  LPSA3     23             16.0000000000
      3016        95  AGAL      O5              9.7523839253       -0.5299562519       83.9838640317  LPSA3     23             16.0000000000
      3017        95  AGAL      C2              8.8141857392       -2.3904613726       85.1819141120  LPSA3     23             16.0000000000
      3018        95  AGAL      H2              9.1472586935       -1.8642395564       86.1021885622  LPSA3     23             16.0000000000
      3019        95  AGAL      O2              8.8935879032       -3.8063130115       85.4318915324  LPSA3     23             16.0000000000
      3020        95  AGAL      C3              7.3998613483       -1.8845236496       84.8785350894  LPSA3     23             16.0000000000
      3021        95  AGAL      H3              7.1122347333       -2.2216634387       83.8613623330  LPSA3     23             16.0000000000
      3022        95  AGAL      O3              6.4012405403       -2.3996391677       85.7691194850  LPSA3     23             16.0000000000
      3023        95  AGAL      HO3             6.7684589462       -2.3912513587       86.6513412288  LPSA3     23             16.0000000000
      3024        95  AGAL      C4              7.4641381718       -0.3658094714       84.8400747839  LPSA3     23             16.0000000000
      3025        95  AGAL      H4              6.4618111694        0.0782327879       84.6347074619  LPSA3     23             16.0000000000
      3026        95  AGAL      O4              7.9502176225        0.1457347666       86.0652934348  LPSA3     23             16.0000000000
      3027        95  AGAL      HO4             8.2623057800        1.0447919294       85.8503410818  LPSA3     23             16.0000000000
      3028        95  AGAL      C6              8.6328680578        1.4319562644       83.3474683110  LPSA3     23             16.0000000000
      3029        95  AGAL      H61             9.4367470832        1.5401046056       82.5952884539  LPSA3     23             16.0000000000
      3030        95  AGAL      H62             7.7677939642        1.7936923915       82.8066897153  LPSA3     23             16.0000000000
      3031        95  AGAL      O6              8.8899060933        2.2767980545       84.4673080859  LPSA3     23             16.0000000000
      3032        95  AGAL      HO6             9.0021466232        3.1939197406       84.1966051839  LPSA3     23             16.0000000000
      3033        96  ARHM      C1              9.9080541742       -4.2991818513       86.2863925921  LPSA3     24             17.0000000000
      3034        96  ARHM      H1             10.7093084376       -3.5327838883       86.3851162104  LPSA3     24             17.0000000000
      3035        96  ARHM      C5              9.6704610119       -6.5937106484       85.6362763040  LPSA3     24             17.0000000000
      3036        96  ARHM      H5              8.8661642921       -6.2782708704       84.9340816832  LPSA3     24             17.0000000000
      3037        96  ARHM      O5             10.5663758267       -5.4853463133       85.8102231913  LPSA3     24             17.0000000000
      3038        96  ARHM      C2              9.2358783109       -4.5768001433       87.6032511311  LPSA3     24             17.0000000000
      3039        96  ARHM      H2              8.6639924807       -3.6761779846       87.9290245828  LPSA3     24             17.0000000000
      3040        96  ARHM      O2             10.1910007772       -4.9517783975       88.6047300297  LPSA3     24             17.0000000000
      3041        96  ARHM      C3              8.2470912118       -5.7011032218       87.4288450281  LPSA3     24             17.0000000000
      3042        96  ARHM      H3              7.5208824559       -5.4007029873       86.6351251905  LPSA3     24             17.0000000000
      3043        96  ARHM      O3              7.4972932653       -5.8963057516       88.6262474695  LPSA3     24             17.0000000000
      3044        96  ARHM      HO3             7.9532544544       -6.5679532539       89.1442686851  LPSA3     24             17.0000000000
      3045        96  ARHM      C4              9.0012171179       -6.9365899345       86.9532643183  LPSA3     24             17.0000000000
      3046        96  ARHM      H4              9.8045576423       -7.1609644998       87.6830794569  LPSA3     24             17.0000000000
      3047        96  ARHM      O4              8.1597165414       -8.0763578509       86.8130678020  LPSA3     24             17.0000000000
      3048        96  ARHM      HO4             8.6127952350       -8.8944461163       87.0342212228  LPSA3     24             17.0000000000
      3049        96  ARHM      C6             10.4451682162       -7.7619120186       84.9778668025  LPSA3     24             17.0000000000
      3050        96  ARHM      H61             9.7475181963       -8.4023550569       84.4270866618  LPSA3     24             17.0000000000
      3051        96  ARHM      H62            11.1461890960       -7.3814521099       84.2143881201  LPSA3     24             17.0000000000
      3052        96  ARHM      H63            10.9659240189       -8.4089802713       85.7125761919  LPSA3     24             17.0000000000
      3053        97  ARHM      C1             10.9332719660       -3.8999792389       89.1464233378  LPSA3     25             18.0000000000
      3054        97  ARHM      H1             10.8617372170       -3.0248344352       88.4683620312  LPSA3     25             18.0000000000
      3055        97  ARHM      C5             12.6232899824       -5.2194954667       90.1925378307  LPSA3     25             18.0000000000
      3056        97  ARHM      H5             12.1181588874       -6.1511030685       89.8432055094  LPSA3     25             18.0000000000
      3057        97  ARHM      O5             12.3415498844       -4.1565227928       89.2615496043  LPSA3     25             18.0000000000
      3058        97  ARHM      C2             10.3228616895       -3.5318588592       90.4616798979  LPSA3     25             18.0000000000
      3059        97  ARHM      H2              9.2103787214       -3.4631805194       90.3584748958  LPSA3     25             18.0000000000
      3060        97  ARHM      O2             10.8358972980       -2.2717285618       90.8988342233  LPSA3     25             18.0000000000
      3061        97  ARHM      C3             10.6015186290       -4.6325602967       91.4496815769  LPSA3     25             18.0000000000
      3062        97  ARHM      H3             10.1515621745       -5.5893626449       91.0818166705  LPSA3     25             18.0000000000
      3063        97  ARHM      O3             10.0343789517       -4.2407202901       92.6988942277  LPSA3     25             18.0000000000
      3064        97  ARHM      C4             12.0772818104       -4.8593304734       91.5699266360  LPSA3     25             18.0000000000
      3065        97  ARHM      H4             12.5962620387       -3.9238591713       91.9013914501  LPSA3     25             18.0000000000
      3066        97  ARHM      O4             12.3184174359       -5.8875180604       92.5271383778  LPSA3     25             18.0000000000
      3067        97  ARHM      HO4            13.0872166192       -5.6533747697       93.0451798890  LPSA3     25             18.0000000000
      3068        97  ARHM      C6             14.1384201381       -5.5128437026       90.2068798950  LPSA3     25             18.0000000000
      3069        97  ARHM      H61            14.5053018717       -5.6730588216       89.1726640207  LPSA3     25             18.0000000000
      3070        97  ARHM      H62            14.6948909333       -4.6737715606       90.6672840716  LPSA3     25             18.0000000000
      3071        97  ARHM      H63            14.3313553938       -6.4368188771       90.7945352280  LPSA3     25             18.0000000000
      3072        98  BMANNA    C1             10.2575018115       -1.1564891626       90.2751152037  LPSA3     26             19.0000000000
      3073        98  BMANNA    H1              9.2626709228       -1.4034762376       89.8498345768  LPSA3     26             19.0000000000
      3074        98  BMANNA    C5             10.4048030147        0.5186826008       88.5894876236  LPSA3     26             19.0000000000
      3075        98  BMANNA    H5              9.4346028596        0.1645542767       88.1761983515  LPSA3     26             19.0000000000
      3076        98  BMANNA    O5             11.0545004065       -0.5998689498       89.2190130155  LPSA3     26             19.0000000000
      3077        98  BMANNA    C2             10.0834753092       -0.1299567733       91.3491043795  LPSA3     26             19.0000000000
      3078        98  BMANNA    H2              9.4310396824       -0.6116217524       92.1269373728  LPSA3     26             19.0000000000
      3079        98  BMANNA    N              11.3717882237        0.2629056996       91.9241256275  LPSA3     26             19.0000000000
      3080        98  BMANNA    HN             12.0775846827        0.5424183630       91.2795764071  LPSA3     26             19.0000000000
      3081        98  BMANNA    C              11.6380865658        0.2510254957       93.2419485364  LPSA3     26             19.0000000000
      3082        98  BMANNA    O              10.8539064986       -0.2235378175       94.0531719040  LPSA3     26             19.0000000000
      3083        98  BMANNA    CT             12.9297058553        0.9239727856       93.6561807929  LPSA3     26             19.0000000000
      3084        98  BMANNA    HT1            13.6796080220        0.8679432554       92.8446907389  LPSA3     26             19.0000000000
      3085        98  BMANNA    HT2            13.3727646994        0.5217323381       94.5943057805  LPSA3     26             19.0000000000
      3086        98  BMANNA    HT3            12.7042280483        1.9868058707       93.8555945813  LPSA3     26             19.0000000000
      3087        98  BMANNA    C3              9.3180368256        1.0239084822       90.7460928299  LPSA3     26             19.0000000000
      3088        98  BMANNA    H3              8.3532449658        0.6480785194       90.3233233275  LPSA3     26             19.0000000000
      3089        98  BMANNA    O3              8.9700331687        1.9622052096       91.7518703134  LPSA3     26             19.0000000000
      3090        98  BMANNA    HO3             8.2452836960        1.5983789654       92.2696215445  LPSA3     26             19.0000000000
      3091        98  BMANNA    C4             10.1371538558        1.6103613266       89.6152901016  LPSA3     26             19.0000000000
      3092        98  BMANNA    H4             11.1087680909        2.0021035157       89.9783872112  LPSA3     26             19.0000000000
      3093        98  BMANNA    O4              9.4657635327        2.6872529677       88.9966140108  LPSA3     26             19.0000000000
      3094        98  BMANNA    HO4             9.6477283019        3.4762105527       89.5244518727  LPSA3     26             19.0000000000
      3095        98  BMANNA    C6             11.2622856589        0.9350334131       87.4025133240  LPSA3     26             19.0000000000
      3096        98  BMANNA    H61            11.6745208305        0.0258403866       86.9136945133  LPSA3     26             19.0000000000
      3097        98  BMANNA    H62            10.6452057359        1.4699217748       86.6437043003  LPSA3     26             19.0000000000
      3098        98  BMANNA    O6             12.3621105158        1.7597968316       87.7801511868  LPSA3     26             19.0000000000
      3099        98  BMANNA    HO6            12.0088857297        2.5960826126       88.1083835018  LPSA3     26             19.0000000000
      3100        99  BGLCNA    C1              9.4169201641       -5.2265903111       93.4704135441  LPSA3     27             19.0000000000
      3101        99  BGLCNA    H1              9.9367157810       -6.2073486191       93.4244012357  LPSA3     27             19.0000000000
      3102        99  BGLCNA    C5              7.3644677720       -6.2855083697       93.9327718648  LPSA3     27             19.0000000000
      3103        99  BGLCNA    H5              7.9786642233       -7.1754372491       94.0183900584  LPSA3     27             19.0000000000
      3104        99  BGLCNA    O5              8.0574883974       -5.3755751766       93.0758755493  LPSA3     27             19.0000000000
      3105        99  BGLCNA    C2              9.4436429865       -4.6353122212       94.8666068313  LPSA3     27             19.0000000000
      3106        99  BGLCNA    H2              8.8429983049       -3.6899862556       94.8299133559  LPSA3     27             19.0000000000
      3107        99  BGLCNA    N              10.7931376627       -4.3086502938       95.3001538421  LPSA3     27             19.0000000000
      3108        99  BGLCNA    HN             11.4971900032       -4.9704127579       95.0641072616  LPSA3     27             19.0000000000
      3109        99  BGLCNA    C              11.0537638948       -3.1491136510       95.9565265657  LPSA3     27             19.0000000000
      3110        99  BGLCNA    O              10.1607797017       -2.4775487895       96.4686251877  LPSA3     27             19.0000000000
      3111        99  BGLCNA    CT             12.4968794514       -2.6906234760       96.0266342360  LPSA3     27             19.0000000000
      3112        99  BGLCNA    HT1            13.1398872715       -3.3153536501       95.3767340074  LPSA3     27             19.0000000000
      3113        99  BGLCNA    HT2            12.8886265199       -2.6882188555       97.0609844868  LPSA3     27             19.0000000000
      3114        99  BGLCNA    HT3            12.5385829141       -1.6359639228       95.6701538506  LPSA3     27             19.0000000000
      3115        99  BGLCNA    C3              8.7518826497       -5.5562556812       95.8255984068  LPSA3     27             19.0000000000
      3116        99  BGLCNA    H3              9.2822082345       -6.5416025429       95.7842167048  LPSA3     27             19.0000000000
      3117        99  BGLCNA    O3              8.9092134234       -4.9334034512       97.1234100932  LPSA3     27             19.0000000000
      3118        99  BGLCNA    C4              7.3218908537       -5.7577966352       95.3500111317  LPSA3     27             19.0000000000
      3119        99  BGLCNA    H4              6.7576487763       -4.8032096820       95.3488825162  LPSA3     27             19.0000000000
      3120        99  BGLCNA    O4              6.6288870616       -6.7028355940       96.1510136865  LPSA3     27             19.0000000000
      3121        99  BGLCNA    HO4             7.0857231239       -7.5509453953       96.0886028521  LPSA3     27             19.0000000000
      3122        99  BGLCNA    C6              6.0585381926       -6.7156076633       93.3139198208  LPSA3     27             19.0000000000
      3123        99  BGLCNA    H61             5.6597346065       -7.5933583636       93.8583417525  LPSA3     27             19.0000000000
      3124        99  BGLCNA    H62             5.3442898369       -5.8879662904       93.4310491690  LPSA3     27             19.0000000000
      3125        99  BGLCNA    O6              6.1965293563       -7.0751849449       91.9336616343  LPSA3     27             19.0000000000
      3126        99  BGLCNA    HO6             5.3265443900       -7.1167323864       91.5074779974  LPSA3     27             19.0000000000
      3127       100  AGAL      C1              8.7321381103       -5.7698539043       98.2365284662  LPSA3     28             20.0000000000
      3128       100  AGAL      H1              7.6461004803       -5.9925727536       98.3221857959  LPSA3     28             20.0000000000
      3129       100  AGAL      C5             10.8715484690       -6.8676385991       98.1273673367  LPSA3     28             20.0000000000
      3130       100  AGAL      H5             11.1859189480       -6.0539269352       97.4285571409  LPSA3     28             20.0000000000
      3131       100  AGAL      O5              9.4346352143       -7.0141061240       98.0443918139  LPSA3     28             20.0000000000
      3132       100  AGAL      C2              9.1453093830       -5.1977469063       99.6101563197  LPSA3     28             20.0000000000
      3133       100  AGAL      H2              8.8586074053       -6.0346178656      100.2899434374  LPSA3     28             20.0000000000
      3134       100  AGAL      O2              8.4547404961       -4.0375305522      100.0990239205  LPSA3     28             20.0000000000
      3135       100  AGAL      C3             10.6534295197       -5.0182463641       99.6868670753  LPSA3     28             20.0000000000
      3136       100  AGAL      H3             10.9545451454       -4.3645140128       98.8389991801  LPSA3     28             20.0000000000
      3137       100  AGAL      O3             11.1745443469       -4.3908799534      100.8596991058  LPSA3     28             20.0000000000
      3138       100  AGAL      HO3            11.5945600771       -3.5555653071      100.6096635765  LPSA3     28             20.0000000000
      3139       100  AGAL      C4             11.2839221792       -6.3675922913       99.4920700649  LPSA3     28             20.0000000000
      3140       100  AGAL      H4             12.3860714705       -6.2269322385       99.4846992084  LPSA3     28             20.0000000000
      3141       100  AGAL      O4             10.9532441353       -7.2898782644      100.5260331701  LPSA3     28             20.0000000000
      3142       100  AGAL      HO4            11.7089821787       -7.3898922097      101.0975931048  LPSA3     28             20.0000000000
      3143       100  AGAL      C6             11.6067585030       -8.1234153051       97.6514353683  LPSA3     28             20.0000000000
      3144       100  AGAL      H61            11.3830711077       -8.2509242569       96.5689933322  LPSA3     28             20.0000000000
      3145       100  AGAL      H62            12.7093471729       -8.0136051657       97.7570582648  LPSA3     28             20.0000000000
      3146       100  AGAL      O6             11.2578294817       -9.3298617022       98.3302231095  LPSA3     28             20.0000000000
      3147       100  AGAL      HO6            10.3985445170       -9.6189925257       97.9950912116  LPSA3     28             20.0000000000
      3148       101  ARHM      C1              8.1823517901       -4.1889839504      101.4759882476  LPSA3     29             21.0000000000
      3149       101  ARHM      H1              8.9184561029       -4.8644525302      101.9580291654  LPSA3     29             21.0000000000
      3150       101  ARHM      C5              5.8709948475       -3.8965776979      101.1440006482  LPSA3     29             21.0000000000
      3151       101  ARHM      H5              6.0870429120       -3.7398384059      100.0625211811  LPSA3     29             21.0000000000
      3152       101  ARHM      O5              6.8833329107       -4.7299555828      101.6912714677  LPSA3     29             21.0000000000
      3153       101  ARHM      C2              8.2898940673       -2.8651743010      102.1681358713  LPSA3     29             21.0000000000
      3154       101  ARHM      H2              9.2915132140       -2.4357814653      101.9170557886  LPSA3     29             21.0000000000
      3155       101  ARHM      O2              8.1493237611       -3.0279004089      103.6014719443  LPSA3     29             21.0000000000
      3156       101  ARHM      C3              7.2404215479       -1.9405649292      101.6178322420  LPSA3     29             21.0000000000
      3157       101  ARHM      H3              7.3975946669       -1.8072374311      100.5157490504  LPSA3     29             21.0000000000
      3158       101  ARHM      O3              7.3741018555       -0.6807329953      102.2536700303  LPSA3     29             21.0000000000
      3159       101  ARHM      HO3             6.5060854494       -0.2716648603      102.2116619268  LPSA3     29             21.0000000000
      3160       101  ARHM      C4              5.8528139297       -2.5245059567      101.8262270561  LPSA3     29             21.0000000000
      3161       101  ARHM      H4              5.6623814445       -2.6578009504      102.9168921366  LPSA3     29             21.0000000000
      3162       101  ARHM      O4              4.8192941516       -1.6442082098      101.3631737591  LPSA3     29             21.0000000000
      3163       101  ARHM      HO4             4.9509894218       -1.3594681057      100.4511371194  LPSA3     29             21.0000000000
      3164       101  ARHM      C6              4.6576698328       -4.8082020928      101.2597718070  LPSA3     29             21.0000000000
      3165       101  ARHM      H61             4.8577805164       -5.7915295331      100.7937467183  LPSA3     29             21.0000000000
      3166       101  ARHM      H62             4.2794834251       -4.9132683228      102.2941477674  LPSA3     29             21.0000000000
      3167       101  ARHM      H63             3.8825966008       -4.3734024132      100.6523803813  LPSA3     29             21.0000000000
      3168       102  ARHM      C1              9.3346146010       -3.0920808647      104.3654641208  LPSA3     30             22.0000000000
      3169       102  ARHM      H1              9.9685030985       -2.1975601425      104.1606065300  LPSA3     30             22.0000000000
      3170       102  ARHM      C5              9.3595881815       -5.4787922470      104.4924648294  LPSA3     30             22.0000000000
      3171       102  ARHM      H5              8.4099555847       -5.4427367350      103.9092434181  LPSA3     30             22.0000000000
      3172       102  ARHM      O5             10.1041832521       -4.3001275252      104.1559678183  LPSA3     30             22.0000000000
      3173       102  ARHM      C2              8.9224533186       -3.0603650511      105.8206718701  LPSA3     30             22.0000000000
      3174       102  ARHM      H2              8.3066682698       -2.1525342326      106.0230512130  LPSA3     30             22.0000000000
      3175       102  ARHM      O2             10.1124735831       -3.0583671687      106.6024357082  LPSA3     30             22.0000000000
      3176       102  ARHM      C3              8.1317295844       -4.2879833127      106.2222734734  LPSA3     30             22.0000000000
      3177       102  ARHM      H3              7.2642080438       -4.3534977280      105.5212909684  LPSA3     30             22.0000000000
      3178       102  ARHM      O3              7.5731562055       -4.1525457487      107.5438491764  LPSA3     30             22.0000000000
      3179       102  ARHM      C4              8.9908755283       -5.5026412331      105.9588584795  LPSA3     30             22.0000000000
      3180       102  ARHM      H4              9.9280702847       -5.4753253538      106.5539006625  LPSA3     30             22.0000000000
      3181       102  ARHM      O4              8.3808432795       -6.7310603174      106.3108924681  LPSA3     30             22.0000000000
      3182       102  ARHM      HO4             7.6717864151       -6.9920017168      105.7139740339  LPSA3     30             22.0000000000
      3183       102  ARHM      C6             10.1303985500       -6.7317276921      104.0539159861  LPSA3     30             22.0000000000
      3184       102  ARHM      H61             9.4927528120       -7.6257536335      104.2294631999  LPSA3     30             22.0000000000
      3185       102  ARHM      H62            10.3422436701       -6.6726573173      102.9704933534  LPSA3     30             22.0000000000
      3186       102  ARHM      H63            11.0722116171       -6.8453746533      104.6315624313  LPSA3     30             22.0000000000
      3187       103  BMANNA    C1             10.6276949594       -1.8038760631      106.8991080480  LPSA3     31             23.0000000000
      3188       103  BMANNA    H1              9.8038081327       -1.1101981174      107.1626637116  LPSA3     31             23.0000000000
      3189       103  BMANNA    C5             12.0421647312       -0.0229834235      106.2035076132  LPSA3     31             23.0000000000
      3190       103  BMANNA    H5             11.1883307398        0.6266527201      106.4927712139  LPSA3     31             23.0000000000
      3191       103  BMANNA    O5             11.4593535989       -1.2911429192      105.8521073349  LPSA3     31             23.0000000000
      3192       103  BMANNA    C2             11.4964405323       -2.0493794788      108.0884492523  LPSA3     31             23.0000000000
      3193       103  BMANNA    H2             10.8160572269       -2.3725584337      108.9172247391  LPSA3     31             23.0000000000
      3194       103  BMANNA    N              12.4292583239       -3.1247765144      107.8193665112  LPSA3     31             23.0000000000
      3195       103  BMANNA    HN             12.6368656498       -3.2892354009      106.8541492138  LPSA3     31             23.0000000000
      3196       103  BMANNA    C              12.9275554701       -3.9015082374      108.7795084853  LPSA3     31             23.0000000000
      3197       103  BMANNA    O              12.5908252967       -3.7635102140      109.9495547674  LPSA3     31             23.0000000000
      3198       103  BMANNA    CT             13.9102354635       -4.9448222853      108.3324255294  LPSA3     31             23.0000000000
      3199       103  BMANNA    HT1            14.5846398272       -4.4981180894      107.5693669362  LPSA3     31             23.0000000000
      3200       103  BMANNA    HT2            13.3618789758       -5.8067323477      107.9098604722  LPSA3     31             23.0000000000
      3201       103  BMANNA    HT3            14.5139946663       -5.3021235695      109.1923786065  LPSA3     31             23.0000000000
      3202       103  BMANNA    C3             12.1077271983       -0.7366482995      108.5121931503  LPSA3     31             23.0000000000
      3203       103  BMANNA    H3             11.2936121663       -0.0250817637      108.6980184701  LPSA3     31             23.0000000000
      3204       103  BMANNA    O3             12.7295932581       -0.8411800156      109.7683191687  LPSA3     31             23.0000000000
      3205       103  BMANNA    HO3            12.4543472719       -1.7039853801      110.1088313753  LPSA3     31             23.0000000000
      3206       103  BMANNA    C4             12.9534752387       -0.1639772531      107.4116080079  LPSA3     31             23.0000000000
      3207       103  BMANNA    H4             13.7770851124       -0.8609075490      107.1422686607  LPSA3     31             23.0000000000
      3208       103  BMANNA    O4             13.5239218537        1.1014769701      107.7554495288  LPSA3     31             23.0000000000
      3209       103  BMANNA    HO4            12.8632870778        1.6175187912      108.2195826028  LPSA3     31             23.0000000000
      3210       103  BMANNA    C6             12.7525014861        0.6698470024      105.0526183987  LPSA3     31             23.0000000000
      3211       103  BMANNA    H61            12.9738706671        1.7118539904      105.3634852264  LPSA3     31             23.0000000000
      3212       103  BMANNA    H62            13.7318498425        0.1791204817      104.8705526681  LPSA3     31             23.0000000000
      3213       103  BMANNA    O6             12.0386423325        0.6893194341      103.8138949460  LPSA3     31             23.0000000000
      3214       103  BMANNA    HO6            11.2056839280        1.1749292120      103.8570510841  LPSA3     31             23.0000000000
      3215       104  BGLCNA    C1              8.4358930397       -4.4819379380      108.6056767710  LPSA3     32             23.0000000000
      3216       104  BGLCNA    H1              9.4567377744       -4.1269307360      108.4033432476  LPSA3     32             23.0000000000
      3217       104  BGLCNA    C5              9.4744705089       -6.1868665476      109.9154476354  LPSA3     32             23.0000000000
      3218       104  BGLCNA    H5             10.4592533678       -5.7832837998      109.5815509041  LPSA3     32             23.0000000000
      3219       104  BGLCNA    O5              8.5089138070       -5.8755600277      108.8979020868  LPSA3     32             23.0000000000
      3220       104  BGLCNA    C2              7.9622146236       -3.7778514873      109.8474066389  LPSA3     32             23.0000000000
      3221       104  BGLCNA    H2              6.9946000769       -4.2629856022      110.1376096551  LPSA3     32             23.0000000000
      3222       104  BGLCNA    N               7.7276344941       -2.3971661917      109.5876021337  LPSA3     32             23.0000000000
      3223       104  BGLCNA    HN              8.3070904944       -1.9989347784      108.8949511878  LPSA3     32             23.0000000000
      3224       104  BGLCNA    C               6.8094151522       -1.6615070067      110.2034458200  LPSA3     32             23.0000000000
      3225       104  BGLCNA    O               5.9461130728       -2.0860833310      110.9558194605  LPSA3     32             23.0000000000
      3226       104  BGLCNA    CT              6.8661924432       -0.2674613120      109.7491348446  LPSA3     32             23.0000000000
      3227       104  BGLCNA    HT1             7.4756085118       -0.2909611820      108.8164160999  LPSA3     32             23.0000000000
      3228       104  BGLCNA    HT2             7.2330326590        0.5479037856      110.3790208411  LPSA3     32             23.0000000000
      3229       104  BGLCNA    HT3             5.8112956052       -0.0483140131      109.5216826112  LPSA3     32             23.0000000000
      3230       104  BGLCNA    C3              9.0034445748       -3.9856212460      110.9196193317  LPSA3     32             23.0000000000
      3231       104  BGLCNA    H3              9.9797624369       -3.6879758143      110.4693642834  LPSA3     32             23.0000000000
      3232       104  BGLCNA    O3              8.8087547769       -3.1715653014      112.0943079128  LPSA3     32             23.0000000000
      3233       104  BGLCNA    C4              9.0670212825       -5.4653547811      111.1827102266  LPSA3     32             23.0000000000
      3234       104  BGLCNA    H4              8.0503235069       -5.8079194041      111.4369782576  LPSA3     32             23.0000000000
      3235       104  BGLCNA    O4              9.9431549128       -5.7752151124      112.2456611578  LPSA3     32             23.0000000000
      3236       104  BGLCNA    HO4             9.4679067583       -5.8242734688      113.0845871769  LPSA3     32             23.0000000000
      3237       104  BGLCNA    C6              9.6336358892       -7.6955002913      110.0395965853  LPSA3     32             23.0000000000
      3238       104  BGLCNA    H61            10.4765913580       -7.9552866035      110.7199816558  LPSA3     32             23.0000000000
      3239       104  BGLCNA    H62             8.7152171584       -8.1371493672      110.4882309965  LPSA3     32             23.0000000000
      3240       104  BGLCNA    O6              9.8879952707       -8.3024056844      108.7645410399  LPSA3     32             23.0000000000
      3241       104  BGLCNA    HO6            10.4317352985       -7.7144456798      108.2346213469  LPSA3     32             23.0000000000
      3242       105  AGAL      C1             10.0133911250       -2.7133440796      112.6837104149  LPSA3     33             24.0000000000
      3243       105  AGAL      H1             10.7958208123       -3.4983476953      112.6067646387  LPSA3     33             24.0000000000
      3244       105  AGAL      C5              9.6081217732       -0.3948444656      112.2190899389  LPSA3     33             24.0000000000
      3245       105  AGAL      H5              8.6350344244       -0.7779950266      111.8416655047  LPSA3     33             24.0000000000
      3246       105  AGAL      O5             10.5185847547       -1.5084439313      112.0773284787  LPSA3     33             24.0000000000
      3247       105  AGAL      C2              9.7651893241       -2.3938495035      114.1443988795  LPSA3     33             24.0000000000
      3248       105  AGAL      H2             10.7169498250       -1.9665690208      114.5318246525  LPSA3     33             24.0000000000
      3249       105  AGAL      O2              9.5721464287       -3.6227167905      114.8672019957  LPSA3     33             24.0000000000
      3250       105  AGAL      C3              8.7336472462       -1.2718199231      114.3005866249  LPSA3     33             24.0000000000
      3251       105  AGAL      H3              7.8140724915       -1.5190376904      113.7170056002  LPSA3     33             24.0000000000
      3252       105  AGAL      O3              8.2489615538       -1.1254614324      115.6295677380  LPSA3     33             24.0000000000
      3253       105  AGAL      HO3             8.9869591890       -0.9420277000      116.2168873669  LPSA3     33             24.0000000000
      3254       105  AGAL      C4              9.3103000281       -0.0080355274      113.6599871062  LPSA3     33             24.0000000000
      3255       105  AGAL      H4              8.5436686951        0.8030109099      113.6624441646  LPSA3     33             24.0000000000
      3256       105  AGAL      O4             10.4555777232        0.5478483895      114.2907012047  LPSA3     33             24.0000000000
      3257       105  AGAL      HO4            10.9274589901       -0.0018895895      114.9180592356  LPSA3     33             24.0000000000
      3258       105  AGAL      C6              9.9571236856        0.7548418106      111.2758488290  LPSA3     33             24.0000000000
      3259       105  AGAL      H61             9.8619693005        0.3186055580      110.2655166920  LPSA3     33             24.0000000000
      3260       105  AGAL      H62             9.2160368505        1.5822827145      111.3734649113  LPSA3     33             24.0000000000
      3261       105  AGAL      O6             11.2592435326        1.3400482052      111.3923385407  LPSA3     33             24.0000000000
      3262       105  AGAL      HO6            11.9197329262        0.8551644370      110.8786307038  LPSA3     33             24.0000000000
      3263       106  ARHM      C1             10.3417655231       -3.7462561108      116.0503667907  LPSA3     34             25.0000000000
      3264       106  ARHM      H1             10.2097850547       -2.8208150324      116.6515952206  LPSA3     34             25.0000000000
      3265       106  ARHM      C5             12.1206456182       -5.0805894322      115.0728554078  LPSA3     34             25.0000000000
      3266       106  ARHM      H5             11.6552085965       -4.9935094468      114.0670606220  LPSA3     34             25.0000000000
      3267       106  ARHM      O5             11.7689496286       -3.9055227283      115.8242716702  LPSA3     34             25.0000000000
      3268       106  ARHM      C2              9.7789151274       -4.9358828866      116.8089328544  LPSA3     34             25.0000000000
      3269       106  ARHM      H2              8.6625345584       -4.8430951834      116.8546405871  LPSA3     34             25.0000000000
      3270       106  ARHM      O2             10.2813730565       -5.0431897281      118.1674986863  LPSA3     34             25.0000000000
      3271       106  ARHM      C3             10.0860788916       -6.1936236415      116.0085301709  LPSA3     34             25.0000000000
      3272       106  ARHM      H3              9.6281566760       -6.1097683129      114.9923707148  LPSA3     34             25.0000000000
      3273       106  ARHM      O3              9.5236404001       -7.3490539434      116.6301538827  LPSA3     34             25.0000000000
      3274       106  ARHM      HO3             9.2980917282       -7.9924592836      115.9438667297  LPSA3     34             25.0000000000
      3275       106  ARHM      C4             11.5871419264       -6.3058336923      115.8095621142  LPSA3     34             25.0000000000
      3276       106  ARHM      H4             12.1041838617       -6.3267183394      116.7949657010  LPSA3     34             25.0000000000
      3277       106  ARHM      O4             11.9478298217       -7.4930279919      115.1160343373  LPSA3     34             25.0000000000
      3278       106  ARHM      HO4            11.8157476171       -8.2793625934      115.6634054794  LPSA3     34             25.0000000000
      3279       106  ARHM      C6             13.6594465910       -5.1962346210      114.8505194982  LPSA3     34             25.0000000000
      3280       106  ARHM      H61            14.2345286826       -5.2629794422      115.7904474271  LPSA3     34             25.0000000000
      3281       106  ARHM      H62            13.8569104577       -6.1593923867      114.3305514930  LPSA3     34             25.0000000000
      3282       106  ARHM      H63            14.0702037861       -4.4033955994      114.1949880372  LPSA3     34             25.0000000000
      3283       107  ARHM      C1             10.0815092125       -3.9630940789      119.0615288208  LPSA3     35             26.0000000000
      3284       107  ARHM      H1              9.0870633252       -3.4906377739      118.8722609677  LPSA3     35             26.0000000000
      3285       107  ARHM      C5             12.4520908032       -3.5326472070      119.2100806864  LPSA3     35             26.0000000000
      3286       107  ARHM      H5             12.6597755771       -4.3742373228      118.5149145902  LPSA3     35             26.0000000000
      3287       107  ARHM      O5             11.1393498738       -2.9839422155      118.9557008429  LPSA3     35             26.0000000000
      3288       107  ARHM      C2             10.0916761640       -4.4651711243      120.5032842419  LPSA3     35             26.0000000000
      3289       107  ARHM      H2              9.2869699305       -5.2258351149      120.6528481758  LPSA3     35             26.0000000000
      3290       107  ARHM      O2              9.8738931455       -3.3946245880      121.4397049547  LPSA3     35             26.0000000000
      3291       107  ARHM      C3             11.4171788968       -5.1071454155      120.8267206696  LPSA3     35             26.0000000000
      3292       107  ARHM      H3             11.5926635080       -5.9556120185      120.1237868318  LPSA3     35             26.0000000000
      3293       107  ARHM      O3             11.3972350467       -5.6759070476      122.1328810407  LPSA3     35             26.0000000000
      3294       107  ARHM      HO3            10.8017089017       -5.1648041963      122.6869822833  LPSA3     35             26.0000000000
      3295       107  ARHM      C4             12.5167808033       -4.0689123382      120.6460033008  LPSA3     35             26.0000000000
      3296       107  ARHM      H4             12.3548325222       -3.2033828634      121.3331778457  LPSA3     35             26.0000000000
      3297       107  ARHM      O4             13.7961737641       -4.6252682492      120.9557179701  LPSA3     35             26.0000000000
      3298       107  ARHM      HO4            13.8451479629       -5.5087968135      120.5730253994  LPSA3     35             26.0000000000
      3299       107  ARHM      C6             13.5032883266       -2.4561437648      118.8603892982  LPSA3     35             26.0000000000
      3300       107  ARHM      H61            13.5155383288       -2.2133165818      117.7795457933  LPSA3     35             26.0000000000
      3301       107  ARHM      H62            13.3046367690       -1.5255592110      119.4289817578  LPSA3     35             26.0000000000
      3302       107  ARHM      H63            14.5196548148       -2.8358008338      119.1073762418  LPSA3     35             26.0000000000
      3303       108  BMANNA    C1              8.5638308116       -2.8960164928      121.4728126704  LPSA3     36             27.0000000000
      3304       108  BMANNA    H1              7.8497783885       -3.6698215615      121.1239408644  LPSA3     36             27.0000000000
      3305       108  BMANNA    C5              6.9744752083       -1.3142926860      120.7229712338  LPSA3     36             27.0000000000
      3306       108  BMANNA    H5              6.3284039875       -2.1802441757      120.4295293918  LPSA3     36             27.0000000000
      3307       108  BMANNA    O5              8.3577962673       -1.7316961277      120.6627580384  LPSA3     36             27.0000000000
      3308       108  BMANNA    C2              8.2751610908       -2.5354296360      122.9117692198  LPSA3     36             27.0000000000
      3309       108  BMANNA    H2              8.3911591308       -3.4921492127      123.4784638310  LPSA3     36             27.0000000000
      3310       108  BMANNA    N               9.1911133332       -1.5615026259      123.4862039506  LPSA3     36             27.0000000000
      3311       108  BMANNA    HN              9.5286647401       -0.8389172952      122.8929565163  LPSA3     36             27.0000000000
      3312       108  BMANNA    C               9.4757022820       -1.5314035676      124.7971225525  LPSA3     36             27.0000000000
      3313       108  BMANNA    O               9.1544620909       -2.4224319052      125.5662037191  LPSA3     36             27.0000000000
      3314       108  BMANNA    CT             10.2496921756       -0.3547900886      125.2923342331  LPSA3     36             27.0000000000
      3315       108  BMANNA    HT1             9.8990848435        0.5965281740      124.8521785975  LPSA3     36             27.0000000000
      3316       108  BMANNA    HT2            11.3211871865       -0.5137994529      125.1201323817  LPSA3     36             27.0000000000
      3317       108  BMANNA    HT3            10.1240781051       -0.2795576583      126.3763869682  LPSA3     36             27.0000000000
      3318       108  BMANNA    C3              6.8336722013       -2.1040487806      123.0128499895  LPSA3     36             27.0000000000
      3319       108  BMANNA    H3              6.1726191994       -2.9277675409      122.6465270954  LPSA3     36             27.0000000000
      3320       108  BMANNA    O3              6.4542761587       -1.8186999148      124.3490800314  LPSA3     36             27.0000000000
      3321       108  BMANNA    HO3             5.7803964456       -2.4261928540      124.6357939997  LPSA3     36             27.0000000000
      3322       108  BMANNA    C4              6.5909792593       -0.9209035956      122.1310127857  LPSA3     36             27.0000000000
      3323       108  BMANNA    H4              7.2061501198       -0.0496093950      122.4525758502  LPSA3     36             27.0000000000
      3324       108  BMANNA    O4              5.2332806281       -0.5217729405      122.2295442533  LPSA3     36             27.0000000000
      3325       108  BMANNA    HO4             5.1358178555       -0.3438758023      123.1722029963  LPSA3     36             27.0000000000
      3326       108  BMANNA    C6              6.6752030316       -0.2337983699      119.7349723671  LPSA3     36             27.0000000000
      3327       108  BMANNA    H61             6.9575692254       -0.5556366113      118.7043292972  LPSA3     36             27.0000000000
      3328       108  BMANNA    H62             5.5706876268       -0.0887348211      119.7397454595  LPSA3     36             27.0000000000
      3329       108  BMANNA    O6              7.3059977406        1.0010048298      120.0794079573  LPSA3     36             27.0000000000
      3330       108  BMANNA    HO6             6.7270022972        1.5310175378      120.6406701855  LPSA3     36             27.0000000000
      3331       109  ECLIPA    HB6S           12.4388640084        8.1000464464       20.4377465479  LPSA4     1               0.0000000000
      3332       109  ECLIPA    OB6            11.5887620224        9.3929098308       21.7148079496  LPSA4     1               0.0000000000
      3333       109  ECLIPA    CB6            11.4329818007        8.3815004926       20.7111234719  LPSA4     1               0.0000000000
      3334       109  ECLIPA    HB6R           10.9385569065        7.4696442207       21.1127456582  LPSA4     1               0.0000000000
      3335       109  ECLIPA    CB5            10.7403183061        8.8037219780       19.4339918430  LPSA4     1               0.0000000000
      3336       109  ECLIPA    OB5            11.4396192643        9.9716426478       18.9607418671  LPSA4     1               0.0000000000
      3337       109  ECLIPA    HB5             9.6934436901        9.0453792385       19.7280242432  LPSA4     1               0.0000000000
      3338       109  ECLIPA    CB1            10.8294183373       10.5194893309       17.7857237354  LPSA4     1               0.0000000000
      3339       109  ECLIPA    HB1             9.7524761378       10.7649309824       17.9619181963  LPSA4     1               0.0000000000
      3340       109  ECLIPA    OA6            11.4539410814       11.6947970815       17.3265009302  LPSA4     1               0.0000000000
      3341       109  ECLIPA    CA6            12.8703092344       11.7758501788       17.5545445252  LPSA4     1               0.0000000000
      3342       109  ECLIPA    HA6R           13.3308602450       10.7827103697       17.7534382077  LPSA4     1               0.0000000000
      3343       109  ECLIPA    HA6S           13.0560670157       12.4409390310       18.4260736764  LPSA4     1               0.0000000000
      3344       109  ECLIPA    CB4            10.7224982342        7.7241549143       18.3348739067  LPSA4     1               0.0000000000
      3345       109  ECLIPA    HB4            11.7568785928        7.3968487150       18.0495540171  LPSA4     1               0.0000000000
      3346       109  ECLIPA    OB4             9.9133216303        6.6501074945       18.8297139838  LPSA4     1               0.0000000000
      3347       109  ECLIPA    PB             10.6153830562        5.2199260162       19.2849290197  LPSA4     1               0.0000000000
      3348       109  ECLIPA    OPB4            9.8641740882        4.6977720614       20.4965960542  LPSA4     1               0.0000000000
      3349       109  ECLIPA    OPB3           12.0629470902        5.6079040313       19.6195464859  LPSA4     1               0.0000000000
      3350       109  ECLIPA    OPB2           10.4649492092        4.3232226311       18.0631691387  LPSA4     1               0.0000000000
      3351       109  ECLIPA    CB3            10.0871414563        8.3119044293       17.1001384895  LPSA4     1               0.0000000000
      3352       109  ECLIPA    OB3            10.1045768048        7.4427756483       15.9820427025  LPSA4     1               0.0000000000
      3353       109  ECLIPA    HB3             9.0538923412        8.6662347084       17.3372317240  LPSA4     1               0.0000000000
      3354       109  ECLIPA    C71             9.1141292515        6.6020545040       15.8246355916  LPSA4     1               0.0000000000
      3355       109  ECLIPA    O71             7.9798064751        6.7659464446       16.2637739257  LPSA4     1               0.0000000000
      3356       109  ECLIPA    C72             9.3464707450        6.0038377048       14.4440745207  LPSA4     1               0.0000000000
      3357       109  ECLIPA    H72R            9.4536175215        6.7582046703       13.6448902919  LPSA4     1               0.0000000000
      3358       109  ECLIPA    H72S            8.4821685777        5.3736656120       14.2469068459  LPSA4     1               0.0000000000
      3359       109  ECLIPA    CB2            10.8719393702        9.5235105126       16.6671471486  LPSA4     1               0.0000000000
      3360       109  ECLIPA    HB2            11.9430145286        9.2090259727       16.5113145131  LPSA4     1               0.0000000000
      3361       109  ECLIPA    NB2            10.3014413539       10.0987936931       15.4530822034  LPSA4     1               0.0000000000
      3362       109  ECLIPA    HNB2            9.6020508263       10.7972726549       15.5733165069  LPSA4     1               0.0000000000
      3363       109  ECLIPA    CA4            12.7705363800       13.5828136067       15.8066127061  LPSA4     1               0.0000000000
      3364       109  ECLIPA    HA4            11.7566857651       13.2060445815       15.5341672055  LPSA4     1               0.0000000000
      3365       109  ECLIPA    OA4            12.6932693406       14.5665188338       16.8472811733  LPSA4     1               0.0000000000
      3366       109  ECLIPA    HOA4           12.2845604679       14.0990955703       17.5903763957  LPSA4     1               0.0000000000
      3367       109  ECLIPA    CA5            13.5281028671       12.3875039837       16.3363217010  LPSA4     1               0.0000000000
      3368       109  ECLIPA    HA5            14.5944654753       12.6173002481       16.5694088210  LPSA4     1               0.0000000000
      3369       109  ECLIPA    OA5            13.4950173502       11.3818588837       15.3418451600  LPSA4     1               0.0000000000
      3370       109  ECLIPA    CA1            14.1228874759       11.7729513546       14.1079391406  LPSA4     1               0.0000000000
      3371       109  ECLIPA    HA1            13.8320779587       10.9445857300       13.4240852652  LPSA4     1               0.0000000000
      3372       109  ECLIPA    OA1            15.5369052764       11.8683817009       14.1552956283  LPSA4     1               0.0000000000
      3373       109  ECLIPA    OPA2           17.0302964607       11.0466429050       16.0449994817  LPSA4     1               0.0000000000
      3374       109  ECLIPA    OPA3           15.4905767363        9.3966116955       14.8658680408  LPSA4     1               0.0000000000
      3375       109  ECLIPA    OPA4           17.5230131429       10.3505903095       13.6650181809  LPSA4     1               0.0000000000
      3376       109  ECLIPA    PA             16.4304873755       10.5817317856       14.7105279360  LPSA4     1               0.0000000000
      3377       109  ECLIPA    CA3            13.3902309636       14.1113009310       14.5298458842  LPSA4     1               0.0000000000
      3378       109  ECLIPA    HA3            14.4202453832       14.4716232681       14.7285340525  LPSA4     1               0.0000000000
      3379       109  ECLIPA    OA3            12.5962673863       15.2650749895       14.1881211565  LPSA4     1               0.0000000000
      3380       109  ECLIPA    C31            11.4716994447       14.9940049177       13.5073908606  LPSA4     1               0.0000000000
      3381       109  ECLIPA    O31            11.4248291538       14.9548018058       12.2902384850  LPSA4     1               0.0000000000
      3382       109  ECLIPA    C32            10.3097231892       15.5670787120       14.2743535128  LPSA4     1               0.0000000000
      3383       109  ECLIPA    H32R            9.9558795497       16.4339937578       13.6798475967  LPSA4     1               0.0000000000
      3384       109  ECLIPA    H32S           10.5828974190       15.9264676823       15.2811632897  LPSA4     1               0.0000000000
      3385       109  ECLIPA    CA2            13.4025857670       12.9716911628       13.5115403917  LPSA4     1               0.0000000000
      3386       109  ECLIPA    HA2            12.3543749902       12.6285096780       13.3402137050  LPSA4     1               0.0000000000
      3387       109  ECLIPA    NA2            13.9868828288       13.3828172600       12.2243668436  LPSA4     1               0.0000000000
      3388       109  ECLIPA    HNA2           14.1312775093       14.3549187559       12.1201865163  LPSA4     1               0.0000000000
      3389       109  ECLIPA    C73            10.6255969518        5.2099728378       14.3627003799  LPSA4     1               0.0000000000
      3390       109  ECLIPA    H73R           10.5989597831        4.4581636811       15.2062529366  LPSA4     1               0.0000000000
      3391       109  ECLIPA    O73            11.7149296389        6.0769825187       14.3806719798  LPSA4     1               0.0000000000
      3392       109  ECLIPA    C81            12.8156410799        5.6880104115       14.9613114535  LPSA4     1               0.0000000000
      3393       109  ECLIPA    O81            13.0259132377        4.6051272371       15.4998973710  LPSA4     1               0.0000000000
      3394       109  ECLIPA    C82            13.9352707894        6.5213373959       14.3428274423  LPSA4     1               0.0000000000
      3395       109  ECLIPA    H82R           14.8781251359        6.2963000780       14.8688303745  LPSA4     1               0.0000000000
      3396       109  ECLIPA    H82S           13.7058391788        7.5877537813       14.5551244474  LPSA4     1               0.0000000000
      3397       109  ECLIPA    C83            14.0955822526        6.3422729847       12.8108487116  LPSA4     1               0.0000000000
      3398       109  ECLIPA    H83R           13.3363397984        6.9739449084       12.2923289111  LPSA4     1               0.0000000000
      3399       109  ECLIPA    H83S           13.9093898376        5.2842030502       12.5402734584  LPSA4     1               0.0000000000
      3400       109  ECLIPA    C84            15.4621244263        6.8186761836       12.2899500114  LPSA4     1               0.0000000000
      3401       109  ECLIPA    H84R           16.2747410242        6.1299352183       12.5943039606  LPSA4     1               0.0000000000
      3402       109  ECLIPA    H84S           15.6489356824        7.8181655739       12.7646330156  LPSA4     1               0.0000000000
      3403       109  ECLIPA    C85            15.4758148824        7.0382090119       10.7694928157  LPSA4     1               0.0000000000
      3404       109  ECLIPA    H85R           14.5106793478        7.5456611322       10.5444574930  LPSA4     1               0.0000000000
      3405       109  ECLIPA    H85S           15.4593387117        6.0665554418       10.2346403509  LPSA4     1               0.0000000000
      3406       109  ECLIPA    C86            16.5922056069        7.9909290222       10.2864273650  LPSA4     1               0.0000000000
      3407       109  ECLIPA    H86R           17.5056653788        7.4283930120        9.9931417942  LPSA4     1               0.0000000000
      3408       109  ECLIPA    H86S           16.8921288850        8.6590715117       11.1307449825  LPSA4     1               0.0000000000
      3409       109  ECLIPA    C87            16.1216448625        8.9331743729        9.1596773136  LPSA4     1               0.0000000000
      3410       109  ECLIPA    H87R           16.9812953065        9.5372400847        8.7969877750  LPSA4     1               0.0000000000
      3411       109  ECLIPA    H87S           15.3839313948        9.6578421422        9.5767229875  LPSA4     1               0.0000000000
      3412       109  ECLIPA    C88            15.4245497443        8.1866292376        8.0205300314  LPSA4     1               0.0000000000
      3413       109  ECLIPA    H88R           14.4029431214        7.9030084275        8.3499311711  LPSA4     1               0.0000000000
      3414       109  ECLIPA    H88S           15.9526114446        7.2169533961        7.8790448630  LPSA4     1               0.0000000000
      3415       109  ECLIPA    C89            15.3305400479        8.9994370088        6.7154277343  LPSA4     1               0.0000000000
      3416       109  ECLIPA    H89R           15.4390695018       10.0920951016        6.8948125066  LPSA4     1               0.0000000000
      3417       109  ECLIPA    H89S           14.3264351745        8.8693896365        6.2581478528  LPSA4     1               0.0000000000
      3418       109  ECLIPA    C810           16.3569922730        8.4963985105        5.6966264260  LPSA4     1               0.0000000000
      3419       109  ECLIPA    H810R          16.5269201149        7.4236402066        5.9305638058  LPSA4     1               0.0000000000
      3420       109  ECLIPA    H810S          17.3098658483        9.0463657164        5.8633015407  LPSA4     1               0.0000000000
      3421       109  ECLIPA    C811           15.9097204591        8.6428886818        4.2340637456  LPSA4     1               0.0000000000
      3422       109  ECLIPA    H811R          16.7825755982        8.6208070009        3.5399789803  LPSA4     1               0.0000000000
      3423       109  ECLIPA    H811S          15.4073249436        9.6325934671        4.1530037203  LPSA4     1               0.0000000000
      3424       109  ECLIPA    C812           14.8943869814        7.6013265541        3.7359467493  LPSA4     1               0.0000000000
      3425       109  ECLIPA    H812R          14.5800453098        7.9290954830        2.7140533201  LPSA4     1               0.0000000000
      3426       109  ECLIPA    H812S          14.0129059984        7.5993314446        4.4095187513  LPSA4     1               0.0000000000
      3427       109  ECLIPA    C813           15.3960411523        6.1584029909        3.6349354696  LPSA4     1               0.0000000000
      3428       109  ECLIPA    H813R          16.2519352587        6.1419955862        2.9278491876  LPSA4     1               0.0000000000
      3429       109  ECLIPA    H813S          15.7610101194        5.7895371001        4.6223906670  LPSA4     1               0.0000000000
      3430       109  ECLIPA    C814           14.3152879325        5.2016210878        3.1285635187  LPSA4     1               0.0000000000
      3431       109  ECLIPA    H814R          13.8070533303        5.5885296840        2.2176609288  LPSA4     1               0.0000000000
      3432       109  ECLIPA    H814S          13.5507610274        5.0458566450        3.9183451468  LPSA4     1               0.0000000000
      3433       109  ECLIPA    H814T          14.7659768571        4.2176662035        2.8879568516  LPSA4     1               0.0000000000
      3434       109  ECLIPA    C74            10.7438914987        4.4565058283       13.0652910908  LPSA4     1               0.0000000000
      3435       109  ECLIPA    H74R            9.7434029392        3.9862895765       13.0367388371  LPSA4     1               0.0000000000
      3436       109  ECLIPA    H74S           11.6384187619        3.7921253674       13.2195978987  LPSA4     1               0.0000000000
      3437       109  ECLIPA    C75            10.9845448335        5.0082510679       11.6939744143  LPSA4     1               0.0000000000
      3438       109  ECLIPA    H75R           11.6528848925        4.2671635018       11.1767573255  LPSA4     1               0.0000000000
      3439       109  ECLIPA    H75S           11.4778657426        5.9638690612       11.8939781266  LPSA4     1               0.0000000000
      3440       109  ECLIPA    C76             9.7419578386        5.1593642907       10.8513465274  LPSA4     1               0.0000000000
      3441       109  ECLIPA    H76R            9.1195192577        5.9523520817       11.2982743527  LPSA4     1               0.0000000000
      3442       109  ECLIPA    H76S            9.1417683160        4.2362425121       10.7501652182  LPSA4     1               0.0000000000
      3443       109  ECLIPA    C77            10.0620206509        5.3455392513        9.3920305084  LPSA4     1               0.0000000000
      3444       109  ECLIPA    H77R           10.4611992986        4.4009366702        8.9867636915  LPSA4     1               0.0000000000
      3445       109  ECLIPA    H77S           10.7335883582        6.1906279484        9.2612419354  LPSA4     1               0.0000000000
      3446       109  ECLIPA    C78             8.8503725375        5.6880919001        8.6261819857  LPSA4     1               0.0000000000
      3447       109  ECLIPA    H78R            8.0265687024        4.9861608108        8.8944980022  LPSA4     1               0.0000000000
      3448       109  ECLIPA    H78S            8.6663440421        6.7222395547        8.9926620283  LPSA4     1               0.0000000000
      3449       109  ECLIPA    C79             8.9173224932        6.0873292514        7.1607653756  LPSA4     1               0.0000000000
      3450       109  ECLIPA    H79R            8.8781188892        7.2037127900        7.0818474645  LPSA4     1               0.0000000000
      3451       109  ECLIPA    H79S            8.0175723699        5.7244317764        6.5979476355  LPSA4     1               0.0000000000
      3452       109  ECLIPA    C710            9.7805279621        5.3003930083        6.3537668490  LPSA4     1               0.0000000000
      3453       109  ECLIPA    H710R          10.7631316949        5.4397669611        6.8223107332  LPSA4     1               0.0000000000
      3454       109  ECLIPA    H710S           9.3812205172        4.2551231554        6.4485646262  LPSA4     1               0.0000000000
      3455       109  ECLIPA    C711            9.6856487059        5.8116694657        4.9424869822  LPSA4     1               0.0000000000
      3456       109  ECLIPA    H711R           8.6708458104        5.6643144765        4.5194559933  LPSA4     1               0.0000000000
      3457       109  ECLIPA    H711S           9.9315485437        6.8994148257        4.9093441244  LPSA4     1               0.0000000000
      3458       109  ECLIPA    C712           10.6979534046        4.9855287836        4.2142436885  LPSA4     1               0.0000000000
      3459       109  ECLIPA    H712R          10.3411354106        3.9315544288        4.2401755221  LPSA4     1               0.0000000000
      3460       109  ECLIPA    H712S          11.6280230678        5.0575243085        4.8173849264  LPSA4     1               0.0000000000
      3461       109  ECLIPA    C713           10.9292561245        5.4728372829        2.8161381910  LPSA4     1               0.0000000000
      3462       109  ECLIPA    H713R          11.3088374175        6.5217518186        2.8443113891  LPSA4     1               0.0000000000
      3463       109  ECLIPA    H713S          11.6951856263        4.8343236258        2.3146588364  LPSA4     1               0.0000000000
      3464       109  ECLIPA    C714            9.6703187872        5.4022526453        1.9925507704  LPSA4     1               0.0000000000
      3465       109  ECLIPA    H714R           9.3074217049        4.3558641567        1.8996821354  LPSA4     1               0.0000000000
      3466       109  ECLIPA    H714S           8.8430414052        6.0773084264        2.2738970617  LPSA4     1               0.0000000000
      3467       109  ECLIPA    H714T          10.0098970570        5.7281033330        1.0140159625  LPSA4     1               0.0000000000
      3468       109  ECLIPA    C51            10.6921115213        9.6779338210       14.2396207642  LPSA4     1               0.0000000000
      3469       109  ECLIPA    O51            11.6930993184        9.0089207675       14.0824133341  LPSA4     1               0.0000000000
      3470       109  ECLIPA    C52             9.8228995958       10.0125939950       13.0631424584  LPSA4     1               0.0000000000
      3471       109  ECLIPA    H52R            9.0281107823        9.2438253280       12.9432498312  LPSA4     1               0.0000000000
      3472       109  ECLIPA    H52S            9.3674017109       10.9751679217       13.2914248184  LPSA4     1               0.0000000000
      3473       109  ECLIPA    C53            10.6411058653       10.1226296630       11.7647226812  LPSA4     1               0.0000000000
      3474       109  ECLIPA    H53R           11.6536175791       10.5360804192       11.9889233437  LPSA4     1               0.0000000000
      3475       109  ECLIPA    O53             9.8945238787       10.9456244037       10.8550993608  LPSA4     1               0.0000000000
      3476       109  ECLIPA    C61            10.3853935236       12.1413809441       10.5630309013  LPSA4     1               0.0000000000
      3477       109  ECLIPA    O61            11.4552799229       12.5884998338       10.8893233597  LPSA4     1               0.0000000000
      3478       109  ECLIPA    C62             9.4488250806       12.8528254589        9.6211024042  LPSA4     1               0.0000000000
      3479       109  ECLIPA    H62R            8.6380617060       13.3336219744       10.2113702656  LPSA4     1               0.0000000000
      3480       109  ECLIPA    H62S            9.0303355688       12.0346485310        9.0009880978  LPSA4     1               0.0000000000
      3481       109  ECLIPA    C63            10.2203156318       13.8882606492        8.7694385513  LPSA4     1               0.0000000000
      3482       109  ECLIPA    H63R           11.1106650209       13.4286000830        8.3121203055  LPSA4     1               0.0000000000
      3483       109  ECLIPA    H63S           10.4599584263       14.8022728452        9.3610299257  LPSA4     1               0.0000000000
      3484       109  ECLIPA    C64             9.4953891210       14.3561552059        7.5566753515  LPSA4     1               0.0000000000
      3485       109  ECLIPA    H64R            9.9195145246       15.2587603095        7.0549356046  LPSA4     1               0.0000000000
      3486       109  ECLIPA    H64S            8.4969881153       14.5052702319        8.0115519137  LPSA4     1               0.0000000000
      3487       109  ECLIPA    C65             9.2270524505       13.3218281183        6.5419844104  LPSA4     1               0.0000000000
      3488       109  ECLIPA    H65R            8.5908949764       12.6364473256        7.1561883652  LPSA4     1               0.0000000000
      3489       109  ECLIPA    H65S           10.0699075652       12.7316633102        6.1977267542  LPSA4     1               0.0000000000
      3490       109  ECLIPA    C66             8.5042727483       13.8010009940        5.2971635452  LPSA4     1               0.0000000000
      3491       109  ECLIPA    H66R            7.5725015475       14.3875285300        5.4914709339  LPSA4     1               0.0000000000
      3492       109  ECLIPA    H66S            8.3222568654       12.7666682317        4.9120430475  LPSA4     1               0.0000000000
      3493       109  ECLIPA    C67             9.0167654807       14.5860812933        4.1389397947  LPSA4     1               0.0000000000
      3494       109  ECLIPA    H67R            9.3752333984       15.5431772458        4.5426273490  LPSA4     1               0.0000000000
      3495       109  ECLIPA    H67S            8.2447186135       14.8219811152        3.3552268319  LPSA4     1               0.0000000000
      3496       109  ECLIPA    C68            10.0898425662       13.8574223254        3.4618152405  LPSA4     1               0.0000000000
      3497       109  ECLIPA    H68R            9.8115893695       12.8435716617        3.1046060937  LPSA4     1               0.0000000000
      3498       109  ECLIPA    H68S           10.8478069525       13.7806549345        4.2655989107  LPSA4     1               0.0000000000
      3499       109  ECLIPA    C69            10.4482386739       14.6854356709        2.2664270013  LPSA4     1               0.0000000000
      3500       109  ECLIPA    H69R           10.2291297531       15.7732477731        2.3840318347  LPSA4     1               0.0000000000
      3501       109  ECLIPA    H69S            9.7802428637       14.3403082202        1.4493222620  LPSA4     1               0.0000000000
      3502       109  ECLIPA    C610           11.9019622531       14.4864575276        1.9631124808  LPSA4     1               0.0000000000
      3503       109  ECLIPA    H610R          12.1690468882       13.4081474689        2.0309222275  LPSA4     1               0.0000000000
      3504       109  ECLIPA    H610S          12.5195208005       15.0407179280        2.7052356814  LPSA4     1               0.0000000000
      3505       109  ECLIPA    C611           12.1811295274       15.0265415830        0.5928286683  LPSA4     1               0.0000000000
      3506       109  ECLIPA    H611R          11.7972843052       16.0525882799        0.5139334231  LPSA4     1               0.0000000000
      3507       109  ECLIPA    H611S          13.2845021688       14.9423148188        0.4780877109  LPSA4     1               0.0000000000
      3508       109  ECLIPA    C612           11.5194684706       14.3096884036       -0.5235273785  LPSA4     1               0.0000000000
      3509       109  ECLIPA    H612R          11.9991295669       13.3408588447       -0.3736959959  LPSA4     1               0.0000000000
      3510       109  ECLIPA    H612S          10.4473632458       14.1192015040       -0.3785989638  LPSA4     1               0.0000000000
      3511       109  ECLIPA    H612T          11.7165186171       14.7412389211       -1.5338436900  LPSA4     1               0.0000000000
      3512       109  ECLIPA    C54            10.7674732797        8.7022344762       11.1687452779  LPSA4     1               0.0000000000
      3513       109  ECLIPA    H54R            9.7462082804        8.3708996574       10.8812024839  LPSA4     1               0.0000000000
      3514       109  ECLIPA    H54S           11.1252616234        8.0341658055       11.9778735553  LPSA4     1               0.0000000000
      3515       109  ECLIPA    C55            11.7123007305        8.5427456795        9.9648447559  LPSA4     1               0.0000000000
      3516       109  ECLIPA    H55R           11.9687443460        7.4734004625        9.8281487415  LPSA4     1               0.0000000000
      3517       109  ECLIPA    H55S           12.6766391854        9.0413642282       10.2020067293  LPSA4     1               0.0000000000
      3518       109  ECLIPA    C56            11.0272197500        9.0541291602        8.6921333584  LPSA4     1               0.0000000000
      3519       109  ECLIPA    H56R           10.7247643829       10.1043763291        8.8598779430  LPSA4     1               0.0000000000
      3520       109  ECLIPA    H56S           10.0976258064        8.4694866399        8.5046890924  LPSA4     1               0.0000000000
      3521       109  ECLIPA    C57            11.8487750848        9.0896976902        7.4094360050  LPSA4     1               0.0000000000
      3522       109  ECLIPA    H57R           12.3009108904        8.1005246333        7.1819088308  LPSA4     1               0.0000000000
      3523       109  ECLIPA    H57S           12.6892851050        9.8082943496        7.5440908430  LPSA4     1               0.0000000000
      3524       109  ECLIPA    C58            10.9599013091        9.5831820723        6.2552435632  LPSA4     1               0.0000000000
      3525       109  ECLIPA    H58R            9.9848381390        9.0528231274        6.2197780751  LPSA4     1               0.0000000000
      3526       109  ECLIPA    H58S           10.7089236609       10.6486896216        6.4638914884  LPSA4     1               0.0000000000
      3527       109  ECLIPA    C59            11.6478117989        9.4184752463        4.9015299389  LPSA4     1               0.0000000000
      3528       109  ECLIPA    H59R           11.9347349682        8.3554620460        4.7218853763  LPSA4     1               0.0000000000
      3529       109  ECLIPA    H59S           12.5870817049       10.0107435393        4.9670950547  LPSA4     1               0.0000000000
      3530       109  ECLIPA    C510           10.7475944599        9.7917079289        3.7278753635  LPSA4     1               0.0000000000
      3531       109  ECLIPA    H510R          10.2251004888       10.7619999166        3.8581883339  LPSA4     1               0.0000000000
      3532       109  ECLIPA    H510S           9.9812311841        8.9973311115        3.5590690259  LPSA4     1               0.0000000000
      3533       109  ECLIPA    C511           11.4807892880        9.9170408904        2.4402875436  LPSA4     1               0.0000000000
      3534       109  ECLIPA    H511R          12.0113531176       10.8934173990        2.3646516283  LPSA4     1               0.0000000000
      3535       109  ECLIPA    H511S          12.2377386778        9.1101651583        2.2628488935  LPSA4     1               0.0000000000
      3536       109  ECLIPA    C512           10.4524015051        9.9370946972        1.3184591967  LPSA4     1               0.0000000000
      3537       109  ECLIPA    H512R          10.8216334207        9.5938835345        0.3360692236  LPSA4     1               0.0000000000
      3538       109  ECLIPA    H512S           9.7545638811        9.1624524936        1.5625537783  LPSA4     1               0.0000000000
      3539       109  ECLIPA    C513            9.9678665201       11.3139285190        0.9869421306  LPSA4     1               0.0000000000
      3540       109  ECLIPA    H513R          10.7289994307       12.0700628567        0.6941409623  LPSA4     1               0.0000000000
      3541       109  ECLIPA    H513S           9.1772640340       11.6001996598        1.6856421712  LPSA4     1               0.0000000000
      3542       109  ECLIPA    C514            9.2288831866       11.2642664221       -0.2078145037  LPSA4     1               0.0000000000
      3543       109  ECLIPA    H514R           8.5477986822       10.4258704839       -0.0859944930  LPSA4     1               0.0000000000
      3544       109  ECLIPA    H514S           8.5532178352       12.1000786526       -0.4464489350  LPSA4     1               0.0000000000
      3545       109  ECLIPA    H514T           9.9504044169       11.1038710375       -1.0530042763  LPSA4     1               0.0000000000
      3546       109  ECLIPA    C33             9.1556965076       14.5986763724       14.4594259540  LPSA4     1               0.0000000000
      3547       109  ECLIPA    H33R            8.2652828385       15.0540800364       14.7824587996  LPSA4     1               0.0000000000
      3548       109  ECLIPA    O33             9.4483833459       13.6210571835       15.4189227232  LPSA4     1               0.0000000000
      3549       109  ECLIPA    HO33            9.2900660524       13.9765299287       16.3060438921  LPSA4     1               0.0000000000
      3550       109  ECLIPA    C34             8.6336980172       13.9009412405       13.2862128091  LPSA4     1               0.0000000000
      3551       109  ECLIPA    H34R            9.3986662726       13.2533145400       12.8216227820  LPSA4     1               0.0000000000
      3552       109  ECLIPA    H34S            8.2921391229       14.6113201229       12.4762498678  LPSA4     1               0.0000000000
      3553       109  ECLIPA    C35             7.4452209815       13.0720420131       13.8190060027  LPSA4     1               0.0000000000
      3554       109  ECLIPA    H35R            6.4594722867       13.6316000506       13.9634773009  LPSA4     1               0.0000000000
      3555       109  ECLIPA    H35S            7.5712198324       12.3212350452       14.6036687490  LPSA4     1               0.0000000000
      3556       109  ECLIPA    C36             7.4218047771       12.1208068682       12.7428028775  LPSA4     1               0.0000000000
      3557       109  ECLIPA    H36R            8.2151017588       11.9300595341       12.0293560796  LPSA4     1               0.0000000000
      3558       109  ECLIPA    H36S            7.0019243560       13.0741360721       12.3208419272  LPSA4     1               0.0000000000
      3559       109  ECLIPA    C37             6.8965901203       10.6918211654       12.9735655344  LPSA4     1               0.0000000000
      3560       109  ECLIPA    H37R            6.0160179136       10.7383271630       13.6821581957  LPSA4     1               0.0000000000
      3561       109  ECLIPA    H37S            7.2419957446       10.2334585582       13.8755016565  LPSA4     1               0.0000000000
      3562       109  ECLIPA    C38             6.8064078334        9.7452153414       11.6352631493  LPSA4     1               0.0000000000
      3563       109  ECLIPA    H38R            7.7116541402        9.1785383667       11.4467565197  LPSA4     1               0.0000000000
      3564       109  ECLIPA    H38S            5.8353730170        9.1744164265       11.6218751405  LPSA4     1               0.0000000000
      3565       109  ECLIPA    C39             6.3119879964        9.9697420656       10.2111555415  LPSA4     1               0.0000000000
      3566       109  ECLIPA    H39R            7.0786930654       10.7143559325        9.9118570791  LPSA4     1               0.0000000000
      3567       109  ECLIPA    H39S            5.1660472254       10.0881349937       10.1556099890  LPSA4     1               0.0000000000
      3568       109  ECLIPA    C310            6.5142010507        9.4587850800        8.8513588294  LPSA4     1               0.0000000000
      3569       109  ECLIPA    H310R           5.4656222951        9.0014571853        8.6787545637  LPSA4     1               0.0000000000
      3570       109  ECLIPA    H310S           7.4837271920        8.9297828681        8.8920164009  LPSA4     1               0.0000000000
      3571       109  ECLIPA    C311            6.8106552102       10.0898848645        7.5762123504  LPSA4     1               0.0000000000
      3572       109  ECLIPA    H311R           5.8510368836       10.4453269499        7.6467068706  LPSA4     1               0.0000000000
      3573       109  ECLIPA    H311S           7.7448622261       10.6266653768        7.4484331040  LPSA4     1               0.0000000000
      3574       109  ECLIPA    C312            6.2484512055        9.6230768472        6.2803967909  LPSA4     1               0.0000000000
      3575       109  ECLIPA    H312R           6.7660742208        8.8850183970        6.8761920646  LPSA4     1               0.0000000000
      3576       109  ECLIPA    H312S           5.1446539138        9.4539874694        6.1303899872  LPSA4     1               0.0000000000
      3577       109  ECLIPA    C313            7.0384237824        9.8930151441        5.0425227478  LPSA4     1               0.0000000000
      3578       109  ECLIPA    H313R           6.2752762344       10.5603577847        4.7133696483  LPSA4     1               0.0000000000
      3579       109  ECLIPA    H313S           8.0140562424       10.3055988720        5.2567509303  LPSA4     1               0.0000000000
      3580       109  ECLIPA    C314            7.0750904697        9.1506582213        3.7955955003  LPSA4     1               0.0000000000
      3581       109  ECLIPA    H314R           5.9885833093        9.2372766627        3.4932983090  LPSA4     1               0.0000000000
      3582       109  ECLIPA    H314S           7.4383986256        9.4836054878        2.8304922305  LPSA4     1               0.0000000000
      3583       109  ECLIPA    H314T           7.5048938158        8.1424872072        4.0056361199  LPSA4     1               0.0000000000
      3584       109  ECLIPA    C11            14.4863787737       12.5798004285       11.2547263079  LPSA4     1               0.0000000000
      3585       109  ECLIPA    O11            14.2067702732       11.3989217781       11.0951550993  LPSA4     1               0.0000000000
      3586       109  ECLIPA    C12            15.4610086454       13.2592522871       10.3255064564  LPSA4     1               0.0000000000
      3587       109  ECLIPA    H12R           16.4856860779       12.9067573798       10.5520015320  LPSA4     1               0.0000000000
      3588       109  ECLIPA    H12S           15.3985375770       14.3516961794       10.5120792843  LPSA4     1               0.0000000000
      3589       109  ECLIPA    C13            15.1429461898       13.0101557252        8.8540119831  LPSA4     1               0.0000000000
      3590       109  ECLIPA    H13R           14.8746785229       11.9476044795        8.6432159402  LPSA4     1               0.0000000000
      3591       109  ECLIPA    O13            16.3223100497       13.3210051307        8.1197536741  LPSA4     1               0.0000000000
      3592       109  ECLIPA    HO13           16.4176861769       12.8482562936        7.2882960843  LPSA4     1               0.0000000000
      3593       109  ECLIPA    C14            13.9731690584       13.9223738785        8.4388078337  LPSA4     1               0.0000000000
      3594       109  ECLIPA    H14R           14.0475309169       14.9045154168        8.9586968411  LPSA4     1               0.0000000000
      3595       109  ECLIPA    H14S           13.0503913537       13.4096321151        8.7798638686  LPSA4     1               0.0000000000
      3596       109  ECLIPA    C15            13.8216034077       14.1878200887        6.9462333664  LPSA4     1               0.0000000000
      3597       109  ECLIPA    H15R           14.7761426874       14.6151214912        6.5682024438  LPSA4     1               0.0000000000
      3598       109  ECLIPA    H15S           13.0416222825       14.9734642551        6.8253066824  LPSA4     1               0.0000000000
      3599       109  ECLIPA    C16            13.4392339726       12.9169657914        6.1784630058  LPSA4     1               0.0000000000
      3600       109  ECLIPA    H16R           12.3518251538       12.7250019788        6.2756399453  LPSA4     1               0.0000000000
      3601       109  ECLIPA    H16S           13.9394405506       12.0440454353        6.6472679972  LPSA4     1               0.0000000000
      3602       109  ECLIPA    C17            13.8054978291       13.0419096867        4.6995939556  LPSA4     1               0.0000000000
      3603       109  ECLIPA    H17R           13.4873894583       14.0606648656        4.3836839885  LPSA4     1               0.0000000000
      3604       109  ECLIPA    H17S           13.2688999120       12.3080118094        4.0618284930  LPSA4     1               0.0000000000
      3605       109  ECLIPA    C18            15.3083623277       12.8840690335        4.4729782006  LPSA4     1               0.0000000000
      3606       109  ECLIPA    H18R           15.8161689552       13.6459786982        5.0995766064  LPSA4     1               0.0000000000
      3607       109  ECLIPA    H18S           15.6393389155       11.8690473905        4.7900329086  LPSA4     1               0.0000000000
      3608       109  ECLIPA    C19            15.7191024549       13.1079731254        3.0281820481  LPSA4     1               0.0000000000
      3609       109  ECLIPA    H19R           16.8278854717       13.1488633811        2.9452252185  LPSA4     1               0.0000000000
      3610       109  ECLIPA    H19S           15.3044447469       14.0757032411        2.6535076334  LPSA4     1               0.0000000000
      3611       109  ECLIPA    C110           15.2319842701       12.0080282071        2.1023810049  LPSA4     1               0.0000000000
      3612       109  ECLIPA    H110R          15.5076080951       10.9867336964        2.4556690156  LPSA4     1               0.0000000000
      3613       109  ECLIPA    H110S          14.1228124897       12.0851832100        2.1218833308  LPSA4     1               0.0000000000
      3614       109  ECLIPA    C111           15.8990373350       12.2860986465        0.7429847436  LPSA4     1               0.0000000000
      3615       109  ECLIPA    H111R          15.6373977054       13.3191251051        0.4113077118  LPSA4     1               0.0000000000
      3616       109  ECLIPA    H111S          16.9749438510       12.1228844563        0.8582262497  LPSA4     1               0.0000000000
      3617       109  ECLIPA    C112           15.5952927310       11.3230937756       -0.3747778149  LPSA4     1               0.0000000000
      3618       109  ECLIPA    H112R          15.5822400498       10.2834420116        0.0316321814  LPSA4     1               0.0000000000
      3619       109  ECLIPA    H112S          14.6182961372       11.8268352726       -0.4130745210  LPSA4     1               0.0000000000
      3620       109  ECLIPA    C113           15.7488083600       11.6437267453       -1.8823949581  LPSA4     1               0.0000000000
      3621       109  ECLIPA    H113R          15.0922897427       12.5372015792       -2.0801414518  LPSA4     1               0.0000000000
      3622       109  ECLIPA    H113S          16.7822978558       11.9716419219       -1.9176693889  LPSA4     1               0.0000000000
      3623       109  ECLIPA    C114           15.5045504561       10.5874818259       -3.0239762261  LPSA4     1               0.0000000000
      3624       109  ECLIPA    H114R          15.8198611310        9.5663847921       -2.7348466930  LPSA4     1               0.0000000000
      3625       109  ECLIPA    H114S          14.4467050969       10.4345024789       -3.3617653925  LPSA4     1               0.0000000000
      3626       109  ECLIPA    H114T          15.9744483559       10.9566054500       -3.9364638376  LPSA4     1               0.0000000000
      3627       110  AKDO      C1              9.3444357742        9.2348641968       22.4159969664  LPSA4     2               0.0000000000
      3628       110  AKDO      O11             8.6609746589        8.1824337769       22.4060737950  LPSA4     2               0.0000000000
      3629       110  AKDO      O12             8.9533628765       10.3817945270       22.0597893639  LPSA4     2               0.0000000000
      3630       110  AKDO      C2             10.8273690801        9.1246780310       22.8782769501  LPSA4     2               0.0000000000
      3631       110  AKDO      C6             12.4521271270        7.6360110858       23.8632298584  LPSA4     2               0.0000000000
      3632       110  AKDO      H6             13.0583883840        7.8482032878       22.9460261001  LPSA4     2               0.0000000000
      3633       110  AKDO      O6             11.0869135844        7.8207512611       23.4632002016  LPSA4     2               0.0000000000
      3634       110  AKDO      C3             11.2128511121       10.1649408483       23.9289931656  LPSA4     2               0.0000000000
      3635       110  AKDO      H31            10.5090378442       10.1107803970       24.7876091440  LPSA4     2               0.0000000000
      3636       110  AKDO      H32            11.1183098024       11.1679974186       23.4553715347  LPSA4     2               0.0000000000
      3637       110  AKDO      C4             12.6298239018       10.0022568902       24.3748227953  LPSA4     2               0.0000000000
      3638       110  AKDO      H4             13.3015812815       10.0535690725       23.4860881479  LPSA4     2               0.0000000000
      3639       110  AKDO      O4             12.9762781638       10.9624475115       25.3781927937  LPSA4     2               0.0000000000
      3640       110  AKDO      C5             12.8518517679        8.6318206003       24.9632990551  LPSA4     2               0.0000000000
      3641       110  AKDO      H5             13.9562274687        8.5042910031       25.0872903314  LPSA4     2               0.0000000000
      3642       110  AKDO      O5             12.1618842183        8.5804554260       26.2527688643  LPSA4     2               0.0000000000
      3643       110  AKDO      C7             12.7309104536        6.1730764029       24.1745707760  LPSA4     2               0.0000000000
      3644       110  AKDO      H7             12.1501505605        5.8863866043       25.0772274546  LPSA4     2               0.0000000000
      3645       110  AKDO      O7             14.1502474115        5.9368078620       24.3644984179  LPSA4     2               0.0000000000
      3646       110  AKDO      HO7            14.4414357966        5.9421347523       23.4531888313  LPSA4     2               0.0000000000
      3647       110  AKDO      C8             12.2413751501        5.3409026117       23.0082471430  LPSA4     2               0.0000000000
      3648       110  AKDO      H81            11.1429130408        5.5024587923       22.8602479469  LPSA4     2               0.0000000000
      3649       110  AKDO      H82            12.7762732439        5.6144027208       22.0733083728  LPSA4     2               0.0000000000
      3650       110  AKDO      O8             12.4925983429        3.9674263345       23.2693623863  LPSA4     2               0.0000000000
      3651       110  AKDO      HO8            11.7103332050        3.4712995382       22.9348446427  LPSA4     2               0.0000000000
      3652       111  AKDO      C1             14.3157304771       12.2492866477       23.8035851268  LPSA4     3               1.0000000000
      3653       111  AKDO      O11            13.8358318581       12.4906148240       22.6643746908  LPSA4     3               1.0000000000
      3654       111  AKDO      O12            15.5066895055       11.9513902194       24.1100411971  LPSA4     3               1.0000000000
      3655       111  AKDO      C2             13.3455673625       12.2736431186       25.0067329526  LPSA4     3               1.0000000000
      3656       111  AKDO      C6             11.2613319656       13.1134621121       25.7999495388  LPSA4     3               1.0000000000
      3657       111  AKDO      H6             10.8618396984       12.0825730373       25.9794305746  LPSA4     3               1.0000000000
      3658       111  AKDO      O6             12.2076513228       13.1051649385       24.7229317415  LPSA4     3               1.0000000000
      3659       111  AKDO      C3             13.9751340589       12.8009110595       26.3152444082  LPSA4     3               1.0000000000
      3660       111  AKDO      H31            14.3347019996       13.8378382700       26.1483291009  LPSA4     3               1.0000000000
      3661       111  AKDO      H32            14.8719666714       12.2116800593       26.5867444887  LPSA4     3               1.0000000000
      3662       111  AKDO      C4             12.9666307606       12.7676985684       27.4194603037  LPSA4     3               1.0000000000
      3663       111  AKDO      H4             12.5337441805       11.7393217148       27.4826972180  LPSA4     3               1.0000000000
      3664       111  AKDO      O4             13.5072023950       13.0833945833       28.6797073678  LPSA4     3               1.0000000000
      3665       111  AKDO      HO4            13.3115108808       12.3936397784       29.3332357099  LPSA4     3               1.0000000000
      3666       111  AKDO      C5             11.8577682481       13.6814260336       27.0617912702  LPSA4     3               1.0000000000
      3667       111  AKDO      H5             11.1332600817       13.6525746326       27.9105748595  LPSA4     3               1.0000000000
      3668       111  AKDO      O5             12.2614923050       15.0391178223       26.8543463804  LPSA4     3               1.0000000000
      3669       111  AKDO      HO5            12.9469625062       15.0092754401       26.1806650221  LPSA4     3               1.0000000000
      3670       111  AKDO      C7             10.1595071171       13.9638539415       25.3584671147  LPSA4     3               1.0000000000
      3671       111  AKDO      H7             10.4744448415       14.9769158984       25.1017822540  LPSA4     3               1.0000000000
      3672       111  AKDO      O7              9.3517885789       14.2226683093       26.5023672862  LPSA4     3               1.0000000000
      3673       111  AKDO      HO7             8.5285857671       14.5743945836       26.1531803415  LPSA4     3               1.0000000000
      3674       111  AKDO      C8              9.5826235908       13.3340656238       24.1007633333  LPSA4     3               1.0000000000
      3675       111  AKDO      H81            10.3520503262       13.1160959150       23.3447833299  LPSA4     3               1.0000000000
      3676       111  AKDO      H82             9.0542401698       12.3776016326       24.3014081228  LPSA4     3               1.0000000000
      3677       111  AKDO      O8              8.7905345647       14.2340027908       23.3699810402  LPSA4     3               1.0000000000
      3678       111  AKDO      HO8             9.1794764100       15.0525085035       23.1046766964  LPSA4     3               1.0000000000
      3679       112  AHEP      C1             12.7397182167        7.7554650995       27.2463696720  LPSA4     4               2.0000000000
      3680       112  AHEP      H1             12.4862406273        6.7283518205       26.9065441615  LPSA4     4               2.0000000000
      3681       112  AHEP      C5             14.6962969136        8.9631327788       27.9914126597  LPSA4     4               2.0000000000
      3682       112  AHEP      H5             14.2380867112        9.8571214875       27.5116956460  LPSA4     4               2.0000000000
      3683       112  AHEP      O5             14.1709959855        7.8048099531       27.2981662517  LPSA4     4               2.0000000000
      3684       112  AHEP      C2             12.2245885937        7.7940487830       28.7050443055  LPSA4     4               2.0000000000
      3685       112  AHEP      H2             11.1170825984        7.8207340910       28.6714393652  LPSA4     4               2.0000000000
      3686       112  AHEP      O2             12.5705104295        6.5850049719       29.3761307912  LPSA4     4               2.0000000000
      3687       112  AHEP      HO2            11.8240717228        6.2664591791       29.8771008978  LPSA4     4               2.0000000000
      3688       112  AHEP      C3             12.7049809259        9.0001739855       29.4964318733  LPSA4     4               2.0000000000
      3689       112  AHEP      H3             12.3010951808        9.9562471479       29.0956160998  LPSA4     4               2.0000000000
      3690       112  AHEP      O3             12.3261598958        8.8625997225       30.8870632580  LPSA4     4               2.0000000000
      3691       112  AHEP      C4             14.2211652456        8.9811868612       29.4553115128  LPSA4     4               2.0000000000
      3692       112  AHEP      H4             14.6475472777        8.0843349250       29.9682306006  LPSA4     4               2.0000000000
      3693       112  AHEP      O4             14.6211662166       10.2066907658       30.0711236726  LPSA4     4               2.0000000000
      3694       112  AHEP      P4             15.4643922897       10.2122226310       31.5039867642  LPSA4     4               2.0000000000
      3695       112  AHEP      OP42           15.0661464997       11.5199292405       32.1843929866  LPSA4     4               2.0000000000
      3696       112  AHEP      OP43           16.9211426567       10.1590918217       31.0650331705  LPSA4     4               2.0000000000
      3697       112  AHEP      OP44           15.0372151473        8.9843290451       32.3143705212  LPSA4     4               2.0000000000
      3698       112  AHEP      C6             16.2365188111        9.0009578689       27.7883327538  LPSA4     4               2.0000000000
      3699       112  AHEP      H6             16.5529403697       10.0379248519       28.0839687743  LPSA4     4               2.0000000000
      3700       112  AHEP      O6             16.9722041153        8.0822303538       28.6202396418  LPSA4     4               2.0000000000
      3701       112  AHEP      HO6            17.5226064820        8.5722688894       29.2616412255  LPSA4     4               2.0000000000
      3702       112  AHEP      C7             16.6961973528        8.7464107189       26.3294925195  LPSA4     4               2.0000000000
      3703       112  AHEP      H71            17.7512075899        9.0794582631       26.2023632693  LPSA4     4               2.0000000000
      3704       112  AHEP      H72            16.0589787814        9.3531742644       25.6494080117  LPSA4     4               2.0000000000
      3705       112  AHEP      O7             16.6768671318        7.3724731717       25.8720376875  LPSA4     4               2.0000000000
      3706       112  AHEP      HO7            17.3168659430        6.9942456710       26.4829741011  LPSA4     4               2.0000000000
      3707       113  AHEP      C1             11.5245213148        9.8630260167       31.4609311985  LPSA4     5               3.0000000000
      3708       113  AHEP      H1             11.7228097135       10.8551506255       30.9841797672  LPSA4     5               3.0000000000
      3709       113  AHEP      C5              9.8055493731        8.3086299469       31.9896274991  LPSA4     5               3.0000000000
      3710       113  AHEP      H5             10.4927137118        7.5178375702       31.6048892734  LPSA4     5               3.0000000000
      3711       113  AHEP      O5             10.1424656375        9.5232834873       31.2934845699  LPSA4     5               3.0000000000
      3712       113  AHEP      C2             11.8154918059       10.0018307466       32.9597486014  LPSA4     5               3.0000000000
      3713       113  AHEP      H2             12.9044931872       10.1888235542       33.0838530467  LPSA4     5               3.0000000000
      3714       113  AHEP      O2             11.1454363254       11.1450994323       33.4846479876  LPSA4     5               3.0000000000
      3715       113  AHEP      HO2            11.7478822334       11.8765127786       33.6485818848  LPSA4     5               3.0000000000
      3716       113  AHEP      C3             11.4676379646        8.7253425728       33.7254509848  LPSA4     5               3.0000000000
      3717       113  AHEP      H3             12.0864251251        7.8944171093       33.3128825327  LPSA4     5               3.0000000000
      3718       113  AHEP      O3             11.6564164672        8.7998014801       35.1548495375  LPSA4     5               3.0000000000
      3719       113  AHEP      C4             10.0147388117        8.4218127517       33.4770008430  LPSA4     5               3.0000000000
      3720       113  AHEP      H4              9.3497854027        9.2485871911       33.8506531695  LPSA4     5               3.0000000000
      3721       113  AHEP      O4              9.7295170904        7.1325492944       34.0385162894  LPSA4     5               3.0000000000
      3722       113  AHEP      P4              8.6726432131        7.0409204516       35.3130891913  LPSA4     5               3.0000000000
      3723       113  AHEP      OP42            8.8683185820        5.6256590456       35.8532033980  LPSA4     5               3.0000000000
      3724       113  AHEP      OP43            7.3417488770        7.2509116795       34.6300576182  LPSA4     5               3.0000000000
      3725       113  AHEP      OP44            9.0766652538        8.1211813971       36.3183881653  LPSA4     5               3.0000000000
      3726       113  AHEP      C6              8.4143684315        7.8964870480       31.6203454294  LPSA4     5               3.0000000000
      3727       113  AHEP      H6              8.1814292689        6.8983623141       32.0850000507  LPSA4     5               3.0000000000
      3728       113  AHEP      O6              7.3789888906        8.8010522934       32.0087641752  LPSA4     5               3.0000000000
      3729       113  AHEP      HO6             7.3936577149        9.6320997354       31.5519644779  LPSA4     5               3.0000000000
      3730       113  AHEP      C7              8.3992317858        7.7174370892       30.1546690636  LPSA4     5               3.0000000000
      3731       113  AHEP      H71             7.8179437775        6.8555267579       30.1829520313  LPSA4     5               3.0000000000
      3732       113  AHEP      H72             9.2927928526        7.3406521372       29.6305607253  LPSA4     5               3.0000000000
      3733       113  AHEP      O7              7.6969860216        8.6670723449       29.4054779044  LPSA4     5               3.0000000000
      3734       114  AHEP      C1              8.6632620203        9.4736842496       28.8370985355  LPSA4     6               4.0000000000
      3735       114  AHEP      H1              9.6915563562        9.2421761030       29.0792335453  LPSA4     6               4.0000000000
      3736       114  AHEP      C5              7.4425569797        9.7486246922       26.9592887787  LPSA4     6               4.0000000000
      3737       114  AHEP      H5              6.6280595689        9.1073115920       27.4954956781  LPSA4     6               4.0000000000
      3738       114  AHEP      O5              8.6535468625        9.3301325619       27.4524976234  LPSA4     6               4.0000000000
      3739       114  AHEP      C2              8.5131351324       10.8286712025       29.3334303942  LPSA4     6               4.0000000000
      3740       114  AHEP      H2              8.5415838422       10.9376079012       30.4407629385  LPSA4     6               4.0000000000
      3741       114  AHEP      O2              9.5113482054       11.7004588172       28.7681815368  LPSA4     6               4.0000000000
      3742       114  AHEP      HO2             9.8940133336       12.1709543666       29.5076431862  LPSA4     6               4.0000000000
      3743       114  AHEP      C3              7.2669074410       11.2524098929       28.9332503510  LPSA4     6               4.0000000000
      3744       114  AHEP      H3              6.4823116057       10.5731610742       29.3883329607  LPSA4     6               4.0000000000
      3745       114  AHEP      O3              7.1409782268       12.5029258866       29.4703983044  LPSA4     6               4.0000000000
      3746       114  AHEP      HO3             6.2681156758       12.7737975922       29.8224934751  LPSA4     6               4.0000000000
      3747       114  AHEP      C4              7.3589199021       11.0817187098       27.4844967246  LPSA4     6               4.0000000000
      3748       114  AHEP      H4              7.8165480315       11.8861714770       26.8999829766  LPSA4     6               4.0000000000
      3749       114  AHEP      O4              6.3518336392       11.1219108723       26.9229765137  LPSA4     6               4.0000000000
      3750       114  AHEP      HO4             5.5475854720       11.1213937952       27.4360845348  LPSA4     6               4.0000000000
      3751       114  AHEP      C6              7.1224543913        9.6468857307       25.3928678866  LPSA4     6               4.0000000000
      3752       114  AHEP      H6              6.0425400347        9.8716301620       25.1231309529  LPSA4     6               4.0000000000
      3753       114  AHEP      O6              7.7887976188       10.4970149392       24.5485928488  LPSA4     6               4.0000000000
      3754       114  AHEP      HO6             8.1129288945        9.8836193996       23.8632136709  LPSA4     6               4.0000000000
      3755       114  AHEP      C7              7.4791680096        8.3625475089       25.0411331678  LPSA4     6               4.0000000000
      3756       114  AHEP      H71             6.9769890474        8.0216111548       24.0929249147  LPSA4     6               4.0000000000
      3757       114  AHEP      H72             7.0657904444        7.9522035022       25.9657574839  LPSA4     6               4.0000000000
      3758       114  AHEP      O7              8.7547452619        7.8536530275       25.2503217350  LPSA4     6               4.0000000000
      3759       114  AHEP      HO7             8.6438009584        7.3496128767       26.0571685102  LPSA4     6               4.0000000000
      3760       115  AGLC      C1             12.8903808459        8.3555994314       35.6523164224  LPSA4     7               4.0000000000
      3761       115  AGLC      H1             13.2073184059        7.4086756131       35.1613877391  LPSA4     7               4.0000000000
      3762       115  AGLC      C5             13.5932356651       10.5967258393       36.0966851562  LPSA4     7               4.0000000000
      3763       115  AGLC      H5             12.5761146525       10.9626710586       35.8223647640  LPSA4     7               4.0000000000
      3764       115  AGLC      O5             13.8737242593        9.3603487796       35.4203888175  LPSA4     7               4.0000000000
      3765       115  AGLC      C2             12.9209502906        8.1034536011       37.1698513418  LPSA4     7               4.0000000000
      3766       115  AGLC      H2             13.9887063879        7.9044248722       37.4256708808  LPSA4     7               4.0000000000
      3767       115  AGLC      O2             12.2155340714        6.9384888336       37.5979710860  LPSA4     7               4.0000000000
      3768       115  AGLC      HO2            11.2576223745        7.1476138785       37.5872833497  LPSA4     7               4.0000000000
      3769       115  AGLC      C3             12.5537789033        9.3260788199       37.9716041627  LPSA4     7               4.0000000000
      3770       115  AGLC      H3             11.5607825163        9.6803755799       37.6070383179  LPSA4     7               4.0000000000
      3771       115  AGLC      O3             12.4496371281        9.0637762269       39.4001570561  LPSA4     7               4.0000000000
      3772       115  AGLC      C4             13.6008784004       10.3740478902       37.6112018211  LPSA4     7               4.0000000000
      3773       115  AGLC      H4             14.6185842627       10.0113016517       37.9195218344  LPSA4     7               4.0000000000
      3774       115  AGLC      O4             13.2927348677       11.5893969052       38.2783512381  LPSA4     7               4.0000000000
      3775       115  AGLC      HO4            14.0616609602       12.0148028087       38.6790449193  LPSA4     7               4.0000000000
      3776       115  AGLC      C6             14.5533073157       11.6154958496       35.5106004869  LPSA4     7               4.0000000000
      3777       115  AGLC      H61            14.3809372790       11.6514354164       34.4110224976  LPSA4     7               4.0000000000
      3778       115  AGLC      H62            14.3577421306       12.6421632205       35.9031520071  LPSA4     7               4.0000000000
      3779       115  AGLC      O6             15.9189860076       11.2802232180       35.7393877572  LPSA4     7               4.0000000000
      3780       115  AGLC      HO6            16.1264382260       11.7125645171       36.5512400262  LPSA4     7               4.0000000000
      3781       116  AGLC      C1             11.1478941156        9.3042565759       39.9177914598  LPSA4     8               5.0000000000
      3782       116  AGLC      H1             10.7530900418       10.2612633045       39.5100408006  LPSA4     8               5.0000000000
      3783       116  AGLC      C5             10.4268569619        6.9765952483       40.2142630522  LPSA4     8               5.0000000000
      3784       116  AGLC      H5             11.4350721271        6.6447374671       39.8871004147  LPSA4     8               5.0000000000
      3785       116  AGLC      O5             10.1917455517        8.2622975799       39.5907140199  LPSA4     8               5.0000000000
      3786       116  AGLC      C2             11.1564799287        9.4773446221       41.4303925334  LPSA4     8               5.0000000000
      3787       116  AGLC      H2             10.1286394150        9.7610888555       41.7072485214  LPSA4     8               5.0000000000
      3788       116  AGLC      O2             12.0039274795       10.5150413689       41.9469591610  LPSA4     8               5.0000000000
      3789       116  AGLC      C3             11.4850354985        8.1866768768       42.1220987959  LPSA4     8               5.0000000000
      3790       116  AGLC      H3             12.4813114372        7.8692206031       41.7151603389  LPSA4     8               5.0000000000
      3791       116  AGLC      O3             11.6251419298        8.4519694061       43.5370487351  LPSA4     8               5.0000000000
      3792       116  AGLC      C4             10.4346906717        7.1689860837       41.7291725787  LPSA4     8               5.0000000000
      3793       116  AGLC      H4              9.4365809411        7.5663171922       42.0319669575  LPSA4     8               5.0000000000
      3794       116  AGLC      O4             10.6311941842        5.9311725102       42.3967538890  LPSA4     8               5.0000000000
      3795       116  AGLC      HO4            11.5662110505        5.7302093679       42.3808113110  LPSA4     8               5.0000000000
      3796       116  AGLC      C6              9.4743566183        5.8554383477       39.7407802801  LPSA4     8               5.0000000000
      3797       116  AGLC      H61             9.3656328793        5.8475081693       38.6294110348  LPSA4     8               5.0000000000
      3798       116  AGLC      H62             9.8949192451        4.8596183991       40.0141453442  LPSA4     8               5.0000000000
      3799       116  AGLC      O6              8.1799749413        5.9168604502       40.3406312713  LPSA4     8               5.0000000000
      3800       116  AGLC      HO6             8.2126255482        5.5306146855       41.2173278482  LPSA4     8               5.0000000000
      3801       117  AGAL      C1             11.8441218690       11.8109119293       41.4281306842  LPSA4     9               6.0000000000
      3802       117  AGAL      H1             11.8078647197       11.7984923322       40.3211415640  LPSA4     9               6.0000000000
      3803       117  AGAL      C5             10.6774446052       12.6701516902       43.2831659291  LPSA4     9               6.0000000000
      3804       117  AGAL      H5             10.8947735907       11.6846179945       43.7533421908  LPSA4     9               6.0000000000
      3805       117  AGAL      O5             10.6445577756       12.4497985770       41.8643762834  LPSA4     9               6.0000000000
      3806       117  AGAL      C2             13.0578687631       12.6390330852       41.8303146756  LPSA4     9               6.0000000000
      3807       117  AGAL      H2             12.9289386676       13.6321628797       41.3507034598  LPSA4     9               6.0000000000
      3808       117  AGAL      O2             14.1937382849       11.9837035412       41.2226706177  LPSA4     9               6.0000000000
      3809       117  AGAL      C3             13.0983102334       12.8819572018       43.3256587530  LPSA4     9               6.0000000000
      3810       117  AGAL      H3             13.1333076407       11.8952864984       43.8382374960  LPSA4     9               6.0000000000
      3811       117  AGAL      O3             14.2688044059       13.5965207979       43.7346397989  LPSA4     9               6.0000000000
      3812       117  AGAL      HO3            14.9436218476       13.2604947413       43.1230147573  LPSA4     9               6.0000000000
      3813       117  AGAL      C4             11.8032734300       13.5834639294       43.6916992479  LPSA4     9               6.0000000000
      3814       117  AGAL      H4             11.7197816476       13.7306965919       44.7918093900  LPSA4     9               6.0000000000
      3815       117  AGAL      O4             11.6837527590       14.8637614972       43.0782478020  LPSA4     9               6.0000000000
      3816       117  AGAL      HO4            11.0408636150       15.3454846482       43.6101968532  LPSA4     9               6.0000000000
      3817       117  AGAL      C6              9.3517102470       13.0499215713       43.8501258289  LPSA4     9               6.0000000000
      3818       117  AGAL      H61             8.7415740296       12.1584397766       43.5872912202  LPSA4     9               6.0000000000
      3819       117  AGAL      H62             9.3296143437       13.0998364990       44.9601259550  LPSA4     9               6.0000000000
      3820       117  AGAL      O6              8.8262553819       14.2771223270       43.3244781048  LPSA4     9               6.0000000000
      3821       117  AGAL      HO6             8.1071604483       14.0831857706       42.6937763392  LPSA4     9               6.0000000000
      3822       118  AGAL      C1             15.5094205591       11.8829368078       41.7512979309  LPSA4     10              7.0000000000
      3823       118  AGAL      H1             15.9889594767       12.8698410628       41.8699663705  LPSA4     10              7.0000000000
      3824       118  AGAL      C5             15.1314251943        9.9006477597       43.0541652004  LPSA4     10              7.0000000000
      3825       118  AGAL      H5             14.0971274843        9.9330398637       42.6425585510  LPSA4     10              7.0000000000
      3826       118  AGAL      O5             15.6048598655       11.2522398279       43.0533948708  LPSA4     10              7.0000000000
      3827       118  AGAL      C2             16.3220355986       11.0874235527       40.7353316934  LPSA4     10              7.0000000000
      3828       118  AGAL      H2             17.3684975763       11.0761209001       41.1175749334  LPSA4     10              7.0000000000
      3829       118  AGAL      O2             16.4333328522       11.6922141781       39.4452354946  LPSA4     10              7.0000000000
      3830       118  AGAL      HO2            17.3981356744       11.7443183534       39.3984867242  LPSA4     10              7.0000000000
      3831       118  AGAL      C3             15.8053853729        9.6608157719       40.6983512839  LPSA4     10              7.0000000000
      3832       118  AGAL      H3             14.7215322017        9.7028640763       40.4443805101  LPSA4     10              7.0000000000
      3833       118  AGAL      O3             16.4394097161        8.8249197440       39.7308152417  LPSA4     10              7.0000000000
      3834       118  AGAL      HO3            15.8461249383        8.6482805543       38.9965599595  LPSA4     10              7.0000000000
      3835       118  AGAL      C4             15.9488655341        9.0975457161       42.0874235729  LPSA4     10              7.0000000000
      3836       118  AGAL      H4             15.5058994582        8.1090010447       42.1616700399  LPSA4     10              7.0000000000
      3837       118  AGAL      O4             17.3055745114        8.9765708398       42.4728722789  LPSA4     10              7.0000000000
      3838       118  AGAL      HO4            17.6312144016        9.8712590887       42.6279197360  LPSA4     10              7.0000000000
      3839       118  AGAL      C6             14.9585378107        9.2228468736       44.4231489508  LPSA4     10              7.0000000000
      3840       118  AGAL      H61            14.4198924342        9.9033131090       45.1037533425  LPSA4     10              7.0000000000
      3841       118  AGAL      H62            14.3262145886        8.3140158722       44.2713203001  LPSA4     10              7.0000000000
      3842       118  AGAL      O6             16.1455497904        8.7978881431       45.0958185939  LPSA4     10              7.0000000000
      3843       118  AGAL      HO6            16.2708635046        9.3117974479       45.9018810348  LPSA4     10              7.0000000000
      3844       119  BGLC      C1             10.5718362885        8.2557976787       44.4791214101  LPSA4     11              6.0000000000
      3845       119  BGLC      H1             10.4040181347        7.1653718340       44.6186856220  LPSA4     11              6.0000000000
      3846       119  BGLC      C5              8.3132577213        8.8961833031       45.1156867165  LPSA4     11              6.0000000000
      3847       119  BGLC      H5              8.0570901325        7.8400218854       45.3427951980  LPSA4     11              6.0000000000
      3848       119  BGLC      O5              9.3618705576        8.9520578117       44.1136487500  LPSA4     11              6.0000000000
      3849       119  BGLC      C2             11.0890704660        8.8541251815       45.7879949187  LPSA4     11              6.0000000000
      3850       119  BGLC      H2             11.3179057900        9.9393920011       45.6423796557  LPSA4     11              6.0000000000
      3851       119  BGLC      O2             12.3060070560        8.2251976550       46.1636640664  LPSA4     11              6.0000000000
      3852       119  BGLC      HO2            12.9781306670        8.8816270092       46.3166931341  LPSA4     11              6.0000000000
      3853       119  BGLC      C3             10.0769736184        8.7863012150       46.9076136905  LPSA4     11              6.0000000000
      3854       119  BGLC      H3              9.8637884686        7.7267513671       47.1769466436  LPSA4     11              6.0000000000
      3855       119  BGLC      O3             10.5657000973        9.5275656099       48.0473138937  LPSA4     11              6.0000000000
      3856       119  BGLC      C4              8.8438189150        9.5066058379       46.4196218765  LPSA4     11              6.0000000000
      3857       119  BGLC      H4              9.1034074292       10.5637553390       46.1909577702  LPSA4     11              6.0000000000
      3858       119  BGLC      O4              7.8454583388        9.5600765852       47.4243413786  LPSA4     11              6.0000000000
      3859       119  BGLC      HO4             8.1108998403       10.1677013536       48.1372272422  LPSA4     11              6.0000000000
      3860       119  BGLC      C6              7.1102471504        9.7178653898       44.6204388051  LPSA4     11              6.0000000000
      3861       119  BGLC      H61             6.2719027379        9.7937016567       45.3414033925  LPSA4     11              6.0000000000
      3862       119  BGLC      H62             7.4630681753       10.6338796719       44.1598363576  LPSA4     11              6.0000000000
      3863       119  BGLC      O6              6.4945679375        9.4763921397       43.4128540989  LPSA4     11              6.0000000000
      3864       119  BGLC      HO6             5.6574110696        8.9815386493       43.5782380383  LPSA4     11              6.0000000000
      3865       120  BGLCNA    C1             10.6251835802        8.8869750311       49.3101527707  LPSA4     12              7.0000000000
      3866       120  BGLCNA    H1             11.5548030206        8.2811673479       49.3705272328  LPSA4     12              7.0000000000
      3867       120  BGLCNA    C5              9.5904071386        7.4283075928       50.8773850945  LPSA4     12              7.0000000000
      3868       120  BGLCNA    H5             10.5218705002        6.8293419791       50.9377625495  LPSA4     12              7.0000000000
      3869       120  BGLCNA    O5              9.5046835329        8.0550847101       49.5849187517  LPSA4     12              7.0000000000
      3870       120  BGLCNA    C2             10.6491234495        9.9989767958       50.3501228855  LPSA4     12              7.0000000000
      3871       120  BGLCNA    H2              9.6418922195       10.4961662927       50.2973000488  LPSA4     12              7.0000000000
      3872       120  BGLCNA    N              11.7198858435       10.9103421528       50.0514720662  LPSA4     12              7.0000000000
      3873       120  BGLCNA    HN             12.6107807154       10.4929303893       49.9500012817  LPSA4     12              7.0000000000
      3874       120  BGLCNA    C              11.5216639573       12.2259135284       49.9152209755  LPSA4     12              7.0000000000
      3875       120  BGLCNA    O              10.4318084093       12.7436514840       50.0782755815  LPSA4     12              7.0000000000
      3876       120  BGLCNA    CT             12.7068243741       13.0708957310       49.5546846568  LPSA4     12              7.0000000000
      3877       120  BGLCNA    HT1            12.9985143506       13.7167722318       50.4070848180  LPSA4     12              7.0000000000
      3878       120  BGLCNA    HT2            12.4354057979       13.7608030450       48.7305922129  LPSA4     12              7.0000000000
      3879       120  BGLCNA    HT3            13.5521579483       12.4299580931       49.2348731962  LPSA4     12              7.0000000000
      3880       120  BGLCNA    C3             10.7958308462        9.4558436578       51.7570045216  LPSA4     12              7.0000000000
      3881       120  BGLCNA    H3             11.7564334065        8.8946576013       51.7992771149  LPSA4     12              7.0000000000
      3882       120  BGLCNA    O3             10.8692137849       10.5272757370       52.7509348607  LPSA4     12              7.0000000000
      3883       120  BGLCNA    C4              9.6166588824        8.5143183973       51.9601610537  LPSA4     12              7.0000000000
      3884       120  BGLCNA    H4              8.6570382810        9.0793389236       51.8922804563  LPSA4     12              7.0000000000
      3885       120  BGLCNA    O4              9.6743903351        7.9300411054       53.2526075199  LPSA4     12              7.0000000000
      3886       120  BGLCNA    HO4            10.3430678963        7.2404706981       53.2744812180  LPSA4     12              7.0000000000
      3887       120  BGLCNA    C6              8.4143234039        6.4729067230       50.9431749081  LPSA4     12              7.0000000000
      3888       120  BGLCNA    H61             8.3781193885        5.9404384087       51.9220659557  LPSA4     12              7.0000000000
      3889       120  BGLCNA    H62             7.4724947368        7.0558067930       50.8306120455  LPSA4     12              7.0000000000
      3890       120  BGLCNA    O6              8.4603941855        5.5093086296       49.8833029449  LPSA4     12              7.0000000000
      3891       120  BGLCNA    HO6             8.9735526581        4.7493618345       50.1481391245  LPSA4     12              7.0000000000
      3892       121  AGAL      C1             11.7796655704       10.3132963322       53.8219234779  LPSA4     13              8.0000000000
      3893       121  AGAL      H1             11.6618655436        9.2667891661       54.1273600084  LPSA4     13              8.0000000000
      3894       121  AGAL      C5             13.2973343622       12.0755425176       53.2697794128  LPSA4     13              8.0000000000
      3895       121  AGAL      H5             12.4911827176       12.3466597435       52.5464084367  LPSA4     13              8.0000000000
      3896       121  AGAL      O5             13.1418752695       10.6446499417       53.4681122797  LPSA4     13              8.0000000000
      3897       121  AGAL      C2             11.4999925552       11.1054695367       55.0982246611  LPSA4     13              8.0000000000
      3898       121  AGAL      H2             12.3468657436       10.8689524697       55.7905085242  LPSA4     13              8.0000000000
      3899       121  AGAL      O2             10.3142431883       10.6524828595       55.7483924316  LPSA4     13              8.0000000000
      3900       121  AGAL      C3             11.6013408170       12.5961021110       54.8901458426  LPSA4     13              8.0000000000
      3901       121  AGAL      H3             10.9586369001       12.8772733372       54.0234970096  LPSA4     13              8.0000000000
      3902       121  AGAL      O3             11.1578620636       13.3441178338       56.0044946864  LPSA4     13              8.0000000000
      3903       121  AGAL      HO3            10.6311293948       14.0863662101       55.6873011316  LPSA4     13              8.0000000000
      3904       121  AGAL      C4             13.0200207782       12.9087726881       54.5154676487  LPSA4     13              8.0000000000
      3905       121  AGAL      H4             13.0770681189       13.9917663928       54.2315262684  LPSA4     13              8.0000000000
      3906       121  AGAL      O4             13.9463607349       12.6887209113       55.5932031937  LPSA4     13              8.0000000000
      3907       121  AGAL      HO4            13.8142600360       11.8434466353       56.0351513138  LPSA4     13              8.0000000000
      3908       121  AGAL      C6             14.5518909577       12.5173134257       52.5474045468  LPSA4     13              8.0000000000
      3909       121  AGAL      H61            14.6397503206       11.9348374774       51.6056933356  LPSA4     13              8.0000000000
      3910       121  AGAL      H62            14.4386101204       13.6047133158       52.3093974494  LPSA4     13              8.0000000000
      3911       121  AGAL      O6             15.7547127610       12.3755726950       53.2924155532  LPSA4     13              8.0000000000
      3912       121  AGAL      HO6            15.7750867637       13.0492184256       53.9911859579  LPSA4     13              8.0000000000
      3913       122  ARHM      C1             10.5040996974       10.0124965850       56.9949575989  LPSA4     14              9.0000000000
      3914       122  ARHM      H1             11.4767534541        9.4948470451       57.0324282095  LPSA4     14              9.0000000000
      3915       122  ARHM      C5              8.3116643202        9.5348761160       57.1748346046  LPSA4     14              9.0000000000
      3916       122  ARHM      H5              8.0771149371       10.0540274738       56.2022885264  LPSA4     14              9.0000000000
      3917       122  ARHM      O5              9.5910978679        8.9694978348       57.1561542006  LPSA4     14              9.0000000000
      3918       122  ARHM      C2             10.3808011807       11.0251691370       58.1166596497  LPSA4     14              9.0000000000
      3919       122  ARHM      H2             11.1235695379       11.8226957862       57.9386926000  LPSA4     14              9.0000000000
      3920       122  ARHM      O2             10.4966914930       10.5207474302       59.4601073865  LPSA4     14              9.0000000000
      3921       122  ARHM      C3              9.0331207618       11.6265970047       58.0712268574  LPSA4     14              9.0000000000
      3922       122  ARHM      H3              8.8048678049       11.9792213232       57.0350846310  LPSA4     14              9.0000000000
      3923       122  ARHM      O3              8.8991586755       12.7576823899       58.9297672368  LPSA4     14              9.0000000000
      3924       122  ARHM      HO3             8.7958672040       12.4602759328       59.8341392902  LPSA4     14              9.0000000000
      3925       122  ARHM      C4              8.1005978546       10.5007017129       58.3038111801  LPSA4     14              9.0000000000
      3926       122  ARHM      H4              8.2758294605        9.9180247000       59.2082865059  LPSA4     14              9.0000000000
      3927       122  ARHM      O4              6.7920980870       10.8980250464       58.3997943055  LPSA4     14              9.0000000000
      3928       122  ARHM      HO4             6.4614128344       10.9597734988       59.3001508346  LPSA4     14              9.0000000000
      3929       122  ARHM      C6              7.4199652576        8.4157316749       57.2838066483  LPSA4     14              9.0000000000
      3930       122  ARHM      H61             7.5172660684        7.5669356392       56.5683884157  LPSA4     14              9.0000000000
      3931       122  ARHM      H62             7.1907922446        8.0688386233       58.3100062417  LPSA4     14              9.0000000000
      3932       122  ARHM      H63             6.5387242995        9.0158935808       56.9479470891  LPSA4     14              9.0000000000
      3933       123  ARHM      C1             11.6243103275        9.7423663036       59.7275422678  LPSA4     15             10.0000000000
      3934       123  ARHM      H1             12.4426294079       10.0358087082       59.0325532545  LPSA4     15             10.0000000000
      3935       123  ARHM      C5             10.4495579798        7.8225211150       60.6330416729  LPSA4     15             10.0000000000
      3936       123  ARHM      H5              9.4265657459        8.2143932004       60.4337986745  LPSA4     15             10.0000000000
      3937       123  ARHM      O5             11.3888980867        8.3201241169       59.6593304949  LPSA4     15             10.0000000000
      3938       123  ARHM      C2             12.0992664330       10.0735712243       61.1190718515  LPSA4     15             10.0000000000
      3939       123  ARHM      H2             12.2484110660       11.1438730561       61.1327540424  LPSA4     15             10.0000000000
      3940       123  ARHM      O2             13.3996582491        9.5024982111       61.2978425071  LPSA4     15             10.0000000000
      3941       123  ARHM      C3             11.0676964550        9.6803985624       62.1347233637  LPSA4     15             10.0000000000
      3942       123  ARHM      H3             10.1054127142       10.1444247525       61.8404005368  LPSA4     15             10.0000000000
      3943       123  ARHM      O3             11.4303263559       10.2381711007       63.3930851947  LPSA4     15             10.0000000000
      3944       123  ARHM      C4             10.9241109885        8.1794717424       62.0326591544  LPSA4     15             10.0000000000
      3945       123  ARHM      H4             11.9415701527        7.7394473639       62.1615867902  LPSA4     15             10.0000000000
      3946       123  ARHM      O4             10.0701864275        7.5914456984       63.0075245631  LPSA4     15             10.0000000000
      3947       123  ARHM      HO4            10.2156069975        6.6402008931       62.9538350142  LPSA4     15             10.0000000000
      3948       123  ARHM      C6             10.3771539767        6.2914091736       60.4615618430  LPSA4     15             10.0000000000
      3949       123  ARHM      H61             9.5433781023        5.8452405948       61.0405141957  LPSA4     15             10.0000000000
      3950       123  ARHM      H62            10.2509638438        6.0637160172       59.3834005369  LPSA4     15             10.0000000000
      3951       123  ARHM      H63            11.3098109909        5.8087974757       60.8186150761  LPSA4     15             10.0000000000
      3952       124  BMANNA    C1             14.0933504426        9.7036897775       62.5064007285  LPSA4     16             11.0000000000
      3953       124  BMANNA    H1             13.5669180479        9.1477743285       63.3134259581  LPSA4     16             11.0000000000
      3954       124  BMANNA    C5             14.9025316451       11.1855276475       64.1893693777  LPSA4     16             11.0000000000
      3955       124  BMANNA    H5             14.3537810213       10.5703227318       64.9482701489  LPSA4     16             11.0000000000
      3956       124  BMANNA    O5             14.2255588049       11.0719586822       62.9088382607  LPSA4     16             11.0000000000
      3957       124  BMANNA    C2             15.4837200791        9.1151630868       62.3138285974  LPSA4     16             11.0000000000
      3958       124  BMANNA    H2             15.3341230679        8.0455976999       62.0220112894  LPSA4     16             11.0000000000
      3959       124  BMANNA    N              16.2893689853        9.7279987085       61.2691628224  LPSA4     16             11.0000000000
      3960       124  BMANNA    HN             16.9090690947       10.4431229998       61.5593873311  LPSA4     16             11.0000000000
      3961       124  BMANNA    C              16.3467332015        9.3202304977       59.9977829887  LPSA4     16             11.0000000000
      3962       124  BMANNA    O              15.6945800648        8.3801673725       59.5680015154  LPSA4     16             11.0000000000
      3963       124  BMANNA    CT             17.2305416644       10.1383763382       59.0855335963  LPSA4     16             11.0000000000
      3964       124  BMANNA    HT1            18.1667338704        9.5951848535       58.8593649308  LPSA4     16             11.0000000000
      3965       124  BMANNA    HT2            17.4772846415       11.1138007421       59.5421956095  LPSA4     16             11.0000000000
      3966       124  BMANNA    HT3            16.6969793440       10.3174230162       58.1291569346  LPSA4     16             11.0000000000
      3967       124  BMANNA    C3             16.2051283883        9.1946723392       63.6487890772  LPSA4     16             11.0000000000
      3968       124  BMANNA    H3             15.6035243551        8.6483737946       64.4048810324  LPSA4     16             11.0000000000
      3969       124  BMANNA    O3             17.4551371751        8.5370091095       63.5718566777  LPSA4     16             11.0000000000
      3970       124  BMANNA    HO3            17.5588670430        7.9175766776       64.3035334847  LPSA4     16             11.0000000000
      3971       124  BMANNA    C4             16.3168219689       10.6415401535       64.1146561594  LPSA4     16             11.0000000000
      3972       124  BMANNA    H4             16.9121727928       11.2287178892       63.3777935724  LPSA4     16             11.0000000000
      3973       124  BMANNA    O4             16.9485965246       10.8083082685       65.3880527209  LPSA4     16             11.0000000000
      3974       124  BMANNA    HO4            17.3825334178       11.6731492943       65.4368655452  LPSA4     16             11.0000000000
      3975       124  BMANNA    C6             14.8957786527       12.5878966376       64.7491465669  LPSA4     16             11.0000000000
      3976       124  BMANNA    H61            14.9130115882       12.5086624568       65.8618097631  LPSA4     16             11.0000000000
      3977       124  BMANNA    H62            15.8137358466       13.1331300141       64.4313121703  LPSA4     16             11.0000000000
      3978       124  BMANNA    O6             13.7653195361       13.3507699928       64.3453145262  LPSA4     16             11.0000000000
      3979       124  BMANNA    HO6            14.1081662235       14.1539750621       63.9278808639  LPSA4     16             11.0000000000
      3980       125  BGLCNA    C1             10.3408654358       10.7089122990       64.1189001473  LPSA4     17             11.0000000000
      3981       125  BGLCNA    H1              9.4612946388       10.0443981174       63.9673877038  LPSA4     17             11.0000000000
      3982       125  BGLCNA    C5              8.8838089131       12.5472431335       64.5230697783  LPSA4     17             11.0000000000
      3983       125  BGLCNA    H5              7.9545888165       11.9548548437       64.3311482586  LPSA4     17             11.0000000000
      3984       125  BGLCNA    O5              9.9747069870       12.0419073498       63.7575249466  LPSA4     17             11.0000000000
      3985       125  BGLCNA    C2             10.8333692060       10.6426270781       65.5520358449  LPSA4     17             11.0000000000
      3986       125  BGLCNA    H2             11.6564201344       11.3864742822       65.7324551271  LPSA4     17             11.0000000000
      3987       125  BGLCNA    N              11.3309698622        9.3335271298       65.8657972972  LPSA4     17             11.0000000000
      3988       125  BGLCNA    HN             10.9114358277        8.5954010512       65.3620605523  LPSA4     17             11.0000000000
      3989       125  BGLCNA    C              12.2213565401        9.0452013473       66.8104930407  LPSA4     17             11.0000000000
      3990       125  BGLCNA    O              12.8627028234        9.8749235788       67.4410278853  LPSA4     17             11.0000000000
      3991       125  BGLCNA    CT             12.3852019063        7.5662923290       67.0322987457  LPSA4     17             11.0000000000
      3992       125  BGLCNA    HT1            13.2703379767        7.1727164906       66.5053321483  LPSA4     17             11.0000000000
      3993       125  BGLCNA    HT2            11.4724315287        7.0453501725       66.6811912265  LPSA4     17             11.0000000000
      3994       125  BGLCNA    HT3            12.4940341150        7.3625669148       68.1161671376  LPSA4     17             11.0000000000
      3995       125  BGLCNA    C3              9.6970157525       11.0298226027       66.4029560589  LPSA4     17             11.0000000000
      3996       125  BGLCNA    H3              8.8346602287       10.3909655770       66.0844999950  LPSA4     17             11.0000000000
      3997       125  BGLCNA    O3              9.9189035940       10.7879410826       67.8301139087  LPSA4     17             11.0000000000
      3998       125  BGLCNA    C4              9.3499193894       12.4023222251       65.9602839968  LPSA4     17             11.0000000000
      3999       125  BGLCNA    H4             10.1611720749       13.1585928471       66.1550344294  LPSA4     17             11.0000000000
      4000       125  BGLCNA    O4              8.2441668406       12.6166299544       66.7121279498  LPSA4     17             11.0000000000
      4001       125  BGLCNA    HO4             8.2027589760       13.5788497459       66.5834699084  LPSA4     17             11.0000000000
      4002       125  BGLCNA    C6              8.5327508949       14.0008507116       64.1225692663  LPSA4     17             11.0000000000
      4003       125  BGLCNA    H61             7.4355661978       14.1739715139       64.1655085465  LPSA4     17             11.0000000000
      4004       125  BGLCNA    H62             9.0098247347       14.7354749899       64.8128917064  LPSA4     17             11.0000000000
      4005       125  BGLCNA    O6              8.9210430139       14.3555642580       62.8007052077  LPSA4     17             11.0000000000
      4006       125  BGLCNA    HO6             8.5952630778       13.7002804359       62.1738039532  LPSA4     17             11.0000000000
      4007       126  AGAL      C1              8.7930027480       10.3878785175       68.6136026926  LPSA4     18             12.0000000000
      4008       126  AGAL      H1              8.1373081196       11.2677072725       68.8084138022  LPSA4     18             12.0000000000
      4009       126  AGAL      C5              8.7274238770        8.1429632184       67.8556798593  LPSA4     18             12.0000000000
      4010       126  AGAL      H5              9.7094263108        8.3794248131       67.4128898953  LPSA4     18             12.0000000000
      4011       126  AGAL      O5              8.0043861470        9.3770154109       67.9762801018  LPSA4     18             12.0000000000
      4012       126  AGAL      C2              9.1840613092        9.8140220998       69.9664789764  LPSA4     18             12.0000000000
      4013       126  AGAL      H2              8.1977632378        9.5097243328       70.3940342011  LPSA4     18             12.0000000000
      4014       126  AGAL      O2              9.7023953744       10.7955628553       70.8668297946  LPSA4     18             12.0000000000
      4015       126  AGAL      C3             10.0044866610        8.5280184279       69.8437635915  LPSA4     18             12.0000000000
      4016       126  AGAL      H3             10.8674818456        8.7231414521       69.1675775474  LPSA4     18             12.0000000000
      4017       126  AGAL      O3             10.5586206473        8.0867841757       71.0827105743  LPSA4     18             12.0000000000
      4018       126  AGAL      HO3            11.4747197740        7.8111814389       70.9708262358  LPSA4     18             12.0000000000
      4019       126  AGAL      C4              9.1218365611        7.4901924686       69.1710446002  LPSA4     18             12.0000000000
      4020       126  AGAL      H4              9.6980166411        6.5630160799       68.9388658799  LPSA4     18             12.0000000000
      4021       126  AGAL      O4              8.0060394255        7.1174019520       69.9684703189  LPSA4     18             12.0000000000
      4022       126  AGAL      HO4             8.3240329144        6.5709170960       70.6943535003  LPSA4     18             12.0000000000
      4023       126  AGAL      C6              8.1406322896        7.3188004185       66.7569331191  LPSA4     18             12.0000000000
      4024       126  AGAL      H61             8.2005994481        7.9235563247       65.8270676637  LPSA4     18             12.0000000000
      4025       126  AGAL      H62             8.7095296949        6.3764335396       66.6325568080  LPSA4     18             12.0000000000
      4026       126  AGAL      O6              6.7864109774        7.0058456843       66.9194016085  LPSA4     18             12.0000000000
      4027       126  AGAL      HO6             6.4053528917        7.4990861213       67.6642463279  LPSA4     18             12.0000000000
      4028       127  ARHM      C1              9.1976143951       10.5934350705       72.1678993916  LPSA4     19             13.0000000000
      4029       127  ARHM      H1              8.9531631348        9.5245673144       72.3498173716  LPSA4     19             13.0000000000
      4030       127  ARHM      C5              8.1281392279       12.7046506879       72.2592930845  LPSA4     19             13.0000000000
      4031       127  ARHM      H5              8.4986035138       12.8706411518       71.2197877449  LPSA4     19             13.0000000000
      4032       127  ARHM      O5              7.9808971696       11.2989967836       72.4292951213  LPSA4     19             13.0000000000
      4033       127  ARHM      C2             10.2573192157       11.0888461003       73.1073852877  LPSA4     19             13.0000000000
      4034       127  ARHM      H2             11.2438384921       10.6233832995       72.8649286504  LPSA4     19             13.0000000000
      4035       127  ARHM      O2              9.9477700348       10.7477984404       74.4534135827  LPSA4     19             13.0000000000
      4036       127  ARHM      C3             10.4225396743       12.5750811099       72.9484571564  LPSA4     19             13.0000000000
      4037       127  ARHM      H3             10.6913937409       12.7992557334       71.8939158231  LPSA4     19             13.0000000000
      4038       127  ARHM      O3             11.4742584081       13.0543807824       73.7529709588  LPSA4     19             13.0000000000
      4039       127  ARHM      HO3            11.3384930039       12.7343341712       74.6499566232  LPSA4     19             13.0000000000
      4040       127  ARHM      C4              9.1243166688       13.2608401119       73.2379356444  LPSA4     19             13.0000000000
      4041       127  ARHM      H4              8.8459597332       13.0107942166       74.2813755337  LPSA4     19             13.0000000000
      4042       127  ARHM      O4              9.1756755888       14.6781866153       73.1574107466  LPSA4     19             13.0000000000
      4043       127  ARHM      HO4             9.4444190212       14.9540223761       72.2768867087  LPSA4     19             13.0000000000
      4044       127  ARHM      C6              6.7604334533       13.3520229741       72.3130630104  LPSA4     19             13.0000000000
      4045       127  ARHM      H61             6.1789996064       12.8595528514       71.5107519940  LPSA4     19             13.0000000000
      4046       127  ARHM      H62             6.2054068668       13.2295415314       73.2533434522  LPSA4     19             13.0000000000
      4047       127  ARHM      H63             6.8124581297       14.4441947957       72.1318269909  LPSA4     19             13.0000000000
      4048       128  ARHM      C1             10.1808160770        9.3914096548       74.7004524213  LPSA4     20             14.0000000000
      4049       128  ARHM      H1             10.6732681740        8.8662574550       73.8564841876  LPSA4     20             14.0000000000
      4050       128  ARHM      C5              8.3651134225        9.1588615347       75.9735057843  LPSA4     20             14.0000000000
      4051       128  ARHM      H5              8.0468332262       10.2318517548       75.8357114983  LPSA4     20             14.0000000000
      4052       128  ARHM      O5              9.0055062539        8.7008660013       74.8254524753  LPSA4     20             14.0000000000
      4053       128  ARHM      C2             10.9668172731        9.2371141071       75.9531193156  LPSA4     20             14.0000000000
      4054       128  ARHM      H2             11.8488207157        9.9094255856       75.8512611823  LPSA4     20             14.0000000000
      4055       128  ARHM      O2             11.3400782316        7.8768730090       76.1595766743  LPSA4     20             14.0000000000
      4056       128  ARHM      C3             10.2153977518        9.7087963265       77.1494172832  LPSA4     20             14.0000000000
      4057       128  ARHM      H3              9.8787135600       10.7679509081       76.9762896910  LPSA4     20             14.0000000000
      4058       128  ARHM      O3             11.0376288876        9.6197355914       78.2967145809  LPSA4     20             14.0000000000
      4059       128  ARHM      C4              9.0062633878        8.9119904043       77.2934502031  LPSA4     20             14.0000000000
      4060       128  ARHM      H4              9.1615510034        7.7993895181       77.3391749216  LPSA4     20             14.0000000000
      4061       128  ARHM      O4              8.1883757410        9.2442800431       78.4107843502  LPSA4     20             14.0000000000
      4062       128  ARHM      HO4             7.2832455334        9.1049345566       78.1251534790  LPSA4     20             14.0000000000
      4063       128  ARHM      C6              7.2311218235        8.5086820916       75.8644988877  LPSA4     20             14.0000000000
      4064       128  ARHM      H61             7.1913368051        7.3875520338       75.9855377305  LPSA4     20             14.0000000000
      4065       128  ARHM      H62             6.6208718040        9.0427981743       76.6541845851  LPSA4     20             14.0000000000
      4066       128  ARHM      H63             6.7827933649        8.7992139932       74.8864605735  LPSA4     20             14.0000000000
      4067       129  BMANNA    C1             12.4707121814        7.5963726814       75.4055901769  LPSA4     21             15.0000000000
      4068       129  BMANNA    H1             12.6809939518        8.4485596853       74.7181336667  LPSA4     21             15.0000000000
      4069       129  BMANNA    C5             13.4463665893        6.3932974352       73.6423379987  LPSA4     21             15.0000000000
      4070       129  BMANNA    H5             13.6120695587        7.3476385801       73.0828767692  LPSA4     21             15.0000000000
      4071       129  BMANNA    O5             12.2956035233        6.5129579566       74.5016888794  LPSA4     21             15.0000000000
      4072       129  BMANNA    C2             13.6420665219        7.3838787311       76.3444661469  LPSA4     21             15.0000000000
      4073       129  BMANNA    H2             13.7278152576        8.3409782943       76.9231071446  LPSA4     21             15.0000000000
      4074       129  BMANNA    N              13.4935699320        6.2653089421       77.2856582470  LPSA4     21             15.0000000000
      4075       129  BMANNA    HN             13.0843863903        5.4527017420       76.8815255760  LPSA4     21             15.0000000000
      4076       129  BMANNA    C              13.8903036516        6.2740862116       78.5821208574  LPSA4     21             15.0000000000
      4077       129  BMANNA    O              14.5977862414        7.1586382756       79.0421120179  LPSA4     21             15.0000000000
      4078       129  BMANNA    CT             13.4253281374        5.1372558384       79.4620520886  LPSA4     21             15.0000000000
      4079       129  BMANNA    HT1            14.0360283271        4.2341048972       79.2936395056  LPSA4     21             15.0000000000
      4080       129  BMANNA    HT2            12.3484741660        4.9409512678       79.2930697179  LPSA4     21             15.0000000000
      4081       129  BMANNA    HT3            13.5101131358        5.4374485091       80.5275680298  LPSA4     21             15.0000000000
      4082       129  BMANNA    C3             14.8490245568        7.2661732450       75.4551419238  LPSA4     21             15.0000000000
      4083       129  BMANNA    H3             14.9321579117        8.2377712876       74.9164922770  LPSA4     21             15.0000000000
      4084       129  BMANNA    O3             16.0291958397        7.1343332374       76.2136669305  LPSA4     21             15.0000000000
      4085       129  BMANNA    HO3            15.9468710623        6.3706869651       76.7835077275  LPSA4     21             15.0000000000
      4086       129  BMANNA    C4             14.6805831673        6.1398326606       74.4551728683  LPSA4     21             15.0000000000
      4087       129  BMANNA    H4             14.5133456776        5.1861150212       74.9878498925  LPSA4     21             15.0000000000
      4088       129  BMANNA    O4             15.7879166314        5.9745423824       73.5701940624  LPSA4     21             15.0000000000
      4089       129  BMANNA    HO4            16.2640324639        5.1444973621       73.7403049351  LPSA4     21             15.0000000000
      4090       129  BMANNA    C6             13.2345589959        5.3230940233       72.6148064068  LPSA4     21             15.0000000000
      4091       129  BMANNA    H61            13.9949067582        5.4263890837       71.8105856385  LPSA4     21             15.0000000000
      4092       129  BMANNA    H62            13.3882195659        4.3193566958       73.0745943676  LPSA4     21             15.0000000000
      4093       129  BMANNA    O6             11.9325477889        5.4440981173       72.0535071282  LPSA4     21             15.0000000000
      4094       129  BMANNA    HO6            11.3062566442        5.1921427702       72.7522417719  LPSA4     21             15.0000000000
      4095       130  BGLCNA    C1             10.8430334667       10.6228329247       79.2480286386  LPSA4     22             15.0000000000
      4096       130  BGLCNA    H1              9.8106370226       11.0383239772       79.2382251020  LPSA4     22             15.0000000000
      4097       130  BGLCNA    C5             11.6723172712       12.6549951654       80.1016425048  LPSA4     22             15.0000000000
      4098       130  BGLCNA    H5             10.6186040491       13.0298374118       80.1023124664  LPSA4     22             15.0000000000
      4099       130  BGLCNA    O5             11.7941529577       11.6681105256       79.0713862089  LPSA4     22             15.0000000000
      4100       130  BGLCNA    C2             11.1050995755        9.9286383006       80.5496601722  LPSA4     22             15.0000000000
      4101       130  BGLCNA    H2             12.1481242976        9.5161539387       80.5012799800  LPSA4     22             15.0000000000
      4102       130  BGLCNA    N              10.1688870212        8.8454381583       80.7260814626  LPSA4     22             15.0000000000
      4103       130  BGLCNA    HN              9.2443349641        8.9991912954       80.3884852195  LPSA4     22             15.0000000000
      4104       130  BGLCNA    C              10.4491290772        7.7052243603       81.3493861620  LPSA4     22             15.0000000000
      4105       130  BGLCNA    O              11.5311021869        7.4421880885       81.8566020999  LPSA4     22             15.0000000000
      4106       130  BGLCNA    CT              9.3127945871        6.7176025821       81.3994480795  LPSA4     22             15.0000000000
      4107       130  BGLCNA    HT1             9.4424836615        6.0287296232       80.5386706192  LPSA4     22             15.0000000000
      4108       130  BGLCNA    HT2             8.3491422823        7.2507461158       81.2770897077  LPSA4     22             15.0000000000
      4109       130  BGLCNA    HT3             9.2955842681        6.1642149020       82.3619838263  LPSA4     22             15.0000000000
      4110       130  BGLCNA    C3             10.9946611197       10.9152649660       81.6841419442  LPSA4     22             15.0000000000
      4111       130  BGLCNA    H3              9.9741824865       11.3637363145       81.6536108532  LPSA4     22             15.0000000000
      4112       130  BGLCNA    O3             11.1613027928       10.1680492571       82.8972155413  LPSA4     22             15.0000000000
      4113       130  BGLCNA    C4             11.9808282422       12.0224224290       81.4566752028  LPSA4     22             15.0000000000
      4114       130  BGLCNA    H4             12.9968375831       11.5733304707       81.4132398757  LPSA4     22             15.0000000000
      4115       130  BGLCNA    O4             11.9775975710       12.9853872453       82.5069378890  LPSA4     22             15.0000000000
      4116       130  BGLCNA    HO4            12.8746415342       13.2643742237       82.7313763428  LPSA4     22             15.0000000000
      4117       130  BGLCNA    C6             12.6231658251       13.7690837568       79.7709114990  LPSA4     22             15.0000000000
      4118       130  BGLCNA    H61            12.7817780154       14.3639572311       80.6828228898  LPSA4     22             15.0000000000
      4119       130  BGLCNA    H62            13.6110723198       13.3739007314       79.4494190061  LPSA4     22             15.0000000000
      4120       130  BGLCNA    O6             12.1059537405       14.6754534778       78.8048122346  LPSA4     22             15.0000000000
      4121       130  BGLCNA    HO6            11.8622086141       14.2110410718       77.9885001224  LPSA4     22             15.0000000000
      4122       131  AGAL      C1             10.6874740854       10.6995094087       84.0990873839  LPSA4     23             16.0000000000
      4123       131  AGAL      H1             11.3785603092       11.4939846970       84.4499507475  LPSA4     23             16.0000000000
      4124       131  AGAL      C5              8.3930709060       10.2819298566       83.7146131714  LPSA4     23             16.0000000000
      4125       131  AGAL      H5              8.6550093944        9.7107913743       82.7997092679  LPSA4     23             16.0000000000
      4126       131  AGAL      O5              9.3951200524       11.2763993484       83.9769157341  LPSA4     23             16.0000000000
      4127       131  AGAL      C2             10.6598356071        9.6526558866       85.1881492416  LPSA4     23             16.0000000000
      4128       131  AGAL      H2             10.3088028266       10.1756108127       86.1049383293  LPSA4     23             16.0000000000
      4129       131  AGAL      O2             11.9739756541        9.1029411781       85.4392582053  LPSA4     23             16.0000000000
      4130       131  AGAL      C3              9.6026222069        8.5993816137       84.8819104253  LPSA4     23             16.0000000000
      4131       131  AGAL      H3              9.7770056077        8.1955688963       83.8632412091  LPSA4     23             16.0000000000
      4132       131  AGAL      O3              9.6708907638        7.4837130671       85.7547653583  LPSA4     23             16.0000000000
      4133       131  AGAL      HO3             9.7392200942        7.8112775369       86.6506755332  LPSA4     23             16.0000000000
      4134       131  AGAL      C4              8.2458434470        9.2664824712       84.8545208964  LPSA4     23             16.0000000000
      4135       131  AGAL      H4              7.4209686931        8.5557272947       84.6181334786  LPSA4     23             16.0000000000
      4136       131  AGAL      O4              7.9193793346        9.8803571299       86.0999677616  LPSA4     23             16.0000000000
      4137       131  AGAL      HO4             7.3244075875       10.6230056481       85.8652560995  LPSA4     23             16.0000000000
      4138       131  AGAL      C6              7.2000009026       11.0258011867       83.3440407249  LPSA4     23             16.0000000000
      4139       131  AGAL      H61             7.3986875451       11.8113307885       82.5824088887  LPSA4     23             16.0000000000
      4140       131  AGAL      H62             6.4381233131       10.3562301974       82.8791936226  LPSA4     23             16.0000000000
      4141       131  AGAL      O6              6.7283232825       11.6634753451       84.5125342890  LPSA4     23             16.0000000000
      4142       131  AGAL      HO6             5.8732197207       12.0816315221       84.3268784417  LPSA4     23             16.0000000000
      4143       132  ARHM      C1             12.8522817386        9.8188314012       86.2857078152  LPSA4     24             17.0000000000
      4144       132  ARHM      H1             12.4935254971       10.8694919876       86.3872355993  LPSA4     24             17.0000000000
      4145       132  ARHM      C5             14.8275588966        8.6113872339       85.6332140396  LPSA4     24             17.0000000000
      4146       132  ARHM      H5             14.1777504407        8.0328124610       84.9398631843  LPSA4     24             17.0000000000
      4147       132  ARHM      O5             14.2130479869        9.8959728179       85.8084779710  LPSA4     24             17.0000000000
      4148       132  ARHM      C2             12.8208294857        9.0955817973       87.6068745262  LPSA4     24             17.0000000000
      4149       132  ARHM      H2             11.7577799203        8.9657314033       87.9274303790  LPSA4     24             17.0000000000
      4150       132  ARHM      O2             13.5750943831        9.7997359673       88.6082025602  LPSA4     24             17.0000000000
      4151       132  ARHM      C3             13.4214822872        7.7205104792       87.4303568725  LPSA4     24             17.0000000000
      4152       132  ARHM      H3             12.8332860336        7.1992151862       86.6347957339  LPSA4     24             17.0000000000
      4153       132  ARHM      O3             13.2921731353        6.9420618644       88.6200579141  LPSA4     24             17.0000000000
      4154       132  ARHM      HO3            14.0658804710        7.0881625465       89.1658753639  LPSA4     24             17.0000000000
      4155       132  ARHM      C4             14.8630406127        7.8660235195       86.9558841548  LPSA4     24             17.0000000000
      4156       132  ARHM      H4             15.4195114594        8.4934475833       87.6981662266  LPSA4     24             17.0000000000
      4157       132  ARHM      O4             15.5363708981        6.6118558012       86.8176186562  LPSA4     24             17.0000000000
      4158       132  ARHM      HO4            16.4756707421        6.6928735824       87.0299255539  LPSA4     24             17.0000000000
      4159       132  ARHM      C6             16.2096754378        8.7592088441       84.9479377133  LPSA4     24             17.0000000000
      4160       132  ARHM      H61            16.4445847643        7.8141768470       84.4086258126  LPSA4     24             17.0000000000
      4161       132  ARHM      H62            16.1717156802        9.5782168465       84.2022004320  LPSA4     24             17.0000000000
      4162       132  ARHM      H63            17.0149104958        8.9943321665       85.6710278922  LPSA4     24             17.0000000000
      4163       133  ARHM      C1             12.9249378895       10.9203989072       89.1436980979  LPSA4     25             18.0000000000
      4164       133  ARHM      H1             12.1065779163       11.2276796013       88.4589489830  LPSA4     25             18.0000000000
      4165       133  ARHM      C5             14.8133434336       11.8935819408       90.2132177246  LPSA4     25             18.0000000000
      4166       133  ARHM      H5             15.3907426069       11.0220703574       89.8873309181  LPSA4     25             18.0000000000
      4167       133  ARHM      O5             13.7478673287       12.0848776167       89.2747005475  LPSA4     25             18.0000000000
      4168       133  ARHM      C2             12.3291125548       10.5206218757       90.4583388605  LPSA4     25             18.0000000000
      4169       133  ARHM      H2             11.7876252136        9.5474471499       90.3600921825  LPSA4     25             18.0000000000
      4170       133  ARHM      O2             11.4204385004       11.5424690642       90.8885976814  LPSA4     25             18.0000000000
      4171       133  ARHM      C3             13.4358237822       10.2940573585       91.4511104509  LPSA4     25             18.0000000000
      4172       133  ARHM      H3             14.1131513184        9.4832665193       91.0829871016  LPSA4     25             18.0000000000
      4173       133  ARHM      O3             12.8435403440        9.9574369979       92.7053772170  LPSA4     25             18.0000000000
      4174       133  ARHM      C4             14.2621216498       11.5257295111       91.5800444126  LPSA4     25             18.0000000000
      4175       133  ARHM      H4             13.6071024951       12.3483552828       91.9183378931  LPSA4     25             18.0000000000
      4176       133  ARHM      O4             15.2799610011       11.3240736377       92.5514590179  LPSA4     25             18.0000000000
      4177       133  ARHM      HO4            15.3740855522       12.1543867251       93.0171395864  LPSA4     25             18.0000000000
      4178       133  ARHM      C6             15.7680623205       13.1010393690       90.1960411597  LPSA4     25             18.0000000000
      4179       133  ARHM      H61            16.0581599433       13.3674949125       89.1582822358  LPSA4     25             18.0000000000
      4180       133  ARHM      H62            15.3012491439       14.0074485086       90.5876156613  LPSA4     25             18.0000000000
      4181       133  ARHM      H63            16.6789128153       12.8963347551       90.7911509872  LPSA4     25             18.0000000000
      4182       134  BMANNA    C1             10.1695331668       11.4995052571       90.2510126209  LPSA4     26             19.0000000000
      4183       134  BMANNA    H1              9.9576150716       10.4814550620       89.8455639694  LPSA4     26             19.0000000000
      4184       134  BMANNA    C5              8.6959518426       12.3268461897       88.5832497360  LPSA4     26             19.0000000000
      4185       134  BMANNA    H5              8.6019097622       11.2950918689       88.1726618857  LPSA4     26             19.0000000000
      4186       134  BMANNA    O5              9.9851134349       12.4510544889       89.2016229448  LPSA4     26             19.0000000000
      4187       134  BMANNA    C2              9.1730969770       11.7833817317       91.3097118279  LPSA4     26             19.0000000000
      4188       134  BMANNA    H2              9.4137902696       11.0146149063       92.0546589280  LPSA4     26             19.0000000000
      4189       134  BMANNA    N               9.3618442899       13.0982053676       91.9115756438  LPSA4     26             19.0000000000
      4190       134  BMANNA    HN              9.3537386143       13.8587638923       91.2814520584  LPSA4     26             19.0000000000
      4191       134  BMANNA    C               9.4712400365       13.3306364449       93.2236713300  LPSA4     26             19.0000000000
      4192       134  BMANNA    O               9.5574189305       12.4239183157       94.0312221544  LPSA4     26             19.0000000000
      4193       134  BMANNA    CT              9.4374971829       14.7695461447       93.6656713678  LPSA4     26             19.0000000000
      4194       134  BMANNA    HT1             9.7629390274       15.4379720476       92.8507238769  LPSA4     26             19.0000000000
      4195       134  BMANNA    HT2            10.0141998513       14.9533239461       94.5846847786  LPSA4     26             19.0000000000
      4196       134  BMANNA    HT3             8.3894334925       15.0037314753       93.9227594463  LPSA4     26             19.0000000000
      4197       134  BMANNA    C3              7.7917377039       11.5684372397       90.7472432455  LPSA4     26             19.0000000000
      4198       134  BMANNA    H3              7.6969888783       10.5274053397       90.3365215195  LPSA4     26             19.0000000000
      4199       134  BMANNA    O3              6.8534781877       11.6862829668       91.8072920636  LPSA4     26             19.0000000000
      4200       134  BMANNA    HO3             6.7659553449       10.8188438245       92.2383504578  LPSA4     26             19.0000000000
      4201       134  BMANNA    C4              7.6019719295       12.5514812201       89.6098965912  LPSA4     26             19.0000000000
      4202       134  BMANNA    H4              7.6663221877       13.5927633782       89.9807338477  LPSA4     26             19.0000000000
      4203       134  BMANNA    O4              6.3506844269       12.4131021378       88.9795785945  LPSA4     26             19.0000000000
      4204       134  BMANNA    HO4             5.6857780195       12.8230192066       89.5333569042  LPSA4     26             19.0000000000
      4205       134  BMANNA    C6              8.6855899145       13.2824067442       87.3962686646  LPSA4     26             19.0000000000
      4206       134  BMANNA    H61             9.6849835215       13.2620669250       86.9096433270  LPSA4     26             19.0000000000
      4207       134  BMANNA    H62             7.9431941570       12.9444988913       86.6379836560  LPSA4     26             19.0000000000
      4208       134  BMANNA    O6              8.3774528866       14.6287870953       87.7647696231  LPSA4     26             19.0000000000
      4209       134  BMANNA    HO6             7.4811859372       14.5948220855       88.1017917322  LPSA4     26             19.0000000000
      4210       135  BGLCNA    C1             13.4694843869        8.9680128692       93.4703548319  LPSA4     27             19.0000000000
      4211       135  BGLCNA    H1             14.5799118911        9.0328997952       93.4299486303  LPSA4     27             19.0000000000
      4212       135  BGLCNA    C5             13.6194160146        6.6592906559       93.9187556548  LPSA4     27             19.0000000000
      4213       135  BGLCNA    H5             14.7285906326        6.8055488172       93.9438852515  LPSA4     27             19.0000000000
      4214       135  BGLCNA    O5             13.0554505421        7.6628181719       93.0627951722  LPSA4     27             19.0000000000
      4215       135  BGLCNA    C2             12.9531416638        9.2530967921       94.8659497374  LPSA4     27             19.0000000000
      4216       135  BGLCNA    H2             11.8386992879        9.1166444645       94.8366264047  LPSA4     27             19.0000000000
      4217       135  BGLCNA    N              13.2344303060       10.6198563955       95.2909109203  LPSA4     27             19.0000000000
      4218       135  BGLCNA    HN             14.1339533138       10.9776841391       95.0708162167  LPSA4     27             19.0000000000
      4219       135  BGLCNA    C              12.3071818346       11.3503553464       95.9522146384  LPSA4     27             19.0000000000
      4220       135  BGLCNA    O              11.3438409487       10.8421779129       96.5003109319  LPSA4     27             19.0000000000
      4221       135  BGLCNA    CT             12.5003025333       12.8497314657       96.0163872530  LPSA4     27             19.0000000000
      4222       135  BGLCNA    HT1            13.3375463154       13.1649794290       95.3702208923  LPSA4     27             19.0000000000
      4223       135  BGLCNA    HT2            12.6638772211       13.2022732164       97.0528894180  LPSA4     27             19.0000000000
      4224       135  BGLCNA    HT3            11.5582108470       13.3296538100       95.6706815315  LPSA4     27             19.0000000000
      4225       135  BGLCNA    C3             13.5013288126        8.2420286417       95.8236030437  LPSA4     27             19.0000000000
      4226       135  BGLCNA    H3             14.6174590733        8.3003163994       95.7708435601  LPSA4     27             19.0000000000
      4227       135  BGLCNA    O3             13.0418025881        8.6661595487       97.1319915785  LPSA4     27             19.0000000000
      4228       135  BGLCNA    C4             13.1022450182        6.8599554038       95.3390750552  LPSA4     27             19.0000000000
      4229       135  BGLCNA    H4             11.9904350626        6.7558236702       95.3372025808  LPSA4     27             19.0000000000
      4230       135  BGLCNA    O4             13.6651957658        5.8558502901       96.1631663396  LPSA4     27             19.0000000000
      4231       135  BGLCNA    HO4            14.6202449903        5.8765062978       96.0584028108  LPSA4     27             19.0000000000
      4232       135  BGLCNA    C6             13.3814574624        5.2830360896       93.3237959283  LPSA4     27             19.0000000000
      4233       135  BGLCNA    H61            13.9853954989        4.5365780957       93.8794335252  LPSA4     27             19.0000000000
      4234       135  BGLCNA    H62            12.3131890848        4.9860936839       93.4402751272  LPSA4     27             19.0000000000
      4235       135  BGLCNA    O6             13.8021059452        5.2271020069       91.9527362922  LPSA4     27             19.0000000000
      4236       135  BGLCNA    HO6            13.5007353181        4.4166474907       91.5229042551  LPSA4     27             19.0000000000
      4237       136  AGAL      C1             13.6840085582        8.1226241682       98.2472951680  LPSA4     28             20.0000000000
      4238       136  AGAL      H1             13.4007481467        7.0499109451       98.3128626975  LPSA4     28             20.0000000000
      4239       136  AGAL      C5             15.5770794283        9.5891792859       98.1226305407  LPSA4     28             20.0000000000
      4240       136  AGAL      H5             14.9719684827       10.2188244097       97.4240349641  LPSA4     28             20.0000000000
      4241       136  AGAL      O5             15.1072096601        8.2171783814       98.0641039852  LPSA4     28             20.0000000000
      4242       136  AGAL      C2             13.3344940231        8.7558410106       99.6152741774  LPSA4     28             20.0000000000
      4243       136  AGAL      H2             13.9662705984        8.1520346913      100.3024787462  LPSA4     28             20.0000000000
      4244       136  AGAL      O2             11.9939768194        8.6237810158      100.1119559544  LPSA4     28             20.0000000000
      4245       136  AGAL      C3             13.8182124412       10.1950517036       99.6900220821  LPSA4     28             20.0000000000
      4246       136  AGAL      H3             13.3535593884       10.7454660044       98.8411251219  LPSA4     28             20.0000000000
      4247       136  AGAL      O3             13.4774772258       10.9430867963      100.8603649257  LPSA4     28             20.0000000000
      4248       136  AGAL      HO3            12.8719415499       11.6467920646      100.5924264081  LPSA4     28             20.0000000000
      4249       136  AGAL      C4             15.3039482069       10.1822736715       99.4824871576  LPSA4     28             20.0000000000
      4250       136  AGAL      H4             15.6545817149       11.2380811965       99.4836236379  LPSA4     28             20.0000000000
      4251       136  AGAL      O4             15.9985275534        9.4873358688      100.5066306161  LPSA4     28             20.0000000000
      4252       136  AGAL      HO4            16.3791111437       10.1543285164      101.0777326436  LPSA4     28             20.0000000000
      4253       136  AGAL      C6             17.0236771340        9.7244747654       97.6505923614  LPSA4     28             20.0000000000
      4254       136  AGAL      H61            17.0522670916        9.4728753257       96.5680744459  LPSA4     28             20.0000000000
      4255       136  AGAL      H62            17.4010533715       10.7679090394       97.7566803729  LPSA4     28             20.0000000000
      4256       136  AGAL      O6             17.9475769846        8.8928844706       98.3497161039  LPSA4     28             20.0000000000
      4257       136  AGAL      HO6            17.9270940660        7.9973295116       97.9877271705  LPSA4     28             20.0000000000
      4258       137  ARHM      C1             12.0180408642        8.3051310643      101.4904903988  LPSA4     29             21.0000000000
      4259       137  ARHM      H1             12.9436012014        8.6888279330      101.9678510514  LPSA4     29             21.0000000000
      4260       137  ARHM      C5             10.7530333150        6.3297337749      101.1431018938  LPSA4     29             21.0000000000
      4261       137  ARHM      H5             10.7068062352        6.5987737927      100.0593013157  LPSA4     29             21.0000000000
      4262       137  ARHM      O5             11.9461781635        6.8925556873      101.7054802941  LPSA4     29             21.0000000000
      4263       137  ARHM      C2             10.8628615699        8.9683299284      102.1715759919  LPSA4     29             21.0000000000
      4264       137  ARHM      H2             10.8994997056       10.0579959700      101.9230991522  LPSA4     29             21.0000000000
      4265       137  ARHM      O2             10.9393038769        8.7748755536      103.6048048135  LPSA4     29             21.0000000000
      4266       137  ARHM      C3              9.5819020342        8.4159371333      101.6084394700  LPSA4     29             21.0000000000
      4267       137  ARHM      H3              9.5395857814        8.6085617971      100.5091537847  LPSA4     29             21.0000000000
      4268       137  ARHM      O3              8.4996507515        9.1158016461      102.1780305742  LPSA4     29             21.0000000000
      4269       137  ARHM      HO3             7.7926194566        8.4724831175      102.2624572700  LPSA4     29             21.0000000000
      4270       137  ARHM      C4              9.5036871967        6.9085982831      101.8179818365  LPSA4     29             21.0000000000
      4271       137  ARHM      H4              9.5312999240        6.6791887036      102.9098789534  LPSA4     29             21.0000000000
      4272       137  ARHM      O4              8.2841470144        6.3377520584      101.3233330067  LPSA4     29             21.0000000000
      4273       137  ARHM      HO4             8.0753880919        6.6131215738      100.4271752019  LPSA4     29             21.0000000000
      4274       137  ARHM      C6             10.9851107511        4.8173665269      101.2279182709  LPSA4     29             21.0000000000
      4275       137  ARHM      H61            11.9771330799        4.5990380859      100.7708771594  LPSA4     29             21.0000000000
      4276       137  ARHM      H62            10.9726338549        4.4629044586      102.2740328688  LPSA4     29             21.0000000000
      4277       137  ARHM      H63            10.2092141065        4.2791438837      100.6417406031  LPSA4     29             21.0000000000
      4278       138  ARHM      C1             11.5134776945        9.8145678023      104.3668388684  LPSA4     30             22.0000000000
      4279       138  ARHM      H1             10.9726166235       10.7698831268      104.1626960909  LPSA4     30             22.0000000000
      4280       138  ARHM      C5             13.6810964056        8.8121955647      104.4913032036  LPSA4     30             22.0000000000
      4281       138  ARHM      H5             13.2415371235        7.9705748599      103.9117367996  LPSA4     30             22.0000000000
      4282       138  ARHM      O5             12.9343953951        9.9890718557      104.1518039229  LPSA4     30             22.0000000000
      4283       138  ARHM      C2             11.3139008977        9.4599909533      105.8211645678  LPSA4     30             22.0000000000
      4284       138  ARHM      H2             10.2371432176        9.2826032401      106.0228994346  LPSA4     30             22.0000000000
      4285       138  ARHM      O2             11.8193490275       10.5287679652      106.6116790021  LPSA4     30             22.0000000000
      4286       138  ARHM      C3             12.0798545346        8.2228474439      106.2236375412  LPSA4     30             22.0000000000
      4287       138  ARHM      H3             11.7617412716        7.4170140563      105.5196798598  LPSA4     30             22.0000000000
      4288       138  ARHM      O3             11.7193309799        7.7643435170      107.5434310205  LPSA4     30             22.0000000000
      4289       138  ARHM      C4             13.5431497084        8.4747941884      105.9608995927  LPSA4     30             22.0000000000
      4290       138  ARHM      H4             13.9255529747        9.3375211264      106.5476294397  LPSA4     30             22.0000000000
      4291       138  ARHM      O4             14.3667943230        7.3873468151      106.3367531737  LPSA4     30             22.0000000000
      4292       138  ARHM      HO4            14.4024799878        6.6880621326      105.6682487783  LPSA4     30             22.0000000000
      4293       138  ARHM      C6             15.1439042005        8.9913893187      104.0539460524  LPSA4     30             22.0000000000
      4294       138  ARHM      H61            15.6789610396        8.0325597101      104.2285931053  LPSA4     30             22.0000000000
      4295       138  ARHM      H62            15.1763095077        9.1964822414      102.9679064448  LPSA4     30             22.0000000000
      4296       138  ARHM      H63            15.6393567108        9.7941048372      104.6381150093  LPSA4     30             22.0000000000
      4297       139  BMANNA    C1             10.9091989334       11.5374640048      106.8917050069  LPSA4     31             23.0000000000
      4298       139  BMANNA    H1              9.9268289674       11.0933831801      107.1543819377  LPSA4     31             23.0000000000
      4299       139  BMANNA    C5              9.9482116356       13.5965125849      106.1938933059  LPSA4     31             23.0000000000
      4300       139  BMANNA    H5              9.0885980748       13.0237894471      106.5276620816  LPSA4     31             23.0000000000
      4301       139  BMANNA    O5             10.8382073299       12.5246124689      105.8493732856  LPSA4     31             23.0000000000
      4302       139  BMANNA    C2             11.4827862556       12.2182306599      108.0883147861  LPSA4     31             23.0000000000
      4303       139  BMANNA    H2             11.4910463027       11.4624255446      108.9154512298  LPSA4     31             23.0000000000
      4304       139  BMANNA    N              12.8508817365       12.6199923162      107.8216458064  LPSA4     31             23.0000000000
      4305       139  BMANNA    HN             13.1023595898       12.7091035204      106.8603916856  LPSA4     31             23.0000000000
      4306       139  BMANNA    C              13.7645388908       12.7277042055      108.7844700454  LPSA4     31             23.0000000000
      4307       139  BMANNA    O              13.4916827217       12.4621864637      109.9474461921  LPSA4     31             23.0000000000
      4308       139  BMANNA    CT             15.1313232106       13.1655193177      108.3393231543  LPSA4     31             23.0000000000
      4309       139  BMANNA    HT1            15.0175410300       13.9634603911      107.5746710009  LPSA4     31             23.0000000000
      4310       139  BMANNA    HT2            15.6799622202       12.3046201150      107.9131773720  LPSA4     31             23.0000000000
      4311       139  BMANNA    HT3            15.7158855469       13.5598235706      109.1983602610  LPSA4     31             23.0000000000
      4312       139  BMANNA    C3             10.5399546992       13.3247735310      108.5039472519  LPSA4     31             23.0000000000
      4313       139  BMANNA    H3              9.5260113686       12.8883891433      108.6649403201  LPSA4     31             23.0000000000
      4314       139  BMANNA    O3             10.8891047149       13.8481552677      109.7607652823  LPSA4     31             23.0000000000
      4315       139  BMANNA    HO3            11.5584831905       13.2534787218      110.1361623398  LPSA4     31             23.0000000000
      4316       139  BMANNA    C4             10.4232482086       14.3566141270      107.4117211963  LPSA4     31             23.0000000000
      4317       139  BMANNA    H4             11.4072919378       14.8054061693      107.1384003235  LPSA4     31             23.0000000000
      4318       139  BMANNA    O4              9.5238669531       15.4185832858      107.7539908643  LPSA4     31             23.0000000000
      4319       139  BMANNA    HO4             8.7409947515       15.0576093886      108.1891686279  LPSA4     31             23.0000000000
      4320       139  BMANNA    C6              9.5606939088       14.5103156370      105.0389080023  LPSA4     31             23.0000000000
      4321       139  BMANNA    H61             8.6799631960       15.1412986971      105.3109233259  LPSA4     31             23.0000000000
      4322       139  BMANNA    H62            10.4085191278       15.2040493910      104.8602700317  LPSA4     31             23.0000000000
      4323       139  BMANNA    O6              9.3012218199       13.8183328733      103.8144079059  LPSA4     31             23.0000000000
      4324       139  BMANNA    HO6             8.4491784349       13.3756482603      103.8309761725  LPSA4     31             23.0000000000
      4325       140  BGLCNA    C1             12.3749089514        8.4033087618      108.6126845213  LPSA4     32             23.0000000000
      4326       140  BGLCNA    H1             12.5020458176        9.4808356273      108.4096106727  LPSA4     32             23.0000000000
      4327       140  BGLCNA    C5             14.3393431646        8.6111662111      109.9148864154  LPSA4     32             23.0000000000
      4328       140  BGLCNA    H5             14.4129240103        9.6812676606      109.5860922534  LPSA4     32             23.0000000000
      4329       140  BGLCNA    O5             13.6584277042        7.8620195489      108.9052573308  LPSA4     32             23.0000000000
      4330       140  BGLCNA    C2             11.5206088068        8.2907032451      109.8549133737  LPSA4     32             23.0000000000
      4331       140  BGLCNA    H2             11.5477847262        7.2101436309      110.1475054245  LPSA4     32             23.0000000000
      4332       140  BGLCNA    N              10.1595520457        8.6737239622      109.5791816606  LPSA4     32             23.0000000000
      4333       140  BGLCNA    HN             10.0982814507        9.3655203131      108.8767598672  LPSA4     32             23.0000000000
      4334       140  BGLCNA    C               9.0504503025        8.1175973482      110.0993798138  LPSA4     32             23.0000000000
      4335       140  BGLCNA    O               9.0410502576        7.2163073080      110.9259920971  LPSA4     32             23.0000000000
      4336       140  BGLCNA    CT              7.7695413494        8.6983165605      109.5493572232  LPSA4     32             23.0000000000
      4337       140  BGLCNA    HT1             8.0287491107        9.2354126264      108.6216545310  LPSA4     32             23.0000000000
      4338       140  BGLCNA    HT2             7.2847679903        9.4099813452      110.2451005153  LPSA4     32             23.0000000000
      4339       140  BGLCNA    HT3             7.0526023647        7.8895571963      109.3080852950  LPSA4     32             23.0000000000
      4340       140  BGLCNA    C3             12.1717104661        9.1377883486      110.9233375484  LPSA4     32             23.0000000000
      4341       140  BGLCNA    H3             12.3298026890       10.1468829407      110.4767642463  LPSA4     32             23.0000000000
      4342       140  BGLCNA    O3             11.3653514067        9.2995142191      112.0967275123  LPSA4     32             23.0000000000
      4343       140  BGLCNA    C4             13.5236615017        8.5356401380      111.1943973698  LPSA4     32             23.0000000000
      4344       140  BGLCNA    H4             13.3605409735        7.4764774061      111.4902801188  LPSA4     32             23.0000000000
      4345       140  BGLCNA    O4             14.2126058665        9.1596760759      112.2576930457  LPSA4     32             23.0000000000
      4346       140  BGLCNA    HO4            13.9328313532        8.8157459657      113.1124051969  LPSA4     32             23.0000000000
      4347       140  BGLCNA    C6             15.7492205136        8.0826010508      110.0092673559  LPSA4     32             23.0000000000
      4348       140  BGLCNA    H61            16.3377619956        8.6181141832      110.7428679959  LPSA4     32             23.0000000000
      4349       140  BGLCNA    H62            15.7775640990        7.0608164652      110.3846748843  LPSA4     32             23.0000000000
      4350       140  BGLCNA    O6             16.4614786870        8.1021571685      108.7837126843  LPSA4     32             23.0000000000
      4351       140  BGLCNA    HO6            16.1658275407        8.8260205421      108.2204988340  LPSA4     32             23.0000000000
      4352       141  AGAL      C1             11.4578434500       10.5873433626      112.6783352817  LPSA4     33             24.0000000000
      4353       141  AGAL      H1             12.5022508883       10.9624052521      112.6071326910  LPSA4     33             24.0000000000
      4354       141  AGAL      C5              9.1901779200       11.2057624983      112.2078779619  LPSA4     33             24.0000000000
      4355       141  AGAL      H5              9.1228400813       10.1583458547      111.8408870629  LPSA4     33             24.0000000000
      4356       141  AGAL      O5             10.5818044672       11.5500107691      112.0520728474  LPSA4     33             24.0000000000
      4357       141  AGAL      C2             11.0638211246       10.5056667641      114.1439025383  LPSA4     33             24.0000000000
      4358       141  AGAL      H2             11.0805597614       11.5495987507      114.5293761910  LPSA4     33             24.0000000000
      4359       141  AGAL      O2             12.0942994346        9.8089119765      114.8677282135  LPSA4     33             24.0000000000
      4360       141  AGAL      C3              9.6068247171       10.0513715845      114.3057705842  LPSA4     33             24.0000000000
      4361       141  AGAL      H3              9.4403620028        9.1101973598      113.7254423975  LPSA4     33             24.0000000000
      4362       141  AGAL      O3              9.2548357265        9.6942188968      115.6404937495  LPSA4     33             24.0000000000
      4363       141  AGAL      HO3             9.4147053651       10.4388055349      116.2268727572  LPSA4     33             24.0000000000
      4364       141  AGAL      C4              8.7153146493       11.1172660558      113.6592537404  LPSA4     33             24.0000000000
      4365       141  AGAL      H4              7.6581494018       10.7683521527      113.6646060550  LPSA4     33             24.0000000000
      4366       141  AGAL      O4              8.6840276200       12.3858414628      114.3184839321  LPSA4     33             24.0000000000
      4367       141  AGAL      HO4             9.4311771242       12.5698585139      114.8841604477  LPSA4     33             24.0000000000
      4368       141  AGAL      C6              8.3045184376       12.0106881924      111.2625772927  LPSA4     33             24.0000000000
      4369       141  AGAL      H61             8.6285413825       11.7497478332      110.2364050448  LPSA4     33             24.0000000000
      4370       141  AGAL      H62             7.2370020878       11.7116898003      111.3738158856  LPSA4     33             24.0000000000
      4371       141  AGAL      O6              8.3515706373       13.4303543639      111.4098047803  LPSA4     33             24.0000000000
      4372       141  AGAL      HO6             9.0694338868       13.8387779675      110.8975307924  LPSA4     33             24.0000000000
      4373       142  ARHM      C1             12.5294169697       10.4424723666      116.0577208119  LPSA4     34             25.0000000000
      4374       142  ARHM      H1             11.6321714140       10.7150773429      116.6517618853  LPSA4     34             25.0000000000
      4375       142  ARHM      C5             14.4945032327       11.4841563519      115.0683728477  LPSA4     34             25.0000000000
      4376       142  ARHM      H5             14.2084993593       11.1064877090      114.0643727319  LPSA4     34             25.0000000000
      4377       142  ARHM      O5             13.2911115402       11.6637078622      115.8495136263  LPSA4     34             25.0000000000
      4378       142  ARHM      C2             13.3730091355        9.4294218042      116.8155402585  LPSA4     34             25.0000000000
      4379       142  ARHM      H2             12.8136931553        8.4583590215      116.8578843003  LPSA4     34             25.0000000000
      4380       142  ARHM      O2             13.6885481543        9.8360360833      118.1786190815  LPSA4     34             25.0000000000
      4381       142  ARHM      C3             14.6441303688        9.1806955036      116.0065226766  LPSA4     34             25.0000000000
      4382       142  ARHM      H3             14.3619953981        8.7979408951      114.9947195554  LPSA4     34             25.0000000000
      4383       142  ARHM      O3             15.4876541878        8.2011052403      116.6188321912  LPSA4     34             25.0000000000
      4384       142  ARHM      HO3            15.9299636567        7.6469586527      115.9695559865  LPSA4     34             25.0000000000
      4385       142  ARHM      C4             15.3867388763       10.4762070446      115.7948710595  LPSA4     34             25.0000000000
      4386       142  ARHM      H4             15.6285068715       10.9387627361      116.7832156564  LPSA4     34             25.0000000000
      4387       142  ARHM      O4             16.6180955654       10.2203355091      115.1045957270  LPSA4     34             25.0000000000
      4388       142  ARHM      HO4            17.2514540541        9.8359757356      115.7259461255  LPSA4     34             25.0000000000
      4389       142  ARHM      C6             15.2549703104       12.8230846526      114.8406826865  LPSA4     34             25.0000000000
      4390       142  ARHM      H61            15.5490241403       13.3165627659      115.7818700672  LPSA4     34             25.0000000000
      4391       142  ARHM      H62            16.2108444563       12.5981526949      114.3221581046  LPSA4     34             25.0000000000
      4392       142  ARHM      H63            14.7096574283       13.5372951330      114.1852626949  LPSA4     34             25.0000000000
      4393       143  ARHM      C1             12.6131501943       10.1165464587      119.0581189227  LPSA4     35             26.0000000000
      4394       143  ARHM      H1             11.7614774106        9.4195554578      118.8639919851  LPSA4     35             26.0000000000
      4395       143  ARHM      C5             13.2402129117       12.4438476131      119.2064181553  LPSA4     35             26.0000000000
      4396       143  ARHM      H5             14.0866738446       12.2789608678      118.5091531686  LPSA4     35             26.0000000000
      4397       143  ARHM      O5             12.1858271933       11.4944765032      118.9410225104  LPSA4     35             26.0000000000
      4398       143  ARHM      C2             13.0685418141        9.9158549007      120.5057722171  LPSA4     35             26.0000000000
      4399       143  ARHM      H2             13.4133564408        8.8615092291      120.6515257612  LPSA4     35             26.0000000000
      4400       143  ARHM      O2             12.0069348397       10.1806715951      121.4462754855  LPSA4     35             26.0000000000
      4401       143  ARHM      C3             14.2221277812       10.8341770533      120.8317600860  LPSA4     35             26.0000000000
      4402       143  ARHM      H3             15.0622389334       10.6373900332      120.1208346577  LPSA4     35             26.0000000000
      4403       143  ARHM      O3             14.7464533259       10.5700858378      122.1366298888  LPSA4     35             26.0000000000
      4404       143  ARHM      HO3            14.0225051020       10.3736442277      122.7405583786  LPSA4     35             26.0000000000
      4405       143  ARHM      C4             13.7503660405       12.2654295103      120.6423474772  LPSA4     35             26.0000000000
      4406       143  ARHM      H4             12.9041492041       12.4964808613      121.3324905175  LPSA4     35             26.0000000000
      4407       143  ARHM      O4             14.7937471532       13.1805532457      120.9468878415  LPSA4     35             26.0000000000
      4408       143  ARHM      HO4            15.6397663345       12.8548662048      120.6229291098  LPSA4     35             26.0000000000
      4409       143  ARHM      C6             12.7103223293       13.8561345878      118.8624446585  LPSA4     35             26.0000000000
      4410       143  ARHM      H61            12.5063893577       13.9697344885      117.7762772175  LPSA4     35             26.0000000000
      4411       143  ARHM      H62            11.7802428232       14.0641586974      119.4308247541  LPSA4     35             26.0000000000
      4412       143  ARHM      H63            13.4845959863       14.6175088761      119.1048874593  LPSA4     35             26.0000000000
      4413       144  BMANNA    C1             11.0105700652        9.1938537712      121.4740585412  LPSA4     36             27.0000000000
      4414       144  BMANNA    H1             11.4041062327        8.2166577568      121.1241568176  LPSA4     36             27.0000000000
      4415       144  BMANNA    C5              8.9105510127        8.4464223362      120.7193188652  LPSA4     36             27.0000000000
      4416       144  BMANNA    H5              9.3978013904        7.4817303527      120.4222433956  LPSA4     36             27.0000000000
      4417       144  BMANNA    O5              9.8896254551        9.5020079355      120.6563204713  LPSA4     36             27.0000000000
      4418       144  BMANNA    C2             10.5460619563        9.1019496727      122.9061355275  LPSA4     36             27.0000000000
      4419       144  BMANNA    H2             11.4621753652        8.7945856428      123.4731432990  LPSA4     36             27.0000000000
      4420       144  BMANNA    N              10.0465998051       10.3508834535      123.4851319896  LPSA4     36             27.0000000000
      4421       144  BMANNA    HN              9.5193403518       10.9586580481      122.8883070916  LPSA4     36             27.0000000000
      4422       144  BMANNA    C              10.1694812820       10.5895024997      124.8188411295  LPSA4     36             27.0000000000
      4423       144  BMANNA    O              10.8447714054        9.8798344807      125.5575098462  LPSA4     36             27.0000000000
      4424       144  BMANNA    CT              9.4283368224       11.7627324167      125.3776282472  LPSA4     36             27.0000000000
      4425       144  BMANNA    HT1             8.5168777961       11.8751833369      124.8118248110  LPSA4     36             27.0000000000
      4426       144  BMANNA    HT2             9.8295143026       12.7273260264      125.1881702739  LPSA4     36             27.0000000000
      4427       144  BMANNA    HT3             9.2760150088       11.7116956512      126.4726803932  LPSA4     36             27.0000000000
      4428       144  BMANNA    C3              9.5468514052        7.9703980201      123.0110029657  LPSA4     36             27.0000000000
      4429       144  BMANNA    H3             10.0123742424        7.0221823522      122.6423603476  LPSA4     36             27.0000000000
      4430       144  BMANNA    O3              9.1467511628        7.7820859405      124.3609033933  LPSA4     36             27.0000000000
      4431       144  BMANNA    HO3             9.2684652479        6.8893733451      124.6875635487  LPSA4     36             27.0000000000
      4432       144  BMANNA    C4              8.3673297803        8.2721358970      122.1282788239  LPSA4     36             27.0000000000
      4433       144  BMANNA    H4              7.8557520903        9.2036811536      122.4525112052  LPSA4     36             27.0000000000
      4434       144  BMANNA    O4              7.3816911233        7.2573361959      122.2319460233  LPSA4     36             27.0000000000
      4435       144  BMANNA    HO4             7.2215720550        7.2029470718      123.1844182554  LPSA4     36             27.0000000000
      4436       144  BMANNA    C6              7.8473682247        8.7042413925      119.7050744043  LPSA4     36             27.0000000000
      4437       144  BMANNA    H61             8.2325331532        8.8129852488      118.6773985252  LPSA4     36             27.0000000000
      4438       144  BMANNA    H62             7.3356081768        7.7593316928      119.6024108914  LPSA4     36             27.0000000000
      4439       144  BMANNA    O6              6.9522803390        9.7646334955      120.0771931090  LPSA4     36             27.0000000000
      4440       144  BMANNA    HO6             6.2273689103        9.4282465577      120.6248825827  LPSA4     36             27.0000000000
      4441       145  ECLIPA    HB6S          -15.3883374426        4.7131295027       20.4254942291  LPSA5     1               0.0000000000
      4442       145  ECLIPA    OB6           -14.2278623081        5.8002911537       21.7193313918  LPSA5     1               0.0000000000
      4443       145  ECLIPA    CB6           -15.2443591132        5.7759267727       20.7006019669  LPSA5     1               0.0000000000
      4444       145  ECLIPA    HB6R          -16.2100641945        6.1608813332       21.1042119773  LPSA5     1               0.0000000000
      4445       145  ECLIPA    CB5           -14.9346049062        6.5713585383       19.4360236231  LPSA5     1               0.0000000000
      4446       145  ECLIPA    OB5           -13.6705846735        6.0768719312       18.9533140182  LPSA5     1               0.0000000000
      4447       145  ECLIPA    HB5           -14.8620664497        7.6420098371       19.7388277267  LPSA5     1               0.0000000000
      4448       145  ECLIPA    CB1           -13.2268863999        6.7822853111       17.7850874224  LPSA5     1               0.0000000000
      4449       145  ECLIPA    HB1           -13.1557381939        7.8822684522       17.9693306608  LPSA5     1               0.0000000000
      4450       145  ECLIPA    OA6           -11.9630759374        6.3621138075       17.3207578718  LPSA5     1               0.0000000000
      4451       145  ECLIPA    CA6           -11.6502682060        4.9801300603       17.5593984101  LPSA5     1               0.0000000000
      4452       145  ECLIPA    HA6R          -12.5584114164        4.3664306594       17.7492183097  LPSA5     1               0.0000000000
      4453       145  ECLIPA    HA6S          -10.9723321822        4.9264901629       18.4433271720  LPSA5     1               0.0000000000
      4454       145  ECLIPA    CB4           -16.0000638047        6.4320114055       18.3285235269  LPSA5     1               0.0000000000
      4455       145  ECLIPA    HB4           -16.1629978412        5.3625434211       18.0422743269  LPSA5     1               0.0000000000
      4456       145  ECLIPA    OB4           -17.1832032081        7.0675250272       18.8343487991  LPSA5     1               0.0000000000
      4457       145  ECLIPA    PB            -18.4745828411        6.1465213284       19.3145953388  LPSA5     1               0.0000000000
      4458       145  ECLIPA    OPB4          -19.1407305206        6.8523955446       20.4931490026  LPSA5     1               0.0000000000
      4459       145  ECLIPA    OPB3          -17.8357191788        4.7923472376       19.6637306838  LPSA5     1               0.0000000000
      4460       145  ECLIPA    OPB2          -19.3762616153        6.1193138360       18.0932224426  LPSA5     1               0.0000000000
      4461       145  ECLIPA    CB3           -15.5359382083        7.1615031878       17.0841048875  LPSA5     1               0.0000000000
      4462       145  ECLIPA    OB3           -16.3927204967        7.0131125522       15.9459877568  LPSA5     1               0.0000000000
      4463       145  ECLIPA    HB3           -15.3455927757        8.2335868738       17.3335064189  LPSA5     1               0.0000000000
      4464       145  ECLIPA    C71           -17.3935669052        7.8684795805       15.7630993195  LPSA5     1               0.0000000000
      4465       145  ECLIPA    O71           -17.4205023273        8.9905390356       16.2452987856  LPSA5     1               0.0000000000
      4466       145  ECLIPA    C72           -18.0142991743        7.5672793674       14.3762139044  LPSA5     1               0.0000000000
      4467       145  ECLIPA    H72R          -17.2257039272        7.5763552629       13.5956948880  LPSA5     1               0.0000000000
      4468       145  ECLIPA    H72S          -18.7699584380        8.3496488124       14.1632969641  LPSA5     1               0.0000000000
      4469       145  ECLIPA    CB2           -14.2034191674        6.5825954490       16.6633942244  LPSA5     1               0.0000000000
      4470       145  ECLIPA    HB2           -14.3387439126        5.4753692155       16.5061646139  LPSA5     1               0.0000000000
      4471       145  ECLIPA    NB2           -13.7199350003        7.2353261395       15.4515856001  LPSA5     1               0.0000000000
      4472       145  ECLIPA    HNB2          -13.1612157830        8.0451538291       15.5770365144  LPSA5     1               0.0000000000
      4473       145  ECLIPA    CA4            -9.8983120836        5.3566096484       15.7959968346  LPSA5     1               0.0000000000
      4474       145  ECLIPA    HA4           -10.4223765725        6.3049659987       15.5317729260  LPSA5     1               0.0000000000
      4475       145  ECLIPA    OA4            -8.9493971116        5.5655019979       16.8405695686  LPSA5     1               0.0000000000
      4476       145  ECLIPA    HOA4           -9.4518726955        5.9019835563       17.5922536847  LPSA5     1               0.0000000000
      4477       145  ECLIPA    CA5           -10.9527832910        4.4221945742       16.3330620651  LPSA5     1               0.0000000000
      4478       145  ECLIPA    HA5           -10.5485285239        3.4085489766       16.5608828641  LPSA5     1               0.0000000000
      4479       145  ECLIPA    OA5           -11.9565927309        4.2658708968       15.3498520671  LPSA5     1               0.0000000000
      4480       145  ECLIPA    CA1           -11.4574989105        3.7276943194       14.1089872133  LPSA5     1               0.0000000000
      4481       145  ECLIPA    HA1           -12.3219896246        3.8841881865       13.4261600980  LPSA5     1               0.0000000000
      4482       145  ECLIPA    OA1           -11.1480978611        2.3488616996       14.1296072545  LPSA5     1               0.0000000000
      4483       145  ECLIPA    OPA2          -11.6411965137        0.8434119023       16.0807768258  LPSA5     1               0.0000000000
      4484       145  ECLIPA    OPA3          -13.5875286384        1.9609380847       14.9573691884  LPSA5     1               0.0000000000
      4485       145  ECLIPA    OPA4          -12.3206513684        0.1810318578       13.6470088132  LPSA5     1               0.0000000000
      4486       145  ECLIPA    PA            -12.2476513961        1.2648370933       14.7232406722  LPSA5     1               0.0000000000
      4487       145  ECLIPA    CA3            -9.2673243164        4.8370938782       14.5215882283  LPSA5     1               0.0000000000
      4488       145  ECLIPA    HA3            -8.7390490016        3.8792270203       14.7218350597  LPSA5     1               0.0000000000
      4489       145  ECLIPA    OA3            -8.2732321952        5.8344153999       14.1950008283  LPSA5     1               0.0000000000
      4490       145  ECLIPA    C31            -8.6762714896        6.9178109508       13.5120479917  LPSA5     1               0.0000000000
      4491       145  ECLIPA    O31            -8.7425449249        6.9384830021       12.2958317467  LPSA5     1               0.0000000000
      4492       145  ECLIPA    C32            -8.2927465446        8.1840380736       14.2954158455  LPSA5     1               0.0000000000
      4493       145  ECLIPA    H32R           -7.4994592938        8.6974533356       13.7134676753  LPSA5     1               0.0000000000
      4494       145  ECLIPA    H32S           -7.9100653615        7.8999219550       15.2889160481  LPSA5     1               0.0000000000
      4495       145  ECLIPA    CA2           -10.3910971614        4.6362019549       13.5101461495  LPSA5     1               0.0000000000
      4496       145  ECLIPA    HA2           -10.8952899730        5.6139656857       13.3388043281  LPSA5     1               0.0000000000
      4497       145  ECLIPA    NA2            -9.8907489161        4.1233175933       12.2226413905  LPSA5     1               0.0000000000
      4498       145  ECLIPA    HNA2           -8.9075890374        4.1293206249       12.1206503652  LPSA5     1               0.0000000000
      4499       145  ECLIPA    C73           -18.6767406232        6.1737544896       14.3518459983  LPSA5     1               0.0000000000
      4500       145  ECLIPA    H73R          -19.2931199839        6.0645336729       15.2822366534  LPSA5     1               0.0000000000
      4501       145  ECLIPA    O73           -17.6109515719        5.2309458736       14.2658895627  LPSA5     1               0.0000000000
      4502       145  ECLIPA    C81           -17.7102901031        4.0808811222       14.9296328517  LPSA5     1               0.0000000000
      4503       145  ECLIPA    O81           -18.6921681314        3.7222213566       15.5561405455  LPSA5     1               0.0000000000
      4504       145  ECLIPA    C82           -16.6841596073        3.0957421470       14.3356703021  LPSA5     1               0.0000000000
      4505       145  ECLIPA    H82R          -16.7669385686        2.1230126420       14.8593983785  LPSA5     1               0.0000000000
      4506       145  ECLIPA    H82S          -15.6652887085        3.4832441043       14.5486304770  LPSA5     1               0.0000000000
      4507       145  ECLIPA    C83           -16.8240351634        2.8907897596       12.8065838300  LPSA5     1               0.0000000000
      4508       145  ECLIPA    H83R          -16.3237946961        3.7413124282       12.2883444896  LPSA5     1               0.0000000000
      4509       145  ECLIPA    H83S          -17.8981074669        2.9025808063       12.5360406067  LPSA5     1               0.0000000000
      4510       145  ECLIPA    C84           -16.1362059451        1.6136163594       12.2920279372  LPSA5     1               0.0000000000
      4511       145  ECLIPA    H84R          -16.6918790615        0.7045113755       12.6009986401  LPSA5     1               0.0000000000
      4512       145  ECLIPA    H84S          -15.1191946985        1.5878665645       12.7656692399  LPSA5     1               0.0000000000
      4513       145  ECLIPA    C85           -15.9179234357        1.6346491863       10.7707871191  LPSA5     1               0.0000000000
      4514       145  ECLIPA    H85R          -15.5703714471        2.6684195102       10.5444076154  LPSA5     1               0.0000000000
      4515       145  ECLIPA    H85S          -16.8799610252        1.4974812021       10.2352716058  LPSA5     1               0.0000000000
      4516       145  ECLIPA    C86           -14.7993609880        0.6846877030       10.2863880771  LPSA5     1               0.0000000000
      4517       145  ECLIPA    H86R          -15.2100457379       -0.3060867694        9.9925030434  LPSA5     1               0.0000000000
      4518       145  ECLIPA    H86S          -14.0919994593        0.4948063104       11.1303769830  LPSA5     1               0.0000000000
      4519       145  ECLIPA    C87           -13.9444074938        1.2997679518        9.1588733783  LPSA5     1               0.0000000000
      4520       145  ECLIPA    H87R          -13.2113926621        0.5461931000        8.7982221037  LPSA5     1               0.0000000000
      4521       145  ECLIPA    H87S          -13.3472372827        2.1437580584        9.5768853803  LPSA5     1               0.0000000000
      4522       145  ECLIPA    C88           -14.7919261448        1.8680267697        8.0195819614  LPSA5     1               0.0000000000
      4523       145  ECLIPA    H88R          -15.2342964722        2.8312287028        8.3492922950  LPSA5     1               0.0000000000
      4524       145  ECLIPA    H88S          -15.6660240185        1.1935226847        7.8790361534  LPSA5     1               0.0000000000
      4525       145  ECLIPA    C89           -14.0044252625        2.0895109551        6.7145293153  LPSA5     1               0.0000000000
      4526       145  ECLIPA    H89R          -12.9087863870        2.1577904518        6.8947446660  LPSA5     1               0.0000000000
      4527       145  ECLIPA    H89S          -14.2929737381        3.0609390958        6.2587125129  LPSA5     1               0.0000000000
      4528       145  ECLIPA    C810          -14.3380037762        0.9946097731        5.6961058738  LPSA5     1               0.0000000000
      4529       145  ECLIPA    H810R         -15.3707350136        0.6603418531        5.9317619966  LPSA5     1               0.0000000000
      4530       145  ECLIPA    H810S         -13.6427081490        0.1425430442        5.8639734619  LPSA5     1               0.0000000000
      4531       145  ECLIPA    C811          -14.2667147138        1.4588703601        4.2335781726  LPSA5     1               0.0000000000
      4532       145  ECLIPA    H811R         -14.1475226799        0.5958246416        3.5371255026  LPSA5     1               0.0000000000
      4533       145  ECLIPA    H811S         -13.3753285486        2.1187836184        4.1642897109  LPSA5     1               0.0000000000
      4534       145  ECLIPA    C812          -15.4544986929        2.2974780227        3.7344316872  LPSA5     1               0.0000000000
      4535       145  ECLIPA    H812R         -15.1802573295        2.6595069148        2.7123629920  LPSA5     1               0.0000000000
      4536       145  ECLIPA    H812S         -15.5968789920        3.1679165954        4.4075757912  LPSA5     1               0.0000000000
      4537       145  ECLIPA    C813          -16.7991864204        1.5738827611        3.6358159965  LPSA5     1               0.0000000000
      4538       145  ECLIPA    H813R         -16.6814153058        0.7264795297        2.9286633624  LPSA5     1               0.0000000000
      4539       145  ECLIPA    H813S         -17.1059750835        1.1564030774        4.6238090427  LPSA5     1               0.0000000000
      4540       145  ECLIPA    C814          -17.9150710692        2.4883937272        3.1293684572  LPSA5     1               0.0000000000
      4541       145  ECLIPA    H814R         -17.6139962460        3.0512702827        2.2180369434  LPSA5     1               0.0000000000
      4542       145  ECLIPA    H814S         -18.1905724179        3.2200194305        3.9178676970  LPSA5     1               0.0000000000
      4543       145  ECLIPA    H814T         -18.8134965049        1.8862324406        2.8876019080  LPSA5     1               0.0000000000
      4544       145  ECLIPA    C74           -19.5914842633        5.9055844257       13.1248798067  LPSA5     1               0.0000000000
      4545       145  ECLIPA    H74R          -20.4607942392        6.5882123638       13.0421853423  LPSA5     1               0.0000000000
      4546       145  ECLIPA    H74S          -20.0159028397        4.8904601134       13.3194149343  LPSA5     1               0.0000000000
      4547       145  ECLIPA    C75           -18.8353612157        5.8163918170       11.7775758945  LPSA5     1               0.0000000000
      4548       145  ECLIPA    H75R          -19.3187925265        5.0065492790       11.1894659612  LPSA5     1               0.0000000000
      4549       145  ECLIPA    H75S          -17.7888606599        5.4931165377       11.9704306675  LPSA5     1               0.0000000000
      4550       145  ECLIPA    C76           -18.7960911395        7.1084041323       10.9459162178  LPSA5     1               0.0000000000
      4551       145  ECLIPA    H76R          -18.0310988394        7.7929618437       11.3757364089  LPSA5     1               0.0000000000
      4552       145  ECLIPA    H76S          -19.7746464973        7.6376896145       10.9878505041  LPSA5     1               0.0000000000
      4553       145  ECLIPA    C77           -18.4679987633        6.9007128502        9.4540321061  LPSA5     1               0.0000000000
      4554       145  ECLIPA    H77R          -19.2909139886        6.3179138515        8.9911837335  LPSA5     1               0.0000000000
      4555       145  ECLIPA    H77S          -17.5568278780        6.2972727938        9.3121263504  LPSA5     1               0.0000000000
      4556       145  ECLIPA    C78           -18.2138825779        8.2706393867        8.8008428306  LPSA5     1               0.0000000000
      4557       145  ECLIPA    H78R          -19.0590919102        8.9366762530        9.0694934874  LPSA5     1               0.0000000000
      4558       145  ECLIPA    H78S          -17.3251913750        8.6884169422        9.3224825146  LPSA5     1               0.0000000000
      4559       145  ECLIPA    C79           -17.8789849672        8.3070162090        7.2928351652  LPSA5     1               0.0000000000
      4560       145  ECLIPA    H79R          -16.7714225555        8.3034369467        7.1731974998  LPSA5     1               0.0000000000
      4561       145  ECLIPA    H79S          -18.2568314888        9.2479718112        6.8333648137  LPSA5     1               0.0000000000
      4562       145  ECLIPA    C710          -18.4783041347        7.1862715251        6.4498942053  LPSA5     1               0.0000000000
      4563       145  ECLIPA    H710R         -18.2018698227        6.1963104770        6.8647741922  LPSA5     1               0.0000000000
      4564       145  ECLIPA    H710S         -19.5806088289        7.2791175883        6.4904290351  LPSA5     1               0.0000000000
      4565       145  ECLIPA    C711          -18.0447486668        7.2226245553        4.9823439149  LPSA5     1               0.0000000000
      4566       145  ECLIPA    H711R         -18.3359321984        8.1984852078        4.5330247066  LPSA5     1               0.0000000000
      4567       145  ECLIPA    H711S         -16.9387083800        7.1042320452        4.9174738333  LPSA5     1               0.0000000000
      4568       145  ECLIPA    C712          -18.7026721128        6.0651207130        4.2296242516  LPSA5     1               0.0000000000
      4569       145  ECLIPA    H712R         -19.8047436704        6.2095141361        4.2564174145  LPSA5     1               0.0000000000
      4570       145  ECLIPA    H712S         -18.4794362080        5.1459187431        4.8170755467  LPSA5     1               0.0000000000
      4571       145  ECLIPA    C713          -18.1975247809        5.8937683679        2.7916529318  LPSA5     1               0.0000000000
      4572       145  ECLIPA    H713R         -17.1020351009        5.6791541336        2.8395352495  LPSA5     1               0.0000000000
      4573       145  ECLIPA    H713S         -18.6965004516        5.0149976356        2.3201169194  LPSA5     1               0.0000000000
      4574       145  ECLIPA    C714          -18.4651221620        7.0858006657        1.8740952045  LPSA5     1               0.0000000000
      4575       145  ECLIPA    H714R         -19.5590511191        7.2706831360        1.7949423299  LPSA5     1               0.0000000000
      4576       145  ECLIPA    H714S         -17.9514873423        8.0075364664        2.2235737475  LPSA5     1               0.0000000000
      4577       145  ECLIPA    H714T         -18.0927610379        6.8450716583        0.8574959170  LPSA5     1               0.0000000000
      4578       145  ECLIPA    C51           -14.0696879623        6.7962566463       14.2350597972  LPSA5     1               0.0000000000
      4579       145  ECLIPA    O51           -14.5721903969        5.6994653635       14.0788732842  LPSA5     1               0.0000000000
      4580       145  ECLIPA    C52           -13.8728641349        7.7148754621       13.0563046123  LPSA5     1               0.0000000000
      4581       145  ECLIPA    H52R          -14.7635392257        8.3690574494       12.9367515963  LPSA5     1               0.0000000000
      4582       145  ECLIPA    H52S          -13.0028704292        8.3435508640       13.2563401495  LPSA5     1               0.0000000000
      4583       145  ECLIPA    C53           -13.6383738278        6.9106147703       11.7614949132  LPSA5     1               0.0000000000
      4584       145  ECLIPA    H53R          -13.0695772743        5.9757703144       11.9858681475  LPSA5     1               0.0000000000
      4585       145  ECLIPA    O53           -12.9491516183        7.7817820558       10.8484858527  LPSA5     1               0.0000000000
      4586       145  ECLIPA    C61           -11.6916518515        7.4946145837       10.5209842679  LPSA5     1               0.0000000000
      4587       145  ECLIPA    O61           -11.0705908593        6.5174799950       10.8613059657  LPSA5     1               0.0000000000
      4588       145  ECLIPA    C62           -11.1351141332        8.5819644104        9.5906579956  LPSA5     1               0.0000000000
      4589       145  ECLIPA    H62R          -10.7890137230        9.4292499990       10.2125964396  LPSA5     1               0.0000000000
      4590       145  ECLIPA    H62S          -11.9982730264        8.9461680106        9.0036565455  LPSA5     1               0.0000000000
      4591       145  ECLIPA    C63            -9.9682175762        8.0459970302        8.7057920518  LPSA5     1               0.0000000000
      4592       145  ECLIPA    H63R          -10.2859202722        7.0711965644        8.2739774663  LPSA5     1               0.0000000000
      4593       145  ECLIPA    H63S           -9.0619642818        7.8705921576        9.3306957966  LPSA5     1               0.0000000000
      4594       145  ECLIPA    C64            -9.5678299177        8.9313409497        7.5101941838  LPSA5     1               0.0000000000
      4595       145  ECLIPA    H64R           -8.6866210869        8.4921338185        6.9882449809  LPSA5     1               0.0000000000
      4596       145  ECLIPA    H64S           -9.2874131229        9.9263808450        7.9207614875  LPSA5     1               0.0000000000
      4597       145  ECLIPA    C65           -10.7409770217        9.0637230170        6.5385806524  LPSA5     1               0.0000000000
      4598       145  ECLIPA    H65R          -11.5256712068        9.5689241830        7.1381462682  LPSA5     1               0.0000000000
      4599       145  ECLIPA    H65S          -11.1187247462        8.0661457035        6.2329777736  LPSA5     1               0.0000000000
      4600       145  ECLIPA    C66           -10.5476026408        9.8718483219        5.2598186449  LPSA5     1               0.0000000000
      4601       145  ECLIPA    H66R          -10.0904694000       10.8451896452        5.4360295676  LPSA5     1               0.0000000000
      4602       145  ECLIPA    H66S          -11.5548284973        9.9895288675        4.7921487976  LPSA5     1               0.0000000000
      4603       145  ECLIPA    C67            -9.6134639665        9.3544340318        4.2091314068  LPSA5     1               0.0000000000
      4604       145  ECLIPA    H67R           -8.5802714761        9.1627990291        4.5752632599  LPSA5     1               0.0000000000
      4605       145  ECLIPA    H67S           -9.5598013379       10.1922569945        3.4712011295  LPSA5     1               0.0000000000
      4606       145  ECLIPA    C68           -10.1312206319        8.0551169815        3.6580578328  LPSA5     1               0.0000000000
      4607       145  ECLIPA    H68R          -11.1460524213        8.1417047575        3.1859891130  LPSA5     1               0.0000000000
      4608       145  ECLIPA    H68S          -10.0682523096        7.2873008365        4.4352825224  LPSA5     1               0.0000000000
      4609       145  ECLIPA    C69            -9.2066166413        7.6045283073        2.6150432981  LPSA5     1               0.0000000000
      4610       145  ECLIPA    H69R           -8.1600659369        7.8978007521        2.7356169965  LPSA5     1               0.0000000000
      4611       145  ECLIPA    H69S           -9.7438990149        8.1311485543        1.8702742733  LPSA5     1               0.0000000000
      4612       145  ECLIPA    C610           -9.1947216455        6.2376765618        2.1651218081  LPSA5     1               0.0000000000
      4613       145  ECLIPA    H610R         -10.2259832947        5.8509328482        2.1804034046  LPSA5     1               0.0000000000
      4614       145  ECLIPA    H610S          -8.4857322697        5.6979716811        2.8139694470  LPSA5     1               0.0000000000
      4615       145  ECLIPA    C611           -8.5759265032        6.1672618248        0.8253456784  LPSA5     1               0.0000000000
      4616       145  ECLIPA    H611R          -7.5395481813        6.4142922353        0.7829536075  LPSA5     1               0.0000000000
      4617       145  ECLIPA    H611S          -8.7701731554        5.1559591840        0.3963050191  LPSA5     1               0.0000000000
      4618       145  ECLIPA    C612           -8.7757892014        7.0519223487       -0.2392772976  LPSA5     1               0.0000000000
      4619       145  ECLIPA    H612R          -9.6916996758        6.8520380660       -0.4256700463  LPSA5     1               0.0000000000
      4620       145  ECLIPA    H612S          -9.7177471774        7.4913001199       -0.5748759837  LPSA5     1               0.0000000000
      4621       145  ECLIPA    H612T          -8.2894733245        6.7675076537       -1.1494855781  LPSA5     1               0.0000000000
      4622       145  ECLIPA    C54           -15.0254232683        6.5493258975       11.1697100469  LPSA5     1               0.0000000000
      4623       145  ECLIPA    H54R          -15.5151921037        7.5049854502       10.8818300921  LPSA5     1               0.0000000000
      4624       145  ECLIPA    H54S          -15.6306129052        6.0880294495       11.9773575446  LPSA5     1               0.0000000000
      4625       145  ECLIPA    C55           -15.0357164342        5.5910194226        9.9633604489  LPSA5     1               0.0000000000
      4626       145  ECLIPA    H55R          -16.0579699824        5.1788245327        9.8233530475  LPSA5     1               0.0000000000
      4627       145  ECLIPA    H55S          -14.3881741166        4.7188415346       10.2009655113  LPSA5     1               0.0000000000
      4628       145  ECLIPA    C56           -14.6365436539        6.3474979028        8.6899214790  LPSA5     1               0.0000000000
      4629       145  ECLIPA    H56R          -13.6483975272        6.8140745864        8.8595006257  LPSA5     1               0.0000000000
      4630       145  ECLIPA    H56S          -15.3626386512        7.1716713587        8.5038552367  LPSA5     1               0.0000000000
      4631       145  ECLIPA    C57           -14.4689012590        5.5425910864        7.4046189420  LPSA5     1               0.0000000000
      4632       145  ECLIPA    H57R          -15.3750525025        4.9408079765        7.1806942062  LPSA5     1               0.0000000000
      4633       145  ECLIPA    H57S          -13.6263067643        4.8276786225        7.5435870700  LPSA5     1               0.0000000000
      4634       145  ECLIPA    C58           -14.1222416557        6.4985926427        6.2436181242  LPSA5     1               0.0000000000
      4635       145  ECLIPA    H58R          -14.8022991795        7.3754032872        6.2165759573  LPSA5     1               0.0000000000
      4636       145  ECLIPA    H58S          -13.1117394363        6.9155714546        6.4612211079  LPSA5     1               0.0000000000
      4637       145  ECLIPA    C59           -14.1744269929        5.7946281683        4.8785163098  LPSA5     1               0.0000000000
      4638       145  ECLIPA    H59R          -15.1818862118        5.3444397469        4.7188714918  LPSA5     1               0.0000000000
      4639       145  ECLIPA    H59S          -13.4444947841        4.9596038719        4.9612341174  LPSA5     1               0.0000000000
      4640       145  ECLIPA    C510          -13.9490414996        6.7155112078        3.6586801767  LPSA5     1               0.0000000000
      4641       145  ECLIPA    H510R         -13.0847245777        7.3928526251        3.8231281891  LPSA5     1               0.0000000000
      4642       145  ECLIPA    H510S         -14.8511666980        7.3554995242        3.5201000755  LPSA5     1               0.0000000000
      4643       145  ECLIPA    C511          -13.7337232257        5.9640575356        2.3398970262  LPSA5     1               0.0000000000
      4644       145  ECLIPA    H511R         -12.6703070038        5.6499932093        2.2900195044  LPSA5     1               0.0000000000
      4645       145  ECLIPA    H511S         -14.3851738500        5.0722466692        2.2462377702  LPSA5     1               0.0000000000
      4646       145  ECLIPA    C512          -14.0111901284        6.7996867188        1.1267898022  LPSA5     1               0.0000000000
      4647       145  ECLIPA    H512R         -14.0917309466        6.1567286846        0.2008796572  LPSA5     1               0.0000000000
      4648       145  ECLIPA    H512S         -14.9387562951        7.4237357833        1.1682081586  LPSA5     1               0.0000000000
      4649       145  ECLIPA    C513          -12.9001792983        7.7254750341        0.8344552387  LPSA5     1               0.0000000000
      4650       145  ECLIPA    H513R         -11.8903535698        7.3051903210        0.7000237060  LPSA5     1               0.0000000000
      4651       145  ECLIPA    H513S         -12.6892912049        8.5429261481        1.5330837844  LPSA5     1               0.0000000000
      4652       145  ECLIPA    C514          -13.4953519205        8.0688436036       -0.4751996539  LPSA5     1               0.0000000000
      4653       145  ECLIPA    H514R         -14.0369481791        9.0455577319       -0.4758121332  LPSA5     1               0.0000000000
      4654       145  ECLIPA    H514S         -12.9134169091        8.6143601208       -1.1372920020  LPSA5     1               0.0000000000
      4655       145  ECLIPA    H514T         -12.9686966914        7.4737286357       -1.2492965072  LPSA5     1               0.0000000000
      4656       145  ECLIPA    C33            -9.4383902281        9.1932943012       14.4612503319  LPSA5     1               0.0000000000
      4657       145  ECLIPA    H33R           -9.0213071925       10.1617048881       14.8405933726  LPSA5     1               0.0000000000
      4658       145  ECLIPA    O33           -10.3371674377        8.7425002091       15.4618996360  LPSA5     1               0.0000000000
      4659       145  ECLIPA    HO33          -10.0218506914        8.8583742701       16.3664033625  LPSA5     1               0.0000000000
      4660       145  ECLIPA    C34           -10.2154117437        9.4431665132       13.1639396605  LPSA5     1               0.0000000000
      4661       145  ECLIPA    H34R          -10.6984361053        8.5459256287       12.7577895072  LPSA5     1               0.0000000000
      4662       145  ECLIPA    H34S           -9.5663140719        9.9181301684       12.3834419381  LPSA5     1               0.0000000000
      4663       145  ECLIPA    C35           -11.4162740033       10.2662003263       13.4799057900  LPSA5     1               0.0000000000
      4664       145  ECLIPA    H35R          -10.9066092953       11.1451625124       13.7843432744  LPSA5     1               0.0000000000
      4665       145  ECLIPA    H35S          -12.0106388723       10.0313601747       14.3646217373  LPSA5     1               0.0000000000
      4666       145  ECLIPA    C36           -12.3884925048       10.5247445957       12.3868220864  LPSA5     1               0.0000000000
      4667       145  ECLIPA    H36R          -12.3305288596        9.8016533901       11.5933659173  LPSA5     1               0.0000000000
      4668       145  ECLIPA    H36S          -11.9618345486       11.3136017083       11.9448481300  LPSA5     1               0.0000000000
      4669       145  ECLIPA    C37           -13.7016036692       11.2032062522       12.6173748772  LPSA5     1               0.0000000000
      4670       145  ECLIPA    H37R          -13.7324098600       12.3398054651       12.5788375888  LPSA5     1               0.0000000000
      4671       145  ECLIPA    H37S          -14.0760353761       10.9040766950       13.6046461519  LPSA5     1               0.0000000000
      4672       145  ECLIPA    C38           -14.6036958333       10.7478536348       11.5372682778  LPSA5     1               0.0000000000
      4673       145  ECLIPA    H38R          -14.9949002146        9.7368430168       11.4847990678  LPSA5     1               0.0000000000
      4674       145  ECLIPA    H38S          -15.3044207049       11.3957019402       11.9480843514  LPSA5     1               0.0000000000
      4675       145  ECLIPA    C39           -14.2209490015       11.1967373055       10.1969929898  LPSA5     1               0.0000000000
      4676       145  ECLIPA    H39R          -13.2408651238       10.7754519387       10.1103725649  LPSA5     1               0.0000000000
      4677       145  ECLIPA    H39S          -14.2889684786       12.3526073650       10.2546453860  LPSA5     1               0.0000000000
      4678       145  ECLIPA    C310          -14.8446920971       10.4187708165        9.0034801501  LPSA5     1               0.0000000000
      4679       145  ECLIPA    H310R         -15.3854847800       11.2146939541        9.3425718405  LPSA5     1               0.0000000000
      4680       145  ECLIPA    H310S         -15.5283603040        9.6073049495        9.0687772239  LPSA5     1               0.0000000000
      4681       145  ECLIPA    C311          -14.3727764861       10.5838673706        7.5768354300  LPSA5     1               0.0000000000
      4682       145  ECLIPA    H311R         -14.3586446173       11.6843593683        7.7683562944  LPSA5     1               0.0000000000
      4683       145  ECLIPA    H311S         -13.5099383067        9.9539680329        7.3866266757  LPSA5     1               0.0000000000
      4684       145  ECLIPA    C312          -15.0084144403       10.6747085571        6.1953346261  LPSA5     1               0.0000000000
      4685       145  ECLIPA    H312R         -15.9495030748       10.1599376811        6.4155668651  LPSA5     1               0.0000000000
      4686       145  ECLIPA    H312S         -14.8851079808       11.7995315541        5.9536332736  LPSA5     1               0.0000000000
      4687       145  ECLIPA    C313          -14.3940160297       10.3415904340        4.8678701457  LPSA5     1               0.0000000000
      4688       145  ECLIPA    H313R         -13.7556907387       11.2130937924        4.6467378793  LPSA5     1               0.0000000000
      4689       145  ECLIPA    H313S         -13.8448505477        9.4543220214        5.1447303742  LPSA5     1               0.0000000000
      4690       145  ECLIPA    C314          -15.3036339488       10.0109704118        3.6785399703  LPSA5     1               0.0000000000
      4691       145  ECLIPA    H314R         -15.5953570881       10.7657482849        2.9446413345  LPSA5     1               0.0000000000
      4692       145  ECLIPA    H314S         -14.7848875347        9.7419068340        2.7652944803  LPSA5     1               0.0000000000
      4693       145  ECLIPA    H314T         -16.2362392100        9.5139786982        4.0243989178  LPSA5     1               0.0000000000
      4694       145  ECLIPA    C11           -10.6062958193        3.5024214289       11.2534103565  LPSA5     1               0.0000000000
      4695       145  ECLIPA    O11           -11.8169631580        3.5864562239       11.0951043528  LPSA5     1               0.0000000000
      4696       145  ECLIPA    C12            -9.7820879261        2.6424360903       10.3288699790  LPSA5     1               0.0000000000
      4697       145  ECLIPA    H12R           -9.9658589841        1.5745230915       10.5537432039  LPSA5     1               0.0000000000
      4698       145  ECLIPA    H12S           -8.7117186437        2.8753539432       10.5114038665  LPSA5     1               0.0000000000
      4699       145  ECLIPA    C13           -10.0760014041        2.9136424693        8.8559742176  LPSA5     1               0.0000000000
      4700       145  ECLIPA    H13R          -11.1671102134        3.0111310549        8.6434295728  LPSA5     1               0.0000000000
      4701       145  ECLIPA    O13            -9.5856209242        1.7929947492        8.1281851028  LPSA5     1               0.0000000000
      4702       145  ECLIPA    HO13          -10.0261457810        1.6224547689        7.2910108472  LPSA5     1               0.0000000000
      4703       145  ECLIPA    C14            -9.3603148496        4.2154728270        8.4409244985  LPSA5     1               0.0000000000
      4704       145  ECLIPA    H14R           -8.3787059472        4.2977978865        8.9602127264  LPSA5     1               0.0000000000
      4705       145  ECLIPA    H14S          -10.0130582014        5.0498807605        8.7773340753  LPSA5     1               0.0000000000
      4706       145  ECLIPA    C15            -9.1195285378        4.4077875738        6.9508553272  LPSA5     1               0.0000000000
      4707       145  ECLIPA    H15R           -8.5465636181        3.5328639260        6.5728041593  LPSA5     1               0.0000000000
      4708       145  ECLIPA    H15S           -8.4703862948        5.3033217712        6.8264602526  LPSA5     1               0.0000000000
      4709       145  ECLIPA    C16           -10.4352151651        4.5882553331        6.1904482250  LPSA5     1               0.0000000000
      4710       145  ECLIPA    H16R          -10.8005675124        5.6309153276        6.2803249199  LPSA5     1               0.0000000000
      4711       145  ECLIPA    H16S          -11.2195872397        3.9509014648        6.6505982290  LPSA5     1               0.0000000000
      4712       145  ECLIPA    C17           -10.2465439413        4.2392066572        4.7228928696  LPSA5     1               0.0000000000
      4713       145  ECLIPA    H17R           -9.2976075024        4.7151585701        4.3966036109  LPSA5     1               0.0000000000
      4714       145  ECLIPA    H17S          -11.0637500064        4.6674820583        4.1020138854  LPSA5     1               0.0000000000
      4715       145  ECLIPA    C18           -10.1399141411        2.7210883420        4.5397781988  LPSA5     1               0.0000000000
      4716       145  ECLIPA    H18R           -9.3177067816        2.3442244057        5.1629763876  LPSA5     1               0.0000000000
      4717       145  ECLIPA    H18S          -11.1117873996        2.2436785702        4.8184088489  LPSA5     1               0.0000000000
      4718       145  ECLIPA    C19            -9.8025911598        2.2905439058        3.1471716541  LPSA5     1               0.0000000000
      4719       145  ECLIPA    H19R           -9.5880782580        1.2114089017        3.0108479107  LPSA5     1               0.0000000000
      4720       145  ECLIPA    H19S           -8.9874820679        2.9082477732        2.6778320114  LPSA5     1               0.0000000000
      4721       145  ECLIPA    C110          -11.0423724325        2.5099835390        2.3898300797  LPSA5     1               0.0000000000
      4722       145  ECLIPA    H110R         -12.0396339541        2.1740798636        2.7122886413  LPSA5     1               0.0000000000
      4723       145  ECLIPA    H110S         -11.0501039958        3.6086364748        2.4567024632  LPSA5     1               0.0000000000
      4724       145  ECLIPA    C111          -10.8000397004        1.8686954517        1.0784298682  LPSA5     1               0.0000000000
      4725       145  ECLIPA    H111R          -9.8870712497        2.2835970167        0.6791637417  LPSA5     1               0.0000000000
      4726       145  ECLIPA    H111S         -10.7080982281        0.7921406432        0.9849222598  LPSA5     1               0.0000000000
      4727       145  ECLIPA    C112          -11.8900473697        2.1032483761        0.1659717677  LPSA5     1               0.0000000000
      4728       145  ECLIPA    H112R         -12.7723352090        1.6480894351        0.6797669686  LPSA5     1               0.0000000000
      4729       145  ECLIPA    H112S         -12.6536013678        2.9384467304        0.6301383553  LPSA5     1               0.0000000000
      4730       145  ECLIPA    C113          -11.2290924438        2.0500487999       -1.7485063859  LPSA5     1               0.0000000000
      4731       145  ECLIPA    H113R         -10.7683593244        2.9565720656       -1.9771923637  LPSA5     1               0.0000000000
      4732       145  ECLIPA    H113S         -10.6477586006        1.2122298235       -1.8436721818  LPSA5     1               0.0000000000
      4733       145  ECLIPA    C114          -11.7922470580        1.6405186244       -3.6215733528  LPSA5     1               0.0000000000
      4734       145  ECLIPA    H114R         -12.8687493435        1.2408863336       -3.7017828901  LPSA5     1               0.0000000000
      4735       145  ECLIPA    H114S         -12.2624288979        2.4422477765       -4.1988963863  LPSA5     1               0.0000000000
      4736       145  ECLIPA    H114T         -11.4379577301        1.5384509891       -4.6128194593  LPSA5     1               0.0000000000
      4737       146  AKDO      C1            -14.7295805355        8.0329850126       22.4038594604  LPSA5     2               0.0000000000
      4738       146  AKDO      O11           -15.8704168038        8.5548666286       22.4105587086  LPSA5     2               0.0000000000
      4739       146  AKDO      O12           -13.6525862403        8.5966762496       22.0572529113  LPSA5     2               0.0000000000
      4740       146  AKDO      C2            -14.6026938953        6.5545939950       22.8721533350  LPSA5     2               0.0000000000
      4741       146  AKDO      C6            -15.8183349888        4.7340230485       23.8637278778  LPSA5     2               0.0000000000
      4742       146  AKDO      H6            -15.5088371477        4.1643789092       22.9507555207  LPSA5     2               0.0000000000
      4743       146  AKDO      O6            -15.8484891535        6.1097238074       23.4664119307  LPSA5     2               0.0000000000
      4744       146  AKDO      C3            -13.5078984263        6.3384626495       23.9238154366  LPSA5     2               0.0000000000
      4745       146  AKDO      H31           -13.6735495316        7.0217200937       24.7861233081  LPSA5     2               0.0000000000
      4746       146  AKDO      H32           -12.5332972057        6.5993974647       23.4543194857  LPSA5     2               0.0000000000
      4747       146  AKDO      C4            -13.4476321890        4.9153884354       24.3727723389  LPSA5     2               0.0000000000
      4748       146  AKDO      H4            -13.2905575762        4.2653778956       23.4840014691  LPSA5     2               0.0000000000
      4749       146  AKDO      O4            -12.4369866606        4.7055665613       25.3682140402  LPSA5     2               0.0000000000
      4750       146  AKDO      C5            -14.7667712585        4.4875350279       24.9632737755  LPSA5     2               0.0000000000
      4751       146  AKDO      H5            -14.7161066963        3.3774292279       25.0884542971  LPSA5     2               0.0000000000
      4752       146  AKDO      O5            -14.9283457864        5.1554940699       26.2572438449  LPSA5     2               0.0000000000
      4753       146  AKDO      C7            -17.2124514926        4.2178003899       24.1606613671  LPSA5     2               0.0000000000
      4754       146  AKDO      H7            -17.5837435713        4.7262692786       25.0753085043  LPSA5     2               0.0000000000
      4755       146  AKDO      O7            -17.1470211096        2.7894440161       24.3385127057  LPSA5     2               0.0000000000
      4756       146  AKDO      HO7           -17.3539655232        2.4387978369       23.4736569855  LPSA5     2               0.0000000000
      4757       146  AKDO      C8            -18.1641336934        4.5527956218       23.0229624279  LPSA5     2               0.0000000000
      4758       146  AKDO      H81           -18.1281072896        5.6581860572       22.8558329540  LPSA5     2               0.0000000000
      4759       146  AKDO      H82           -17.8056232168        4.0653294029       22.0879348495  LPSA5     2               0.0000000000
      4760       146  AKDO      O8            -19.5224026673        4.1520053098       23.3165261967  LPSA5     2               0.0000000000
      4761       146  AKDO      HO8           -20.0956832558        4.7799037894       22.8463805636  LPSA5     2               0.0000000000
      4762       147  AKDO      C1            -10.9428512972        3.5829710234       23.7753001018  LPSA5     3               1.0000000000
      4763       147  AKDO      O11           -10.8038405873        4.0786209249       22.6219836843  LPSA5     3               1.0000000000
      4764       147  AKDO      O12           -11.1895576090        2.3680555892       24.0407311602  LPSA5     3               1.0000000000
      4765       147  AKDO      C2            -11.0778526150        4.5661814969       24.9971918270  LPSA5     3               1.0000000000
      4766       147  AKDO      C6            -10.5886396779        6.8052663151       25.7880218340  LPSA5     3               1.0000000000
      4767       147  AKDO      H6            -11.6701263576        7.0061632822       25.9798882874  LPSA5     3               1.0000000000
      4768       147  AKDO      O6            -10.4441045520        5.8407539533       24.7190241444  LPSA5     3               1.0000000000
      4769       147  AKDO      C3            -10.4530535347        4.0394452074       26.3200656376  LPSA5     3               1.0000000000
      4770       147  AKDO      H31            -9.3705124641        3.8507232687       26.1473162009  LPSA5     3               1.0000000000
      4771       147  AKDO      H32           -10.8988089728        3.0579692419       26.5862702258  LPSA5     3               1.0000000000
      4772       147  AKDO      C4            -10.6486986114        5.0373538347       27.4329276855  LPSA5     3               1.0000000000
      4773       147  AKDO      H4            -11.7358689586        5.2891689250       27.4804632168  LPSA5     3               1.0000000000
      4774       147  AKDO      O4            -10.2617266452        4.5916044896       28.7307720473  LPSA5     3               1.0000000000
      4775       147  AKDO      HO4           -11.0240547102        4.6154122397       29.3324639410  LPSA5     3               1.0000000000
      4776       147  AKDO      C5             -9.9323201340        6.2924851135       27.0490245665  LPSA5     3               1.0000000000
      4777       147  AKDO      H5            -10.0626152969        7.0206519280       27.8799321372  LPSA5     3               1.0000000000
      4778       147  AKDO      O5             -8.5335711125        6.0996449800       26.8467048826  LPSA5     3               1.0000000000
      4779       147  AKDO      HO5            -8.4394993613        5.3909408585       26.1955914845  LPSA5     3               1.0000000000
      4780       147  AKDO      C7             -9.9685737504        8.1002187043       25.3494650716  LPSA5     3               1.0000000000
      4781       147  AKDO      H7             -8.8925407981        7.9178030904       25.1432315082  LPSA5     3               1.0000000000
      4782       147  AKDO      O7            -10.0675571243        9.0750096074       26.3966938027  LPSA5     3               1.0000000000
      4783       147  AKDO      HO7            -9.5824524463        9.8631207894       26.1393698859  LPSA5     3               1.0000000000
      4784       147  AKDO      C8            -10.6609229384        8.5812786184       24.1065524923  LPSA5     3               1.0000000000
      4785       147  AKDO      H81           -10.6559670988        7.8007314601       23.3167934654  LPSA5     3               1.0000000000
      4786       147  AKDO      H82           -11.7096681696        8.8174565662       24.3062553145  LPSA5     3               1.0000000000
      4787       147  AKDO      O8             -9.9764282300        9.7221184779       23.6091808722  LPSA5     3               1.0000000000
      4788       147  AKDO      HO8            -9.1935177936        9.3200955507       23.2318389801  LPSA5     3               1.0000000000
      4789       148  AHEP      C1            -15.6522634042        4.4550889762       27.2567288081  LPSA5     4               2.0000000000
      4790       148  AHEP      H1            -16.7015115588        4.5329489679       26.9104680078  LPSA5     4               2.0000000000
      4791       148  AHEP      C5            -14.1423421652        2.7192647629       28.0036335531  LPSA5     4               2.0000000000
      4792       148  AHEP      H5            -13.3343039624        3.3114546104       27.5157813828  LPSA5     4               2.0000000000
      4793       148  AHEP      O5            -15.3778079498        3.0500336752       27.3232661319  LPSA5     4               2.0000000000
      4794       148  AHEP      C2            -15.6957467420        4.9677031636       28.7139899892  LPSA5     4               2.0000000000
      4795       148  AHEP      H2            -15.8390483574        6.0679269119       28.6842283760  LPSA5     4               2.0000000000
      4796       148  AHEP      O2            -16.8399956892        4.4335984950       29.3865397139  LPSA5     4               2.0000000000
      4797       148  AHEP      HO2           -17.2641326659        5.1173165257       29.9083585258  LPSA5     4               2.0000000000
      4798       148  AHEP      C3            -14.4261946542        4.6823129692       29.4998329679  LPSA5     4               2.0000000000
      4799       148  AHEP      H3            -13.5497726710        5.2326873866       29.0938867405  LPSA5     4               2.0000000000
      4800       148  AHEP      O3            -14.6195637822        5.0463860008       30.8834184638  LPSA5     4               2.0000000000
      4801       148  AHEP      C4            -14.1990205181        3.1842923656       29.4602478745  LPSA5     4               2.0000000000
      4802       148  AHEP      H4            -15.0180705720        2.6204248522       29.9690439292  LPSA5     4               2.0000000000
      4803       148  AHEP      O4            -12.9270364265        2.9562643135       30.0637404759  LPSA5     4               2.0000000000
      4804       148  AHEP      P4            -12.7623314996        2.1135993852       31.4913014192  LPSA5     4               2.0000000000
      4805       148  AHEP      OP42          -11.5082025318        2.7323698297       32.1213560189  LPSA5     4               2.0000000000
      4806       148  AHEP      OP43          -12.5413041934        0.6726660101       31.0552349549  LPSA5     4               2.0000000000
      4807       148  AHEP      OP44          -14.0360624208        2.3169669523       32.3017632127  LPSA5     4               2.0000000000
      4808       148  AHEP      C6            -13.8426791894        1.2139554199       27.8080622023  LPSA5     4               2.0000000000
      4809       148  AHEP      H6            -12.7707157081        1.0618807058       28.0959663136  LPSA5     4               2.0000000000
      4810       148  AHEP      O6            -14.6183496454        0.3199862321       28.6300487354  LPSA5     4               2.0000000000
      4811       148  AHEP      HO6           -14.0181806358       -0.1097661579       29.2689731874  LPSA5     4               2.0000000000
      4812       148  AHEP      C7            -14.0079897630        0.7602442195       26.3558028049  LPSA5     4               2.0000000000
      4813       148  AHEP      H71           -13.4863151595       -0.1983064952       26.1716273158  LPSA5     4               2.0000000000
      4814       148  AHEP      H72           -13.5306678125        1.4919063678       25.6788608337  LPSA5     4               2.0000000000
      4815       148  AHEP      O7            -15.3624197890        0.6025987034       25.9130866773  LPSA5     4               2.0000000000
      4816       148  AHEP      HO7           -15.6599782426       -0.2191758186       26.3391526722  LPSA5     4               2.0000000000
      4817       149  AHEP      C1            -13.7556563664        5.9900832993       31.4575977078  LPSA5     5               3.0000000000
      4818       149  AHEP      H1            -12.7477599907        5.9416275347       30.9801874347  LPSA5     5               3.0000000000
      4819       149  AHEP      C5            -15.5709781525        7.4580419744       31.9544470121  LPSA5     5               3.0000000000
      4820       149  AHEP      H5            -16.2241012797        6.6334795204       31.5934055241  LPSA5     5               3.0000000000
      4821       149  AHEP      O5            -14.2944704078        7.3106803926       31.2801850246  LPSA5     5               3.0000000000
      4822       149  AHEP      C2            -13.5778529526        5.7324659819       32.9564032441  LPSA5     5               3.0000000000
      4823       149  AHEP      H2            -13.2260417900        4.6816812188       33.0851122330  LPSA5     5               3.0000000000
      4824       149  AHEP      O2            -12.5470928198        6.5938069581       33.4574454556  LPSA5     5               3.0000000000
      4825       149  AHEP      HO2           -11.7757285501        6.0636745565       33.6492706486  LPSA5     5               3.0000000000
      4826       149  AHEP      C3            -14.8946905432        5.8686386754       33.7227105871  LPSA5     5               3.0000000000
      4827       149  AHEP      H3            -15.6145001448        5.1186359371       33.3129868138  LPSA5     5               3.0000000000
      4828       149  AHEP      O3            -14.7928780290        5.6859167693       35.1554642769  LPSA5     5               3.0000000000
      4829       149  AHEP      C4            -15.4235419531        7.2592270284       33.4603883108  LPSA5     5               3.0000000000
      4830       149  AHEP      H4            -14.7122791802        8.0322295200       33.8476806167  LPSA5     5               3.0000000000
      4831       149  AHEP      O4            -16.7301936996        7.3407873660       34.0446769317  LPSA5     5               3.0000000000
      4832       149  AHEP      P4            -17.0035658926        8.4212950146       35.2850866879  LPSA5     5               3.0000000000
      4833       149  AHEP      OP42          -18.3391424210        7.9838507686       35.8677852318  LPSA5     5               3.0000000000
      4834       149  AHEP      OP43          -17.0203964683        9.7694766460       34.5863658358  LPSA5     5               3.0000000000
      4835       149  AHEP      OP44          -15.8807747484        8.1692208355       36.2843430829  LPSA5     5               3.0000000000
      4836       149  AHEP      C6            -16.2598245862        8.7645052124       31.5510437217  LPSA5     5               3.0000000000
      4837       149  AHEP      H6            -17.2568554848        8.8190977814       32.0487869918  LPSA5     5               3.0000000000
      4838       149  AHEP      O6            -15.5435468058        9.9128032038       31.9816818533  LPSA5     5               3.0000000000
      4839       149  AHEP      HO6           -14.7062131221       10.0613993045       31.5651507272  LPSA5     5               3.0000000000
      4840       149  AHEP      C7            -16.4974927278        8.8452186097       30.0631964843  LPSA5     5               3.0000000000
      4841       149  AHEP      H71           -17.4611019706        9.3909800340       29.9206840633  LPSA5     5               3.0000000000
      4842       149  AHEP      H72           -16.6344249583        7.8422482486       29.6134381594  LPSA5     5               3.0000000000
      4843       149  AHEP      O7            -15.4857984870        9.6176083944       29.4102526794  LPSA5     5               3.0000000000
      4844       150  AHEP      C1            -14.4770796389        8.8253720061       28.8198107844  LPSA5     6               4.0000000000
      4845       150  AHEP      H1            -14.5968886379        7.7640298728       29.0606871772  LPSA5     6               4.0000000000
      4846       150  AHEP      C5            -14.4067026103       10.2162713983       26.9759630463  LPSA5     6               4.0000000000
      4847       150  AHEP      H5            -15.1633959902       10.8230480697       27.5306415199  LPSA5     6               4.0000000000
      4848       150  AHEP      O5            -14.6188651070        8.8899798342       27.4193396371  LPSA5     6               4.0000000000
      4849       150  AHEP      C2            -13.0692816472        9.2605096742       29.2239961253  LPSA5     6               4.0000000000
      4850       150  AHEP      H2            -13.0469616931        9.2278988951       30.3404615191  LPSA5     6               4.0000000000
      4851       150  AHEP      O2            -12.0980305483        8.3765724204       28.7308816915  LPSA5     6               4.0000000000
      4852       150  AHEP      HO2           -11.7290190548        7.9497087826       29.4964549149  LPSA5     6               4.0000000000
      4853       150  AHEP      C3            -12.8463570945       10.6476237729       28.7409707017  LPSA5     6               4.0000000000
      4854       150  AHEP      H3            -13.7920649873       11.0865239063       28.9801622596  LPSA5     6               4.0000000000
      4855       150  AHEP      O3            -11.6283785220       11.2840547654       29.2328010753  LPSA5     6               4.0000000000
      4856       150  AHEP      HO3           -11.6483818288       11.8416388248       30.0173740460  LPSA5     6               4.0000000000
      4857       150  AHEP      C4            -13.0095375641       10.7789165776       27.2820873353  LPSA5     6               4.0000000000
      4858       150  AHEP      H4            -12.2176230973       10.2990908027       26.7035131730  LPSA5     6               4.0000000000
      4859       150  AHEP      O4            -12.9904415259       12.1950321219       27.0456314406  LPSA5     6               4.0000000000
      4860       150  AHEP      HO4           -13.8332028464       12.6170606051       27.2698096703  LPSA5     6               4.0000000000
      4861       150  AHEP      C6            -14.7115477062       10.0555450064       25.4965965542  LPSA5     6               4.0000000000
      4862       150  AHEP      H6            -14.1572806994       10.8514752190       25.0018601560  LPSA5     6               4.0000000000
      4863       150  AHEP      O6            -13.7922077200        9.4844300403       24.6619605802  LPSA5     6               4.0000000000
      4864       150  AHEP      HO6           -14.2699365605        9.3515954524       23.8230415673  LPSA5     6               4.0000000000
      4865       150  AHEP      C7            -16.2246192774        9.9100766282       25.1600106703  LPSA5     6               4.0000000000
      4866       150  AHEP      H71           -16.5494086604       10.3302629942       24.1723114157  LPSA5     6               4.0000000000
      4867       150  AHEP      H72           -16.8743051665       10.3846805645       25.9353857911  LPSA5     6               4.0000000000
      4868       150  AHEP      O7            -16.6163783770        8.5780762025       25.2718294551  LPSA5     6               4.0000000000
      4869       150  AHEP      HO7           -16.6320102389        8.4540912425       26.2120781077  LPSA5     6               4.0000000000
      4870       151  AGLC      C1            -15.0292888610        4.3921770353       35.6511023579  LPSA5     7               4.0000000000
      4871       151  AGLC      H1            -15.9178770031        3.9315969627       35.1620698570  LPSA5     7               4.0000000000
      4872       151  AGLC      C5            -12.7011699477        4.0482804274       36.0972399429  LPSA5     7               4.0000000000
      4873       151  AGLC      H5            -12.5082994671        5.1135801163       35.8250701279  LPSA5     7               4.0000000000
      4874       151  AGLC      O5            -13.8832305595        3.5793085100       35.4227343822  LPSA5     7               4.0000000000
      4875       151  AGLC      C2            -15.2629781355        4.3238819312       37.1677441822  LPSA5     7               4.0000000000
      4876       151  AGLC      H2            -15.2969084399        3.2426404852       37.4323804327  LPSA5     7               4.0000000000
      4877       151  AGLC      O2            -16.5192675211        4.8436204769       37.5805106292  LPSA5     7               4.0000000000
      4878       151  AGLC      HO2           -16.4576528762        5.8232062200       37.5675282755  LPSA5     7               4.0000000000
      4879       151  AGLC      C3            -14.1213492317        4.8803828233       37.9723084493  LPSA5     7               4.0000000000
      4880       151  AGLC      H3            -13.9301729597        5.9171087296       37.6083602220  LPSA5     7               4.0000000000
      4881       151  AGLC      O3            -14.3982372345        4.9451135424       39.4018501908  LPSA5     7               4.0000000000
      4882       151  AGLC      C4            -12.9254613429        4.0095135872       37.6117432464  LPSA5     7               4.0000000000
      4883       151  AGLC      H4            -13.1214855719        2.9509076501       37.9261116184  LPSA5     7               4.0000000000
      4884       151  AGLC      O4            -11.7929671155        4.5242388348       38.2892764147  LPSA5     7               4.0000000000
      4885       151  AGLC      HO4           -11.2492119595        3.8247815222       38.6799725096  LPSA5     7               4.0000000000
      4886       151  AGLC      C6            -11.5214704319        3.2757080252       35.5111705096  LPSA5     7               4.0000000000
      4887       151  AGLC      H61           -11.5318394874        3.4465762882       34.4080789144  LPSA5     7               4.0000000000
      4888       151  AGLC      H62           -10.5499865320        3.6435667458       35.9009157377  LPSA5     7               4.0000000000
      4889       151  AGLC      O6            -11.5634280748        1.8652403497       35.7182966177  LPSA5     7               4.0000000000
      4890       151  AGLC      HO6           -11.2150338696        1.6475402522       36.5737798737  LPSA5     7               4.0000000000
      4891       152  AGLC      C1            -14.3622404318        6.2673998196       39.9214957182  LPSA5     8               5.0000000000
      4892       152  AGLC      H1            -13.4822040701        6.8077541990       39.5073596420  LPSA5     8               5.0000000000
      4893       152  AGLC      C5            -16.7799109562        6.6031671775       40.2179431098  LPSA5     8               5.0000000000
      4894       152  AGLC      H5            -16.9436881886        5.5586282593       39.8859199615  LPSA5     8               5.0000000000
      4895       152  AGLC      O5            -15.5431014740        7.0392748052       39.5998879691  LPSA5     8               5.0000000000
      4896       152  AGLC      C2            -14.1953141289        6.2958339159       41.4340066319  LPSA5     8               5.0000000000
      4897       152  AGLC      H2            -14.0863392878        7.3695130505       41.7020250526  LPSA5     8               5.0000000000
      4898       152  AGLC      O2            -13.0354179666        5.6197139417       41.9481880126  LPSA5     8               5.0000000000
      4899       152  AGLC      C3            -15.4184234794        5.7583866609       42.1238719676  LPSA5     8               5.0000000000
      4900       152  AGLC      H3            -15.5713252664        4.7238255683       41.7210971255  LPSA5     8               5.0000000000
      4901       152  AGLC      O3            -15.1305957216        5.6456751407       43.5345987403  LPSA5     8               5.0000000000
      4902       152  AGLC      C4            -16.5909018637        6.6291896980       41.7321584343  LPSA5     8               5.0000000000
      4903       152  AGLC      H4            -16.3560639073        7.6781099693       42.0342707587  LPSA5     8               5.0000000000
      4904       152  AGLC      O4            -17.7789055312        6.2350683890       42.4061214189  LPSA5     8               5.0000000000
      4905       152  AGLC      HO4           -17.8065365655        5.2771562587       42.4262069521  LPSA5     8               5.0000000000
      4906       152  AGLC      C6            -18.0322495232        7.3775319092       39.7472965271  LPSA5     8               5.0000000000
      4907       152  AGLC      H61           -18.0567143369        7.4904584193       38.6355098378  LPSA5     8               5.0000000000
      4908       152  AGLC      H62           -18.9560706079        6.8173764646       40.0256052222  LPSA5     8               5.0000000000
      4909       152  AGLC      O6            -18.1590091264        8.6587667165       40.3664759950  LPSA5     8               5.0000000000
      4910       152  AGLC      HO6           -18.6096879192        8.5505368472       41.2040582792  LPSA5     8               5.0000000000
      4911       153  AGAL      C1            -11.7800254356        5.9905119704       41.4371639051  LPSA5     9               6.0000000000
      4912       153  AGAL      H1            -11.8042803175        6.0112171341       40.3319237236  LPSA5     9               6.0000000000
      4913       153  AGAL      C5            -11.1345376352        7.3372987742       43.2851877774  LPSA5     9               6.0000000000
      4914       153  AGAL      H5            -12.0630448398        6.9377456223       43.7504948365  LPSA5     9               6.0000000000
      4915       153  AGAL      O5            -11.3490312598        7.2973157608       41.8630663800  LPSA5     9               6.0000000000
      4916       153  AGAL      C2            -10.7757556514        4.9167538748       41.8436215331  LPSA5     9               6.0000000000
      4917       153  AGAL      H2             -9.8122216372        5.2105754824       41.3673089300  LPSA5     9               6.0000000000
      4918       153  AGAL      O2            -11.2016744499        3.6779715708       41.2176233311  LPSA5     9               6.0000000000
      4919       153  AGAL      C3            -10.5441007525        4.9373807811       43.3424010350  LPSA5     9               6.0000000000
      4920       153  AGAL      H3            -11.4930485656        4.7208653313       43.8871991715  LPSA5     9               6.0000000000
      4921       153  AGAL      O3             -9.6414701828        3.9209352984       43.7465110620  LPSA5     9               6.0000000000
      4922       153  AGAL      HO3            -9.8561410304        3.1699391463       43.1860522996  LPSA5     9               6.0000000000
      4923       153  AGAL      C4            -10.0486936890        6.3439611274       43.6917567922  LPSA5     9               6.0000000000
      4924       153  AGAL      H4             -9.8858244545        6.4144956659       44.7800217785  LPSA5     9               6.0000000000
      4925       153  AGAL      O4             -8.8017267509        6.6698078042       43.0918869493  LPSA5     9               6.0000000000
      4926       153  AGAL      HO4            -8.3199775802        7.2859488571       43.6563513374  LPSA5     9               6.0000000000
      4927       153  AGAL      C6            -10.9928743096        8.7555135104       43.8404216598  LPSA5     9               6.0000000000
      4928       153  AGAL      H61           -11.9076341608        9.3409577714       43.6063296673  LPSA5     9               6.0000000000
      4929       153  AGAL      H62           -10.9247218863        8.7185683573       44.9497704168  LPSA5     9               6.0000000000
      4930       153  AGAL      O6             -9.8584205972        9.4784878435       43.3613657102  LPSA5     9               6.0000000000
      4931       153  AGAL      HO6           -10.1344434086       10.0661306459       42.6530055850  LPSA5     9               6.0000000000
      4932       154  AGAL      C1            -11.1204714861        2.3701128650       41.7639057062  LPSA5     10              7.0000000000
      4933       154  AGAL      H1            -10.0473983344        2.0799061880       41.8375479044  LPSA5     10              7.0000000000
      4934       154  AGAL      C5            -13.1687192660        2.4205727488       43.0524934094  LPSA5     10              7.0000000000
      4935       154  AGAL      H5            -13.2873254774        3.4512813459       42.6498438386  LPSA5     10              7.0000000000
      4936       154  AGAL      O5            -11.7402588452        2.1917192217       43.0646533138  LPSA5     10              7.0000000000
      4937       154  AGAL      C2            -11.7883772775        1.4307848831       40.7622906499  LPSA5     10              7.0000000000
      4938       154  AGAL      H2            -11.6414693222        0.3939413997       41.1308989598  LPSA5     10              7.0000000000
      4939       154  AGAL      O2            -11.1340732014        1.4240775523       39.4946297343  LPSA5     10              7.0000000000
      4940       154  AGAL      HO2           -11.0465336866        0.4875886547       39.2683249160  LPSA5     10              7.0000000000
      4941       154  AGAL      C3            -13.2907330177        1.7247386345       40.6989382322  LPSA5     10              7.0000000000
      4942       154  AGAL      H3            -13.4080205084        2.8044033144       40.4423361329  LPSA5     10              7.0000000000
      4943       154  AGAL      O3            -14.0070041560        0.9684949446       39.7173862816  LPSA5     10              7.0000000000
      4944       154  AGAL      HO3           -14.2752459215        1.5495707082       39.0018141879  LPSA5     10              7.0000000000
      4945       154  AGAL      C4            -13.8750162422        1.4979229892       42.0724641950  LPSA5     10              7.0000000000
      4946       154  AGAL      H4            -14.9597650309        1.7594233194       42.0786996144  LPSA5     10              7.0000000000
      4947       154  AGAL      O4            -13.7515940392        0.1293453248       42.4378843369  LPSA5     10              7.0000000000
      4948       154  AGAL      HO4           -12.8247372487       -0.0272940470       42.6442866127  LPSA5     10              7.0000000000
      4949       154  AGAL      C6            -13.8494886951        2.4934210349       44.4304902805  LPSA5     10              7.0000000000
      4950       154  AGAL      H61           -13.2527210628        3.1398551565       45.1019395204  LPSA5     10              7.0000000000
      4951       154  AGAL      H62           -14.8443904572        2.9750586964       44.2765835597  LPSA5     10              7.0000000000
      4952       154  AGAL      O6            -14.0816164495        1.2640476904       45.1244693730  LPSA5     10              7.0000000000
      4953       154  AGAL      HO6           -13.5250279661        1.2409762968       45.9210746672  LPSA5     10              7.0000000000
      4954       155  BGLC      C1            -15.4924342847        6.6263804016       44.4959962839  LPSA5     11              6.0000000000
      4955       155  BGLC      H1            -16.5957935312        6.6447599359       44.6180526280  LPSA5     11              6.0000000000
      4956       155  BGLC      C5            -15.1988544308        8.9051493347       45.2048687241  LPSA5     11              6.0000000000
      4957       155  BGLC      H5            -16.2924362786        9.0419751585       45.4782687085  LPSA5     11              6.0000000000
      4958       155  BGLC      O5            -14.9625052029        7.9019637049       44.1783944197  LPSA5     11              6.0000000000
      4959       155  BGLC      C2            -14.8344753047        6.2330749326       45.8032472055  LPSA5     11              6.0000000000
      4960       155  BGLC      H2            -13.7286438007        6.1831124651       45.6458229606  LPSA5     11              6.0000000000
      4961       155  BGLC      O2            -15.2722485827        4.9396424510       46.1849656345  LPSA5     11              6.0000000000
      4962       155  BGLC      HO2           -14.4945864372        4.3993472369       46.3083039395  LPSA5     11              6.0000000000
      4963       155  BGLC      C3            -15.0548446760        7.2289691776       46.9233193495  LPSA5     11              6.0000000000
      4964       155  BGLC      H3            -16.1378107364        7.2815384081       47.1816672556  LPSA5     11              6.0000000000
      4965       155  BGLC      O3            -14.2474545970        6.8650955564       48.0555403367  LPSA5     11              6.0000000000
      4966       155  BGLC      C4            -14.5158948996        8.5511088341       46.4707936049  LPSA5     11              6.0000000000
      4967       155  BGLC      H4            -13.4396979121        8.4852270402       46.2112606128  LPSA5     11              6.0000000000
      4968       155  BGLC      O4            -14.6418076088        9.5646736038       47.4614306613  LPSA5     11              6.0000000000
      4969       155  BGLC      HO4           -14.0017885032        9.3748555982       48.1618499238  LPSA5     11              6.0000000000
      4970       155  BGLC      C6            -14.7319327537       10.1281384551       44.5686365454  LPSA5     11              6.0000000000
      4971       155  BGLC      H61           -14.7638507523       10.9886283265       45.2751150706  LPSA5     11              6.0000000000
      4972       155  BGLC      H62           -13.8230242639       10.1884539722       43.9507213651  LPSA5     11              6.0000000000
      4973       155  BGLC      O6            -15.7608254426       10.2562199040       43.6680629762  LPSA5     11              6.0000000000
      4974       155  BGLC      HO6           -16.0318717650       11.0628622151       44.1080260896  LPSA5     11              6.0000000000
      4975       156  BGLCNA    C1            -14.8561441555        6.7291109033       49.3212939955  LPSA5     12              7.0000000000
      4976       156  BGLCNA    H1            -15.3051425608        5.7313931514       49.3858861652  LPSA5     12              7.0000000000
      4977       156  BGLCNA    C5            -16.4702441799        7.4943888853       50.8768056237  LPSA5     12              7.0000000000
      4978       156  BGLCNA    H5            -16.9269951003        6.4771463321       50.9509023633  LPSA5     12              7.0000000000
      4979       156  BGLCNA    O5            -15.8583997536        7.7002382175       49.5933747968  LPSA5     12              7.0000000000
      4980       156  BGLCNA    C2            -13.7579790648        6.8717690736       50.3578204209  LPSA5     12              7.0000000000
      4981       156  BGLCNA    H2            -13.4310701229        7.9461121441       50.3018167398  LPSA5     12              7.0000000000
      4982       156  BGLCNA    N             -12.6964389938        5.9507923325       50.0532870882  LPSA5     12              7.0000000000
      4983       156  BGLCNA    HN            -12.9658058097        5.0077949223       49.9532230558  LPSA5     12              7.0000000000
      4984       156  BGLCNA    C             -11.4396353349        6.3412021817       49.9161301423  LPSA5     12              7.0000000000
      4985       156  BGLCNA    O             -11.1071495031        7.4969745564       50.0932162834  LPSA5     12              7.0000000000
      4986       156  BGLCNA    CT            -10.4091465970        5.3067316284       49.5573900188  LPSA5     12              7.0000000000
      4987       156  BGLCNA    HT1            -9.7282002647        5.1357165203       50.4099157343  LPSA5     12              7.0000000000
      4988       156  BGLCNA    HT2            -9.7868726894        5.6742846124       48.7216538539  LPSA5     12              7.0000000000
      4989       156  BGLCNA    HT3           -10.9121951126        4.3737205276       49.2415528281  LPSA5     12              7.0000000000
      4990       156  BGLCNA    C3            -14.2733503797        6.6417973219       51.7680141033  LPSA5     12              7.0000000000
      4991       156  BGLCNA    H3            -14.6797690093        5.6043738552       51.8003214693  LPSA5     12              7.0000000000
      4992       156  BGLCNA    O3            -13.2161385247        6.7242220685       52.7746739156  LPSA5     12              7.0000000000
      4993       156  BGLCNA    C4            -15.3933579055        7.6600643510       51.9624330621  LPSA5     12              7.0000000000
      4994       156  BGLCNA    H4            -14.9830353679        8.6932686906       51.8800745794  LPSA5     12              7.0000000000
      4995       156  BGLCNA    O4            -15.9715554314        7.5684711768       53.2523252618  LPSA5     12              7.0000000000
      4996       156  BGLCNA    HO4           -16.4467674921        6.7301167551       53.2850045422  LPSA5     12              7.0000000000
      4997       156  BGLCNA    C6            -17.5910384679        8.5010753035       50.9348086675  LPSA5     12              7.0000000000
      4998       156  BGLCNA    H61           -18.1361058541        8.4253907547       51.9012381323  LPSA5     12              7.0000000000
      4999       156  BGLCNA    H62           -17.1567346533        9.5171305277       50.8079933045  LPSA5     12              7.0000000000
      5000       156  BGLCNA    O6            -18.5403523099        8.3422715442       49.8909542825  LPSA5     12              7.0000000000
      5001       156  BGLCNA    HO6           -19.2374633885        7.7331664100       50.1616497932  LPSA5     12              7.0000000000
      5002       157  AGAL      C1            -13.3082058296        5.7835483563       53.8457999326  LPSA5     13              8.0000000000
      5003       157  AGAL      H1            -14.3721498796        5.6782910470       54.1559195916  LPSA5     13              8.0000000000
      5004       157  AGAL      C5            -11.2976889869        4.5904380235       53.2722470151  LPSA5     13              8.0000000000
      5005       157  AGAL      H5            -11.1635211634        5.4243146457       52.5424746954  LPSA5     13              8.0000000000
      5006       157  AGAL      O5            -12.7303181719        4.5082879724       53.4870317095  LPSA5     13              8.0000000000
      5007       157  AGAL      C2            -12.5529318806        6.2067027689       55.1075129708  LPSA5     13              8.0000000000
      5008       157  AGAL      H2            -12.6338051726        5.3350394907       55.8012294442  LPSA5     13              8.0000000000
      5009       157  AGAL      O2            -13.1964683121        7.3129197723       55.7528103826  LPSA5     13              8.0000000000
      5010       157  AGAL      C3            -11.0574957975        6.3554686212       54.8854291870  LPSA5     13              8.0000000000
      5011       157  AGAL      H3            -10.8924483491        7.0367313608       54.0194545216  LPSA5     13              8.0000000000
      5012       157  AGAL      O3            -10.3683156282        6.9122935776       55.9901882624  LPSA5     13              8.0000000000
      5013       157  AGAL      HO3            -9.6964846243        7.5410689867       55.6990379677  LPSA5     13              8.0000000000
      5014       157  AGAL      C4            -10.5159629580        5.0059601704       54.5116621447  LPSA5     13              8.0000000000
      5015       157  AGAL      H4             -9.4449684786        5.1017268489       54.2255137422  LPSA5     13              8.0000000000
      5016       157  AGAL      O4            -10.5438744896        4.0720161037       55.5926162422  LPSA5     13              8.0000000000
      5017       157  AGAL      HO4           -11.4177923787        4.0274936082       56.0082719112  LPSA5     13              8.0000000000
      5018       157  AGAL      C6            -10.6618220365        3.4303696421       52.5378281593  LPSA5     13              8.0000000000
      5019       157  AGAL      H61           -11.2258786848        3.2384497750       51.5980393171  LPSA5     13              8.0000000000
      5020       157  AGAL      H62            -9.6082966582        3.6947513733       52.3062919709  LPSA5     13              8.0000000000
      5021       157  AGAL      O6            -10.6024841575        2.2256238649       53.2687676670  LPSA5     13              8.0000000000
      5022       157  AGAL      HO6            -9.9754575425        2.2770646519       54.0010799422  LPSA5     13              8.0000000000
      5023       158  ARHM      C1            -13.7883329696        7.0373426345       57.0051513731  LPSA5     14              9.0000000000
      5024       158  ARHM      H1            -14.1412347311        5.9875665240       57.0391740380  LPSA5     14              9.0000000000
      5025       158  ARHM      C5            -14.6107020262        9.1840604517       57.2027545521  LPSA5     14              9.0000000000
      5026       158  ARHM      H5            -14.1622567508        9.4788558321       56.2185309499  LPSA5     14              9.0000000000
      5027       158  ARHM      O5            -14.9423264403        7.8156678903       57.1942330562  LPSA5     14              9.0000000000
      5028       158  ARHM      C2            -12.7889991719        7.3356875877       58.1103848074  LPSA5     14              9.0000000000
      5029       158  ARHM      H2            -11.8894539643        6.7122978514       57.9351011134  LPSA5     14              9.0000000000
      5030       158  ARHM      O2            -13.2548422546        7.1475129689       59.4591976224  LPSA5     14              9.0000000000
      5031       158  ARHM      C3            -12.4159739901        8.7879487319       58.0716570965  LPSA5     14              9.0000000000
      5032       158  ARHM      H3            -12.1060832485        9.0556769503       57.0309300237  LPSA5     14              9.0000000000
      5033       158  ARHM      O3            -11.3134894878        9.1144088017       58.9219926537  LPSA5     14              9.0000000000
      5034       158  ARHM      HO3           -11.6186808743        9.0523143182       59.8262506154  LPSA5     14              9.0000000000
      5035       158  ARHM      C4            -13.6617562683        9.5783685386       58.3453609649  LPSA5     14              9.0000000000
      5036       158  ARHM      H4            -14.1822057869        9.3065419146       59.2903548043  LPSA5     14              9.0000000000
      5037       158  ARHM      O4            -13.2983191022       10.9511798145       58.4318823602  LPSA5     14              9.0000000000
      5038       158  ARHM      HO4           -13.5012539743       11.3734919538       59.2815927623  LPSA5     14              9.0000000000
      5039       158  ARHM      C6            -16.0046953602        9.7005602194       57.3133252748  LPSA5     14              9.0000000000
      5040       158  ARHM      H61           -16.7888414004        9.4298500303       56.5920529355  LPSA5     14              9.0000000000
      5041       158  ARHM      H62           -16.3223574802       10.0322905108       58.3249052152  LPSA5     14              9.0000000000
      5042       158  ARHM      H63           -15.8309799537       10.5299112222       56.6857231778  LPSA5     14              9.0000000000
      5043       159  ARHM      C1            -13.8208958753        5.8977644186       59.7440565978  LPSA5     15             10.0000000000
      5044       159  ARHM      H1            -13.4273879892        5.1253096128       59.0422483555  LPSA5     15             10.0000000000
      5045       159  ARHM      C5            -15.9249814723        6.7355108619       60.6330721565  LPSA5     15             10.0000000000
      5046       159  ARHM      H5            -15.7023975714        7.8126626145       60.4493850804  LPSA5     15             10.0000000000
      5047       159  ARHM      O5            -15.2675474571        5.8971513089       59.6599021593  LPSA5     15             10.0000000000
      5048       159  ARHM      C2            -13.3862600249        5.4857331099       61.1373711085  LPSA5     15             10.0000000000
      5049       159  ARHM      H2            -12.2762713244        5.5696316710       61.2086164003  LPSA5     15             10.0000000000
      5050       159  ARHM      O2            -13.7621950731        4.1057577708       61.2954975069  LPSA5     15             10.0000000000
      5051       159  ARHM      C3            -13.9955584912        6.4326713366       62.1339545610  LPSA5     15             10.0000000000
      5052       159  ARHM      H3            -13.7287194359        7.4751960345       61.8393395175  LPSA5     15             10.0000000000
      5053       159  ARHM      O3            -13.4083108087        6.1737249376       63.4092133791  LPSA5     15             10.0000000000
      5054       159  ARHM      C4            -15.5013491555        6.3079330351       62.0274874779  LPSA5     15             10.0000000000
      5055       159  ARHM      H4            -15.7807955992        5.2345004565       62.1582912738  LPSA5     15             10.0000000000
      5056       159  ARHM      O4            -16.2162234729        7.0566682225       63.0022529401  LPSA5     15             10.0000000000
      5057       159  ARHM      HO4           -17.1268505034        6.7371202399       62.9428092770  LPSA5     15             10.0000000000
      5058       159  ARHM      C6            -17.4508177782        6.5634827969       60.4762154199  LPSA5     15             10.0000000000
      5059       159  ARHM      H61           -18.0326757927        7.3090315226       61.0556402651  LPSA5     15             10.0000000000
      5060       159  ARHM      H62           -17.7078053362        6.6247279449       59.4126897613  LPSA5     15             10.0000000000
      5061       159  ARHM      H63           -17.7865776716        5.5718148499       60.8379782595  LPSA5     15             10.0000000000
      5062       160  BMANNA    C1            -13.4959910805        3.4335421083       62.5058484991  LPSA5     16             11.0000000000
      5063       160  BMANNA    H1            -14.1445081330        3.8577200952       63.3060005846  LPSA5     16             11.0000000000
      5064       160  BMANNA    C5            -11.9098295695        2.8660135186       64.2024504871  LPSA5     16             11.0000000000
      5065       160  BMANNA    H5            -12.6111791371        3.3106279813       64.9549924864  LPSA5     16             11.0000000000
      5066       160  BMANNA    O5            -12.1221648898        3.5057310632       62.9256672725  LPSA5     16             11.0000000000
      5067       160  BMANNA    C2            -13.8675841737        1.9632863503       62.3091561649  LPSA5     16             11.0000000000
      5068       160  BMANNA    H2            -14.9536068735        1.9440288982       62.0306117072  LPSA5     16             11.0000000000
      5069       160  BMANNA    N             -13.1210346755        1.2730118496       61.2579948887  LPSA5     16             11.0000000000
      5070       160  BMANNA    HN            -12.3223269616        0.7737538165       61.5483216847  LPSA5     16             11.0000000000
      5071       160  BMANNA    C             -13.5006313003        1.1645752790       59.9839649713  LPSA5     16             11.0000000000
      5072       160  BMANNA    O             -14.5275422571        1.6721221704       59.5578756106  LPSA5     16             11.0000000000
      5073       160  BMANNA    CT            -12.5673958063        0.4044360468       59.0721422710  LPSA5     16             11.0000000000
      5074       160  BMANNA    HT1           -12.9554509013       -0.6072029077       58.8529989960  LPSA5     16             11.0000000000
      5075       160  BMANNA    HT2           -11.5641582510        0.3123681417       59.5313351809  LPSA5     16             11.0000000000
      5076       160  BMANNA    HT3           -12.4725503588        0.9481119548       58.1111982925  LPSA5     16             11.0000000000
      5077       160  BMANNA    C3            -13.6794268123        1.2613995742       63.6494509169  LPSA5     16             11.0000000000
      5078       160  BMANNA    H3            -14.3326049293        1.7686948481       64.3954270156  LPSA5     16             11.0000000000
      5079       160  BMANNA    O3            -14.1083168487       -0.0885996326       63.5834152675  LPSA5     16             11.0000000000
      5080       160  BMANNA    HO3           -14.7357461920       -0.2769882864       64.2873512959  LPSA5     16             11.0000000000
      5081       160  BMANNA    C4            -12.2318602354        1.3823507054       64.1205236702  LPSA5     16             11.0000000000
      5082       160  BMANNA    H4            -11.5569868647        0.8987199357       63.3759145441  LPSA5     16             11.0000000000
      5083       160  BMANNA    O4            -11.9585307251        0.7540274865       65.3791403270  LPSA5     16             11.0000000000
      5084       160  BMANNA    HO4           -11.0323861581        0.5095704357       65.4311444781  LPSA5     16             11.0000000000
      5085       160  BMANNA    C6            -10.5141429140        3.0841553348       64.7676829297  LPSA5     16             11.0000000000
      5086       160  BMANNA    H61           -10.6019580772        3.0695462027       65.8743563687  LPSA5     16             11.0000000000
      5087       160  BMANNA    H62            -9.8449585624        2.2648078402       64.4324721868  LPSA5     16             11.0000000000
      5088       160  BMANNA    O6             -9.8703452674        4.3035717788       64.4424163274  LPSA5     16             11.0000000000
      5089       160  BMANNA    HO6            -9.1531172417        4.1282201862       63.8163310858  LPSA5     16             11.0000000000
      5090       161  BGLCNA    C1            -13.0926684566        7.3178267352       64.1446074937  LPSA5     17             11.0000000000
      5091       161  BGLCNA    H1            -13.8970938261        8.0632243399       63.9856435902  LPSA5     17             11.0000000000
      5092       161  BGLCNA    C5            -11.4972249774        9.0638667409       64.5599336663  LPSA5     17             11.0000000000
      5093       161  BGLCNA    H5            -12.2510980359        9.8621374321       64.3575543249  LPSA5     17             11.0000000000
      5094       161  BGLCNA    O5            -11.8339545818        7.9018484031       63.7723763741  LPSA5     17             11.0000000000
      5095       161  BGLCNA    C2            -13.0633118095        6.8244556738       65.5802075381  LPSA5     17             11.0000000000
      5096       161  BGLCNA    H2            -12.2164308612        6.1127930064       65.7514398586  LPSA5     17             11.0000000000
      5097       161  BGLCNA    N             -14.2867772626        6.0992116733       65.8814615018  LPSA5     17             11.0000000000
      5098       161  BGLCNA    HN            -15.0839179192        6.3900112338       65.3676267597  LPSA5     17             11.0000000000
      5099       161  BGLCNA    C             -14.4541821814        5.1608848595       66.8160666690  LPSA5     17             11.0000000000
      5100       161  BGLCNA    O             -13.5601370664        4.6760724945       67.4951748775  LPSA5     17             11.0000000000
      5101       161  BGLCNA    CT            -15.8905876646        4.7607838320       67.0255985484  LPSA5     17             11.0000000000
      5102       161  BGLCNA    HT1           -16.1455478459        3.8057815887       66.5211015506  LPSA5     17             11.0000000000
      5103       161  BGLCNA    HT2           -16.5499402568        5.5754065580       66.6666551572  LPSA5     17             11.0000000000
      5104       161  BGLCNA    HT3           -16.0972480666        4.6604367784       68.1078018800  LPSA5     17             11.0000000000
      5105       161  BGLCNA    C3            -12.8410486815        8.0547866134       66.4374000814  LPSA5     17             11.0000000000
      5106       161  BGLCNA    H3            -13.6240061355        8.7795351598       66.1080328745  LPSA5     17             11.0000000000
      5107       161  BGLCNA    O3            -13.0601027381        7.7305493272       67.8411349868  LPSA5     17             11.0000000000
      5108       161  BGLCNA    C4            -11.4878579478        8.6479588786       66.0425457048  LPSA5     17             11.0000000000
      5109       161  BGLCNA    H4            -10.6984403589        7.8590519984       66.1407681399  LPSA5     17             11.0000000000
      5110       161  BGLCNA    O4            -11.1642578392        9.7503136399       66.8854194408  LPSA5     17             11.0000000000
      5111       161  BGLCNA    HO4           -10.2828615875       10.0679293888       66.7076701002  LPSA5     17             11.0000000000
      5112       161  BGLCNA    C6            -10.1381792843        9.6225622416       64.1217334983  LPSA5     17             11.0000000000
      5113       161  BGLCNA    H61           -10.1330148888       10.7305280782       64.1800197028  LPSA5     17             11.0000000000
      5114       161  BGLCNA    H62            -9.3398241034        9.2337398774       64.7887597734  LPSA5     17             11.0000000000
      5115       161  BGLCNA    O6             -9.7510984055        9.2860726188       62.7973330396  LPSA5     17             11.0000000000
      5116       161  BGLCNA    HO6           -10.4491681056        9.5174332082       62.1846407773  LPSA5     17             11.0000000000
      5117       162  AGAL      C1            -13.6594569321        8.7353727803       68.6436692328  LPSA5     18             12.0000000000
      5118       162  AGAL      H1            -12.9190346757        9.5560333055       68.8055755080  LPSA5     18             12.0000000000
      5119       162  AGAL      C5            -15.9220056971        8.4345687303       67.8687628224  LPSA5     18             12.0000000000
      5120       162  AGAL      H5            -15.5280411729        7.5213857847       67.4042419208  LPSA5     18             12.0000000000
      5121       162  AGAL      O5            -14.8090734454        9.2929020890       68.0339822119  LPSA5     18             12.0000000000
      5122       162  AGAL      C2            -14.1738999236        8.2704560590       69.9805018919  LPSA5     18             12.0000000000
      5123       162  AGAL      H2            -14.6316639644        9.2041876790       70.3984332231  LPSA5     18             12.0000000000
      5124       162  AGAL      O2            -13.1226020096        7.9076805219       70.8745924947  LPSA5     18             12.0000000000
      5125       162  AGAL      C3            -15.3261660420        7.2697048039       69.8499134965  LPSA5     18             12.0000000000
      5126       162  AGAL      H3            -14.9878097923        6.4549418928       69.1709228466  LPSA5     18             12.0000000000
      5127       162  AGAL      O3            -15.7023667145        6.6592481852       71.0797603625  LPSA5     18             12.0000000000
      5128       162  AGAL      HO3           -15.7804030013        5.7013077299       70.9939822491  LPSA5     18             12.0000000000
      5129       162  AGAL      C4            -16.4946306563        7.9572643479       69.1757151344  LPSA5     18             12.0000000000
      5130       162  AGAL      H4            -17.3198857865        7.2496054111       68.9425945702  LPSA5     18             12.0000000000
      5131       162  AGAL      O4            -17.0380691255        9.0105601886       69.9612831809  LPSA5     18             12.0000000000
      5132       162  AGAL      HO4           -17.5125478558        8.6307484282       70.7055089414  LPSA5     18             12.0000000000
      5133       162  AGAL      C6            -16.8170063253        8.9505947777       66.7765562654  LPSA5     18             12.0000000000
      5134       162  AGAL      H61           -16.2083264363        8.9833816278       65.8441243488  LPSA5     18             12.0000000000
      5135       162  AGAL      H62           -17.6546340826        8.2395734772       66.6231682756  LPSA5     18             12.0000000000
      5136       162  AGAL      O6            -17.3243369342       10.2559596260       66.9850297027  LPSA5     18             12.0000000000
      5137       162  AGAL      HO6           -16.8572482953       10.6996467047       67.6994440647  LPSA5     18             12.0000000000
      5138       163  ARHM      C1            -13.4050847741        8.3908388857       72.1647616048  LPSA5     19             13.0000000000
      5139       163  ARHM      H1            -14.4993960309        8.4659054466       72.3492278996  LPSA5     19             13.0000000000
      5140       163  ARHM      C5            -11.4873887890        9.8036399247       72.2481886408  LPSA5     19             13.0000000000
      5141       163  ARHM      H5            -11.2638629081        9.4511106116       71.2144155912  LPSA5     19             13.0000000000
      5142       163  ARHM      O5            -12.9012443675        9.7077093486       72.4119316330  LPSA5     19             13.0000000000
      5143       163  ARHM      C2            -12.7521106275        7.4363283366       73.1160430232  LPSA5     19             13.0000000000
      5144       163  ARHM      H2            -13.0535486859        6.3858350665       72.8752084220  LPSA5     19             13.0000000000
      5145       163  ARHM      O2            -13.1723407581        7.7209356057       74.4500743385  LPSA5     19             13.0000000000
      5146       163  ARHM      C3            -11.2514272362        7.5055716910       72.9626419146  LPSA5     19             13.0000000000
      5147       163  ARHM      H3            -10.9909021280        7.2752174073       71.9035199562  LPSA5     19             13.0000000000
      5148       163  ARHM      O3            -10.5943914061        6.5429215762       73.7689258052  LPSA5     19             13.0000000000
      5149       163  ARHM      HO3           -11.0033702863        6.6184700959       74.6454683886  LPSA5     19             13.0000000000
      5150       163  ARHM      C4            -10.7824343011        8.9086393144       73.2448756246  LPSA5     19             13.0000000000
      5151       163  ARHM      H4            -11.0696285390        9.1797388663       74.2893408721  LPSA5     19             13.0000000000
      5152       163  ARHM      O4             -9.3712162055        9.0511634687       73.1365949364  LPSA5     19             13.0000000000
      5153       163  ARHM      HO4            -9.1194039103        8.8791657071       72.2335043758  LPSA5     19             13.0000000000
      5154       163  ARHM      C6            -11.0586365236       11.2750665143       72.2821279712  LPSA5     19             13.0000000000
      5155       163  ARHM      H61           -11.6241695109       11.7896522080       71.4832699228  LPSA5     19             13.0000000000
      5156       163  ARHM      H62           -11.2608237358       11.7758387873       73.2490166014  LPSA5     19             13.0000000000
      5157       163  ARHM      H63            -9.9695236655       11.3723873200       72.0738126178  LPSA5     19             13.0000000000
      5158       164  ARHM      C1            -14.4772755729        7.2655043322       74.6909009941  LPSA5     20             14.0000000000
      5159       164  ARHM      H1            -14.8859381434        6.6702578773       73.8517539877  LPSA5     20             14.0000000000
      5160       164  ARHM      C5            -15.0884441537        9.0292511826       75.9790362813  LPSA5     20             14.0000000000
      5161       164  ARHM      H5            -14.1126074409        9.5752978284       75.8202605092  LPSA5     20             14.0000000000
      5162       164  ARHM      O5            -15.4157925389        8.2875940062       74.8408119530  LPSA5     20             14.0000000000
      5163       164  ARHM      C2            -14.4646744616        6.4568753203       75.9510312750  LPSA5     20             14.0000000000
      5164       164  ARHM      H2            -13.6634047063        5.6899953525       75.8500917331  LPSA5     20             14.0000000000
      5165       164  ARHM      O2            -15.7486050574        5.8642131111       76.1648483792  LPSA5     20             14.0000000000
      5166       164  ARHM      C3            -14.1130693427        7.2840816988       77.1391157905  LPSA5     20             14.0000000000
      5167       164  ARHM      H3            -13.1203809361        7.7714348350       76.9666114549  LPSA5     20             14.0000000000
      5168       164  ARHM      O3            -14.0883316484        6.4529826558       78.2870757769  LPSA5     20             14.0000000000
      5169       164  ARHM      C4            -15.1289315153        8.3238493334       77.2904975592  LPSA5     20             14.0000000000
      5170       164  ARHM      H4            -16.1897462306        7.9781603675       77.3708105200  LPSA5     20             14.0000000000
      5171       164  ARHM      O4            -14.8462301114        9.1907560971       78.3926974147  LPSA5     20             14.0000000000
      5172       164  ARHM      HO4           -15.2363543967       10.0358196991       78.1489593787  LPSA5     20             14.0000000000
      5173       164  ARHM      C6            -16.2198401158        9.9297463235       75.9603480621  LPSA5     20             14.0000000000
      5174       164  ARHM      H61           -17.2920091597        9.9061159298       76.1278636488  LPSA5     20             14.0000000000
      5175       164  ARHM      H62           -15.8678821087       10.4771625943       76.8661869613  LPSA5     20             14.0000000000
      5176       164  ARHM      H63           -16.0895270098       10.3982067899       74.9581246136  LPSA5     20             14.0000000000
      5177       165  BMANNA    C1            -15.8389181907        4.6965428566       75.4166351789  LPSA5     21             15.0000000000
      5178       165  BMANNA    H1            -14.9638768893        4.6232112177       74.7255806322  LPSA5     21             15.0000000000
      5179       165  BMANNA    C5            -16.8931107438        3.5422594335       73.6519500827  LPSA5     21             15.0000000000
      5180       165  BMANNA    H5            -15.9224376038        3.5306328424       73.0891886904  LPSA5     21             15.0000000000
      5181       165  BMANNA    O5            -16.9500034890        4.6985453330       74.5199457746  LPSA5     21             15.0000000000
      5182       165  BMANNA    C2            -15.8622328008        3.4981785310       76.3577815817  LPSA5     21             15.0000000000
      5183       165  BMANNA    H2            -14.9007763516        3.5711088727       76.9336805357  LPSA5     21             15.0000000000
      5184       165  BMANNA    N             -16.9894001583        3.4702425358       77.3033901325  LPSA5     21             15.0000000000
      5185       165  BMANNA    HN            -17.8461973993        3.7577316870       76.8970417813  LPSA5     21             15.0000000000
      5186       165  BMANNA    C             -16.9308811732        3.0677978742       78.6030448061  LPSA5     21             15.0000000000
      5187       165  BMANNA    O             -15.9751535744        2.4585665424       79.0589775190  LPSA5     21             15.0000000000
      5188       165  BMANNA    CT            -18.1200581804        3.3596444936       79.4881009011  LPSA5     21             15.0000000000
      5189       165  BMANNA    HT1           -18.9247588826        2.6199365627       79.2906844448  LPSA5     21             15.0000000000
      5190       165  BMANNA    HT2           -18.4833714765        4.3933730370       79.3218400673  LPSA5     21             15.0000000000
      5191       165  BMANNA    HT3           -17.8305758418        3.2689464777       80.5598221935  LPSA5     21             15.0000000000
      5192       165  BMANNA    C3            -15.8017606126        2.2843151892       75.4692883224  LPSA5     21             15.0000000000
      5193       165  BMANNA    H3            -14.8315441076        2.3650879978       74.9239169189  LPSA5     21             15.0000000000
      5194       165  BMANNA    O3            -15.7669785884        1.0742189967       76.2047774887  LPSA5     21             15.0000000000
      5195       165  BMANNA    HO3           -16.5412255238        1.0841469421       76.7762064787  LPSA5     21             15.0000000000
      5196       165  BMANNA    C4            -16.9494827554        2.2801594449       74.4775926349  LPSA5     21             15.0000000000
      5197       165  BMANNA    H4            -17.9328264701        2.2412138610       75.0067200107  LPSA5     21             15.0000000000
      5198       165  BMANNA    O4            -16.8815216927        1.1570456784       73.6143432385  LPSA5     21             15.0000000000
      5199       165  BMANNA    HO4           -17.6807262478        0.6096931180       73.6938246179  LPSA5     21             15.0000000000
      5200       165  BMANNA    C6            -17.9802200019        3.5726316190       72.6040160387  LPSA5     21             15.0000000000
      5201       165  BMANNA    H61           -17.7418595266        2.8350980290       71.8018721912  LPSA5     21             15.0000000000
      5202       165  BMANNA    H62           -18.9315999255        3.2361764273       73.0646181686  LPSA5     21             15.0000000000
      5203       165  BMANNA    O6            -18.1429616728        4.8764182616       72.0395076519  LPSA5     21             15.0000000000
      5204       165  BMANNA    HO6           -18.3611287113        5.4537980941       72.7781672425  LPSA5     21             15.0000000000
      5205       166  BGLCNA    C1            -13.1218710005        6.7814320851       79.2450529315  LPSA5     22             15.0000000000
      5206       166  BGLCNA    H1            -12.8711887377        7.8622909832       79.2449088051  LPSA5     22             15.0000000000
      5207       166  BGLCNA    C5            -10.9779796938        6.2894300931       80.1004298054  LPSA5     22             15.0000000000
      5208       166  BGLCNA    H5            -10.7591439947        7.3859125615       80.1175227652  LPSA5     22             15.0000000000
      5209       166  BGLCNA    O5            -11.9261272253        6.0340613980       79.0548275717  LPSA5     22             15.0000000000
      5210       166  BGLCNA    C2            -13.7681002395        6.4059632993       80.5504842339  LPSA5     22             15.0000000000
      5211       166  BGLCNA    H2            -13.9956326563        5.3065045229       80.5022936905  LPSA5     22             15.0000000000
      5212       166  BGLCNA    N             -14.9966783361        7.1536079912       80.7316298088  LPSA5     22             15.0000000000
      5213       166  BGLCNA    HN            -14.9934032765        8.0857910310       80.3887265502  LPSA5     22             15.0000000000
      5214       166  BGLCNA    C             -16.0796285767        6.6962204670       81.3584782417  LPSA5     22             15.0000000000
      5215       166  BGLCNA    O             -16.1715806371        5.5877147690       81.8686421583  LPSA5     22             15.0000000000
      5216       166  BGLCNA    CT            -17.2179335646        7.6731340858       81.3969504039  LPSA5     22             15.0000000000
      5217       166  BGLCNA    HT1           -17.8784073789        7.4233988048       80.5403989535  LPSA5     22             15.0000000000
      5218       166  BGLCNA    HT2           -16.8411484131        8.7066947019       81.2794233561  LPSA5     22             15.0000000000
      5219       166  BGLCNA    HT3           -17.7700299844        7.6025791870       82.3588276030  LPSA5     22             15.0000000000
      5220       166  BGLCNA    C3            -12.8110836731        6.6694781536       81.6856598650  LPSA5     22             15.0000000000
      5221       166  BGLCNA    H3            -12.5215444227        7.7473256926       81.6549227914  LPSA5     22             15.0000000000
      5222       166  BGLCNA    O3            -13.5349212304        6.4076384997       82.8991703887  LPSA5     22             15.0000000000
      5223       166  BGLCNA    C4            -11.5582400247        5.8690415168       81.4544805288  LPSA5     22             15.0000000000
      5224       166  BGLCNA    H4            -11.8287689063        4.7918069997       81.4209950404  LPSA5     22             15.0000000000
      5225       166  BGLCNA    O4            -10.6176042225        6.0404530537       82.5042594601  LPSA5     22             15.0000000000
      5226       166  BGLCNA    HO4           -10.2198557727        5.1888338688       82.7678285323  LPSA5     22             15.0000000000
      5227       166  BGLCNA    C6             -9.7321805223        5.5248029774       79.7455186093  LPSA5     22             15.0000000000
      5228       166  BGLCNA    H61            -9.1491988540        5.3906694364       80.6617546070  LPSA5     22             15.0000000000
      5229       166  BGLCNA    H62            -9.9670533189        4.4933412387       79.4148674623  LPSA5     22             15.0000000000
      5230       166  BGLCNA    O6             -8.9030205114        6.2043945755       78.7963607602  LPSA5     22             15.0000000000
      5231       166  BGLCNA    HO6            -9.3826886802        6.3077760439       77.9615825012  LPSA5     22             15.0000000000
      5232       167  AGAL      C1            -13.0628994449        6.9668231108       84.0969629150  LPSA5     23             16.0000000000
      5233       167  AGAL      H1            -12.1725611836        6.4004584146       84.4491590745  LPSA5     23             16.0000000000
      5234       167  AGAL      C5            -13.8217883408        9.2116958819       83.7185692921  LPSA5     23             16.0000000000
      5235       167  AGAL      H5            -14.3463969740        8.8339114273       82.8130756960  LPSA5     23             16.0000000000
      5236       167  AGAL      O5            -12.6985826725        8.3565650857       83.9840811555  LPSA5     23             16.0000000000
      5237       167  AGAL      C2            -14.1040525658        6.8171050146       85.1865785102  LPSA5     23             16.0000000000
      5238       167  AGAL      H2            -13.6446155373        7.2411660100       86.1059036747  LPSA5     23             16.0000000000
      5239       167  AGAL      O2            -14.4402542563        5.4313144702       85.4358161421  LPSA5     23             16.0000000000
      5240       167  AGAL      C3            -15.3070025870        7.7019431127       84.8760033619  LPSA5     23             16.0000000000
      5241       167  AGAL      H3            -15.6854286635        7.4530930241       83.8605674215  LPSA5     23             16.0000000000
      5242       167  AGAL      O3            -16.4046255176        7.4945329835       85.7494626021  LPSA5     23             16.0000000000
      5243       167  AGAL      HO3           -16.0851032831        7.3625941875       86.6402263069  LPSA5     23             16.0000000000
      5244       167  AGAL      C4            -14.8488206169        9.1523578392       84.8491219882  LPSA5     23             16.0000000000
      5245       167  AGAL      H4            -15.6909321057        9.8301758321       84.6020063908  LPSA5     23             16.0000000000
      5246       167  AGAL      O4            -14.3116644351        9.5938511592       86.0929415048  LPSA5     23             16.0000000000
      5247       167  AGAL      HO4           -13.6326399640       10.2603383454       85.8690019767  LPSA5     23             16.0000000000
      5248       167  AGAL      C6            -13.2895767328       10.5731847999       83.3258265693  LPSA5     23             16.0000000000
      5249       167  AGAL      H61           -12.4743401258       10.4424382087       82.5762301336  LPSA5     23             16.0000000000
      5250       167  AGAL      H62           -14.0916976347       11.1638395394       82.8241829924  LPSA5     23             16.0000000000
      5251       167  AGAL      O6            -12.7709994376       11.2940406922       84.4435309116  LPSA5     23             16.0000000000
      5252       167  AGAL      HO6           -12.3662964946       12.1436055089       84.1907221529  LPSA5     23             16.0000000000
      5253       168  ARHM      C1            -13.5870886413        4.6686179927       86.2780945932  LPSA5     24             17.0000000000
      5254       168  ARHM      H1            -12.6064797815        5.1913756777       86.3837049042  LPSA5     24             17.0000000000
      5255       168  ARHM      C5            -14.4705558572        2.5268562804       85.6417011131  LPSA5     24             17.0000000000
      5256       168  ARHM      H5            -15.1508978406        3.0716596650       84.9445080256  LPSA5     24             17.0000000000
      5257       168  ARHM      O5            -13.2927284587        3.3340530100       85.7952484991  LPSA5     24             17.0000000000
      5258       168  ARHM      C2            -14.3108630442        4.5879096657       87.6002917399  LPSA5     24             17.0000000000
      5259       168  ARHM      H2            -14.6079622564        5.6152887726       87.9263630615  LPSA5     24             17.0000000000
      5260       168  ARHM      O2            -13.5111716175        3.9518721096       88.6078661904  LPSA5     24             17.0000000000
      5261       168  ARHM      C3            -15.5738613030        3.7817921185       87.4253777728  LPSA5     24             17.0000000000
      5262       168  ARHM      H3            -16.1818149172        4.2754142645       86.6290459448  LPSA5     24             17.0000000000
      5263       168  ARHM      O3            -16.3619957474        3.8127605334       88.6119419787  LPSA5     24             17.0000000000
      5264       168  ARHM      HO3           -16.1283764836        3.0621603379       89.1581033397  LPSA5     24             17.0000000000
      5265       168  ARHM      C4            -15.1992132955        2.3791347107       86.9615859677  LPSA5     24             17.0000000000
      5266       168  ARHM      H4            -14.4904190266        1.9213759183       87.6987100957  LPSA5     24             17.0000000000
      5267       168  ARHM      O4            -16.3230037849        1.5124965778       86.7993989190  LPSA5     24             17.0000000000
      5268       168  ARHM      HO4           -16.1028431575        0.6111005155       87.0517389053  LPSA5     24             17.0000000000
      5269       168  ARHM      C6            -14.1223722581        1.1647055598       84.9915593774  LPSA5     24             17.0000000000
      5270       168  ARHM      H61           -15.0019612373        0.7954895269       84.4162675798  LPSA5     24             17.0000000000
      5271       168  ARHM      H62           -13.2714695282        1.2735783819       84.3201391870  LPSA5     24             17.0000000000
      5272       168  ARHM      H63           -13.7745588327        0.4085379659       85.7189504339  LPSA5     24             17.0000000000
      5273       169  ARHM      C1            -12.5062369660        4.7676263282       89.1502320566  LPSA5     25             18.0000000000
      5274       169  ARHM      H1            -12.3278141128        5.6305285610       88.4688139420  LPSA5     25             18.0000000000
      5275       169  ARHM      C5            -11.2222456623        3.0789423165       90.2382777795  LPSA5     25             18.0000000000
      5276       169  ARHM      H5            -12.0210230912        2.3999637511       89.9359662005  LPSA5     25             18.0000000000
      5277       169  ARHM      O5            -11.2202962229        4.1421674166       89.2800384394  LPSA5     25             18.0000000000
      5278       169  ARHM      C2            -12.9808969629        5.2940584866       90.4655559609  LPSA5     25             18.0000000000
      5279       169  ARHM      H2            -14.0293142112        5.6719667007       90.3658627525  LPSA5     25             18.0000000000
      5280       169  ARHM      O2            -12.1297794336        6.3555102723       90.8993035383  LPSA5     25             18.0000000000
      5281       169  ARHM      C3            -13.0100682689        4.1653423564       91.4625652454  LPSA5     25             18.0000000000
      5282       169  ARHM      H3            -13.7062918348        3.3737498216       91.0848505522  LPSA5     25             18.0000000000
      5283       169  ARHM      O3            -13.4578197888        4.6899188277       92.7086887307  LPSA5     25             18.0000000000
      5284       169  ARHM      C4            -11.6469099600        3.5519884471       91.6092011698  LPSA5     25             18.0000000000
      5285       169  ARHM      H4            -10.8901513090        4.3100574596       91.9229288532  LPSA5     25             18.0000000000
      5286       169  ARHM      O4            -11.6903128953        2.4761509155       92.5632534289  LPSA5     25             18.0000000000
      5287       169  ARHM      HO4           -10.8521713063        2.5121240424       93.0428473645  LPSA5     25             18.0000000000
      5288       169  ARHM      C6             -9.8668196290        2.3396201093       90.2354336102  LPSA5     25             18.0000000000
      5289       169  ARHM      H61            -9.5746833410        2.0818563423       89.1972272491  LPSA5     25             18.0000000000
      5290       169  ARHM      H62            -9.0768106274        2.9815293221       90.6694740943  LPSA5     25             18.0000000000
      5291       169  ARHM      H63            -9.9341228673        1.3943944868       90.8095834011  LPSA5     25             18.0000000000
      5292       170  BMANNA    C1            -12.3747123857        7.5927255706       90.2782111955  LPSA5     26             19.0000000000
      5293       170  BMANNA    H1            -13.4014630483        7.6333098248       89.8535890831  LPSA5     26             19.0000000000
      5294       170  BMANNA    C5            -11.7748787555        9.1706558456       88.5922239245  LPSA5     26             19.0000000000
      5295       170  BMANNA    H5            -12.8072583198        9.0980602502       88.1802936431  LPSA5     26             19.0000000000
      5296       170  BMANNA    O5            -11.4536708431        7.9158581535       89.2238631257  LPSA5     26             19.0000000000
      5297       170  BMANNA    C2            -12.2653552689        8.6300547153       91.3499711966  LPSA5     26             19.0000000000
      5298       170  BMANNA    H2            -13.0286325713        8.3516792509       92.1255064311  LPSA5     26             19.0000000000
      5299       170  BMANNA    N             -10.9245868059        8.6448613761       91.9232305330  LPSA5     26             19.0000000000
      5300       170  BMANNA    HN            -10.1682415759        8.7450656525       91.2906816750  LPSA5     26             19.0000000000
      5301       170  BMANNA    C             -10.6751383719        8.5662500220       93.2340621415  LPSA5     26             19.0000000000
      5302       170  BMANNA    O             -11.5477912531        8.2716527447       94.0346686818  LPSA5     26             19.0000000000
      5303       170  BMANNA    CT             -9.2568603710        8.8584967661       93.6661922404  LPSA5     26             19.0000000000
      5304       170  BMANNA    HT1            -8.5574211881        8.5874024290       92.8717595813  LPSA5     26             19.0000000000
      5305       170  BMANNA    HT2            -8.9499099421        8.3424270343       94.5986169165  LPSA5     26             19.0000000000
      5306       170  BMANNA    HT3            -9.1687880025        9.9419221758       93.8662025174  LPSA5     26             19.0000000000
      5307       170  BMANNA    C3            -12.6819816998        9.9538511178       90.7467259416  LPSA5     26             19.0000000000
      5308       170  BMANNA    H3            -13.7138691280        9.8557828457       90.3314619114  LPSA5     26             19.0000000000
      5309       170  BMANNA    O3            -12.7801223720       10.9671136569       91.7290260818  LPSA5     26             19.0000000000
      5310       170  BMANNA    HO3           -13.5469702562       10.7720042307       92.2805799724  LPSA5     26             19.0000000000
      5311       170  BMANNA    C4            -11.7298409963       10.2966232206       89.6177348772  LPSA5     26             19.0000000000
      5312       170  BMANNA    H4            -10.6887101770       10.3866933632       89.9860545669  LPSA5     26             19.0000000000
      5313       170  BMANNA    O4            -12.0632663344       11.5387536601       89.0221443857  LPSA5     26             19.0000000000
      5314       170  BMANNA    HO4           -11.7516220562       12.2509410942       89.5944657017  LPSA5     26             19.0000000000
      5315       170  BMANNA    C6            -10.8393879344        9.3261179559       87.4004770206  LPSA5     26             19.0000000000
      5316       170  BMANNA    H61           -10.6989636679        8.3323421222       86.9169126343  LPSA5     26             19.0000000000
      5317       170  BMANNA    H62           -11.2892324012       10.0094691476       86.6425381050  LPSA5     26             19.0000000000
      5318       170  BMANNA    O6             -9.5529240648        9.8281714615       87.7626792907  LPSA5     26             19.0000000000
      5319       170  BMANNA    HO6            -9.6858803969       10.7129435255       88.1268465008  LPSA5     26             19.0000000000
      5320       171  BGLCNA    C1            -14.3218736823        3.9106186957       93.4768789040  LPSA5     27             19.0000000000
      5321       171  BGLCNA    H1            -14.0862304208        2.8298197188       93.4308857946  LPSA5     27             19.0000000000
      5322       171  BGLCNA    C5            -16.5843631775        3.3976936697       93.9158179561  LPSA5     27             19.0000000000
      5323       171  BGLCNA    H5            -16.2655036544        2.3302993374       93.9417630846  LPSA5     27             19.0000000000
      5324       171  BGLCNA    O5            -15.6687773501        4.1053387088       93.0699414581  LPSA5     27             19.0000000000
      5325       171  BGLCNA    C2            -14.1212728650        4.4708210803       94.8713162911  LPSA5     27             19.0000000000
      5326       171  BGLCNA    H2            -14.4218952559        5.5479099596       94.8314217179  LPSA5     27             19.0000000000
      5327       171  BGLCNA    N             -12.7264110134        4.4038354106       95.3080778303  LPSA5     27             19.0000000000
      5328       171  BGLCNA    HN            -12.2439583474        3.5744092818       95.0578280068  LPSA5     27             19.0000000000
      5329       171  BGLCNA    C             -12.1563826998        5.4425165557       95.9611593997  LPSA5     27             19.0000000000
      5330       171  BGLCNA    O             -12.8313040879        6.3093648468       96.5042936193  LPSA5     27             19.0000000000
      5331       171  BGLCNA    CT            -10.6482740236        5.5029716894       96.0193654533  LPSA5     27             19.0000000000
      5332       171  BGLCNA    HT1           -10.2098584179        4.7289696442       95.3618523835  LPSA5     27             19.0000000000
      5333       171  BGLCNA    HT2           -10.2811933286        5.4019140876       97.0565551374  LPSA5     27             19.0000000000
      5334       171  BGLCNA    HT3           -10.3276118578        6.5114396762       95.6665347515  LPSA5     27             19.0000000000
      5335       171  BGLCNA    C3            -15.0440231714        3.7753123906       95.8229609240  LPSA5     27             19.0000000000
      5336       171  BGLCNA    H3            -14.8052753727        2.6848761376       95.7806256885  LPSA5     27             19.0000000000
      5337       171  BGLCNA    O3            -14.7315437853        4.3215560312       97.1267586442  LPSA5     27             19.0000000000
      5338       171  BGLCNA    C4            -16.4704412578        3.9467515044       95.3365066823  LPSA5     27             19.0000000000
      5339       171  BGLCNA    H4            -16.7558712096        5.0132875334       95.3271324336  LPSA5     27             19.0000000000
      5340       171  BGLCNA    O4            -17.3794550119        3.2748181161       96.1834400860  LPSA5     27             19.0000000000
      5341       171  BGLCNA    HO4           -17.2080192052        2.3336431538       96.0646999104  LPSA5     27             19.0000000000
      5342       171  BGLCNA    C6            -17.9799807166        3.4189095019       93.3059129580  LPSA5     27             19.0000000000
      5343       171  BGLCNA    H61           -18.6192896506        2.6799184214       93.8381476183  LPSA5     27             19.0000000000
      5344       171  BGLCNA    H62           -18.4576737506        4.4123293422       93.4525109246  LPSA5     27             19.0000000000
      5345       171  BGLCNA    O6            -17.9549834006        3.0966206400       91.9039175875  LPSA5     27             19.0000000000
      5346       171  BGLCNA    HO6           -18.8438254573        3.1254117643       91.5281910959  LPSA5     27             19.0000000000
      5347       172  AGAL      C1            -15.1269849016        3.5797089698       98.2478668226  LPSA5     28             20.0000000000
      5348       172  AGAL      H1            -16.2302892154        3.6766752100       98.3321583559  LPSA5     28             20.0000000000
      5349       172  AGAL      C5            -13.3901928689        1.9394403868       98.1271445043  LPSA5     28             20.0000000000
      5350       172  AGAL      H5            -12.8571563893        2.6363899131       97.4321090300  LPSA5     28             20.0000000000
      5351       172  AGAL      O5            -14.8114144902        2.1892937053       98.0511314760  LPSA5     28             20.0000000000
      5352       172  AGAL      C2            -14.5736210651        4.0279179508       99.6167298818  LPSA5     28             20.0000000000
      5353       172  AGAL      H2            -15.0750815878        3.3000168145      100.2976123863  LPSA5     28             20.0000000000
      5354       172  AGAL      O2            -14.9266245788        5.3368966424      100.1026986610  LPSA5     28             20.0000000000
      5355       172  AGAL      C3            -13.0841112367        3.7780293289       99.6941465788  LPSA5     28             20.0000000000
      5356       172  AGAL      H3            -12.5951897995        4.3154580681       98.8508249499  LPSA5     28             20.0000000000
      5357       172  AGAL      O3            -12.4199851364        4.2381037780      100.8678324713  LPSA5     28             20.0000000000
      5358       172  AGAL      HO3           -11.7599285915        4.8926496833      100.6158008016  LPSA5     28             20.0000000000
      5359       172  AGAL      C4            -12.8712993320        2.3089295480       99.4932577049  LPSA5     28             20.0000000000
      5360       172  AGAL      H4            -11.7768472290        2.1748138508       99.4556321939  LPSA5     28             20.0000000000
      5361       172  AGAL      O4            -13.4300254658        1.5013790885      100.5296977389  LPSA5     28             20.0000000000
      5362       172  AGAL      HO4           -12.6802555247        1.2219921128      101.0661572910  LPSA5     28             20.0000000000
      5363       172  AGAL      C6            -13.0237635553        0.5381149229       97.6464896007  LPSA5     28             20.0000000000
      5364       172  AGAL      H61           -13.2655704183        0.4719536854       96.5648722370  LPSA5     28             20.0000000000
      5365       172  AGAL      H62           -11.9347455650        0.3333345625       97.7607864824  LPSA5     28             20.0000000000
      5366       172  AGAL      O6            -13.6951882359       -0.5152382097       98.3296068991  LPSA5     28             20.0000000000
      5367       172  AGAL      HO6           -14.5921947635       -0.6697503859       97.9681328501  LPSA5     28             20.0000000000
      5368       173  ARHM      C1            -15.2273302306        5.2524208805      101.4870325966  LPSA5     29             21.0000000000
      5369       173  ARHM      H1            -14.6977358308        4.4003422414      101.9615938692  LPSA5     29             21.0000000000
      5370       173  ARHM      C5            -17.3700151353        6.1761625177      101.1285962061  LPSA5     29             21.0000000000
      5371       173  ARHM      H5            -17.1073856430        6.2631211834      100.0527056318  LPSA5     29             21.0000000000
      5372       173  ARHM      O5            -16.6313423158        5.0991348129      101.7070541115  LPSA5     29             21.0000000000
      5373       173  ARHM      C2            -14.7499230303        6.4996541244      102.1689115286  LPSA5     29             21.0000000000
      5374       173  ARHM      H2            -13.6688284560        6.6307516182      101.9206659688  LPSA5     29             21.0000000000
      5375       173  ARHM      O2            -14.9333133576        6.4025785349      103.6074904113  LPSA5     29             21.0000000000
      5376       173  ARHM      C3            -15.4881659405        7.6754048805      101.5967354230  LPSA5     29             21.0000000000
      5377       173  ARHM      H3            -15.2951708360        7.7592742987      100.5001461079  LPSA5     29             21.0000000000
      5378       173  ARHM      O3            -15.0055437099        8.8555984643      102.2094394653  LPSA5     29             21.0000000000
      5379       173  ARHM      HO3           -15.7443228384        9.4710222495      102.1965592264  LPSA5     29             21.0000000000
      5380       173  ARHM      C4            -16.9816013148        7.4842139034      101.7892725166  LPSA5     29             21.0000000000
      5381       173  ARHM      H4            -17.1662177510        7.3614601023      102.8685795794  LPSA5     29             21.0000000000
      5382       173  ARHM      O4            -17.7676091256        8.5844794350      101.3301848417  LPSA5     29             21.0000000000
      5383       173  ARHM      HO4           -17.5306721148        8.8929961591      100.4555664775  LPSA5     29             21.0000000000
      5384       173  ARHM      C6            -18.8263817890        5.7127131411      101.2161537149  LPSA5     29             21.0000000000
      5385       173  ARHM      H61           -18.8795577575        4.6898751850      100.7768759886  LPSA5     29             21.0000000000
      5386       173  ARHM      H62           -19.1721850698        5.6620333954      102.2716416155  LPSA5     29             21.0000000000
      5387       173  ARHM      H63           -19.4882206246        6.3914150419      100.6420945239  LPSA5     29             21.0000000000
      5388       174  ARHM      C1            -13.8173598557        5.9953288370      104.3671658148  LPSA5     30             22.0000000000
      5389       174  ARHM      H1            -12.9545738740        6.6715967585      104.1607910410  LPSA5     30             22.0000000000
      5390       174  ARHM      C5            -14.4516403448        3.6951867687      104.4951560350  LPSA5     30             22.0000000000
      5391       174  ARHM      H5            -15.3510112458        3.9917362183      103.9106606235  LPSA5     30             22.0000000000
      5392       174  ARHM      O5            -13.4193607880        4.6289562936      104.1586433338  LPSA5     30             22.0000000000
      5393       174  ARHM      C2            -14.1932446509        6.1332367348      105.8190830666  LPSA5     30             22.0000000000
      5394       174  ARHM      H2            -14.5229071705        7.1715116702      106.0185354713  LPSA5     30             22.0000000000
      5395       174  ARHM      O2            -13.0557675818        5.8146657409      106.6070856781  LPSA5     30             22.0000000000
      5396       174  ARHM      C3            -15.2908697634        5.1739955192      106.2203438053  LPSA5     30             22.0000000000
      5397       174  ARHM      H3            -16.1386151199        5.3564262884      105.5152724892  LPSA5     30             22.0000000000
      5398       174  ARHM      O3            -15.7836808380        5.4632163531      107.5423890986  LPSA5     30             22.0000000000
      5399       174  ARHM      C4            -14.8072032755        3.7702138567      105.9589120741  LPSA5     30             22.0000000000
      5400       174  ARHM      H4            -13.8961374519        3.5347381062      106.5522622765  LPSA5     30             22.0000000000
      5401       174  ARHM      O4            -15.7371208360        2.7634577646      106.3100191978  LPSA5     30             22.0000000000
      5402       174  ARHM      HO4           -16.4866438067        2.6851853594      105.7042619913  LPSA5     30             22.0000000000
      5403       174  ARHM      C6            -14.0497300081        2.2773921918      104.0626017433  LPSA5     30             22.0000000000
      5404       174  ARHM      H61           -14.9037518778        1.5895156279      104.2322722188  LPSA5     30             22.0000000000
      5405       174  ARHM      H62           -13.8330218560        2.2815454458      102.9770930495  LPSA5     30             22.0000000000
      5406       174  ARHM      H63           -13.1643289759        1.9197168287      104.6287148456  LPSA5     30             22.0000000000
      5407       175  BMANNA    C1            -12.2093463920        6.8748275897      106.9007249176  LPSA5     31             23.0000000000
      5408       175  BMANNA    H1            -12.8063938668        7.7684898305      107.1649287098  LPSA5     31             23.0000000000
      5409       175  BMANNA    C5            -10.3710068977        8.2218276375      106.2131822960  LPSA5     31             23.0000000000
      5410       175  BMANNA    H5            -11.0186072050        9.0703151534      106.5264757459  LPSA5     31             23.0000000000
      5411       175  BMANNA    O5            -11.2754145375        7.1610004192      105.8541667861  LPSA5     31             23.0000000000
      5412       175  BMANNA    C2            -11.4420261337        6.3997713984      108.0851500250  LPSA5     31             23.0000000000
      5413       175  BMANNA    H2            -12.1852096947        6.2708670463      108.9143188000  LPSA5     31             23.0000000000
      5414       175  BMANNA    N             -10.8240340995        5.1185461079      107.8115591630  LPSA5     31             23.0000000000
      5415       175  BMANNA    HN            -10.6925903105        4.8901905665      106.8447059957  LPSA5     31             23.0000000000
      5416       175  BMANNA    C             -10.5522338353        4.2331710735      108.7715901373  LPSA5     31             23.0000000000
      5417       175  BMANNA    O             -10.8541280230        4.4333748408      109.9386901788  LPSA5     31             23.0000000000
      5418       175  BMANNA    CT             -9.8789099758        2.9726527456      108.3460927055  LPSA5     31             23.0000000000
      5419       175  BMANNA    HT1            -9.1230764282        3.1970726254      107.5698501898  LPSA5     31             23.0000000000
      5420       175  BMANNA    HT2           -10.6371656266        2.3321954364      107.8957163324  LPSA5     31             23.0000000000
      5421       175  BMANNA    HT3            -9.4321764049        2.4305797022      109.2037769915  LPSA5     31             23.0000000000
      5422       175  BMANNA    C3            -10.5061211219        7.5065534935      108.5032093473  LPSA5     31             23.0000000000
      5423       175  BMANNA    H3            -11.1016691971        8.4352354066      108.6754258481  LPSA5     31             23.0000000000
      5424       175  BMANNA    O3             -9.9139636833        7.2296361407      109.7471358401  LPSA5     31             23.0000000000
      5425       175  BMANNA    HO3           -10.4047055707        6.4951077325      110.1461408682  LPSA5     31             23.0000000000
      5426       175  BMANNA    C4             -9.5246009958        7.8118970065      107.4057866081  LPSA5     31             23.0000000000
      5427       175  BMANNA    H4             -8.9245503612        6.9076931123      107.1232167522  LPSA5     31             23.0000000000
      5428       175  BMANNA    O4             -8.6149561093        8.8557975383      107.7550697261  LPSA5     31             23.0000000000
      5429       175  BMANNA    HO4            -9.0597191306        9.5529462920      108.2463954390  LPSA5     31             23.0000000000
      5430       175  BMANNA    C6             -9.5319253396        8.7366350668      105.0678609492  LPSA5     31             23.0000000000
      5431       175  BMANNA    H61            -9.0007275151        9.6693129050      105.3329033437  LPSA5     31             23.0000000000
      5432       175  BMANNA    H62            -8.6987026876        8.0597248342      104.9468213773  LPSA5     31             23.0000000000
      5433       175  BMANNA    O6            -10.2230196030        8.8545715363      103.8198565621  LPSA5     31             23.0000000000
      5434       175  BMANNA    HO6           -10.7867320437        9.6327410670      103.7973099979  LPSA5     31             23.0000000000
      5435       176  BGLCNA    C1            -15.0539629514        4.9073768346      108.6157625315  LPSA5     32             23.0000000000
      5436       176  BGLCNA    H1            -13.9716822451        4.9581937993      108.4115745675  LPSA5     32             23.0000000000
      5437       176  BGLCNA    C5            -14.5406873697        2.9888256584      109.9201568822  LPSA5     32             23.0000000000
      5438       176  BGLCNA    H5            -13.4791443594        3.1034706616      109.5845834338  LPSA5     32             23.0000000000
      5439       176  BGLCNA    O5            -15.3775372313        3.5487031453      108.9040971075  LPSA5     32             23.0000000000
      5440       176  BGLCNA    C2            -15.3140171678        5.7320198212      109.8536935367  LPSA5     32             23.0000000000
      5441       176  BGLCNA    H2            -16.3757709683        5.5353652879      110.1479533199  LPSA5     32             23.0000000000
      5442       176  BGLCNA    N             -15.1537890700        7.1357257699      109.5680125925  LPSA5     32             23.0000000000
      5443       176  BGLCNA    HN            -14.4699827511        7.3130985150      108.8836565522  LPSA5     32             23.0000000000
      5444       176  BGLCNA    C             -15.8590115041        8.1438550378      110.0992325701  LPSA5     32             23.0000000000
      5445       176  BGLCNA    O             -16.7703849015        8.0106429775      110.9018521042  LPSA5     32             23.0000000000
      5446       176  BGLCNA    CT            -15.4580096847        9.4869381951      109.5631033731  LPSA5     32             23.0000000000
      5447       176  BGLCNA    HT1           -14.9182318010        9.3405160590      108.6109421456  LPSA5     32             23.0000000000
      5448       176  BGLCNA    HT2           -14.8191677960       10.0703857886      110.2394455114  LPSA5     32             23.0000000000
      5449       176  BGLCNA    HT3           -16.3556990821       10.0962629330      109.4018385014  LPSA5     32             23.0000000000
      5450       176  BGLCNA    C3            -14.3750191924        5.2266846383      110.9276333181  LPSA5     32             23.0000000000
      5451       176  BGLCNA    H3            -13.3536085247        5.2350649787      110.4783665479  LPSA5     32             23.0000000000
      5452       176  BGLCNA    O3            -14.3422413021        6.0598705612      112.0965958143  LPSA5     32             23.0000000000
      5453       176  BGLCNA    C4            -14.7438752750        3.7828726804      111.2004631607  LPSA5     32             23.0000000000
      5454       176  BGLCNA    H4            -15.8194214739        3.7527728472      111.5014779105  LPSA5     32             23.0000000000
      5455       176  BGLCNA    O4            -13.9954833281        3.1937446301      112.2520870082  LPSA5     32             23.0000000000
      5456       176  BGLCNA    HO4           -14.3925827201        3.4192532875      113.1008139250  LPSA5     32             23.0000000000
      5457       176  BGLCNA    C6            -14.8127121753        1.4970432884      110.0341688829  LPSA5     32             23.0000000000
      5458       176  BGLCNA    H61           -14.1083369765        1.0158763084      110.7242864563  LPSA5     32             23.0000000000
      5459       176  BGLCNA    H62           -15.8177130746        1.3297756948      110.4767952109  LPSA5     32             23.0000000000
      5460       176  BGLCNA    O6            -14.6770440504        0.7922550082      108.7959396574  LPSA5     32             23.0000000000
      5461       176  BGLCNA    HO6           -14.0568510479        1.2590253784      108.2124739184  LPSA5     32             23.0000000000
      5462       177  AGAL      C1            -13.0513472746        6.1729545077      112.6783197766  LPSA5     33             24.0000000000
      5463       177  AGAL      H1            -12.5114491206        5.2023743982      112.6069751917  LPSA5     33             24.0000000000
      5464       177  AGAL      C5            -12.7904674252        8.5086219329      112.2068529956  LPSA5     33             24.0000000000
      5465       177  AGAL      H5            -13.8384960737        8.4074485027      111.8459794257  LPSA5     33             24.0000000000
      5466       177  AGAL      O5            -12.2367850437        7.1877903206      112.0517527588  LPSA5     33             24.0000000000
      5467       177  AGAL      C2            -13.1954088488        6.5386469757      114.1436813177  LPSA5     33             24.0000000000
      5468       177  AGAL      H2            -12.1637666856        6.6845745920      114.5293010122  LPSA5     33             24.0000000000
      5469       177  AGAL      O2            -13.7192400892        5.4094697319      114.8658425374  LPSA5     33             24.0000000000
      5470       177  AGAL      C3            -13.8588514525        7.9084119002      114.3003311100  LPSA5     33             24.0000000000
      5471       177  AGAL      H3            -14.8235426103        7.9237945426      113.7273060957  LPSA5     33             24.0000000000
      5472       177  AGAL      O3            -14.2594722478        8.2230196048      115.6232851866  LPSA5     33             24.0000000000
      5473       177  AGAL      HO3           -13.5379502072        8.1541499480      116.2503577291  LPSA5     33             24.0000000000
      5474       177  AGAL      C4            -12.9301257911        8.9452000039      113.6605233139  LPSA5     33             24.0000000000
      5475       177  AGAL      H4            -13.4112207425        9.9333828318      113.7136161145  LPSA5     33             24.0000000000
      5476       177  AGAL      O4            -11.6737316133        9.1705530281      114.2986292084  LPSA5     33             24.0000000000
      5477       177  AGAL      HO4           -11.4254622523        8.4843451448      114.9124233770  LPSA5     33             24.0000000000
      5478       177  AGAL      C6            -12.1476220764        9.5211800760      111.2564668694  LPSA5     33             24.0000000000
      5479       177  AGAL      H61           -12.3604950386        9.1491430920      110.2377969978  LPSA5     33             24.0000000000
      5480       177  AGAL      H62           -12.6213561812       10.5207007300      111.3698176989  LPSA5     33             24.0000000000
      5481       177  AGAL      O6            -10.7369544636        9.7246736161      111.3480068576  LPSA5     33             24.0000000000
      5482       177  AGAL      HO6           -10.2651821388        9.0146728859      110.8890198859  LPSA5     33             24.0000000000
      5483       178  ARHM      C1            -13.0180008470        5.0900326396      116.0568940956  LPSA5     34             25.0000000000
      5484       178  ARHM      H1            -12.8910766986        6.0191177901      116.6501684484  LPSA5     34             25.0000000000
      5485       178  ARHM      C5            -11.6783946678        3.3178515780      115.0702682335  LPSA5     34             25.0000000000
      5486       178  ARHM      H5            -12.0965749328        3.5413724671      114.0660730936  LPSA5     34             25.0000000000
      5487       178  ARHM      O5            -11.6887961584        4.5393827834      115.8435979347  LPSA5     34             25.0000000000
      5488       178  ARHM      C2            -13.8877844108        4.0934400460      116.8142882571  LPSA5     34             25.0000000000
      5489       178  ARHM      H2            -14.9359591277        4.4932185510      116.8573576677  LPSA5     34             25.0000000000
      5490       178  ARHM      O2            -13.4395620100        3.8435795780      118.1766138240  LPSA5     34             25.0000000000
      5491       178  ARHM      C3            -13.9334078279        2.7977586233      116.0030883138  LPSA5     34             25.0000000000
      5492       178  ARHM      H3            -14.3575218361        3.0211907743      114.9954640904  LPSA5     34             25.0000000000
      5493       178  ARHM      O3            -14.7640812046        1.8060116977      116.6121307064  LPSA5     34             25.0000000000
      5494       178  ARHM      HO3           -15.2470921733        1.2989204520      115.9538282898  LPSA5     34             25.0000000000
      5495       178  ARHM      C4            -12.5289915667        2.2725898001      115.7888744710  LPSA5     34             25.0000000000
      5496       178  ARHM      H4            -12.0388551215        2.1028452072      116.7793099459  LPSA5     34             25.0000000000
      5497       178  ARHM      O4            -12.5529218556        1.0278258623      115.0703406461  LPSA5     34             25.0000000000
      5498       178  ARHM      HO4           -12.8424183611        0.3459819437      115.6896521581  LPSA5     34             25.0000000000
      5499       178  ARHM      C6            -10.2385310096        2.7683307276      114.8440568751  LPSA5     34             25.0000000000
      5500       178  ARHM      H61            -9.6927681535        2.5650236813      115.7843851091  LPSA5     34             25.0000000000
      5501       178  ARHM      H62           -10.3024170771        1.7863862687      114.3371367487  LPSA5     34             25.0000000000
      5502       178  ARHM      H63            -9.6211097094        3.4266369147      114.1976896222  LPSA5     34             25.0000000000
      5503       179  ARHM      C1            -13.3097966080        4.9542730210      119.0447098425  LPSA5     35             26.0000000000
      5504       179  ARHM      H1            -14.1447510163        5.6778112120      118.8627238519  LPSA5     35             26.0000000000
      5505       179  ARHM      C5            -10.9264715429        4.7021746720      119.2062685841  LPSA5     35             26.0000000000
      5506       179  ARHM      H5            -10.9589575980        3.8330668680      118.5140821172  LPSA5     35             26.0000000000
      5507       179  ARHM      O5            -12.0223976036        5.5925231554      118.9262694619  LPSA5     35             26.0000000000
      5508       179  ARHM      C2            -13.4180405999        4.4876436932      120.4844138165  LPSA5     35             26.0000000000
      5509       179  ARHM      H2            -14.3819321312        3.9677805548      120.6006293326  LPSA5     35             26.0000000000
      5510       179  ARHM      O2            -13.3500710094        5.5864943252      121.4150919299  LPSA5     35             26.0000000000
      5511       179  ARHM      C3            -12.3497157889        3.4839131396      120.8158699549  LPSA5     35             26.0000000000
      5512       179  ARHM      H3            -12.4185334237        2.6243923397      120.1074499560  LPSA5     35             26.0000000000
      5513       179  ARHM      O3            -12.5695845888        2.9009352040      122.0974697117  LPSA5     35             26.0000000000
      5514       179  ARHM      HO3           -12.8582648943        3.5464614665      122.7478725788  LPSA5     35             26.0000000000
      5515       179  ARHM      C4            -11.0097038290        4.1726507945      120.6421039167  LPSA5     35             26.0000000000
      5516       179  ARHM      H4            -10.9290259886        5.0419143799      121.3388092913  LPSA5     35             26.0000000000
      5517       179  ARHM      O4             -9.9170209072        3.3014293854      120.9178292398  LPSA5     35             26.0000000000
      5518       179  ARHM      HO4           -10.1323097738        2.4017899233      120.6220285977  LPSA5     35             26.0000000000
      5519       179  ARHM      C6             -9.6207728584        5.4552249793      118.8630279003  LPSA5     35             26.0000000000
      5520       179  ARHM      H61            -9.5525970012        5.6716157026      117.7749298369  LPSA5     35             26.0000000000
      5521       179  ARHM      H62            -9.5774594244        6.4066540831      119.4337834506  LPSA5     35             26.0000000000
      5522       179  ARHM      H63            -8.7552770773        4.8001077818      119.1088001904  LPSA5     35             26.0000000000
      5523       180  BMANNA    C1            -14.4812228958        6.4120745977      121.4624451239  LPSA5     36             27.0000000000
      5524       180  BMANNA    H1            -15.3797823627        5.8630113485      121.1188088243  LPSA5     36             27.0000000000
      5525       180  BMANNA    C5            -15.6181384764        8.3235374795      120.7108250635  LPSA5     36             27.0000000000
      5526       180  BMANNA    H5            -16.4747880207        7.6772472288      120.4268270169  LPSA5     36             27.0000000000
      5527       180  BMANNA    O5            -14.3938224243        7.5525938991      120.6383573346  LPSA5     36             27.0000000000
      5528       180  BMANNA    C2            -14.6384359661        6.8607659377      122.8955730235  LPSA5     36             27.0000000000
      5529       180  BMANNA    H2            -14.7443836332        5.9059801050      123.4252356116  LPSA5     36             27.0000000000
      5530       180  BMANNA    N             -13.4937823294        7.5227653564      123.4962814055  LPSA5     36             27.0000000000
      5531       180  BMANNA    HN            -12.9873083294        8.1206594978      122.8879653127  LPSA5     36             27.0000000000
      5532       180  BMANNA    C             -13.2183930474        7.4680763478      124.8132384969  LPSA5     36             27.0000000000
      5533       180  BMANNA    O             -13.8297973868        6.7372640027      125.5776990396  LPSA5     36             27.0000000000
      5534       180  BMANNA    CT            -12.1359032088        8.3840053787      125.3367137934  LPSA5     36             27.0000000000
      5535       180  BMANNA    HT1           -12.2503258591        9.3845497881      124.8741249705  LPSA5     36             27.0000000000
      5536       180  BMANNA    HT2           -11.1293272913        7.9722751110      125.1376022032  LPSA5     36             27.0000000000
      5537       180  BMANNA    HT3           -12.2598357288        8.4877716300      126.4355723221  LPSA5     36             27.0000000000
      5538       180  BMANNA    C3            -15.9216651952        7.6461781917      123.0177577638  LPSA5     36             27.0000000000
      5539       180  BMANNA    H3            -16.7595989268        7.0248016272      122.6604534696  LPSA5     36             27.0000000000
      5540       180  BMANNA    O3            -16.2133366874        8.0008651852      124.3575394534  LPSA5     36             27.0000000000
      5541       180  BMANNA    HO3           -17.0787427613        7.6999106161      124.6655656938  LPSA5     36             27.0000000000
      5542       180  BMANNA    C4            -15.8478965488        8.8389962962      122.1254376513  LPSA5     36             27.0000000000
      5543       180  BMANNA    H4            -15.0097920502        9.4951515429      122.4502577384  LPSA5     36             27.0000000000
      5544       180  BMANNA    O4            -17.0355030624        9.6023636024      122.2263912573  LPSA5     36             27.0000000000
      5545       180  BMANNA    HO4           -17.1040782141        9.7924261784      123.1758835902  LPSA5     36             27.0000000000
      5546       180  BMANNA    C6            -15.5926149830        9.4148153717      119.7194301678  LPSA5     36             27.0000000000
      5547       180  BMANNA    H61           -15.3990322491        9.0678736988      118.6826712704  LPSA5     36             27.0000000000
      5548       180  BMANNA    H62           -16.5660298652        9.9646242974      119.7132982660  LPSA5     36             27.0000000000
      5549       180  BMANNA    O6            -14.5296647998       10.2240612413      120.1503725042  LPSA5     36             27.0000000000
      5550       180  BMANNA    HO6           -14.8916548475       10.9818047552      120.6400095556  LPSA5     36             27.0000000000
      5551       181  ECLIPA    HB6S            2.8473450784      -19.4411201092       20.4015762907  LPSA6     1               0.0000000000
      5552       181  ECLIPA    OB6             1.4887019721      -20.1683352285       21.7211249501  LPSA6     1               0.0000000000
      5553       181  ECLIPA    CB6             2.4731894314      -20.4162877995       20.7038227680  LPSA6     1               0.0000000000
      5554       181  ECLIPA    HB6R            3.3333316243      -20.9977881994       21.1046140531  LPSA6     1               0.0000000000
      5555       181  ECLIPA    CB5             1.9820336421      -21.0776514155       19.4309340112  LPSA6     1               0.0000000000
      5556       181  ECLIPA    OB5             0.8845798032      -20.2708891224       18.9587796975  LPSA6     1               0.0000000000
      5557       181  ECLIPA    HB5             1.6412128231      -22.0943138934       19.7298356029  LPSA6     1               0.0000000000
      5558       181  ECLIPA    CB1             0.2823220263      -20.8231853999       17.7841782182  LPSA6     1               0.0000000000
      5559       181  ECLIPA    HB1            -0.0640379891      -21.8701484241       17.9629384135  LPSA6     1               0.0000000000
      5560       181  ECLIPA    OA6            -0.8372661843      -20.0909660206       17.3368587247  LPSA6     1               0.0000000000
      5561       181  ECLIPA    CA6            -0.7794114526      -18.6718173888       17.5630573876  LPSA6     1               0.0000000000
      5562       181  ECLIPA    HA6R            0.2579065485      -18.3092243841       17.7527410255  LPSA6     1               0.0000000000
      5563       181  ECLIPA    HA6S           -1.4195102717      -18.4364992016       18.4443036489  LPSA6     1               0.0000000000
      5564       181  ECLIPA    CB4             3.0619235876      -21.1998556120       18.3321478323  LPSA6     1               0.0000000000
      5565       181  ECLIPA    HB4             3.4873456301      -20.1998923298       18.0571479893  LPSA6     1               0.0000000000
      5566       181  ECLIPA    OB4             4.0554608485      -22.1071505457       18.8371510256  LPSA6     1               0.0000000000
      5567       181  ECLIPA    PB              5.5659961684      -21.5563901122       19.3067978265  LPSA6     1               0.0000000000
      5568       181  ECLIPA    OPB4            6.0567719927      -22.3747893854       20.4968226733  LPSA6     1               0.0000000000
      5569       181  ECLIPA    OPB3            5.3830646064      -20.0839564683       19.6894371016  LPSA6     1               0.0000000000
      5570       181  ECLIPA    OPB2            6.5247584144      -21.7534694726       18.1293700535  LPSA6     1               0.0000000000
      5571       181  ECLIPA    CB3             2.4227933499      -21.7761016237       17.0827854253  LPSA6     1               0.0000000000
      5572       181  ECLIPA    OB3             3.2960987933      -21.8533391533       15.9494662621  LPSA6     1               0.0000000000
      5573       181  ECLIPA    HB3             1.9599359928      -22.7633573840       17.3311928723  LPSA6     1               0.0000000000
      5574       181  ECLIPA    C71             4.0462620182      -22.9539367998       15.7914956682  LPSA6     1               0.0000000000
      5575       181  ECLIPA    O71             3.7124412970      -24.0309836081       16.2662146746  LPSA6     1               0.0000000000
      5576       181  ECLIPA    C72             4.7084299355      -22.8136814295       14.3884267309  LPSA6     1               0.0000000000
      5577       181  ECLIPA    H72R            3.9470563003      -22.6184769088       13.6057838120  LPSA6     1               0.0000000000
      5578       181  ECLIPA    H72S            5.2434543397      -23.7605112902       14.1651434077  LPSA6     1               0.0000000000
      5579       181  ECLIPA    CB2             1.2798906486      -20.8754252240       16.6628754706  LPSA6     1               0.0000000000
      5580       181  ECLIPA    HB2             1.6933358463      -19.8386571257       16.5103228695  LPSA6     1               0.0000000000
      5581       181  ECLIPA    NB2             0.6446851531      -21.3824334301       15.4505346172  LPSA6     1               0.0000000000
      5582       181  ECLIPA    HNB2           -0.1049747559      -22.0216292810       15.5709275573  LPSA6     1               0.0000000000
      5583       181  ECLIPA    CA4            -2.5825220707      -18.6027812589       15.7958600984  LPSA6     1               0.0000000000
      5584       181  ECLIPA    HA4            -2.2911734962      -19.6451747309       15.5220140818  LPSA6     1               0.0000000000
      5585       181  ECLIPA    OA4            -3.5917828384      -18.6314961241       16.8113767371  LPSA6     1               0.0000000000
      5586       181  ECLIPA    HOA4           -3.1275663303      -18.9488704096       17.6008657954  LPSA6     1               0.0000000000
      5587       181  ECLIPA    CA5            -1.3238890611      -17.9537771261       16.3410792974  LPSA6     1               0.0000000000
      5588       181  ECLIPA    HA5            -1.4520619728      -16.8690227395       16.5701756199  LPSA6     1               0.0000000000
      5589       181  ECLIPA    OA5            -0.3205795560      -18.0773400378       15.3464326580  LPSA6     1               0.0000000000
      5590       181  ECLIPA    CA1            -0.6504123529      -17.4185989879       14.1087726860  LPSA6     1               0.0000000000
      5591       181  ECLIPA    HA1             0.1478261561      -17.7901434895       13.4256018285  LPSA6     1               0.0000000000
      5592       181  ECLIPA    OA1            -0.5987081404      -16.0032234024       14.1460193328  LPSA6     1               0.0000000000
      5593       181  ECLIPA    OPA2            0.4426272601      -14.6269820264       16.0462302427  LPSA6     1               0.0000000000
      5594       181  ECLIPA    OPA3            1.9160412327      -16.2310995535       14.8819266693  LPSA6     1               0.0000000000
      5595       181  ECLIPA    OPA4            1.1666853758      -14.1655388212       13.7020154362  LPSA6     1               0.0000000000
      5596       181  ECLIPA    PA              0.7805962138      -15.2454623736       14.6969274017  LPSA6     1               0.0000000000
      5597       181  ECLIPA    CA3            -3.0582079560      -17.9351625111       14.5232690092  LPSA6     1               0.0000000000
      5598       181  ECLIPA    HA3            -3.3054391339      -16.8677132766       14.7295722589  LPSA6     1               0.0000000000
      5599       181  ECLIPA    OA3            -4.2869595089      -18.6490407681       14.1951049184  LPSA6     1               0.0000000000
      5600       181  ECLIPA    C31            -4.1088075535      -19.8299581407       13.5035421543  LPSA6     1               0.0000000000
      5601       181  ECLIPA    O31            -4.0752543660      -19.8411564407       12.2898940193  LPSA6     1               0.0000000000
      5602       181  ECLIPA    C32            -4.8250706252      -20.9458133781       14.2783543281  LPSA6     1               0.0000000000
      5603       181  ECLIPA    H32R           -5.7308537243      -21.2281707193       13.7024352213  LPSA6     1               0.0000000000
      5604       181  ECLIPA    H32S           -5.1306614827      -20.5716744825       15.2734925235  LPSA6     1               0.0000000000
      5605       181  ECLIPA    CA2            -1.9138494837      -18.0244191474       13.5104602254  LPSA6     1               0.0000000000
      5606       181  ECLIPA    HA2            -1.6719147102      -19.0980102389       13.3375333755  LPSA6     1               0.0000000000
      5607       181  ECLIPA    NA2            -2.2617483401      -17.3969255455       12.2237706774  LPSA6     1               0.0000000000
      5608       181  ECLIPA    HNA2           -3.2137084107      -17.1546498803       12.1192633035  LPSA6     1               0.0000000000
      5609       181  ECLIPA    C73             5.7093288278      -21.6335684838       14.3572414124  LPSA6     1               0.0000000000
      5610       181  ECLIPA    H73R            6.3339120513      -21.6903113753       15.2809039204  LPSA6     1               0.0000000000
      5611       181  ECLIPA    O73             4.9321467875      -20.4384447325       14.2862698333  LPSA6     1               0.0000000000
      5612       181  ECLIPA    C81             5.3524961975      -19.3517965287       14.9443841918  LPSA6     1               0.0000000000
      5613       181  ECLIPA    O81             6.4359819724      -19.2611773953       15.5153038005  LPSA6     1               0.0000000000
      5614       181  ECLIPA    C82             4.5778541295      -18.1435251500       14.3496344047  LPSA6     1               0.0000000000
      5615       181  ECLIPA    H82R            4.8877286475      -17.2223981237       14.8711858498  LPSA6     1               0.0000000000
      5616       181  ECLIPA    H82S            3.4922150012      -18.2669870143       14.5600879525  LPSA6     1               0.0000000000
      5617       181  ECLIPA    C83             4.7542896436      -17.9818267316       12.8136950701  LPSA6     1               0.0000000000
      5618       181  ECLIPA    H83R            4.0532445820      -18.6750746533       12.2935061411  LPSA6     1               0.0000000000
      5619       181  ECLIPA    H83S            5.7846563200      -18.2715240930       12.5336123308  LPSA6     1               0.0000000000
      5620       181  ECLIPA    C84             4.4175025031      -16.5713376924       12.2950424081  LPSA6     1               0.0000000000
      5621       181  ECLIPA    H84R            5.1906046825      -15.8363778143       12.5951718217  LPSA6     1               0.0000000000
      5622       181  ECLIPA    H84S            3.4378248544      -16.2898728906       12.7608296766  LPSA6     1               0.0000000000
      5623       181  ECLIPA    C85             4.2012202776      -16.5369522525       10.7719751131  LPSA6     1               0.0000000000
      5624       181  ECLIPA    H85R            3.6008251649      -17.4470591458       10.5452491384  LPSA6     1               0.0000000000
      5625       181  ECLIPA    H85S            5.1662777723      -16.6494251543       10.2361510879  LPSA6     1               0.0000000000
      5626       181  ECLIPA    C86             3.3626309046      -15.3325039626       10.2866853910  LPSA6     1               0.0000000000
      5627       181  ECLIPA    H86R            4.0122472595      -14.4788524012        9.9932575838  LPSA6     1               0.0000000000
      5628       181  ECLIPA    H86S            2.7273361399      -14.9672455150       11.1305060255  LPSA6     1               0.0000000000
      5629       181  ECLIPA    C87             2.3784724006      -15.7077879583        9.1596373879  LPSA6     1               0.0000000000
      5630       181  ECLIPA    H87R            1.8623004464      -14.7929085116        8.7961210080  LPSA6     1               0.0000000000
      5631       181  ECLIPA    H87S            1.5845236443      -16.3703519791        9.5765851378  LPSA6     1               0.0000000000
      5632       181  ECLIPA    C88             3.0525693365      -16.4746967277        8.0203249353  LPSA6     1               0.0000000000
      5633       181  ECLIPA    H88R            3.2343262712      -17.5186695428        8.3498383487  LPSA6     1               0.0000000000
      5634       181  ECLIPA    H88S            4.0695947512      -16.0449673450        7.8789999228  LPSA6     1               0.0000000000
      5635       181  ECLIPA    C89             2.2344426202      -16.4886147529        6.7153594466  LPSA6     1               0.0000000000
      5636       181  ECLIPA    H89R            1.1579214949      -16.2724486480        6.8952452442  LPSA6     1               0.0000000000
      5637       181  ECLIPA    H89S            2.2646713434      -17.5006811913        6.2580515314  LPSA6     1               0.0000000000
      5638       181  ECLIPA    C810            2.8365921741      -15.5166086889        5.6971943628  LPSA6     1               0.0000000000
      5639       181  ECLIPA    H810R           3.9207700875      -15.4527519973        5.9308765673  LPSA6     1               0.0000000000
      5640       181  ECLIPA    H810S           2.3827435749      -14.5143065381        5.8633007349  LPSA6     1               0.0000000000
      5641       181  ECLIPA    C811            2.6471291673      -15.9467510548        4.2347155694  LPSA6     1               0.0000000000
      5642       181  ECLIPA    H811R           2.7542760731      -15.0806311916        3.5404541561  LPSA6     1               0.0000000000
      5643       181  ECLIPA    H811S           1.6136613139      -16.3505688434        4.1531745466  LPSA6     1               0.0000000000
      5644       181  ECLIPA    C812            3.5837186599      -17.0596522619        3.7356564527  LPSA6     1               0.0000000000
      5645       181  ECLIPA    H812R           3.2260522058      -17.3396360240        2.7143075899  LPSA6     1               0.0000000000
      5646       181  ECLIPA    H812S           3.4998222418      -17.9369725142        4.4092932212  LPSA6     1               0.0000000000
      5647       181  ECLIPA    C813            5.0683519953      -16.7005011637        3.6364276316  LPSA6     1               0.0000000000
      5648       181  ECLIPA    H813R           5.1699097211      -15.8515417613        2.9301333544  LPSA6     1               0.0000000000
      5649       181  ECLIPA    H813S           5.4710924920      -16.3759442244        4.6241848390  LPSA6     1               0.0000000000
      5650       181  ECLIPA    C814            5.9156287728      -17.8649553446        3.1317177996  LPSA6     1               0.0000000000
      5651       181  ECLIPA    H814R           5.4786575814      -18.3307776469        2.2191919808  LPSA6     1               0.0000000000
      5652       181  ECLIPA    H814S           5.9943061129      -18.6415799896        3.9217026509  LPSA6     1               0.0000000000
      5653       181  ECLIPA    H814T           6.9386269618      -17.5183272357        2.8884859937  LPSA6     1               0.0000000000
      5654       181  ECLIPA    C74             6.6555052460      -21.6038638464       13.1236863498  LPSA6     1               0.0000000000
      5655       181  ECLIPA    H74R            7.3229311171      -22.4876521420       13.0432233583  LPSA6     1               0.0000000000
      5656       181  ECLIPA    H74S            7.3264087166      -20.7334899632       13.3166843922  LPSA6     1               0.0000000000
      5657       181  ECLIPA    C75             5.9512690763      -21.3235999269       11.7761655063  LPSA6     1               0.0000000000
      5658       181  ECLIPA    H75R            6.6274645669      -20.6641085521       11.1893269272  LPSA6     1               0.0000000000
      5659       181  ECLIPA    H75S            5.0226174453      -20.7441486742       11.9709199577  LPSA6     1               0.0000000000
      5660       181  ECLIPA    C76             5.5849961568      -22.5631702122       10.9446972851  LPSA6     1               0.0000000000
      5661       181  ECLIPA    H76R            4.6730679514      -23.0318168110       11.3777008126  LPSA6     1               0.0000000000
      5662       181  ECLIPA    H76S            6.3959330688      -23.3272662072       10.9919888947  LPSA6     1               0.0000000000
      5663       181  ECLIPA    C77             5.3194697635      -22.2802257911        9.4533373390  LPSA6     1               0.0000000000
      5664       181  ECLIPA    H77R            6.2629170265      -21.9248814645        8.9901521060  LPSA6     1               0.0000000000
      5665       181  ECLIPA    H77S            4.5922287927      -21.4646163953        9.3117371285  LPSA6     1               0.0000000000
      5666       181  ECLIPA    C78             4.7258871881      -23.5422910935        8.8013812905  LPSA6     1               0.0000000000
      5667       181  ECLIPA    H78R            5.3829793035      -24.3988815634        9.0705067934  LPSA6     1               0.0000000000
      5668       181  ECLIPA    H78S            3.7548695466      -23.7180091615        9.3201407270  LPSA6     1               0.0000000000
      5669       181  ECLIPA    C79             4.3906677546      -23.4931247252        7.2927093539  LPSA6     1               0.0000000000
      5670       181  ECLIPA    H79R            3.3192025379      -23.2089951388        7.1722193257  LPSA6     1               0.0000000000
      5671       181  ECLIPA    H79S            4.5121666592      -24.4984773906        6.8326315138  LPSA6     1               0.0000000000
      5672       181  ECLIPA    C710            5.2623541054      -22.5662280522        6.4531915997  LPSA6     1               0.0000000000
      5673       181  ECLIPA    H710R           5.2473998625      -21.5362156550        6.8676946178  LPSA6     1               0.0000000000
      5674       181  ECLIPA    H710S           6.3060656265      -22.9489034855        6.4860313515  LPSA6     1               0.0000000000
      5675       181  ECLIPA    C711            4.8287876367      -22.4713611455        4.9903602031  LPSA6     1               0.0000000000
      5676       181  ECLIPA    H711R           4.8646671182      -23.4880468469        4.5323980918  LPSA6     1               0.0000000000
      5677       181  ECLIPA    H711S           3.7871021253      -22.0833910329        4.9253963300  LPSA6     1               0.0000000000
      5678       181  ECLIPA    C712            5.7507038314      -21.4656865385        4.2911024728  LPSA6     1               0.0000000000
      5679       181  ECLIPA    H712R           6.7708983054      -21.9261103793        4.2506627017  LPSA6     1               0.0000000000
      5680       181  ECLIPA    H712S           5.8055089482      -20.5595508471        4.9131193317  LPSA6     1               0.0000000000
      5681       181  ECLIPA    C713            5.2320899541      -20.9416068759        2.9571361542  LPSA6     1               0.0000000000
      5682       181  ECLIPA    H713R           4.2141612586      -20.5197491531        2.9540291561  LPSA6     1               0.0000000000
      5683       181  ECLIPA    H713S           6.0072569331      -20.3634382828        2.3799938173  LPSA6     1               0.0000000000
      5684       181  ECLIPA    C714            5.0939281417      -22.0499065165        2.1209146242  LPSA6     1               0.0000000000
      5685       181  ECLIPA    H714R           6.1843472911      -22.3391523125        2.2302899880  LPSA6     1               0.0000000000
      5686       181  ECLIPA    H714S           4.3981410848      -22.8762811513        2.4171651315  LPSA6     1               0.0000000000
      5687       181  ECLIPA    H714T           5.0118409208      -21.9164088834        1.0475405029  LPSA6     1               0.0000000000
      5688       181  ECLIPA    C51             1.0920193185      -21.0525306632       14.2307910934  LPSA6     1               0.0000000000
      5689       181  ECLIPA    O51             1.8574222050      -20.1183675810       14.0715009880  LPSA6     1               0.0000000000
      5690       181  ECLIPA    C52             0.6588786341      -21.9031074012       13.0554447656  LPSA6     1               0.0000000000
      5691       181  ECLIPA    H52R            1.3588747812      -22.7595068650       12.9295700783  LPSA6     1               0.0000000000
      5692       181  ECLIPA    H52S           -0.3466015651      -22.3054184988       13.2476791135  LPSA6     1               0.0000000000
      5693       181  ECLIPA    C53             0.6449197953      -21.0605425671       11.7620190024  LPSA6     1               0.0000000000
      5694       181  ECLIPA    H53R            0.3363588811      -20.0087104909       11.9858646943  LPSA6     1               0.0000000000
      5695       181  ECLIPA    O53            -0.2453020206      -21.7331179183       10.8525132167  LPSA6     1               0.0000000000
      5696       181  ECLIPA    C61            -1.3871485390      -21.1326971959       10.5287723648  LPSA6     1               0.0000000000
      5697       181  ECLIPA    O61            -1.7274537574      -20.0214978059       10.8582228719  LPSA6     1               0.0000000000
      5698       181  ECLIPA    C62            -2.2000204851      -22.0368694433        9.5926292823  LPSA6     1               0.0000000000
      5699       181  ECLIPA    H62R           -2.7495114408      -22.7671608319       10.2150609536  LPSA6     1               0.0000000000
      5700       181  ECLIPA    H62S           -1.4601580401      -22.6121761312        9.0052037782  LPSA6     1               0.0000000000
      5701       181  ECLIPA    C63            -3.1892144340      -21.2162338739        8.7060527960  LPSA6     1               0.0000000000
      5702       181  ECLIPA    H63R           -2.6338582880      -20.3537846068        8.2745619329  LPSA6     1               0.0000000000
      5703       181  ECLIPA    H63S           -4.0203455814      -20.8134634959        9.3311234465  LPSA6     1               0.0000000000
      5704       181  ECLIPA    C64            -3.8020880379      -21.9700283715        7.5095655643  LPSA6     1               0.0000000000
      5705       181  ECLIPA    H64R           -4.5411001351      -21.3180788560        6.9868804940  LPSA6     1               0.0000000000
      5706       181  ECLIPA    H64S           -4.3311915077      -22.8562500316        7.9212160328  LPSA6     1               0.0000000000
      5707       181  ECLIPA    C65            -2.7060506194      -22.4135164469        6.5362378009  LPSA6     1               0.0000000000
      5708       181  ECLIPA    H65R           -2.0639768196      -23.0891326092        7.1414887699  LPSA6     1               0.0000000000
      5709       181  ECLIPA    H65S           -2.0936080807      -21.5412996294        6.2184104567  LPSA6     1               0.0000000000
      5710       181  ECLIPA    C66            -3.1141630541      -23.2076263910        5.2858111284  LPSA6     1               0.0000000000
      5711       181  ECLIPA    H66R           -3.6841608252      -24.1128924927        5.5635126788  LPSA6     1               0.0000000000
      5712       181  ECLIPA    H66S           -2.1531446083      -23.5091912543        4.7993462654  LPSA6     1               0.0000000000
      5713       181  ECLIPA    C67            -3.9048901259      -22.4765248236        4.2251643682  LPSA6     1               0.0000000000
      5714       181  ECLIPA    H67R           -4.8227341151      -21.9640884717        4.5986569205  LPSA6     1               0.0000000000
      5715       181  ECLIPA    H67S           -4.2101870529      -23.1671076180        3.3983261279  LPSA6     1               0.0000000000
      5716       181  ECLIPA    C68            -3.1186236522      -21.3688114649        3.6436865338  LPSA6     1               0.0000000000
      5717       181  ECLIPA    H68R           -2.1631934414      -21.6170441466        3.1117155011  LPSA6     1               0.0000000000
      5718       181  ECLIPA    H68S           -2.9456833487      -20.5563614178        4.3810584224  LPSA6     1               0.0000000000
      5719       181  ECLIPA    C69            -4.0013966927      -20.8530434094        2.6239798736  LPSA6     1               0.0000000000
      5720       181  ECLIPA    H69R           -5.1173664832      -20.8519412865        2.6173623368  LPSA6     1               0.0000000000
      5721       181  ECLIPA    H69S           -3.9500414207      -21.6738210877        1.9131565418  LPSA6     1               0.0000000000
      5722       181  ECLIPA    C610           -3.4060628527      -19.5122985151        2.4529801160  LPSA6     1               0.0000000000
      5723       181  ECLIPA    H610R          -2.3289837320      -19.2980329752        2.2515466959  LPSA6     1               0.0000000000
      5724       181  ECLIPA    H610S          -3.9870890149      -18.6775952800        2.9407267761  LPSA6     1               0.0000000000
      5725       181  ECLIPA    C611           -3.9824304454      -19.1933705445        1.3340582649  LPSA6     1               0.0000000000
      5726       181  ECLIPA    H611R          -4.9598311464      -19.7108934755        1.1704931424  LPSA6     1               0.0000000000
      5727       181  ECLIPA    H611S          -3.5492664583      -18.1974011875        1.0967417145  LPSA6     1               0.0000000000
      5728       181  ECLIPA    C612           -3.6120992378      -19.4937313167        0.1392443603  LPSA6     1               0.0000000000
      5729       181  ECLIPA    H612R          -2.9147306478      -18.9920697363       -0.4525720823  LPSA6     1               0.0000000000
      5730       181  ECLIPA    H612S          -2.8293006975      -20.1338347248        0.3048066834  LPSA6     1               0.0000000000
      5731       181  ECLIPA    H612T          -4.4227776471      -19.5339731467       -0.6687089328  LPSA6     1               0.0000000000
      5732       181  ECLIPA    C54             2.0801846667      -21.0603618813       11.1700692924  LPSA6     1               0.0000000000
      5733       181  ECLIPA    H54R            2.3106817748      -22.1089927756       10.8818267460  LPSA6     1               0.0000000000
      5734       181  ECLIPA    H54S            2.7839207688      -20.7688927318       11.9772656487  LPSA6     1               0.0000000000
      5735       181  ECLIPA    C55             2.3361814253      -20.1353917200        9.9635607358  LPSA6     1               0.0000000000
      5736       181  ECLIPA    H55R            3.4300890655      -19.9984318078        9.8234248436  LPSA6     1               0.0000000000
      5737       181  ECLIPA    H55S            1.9336534589      -19.1263713525       10.2011174963  LPSA6     1               0.0000000000
      5738       181  ECLIPA    C56             1.7570819355      -20.7641093577        8.6897454605  LPSA6     1               0.0000000000
      5739       181  ECLIPA    H56R            0.6825805822      -20.9633845702        8.8597548972  LPSA6     1               0.0000000000
      5740       181  ECLIPA    H56S            2.2487162200      -21.7470065712        8.5041639138  LPSA6     1               0.0000000000
      5741       181  ECLIPA    C57             1.8010339943      -19.9433422173        7.4033205776  LPSA6     1               0.0000000000
      5742       181  ECLIPA    H57R            2.8309425943      -19.5915846709        7.1803563641  LPSA6     1               0.0000000000
      5743       181  ECLIPA    H57S            1.1692758157      -19.0366102741        7.5431813495  LPSA6     1               0.0000000000
      5744       181  ECLIPA    C58             1.2206298961      -20.7778699888        6.2411046994  LPSA6     1               0.0000000000
      5745       181  ECLIPA    H58R            1.6544338198      -21.7994531913        6.2161475689  LPSA6     1               0.0000000000
      5746       181  ECLIPA    H58S            0.1374546061      -20.9241493476        6.4602013141  LPSA6     1               0.0000000000
      5747       181  ECLIPA    C59             1.4503557770      -20.1134364242        4.8716089051  LPSA6     1               0.0000000000
      5748       181  ECLIPA    H59R            2.5397665820      -19.9334609464        4.7167698335  LPSA6     1               0.0000000000
      5749       181  ECLIPA    H59S            0.9593845681      -19.1190564164        4.9586584665  LPSA6     1               0.0000000000
      5750       181  ECLIPA    C510            0.9936132688      -20.9530289080        3.6512801219  LPSA6     1               0.0000000000
      5751       181  ECLIPA    H510R          -0.0138236982      -21.3844621743        3.8265772713  LPSA6     1               0.0000000000
      5752       181  ECLIPA    H510S           1.7048985585      -21.8013412994        3.5191674479  LPSA6     1               0.0000000000
      5753       181  ECLIPA    C511            0.9392439186      -20.1908445153        2.3170857466  LPSA6     1               0.0000000000
      5754       181  ECLIPA    H511R           0.0172968463      -19.5818520093        2.3058460103  LPSA6     1               0.0000000000
      5755       181  ECLIPA    H511S           1.8141203857      -19.5051880476        2.2188294641  LPSA6     1               0.0000000000
      5756       181  ECLIPA    C512            0.8996550895      -21.0920867428        1.0742131387  LPSA6     1               0.0000000000
      5757       181  ECLIPA    H512R           1.1552361831      -20.4845886337        0.1759128078  LPSA6     1               0.0000000000
      5758       181  ECLIPA    H512S           1.6687646502      -21.8643409506        1.2395267601  LPSA6     1               0.0000000000
      5759       181  ECLIPA    C513           -0.4491278722      -21.7186635366        0.7111353008  LPSA6     1               0.0000000000
      5760       181  ECLIPA    H513R          -1.1703581854      -20.9485371228        0.5991720400  LPSA6     1               0.0000000000
      5761       181  ECLIPA    H513S          -0.8328751927      -22.3720353110        1.5045292447  LPSA6     1               0.0000000000
      5762       181  ECLIPA    C514           -0.5628727807      -22.4354361085       -0.6145337465  LPSA6     1               0.0000000000
      5763       181  ECLIPA    H514R           0.0387832624      -23.2841876803       -0.5278667109  LPSA6     1               0.0000000000
      5764       181  ECLIPA    H514S          -1.4864231615      -22.9903408710       -0.7780671813  LPSA6     1               0.0000000000
      5765       181  ECLIPA    H514T          -0.2810008463      -21.8269870333       -1.5076469527  LPSA6     1               0.0000000000
      5766       181  ECLIPA    C33            -3.9901956948      -22.2460446651       14.4585810370  LPSA6     1               0.0000000000
      5767       181  ECLIPA    H33R           -4.6688259210      -23.0332272691       14.8695245347  LPSA6     1               0.0000000000
      5768       181  ECLIPA    O33            -2.9946191813      -22.0150043650       15.4320348156  LPSA6     1               0.0000000000
      5769       181  ECLIPA    HO33           -3.3412127457      -21.9841238525       16.3269624983  LPSA6     1               0.0000000000
      5770       181  ECLIPA    C34            -3.3018618793      -22.8176687812       13.1963018500  LPSA6     1               0.0000000000
      5771       181  ECLIPA    H34R           -2.5898069919      -22.0560211655       12.8148120900  LPSA6     1               0.0000000000
      5772       181  ECLIPA    H34S           -4.0636300879      -22.9779184747       12.4054328550  LPSA6     1               0.0000000000
      5773       181  ECLIPA    C35            -2.5362384207      -24.1484266379       13.4350924410  LPSA6     1               0.0000000000
      5774       181  ECLIPA    H35R           -3.2370594907      -24.9463365544       13.7514906243  LPSA6     1               0.0000000000
      5775       181  ECLIPA    H35S           -1.8029877614      -23.9839623612       14.2594920869  LPSA6     1               0.0000000000
      5776       181  ECLIPA    C36            -1.7654475213      -24.6455088857       12.2020019209  LPSA6     1               0.0000000000
      5777       181  ECLIPA    H36R           -1.4811360559      -23.7208563914       11.6668621883  LPSA6     1               0.0000000000
      5778       181  ECLIPA    H36S           -2.4106885079      -25.2551534933       11.5251283305  LPSA6     1               0.0000000000
      5779       181  ECLIPA    C37            -0.4572795116      -25.3970756349       12.5235030287  LPSA6     1               0.0000000000
      5780       181  ECLIPA    H37R           -0.7053971684      -26.4722679724       12.6719450208  LPSA6     1               0.0000000000
      5781       181  ECLIPA    H37S           -0.0485368134      -25.0249521657       13.4889240969  LPSA6     1               0.0000000000
      5782       181  ECLIPA    C38             0.6387127331      -25.2790937032       11.4351987514  LPSA6     1               0.0000000000
      5783       181  ECLIPA    H38R            1.1254807865      -24.2797583583       11.4313330917  LPSA6     1               0.0000000000
      5784       181  ECLIPA    H38S            1.4415654313      -26.0105086516       11.6827494693  LPSA6     1               0.0000000000
      5785       181  ECLIPA    C39             0.0853463194      -25.5292160241       10.0234087834  LPSA6     1               0.0000000000
      5786       181  ECLIPA    H39R           -0.7594056870      -24.8321719061        9.8220763232  LPSA6     1               0.0000000000
      5787       181  ECLIPA    H39S           -0.2783476249      -26.5813630299        9.9806833252  LPSA6     1               0.0000000000
      5788       181  ECLIPA    C310            1.0818785475      -25.3602787799        8.8726711373  LPSA6     1               0.0000000000
      5789       181  ECLIPA    H310R           1.7921708827      -26.2137303029        8.9636977864  LPSA6     1               0.0000000000
      5790       181  ECLIPA    H310S           1.6509727963      -24.4108034484        8.9583098669  LPSA6     1               0.0000000000
      5791       181  ECLIPA    C311            0.3579709601      -25.2724796942        7.5149326703  LPSA6     1               0.0000000000
      5792       181  ECLIPA    H311R          -0.5435105165      -25.9244937047        7.5273082258  LPSA6     1               0.0000000000
      5793       181  ECLIPA    H311S           0.0036723513      -24.2256490229        7.3646139432  LPSA6     1               0.0000000000
      5794       181  ECLIPA    C312            1.2376662622      -25.5976226528        6.3020951986  LPSA6     1               0.0000000000
      5795       181  ECLIPA    H312R           2.2756961107      -25.2471582747        6.4888488598  LPSA6     1               0.0000000000
      5796       181  ECLIPA    H312S           1.2549033242      -26.7034616894        6.1811404012  LPSA6     1               0.0000000000
      5797       181  ECLIPA    C313            0.7048854825      -24.9623758106        5.0046462444  LPSA6     1               0.0000000000
      5798       181  ECLIPA    H313R          -0.2192082380      -25.5266883205        4.7488415834  LPSA6     1               0.0000000000
      5799       181  ECLIPA    H313S           0.4144945840      -23.8988741714        5.1749453325  LPSA6     1               0.0000000000
      5800       181  ECLIPA    C314            1.6716091109      -25.0280515543        3.8182661496  LPSA6     1               0.0000000000
      5801       181  ECLIPA    H314R           1.9173142752      -26.0875880385        3.5973736091  LPSA6     1               0.0000000000
      5802       181  ECLIPA    H314S           1.2247151673      -24.5759324546        2.9048263690  LPSA6     1               0.0000000000
      5803       181  ECLIPA    H314T           2.6125315723      -24.4826237047        4.0452673034  LPSA6     1               0.0000000000
      5804       181  ECLIPA    C11            -1.4117000940      -16.9776168238       11.2542189573  LPSA6     1               0.0000000000
      5805       181  ECLIPA    O11            -0.2633134449      -17.3698150586       11.0958741893  LPSA6     1               0.0000000000
      5806       181  ECLIPA    C12            -1.9907388747      -15.9394749607       10.3271655673  LPSA6     1               0.0000000000
      5807       181  ECLIPA    H12R           -1.5388876459      -14.9543216422       10.5517480790  LPSA6     1               0.0000000000
      5808       181  ECLIPA    H12S           -3.0846149920      -15.8932496481       10.5127104698  LPSA6     1               0.0000000000
      5809       181  ECLIPA    C13            -1.7764082080      -16.2806485776        8.8543544975  LPSA6     1               0.0000000000
      5810       181  ECLIPA    H13R           -0.7450551333      -16.6520279676        8.6433580935  LPSA6     1               0.0000000000
      5811       181  ECLIPA    O13            -1.9682293562      -15.0749354276        8.1231075721  LPSA6     1               0.0000000000
      5812       181  ECLIPA    HO13           -1.4903788904      -15.0272606512        7.2904697654  LPSA6     1               0.0000000000
      5813       181  ECLIPA    C14            -2.7985495547      -17.3568996954        8.4405894535  LPSA6     1               0.0000000000
      5814       181  ECLIPA    H14R           -3.7684221998      -17.1844609811        8.9592954941  LPSA6     1               0.0000000000
      5815       181  ECLIPA    H14S           -2.3806744409      -18.3291170027        8.7788639565  LPSA6     1               0.0000000000
      5816       181  ECLIPA    C15            -3.0788195410      -17.4822158243        6.9507656501  LPSA6     1               0.0000000000
      5817       181  ECLIPA    H15R           -3.4127631563      -16.4910200850        6.5737797894  LPSA6     1               0.0000000000
      5818       181  ECLIPA    H15S           -3.9368528559      -18.1793538505        6.8251199535  LPSA6     1               0.0000000000
      5819       181  ECLIPA    C16            -1.8525828170      -17.9959205001        6.1925949985  LPSA6     1               0.0000000000
      5820       181  ECLIPA    H16R           -1.7669935926      -19.0962152354        6.2809668303  LPSA6     1               0.0000000000
      5821       181  ECLIPA    H16S           -0.9328203825      -17.5763000080        6.6526957075  LPSA6     1               0.0000000000
      5822       181  ECLIPA    C17            -1.9451876628      -17.6126697332        4.7300809457  LPSA6     1               0.0000000000
      5823       181  ECLIPA    H17R           -2.9848619512      -17.8201982784        4.4025124893  LPSA6     1               0.0000000000
      5824       181  ECLIPA    H17S           -1.2652479068      -18.2211886943        4.0924021041  LPSA6     1               0.0000000000
      5825       181  ECLIPA    C18            -1.6794068920      -16.1203615867        4.5720700865  LPSA6     1               0.0000000000
      5826       181  ECLIPA    H18R           -2.3586214906      -15.5402133835        5.2057243884  LPSA6     1               0.0000000000
      5827       181  ECLIPA    H18S           -0.6096539640      -15.8910411141        4.8184542427  LPSA6     1               0.0000000000
      5828       181  ECLIPA    C19            -2.0942097164      -15.5775446758        3.2367845720  LPSA6     1               0.0000000000
      5829       181  ECLIPA    H19R           -1.8296542042      -14.5207857026        3.0447926330  LPSA6     1               0.0000000000
      5830       181  ECLIPA    H19S           -2.9954791281      -15.9909308927        2.7471005534  LPSA6     1               0.0000000000
      5831       181  ECLIPA    C110           -1.2334644582      -16.0184343159        2.3554849731  LPSA6     1               0.0000000000
      5832       181  ECLIPA    H110R          -0.2264950214      -16.1361120880        2.9168096381  LPSA6     1               0.0000000000
      5833       181  ECLIPA    H110S          -1.0658172621      -17.1718535930        2.4955317313  LPSA6     1               0.0000000000
      5834       181  ECLIPA    C111           -1.3532233876      -15.1871804513        0.5204536926  LPSA6     1               0.0000000000
      5835       181  ECLIPA    H111R          -2.3179598166      -15.5003042070        0.4464127262  LPSA6     1               0.0000000000
      5836       181  ECLIPA    H111S          -1.3579727778      -14.1898963682        0.6987271881  LPSA6     1               0.0000000000
      5837       181  ECLIPA    C112            0.0350558598      -15.9408755514       -1.0184628732  LPSA6     1               0.0000000000
      5838       181  ECLIPA    H112R           1.1822388836      -16.2858828104       -0.8731272913  LPSA6     1               0.0000000000
      5839       181  ECLIPA    H112S           0.6755095226      -16.9496281710       -0.6823382414  LPSA6     1               0.0000000000
      5840       181  ECLIPA    C113           -0.4119284083      -15.9150252354       -2.1485561578  LPSA6     1               0.0000000000
      5841       181  ECLIPA    H113R          -1.3903114532      -16.2541105573       -2.2250935059  LPSA6     1               0.0000000000
      5842       181  ECLIPA    H113S          -0.4701449315      -14.8229127762       -2.0316427489  LPSA6     1               0.0000000000
      5843       181  ECLIPA    C114            0.5048830861      -16.6046372185       -2.9915512178  LPSA6     1               0.0000000000
      5844       181  ECLIPA    H114R           1.5160303238      -16.6662447383       -2.7010189326  LPSA6     1               0.0000000000
      5845       181  ECLIPA    H114S           0.7857900821      -17.6117222180       -3.2262967588  LPSA6     1               0.0000000000
      5846       181  ECLIPA    H114T           0.2173331280      -16.0875094898       -3.9264223895  LPSA6     1               0.0000000000
      5847       182  AKDO      C1              1.4147424469      -22.4440904429       22.4295818811  LPSA6     2               0.0000000000
      5848       182  AKDO      O11             2.3903143044      -23.2354377285       22.4388267743  LPSA6     2               0.0000000000
      5849       182  AKDO      O12             0.2276377149      -22.7133165496       22.0894475174  LPSA6     2               0.0000000000
      5850       182  AKDO      C2              1.6705088419      -20.9712102762       22.8798168168  LPSA6     2               0.0000000000
      5851       182  AKDO      C6              3.3116878249      -19.5025882075       23.8631177658  LPSA6     2               0.0000000000
      5852       182  AKDO      H6              3.1501487931      -18.8691363652       22.9541838179  LPSA6     2               0.0000000000
      5853       182  AKDO      O6              2.9914445342      -20.8494190475       23.4686953747  LPSA6     2               0.0000000000
      5854       182  AKDO      C3              0.6697015909      -20.4739147783       23.9276570068  LPSA6     2               0.0000000000
      5855       182  AKDO      H31             0.6488757973      -21.1791583136       24.7890943153  LPSA6     2               0.0000000000
      5856       182  AKDO      H32            -0.3386282589      -20.4676269696       23.4535782473  LPSA6     2               0.0000000000
      5857       182  AKDO      C4              0.9727526190      -19.0778444197       24.3695147657  LPSA6     2               0.0000000000
      5858       182  AKDO      H4              0.9884569275      -18.4010897322       23.4839406638  LPSA6     2               0.0000000000
      5859       182  AKDO      O4              0.0502520296      -18.6316704123       25.3691444847  LPSA6     2               0.0000000000
      5860       182  AKDO      C5              2.3573785126      -18.9948794638       24.9607581734  LPSA6     2               0.0000000000
      5861       182  AKDO      H5              2.5913668421      -17.9064259113       25.0808054148  LPSA6     2               0.0000000000
      5862       182  AKDO      O5              2.3273264003      -19.6797662409       26.2531984203  LPSA6     2               0.0000000000
      5863       182  AKDO      C7              4.8043128606      -19.3736739887       24.1687637636  LPSA6     2               0.0000000000
      5864       182  AKDO      H7              5.0163222279      -19.9675915489       25.0798269775  LPSA6     2               0.0000000000
      5865       182  AKDO      O7              5.1697450791      -17.9998485639       24.3767450484  LPSA6     2               0.0000000000
      5866       182  AKDO      HO7             5.2462343200      -17.6227074922       23.5103830477  LPSA6     2               0.0000000000
      5867       182  AKDO      C8              5.6374359240      -19.9228470135       23.0166963189  LPSA6     2               0.0000000000
      5868       182  AKDO      H81             5.3220000979      -20.9893439434       22.8604536859  LPSA6     2               0.0000000000
      5869       182  AKDO      H82             5.3728957049      -19.3687409051       22.0881882821  LPSA6     2               0.0000000000
      5870       182  AKDO      O8              7.0768049391      -19.8386475065       23.2192720623  LPSA6     2               0.0000000000
      5871       182  AKDO      HO8             7.3796815330      -20.7083415011       22.9202193690  LPSA6     2               0.0000000000
      5872       183  AKDO      C1             -1.1038382411      -17.1761829676       23.7987757916  LPSA6     3               1.0000000000
      5873       183  AKDO      O11            -1.4107359404      -17.6517444974       22.6660295952  LPSA6     3               1.0000000000
      5874       183  AKDO      O12            -0.5734945288      -16.0610059277       24.0705139248  LPSA6     3               1.0000000000
      5875       183  AKDO      C2             -1.2266800946      -18.1489158323       25.0077993380  LPSA6     3               1.0000000000
      5876       183  AKDO      C6             -2.2865170835      -20.1735093011       25.7900655421  LPSA6     3               1.0000000000
      5877       183  AKDO      H6             -1.2869702575      -20.6425819734       25.9774186156  LPSA6     3               1.0000000000
      5878       183  AKDO      O6             -2.1743944275      -19.2057954239       24.7248996208  LPSA6     3               1.0000000000
      5879       183  AKDO      C3             -1.6844032111      -17.4826134541       26.3194348879  LPSA6     3               1.0000000000
      5880       183  AKDO      H31            -2.6875609393      -17.0270669801       26.1549329171  LPSA6     3               1.0000000000
      5881       183  AKDO      H32            -0.9995385301      -16.6489639530       26.5814927666  LPSA6     3               1.0000000000
      5882       183  AKDO      C4             -1.7554428486      -18.4835810665       27.4260790900  LPSA6     3               1.0000000000
      5883       183  AKDO      H4             -0.7701337132      -19.0038335339       27.4828423549  LPSA6     3               1.0000000000
      5884       183  AKDO      O4             -2.0078838320      -17.8970258099       28.6913839079  LPSA6     3               1.0000000000
      5885       183  AKDO      HO4            -1.3389004019      -18.1833410386       29.3339976988  LPSA6     3               1.0000000000
      5886       183  AKDO      C5             -2.7830844554      -19.5048588898       27.0584012323  LPSA6     3               1.0000000000
      5887       183  AKDO      H5             -2.8393179657      -20.2421533746       27.8898965481  LPSA6     3               1.0000000000
      5888       183  AKDO      O5             -4.0818466055      -18.9345406855       26.8716292527  LPSA6     3               1.0000000000
      5889       183  AKDO      HO5            -3.9629164136      -18.2520916295       26.2022840926  LPSA6     3               1.0000000000
      5890       183  AKDO      C7             -3.2107932170      -21.2705874398       25.3495923433  LPSA6     3               1.0000000000
      5891       183  AKDO      H7             -4.2158010624      -20.8285647322       25.1331186127  LPSA6     3               1.0000000000
      5892       183  AKDO      O7             -3.3409315333      -22.2406158994       26.3957084862  LPSA6     3               1.0000000000
      5893       183  AKDO      HO7            -4.0359561279      -22.8442086521       26.1121520321  LPSA6     3               1.0000000000
      5894       183  AKDO      C8             -2.6451191610      -21.9195298178       24.1113125043  LPSA6     3               1.0000000000
      5895       183  AKDO      H81            -2.4600999184      -21.1541587360       23.3266963220  LPSA6     3               1.0000000000
      5896       183  AKDO      H82            -1.6771621762      -22.4293867087       24.3210763546  LPSA6     3               1.0000000000
      5897       183  AKDO      O8             -3.5945673391      -22.8478604795       23.5962761165  LPSA6     3               1.0000000000
      5898       183  AKDO      HO8            -4.2480637927      -22.2917180623       23.1735928748  LPSA6     3               1.0000000000
      5899       184  AHEP      C1              3.2092998929      -19.1894887899       27.2464287299  LPSA6     4               2.0000000000
      5900       184  AHEP      H1              4.2077368647      -19.5334492921       26.9049589985  LPSA6     4               2.0000000000
      5901       184  AHEP      C5              2.2123311459      -17.1259936115       27.9966243328  LPSA6     4               2.0000000000
      5902       184  AHEP      H5              1.2760333533      -17.4918311185       27.5127342131  LPSA6     4               2.0000000000
      5903       184  AHEP      O5              3.3066452737      -17.7608007027       27.3016115947  LPSA6     4               2.0000000000
      5904       184  AHEP      C2              3.1238351575      -19.7040399184       28.7038808560  LPSA6     4               2.0000000000
      5905       184  AHEP      H2              2.9785983387      -20.8017706649       28.6760412153  LPSA6     4               2.0000000000
      5906       184  AHEP      O2              4.3712205831      -19.5146253501       29.3596186609  LPSA6     4               2.0000000000
      5907       184  AHEP      HO2             4.5681565612      -20.2397344806       29.9391548255  LPSA6     4               2.0000000000
      5908       184  AHEP      C3              1.9752479982      -19.0988016176       29.4989152936  LPSA6     4               2.0000000000
      5909       184  AHEP      H3              0.9853764413      -19.4017163542       29.0965976651  LPSA6     4               2.0000000000
      5910       184  AHEP      O3              2.0714107589      -19.5033840707       30.8846926059  LPSA6     4               2.0000000000
      5911       184  AHEP      C4              2.1508446263      -17.5899639962       29.4586382965  LPSA6     4               2.0000000000
      5912       184  AHEP      H4              3.0894325607      -17.2639799457       29.9677744043  LPSA6     4               2.0000000000
      5913       184  AHEP      O4              0.9955568466      -17.0195542204       30.0643885321  LPSA6     4               2.0000000000
      5914       184  AHEP      P4              1.0795706875      -16.1956379680       31.5007467803  LPSA6     4               2.0000000000
      5915       184  AHEP      OP42           -0.2765232434      -16.5271806070       32.1061561576  LPSA6     4               2.0000000000
      5916       184  AHEP      OP43            1.1927920551      -14.7586768971       30.9857306377  LPSA6     4               2.0000000000
      5917       184  AHEP      OP44            2.2824062659      -16.7128889366       32.2868919870  LPSA6     4               2.0000000000
      5918       184  AHEP      C6              2.3274042741      -15.5942147479       27.7938199741  LPSA6     4               2.0000000000
      5919       184  AHEP      H6              1.3309756432      -15.1774386212       28.0774220875  LPSA6     4               2.0000000000
      5920       184  AHEP      O6              3.2996620708      -14.9213523571       28.6219569088  LPSA6     4               2.0000000000
      5921       184  AHEP      HO6             2.8671954061      -14.3841911854       29.3033841517  LPSA6     4               2.0000000000
      5922       184  AHEP      C7              2.6181790891      -15.1728014450       26.3414579537  LPSA6     4               2.0000000000
      5923       184  AHEP      H71             2.4269901297      -14.0921307025       26.2270861881  LPSA6     4               2.0000000000
      5924       184  AHEP      H72             1.9471430560      -15.7298530959       25.6478500671  LPSA6     4               2.0000000000
      5925       184  AHEP      O7              3.9679767245      -15.3649648985       25.8800038385  LPSA6     4               2.0000000000
      5926       184  AHEP      HO7             4.5041992570      -14.7286278085       26.3678996907  LPSA6     4               2.0000000000
      5927       185  AHEP      C1              0.9893132165      -20.1897007817       31.4634610394  LPSA6     5               3.0000000000
      5928       185  AHEP      H1              0.0286322738      -19.8883778956       30.9827955044  LPSA6     5               3.0000000000
      5929       185  AHEP      C5              2.3606785210      -22.0714027833       31.9528456421  LPSA6     5               3.0000000000
      5930       185  AHEP      H5              3.2205498707      -21.4586915723       31.5924189769  LPSA6     5               3.0000000000
      5931       185  AHEP      O5              1.1705527613      -21.6014017434       31.2836548513  LPSA6     5               3.0000000000
      5932       185  AHEP      C2              0.8799428284      -19.8992708403       32.9656288285  LPSA6     5               3.0000000000
      5933       185  AHEP      H2              0.8117158240      -18.7920962112       33.0879670001  LPSA6     5               3.0000000000
      5934       185  AHEP      O2             -0.3384484118      -20.4705854787       33.4750102117  LPSA6     5               3.0000000000
      5935       185  AHEP      HO2            -0.9795918008      -19.7720957906       33.6347547910  LPSA6     5               3.0000000000
      5936       185  AHEP      C3              2.1239481587      -20.3713166357       33.7268242576  LPSA6     5               3.0000000000
      5937       185  AHEP      H3              3.0094070313      -19.8263040208       33.3136120783  LPSA6     5               3.0000000000
      5938       185  AHEP      O3              2.0789519977      -20.1734631383       35.1604036641  LPSA6     5               3.0000000000
      5939       185  AHEP      C4              2.2756914532      -21.8535221741       33.4619616121  LPSA6     5               3.0000000000
      5940       185  AHEP      H4              1.3832296380      -22.4131965765       33.8432433322  LPSA6     5               3.0000000000
      5941       185  AHEP      O4              3.5066559811      -22.2938161301       34.0493429059  LPSA6     5               3.0000000000
      5942       185  AHEP      P4              3.4626289250      -23.3915341027       35.3066502826  LPSA6     5               3.0000000000
      5943       185  AHEP      OP42            4.8983509387      -23.4151291620       35.8104496343  LPSA6     5               3.0000000000
      5944       185  AHEP      OP43            3.0867681940      -24.7288162195       34.6798801794  LPSA6     5               3.0000000000
      5945       185  AHEP      OP44            2.4479764522      -22.8757829940       36.3252881001  LPSA6     5               3.0000000000
      5946       185  AHEP      C6              2.6278312321      -23.5143385907       31.5381658878  LPSA6     5               3.0000000000
      5947       185  AHEP      H6              3.5612070614      -23.7824750805       32.0185969793  LPSA6     5               3.0000000000
      5948       185  AHEP      O6              1.6417729002      -24.4424376868       32.0087980568  LPSA6     5               3.0000000000
      5949       185  AHEP      HO6             0.8532563584      -24.3631371331       31.4909495234  LPSA6     5               3.0000000000
      5950       185  AHEP      C7              2.8908485967      -23.6629324358       30.0563757904  LPSA6     5               3.0000000000
      5951       185  AHEP      H71             3.6960574097      -24.4268865057       29.9277599176  LPSA6     5               3.0000000000
      5952       185  AHEP      H72             3.2887694617      -22.7310386795       29.6036195025  LPSA6     5               3.0000000000
      5953       185  AHEP      O7              1.7334217104      -24.1770316983       29.4043871590  LPSA6     5               3.0000000000
      5954       186  AHEP      C1              0.9770952700      -23.1869645100       28.7763188277  LPSA6     6               4.0000000000
      5955       186  AHEP      H1              1.3424754275      -22.1698604738       29.0248090346  LPSA6     6               4.0000000000
      5956       186  AHEP      C5              0.6239174097      -24.6409597553       26.9565930997  LPSA6     6               4.0000000000
      5957       186  AHEP      H5              1.1981721219      -25.4115899444       27.5248398018  LPSA6     6               4.0000000000
      5958       186  AHEP      O5              1.1043266428      -23.3483021735       27.3670951632  LPSA6     6               4.0000000000
      5959       186  AHEP      C2             -0.4707375622      -23.2888444118       29.2166735664  LPSA6     6               4.0000000000
      5960       186  AHEP      H2             -0.4749287353      -23.1804897192       30.3283770267  LPSA6     6               4.0000000000
      5961       186  AHEP      O2             -1.2032843791      -22.1746190626       28.7267786118  LPSA6     6               4.0000000000
      5962       186  AHEP      HO2            -1.4335261208      -21.6105892795       29.4627719955  LPSA6     6               4.0000000000
      5963       186  AHEP      C3             -1.0262458082      -24.6617625746       28.8263169373  LPSA6     6               4.0000000000
      5964       186  AHEP      H3             -0.4294045180      -25.4234324545       29.3750750358  LPSA6     6               4.0000000000
      5965       186  AHEP      O3             -2.4131498884      -24.8641460387       29.1683739327  LPSA6     6               4.0000000000
      5966       186  AHEP      HO3            -2.5540757997      -25.2902362994       30.0111259591  LPSA6     6               4.0000000000
      5967       186  AHEP      C4             -0.8463081344      -24.8246313955       27.3223416099  LPSA6     6               4.0000000000
      5968       186  AHEP      H4             -1.4755083525      -24.0756945681       26.7868335138  LPSA6     6               4.0000000000
      5969       186  AHEP      O4             -1.2255111759      -26.1338319945       26.8837289730  LPSA6     6               4.0000000000
      5970       186  AHEP      HO4            -0.5755604609      -26.7398597560       27.2036076750  LPSA6     6               4.0000000000
      5971       186  AHEP      C6              0.9536068552      -24.9467146506       25.5006026400  LPSA6     6               4.0000000000
      5972       186  AHEP      H6              0.6880359516      -26.0114630246       25.3386609476  LPSA6     6               4.0000000000
      5973       186  AHEP      O6              0.1214307631      -24.2895328090       24.5601394338  LPSA6     6               4.0000000000
      5974       186  AHEP      HO6             0.6124379475      -23.6353692346       24.0234181245  LPSA6     6               4.0000000000
      5975       186  AHEP      C7              2.4366082231      -24.8702438344       25.1829032917  LPSA6     6               4.0000000000
      5976       186  AHEP      H71             2.6000668526      -25.2278213159       24.1416007352  LPSA6     6               4.0000000000
      5977       186  AHEP      H72             2.9842389799      -25.5087182083       25.9014487342  LPSA6     6               4.0000000000
      5978       186  AHEP      O7              3.0364458735      -23.5936695977       25.2767213101  LPSA6     6               4.0000000000
      5979       186  AHEP      HO7             3.1074378468      -23.3345165888       26.1980338376  LPSA6     6               4.0000000000
      5980       187  AGLC      C1              2.6340993829      -18.9803547869       35.6543195584  LPSA6     7               4.0000000000
      5981       187  AGLC      H1              3.6054785142      -18.7496248772       35.1611671282  LPSA6     7               4.0000000000
      5982       187  AGLC      C5              0.4716901207      -18.0511919306       36.0939326095  LPSA6     7               4.0000000000
      5983       187  AGLC      H5              0.0134310736      -19.0293949091       35.8174497127  LPSA6     7               4.0000000000
      5984       187  AGLC      O5              1.7407186682      -17.9030937098       35.4305101562  LPSA6     7               4.0000000000
      5985       187  AGLC      C2              2.8805859402      -18.9644593170       37.1658363523  LPSA6     7               4.0000000000
      5986       187  AGLC      H2              3.1757018654      -17.9250969918       37.4311829156  LPSA6     7               4.0000000000
      5987       187  AGLC      O2              3.9870805922      -19.7504565823       37.5728203339  LPSA6     7               4.0000000000
      5988       187  AGLC      HO2             3.7022276114      -20.6886782315       37.5539937594  LPSA6     7               4.0000000000
      5989       187  AGLC      C3              1.6338978170      -19.2178701274       37.9706486015  LPSA6     7               4.0000000000
      5990       187  AGLC      H3              1.1865607034      -20.1715621972       37.6059067404  LPSA6     7               4.0000000000
      5991       187  AGLC      O3              1.8920999955      -19.3450976367       39.3993041030  LPSA6     7               4.0000000000
      5992       187  AGLC      C4              0.6950672779      -18.0730509368       37.6080433784  LPSA6     7               4.0000000000
      5993       187  AGLC      H4              1.1558190028      -17.0975069825       37.9232275008  LPSA6     7               4.0000000000
      5994       187  AGLC      O4             -0.5440116927      -18.2688126977       38.2715761355  LPSA6     7               4.0000000000
      5995       187  AGLC      HO4            -0.8721758832      -17.4536614491       38.6672989822  LPSA6     7               4.0000000000
      5996       187  AGLC      C6             -0.4600675523      -16.9933170421       35.5085234093  LPSA6     7               4.0000000000
      5997       187  AGLC      H61            -0.5166009757      -17.1511164208       34.4040147716  LPSA6     7               4.0000000000
      5998       187  AGLC      H62            -1.5024451481      -17.0795113787       35.8876097437  LPSA6     7               4.0000000000
      5999       187  AGLC      O6              0.0007636168      -15.6644605220       35.7421533584  LPSA6     7               4.0000000000
      6000       187  AGLC      HO6            -0.4126797559      -15.3355580360       36.5168985305  LPSA6     7               4.0000000000
      6001       188  AGLC      C1              1.5079159118      -20.6091683067       39.9231998958  LPSA6     8               5.0000000000
      6002       188  AGLC      H1              0.5211327599      -20.9066053625       39.5049124930  LPSA6     8               5.0000000000
      6003       188  AGLC      C5              3.7641259208      -21.5522496651       40.2166276106  LPSA6     8               5.0000000000
      6004       188  AGLC      H5              4.1881295225      -20.5876922048       39.8802345363  LPSA6     8               5.0000000000
      6005       188  AGLC      O5              2.4541327123      -21.6570410864       39.6046798907  LPSA6     8               5.0000000000
      6006       188  AGLC      C2              1.3403331896      -20.6006947728       41.4347661304  LPSA6     8               5.0000000000
      6007       188  AGLC      H2              0.9588691128      -21.6099362163       41.7008821159  LPSA6     8               5.0000000000
      6008       188  AGLC      O2              0.3912796466      -19.6575296747       41.9475462435  LPSA6     8               5.0000000000
      6009       188  AGLC      C3              2.6593635655      -20.3931197231       42.1250423560  LPSA6     8               5.0000000000
      6010       188  AGLC      H3              3.0716454569      -19.4290107321       41.7223484166  LPSA6     8               5.0000000000
      6011       188  AGLC      O3              2.4076619661      -20.2327586641       43.5396588821  LPSA6     8               5.0000000000
      6012       188  AGLC      C4              3.5718656357      -21.5307285510       41.7298083892  LPSA6     8               5.0000000000
      6013       188  AGLC      H4              3.0782537063      -22.4878559101       42.0303223181  LPSA6     8               5.0000000000
      6014       188  AGLC      O4              4.8188688908      -21.4549526268       42.4105214301  LPSA6     8               5.0000000000
      6015       188  AGLC      HO4             5.1325586583      -20.5500421533       42.4030613380  LPSA6     8               5.0000000000
      6016       188  AGLC      C6              4.7758246428      -22.6190595693       39.7444035731  LPSA6     8               5.0000000000
      6017       188  AGLC      H61             4.7855788738      -22.7337716125       38.6319731112  LPSA6     8               5.0000000000
      6018       188  AGLC      H62             5.8163324087      -22.3131791827       40.0160292289  LPSA6     8               5.0000000000
      6019       188  AGLC      O6              4.5562005499      -23.8889972173       40.3652127846  LPSA6     8               5.0000000000
      6020       188  AGLC      HO6             5.0359330532      -23.9024651383       41.1887199409  LPSA6     8               5.0000000000
      6021       189  AGAL      C1             -0.9137298151      -19.6967902529       41.4287606851  LPSA6     9               6.0000000000
      6022       189  AGAL      H1             -0.8983218772      -19.7193871249       40.3227931364  LPSA6     9               6.0000000000
      6023       189  AGAL      C5             -1.8829508082      -20.8271290554       43.2772353521  LPSA6     9               6.0000000000
      6024       189  AGAL      H5             -0.8807666016      -20.6747357995       43.7428089124  LPSA6     9               6.0000000000
      6025       189  AGAL      O5             -1.6671593834      -20.8487829919       41.8592155271  LPSA6     9               6.0000000000
      6026       189  AGAL      C2             -1.6051962294      -18.4008304496       41.8340810517  LPSA6     9               6.0000000000
      6027       189  AGAL      H2             -2.6121305683      -18.4295436802       41.3649146772  LPSA6     9               6.0000000000
      6028       189  AGAL      O2             -0.8705762942      -17.3186791399       41.2035244539  LPSA6     9               6.0000000000
      6029       189  AGAL      C3             -1.8337749731      -18.3557246620       43.3321883503  LPSA6     9               6.0000000000
      6030       189  AGAL      H3             -0.8662839354      -18.3770768927       43.8864673451  LPSA6     9               6.0000000000
      6031       189  AGAL      O3             -2.4688735683      -17.1481049244       43.7125627732  LPSA6     9               6.0000000000
      6032       189  AGAL      HO3            -2.0389349127      -16.4610384485       43.1868923498  LPSA6     9               6.0000000000
      6033       189  AGAL      C4             -2.6737972978      -19.5851935088       43.6866285164  LPSA6     9               6.0000000000
      6034       189  AGAL      H4             -2.8354470358      -19.6216671208       44.7869604549  LPSA6     9               6.0000000000
      6035       189  AGAL      O4             -3.9589208797      -19.5574827543       43.0671598567  LPSA6     9               6.0000000000
      6036       189  AGAL      HO4            -4.5448698556      -20.1236543763       43.5757584197  LPSA6     9               6.0000000000
      6037       189  AGAL      C6             -2.3738888582      -22.1680631875       43.8430432976  LPSA6     9               6.0000000000
      6038       189  AGAL      H61            -1.6265420350      -22.9558842533       43.6121472115  LPSA6     9               6.0000000000
      6039       189  AGAL      H62            -2.4345472583      -22.0605403892       44.9446270581  LPSA6     9               6.0000000000
      6040       189  AGAL      O6             -3.6354725869      -22.6801008490       43.4102332481  LPSA6     9               6.0000000000
      6041       189  AGAL      HO6            -3.4893177858      -23.1441405420       42.5751161767  LPSA6     9               6.0000000000
      6042       190  AGAL      C1             -0.6308428918      -16.0297226946       41.7575595906  LPSA6     10              7.0000000000
      6043       190  AGAL      H1             -1.5918499327      -15.4642770692       41.8401787015  LPSA6     10              7.0000000000
      6044       190  AGAL      C5              1.3495694281      -16.6002407160       43.0457246601  LPSA6     10              7.0000000000
      6045       190  AGAL      H5              1.1991782963      -17.6265962375       42.6482441482  LPSA6     10              7.0000000000
      6046       190  AGAL      O5              0.0256633911      -16.0243467404       43.0506837052  LPSA6     10              7.0000000000
      6047       190  AGAL      C2              0.2457945829      -15.2893369683       40.7647319239  LPSA6     10              7.0000000000
      6048       190  AGAL      H2              0.3707147239      -14.2456337122       41.1292767347  LPSA6     10              7.0000000000
      6049       190  AGAL      O2             -0.3745650616      -15.1129380512       39.4945629489  LPSA6     10              7.0000000000
      6050       190  AGAL      HO2            -0.1737622636      -14.1835907337       39.3152621464  LPSA6     10              7.0000000000
      6051       190  AGAL      C3              1.6177499368      -15.9547952724       40.7045739388  LPSA6     10              7.0000000000
      6052       190  AGAL      H3              1.4701834705      -17.0299571325       40.4506217712  LPSA6     10              7.0000000000
      6053       190  AGAL      O3              2.4521662253      -15.4056677184       39.6955847782  LPSA6     10              7.0000000000
      6054       190  AGAL      HO3             2.6212038669      -16.0487636027       39.0088615585  LPSA6     10              7.0000000000
      6055       190  AGAL      C4              2.2569930412      -15.8769858925       42.0744751737  LPSA6     10              7.0000000000
      6056       190  AGAL      H4              3.2444385820      -16.3974053605       42.0790414477  LPSA6     10              7.0000000000
      6057       190  AGAL      O4              2.4520706298      -14.5256221514       42.4726289531  LPSA6     10              7.0000000000
      6058       190  AGAL      HO4             1.5778744865      -14.1414441354       42.6042073319  LPSA6     10              7.0000000000
      6059       190  AGAL      C6              1.9908976666      -16.8303050816       44.4286443239  LPSA6     10              7.0000000000
      6060       190  AGAL      H61             1.2460510194      -17.3110922825       45.0916833013  LPSA6     10              7.0000000000
      6061       190  AGAL      H62             2.8262053856      -17.5552226241       44.2733010575  LPSA6     10              7.0000000000
      6062       190  AGAL      O6              2.5255796571      -15.6951532360       45.1322281611  LPSA6     10              7.0000000000
      6063       190  AGAL      HO6             1.9967621936      -15.5514408422       45.9076969474  LPSA6     10              7.0000000000
      6064       191  BGLC      C1              2.4994357030      -21.3031518584       44.4792837658  LPSA6     11              6.0000000000
      6065       191  BGLC      H1              3.5708128143      -21.5631647788       44.6256458395  LPSA6     11              6.0000000000
      6066       191  BGLC      C5              1.6993240999      -23.5247043793       45.1192903065  LPSA6     11              6.0000000000
      6067       191  BGLC      H5              2.7269055916      -23.8862925059       45.3530969905  LPSA6     11              6.0000000000
      6068       191  BGLC      O5              1.6926473865      -22.4556099932       44.1227397717  LPSA6     11              6.0000000000
      6069       191  BGLC      C2              1.9474301615      -20.7399163698       45.7900733638  LPSA6     11              6.0000000000
      6070       191  BGLC      H2              0.8947032921      -20.4020828023       45.6366292464  LPSA6     11              6.0000000000
      6071       191  BGLC      O2              2.6707766051      -19.5991591315       46.2065532773  LPSA6     11              6.0000000000
      6072       191  BGLC      HO2             2.1053764849      -18.8383986323       46.2630415950  LPSA6     11              6.0000000000
      6073       191  BGLC      C3              1.9397087704      -21.7506397635       46.9057552021  LPSA6     11              6.0000000000
      6074       191  BGLC      H3              2.9762269934      -22.0521765754       47.1760625427  LPSA6     11              6.0000000000
      6075       191  BGLC      O3              1.2500837706      -21.1757039918       48.0454884920  LPSA6     11              6.0000000000
      6076       191  BGLC      C4              1.1333666159      -22.9303461711       46.4266693081  LPSA6     11              6.0000000000
      6077       191  BGLC      H4              0.1319780696      -22.5089708390       46.1932322389  LPSA6     11              6.0000000000
      6078       191  BGLC      O4              1.0216414828      -23.8912129757       47.4746442872  LPSA6     11              6.0000000000
      6079       191  BGLC      HO4             0.3728798123      -23.5476436400       48.1131814502  LPSA6     11              6.0000000000
      6080       191  BGLC      C6              0.9480576086      -24.7307381797       44.5193463596  LPSA6     11              6.0000000000
      6081       191  BGLC      H61             0.5884444400      -25.4387445141       45.2951076581  LPSA6     11              6.0000000000
      6082       191  BGLC      H62             0.0795702627      -24.3770502169       43.9283541299  LPSA6     11              6.0000000000
      6083       191  BGLC      O6              1.7321894861      -25.4980322951       43.6102668362  LPSA6     11              6.0000000000
      6084       191  BGLC      HO6             1.9926968238      -26.3635390332       43.9715366699  LPSA6     11              6.0000000000
      6085       192  BGLCNA    C1              1.8839690945      -21.1882198000       49.3141503121  LPSA6     12              7.0000000000
      6086       192  BGLCNA    H1              2.5798286441      -20.3203600434       49.3748746079  LPSA6     12              7.0000000000
      6087       192  BGLCNA    C5              3.2415734517      -22.3509001534       50.8841991470  LPSA6     12              7.0000000000
      6088       192  BGLCNA    H5              3.9455034072      -21.4902115790       50.9554471794  LPSA6     12              7.0000000000
      6089       192  BGLCNA    O5              2.6110803926      -22.3810880654       49.5874770075  LPSA6     12              7.0000000000
      6090       192  BGLCNA    C2              0.7716552286      -21.0521797693       50.3503708679  LPSA6     12              7.0000000000
      6091       192  BGLCNA    H2              0.1820217022      -22.0096506615       50.3053663879  LPSA6     12              7.0000000000
      6092       192  BGLCNA    N              -0.0423531254      -19.9019109376       50.0421346218  LPSA6     12              7.0000000000
      6093       192  BGLCNA    HN              0.4595746147      -19.0568476788       49.9907805644  LPSA6     12              7.0000000000
      6094       192  BGLCNA    C              -1.3681191620      -19.9644080131       49.9125724062  LPSA6     12              7.0000000000
      6095       192  BGLCNA    O              -1.9914492133      -20.9869198303       50.1045985712  LPSA6     12              7.0000000000
      6096       192  BGLCNA    CT             -2.0938514401      -18.7001992656       49.5428269471  LPSA6     12              7.0000000000
      6097       192  BGLCNA    HT1            -2.6877960371      -18.3457709541       50.4082165476  LPSA6     12              7.0000000000
      6098       192  BGLCNA    HT2            -2.8046583606      -18.8900331397       48.7122472199  LPSA6     12              7.0000000000
      6099       192  BGLCNA    HT3            -1.3618223581      -17.9353953594       49.2385293207  LPSA6     12              7.0000000000
      6100       192  BGLCNA    C3              1.3295383502      -20.9560902480       51.7599910748  LPSA6     12              7.0000000000
      6101       192  BGLCNA    H3              1.9837000425      -20.0548735062       51.8043203819  LPSA6     12              7.0000000000
      6102       192  BGLCNA    O3              0.2868993028      -20.7793830904       52.7661726061  LPSA6     12              7.0000000000
      6103       192  BGLCNA    C4              2.1555323735      -22.2194335559       51.9625580093  LPSA6     12              7.0000000000
      6104       192  BGLCNA    H4              1.5013555013      -23.1226449656       51.8930853932  LPSA6     12              7.0000000000
      6105       192  BGLCNA    O4              2.7305935302      -22.2202101445       53.2572051217  LPSA6     12              7.0000000000
      6106       192  BGLCNA    HO4             3.4514915413      -21.5938831945       53.2912123817  LPSA6     12              7.0000000000
      6107       192  BGLCNA    C6              4.0681467927      -23.6168625610       50.9582856413  LPSA6     12              7.0000000000
      6108       192  BGLCNA    H61             4.6013471611      -23.7176772450       51.9274617252  LPSA6     12              7.0000000000
      6109       192  BGLCNA    H62             3.3864560218      -24.4842580709       50.8615496084  LPSA6     12              7.0000000000
      6110       192  BGLCNA    O6              5.0207996827      -23.6881822296       49.8968666187  LPSA6     12              7.0000000000
      6111       192  BGLCNA    HO6             5.8408156136      -23.2519163244       50.1491868257  LPSA6     12              7.0000000000
      6112       193  AGAL      C1              0.6025503802      -19.8912294619       53.8403924802  LPSA6     13              8.0000000000
      6113       193  AGAL      H1              1.6625425651      -20.0519332943       54.1512189621  LPSA6     13              8.0000000000
      6114       193  AGAL      C5             -1.0347779481      -18.2149819102       53.2766028111  LPSA6     13              8.0000000000
      6115       193  AGAL      H5             -1.3792006057      -18.9870701063       52.5482674540  LPSA6     13              8.0000000000
      6116       193  AGAL      O5              0.3665772286      -18.5105589788       53.4830299343  LPSA6     13              8.0000000000
      6117       193  AGAL      C2             -0.2289277867      -20.1034843222       55.1077897765  LPSA6     13              8.0000000000
      6118       193  AGAL      H2              0.0808409091      -19.2821131819       55.7994453923  LPSA6     13              8.0000000000
      6119       193  AGAL      O2              0.1096367336      -21.3448130110       55.7440865342  LPSA6     13              8.0000000000
      6120       193  AGAL      C3             -1.7160572266      -19.8612742667       54.8997173309  LPSA6     13              8.0000000000
      6121       193  AGAL      H3             -2.0499862465      -20.4648839958       54.0249384511  LPSA6     13              8.0000000000
      6122       193  AGAL      O3             -2.5171025457      -20.2539809721       56.0127982294  LPSA6     13              8.0000000000
      6123       193  AGAL      HO3            -3.3162722228      -20.7261027339       55.7390265668  LPSA6     13              8.0000000000
      6124       193  AGAL      C4             -1.8892542865      -18.4104891034       54.5237034807  LPSA6     13              8.0000000000
      6125       193  AGAL      H4             -2.9561481081      -18.2489997887       54.2346917395  LPSA6     13              8.0000000000
      6126       193  AGAL      O4             -1.5948106163      -17.4925183474       55.5876286657  LPSA6     13              8.0000000000
      6127       193  AGAL      HO4            -0.7780077671      -17.7268838348       56.0365796209  LPSA6     13              8.0000000000
      6128       193  AGAL      C6             -1.3426247597      -16.9219036620       52.5441274428  LPSA6     13              8.0000000000
      6129       193  AGAL      H61            -0.7537371310      -16.8934463429       51.6039057944  LPSA6     13              8.0000000000
      6130       193  AGAL      H62            -2.4320007974      -16.9172046361       52.3082162155  LPSA6     13              8.0000000000
      6131       193  AGAL      O6             -1.0696435476      -15.7304289774       53.2634270054  LPSA6     13              8.0000000000
      6132       193  AGAL      HO6            -1.7024969821      -15.6121162254       53.9842749942  LPSA6     13              8.0000000000
      6133       194  ARHM      C1              0.7614938935      -21.2548818773       57.0026089653  LPSA6     14              9.0000000000
      6134       194  ARHM      H1              1.3651173515      -20.3190366189       57.0395734426  LPSA6     14              9.0000000000
      6135       194  ARHM      C5              1.0522317937      -23.5844552002       57.2051452241  LPSA6     14              9.0000000000
      6136       194  ARHM      H5              0.5638645640      -23.6172342252       56.2231325498  LPSA6     14              9.0000000000
      6137       194  ARHM      O5              1.6991337654      -22.3112713220       57.2006133909  LPSA6     14              9.0000000000
      6138       194  ARHM      C2             -0.2708781408      -21.2649478468       58.1150710278  LPSA6     14              9.0000000000
      6139       194  ARHM      H2             -0.9813411766      -20.4289448944       57.9311152832  LPSA6     14              9.0000000000
      6140       194  ARHM      O2              0.2193155057      -21.1747276550       59.4675273074  LPSA6     14              9.0000000000
      6141       194  ARHM      C3             -1.0011712977      -22.5755935774       58.0675872622  LPSA6     14              9.0000000000
      6142       194  ARHM      H3             -1.3834824791      -22.7393387658       57.0319964714  LPSA6     14              9.0000000000
      6143       194  ARHM      O3             -2.1404369607      -22.5760287885       58.9304252737  LPSA6     14              9.0000000000
      6144       194  ARHM      HO3            -1.8508026076      -22.6803481394       59.8360861917  LPSA6     14              9.0000000000
      6145       194  ARHM      C4              0.0077458220      -23.6831094078       58.3274469100  LPSA6     14              9.0000000000
      6146       194  ARHM      H4              0.5628450341      -23.5247518225       59.2843310679  LPSA6     14              9.0000000000
      6147       194  ARHM      O4             -0.6143890500      -24.9701154288       58.3894019211  LPSA6     14              9.0000000000
      6148       194  ARHM      HO4            -0.6390337228      -25.3096094310       59.2938606880  LPSA6     14              9.0000000000
      6149       194  ARHM      C6              2.1164725717      -24.6831920115       57.2674185363  LPSA6     14              9.0000000000
      6150       194  ARHM      H61             2.9645198415      -24.4710851348       56.5841183417  LPSA6     14              9.0000000000
      6151       194  ARHM      H62             2.4629515310      -24.7528534209       58.3167543922  LPSA6     14              9.0000000000
      6152       194  ARHM      H63             1.7223808972      -25.6676158083       56.9683949309  LPSA6     14              9.0000000000
      6153       195  ARHM      C1              1.0878517693      -20.1121019772       59.7491424975  LPSA6     15             10.0000000000
      6154       195  ARHM      H1              0.9020234542      -19.2717254068       59.0425335210  LPSA6     15             10.0000000000
      6155       195  ARHM      C5              2.9156434670      -21.4612404096       60.6374872882  LPSA6     15             10.0000000000
      6156       195  ARHM      H5              2.4268489148      -22.4498031944       60.4527108614  LPSA6     15             10.0000000000
      6157       195  ARHM      O5              2.4855726964      -20.4733083332       59.6746734209  LPSA6     15             10.0000000000
      6158       195  ARHM      C2              0.7695982469      -19.6118896463       61.1391744610  LPSA6     15             10.0000000000
      6159       195  ARHM      H2             -0.3255176747      -19.4098173556       61.2070509420  LPSA6     15             10.0000000000
      6160       195  ARHM      O2              1.4959793432      -18.3754060747       61.2980908032  LPSA6     15             10.0000000000
      6161       195  ARHM      C3              1.1150530247      -20.6828518779       62.1319450665  LPSA6     15             10.0000000000
      6162       195  ARHM      H3              0.5914432347      -21.6238180328       61.8375300252  LPSA6     15             10.0000000000
      6163       195  ARHM      O3              0.6030901987      -20.2670850818       63.3966783642  LPSA6     15             10.0000000000
      6164       195  ARHM      C4              2.6048715556      -20.9420587414       62.0315574768  LPSA6     15             10.0000000000
      6165       195  ARHM      H4              3.1396068914      -19.9736713619       62.1604053887  LPSA6     15             10.0000000000
      6166       195  ARHM      O4              3.1139254470      -21.8198425352       63.0239772095  LPSA6     15             10.0000000000
      6167       195  ARHM      HO4             4.0810307679      -21.7939069524       62.9637552603  LPSA6     15             10.0000000000
      6168       195  ARHM      C6              4.4338577426      -21.6874205726       60.4655622124  LPSA6     15             10.0000000000
      6169       195  ARHM      H61             4.8049546490      -22.5616963901       61.0421570294  LPSA6     15             10.0000000000
      6170       195  ARHM      H62             4.6535875165      -21.8347043118       59.3850198068  LPSA6     15             10.0000000000
      6171       195  ARHM      H63             5.0093824799      -20.8114998004       60.8155836975  LPSA6     15             10.0000000000
      6172       196  BMANNA    C1              1.4024320686      -17.6507836368       62.5029190525  LPSA6     16             11.0000000000
      6173       196  BMANNA    H1              1.9155545144      -18.2233685310       63.3135253464  LPSA6     16             11.0000000000
      6174       196  BMANNA    C5              0.0178237591      -16.6955648715       64.1856135957  LPSA6     16             11.0000000000
      6175       196  BMANNA    H5              0.5754710349      -17.3075366340       64.9453258025  LPSA6     16             11.0000000000
      6176       196  BMANNA    O5              0.0569131372      -17.3702289613       62.9104037762  LPSA6     16             11.0000000000
      6177       196  BMANNA    C2              2.1390970254      -16.3283798884       62.3067661469  LPSA6     16             11.0000000000
      6178       196  BMANNA    H2              3.1922405585      -16.5891924635       62.0367533296  LPSA6     16             11.0000000000
      6179       196  BMANNA    N               1.6096228060      -15.4660758437       61.2539604365  LPSA6     16             11.0000000000
      6180       196  BMANNA    HN              0.9515300226      -14.7793902567       61.5525644016  LPSA6     16             11.0000000000
      6181       196  BMANNA    C               2.0298375650      -15.4404139088       59.9888385630  LPSA6     16             11.0000000000
      6182       196  BMANNA    O               2.8986340965      -16.1821597821       59.5501776551  LPSA6     16             11.0000000000
      6183       196  BMANNA    CT              1.2946377748      -14.4858948962       59.1008485625  LPSA6     16             11.0000000000
      6184       196  BMANNA    HT1             1.9290794763      -13.6082963429       58.8681438120  LPSA6     16             11.0000000000
      6185       196  BMANNA    HT2             0.3429433145      -14.1415219188       59.5500357718  LPSA6     16             11.0000000000
      6186       196  BMANNA    HT3             1.0762679569      -15.0097170457       58.1629174003  LPSA6     16             11.0000000000
      6187       196  BMANNA    C3              2.1374910134      -15.6022430673       63.6353882179  LPSA6     16             11.0000000000
      6188       196  BMANNA    H3              2.6374480178      -16.2507697865       64.3923371531  LPSA6     16             11.0000000000
      6189       196  BMANNA    O3              2.8993193935      -14.4123246482       63.5476203715  LPSA6     16             11.0000000000
      6190       196  BMANNA    HO3             3.4503455723      -14.4127656581       64.3351921785  LPSA6     16             11.0000000000
      6191       196  BMANNA    C4              0.7127595878      -15.3521708298       64.1030165456  LPSA6     16             11.0000000000
      6192       196  BMANNA    H4              0.1802007329      -14.7128020095       63.3684196286  LPSA6     16             11.0000000000
      6193       196  BMANNA    O4              0.6250976345      -14.6868074725       65.3628961951  LPSA6     16             11.0000000000
      6194       196  BMANNA    HO4            -0.2218920179      -14.2326852046       65.4218585957  LPSA6     16             11.0000000000
      6195       196  BMANNA    C6             -1.3918588511      -16.5420178173       64.7203585947  LPSA6     16             11.0000000000
      6196       196  BMANNA    H61            -1.3006143761      -16.5027638413       65.8102196758  LPSA6     16             11.0000000000
      6197       196  BMANNA    H62            -1.8334169731      -15.5750498476       64.4018924946  LPSA6     16             11.0000000000
      6198       196  BMANNA    O6             -2.3063518242      -17.5780365450       64.3840207414  LPSA6     16             11.0000000000
      6199       196  BMANNA    HO6            -2.9958502554      -17.1617211430       63.8572205638  LPSA6     16             11.0000000000
      6200       197  BGLCNA    C1              0.0246050652      -21.3006552593       64.1421361808  LPSA6     17             11.0000000000
      6201       197  BGLCNA    H1              0.6147914995      -22.2285236458       63.9793441571  LPSA6     17             11.0000000000
      6202       197  BGLCNA    C5             -1.9701683604      -22.5871461392       64.5616017160  LPSA6     17             11.0000000000
      6203       197  BGLCNA    H5             -1.4491533142      -23.5531064858       64.3547227826  LPSA6     17             11.0000000000
      6204       197  BGLCNA    O5             -1.3439797906      -21.5409854731       63.7854340639  LPSA6     17             11.0000000000
      6205       197  BGLCNA    C2              0.1147777752      -20.8271622786       65.5776970370  LPSA6     17             11.0000000000
      6206       197  BGLCNA    H2             -0.5203483267      -19.9208559763       65.7507062583  LPSA6     17             11.0000000000
      6207       197  BGLCNA    N               1.4822584810      -20.4515321253       65.8766180573  LPSA6     17             11.0000000000
      6208       197  BGLCNA    HN              2.1858914137      -20.9164789287       65.3616348980  LPSA6     17             11.0000000000
      6209       197  BGLCNA    C               1.8808971831      -19.5837308105       66.8121997936  LPSA6     17             11.0000000000
      6210       197  BGLCNA    O               1.1385175558      -18.8703843596       67.4647453796  LPSA6     17             11.0000000000
      6211       197  BGLCNA    CT              3.3752570696      -19.5457284229       67.0353407213  LPSA6     17             11.0000000000
      6212       197  BGLCNA    HT1             3.8576375879      -18.6882763391       66.5260109816  LPSA6     17             11.0000000000
      6213       197  BGLCNA    HT2             3.8004737349      -20.5060511877       66.6825462999  LPSA6     17             11.0000000000
      6214       197  BGLCNA    HT3             3.5779742347      -19.4643867241       68.1230979566  LPSA6     17             11.0000000000
      6215       197  BGLCNA    C3             -0.4125939212      -21.9647444396       66.4304691180  LPSA6     17             11.0000000000
      6216       197  BGLCNA    H3              0.1618357821      -22.8587306090       66.0926673909  LPSA6     17             11.0000000000
      6217       197  BGLCNA    O3             -0.1051412259      -21.7198730278       67.8277700546  LPSA6     17             11.0000000000
      6218       197  BGLCNA    C4             -1.8748350479      -22.1924414345       66.0423533192  LPSA6     17             11.0000000000
      6219       197  BGLCNA    H4             -2.4350846032      -21.2356589975       66.1528289413  LPSA6     17             11.0000000000
      6220       197  BGLCNA    O4             -2.4938706856      -23.1694945518       66.8714444927  LPSA6     17             11.0000000000
      6221       197  BGLCNA    HO4            -3.4499565283      -23.1704168112       66.7661539697  LPSA6     17             11.0000000000
      6222       197  BGLCNA    C6             -3.4276071760      -22.7668010147       64.1136154761  LPSA6     17             11.0000000000
      6223       197  BGLCNA    H61            -3.7177975566      -23.8380007118       64.1668579022  LPSA6     17             11.0000000000
      6224       197  BGLCNA    H62            -4.1098936847      -22.2171593937       64.8025599806  LPSA6     17             11.0000000000
      6225       197  BGLCNA    O6             -3.6871835124      -22.3059170599       62.7858763474  LPSA6     17             11.0000000000
      6226       197  BGLCNA    HO6            -3.1121438809      -22.7567304858       62.1623532301  LPSA6     17             11.0000000000
      6227       198  AGAL      C1              0.1928423575      -22.8577971820       68.6209424046  LPSA6     18             12.0000000000
      6228       198  AGAL      H1             -0.7500866863      -23.4180433785       68.8097320792  LPSA6     18             12.0000000000
      6229       198  AGAL      C5              2.4314581329      -23.1462863672       67.8525114456  LPSA6     18             12.0000000000
      6230       198  AGAL      H5              2.2973218767      -22.1464558266       67.4060751492  LPSA6     18             12.0000000000
      6231       198  AGAL      O5              1.1269885811      -23.7401318628       67.9823696226  LPSA6     18             12.0000000000
      6232       198  AGAL      C2              0.8164010892      -22.5222424146       69.9709098018  LPSA6     18             12.0000000000
      6233       198  AGAL      H2              1.0183845977      -23.5311873851       70.3970375178  LPSA6     18             12.0000000000
      6234       198  AGAL      O2             -0.1013874787      -21.9107191465       70.8769092875  LPSA6     18             12.0000000000
      6235       198  AGAL      C3              2.1833041644      -21.8367575722       69.8456277143  LPSA6     18             12.0000000000
      6236       198  AGAL      H3              2.0631188061      -20.9565864753       69.1713860449  LPSA6     18             12.0000000000
      6237       198  AGAL      O3              2.7065237615      -21.3435642939       71.0835370549  LPSA6     18             12.0000000000
      6238       198  AGAL      HO3             2.9983577985      -20.4262789053       70.9847239166  LPSA6     18             12.0000000000
      6239       198  AGAL      C4              3.1225879217      -22.8190045607       69.1689326332  LPSA6     18             12.0000000000
      6240       198  AGAL      H4              4.1023201793      -22.3368106298       68.9375741245  LPSA6     18             12.0000000000
      6241       198  AGAL      O4              3.3946344900      -23.9666414713       69.9655504357  LPSA6     18             12.0000000000
      6242       198  AGAL      HO4             3.9547397365      -23.6687300943       70.6950653091  LPSA6     18             12.0000000000
      6243       198  AGAL      C6              3.1945897236      -23.8493480719       66.7663279686  LPSA6     18             12.0000000000
      6244       198  AGAL      H61             2.6041273491      -23.6998078445       65.8334740794  LPSA6     18             12.0000000000
      6245       198  AGAL      H62             4.1887655627      -23.3641262086       66.6323678191  LPSA6     18             12.0000000000
      6246       198  AGAL      O6              3.3116281879      -25.2552510509       66.9524251923  LPSA6     18             12.0000000000
      6247       198  AGAL      HO6             2.8492311515      -25.5003750994       67.7630726576  LPSA6     18             12.0000000000
      6248       199  ARHM      C1              0.0399975137      -22.4419616678       72.1729213809  LPSA6     19             13.0000000000
      6249       199  ARHM      H1              1.0816164800      -22.7831814349       72.3530354885  LPSA6     19             13.0000000000
      6250       199  ARHM      C5             -2.1754589586      -23.2965378073       72.2370900446  LPSA6     19             13.0000000000
      6251       199  ARHM      H5             -2.2966964012      -22.8938335273       71.2052978316  LPSA6     19             13.0000000000
      6252       199  ARHM      O5             -0.7867633994      -23.5852953753       72.4278728132  LPSA6     19             13.0000000000
      6253       199  ARHM      C2             -0.3391185252      -21.3400196897       73.1114775541  LPSA6     19             13.0000000000
      6254       199  ARHM      H2              0.2214645032      -20.4042564846       72.8689535929  LPSA6     19             13.0000000000
      6255       199  ARHM      O2             -0.0091572716      -21.7166122528       74.4539968573  LPSA6     19             13.0000000000
      6256       199  ARHM      C3             -1.7998707848      -21.0129737500       72.9529892552  LPSA6     19             13.0000000000
      6257       199  ARHM      H3             -2.0048665766      -20.7226847365       71.8934063180  LPSA6     19             13.0000000000
      6258       199  ARHM      O3             -2.1452958441      -19.9169809377       73.7847246729  LPSA6     19             13.0000000000
      6259       199  ARHM      HO3            -1.8599453596      -20.1039388347       74.6818069707  LPSA6     19             13.0000000000
      6260       199  ARHM      C4             -2.6195158167      -22.2398698120       73.2226942046  LPSA6     19             13.0000000000
      6261       199  ARHM      H4             -2.3627620797      -22.5868413677       74.2378172709  LPSA6     19             13.0000000000
      6262       199  ARHM      O4             -4.0231457618      -22.0007951639       73.1556202311  LPSA6     19             13.0000000000
      6263       199  ARHM      HO4            -4.2073455851      -21.8520269968       72.2175723743  LPSA6     19             13.0000000000
      6264       199  ARHM      C6             -2.9668397371      -24.6061658315       72.2774016069  LPSA6     19             13.0000000000
      6265       199  ARHM      H61            -2.5427167070      -25.2457043822       71.4791379584  LPSA6     19             13.0000000000
      6266       199  ARHM      H62            -2.9013589612      -25.1448562398       73.2416635817  LPSA6     19             13.0000000000
      6267       199  ARHM      H63            -4.0441074707      -24.4243966643       72.0638041902  LPSA6     19             13.0000000000
      6268       200  ARHM      C1              1.3770597413      -21.6741787203       74.7023944983  LPSA6     20             14.0000000000
      6269       200  ARHM      H1              1.9217412834      -21.1700469201       73.8704042621  LPSA6     20             14.0000000000
      6270       200  ARHM      C5              1.4623600317      -23.6782051433       75.9630262466  LPSA6     20             14.0000000000
      6271       200  ARHM      H5              0.3641061190      -23.7783581082       75.8170061250  LPSA6     20             14.0000000000
      6272       200  ARHM      O5              1.9870167441      -22.9590808681       74.8468261321  LPSA6     20             14.0000000000
      6273       200  ARHM      C2              1.5676311543      -20.8648972703       75.9526489305  LPSA6     20             14.0000000000
      6274       200  ARHM      H2              0.9864941972      -19.9077283665       75.8500216515  LPSA6     20             14.0000000000
      6275       200  ARHM      O2              2.9558598818      -20.5905931589       76.1627083892  LPSA6     20             14.0000000000
      6276       200  ARHM      C3              1.0231531090      -21.5858535196       77.1327821233  LPSA6     20             14.0000000000
      6277       200  ARHM      H3             -0.0645538017      -21.7741752047       76.9626824827  LPSA6     20             14.0000000000
      6278       200  ARHM      O3              1.2027383444      -20.7422188223       78.2691139738  LPSA6     20             14.0000000000
      6279       200  ARHM      C4              1.7381616731      -22.9064875264       77.2467631896  LPSA6     20             14.0000000000
      6280       200  ARHM      H4              2.8458786273      -22.7901809860       77.3249500452  LPSA6     20             14.0000000000
      6281       200  ARHM      O4              1.3034038163      -23.6306048181       78.3871790032  LPSA6     20             14.0000000000
      6282       200  ARHM      HO4             1.3488145361      -24.5458219211       78.1090798190  LPSA6     20             14.0000000000
      6283       200  ARHM      C6              2.0505802331      -25.0928983878       75.9590382391  LPSA6     20             14.0000000000
      6284       200  ARHM      H61             3.1539242833      -25.0960918001       76.0962596502  LPSA6     20             14.0000000000
      6285       200  ARHM      H62             1.5997976419      -25.6986331488       76.7637667067  LPSA6     20             14.0000000000
      6286       200  ARHM      H63             1.8527075827      -25.5999777070       74.9897535312  LPSA6     20             14.0000000000
      6287       201  BMANNA    C1              3.3420764567      -19.4830412375       75.4144828205  LPSA6     21             15.0000000000
      6288       201  BMANNA    H1              2.5163414490      -19.1937267880       74.7251860259  LPSA6     21             15.0000000000
      6289       201  BMANNA    C5              4.6556756705      -18.6268779920       73.6506716387  LPSA6     21             15.0000000000
      6290       201  BMANNA    H5              3.7202461733      -18.3614082209       73.0874409954  LPSA6     21             15.0000000000
      6291       201  BMANNA    O5              4.4127177300      -19.7543460125       74.5176256615  LPSA6     21             15.0000000000
      6292       201  BMANNA    C2              3.6848284322      -18.3283475573       76.3462819734  LPSA6     21             15.0000000000
      6293       201  BMANNA    H2              2.7377603984      -18.1441196981       76.9262480582  LPSA6     21             15.0000000000
      6294       201  BMANNA    N               4.7821617138      -18.5995471679       77.2775046811  LPSA6     21             15.0000000000
      6295       201  BMANNA    HN              5.5379063718      -19.1075095485       76.8950456011  LPSA6     21             15.0000000000
      6296       201  BMANNA    C               4.8076450190      -18.1999221998       78.5757132745  LPSA6     21             15.0000000000
      6297       201  BMANNA    O               4.0067057893      -17.4069495417       79.0397049584  LPSA6     21             15.0000000000
      6298       201  BMANNA    CT              5.8887811551      -18.7784183072       79.4699281627  LPSA6     21             15.0000000000
      6299       201  BMANNA    HT1             6.8520284410      -18.2660340201       79.2833437454  LPSA6     21             15.0000000000
      6300       201  BMANNA    HT2             5.9760362788      -19.8690751555       79.3110424089  LPSA6     21             15.0000000000
      6301       201  BMANNA    HT3             5.6267910119      -18.6171029037       80.5403759572  LPSA6     21             15.0000000000
      6302       201  BMANNA    C3              3.9582131628      -17.1397671725       75.4568636254  LPSA6     21             15.0000000000
      6303       201  BMANNA    H3              3.0364542799      -16.9681866171       74.8825436079  LPSA6     21             15.0000000000
      6304       201  BMANNA    O3              4.1994994541      -15.9543540628       76.1876520866  LPSA6     21             15.0000000000
      6305       201  BMANNA    HO3             4.9167114633      -16.1130693443       76.8121697169  LPSA6     21             15.0000000000
      6306       201  BMANNA    C4              5.0626798133      -17.4195394506       74.4597878649  LPSA6     21             15.0000000000
      6307       201  BMANNA    H4              6.0114899251      -17.6313069771       75.0048006225  LPSA6     21             15.0000000000
      6308       201  BMANNA    O4              5.3250007433      -16.3363718744       73.5635186039  LPSA6     21             15.0000000000
      6309       201  BMANNA    HO4             6.1927438232      -15.9682901067       73.7542309684  LPSA6     21             15.0000000000
      6310       201  BMANNA    C6              5.7033133550      -18.9476786518       72.6248206067  LPSA6     21             15.0000000000
      6311       201  BMANNA    H61             5.6425089300      -18.1967290921       71.8193452231  LPSA6     21             15.0000000000
      6312       201  BMANNA    H62             6.7092968947      -18.8611773735       73.0826732877  LPSA6     21             15.0000000000
      6313       201  BMANNA    O6              5.5322657434      -20.2360988536       72.0535665061  LPSA6     21             15.0000000000
      6314       201  BMANNA    HO6             5.6715689048      -20.8760806899       72.7582993309  LPSA6     21             15.0000000000
      6315       202  BGLCNA    C1              0.1856758520      -20.7955906072       79.2360058811  LPSA6     22             15.0000000000
      6316       202  BGLCNA    H1             -0.3314944859      -21.7801276979       79.2423663472  LPSA6     22             15.0000000000
      6317       202  BGLCNA    C5             -1.7681460240      -19.7738829063       80.0977599928  LPSA6     22             15.0000000000
      6318       202  BGLCNA    H5             -2.2507513267      -20.7830601452       80.1064691392  LPSA6     22             15.0000000000
      6319       202  BGLCNA    O5             -0.7722070970      -19.7498574905       79.0614214586  LPSA6     22             15.0000000000
      6320       202  BGLCNA    C2              0.8998803981      -20.5990408799       80.5449231324  LPSA6     22             15.0000000000
      6321       202  BGLCNA    H2              1.4070434884      -19.5964332234       80.4964497747  LPSA6     22             15.0000000000
      6322       202  BGLCNA    N               1.8879859093      -21.6380304044       80.7251677679  LPSA6     22             15.0000000000
      6323       202  BGLCNA    HN              1.6369501447      -22.5421987249       80.3978368823  LPSA6     22             15.0000000000
      6324       202  BGLCNA    C               3.0559423805      -21.4654984643       81.3484655662  LPSA6     22             15.0000000000
      6325       202  BGLCNA    O               3.4264200040      -20.4110925560       81.8423126841  LPSA6     22             15.0000000000
      6326       202  BGLCNA    CT              3.9321720382      -22.6645836956       81.3975300430  LPSA6     22             15.0000000000
      6327       202  BGLCNA    HT1             4.6251572876      -22.6148957136       80.5363263376  LPSA6     22             15.0000000000
      6328       202  BGLCNA    HT2             3.3362710040      -23.5592931115       81.2637900738  LPSA6     22             15.0000000000
      6329       202  BGLCNA    HT3             4.4754904010      -22.7658004046       82.3633844444  LPSA6     22             15.0000000000
      6330       202  BGLCNA    C3             -0.0957242732      -20.6165523464       81.6810926265  LPSA6     22             15.0000000000
      6331       202  BGLCNA    H3             -0.6443718842      -21.5869738584       81.6513329543  LPSA6     22             15.0000000000
      6332       202  BGLCNA    O3              0.6672607893      -20.5369204011       82.8941944376  LPSA6     22             15.0000000000
      6333       202  BGLCNA    C4             -1.1054156202      -19.5240598561       81.4570074245  LPSA6     22             15.0000000000
      6334       202  BGLCNA    H4             -0.5547201456      -18.5548947869       81.4066813588  LPSA6     22             15.0000000000
      6335       202  BGLCNA    O4             -2.0626271886      -19.4392159670       82.5165383106  LPSA6     22             15.0000000000
      6336       202  BGLCNA    HO4            -2.2187934621      -18.5269059805       82.7650309173  LPSA6     22             15.0000000000
      6337       202  BGLCNA    C6             -2.7999001439      -18.7328645483       79.7513201199  LPSA6     22             15.0000000000
      6338       202  BGLCNA    H61            -3.4020194037      -18.5300247303       80.6598708617  LPSA6     22             15.0000000000
      6339       202  BGLCNA    H62            -2.3071330097      -17.7782454815       79.4469516083  LPSA6     22             15.0000000000
      6340       202  BGLCNA    O6             -3.7206955858      -19.1759788855       78.7526209268  LPSA6     22             15.0000000000
      6341       202  BGLCNA    HO6            -3.2602651468      -19.4273101543       77.9512033721  LPSA6     22             15.0000000000
      6342       203  AGAL      C1              0.0865262084      -20.9560468736       84.0954403024  LPSA6     23             16.0000000000
      6343       203  AGAL      H1             -0.6278358264      -20.1821291061       84.4466331962  LPSA6     23             16.0000000000
      6344       203  AGAL      C5              0.2347337722      -23.3174548798       83.7223298840  LPSA6     23             16.0000000000
      6345       203  AGAL      H5              0.8444299828      -23.0954269575       82.8164280757  LPSA6     23             16.0000000000
      6346       203  AGAL      O5             -0.6327286290      -22.1920534810       83.9855741486  LPSA6     23             16.0000000000
      6347       203  AGAL      C2              1.1314616642      -21.0764921234       85.1813583913  LPSA6     23             16.0000000000
      6348       203  AGAL      H2              0.5769115413      -21.3685773179       86.1008605084  LPSA6     23             16.0000000000
      6349       203  AGAL      O2              1.7991181615      -19.8180607472       85.4310105056  LPSA6     23             16.0000000000
      6350       203  AGAL      C3              2.0690059781      -22.2400853002       84.8816537941  LPSA6     23             16.0000000000
      6351       203  AGAL      H3              2.4934914178      -22.1038157775       83.8636622340  LPSA6     23             16.0000000000
      6352       203  AGAL      O3              3.1821792466      -22.2920834605       85.7678588036  LPSA6     23             16.0000000000
      6353       203  AGAL      HO3             2.8702922500      -22.1684223294       86.6589617919  LPSA6     23             16.0000000000
      6354       203  AGAL      C4              1.2469710349      -23.5215640754       84.8563456329  LPSA6     23             16.0000000000
      6355       203  AGAL      H4              1.8967725235      -24.3983006253       84.6206958342  LPSA6     23             16.0000000000
      6356       203  AGAL      O4              0.5849451001      -23.7723358923       86.0929428538  LPSA6     23             16.0000000000
      6357       203  AGAL      HO4            -0.1744917852      -24.3298653965       85.8371771137  LPSA6     23             16.0000000000
      6358       203  AGAL      C6             -0.6385451690      -24.4976512283       83.3328909414  LPSA6     23             16.0000000000
      6359       203  AGAL      H61            -1.3737212214      -24.1691658327       82.5662337564  LPSA6     23             16.0000000000
      6360       203  AGAL      H62            -0.0287193275      -25.2943768827       82.8445112554  LPSA6     23             16.0000000000
      6361       203  AGAL      O6             -1.3905734748      -25.0274151622       84.4239142811  LPSA6     23             16.0000000000
      6362       203  AGAL      HO6            -1.8605541941      -25.7968798059       84.0914547191  LPSA6     23             16.0000000000
      6363       204  ARHM      C1              1.1702696993      -18.8864683474       86.2896396155  LPSA6     24             17.0000000000
      6364       204  ARHM      H1              0.0918947590      -19.1379392369       86.3863391560  LPSA6     24             17.0000000000
      6365       204  ARHM      C5              2.5552797624      -17.0446853935       85.6341062970  LPSA6     24             17.0000000000
      6366       204  ARHM      H5              3.0743861923      -17.7350621927       84.9335141098  LPSA6     24             17.0000000000
      6367       204  ARHM      O5              1.2150723821      -17.5250848072       85.8267472677  LPSA6     24             17.0000000000
      6368       204  ARHM      C2              1.8926075027      -18.9906756919       87.6038927611  LPSA6     24             17.0000000000
      6369       204  ARHM      H2              1.9196675936      -20.0579370098       87.9319806091  LPSA6     24             17.0000000000
      6370       204  ARHM      O2              1.2808240848      -18.1700474245       88.6060997491  LPSA6     24             17.0000000000
      6371       204  ARHM      C3              3.3102629904      -18.5267912478       87.4171291242  LPSA6     24             17.0000000000
      6372       204  ARHM      H3              3.7727475147      -19.1573395722       86.6227427633  LPSA6     24             17.0000000000
      6373       204  ARHM      O3              4.0847247041      -18.7457468855       88.5895127040  LPSA6     24             17.0000000000
      6374       204  ARHM      HO3             4.0112688639      -17.9840918539       89.1745583910  LPSA6     24             17.0000000000
      6375       204  ARHM      C4              3.3091323989      -17.0891350625       86.9437888724  LPSA6     24             17.0000000000
      6376       204  ARHM      H4              2.7427464391      -16.4803877569       87.6705529405  LPSA6     24             17.0000000000
      6377       204  ARHM      O4              4.6223598933      -16.5578669860       86.8049542409  LPSA6     24             17.0000000000
      6378       204  ARHM      HO4             4.6584017753      -15.6184999340       87.0261819490  LPSA6     24             17.0000000000
      6379       204  ARHM      C6              2.5406965087      -15.6612249859       84.9611836924  LPSA6     24             17.0000000000
      6380       204  ARHM      H61             3.4903641093      -15.5492820196       84.4033589352  LPSA6     24             17.0000000000
      6381       204  ARHM      H62             1.7391459904      -15.5952142184       84.2069020495  LPSA6     24             17.0000000000
      6382       204  ARHM      H63             2.4085740385      -14.8213892847       85.6754730613  LPSA6     24             17.0000000000
      6383       205  ARHM      C1              0.1071012348      -18.6978867417       89.1488358558  LPSA6     25             18.0000000000
      6384       205  ARHM      H1             -0.2887326405      -19.4841297784       88.4678731502  LPSA6     25             18.0000000000
      6385       205  ARHM      C5             -0.6769054040      -16.6961361446       90.2057786945  LPSA6     25             18.0000000000
      6386       205  ARHM      H5              0.2270566922      -16.1526821145       89.8567969084  LPSA6     25             18.0000000000
      6387       205  ARHM      O5             -0.9691629755      -17.7521418560       89.2658725908  LPSA6     25             18.0000000000
      6388       205  ARHM      C2              0.4250123427      -19.3276451462       90.4642819162  LPSA6     25             18.0000000000
      6389       205  ARHM      H2              1.3386338950      -19.9677094329       90.3674287701  LPSA6     25             18.0000000000
      6390       205  ARHM      O2             -0.6829450959      -20.1312101539       90.8853390564  LPSA6     25             18.0000000000
      6391       205  ARHM      C3              0.7486819254      -18.2435208278       91.4547194303  LPSA6     25             18.0000000000
      6392       205  ARHM      H3              1.6280145079      -17.6559292381       91.0845457733  LPSA6     25             18.0000000000
      6393       205  ARHM      O3              1.0250291889      -18.8755540647       92.7032685326  LPSA6     25             18.0000000000
      6394       205  ARHM      C4             -0.3940217679      -17.2845910727       91.5851106654  LPSA6     25             18.0000000000
      6395       205  ARHM      H4             -1.3241027838      -17.8195424964       91.9044012635  LPSA6     25             18.0000000000
      6396       205  ARHM      O4             -0.0793384599      -16.3014296569       92.5787610386  LPSA6     25             18.0000000000
      6397       205  ARHM      HO4            -0.9194314791      -16.0552438799       92.9930972187  LPSA6     25             18.0000000000
      6398       205  ARHM      C6             -1.8286347630      -15.6717380882       90.2182874947  LPSA6     25             18.0000000000
      6399       205  ARHM      H61            -2.0597954743      -15.3427712535       89.1815699998  LPSA6     25             18.0000000000
      6400       205  ARHM      H62            -2.7485309165      -16.0963832767       90.6611680530  LPSA6     25             18.0000000000
      6401       205  ARHM      H63            -1.5251895099      -14.7725448844       90.7967431156  LPSA6     25             18.0000000000
      6402       206  BMANNA    C1             -0.7471699076      -21.3971399464       90.2722906704  LPSA6     26             19.0000000000
      6403       206  BMANNA    H1              0.2374570592      -21.6979574762       89.8546649186  LPSA6     26             19.0000000000
      6404       206  BMANNA    C5             -1.7297692970      -22.7592685478       88.5859999385  LPSA6     26             19.0000000000
      6405       206  BMANNA    H5             -0.7126634581      -22.9529810094       88.1761516768  LPSA6     26             19.0000000000
      6406       206  BMANNA    O5             -1.7147526554      -21.4628037856       89.2108491469  LPSA6     26             19.0000000000
      6407       206  BMANNA    C2             -1.1233948169      -22.3679170834       91.3492374577  LPSA6     26             19.0000000000
      6408       206  BMANNA    H2             -0.3133877338      -22.2802950716       92.1201239752  LPSA6     26             19.0000000000
      6409       206  BMANNA    N              -2.4261092843      -22.0533139731       91.9313623302  LPSA6     26             19.0000000000
      6410       206  BMANNA    HN             -3.1795966898      -21.9459085689       91.2844383883  LPSA6     26             19.0000000000
      6411       206  BMANNA    C              -2.6592171491      -21.9028972597       93.2400534772  LPSA6     26             19.0000000000
      6412       206  BMANNA    O              -1.7563119361      -21.8846285557       94.0587282937  LPSA6     26             19.0000000000
      6413       206  BMANNA    CT             -4.1136070811      -21.8129656063       93.6568863183  LPSA6     26             19.0000000000
      6414       206  BMANNA    HT1            -4.7176780500      -21.3950693879       92.8316857155  LPSA6     26             19.0000000000
      6415       206  BMANNA    HT2            -4.2744626861      -21.2361128207       94.5887878532  LPSA6     26             19.0000000000
      6416       206  BMANNA    HT3            -4.4539642413      -22.8460655566       93.8545915511  LPSA6     26             19.0000000000
      6417       206  BMANNA    C3             -1.0618971134      -23.7546767152       90.7499379472  LPSA6     26             19.0000000000
      6418       206  BMANNA    H3             -0.0395262699      -23.9292850000       90.3298398347  LPSA6     26             19.0000000000
      6419       206  BMANNA    O3             -1.2469960890      -24.7421681198       91.7582452452  LPSA6     26             19.0000000000
      6420       206  BMANNA    HO3            -0.4271527866      -24.7636464191       92.2645363614  LPSA6     26             19.0000000000
      6421       206  BMANNA    C4             -2.0650817089      -23.8327037943       89.6131345988  LPSA6     26             19.0000000000
      6422       206  BMANNA    H4             -3.0956192277      -23.6577508368       89.9837853729  LPSA6     26             19.0000000000
      6423       206  BMANNA    O4             -2.0641293236      -25.1075586784       89.0027174392  LPSA6     26             19.0000000000
      6424       206  BMANNA    HO4            -2.5894842480      -25.6896410543       89.5554321017  LPSA6     26             19.0000000000
      6425       206  BMANNA    C6             -2.6717296267      -22.6804539118       87.3917881362  LPSA6     26             19.0000000000
      6426       206  BMANNA    H61            -2.5623239900      -21.6842067705       86.9082999526  LPSA6     26             19.0000000000
      6427       206  BMANNA    H62            -2.4089325916      -23.4509858335       86.6356317465  LPSA6     26             19.0000000000
      6428       206  BMANNA    O6             -4.0452667724      -22.8471104996       87.7310255878  LPSA6     26             19.0000000000
      6429       206  BMANNA    HO6            -4.1691270234      -23.7048064153       88.1518411196  LPSA6     26             19.0000000000
      6430       207  BGLCNA    C1              2.0722426963      -18.3627050213       93.4694027058  LPSA6     27             19.0000000000
      6431       207  BGLCNA    H1              2.1168866866      -17.2744773073       93.4048394340  LPSA6     27             19.0000000000
      6432       207  BGLCNA    C5              4.3958477161      -18.4218876696       93.9164660401  LPSA6     27             19.0000000000
      6433       207  BGLCNA    H5              4.3697928054      -17.3056472391       93.9358566953  LPSA6     27             19.0000000000
      6434       207  BGLCNA    O5              3.3332336721      -18.8967990515       93.0732294497  LPSA6     27             19.0000000000
      6435       207  BGLCNA    C2              1.7439029980      -18.8353679090       94.8678268002  LPSA6     27             19.0000000000
      6436       207  BGLCNA    H2              1.7657933200      -19.9548701057       94.8391895570  LPSA6     27             19.0000000000
      6437       207  BGLCNA    N               0.4163244765      -18.4087789482       95.2970534922  LPSA6     27             19.0000000000
      6438       207  BGLCNA    HN              0.1486954535      -17.4893550399       95.0470631206  LPSA6     27             19.0000000000
      6439       207  BGLCNA    C              -0.4122988273      -19.2446073833       95.9600112933  LPSA6     27             19.0000000000
      6440       207  BGLCNA    O              -0.0113043401      -20.2389912698       96.5377608653  LPSA6     27             19.0000000000
      6441       207  BGLCNA    CT             -1.8843135024      -18.9163641842       96.0105237450  LPSA6     27             19.0000000000
      6442       207  BGLCNA    HT1            -2.1065229536      -18.0550503736       95.3570112369  LPSA6     27             19.0000000000
      6443       207  BGLCNA    HT2            -2.2052704800      -18.7268470614       97.0489173110  LPSA6     27             19.0000000000
      6444       207  BGLCNA    HT3            -2.4435628482      -19.8136608044       95.6617291636  LPSA6     27             19.0000000000
      6445       207  BGLCNA    C3              2.8053914220      -18.3869360250       95.8196742783  LPSA6     27             19.0000000000
      6446       207  BGLCNA    H3              2.8595302263      -17.2730903745       95.7754355883  LPSA6     27             19.0000000000
      6447       207  BGLCNA    O3              2.3610790810      -18.8213678262       97.1300281438  LPSA6     27             19.0000000000
      6448       207  BGLCNA    C4              4.1375459058      -18.9135142883       95.3381020877  LPSA6     27             19.0000000000
      6449       207  BGLCNA    H4              4.1351434371      -20.0284402897       95.3279304709  LPSA6     27             19.0000000000
      6450       207  BGLCNA    O4              5.1678124164      -18.4586188846       96.1919235031  LPSA6     27             19.0000000000
      6451       207  BGLCNA    HO4             5.2953018633      -17.5175354333       96.0677981113  LPSA6     27             19.0000000000
      6452       207  BGLCNA    C6              5.7418915264      -18.7975102998       93.3195910458  LPSA6     27             19.0000000000
      6453       207  BGLCNA    H61             6.5482131039      -18.2464437702       93.8549377454  LPSA6     27             19.0000000000
      6454       207  BGLCNA    H62             5.9327023300      -19.8828444052       93.4552757596  LPSA6     27             19.0000000000
      6455       207  BGLCNA    O6              5.8300294963      -18.4745314129       91.9253108358  LPSA6     27             19.0000000000
      6456       207  BGLCNA    HO6             6.6833409856      -18.7617916711       91.5798771010  LPSA6     27             19.0000000000
      6457       208  AGAL      C1              2.9490505302      -18.2087477446       98.2470513802  LPSA6     28             20.0000000000
      6458       208  AGAL      H1              3.9896885032      -18.5919550994       98.3316641136  LPSA6     28             20.0000000000
      6459       208  AGAL      C5              1.6750167897      -16.1850388902       98.1290460556  LPSA6     28             20.0000000000
      6460       208  AGAL      H5              0.9940967491      -16.7308633941       97.4322134984  LPSA6     28             20.0000000000
      6461       208  AGAL      O5              2.9880555576      -16.7799898423       98.0507297840  LPSA6     28             20.0000000000
      6462       208  AGAL      C2              2.2889382062      -18.4887711579       99.6202116194  LPSA6     28             20.0000000000
      6463       208  AGAL      H2              2.9679819435      -17.9237751624      100.3001692609  LPSA6     28             20.0000000000
      6464       208  AGAL      O2              2.2899732719      -19.8394560660      100.1013881809  LPSA6     28             20.0000000000
      6465       208  AGAL      C3              0.8950405126      -17.8732655879       99.7004261641  LPSA6     28             20.0000000000
      6466       208  AGAL      H3              0.3064505737      -18.2825489716       98.8505735575  LPSA6     28             20.0000000000
      6467       208  AGAL      O3              0.1148926069      -18.1300887202      100.8765991590  LPSA6     28             20.0000000000
      6468       208  AGAL      HO3            -0.6374023915      -18.6839071509      100.6397027561  LPSA6     28             20.0000000000
      6469       208  AGAL      C4              1.0512972889      -16.3946740840       99.4912993110  LPSA6     28             20.0000000000
      6470       208  AGAL      H4              0.0332764436      -15.9457297818       99.4958396596  LPSA6     28             20.0000000000
      6471       208  AGAL      O4              1.8280185449      -15.7783217566      100.5037927129  LPSA6     28             20.0000000000
      6472       208  AGAL      HO4             1.2615002526      -15.2740264719      101.0924186284  LPSA6     28             20.0000000000
      6473       208  AGAL      C6              1.7059843310      -14.7419776639       97.6419807927  LPSA6     28             20.0000000000
      6474       208  AGAL      H61             1.9341506955      -14.7427590215       96.5593781290  LPSA6     28             20.0000000000
      6475       208  AGAL      H62             0.7282783186      -14.2471222344       97.7604908552  LPSA6     28             20.0000000000
      6476       208  AGAL      O6              2.6249899456      -13.8878950999       98.3029631367  LPSA6     28             20.0000000000
      6477       208  AGAL      HO6             3.5163298913      -14.0261539252       97.9627768634  LPSA6     28             20.0000000000
      6478       209  ARHM      C1              2.6011688607      -19.8546436991      101.4811237664  LPSA6     29             21.0000000000
      6479       209  ARHM      H1              2.3072966882      -18.8974359473      101.9617330125  LPSA6     29             21.0000000000
      6480       209  ARHM      C5              4.4457828077      -21.3130840811      101.1472840680  LPSA6     29             21.0000000000
      6481       209  ARHM      H5              4.1711064619      -21.3204208466      100.0679122981  LPSA6     29             21.0000000000
      6482       209  ARHM      O5              3.9962598758      -20.0758688934      101.7053128315  LPSA6     29             21.0000000000
      6483       209  ARHM      C2              1.8258362484      -20.9385631177      102.1696815131  LPSA6     29             21.0000000000
      6484       209  ARHM      H2              0.7449031769      -20.7906017772      101.9230865625  LPSA6     29             21.0000000000
      6485       209  ARHM      O2              2.0314645209      -20.8762968313      103.6038903330  LPSA6     29             21.0000000000
      6486       209  ARHM      C3              2.2477167337      -22.2713807797      101.6076303361  LPSA6     29             21.0000000000
      6487       209  ARHM      H3              2.0504142757      -22.2879596346      100.5069114853  LPSA6     29             21.0000000000
      6488       209  ARHM      O3              1.4507232576      -23.2985164448      102.1681674621  LPSA6     29             21.0000000000
      6489       209  ARHM      HO3             2.0125479035      -24.0703945888      102.2407183593  LPSA6     29             21.0000000000
      6490       209  ARHM      C4              3.7431905381      -22.4955989708      101.8193126955  LPSA6     29             21.0000000000
      6491       209  ARHM      H4              3.9764808842      -22.4807737455      102.9119958154  LPSA6     29             21.0000000000
      6492       209  ARHM      O4              4.1819764967      -23.7755258213      101.3340466467  LPSA6     29             21.0000000000
      6493       209  ARHM      HO4             3.8924501020      -23.9557005190      100.4427642959  LPSA6     29             21.0000000000
      6494       209  ARHM      C6              5.9735222567      -21.2301488075      101.2262401475  LPSA6     29             21.0000000000
      6495       209  ARHM      H61             6.2768103641      -20.2578154768      100.7724727376  LPSA6     29             21.0000000000
      6496       209  ARHM      H62             6.3292490909      -21.2607910949      102.2762598907  LPSA6     29             21.0000000000
      6497       209  ARHM      H63             6.4327203870      -22.0526750450      100.6405392938  LPSA6     29             21.0000000000
      6498       210  ARHM      C1              1.0469981607      -20.2165276127      104.3709144971  LPSA6     30             22.0000000000
      6499       210  ARHM      H1              0.0457882659      -20.6627715864      104.1586174988  LPSA6     30             22.0000000000
      6500       210  ARHM      C5              2.2461163461      -18.1514674531      104.4950946214  LPSA6     30             22.0000000000
      6501       210  ARHM      H5              3.0409620666      -18.6687042078      103.9106501655  LPSA6     30             22.0000000000
      6502       210  ARHM      O5              1.0034766248      -18.7885662143      104.1677070784  LPSA6     30             22.0000000000
      6503       210  ARHM      C2              1.3785541505      -20.4513652443      105.8253821470  LPSA6     30             22.0000000000
      6504       210  ARHM      H2              1.4436671091      -21.5477260589      106.0275916907  LPSA6     30             22.0000000000
      6505       210  ARHM      O2              0.3558584794      -19.8294961259      106.6012602723  LPSA6     30             22.0000000000
      6506       210  ARHM      C3              2.6868806899      -19.8034352198      106.2209505894  LPSA6     30             22.0000000000
      6507       210  ARHM      H3              3.4574927380      -20.1997741565      105.5172202447  LPSA6     30             22.0000000000
      6508       210  ARHM      O3              3.1056087254      -20.1923737969      107.5428062435  LPSA6     30             22.0000000000
      6509       210  ARHM      C4              2.5804656932      -18.3226848736      105.9578894350  LPSA6     30             22.0000000000
      6510       210  ARHM      H4              1.7624550725      -17.8594464997      106.5531157509  LPSA6     30             22.0000000000
      6511       210  ARHM      O4              3.7509670467      -17.5995731787      106.3000411598  LPSA6     30             22.0000000000
      6512       210  ARHM      HO4             4.4613345709      -17.6788649091      105.6596996155  LPSA6     30             22.0000000000
      6513       210  ARHM      C6              2.2205909408      -16.6810915489      104.0584624316  LPSA6     30             22.0000000000
      6514       210  ARHM      H61             3.2230876484      -16.2329451300      104.2307998537  LPSA6     30             22.0000000000
      6515       210  ARHM      H62             2.0170355646      -16.6216109837      102.9727148018  LPSA6     30             22.0000000000
      6516       210  ARHM      H63             1.4589045955      -16.1052072474      104.6261737177  LPSA6     30             22.0000000000
      6517       211  BMANNA    C1             -0.7200882575      -20.6483704789      106.9034038214  LPSA6     31             23.0000000000
      6518       211  BMANNA    H1             -0.3685826105      -21.6733340656      107.1568137503  LPSA6     31             23.0000000000
      6519       211  BMANNA    C5             -2.8526470166      -21.4565205959      106.2047218671  LPSA6     31             23.0000000000
      6520       211  BMANNA    H5             -2.4448260156      -22.4562583740      106.4999103521  LPSA6     31             23.0000000000
      6521       211  BMANNA    O5             -1.7006495262      -20.6610867730      105.8651105169  LPSA6     31             23.0000000000
      6522       211  BMANNA    C2             -1.3420206934      -19.9984672389      108.0904269433  LPSA6     31             23.0000000000
      6523       211  BMANNA    H2             -0.5858888153      -20.0711177876      108.9153315716  LPSA6     31             23.0000000000
      6524       211  BMANNA    N              -1.6073923884      -18.5888065138      107.8240178276  LPSA6     31             23.0000000000
      6525       211  BMANNA    HN             -1.6672824430      -18.3297279053      106.8654610098  LPSA6     31             23.0000000000
      6526       211  BMANNA    C              -1.6210093101      -17.6650504799      108.7855471903  LPSA6     31             23.0000000000
      6527       211  BMANNA    O              -1.3857997408      -17.9778980271      109.9463584075  LPSA6     31             23.0000000000
      6528       211  BMANNA    CT             -1.9300195034      -16.2685564394      108.3405765260  LPSA6     31             23.0000000000
      6529       211  BMANNA    HT1            -2.7340355646      -16.3044968318      107.5747468105  LPSA6     31             23.0000000000
      6530       211  BMANNA    HT2            -1.0245269641      -15.8029332288      107.9064515239  LPSA6     31             23.0000000000
      6531       211  BMANNA    HT3            -2.2607950489      -15.6404895124      109.1949075014  LPSA6     31             23.0000000000
      6532       211  BMANNA    C3             -2.5301387454      -20.8267553337      108.5095243516  LPSA6     31             23.0000000000
      6533       211  BMANNA    H3             -2.1991299170      -21.8775331621      108.6781843798  LPSA6     31             23.0000000000
      6534       211  BMANNA    O3             -3.0259925273      -20.3902828140      109.7554679641  LPSA6     31             23.0000000000
      6535       211  BMANNA    HO3            -2.3310499847      -19.8148394006      110.1187347274  LPSA6     31             23.0000000000
      6536       211  BMANNA    C4             -3.5500373640      -20.8607461596      107.4080290206  LPSA6     31             23.0000000000
      6537       211  BMANNA    H4             -3.9033320960      -19.8405843387      107.1278565053  LPSA6     31             23.0000000000
      6538       211  BMANNA    O4             -4.7051728139      -21.6157802991      107.7480437091  LPSA6     31             23.0000000000
      6539       211  BMANNA    HO4            -4.4728158599      -22.4308345542      108.1964554589  LPSA6     31             23.0000000000
      6540       211  BMANNA    C6             -3.8127929052      -21.6840668071      105.0528361859  LPSA6     31             23.0000000000
      6541       211  BMANNA    H61            -4.5344386279      -22.4769446420      105.3369946285  LPSA6     31             23.0000000000
      6542       211  BMANNA    H62            -4.4137316026      -20.7648036499      104.8692346387  LPSA6     31             23.0000000000
      6543       211  BMANNA    O6             -3.1600525786      -22.0648802826      103.8420544896  LPSA6     31             23.0000000000
      6544       211  BMANNA    HO6            -2.7853103799      -22.9529253113      103.8980915548  LPSA6     31             23.0000000000
      6545       212  BGLCNA    C1              2.5382492588      -19.4797076040      108.6145909451  LPSA6     32             23.0000000000
      6546       212  BGLCNA    H1              1.4772119414      -19.2576829030      108.4077994523  LPSA6     32             23.0000000000
      6547       212  BGLCNA    C5              2.5205658602      -17.5047850951      109.9272350602  LPSA6     32             23.0000000000
      6548       212  BGLCNA    H5              1.4681231870      -17.3361973227      109.5870945495  LPSA6     32             23.0000000000
      6549       212  BGLCNA    O5              3.1993966760      -18.2512865695      108.9065347068  LPSA6     32             23.0000000000
      6550       212  BGLCNA    C2              2.5728991784      -20.3440142009      109.8526803269  LPSA6     32             23.0000000000
      6551       212  BGLCNA    H2              3.6494101566      -20.4201264534      110.1444084147  LPSA6     32             23.0000000000
      6552       212  BGLCNA    N               2.0558484364      -21.6592891170      109.5675333787  LPSA6     32             23.0000000000
      6553       212  BGLCNA    HN              1.3627597653      -21.6568634825      108.8654287173  LPSA6     32             23.0000000000
      6554       212  BGLCNA    C               2.4934337279      -22.8240603141      110.0835580716  LPSA6     32             23.0000000000
      6555       212  BGLCNA    O               3.3851560310      -22.9250874738      110.9150785491  LPSA6     32             23.0000000000
      6556       212  BGLCNA    CT              1.7878193299      -24.0449625402      109.5463888223  LPSA6     32             23.0000000000
      6557       212  BGLCNA    HT1             1.2823905105      -23.7435989251      108.6061102106  LPSA6     32             23.0000000000
      6558       212  BGLCNA    HT2             1.0277515554      -24.4504287605      110.2393610285  LPSA6     32             23.0000000000
      6559       212  BGLCNA    HT3             2.5153394840      -24.8469315914      109.3163637819  LPSA6     32             23.0000000000
      6560       212  BGLCNA    C3              1.7934348694      -19.6211680334      110.9261938030  LPSA6     32             23.0000000000
      6561       212  BGLCNA    H3              0.8048422421      -19.3654015041      110.4775331203  LPSA6     32             23.0000000000
      6562       212  BGLCNA    O3              1.5418212421      -20.4236168800      112.0939158374  LPSA6     32             23.0000000000
      6563       212  BGLCNA    C4              2.5134104110      -18.3238915456      111.2032959111  LPSA6     32             23.0000000000
      6564       212  BGLCNA    H4              3.5620000391      -18.5555484722      111.5106453940  LPSA6     32             23.0000000000
      6565       212  BGLCNA    O4              1.9016022991      -17.5948845626      112.2469593578  LPSA6     32             23.0000000000
      6566       212  BGLCNA    HO4             2.3004924293      -17.8636147684      113.0823433047  LPSA6     32             23.0000000000
      6567       212  BGLCNA    C6              3.1388909709      -16.1372792141      110.0486968749  LPSA6     32             23.0000000000
      6568       212  BGLCNA    H61             2.5520676586      -15.4635832059      110.7167461200  LPSA6     32             23.0000000000
      6569       212  BGLCNA    H62             4.1524381121      -16.2308397757      110.5031857717  LPSA6     32             23.0000000000
      6570       212  BGLCNA    O6              3.2564048638      -15.5134915664      108.7693131120  LPSA6     32             23.0000000000
      6571       212  BGLCNA    HO6             2.4581582488      -15.6269399390      108.2512536264  LPSA6     32             23.0000000000
      6572       213  AGAL      C1              0.2712526107      -20.1912235468      112.6829944473  LPSA6     33             24.0000000000
      6573       213  AGAL      H1              0.0019562126      -19.1152984481      112.6099576135  LPSA6     33             24.0000000000
      6574       213  AGAL      C5             -0.5771009992      -22.3790147323      112.2075265442  LPSA6     33             24.0000000000
      6575       213  AGAL      H5              0.4596652766      -22.5508005789      111.8374634442  LPSA6     33             24.0000000000
      6576       213  AGAL      O5             -0.7790058356      -20.9611254626      112.0578857921  LPSA6     33             24.0000000000
      6577       213  AGAL      C2              0.3158276405      -20.5896910845      114.1483604116  LPSA6     33             24.0000000000
      6578       213  AGAL      H2             -0.7199633038      -20.4667086151      114.5332399840  LPSA6     33             24.0000000000
      6579       213  AGAL      O2              1.1132526118      -19.6387342851      114.8760347847  LPSA6     33             24.0000000000
      6580       213  AGAL      C3              0.6223871056      -22.0817696366      114.3029905378  LPSA6     33             24.0000000000
      6581       213  AGAL      H3              1.5434124730      -22.3347617110      113.7221634512  LPSA6     33             24.0000000000
      6582       213  AGAL      O3              0.9553532947      -22.4860237763      115.6277960805  LPSA6     33             24.0000000000
      6583       213  AGAL      HO3             0.2584602888      -22.2288763791      116.2411638561  LPSA6     33             24.0000000000
      6584       213  AGAL      C4             -0.5295335039      -22.8570276446      113.6547252288  LPSA6     33             24.0000000000
      6585       213  AGAL      H4             -0.2870500132      -23.9415451077      113.6487912539  LPSA6     33             24.0000000000
      6586       213  AGAL      O4             -1.7875233946      -22.7718329509      114.3195447007  LPSA6     33             24.0000000000
      6587       213  AGAL      HO4            -1.9162021795      -21.9959817457      114.8704762171  LPSA6     33             24.0000000000
      6588       213  AGAL      C6             -1.4595404483      -23.1887439627      111.2589724289  LPSA6     33             24.0000000000
      6589       213  AGAL      H61            -1.1612180949      -22.8873322655      110.2346841145  LPSA6     33             24.0000000000
      6590       213  AGAL      H62            -1.2531532554      -24.2766836974      111.3718365752  LPSA6     33             24.0000000000
      6591       213  AGAL      O6             -2.8747210253      -23.0271672356      111.3915872286  LPSA6     33             24.0000000000
      6592       213  AGAL      HO6            -3.2060853681      -22.2496816565      110.9133957178  LPSA6     33             24.0000000000
      6593       214  ARHM      C1              0.5073385324      -19.1340949910      116.0538424832  LPSA6     34             25.0000000000
      6594       214  ARHM      H1              0.1503270849      -19.9988416628      116.6508527968  LPSA6     34             25.0000000000
      6595       214  ARHM      C5             -0.3304383754      -17.0731118588      115.0720908744  LPSA6     34             25.0000000000
      6596       214  ARHM      H5              0.0253761169      -17.3960426889      114.0698545357  LPSA6     34             25.0000000000
      6597       214  ARHM      O5             -0.6376782359      -18.2568906689      115.8359983937  LPSA6     34             25.0000000000
      6598       214  ARHM      C2              1.6066617011      -18.3993507741      116.8106624128  LPSA6     34             25.0000000000
      6599       214  ARHM      H2              2.5142690714      -19.0514891367      116.8497513160  LPSA6     34             25.0000000000
      6600       214  ARHM      O2              1.2490999612      -18.0517469989      118.1756399537  LPSA6     34             25.0000000000
      6601       214  ARHM      C3              1.9898172104      -17.1600913533      116.0087938172  LPSA6     34             25.0000000000
      6602       214  ARHM      H3              2.3393034159      -17.4763207518      114.9931342903  LPSA6     34             25.0000000000
      6603       214  ARHM      O3              3.0502723047      -16.4127788099      116.6199557263  LPSA6     34             25.0000000000
      6604       214  ARHM      HO3             3.6300459097      -16.0611011097      115.9323409339  LPSA6     34             25.0000000000
      6605       214  ARHM      C4              0.7664104670      -16.2971334812      115.8043675922  LPSA6     34             25.0000000000
      6606       214  ARHM      H4              0.3284408505      -16.0135453648      116.7892161927  LPSA6     34             25.0000000000
      6607       214  ARHM      O4              1.1109130047      -15.0969486317      115.1138052734  LPSA6     34             25.0000000000
      6608       214  ARHM      HO4             1.5537907913      -14.4691308325      115.6914696702  LPSA6     34             25.0000000000
      6609       214  ARHM      C6             -1.5866645855      -16.1797061811      114.8398424565  LPSA6     34             25.0000000000
      6610       214  ARHM      H61            -2.0586356022      -15.8386927198      115.7788909370  LPSA6     34             25.0000000000
      6611       214  ARHM      H62            -1.2714715599      -15.2484798215      114.3255674891  LPSA6     34             25.0000000000
      6612       214  ARHM      H63            -2.3450025164      -16.6631465923      114.1892236208  LPSA6     34             25.0000000000
      6613       215  ARHM      C1              0.8448583362      -19.0851415907      119.0585402788  LPSA6     35             26.0000000000
      6614       215  ARHM      H1              1.4530166052      -20.0010033104      118.8676898427  LPSA6     35             26.0000000000
      6615       215  ARHM      C5             -1.4027141816      -18.2308776286      119.2049357635  LPSA6     35             26.0000000000
      6616       215  ARHM      H5             -1.1437374486      -17.4065449781      118.5092749481  LPSA6     35             26.0000000000
      6617       215  ARHM      O5             -0.5691366652      -19.3759366986      118.9518836051  LPSA6     35             26.0000000000
      6618       215  ARHM      C2              1.0996546554      -18.6480236744      120.4961290550  LPSA6     35             26.0000000000
      6619       215  ARHM      H2              2.1803446336      -18.4088077380      120.6448326859  LPSA6     35             26.0000000000
      6620       215  ARHM      O2              0.7354222610      -19.6857238002      121.4221144704  LPSA6     35             26.0000000000
      6621       215  ARHM      C3              0.3009012396      -17.4090695944      120.8181986473  LPSA6     35             26.0000000000
      6622       215  ARHM      H3              0.5723751001      -16.5978507532      120.1076625281  LPSA6     35             26.0000000000
      6623       215  ARHM      O3              0.6547196702      -16.8868270761      122.0988281878  LPSA6     35             26.0000000000
      6624       215  ARHM      HO3             0.7359974230      -17.6061831531      122.7350403897  LPSA6     35             26.0000000000
      6625       215  ARHM      C4             -1.1791937377      -17.7306333469      120.6389517180  LPSA6     35             26.0000000000
      6626       215  ARHM      H4             -1.4820831045      -18.5495699852      121.3406723736  LPSA6     35             26.0000000000
      6627       215  ARHM      O4             -1.9954547235      -16.5815134113      120.8730191393  LPSA6     35             26.0000000000
      6628       215  ARHM      HO4            -1.5090898957      -15.7907538054      120.6152907121  LPSA6     35             26.0000000000
      6629       215  ARHM      C6             -2.8624151367      -18.6101206540      118.8474023581  LPSA6     35             26.0000000000
      6630       215  ARHM      H61            -2.9863595637      -18.8138948144      117.7640442717  LPSA6     35             26.0000000000
      6631       215  ARHM      H62            -3.1479362936      -19.5237897311      119.4153434746  LPSA6     35             26.0000000000
      6632       215  ARHM      H63            -3.5372018551      -17.7605339116      119.0896056058  LPSA6     35             26.0000000000
      6633       216  BMANNA    C1              1.6004463244      -20.7892806569      121.4644232503  LPSA6     36             27.0000000000
      6634       216  BMANNA    H1              2.6128648053      -20.4880466843      121.1251899276  LPSA6     36             27.0000000000
      6635       216  BMANNA    C5              2.1527804505      -22.9654192803      120.7131346735  LPSA6     36             27.0000000000
      6636       216  BMANNA    H5              3.1478320035      -22.5543406213      120.4239047936  LPSA6     36             27.0000000000
      6637       216  BMANNA    O5              1.1844187712      -21.8911010120      120.6541136085  LPSA6     36             27.0000000000
      6638       216  BMANNA    C2              1.6608108630      -21.2455581267      122.9100198321  LPSA6     36             27.0000000000
      6639       216  BMANNA    H2              2.0455440265      -20.3651880473      123.4795262911  LPSA6     36             27.0000000000
      6640       216  BMANNA    N               0.3745146317      -21.6273173656      123.4917303476  LPSA6     36             27.0000000000
      6641       216  BMANNA    HN             -0.2790692057      -22.0787952452      122.8865010992  LPSA6     36             27.0000000000
      6642       216  BMANNA    C               0.1101070023      -21.4854904686      124.8156831556  LPSA6     36             27.0000000000
      6643       216  BMANNA    O               0.8743517605      -20.9064211437      125.5823818924  LPSA6     36             27.0000000000
      6644       216  BMANNA    CT             -1.1683173361      -22.0903090137      125.3452710845  LPSA6     36             27.0000000000
      6645       216  BMANNA    HT1            -1.3317448488      -23.0798217732      124.8773498919  LPSA6     36             27.0000000000
      6646       216  BMANNA    HT2            -2.0413779601      -21.4440633145      125.1473389075  LPSA6     36             27.0000000000
      6647       216  BMANNA    HT3            -1.0872475074      -22.2204573690      126.4457749371  LPSA6     36             27.0000000000
      6648       216  BMANNA    C3              2.6958724089      -22.3460365057      123.0117981544  LPSA6     36             27.0000000000
      6649       216  BMANNA    H3              3.6810650884      -21.9715915943      122.6441245438  LPSA6     36             27.0000000000
      6650       216  BMANNA    O3              2.8721905564      -22.7836429947      124.3519585524  LPSA6     36             27.0000000000
      6651       216  BMANNA    HO3             3.7562197647      -22.6910284400      124.7134436136  LPSA6     36             27.0000000000
      6652       216  BMANNA    C4              2.2861205604      -23.4879222890      122.1257895335  LPSA6     36             27.0000000000
      6653       216  BMANNA    H4              1.3114551205      -23.8995061411      122.4491431620  LPSA6     36             27.0000000000
      6654       216  BMANNA    O4              3.2124488849      -24.5524984357      122.2301534297  LPSA6     36             27.0000000000
      6655       216  BMANNA    HO4             3.2265921486      -24.6946190346      123.1823981784  LPSA6     36             27.0000000000
      6656       216  BMANNA    C6              1.8520960209      -24.0508916951      119.7157129619  LPSA6     36             27.0000000000
      6657       216  BMANNA    H61             1.7760830372      -23.6185688700      118.6926773938  LPSA6     36             27.0000000000
      6658       216  BMANNA    H62             2.7172805585      -24.7524270131      119.6970080990  LPSA6     36             27.0000000000
      6659       216  BMANNA    O6              0.6648815057      -24.7713290278      120.0612202821  LPSA6     36             27.0000000000
      6660       216  BMANNA    HO6             0.9038046426      -25.5013506904      120.6401764307  LPSA6     36             27.0000000000
      6661       217  ECLIPA    HB6S            3.5470535702       18.1881905729       20.4181404267  LPSA7     1               0.0000000000
      6662       217  ECLIPA    OB6             3.0263414477       16.6974426546       21.7214068244  LPSA7     1               0.0000000000
      6663       217  ECLIPA    CB6             3.9206920211       17.1888363895       20.7021463705  LPSA7     1               0.0000000000
      6664       217  ECLIPA    HB6R            4.9563813352       17.3072697916       21.1031415447  LPSA7     1               0.0000000000
      6665       217  ECLIPA    CB5             4.0261708424       16.3428336140       19.4403492357  LPSA7     1               0.0000000000
      6666       217  ECLIPA    OB5             2.6722462420       16.1919411885       18.9668623352  LPSA7     1               0.0000000000
      6667       217  ECLIPA    HB5             4.4727968041       15.3634212301       19.7406124217  LPSA7     1               0.0000000000
      6668       217  ECLIPA    CB1             2.6123264270       15.3523249500       17.7966223924  LPSA7     1               0.0000000000
      6669       217  ECLIPA    HB1             3.0740905684       14.3458712860       17.9756684528  LPSA7     1               0.0000000000
      6670       217  ECLIPA    OA6             1.3055445701       15.1276950405       17.3223219274  LPSA7     1               0.0000000000
      6671       217  ECLIPA    CA6             0.3736085979       16.1898346245       17.5592749532  LPSA7     1               0.0000000000
      6672       217  ECLIPA    HA6R            0.8830358563       17.1588199922       17.7459595177  LPSA7     1               0.0000000000
      6673       217  ECLIPA    HA6S           -0.2552533909       15.9135467973       18.4372115933  LPSA7     1               0.0000000000
      6674       217  ECLIPA    CB4             4.8955423656       16.9772140160       18.3366266815  LPSA7     1               0.0000000000
      6675       217  ECLIPA    HB4             4.5281710317       17.9892349060       18.0457667082  LPSA7     1               0.0000000000
      6676       217  ECLIPA    OB4             6.2493470654       17.0067470231       18.8162155828  LPSA7     1               0.0000000000
      6677       217  ECLIPA    PB              6.9666257260       18.4385566713       19.2876162285  LPSA7     1               0.0000000000
      6678       217  ECLIPA    OPB4            7.8853475658       18.1977215997       20.4865598278  LPSA7     1               0.0000000000
      6679       217  ECLIPA    OPB3            5.7920908636       19.3648465827       19.6805340546  LPSA7     1               0.0000000000
      6680       217  ECLIPA    OPB2            7.7689205126       18.9865153039       18.1068605053  LPSA7     1               0.0000000000
      6681       217  ECLIPA    CB3             4.8030412332       16.1131459078       17.0989517026  LPSA7     1               0.0000000000
      6682       217  ECLIPA    OB3             5.4244696682       16.6883418091       15.9462995110  LPSA7     1               0.0000000000
      6683       217  ECLIPA    HB3             5.1523967672       15.0738729573       17.3386620176  LPSA7     1               0.0000000000
      6684       217  ECLIPA    C71             6.6984534236       16.4661469871       15.8530559144  LPSA7     1               0.0000000000
      6685       217  ECLIPA    O71             7.2409989708       15.5360609285       16.4520814667  LPSA7     1               0.0000000000
      6686       217  ECLIPA    C72             7.0988750091       16.9936788597       14.4196970128  LPSA7     1               0.0000000000
      6687       217  ECLIPA    H72R            6.4695731963       16.5634258785       13.6166562870  LPSA7     1               0.0000000000
      6688       217  ECLIPA    H72S            8.1325993277       16.7965482101       14.1608639884  LPSA7     1               0.0000000000
      6689       217  ECLIPA    CB2             3.3721159101       15.9831242161       16.6715899592  LPSA7     1               0.0000000000
      6690       217  ECLIPA    HB2             2.9691283889       17.0214382857       16.5065218563  LPSA7     1               0.0000000000
      6691       217  ECLIPA    NB2             3.2699442067       15.1749369751       15.4579333306  LPSA7     1               0.0000000000
      6692       217  ECLIPA    HNB2            3.1555684481       14.1956373125       15.5907461165  LPSA7     1               0.0000000000
      6693       217  ECLIPA    CA4            -1.0051025058       15.0260751073       15.8147230562  LPSA7     1               0.0000000000
      6694       217  ECLIPA    HA4            -0.0868307003       14.4658985779       15.5399161962  LPSA7     1               0.0000000000
      6695       217  ECLIPA    OA4            -1.7247084567       14.3474753537       16.8546254246  LPSA7     1               0.0000000000
      6696       217  ECLIPA    HOA4           -1.1057701974       14.3532669303       17.6024219905  LPSA7     1               0.0000000000
      6697       217  ECLIPA    CA5            -0.5094648874       16.3491976026       16.3392079858  LPSA7     1               0.0000000000
      6698       217  ECLIPA    HA5            -1.3444191134       17.0505397014       16.5737978524  LPSA7     1               0.0000000000
      6699       217  ECLIPA    OA5             0.3102707202       16.9257405916       15.3321898990  LPSA7     1               0.0000000000
      6700       217  ECLIPA    CA1            -0.3785625207       17.1895057218       14.1027391411  LPSA7     1               0.0000000000
      6701       217  ECLIPA    HA1             0.4538823473       17.4635447182       13.4202437882  LPSA7     1               0.0000000000
      6702       217  ECLIPA    OA1            -1.2997823500       18.2541800104       14.1494024423  LPSA7     1               0.0000000000
      6703       217  ECLIPA    OPA2           -1.5957631778       19.8659859934       16.0199357289  LPSA7     1               0.0000000000
      6704       217  ECLIPA    OPA3            0.6781460408       19.7561350904       14.9177956297  LPSA7     1               0.0000000000
      6705       217  ECLIPA    OPA4           -1.3756663003       20.7111537885       13.6417592972  LPSA7     1               0.0000000000
      6706       217  ECLIPA    PA             -0.8326869815       19.7411928627       14.7083272068  LPSA7     1               0.0000000000
      6707       217  ECLIPA    CA3            -1.8012594978       15.2051170795       14.5406196359  LPSA7     1               0.0000000000
      6708       217  ECLIPA    HA3            -2.7112483245       15.8013913945       14.7372172030  LPSA7     1               0.0000000000
      6709       217  ECLIPA    OA3            -2.2528396645       13.8894235191       14.1823827513  LPSA7     1               0.0000000000
      6710       217  ECLIPA    C31            -1.3045992512       13.1953278129       13.5594863878  LPSA7     1               0.0000000000
      6711       217  ECLIPA    O31            -1.2576031463       13.0831654254       12.3419931868  LPSA7     1               0.0000000000
      6712       217  ECLIPA    C32            -0.9862586589       12.0426812422       14.4549886261  LPSA7     1               0.0000000000
      6713       217  ECLIPA    H32R           -1.6290578355       11.2859144035       13.9662963721  LPSA7     1               0.0000000000
      6714       217  ECLIPA    H32S           -1.4896747810       11.9764619605       15.4239636435  LPSA7     1               0.0000000000
      6715       217  ECLIPA    CA2            -0.9006962798       15.8964106558       13.5127245157  LPSA7     1               0.0000000000
      6716       217  ECLIPA    HA2             0.0128170201       15.2756584595       13.3414826834  LPSA7     1               0.0000000000
      6717       217  ECLIPA    NA2            -1.5794761740       16.1020593483       12.2234385520  LPSA7     1               0.0000000000
      6718       217  ECLIPA    HNA2           -2.4398774394       15.6268103487       12.1198572999  LPSA7     1               0.0000000000
      6719       217  ECLIPA    C73             7.0940455399       18.5110077848       14.3622218046  LPSA7     1               0.0000000000
      6720       217  ECLIPA    H73R            7.6029522400       18.8774819349       15.2902594451  LPSA7     1               0.0000000000
      6721       217  ECLIPA    O73             5.7217095235       18.8321018079       14.2731461195  LPSA7     1               0.0000000000
      6722       217  ECLIPA    C81             5.2863824924       19.8817520227       14.9547947144  LPSA7     1               0.0000000000
      6723       217  ECLIPA    O81             6.0113426192       20.6635128205       15.5588435488  LPSA7     1               0.0000000000
      6724       217  ECLIPA    C82             3.9135730761       20.2411020491       14.3439358068  LPSA7     1               0.0000000000
      6725       217  ECLIPA    H82R            3.5138303363       21.1313432571       14.8612309406  LPSA7     1               0.0000000000
      6726       217  ECLIPA    H82S            3.2046927185       19.4103650250       14.5605685485  LPSA7     1               0.0000000000
      6727       217  ECLIPA    C83             3.9383270240       20.4771810955       12.8100025709  LPSA7     1               0.0000000000
      6728       217  ECLIPA    H83R            3.9025259091       19.4908476298       12.2909395554  LPSA7     1               0.0000000000
      6729       217  ECLIPA    H83S            4.8884129286       20.9765132921       12.5368594130  LPSA7     1               0.0000000000
      6730       217  ECLIPA    C84             2.7267619540       21.2740334084       12.2924549231  LPSA7     1               0.0000000000
      6731       217  ECLIPA    H84R            2.7843120721       22.3389472420       12.6009202350  LPSA7     1               0.0000000000
      6732       217  ECLIPA    H84S            1.8195950447       20.8129836173       12.7654741448  LPSA7     1               0.0000000000
      6733       217  ECLIPA    C85             2.5440494879       21.1506518958       10.7710527913  LPSA7     1               0.0000000000
      6734       217  ECLIPA    H85R            2.7293392247       20.0759551647       10.5445772296  LPSA7     1               0.0000000000
      6735       217  ECLIPA    H85S            3.3245973543       21.7291431487       10.2351371328  LPSA7     1               0.0000000000
      6736       217  ECLIPA    C86             1.1081952258       21.4541758943       10.2867723233  LPSA7     1               0.0000000000
      6737       217  ECLIPA    H86R            0.9973355860       22.5209318570        9.9929342765  LPSA7     1               0.0000000000
      6738       217  ECLIPA    H86S            0.3950323910       21.2849840973       11.1304288007  LPSA7     1               0.0000000000
      6739       217  ECLIPA    C87             0.6478080909       20.5067692641        9.1598910996  LPSA7     1               0.0000000000
      6740       217  ECLIPA    H87R           -0.3552374565       20.8199726791        8.7974479577  LPSA7     1               0.0000000000
      6741       217  ECLIPA    H87S            0.5230772185       19.4802160313        9.5768952364  LPSA7     1               0.0000000000
      6742       217  ECLIPA    C88             1.6640712142       20.4093138961        8.0203577343  LPSA7     1               0.0000000000
      6743       217  ECLIPA    H88R            2.5113306196       19.7721667078        8.3499788061  LPSA7     1               0.0000000000
      6744       217  ECLIPA    H88S            2.1112133591       21.4188603377        7.8790159562  LPSA7     1               0.0000000000
      6745       217  ECLIPA    C89             1.0770578806       19.8393554874        6.7151979217  LPSA7     1               0.0000000000
      6746       217  ECLIPA    H89R            0.1449226470       19.2591118850        6.8945670416  LPSA7     1               0.0000000000
      6747       217  ECLIPA    H89S            1.7923885908       19.1225383710        6.2582270363  LPSA7     1               0.0000000000
      6748       217  ECLIPA    C810            0.8500638743       20.9598579827        5.6965594898  LPSA7     1               0.0000000000
      6749       217  ECLIPA    H810R           1.5970802090       21.7482644679        5.9306045654  LPSA7     1               0.0000000000
      6750       217  ECLIPA    H810S          -0.1665726493       21.3801578031        5.8633328568  LPSA7     1               0.0000000000
      6751       217  ECLIPA    C811            1.0062065395       20.5163562761        4.2339346294  LPSA7     1               0.0000000000
      6752       217  ECLIPA    H811R           0.4925841001       21.2219866056        3.5394756568  LPSA7     1               0.0000000000
      6753       217  ECLIPA    H811S           0.5282697664       19.5146612435        4.1526848868  LPSA7     1               0.0000000000
      6754       217  ECLIPA    C812            2.4507057348       20.3456621844        3.7367916759  LPSA7     1               0.0000000000
      6755       217  ECLIPA    H812R           2.3823588274       19.8996175026        2.7137046193  LPSA7     1               0.0000000000
      6756       217  ECLIPA    H812S           2.9908940418       19.6476977583        4.4080555928  LPSA7     1               0.0000000000
      6757       217  ECLIPA    C813            3.2883556600       21.6216175341        3.6389204341  LPSA7     1               0.0000000000
      6758       217  ECLIPA    H813R           2.7853056941       22.3114487002        2.9303713284  LPSA7     1               0.0000000000
      6759       217  ECLIPA    H813S           3.3594263647       22.1374995113        4.6250270261  LPSA7     1               0.0000000000
      6760       217  ECLIPA    C814            4.7042082631       21.3460141267        3.1360831596  LPSA7     1               0.0000000000
      6761       217  ECLIPA    H814R           4.7059557151       20.7092078697        2.2226106379  LPSA7     1               0.0000000000
      6762       217  ECLIPA    H814S           5.2958636557       20.8342288146        3.9215759146  LPSA7     1               0.0000000000
      6763       217  ECLIPA    H814T           5.2078258142       22.3045109208        2.8982703245  LPSA7     1               0.0000000000
      6764       217  ECLIPA    C74             7.7984786218       19.1415225011       13.1276565498  LPSA7     1               0.0000000000
      6765       217  ECLIPA    H74R            8.8881137285       18.9465313130       13.0416321410  LPSA7     1               0.0000000000
      6766       217  ECLIPA    H74S            7.6934976919       20.2383738154       13.3092881337  LPSA7     1               0.0000000000
      6767       217  ECLIPA    C75             7.0949249217       18.8626568473       11.7838020402  LPSA7     1               0.0000000000
      6768       217  ECLIPA    H75R            7.1371653539       19.8039146944       11.1918251537  LPSA7     1               0.0000000000
      6769       217  ECLIPA    H75S            6.0210564688       18.6476021286       11.9723199316  LPSA7     1               0.0000000000
      6770       217  ECLIPA    C76             7.6768754672       17.7135335183       10.9557253245  LPSA7     1               0.0000000000
      6771       217  ECLIPA    H76R            7.3285795642       16.7429777819       11.3756940282  LPSA7     1               0.0000000000
      6772       217  ECLIPA    H76S            8.7916220853       17.7069417623       10.9874878844  LPSA7     1               0.0000000000
      6773       217  ECLIPA    C77             7.2696262507       17.7789739830        9.4759314121  LPSA7     1               0.0000000000
      6774       217  ECLIPA    H77R            7.7279345130       18.6694220763        9.0006565612  LPSA7     1               0.0000000000
      6775       217  ECLIPA    H77S            6.1835851443       17.8570676561        9.3245679180  LPSA7     1               0.0000000000
      6776       217  ECLIPA    C78             7.6691451346       16.4864598953        8.7991968408  LPSA7     1               0.0000000000
      6777       217  ECLIPA    H78R            8.7399142030       16.3055214064        9.0539578072  LPSA7     1               0.0000000000
      6778       217  ECLIPA    H78S            7.1261086943       15.6618226613        9.3177312146  LPSA7     1               0.0000000000
      6779       217  ECLIPA    C79             7.3012819705       16.3517749481        7.2966685716  LPSA7     1               0.0000000000
      6780       217  ECLIPA    H79R            6.3999220338       15.7226231605        7.1713138254  LPSA7     1               0.0000000000
      6781       217  ECLIPA    H79S            8.0403513146       15.8347504033        6.6803826670  LPSA7     1               0.0000000000
      6782       217  ECLIPA    C710            7.3976052808       17.5761661547        6.4426757448  LPSA7     1               0.0000000000
      6783       217  ECLIPA    H710R           6.7013747742       18.3136808139        6.8609397950  LPSA7     1               0.0000000000
      6784       217  ECLIPA    H710S           8.4553573174       17.9402132039        6.4833237080  LPSA7     1               0.0000000000
      6785       217  ECLIPA    C711            7.0340740657       17.2937074142        4.9896167800  LPSA7     1               0.0000000000
      6786       217  ECLIPA    H711R           7.7441373910       16.5905748889        4.5362409964  LPSA7     1               0.0000000000
      6787       217  ECLIPA    H711S           6.0227635013       16.8389900517        4.9205626416  LPSA7     1               0.0000000000
      6788       217  ECLIPA    C712            7.0894177597       18.6056327122        4.2353404037  LPSA7     1               0.0000000000
      6789       217  ECLIPA    H712R           8.1368029885       18.9816491398        4.2643716159  LPSA7     1               0.0000000000
      6790       217  ECLIPA    H712S           6.4563644608       19.3051712071        4.8194131121  LPSA7     1               0.0000000000
      6791       217  ECLIPA    C713            6.6024674317       18.4812580893        2.8009840847  LPSA7     1               0.0000000000
      6792       217  ECLIPA    H713R           5.5341106468       18.1447357844        2.8377548671  LPSA7     1               0.0000000000
      6793       217  ECLIPA    H713S           6.6104437935       19.4847143981        2.3158598180  LPSA7     1               0.0000000000
      6794       217  ECLIPA    C714            7.4891452552       17.5372126662        1.9681464919  LPSA7     1               0.0000000000
      6795       217  ECLIPA    H714R           8.5198406611       17.9228450976        1.8890249612  LPSA7     1               0.0000000000
      6796       217  ECLIPA    H714S           7.4055915340       16.4826459065        2.2880598186  LPSA7     1               0.0000000000
      6797       217  ECLIPA    H714T           7.2489933917       17.4785297261        0.9093115951  LPSA7     1               0.0000000000
      6798       217  ECLIPA    C51             3.3624655557       15.7249887077       14.2333180577  LPSA7     1               0.0000000000
      6799       217  ECLIPA    O51             3.2711541671       16.9270885504       14.0679927761  LPSA7     1               0.0000000000
      6800       217  ECLIPA    C52             3.6346725438       14.8203460866       13.0570096861  LPSA7     1               0.0000000000
      6801       217  ECLIPA    H52R            4.7306513850       14.6785680931       12.9305870292  LPSA7     1               0.0000000000
      6802       217  ECLIPA    H52S            3.1813007134       13.8420495970       13.2495344806  LPSA7     1               0.0000000000
      6803       217  ECLIPA    C53             3.0468039400       15.4324960990       11.7675605978  LPSA7     1               0.0000000000
      6804       217  ECLIPA    H53R            2.1024062437       15.9849113999       11.9907127416  LPSA7     1               0.0000000000
      6805       217  ECLIPA    O53             2.8427208302       14.3551163614       10.8482421638  LPSA7     1               0.0000000000
      6806       217  ECLIPA    C61             1.6054717525       14.0394771697       10.5051120466  LPSA7     1               0.0000000000
      6807       217  ECLIPA    O61             0.5910958086       14.5747867138       10.8760589202  LPSA7     1               0.0000000000
      6808       217  ECLIPA    C62             1.6389161154       12.8761232314        9.5304649697  LPSA7     1               0.0000000000
      6809       217  ECLIPA    H62R            1.7989019745       11.9993922883       10.1212678232  LPSA7     1               0.0000000000
      6810       217  ECLIPA    H62S            2.5718188755       12.9185906127        8.9571988063  LPSA7     1               0.0000000000
      6811       217  ECLIPA    C63             0.3268849719       12.7693896822        8.7159267664  LPSA7     1               0.0000000000
      6812       217  ECLIPA    H63R            0.1335157828       13.7660248072        8.2900968915  LPSA7     1               0.0000000000
      6813       217  ECLIPA    H63S           -0.5270104390       12.4245644853        9.3491906319  LPSA7     1               0.0000000000
      6814       217  ECLIPA    C64             0.3972579629       11.9000393547        7.4758155663  LPSA7     1               0.0000000000
      6815       217  ECLIPA    H64R           -0.5777024618       11.7406868231        6.9696370632  LPSA7     1               0.0000000000
      6816       217  ECLIPA    H64S            0.6530712317       10.9595807582        7.9424164207  LPSA7     1               0.0000000000
      6817       217  ECLIPA    C65             1.5577076907       12.3391314027        6.5620222265  LPSA7     1               0.0000000000
      6818       217  ECLIPA    H65R            2.4719430527       12.1487481580        7.1624550110  LPSA7     1               0.0000000000
      6819       217  ECLIPA    H65S            1.3911211904       13.3810242468        6.2686124032  LPSA7     1               0.0000000000
      6820       217  ECLIPA    C66             1.8830553519       11.7188727540        5.2193356127  LPSA7     1               0.0000000000
      6821       217  ECLIPA    H66R            2.3332854362       10.7837444217        5.4479724441  LPSA7     1               0.0000000000
      6822       217  ECLIPA    H66S            2.7922847746       12.0320432808        4.7008604683  LPSA7     1               0.0000000000
      6823       217  ECLIPA    C67             0.7535529557       11.6548381342        4.2666981275  LPSA7     1               0.0000000000
      6824       217  ECLIPA    H67R           -0.2838236920       11.4784770164        4.6532461738  LPSA7     1               0.0000000000
      6825       217  ECLIPA    H67S            1.0442450579       10.9494006258        3.4931371023  LPSA7     1               0.0000000000
      6826       217  ECLIPA    C68             0.5130641145       12.8267274099        3.5291782430  LPSA7     1               0.0000000000
      6827       217  ECLIPA    H68R            1.4316305590       13.2350258647        3.1123593956  LPSA7     1               0.0000000000
      6828       217  ECLIPA    H68S            0.0322780200       13.4709625128        4.2911395868  LPSA7     1               0.0000000000
      6829       217  ECLIPA    C69            -0.3541260099       12.4232134870        2.4321078669  LPSA7     1               0.0000000000
      6830       217  ECLIPA    H69R           -1.1292713380       11.6150001709        2.4869405361  LPSA7     1               0.0000000000
      6831       217  ECLIPA    H69S            0.3049351793       12.1115727680        1.5877121922  LPSA7     1               0.0000000000
      6832       217  ECLIPA    C610           -1.0294018575       13.6720174663        2.2792048270  LPSA7     1               0.0000000000
      6833       217  ECLIPA    H610R          -0.3933317682       14.6086051530        2.1680102618  LPSA7     1               0.0000000000
      6834       217  ECLIPA    H610S          -1.8955948108       13.8440682780        2.9838488171  LPSA7     1               0.0000000000
      6835       217  ECLIPA    C611           -1.4489799767       13.2459453413        0.9975415852  LPSA7     1               0.0000000000
      6836       217  ECLIPA    H611R          -2.2691138469       12.5149717113        0.8119532401  LPSA7     1               0.0000000000
      6837       217  ECLIPA    H611S          -1.8690187368       14.1874187759        1.1827360530  LPSA7     1               0.0000000000
      6838       217  ECLIPA    C612           -0.5324573380       13.4323776148       -0.1098219208  LPSA7     1               0.0000000000
      6839       217  ECLIPA    H612R          -0.4175519080       14.5007762921       -0.4692541727  LPSA7     1               0.0000000000
      6840       217  ECLIPA    H612S           0.3361508661       12.8307084042       -0.2454072882  LPSA7     1               0.0000000000
      6841       217  ECLIPA    H612T          -1.0597210652       12.7502025301       -0.7700274017  LPSA7     1               0.0000000000
      6842       217  ECLIPA    C54             4.0952044998       16.4058113740       11.1715675477  LPSA7     1               0.0000000000
      6843       217  ECLIPA    H54R            4.9781826619       15.7964915464       10.8788290867  LPSA7     1               0.0000000000
      6844       217  ECLIPA    H54S            4.4093504337       17.0986520063       11.9780587058  LPSA7     1               0.0000000000
      6845       217  ECLIPA    C55             3.6477114248       17.2506955747        9.9649204976  LPSA7     1               0.0000000000
      6846       217  ECLIPA    H55R            4.3481184313       18.1003179314        9.8239191082  LPSA7     1               0.0000000000
      6847       217  ECLIPA    H55S            2.6633899200       17.7098770197       10.2013085557  LPSA7     1               0.0000000000
      6848       217  ECLIPA    C56             3.6586006761       16.3964507394        8.6929087777  LPSA7     1               0.0000000000
      6849       217  ECLIPA    H56R            3.0105293017       15.5171186251        8.8577018823  LPSA7     1               0.0000000000
      6850       217  ECLIPA    H56S            4.6881179374       16.0151163516        8.5057811657  LPSA7     1               0.0000000000
      6851       217  ECLIPA    C57             3.1287101959       17.0248279047        7.4117569730  LPSA7     1               0.0000000000
      6852       217  ECLIPA    H57R            3.6373148075       17.9855188917        7.1826672536  LPSA7     1               0.0000000000
      6853       217  ECLIPA    H57S            2.0461158635       17.2521688249        7.5441578752  LPSA7     1               0.0000000000
      6854       217  ECLIPA    C58             3.2814929905       16.0152923821        6.2625695308  LPSA7     1               0.0000000000
      6855       217  ECLIPA    H58R            4.2957680541       15.5678493652        6.2244379728  LPSA7     1               0.0000000000
      6856       217  ECLIPA    H58S            2.5852222235       15.1707754919        6.4671014546  LPSA7     1               0.0000000000
      6857       217  ECLIPA    C59             2.9939951819       16.6668744689        4.9201406567  LPSA7     1               0.0000000000
      6858       217  ECLIPA    H59R            3.6608799452       17.5409947089        4.7318875209  LPSA7     1               0.0000000000
      6859       217  ECLIPA    H59S            1.9511064758       17.0511860588        4.9824148832  LPSA7     1               0.0000000000
      6860       217  ECLIPA    C510            3.1914589397       15.7605840695        3.7133411941  LPSA7     1               0.0000000000
      6861       217  ECLIPA    H510R           2.7803930250       14.7397632334        3.8440866412  LPSA7     1               0.0000000000
      6862       217  ECLIPA    H510S           4.2909895583       15.6252747942        3.5218756123  LPSA7     1               0.0000000000
      6863       217  ECLIPA    C511            2.4527803530       16.3874329109        2.5312165313  LPSA7     1               0.0000000000
      6864       217  ECLIPA    H511R           1.3947664495       16.1331581343        2.4325501128  LPSA7     1               0.0000000000
      6865       217  ECLIPA    H511S           2.7269827398       17.4782041496        2.3662007947  LPSA7     1               0.0000000000
      6866       217  ECLIPA    C512            2.8138443673       15.7084054914        1.2753104905  LPSA7     1               0.0000000000
      6867       217  ECLIPA    H512R           2.8229094513       16.4452181344        0.4417970298  LPSA7     1               0.0000000000
      6868       217  ECLIPA    H512S           3.8986573185       16.0100383417        1.5559010924  LPSA7     1               0.0000000000
      6869       217  ECLIPA    C513            2.3516619468       13.9892533222        0.9021702366  LPSA7     1               0.0000000000
      6870       217  ECLIPA    H513R           1.3069291535       14.2277667437        0.9465080247  LPSA7     1               0.0000000000
      6871       217  ECLIPA    H513S           2.6835793850       13.4922652600        1.7867766306  LPSA7     1               0.0000000000
      6872       217  ECLIPA    C514            2.6274227898       12.7383637244       -0.4483712818  LPSA7     1               0.0000000000
      6873       217  ECLIPA    H514R           3.6105307257       12.6811279953       -1.0926964193  LPSA7     1               0.0000000000
      6874       217  ECLIPA    H514S           2.6893511226       11.6984011747       -0.5354515452  LPSA7     1               0.0000000000
      6875       217  ECLIPA    H514T           3.3670168818       13.0568439006       -1.2240820854  LPSA7     1               0.0000000000
      6876       217  ECLIPA    C33             0.5616752617       11.7546163462       14.5866634004  LPSA7     1               0.0000000000
      6877       217  ECLIPA    H33R            0.7330289482       10.9060238916       15.1951128565  LPSA7     1               0.0000000000
      6878       217  ECLIPA    O33             1.1217696163       12.5467293475       15.5528287607  LPSA7     1               0.0000000000
      6879       217  ECLIPA    HO33            0.8574732131       12.1059528603       16.3904298461  LPSA7     1               0.0000000000
      6880       217  ECLIPA    C34             1.5180845460       11.8285019584       13.3489189592  LPSA7     1               0.0000000000
      6881       217  ECLIPA    H34R            1.3901152348       12.7398858570       12.7735663903  LPSA7     1               0.0000000000
      6882       217  ECLIPA    H34S            1.2897713082       11.1199200504       12.5772732180  LPSA7     1               0.0000000000
      6883       217  ECLIPA    C35             2.9245362967       11.2413499340       13.3601813802  LPSA7     1               0.0000000000
      6884       217  ECLIPA    H35R            3.1965533404       10.1583618588       13.4072594327  LPSA7     1               0.0000000000
      6885       217  ECLIPA    H35S            3.4234218276       11.6831595792       14.2411947797  LPSA7     1               0.0000000000
      6886       217  ECLIPA    C36             3.3902555216       11.3188511438       11.9467749518  LPSA7     1               0.0000000000
      6887       217  ECLIPA    H36R            3.0702177586       12.2116229899       11.4636313066  LPSA7     1               0.0000000000
      6888       217  ECLIPA    H36S            3.4172649638       10.3647158358       11.3202466323  LPSA7     1               0.0000000000
      6889       217  ECLIPA    C37             4.7080533167       11.6426804338       12.1045282838  LPSA7     1               0.0000000000
      6890       217  ECLIPA    H37R            4.8154581872       10.5235186946       12.3828006630  LPSA7     1               0.0000000000
      6891       217  ECLIPA    H37S            4.8980764410       12.2098354013       13.0515552349  LPSA7     1               0.0000000000
      6892       217  ECLIPA    C38             5.3954954734       12.5401163780       11.0343545302  LPSA7     1               0.0000000000
      6893       217  ECLIPA    H38R            5.1535307430       13.5596146084       11.2844674074  LPSA7     1               0.0000000000
      6894       217  ECLIPA    H38S            6.5357220149       12.5151620225       10.7976537179  LPSA7     1               0.0000000000
      6895       217  ECLIPA    C39             4.9730435552       12.5407584805        9.6844064739  LPSA7     1               0.0000000000
      6896       217  ECLIPA    H39R            4.1962495937       11.8029321110        9.5331979693  LPSA7     1               0.0000000000
      6897       217  ECLIPA    H39S            5.5305392224       11.7365024747        9.6085736324  LPSA7     1               0.0000000000
      6898       217  ECLIPA    C310            6.0813039078       12.8859462416        8.7178204247  LPSA7     1               0.0000000000
      6899       217  ECLIPA    H310R           7.1325626567       12.4899590268        8.8794032803  LPSA7     1               0.0000000000
      6900       217  ECLIPA    H310S           6.1443573864       13.9499390864        8.8605037490  LPSA7     1               0.0000000000
      6901       217  ECLIPA    C311            5.3911136483       12.5199744237        7.4524653399  LPSA7     1               0.0000000000
      6902       217  ECLIPA    H311R           4.7112025890       11.6691165299        7.5583613887  LPSA7     1               0.0000000000
      6903       217  ECLIPA    H311S           4.5553074341       13.1390516004        7.2690866523  LPSA7     1               0.0000000000
      6904       217  ECLIPA    C312            6.2940691210       12.5622617410        6.3029106057  LPSA7     1               0.0000000000
      6905       217  ECLIPA    H312R           6.7548176682       13.4448346898        6.7549410637  LPSA7     1               0.0000000000
      6906       217  ECLIPA    H312S           7.1478707986       11.8831387087        6.1810845796  LPSA7     1               0.0000000000
      6907       217  ECLIPA    C313            5.5678521681       12.7323868674        4.9947039321  LPSA7     1               0.0000000000
      6908       217  ECLIPA    H313R           5.0721843719       11.8073939556        4.7140643284  LPSA7     1               0.0000000000
      6909       217  ECLIPA    H313S           4.6989303943       13.3579101137        5.1807755986  LPSA7     1               0.0000000000
      6910       217  ECLIPA    C314            6.3109944954       13.1874978272        3.7614154209  LPSA7     1               0.0000000000
      6911       217  ECLIPA    H314R           7.2040027269       12.6001058571        3.4193982748  LPSA7     1               0.0000000000
      6912       217  ECLIPA    H314S           5.6491609483       13.2186395857        2.9786585769  LPSA7     1               0.0000000000
      6913       217  ECLIPA    H314T           6.5204693746       14.2632077684        3.8617612360  LPSA7     1               0.0000000000
      6914       217  ECLIPA    C11            -1.2450307629       16.9861663085       11.2542628620  LPSA7     1               0.0000000000
      6915       217  ECLIPA    O11            -0.1382409160       17.4840268660       11.0951232585  LPSA7     1               0.0000000000
      6916       217  ECLIPA    C12            -2.3759629652       17.3443242475       10.3262222684  LPSA7     1               0.0000000000
      6917       217  ECLIPA    H12R           -2.7192393873       18.3703037832       10.5496975944  LPSA7     1               0.0000000000
      6918       217  ECLIPA    H12S           -3.2060697723       16.6307406944       10.5122526037  LPSA7     1               0.0000000000
      6919       217  ECLIPA    C13            -1.9861909007       17.2454355534        8.8541600016  LPSA7     1               0.0000000000
      6920       217  ECLIPA    H13R           -0.9808021848       17.6805323962        8.6433179100  LPSA7     1               0.0000000000
      6921       217  ECLIPA    O13            -2.9494666019       17.9937155601        8.1205347937  LPSA7     1               0.0000000000
      6922       217  ECLIPA    HO13           -2.6349659983       18.3549828521        7.2872907417  LPSA7     1               0.0000000000
      6923       217  ECLIPA    C14            -1.9976845074       15.7621251447        8.4380673989  LPSA7     1               0.0000000000
      6924       217  ECLIPA    H14R           -2.8220996233       15.2229593192        8.9582401100  LPSA7     1               0.0000000000
      6925       217  ECLIPA    H14S           -1.0286364165       15.3419368471        8.7786434415  LPSA7     1               0.0000000000
      6926       217  ECLIPA    C15            -2.1165859114       15.4804679221        6.9457237086  LPSA7     1               0.0000000000
      6927       217  ECLIPA    H15R           -3.0379628496       15.9764708199        6.5688870785  LPSA7     1               0.0000000000
      6928       217  ECLIPA    H15S           -2.2646489471       14.3836443238        6.8254465181  LPSA7     1               0.0000000000
      6929       217  ECLIPA    C16            -0.8737490016       15.9498091360        6.1811048256  LPSA7     1               0.0000000000
      6930       217  ECLIPA    H16R           -0.0584502600       15.2050213163        6.2753351632  LPSA7     1               0.0000000000
      6931       217  ECLIPA    H16S           -0.4875226125       16.8796558529        6.6481164126  LPSA7     1               0.0000000000
      6932       217  ECLIPA    C17            -1.1960853159       16.1677384131        4.7067454229  LPSA7     1               0.0000000000
      6933       217  ECLIPA    H17R           -1.8139474475       15.2989710443        4.3928274103  LPSA7     1               0.0000000000
      6934       217  ECLIPA    H17S           -0.2908653091       16.1886683081        4.0640937050  LPSA7     1               0.0000000000
      6935       217  ECLIPA    C18            -1.9915536198       17.4511386905        4.4986304386  LPSA7     1               0.0000000000
      6936       217  ECLIPA    H18R           -2.9068319623       17.3915379349        5.1184633624  LPSA7     1               0.0000000000
      6937       217  ECLIPA    H18S           -1.3851461570       18.3362035449        4.7981249504  LPSA7     1               0.0000000000
      6938       217  ECLIPA    C19            -2.4386807161       17.6285343170        3.0754028831  LPSA7     1               0.0000000000
      6939       217  ECLIPA    H19R           -3.1334132906       18.4928861570        2.9644309245  LPSA7     1               0.0000000000
      6940       217  ECLIPA    H19S           -2.9442127011       16.7171086078        2.6804245667  LPSA7     1               0.0000000000
      6941       217  ECLIPA    C110           -1.2925288139       17.8803871644        2.1596574550  LPSA7     1               0.0000000000
      6942       217  ECLIPA    H110R          -0.6436988116       18.7412032392        2.4718948304  LPSA7     1               0.0000000000
      6943       217  ECLIPA    H110S          -0.6276857299       16.9860159548        2.1172343871  LPSA7     1               0.0000000000
      6944       217  ECLIPA    C111           -2.0273917061       18.1135029779        0.8356204504  LPSA7     1               0.0000000000
      6945       217  ECLIPA    H111R          -2.7295475577       17.3524074452        0.5191417239  LPSA7     1               0.0000000000
      6946       217  ECLIPA    H111S          -2.4927608652       19.1442716429        0.8408736949  LPSA7     1               0.0000000000
      6947       217  ECLIPA    C112           -1.0516544487       17.9729341324       -0.2394153083  LPSA7     1               0.0000000000
      6948       217  ECLIPA    H112R          -0.7494124477       18.8958281688        0.3098081142  LPSA7     1               0.0000000000
      6949       217  ECLIPA    H112S          -0.2500788826       17.2087762108       -0.1409795933  LPSA7     1               0.0000000000
      6950       217  ECLIPA    C113           -1.3716302477       18.1615422082       -1.7441315018  LPSA7     1               0.0000000000
      6951       217  ECLIPA    H113R          -1.7350433610       17.1775847151       -2.0465668359  LPSA7     1               0.0000000000
      6952       217  ECLIPA    H113S          -2.1299471452       18.9702818058       -1.7761072616  LPSA7     1               0.0000000000
      6953       217  ECLIPA    C114           -0.2887481664       18.4539866059       -2.8127790481  LPSA7     1               0.0000000000
      6954       217  ECLIPA    H114R          -0.1044097234       19.5483941475       -2.6592482962  LPSA7     1               0.0000000000
      6955       217  ECLIPA    H114S           0.6508861342       17.8814710223       -2.8568073140  LPSA7     1               0.0000000000
      6956       217  ECLIPA    H114T          -0.4354202622       18.6002683464       -3.8395548527  LPSA7     1               0.0000000000
      6957       218  AKDO      C1              4.5362147256       14.9690651875       22.4139214253  LPSA7     2               0.0000000000
      6958       218  AKDO      O11             5.7845763786       15.0808146741       22.4259701397  LPSA7     2               0.0000000000
      6959       218  AKDO      O12             3.8574161635       13.9478942348       22.1101399420  LPSA7     2               0.0000000000
      6960       218  AKDO      C2              3.7197758396       16.2061865502       22.8701006356  LPSA7     2               0.0000000000
      6961       218  AKDO      C6              3.9197795372       18.3923547765       23.8646635031  LPSA7     2               0.0000000000
      6962       218  AKDO      H6              3.3775209822       18.7427180670       22.9558476447  LPSA7     2               0.0000000000
      6963       218  AKDO      O6              4.6015630678       17.2005950146       23.4573230324  LPSA7     2               0.0000000000
      6964       218  AKDO      C3              2.6632262814       15.8647079569       23.9273286995  LPSA7     2               0.0000000000
      6965       218  AKDO      H31             3.1390556441       15.3352974776       24.7841424701  LPSA7     2               0.0000000000
      6966       218  AKDO      H32             1.9249341918       15.1776765722       23.4562627876  LPSA7     2               0.0000000000
      6967       218  AKDO      C4              1.9316010101       17.0854527188       24.3819418569  LPSA7     2               0.0000000000
      6968       218  AKDO      H4              1.4825633173       17.5863526516       23.4973693353  LPSA7     2               0.0000000000
      6969       218  AKDO      O4              0.9420077876       16.7836969295       25.3710379787  LPSA7     2               0.0000000000
      6970       218  AKDO      C5              2.8868587469       18.0960383209       24.9685705837  LPSA7     2               0.0000000000
      6971       218  AKDO      H5              2.3132072040       19.0457239010       25.0983384150  LPSA7     2               0.0000000000
      6972       218  AKDO      O5              3.3452494479       17.5766551327       26.2552567477  LPSA7     2               0.0000000000
      6973       218  AKDO      C7              4.9102829363       19.5135931432       24.1646884092  LPSA7     2               0.0000000000
      6974       218  AKDO      H7              5.4512066069       19.2291241230       25.0741677454  LPSA7     2               0.0000000000
      6975       218  AKDO      O7              4.2508719108       20.7760427201       24.3712792095  LPSA7     2               0.0000000000
      6976       218  AKDO      HO7             4.1134454266       21.1025292605       23.4942361483  LPSA7     2               0.0000000000
      6977       218  AKDO      C8              5.9054764448       19.6862407660       23.0332680370  LPSA7     2               0.0000000000
      6978       218  AKDO      H81             6.4056902574       18.6861215634       22.8732084989  LPSA7     2               0.0000000000
      6979       218  AKDO      H82             5.3490688476       19.8922522440       22.0953757111  LPSA7     2               0.0000000000
      6980       218  AKDO      O8              6.8794297795       20.7512215268       23.2720982109  LPSA7     2               0.0000000000
      6981       218  AKDO      HO8             7.6468556437       20.2868719927       22.9237816361  LPSA7     2               0.0000000000
      6982       219  AKDO      C1             -0.9015689470       17.0503149460       23.7867446236  LPSA7     3               1.0000000000
      6983       219  AKDO      O11            -0.7235087213       16.5415633959       22.6426488503  LPSA7     3               1.0000000000
      6984       219  AKDO      O12            -1.2677318436       18.2315768484       24.0383234976  LPSA7     3               1.0000000000
      6985       219  AKDO      C2             -0.3211513623       16.2664427648       25.0056770282  LPSA7     3               1.0000000000
      6986       219  AKDO      C6              0.3074122736       14.0649402179       25.7848976692  LPSA7     3               1.0000000000
      6987       219  AKDO      H6              1.3564775241       14.4032823972       25.9798111383  LPSA7     3               1.0000000000
      6988       219  AKDO      O6             -0.2723981512       14.8504572844       24.7130347439  LPSA7     3               1.0000000000
      6989       219  AKDO      C3             -1.1189529931       16.4434569930       26.3169077120  LPSA7     3               1.0000000000
      6990       219  AKDO      H31            -2.1653059667       16.0937111167       26.1497086257  LPSA7     3               1.0000000000
      6991       219  AKDO      H32            -1.1865287152       17.5157287481       26.5909130984  LPSA7     3               1.0000000000
      6992       219  AKDO      C4             -0.4641154550       15.6569157587       27.4234219277  LPSA7     3               1.0000000000
      6993       219  AKDO      H4              0.6104548424       15.9485853014       27.4792237399  LPSA7     3               1.0000000000
      6994       219  AKDO      O4             -1.0299756996       15.8933442113       28.6990424250  LPSA7     3               1.0000000000
      6995       219  AKDO      HO4            -0.3524421214       16.1670305550       29.3387368165  LPSA7     3               1.0000000000
      6996       219  AKDO      C5             -0.5075355567       14.2102458936       27.0544457786  LPSA7     3               1.0000000000
      6997       219  AKDO      H5             -0.0499644810       13.6268283475       27.8840059968  LPSA7     3               1.0000000000
      6998       219  AKDO      O5             -1.8427021640       13.7409626734       26.8665018629  LPSA7     3               1.0000000000
      6999       219  AKDO      HO5            -2.2584175368       14.2740464168       26.1783720279  LPSA7     3               1.0000000000
      7000       219  AKDO      C7              0.3686530128       12.6336900176       25.3493836185  LPSA7     3               1.0000000000
      7001       219  AKDO      H7             -0.6610897597       12.2642091446       25.1269120839  LPSA7     3               1.0000000000
      7002       219  AKDO      O7              0.8981108602       11.8183617499       26.4005863116  LPSA7     3               1.0000000000
      7003       219  AKDO      HO7             0.8545762544       10.9081662322       26.0852856338  LPSA7     3               1.0000000000
      7004       219  AKDO      C8              1.2271580379       12.5531788905       24.1234307625  LPSA7     3               1.0000000000
      7005       219  AKDO      H81             0.8453270083       13.2186090132       23.3208055185  LPSA7     3               1.0000000000
      7006       219  AKDO      H82             2.2754410334       12.8386866755       24.3241861111  LPSA7     3               1.0000000000
      7007       219  AKDO      O8              1.1714786904       11.2145369032       23.6755555205  LPSA7     3               1.0000000000
      7008       219  AKDO      HO8             0.3981864835       11.1620122780       23.1075834463  LPSA7     3               1.0000000000
      7009       220  AHEP      C1              3.6359086548       18.5435851715       27.2483365497  LPSA7     4               2.0000000000
      7010       220  AHEP      H1              4.5973154718       18.9731378547       26.9042187860  LPSA7     4               2.0000000000
      7011       220  AHEP      C5              1.4968979868       19.3657920429       27.9947428933  LPSA7     4               2.0000000000
      7012       220  AHEP      H5              1.0644630530       18.4560609780       27.5137885853  LPSA7     4               2.0000000000
      7013       220  AHEP      O5              2.7282948087       19.6515251379       27.2970074842  LPSA7     4               2.0000000000
      7014       220  AHEP      C2              3.9293599229       18.1165869676       28.6986333796  LPSA7     4               2.0000000000
      7015       220  AHEP      H2              4.5743958367       17.2193457715       28.6695841994  LPSA7     4               2.0000000000
      7016       220  AHEP      O2              4.7085081513       19.1349101741       29.3227143717  LPSA7     4               2.0000000000
      7017       220  AHEP      HO2             5.3153113920       18.7752240991       29.9692379459  LPSA7     4               2.0000000000
      7018       220  AHEP      C3              2.6815120765       17.7664955495       29.4952188658  LPSA7     4               2.0000000000
      7019       220  AHEP      H3              2.1721019525       16.8620251448       29.0937164151  LPSA7     4               2.0000000000
      7020       220  AHEP      O3              3.0401895293       17.5391174837       30.8772643169  LPSA7     4               2.0000000000
      7021       220  AHEP      C4              1.7745429212       18.9805455981       29.4530826987  LPSA7     4               2.0000000000
      7022       220  AHEP      H4              2.2275446701       19.8602472061       29.9711873877  LPSA7     4               2.0000000000
      7023       220  AHEP      O4              0.5431719533       18.5719412003       30.0401069709  LPSA7     4               2.0000000000
      7024       220  AHEP      P4              0.0090449962       19.2415169089       31.4629851435  LPSA7     4               2.0000000000
      7025       220  AHEP      OP42           -0.7586481141       18.0828654432       32.0709881470  LPSA7     4               2.0000000000
      7026       220  AHEP      OP43           -0.9087812779       20.3997500502       31.0232636220  LPSA7     4               2.0000000000
      7027       220  AHEP      OP44            1.2175766255       19.6393218237       32.2999715026  LPSA7     4               2.0000000000
      7028       220  AHEP      C6              0.5233813934       20.5602522393       27.7917258558  LPSA7     4               2.0000000000
      7029       220  AHEP      H6             -0.4779035065       20.1604935415       28.0805792009  LPSA7     4               2.0000000000
      7030       220  AHEP      O6              0.7569740132       21.7250909528       28.6170363188  LPSA7     4               2.0000000000
      7031       220  AHEP      HO6             0.1177818935       21.7684495964       29.3427315163  LPSA7     4               2.0000000000
      7032       220  AHEP      C7              0.4467312253       21.0597752804       26.3346804876  LPSA7     4               2.0000000000
      7033       220  AHEP      H71            -0.4390761474       21.7093872934       26.1915789213  LPSA7     4               2.0000000000
      7034       220  AHEP      H72             0.3470716662       20.1863884362       25.6562848663  LPSA7     4               2.0000000000
      7035       220  AHEP      O7              1.5708831308       21.8369835218       25.8854402863  LPSA7     4               2.0000000000
      7036       220  AHEP      HO7             1.4569052000       22.6771848689       26.3413313158  LPSA7     4               2.0000000000
      7037       221  AHEP      C1              2.7181140040       16.2989438052       31.4597691528  LPSA7     5               3.0000000000
      7038       221  AHEP      H1              1.8077095681       15.8601389847       30.9806470760  LPSA7     5               3.0000000000
      7039       221  AHEP      C5              5.0075458377       15.8761372689       31.9769676281  LPSA7     5               3.0000000000
      7040       221  AHEP      H5              5.1943978347       16.9137296156       31.6102188559  LPSA7     5               3.0000000000
      7041       221  AHEP      O5              3.8241124766       15.3962680516       31.2975233384  LPSA7     5               3.0000000000
      7042       221  AHEP      C2              2.4336195112       16.4310431234       32.9585337611  LPSA7     5               3.0000000000
      7043       221  AHEP      H2              1.6203275865       17.1850112436       33.0898464750  LPSA7     5               3.0000000000
      7044       221  AHEP      O2              1.9507703624       15.1711113683       33.4523247171  LPSA7     5               3.0000000000
      7045       221  AHEP      HO2             1.0198516487       15.2582438833       33.6596522538  LPSA7     5               3.0000000000
      7046       221  AHEP      C3              3.6535504068       16.9389198667       33.7322262857  LPSA7     5               3.0000000000
      7047       221  AHEP      H3              3.9277453010       17.9405387516       33.3154289589  LPSA7     5               3.0000000000
      7048       221  AHEP      O3              3.4716088855       17.0484695911       35.1646246248  LPSA7     5               3.0000000000
      7049       221  AHEP      C4              4.7804775452       15.9658008299       33.4727613259  LPSA7     5               3.0000000000
      7050       221  AHEP      H4              4.5115787620       14.9449926637       33.8436305996  LPSA7     5               3.0000000000
      7051       221  AHEP      O4              5.9878271691       16.4622168966       34.0523914262  LPSA7     5               3.0000000000
      7052       221  AHEP      P4              6.7055342026       15.6376876188       35.3038883855  LPSA7     5               3.0000000000
      7053       221  AHEP      OP42            7.7092082513       16.6611360472       35.8111429071  LPSA7     5               3.0000000000
      7054       221  AHEP      OP43            7.3490949660       14.4455104753       34.6152273564  LPSA7     5               3.0000000000
      7055       221  AHEP      OP44            5.6010456345       15.3159527062       36.2941346396  LPSA7     5               3.0000000000
      7056       221  AHEP      C6              6.2355813319       15.0780091171       31.5748462215  LPSA7     5               3.0000000000
      7057       221  AHEP      H6              7.1386413277       15.5059542461       32.0588308166  LPSA7     5               3.0000000000
      7058       221  AHEP      O6              6.1671876323       13.6914615668       31.9956272682  LPSA7     5               3.0000000000
      7059       221  AHEP      HO6             5.4415188455       13.1860366617       31.6250283438  LPSA7     5               3.0000000000
      7060       221  AHEP      C7              6.4182315774       15.2360024503       30.0797322743  LPSA7     5               3.0000000000
      7061       221  AHEP      H71             7.5136743252       15.0414724696       29.8679125950  LPSA7     5               3.0000000000
      7062       221  AHEP      H72             6.1292831628       16.1937109218       29.6385899353  LPSA7     5               3.0000000000
      7063       221  AHEP      O7              5.6095102461       14.1704838373       29.6003600319  LPSA7     5               3.0000000000
      7064       222  AHEP      C1              4.5224635967       14.3249183513       28.7957367126  LPSA7     6               4.0000000000
      7065       222  AHEP      H1              4.1056003217       15.2746611514       29.0450832902  LPSA7     6               4.0000000000
      7066       222  AHEP      C5              5.0814761338       13.0992442436       26.8949182653  LPSA7     6               4.0000000000
      7067       222  AHEP      H5              6.0628631291       13.2238639418       27.4379544514  LPSA7     6               4.0000000000
      7068       222  AHEP      O5              4.6423934831       14.3570509774       27.3704845195  LPSA7     6               4.0000000000
      7069       222  AHEP      C2              3.6025804460       13.1953108067       29.2438033502  LPSA7     6               4.0000000000
      7070       222  AHEP      H2              3.5889240209       13.1810084345       30.3631933099  LPSA7     6               4.0000000000
      7071       222  AHEP      O2              2.3310846670       13.4379722971       28.7441201819  LPSA7     6               4.0000000000
      7072       222  AHEP      HO2             1.8106992169       13.6029028947       29.5158380989  LPSA7     6               4.0000000000
      7073       222  AHEP      C3              4.0113613232       11.8272153189       28.8595592667  LPSA7     6               4.0000000000
      7074       222  AHEP      H3              4.9101262793       11.6084910355       29.4346213252  LPSA7     6               4.0000000000
      7075       222  AHEP      O3              3.1073077041       10.8559515579       29.3856123273  LPSA7     6               4.0000000000
      7076       222  AHEP      HO3             3.5820260468       10.2075845150       29.9212758639  LPSA7     6               4.0000000000
      7077       222  AHEP      C4              4.0505659722       11.8065483985       27.3609059914  LPSA7     6               4.0000000000
      7078       222  AHEP      H4              3.1917160479       11.9620221641       26.7442827486  LPSA7     6               4.0000000000
      7079       222  AHEP      O4              4.1395301550       10.3392025760       27.0536566850  LPSA7     6               4.0000000000
      7080       222  AHEP      HO4             5.0722535528       10.0109705276       27.0325693917  LPSA7     6               4.0000000000
      7081       222  AHEP      C6              5.5868141467       13.0171942462       25.4351234313  LPSA7     6               4.0000000000
      7082       222  AHEP      H6              6.2361353836       12.1731061687       25.0887425229  LPSA7     6               4.0000000000
      7083       222  AHEP      O6              4.5855720377       12.8446806273       24.5029874128  LPSA7     6               4.0000000000
      7084       222  AHEP      HO6             4.7889504225       13.5688133201       23.8861584879  LPSA7     6               4.0000000000
      7085       222  AHEP      C7              6.6421790857       13.9658077635       25.1348864246  LPSA7     6               4.0000000000
      7086       222  AHEP      H71             6.8731130849       13.6877275608       24.0915904215  LPSA7     6               4.0000000000
      7087       222  AHEP      H72             7.4215192684       13.6560719184       25.8208105043  LPSA7     6               4.0000000000
      7088       222  AHEP      O7              6.4158003494       15.3403869055       25.2946187361  LPSA7     6               4.0000000000
      7089       222  AHEP      HO7             6.4379138457       15.5020307392       26.2304338228  LPSA7     6               4.0000000000
      7090       223  AGLC      C1              3.0715198553       18.3026913770       35.6570289843  LPSA7     7               4.0000000000
      7091       223  AGLC      H1              3.6291269179       19.1288981602       35.1577333195  LPSA7     7               4.0000000000
      7092       223  AGLC      C5              0.8580524514       17.4957126859       36.0971973974  LPSA7     7               4.0000000000
      7093       223  AGLC      H5              1.1912019906       16.4686804778       35.8202420066  LPSA7     7               4.0000000000
      7094       223  AGLC      O5              1.6748431805       18.4750686237       35.4349908179  LPSA7     7               4.0000000000
      7095       223  AGLC      C2              3.2595178160       18.4813129745       37.1697511399  LPSA7     7               4.0000000000
      7096       223  AGLC      H2              2.7642313061       19.4412068174       37.4379436985  LPSA7     7               4.0000000000
      7097       223  AGLC      O2              4.6248016006       18.6472713682       37.5564033717  LPSA7     7               4.0000000000
      7098       223  AGLC      HO2             5.0355147544       17.7586543918       37.5585343332  LPSA7     7               4.0000000000
      7099       223  AGLC      C3              2.5153495770       17.4424653320       37.9756610949  LPSA7     7               4.0000000000
      7100       223  AGLC      H3              2.8401727558       16.4349781182       37.6187456936  LPSA7     7               4.0000000000
      7101       223  AGLC      O3              2.7961300633       17.5607796065       39.4043937309  LPSA7     7               4.0000000000
      7102       223  AGLC      C4              1.0390078023       17.6291941722       37.6090895474  LPSA7     7               4.0000000000
      7103       223  AGLC      H4              0.7108647860       18.6526252369       37.9279807856  LPSA7     7               4.0000000000
      7104       223  AGLC      O4              0.2464781798       16.6355079370       38.2502908780  LPSA7     7               4.0000000000
      7105       223  AGLC      HO4            -0.5406112337       17.0160138873       38.6513516397  LPSA7     7               4.0000000000
      7106       223  AGLC      C6             -0.5416325886       17.6438989527       35.5089163093  LPSA7     7               4.0000000000
      7107       223  AGLC      H61            -0.4686854360       17.4805552482       34.4054822037  LPSA7     7               4.0000000000
      7108       223  AGLC      H62            -1.2511458078       16.8696262823       35.8849099301  LPSA7     7               4.0000000000
      7109       223  AGLC      O6             -1.0901488198       18.9462727117       35.7354162974  LPSA7     7               4.0000000000
      7110       223  AGLC      HO6            -1.6732120573       18.9006343622       36.4917752551  LPSA7     7               4.0000000000
      7111       224  AGLC      C1              3.3934616726       16.3854235447       39.9321719129  LPSA7     8               5.0000000000
      7112       224  AGLC      H1              2.8304579038       15.5445024086       39.5372453531  LPSA7     8               5.0000000000
      7113       224  AGLC      C5              5.6741398337       17.2049216821       40.2229534591  LPSA7     8               5.0000000000
      7114       224  AGLC      H5              5.3147653943       18.1955737417       39.8867341466  LPSA7     8               5.0000000000
      7115       224  AGLC      O5              4.8008818644       16.2459598058       39.5985087425  LPSA7     8               5.0000000000
      7116       224  AGLC      C2              3.2495490817       16.2259393426       41.4391111208  LPSA7     8               5.0000000000
      7117       224  AGLC      H2              3.6533179577       15.2230301735       41.6926419472  LPSA7     8               5.0000000000
      7118       224  AGLC      O2              1.9059435626       16.2806625222       41.9483266511  LPSA7     8               5.0000000000
      7119       224  AGLC      C3              4.0712598590       17.2613018736       42.1248923483  LPSA7     8               5.0000000000
      7120       224  AGLC      H3              3.6924872877       18.2046625490       41.6638344385  LPSA7     8               5.0000000000
      7121       224  AGLC      O3              3.7631556109       17.2261055381       43.5402572339  LPSA7     8               5.0000000000
      7122       224  AGLC      C4              5.5183675970       17.0749766384       41.7353764251  LPSA7     8               5.0000000000
      7123       224  AGLC      H4              5.8110606774       16.0407069008       42.0303720241  LPSA7     8               5.0000000000
      7124       224  AGLC      O4              6.3570491550       18.0063059106       42.4211794468  LPSA7     8               5.0000000000
      7125       224  AGLC      HO4             5.9379528208       18.8761011818       42.4282988935  LPSA7     8               5.0000000000
      7126       224  AGLC      C6              7.1422168534       17.1139287280       39.7450367501  LPSA7     8               5.0000000000
      7127       224  AGLC      H61             7.2118973970       17.0108031127       38.6345656109  LPSA7     8               5.0000000000
      7128       224  AGLC      H62             7.6734450268       18.0538664081       40.0144978519  LPSA7     8               5.0000000000
      7129       224  AGLC      O6              7.9011535508       16.0764045360       40.3694225650  LPSA7     8               5.0000000000
      7130       224  AGLC      HO6             8.1688626036       16.3688150132       41.2385276500  LPSA7     8               5.0000000000
      7131       225  AGAL      C1              0.9759777276       15.3614188233       41.4332816103  LPSA7     9               6.0000000000
      7132       225  AGAL      H1              1.0037477647       15.3376690499       40.3250505049  LPSA7     9               6.0000000000
      7133       225  AGAL      C5              1.0419538077       13.8746590119       43.2917878502  LPSA7     9               6.0000000000
      7134       225  AGAL      H5              1.6778261292       14.6612766551       43.7532055038  LPSA7     9               6.0000000000
      7135       225  AGAL      O5              1.2047687348       14.0141486539       41.8712374340  LPSA7     9               6.0000000000
      7136       225  AGAL      C2             -0.4200463074       15.8200873911       41.8497658895  LPSA7     9               6.0000000000
      7137       225  AGAL      H2             -1.1153362160       15.0940008033       41.3795500503  LPSA7     9               6.0000000000
      7138       225  AGAL      O2             -0.6598058479       17.1024239018       41.2109218654  LPSA7     9               6.0000000000
      7139       225  AGAL      C3             -0.6181607778       15.6969449106       43.3542504698  LPSA7     9               6.0000000000
      7140       225  AGAL      H3              0.1232092533       16.3341480377       43.8874237213  LPSA7     9               6.0000000000
      7141       225  AGAL      O3             -1.8906550174       16.1897627946       43.7610797198  LPSA7     9               6.0000000000
      7142       225  AGAL      HO3            -1.9988514403       16.9142705228       43.1522341389  LPSA7     9               6.0000000000
      7143       225  AGAL      C4             -0.3831116233       14.2262501181       43.7034887610  LPSA7     9               6.0000000000
      7144       225  AGAL      H4             -0.4828507079       14.0810560888       44.7991263431  LPSA7     9               6.0000000000
      7145       225  AGAL      O4             -1.3074723033       13.3560196784       43.0655317743  LPSA7     9               6.0000000000
      7146       225  AGAL      HO4            -1.4580115378       12.5820992560       43.6255642285  LPSA7     9               6.0000000000
      7147       225  AGAL      C6              1.5837643255       12.5539828179       43.8387484697  LPSA7     9               6.0000000000
      7148       225  AGAL      H61             2.6649636231       12.4816529238       43.5876922933  LPSA7     9               6.0000000000
      7149       225  AGAL      H62             1.5199885620       12.5548646570       44.9498838817  LPSA7     9               6.0000000000
      7150       225  AGAL      O6              0.9231627684       11.3776270627       43.3624294268  LPSA7     9               6.0000000000
      7151       225  AGAL      HO6             1.4777843999       10.9923131222       42.6722634756  LPSA7     9               6.0000000000
      7152       226  AGAL      C1             -1.3375715966       18.2248544084       41.7356920103  LPSA7     10              7.0000000000
      7153       226  AGAL      H1             -2.4136164093       17.9732257403       41.8101637251  LPSA7     10              7.0000000000
      7154       226  AGAL      C5              0.4794648867       19.1343818960       43.0503342619  LPSA7     10              7.0000000000
      7155       226  AGAL      H5              1.0883132826       18.2949429803       42.6495605810  LPSA7     10              7.0000000000
      7156       226  AGAL      O5             -0.9034481373       18.6773295926       43.0477590819  LPSA7     10              7.0000000000
      7157       226  AGAL      C2             -1.1858544617       19.3765369445       40.7426203507  LPSA7     10              7.0000000000
      7158       226  AGAL      H2             -1.8031642560       20.2191978880       41.1176946485  LPSA7     10              7.0000000000
      7159       226  AGAL      O2             -1.7497059419       19.1005763054       39.4665854124  LPSA7     10              7.0000000000
      7160       226  AGAL      HO2            -2.3318314921       19.8490056241       39.2549727169  LPSA7     10              7.0000000000
      7161       226  AGAL      C3              0.2742872705       19.8248554014       40.6942931309  LPSA7     10              7.0000000000
      7162       226  AGAL      H3              0.8891165092       18.9274599831       40.4421152062  LPSA7     10              7.0000000000
      7163       226  AGAL      O3              0.5926899739       20.8272733204       39.7216536530  LPSA7     10              7.0000000000
      7164       226  AGAL      HO3             1.0279821673       20.4130749235       38.9727343627  LPSA7     10              7.0000000000
      7165       226  AGAL      C4              0.6636031491       20.2817675794       42.0780099247  LPSA7     10              7.0000000000
      7166       226  AGAL      H4              1.7144394468       20.6023599808       42.0566814287  LPSA7     10              7.0000000000
      7167       226  AGAL      O4             -0.0550225421       21.4197704816       42.4929568505  LPSA7     10              7.0000000000
      7168       226  AGAL      HO4            -0.9734209159       21.1730180403       42.6039953107  LPSA7     10              7.0000000000
      7169       226  AGAL      C6              1.0893704844       19.3867045830       44.4366358590  LPSA7     10              7.0000000000
      7170       226  AGAL      H61             0.8891252277       18.5395573277       45.1088662922  LPSA7     10              7.0000000000
      7171       226  AGAL      H62             2.1888496091       19.4413418151       44.3405191763  LPSA7     10              7.0000000000
      7172       226  AGAL      O6              0.6724204221       20.5727607845       45.1008173848  LPSA7     10              7.0000000000
      7173       226  AGAL      HO6             0.2376273889       20.3930892175       45.9315324641  LPSA7     10              7.0000000000
      7174       227  BGLC      C1              4.5696657640       16.5240961260       44.4843487594  LPSA7     11              6.0000000000
      7175       227  BGLC      H1              5.5303542552       17.0646935093       44.6189899826  LPSA7     11              6.0000000000
      7176       227  BGLC      C5              5.4852494710       14.3535593136       45.1326015682  LPSA7     11              6.0000000000
      7177       227  BGLC      H5              6.4987517204       14.7721266936       45.3559838659  LPSA7     11              6.0000000000
      7178       227  BGLC      O5              4.7568714120       15.1332421731       44.1393117507  LPSA7     11              6.0000000000
      7179       227  BGLC      C2              3.7783413765       16.5604670152       45.7878130519  LPSA7     11              6.0000000000
      7180       227  BGLC      H2              2.7804437133       16.0824895633       45.6356228872  LPSA7     11              6.0000000000
      7181       227  BGLC      O2              3.5238908684       17.8984013629       46.1880116972  LPSA7     11              6.0000000000
      7182       227  BGLC      HO2             2.5856520983       18.0396657322       46.2630603812  LPSA7     11              6.0000000000
      7183       227  BGLC      C3              4.4527767435       15.8028078835       46.9054148299  LPSA7     11              6.0000000000
      7184       227  BGLC      H3              5.4214100609       16.2874464274       47.1695206291  LPSA7     11              6.0000000000
      7185       227  BGLC      O3              3.5703183241       15.7507117351       48.0480154360  LPSA7     11              6.0000000000
      7186       227  BGLC      C4              4.6537704640       14.3811435566       46.4252736323  LPSA7     11              6.0000000000
      7187       227  BGLC      H4              3.6526954642       13.9510646329       46.1815569760  LPSA7     11              6.0000000000
      7188       227  BGLC      O4              5.1919329796       13.5653080216       47.4574035578  LPSA7     11              6.0000000000
      7189       227  BGLC      HO4             4.5215249902       13.4175775530       48.1416718107  LPSA7     11              6.0000000000
      7190       227  BGLC      C6              5.6894733826       12.9591318687       44.5502679469  LPSA7     11              6.0000000000
      7191       227  BGLC      H61             6.0106191646       12.1992932629       45.3029135901  LPSA7     11              6.0000000000
      7192       227  BGLC      H62             4.8194895499       12.6495238046       43.9610629184  LPSA7     11              6.0000000000
      7193       227  BGLC      O6              6.6001732293       12.8779551887       43.5064090902  LPSA7     11              6.0000000000
      7194       227  BGLC      HO6             7.4310304355       12.5575671488       43.8806187255  LPSA7     11              6.0000000000
      7195       228  BGLCNA    C1              4.0386347833       16.1762587984       49.3165542730  LPSA7     12              7.0000000000
      7196       228  BGLCNA    H1              3.9553899813       17.2851261787       49.3777362663  LPSA7     12              7.0000000000
      7197       228  BGLCNA    C5              5.8244777917       16.2504670519       50.8793952787  LPSA7     12              7.0000000000
      7198       228  BGLCNA    H5              5.7426611621       17.3617191901       50.9503625252  LPSA7     12              7.0000000000
      7199       228  BGLCNA    O5              5.3780130684       15.7851468971       49.5914226192  LPSA7     12              7.0000000000
      7200       228  BGLCNA    C2              3.1329632901       15.5224055209       50.3543895745  LPSA7     12              7.0000000000
      7201       228  BGLCNA    H2              3.3564101986       14.4214427054       50.3061640861  LPSA7     12              7.0000000000
      7202       228  BGLCNA    N               1.7544388288       15.8166243208       50.0508402358  LPSA7     12              7.0000000000
      7203       228  BGLCNA    HN              1.5567009902       16.7817932166       49.9865488712  LPSA7     12              7.0000000000
      7204       228  BGLCNA    C               0.8393529823       14.8556467624       49.9067263708  LPSA7     12              7.0000000000
      7205       228  BGLCNA    O               1.1161783844       13.6783314591       50.0561159561  LPSA7     12              7.0000000000
      7206       228  BGLCNA    CT             -0.5671757825       15.2756781852       49.5435410420  LPSA7     12              7.0000000000
      7207       228  BGLCNA    HT1            -1.2411739510       15.1107746160       50.4089355512  LPSA7     12              7.0000000000
      7208       228  BGLCNA    HT2            -0.9569121495       14.6539035521       48.7135248422  LPSA7     12              7.0000000000
      7209       228  BGLCNA    HT3            -0.5614910727       16.3415330119       49.2393377020  LPSA7     12              7.0000000000
      7210       228  BGLCNA    C3              3.4764857379       15.9652511226       51.7640403497  LPSA7     12              7.0000000000
      7211       228  BGLCNA    H3              3.3379337736       17.0696316809       51.8093660833  LPSA7     12              7.0000000000
      7212       228  BGLCNA    O3              2.5973914408       15.3745860423       52.7714727450  LPSA7     12              7.0000000000
      7213       228  BGLCNA    C4              4.9423611884       15.6000596526       51.9561065806  LPSA7     12              7.0000000000
      7214       228  BGLCNA    H4              5.0817697270       14.4949435519       51.8864208702  LPSA7     12              7.0000000000
      7215       228  BGLCNA    O4              5.3781804369       15.9656738812       53.2494571262  LPSA7     12              7.0000000000
      7216       228  BGLCNA    HO4             5.4703373444       16.9164133235       53.3100829637  LPSA7     12              7.0000000000
      7217       228  BGLCNA    C6              7.3003817545       15.9012430882       50.9507137232  LPSA7     12              7.0000000000
      7218       228  BGLCNA    H61             7.7465785093       16.1886416681       51.9273973218  LPSA7     12              7.0000000000
      7219       228  BGLCNA    H62             7.4036161984       14.8005223021       50.8401141438  LPSA7     12              7.0000000000
      7220       228  BGLCNA    O6              8.0556647496       16.5154862101       49.8997549175  LPSA7     12              7.0000000000
      7221       228  BGLCNA    HO6             8.3148489698       17.4126899892       50.1223347596  LPSA7     12              7.0000000000
      7222       229  AGAL      C1              2.2183935433       16.2546428868       53.8353847646  LPSA7     13              8.0000000000
      7223       229  AGAL      H1              3.1031855171       16.8566065437       54.1502458336  LPSA7     13              8.0000000000
      7224       229  AGAL      C5             -0.1109174354       16.3522291296       53.2666028344  LPSA7     13              8.0000000000
      7225       229  AGAL      H5              0.1604295562       15.5507164220       52.5406090753  LPSA7     13              8.0000000000
      7226       229  AGAL      O5              1.1075120043       17.1117828527       53.4608627305  LPSA7     13              8.0000000000
      7227       229  AGAL      C2              1.7628846148       15.5300575877       55.1105465495  LPSA7     13              8.0000000000
      7228       229  AGAL      H2              1.4166936934       16.3354346766       55.8029552440  LPSA7     13              8.0000000000
      7229       229  AGAL      O2              2.8586602167       14.8625846031       55.7484676724  LPSA7     13              8.0000000000
      7230       229  AGAL      C3              0.5248671002       14.6851093347       54.8983818411  LPSA7     13              8.0000000000
      7231       229  AGAL      H3              0.6864827375       14.0078079288       54.0265746365  LPSA7     13              8.0000000000
      7232       229  AGAL      O3              0.1722937770       13.8716292591       56.0090515334  LPSA7     13              8.0000000000
      7233       229  AGAL      HO3            -0.1036631205       12.9908284616       55.7187108609  LPSA7     13              8.0000000000
      7234       229  AGAL      C4             -0.5777611582       15.6237491639       54.5200233371  LPSA7     13              8.0000000000
      7235       229  AGAL      H4             -1.4341551042       14.9858631930       54.2538797121  LPSA7     13              8.0000000000
      7236       229  AGAL      O4             -1.0257486353       16.4795228683       55.5742086756  LPSA7     13              8.0000000000
      7237       229  AGAL      HO4            -0.2965579736       16.9192212037       56.0346329189  LPSA7     13              8.0000000000
      7238       229  AGAL      C6             -1.2340382106       17.0783810441       52.5482273441  LPSA7     13              8.0000000000
      7239       229  AGAL      H61            -0.8306110947       17.5145836962       51.6089584840  LPSA7     13              8.0000000000
      7240       229  AGAL      H62            -2.0217135593       16.3371127135       52.2913531574  LPSA7     13              8.0000000000
      7241       229  AGAL      O6             -1.8707862361       18.1024594595       53.3007325906  LPSA7     13              8.0000000000
      7242       229  AGAL      HO6            -2.4216124065       17.7437686239       54.0102747235  LPSA7     13              8.0000000000
      7243       230  ARHM      C1              3.2655236072       15.3720291149       57.0019814782  LPSA7     14              9.0000000000
      7244       230  ARHM      H1              3.0615522598       16.4643432573       57.0393690863  LPSA7     14              9.0000000000
      7245       230  ARHM      C5              5.0404506366       13.8332851066       57.1737099206  LPSA7     14              9.0000000000
      7246       230  ARHM      H5              4.7224990822       13.3916736509       56.2022071363  LPSA7     14              9.0000000000
      7247       230  ARHM      O5              4.6748786377       15.2223895487       57.1855558438  LPSA7     14              9.0000000000
      7248       230  ARHM      C2              2.5042185304       14.6654409878       58.1058265468  LPSA7     14              9.0000000000
      7249       230  ARHM      H2              1.4151987746       14.7786116785       57.9255029079  LPSA7     14              9.0000000000
      7250       230  ARHM      O2              2.8122031698       15.0463064089       59.4609146087  LPSA7     14              9.0000000000
      7251       230  ARHM      C3              2.8365302870       13.2272723584       58.0648087530  LPSA7     14              9.0000000000
      7252       230  ARHM      H3              2.7040326162       12.8203629955       57.0299143486  LPSA7     14              9.0000000000
      7253       230  ARHM      O3              1.9685563917       12.4559465999       58.9080432278  LPSA7     14              9.0000000000
      7254       230  ARHM      HO3             2.2935449146       12.5208737142       59.8036583295  LPSA7     14              9.0000000000
      7255       230  ARHM      C4              4.3028461989       13.1075721434       58.3260394307  LPSA7     14              9.0000000000
      7256       230  ARHM      H4              4.6586584783       13.5648283941       59.2837670710  LPSA7     14              9.0000000000
      7257       230  ARHM      O4              4.4737774085       11.7261350639       58.4168577026  LPSA7     14              9.0000000000
      7258       230  ARHM      HO4             4.9393862195       11.5363573622       59.2362531627  LPSA7     14              9.0000000000
      7259       230  ARHM      C6              6.5704971278       13.8062700801       57.2389451441  LPSA7     14              9.0000000000
      7260       230  ARHM      H61             7.0678021709       14.5317651291       56.5659718766  LPSA7     14              9.0000000000
      7261       230  ARHM      H62             6.8743694854       13.9744665837       58.2920636345  LPSA7     14              9.0000000000
      7262       230  ARHM      H63             6.9587560495       12.8211176126       56.9285542078  LPSA7     14              9.0000000000
      7263       231  ARHM      C1              2.7371435789       16.4095938191       59.7481852004  LPSA7     15             10.0000000000
      7264       231  ARHM      H1              2.0522012879       16.8973098397       59.0289013198  LPSA7     15             10.0000000000
      7265       231  ARHM      C5              4.9847114596       16.6621059200       60.6362887665  LPSA7     15             10.0000000000
      7266       231  ARHM      H5              5.3019715315       15.6114384214       60.4419476688  LPSA7     15             10.0000000000
      7267       231  ARHM      O5              4.0029438353       17.0982521122       59.6767472456  LPSA7     15             10.0000000000
      7268       231  ARHM      C2              2.1551283449       16.5532167469       61.1408328747  LPSA7     15             10.0000000000
      7269       231  ARHM      H2              1.2183432497       15.9502250263       61.2071837875  LPSA7     15             10.0000000000
      7270       231  ARHM      O2              1.8318889832       17.9503735069       61.3021940636  LPSA7     15             10.0000000000
      7271       231  ARHM      C3              3.1364968573       16.0001073178       62.1355180194  LPSA7     15             10.0000000000
      7272       231  ARHM      H3              3.3925862295       14.9550963891       61.8425570095  LPSA7     15             10.0000000000
      7273       231  ARHM      O3              2.4912272908       15.9809887704       63.4074820212  LPSA7     15             10.0000000000
      7274       231  ARHM      C4              4.4061970453       16.8147040673       62.0350416766  LPSA7     15             10.0000000000
      7275       231  ARHM      H4              4.1256465187       17.8664409177       62.1763192894  LPSA7     15             10.0000000000
      7276       231  ARHM      O4              5.3837466836       16.5497525168       63.0318699974  LPSA7     15             10.0000000000
      7277       231  ARHM      HO4             6.0635499371       17.2248129939       62.9438038467  LPSA7     15             10.0000000000
      7278       231  ARHM      C6              6.2376206500       17.5442633608       60.4555470316  LPSA7     15             10.0000000000
      7279       231  ARHM      H61             7.1049413337       17.1730354088       61.0447879952  LPSA7     15             10.0000000000
      7280       231  ARHM      H62             6.5035144276       17.5901557996       59.3798690954  LPSA7     15             10.0000000000
      7281       231  ARHM      H63             6.0264803030       18.5794115927       60.7709144174  LPSA7     15             10.0000000000
      7282       232  BMANNA    C1              1.2604414331       18.4222550372       62.4996945906  LPSA7     16             11.0000000000
      7283       232  BMANNA    H1              2.0245108615       18.3550065193       63.3129160531  LPSA7     16             11.0000000000
      7284       232  BMANNA    C5             -0.3888567374       18.1617012443       64.1706387615  LPSA7     16             11.0000000000
      7285       232  BMANNA    H5              0.4330462902       18.0992684081       64.9362872760  LPSA7     16             11.0000000000
      7286       232  BMANNA    O5              0.0969109939       17.7003486298       62.9008522914  LPSA7     16             11.0000000000
      7287       232  BMANNA    C2              0.8531306018       19.8906850150       62.3202774861  LPSA7     16             11.0000000000
      7288       232  BMANNA    H2              1.7218889183       20.4984611338       62.0564319704  LPSA7     16             11.0000000000
      7289       232  BMANNA    N              -0.0886497553       20.1698348151       61.2528613067  LPSA7     16             11.0000000000
      7290       232  BMANNA    HN             -1.0290719343       20.2166208357       61.5401523209  LPSA7     16             11.0000000000
      7291       232  BMANNA    C               0.2060274541       20.4547025953       59.9786942255  LPSA7     16             11.0000000000
      7292       232  BMANNA    O               1.3541780948       20.4974451070       59.5623236745  LPSA7     16             11.0000000000
      7293       232  BMANNA    CT             -0.9759533102       20.6700318881       59.0670690773  LPSA7     16             11.0000000000
      7294       232  BMANNA    HT1            -1.1321381484       21.7408948108       58.8479729692  LPSA7     16             11.0000000000
      7295       232  BMANNA    HT2            -1.8946676975       20.2605510119       59.5344150951  LPSA7     16             11.0000000000
      7296       232  BMANNA    HT3            -0.8133502380       20.1200615917       58.1160069967  LPSA7     16             11.0000000000
      7297       232  BMANNA    C3              0.3828399214       20.4153005429       63.6638878214  LPSA7     16             11.0000000000
      7298       232  BMANNA    H3              1.2082839177       20.2874016777       64.4018985778  LPSA7     16             11.0000000000
      7299       232  BMANNA    O3              0.1075823349       21.8029184317       63.5929143165  LPSA7     16             11.0000000000
      7300       232  BMANNA    HO3             0.5371182224       22.2773987665       64.3120192876  LPSA7     16             11.0000000000
      7301       232  BMANNA    C4             -0.8109146597       19.6121658968       64.1173145544  LPSA7     16             11.0000000000
      7302       232  BMANNA    H4             -1.6322495970       19.7531107278       63.3814105037  LPSA7     16             11.0000000000
      7303       232  BMANNA    O4             -1.3151576954       19.9705099682       65.3996098646  LPSA7     16             11.0000000000
      7304       232  BMANNA    HO4            -2.2779626184       19.9113838813       65.3827427269  LPSA7     16             11.0000000000
      7305       232  BMANNA    C6             -1.5114818307       17.3127499064       64.7005310092  LPSA7     16             11.0000000000
      7306       232  BMANNA    H61            -1.4726352183       17.4281692254       65.7742084300  LPSA7     16             11.0000000000
      7307       232  BMANNA    H62            -2.4935381508       17.6958831448       64.4285479098  LPSA7     16             11.0000000000
      7308       232  BMANNA    O6             -1.4871451267       15.9377897617       64.3754175338  LPSA7     16             11.0000000000
      7309       232  BMANNA    HO6            -2.2813735206       15.7318105390       63.8685826102  LPSA7     16             11.0000000000
      7310       233  BGLCNA    C1              2.7460301730       14.8145932927       64.1400919467  LPSA7     17             11.0000000000
      7311       233  BGLCNA    H1              3.8104516947       14.5258422900       63.9817160721  LPSA7     17             11.0000000000
      7312       233  BGLCNA    C5              2.1479269064       12.5297699072       64.5567272165  LPSA7     17             11.0000000000
      7313       233  BGLCNA    H5              3.1706596999       12.2088204990       64.3023045117  LPSA7     17             11.0000000000
      7314       233  BGLCNA    O5              1.8916977172       13.7148591069       63.7788797900  LPSA7     17             11.0000000000
      7315       233  BGLCNA    C2              2.5009636939       15.2247670805       65.5794445930  LPSA7     17             11.0000000000
      7316       233  BGLCNA    H2              1.4166679807       15.4435100597       65.7499695528  LPSA7     17             11.0000000000
      7317       233  BGLCNA    N               3.2316494646       16.4415875110       65.8790010880  LPSA7     17             11.0000000000
      7318       233  BGLCNA    HN              4.0741221418       16.5504613921       65.3644111882  LPSA7     17             11.0000000000
      7319       233  BGLCNA    C               2.9179060738       17.3563328924       66.8051082338  LPSA7     17             11.0000000000
      7320       233  BGLCNA    O               1.8823746598       17.3676994264       67.4554925288  LPSA7     17             11.0000000000
      7321       233  BGLCNA    CT              3.9889263856       18.3885832005       67.0352386728  LPSA7     17             11.0000000000
      7322       233  BGLCNA    HT1             3.7713541377       19.3486912218       66.5266777868  LPSA7     17             11.0000000000
      7323       233  BGLCNA    HT2             4.9516945372       17.9732497302       66.6813051648  LPSA7     17             11.0000000000
      7324       233  BGLCNA    HT3             4.0955209520       18.5925260562       68.1199155061  LPSA7     17             11.0000000000
      7325       233  BGLCNA    C3              2.8864554887       14.0333784048       66.4301045367  LPSA7     17             11.0000000000
      7326       233  BGLCNA    H3              3.9174380526       13.7676802023       66.0907749517  LPSA7     17             11.0000000000
      7327       233  BGLCNA    O3              2.9303661893       14.4221219468       67.8288294226  LPSA7     17             11.0000000000
      7328       233  BGLCNA    C4              1.9652638384       12.8777790101       66.0435006792  LPSA7     17             11.0000000000
      7329       233  BGLCNA    H4              0.9029368078       13.2025336970       66.1513923989  LPSA7     17             11.0000000000
      7330       233  BGLCNA    O4              2.1671016839       11.7454174609       66.8861889803  LPSA7     17             11.0000000000
      7331       233  BGLCNA    HO4             1.5601276449       11.0295605408       66.7025134054  LPSA7     17             11.0000000000
      7332       233  BGLCNA    C6              1.2434401060       11.3788367255       64.1177373389  LPSA7     17             11.0000000000
      7333       233  BGLCNA    H61             1.7856562193       10.4088470724       64.1617616203  LPSA7     17             11.0000000000
      7334       233  BGLCNA    H62             0.3705812068       11.3197872605       64.8020646814  LPSA7     17             11.0000000000
      7335       233  BGLCNA    O6              0.7299962545       11.5112358690       62.7986511927  LPSA7     17             11.0000000000
      7336       233  BGLCNA    HO6             1.4444619797       11.6208753229       62.1633194187  LPSA7     17             11.0000000000
      7337       234  AGAL      C1              3.9405035988       13.8087714579       68.6101188425  LPSA7     18             12.0000000000
      7338       234  AGAL      H1              3.6589220548       12.7460169327       68.7979453692  LPSA7     18             12.0000000000
      7339       234  AGAL      C5              5.7101160097       15.1841041331       67.8513456797  LPSA7     18             12.0000000000
      7340       234  AGAL      H5              4.9136802937       15.7890008481       67.4224910128  LPSA7     18             12.0000000000
      7341       234  AGAL      O5              5.2110184794       13.8394693401       67.9494812267  LPSA7     18             12.0000000000
      7342       234  AGAL      C2              4.1602507635       14.4741307861       69.9632470224  LPSA7     18             12.0000000000
      7343       234  AGAL      H2              5.0000888157       13.8830195039       70.3720943306  LPSA7     18             12.0000000000
      7344       234  AGAL      O2              3.0687586528       14.3051519377       70.8737438305  LPSA7     18             12.0000000000
      7345       234  AGAL      C3              4.6801309350       15.9133882217       69.8513297140  LPSA7     18             12.0000000000
      7346       234  AGAL      H3              4.0031984725       16.4773150825       69.1736604597  LPSA7     18             12.0000000000
      7347       234  AGAL      O3              4.7013808029       16.6204993949       71.0873624836  LPSA7     18             12.0000000000
      7348       234  AGAL      HO3             4.3479047927       17.5143905176       70.9918447156  LPSA7     18             12.0000000000
      7349       234  AGAL      C4              6.0222186980       15.8676925343       69.1824827779  LPSA7     18             12.0000000000
      7350       234  AGAL      H4              6.4276639610       16.8777713227       68.9432640701  LPSA7     18             12.0000000000
      7351       234  AGAL      O4              7.0224239300       15.2138368914       69.9686991878  LPSA7     18             12.0000000000
      7352       234  AGAL      HO4             7.2447617830       15.7885304385       70.7121989803  LPSA7     18             12.0000000000
      7353       234  AGAL      C6              6.7077716226       15.3070608900       66.8008919135  LPSA7     18             12.0000000000
      7354       234  AGAL      H61             6.3692066550       14.7470830685       65.8817393318  LPSA7     18             12.0000000000
      7355       234  AGAL      H62             7.0254498726       16.3236063488       66.5478901542  LPSA7     18             12.0000000000
      7356       234  AGAL      O6              7.8523114187       14.8779503420       67.4338116341  LPSA7     18             12.0000000000
      7357       234  AGAL      HO6             7.6336267167       13.9530563755       67.7200077814  LPSA7     18             12.0000000000
      7358       235  ARHM      C1              3.5333784828       13.9997621637       72.1685225720  LPSA7     19             13.0000000000
      7359       235  ARHM      H1              4.5085593379       14.4872714746       72.3516958405  LPSA7     19             13.0000000000
      7360       235  ARHM      C5              2.5149043021       11.8523656998       72.2442569672  LPSA7     19             13.0000000000
      7361       235  ARHM      H5              2.1575001472       12.0782738454       71.2123070734  LPSA7     19             13.0000000000
      7362       235  ARHM      O5              3.7195163429       12.5946640560       72.4117997041  LPSA7     19             13.0000000000
      7363       235  ARHM      C2              2.5113815546       14.5363900544       73.1223534253  LPSA7     19             13.0000000000
      7364       235  ARHM      H2              2.2881959600       15.6050168323       72.8788736951  LPSA7     19             13.0000000000
      7365       235  ARHM      O2              3.0074843405       14.4942198456       74.4643869433  LPSA7     19             13.0000000000
      7366       235  ARHM      C3              1.2265910390       13.7590375636       72.9628303240  LPSA7     19             13.0000000000
      7367       235  ARHM      H3              0.8878970668       13.8358436565       71.9010311304  LPSA7     19             13.0000000000
      7368       235  ARHM      O3              0.2038833689       14.2872164124       73.7853527340  LPSA7     19             13.0000000000
      7369       235  ARHM      HO3             0.6025355930       14.3848632060       74.6578643600  LPSA7     19             13.0000000000
      7370       235  ARHM      C4              1.4804489701       12.3021042218       73.2473659612  LPSA7     19             13.0000000000
      7371       235  ARHM      H4              1.8727579414       12.2052459734       74.2878325520  LPSA7     19             13.0000000000
      7372       235  ARHM      O4              0.3067583728       11.5019171844       73.1540205012  LPSA7     19             13.0000000000
      7373       235  ARHM      HO4             0.0054875111       11.5361214284       72.2428946437  LPSA7     19             13.0000000000
      7374       235  ARHM      C6              2.8079592270       10.3490470104       72.2288879923  LPSA7     19             13.0000000000
      7375       235  ARHM      H61             3.6010528676       10.2260647856       71.4743090187  LPSA7     19             13.0000000000
      7376       235  ARHM      H62             3.1926786719        9.8959997175       73.1331128361  LPSA7     19             13.0000000000
      7377       235  ARHM      H63             1.8988787338        9.7557837980       72.0152212527  LPSA7     19             13.0000000000
      7378       236  ARHM      C1              3.9964584007       15.4763159088       74.7009080204  LPSA7     20             14.0000000000
      7379       236  ARHM      H1              4.0489499976       16.2126513387       73.8671854206  LPSA7     20             14.0000000000
      7380       236  ARHM      C5              5.4362603074       14.0693636804       75.9617476466  LPSA7     20             14.0000000000
      7381       236  ARHM      H5              4.7073922377       13.2416891096       75.8101949008  LPSA7     20             14.0000000000
      7382       236  ARHM      O5              5.3306543476       14.9663435500       74.8544547815  LPSA7     20             14.0000000000
      7383       236  ARHM      C2              3.5809092504       16.1957438910       75.9496024189  LPSA7     20             14.0000000000
      7384       236  ARHM      H2              2.5045625655       16.4983961331       75.8512380517  LPSA7     20             14.0000000000
      7385       236  ARHM      O2              4.4143275021       17.3438684516       76.1535225039  LPSA7     20             14.0000000000
      7386       236  ARHM      C3              3.6819492267       15.2923409660       77.1268238578  LPSA7     20             14.0000000000
      7387       236  ARHM      H3              3.0217808893       14.4060710296       76.9612316161  LPSA7     20             14.0000000000
      7388       236  ARHM      O3              3.2428282747       16.0191599037       78.2727749697  LPSA7     20             14.0000000000
      7389       236  ARHM      C4              5.1015161932       14.8227765748       77.2380928698  LPSA7     20             14.0000000000
      7390       236  ARHM      H4              5.8312975793       15.6627822259       77.3209042576  LPSA7     20             14.0000000000
      7391       236  ARHM      O4              5.2525185413       13.9976415372       78.3759988570  LPSA7     20             14.0000000000
      7392       236  ARHM      HO4             5.9293379909       13.3666773800       78.1234001345  LPSA7     20             14.0000000000
      7393       236  ARHM      C6              6.8390352797       13.4431446040       75.9692921422  LPSA7     20             14.0000000000
      7394       236  ARHM      H61             7.6453601381       14.1980359295       76.0429711449  LPSA7     20             14.0000000000
      7395       236  ARHM      H62             6.9272320709       12.6963062355       76.7818466545  LPSA7     20             14.0000000000
      7396       236  ARHM      H63             7.0020083738       12.9066579473       75.0210805406  LPSA7     20             14.0000000000
      7397       237  BMANNA    C1              3.9353636679       18.4201925681       75.4059263455  LPSA7     21             15.0000000000
      7398       237  BMANNA    H1              3.1291733016       18.0679127574       74.7202653029  LPSA7     21             15.0000000000
      7399       237  BMANNA    C5              4.2979858179       19.9331592252       73.6433419090  LPSA7     21             15.0000000000
      7400       237  BMANNA    H5              3.4356471663       19.4851335946       73.0848362602  LPSA7     21             15.0000000000
      7401       237  BMANNA    O5              4.9050801713       18.9469080568       74.5045259482  LPSA7     21             15.0000000000
      7402       237  BMANNA    C2              3.3814123511       19.4850000254       76.3439838851  LPSA7     21             15.0000000000
      7403       237  BMANNA    H2              2.5691232928       18.9680902442       76.9224235829  LPSA7     21             15.0000000000
      7404       237  BMANNA    N               4.3579033740       20.0562835394       77.2776790746  LPSA7     21             15.0000000000
      7405       237  BMANNA    HN              5.2602641373       20.2143715321       76.9076479778  LPSA7     21             15.0000000000
      7406       237  BMANNA    C               4.1057010314       20.3550033423       78.5713095308  LPSA7     21             15.0000000000
      7407       237  BMANNA    O               2.9753613775       20.3639356538       79.0313373316  LPSA7     21             15.0000000000
      7408       237  BMANNA    CT              5.2880685355       20.6858534806       79.4491404340  LPSA7     21             15.0000000000
      7409       237  BMANNA    HT1             5.6439120244       21.7216498521       79.2790715854  LPSA7     21             15.0000000000
      7410       237  BMANNA    HT2             6.0994986453       19.9457069313       79.3155194687  LPSA7     21             15.0000000000
      7411       237  BMANNA    HT3             4.9486010728       20.6015083236       80.4938272417  LPSA7     21             15.0000000000
      7412       237  BMANNA    C3              2.7429870689       20.5163000207       75.4527337602  LPSA7     21             15.0000000000
      7413       237  BMANNA    H3              1.9299982723       19.9835670584       74.9105910454  LPSA7     21             15.0000000000
      7414       237  BMANNA    O3              2.1077912875       21.5479441938       76.1719447072  LPSA7     21             15.0000000000
      7415       237  BMANNA    HO3             2.7443903040       21.9114794669       76.7930019894  LPSA7     21             15.0000000000
      7416       237  BMANNA    C4              3.7476812118       21.0699679583       74.4679058244  LPSA7     21             15.0000000000
      7417       237  BMANNA    H4              4.5695516337       21.5692714208       75.0255258132  LPSA7     21             15.0000000000
      7418       237  BMANNA    O4              3.2124764127       22.0439020139       73.5892545357  LPSA7     21             15.0000000000
      7419       237  BMANNA    HO4             3.5858694669       22.9079955802       73.7867945291  LPSA7     21             15.0000000000
      7420       237  BMANNA    C6              5.2701042299       20.4184714717       72.6000124623  LPSA7     21             15.0000000000
      7421       237  BMANNA    H61             4.7187286543       20.9545413359       71.7943590813  LPSA7     21             15.0000000000
      7422       237  BMANNA    H62             5.9517656175       21.1540999487       73.0535187046  LPSA7     21             15.0000000000
      7423       237  BMANNA    O6              6.0469758730       19.3589264282       72.0506460894  LPSA7     21             15.0000000000
      7424       237  BMANNA    HO6             6.5486822677       18.9738611077       72.7816898403  LPSA7     21             15.0000000000
      7425       238  BGLCNA    C1              2.5240779009       15.2937460700       79.2378878423  LPSA7     22             15.0000000000
      7426       238  BGLCNA    H1              2.8179155546       14.2218517486       79.2456789338  LPSA7     22             15.0000000000
      7427       238  BGLCNA    C5              0.4004823144       14.7081942814       80.0996232667  LPSA7     22             15.0000000000
      7428       238  BGLCNA    H5              0.7427268964       13.6428933061       80.1132743926  LPSA7     22             15.0000000000
      7429       238  BGLCNA    O5              1.1086264563       15.4088009211       79.0578835510  LPSA7     22             15.0000000000
      7430       238  BGLCNA    C2              2.9166037094       15.9312519618       80.5455881597  LPSA7     22             15.0000000000
      7431       238  BGLCNA    H2              2.5976455608       17.0068851144       80.4957840657  LPSA7     22             15.0000000000
      7432       238  BGLCNA    N               4.3488409176       15.8584633221       80.7326057732  LPSA7     22             15.0000000000
      7433       238  BGLCNA    HN              4.7930611438       15.0350263382       80.3969720701  LPSA7     22             15.0000000000
      7434       238  BGLCNA    C               5.0757616755       16.7884398035       81.3528144543  LPSA7     22             15.0000000000
      7435       238  BGLCNA    O               4.6102708346       17.8066094850       81.8505295104  LPSA7     22             15.0000000000
      7436       238  BGLCNA    CT              6.5357515245       16.4732707957       81.4078024546  LPSA7     22             15.0000000000
      7437       238  BGLCNA    HT1             7.0165586802       16.9862902998       80.5484329351  LPSA7     22             15.0000000000
      7438       238  BGLCNA    HT2             6.7025410842       15.3818830382       81.2849962978  LPSA7     22             15.0000000000
      7439       238  BGLCNA    HT3             7.0087214335       16.7824964457       82.3633520809  LPSA7     22             15.0000000000
      7440       238  BGLCNA    C3              2.2043388621       15.2449527513       81.6832862570  LPSA7     22             15.0000000000
      7441       238  BGLCNA    H3              2.4635036585       14.1590910190       81.6527487440  LPSA7     22             15.0000000000
      7442       238  BGLCNA    O3              2.7144426959       15.8253771977       82.8975648586  LPSA7     22             15.0000000000
      7443       238  BGLCNA    C4              0.7213528300       15.3520679626       81.4566463022  LPSA7     22             15.0000000000
      7444       238  BGLCNA    H4              0.4510990737       16.4294963130       81.4064702320  LPSA7     22             15.0000000000
      7445       238  BGLCNA    O4             -0.0199602289       14.7794412487       82.5288534178  LPSA7     22             15.0000000000
      7446       238  BGLCNA    HO4            -0.8161014755       15.2890140887       82.6967791638  LPSA7     22             15.0000000000
      7447       238  BGLCNA    C6             -1.0736723875       14.7729218726       79.7761113571  LPSA7     22             15.0000000000
      7448       238  BGLCNA    H61            -1.6415977624       14.5233320464       80.6957169640  LPSA7     22             15.0000000000
      7449       238  BGLCNA    H62            -1.3357390033       15.8066844700       79.4724618362  LPSA7     22             15.0000000000
      7450       238  BGLCNA    O6             -1.5034372748       13.8630379023       78.7601893217  LPSA7     22             15.0000000000
      7451       238  BGLCNA    HO6            -0.9047689567       13.8978194176       78.0064063582  LPSA7     22             15.0000000000
      7452       239  AGAL      C1              2.5635169368       15.1152386019       84.0990428885  LPSA7     23             16.0000000000
      7453       239  AGAL      H1              1.5143456484       15.1864783510       84.4518850419  LPSA7     23             16.0000000000
      7454       239  AGAL      C5              4.2598153914       13.5118924516       83.7145203283  LPSA7     23             16.0000000000
      7455       239  AGAL      H5              4.5681917988       14.0817286352       82.8088857164  LPSA7     23             16.0000000000
      7456       239  AGAL      O5              2.8782658016       13.7304135636       83.9807367090  LPSA7     23             16.0000000000
      7457       239  AGAL      C2              3.4093123079       15.7371154085       85.1836308230  LPSA7     23             16.0000000000
      7458       239  AGAL      H2              3.2094032430       15.1397890550       86.1025722689  LPSA7     23             16.0000000000
      7459       239  AGAL      O2              3.0465930206       17.1090879574       85.4374153729  LPSA7     23             16.0000000000
      7460       239  AGAL      C3              4.8819863757       15.5422454604       84.8810582108  LPSA7     23             16.0000000000
      7461       239  AGAL      H3              5.1031793073       15.9272789380       83.8618047536  LPSA7     23             16.0000000000
      7462       239  AGAL      O3              5.7321829728       16.2649155306       85.7632211968  LPSA7     23             16.0000000000
      7463       239  AGAL      HO3             5.4151828808       16.1174923729       86.6513870684  LPSA7     23             16.0000000000
      7464       239  AGAL      C4              5.1570893907       14.0519370643       84.8470186396  LPSA7     23             16.0000000000
      7465       239  AGAL      H4              6.2365830668       13.9275338032       84.6181440984  LPSA7     23             16.0000000000
      7466       239  AGAL      O4              4.8893991712       13.4086905998       86.0877024554  LPSA7     23             16.0000000000
      7467       239  AGAL      HO4             4.6492001868       12.4869336781       85.8837733195  LPSA7     23             16.0000000000
      7468       239  AGAL      C6              4.2930618863       12.0631644587       83.2893527989  LPSA7     23             16.0000000000
      7469       239  AGAL      H61             3.5444167101       11.8008037409       82.5411063283  LPSA7     23             16.0000000000
      7470       239  AGAL      H62             5.2051823134       11.9642528493       82.6759357167  LPSA7     23             16.0000000000
      7471       239  AGAL      O6              4.1572757920       11.1298087886       84.3769313506  LPSA7     23             16.0000000000
      7472       239  AGAL      HO6             4.4292453976       10.2238445043       84.1565682286  LPSA7     23             16.0000000000
      7473       240  ARHM      C1              1.9292673828       17.3701685923       86.2701276738  LPSA7     24             17.0000000000
      7474       240  ARHM      H1              1.3243660941       16.4410710789       86.3825856816  LPSA7     24             17.0000000000
      7475       240  ARHM      C5              1.6915033784       19.6682513082       85.6326884178  LPSA7     24             17.0000000000
      7476       240  ARHM      H5              2.5526607919       19.5113037237       84.9447070481  LPSA7     24             17.0000000000
      7477       240  ARHM      O5              1.0374574313       18.3972337626       85.7801032834  LPSA7     24             17.0000000000
      7478       240  ARHM      C2              2.5116441085       17.7946628586       87.5915908597  LPSA7     24             17.0000000000
      7479       240  ARHM      H2              3.2542855179       17.0343698632       87.9037400835  LPSA7     24             17.0000000000
      7480       240  ARHM      O2              1.5056944546       17.9570910866       88.6021017237  LPSA7     24             17.0000000000
      7481       240  ARHM      C3              3.2459246292       19.0947546182       87.4239856111  LPSA7     24             17.0000000000
      7482       240  ARHM      H3              4.0181310299       18.9532569923       86.6287439253  LPSA7     24             17.0000000000
      7483       240  ARHM      O3              3.9551442252       19.4287923069       88.6151095766  LPSA7     24             17.0000000000
      7484       240  ARHM      HO3             3.3839502667       19.9867599336       89.1580010097  LPSA7     24             17.0000000000
      7485       240  ARHM      C4              2.2529428712       20.1429297095       86.9607271676  LPSA7     24             17.0000000000
      7486       240  ARHM      H4              1.4153673296       20.2213890447       87.6991818664  LPSA7     24             17.0000000000
      7487       240  ARHM      O4              2.8556708612       21.4194210820       86.8054487785  LPSA7     24             17.0000000000
      7488       240  ARHM      HO4             2.2454258016       22.1229564852       87.0453947024  LPSA7     24             17.0000000000
      7489       240  ARHM      C6              0.7606092205       20.6905813508       84.9398391754  LPSA7     24             17.0000000000
      7490       240  ARHM      H61             1.3677194386       21.4442425428       84.3951774202  LPSA7     24             17.0000000000
      7491       240  ARHM      H62             0.1096861875       20.1640557856       84.2124302507  LPSA7     24             17.0000000000
      7492       240  ARHM      H63             0.1274672043       21.2339521228       85.6579251359  LPSA7     24             17.0000000000
      7493       241  ARHM      C1              1.0192373910       16.7586397036       89.1472637322  LPSA7     25             18.0000000000
      7494       241  ARHM      H1              1.2801263519       15.9225621166       88.4642728684  LPSA7     25             18.0000000000
      7495       241  ARHM      C5             -0.9066540379       17.6706179945       90.2059646329  LPSA7     25             18.0000000000
      7496       241  ARHM      H5             -0.5767394494       18.6550077637       89.8292616527  LPSA7     25             18.0000000000
      7497       241  ARHM      O5             -0.4137968224       16.7014703571       89.2749562954  LPSA7     25             18.0000000000
      7498       241  ARHM      C2              1.6876762776       16.5276785825       90.4657725360  LPSA7     25             18.0000000000
      7499       241  ARHM      H2              2.7903616060       16.6921207288       90.3748410694  LPSA7     25             18.0000000000
      7500       241  ARHM      O2              1.4201531158       15.1873875858       90.8967177131  LPSA7     25             18.0000000000
      7501       241  ARHM      C3              1.1843114873       17.5423635862       91.4549378144  LPSA7     25             18.0000000000
      7502       241  ARHM      H3              1.4206057739       18.5721096032       91.0837541702  LPSA7     25             18.0000000000
      7503       241  ARHM      O3              1.8125144712       17.2814776997       92.7077681551  LPSA7     25             18.0000000000
      7504       241  ARHM      C4             -0.3013878308       17.4567025831       91.5826064004  LPSA7     25             18.0000000000
      7505       241  ARHM      H4             -0.6051465894       16.4344284881       91.9201785642  LPSA7     25             18.0000000000
      7506       241  ARHM      O4             -0.7543564203       18.4157880889       92.5408089816  LPSA7     25             18.0000000000
      7507       241  ARHM      HO4            -1.4649012151       17.9836392113       93.0134300924  LPSA7     25             18.0000000000
      7508       241  ARHM      C6             -2.4469049374       17.6398795082       90.2151879418  LPSA7     25             18.0000000000
      7509       241  ARHM      H61            -2.8339901326       17.7171585216       89.1771562077  LPSA7     25             18.0000000000
      7510       241  ARHM      H62            -2.8145857820       16.7086624617       90.6816908888  LPSA7     25             18.0000000000
      7511       241  ARHM      H63            -2.8404360004       18.4954186624       90.8047600752  LPSA7     25             18.0000000000
      7512       242  BMANNA    C1              2.2097195382       14.1970092995       90.2890890275  LPSA7     26             19.0000000000
      7513       242  BMANNA    H1              3.1161687762       14.6208369099       89.8729500594  LPSA7     26             19.0000000000
      7514       242  BMANNA    C5              2.4734287179       12.5541089069       88.5911742752  LPSA7     26             19.0000000000
      7515       242  BMANNA    H5              3.3506435134       13.1139568438       88.1832372269  LPSA7     26             19.0000000000
      7516       242  BMANNA    O5              1.5659271474       13.4852322312       89.2233054423  LPSA7     26             19.0000000000
      7517       242  BMANNA    C2              2.6263116397       13.2509641392       91.3635335707  LPSA7     26             19.0000000000
      7518       242  BMANNA    H2              3.1796751480       13.8696124655       92.1278922668  LPSA7     26             19.0000000000
      7519       242  BMANNA    N               1.4748454042       12.5813379393       91.9398999681  LPSA7     26             19.0000000000
      7520       242  BMANNA    HN              0.8441432216       12.1954421938       91.2811006504  LPSA7     26             19.0000000000
      7521       242  BMANNA    C               1.1984991980       12.5429772297       93.2419542779  LPSA7     26             19.0000000000
      7522       242  BMANNA    O               1.8328243929       13.1821375821       94.0599921166  LPSA7     26             19.0000000000
      7523       242  BMANNA    CT              0.0852237496       11.6153918152       93.6606614746  LPSA7     26             19.0000000000
      7524       242  BMANNA    HT1            -0.6554131915       11.5138694625       92.8439721607  LPSA7     26             19.0000000000
      7525       242  BMANNA    HT2            -0.4198108536       11.9225611646       94.6015528022  LPSA7     26             19.0000000000
      7526       242  BMANNA    HT3             0.5435568873       10.6279429473       93.8543915718  LPSA7     26             19.0000000000
      7527       242  BMANNA    C3              3.6150025609       12.2951913728       90.7641597782  LPSA7     26             19.0000000000
      7528       242  BMANNA    H3              4.4742958388       12.8858081135       90.3796084218  LPSA7     26             19.0000000000
      7529       242  BMANNA    O3              4.1059146899       11.4447889589       91.7780118571  LPSA7     26             19.0000000000
      7530       242  BMANNA    HO3             4.8022603621       11.9308444757       92.2480780557  LPSA7     26             19.0000000000
      7531       242  BMANNA    C4              2.9689541039       11.5445784862       89.6187765275  LPSA7     26             19.0000000000
      7532       242  BMANNA    H4              2.1060320630       10.9590863314       89.9860706457  LPSA7     26             19.0000000000
      7533       242  BMANNA    O4              3.8510668320       10.6184245876       89.0151087784  LPSA7     26             19.0000000000
      7534       242  BMANNA    HO4             3.9274380308        9.8314752866       89.5690895252  LPSA7     26             19.0000000000
      7535       242  BMANNA    C6              1.7334020601       11.9559911985       87.4075844183  LPSA7     26             19.0000000000
      7536       242  BMANNA    H61             1.1295814317       12.7575554637       86.9195956496  LPSA7     26             19.0000000000
      7537       242  BMANNA    H62             2.4541930004       11.5756376160       86.6457415627  LPSA7     26             19.0000000000
      7538       242  BMANNA    O6              0.8706463576       10.8857152647       87.8098321861  LPSA7     26             19.0000000000
      7539       242  BMANNA    HO6             1.4359479499       10.1793564626       88.1368932028  LPSA7     26             19.0000000000
      7540       243  BGLCNA    C1              2.2303374347       18.3718056332       93.4711805564  LPSA7     27             19.0000000000
      7541       243  BGLCNA    H1              1.5141677977       19.2188543009       93.4260585279  LPSA7     27             19.0000000000
      7542       243  BGLCNA    C5              3.9980732709       19.8604034438       93.9158076487  LPSA7     27             19.0000000000
      7543       243  BGLCNA    H5              3.1704935925       20.5643050639       93.9313515376  LPSA7     27             19.0000000000
      7544       243  BGLCNA    O5              3.5268760102       18.8135083263       93.0684903590  LPSA7     27             19.0000000000
      7545       243  BGLCNA    C2              2.3229427019       17.7931545036       94.8722577494  LPSA7     27             19.0000000000
      7546       243  BGLCNA    H2              3.1097338007       16.9955932736       94.8349070645  LPSA7     27             19.0000000000
      7547       243  BGLCNA    N               1.0680030604       17.1880885505       95.3066197411  LPSA7     27             19.0000000000
      7548       243  BGLCNA    HN              0.2426366768       17.6735204947       95.0470320679  LPSA7     27             19.0000000000
      7549       243  BGLCNA    C               1.0535234973       16.0058955901       95.9666260367  LPSA7     27             19.0000000000
      7550       243  BGLCNA    O               2.0522672389       15.5740445616       96.5320788441  LPSA7     27             19.0000000000
      7551       243  BGLCNA    CT             -0.2484319027       15.2374564912       96.0276006073  LPSA7     27             19.0000000000
      7552       243  BGLCNA    HT1            -1.0006092125       15.7192312803       95.3773461117  LPSA7     27             19.0000000000
      7553       243  BGLCNA    HT2            -0.6317554299       15.1587361335       97.0623281740  LPSA7     27             19.0000000000
      7554       243  BGLCNA    HT3            -0.0588643578       14.1995793281       95.6678893014  LPSA7     27             19.0000000000
      7555       243  BGLCNA    C3              2.8002862605       18.8483851029       95.8246348892  LPSA7     27             19.0000000000
      7556       243  BGLCNA    H3              2.0756602238       19.6969033803       95.7782297579  LPSA7     27             19.0000000000
      7557       243  BGLCNA    O3              2.7664329188       18.2198174001       97.1326070536  LPSA7     27             19.0000000000
      7558       243  BGLCNA    C4              4.1492536206       19.3581489420       95.3405591897  LPSA7     27             19.0000000000
      7559       243  BGLCNA    H4              4.9063270906       18.5447448232       95.3445506977  LPSA7     27             19.0000000000
      7560       243  BGLCNA    O4              4.6067373620       20.4264633977       96.1535963418  LPSA7     27             19.0000000000
      7561       243  BGLCNA    HO4             3.9987870215       21.1663700143       96.0762237799  LPSA7     27             19.0000000000
      7562       243  BGLCNA    C6              5.1887081223       20.5826866738       93.3108852460  LPSA7     27             19.0000000000
      7563       243  BGLCNA    H61             5.3993622085       21.5307186786       93.8513719840  LPSA7     27             19.0000000000
      7564       243  BGLCNA    H62             6.0964493349       19.9822771410       93.4333816669  LPSA7     27             19.0000000000
      7565       243  BGLCNA    O6              4.9917698618       20.8700451178       91.9210855114  LPSA7     27             19.0000000000
      7566       243  BGLCNA    HO6             5.8176518202       21.2073361725       91.5503486907  LPSA7     27             19.0000000000
      7567       244  AGAL      C1              2.7769455867       19.0750244692       98.2422585799  LPSA7     28             20.0000000000
      7568       244  AGAL      H1              3.7971047402       19.5024927625       98.3198698985  LPSA7     28             20.0000000000
      7569       244  AGAL      C5              0.4596160099       19.6807854174       98.1295529117  LPSA7     28             20.0000000000
      7570       244  AGAL      H5              0.3273711709       18.8153834637       97.4335656011  LPSA7     28             20.0000000000
      7571       244  AGAL      O5              1.8295641570       20.1449018210       98.0490887025  LPSA7     28             20.0000000000
      7572       244  AGAL      C2              2.4947211758       18.4184437206       99.6110477470  LPSA7     28             20.0000000000
      7573       244  AGAL      H2              2.5934627928       19.2900236716      100.2998002027  LPSA7     28             20.0000000000
      7574       244  AGAL      O2              3.4076387530       17.4176697197      100.1007602157  LPSA7     28             20.0000000000
      7575       244  AGAL      C3              1.0670061764       17.9226263551       99.6871151919  LPSA7     28             20.0000000000
      7576       244  AGAL      H3              0.8997059436       17.2120378862       98.8471337571  LPSA7     28             20.0000000000
      7577       244  AGAL      O3              0.7472653754       17.2047686445      100.8714529186  LPSA7     28             20.0000000000
      7578       244  AGAL      HO3             0.4110842607       16.3336662783      100.6336661496  LPSA7     28             20.0000000000
      7579       244  AGAL      C4              0.1543226880       19.1034439781       99.4934875676  LPSA7     28             20.0000000000
      7580       244  AGAL      H4             -0.8926306044       18.7273794225       99.4918939887  LPSA7     28             20.0000000000
      7581       244  AGAL      O4              0.2758823313       20.0828378404      100.5146574639  LPSA7     28             20.0000000000
      7582       244  AGAL      HO4            -0.4781720301       20.0124283935      101.1023389566  LPSA7     28             20.0000000000
      7583       244  AGAL      C6             -0.5276814454       20.7434164143       97.6520993648  LPSA7     28             20.0000000000
      7584       244  AGAL      H61            -0.3435195991       20.9097428852       96.5709098958  LPSA7     28             20.0000000000
      7585       244  AGAL      H62            -1.5817324476       20.4052440082       97.7670316980  LPSA7     28             20.0000000000
      7586       244  AGAL      O6             -0.4357066358       21.9986442755       98.3215935359  LPSA7     28             20.0000000000
      7587       244  AGAL      HO6             0.3188073899       22.4957716552       97.9882107948  LPSA7     28             20.0000000000
      7588       245  ARHM      C1              3.6452513092       17.6275254854      101.4837825552  LPSA7     29             21.0000000000
      7589       245  ARHM      H1              2.7827332200       18.1358566872      101.9624519367  LPSA7     29             21.0000000000
      7590       245  ARHM      C5              5.9847412141       17.8354812850      101.1446802163  LPSA7     29             21.0000000000
      7591       245  ARHM      H5              5.7960721500       17.6474292541      100.0609865956  LPSA7     29             21.0000000000
      7592       245  ARHM      O5              4.8111765757       18.4243144252      101.7067030578  LPSA7     29             21.0000000000
      7593       245  ARHM      C2              3.8228696792       16.3124957521      102.1700270747  LPSA7     29             21.0000000000
      7594       245  ARHM      H2              2.9352081545       15.6805427552      101.9247323641  LPSA7     29             21.0000000000
      7595       245  ARHM      O2              3.9374782316       16.4966388224      103.6033385891  LPSA7     29             21.0000000000
      7596       245  ARHM      C3              5.0409629612       15.6343080404      101.6097561865  LPSA7     29             21.0000000000
      7597       245  ARHM      H3              4.9146055848       15.4844495891      100.5099223599  LPSA7     29             21.0000000000
      7598       245  ARHM      O3              5.1661901344       14.3506884971      102.1833228191  LPSA7     29             21.0000000000
      7599       245  ARHM      HO3             6.1107884547       14.1876186583      102.2067519862  LPSA7     29             21.0000000000
      7600       245  ARHM      C4              6.2776286654       16.5014764981      101.8174179371  LPSA7     29             21.0000000000
      7601       245  ARHM      H4              6.4388957970       16.6698582032      102.9100812253  LPSA7     29             21.0000000000
      7602       245  ARHM      O4              7.4876195879       15.9068641419      101.3424359977  LPSA7     29             21.0000000000
      7603       245  ARHM      HO4             7.4284379250       15.5584214686      100.4468522249  LPSA7     29             21.0000000000
      7604       245  ARHM      C6              7.0491253968       18.9278484124      101.2256576376  LPSA7     29             21.0000000000
      7605       245  ARHM      H61             6.6123065847       19.8365194651      100.7694774439  LPSA7     29             21.0000000000
      7606       245  ARHM      H62             7.3279338974       19.1453980912      102.2718085204  LPSA7     29             21.0000000000
      7607       245  ARHM      H63             7.9490508931       18.6496142482      100.6447485847  LPSA7     29             21.0000000000
      7608       246  ARHM      C1              2.7716664365       16.3075193713      104.3735373298  LPSA7     30             22.0000000000
      7609       246  ARHM      H1              2.3392541807       15.3013931138      104.1613316976  LPSA7     30             22.0000000000
      7610       246  ARHM      C5              2.2364206323       18.6425852888      104.4990324296  LPSA7     30             22.0000000000
      7611       246  ARHM      H5              3.1659521749       18.8032910958      103.9100085867  LPSA7     30             22.0000000000
      7612       246  ARHM      O5              1.7726302590       17.3234165507      104.1683654256  LPSA7     30             22.0000000000
      7613       246  ARHM      C2              3.1681285576       16.3671243146      105.8282302286  LPSA7     30             22.0000000000
      7614       246  ARHM      H2              3.9644751211       15.6116029630      106.0284667316  LPSA7     30             22.0000000000
      7615       246  ARHM      O2              2.0031191139       16.1169682721      106.6094325293  LPSA7     30             22.0000000000
      7616       246  ARHM      C3              3.6772996828       17.7360241020      106.2211863134  LPSA7     30             22.0000000000
      7617       246  ARHM      H3              4.5038141300       17.9732197002      105.5085957366  LPSA7     30             22.0000000000
      7618       246  ARHM      O3              4.2587958580       17.7468323742      107.5396185989  LPSA7     30             22.0000000000
      7619       246  ARHM      C4              2.5931508140       18.7548473288      105.9701402976  LPSA7     30             22.0000000000
      7620       246  ARHM      H4              1.6716741428       18.5272390857      106.5541048560  LPSA7     30             22.0000000000
      7621       246  ARHM      O4              2.9857826280       20.0793035994      106.3360182065  LPSA7     30             22.0000000000
      7622       246  ARHM      HO4             3.5000122332       20.5050634571      105.6548521002  LPSA7     30             22.0000000000
      7623       246  ARHM      C6              1.2161753272       19.7060151254      104.0590160307  LPSA7     30             22.0000000000
      7624       246  ARHM      H61             1.6355467352       20.7176716080      104.2350713165  LPSA7     30             22.0000000000
      7625       246  ARHM      H62             1.0192879376       19.5933253200      102.9756373698  LPSA7     30             22.0000000000
      7626       246  ARHM      H63             0.2633036494       19.5880988710      104.6207407459  LPSA7     30             22.0000000000
      7627       247  BMANNA    C1              1.7709968413       14.7765163221      106.8955681174  LPSA7     31             23.0000000000
      7628       247  BMANNA    H1              2.7274369553       14.2721761332      107.1523236919  LPSA7     31             23.0000000000
      7629       247  BMANNA    C5              0.7688556720       12.7207126933      106.2060538793  LPSA7     31             23.0000000000
      7630       247  BMANNA    H5              1.7530319275       12.2760835065      106.4976444979  LPSA7     31             23.0000000000
      7631       247  BMANNA    O5              1.0553937035       14.0932383390      105.8549057846  LPSA7     31             23.0000000000
      7632       247  BMANNA    C2              0.8760170248       14.8209447804      108.0916340051  LPSA7     31             23.0000000000
      7633       247  BMANNA    H2              1.4713537263       15.2938656891      108.9137769426  LPSA7     31             23.0000000000
      7634       247  BMANNA    N              -0.2854418005       15.6540130095      107.8348102693  LPSA7     31             23.0000000000
      7635       247  BMANNA    HN             -0.4965356963       15.8194682295      106.8727468726  LPSA7     31             23.0000000000
      7636       247  BMANNA    C              -0.9221015830       16.3400424152      108.7795322196  LPSA7     31             23.0000000000
      7637       247  BMANNA    O              -0.5931035141       16.2796985334      109.9541815956  LPSA7     31             23.0000000000
      7638       247  BMANNA    CT             -2.0910185467       17.1678747280      108.3276777650  LPSA7     31             23.0000000000
      7639       247  BMANNA    HT1            -2.6392517077       16.6471064467      107.5193101589  LPSA7     31             23.0000000000
      7640       247  BMANNA    HT2            -1.7389285934       18.1293464836      107.9127212925  LPSA7     31             23.0000000000
      7641       247  BMANNA    HT3            -2.7669312985       17.3779147812      109.1832240221  LPSA7     31             23.0000000000
      7642       247  BMANNA    C3              0.5806058197       13.4078809718      108.5152578010  LPSA7     31             23.0000000000
      7643       247  BMANNA    H3              1.5451747896       12.8713901018      108.6707567820  LPSA7     31             23.0000000000
      7644       247  BMANNA    O3             -0.0542215064       13.3775543009      109.7756274496  LPSA7     31             23.0000000000
      7645       247  BMANNA    HO3             0.0073034561       14.2805426292      110.1136888728  LPSA7     31             23.0000000000
      7646       247  BMANNA    C4             -0.1432863040       12.6775347456      107.4239315559  LPSA7     31             23.0000000000
      7647       247  BMANNA    H4             -1.0991775409       13.1788466476      107.1369327164  LPSA7     31             23.0000000000
      7648       247  BMANNA    O4             -0.4617151430       11.3495307143      107.8275782518  LPSA7     31             23.0000000000
      7649       247  BMANNA    HO4             0.3225225680       10.9185981035      108.1802737151  LPSA7     31             23.0000000000
      7650       247  BMANNA    C6              0.2313588543       11.8969739151      105.0498688066  LPSA7     31             23.0000000000
      7651       247  BMANNA    H61             0.2558594372       10.8192491352      105.3225744671  LPSA7     31             23.0000000000
      7652       247  BMANNA    H62            -0.8342735753       12.1553576162      104.8740937550  LPSA7     31             23.0000000000
      7653       247  BMANNA    O6              0.9397273318       12.1028839991      103.8260804023  LPSA7     31             23.0000000000
      7654       247  BMANNA    HO6             1.8221484939       11.7037685940      103.8270739341  LPSA7     31             23.0000000000
      7655       248  BGLCNA    C1              3.3484715490       17.8607883901      108.6113754485  LPSA7     32             23.0000000000
      7656       248  BGLCNA    H1              2.4196174372       17.3024398520      108.4073647199  LPSA7     32             23.0000000000
      7657       248  BGLCNA    C5              1.9687672768       19.2770663788      109.9141881829  LPSA7     32             23.0000000000
      7658       248  BGLCNA    H5              1.0881140932       18.6792717307      109.5791476306  LPSA7     32             23.0000000000
      7659       248  BGLCNA    O5              2.9831566267       19.2054196412      108.9000111900  LPSA7     32             23.0000000000
      7660       248  BGLCNA    C2              3.9627739766       17.2568410130      109.8535879990  LPSA7     32             23.0000000000
      7661       248  BGLCNA    H2              4.7989415270       17.9387131670      110.1497662919  LPSA7     32             23.0000000000
      7662       248  BGLCNA    N               4.4851039656       15.9386824035      109.5703381231  LPSA7     32             23.0000000000
      7663       248  BGLCNA    HN              3.9869571796       15.4706046479      108.8641329442  LPSA7     32             23.0000000000
      7664       248  BGLCNA    C               5.5956868194       15.3853982508      110.0745979622  LPSA7     32             23.0000000000
      7665       248  BGLCNA    O               6.2919585530       15.9406786212      110.9024322118  LPSA7     32             23.0000000000
      7666       248  BGLCNA    CT              5.9141912877       14.0155385276      109.5279761065  LPSA7     32             23.0000000000
      7667       248  BGLCNA    HT1             5.3392426292       13.8921756031      108.5918420841  LPSA7     32             23.0000000000
      7668       248  BGLCNA    HT2             5.6533111677       13.2092977829      110.2420928476  LPSA7     32             23.0000000000
      7669       248  BGLCNA    HT3             7.0012470444       13.9321778503      109.3077462969  LPSA7     32             23.0000000000
      7670       248  BGLCNA    C3              2.8950645466       17.2537361781      110.9210597574  LPSA7     32             23.0000000000
      7671       248  BGLCNA    H3              2.0015176447       16.7605034760      110.4737079019  LPSA7     32             23.0000000000
      7672       248  BGLCNA    O3              3.2558353761       16.4982502510      112.0859410828  LPSA7     32             23.0000000000
      7673       248  BGLCNA    C4              2.5250016586       18.6886573510      111.1993444689  LPSA7     32             23.0000000000
      7674       248  BGLCNA    H4              3.4463733009       19.2406828424      111.5109836409  LPSA7     32             23.0000000000
      7675       248  BGLCNA    O4              1.5705287339       18.7903909750      112.2403023875  LPSA7     32             23.0000000000
      7676       248  BGLCNA    HO4             2.0660363713       18.9164535722      113.0633931848  LPSA7     32             23.0000000000
      7677       248  BGLCNA    C6              1.4768493157       20.6947662318      110.0265835993  LPSA7     32             23.0000000000
      7678       248  BGLCNA    H61             0.6054438866       20.7962091463      110.7175706832  LPSA7     32             23.0000000000
      7679       248  BGLCNA    H62             2.3408537316       21.2449709750      110.4140816161  LPSA7     32             23.0000000000
      7680       248  BGLCNA    O6              1.1368270446       21.2648864550      108.7668583236  LPSA7     32             23.0000000000
      7681       248  BGLCNA    HO6             0.6805019855       20.5901355491      108.2606625449  LPSA7     32             23.0000000000
      7682       249  AGAL      C1              2.1726537556       15.7947988470      112.6764245214  LPSA7     33             24.0000000000
      7683       249  AGAL      H1              1.2419260235       16.3959241212      112.6079426483  LPSA7     33             24.0000000000
      7684       249  AGAL      C5              3.0688536884       13.6235936073      112.2140952871  LPSA7     33             24.0000000000
      7685       249  AGAL      H5              3.9401693193       14.2091244169      111.8456826606  LPSA7     33             24.0000000000
      7686       249  AGAL      O5              1.9418107704       14.5086014647      112.0615776198  LPSA7     33             24.0000000000
      7687       249  AGAL      C2              2.4848698106       15.5397518079      114.1404696055  LPSA7     33             24.0000000000
      7688       249  AGAL      H2              1.6463068269       14.9229860828      114.5302249151  LPSA7     33             24.0000000000
      7689       249  AGAL      O2              2.4215199810       16.7841132296      114.8646273099  LPSA7     33             24.0000000000
      7690       249  AGAL      C3              3.7258046111       14.6575932275      114.2990956279  LPSA7     33             24.0000000000
      7691       249  AGAL      H3              4.5785198482       15.1000344354      113.7255087057  LPSA7     33             24.0000000000
      7692       249  AGAL      O3              4.2134074697       14.5960063559      115.6314257489  LPSA7     33             24.0000000000
      7693       249  AGAL      HO3             3.5503419749       14.3071398631      116.2503267854  LPSA7     33             24.0000000000
      7694       249  AGAL      C4              3.4271309103       13.3002339174      113.6614417843  LPSA7     33             24.0000000000
      7695       249  AGAL      H4              4.3474215785       12.6736068952      113.6634246160  LPSA7     33             24.0000000000
      7696       249  AGAL      O4              2.4287707215       12.5138806656      114.3197123843  LPSA7     33             24.0000000000
      7697       249  AGAL      HO4             1.8341510363       13.0223589149      114.8673203982  LPSA7     33             24.0000000000
      7698       249  AGAL      C6              2.9718719254       12.4333771304      111.2711298479  LPSA7     33             24.0000000000
      7699       249  AGAL      H61             2.9744773377       12.8559115280      110.2455786224  LPSA7     33             24.0000000000
      7700       249  AGAL      H62             3.8613262301       11.7720232025      111.3807445869  LPSA7     33             24.0000000000
      7701       249  AGAL      O6              1.8199445279       11.6058151752      111.4226815415  LPSA7     33             24.0000000000
      7702       249  AGAL      HO6             1.0833174497       11.9128142950      110.8731885159  LPSA7     33             24.0000000000
      7703       250  ARHM      C1              1.6462897251       16.7361340840      116.0479129579  LPSA7     34             25.0000000000
      7704       250  ARHM      H1              1.9690126587       15.8552767818      116.6449150743  LPSA7     34             25.0000000000
      7705       250  ARHM      C5             -0.3839155275       17.6572886270      115.0678029290  LPSA7     34             25.0000000000
      7706       250  ARHM      H5              0.0865259100       17.6678672159      114.0627130247  LPSA7     34             25.0000000000
      7707       250  ARHM      O5              0.2151530172       16.5944477371      115.8362441905  LPSA7     34             25.0000000000
      7708       250  ARHM      C2              1.9385075695       18.0205740706      116.8060080985  LPSA7     34             25.0000000000
      7709       250  ARHM      H2              3.0497853599       18.1594738338      116.8441174792  LPSA7     34             25.0000000000
      7710       250  ARHM      O2              1.4410608609       18.0379245421      118.1719829494  LPSA7     34             25.0000000000
      7711       250  ARHM      C3              1.3616951546       19.1869684057      116.0076286060  LPSA7     34             25.0000000000
      7712       250  ARHM      H3              1.8306717158       19.2048757158      114.9928054505  LPSA7     34             25.0000000000
      7713       250  ARHM      O3              1.6274679642       20.4413367718      116.6462197060  LPSA7     34             25.0000000000
      7714       250  ARHM      HO3             1.7948667818       21.0890725003      115.9392553881  LPSA7     34             25.0000000000
      7715       250  ARHM      C4             -0.1274311033       18.9712751409      115.7980250313  LPSA7     34             25.0000000000
      7716       250  ARHM      H4             -0.6254511417       18.8821224358      116.7889629257  LPSA7     34             25.0000000000
      7717       250  ARHM      O4             -0.7385373209       20.0510788706      115.0877135135  LPSA7     34             25.0000000000
      7718       250  ARHM      HO4            -0.8098265819       20.8483958835      115.6314751561  LPSA7     34             25.0000000000
      7719       250  ARHM      C6             -1.9142617417       17.4449464017      114.8377924261  LPSA7     34             25.0000000000
      7720       250  ARHM      H61            -2.4904230342       17.3720298701      115.7764165652  LPSA7     34             25.0000000000
      7721       250  ARHM      H62            -2.3223175819       18.3424654807      114.3227995534  LPSA7     34             25.0000000000
      7722       250  ARHM      H63            -2.1479403799       16.5771081617      114.1890990203  LPSA7     34             25.0000000000
      7723       251  ARHM      C1              1.8423314684       17.0056381776      119.0578363441  LPSA7     35             26.0000000000
      7724       251  ARHM      H1              2.9140677483       16.7478324460      118.8753240779  LPSA7     35             26.0000000000
      7725       251  ARHM      C5             -0.3829811549       16.0924756998      119.1986124547  LPSA7     35             26.0000000000
      7726       251  ARHM      H5             -0.7687602530       16.8607346402      118.5041869387  LPSA7     35             26.0000000000
      7727       251  ARHM      O5              1.0091314675       15.8345847759      118.9216972310  LPSA7     35             26.0000000000
      7728       251  ARHM      C2              1.7269793448       17.4895595481      120.5007096919  LPSA7     35             26.0000000000
      7729       251  ARHM      H2              2.3522819869       18.4004348877      120.6583650196  LPSA7     35             26.0000000000
      7730       251  ARHM      O2              2.1764946972       16.4812634635      121.4155022280  LPSA7     35             26.0000000000
      7731       251  ARHM      C3              0.2966092141       17.8463746205      120.8336717696  LPSA7     35             26.0000000000
      7732       251  ARHM      H3             -0.0668831306       18.6230908542      120.1230525306  LPSA7     35             26.0000000000
      7733       251  ARHM      O3              0.2169882452       18.4476067572      122.1344215662  LPSA7     35             26.0000000000
      7734       251  ARHM      HO3             0.7619691625       17.9343899895      122.7547043290  LPSA7     35             26.0000000000
      7735       251  ARHM      C4             -0.5573376747       16.5976385295      120.6353398093  LPSA7     35             26.0000000000
      7736       251  ARHM      H4             -0.2136945872       15.7591588550      121.2814440107  LPSA7     35             26.0000000000
      7737       251  ARHM      O4             -1.9352084617       16.8724569775      120.9194669528  LPSA7     35             26.0000000000
      7738       251  ARHM      HO4            -2.1949520935       17.7369183846      120.5938597945  LPSA7     35             26.0000000000
      7739       251  ARHM      C6             -1.1784805947       14.8077868423      118.8632997064  LPSA7     35             26.0000000000
      7740       251  ARHM      H61            -1.1376978942       14.5677482332      117.7803236229  LPSA7     35             26.0000000000
      7741       251  ARHM      H62            -0.7651860075       13.9450512076      119.4294845670  LPSA7     35             26.0000000000
      7742       251  ARHM      H63            -2.2503895250       14.9553748058      119.1106171569  LPSA7     35             26.0000000000
      7743       252  BMANNA    C1              3.5604840043       16.2829094564      121.4719749766  LPSA7     36             27.0000000000
      7744       252  BMANNA    H1              4.0927933780       17.1912710175      121.1267925047  LPSA7     36             27.0000000000
      7745       252  BMANNA    C5              5.4357339130       15.0784657018      120.7218570438  LPSA7     36             27.0000000000
      7746       252  BMANNA    H5              5.8972993201       16.0547179311      120.4274240892  LPSA7     36             27.0000000000
      7747       252  BMANNA    O5              4.0065013565       15.2066854881      120.6521341459  LPSA7     36             27.0000000000
      7748       252  BMANNA    C2              3.9122926144       15.9816470221      122.9171080397  LPSA7     36             27.0000000000
      7749       252  BMANNA    H2              3.5924834628       16.8859707976      123.4834915921  LPSA7     36             27.0000000000
      7750       252  BMANNA    N               3.2295911738       14.8330571340      123.5006803543  LPSA7     36             27.0000000000
      7751       252  BMANNA    HN              3.0605030189       14.0655134371      122.8876505782  LPSA7     36             27.0000000000
      7752       252  BMANNA    C               2.9393152897       14.7427238059      124.8117771059  LPSA7     36             27.0000000000
      7753       252  BMANNA    O               3.1029107699       15.6748548530      125.5925779958  LPSA7     36             27.0000000000
      7754       252  BMANNA    CT              2.4236340061       13.4254981141      125.3267846424  LPSA7     36             27.0000000000
      7755       252  BMANNA    HT1             2.9850804997       12.6038523712      124.8473890499  LPSA7     36             27.0000000000
      7756       252  BMANNA    HT2             1.3436398885       13.3074068176      125.1267389171  LPSA7     36             27.0000000000
      7757       252  BMANNA    HT3             2.5516105162       13.3787121386      126.4198593344  LPSA7     36             27.0000000000
      7758       252  BMANNA    C3              5.4217419502       15.8804713475      123.0180657364  LPSA7     36             27.0000000000
      7759       252  BMANNA    H3              5.8789958294       16.8308622976      122.6466095074  LPSA7     36             27.0000000000
      7760       252  BMANNA    O3              5.8694527519       15.6841414172      124.3552618809  LPSA7     36             27.0000000000
      7761       252  BMANNA    HO3             6.4003815899       16.4197508995      124.6738781375  LPSA7     36             27.0000000000
      7762       252  BMANNA    C4              5.9075079667       14.7695483916      122.1317646592  LPSA7     36             27.0000000000
      7763       252  BMANNA    H4              5.4794041415       13.7929546180      122.4516108239  LPSA7     36             27.0000000000
      7764       252  BMANNA    O4              7.3216822957       14.6380348744      122.2324320915  LPSA7     36             27.0000000000
      7765       252  BMANNA    HO4             7.4430369292       14.5235295579      123.1901831587  LPSA7     36             27.0000000000
      7766       252  BMANNA    C6              5.8972528280       14.0548752747      119.7360599601  LPSA7     36             27.0000000000
      7767       252  BMANNA    H61             5.6262093417       14.3254834110      118.6885489586  LPSA7     36             27.0000000000
      7768       252  BMANNA    H62             6.9739816066       14.1025996606      119.8127456055  LPSA7     36             27.0000000000
      7769       252  BMANNA    O6              5.5511315806       12.7118791696      120.0816273914  LPSA7     36             27.0000000000
      7770       252  BMANNA    HO6             6.2326919908       12.3130085302      120.6368966049  LPSA7     36             27.0000000000
      7771       253  ECLIPA    HB6S          -12.0964532040       16.6306510886       20.4219661368  LPSA8     1               0.0000000000
      7772       253  ECLIPA    OB6           -13.6899053793       16.6308448640       21.7183283360  LPSA8     1               0.0000000000
      7773       253  ECLIPA    CB6           -12.9260180721       15.9538402522       20.7006731480  LPSA8     1               0.0000000000
      7774       253  ECLIPA    HB6R          -12.4787674116       15.0134586557       21.0989052075  LPSA8     1               0.0000000000
      7775       253  ECLIPA    CB5           -13.7002141244       15.5893513290       19.4412880084  LPSA8     1               0.0000000000
      7776       253  ECLIPA    OB5           -14.2915256017       16.8176002043       18.9619525263  LPSA8     1               0.0000000000
      7777       253  ECLIPA    HB5           -14.4848156683       14.8538693769       19.7416102598  LPSA8     1               0.0000000000
      7778       253  ECLIPA    CB1           -15.0919917717       16.6086027314       17.7894734668  LPSA8     1               0.0000000000
      7779       253  ECLIPA    HB1           -15.8939596181       15.8512516510       17.9671554694  LPSA8     1               0.0000000000
      7780       253  ECLIPA    OA6           -15.7149061413       17.7820230257       17.3207268126  LPSA8     1               0.0000000000
      7781       253  ECLIPA    CA6           -14.9883547423       18.9975675900       17.5600253578  LPSA8     1               0.0000000000
      7782       253  ECLIPA    HA6R          -13.9041876839       18.8144470914       17.7466582812  LPSA8     1               0.0000000000
      7783       253  ECLIPA    HA6S          -15.4429993673       19.5047752645       18.4440416132  LPSA8     1               0.0000000000
      7784       253  ECLIPA    CB4           -12.8236682456       14.9642330635       18.3405352281  LPSA8     1               0.0000000000
      7785       253  ECLIPA    HB4           -11.9754004167       15.6313747108       18.0500559850  LPSA8     1               0.0000000000
      7786       253  ECLIPA    OB4           -12.3675614715       13.6909063315       18.8198510524  LPSA8     1               0.0000000000
      7787       253  ECLIPA    PB            -10.7859374075       13.4568394772       19.3009529457  LPSA8     1               0.0000000000
      7788       253  ECLIPA    OPB4          -10.7647620897       12.4736785718       20.4664732708  LPSA8     1               0.0000000000
      7789       253  ECLIPA    OPB3          -10.2156472879       14.8544982388       19.6312599878  LPSA8     1               0.0000000000
      7790       253  ECLIPA    OPB2          -10.0216396262       12.9059117951       18.0989976072  LPSA8     1               0.0000000000
      7791       253  ECLIPA    CB3           -13.6916888741       14.7695735750       17.1231545088  LPSA8     1               0.0000000000
      7792       253  ECLIPA    OB3           -12.9725986432       14.3309977274       15.9978903376  LPSA8     1               0.0000000000
      7793       253  ECLIPA    HB3           -14.5572497807       14.1045099821       17.3545809238  LPSA8     1               0.0000000000
      7794       253  ECLIPA    C71           -12.7774704359       13.0730641816       15.8719194339  LPSA8     1               0.0000000000
      7795       253  ECLIPA    O71           -13.5396102196       12.1820150714       16.2585963617  LPSA8     1               0.0000000000
      7796       253  ECLIPA    C72           -12.1568444315       12.9983566019       14.4815398285  LPSA8     1               0.0000000000
      7797       253  ECLIPA    H72R          -12.6996105014       13.5043781630       13.6720223343  LPSA8     1               0.0000000000
      7798       253  ECLIPA    H72S          -12.4343302401       11.9708559972       14.4376353168  LPSA8     1               0.0000000000
      7799       253  ECLIPA    CB2           -14.2427141854       16.0925115869       16.6718039127  LPSA8     1               0.0000000000
      7800       253  ECLIPA    HB2           -13.3772020563       16.7996957753       16.5156436498  LPSA8     1               0.0000000000
      7801       253  ECLIPA    NB2           -15.0345443942       15.9413658281       15.4504185642  LPSA8     1               0.0000000000
      7802       253  ECLIPA    HNB2          -16.0015492224       15.7402432074       15.5707833823  LPSA8     1               0.0000000000
      7803       253  ECLIPA    CA4           -16.5284628648       19.9459684599       15.8081573921  LPSA8     1               0.0000000000
      7804       253  ECLIPA    HA4           -16.7928679076       18.8974445555       15.5462918047  LPSA8     1               0.0000000000
      7805       253  ECLIPA    OA4           -17.3513873343       20.4843736214       16.8529865002  LPSA8     1               0.0000000000
      7806       253  ECLIPA    HOA4          -17.2760900628       19.8321085504       17.5717132226  LPSA8     1               0.0000000000
      7807       253  ECLIPA    CA5           -15.1166457047       19.8844757345       16.3351042994  LPSA8     1               0.0000000000
      7808       253  ECLIPA    HA5           -14.7089230819       20.8942304456       16.5628169818  LPSA8     1               0.0000000000
      7809       253  ECLIPA    OA5           -14.3029526418       19.3006143566       15.3355130785  LPSA8     1               0.0000000000
      7810       253  ECLIPA    CA1           -14.2726995740       20.0440755151       14.1035871064  LPSA8     1               0.0000000000
      7811       253  ECLIPA    HA1           -13.7505501715       19.3376774788       13.4224074428  LPSA8     1               0.0000000000
      7812       253  ECLIPA    OA1           -13.5506915714       21.2663598480       14.1386759572  LPSA8     1               0.0000000000
      7813       253  ECLIPA    OPA2          -12.1986024577       22.0676767205       15.9966219115  LPSA8     1               0.0000000000
      7814       253  ECLIPA    OPA3          -11.5391410837       19.8406323732       14.8686727267  LPSA8     1               0.0000000000
      7815       253  ECLIPA    OPA4          -11.1351624059       22.0215978381       13.6381817048  LPSA8     1               0.0000000000
      7816       253  ECLIPA    PA            -11.9852469873       21.2823325470       14.6825443919  LPSA8     1               0.0000000000
      7817       253  ECLIPA    CA3           -16.6263697423       20.7514383197       14.5322372222  LPSA8     1               0.0000000000
      7818       253  ECLIPA    HA3           -16.3388766320       21.8033943637       14.7278517392  LPSA8     1               0.0000000000
      7819       253  ECLIPA    OA3           -18.0384692207       20.7512645402       14.1827119447  LPSA8     1               0.0000000000
      7820       253  ECLIPA    C31           -18.4248901870       19.6326817810       13.5177147789  LPSA8     1               0.0000000000
      7821       253  ECLIPA    O31           -18.5055978695       19.6197292066       12.3047092819  LPSA8     1               0.0000000000
      7822       253  ECLIPA    C32           -19.5478306297       19.0077819085       14.3085784362  LPSA8     1               0.0000000000
      7823       253  ECLIPA    H32R          -20.5040226226       19.0891007771       13.7274526547  LPSA8     1               0.0000000000
      7824       253  ECLIPA    H32S          -19.7099742643       19.4634017229       15.3012431845  LPSA8     1               0.0000000000
      7825       253  ECLIPA    CA2           -15.6726317618       20.1189597188       13.5115011923  LPSA8     1               0.0000000000
      7826       253  ECLIPA    HA2           -15.9729945747       19.0587026765       13.3416140696  LPSA8     1               0.0000000000
      7827       253  ECLIPA    NA2           -15.6785036622       20.8249833693       12.2203066968  LPSA8     1               0.0000000000
      7828       253  ECLIPA    HNA2          -16.3891133366       21.4948484022       12.1038213476  LPSA8     1               0.0000000000
      7829       253  ECLIPA    C73           -10.6709520250       13.4135630269       14.3569342077  LPSA8     1               0.0000000000
      7830       253  ECLIPA    H73R          -10.1633380778       13.0195265872       15.2760048543  LPSA8     1               0.0000000000
      7831       253  ECLIPA    O73           -10.7908051305       14.8063979401       14.3058525703  LPSA8     1               0.0000000000
      7832       253  ECLIPA    C81            -9.9254071462       15.5280765774       14.9450894958  LPSA8     1               0.0000000000
      7833       253  ECLIPA    O81            -8.9664938115       15.1214944278       15.6027355236  LPSA8     1               0.0000000000
      7834       253  ECLIPA    C82           -10.0247652732       16.9344050900       14.3451277496  LPSA8     1               0.0000000000
      7835       253  ECLIPA    H82R           -9.3106132789       17.5936659747       14.8644171850  LPSA8     1               0.0000000000
      7836       253  ECLIPA    H82S          -11.0428546813       17.3356812918       14.5537374368  LPSA8     1               0.0000000000
      7837       253  ECLIPA    C83            -9.7939334345       16.9745845302       12.8103827842  LPSA8     1               0.0000000000
      7838       253  ECLIPA    H83R          -10.7422001171       16.6980707602       12.2924149057  LPSA8     1               0.0000000000
      7839       253  ECLIPA    H83S           -9.0230047894       16.2273173611       12.5370594976  LPSA8     1               0.0000000000
      7840       253  ECLIPA    C84            -9.4175790224       18.3743632261       12.2923208836  LPSA8     1               0.0000000000
      7841       253  ECLIPA    H84R           -8.3926752874       18.6441414054       12.6068970904  LPSA8     1               0.0000000000
      7842       253  ECLIPA    H84S          -10.1494276381       19.0822510964       12.7657388768  LPSA8     1               0.0000000000
      7843       253  ECLIPA    C85            -9.5868324689       18.5097465462       10.7720910377  LPSA8     1               0.0000000000
      7844       253  ECLIPA    H85R          -10.5516017040       17.9970026677       10.5471337373  LPSA8     1               0.0000000000
      7845       253  ECLIPA    H85S           -8.8041506969       17.9389037951       10.2317947422  LPSA8     1               0.0000000000
      7846       253  ECLIPA    C86            -9.7534826469       19.9663779030       10.2884609806  LPSA8     1               0.0000000000
      7847       253  ECLIPA    H86R           -8.7816748318       20.4038915969        9.9828494681  LPSA8     1               0.0000000000
      7848       253  ECLIPA    H86S          -10.1516254747       20.5854215021       11.1294432557  LPSA8     1               0.0000000000
      7849       253  ECLIPA    C87           -10.7997748322       20.1017340824        9.1612844482  LPSA8     1               0.0000000000
      7850       253  ECLIPA    H87R          -10.8178940977       21.1513388836        8.7950992596  LPSA8     1               0.0000000000
      7851       253  ECLIPA    H87S          -11.8140163443       19.8984525741        9.5772773782  LPSA8     1               0.0000000000
      7852       253  ECLIPA    C88           -10.5745669760       19.1049761455        8.0235257309  LPSA8     1               0.0000000000
      7853       253  ECLIPA    H88R          -10.9125990921       18.1004025980        8.3513434346  LPSA8     1               0.0000000000
      7854       253  ECLIPA    H88S           -9.4757547715       18.9983862298        7.8797700325  LPSA8     1               0.0000000000
      7855       253  ECLIPA    C89           -11.3020031266       19.4828486691        6.7222113969  LPSA8     1               0.0000000000
      7856       253  ECLIPA    H89R          -12.1448656327       20.1874850980        6.8970797168  LPSA8     1               0.0000000000
      7857       253  ECLIPA    H89S          -11.7571121438       18.5798880717        6.2608590622  LPSA8     1               0.0000000000
      7858       253  ECLIPA    C810          -10.3077890220       20.0463434022        5.7114112642  LPSA8     1               0.0000000000
      7859       253  ECLIPA    H810R          -9.3221821694       19.5883072754        5.9351248311  LPSA8     1               0.0000000000
      7860       253  ECLIPA    H810S         -10.2290390099       21.1465897646        5.8653103201  LPSA8     1               0.0000000000
      7861       253  ECLIPA    C811          -10.6882183113       19.7502910925        4.2600494217  LPSA8     1               0.0000000000
      7862       253  ECLIPA    H811R         -10.1938796960       20.4915123094        3.6092655983  LPSA8     1               0.0000000000
      7863       253  ECLIPA    H811S         -11.7839458091       19.8867023887        4.1840959131  LPSA8     1               0.0000000000
      7864       253  ECLIPA    C812          -10.3870247742       18.3369705434        3.7372944720  LPSA8     1               0.0000000000
      7865       253  ECLIPA    H812R         -10.8342774875       18.2664428949        2.7140156038  LPSA8     1               0.0000000000
      7866       253  ECLIPA    H812S         -10.8802540182       17.6028554682        4.4068313322  LPSA8     1               0.0000000000
      7867       253  ECLIPA    C813           -8.9112303716       17.9453303565        3.6360946023  LPSA8     1               0.0000000000
      7868       253  ECLIPA    H813R          -8.4183911862       18.6436276211        2.9276875991  LPSA8     1               0.0000000000
      7869       253  ECLIPA    H813S          -8.4018304543       18.0390077289        4.6236621833  LPSA8     1               0.0000000000
      7870       253  ECLIPA    C814           -8.7256338418       16.5140266496        3.1305869931  LPSA8     1               0.0000000000
      7871       253  ECLIPA    H814R          -9.3318379310       16.3122858906        2.2189482414  LPSA8     1               0.0000000000
      7872       253  ECLIPA    H814S          -9.0268659832       15.7939308933        3.9197496149  LPSA8     1               0.0000000000
      7873       253  ECLIPA    H814T          -7.6593116705       16.3342288560        2.8882761056  LPSA8     1               0.0000000000
      7874       253  ECLIPA    C74            -9.7895189079       13.0116025349       13.0978935875  LPSA8     1               0.0000000000
      7875       253  ECLIPA    H74R           -9.4897515459       11.9634256967       12.9477562674  LPSA8     1               0.0000000000
      7876       253  ECLIPA    H74S           -8.7881709631       13.4350668453       13.3272554187  LPSA8     1               0.0000000000
      7877       253  ECLIPA    C75           -10.2488066707       13.6098549027       11.7411714494  LPSA8     1               0.0000000000
      7878       253  ECLIPA    H75R           -9.3305560661       13.8325336271       11.1745091665  LPSA8     1               0.0000000000
      7879       253  ECLIPA    H75S          -10.8570396436       14.5065149717       11.9710718966  LPSA8     1               0.0000000000
      7880       253  ECLIPA    C76           -11.0794684788       12.7963143012       10.7649129521  LPSA8     1               0.0000000000
      7881       253  ECLIPA    H76R          -12.1492647290       12.9249979769       11.1109956333  LPSA8     1               0.0000000000
      7882       253  ECLIPA    H76S          -10.6836045799       11.7369612083       10.7393247939  LPSA8     1               0.0000000000
      7883       253  ECLIPA    C77           -11.1398130614       13.1041458288        9.3120191060  LPSA8     1               0.0000000000
      7884       253  ECLIPA    H77R          -10.1505575013       12.9043011280        8.8972293247  LPSA8     1               0.0000000000
      7885       253  ECLIPA    H77S          -11.5304959911       14.1202335107        9.2016570807  LPSA8     1               0.0000000000
      7886       253  ECLIPA    C78           -12.1193388407       12.2339261836        8.5930619523  LPSA8     1               0.0000000000
      7887       253  ECLIPA    H78R          -11.9957191654       11.1515594497        8.8363028222  LPSA8     1               0.0000000000
      7888       253  ECLIPA    H78S          -13.0358780540       12.6853616000        9.0002539232  LPSA8     1               0.0000000000
      7889       253  ECLIPA    C79           -12.4580540820       12.5296644928        7.1556783329  LPSA8     1               0.0000000000
      7890       253  ECLIPA    H79R          -13.3500736721       13.1991005558        7.0685788332  LPSA8     1               0.0000000000
      7891       253  ECLIPA    H79S          -12.6610224134       11.5799470881        6.6104519155  LPSA8     1               0.0000000000
      7892       253  ECLIPA    C710          -11.3480372370       12.8836961902        6.3694965901  LPSA8     1               0.0000000000
      7893       253  ECLIPA    H710R         -10.9284212225       13.7787410974        6.8258705471  LPSA8     1               0.0000000000
      7894       253  ECLIPA    H710S         -10.7132372110       12.0166342162        6.6114168196  LPSA8     1               0.0000000000
      7895       253  ECLIPA    C711          -11.8103100106       13.0422617277        4.9450061798  LPSA8     1               0.0000000000
      7896       253  ECLIPA    H711R         -12.2060993044       12.1121414542        4.5060732477  LPSA8     1               0.0000000000
      7897       253  ECLIPA    H711S         -12.5938790792       13.8360063115        4.8970819544  LPSA8     1               0.0000000000
      7898       253  ECLIPA    C712          -10.5725096235       13.4106534883        4.1971568599  LPSA8     1               0.0000000000
      7899       253  ECLIPA    H712R          -9.8894987145       12.5323128659        4.2307361326  LPSA8     1               0.0000000000
      7900       253  ECLIPA    H712S         -10.1145920840       14.2143462927        4.8091580136  LPSA8     1               0.0000000000
      7901       253  ECLIPA    C713          -10.8629452542       13.8983107119        2.7921419251  LPSA8     1               0.0000000000
      7902       253  ECLIPA    H713R         -11.5108177259       14.7942738775        2.8458187393  LPSA8     1               0.0000000000
      7903       253  ECLIPA    H713S          -9.8914026363       14.1534529758        2.3072503695  LPSA8     1               0.0000000000
      7904       253  ECLIPA    C714          -11.5253142329       12.8679237372        1.9208180727  LPSA8     1               0.0000000000
      7905       253  ECLIPA    H714R         -10.8248153898       12.0363950846        2.0264516269  LPSA8     1               0.0000000000
      7906       253  ECLIPA    H714S         -12.5148216703       12.4964690421        2.2427477678  LPSA8     1               0.0000000000
      7907       253  ECLIPA    H714T         -11.5708750051       13.2085094812        0.8650005839  LPSA8     1               0.0000000000
      7908       253  ECLIPA    C51           -14.4670216931       16.0190114726       14.2326901085  LPSA8     1               0.0000000000
      7909       253  ECLIPA    O51           -13.3477299993       16.4673764151       14.0748666036  LPSA8     1               0.0000000000
      7910       253  ECLIPA    C52           -15.2275090801       15.4743415198       13.0485473208  LPSA8     1               0.0000000000
      7911       253  ECLIPA    H52R          -15.0562237507       14.3851387941       12.9278821362  LPSA8     1               0.0000000000
      7912       253  ECLIPA    H52S          -16.2704452796       15.6280197742       13.2380117593  LPSA8     1               0.0000000000
      7913       253  ECLIPA    C53           -14.8684649003       16.2294037089       11.7570440156  LPSA8     1               0.0000000000
      7914       253  ECLIPA    H53R          -14.6443119820       17.3006336091       11.9855251610  LPSA8     1               0.0000000000
      7915       253  ECLIPA    O53           -15.9777538844       16.0641699979       10.8520110892  LPSA8     1               0.0000000000
      7916       253  ECLIPA    C61           -16.6897352521       17.1380615795       10.5206774018  LPSA8     1               0.0000000000
      7917       253  ECLIPA    O61           -16.4735910136       18.2761008085       10.8627405097  LPSA8     1               0.0000000000
      7918       253  ECLIPA    C62           -17.8421327149       16.7286649145        9.6008819367  LPSA8     1               0.0000000000
      7919       253  ECLIPA    H62R          -18.6719382272       16.3502706392       10.2234836684  LPSA8     1               0.0000000000
      7920       253  ECLIPA    H62S          -17.4697644277       15.8686211759        9.0114801125  LPSA8     1               0.0000000000
      7921       253  ECLIPA    C63           -18.3201448666       17.9312643390        8.7291025613  LPSA8     1               0.0000000000
      7922       253  ECLIPA    H63R          -17.4211810241       18.4164626974        8.2848115969  LPSA8     1               0.0000000000
      7923       253  ECLIPA    H63S          -18.8619959819       18.6805859155        9.3455761027  LPSA8     1               0.0000000000
      7924       253  ECLIPA    C64           -19.2003050542       17.5730491778        7.5347087344  LPSA8     1               0.0000000000
      7925       253  ECLIPA    H64R          -19.5539962987       18.4818685134        6.9955244572  LPSA8     1               0.0000000000
      7926       253  ECLIPA    H64S          -20.0944855214       17.0273460748        7.9123341195  LPSA8     1               0.0000000000
      7927       253  ECLIPA    C65           -18.3615742798       16.7178791350        6.6005295062  LPSA8     1               0.0000000000
      7928       253  ECLIPA    H65R          -18.1966791802       15.7647829725        7.1621265097  LPSA8     1               0.0000000000
      7929       253  ECLIPA    H65S          -17.4089646534       17.1647185719        6.2821269722  LPSA8     1               0.0000000000
      7930       253  ECLIPA    C66           -19.0199903603       16.3370072991        5.3207476391  LPSA8     1               0.0000000000
      7931       253  ECLIPA    H66R          -19.9654366430       16.0102816759        5.7543652781  LPSA8     1               0.0000000000
      7932       253  ECLIPA    H66S          -18.4586286207       15.4859440278        4.8593545192  LPSA8     1               0.0000000000
      7933       253  ECLIPA    C67           -19.4465685695       17.3293471672        4.2417219664  LPSA8     1               0.0000000000
      7934       253  ECLIPA    H67R          -20.0901471840       18.1417756265        4.6199221184  LPSA8     1               0.0000000000
      7935       253  ECLIPA    H67S          -20.0312358656       16.8932762588        3.3980938506  LPSA8     1               0.0000000000
      7936       253  ECLIPA    C68           -18.2723730060       17.9031853494        3.5546588990  LPSA8     1               0.0000000000
      7937       253  ECLIPA    H68R          -17.6095346765       17.1155392705        3.0966245907  LPSA8     1               0.0000000000
      7938       253  ECLIPA    H68S          -17.7423087612       18.4519134303        4.3364030386  LPSA8     1               0.0000000000
      7939       253  ECLIPA    C69           -18.8533848704       18.8180791049        2.5009716428  LPSA8     1               0.0000000000
      7940       253  ECLIPA    H69R          -19.8859561633       19.1723814131        2.5071386211  LPSA8     1               0.0000000000
      7941       253  ECLIPA    H69S          -19.1555205619       17.9348652350        1.8831586726  LPSA8     1               0.0000000000
      7942       253  ECLIPA    C610          -17.8398753098       19.9399231995        2.0072817349  LPSA8     1               0.0000000000
      7943       253  ECLIPA    H610R         -16.8137173620       19.5073552928        2.1215549211  LPSA8     1               0.0000000000
      7944       253  ECLIPA    H610S         -17.8993522819       20.6949715260        2.8367366160  LPSA8     1               0.0000000000
      7945       253  ECLIPA    C611          -18.1335761419       20.7393532306        0.5873796911  LPSA8     1               0.0000000000
      7946       253  ECLIPA    H611R         -19.1503731656       21.0091550076        0.7309516705  LPSA8     1               0.0000000000
      7947       253  ECLIPA    H611S         -17.7861314704       21.7594562470        0.7066805954  LPSA8     1               0.0000000000
      7948       253  ECLIPA    C612          -17.9733490905       20.3936072563       -1.0220089523  LPSA8     1               0.0000000000
      7949       253  ECLIPA    H612R         -16.9281009182       19.9932853737       -1.1757736752  LPSA8     1               0.0000000000
      7950       253  ECLIPA    H612S         -18.8863456060       19.6828221436       -1.0742237932  LPSA8     1               0.0000000000
      7951       253  ECLIPA    H612T         -18.3874846158       20.0359323887       -1.9582919609  LPSA8     1               0.0000000000
      7952       253  ECLIPA    C54           -13.6139714609       15.5423113755       11.1675989509  LPSA8     1               0.0000000000
      7953       253  ECLIPA    H54R          -13.9165339918       14.5120347830       10.8831267902  LPSA8     1               0.0000000000
      7954       253  ECLIPA    H54S          -12.8587074337       15.4616071472       11.9770110216  LPSA8     1               0.0000000000
      7955       253  ECLIPA    C55           -12.9524431615       16.2342669369        9.9646869567  LPSA8     1               0.0000000000
      7956       253  ECLIPA    H55R          -11.9234232041       15.8450476290        9.8304642973  LPSA8     1               0.0000000000
      7957       253  ECLIPA    H55S          -12.8250543121       17.3127232048       10.2012301852  LPSA8     1               0.0000000000
      7958       253  ECLIPA    C56           -13.7589921051       15.9536528555        8.6931293661  LPSA8     1               0.0000000000
      7959       253  ECLIPA    H56R          -14.7983802838       16.2921624501        8.8587748247  LPSA8     1               0.0000000000
      7960       253  ECLIPA    H56S          -13.7973884021       14.8559475708        8.5059209862  LPSA8     1               0.0000000000
      7961       253  ECLIPA    C57           -13.3267473593       16.6537572448        7.4124102386  LPSA8     1               0.0000000000
      7962       253  ECLIPA    H57R          -12.2547129685       16.4734626722        7.1822871037  LPSA8     1               0.0000000000
      7963       253  ECLIPA    H57S          -13.4514414020       17.7529206385        7.5451541491  LPSA8     1               0.0000000000
      7964       253  ECLIPA    C58           -14.2347262595       16.1964168756        6.2621094488  LPSA8     1               0.0000000000
      7965       253  ECLIPA    H58R          -14.3447393802       15.0920526755        6.2200924106  LPSA8     1               0.0000000000
      7966       253  ECLIPA    H58S          -15.2578851280       16.5882294220        6.4668776568  LPSA8     1               0.0000000000
      7967       253  ECLIPA    C59           -13.7089623892       16.6774623656        4.9173853376  LPSA8     1               0.0000000000
      7968       253  ECLIPA    H59R          -12.6706887569       16.3131112037        4.7266698356  LPSA8     1               0.0000000000
      7969       253  ECLIPA    H59S          -13.6718757460       17.7870270701        4.9766452215  LPSA8     1               0.0000000000
      7970       253  ECLIPA    C510          -14.5332116515       16.1571928724        3.7575790656  LPSA8     1               0.0000000000
      7971       253  ECLIPA    H510R         -15.6300729886       16.2530856547        3.8714773839  LPSA8     1               0.0000000000
      7972       253  ECLIPA    H510S         -14.2978505771       15.0747658891        3.5705746484  LPSA8     1               0.0000000000
      7973       253  ECLIPA    C511          -14.2177782030       16.8500373217        2.4907216037  LPSA8     1               0.0000000000
      7974       253  ECLIPA    H511R         -14.7462475847       17.8135573023        2.3156877456  LPSA8     1               0.0000000000
      7975       253  ECLIPA    H511S         -13.1042640931       17.0730766700        2.4064287655  LPSA8     1               0.0000000000
      7976       253  ECLIPA    C512          -14.6706841837       15.8401983553        1.4561107197  LPSA8     1               0.0000000000
      7977       253  ECLIPA    H512R         -13.9083532956       16.4298517356        0.9093991420  LPSA8     1               0.0000000000
      7978       253  ECLIPA    H512S         -14.3431303446       14.8094524048        1.4190014822  LPSA8     1               0.0000000000
      7979       253  ECLIPA    C513          -16.1359781188       15.7898976593        0.9184195632  LPSA8     1               0.0000000000
      7980       253  ECLIPA    H513R         -16.0169517297       16.8325537702        0.6661473918  LPSA8     1               0.0000000000
      7981       253  ECLIPA    H513S         -16.9206399469       15.7149796094        1.6783907964  LPSA8     1               0.0000000000
      7982       253  ECLIPA    C514          -16.6702126970       15.0805850696       -0.3809194295  LPSA8     1               0.0000000000
      7983       253  ECLIPA    H514R         -16.2666517104       14.0945992957       -0.5551895013  LPSA8     1               0.0000000000
      7984       253  ECLIPA    H514S         -17.7587078241       15.1169916407       -0.5407969460  LPSA8     1               0.0000000000
      7985       253  ECLIPA    H514T         -16.3425536229       15.5704746017       -1.3181529161  LPSA8     1               0.0000000000
      7986       253  ECLIPA    C33           -19.2218336554       17.5151532907       14.5295107195  LPSA8     1               0.0000000000
      7987       253  ECLIPA    H33R          -20.1851689452       17.1205138653       14.8712220420  LPSA8     1               0.0000000000
      7988       253  ECLIPA    O33           -18.3808318217       17.2552867887       15.6041777287  LPSA8     1               0.0000000000
      7989       253  ECLIPA    HO33          -18.8817085580       17.2467076292       16.4398730147  LPSA8     1               0.0000000000
      7990       253  ECLIPA    C34           -18.5951758198       16.7137845476       13.3675519682  LPSA8     1               0.0000000000
      7991       253  ECLIPA    H34R          -17.7375624350       17.0528208876       12.8193193131  LPSA8     1               0.0000000000
      7992       253  ECLIPA    H34S          -19.2480657661       17.0969143223       12.5325893998  LPSA8     1               0.0000000000
      7993       253  ECLIPA    C35           -18.3871421525       15.1327797955       13.6604198043  LPSA8     1               0.0000000000
      7994       253  ECLIPA    H35R          -19.2207948326       14.5315324301       13.8779038972  LPSA8     1               0.0000000000
      7995       253  ECLIPA    H35S          -18.0682739148       14.8349810854       14.6533749189  LPSA8     1               0.0000000000
      7996       253  ECLIPA    C36           -18.3405762310       14.1877498338       12.4602764332  LPSA8     1               0.0000000000
      7997       253  ECLIPA    H36R          -17.9992225417       14.8121304199       11.6227146823  LPSA8     1               0.0000000000
      7998       253  ECLIPA    H36S          -19.3288501584       13.6917158252       12.2516620704  LPSA8     1               0.0000000000
      7999       253  ECLIPA    C37           -17.7936145871       12.8534963681       12.6460809945  LPSA8     1               0.0000000000
      8000       253  ECLIPA    H37R          -18.5868200016       12.0473564440       12.7352853962  LPSA8     1               0.0000000000
      8001       253  ECLIPA    H37S          -17.2421434976       12.9356564147       13.5917728506  LPSA8     1               0.0000000000
      8002       253  ECLIPA    C38           -17.0137947598       12.5799003043       11.4127613535  LPSA8     1               0.0000000000
      8003       253  ECLIPA    H38R          -16.0391064639       13.1344937735       11.4174173696  LPSA8     1               0.0000000000
      8004       253  ECLIPA    H38S          -16.9974519277       11.4756232956       11.5969277353  LPSA8     1               0.0000000000
      8005       253  ECLIPA    C39           -17.6976093618       12.6858628745       10.1006071537  LPSA8     1               0.0000000000
      8006       253  ECLIPA    H39R          -18.0016603780       13.7135333232        9.8639149226  LPSA8     1               0.0000000000
      8007       253  ECLIPA    H39S          -18.4341352425       11.8388135715       10.1003079534  LPSA8     1               0.0000000000
      8008       253  ECLIPA    C310          -16.9915180497       12.4300483634        8.8426463232  LPSA8     1               0.0000000000
      8009       253  ECLIPA    H310R         -17.0583917233       11.2906225343        8.8015454031  LPSA8     1               0.0000000000
      8010       253  ECLIPA    H310S         -15.9734546740       12.9244510402        8.9020415123  LPSA8     1               0.0000000000
      8011       253  ECLIPA    C311          -17.5408908091       12.9663972547        7.5705130092  LPSA8     1               0.0000000000
      8012       253  ECLIPA    H311R         -18.5566528898       12.6784073672        7.5178252562  LPSA8     1               0.0000000000
      8013       253  ECLIPA    H311S         -17.1439074142       13.9923401837        7.3838472036  LPSA8     1               0.0000000000
      8014       253  ECLIPA    C312          -17.0659066464       12.2839708608        6.3703309271  LPSA8     1               0.0000000000
      8015       253  ECLIPA    H312R         -16.1296777934       12.3942502747        6.9586307709  LPSA8     1               0.0000000000
      8016       253  ECLIPA    H312S         -17.4344117320       11.2412544540        6.2090409784  LPSA8     1               0.0000000000
      8017       253  ECLIPA    C313          -16.9813762066       13.0857986740        5.0805492709  LPSA8     1               0.0000000000
      8018       253  ECLIPA    H313R         -18.0296658027       12.9220459322        4.7430336809  LPSA8     1               0.0000000000
      8019       253  ECLIPA    H313S         -16.5888164834       14.0888851751        5.2712827546  LPSA8     1               0.0000000000
      8020       253  ECLIPA    C314          -16.2367931388       12.6693839231        3.8603099385  LPSA8     1               0.0000000000
      8021       253  ECLIPA    H314R         -16.8777524065       11.7606536325        3.6625268012  LPSA8     1               0.0000000000
      8022       253  ECLIPA    H314S         -16.2183945799       13.2170722340        2.9119007690  LPSA8     1               0.0000000000
      8023       253  ECLIPA    H314T         -15.1373185922       12.5385172058        4.0055221782  LPSA8     1               0.0000000000
      8024       253  ECLIPA    C11           -14.7341098421       20.7920651346       11.2527938217  LPSA8     1               0.0000000000
      8025       253  ECLIPA    O11           -13.9129921017       19.8994478134       11.0930176031  LPSA8     1               0.0000000000
      8026       253  ECLIPA    C12           -14.7523329252       21.9833934630       10.3263624262  LPSA8     1               0.0000000000
      8027       253  ECLIPA    H12R          -13.8848796537       22.6333101533       10.5513536435  LPSA8     1               0.0000000000
      8028       253  ECLIPA    H12S          -15.6906071977       22.5472208828       10.5149774817  LPSA8     1               0.0000000000
      8029       253  ECLIPA    C13           -14.7260794680       21.5807221626        8.8549536298  LPSA8     1               0.0000000000
      8030       253  ECLIPA    H13R          -13.9965118393       20.7625891475        8.6436937241  LPSA8     1               0.0000000000
      8031       253  ECLIPA    O13           -14.3233998213       22.7319768473        8.1204385095  LPSA8     1               0.0000000000
      8032       253  ECLIPA    HO13          -13.8714600762       22.5428701506        7.2933243052  LPSA8     1               0.0000000000
      8033       253  ECLIPA    C14           -16.1386254027       21.1228833532        8.4418232261  LPSA8     1               0.0000000000
      8034       253  ECLIPA    H14R          -16.9086255829       21.7372587237        8.9603419290  LPSA8     1               0.0000000000
      8035       253  ECLIPA    H14S          -16.2344322385       20.0688162648        8.7792196002  LPSA8     1               0.0000000000
      8036       253  ECLIPA    C15           -16.4478470743       21.1419161065        6.9523360628  LPSA8     1               0.0000000000
      8037       253  ECLIPA    H15R          -16.2680239553       22.1730184377        6.5747957427  LPSA8     1               0.0000000000
      8038       253  ECLIPA    H15S          -17.5347812206       20.9430600269        6.8275854973  LPSA8     1               0.0000000000
      8039       253  ECLIPA    C16           -15.6247267048       20.0875156939        6.2049651336  LPSA8     1               0.0000000000
      8040       253  ECLIPA    H16R          -16.0696102629       19.0826570601        6.2901436736  LPSA8     1               0.0000000000
      8041       253  ECLIPA    H16S          -14.6109110980       20.0296193936        6.6601593541  LPSA8     1               0.0000000000
      8042       253  ECLIPA    C17           -15.4920139799       20.4614157945        4.7519868650  LPSA8     1               0.0000000000
      8043       253  ECLIPA    H17R          -16.4985875278       20.8061260769        4.4071381952  LPSA8     1               0.0000000000
      8044       253  ECLIPA    H17S          -15.1920112614       19.6335937997        4.0740880681  LPSA8     1               0.0000000000
      8045       253  ECLIPA    C18           -14.4416835194       21.5610931494        4.7162763003  LPSA8     1               0.0000000000
      8046       253  ECLIPA    H18R          -14.8321220847       22.4627367424        5.2568391855  LPSA8     1               0.0000000000
      8047       253  ECLIPA    H18S          -13.4126306458       21.2720832807        4.9754870361  LPSA8     1               0.0000000000
      8048       253  ECLIPA    C19           -14.2539638454       22.0391811076        3.3593591089  LPSA8     1               0.0000000000
      8049       253  ECLIPA    H19R          -13.7836365119       23.0366298337        3.3009092049  LPSA8     1               0.0000000000
      8050       253  ECLIPA    H19S          -15.3642528495       22.2874432801        3.3407124608  LPSA8     1               0.0000000000
      8051       253  ECLIPA    C110          -13.6465426740       20.9789284270        2.3312480818  LPSA8     1               0.0000000000
      8052       253  ECLIPA    H110R         -12.6828978314       20.5911695029        2.6797643415  LPSA8     1               0.0000000000
      8053       253  ECLIPA    H110S         -14.3856415393       20.1597127246        2.1803169119  LPSA8     1               0.0000000000
      8054       253  ECLIPA    C111          -13.0716681670       21.3477266197        0.9359629394  LPSA8     1               0.0000000000
      8055       253  ECLIPA    H111R         -13.5010129725       21.9855415149        0.2429834841  LPSA8     1               0.0000000000
      8056       253  ECLIPA    H111S         -12.5347169650       22.2958007011        0.9077188915  LPSA8     1               0.0000000000
      8057       253  ECLIPA    C112          -12.9371761788       20.2607146139       -0.1224227173  LPSA8     1               0.0000000000
      8058       253  ECLIPA    H112R         -12.0039448148       19.8702868751        0.2109598258  LPSA8     1               0.0000000000
      8059       253  ECLIPA    H112S         -13.7812002615       19.5121893621       -0.1327324971  LPSA8     1               0.0000000000
      8060       253  ECLIPA    C113          -12.8411486617       20.9037010619       -1.4930589312  LPSA8     1               0.0000000000
      8061       253  ECLIPA    H113R         -13.9177055733       20.9697903929       -1.4217071201  LPSA8     1               0.0000000000
      8062       253  ECLIPA    H113S         -12.6468276705       21.9863993777       -1.6337302400  LPSA8     1               0.0000000000
      8063       253  ECLIPA    C114          -12.3785902924       20.1463399738       -2.7367846206  LPSA8     1               0.0000000000
      8064       253  ECLIPA    H114R         -11.3169246006       19.9392030677       -2.6856989627  LPSA8     1               0.0000000000
      8065       253  ECLIPA    H114S         -13.0478614647       19.2907700673       -2.9539411247  LPSA8     1               0.0000000000
      8066       253  ECLIPA    H114T         -12.4033213362       20.7892357304       -3.6461428059  LPSA8     1               0.0000000000
      8067       254  AKDO      C1            -14.8569275184       14.6706315866       22.4173303036  LPSA8     2               0.0000000000
      8068       254  AKDO      O11           -14.3804120717       13.5103647595       22.3917247257  LPSA8     2               0.0000000000
      8069       254  AKDO      O12           -16.0203892864       15.0143620554       22.0843770151  LPSA8     2               0.0000000000
      8070       254  AKDO      C2            -13.9220051449       15.8292292219       22.8741850529  LPSA8     2               0.0000000000
      8071       254  AKDO      C6            -11.7843839009       16.3296800840       23.8620637512  LPSA8     2               0.0000000000
      8072       254  AKDO      H6            -11.6193377238       16.9559181677       22.9490149308  LPSA8     2               0.0000000000
      8073       254  AKDO      O6            -12.7036916366       15.3084118849       23.4647354966  LPSA8     2               0.0000000000
      8074       254  AKDO      C3            -14.5729730977       16.7329143894       23.9281683150  LPSA8     2               0.0000000000
      8075       254  AKDO      H31           -14.9279288048       16.1170955991       24.7860829820  LPSA8     2               0.0000000000
      8076       254  AKDO      H32           -15.4573188305       17.2117071768       23.4539400383  LPSA8     2               0.0000000000
      8077       254  AKDO      C4            -13.6450592102       17.8155935123       24.3765466948  LPSA8     2               0.0000000000
      8078       254  AKDO      H4            -13.3107636810       18.3953927640       23.4887668416  LPSA8     2               0.0000000000
      8079       254  AKDO      O4            -14.2424154480       18.6604423733       25.3710439608  LPSA8     2               0.0000000000
      8080       254  AKDO      C5            -12.3863166501       17.2250056631       24.9633869288  LPSA8     2               0.0000000000
      8081       254  AKDO      H5            -11.6623538703       18.0687149340       25.0861959065  LPSA8     2               0.0000000000
      8082       254  AKDO      O5            -12.7341724587       16.6342798919       26.2567399306  LPSA8     2               0.0000000000
      8083       254  AKDO      C7            -10.4242263358       15.7206790890       24.1611358958  LPSA8     2               0.0000000000
      8084       254  AKDO      H7            -10.5090632907       15.0980857825       25.0762419210  LPSA8     2               0.0000000000
      8085       254  AKDO      O7             -9.4468910268       16.7561795093       24.3439494273  LPSA8     2               0.0000000000
      8086       254  AKDO      HO7            -9.1826925501       17.0395212742       23.4737363157  LPSA8     2               0.0000000000
      8087       254  AKDO      C8             -9.9678622175       14.8391836645       23.0222563289  LPSA8     2               0.0000000000
      8088       254  AKDO      H81           -10.7415037391       14.0510209550       22.8582951008  LPSA8     2               0.0000000000
      8089       254  AKDO      H82            -9.9027342092       15.4407910591       22.0891412718  LPSA8     2               0.0000000000
      8090       254  AKDO      O8             -8.6929268514       14.2294490758       23.3083106875  LPSA8     2               0.0000000000
      8091       254  AKDO      HO8            -8.7569101915       13.3336267007       22.9348719758  LPSA8     2               0.0000000000
      8092       255  AKDO      C1            -14.5685412005       20.4871899625       23.7877791006  LPSA8     3               1.0000000000
      8093       255  AKDO      O11           -14.9847277334       20.1970612759       22.6301324462  LPSA8     3               1.0000000000
      8094       255  AKDO      O12           -13.5984435002       21.2289013755       24.0819676745  LPSA8     3               1.0000000000
      8095       255  AKDO      C2            -15.1366270277       19.6932469242       25.0105981873  LPSA8     3               1.0000000000
      8096       255  AKDO      C6            -17.0273183330       18.4156244532       25.8070232984  LPSA8     3               1.0000000000
      8097       255  AKDO      H6            -16.3742316360       17.5226530305       25.9875627942  LPSA8     3               1.0000000000
      8098       255  AKDO      O6            -16.4708236561       19.2103474550       24.7403640278  LPSA8     3               1.0000000000
      8099       255  AKDO      C3            -15.2199846925       20.5099596389       26.3311796322  LPSA8     3               1.0000000000
      8100       255  AKDO      H31           -15.8694191930       21.3953179912       26.1524157673  LPSA8     3               1.0000000000
      8101       255  AKDO      H32           -14.2155671438       20.9075070328       26.5858622759  LPSA8     3               1.0000000000
      8102       255  AKDO      C4            -15.7677674019       19.6438255691       27.4446667366  LPSA8     3               1.0000000000
      8103       255  AKDO      H4            -15.1481678786       18.7137141052       27.4874914267  LPSA8     3               1.0000000000
      8104       255  AKDO      O4            -15.7838978132       20.2248985038       28.7473298680  LPSA8     3               1.0000000000
      8105       255  AKDO      HO4           -15.1860324775       19.7062511522       29.3177303725  LPSA8     3               1.0000000000
      8106       255  AKDO      C5            -17.1479975217       19.2356817788       27.0698488015  LPSA8     3               1.0000000000
      8107       255  AKDO      H5            -17.5490907763       18.5923997466       27.8842480400  LPSA8     3               1.0000000000
      8108       255  AKDO      O5            -18.0102818102       20.3694720624       26.9111753685  LPSA8     3               1.0000000000
      8109       255  AKDO      HO5           -17.6654378623       20.8609638227       26.1484348282  LPSA8     3               1.0000000000
      8110       255  AKDO      C7            -18.3528665358       17.8920216747       25.3619901357  LPSA8     3               1.0000000000
      8111       255  AKDO      H7            -19.0313406374       18.7478357690       25.1133271764  LPSA8     3               1.0000000000
      8112       255  AKDO      O7            -18.9587590289       17.1201651702       26.4132358662  LPSA8     3               1.0000000000
      8113       255  AKDO      HO7           -19.8381335994       16.8683460753       26.1148368225  LPSA8     3               1.0000000000
      8114       255  AKDO      C8            -18.0302818722       17.0489974792       24.1593847958  LPSA8     3               1.0000000000
      8115       255  AKDO      H81           -17.5740973869       17.6452238589       23.3456921006  LPSA8     3               1.0000000000
      8116       255  AKDO      H82           -17.4285999562       16.1717648924       24.3732423370  LPSA8     3               1.0000000000
      8117       255  AKDO      O8            -19.1781965349       16.5335066689       23.6162878776  LPSA8     3               1.0000000000
      8118       255  AKDO      HO8           -19.5521161666       17.3731267623       23.3035814838  LPSA8     3               1.0000000000
      8119       256  AHEP      C1            -11.7208768771       16.6425106891       27.2497792614  LPSA8     4               2.0000000000
      8120       256  AHEP      H1            -11.0150852749       15.8574733580       26.9065523071  LPSA8     4               2.0000000000
      8121       256  AHEP      C5            -11.6182587316       18.9425648577       28.0017791976  LPSA8     4               2.0000000000
      8122       256  AHEP      H5            -12.6148493851       19.0654635295       27.5160641214  LPSA8     4               2.0000000000
      8123       256  AHEP      O5            -10.9576823108       17.8575024195       27.3095958618  LPSA8     4               2.0000000000
      8124       256  AHEP      C2            -12.0434458453       16.2338464445       28.7074491562  LPSA8     4               2.0000000000
      8125       256  AHEP      H2            -12.6951768781       15.3351322274       28.6753838910  LPSA8     4               2.0000000000
      8126       256  AHEP      O2            -10.8597845269       15.8265313715       29.3868997268  LPSA8     4               2.0000000000
      8127       256  AHEP      HO2           -11.0175572269       15.0102974259       29.8533676337  LPSA8     4               2.0000000000
      8128       256  AHEP      C3            -12.7730915791       17.3118212222       29.4971534447  LPSA8     4               2.0000000000
      8129       256  AHEP      H3            -13.7888886562       17.5138847082       29.0947435573  LPSA8     4               2.0000000000
      8130       256  AHEP      O3            -12.8784842413       16.9041856246       30.8814253779  LPSA8     4               2.0000000000
      8131       256  AHEP      C4            -11.9061192938       18.5604801582       29.4611853101  LPSA8     4               2.0000000000
      8132       256  AHEP      H4            -10.9306058734       18.4090168469       29.9777497199  LPSA8     4               2.0000000000
      8133       256  AHEP      O4            -12.6763492379       19.6075957356       30.0508630314  LPSA8     4               2.0000000000
      8134       256  AHEP      P4            -12.2835738680       20.3280519124       31.4964343733  LPSA8     4               2.0000000000
      8135       256  AHEP      OP42          -13.6267837757       20.6786892037       32.1210356173  LPSA8     4               2.0000000000
      8136       256  AHEP      OP43          -11.4690729156       21.5604844936       31.0572027570  LPSA8     4               2.0000000000
      8137       256  AHEP      OP44          -11.4632166375       19.3146882485       32.2944349829  LPSA8     4               2.0000000000
      8138       256  AHEP      C6            -10.7873202499       20.2477070629       27.8024872596  LPSA8     4               2.0000000000
      8139       256  AHEP      H6            -11.4879127816       21.0767235929       28.0784512532  LPSA8     4               2.0000000000
      8140       256  AHEP      O6             -9.6158561840       20.3995134449       28.6514034888  LPSA8     4               2.0000000000
      8141       256  AHEP      HO6            -9.8370766221       21.0403418296       29.3381856179  LPSA8     4               2.0000000000
      8142       256  AHEP      C7            -10.3345834787       20.4842117966       26.3433984192  LPSA8     4               2.0000000000
      8143       256  AHEP      H71           -10.0060345060       21.5345425377       26.1831585346  LPSA8     4               2.0000000000
      8144       256  AHEP      H72           -11.1880095427       20.2881509865       25.6561274279  LPSA8     4               2.0000000000
      8145       256  AHEP      O7             -9.2414523111       19.6588420089       25.9064275988  LPSA8     4               2.0000000000
      8146       256  AHEP      HO7            -8.4721102474       19.9880680836       26.3806807512  LPSA8     4               2.0000000000
      8147       257  AHEP      C1            -14.1590232483       16.8286281441       31.4658565999  LPSA8     5               3.0000000000
      8148       257  AHEP      H1            -14.8604222096       17.5438574090       30.9795860016  LPSA8     5               3.0000000000
      8149       257  AHEP      C5            -13.8424731125       14.5461954167       32.0013527153  LPSA8     5               3.0000000000
      8150       257  AHEP      H5            -12.7987765203       14.6548523289       31.6118231133  LPSA8     5               3.0000000000
      8151       257  AHEP      O5            -14.6620578054       15.4974473144       31.2971451901  LPSA8     5               3.0000000000
      8152       257  AHEP      C2            -14.1146559370       17.1367646324       32.9670272371  LPSA8     5               3.0000000000
      8153       257  AHEP      H2            -13.6470371297       18.1393719518       33.0865591102  LPSA8     5               3.0000000000
      8154       257  AHEP      O2            -15.4529217067       17.2122964649       33.4855857345  LPSA8     5               3.0000000000
      8155       257  AHEP      HO2           -15.6874383512       18.1258662935       33.6255907009  LPSA8     5               3.0000000000
      8156       257  AHEP      C3            -13.2475806507       16.1408936009       33.7366907147  LPSA8     5               3.0000000000
      8157       257  AHEP      H3            -12.2131269660       16.1803198574       33.3155828030  LPSA8     5               3.0000000000
      8158       257  AHEP      O3            -13.1810208774       16.3343129464       35.1682937005  LPSA8     5               3.0000000000
      8159       257  AHEP      C4            -13.8186427221       14.7805642300       33.4844036315  LPSA8     5               3.0000000000
      8160       257  AHEP      H4            -14.8741634358       14.6926325445       33.8506051434  LPSA8     5               3.0000000000
      8161       257  AHEP      O4            -12.9318392676       13.8225586312       34.0602878508  LPSA8     5               3.0000000000
      8162       257  AHEP      P4            -13.4940469527       12.9006158168       35.3141942554  LPSA8     5               3.0000000000
      8163       257  AHEP      OP42          -12.2037137739       12.2182903652       35.7682434400  LPSA8     5               3.0000000000
      8164       257  AHEP      OP43          -14.4782682322       11.9962656032       34.6165199972  LPSA8     5               3.0000000000
      8165       257  AHEP      OP44          -14.1177105898       13.8915265923       36.3041458815  LPSA8     5               3.0000000000
      8166       257  AHEP      C6            -14.2872230443       13.1711115141       31.6595483010  LPSA8     5               3.0000000000
      8167       257  AHEP      H6            -13.5815527747       12.4375030915       32.1636348291  LPSA8     5               3.0000000000
      8168       257  AHEP      O6            -15.6112688109       12.8100077801       32.0452115470  LPSA8     5               3.0000000000
      8169       257  AHEP      HO6           -16.2940359757       13.2432923405       31.5555694908  LPSA8     5               3.0000000000
      8170       257  AHEP      C7            -14.1867339635       13.0550685882       30.1952632331  LPSA8     5               3.0000000000
      8171       257  AHEP      H71           -13.8731787116       12.0420133509       30.3878020130  LPSA8     5               3.0000000000
      8172       257  AHEP      H72           -13.3343358437       13.5167268137       29.6477307772  LPSA8     5               3.0000000000
      8173       257  AHEP      O7            -15.3938572379       12.9900093059       29.4270677627  LPSA8     5               3.0000000000
      8174       258  AHEP      C1            -15.6305862783       14.2131679908       28.8012843413  LPSA8     6               4.0000000000
      8175       258  AHEP      H1            -14.8113794426       14.9337570216       29.0167928056  LPSA8     6               4.0000000000
      8176       258  AHEP      C5            -16.7310059359       13.2017642127       26.9926460470  LPSA8     6               4.0000000000
      8177       258  AHEP      H5            -16.6235539700       12.2396027916       27.5586425010  LPSA8     6               4.0000000000
      8178       258  AHEP      O5            -15.6260813959       14.0287501211       27.4044274070  LPSA8     6               4.0000000000
      8179       258  AHEP      C2            -16.9421508831       14.8158435891       29.2399024825  LPSA8     6               4.0000000000
      8180       258  AHEP      H2            -16.8832919089       14.9178047134       30.3481495714  LPSA8     6               4.0000000000
      8181       258  AHEP      O2            -17.0663104052       16.1347175282       28.7269371703  LPSA8     6               4.0000000000
      8182       258  AHEP      HO2           -16.9738452110       16.6921256239       29.4936200232  LPSA8     6               4.0000000000
      8183       258  AHEP      C3            -18.0996419150       13.8954470576       28.8652136281  LPSA8     6               4.0000000000
      8184       258  AHEP      H3            -17.9326525998       12.9171344313       29.3871438016  LPSA8     6               4.0000000000
      8185       258  AHEP      O3            -19.3815150055       14.4256129585       29.2514647259  LPSA8     6               4.0000000000
      8186       258  AHEP      HO3           -19.7239256464       13.9888249576       30.0389807120  LPSA8     6               4.0000000000
      8187       258  AHEP      C4            -18.0613386251       13.7106872989       27.3711138419  LPSA8     6               4.0000000000
      8188       258  AHEP      H4            -18.2386058544       14.6499831021       26.8059945209  LPSA8     6               4.0000000000
      8189       258  AHEP      O4            -19.0022412159       12.7230109541       26.9486525330  LPSA8     6               4.0000000000
      8190       258  AHEP      HO4           -18.6678588533       11.8471124558       27.1296731545  LPSA8     6               4.0000000000
      8191       258  AHEP      C6            -16.7028323241       12.9682399813       25.4754896479  LPSA8     6               4.0000000000
      8192       258  AHEP      H6            -17.3888106927       12.1385185861       25.2196747887  LPSA8     6               4.0000000000
      8193       258  AHEP      O6            -16.9793958601       13.9840506249       24.5900664709  LPSA8     6               4.0000000000
      8194       258  AHEP      HO6           -16.2068422192       13.9719640481       23.9785734018  LPSA8     6               4.0000000000
      8195       258  AHEP      C7            -15.3898891268       12.6420532999       25.0605774489  LPSA8     6               4.0000000000
      8196       258  AHEP      H71           -15.3716036670       12.0455917540       24.0976216276  LPSA8     6               4.0000000000
      8197       258  AHEP      H72           -15.2999108511       12.0614795472       25.9721329507  LPSA8     6               4.0000000000
      8198       258  AHEP      O7            -14.2488795316       13.4561193369       25.1984665977  LPSA8     6               4.0000000000
      8199       258  AHEP      HO7           -13.7041330911       13.0358633763       25.8898043442  LPSA8     6               4.0000000000
      8200       259  AGLC      C1            -12.1231589450       17.1154332184       35.6559912167  LPSA8     7               4.0000000000
      8201       259  AGLC      H1            -11.1647339165       16.8359058988       35.1633752280  LPSA8     7               4.0000000000
      8202       259  AGLC      C5            -13.5940534808       18.9546430674       36.0977656170  LPSA8     7               4.0000000000
      8203       259  AGLC      H5            -14.4599777388       18.3101554988       35.8186933213  LPSA8     7               4.0000000000
      8204       259  AGLC      O5            -12.4014857497       18.4973989035       35.4341217041  LPSA8     7               4.0000000000
      8205       259  AGLC      C2            -11.9077583905       16.9923494976       37.1663074753  LPSA8     7               4.0000000000
      8206       259  AGLC      H2            -11.1479799339       17.7588455371       37.4373607570  LPSA8     7               4.0000000000
      8207       259  AGLC      O2            -11.3275929630       15.7570482040       37.5618148129  LPSA8     7               4.0000000000
      8208       259  AGLC      HO2           -12.0174575229       15.0608025251       37.5525943715  LPSA8     7               4.0000000000
      8209       259  AGLC      C3            -13.1261078700       17.3655758357       37.9696186287  LPSA8     7               4.0000000000
      8210       259  AGLC      H3            -13.9715446785       16.7408625197       37.6047453765  LPSA8     7               4.0000000000
      8211       259  AGLC      O3            -12.9686308212       17.1290486499       39.3967267931  LPSA8     7               4.0000000000
      8212       259  AGLC      C4            -13.4092196081       18.8215739480       37.6124333498  LPSA8     7               4.0000000000
      8213       259  AGLC      H4            -12.5467494020       19.4612271818       37.9356779964  LPSA8     7               4.0000000000
      8214       259  AGLC      O4            -14.5968339630       19.2339019273       38.2705791995  LPSA8     7               4.0000000000
      8215       259  AGLC      HO4           -14.5120498604       20.1151458649       38.6474370473  LPSA8     7               4.0000000000
      8216       259  AGLC      C6            -13.9050459952       20.3258179038       35.5166307795  LPSA8     7               4.0000000000
      8217       259  AGLC      H61           -14.0217209136       20.2113484450       34.4116310472  LPSA8     7               4.0000000000
      8218       259  AGLC      H62           -14.8618214124       20.7498095552       35.8919907002  LPSA8     7               4.0000000000
      8219       259  AGLC      O6            -12.8605093871       21.2639871721       35.7649581761  LPSA8     7               4.0000000000
      8220       259  AGLC      HO6           -13.0823765907       21.7954457074       36.5137881092  LPSA8     7               4.0000000000
      8221       260  AGLC      C1            -13.9010352047       16.1930910250       39.9242946271  LPSA8     8               5.0000000000
      8222       260  AGLC      H1            -14.9117416527       16.4088478562       39.5150178344  LPSA8     8               5.0000000000
      8223       260  AGLC      C5            -12.3685827206       14.2920238313       40.2217670403  LPSA8     8               5.0000000000
      8224       260  AGLC      H5            -11.5327792982       14.9416138630       39.8854826438  LPSA8     8               5.0000000000
      8225       260  AGLC      O5            -13.5755808448       14.8174635538       39.6103889961  LPSA8     8               5.0000000000
      8226       260  AGLC      C2            -14.0438419021       16.2969072459       41.4339891452  LPSA8     8               5.0000000000
      8227       260  AGLC      H2            -14.8621674592       15.5938672349       41.7037155657  LPSA8     8               5.0000000000
      8228       260  AGLC      O2            -14.4240730127       17.5861844188       41.9412108078  LPSA8     8               5.0000000000
      8229       260  AGLC      C3            -12.7877612561       15.8496402443       42.1241245183  LPSA8     8               5.0000000000
      8230       260  AGLC      H3            -11.9616129601       16.4938515647       41.7226171138  LPSA8     8               5.0000000000
      8231       260  AGLC      O3            -12.9474616509       16.1334115861       43.5315423220  LPSA8     8               5.0000000000
      8232       260  AGLC      C4            -12.5238149915       14.4089222335       41.7395665295  LPSA8     8               5.0000000000
      8233       260  AGLC      H4            -13.4172097795       13.8068287365       42.0324135845  LPSA8     8               5.0000000000
      8234       260  AGLC      O4            -11.3947600243       13.8899369947       42.4390882881  LPSA8     8               5.0000000000
      8235       260  AGLC      HO4           -10.6742190678       14.5323946809       42.3687410360  LPSA8     8               5.0000000000
      8236       260  AGLC      C6            -11.9785772461       12.8677315239       39.7401211455  LPSA8     8               5.0000000000
      8237       260  AGLC      H61           -12.0393870142       12.7802518957       38.6270752376  LPSA8     8               5.0000000000
      8238       260  AGLC      H62           -10.9158139158       12.6695165866       40.0099948394  LPSA8     8               5.0000000000
      8239       260  AGLC      O6            -12.7138744942       11.7980807803       40.3463473301  LPSA8     8               5.0000000000
      8240       260  AGLC      HO6           -12.3883655641       11.6881791054       41.2356381158  LPSA8     8               5.0000000000
      8241       261  AGAL      C1            -15.5980649313       18.1735635271       41.4369027645  LPSA8     9               6.0000000000
      8242       261  AGAL      H1            -15.6018972190       18.1464138002       40.3295591112  LPSA8     9               6.0000000000
      8243       261  AGAL      C5            -16.9925841441       17.6449084187       43.2820853654  LPSA8     9               6.0000000000
      8244       261  AGAL      H5            -16.0422658099       17.2947604720       43.7450995691  LPSA8     9               6.0000000000
      8245       261  AGAL      O5            -16.8108259096       17.5235001316       41.8600263711  LPSA8     9               6.0000000000
      8246       261  AGAL      C2            -15.5820468762       19.6442319158       41.8454533723  LPSA8     9               6.0000000000
      8247       261  AGAL      H2            -16.4832529786       20.0939735275       41.3765094420  LPSA8     9               6.0000000000
      8248       261  AGAL      O2            -14.4215649460       20.2387852159       41.2040588300  LPSA8     9               6.0000000000
      8249       261  AGAL      C3            -15.7632516354       19.7950840350       43.3506800684  LPSA8     9               6.0000000000
      8250       261  AGAL      H3            -14.9316677980       19.2842807491       43.8885417947  LPSA8     9               6.0000000000
      8251       261  AGAL      O3            -15.6822309565       21.1517479600       43.7843857692  LPSA8     9               6.0000000000
      8252       261  AGAL      HO3           -15.1002548445       21.5576287165       43.1309499207  LPSA8     9               6.0000000000
      8253       261  AGAL      C4            -17.0930809879       19.1173793169       43.6941003899  LPSA8     9               6.0000000000
      8254       261  AGAL      H4            -17.2428465071       19.1533231875       44.7939532711  LPSA8     9               6.0000000000
      8255       261  AGAL      O4            -18.2353974500       19.7526511467       43.1020242659  LPSA8     9               6.0000000000
      8256       261  AGAL      HO4           -18.9549415668       19.5332125583       43.6943040185  LPSA8     9               6.0000000000
      8257       261  AGAL      C6            -18.0785072833       16.7232823196       43.8420496241  LPSA8     9               6.0000000000
      8258       261  AGAL      H61           -17.8153668562       15.6684596782       43.5976927821  LPSA8     9               6.0000000000
      8259       261  AGAL      H62           -18.0827696769       16.7815427746       44.9523093915  LPSA8     9               6.0000000000
      8260       261  AGAL      O6            -19.4051000310       16.9982559118       43.3654615680  LPSA8     9               6.0000000000
      8261       261  AGAL      HO6           -19.5561412576       16.3172292897       42.6966202034  LPSA8     9               6.0000000000
      8262       262  AGAL      C1            -13.5880758298       21.2441274238       41.7529351970  LPSA8     10              7.0000000000
      8263       262  AGAL      H1            -14.1833583692       22.1723798198       41.8088127402  LPSA8     10              7.0000000000
      8264       262  AGAL      C5            -12.1307222877       19.8193196344       43.0556903212  LPSA8     10              7.0000000000
      8265       262  AGAL      H5            -12.7536995469       18.9895569429       42.6512033965  LPSA8     10              7.0000000000
      8266       262  AGAL      O5            -13.0227454565       20.9586443436       43.0598095636  LPSA8     10              7.0000000000
      8267       262  AGAL      C2            -12.4576398926       21.4806388854       40.7604203623  LPSA8     10              7.0000000000
      8268       262  AGAL      H2            -11.8506416954       22.3369121935       41.1288757510  LPSA8     10              7.0000000000
      8269       262  AGAL      O2            -12.9104531232       21.9215524706       39.4802250238  LPSA8     10              7.0000000000
      8270       262  AGAL      HO2           -12.3600273574       22.6961793231       39.2794442336  LPSA8     10              7.0000000000
      8271       262  AGAL      C3            -11.5755548673       20.2418648461       40.7130483825  LPSA8     10              7.0000000000
      8272       262  AGAL      H3            -12.2249993036       19.3717602421       40.4574228926  LPSA8     10              7.0000000000
      8273       262  AGAL      O3            -10.5804119033       20.3127993599       39.7067337189  LPSA8     10              7.0000000000
      8274       262  AGAL      HO3           -10.7562972768       19.6647437877       39.0274595773  LPSA8     10              7.0000000000
      8275       262  AGAL      C4            -10.9766876081       20.0019045390       42.0852493854  LPSA8     10              7.0000000000
      8276       262  AGAL      H4            -10.3831830902       19.0614237231       42.0735548009  LPSA8     10              7.0000000000
      8277       262  AGAL      O4            -10.1060863866       21.0485805720       42.5041565732  LPSA8     10              7.0000000000
      8278       262  AGAL      HO4           -10.6779527370       21.8027463115       42.6206340601  LPSA8     10              7.0000000000
      8279       262  AGAL      C6            -11.6803525192       19.3021679304       44.4345204127  LPSA8     10              7.0000000000
      8280       262  AGAL      H61           -12.5598720604       19.2291296357       45.1008171133  LPSA8     10              7.0000000000
      8281       262  AGAL      H62           -11.2999246291       18.2663445182       44.2740008224  LPSA8     10              7.0000000000
      8282       262  AGAL      O6            -10.6596113783       20.0338367195       45.1335706040  LPSA8     10              7.0000000000
      8283       262  AGAL      HO6           -11.0600303293       20.4433280913       45.8994291008  LPSA8     10              7.0000000000
      8284       263  BGLC      C1            -13.3694318908       15.1647989418       44.4727510780  LPSA8     11              6.0000000000
      8285       263  BGLC      H1            -12.5422726336       14.4494265344       44.5756268668  LPSA8     11              6.0000000000
      8286       263  BGLC      C5            -15.1630539906       13.6647374284       45.1304556006  LPSA8     11              6.0000000000
      8287       263  BGLC      H5            -14.4342712912       12.8736295286       45.3564396209  LPSA8     11              6.0000000000
      8288       263  BGLC      O5            -14.6258016925       14.5635647267       44.1264220026  LPSA8     11              6.0000000000
      8289       263  BGLC      C2            -13.5702306343       15.9058308163       45.7889991874  LPSA8     11              6.0000000000
      8290       263  BGLC      H2            -14.3318982782       16.7083170504       45.6485239786  LPSA8     11              6.0000000000
      8291       263  BGLC      O2            -12.3549214131       16.5278537398       46.1633799036  LPSA8     11              6.0000000000
      8292       263  BGLC      HO2           -12.5099655054       17.4606489881       46.3339553138  LPSA8     11              6.0000000000
      8293       263  BGLC      C3            -14.0767875250       15.0231525029       46.9095354693  LPSA8     11              6.0000000000
      8294       263  BGLC      H3            -13.3250892683       14.2482363467       47.1784351060  LPSA8     11              6.0000000000
      8295       263  BGLC      O3            -14.4016057637       15.8398954399       48.0521255522  LPSA8     11              6.0000000000
      8296       263  BGLC      C4            -15.3754261316       14.4175065862       46.4343344006  LPSA8     11              6.0000000000
      8297       263  BGLC      H4            -16.1024904736       15.2236034058       46.2065921329  LPSA8     11              6.0000000000
      8298       263  BGLC      O4            -15.9731615556       13.6033863391       47.4361846209  LPSA8     11              6.0000000000
      8299       263  BGLC      HO4           -16.2829825126       14.1825265347       48.1500874141  LPSA8     11              6.0000000000
      8300       263  BGLC      C6            -16.4548384028       13.0916446298       44.5661310174  LPSA8     11              6.0000000000
      8301       263  BGLC      H61           -17.0062534131       12.3942030956       45.2500261227  LPSA8     11              6.0000000000
      8302       263  BGLC      H62           -17.1044450490       13.8478543910       44.1469330995  LPSA8     11              6.0000000000
      8303       263  BGLC      O6            -16.3464594345       12.5743333026       43.2828996822  LPSA8     11              6.0000000000
      8304       263  BGLC      HO6           -16.5802831924       11.6265732402       43.3163040427  LPSA8     11              6.0000000000
      8305       264  BGLCNA    C1            -13.8559129397       15.5229682204       49.3175695276  LPSA8     12              7.0000000000
      8306       264  BGLCNA    H1            -12.8287032512       15.9390821209       49.3817528189  LPSA8     12              7.0000000000
      8307       264  BGLCNA    C5            -13.2595983997       13.8359987156       50.8731552159  LPSA8     12              7.0000000000
      8308       264  BGLCNA    H5            -12.2691960439       14.2883247399       50.9089484310  LPSA8     12              7.0000000000
      8309       264  BGLCNA    O5            -13.8277854169       14.1249227886       49.5859753297  LPSA8     12              7.0000000000
      8310       264  BGLCNA    C2            -14.7589237089       16.1703813589       50.3592927108  LPSA8     12              7.0000000000
      8311       264  BGLCNA    H2            -15.7342562636       15.6149661048       50.3031124624  LPSA8     12              7.0000000000
      8312       264  BGLCNA    N             -14.9073828915       17.5679405972       50.0627489527  LPSA8     12              7.0000000000
      8313       264  BGLCNA    HN            -14.0533804855       18.0564303030       49.9480916411  LPSA8     12              7.0000000000
      8314       264  BGLCNA    C             -16.1087640555       18.1306514030       49.9113703923  LPSA8     12              7.0000000000
      8315       264  BGLCNA    O             -17.1524514658       17.5208173960       50.0804248174  LPSA8     12              7.0000000000
      8316       264  BGLCNA    CT            -16.1443544463       19.5889328833       49.5455814158  LPSA8     12              7.0000000000
      8317       264  BGLCNA    HT1           -16.5053760046       20.1938594634       50.3998462585  LPSA8     12              7.0000000000
      8318       264  BGLCNA    HT2           -16.8561518581       19.7640585910       48.7124786269  LPSA8     12              7.0000000000
      8319       264  BGLCNA    HT3           -15.1334533244       19.9204168109       49.2371750503  LPSA8     12              7.0000000000
      8320       264  BGLCNA    C3            -14.2183892370       15.9794468238       51.7616868376  LPSA8     12              7.0000000000
      8321       264  BGLCNA    H3            -13.2170712319       16.4495390381       51.8034846096  LPSA8     12              7.0000000000
      8322       264  BGLCNA    O3            -15.0399536608       16.6403087862       52.7687777700  LPSA8     12              7.0000000000
      8323       264  BGLCNA    C4            -14.1190270455       14.4769232188       51.9650010269  LPSA8     12              7.0000000000
      8324       264  BGLCNA    H4            -15.1209447037       14.0099732344       51.8974235302  LPSA8     12              7.0000000000
      8325       264  BGLCNA    O4            -13.6055820424       14.1826025101       53.2559682032  LPSA8     12              7.0000000000
      8326       264  BGLCNA    HO4           -12.6775133981       14.4175069962       53.2847172654  LPSA8     12              7.0000000000
      8327       264  BGLCNA    C6            -13.0933259553       12.3323182865       50.9494194092  LPSA8     12              7.0000000000
      8328       264  BGLCNA    H61           -12.6768235128       12.0025733259       51.9252494661  LPSA8     12              7.0000000000
      8329       264  BGLCNA    H62           -14.0968912897       11.8727061850       50.8233517065  LPSA8     12              7.0000000000
      8330       264  BGLCNA    O6            -12.2369730692       11.8447664771       49.9127466042  LPSA8     12              7.0000000000
      8331       264  BGLCNA    HO6           -11.3110440125       11.8732672680       50.1774738030  LPSA8     12              7.0000000000
      8332       265  AGAL      C1            -14.3477725288       17.2761554960       53.8396286219  LPSA8     13              8.0000000000
      8333       265  AGAL      H1            -13.4965647857       16.6264773712       54.1553893470  LPSA8     13              8.0000000000
      8334       265  AGAL      C5            -14.9900571525       19.5270415432       53.2731327561  LPSA8     13              8.0000000000
      8335       265  AGAL      H5            -15.6656909893       19.0144122568       52.5488603902  LPSA8     13              8.0000000000
      8336       265  AGAL      O5            -13.8954008223       18.6036902196       53.4749975920  LPSA8     13              8.0000000000
      8337       265  AGAL      C2            -15.1829793325       17.4871407122       55.1083039356  LPSA8     13              8.0000000000
      8338       265  AGAL      H2            -14.5178210720       18.0638255192       55.7948000236  LPSA8     13              8.0000000000
      8339       265  AGAL      O2            -15.4709027236       16.2508409010       55.7585917604  LPSA8     13              8.0000000000
      8340       265  AGAL      C3            -16.3735576084       18.4032452001       54.9025826451  LPSA8     13              8.0000000000
      8341       265  AGAL      H3            -16.9561886244       18.0311785243       54.0263285376  LPSA8     13              8.0000000000
      8342       265  AGAL      O3            -17.2790401535       18.4735539632       56.0003667129  LPSA8     13              8.0000000000
      8343       265  AGAL      HO3           -18.1925430684       18.4030028315       55.6892448337  LPSA8     13              8.0000000000
      8344       265  AGAL      C4            -15.8157234634       19.7475627739       54.5306303952  LPSA8     13              8.0000000000
      8345       265  AGAL      H4            -16.6612712091       20.4072059506       54.3215362559  LPSA8     13              8.0000000000
      8346       265  AGAL      O4            -15.1319555807       20.4246770306       55.5778034069  LPSA8     13              8.0000000000
      8347       265  AGAL      HO4           -14.4596939039       19.8580107394       55.9665741070  LPSA8     13              8.0000000000
      8348       265  AGAL      C6            -14.6402374333       20.8114158987       52.5418318280  LPSA8     13              8.0000000000
      8349       265  AGAL      H61           -14.1015583120       20.5518157871       51.6049852950  LPSA8     13              8.0000000000
      8350       265  AGAL      H62           -15.5857730525       21.3393366269       52.2927794929  LPSA8     13              8.0000000000
      8351       265  AGAL      O6            -13.8558643829       21.7410833855       53.2721206415  LPSA8     13              8.0000000000
      8352       265  AGAL      HO6           -14.3831469983       22.1295110406       53.9866614255  LPSA8     13              8.0000000000
      8353       266  ARHM      C1            -14.8576752246       16.0409552516       57.0134795416  LPSA8     14              9.0000000000
      8354       266  ARHM      H1            -13.8962959479       16.5610124015       57.0534846891  LPSA8     14              9.0000000000
      8355       266  ARHM      C5            -15.7376581438       13.9561460598       57.1626543810  LPSA8     14              9.0000000000
      8356       266  ARHM      H5            -16.2652947428       14.0659110819       56.1795540670  LPSA8     14              9.0000000000
      8357       266  ARHM      O5            -14.5302322302       14.6873716505       57.1712117522  LPSA8     14              9.0000000000
      8358       266  ARHM      C2            -15.7716096700       16.5053364309       58.1327854415  LPSA8     14              9.0000000000
      8359       266  ARHM      H2            -16.0127506043       17.5708994910       57.9392000524  LPSA8     14              9.0000000000
      8360       266  ARHM      O2            -15.2994725722       16.3478421402       59.4769714847  LPSA8     14              9.0000000000
      8361       266  ARHM      C3            -17.0277708612       15.6998046165       58.0931520572  LPSA8     14              9.0000000000
      8362       266  ARHM      H3            -17.3355440434       15.7164099876       57.0505601769  LPSA8     14              9.0000000000
      8363       266  ARHM      O3            -18.0733716403       16.2169329837       58.9066627687  LPSA8     14              9.0000000000
      8364       266  ARHM      HO3           -17.8394902433       16.0229334734       59.8126092767  LPSA8     14              9.0000000000
      8365       266  ARHM      C4            -16.7044016239       14.2634466371       58.3017804524  LPSA8     14              9.0000000000
      8366       266  ARHM      H4            -16.1004756197       14.1320119192       59.2018752635  LPSA8     14              9.0000000000
      8367       266  ARHM      O4            -17.8447193390       13.3849398847       58.3942818993  LPSA8     14              9.0000000000
      8368       266  ARHM      HO4           -18.0190392660       13.1060786878       59.3028072593  LPSA8     14              9.0000000000
      8369       266  ARHM      C6            -15.2968427760       12.5944939601       57.2634980481  LPSA8     14              9.0000000000
      8370       266  ARHM      H61           -14.5112217558       12.2064346367       56.5700365850  LPSA8     14              9.0000000000
      8371       266  ARHM      H62           -15.1584328912       12.2392686294       58.3035670946  LPSA8     14              9.0000000000
      8372       266  ARHM      H63           -16.2714418816       12.1880917704       56.9277705873  LPSA8     14              9.0000000000
      8373       267  ARHM      C1            -14.0249333810       16.8514032799       59.7507723913  LPSA8     15             10.0000000000
      8374       267  ARHM      H1            -13.7911766168       17.6808486247       59.0463875817  LPSA8     15             10.0000000000
      8375       267  ARHM      C5            -13.0611180646       14.7991815526       60.6359164975  LPSA8     15             10.0000000000
      8376       267  ARHM      H5            -13.9393132359       14.1638172666       60.4163116918  LPSA8     15             10.0000000000
      8377       267  ARHM      O5            -12.9664717975       15.8678638039       59.6750543218  LPSA8     15             10.0000000000
      8378       267  ARHM      C2            -14.0705656967       17.4411269172       61.1417197819  LPSA8     15             10.0000000000
      8379       267  ARHM      H2            -14.9403438438       18.1398224529       61.2092112516  LPSA8     15             10.0000000000
      8380       267  ARHM      O2            -12.8514122586       18.1909905996       61.2909060911  LPSA8     15             10.0000000000
      8381       267  ARHM      C3            -14.2773861310       16.3307916093       62.1396569449  LPSA8     15             10.0000000000
      8382       267  ARHM      H3            -15.1944377612       15.7720385361       61.8451162169  LPSA8     15             10.0000000000
      8383       267  ARHM      O3            -14.5321901218       16.9321135804       63.4065835257  LPSA8     15             10.0000000000
      8384       267  ARHM      C4            -13.0969316115       15.3801845859       62.0401564029  LPSA8     15             10.0000000000
      8385       267  ARHM      H4            -12.1606879430       15.9777178970       62.1696868497  LPSA8     15             10.0000000000
      8386       267  ARHM      O4            -13.0840226319       14.3269478933       63.0085746179  LPSA8     15             10.0000000000
      8387       267  ARHM      HO4           -12.1842836251       13.9623878794       62.9625077853  LPSA8     15             10.0000000000
      8388       267  ARHM      C6            -11.8373934809       13.8779102087       60.4651689010  LPSA8     15             10.0000000000
      8389       267  ARHM      H61           -11.9293334196       12.9353942199       61.0436665434  LPSA8     15             10.0000000000
      8390       267  ARHM      H62           -11.7179334535       13.6439337213       59.3868058268  LPSA8     15             10.0000000000
      8391       267  ARHM      H63           -10.9107636135       14.3705810989       60.8171868625  LPSA8     15             10.0000000000
      8392       268  BMANNA    C1            -12.5887189434       18.8603081754       62.5030670038  LPSA8     16             11.0000000000
      8393       268  BMANNA    H1            -12.4105838357       18.1088526667       63.3090288800  LPSA8     16             11.0000000000
      8394       268  BMANNA    C5            -13.3587116120       20.3357489918       64.2092346250  LPSA8     16             11.0000000000
      8395       268  BMANNA    H5            -13.1553095650       19.5355288775       64.9621192886  LPSA8     16             11.0000000000
      8396       268  BMANNA    O5            -13.6451578198       19.7376826285       62.9228156472  LPSA8     16             11.0000000000
      8397       268  BMANNA    C2            -11.3048327631       19.6639756050       62.3064404089  LPSA8     16             11.0000000000
      8398       268  BMANNA    H2            -10.5074796455       18.9300105840       62.0263170225  LPSA8     16             11.0000000000
      8399       268  BMANNA    N             -11.3667984945       20.6722641644       61.2489363751  LPSA8     16             11.0000000000
      8400       268  BMANNA    HN            -11.6292262169       21.5764968591       61.5598930257  LPSA8     16             11.0000000000
      8401       268  BMANNA    C             -10.9993392866       20.5083144766       59.9708341118  LPSA8     16             11.0000000000
      8402       268  BMANNA    O             -10.5725576071       19.4594959344       59.5179256575  LPSA8     16             11.0000000000
      8403       268  BMANNA    CT            -11.1815774960       21.6978748765       59.0654149995  LPSA8     16             11.0000000000
      8404       268  BMANNA    HT1           -10.2122723661       22.1846061373       58.8495876600  LPSA8     16             11.0000000000
      8405       268  BMANNA    HT2           -11.8528586980       22.4433316252       59.5353317231  LPSA8     16             11.0000000000
      8406       268  BMANNA    HT3           -11.6342979242       21.3624514271       58.1112363751  LPSA8     16             11.0000000000
      8407       268  BMANNA    C3            -10.9532123336       20.2951419196       63.6445604324  LPSA8     16             11.0000000000
      8408       268  BMANNA    H3            -10.8298133127       19.4812299683       64.3924893781  LPSA8     16             11.0000000000
      8409       268  BMANNA    O3             -9.7006812424       20.9722398577       63.5769924597  LPSA8     16             11.0000000000
      8410       268  BMANNA    HO3            -9.1230551724       20.6819257891       64.2978854157  LPSA8     16             11.0000000000
      8411       268  BMANNA    C4            -12.0987618564       21.1818618808       64.1217177354  LPSA8     16             11.0000000000
      8412       268  BMANNA    H4            -12.3212345054       21.9688921643       63.3792058606  LPSA8     16             11.0000000000
      8413       268  BMANNA    O4            -11.8181761732       21.8434811176       65.3567968340  LPSA8     16             11.0000000000
      8414       268  BMANNA    HO4           -12.4054446117       22.5984877228       65.4626899406  LPSA8     16             11.0000000000
      8415       268  BMANNA    C6            -14.5228053269       21.1367257671       64.7630387467  LPSA8     16             11.0000000000
      8416       268  BMANNA    H61           -14.4455627421       21.1338427339       65.8750307064  LPSA8     16             11.0000000000
      8417       268  BMANNA    H62           -14.4508933419       22.1658114396       64.3734087987  LPSA8     16             11.0000000000
      8418       268  BMANNA    O6            -15.8261313503       20.7052648262       64.4049827118  LPSA8     16             11.0000000000
      8419       268  BMANNA    HO6           -16.2272178552       21.3692118238       63.8318012660  LPSA8     16             11.0000000000
      8420       269  BGLCNA    C1            -15.5453543108       16.3063070632       64.1425299403  LPSA8     17             11.0000000000
      8421       269  BGLCNA    H1            -15.4736208176       15.2110626912       63.9806987883  LPSA8     17             11.0000000000
      8422       269  BGLCNA    C5            -17.9097229285       16.1332449014       64.5622204711  LPSA8     17             11.0000000000
      8423       269  BGLCNA    H5            -17.9104400557       15.0314857891       64.3611339728  LPSA8     17             11.0000000000
      8424       269  BGLCNA    O5            -16.8626157281       16.7443615589       63.7767436008  LPSA8     17             11.0000000000
      8425       269  BGLCNA    C2            -15.2327121257       16.6834135402       65.5759577670  LPSA8     17             11.0000000000
      8426       269  BGLCNA    H2            -15.3625952138       17.7812094714       65.7411123043  LPSA8     17             11.0000000000
      8427       269  BGLCNA    N             -13.8437202531       16.3766598480       65.8773367141  LPSA8     17             11.0000000000
      8428       269  BGLCNA    HN            -13.4621558090       15.6182401290       65.3593462835  LPSA8     17             11.0000000000
      8429       269  BGLCNA    C             -13.0882784292       16.9545219097       66.8178422543  LPSA8     17             11.0000000000
      8430       269  BGLCNA    O             -13.4078961201       17.9428054115       67.4661241386  LPSA8     17             11.0000000000
      8431       269  BGLCNA    CT            -11.7656989641       16.2653783769       67.0385277172  LPSA8     17             11.0000000000
      8432       269  BGLCNA    HT1           -10.9253634361       16.7775030262       66.5290255629  LPSA8     17             11.0000000000
      8433       269  BGLCNA    HT2           -11.8421952223       15.2184340207       66.6815077946  LPSA8     17             11.0000000000
      8434       269  BGLCNA    HT3           -11.5431651832       16.2263099719       68.1222477331  LPSA8     17             11.0000000000
      8435       269  BGLCNA    C3            -16.2414152271       15.9351837373       66.4273735667  LPSA8     17             11.0000000000
      8436       269  BGLCNA    H3            -16.1699301298       14.8763184099       66.0902978307  LPSA8     17             11.0000000000
      8437       269  BGLCNA    O3            -15.8480175450       15.9895752536       67.8221812454  LPSA8     17             11.0000000000
      8438       269  BGLCNA    C4            -17.6378486400       16.4409939028       66.0465194260  LPSA8     17             11.0000000000
      8439       269  BGLCNA    H4            -17.6647709118       17.5546187884       66.1542030058  LPSA8     17             11.0000000000
      8440       269  BGLCNA    O4            -18.6428113638       15.8604890233       66.8824606908  LPSA8     17             11.0000000000
      8441       269  BGLCNA    HO4           -19.5057642802       16.2610111641       66.7323068051  LPSA8     17             11.0000000000
      8442       269  BGLCNA    C6            -19.2777993475       16.6708532869       64.1131358301  LPSA8     17             11.0000000000
      8443       269  BGLCNA    H61           -20.0339021635       15.8563074118       64.1619861845  LPSA8     17             11.0000000000
      8444       269  BGLCNA    H62           -19.6100104319       17.4819473311       64.8018538969  LPSA8     17             11.0000000000
      8445       269  BGLCNA    O6            -19.3032422064       17.1963501802       62.7836301028  LPSA8     17             11.0000000000
      8446       269  BGLCNA    HO6           -18.9828823378       16.5151897324       62.1878604926  LPSA8     17             11.0000000000
      8447       270  AGAL      C1            -16.1226588204       14.8530987245       68.6197543285  LPSA8     18             12.0000000000
      8448       270  AGAL      H1            -17.2203660610       14.8054244300       68.8043777406  LPSA8     18             12.0000000000
      8449       270  AGAL      C5            -14.2951860790       13.5485877535       67.8549128507  LPSA8     18             12.0000000000
      8450       270  AGAL      H5            -13.9431423236       14.4971567134       67.4159896052  LPSA8     18             12.0000000000
      8451       270  AGAL      O5            -15.7219716276       13.6370295415       67.9780215341  LPSA8     18             12.0000000000
      8452       270  AGAL      C2            -15.4195188285       14.8584730294       69.9704062570  LPSA8     18             12.0000000000
      8453       270  AGAL      H2            -15.7183374764       13.8706613323       70.3954961339  LPSA8     18             12.0000000000
      8454       270  AGAL      O2            -15.9279234825       15.8461855082       70.8717582230  LPSA8     18             12.0000000000
      8455       270  AGAL      C3            -13.8923209256       14.8138261992       69.8437277020  LPSA8     18             12.0000000000
      8456       270  AGAL      H3            -13.5792877021       15.6403959471       69.1681438600  LPSA8     18             12.0000000000
      8457       270  AGAL      O3            -13.1891579745       15.0186563493       71.0709896971  LPSA8     18             12.0000000000
      8458       270  AGAL      HO3           -12.4783900875       15.6723637060       70.9647004025  LPSA8     18             12.0000000000
      8459       270  AGAL      C4            -13.5296934582       13.5009955254       69.1697319656  LPSA8     18             12.0000000000
      8460       270  AGAL      H4            -12.4415340222       13.4594157570       68.9395268632  LPSA8     18             12.0000000000
      8461       270  AGAL      O4            -13.8370903942       12.3552147881       69.9523778117  LPSA8     18             12.0000000000
      8462       270  AGAL      HO4           -13.2395187304       12.3317762075       70.7114302758  LPSA8     18             12.0000000000
      8463       270  AGAL      C6            -13.9385602706       12.6234978486       66.7439904506  LPSA8     18             12.0000000000
      8464       270  AGAL      H61           -14.3939920527       13.0269468673       65.8197048034  LPSA8     18             12.0000000000
      8465       270  AGAL      H62           -12.8385979062       12.5325358385       66.6297703839  LPSA8     18             12.0000000000
      8466       270  AGAL      O6            -14.5216476710       11.3646687330       66.8304080099  LPSA8     18             12.0000000000
      8467       270  AGAL      HO6           -15.0476845608       11.2774718290       67.6515760002  LPSA8     18             12.0000000000
      8468       271  ARHM      C1            -16.0378407281       15.3087482301       72.1681487251  LPSA8     19             13.0000000000
      8469       271  ARHM      H1            -15.2959534430       14.5037836222       72.3468467022  LPSA8     19             13.0000000000
      8470       271  ARHM      C5            -18.3656621711       15.5821211936       72.2589797737  LPSA8     19             13.0000000000
      8471       271  ARHM      H5            -18.3223033821       16.0029940626       71.2214543502  LPSA8     19             13.0000000000
      8472       271  ARHM      O5            -17.2911744389       14.6810097944       72.4255154883  LPSA8     19             13.0000000000
      8473       271  ARHM      C2            -15.8685801774       16.4645298693       73.1074461956  LPSA8     19             13.0000000000
      8474       271  ARHM      H2            -14.9302468518       17.0170767871       72.8655978267  LPSA8     19             13.0000000000
      8475       271  ARHM      O2            -15.7598139836       16.0032146858       74.4501282708  LPSA8     19             13.0000000000
      8476       271  ARHM      C3            -17.0060683653       17.4451041351       72.9595063763  LPSA8     19             13.0000000000
      8477       271  ARHM      H3            -17.0460870575       17.7852335107       71.8970480752  LPSA8     19             13.0000000000
      8478       271  ARHM      O3            -16.7965759400       18.5907992331       73.7814590426  LPSA8     19             13.0000000000
      8479       271  ARHM      HO3           -16.6707195440       18.2333179079       74.6735217480  LPSA8     19             13.0000000000
      8480       271  ARHM      C4            -18.3081628898       16.7431673741       73.2429370129  LPSA8     19             13.0000000000
      8481       271  ARHM      H4            -18.2914840070       16.3552204004       74.2879301808  LPSA8     19             13.0000000000
      8482       271  ARHM      O4            -19.4351184742       17.6153465890       73.1126320727  LPSA8     19             13.0000000000
      8483       271  ARHM      HO4           -19.5185118839       17.8997994078       72.1992512672  LPSA8     19             13.0000000000
      8484       271  ARHM      C6            -19.6155183530       14.7390990276       72.2784995988  LPSA8     19             13.0000000000
      8485       271  ARHM      H61           -19.6156375704       14.0004189823       71.4623437866  LPSA8     19             13.0000000000
      8486       271  ARHM      H62           -19.9390736721       14.2885845000       73.2303426134  LPSA8     19             13.0000000000
      8487       271  ARHM      H63           -20.3277639941       15.4834751486       72.0018848479  LPSA8     19             13.0000000000
      8488       272  ARHM      C1            -14.5099573618       15.4248282513       74.6950666704  LPSA8     20             14.0000000000
      8489       272  ARHM      H1            -13.7971855965       15.5497055895       73.8529293019  LPSA8     20             14.0000000000
      8490       272  ARHM      C5            -15.3579839203       13.7784789560       75.9664426323  LPSA8     20             14.0000000000
      8491       272  ARHM      H5            -16.4162140347       14.1316296706       75.8288444110  LPSA8     20             14.0000000000
      8492       272  ARHM      O5            -14.6021720761       14.0582102983       74.8255077637  LPSA8     20             14.0000000000
      8493       272  ARHM      C2            -13.9487872964       15.9939076998       75.9523411633  LPSA8     20             14.0000000000
      8494       272  ARHM      H2            -14.0060842529       17.1034452573       75.8541237331  LPSA8     20             14.0000000000
      8495       272  ARHM      O2            -12.6126865864       15.5334290284       76.1666741290  LPSA8     20             14.0000000000
      8496       272  ARHM      C3            -14.7666503305       15.6411367236       77.1444219864  LPSA8     20             14.0000000000
      8497       272  ARHM      H3            -15.8303196018       15.9656449859       76.9752163593  LPSA8     20             14.0000000000
      8498       272  ARHM      O3            -14.2187177481       16.2701896823       78.2888087128  LPSA8     20             14.0000000000
      8499       272  ARHM      C4            -14.7900529996       14.1884578811       77.2817228815  LPSA8     20             14.0000000000
      8500       272  ARHM      H4            -13.7780869623       13.7002586626       77.3365336968  LPSA8     20             14.0000000000
      8501       272  ARHM      O4            -15.5357656977       13.7089759225       78.3930076552  LPSA8     20             14.0000000000
      8502       272  ARHM      HO4           -15.9068655843       12.8684478515       78.1148401107  LPSA8     20             14.0000000000
      8503       272  ARHM      C6            -15.4717975930       12.4461969613       75.8677408503  LPSA8     20             14.0000000000
      8504       272  ARHM      H61           -14.5502402466       11.8177334487       76.0040940761  LPSA8     20             14.0000000000
      8505       272  ARHM      H62           -16.2731132571       12.2205631283       76.6294437793  LPSA8     20             14.0000000000
      8506       272  ARHM      H63           -15.9371564264       12.2246550533       74.8823843535  LPSA8     20             14.0000000000
      8507       273  BMANNA    C1            -11.7400341333       16.3150199164       75.4154225897  LPSA8     21             15.0000000000
      8508       273  BMANNA    H1            -12.3295240347       16.9675826777       74.7246499098  LPSA8     21             15.0000000000
      8509       273  BMANNA    C5            -10.2011762380       16.4415984763       73.6580356742  LPSA8     21             15.0000000000
      8510       273  BMANNA    H5            -10.8979742845       17.1150373911       73.1103842633  LPSA8     21             15.0000000000
      8511       273  BMANNA    O5            -10.9417425725       15.5548780369       74.5190505566  LPSA8     21             15.0000000000
      8512       273  BMANNA    C2            -10.9045516423       17.1769815966       76.3539027765  LPSA8     21             15.0000000000
      8513       273  BMANNA    H2            -11.6562267344       17.7859576984       76.9273362751  LPSA8     21             15.0000000000
      8514       273  BMANNA    N             -10.0581981318       16.4263952369       77.2914031650  LPSA8     21             15.0000000000
      8515       273  BMANNA    HN             -9.6450116136       15.6118229362       76.9116473373  LPSA8     21             15.0000000000
      8516       273  BMANNA    C              -9.8575431732       16.7682575815       78.5831850982  LPSA8     21             15.0000000000
      8517       273  BMANNA    O             -10.1709708647       17.8668172686       79.0159502642  LPSA8     21             15.0000000000
      8518       273  BMANNA    CT             -9.1719492989       15.7457831553       79.4692429485  LPSA8     21             15.0000000000
      8519       273  BMANNA    HT1            -8.0822242479       15.7382313600       79.2837266928  LPSA8     21             15.0000000000
      8520       273  BMANNA    HT2            -9.6163899786       14.7422859926       79.3114677265  LPSA8     21             15.0000000000
      8521       273  BMANNA    HT3            -9.3286944363       15.9930442426       80.5445069631  LPSA8     21             15.0000000000
      8522       273  BMANNA    C3            -10.1263327142       18.1142312551       75.4653908811  LPSA8     21             15.0000000000
      8523       273  BMANNA    H3            -10.8906139806       18.7189370546       74.9249964530  LPSA8     21             15.0000000000
      8524       273  BMANNA    O3             -9.3155051506       19.0247100356       76.1886905141  LPSA8     21             15.0000000000
      8525       273  BMANNA    HO3            -8.8141007077       18.5015039970       76.8169121586  LPSA8     21             15.0000000000
      8526       273  BMANNA    C4             -9.2940223080       17.3276483821       74.4771479006  LPSA8     21             15.0000000000
      8527       273  BMANNA    H4             -8.5702371264       16.6816861851       75.0329156299  LPSA8     21             15.0000000000
      8528       273  BMANNA    O4             -8.5536142836       18.1565958056       73.5905038242  LPSA8     21             15.0000000000
      8529       273  BMANNA    HO4            -7.6151365402       18.0970762704       73.7835091156  LPSA8     21             15.0000000000
      8530       273  BMANNA    C6             -9.4393404976       15.6763889389       72.6161848335  LPSA8     21             15.0000000000
      8531       273  BMANNA    H61            -9.0968953188       16.3626565876       71.8059064999  LPSA8     21             15.0000000000
      8532       273  BMANNA    H62            -8.5408310022       15.2606831791       73.1084781681  LPSA8     21             15.0000000000
      8533       273  BMANNA    O6            -10.1986895505       14.6074799173       72.0615385630  LPSA8     21             15.0000000000
      8534       273  BMANNA    HO6           -10.3960580378       13.9943001861       72.7826738166  LPSA8     21             15.0000000000
      8535       274  BGLCNA    C1            -15.1547024408       16.6819601246       79.2444379890  LPSA8     22             15.0000000000
      8536       274  BGLCNA    H1            -16.0822513909       16.0652488496       79.2344389417  LPSA8     22             15.0000000000
      8537       274  BGLCNA    C5            -16.3699873800       18.5216661023       80.0951089492  LPSA8     22             15.0000000000
      8538       274  BGLCNA    H5            -17.2615112369       17.8606239236       80.0697315646  LPSA8     22             15.0000000000
      8539       274  BGLCNA    O5            -15.4801234435       18.0604464255       79.0728956306  LPSA8     22             15.0000000000
      8540       274  BGLCNA    C2            -14.4353919344       16.5043754968       80.5472692988  LPSA8     22             15.0000000000
      8541       274  BGLCNA    H2            -13.5104282181       17.1397883297       80.4983807741  LPSA8     22             15.0000000000
      8542       274  BGLCNA    N             -14.0678931562       15.1172167158       80.7194542213  LPSA8     22             15.0000000000
      8543       274  BGLCNA    HN            -14.7219710411       14.4452801097       80.3904065950  LPSA8     22             15.0000000000
      8544       274  BGLCNA    C             -12.9682319937       14.7045405754       81.3441117047  LPSA8     22             15.0000000000
      8545       274  BGLCNA    O             -12.1577179600       15.4572034590       81.8571251512  LPSA8     22             15.0000000000
      8546       274  BGLCNA    CT            -12.7881731306       13.2148500887       81.3866350519  LPSA8     22             15.0000000000
      8547       274  BGLCNA    HT1           -12.1355295459       12.9453069061       80.5338280135  LPSA8     22             15.0000000000
      8548       274  BGLCNA    HT2           -13.7743806267       12.7238649186       81.2723216268  LPSA8     22             15.0000000000
      8549       274  BGLCNA    HT3           -12.3281052398       12.9098203370       82.3511384573  LPSA8     22             15.0000000000
      8550       274  BGLCNA    C3            -15.3167377361       16.9697565417       81.6815109513  LPSA8     22             15.0000000000
      8551       274  BGLCNA    H3            -16.2597612937       16.3776089023       81.6500431694  LPSA8     22             15.0000000000
      8552       274  BGLCNA    O3            -14.6166525579       16.6777846768       82.8984610446  LPSA8     22             15.0000000000
      8553       274  BGLCNA    C4            -15.6797148550       18.4124115919       81.4552911590  LPSA8     22             15.0000000000
      8554       274  BGLCNA    H4            -14.7382642361       19.0047854021       81.4068894192  LPSA8     22             15.0000000000
      8555       274  BGLCNA    O4            -16.4855759053       18.9397872463       82.5124620726  LPSA8     22             15.0000000000
      8556       274  BGLCNA    HO4           -16.2262482057       19.8381799466       82.7590491893  LPSA8     22             15.0000000000
      8557       274  BGLCNA    C6            -16.7743023135       19.9362070386       79.7701157310  LPSA8     22             15.0000000000
      8558       274  BGLCNA    H61           -17.1899298483       20.4008254961       80.6833994349  LPSA8     22             15.0000000000
      8559       274  BGLCNA    H62           -15.8895753607       20.5283626277       79.4439261379  LPSA8     22             15.0000000000
      8560       274  BGLCNA    O6            -17.8178313365       20.0177710378       78.8050529429  LPSA8     22             15.0000000000
      8561       274  BGLCNA    HO6           -17.5955489056       19.5305364372       77.9968842687  LPSA8     22             15.0000000000
      8562       275  AGAL      C1            -15.3289204808       16.5830829410       84.1007226125  LPSA8     23             16.0000000000
      8563       275  AGAL      H1            -15.5829749528       17.6041930582       84.4530488030  LPSA8     23             16.0000000000
      8564       275  AGAL      C5            -16.3180800268       14.4373831076       83.7295408080  LPSA8     23             16.0000000000
      8565       275  AGAL      H5            -15.6799653861       14.3501226350       82.8194402001  LPSA8     23             16.0000000000
      8566       275  AGAL      O5            -16.5507193913       15.8354973185       83.9957336054  LPSA8     23             16.0000000000
      8567       275  AGAL      C2            -14.4614667684       15.9764776029       85.1829889937  LPSA8     23             16.0000000000
      8568       275  AGAL      H2            -15.0865520678       15.9810365201       86.1064832436  LPSA8     23             16.0000000000
      8569       275  AGAL      O2            -13.2524284872       16.7436779955       85.4087783006  LPSA8     23             16.0000000000
      8570       275  AGAL      C3            -14.1967003349       14.5118867954       84.8769558435  LPSA8     23             16.0000000000
      8571       275  AGAL      H3            -13.7552601746       14.4331510724       83.8604693957  LPSA8     23             16.0000000000
      8572       275  AGAL      O3            -13.2336204409       13.9417993718       85.7436174823  LPSA8     23             16.0000000000
      8573       275  AGAL      HO3           -13.4233473691       14.2195749572       86.6393281006  LPSA8     23             16.0000000000
      8574       275  AGAL      C4            -15.5246725306       13.7632663513       84.8611909897  LPSA8     23             16.0000000000
      8575       275  AGAL      H4            -15.3720665782       12.6884546380       84.6149367753  LPSA8     23             16.0000000000
      8576       275  AGAL      O4            -16.2142382359       13.8067228490       86.1099678263  LPSA8     23             16.0000000000
      8577       275  AGAL      HO4           -17.1611224993       13.7911034581       85.8776480492  LPSA8     23             16.0000000000
      8578       275  AGAL      C6            -17.6368037499       13.8100261333       83.3327294743  LPSA8     23             16.0000000000
      8579       275  AGAL      H61           -18.1416215553       14.4494717924       82.5750952362  LPSA8     23             16.0000000000
      8580       275  AGAL      H62           -17.4348721018       12.8371412831       82.8293337439  LPSA8     23             16.0000000000
      8581       275  AGAL      O6            -18.5139982912       13.6336281401       84.4486531984  LPSA8     23             16.0000000000
      8582       275  AGAL      HO6           -19.3837277554       13.3032091272       84.1969013938  LPSA8     23             16.0000000000
      8583       276  ARHM      C1            -13.3135821616       17.8516445603       86.2704225613  LPSA8     24             17.0000000000
      8584       276  ARHM      H1            -14.3571604744       18.0908065293       86.3565476352  LPSA8     24             17.0000000000
      8585       276  ARHM      C5            -11.2785689995       18.8600124513       85.6306332992  LPSA8     24             17.0000000000
      8586       276  ARHM      H5            -11.1483066543       17.9916137508       84.9428735909  LPSA8     24             17.0000000000
      8587       276  ARHM      O5            -12.6922037224       19.0577659589       85.7950231158  LPSA8     24             17.0000000000
      8588       276  ARHM      C2            -12.7752483931       17.4474667623       87.6055389238  LPSA8     24             17.0000000000
      8589       276  ARHM      H2            -13.2648665070       16.4976402846       87.9341330455  LPSA8     24             17.0000000000
      8590       276  ARHM      O2            -12.9631908085       18.4886575150       88.5811277927  LPSA8     24             17.0000000000
      8591       276  ARHM      C3            -11.3134352438       17.1822576388       87.4292400821  LPSA8     24             17.0000000000
      8592       276  ARHM      H3            -11.2034906440       16.3926580652       86.6410002790  LPSA8     24             17.0000000000
      8593       276  ARHM      O3            -10.8011433120       16.6493329673       88.6392786473  LPSA8     24             17.0000000000
      8594       276  ARHM      HO3           -10.3794670694       17.3298392218       89.1738199380  LPSA8     24             17.0000000000
      8595       276  ARHM      C4            -10.6363533284       18.4628252609       86.9474788121  LPSA8     24             17.0000000000
      8596       276  ARHM      H4            -10.8425978907       19.2727476323       87.6844707853  LPSA8     24             17.0000000000
      8597       276  ARHM      O4             -9.2253526646       18.3460507651       86.7784298808  LPSA8     24             17.0000000000
      8598       276  ARHM      HO4            -8.8016056513       19.1782945179       87.0252376652  LPSA8     24             17.0000000000
      8599       276  ARHM      C6            -10.6153984468       20.0803198812       84.9525590947  LPSA8     24             17.0000000000
      8600       276  ARHM      H61            -9.6970627685       19.7307833452       84.4247886933  LPSA8     24             17.0000000000
      8601       276  ARHM      H62           -11.3003337351       20.5162536106       84.2080389344  LPSA8     24             17.0000000000
      8602       276  ARHM      H63           -10.3410751940       20.8712116532       85.6825017590  LPSA8     24             17.0000000000
      8603       277  ARHM      C1            -14.2326383347       18.5686610056       89.1484743664  LPSA8     25             18.0000000000
      8604       277  ARHM      H1            -14.9494080247       18.0447226606       88.4794510455  LPSA8     25             18.0000000000
      8605       277  ARHM      C5            -13.9673175810       20.6962241269       90.1988120187  LPSA8     25             18.0000000000
      8606       277  ARHM      H5            -12.9072498644       20.7384316089       89.8550227621  LPSA8     25             18.0000000000
      8607       277  ARHM      O5            -14.7298629920       19.9123689440       89.2589778339  LPSA8     25             18.0000000000
      8608       277  ARHM      C2            -14.2424522002       17.8561842598       90.4639783138  LPSA8     25             18.0000000000
      8609       277  ARHM      H2            -13.7362408626       16.8615299974       90.3619832775  LPSA8     25             18.0000000000
      8610       277  ARHM      O2            -15.5949848318       17.6690072807       90.8904079972  LPSA8     25             18.0000000000
      8611       277  ARHM      C3            -13.4414344802       18.6542279992       91.4547626200  LPSA8     25             18.0000000000
      8612       277  ARHM      H3            -12.3861779856       18.7473845037       91.0897386407  LPSA8     25             18.0000000000
      8613       277  ARHM      O3            -13.5111702348       17.9634737797       92.7046349828  LPSA8     25             18.0000000000
      8614       277  ARHM      C4            -13.9972866246       20.0438149083       91.5742236668  LPSA8     25             18.0000000000
      8615       277  ARHM      H4            -15.0654924324       20.0145611366       91.9071797341  LPSA8     25             18.0000000000
      8616       277  ARHM      O4            -13.2311226139       20.7778011519       92.5220117615  LPSA8     25             18.0000000000
      8617       277  ARHM      HO4           -13.8133997144       21.3200599322       93.0508506309  LPSA8     25             18.0000000000
      8618       277  ARHM      C6            -14.4871961506       22.1506334982       90.2168739650  LPSA8     25             18.0000000000
      8619       277  ARHM      H61           -14.5372002620       22.5446313461       89.1798524120  LPSA8     25             18.0000000000
      8620       277  ARHM      H62           -15.4962578673       22.2134681048       90.6685349660  LPSA8     25             18.0000000000
      8621       277  ARHM      H63           -13.7832913597       22.7862416989       90.8008772478  LPSA8     25             18.0000000000
      8622       278  BMANNA    C1            -16.2645255180       16.6020659293       90.2704335307  LPSA8     26             19.0000000000
      8623       278  BMANNA    H1            -15.5476687232       15.8708162501       89.8431353050  LPSA8     26             19.0000000000
      8624       278  BMANNA    C5            -17.7796548066       15.8603162254       88.5932777190  LPSA8     26             19.0000000000
      8625       278  BMANNA    H5            -16.9781852515       15.2048291862       88.1807161276  LPSA8     26             19.0000000000
      8626       278  BMANNA    O5            -17.1505587673       16.9974589255       89.2214730081  LPSA8     26             19.0000000000
      8627       278  BMANNA    C2            -17.0682749378       15.9352625284       91.3345700183  LPSA8     26             19.0000000000
      8628       278  BMANNA    H2            -16.3192926731       15.6440898414       92.1012288482  LPSA8     26             19.0000000000
      8629       278  BMANNA    N             -18.0454760028       16.8458331601       91.9178098167  LPSA8     26             19.0000000000
      8630       278  BMANNA    HN            -18.6626616399       17.2774429027       91.2706098279  LPSA8     26             19.0000000000
      8631       278  BMANNA    C             -18.1823274726       17.0804391093       93.2276086454  LPSA8     26             19.0000000000
      8632       278  BMANNA    O             -17.3816360018       16.6635877890       94.0493150899  LPSA8     26             19.0000000000
      8633       278  BMANNA    CT            -19.4091160673       17.8524075881       93.6568148155  LPSA8     26             19.0000000000
      8634       278  BMANNA    HT1           -19.7538538151       18.5112408093       92.8360408946  LPSA8     26             19.0000000000
      8635       278  BMANNA    HT2           -19.2845697351       18.4273599563       94.5991265294  LPSA8     26             19.0000000000
      8636       278  BMANNA    HT3           -20.1744583999       17.0852080547       93.8655311781  LPSA8     26             19.0000000000
      8637       278  BMANNA    C3            -17.6908932870       14.6905595770       90.7547046159  LPSA8     26             19.0000000000
      8638       278  BMANNA    H3            -16.9373370676       14.0282755947       90.2941017729  LPSA8     26             19.0000000000
      8639       278  BMANNA    O3            -18.2961362782       13.9264489407       91.7879672809  LPSA8     26             19.0000000000
      8640       278  BMANNA    HO3           -17.6051961028       13.4304550794       92.2358690986  LPSA8     26             19.0000000000
      8641       278  BMANNA    C4            -18.6037022317       15.0831299701       89.6155218281  LPSA8     26             19.0000000000
      8642       278  BMANNA    H4            -19.4271532945       15.7298192828       89.9694412677  LPSA8     26             19.0000000000
      8643       278  BMANNA    O4            -19.1755333306       13.9305112348       89.0164008484  LPSA8     26             19.0000000000
      8644       278  BMANNA    HO4           -19.9122541230       13.6447299461       89.5631711535  LPSA8     26             19.0000000000
      8645       278  BMANNA    C6            -18.5696596312       16.3807351485       87.4037656391  LPSA8     26             19.0000000000
      8646       278  BMANNA    H61           -17.9979449898       17.2057850807       86.9279639583  LPSA8     26             19.0000000000
      8647       278  BMANNA    H62           -18.7145773132       15.5854570889       86.6391596141  LPSA8     26             19.0000000000
      8648       278  BMANNA    O6            -19.8466554008       16.8935905259       87.7688992390  LPSA8     26             19.0000000000
      8649       278  BMANNA    HO6           -20.3960567825       16.1803696061       88.1090840448  LPSA8     26             19.0000000000
      8650       279  BGLCNA    C1            -12.3331097748       17.9280207704       93.4684593318  LPSA8     27             19.0000000000
      8651       279  BGLCNA    H1            -11.7612601037       18.8818158035       93.4312013764  LPSA8     27             19.0000000000
      8652       279  BGLCNA    C5            -10.3437185438       16.7587237853       93.9111191639  LPSA8     27             19.0000000000
      8653       279  BGLCNA    H5             -9.8319638934       17.7564724003       93.9297938817  LPSA8     27             19.0000000000
      8654       279  BGLCNA    O5            -11.4908808609       16.8518102446       93.0668901442  LPSA8     27             19.0000000000
      8655       279  BGLCNA    C2            -12.8451379795       17.6602473914       94.8677943699  LPSA8     27             19.0000000000
      8656       279  BGLCNA    H2            -13.3525372378       16.6615685275       94.8347440107  LPSA8     27             19.0000000000
      8657       279  BGLCNA    N             -13.8165676264       18.6563051598       95.2973828800  LPSA8     27             19.0000000000
      8658       279  BGLCNA    HN            -13.6034201209       19.5992820212       95.0618259548  LPSA8     27             19.0000000000
      8659       279  BGLCNA    C             -14.9443713282       18.2928152407       95.9444281680  LPSA8     27             19.0000000000
      8660       279  BGLCNA    O             -15.0640971850       17.1918253405       96.4634318644  LPSA8     27             19.0000000000
      8661       279  BGLCNA    CT            -16.0774640767       19.2936164868       96.0131717284  LPSA8     27             19.0000000000
      8662       279  BGLCNA    HT1           -15.8612686579       20.1665676855       95.3684811012  LPSA8     27             19.0000000000
      8663       279  BGLCNA    HT2           -16.2405981797       19.6101876311       97.0587780577  LPSA8     27             19.0000000000
      8664       279  BGLCNA    HT3           -17.0047772063       18.7812825724       95.6728676251  LPSA8     27             19.0000000000
      8665       279  BGLCNA    C3            -11.6940616744       17.5451542130       95.8205417112  LPSA8     27             19.0000000000
      8666       279  BGLCNA    H3            -11.1268031744       18.5075179610       95.7700297185  LPSA8     27             19.0000000000
      8667       279  BGLCNA    O3            -12.2908758132       17.3669604935       97.1269417658  LPSA8     27             19.0000000000
      8668       279  BGLCNA    C4            -10.7803273757       16.4385334885       95.3394197489  LPSA8     27             19.0000000000
      8669       279  BGLCNA    H4            -11.3192924461       15.4629354606       95.3341185409  LPSA8     27             19.0000000000
      8670       279  BGLCNA    O4             -9.6313355678       16.3197291546       96.1669023553  LPSA8     27             19.0000000000
      8671       279  BGLCNA    HO4            -9.1567762460       17.1413786091       96.0701981736  LPSA8     27             19.0000000000
      8672       279  BGLCNA    C6             -9.3630849186       15.7988550692       93.2942706898  LPSA8     27             19.0000000000
      8673       279  BGLCNA    H61            -8.4384414966       15.9847090172       93.8503897109  LPSA8     27             19.0000000000
      8674       279  BGLCNA    H62            -9.6723161121       14.7392817122       93.4311803393  LPSA8     27             19.0000000000
      8675       279  BGLCNA    O6             -9.0825462881       16.0745149291       91.9175320199  LPSA8     27             19.0000000000
      8676       279  BGLCNA    HO6            -8.5160969530       15.4065360045       91.5316181760  LPSA8     27             19.0000000000
      8677       280  AGAL      C1            -11.4896317795       17.6369141350       98.2424019079  LPSA8     28             20.0000000000
      8678       280  AGAL      H1            -10.7595796579       16.8026790768       98.3276940128  LPSA8     28             20.0000000000
      8679       280  AGAL      C5            -11.6447280253       20.0278902910       98.1230642015  LPSA8     28             20.0000000000
      8680       280  AGAL      H5            -12.5086741320       19.8789343924       97.4261063155  LPSA8     28             20.0000000000
      8681       280  AGAL      O5            -10.7696934423       18.8753851863       98.0482808115  LPSA8     28             20.0000000000
      8682       280  AGAL      C2            -12.2057808129       17.6945569303       99.6119143792  LPSA8     28             20.0000000000
      8683       280  AGAL      H2            -11.3515200731       17.8766655945      100.3013871805  LPSA8     28             20.0000000000
      8684       280  AGAL      O2            -12.8561565932       16.5068853518      100.0991750586  LPSA8     28             20.0000000000
      8685       280  AGAL      C3            -13.1218663447       18.8945188918       99.6838140500  LPSA8     28             20.0000000000
      8686       280  AGAL      H3            -13.8511745998       18.8202619213       98.8447402878  LPSA8     28             20.0000000000
      8687       280  AGAL      O3            -13.9109874603       19.0065998392      100.8599973499  LPSA8     28             20.0000000000
      8688       280  AGAL      HO3           -14.8450561829       18.9794071238      100.6029570355  LPSA8     28             20.0000000000
      8689       280  AGAL      C4            -12.2804533116       20.1319069915       99.4872078370  LPSA8     28             20.0000000000
      8690       280  AGAL      H4            -12.9742174344       21.0033866539       99.4926243882  LPSA8     28             20.0000000000
      8691       280  AGAL      O4            -11.2887050321       20.3429889695      100.4870662958  LPSA8     28             20.0000000000
      8692       280  AGAL      HO4           -11.6569855041       20.9710078824      101.1091274499  LPSA8     28             20.0000000000
      8693       280  AGAL      C6            -10.9331777469       21.2989440066       97.6550027739  LPSA8     28             20.0000000000
      8694       280  AGAL      H61           -10.7247163770       21.1695011206       96.5660473533  LPSA8     28             20.0000000000
      8695       280  AGAL      H62           -11.5921220260       22.1899263699       97.7577170814  LPSA8     28             20.0000000000
      8696       280  AGAL      O6             -9.7023960307       21.5944880327       98.3366016459  LPSA8     28             20.0000000000
      8697       280  AGAL      HO6            -9.0256051585       21.0328385182       97.9423253790  LPSA8     28             20.0000000000
      8698       281  ARHM      C1            -12.5951801849       16.3548938552      101.4840567808  LPSA8     29             21.0000000000
      8699       281  ARHM      H1            -12.3911644198       17.3333267405      101.9637297997  LPSA8     29             21.0000000000
      8700       281  ARHM      C5            -11.6664137024       14.2140780422      101.1528916090  LPSA8     29             21.0000000000
      8701       281  ARHM      H5            -11.9038009211       14.3175221931      100.0678492498  LPSA8     29             21.0000000000
      8702       281  ARHM      O5            -11.4642504364       15.5104494735      101.7090154089  LPSA8     29             21.0000000000
      8703       281  ARHM      C2            -13.7902961469       15.7694642024      102.1674808325  LPSA8     29             21.0000000000
      8704       281  ARHM      H2            -14.6702193821       16.4115223663      101.9172221254  LPSA8     29             21.0000000000
      8705       281  ARHM      O2            -13.5837900941       15.7216372013      103.5979005101  LPSA8     29             21.0000000000
      8706       281  ARHM      C3            -14.0408250274       14.3961463533      101.6058294894  LPSA8     29             21.0000000000
      8707       281  ARHM      H3            -14.2330573274       14.4738411336      100.5087056929  LPSA8     29             21.0000000000
      8708       281  ARHM      O3            -15.2071959197       13.8684630948      102.1953194386  LPSA8     29             21.0000000000
      8709       281  ARHM      HO3           -15.1217006992       12.9143083451      102.1934452954  LPSA8     29             21.0000000000
      8710       281  ARHM      C4            -12.8396278962       13.4925737940      101.8174297068  LPSA8     29             21.0000000000
      8711       281  ARHM      H4            -12.6289882271       13.3918806814      102.9102056268  LPSA8     29             21.0000000000
      8712       281  ARHM      O4            -13.0494559707       12.1574378247      101.3169628505  LPSA8     29             21.0000000000
      8713       281  ARHM      HO4           -13.3990153997       12.1146367066      100.4220200097  LPSA8     29             21.0000000000
      8714       281  ARHM      C6            -10.2899806885       13.5827636983      101.2698448476  LPSA8     29             21.0000000000
      8715       281  ARHM      H61            -9.5404668045       14.2481132282      100.7689497467  LPSA8     29             21.0000000000
      8716       281  ARHM      H62            -9.9931272122       13.3775782364      102.3150174737  LPSA8     29             21.0000000000
      8717       281  ARHM      H63           -10.3575460338       12.6110909181      100.7824919527  LPSA8     29             21.0000000000
      8718       282  ARHM      C1            -14.1203140090       16.7724596548      104.3679770003  LPSA8     30             22.0000000000
      8719       282  ARHM      H1            -15.2133951261       16.8657118591      104.1625436374  LPSA8     30             22.0000000000
      8720       282  ARHM      C5            -12.0761616564       18.0134492320      104.4940852087  LPSA8     30             22.0000000000
      8721       282  ARHM      H5            -11.6227700285       17.1766051509      103.9143801689  LPSA8     30             22.0000000000
      8722       282  ARHM      O5            -13.4705204923       18.0456739624      104.1540201651  LPSA8     30             22.0000000000
      8723       282  ARHM      C2            -13.9289098409       16.4201286490      105.8218377318  LPSA8     30             22.0000000000
      8724       282  ARHM      H2            -14.3825169860       15.4302149494      106.0287084905  LPSA8     30             22.0000000000
      8725       282  ARHM      O2            -14.5420252311       17.4418026988      106.6012381794  LPSA8     30             22.0000000000
      8726       282  ARHM      C3            -12.4723779993       16.3657258211      106.2210159669  LPSA8     30             22.0000000000
      8727       282  ARHM      H3            -11.9826523293       15.6422365770      105.5239286629  LPSA8     30             22.0000000000
      8728       282  ARHM      O3            -12.3273451484       15.8305378247      107.5470096437  LPSA8     30             22.0000000000
      8729       282  ARHM      C4            -11.8576925751       17.7193965427      105.9630607991  LPSA8     30             22.0000000000
      8730       282  ARHM      H4            -12.3684616992       18.5058963455      106.5567766960  LPSA8     30             22.0000000000
      8731       282  ARHM      O4            -10.4800523627       17.8246747012      106.3120914290  LPSA8     30             22.0000000000
      8732       282  ARHM      HO4            -9.9297696028       17.3168827936      105.7074991162  LPSA8     30             22.0000000000
      8733       282  ARHM      C6            -11.4003689303       19.3209473434      104.0499160394  LPSA8     30             22.0000000000
      8734       282  ARHM      H61           -10.3081937808       19.2365156241      104.2331038857  LPSA8     30             22.0000000000
      8735       282  ARHM      H62           -11.5568500683       19.4679912478      102.9660711186  LPSA8     30             22.0000000000
      8736       282  ARHM      H63           -11.8078624781       20.1884080426      104.6136978080  LPSA8     30             22.0000000000
      8737       283  BMANNA    C1            -15.8862170818       17.2359797317      106.8811635671  LPSA8     31             23.0000000000
      8738       283  BMANNA    H1            -16.0668969470       16.1698474847      107.1436766798  LPSA8     31             23.0000000000
      8739       283  BMANNA    C5            -18.1326442558       17.6016442161      106.1816135989  LPSA8     31             23.0000000000
      8740       283  BMANNA    H5            -18.2338401603       16.5587129333      106.4699314023  LPSA8     31             23.0000000000
      8741       283  BMANNA    O5            -16.7458198565       17.7260074300      105.8387985287  LPSA8     31             23.0000000000
      8742       283  BMANNA    C2            -16.1143783089       18.1007649609      108.0778030123  LPSA8     31             23.0000000000
      8743       283  BMANNA    H2            -15.4890655338       17.6814999515      108.9086848459  LPSA8     31             23.0000000000
      8744       283  BMANNA    N             -15.6633074438       19.4577958145      107.8110545392  LPSA8     31             23.0000000000
      8745       283  BMANNA    HN            -15.5943892818       19.7381524695      106.8540773992  LPSA8     31             23.0000000000
      8746       283  BMANNA    C             -15.2569384430       20.2827544850      108.7691450456  LPSA8     31             23.0000000000
      8747       283  BMANNA    O             -15.2117149232       19.9318007902      109.9418910827  LPSA8     31             23.0000000000
      8748       283  BMANNA    CT            -14.8568485512       21.6593918052      108.3196808732  LPSA8     31             23.0000000000
      8749       283  BMANNA    HT1           -15.5866521351       22.0095082896      107.5566125911  LPSA8     31             23.0000000000
      8750       283  BMANNA    HT2           -13.8332853469       21.6331515724      107.8972498286  LPSA8     31             23.0000000000
      8751       283  BMANNA    HT3           -14.8678393877       22.3466915594      109.1817893736  LPSA8     31             23.0000000000
      8752       283  BMANNA    C3            -17.5550831387       17.9469590211      108.5012075112  LPSA8     31             23.0000000000
      8753       283  BMANNA    H3            -17.7693508479       16.8642367362      108.6551892608  LPSA8     31             23.0000000000
      8754       283  BMANNA    O3            -17.7721116525       18.5216915133      109.7703336217  LPSA8     31             23.0000000000
      8755       283  BMANNA    HO3           -16.8960169571       18.7468280801      110.1222677266  LPSA8     31             23.0000000000
      8756       283  BMANNA    C4            -18.4695517692       18.4289894636      107.4028412748  LPSA8     31             23.0000000000
      8757       283  BMANNA    H4            -18.2895781783       19.4959026600      107.1355243687  LPSA8     31             23.0000000000
      8758       283  BMANNA    O4            -19.8452184344       18.2802542391      107.7447949219  LPSA8     31             23.0000000000
      8759       283  BMANNA    HO4           -20.0124020051       17.4477173464      108.2075587161  LPSA8     31             23.0000000000
      8760       283  BMANNA    C6            -19.0961227047       17.8212109405      105.0266655875  LPSA8     31             23.0000000000
      8761       283  BMANNA    H61           -20.0977711955       17.4468928613      105.3115103462  LPSA8     31             23.0000000000
      8762       283  BMANNA    H62           -19.1964961390       18.9113050768      104.8587696642  LPSA8     31             23.0000000000
      8763       283  BMANNA    O6            -18.7140739016       17.2020605528      103.7945530077  LPSA8     31             23.0000000000
      8764       283  BMANNA    HO6           -18.7924278051       16.2364025587      103.8482749046  LPSA8     31             23.0000000000
      8765       284  BGLCNA    C1            -12.4629836188       16.7214443657      108.6198535834  LPSA8     32             23.0000000000
      8766       284  BGLCNA    H1            -13.2863733498       17.4227378866      108.4136899443  LPSA8     32             23.0000000000
      8767       284  BGLCNA    C5            -11.5208890751       18.4646566123      109.9286705114  LPSA8     32             23.0000000000
      8768       284  BGLCNA    H5            -12.3734870766       19.1043231704      109.5877350686  LPSA8     32             23.0000000000
      8769       284  BGLCNA    O5            -11.2913183709       17.4910118454      108.9055670211  LPSA8     32             23.0000000000
      8770       284  BGLCNA    C2            -12.8450771999       15.9311832906      109.8537939797  LPSA8     32             23.0000000000
      8771       284  BGLCNA    H2            -11.9348811613       15.3460326750      110.1414019702  LPSA8     32             23.0000000000
      8772       284  BGLCNA    N             -13.9339277966       15.0169842429      109.5745829803  LPSA8     32             23.0000000000
      8773       284  BGLCNA    HN            -14.5303967581       15.3418011888      108.8593678852  LPSA8     32             23.0000000000
      8774       284  BGLCNA    C             -14.0950775484       13.7891966530      110.0866099056  LPSA8     32             23.0000000000
      8775       284  BGLCNA    O             -13.3681977096       13.2707293879      110.9187163450  LPSA8     32             23.0000000000
      8776       284  BGLCNA    CT            -15.2996307905       13.0630818101      109.5444263006  LPSA8     32             23.0000000000
      8777       284  BGLCNA    HT1           -15.6027886459       13.5812076652      108.6187470117  LPSA8     32             23.0000000000
      8778       284  BGLCNA    HT2           -16.1578070561       13.0627806666      110.2443241572  LPSA8     32             23.0000000000
      8779       284  BGLCNA    HT3           -15.0388987314       12.0163462936      109.3083414729  LPSA8     32             23.0000000000
      8780       284  BGLCNA    C3            -13.1805891515       16.9446423386      110.9245354047  LPSA8     32             23.0000000000
      8781       284  BGLCNA    H3            -13.9300245662       17.6380804022      110.4752098958  LPSA8     32             23.0000000000
      8782       284  BGLCNA    O3            -13.7781065643       16.3705633726      112.1022887004  LPSA8     32             23.0000000000
      8783       284  BGLCNA    C4            -11.9273356805       17.7453432805      111.2007161740  LPSA8     32             23.0000000000
      8784       284  BGLCNA    H4            -11.1203127736       17.0354884183      111.5079925996  LPSA8     32             23.0000000000
      8785       284  BGLCNA    O4            -12.1204202954       18.7000758779      112.2282971766  LPSA8     32             23.0000000000
      8786       284  BGLCNA    HO4           -11.9328253756       18.2929392154      113.0778570676  LPSA8     32             23.0000000000
      8787       284  BGLCNA    C6            -10.3163319155       19.3830634739      110.0562195553  LPSA8     32             23.0000000000
      8788       284  BGLCNA    H61           -10.5336524513       20.2370845517      110.7322741096  LPSA8     32             23.0000000000
      8789       284  BGLCNA    H62            -9.4645567723       18.8215108043      110.5012669995  LPSA8     32             23.0000000000
      8790       284  BGLCNA    O6             -9.9357798634       19.9454755257      108.7981688916  LPSA8     32             23.0000000000
      8791       284  BGLCNA    HO6           -10.7238663032       20.0495897400      108.2503435695  LPSA8     32             23.0000000000
      8792       285  AGAL      C1            -14.7996455725       17.1706899789      112.6759074957  LPSA8     33             24.0000000000
      8793       285  AGAL      H1            -14.5217571479       18.2447872922      112.6051147445  LPSA8     33             24.0000000000
      8794       285  AGAL      C5            -16.5810399175       15.6365819530      112.2004566737  LPSA8     33             24.0000000000
      8795       285  AGAL      H5            -15.7473608991       14.9980577008      111.8367109591  LPSA8     33             24.0000000000
      8796       285  AGAL      O5            -16.0855059585       16.9784382381      112.0441857021  LPSA8     33             24.0000000000
      8797       285  AGAL      C2            -14.9469120874       16.8059624832      114.1441434014  LPSA8     33             24.0000000000
      8798       285  AGAL      H2            -15.7980564258       17.4103172724      114.5325396415  LPSA8     33             24.0000000000
      8799       285  AGAL      O2            -13.7760220136       17.2484033825      114.8664236304  LPSA8     33             24.0000000000
      8800       285  AGAL      C3            -15.4008077882       15.3472011841      114.2976182781  LPSA8     33             24.0000000000
      8801       285  AGAL      H3            -14.7093942429       14.6826350444      113.7199300098  LPSA8     33             24.0000000000
      8802       285  AGAL      O3            -15.3002870507       14.8364170426      115.6224070335  LPSA8     33             24.0000000000
      8803       285  AGAL      HO3           -15.8184294824       15.3678295234      116.2386694070  LPSA8     33             24.0000000000
      8804       285  AGAL      C4            -16.7880017134       15.2140672492      113.6497091798  LPSA8     33             24.0000000000
      8805       285  AGAL      H4            -17.0953721902       14.1424891164      113.6691950908  LPSA8     33             24.0000000000
      8806       285  AGAL      O4            -17.8586522231       15.9507690929      114.2559675810  LPSA8     33             24.0000000000
      8807       285  AGAL      HO4           -17.5682573097       16.6160592384      114.8840085825  LPSA8     33             24.0000000000
      8808       285  AGAL      C6            -17.7447461405       15.3478047805      111.2525602582  LPSA8     33             24.0000000000
      8809       285  AGAL      H61           -17.3362091654       15.4747625824      110.2336170472  LPSA8     33             24.0000000000
      8810       285  AGAL      H62           -18.0828786215       14.2948024952      111.3654761417  LPSA8     33             24.0000000000
      8811       285  AGAL      O6            -18.9163630931       16.1599683747      111.3663442358  LPSA8     33             24.0000000000
      8812       285  AGAL      HO6           -18.8396707992       16.9898071730      110.8707426370  LPSA8     33             24.0000000000
      8813       286  ARHM      C1            -14.0686995810       17.9743045921      116.0530392940  LPSA8     34             25.0000000000
      8814       286  ARHM      H1            -14.8045827602       17.3936740418      116.6517309547  LPSA8     34             25.0000000000
      8815       286  ARHM      C5            -13.8252525624       20.1899831369      115.0695402961  LPSA8     34             25.0000000000
      8816       286  ARHM      H5            -13.6718414038       19.7403844907      114.0650863717  LPSA8     34             25.0000000000
      8817       286  ARHM      O5            -14.6513108151       19.2894273867      115.8398383315  LPSA8     34             25.0000000000
      8818       286  ARHM      C2            -12.7569931612       18.0967577456      116.8116345722  LPSA8     34             25.0000000000
      8819       286  ARHM      H2            -12.2711836334       17.0886849441      116.8539363202  LPSA8     34             25.0000000000
      8820       286  ARHM      O2            -12.9033126765       18.5725580974      118.1762617220  LPSA8     34             25.0000000000
      8821       286  ARHM      C3            -11.8296016728       19.0071855642      116.0115920508  LPSA8     34             25.0000000000
      8822       286  ARHM      H3            -11.6762683116       18.5694624611      114.9942068651  LPSA8     34             25.0000000000
      8823       286  ARHM      O3            -10.5430441577       19.1382553519      116.6330349419  LPSA8     34             25.0000000000
      8824       286  ARHM      HO3            -9.8536229299       19.2392163526      115.9639781583  LPSA8     34             25.0000000000
      8825       286  ARHM      C4            -12.4949871654       20.3516756410      115.8036860027  LPSA8     34             25.0000000000
      8826       286  ARHM      H4            -12.7413492390       20.8119526665      116.7874732118  LPSA8     34             25.0000000000
      8827       286  ARHM      O4            -11.6194567765       21.2391030105      115.1115374063  LPSA8     34             25.0000000000
      8828       286  ARHM      HO4           -10.9250525412       21.5641398823      115.6931189045  LPSA8     34             25.0000000000
      8829       286  ARHM      C6            -14.5032205488       21.5780019991      114.8389533831  LPSA8     34             25.0000000000
      8830       286  ARHM      H61           -14.7588787862       22.0972793865      115.7786642561  LPSA8     34             25.0000000000
      8831       286  ARHM      H62           -13.7764999521       22.2458768039      114.3319943853  LPSA8     34             25.0000000000
      8832       286  ARHM      H63           -15.4031285779       21.5187686109      114.1894561098  LPSA8     34             25.0000000000
      8833       287  ARHM      C1            -13.7560432338       17.8610901943      119.0626105892  LPSA8     35             26.0000000000
      8834       287  ARHM      H1            -13.6634017802       16.7661279829      118.8733638401  LPSA8     35             26.0000000000
      8835       287  ARHM      C5            -15.3207104256       19.6900696029      119.2065441952  LPSA8     35             26.0000000000
      8836       287  ARHM      H5            -14.7152525427       20.2907589394      118.5010500350  LPSA8     35             26.0000000000
      8837       287  ARHM      O5            -15.1313542743       18.2817932018      118.9548424124  LPSA8     35             26.0000000000
      8838       287  ARHM      C2            -13.3323106897       18.1217584157      120.5015189832  LPSA8     35             26.0000000000
      8839       287  ARHM      H2            -12.2689746148       17.8189438583      120.6585075224  LPSA8     35             26.0000000000
      8840       287  ARHM      O2            -14.1558331850       17.3891740041      121.4252787208  LPSA8     35             26.0000000000
      8841       287  ARHM      C3            -13.4379256423       19.5884663808      120.8158338013  LPSA8     35             26.0000000000
      8842       287  ARHM      H3            -12.8122096049       20.1662369025      120.1041702402  LPSA8     35             26.0000000000
      8843       287  ARHM      O3            -12.8768478836       19.8745939082      122.0927951898  LPSA8     35             26.0000000000
      8844       287  ARHM      HO3           -13.1526791276       19.2169828972      122.7414869349  LPSA8     35             26.0000000000
      8845       287  ARHM      C4            -14.8836441015       20.0234591563      120.6401881347  LPSA8     35             26.0000000000
      8846       287  ARHM      H4            -15.5301658343       19.4502979471      121.3380697685  LPSA8     35             26.0000000000
      8847       287  ARHM      O4            -15.0306722948       21.4239244400      120.9008323780  LPSA8     35             26.0000000000
      8848       287  ARHM      HO4           -14.2817393231       21.9199049677      120.5866023845  LPSA8     35             26.0000000000
      8849       287  ARHM      C6            -16.7898259589       20.0485142456      118.8622030810  LPSA8     35             26.0000000000
      8850       287  ARHM      H61           -16.9965668755       19.9231525298      117.7780847323  LPSA8     35             26.0000000000
      8851       287  ARHM      H62           -17.4737662642       19.3818953846      119.4281099693  LPSA8     35             26.0000000000
      8852       287  ARHM      H63           -16.9849868137       21.1152497882      119.1041827166  LPSA8     35             26.0000000000
      8853       288  BMANNA    C1            -13.9107714882       16.0116776944      121.4655322785  LPSA8     36             27.0000000000
      8854       288  BMANNA    H1            -12.8741047209       15.7955573232      121.1294756265  LPSA8     36             27.0000000000
      8855       288  BMANNA    C5            -14.4510210976       13.8584793449      120.7180960829  LPSA8     36             27.0000000000
      8856       288  BMANNA    H5            -13.3780485525       13.7204309489      120.4257524756  LPSA8     36             27.0000000000
      8857       288  BMANNA    O5            -14.7848737126       15.2475893651      120.6499599288  LPSA8     36             27.0000000000
      8858       288  BMANNA    C2            -14.1157250399       15.5519134146      122.8936645161  LPSA8     36             27.0000000000
      8859       288  BMANNA    H2            -13.4078459921       16.1222114685      123.4694981116  LPSA8     36             27.0000000000
      8860       288  BMANNA    N             -15.4086134440       15.8543101264      123.4925028087  LPSA8     36             27.0000000000
      8861       288  BMANNA    HN            -16.1891213101       15.8153255571      122.8719247110  LPSA8     36             27.0000000000
      8862       288  BMANNA    C             -15.5637145055       16.1175885415      124.8181732642  LPSA8     36             27.0000000000
      8863       288  BMANNA    O             -14.6176950850       16.2975049645      125.5865158720  LPSA8     36             27.0000000000
      8864       288  BMANNA    CT            -16.9744505494       16.1870332297      125.3420873292  LPSA8     36             27.0000000000
      8865       288  BMANNA    HT1           -17.5797425732       15.3872589982      124.8713305596  LPSA8     36             27.0000000000
      8866       288  BMANNA    HT2           -17.4304238401       17.1711972306      125.1286689902  LPSA8     36             27.0000000000
      8867       288  BMANNA    HT3           -16.9699301138       16.0357429887      126.4418098648  LPSA8     36             27.0000000000
      8868       288  BMANNA    C3            -13.7133210606       14.1037555613      123.0128991367  LPSA8     36             27.0000000000
      8869       288  BMANNA    H3            -12.6600375251       13.9778894994      122.6508322396  LPSA8     36             27.0000000000
      8870       288  BMANNA    O3            -13.7630842611       13.6246455560      124.3544189823  LPSA8     36             27.0000000000
      8871       288  BMANNA    HO3           -12.8960068374       13.4053796950      124.7152648976  LPSA8     36             27.0000000000
      8872       288  BMANNA    C4            -14.6168487795       13.3161992916      122.1313810321  LPSA8     36             27.0000000000
      8873       288  BMANNA    H4            -15.6741525549       13.4190010908      122.4517172203  LPSA8     36             27.0000000000
      8874       288  BMANNA    O4            -14.3234589530       11.9446999095      122.2622870264  LPSA8     36             27.0000000000
      8875       288  BMANNA    HO4           -14.3403144732       11.7735381882      123.2173502753  LPSA8     36             27.0000000000
      8876       288  BMANNA    C6            -15.2841378527       13.1676816536      119.6954835222  LPSA8     36             27.0000000000
      8877       288  BMANNA    H61           -15.1446755002       13.5414094785      118.6647980335  LPSA8     36             27.0000000000
      8878       288  BMANNA    H62           -14.8002918211       12.2291395951      119.5454993228  LPSA8     36             27.0000000000
      8879       288  BMANNA    O6            -16.6605053997       12.9938598930      120.0851032780  LPSA8     36             27.0000000000
      8880       288  BMANNA    HO6           -16.7576682559       12.1899178651      120.6151877533  LPSA8     36             27.0000000000
      8881       289  ECLIPA    HB6S          -18.5713629353      -11.9656339608       20.4269582198  LPSA9     1               0.0000000000
      8882       289  ECLIPA    OB6           -17.5198385738      -13.1799527692       21.7135975427  LPSA9     1               0.0000000000
      8883       289  ECLIPA    CB6           -17.5137964740      -12.1551235588       20.7005140926  LPSA9     1               0.0000000000
      8884       289  ECLIPA    HB6R          -17.0891650578      -11.2063515842       21.1014095063  LPSA9     1               0.0000000000
      8885       289  ECLIPA    CB5           -16.7321802157      -12.5014229260       19.4400477091  LPSA9     1               0.0000000000
      8886       289  ECLIPA    OB5           -17.2849047216      -13.7423462211       18.9576460554  LPSA9     1               0.0000000000
      8887       289  ECLIPA    HB5           -15.6659478879      -12.6251392720       19.7428897678  LPSA9     1               0.0000000000
      8888       289  ECLIPA    CB1           -16.6118848909      -14.2222608569       17.7876783138  LPSA9     1               0.0000000000
      8889       289  ECLIPA    HB1           -15.5156053969      -14.3404504715       17.9678760577  LPSA9     1               0.0000000000
      8890       289  ECLIPA    OA6           -17.0953232951      -15.4662608070       17.3358819589  LPSA9     1               0.0000000000
      8891       289  ECLIPA    CA6           -18.4965297573      -15.6994249144       17.5638977020  LPSA9     1               0.0000000000
      8892       289  ECLIPA    HA6R          -19.0617158704      -14.7580414042       17.7523734056  LPSA9     1               0.0000000000
      8893       289  ECLIPA    HA6S          -18.5949751165      -16.3732169574       18.4461363779  LPSA9     1               0.0000000000
      8894       289  ECLIPA    CB4           -16.8201352090      -11.4320190943       18.3385320566  LPSA9     1               0.0000000000
      8895       289  ECLIPA    HB4           -17.8814170324      -11.2173740300       18.0487677232  LPSA9     1               0.0000000000
      8896       289  ECLIPA    OB4           -16.1247123507      -10.2713385171       18.8248124495  LPSA9     1               0.0000000000
      8897       289  ECLIPA    PB            -16.9763637398       -8.9282851837       19.2946612707  LPSA9     1               0.0000000000
      8898       289  ECLIPA    OPB4          -16.2684725085       -8.3078542390       20.4877235820  LPSA9     1               0.0000000000
      8899       289  ECLIPA    OPB3          -18.3520137045       -9.4718155983       19.6650468886  LPSA9     1               0.0000000000
      8900       289  ECLIPA    OPB2          -16.9559768058       -8.0236776874       18.0744099312  LPSA9     1               0.0000000000
      8901       289  ECLIPA    CB3           -16.1102334822      -11.9627148539       17.1203562565  LPSA9     1               0.0000000000
      8902       289  ECLIPA    OB3           -16.2219492085      -11.1142077146       16.0062624829  LPSA9     1               0.0000000000
      8903       289  ECLIPA    HB3           -15.0450724447      -12.1937837672       17.3536820319  LPSA9     1               0.0000000000
      8904       289  ECLIPA    C71           -15.3871487914      -10.1262320997       15.9103971288  LPSA9     1               0.0000000000
      8905       289  ECLIPA    O71           -14.2080276893      -10.1629217711       16.2681021340  LPSA9     1               0.0000000000
      8906       289  ECLIPA    C72           -15.7779212981       -9.5672359795       14.5482896735  LPSA9     1               0.0000000000
      8907       289  ECLIPA    H72R          -15.8719329670      -10.3980215529       13.8241448855  LPSA9     1               0.0000000000
      8908       289  ECLIPA    H72S          -14.9105367324       -8.9732232270       14.4276972744  LPSA9     1               0.0000000000
      8909       289  ECLIPA    CB2           -16.7648774014      -13.2416693858       16.6700307439  LPSA9     1               0.0000000000
      8910       289  ECLIPA    HB2           -17.8637264666      -13.0403263425       16.5114889292  LPSA9     1               0.0000000000
      8911       289  ECLIPA    NB2           -16.1302245449      -13.7537272102       15.4569721710  LPSA9     1               0.0000000000
      8912       289  ECLIPA    HNB2          -15.3491826264      -14.3593176407       15.5782799203  LPSA9     1               0.0000000000
      8913       289  ECLIPA    CA4           -18.2115664572      -17.4644933642       15.7989748770  LPSA9     1               0.0000000000
      8914       289  ECLIPA    HA4           -17.2501936039      -16.9788575605       15.5231362738  LPSA9     1               0.0000000000
      8915       289  ECLIPA    OA4           -17.9685414859      -18.4225218250       16.8145917056  LPSA9     1               0.0000000000
      8916       289  ECLIPA    HOA4          -17.7389298542      -17.9719962530       17.6254894842  LPSA9     1               0.0000000000
      8917       289  ECLIPA    CA5           -19.0954727906      -16.3747487416       16.3445153696  LPSA9     1               0.0000000000
      8918       289  ECLIPA    HA5           -20.1291507967      -16.7297357360       16.5718465795  LPSA9     1               0.0000000000
      8919       289  ECLIPA    OA5           -19.1679852618      -15.3717469023       15.3446487902  LPSA9     1               0.0000000000
      8920       289  ECLIPA    CA1           -19.7482395124      -15.8255017884       14.1077339774  LPSA9     1               0.0000000000
      8921       289  ECLIPA    HA1           -19.5459452599      -14.9701160951       13.4260218579  LPSA9     1               0.0000000000
      8922       289  ECLIPA    OA1           -21.1387150312      -16.0632223155       14.1246612434  LPSA9     1               0.0000000000
      8923       289  ECLIPA    OPA2          -22.6435374741      -15.4804371952       16.0069807852  LPSA9     1               0.0000000000
      8924       289  ECLIPA    OPA3          -21.3799919705      -13.6135653799       14.8605600106  LPSA9     1               0.0000000000
      8925       289  ECLIPA    OPA4          -23.2523935053      -14.7855662934       13.6151570696  LPSA9     1               0.0000000000
      8926       289  ECLIPA    PA            -22.1671789543      -14.9021477661       14.6801235403  LPSA9     1               0.0000000000
      8927       289  ECLIPA    CA3           -18.7799952619      -18.0702288073       14.5354934384  LPSA9     1               0.0000000000
      8928       289  ECLIPA    HA3           -19.7510516218      -18.5697475203       14.7426371017  LPSA9     1               0.0000000000
      8929       289  ECLIPA    OA3           -17.8337814737      -19.0838870534       14.1578085447  LPSA9     1               0.0000000000
      8930       289  ECLIPA    C31           -16.7821479095      -18.6344132541       13.4875575370  LPSA9     1               0.0000000000
      8931       289  ECLIPA    O31           -16.7256991529      -18.6525626046       12.2716816096  LPSA9     1               0.0000000000
      8932       289  ECLIPA    C32           -15.5635953027      -18.9389021862       14.2948270571  LPSA9     1               0.0000000000
      8933       289  ECLIPA    H32R          -15.1580165180      -19.7429437980       13.6804396239  LPSA9     1               0.0000000000
      8934       289  ECLIPA    H32S          -15.7233802494      -19.3554909329       15.3104576472  LPSA9     1               0.0000000000
      8935       289  ECLIPA    CA2           -18.9137137389      -16.9384822083       13.5156689691  LPSA9     1               0.0000000000
      8936       289  ECLIPA    HA2           -17.9112021091      -16.4762149811       13.3425674905  LPSA9     1               0.0000000000
      8937       289  ECLIPA    NA2           -19.4441606072      -17.4045793641       12.2248926132  LPSA9     1               0.0000000000
      8938       289  ECLIPA    HNA2          -19.4982343076      -18.3921401678       12.1300639456  LPSA9     1               0.0000000000
      8939       289  ECLIPA    C73           -17.0428051125       -8.7414185819       14.3702197548  LPSA9     1               0.0000000000
      8940       289  ECLIPA    H73R          -17.0870654232       -8.0969194229       15.2877875437  LPSA9     1               0.0000000000
      8941       289  ECLIPA    O73           -18.0068464864       -9.7677488920       14.2888952427  LPSA9     1               0.0000000000
      8942       289  ECLIPA    C81           -19.1148840726       -9.6075853488       14.9605649561  LPSA9     1               0.0000000000
      8943       289  ECLIPA    O81           -19.4164147368       -8.5870988690       15.5589034170  LPSA9     1               0.0000000000
      8944       289  ECLIPA    C82           -20.1324791643      -10.5792420437       14.3428570508  LPSA9     1               0.0000000000
      8945       289  ECLIPA    H82R          -21.0957678856      -10.4537035230       14.8697571531  LPSA9     1               0.0000000000
      8946       289  ECLIPA    H82S          -19.7899860788      -11.6153891816       14.5576481210  LPSA9     1               0.0000000000
      8947       289  ECLIPA    C83           -20.3163435574      -10.4266117287       12.8099285960  LPSA9     1               0.0000000000
      8948       289  ECLIPA    H83R          -19.4916730156      -10.9696481445       12.2909855473  LPSA9     1               0.0000000000
      8949       289  ECLIPA    H83S          -20.2487849742       -9.3548967302       12.5377302130  LPSA9     1               0.0000000000
      8950       289  ECLIPA    C84           -21.6254818845      -11.0474727433       12.2919099077  LPSA9     1               0.0000000000
      8951       289  ECLIPA    H84R          -22.5051229683      -10.4468114024       12.6024742522  LPSA9     1               0.0000000000
      8952       289  ECLIPA    H84S          -21.7009411918      -12.0629263397       12.7642779996  LPSA9     1               0.0000000000
      8953       289  ECLIPA    C85           -21.6153481054      -11.2662393571       10.7705003187  LPSA9     1               0.0000000000
      8954       289  ECLIPA    H85R          -20.6008158257      -11.6669901137       10.5445306069  LPSA9     1               0.0000000000
      8955       289  ECLIPA    H85S          -21.7027026311      -10.2988619049       10.2350428502  LPSA9     1               0.0000000000
      8956       289  ECLIPA    C86           -22.6199524399      -12.3359820571       10.2860072444  LPSA9     1               0.0000000000
      8957       289  ECLIPA    H86R          -23.5892602540      -11.8785849792        9.9921471941  LPSA9     1               0.0000000000
      8958       289  ECLIPA    H86S          -22.8448777957      -13.0332406054       11.1300528879  LPSA9     1               0.0000000000
      8959       289  ECLIPA    C87           -22.0494646493      -13.2222572730        9.1592487860  LPSA9     1               0.0000000000
      8960       289  ECLIPA    H87R          -22.8360199360      -13.9190817476        8.7953536799  LPSA9     1               0.0000000000
      8961       289  ECLIPA    H87S          -21.2368208568      -13.8610211239        9.5770782756  LPSA9     1               0.0000000000
      8962       289  ECLIPA    C88           -21.4373981188      -12.4040644051        8.0203002430  LPSA9     1               0.0000000000
      8963       289  ECLIPA    H88R          -20.4533383360      -12.0099137440        8.3498094126  LPSA9     1               0.0000000000
      8964       289  ECLIPA    H88S          -22.0686704076      -11.4989768538        7.8791513881  LPSA9     1               0.0000000000
      8965       289  ECLIPA    C89           -21.2558134137      -13.2012607770        6.7147978555  LPSA9     1               0.0000000000
      8966       289  ECLIPA    H89R          -21.2450812125      -14.2992353349        6.8958676905  LPSA9     1               0.0000000000
      8967       289  ECLIPA    H89S          -20.2716891908      -12.9629149041        6.2579292088  LPSA9     1               0.0000000000
      8968       289  ECLIPA    C810          -22.3312128875      -12.8114798433        5.6957567641  LPSA9     1               0.0000000000
      8969       289  ECLIPA    H810R         -22.6168770986      -11.7642227520        5.9310289916  LPSA9     1               0.0000000000
      8970       289  ECLIPA    H810S         -23.2175177195      -13.4628010532        5.8637809390  LPSA9     1               0.0000000000
      8971       289  ECLIPA    C811          -21.8711529038      -12.9071544815        4.2325378553  LPSA9     1               0.0000000000
      8972       289  ECLIPA    H811R         -22.7401212024      -12.9840091511        3.5376680895  LPSA9     1               0.0000000000
      8973       289  ECLIPA    H811S         -21.2627454593      -13.8359819673        4.1533626642  LPSA9     1               0.0000000000
      8974       289  ECLIPA    C812          -20.9749354547      -11.7619106995        3.7356100279  LPSA9     1               0.0000000000
      8975       289  ECLIPA    H812R         -20.6266581108      -12.0550190535        2.7137246646  LPSA9     1               0.0000000000
      8976       289  ECLIPA    H812S         -20.0981095895      -11.6648696322        4.4083184618  LPSA9     1               0.0000000000
      8977       289  ECLIPA    C813          -21.6316304113      -10.3833009942        3.6375328129  LPSA9     1               0.0000000000
      8978       289  ECLIPA    H813R         -22.4841042226      -10.4601268776        2.9310022912  LPSA9     1               0.0000000000
      8979       289  ECLIPA    H813S         -22.0339389572      -10.0557757233        4.6247347097  LPSA9     1               0.0000000000
      8980       289  ECLIPA    C814          -20.6610258928       -9.3143255976        3.1348433177  LPSA9     1               0.0000000000
      8981       289  ECLIPA    H814R         -20.1109565538       -9.6451612115        2.2248306700  LPSA9     1               0.0000000000
      8982       289  ECLIPA    H814S         -19.9182887101       -9.0783230944        3.9224777989  LPSA9     1               0.0000000000
      8983       289  ECLIPA    H814T         -21.2160373943       -8.3864126691        2.8903884143  LPSA9     1               0.0000000000
      8984       289  ECLIPA    C74           -17.2547113288       -7.8334233371       13.0932268863  LPSA9     1               0.0000000000
      8985       289  ECLIPA    H74R          -16.6500089346       -6.9315406129       12.9191820624  LPSA9     1               0.0000000000
      8986       289  ECLIPA    H74S          -18.2343253016       -7.3618152875       13.3230139109  LPSA9     1               0.0000000000
      8987       289  ECLIPA    C75           -17.4389602370       -8.5696878101       11.7395198769  LPSA9     1               0.0000000000
      8988       289  ECLIPA    H75R          -18.2259977910       -8.0321224582       11.1905442412  LPSA9     1               0.0000000000
      8989       289  ECLIPA    H75S          -17.7197844188       -9.6212855870       11.9629684779  LPSA9     1               0.0000000000
      8990       289  ECLIPA    C76           -16.3090392867       -8.6058133549       10.7235583768  LPSA9     1               0.0000000000
      8991       289  ECLIPA    H76R          -15.6981365947       -9.4179882921       11.1158219411  LPSA9     1               0.0000000000
      8992       289  ECLIPA    H76S          -15.7469865899       -7.6405002298       10.6020410306  LPSA9     1               0.0000000000
      8993       289  ECLIPA    C77           -16.5846414401       -8.9078720825        9.3069657120  LPSA9     1               0.0000000000
      8994       289  ECLIPA    H77R          -17.0914214071       -8.0366602837        8.9023259928  LPSA9     1               0.0000000000
      8995       289  ECLIPA    H77S          -17.0623590654       -9.8934980836        9.2198576074  LPSA9     1               0.0000000000
      8996       289  ECLIPA    C78           -15.3451960401       -8.9741974731        8.5118828601  LPSA9     1               0.0000000000
      8997       289  ECLIPA    H78R          -14.5065163896       -8.2776504783        8.7668741296  LPSA9     1               0.0000000000
      8998       289  ECLIPA    H78S          -15.1630709025      -10.0224414614        8.8019279898  LPSA9     1               0.0000000000
      8999       289  ECLIPA    C79           -15.3689293018       -9.4151055320        7.1055616901  LPSA9     1               0.0000000000
      9000       289  ECLIPA    H79R          -15.3645370602      -10.5473247491        7.0131770803  LPSA9     1               0.0000000000
      9001       289  ECLIPA    H79S          -14.4788987885       -8.9041638866        6.6654630224  LPSA9     1               0.0000000000
      9002       289  ECLIPA    C710          -16.2937958317       -8.8120872532        6.2965221573  LPSA9     1               0.0000000000
      9003       289  ECLIPA    H710R         -17.2087726983       -9.1359103354        6.8067687912  LPSA9     1               0.0000000000
      9004       289  ECLIPA    H710S         -15.9940872039       -7.7437380336        6.4190500250  LPSA9     1               0.0000000000
      9005       289  ECLIPA    C711          -16.1012524603       -9.3627287102        4.9305556631  LPSA9     1               0.0000000000
      9006       289  ECLIPA    H711R         -15.2138755951       -8.9116608247        4.4497638528  LPSA9     1               0.0000000000
      9007       289  ECLIPA    H711S         -16.1126151972      -10.4864848556        4.8943612109  LPSA9     1               0.0000000000
      9008       289  ECLIPA    C712          -17.1709075817       -8.6815896910        4.2078411119  LPSA9     1               0.0000000000
      9009       289  ECLIPA    H712R         -16.8923419335       -7.5989937347        4.2451493246  LPSA9     1               0.0000000000
      9010       289  ECLIPA    H712S         -18.0675848522       -8.8709237711        4.8204504454  LPSA9     1               0.0000000000
      9011       289  ECLIPA    C713          -17.2811944097       -9.1929042752        2.8256519533  LPSA9     1               0.0000000000
      9012       289  ECLIPA    H713R         -17.5127565580      -10.2885061848        2.8391926764  LPSA9     1               0.0000000000
      9013       289  ECLIPA    H713S         -18.1172483603       -8.6628907871        2.3164182083  LPSA9     1               0.0000000000
      9014       289  ECLIPA    C714          -16.0397208082       -8.9025245960        2.0220457821  LPSA9     1               0.0000000000
      9015       289  ECLIPA    H714R         -15.7647828980       -7.8443291556        1.8835422808  LPSA9     1               0.0000000000
      9016       289  ECLIPA    H714S         -15.1587100980       -9.5638555218        2.2098838155  LPSA9     1               0.0000000000
      9017       289  ECLIPA    H714T         -16.5031577842       -9.0720848826        1.0745842711  LPSA9     1               0.0000000000
      9018       289  ECLIPA    C51           -16.5465136987      -13.3832207531       14.2356816053  LPSA9     1               0.0000000000
      9019       289  ECLIPA    O51           -17.6159000004      -12.8292719505       14.0722123381  LPSA9     1               0.0000000000
      9020       289  ECLIPA    C52           -15.6308252753      -13.6255749278       13.0585269871  LPSA9     1               0.0000000000
      9021       289  ECLIPA    H52R          -14.9361735740      -12.7645158860       12.9299247812  LPSA9     1               0.0000000000
      9022       289  ECLIPA    H52S          -15.0293898553      -14.5270687597       13.2481587748  LPSA9     1               0.0000000000
      9023       289  ECLIPA    C53           -16.4613540769      -13.8116545125       11.7723157224  LPSA9     1               0.0000000000
      9024       289  ECLIPA    H53R          -17.4244373377      -14.3369525702       11.9918103110  LPSA9     1               0.0000000000
      9025       289  ECLIPA    O53           -15.6220454861      -14.5277078331       10.8607504477  LPSA9     1               0.0000000000
      9026       289  ECLIPA    C61           -15.9726741128      -15.7535168857       10.5247525974  LPSA9     1               0.0000000000
      9027       289  ECLIPA    O61           -16.9661509103      -16.3494530004       10.8721475613  LPSA9     1               0.0000000000
      9028       289  ECLIPA    C62           -14.9156460035      -16.3274054221        9.5952183939  LPSA9     1               0.0000000000
      9029       289  ECLIPA    H62R          -14.1016612484      -16.7808181933       10.2026275277  LPSA9     1               0.0000000000
      9030       289  ECLIPA    H62S          -14.4790042091      -15.4935337239        9.0249043330  LPSA9     1               0.0000000000
      9031       289  ECLIPA    C63           -15.5594274875      -17.3359245706        8.6278849476  LPSA9     1               0.0000000000
      9032       289  ECLIPA    H63R          -16.5431412955      -17.0434070390        8.2435568566  LPSA9     1               0.0000000000
      9033       289  ECLIPA    H63S          -15.8137144338      -18.2228057585        9.2507739794  LPSA9     1               0.0000000000
      9034       289  ECLIPA    C64           -14.7061848645      -17.6215518582        7.3649340008  LPSA9     1               0.0000000000
      9035       289  ECLIPA    H64R          -15.1794997843      -18.4590349025        6.7798638343  LPSA9     1               0.0000000000
      9036       289  ECLIPA    H64S          -13.6621996233      -17.8769178755        7.7293941849  LPSA9     1               0.0000000000
      9037       289  ECLIPA    C65           -14.4478293307      -16.5359210514        6.4560588342  LPSA9     1               0.0000000000
      9038       289  ECLIPA    H65R          -13.9082054654      -15.8803908084        7.1529875616  LPSA9     1               0.0000000000
      9039       289  ECLIPA    H65S          -15.4613023382      -16.2320422853        6.1421067304  LPSA9     1               0.0000000000
      9040       289  ECLIPA    C66           -13.4992312859      -16.8334964685        5.3218376800  LPSA9     1               0.0000000000
      9041       289  ECLIPA    H66R          -12.5552583766      -17.3665260777        5.6028293238  LPSA9     1               0.0000000000
      9042       289  ECLIPA    H66S          -13.3664776543      -15.8781643039        4.8083845358  LPSA9     1               0.0000000000
      9043       289  ECLIPA    C67           -14.0665430332      -17.5735779266        4.1931183457  LPSA9     1               0.0000000000
      9044       289  ECLIPA    H67R          -14.3944448687      -18.4151867508        4.7353987799  LPSA9     1               0.0000000000
      9045       289  ECLIPA    H67S          -13.2614822770      -17.8696065102        3.4778239764  LPSA9     1               0.0000000000
      9046       289  ECLIPA    C68           -15.4346222187      -17.1995850857        3.6912278355  LPSA9     1               0.0000000000
      9047       289  ECLIPA    H68R          -15.4067601249      -16.2258529980        3.1642483873  LPSA9     1               0.0000000000
      9048       289  ECLIPA    H68S          -16.2306968853      -17.3486207330        4.4476644800  LPSA9     1               0.0000000000
      9049       289  ECLIPA    C69           -15.8876244401      -18.1296513859        2.6530854246  LPSA9     1               0.0000000000
      9050       289  ECLIPA    H69R          -15.5920797626      -18.8980515707        1.9928915133  LPSA9     1               0.0000000000
      9051       289  ECLIPA    H69S          -15.0384442732      -17.7340855556        2.0280707380  LPSA9     1               0.0000000000
      9052       289  ECLIPA    C610          -17.3013838726      -18.4714998790        2.3323449413  LPSA9     1               0.0000000000
      9053       289  ECLIPA    H610R         -17.7309319554      -17.4818250591        2.5395650245  LPSA9     1               0.0000000000
      9054       289  ECLIPA    H610S         -17.8591396454      -19.1112075546        3.0762146041  LPSA9     1               0.0000000000
      9055       289  ECLIPA    C611          -17.3933246379      -19.1869912290        0.8633600214  LPSA9     1               0.0000000000
      9056       289  ECLIPA    H611R         -17.1179361908      -20.2017899055        1.0254559982  LPSA9     1               0.0000000000
      9057       289  ECLIPA    H611S         -18.5143285033      -19.1316512952        0.9941251245  LPSA9     1               0.0000000000
      9058       289  ECLIPA    C612          -16.6563192744      -18.9932436474       -0.7206704322  LPSA9     1               0.0000000000
      9059       289  ECLIPA    H612R         -17.5162874845      -18.2395322549       -1.1745413809  LPSA9     1               0.0000000000
      9060       289  ECLIPA    H612S         -15.6111780440      -18.4748692725       -0.8111613068  LPSA9     1               0.0000000000
      9061       289  ECLIPA    H612T         -17.1710180306      -18.6267382414       -1.6056952123  LPSA9     1               0.0000000000
      9062       289  ECLIPA    C54           -16.7694189610      -12.4169057214       11.1793698611  LPSA9     1               0.0000000000
      9063       289  ECLIPA    H54R          -15.7867735729      -12.0006742100       10.8932396388  LPSA9     1               0.0000000000
      9064       289  ECLIPA    H54S          -17.1871805013      -11.7783900965       11.9822704792  LPSA9     1               0.0000000000
      9065       289  ECLIPA    C55           -17.7139296146      -12.3588929919        9.9646615044  LPSA9     1               0.0000000000
      9066       289  ECLIPA    H55R          -18.0842544402      -11.3232397446        9.8327254403  LPSA9     1               0.0000000000
      9067       289  ECLIPA    H55S          -18.6189660715      -12.9590570051       10.1975366748  LPSA9     1               0.0000000000
      9068       289  ECLIPA    C56           -16.9732212085      -12.7866868345        8.6901138811  LPSA9     1               0.0000000000
      9069       289  ECLIPA    H56R          -16.5563398724      -13.7967906228        8.8584592547  LPSA9     1               0.0000000000
      9070       289  ECLIPA    H56S          -16.1119596343      -12.1045473661        8.5058204387  LPSA9     1               0.0000000000
      9071       289  ECLIPA    C57           -17.7848959022      -12.9118145555        7.4029134346  LPSA9     1               0.0000000000
      9072       289  ECLIPA    H57R          -18.3426238039      -11.9770272726        7.1802185204  LPSA9     1               0.0000000000
      9073       289  ECLIPA    H57S          -18.5430218043      -13.7171927761        7.5425072636  LPSA9     1               0.0000000000
      9074       289  ECLIPA    C58           -16.8495401715      -13.3072308328        6.2404007357  LPSA9     1               0.0000000000
      9075       289  ECLIPA    H58R          -15.9390066484      -12.6737128005        6.2151397128  LPSA9     1               0.0000000000
      9076       289  ECLIPA    H58S          -16.4852557032      -14.3364833289        6.4600443743  LPSA9     1               0.0000000000
      9077       289  ECLIPA    C59           -17.5482747682      -13.2184342350        4.8719307371  LPSA9     1               0.0000000000
      9078       289  ECLIPA    H59R          -17.9486996979      -12.1902859689        4.7165690233  LPSA9     1               0.0000000000
      9079       289  ECLIPA    H59S          -18.4178468746      -13.9065004498        4.9579271015  LPSA9     1               0.0000000000
      9080       289  ECLIPA    C510          -16.6376633223      -13.4894267538        3.6496651336  LPSA9     1               0.0000000000
      9081       289  ECLIPA    H510R         -16.0071118195      -14.3842344263        3.8264809660  LPSA9     1               0.0000000000
      9082       289  ECLIPA    H510S         -15.9489172892      -12.6217176153        3.5184938830  LPSA9     1               0.0000000000
      9083       289  ECLIPA    C511          -17.3796621580      -13.6685534521        2.3132559685  LPSA9     1               0.0000000000
      9084       289  ECLIPA    H511R         -17.7675853589      -14.7106633969        2.2706906627  LPSA9     1               0.0000000000
      9085       289  ECLIPA    H511S         -18.2399054941      -12.9775144679        2.2245076707  LPSA9     1               0.0000000000
      9086       289  ECLIPA    C512          -16.4995351779      -13.3949349849        1.1112906419  LPSA9     1               0.0000000000
      9087       289  ECLIPA    H512R         -17.1063326276      -13.3811712447        0.1525022886  LPSA9     1               0.0000000000
      9088       289  ECLIPA    H512S         -15.8584915170      -12.5116073959        1.1430365807  LPSA9     1               0.0000000000
      9089       289  ECLIPA    C513          -15.4049441195      -14.3720441075        0.9995348998  LPSA9     1               0.0000000000
      9090       289  ECLIPA    H513R         -16.0072786227      -14.9780345326        0.6344063799  LPSA9     1               0.0000000000
      9091       289  ECLIPA    H513S         -14.8272459894      -14.9792763022        1.6800196906  LPSA9     1               0.0000000000
      9092       289  ECLIPA    C514          -14.9523269739      -14.4729107774       -0.2988707571  LPSA9     1               0.0000000000
      9093       289  ECLIPA    H514R         -14.3500727312      -13.6258835351       -0.3502139367  LPSA9     1               0.0000000000
      9094       289  ECLIPA    H514S         -14.4601142058      -15.4968212214       -0.4294890962  LPSA9     1               0.0000000000
      9095       289  ECLIPA    H514T         -15.7628919267      -14.3777321684       -1.0677590778  LPSA9     1               0.0000000000
      9096       289  ECLIPA    C33           -14.4676048926      -17.9199182199       14.4379768450  LPSA9     1               0.0000000000
      9097       289  ECLIPA    H33R          -13.6338271354      -18.3332601614       14.9296186512  LPSA9     1               0.0000000000
      9098       289  ECLIPA    O33           -14.9102053514      -17.0163078029       15.4053653361  LPSA9     1               0.0000000000
      9099       289  ECLIPA    HO33          -14.6739345937      -17.4547463638       16.2442278403  LPSA9     1               0.0000000000
      9100       289  ECLIPA    C34           -13.9942126572      -17.2083525705       13.1737819760  LPSA9     1               0.0000000000
      9101       289  ECLIPA    H34R          -14.8669262643      -16.7085885201       12.7440762451  LPSA9     1               0.0000000000
      9102       289  ECLIPA    H34S          -13.6238237179      -17.9859896788       12.4507640438  LPSA9     1               0.0000000000
      9103       289  ECLIPA    C35           -12.8153461350      -16.2448641187       13.4332477607  LPSA9     1               0.0000000000
      9104       289  ECLIPA    H35R          -11.8868716521      -16.7490006999       13.7554291673  LPSA9     1               0.0000000000
      9105       289  ECLIPA    H35S          -13.0982486356      -15.5801915682       14.2720901255  LPSA9     1               0.0000000000
      9106       289  ECLIPA    C36           -12.4490372588      -15.4451690316       12.2067405305  LPSA9     1               0.0000000000
      9107       289  ECLIPA    H36R          -13.4109207675      -15.3475251918       11.6650666514  LPSA9     1               0.0000000000
      9108       289  ECLIPA    H36S          -11.7195519926      -15.9647842893       11.5374690104  LPSA9     1               0.0000000000
      9109       289  ECLIPA    C37           -11.9571854722      -14.0518988001       12.5505662046  LPSA9     1               0.0000000000
      9110       289  ECLIPA    H37R          -10.8560531256      -14.0485364842       12.6976558433  LPSA9     1               0.0000000000
      9111       289  ECLIPA    H37S          -12.4300472261      -13.6806438403       13.4882578755  LPSA9     1               0.0000000000
      9112       289  ECLIPA    C38           -12.2774362278      -13.1294123039       11.4055201638  LPSA9     1               0.0000000000
      9113       289  ECLIPA    H38R          -13.3830258359      -12.9583527564       11.3566375138  LPSA9     1               0.0000000000
      9114       289  ECLIPA    H38S          -11.6724998333      -12.2122303145       11.6367780375  LPSA9     1               0.0000000000
      9115       289  ECLIPA    C39           -11.9237223923      -13.7312458315       10.0763178969  LPSA9     1               0.0000000000
      9116       289  ECLIPA    H39R          -12.4769067762      -14.6546914961        9.8794831236  LPSA9     1               0.0000000000
      9117       289  ECLIPA    H39S          -10.8291052929      -13.7539846084       10.0976496731  LPSA9     1               0.0000000000
      9118       289  ECLIPA    C310          -12.2662114769      -13.0602275110        8.8219910043  LPSA9     1               0.0000000000
      9119       289  ECLIPA    H310R         -11.5493044063      -12.2181198573        8.8658488864  LPSA9     1               0.0000000000
      9120       289  ECLIPA    H310S         -13.3700758471      -12.8138066881        8.7749374963  LPSA9     1               0.0000000000
      9121       289  ECLIPA    C311          -12.1845849160      -13.7936306993        7.5226839520  LPSA9     1               0.0000000000
      9122       289  ECLIPA    H311R         -11.3034990657      -14.4043353322        7.5483110183  LPSA9     1               0.0000000000
      9123       289  ECLIPA    H311S         -13.2470734120      -14.1385642073        7.3455463196  LPSA9     1               0.0000000000
      9124       289  ECLIPA    C312          -12.0089577928      -12.9994363754        6.2849352940  LPSA9     1               0.0000000000
      9125       289  ECLIPA    H312R         -12.5737610004      -12.3779964172        6.9467638506  LPSA9     1               0.0000000000
      9126       289  ECLIPA    H312S         -11.1582956597      -12.3917961672        5.9353108049  LPSA9     1               0.0000000000
      9127       289  ECLIPA    C313          -12.6879758636      -13.5262387735        5.0741584144  LPSA9     1               0.0000000000
      9128       289  ECLIPA    H313R         -11.8826791310      -14.2077456488        4.7624772595  LPSA9     1               0.0000000000
      9129       289  ECLIPA    H313S         -13.7604711214      -13.7714845429        5.2549166188  LPSA9     1               0.0000000000
      9130       289  ECLIPA    C314          -12.7680758021      -12.7733634313        3.8384136793  LPSA9     1               0.0000000000
      9131       289  ECLIPA    H314R         -11.7530576267      -12.4799258444        3.4601397700  LPSA9     1               0.0000000000
      9132       289  ECLIPA    H314S         -13.2247231652      -13.0299891424        2.9044472106  LPSA9     1               0.0000000000
      9133       289  ECLIPA    H314T         -13.5486380198      -12.0352393009        4.1565198538  LPSA9     1               0.0000000000
      9134       289  ECLIPA    C11           -20.0183223255      -16.6495627465       11.2609332316  LPSA9     1               0.0000000000
      9135       289  ECLIPA    O11           -19.8721198584      -15.4451976879       11.1127056475  LPSA9     1               0.0000000000
      9136       289  ECLIPA    C12           -20.8965114067      -17.4104452334       10.3224784473  LPSA9     1               0.0000000000
      9137       289  ECLIPA    H12R          -21.9527621709      -17.1802371924       10.5570398974  LPSA9     1               0.0000000000
      9138       289  ECLIPA    H12S          -20.7060417838      -18.4922633031       10.4946640706  LPSA9     1               0.0000000000
      9139       289  ECLIPA    C13           -20.5923995096      -17.0625322427        8.8706919132  LPSA9     1               0.0000000000
      9140       289  ECLIPA    H13R          -20.3971977796      -15.9965830869        8.6746437426  LPSA9     1               0.0000000000
      9141       289  ECLIPA    O13           -21.7919570273      -17.2894228933        8.1485029215  LPSA9     1               0.0000000000
      9142       289  ECLIPA    HO13          -21.8277184283      -17.0761254206        7.2168127130  LPSA9     1               0.0000000000
      9143       289  ECLIPA    C14           -19.3877036127      -17.9416853715        8.4312965626  LPSA9     1               0.0000000000
      9144       289  ECLIPA    H14R          -19.3609310268      -18.9239598328        8.9592788982  LPSA9     1               0.0000000000
      9145       289  ECLIPA    H14S          -18.5045884832      -17.3542967364        8.7696894986  LPSA9     1               0.0000000000
      9146       289  ECLIPA    C15           -19.1987284500      -18.1930798657        6.9429634016  LPSA9     1               0.0000000000
      9147       289  ECLIPA    H15R          -20.1018208340      -18.7212695044        6.5676990475  LPSA9     1               0.0000000000
      9148       289  ECLIPA    H15S          -18.3332502328      -18.8878467064        6.8270139350  LPSA9     1               0.0000000000
      9149       289  ECLIPA    C16           -18.9469263323      -16.8870117249        6.1814843905  LPSA9     1               0.0000000000
      9150       289  ECLIPA    H16R          -17.8856162188      -16.5804200823        6.2781358652  LPSA9     1               0.0000000000
      9151       289  ECLIPA    H16S          -19.5394687026      -16.0727562308        6.6471018362  LPSA9     1               0.0000000000
      9152       289  ECLIPA    C17           -19.3002002497      -17.0436715324        4.7093989189  LPSA9     1               0.0000000000
      9153       289  ECLIPA    H17R          -18.8885207755      -18.0274938238        4.4059573554  LPSA9     1               0.0000000000
      9154       289  ECLIPA    H17S          -18.8462182248      -16.2609804157        4.0652162321  LPSA9     1               0.0000000000
      9155       289  ECLIPA    C18           -20.8035108287      -17.0487201469        4.4850738558  LPSA9     1               0.0000000000
      9156       289  ECLIPA    H18R          -21.2252063310      -17.8678421609        5.0983699274  LPSA9     1               0.0000000000
      9157       289  ECLIPA    H18S          -21.2513387485      -16.0812525202        4.8007903603  LPSA9     1               0.0000000000
      9158       289  ECLIPA    C19           -21.1602680543      -17.2907533156        3.0411927063  LPSA9     1               0.0000000000
      9159       289  ECLIPA    H19R          -22.2595570913      -17.4031634382        2.9455888840  LPSA9     1               0.0000000000
      9160       289  ECLIPA    H19S          -20.6266462773      -18.1874451862        2.6419826148  LPSA9     1               0.0000000000
      9161       289  ECLIPA    C110          -20.7856724299      -16.1596327803        2.1556663726  LPSA9     1               0.0000000000
      9162       289  ECLIPA    H110R         -21.2042879954      -15.1783946618        2.4774785457  LPSA9     1               0.0000000000
      9163       289  ECLIPA    H110S         -19.6771446403      -16.0974717134        2.1230578753  LPSA9     1               0.0000000000
      9164       289  ECLIPA    C111          -21.3131584035      -16.4587650852        0.7940488797  LPSA9     1               0.0000000000
      9165       289  ECLIPA    H111R         -21.0302389919      -17.4711640186        0.4174114418  LPSA9     1               0.0000000000
      9166       289  ECLIPA    H111S         -22.4238258196      -16.3987917969        0.7875324375  LPSA9     1               0.0000000000
      9167       289  ECLIPA    C112          -20.7579300682      -15.3660289688       -0.0288115593  LPSA9     1               0.0000000000
      9168       289  ECLIPA    H112R         -21.1925620893      -14.3878384566        0.2342075929  LPSA9     1               0.0000000000
      9169       289  ECLIPA    H112S         -19.6468636453      -15.2393279438       -0.0418517666  LPSA9     1               0.0000000000
      9170       289  ECLIPA    C113          -20.9255056793      -15.7146211936       -1.3877838417  LPSA9     1               0.0000000000
      9171       289  ECLIPA    H113R         -20.3222410938      -16.6440468359       -1.4826353186  LPSA9     1               0.0000000000
      9172       289  ECLIPA    H113S         -21.8712807983      -16.1723890492       -1.7915147850  LPSA9     1               0.0000000000
      9173       289  ECLIPA    C114          -20.3896666089      -14.4739810212       -2.1083372094  LPSA9     1               0.0000000000
      9174       289  ECLIPA    H114R         -20.9428829238      -13.5261111943       -2.0142491020  LPSA9     1               0.0000000000
      9175       289  ECLIPA    H114S         -19.5020949199      -14.3553915486       -2.7255461998  LPSA9     1               0.0000000000
      9176       289  ECLIPA    H114T         -20.8188636146      -14.8118706997       -3.0036592865  LPSA9     1               0.0000000000
      9177       290  AKDO      C1            -15.2954250880      -12.7917733870       22.4074128650  LPSA9     2               0.0000000000
      9178       290  AKDO      O11           -14.7460788671      -11.6647811401       22.3586938453  LPSA9     2               0.0000000000
      9179       290  AKDO      O12           -14.8020395886      -13.9035363867       22.0754844911  LPSA9     2               0.0000000000
      9180       290  AKDO      C2            -16.7725377968      -12.8342621145       22.8731975590  LPSA9     2               0.0000000000
      9181       290  AKDO      C6            -18.5341371788      -11.5295059299       23.8595664472  LPSA9     2               0.0000000000
      9182       290  AKDO      H6            -19.1222094562      -11.8107703960       22.9482076540  LPSA9     2               0.0000000000
      9183       290  AKDO      O6            -17.1588913356      -11.5637698981       23.4580932497  LPSA9     2               0.0000000000
      9184       290  AKDO      C3            -17.0384162664      -13.9147439433       23.9253968721  LPSA9     2               0.0000000000
      9185       290  AKDO      H31           -16.3431076866      -13.7851106749       24.7854980654  LPSA9     2               0.0000000000
      9186       290  AKDO      H32           -16.8293011263      -14.8995341590       23.4529141443  LPSA9     2               0.0000000000
      9187       290  AKDO      C4            -18.4638379199      -13.9045144185       24.3752550309  LPSA9     2               0.0000000000
      9188       290  AKDO      H4            -19.1281166305      -14.0240280956       23.4855034425  LPSA9     2               0.0000000000
      9189       290  AKDO      O4            -18.7129820481      -14.8994879652       25.3777978991  LPSA9     2               0.0000000000
      9190       290  AKDO      C5            -18.8269634358      -12.5639451244       24.9641192323  LPSA9     2               0.0000000000
      9191       290  AKDO      H5            -19.9387244323      -12.5587510365       25.0870025503  LPSA9     2               0.0000000000
      9192       290  AKDO      O5            -18.1503450697      -12.4394585787       26.2588217875  LPSA9     2               0.0000000000
      9193       290  AKDO      C7            -18.9620982587      -10.1061444048       24.1678806893  LPSA9     2               0.0000000000
      9194       290  AKDO      H7            -18.4289990761       -9.7600651336       25.0778211907  LPSA9     2               0.0000000000
      9195       290  AKDO      O7            -20.3873926948      -10.0560661859       24.3699651767  LPSA9     2               0.0000000000
      9196       290  AKDO      HO7           -20.7421575986       -9.9372086261       23.4880294123  LPSA9     2               0.0000000000
      9197       290  AKDO      C8            -18.5818181922       -9.1846285481       23.0242814377  LPSA9     2               0.0000000000
      9198       290  AKDO      H81           -17.4796431050       -9.2693116450       22.8559474530  LPSA9     2               0.0000000000
      9199       290  AKDO      H82           -19.0973813769       -9.5142803501       22.0901425634  LPSA9     2               0.0000000000
      9200       290  AKDO      O8            -18.9102654427       -7.8188567909       23.3396836350  LPSA9     2               0.0000000000
      9201       290  AKDO      HO8           -18.2501509507       -7.2655289938       22.8895329137  LPSA9     2               0.0000000000
      9202       291  AKDO      C1            -19.9096968471      -16.3251872604       23.8123668443  LPSA9     3               1.0000000000
      9203       291  AKDO      O11           -19.3944289806      -16.4845736476       22.6709549056  LPSA9     3               1.0000000000
      9204       291  AKDO      O12           -21.1106495583      -16.0727406055       24.1111435682  LPSA9     3               1.0000000000
      9205       291  AKDO      C2            -18.9292118843      -16.2492479192       25.0162654187  LPSA9     3               1.0000000000
      9206       291  AKDO      C6            -16.7213146971      -16.8686018678       25.7829084610  LPSA9     3               1.0000000000
      9207       291  AKDO      H6            -16.4664711619      -15.7942042202       25.9777969633  LPSA9     3               1.0000000000
      9208       291  AKDO      O6            -17.6990829800      -16.9564369704       24.7228683830  LPSA9     3               1.0000000000
      9209       291  AKDO      C3            -19.4931164420      -16.8436290818       26.3320957442  LPSA9     3               1.0000000000
      9210       291  AKDO      H31           -19.7487044959      -17.9133644438       26.1490839767  LPSA9     3               1.0000000000
      9211       291  AKDO      H32           -20.4487170231      -16.3454667483       26.5965995380  LPSA9     3               1.0000000000
      9212       291  AKDO      C4            -18.4742798768      -16.7034033535       27.4309848959  LPSA9     3               1.0000000000
      9213       291  AKDO      H4            -18.1697283637      -15.6307293804       27.4800766218  LPSA9     3               1.0000000000
      9214       291  AKDO      O4            -18.9350961596      -17.0697746523       28.7210221426  LPSA9     3               1.0000000000
      9215       291  AKDO      HO4           -18.8542685932      -16.3275561756       29.3391675612  LPSA9     3               1.0000000000
      9216       291  AKDO      C5            -17.2651436477      -17.4949103431       27.0534930431  LPSA9     3               1.0000000000
      9217       291  AKDO      H5            -16.5270171790      -17.3974495609       27.8824523873  LPSA9     3               1.0000000000
      9218       291  AKDO      O5            -17.5632354163      -18.8832738883       26.8663044135  LPSA9     3               1.0000000000
      9219       291  AKDO      HO5           -18.2291410922      -18.9165908301       26.1711161370  LPSA9     3               1.0000000000
      9220       291  AKDO      C7            -15.4638059552      -17.5566054335       25.3309845614  LPSA9     3               1.0000000000
      9221       291  AKDO      H7            -15.6825977761      -18.6297382965       25.1220076426  LPSA9     3               1.0000000000
      9222       291  AKDO      O7            -14.5053345725      -17.4878089981       26.3796423754  LPSA9     3               1.0000000000
      9223       291  AKDO      HO7           -13.7625661971      -18.0445754130       26.1234505123  LPSA9     3               1.0000000000
      9224       291  AKDO      C8            -14.9328914323      -16.8819161963       24.0915095659  LPSA9     3               1.0000000000
      9225       291  AKDO      H81           -15.7219861910      -16.8303492226       23.3173908930  LPSA9     3               1.0000000000
      9226       291  AKDO      H82           -14.6818408257      -15.8500544863       24.3121691168  LPSA9     3               1.0000000000
      9227       291  AKDO      O8            -13.8114168564      -17.5747311446       23.5361093980  LPSA9     3               1.0000000000
      9228       291  AKDO      HO8           -14.2457997779      -18.3896255342       23.2519749594  LPSA9     3               1.0000000000
      9229       292  AHEP      C1            -18.8189632380      -11.6818355145       27.2529289037  LPSA9     4               2.0000000000
      9230       292  AHEP      H1            -18.6812054750      -10.6356345375       26.9097501868  LPSA9     4               2.0000000000
      9231       292  AHEP      C5            -20.6308023730      -13.0954884877       27.9937712743  LPSA9     4               2.0000000000
      9232       292  AHEP      H5            -20.0775143585      -13.9321628554       27.5077504517  LPSA9     4               2.0000000000
      9233       292  AHEP      O5            -20.2371025366      -11.8813563539       27.3206126002  LPSA9     4               2.0000000000
      9234       292  AHEP      C2            -18.2987075103      -11.6611564894       28.7043031678  LPSA9     4               2.0000000000
      9235       292  AHEP      H2            -17.1910760826      -11.5783909498       28.6767314195  LPSA9     4               2.0000000000
      9236       292  AHEP      O2            -18.7600380054      -10.4816867034       29.3642395754  LPSA9     4               2.0000000000
      9237       292  AHEP      HO2           -18.0676588903      -10.1518075672       29.9259139153  LPSA9     4               2.0000000000
      9238       292  AHEP      C3            -18.6470328667      -12.9128536629       29.4924173291  LPSA9     4               2.0000000000
      9239       292  AHEP      H3            -18.1385031171      -13.8162328431       29.0902102013  LPSA9     4               2.0000000000
      9240       292  AHEP      O3            -18.2699242907      -12.7336939569       30.8762667458  LPSA9     4               2.0000000000
      9241       292  AHEP      C4            -20.1552753344      -13.0626360310       29.4520040234  LPSA9     4               2.0000000000
      9242       292  AHEP      H4            -20.6756890327      -12.2207906378       29.9664754109  LPSA9     4               2.0000000000
      9243       292  AHEP      O4            -20.4386281996      -14.3274506919       30.0451095748  LPSA9     4               2.0000000000
      9244       292  AHEP      P4            -21.2996302947      -14.4166237409       31.4646987477  LPSA9     4               2.0000000000
      9245       292  AHEP      OP42          -20.7403276942      -15.6633458733       32.1341057074  LPSA9     4               2.0000000000
      9246       292  AHEP      OP43          -22.7842660516      -14.5277306031       31.0779207564  LPSA9     4               2.0000000000
      9247       292  AHEP      OP44          -21.0111845291      -13.1555292876       32.2742312265  LPSA9     4               2.0000000000
      9248       292  AHEP      C6            -22.1580100734      -13.2972348181       27.7878932306  LPSA9     4               2.0000000000
      9249       292  AHEP      H6            -22.3565388290      -14.3618925469       28.0860367695  LPSA9     4               2.0000000000
      9250       292  AHEP      O6            -23.0050929067      -12.4596771748       28.6054279631  LPSA9     4               2.0000000000
      9251       292  AHEP      HO6           -23.4510462105      -13.0396109431       29.2425674141  LPSA9     4               2.0000000000
      9252       292  AHEP      C7            -22.6430646481      -13.1192694827       26.3344196460  LPSA9     4               2.0000000000
      9253       292  AHEP      H71           -23.6588852960      -13.5512963003       26.1965838486  LPSA9     4               2.0000000000
      9254       292  AHEP      H72           -21.9383779604      -13.6435842349       25.6520033260  LPSA9     4               2.0000000000
      9255       292  AHEP      O7            -22.7591903401      -11.7655742466       25.8702640674  LPSA9     4               2.0000000000
      9256       292  AHEP      HO7           -23.4555486807      -11.3853692159       26.4203466065  LPSA9     4               2.0000000000
      9257       293  AHEP      C1            -17.3852962770      -13.6570287977       31.4594694166  LPSA9     5               3.0000000000
      9258       293  AHEP      H1            -17.4691167095      -14.6575797757       30.9772520965  LPSA9     5               3.0000000000
      9259       293  AHEP      C5            -15.8806839600      -11.9143333901       31.9822573794  LPSA9     5               3.0000000000
      9260       293  AHEP      H5            -16.6290322733      -11.1890802229       31.6016398008  LPSA9     5               3.0000000000
      9261       293  AHEP      O5            -16.0620345089      -13.1665142905       31.2826589821  LPSA9     5               3.0000000000
      9262       293  AHEP      C2            -17.6377623472      -13.8225899019       32.9627968711  LPSA9     5               3.0000000000
      9263       293  AHEP      H2            -18.7033303198      -14.1226752265       33.0890506913  LPSA9     5               3.0000000000
      9264       293  AHEP      O2            -16.8171023213      -14.8869751304       33.4769512263  LPSA9     5               3.0000000000
      9265       293  AHEP      HO2           -17.3589398704      -15.6611560140       33.6508935164  LPSA9     5               3.0000000000
      9266       293  AHEP      C3            -17.4486760076      -12.5164089460       33.7310834222  LPSA9     5               3.0000000000
      9267       293  AHEP      H3            -18.1530856408      -11.7503197282       33.3171373675  LPSA9     5               3.0000000000
      9268       293  AHEP      O3            -17.6271200765      -12.6282491742       35.1586371707  LPSA9     5               3.0000000000
      9269       293  AHEP      C4            -16.0539528312      -12.0516502697       33.4813784133  LPSA9     5               3.0000000000
      9270       293  AHEP      H4            -15.3008348649      -12.7965859225       33.8544763632  LPSA9     5               3.0000000000
      9271       293  AHEP      O4            -15.9256638395      -10.7590965792       34.0851339505  LPSA9     5               3.0000000000
      9272       293  AHEP      P4            -14.8496958519      -10.5461423379       35.3250687142  LPSA9     5               3.0000000000
      9273       293  AHEP      OP42          -15.2334782734       -9.1578489335       35.8534601058  LPSA9     5               3.0000000000
      9274       293  AHEP      OP43          -13.5499169442      -10.6411102109       34.5798159766  LPSA9     5               3.0000000000
      9275       293  AHEP      OP44          -15.1299107594      -11.6659696325       36.3273129644  LPSA9     5               3.0000000000
      9276       293  AHEP      C6            -14.5392073511      -11.4172601827       31.6470062367  LPSA9     5               3.0000000000
      9277       293  AHEP      H6            -14.3865374227      -10.3869814827       32.1074099174  LPSA9     5               3.0000000000
      9278       293  AHEP      O6            -13.5992053048      -12.3776067073       32.1010551915  LPSA9     5               3.0000000000
      9279       293  AHEP      HO6           -13.2116480669      -12.9231062671       31.4362157933  LPSA9     5               3.0000000000
      9280       293  AHEP      C7            -14.3893659538      -11.2822773805       30.2007655135  LPSA9     5               3.0000000000
      9281       293  AHEP      H71           -13.6091157054      -10.5076953998       30.3227253997  LPSA9     5               3.0000000000
      9282       293  AHEP      H72           -15.3039238352      -10.8875097148       29.6728774339  LPSA9     5               3.0000000000
      9283       293  AHEP      O7            -13.6483895144      -12.2117770194       29.4345380058  LPSA9     5               3.0000000000
      9284       294  AHEP      C1            -14.4659203556      -13.1194907549       28.8047582543  LPSA9     6               4.0000000000
      9285       294  AHEP      H1            -15.5332469512      -12.9241216731       29.0281779836  LPSA9     6               4.0000000000
      9286       294  AHEP      C5            -12.9835125496      -13.3075417013       26.9802167122  LPSA9     6               4.0000000000
      9287       294  AHEP      H5            -12.3303054901      -12.5511227606       27.4952051678  LPSA9     6               4.0000000000
      9288       294  AHEP      O5            -14.3260834232      -13.0216352318       27.4085413733  LPSA9     6               4.0000000000
      9289       294  AHEP      C2            -14.0546260074      -14.4818708892       29.2493834157  LPSA9     6               4.0000000000
      9290       294  AHEP      H2            -14.1608575003      -14.4983457446       30.3547965543  LPSA9     6               4.0000000000
      9291       294  AHEP      O2            -15.0045532338      -15.3917288468       28.7240039988  LPSA9     6               4.0000000000
      9292       294  AHEP      HO2           -15.4490305683      -15.7996468428       29.4673236687  LPSA9     6               4.0000000000
      9293       294  AHEP      C3            -12.5853291684      -14.7416985935       28.8651916802  LPSA9     6               4.0000000000
      9294       294  AHEP      H3            -11.9545482527      -13.9847133680       29.3899558224  LPSA9     6               4.0000000000
      9295       294  AHEP      O3            -12.1044445189      -16.0444264690       29.2027608744  LPSA9     6               4.0000000000
      9296       294  AHEP      HO3           -11.6554959960      -16.1161381023       30.0511548602  LPSA9     6               4.0000000000
      9297       294  AHEP      C4            -12.4835298222      -14.6138952967       27.3708200831  LPSA9     6               4.0000000000
      9298       294  AHEP      H4            -13.0772176401      -15.3711394671       26.8159622780  LPSA9     6               4.0000000000
      9299       294  AHEP      O4            -11.1252441683      -14.6579073516       26.9186018919  LPSA9     6               4.0000000000
      9300       294  AHEP      HO4           -10.6359647734      -13.8640215670       27.1286979279  LPSA9     6               4.0000000000
      9301       294  AHEP      C6            -12.9212581974      -13.2034141737       25.4255410861  LPSA9     6               4.0000000000
      9302       294  AHEP      H6            -11.8699867490      -13.2954797706       25.0928773218  LPSA9     6               4.0000000000
      9303       294  AHEP      O6            -13.5143616460      -14.0775849364       24.5862235087  LPSA9     6               4.0000000000
      9304       294  AHEP      HO6           -13.8995033605      -13.4459693127       23.9312154330  LPSA9     6               4.0000000000
      9305       294  AHEP      C7            -13.6871655583      -12.0390769931       24.9868991165  LPSA9     6               4.0000000000
      9306       294  AHEP      H71           -13.3039856843      -11.4831247799       24.0827147474  LPSA9     6               4.0000000000
      9307       294  AHEP      H72           -13.3030173377      -11.6272694619       25.8864828023  LPSA9     6               4.0000000000
      9308       294  AHEP      O7            -14.9998431825      -11.6527222952       25.3440440675  LPSA9     6               4.0000000000
      9309       294  AHEP      HO7           -14.8444948163      -10.8584558460       25.8696427591  LPSA9     6               4.0000000000
      9310       295  AGLC      C1            -18.9011732776      -12.3202413681       35.6531367973  LPSA9     7               4.0000000000
      9311       295  AGLC      H1            -19.3064482054      -11.4129950993       35.1554412505  LPSA9     7               4.0000000000
      9312       295  AGLC      C5            -19.3655132116      -14.6109424343       36.0973069737  LPSA9     7               4.0000000000
      9313       295  AGLC      H5            -18.3131010474      -14.8602501112       35.8281620865  LPSA9     7               4.0000000000
      9314       295  AGLC      O5            -19.7772191304      -13.4113413133       35.4187106439  LPSA9     7               4.0000000000
      9315       295  AGLC      C2            -18.9576990165      -12.0440046823       37.1626458365  LPSA9     7               4.0000000000
      9316       295  AGLC      H2            -20.0364750742      -11.9800272414       37.4325115135  LPSA9     7               4.0000000000
      9317       295  AGLC      O2            -18.3929266004      -10.7740725281       37.5283295243  LPSA9     7               4.0000000000
      9318       295  AGLC      HO2           -17.4259397484      -10.9336229675       37.5776448142  LPSA9     7               4.0000000000
      9319       295  AGLC      C3            -18.4636063952      -13.2179383554       37.9725426971  LPSA9     7               4.0000000000
      9320       295  AGLC      H3            -17.4384259031      -13.4633182890       37.6121555563  LPSA9     7               4.0000000000
      9321       295  AGLC      O3            -18.3949179057      -12.9265217297       39.3962521281  LPSA9     7               4.0000000000
      9322       295  AGLC      C4            -19.3957779555      -14.3815715731       37.6097302675  LPSA9     7               4.0000000000
      9323       295  AGLC      H4            -20.4418412723      -14.1353210026       37.9261958733  LPSA9     7               4.0000000000
      9324       295  AGLC      O4            -18.9586811574      -15.5647518886       38.2587598726  LPSA9     7               4.0000000000
      9325       295  AGLC      HO4           -19.6844556847      -16.0715258011       38.6487528322  LPSA9     7               4.0000000000
      9326       295  AGLC      C6            -20.2069256831      -15.7359808490       35.5185395732  LPSA9     7               4.0000000000
      9327       295  AGLC      H61           -20.0419652421      -15.7503229408       34.4135780720  LPSA9     7               4.0000000000
      9328       295  AGLC      H62           -19.9100291584      -16.7434776870       35.8972438408  LPSA9     7               4.0000000000
      9329       295  AGLC      O6            -21.5963140800      -15.5313613809       35.7675694771  LPSA9     7               4.0000000000
      9330       295  AGLC      HO6           -21.8558028055      -16.0701940800       36.5104560502  LPSA9     7               4.0000000000
      9331       296  AGLC      C1            -17.0743307081      -13.0419485520       39.9161692876  LPSA9     8               5.0000000000
      9332       296  AGLC      H1            -16.5870698464      -13.9562551052       39.5071280900  LPSA9     8               5.0000000000
      9333       296  AGLC      C5            -16.5979243060      -10.6592019856       40.2217314824  LPSA9     8               5.0000000000
      9334       296  AGLC      H5            -17.6349091155      -10.4499502348       39.8874017774  LPSA9     8               5.0000000000
      9335       296  AGLC      O5            -16.2320081742      -11.9097209043       39.5875164452  LPSA9     8               5.0000000000
      9336       296  AGLC      C2            -17.0442902292      -13.2162207185       41.4317024074  LPSA9     8               5.0000000000
      9337       296  AGLC      H2            -15.9789787737      -13.3891435683       41.6974208144  LPSA9     8               5.0000000000
      9338       296  AGLC      O2            -17.7810036978      -14.3271323885       41.9530254383  LPSA9     8               5.0000000000
      9339       296  AGLC      C3            -17.5206897665      -11.9760061641       42.1270037818  LPSA9     8               5.0000000000
      9340       296  AGLC      H3            -18.5470227755      -11.7717240613       41.7194122802  LPSA9     8               5.0000000000
      9341       296  AGLC      O3            -17.6385944653      -12.2529530604       43.5435497726  LPSA9     8               5.0000000000
      9342       296  AGLC      C4            -16.5883607201      -10.8525047123       41.7347166291  LPSA9     8               5.0000000000
      9343       296  AGLC      H4            -15.5525318813      -11.1387154237       42.0328211525  LPSA9     8               5.0000000000
      9344       296  AGLC      O4            -16.9276673725       -9.6500103309       42.4145449820  LPSA9     8               5.0000000000
      9345       296  AGLC      HO4           -17.8779666538       -9.5509770295       42.3947212909  LPSA9     8               5.0000000000
      9346       296  AGLC      C6            -15.7773423445       -9.4306467337       39.7447474802  LPSA9     8               5.0000000000
      9347       296  AGLC      H61           -15.6644444698       -9.4314929391       38.6338082878  LPSA9     8               5.0000000000
      9348       296  AGLC      H62           -16.3020626778       -8.4916823085       40.0220893746  LPSA9     8               5.0000000000
      9349       296  AGLC      O6            -14.4871183715       -9.2871773372       40.3365623040  LPSA9     8               5.0000000000
      9350       296  AGLC      HO6           -14.5610171647       -8.9746828530       41.2392436228  LPSA9     8               5.0000000000
      9351       297  AGAL      C1            -17.4831475564      -15.5959725718       41.4437467412  LPSA9     9               6.0000000000
      9352       297  AGAL      H1            -17.4554068482      -15.5940375949       40.3340977779  LPSA9     9               6.0000000000
      9353       297  AGAL      C5            -16.1732693919      -16.3297283107       43.2741399638  LPSA9     9               6.0000000000
      9354       297  AGAL      H5            -16.5134221654      -15.3861215245       43.7531421801  LPSA9     9               6.0000000000
      9355       297  AGAL      O5            -16.2092598880      -16.1113414131       41.8572584497  LPSA9     9               6.0000000000
      9356       297  AGAL      C2            -18.5994905228      -16.5321350123       41.8675763107  LPSA9     9               6.0000000000
      9357       297  AGAL      H2            -18.3419748741      -17.4887653147       41.4198286181  LPSA9     9               6.0000000000
      9358       297  AGAL      O2            -19.8118503182      -16.0760841146       41.2214292788  LPSA9     9               6.0000000000
      9359       297  AGAL      C3            -18.5979179206      -16.7922988700       43.3608872082  LPSA9     9               6.0000000000
      9360       297  AGAL      H3            -18.7618463489      -15.8370150378       43.9045377237  LPSA9     9               6.0000000000
      9361       297  AGAL      O3            -19.6594465265      -17.6639917329       43.7411021532  LPSA9     9               6.0000000000
      9362       297  AGAL      HO3           -20.3990017817      -17.3833658908       43.1925466267  LPSA9     9               6.0000000000
      9363       297  AGAL      C4            -17.2182156211      -17.3637362363       43.6989040469  LPSA9     9               6.0000000000
      9364       297  AGAL      H4            -17.1337281981      -17.5197709661       44.7959040951  LPSA9     9               6.0000000000
      9365       297  AGAL      O4            -16.9799985136      -18.6231143213       43.0807697127  LPSA9     9               6.0000000000
      9366       297  AGAL      HO4           -16.3662374127      -19.1026291366       43.6551918187  LPSA9     9               6.0000000000
      9367       297  AGAL      C6            -14.7546047912      -16.5449948658       43.7766438445  LPSA9     9               6.0000000000
      9368       297  AGAL      H61           -14.1154287301      -15.6587111690       43.5851647199  LPSA9     9               6.0000000000
      9369       297  AGAL      H62           -14.7588185585      -16.6885529049       44.8478538655  LPSA9     9               6.0000000000
      9370       297  AGAL      O6            -14.1122714785      -17.7123023833       43.3119217711  LPSA9     9               6.0000000000
      9371       297  AGAL      HO6           -13.4581134185      -17.4498176074       42.6678273240  LPSA9     9               6.0000000000
      9372       298  AGAL      C1            -21.1272603202      -16.0948026852       41.7485911701  LPSA9     10              7.0000000000
      9373       298  AGAL      H1            -21.4699137756      -17.1511848963       41.8268032380  LPSA9     10              7.0000000000
      9374       298  AGAL      C5            -20.9680138480      -14.0583182075       43.0475735859  LPSA9     10              7.0000000000
      9375       298  AGAL      H5            -19.9345635658      -13.9880625588       42.6438201364  LPSA9     10              7.0000000000
      9376       298  AGAL      O5            -21.2782785366      -15.4764543072       43.0575635067  LPSA9     10              7.0000000000
      9377       298  AGAL      C2            -22.0357349069      -15.3763954441       40.7518955266  LPSA9     10              7.0000000000
      9378       298  AGAL      H2            -23.0722799158      -15.4837376556       41.1282873354  LPSA9     10              7.0000000000
      9379       298  AGAL      O2            -22.0963110677      -16.0102055115       39.4781200925  LPSA9     10              7.0000000000
      9380       298  AGAL      HO2           -23.0344573378      -16.1353821986       39.2742983624  LPSA9     10              7.0000000000
      9381       298  AGAL      C3            -21.6764774528      -13.8868557424       40.6988558588  LPSA9     10              7.0000000000
      9382       298  AGAL      H3            -20.5880231397      -13.8296331708       40.4417326771  LPSA9     10              7.0000000000
      9383       298  AGAL      O3            -22.3961185003      -13.1221691892       39.7198414431  LPSA9     10              7.0000000000
      9384       298  AGAL      HO3           -21.7759063243      -12.9681581504       39.0089189827  LPSA9     10              7.0000000000
      9385       298  AGAL      C4            -21.8658739216      -13.3040109016       42.0814895481  LPSA9     10              7.0000000000
      9386       298  AGAL      H4            -21.5450572934      -12.2330386844       42.0835771619  LPSA9     10              7.0000000000
      9387       298  AGAL      O4            -23.2319599075      -13.3809435140       42.4897373763  LPSA9     10              7.0000000000
      9388       298  AGAL      HO4           -23.4322274641      -14.3091295608       42.6207962775  LPSA9     10              7.0000000000
      9389       298  AGAL      C6            -20.8607682508      -13.3852717654       44.4240081532  LPSA9     10              7.0000000000
      9390       298  AGAL      H61           -20.2451167564      -14.0052940045       45.1020761779  LPSA9     10              7.0000000000
      9391       298  AGAL      H62           -20.3333350116      -12.4138386055       44.2690401059  LPSA9     10              7.0000000000
      9392       298  AGAL      O6            -22.0911047280      -13.0991237194       45.0933730424  LPSA9     10              7.0000000000
      9393       298  AGAL      HO6           -22.1497343337      -13.5632717130       45.9301877869  LPSA9     10              7.0000000000
      9394       299  BGLC      C1            -16.5878004152      -11.9763594948       44.4706118087  LPSA9     11              6.0000000000
      9395       299  BGLC      H1            -16.5346033541      -10.8693053677       44.6130931049  LPSA9     11              6.0000000000
      9396       299  BGLC      C5            -14.2465285237      -12.4382662062       45.1044028996  LPSA9     11              6.0000000000
      9397       299  BGLC      H5            -14.3343884236      -11.4149789661       45.4424581104  LPSA9     11              6.0000000000
      9398       299  BGLC      O5            -15.3083533694      -12.6096583890       44.1137766410  LPSA9     11              6.0000000000
      9399       299  BGLC      C2            -17.0578166745      -12.5916537339       45.7988688207  LPSA9     11              6.0000000000
      9400       299  BGLC      H2            -17.1744259215      -13.6941231806       45.6564942680  LPSA9     11              6.0000000000
      9401       299  BGLC      O2            -18.3360818597      -12.0921849474       46.1963610545  LPSA9     11              6.0000000000
      9402       299  BGLC      HO2           -18.9201725849      -12.8516430988       46.2871737705  LPSA9     11              6.0000000000
      9403       299  BGLC      C3            -16.0429328052      -12.4116356536       46.9051830113  LPSA9     11              6.0000000000
      9404       299  BGLC      H3            -15.9490584307      -11.3366316356       47.1764265009  LPSA9     11              6.0000000000
      9405       299  BGLC      O3            -16.4610858155      -13.1961565907       48.0444614708  LPSA9     11              6.0000000000
      9406       299  BGLC      C4            -14.7422275658      -13.0311021609       46.4181991758  LPSA9     11              6.0000000000
      9407       299  BGLC      H4            -14.8966433294      -14.0567468535       46.1441098665  LPSA9     11              6.0000000000
      9408       299  BGLC      O4            -13.7427887730      -12.9952352933       47.4233637578  LPSA9     11              6.0000000000
      9409       299  BGLC      HO4           -13.9839654928      -13.5802979776       48.1538951649  LPSA9     11              6.0000000000
      9410       299  BGLC      C6            -12.8005061747      -13.0536357847       44.6463608366  LPSA9     11              6.0000000000
      9411       299  BGLC      H61           -12.1323653202      -13.1657262350       45.5124363157  LPSA9     11              6.0000000000
      9412       299  BGLC      H62           -13.0924412037      -13.9125529512       44.0252303454  LPSA9     11              6.0000000000
      9413       299  BGLC      O6            -11.7823461983      -12.5960535110       43.7245362665  LPSA9     11              6.0000000000
      9414       299  BGLC      HO6           -11.5448959868      -11.6537859164       43.8368321615  LPSA9     11              6.0000000000
      9415       300  BGLCNA    C1            -16.5851134220      -12.5863147390       49.3158171697  LPSA9     12              7.0000000000
      9416       300  BGLCNA    H1            -17.5711888813      -12.0827780901       49.3768081541  LPSA9     12              7.0000000000
      9417       300  BGLCNA    C5            -15.7261938147      -11.0117105732       50.8771476323  LPSA9     12              7.0000000000
      9418       300  BGLCNA    H5            -16.7152670754      -10.5019491320       50.9550008676  LPSA9     12              7.0000000000
      9419       300  BGLCNA    O5            -15.5672963752      -11.6332084143       49.5875394013  LPSA9     12              7.0000000000
      9420       300  BGLCNA    C2            -16.4941523661      -13.6950475371       50.3542832683  LPSA9     12              7.0000000000
      9421       300  BGLCNA    H2            -15.4360749761      -14.0739711854       50.3048440860  LPSA9     12              7.0000000000
      9422       300  BGLCNA    N             -17.4625068250      -14.7227569079       50.0595661875  LPSA9     12              7.0000000000
      9423       300  BGLCNA    HN            -18.3947160508      -14.4166699922       49.9431857068  LPSA9     12              7.0000000000
      9424       300  BGLCNA    C             -17.1247501073      -16.0062916125       49.9126130065  LPSA9     12              7.0000000000
      9425       300  BGLCNA    O             -15.9819006514      -16.3880590991       50.0886779431  LPSA9     12              7.0000000000
      9426       300  BGLCNA    CT            -18.2108907086      -16.9811721230       49.5392553656  LPSA9     12              7.0000000000
      9427       300  BGLCNA    HT1           -18.4296001824      -17.6441275020       50.4013426428  LPSA9     12              7.0000000000
      9428       300  BGLCNA    HT2           -17.8728605376      -17.6411845844       48.7125844645  LPSA9     12              7.0000000000
      9429       300  BGLCNA    HT3           -19.1159699548      -16.4189749976       49.2329579561  LPSA9     12              7.0000000000
      9430       300  BGLCNA    C3            -16.6927339685      -13.1611912158       51.7599041094  LPSA9     12              7.0000000000
      9431       300  BGLCNA    H3            -17.7046410054      -12.7045063583       51.7968786341  LPSA9     12              7.0000000000
      9432       300  BGLCNA    O3            -16.6689272428      -14.2124063166       52.7691698937  LPSA9     12              7.0000000000
      9433       300  BGLCNA    C4            -15.6245080119      -12.0962059977       51.9550091530  LPSA9     12              7.0000000000
      9434       300  BGLCNA    H4            -14.6045500705      -12.5474326257       51.8892888687  LPSA9     12              7.0000000000
      9435       300  BGLCNA    O4            -15.7199105155      -11.5288580072       53.2435472645  LPSA9     12              7.0000000000
      9436       300  BGLCNA    HO4           -16.4788893431      -10.9569301244       53.3257732212  LPSA9     12              7.0000000000
      9437       300  BGLCNA    C6            -14.6584349399       -9.9402656622       50.9467874411  LPSA9     12              7.0000000000
      9438       300  BGLCNA    H61           -14.6847459994       -9.3937985899       51.9134631518  LPSA9     12              7.0000000000
      9439       300  BGLCNA    H62           -13.6623096064      -10.4186616555       50.8344726422  LPSA9     12              7.0000000000
      9440       300  BGLCNA    O6            -14.7817929558       -8.9879918491       49.8965500074  LPSA9     12              7.0000000000
      9441       300  BGLCNA    HO6           -15.3813236031       -8.2837796228       50.1403315306  LPSA9     12              7.0000000000
      9442       301  AGAL      C1            -17.6032902605      -14.0870595798       53.8413000262  LPSA9     13              8.0000000000
      9443       301  AGAL      H1            -17.6469263111      -13.0184704353       54.1599129514  LPSA9     13              8.0000000000
      9444       301  AGAL      C5            -18.8970588930      -16.0330150261       53.2681828786  LPSA9     13              8.0000000000
      9445       301  AGAL      H5            -18.0702029918      -16.2190052602       52.5402415763  LPSA9     13              8.0000000000
      9446       301  AGAL      O5            -18.9149220134      -14.5870697961       53.4757206205  LPSA9     13              8.0000000000
      9447       301  AGAL      C2            -17.2233103075      -14.8732254958       55.1042292171  LPSA9     13              8.0000000000
      9448       301  AGAL      H2            -18.0875714751      -14.7463576609       55.8000693547  LPSA9     13              8.0000000000
      9449       301  AGAL      O2            -16.0921429336      -14.3147752444       55.7634660616  LPSA9     13              8.0000000000
      9450       301  AGAL      C3            -17.1338529644      -16.3725417899       54.8921103890  LPSA9     13              8.0000000000
      9451       301  AGAL      H3            -16.4785037053      -16.5728513677       54.0142951924  LPSA9     13              8.0000000000
      9452       301  AGAL      O3            -16.5437830226      -17.0512590433       55.9988432009  LPSA9     13              8.0000000000
      9453       301  AGAL      HO3           -16.0104225288      -17.7945844907       55.6976198497  LPSA9     13              8.0000000000
      9454       301  AGAL      C4            -18.5155854200      -16.8419789447       54.5137446686  LPSA9     13              8.0000000000
      9455       301  AGAL      H4            -18.4599074477      -17.9223197036       54.2279288581  LPSA9     13              8.0000000000
      9456       301  AGAL      O4            -19.4642620816      -16.7519210840       55.5765799654  LPSA9     13              8.0000000000
      9457       301  AGAL      HO4           -19.4661326905      -15.9025823204       56.0367586887  LPSA9     13              8.0000000000
      9458       301  AGAL      C6            -20.1008507688      -16.6122534703       52.5423063643  LPSA9     13              8.0000000000
      9459       301  AGAL      H61           -20.2534958713      -16.0476329128       51.5994045572  LPSA9     13              8.0000000000
      9460       301  AGAL      H62           -19.8743595529      -17.6819416665       52.3092012023  LPSA9     13              8.0000000000
      9461       301  AGAL      O6            -21.3194611063      -16.5997560316       53.2723213378  LPSA9     13              8.0000000000
      9462       301  AGAL      HO6           -21.2433525539      -17.2452168966       54.0032723370  LPSA9     13              8.0000000000
      9463       302  ARHM      C1            -16.3589448824      -13.7185971164       57.0164668733  LPSA9     14              9.0000000000
      9464       302  ARHM      H1            -17.3729858860      -13.2815650268       57.0370287547  LPSA9     14              9.0000000000
      9465       302  ARHM      C5            -14.2444798537      -13.0842618779       57.2184012774  LPSA9     14              9.0000000000
      9466       302  ARHM      H5            -13.9460443173      -13.4860602276       56.2021846175  LPSA9     14              9.0000000000
      9467       302  ARHM      O5            -15.5587086087      -12.6159743337       57.1852709722  LPSA9     14              9.0000000000
      9468       302  ARHM      C2            -16.0961915768      -14.7071706712       58.1250790915  LPSA9     14              9.0000000000
      9469       302  ARHM      H2            -16.7619511693      -15.5686350753       57.9527090176  LPSA9     14              9.0000000000
      9470       302  ARHM      O2            -16.2558678082      -14.2028809398       59.4614390625  LPSA9     14              9.0000000000
      9471       302  ARHM      C3            -14.6592691843      -15.1687459579       58.0889857724  LPSA9     14              9.0000000000
      9472       302  ARHM      H3            -14.4043702996      -15.4742665498       57.0424670527  LPSA9     14              9.0000000000
      9473       302  ARHM      O3            -14.3830568229      -16.2808756755       58.9200421828  LPSA9     14              9.0000000000
      9474       302  ARHM      HO3           -14.4123621317      -15.9876537283       59.8297918655  LPSA9     14              9.0000000000
      9475       302  ARHM      C4            -13.7920310879      -14.0059662132       58.3443593107  LPSA9     14              9.0000000000
      9476       302  ARHM      H4            -14.0322822626      -13.4425556650       59.2834302373  LPSA9     14              9.0000000000
      9477       302  ARHM      O4            -12.3797748288      -14.3105653601       58.4056657816  LPSA9     14              9.0000000000
      9478       302  ARHM      HO4           -12.0147229041      -14.1745980414       59.2922470316  LPSA9     14              9.0000000000
      9479       302  ARHM      C6            -13.6514404539      -11.8735032211       57.4284226171  LPSA9     14              9.0000000000
      9480       302  ARHM      H61           -13.8883032910      -11.0284228553       56.7340946282  LPSA9     14              9.0000000000
      9481       302  ARHM      H62           -13.4520833830      -11.5046765387       58.4513420646  LPSA9     14              9.0000000000
      9482       302  ARHM      H63           -12.7057144485      -12.4067061846       57.1236432194  LPSA9     14              9.0000000000
      9483       303  ARHM      C1            -17.4751709522      -13.5755091303       59.7492754963  LPSA9     15             10.0000000000
      9484       303  ARHM      H1            -18.2573764486      -13.9364999059       59.0421691168  LPSA9     15             10.0000000000
      9485       303  ARHM      C5            -16.5316468177      -11.5086284761       60.6403852182  LPSA9     15             10.0000000000
      9486       303  ARHM      H5            -15.4657261376      -11.7889087797       60.4526334619  LPSA9     15             10.0000000000
      9487       303  ARHM      O5            -17.3987599132      -12.1266265124       59.6688192598  LPSA9     15             10.0000000000
      9488       303  ARHM      C2            -17.9300277386      -13.9873424391       61.1375666147  LPSA9     15             10.0000000000
      9489       303  ARHM      H2            -17.8855599461      -15.1044613961       61.2049611308  LPSA9     15             10.0000000000
      9490       303  ARHM      O2            -19.2812486553      -13.5327994125       61.2903078276  LPSA9     15             10.0000000000
      9491       303  ARHM      C3            -16.9877362549      -13.4227925214       62.1499800345  LPSA9     15             10.0000000000
      9492       303  ARHM      H3            -16.0274085094      -13.7864474541       61.8035574876  LPSA9     15             10.0000000000
      9493       303  ARHM      O3            -17.2499164370      -14.0140450438       63.4233914713  LPSA9     15             10.0000000000
      9494       303  ARHM      C4            -16.9898364892      -11.9056307316       62.0324214796  LPSA9     15             10.0000000000
      9495       303  ARHM      H4            -18.0445389394      -11.5778129477       62.1574766495  LPSA9     15             10.0000000000
      9496       303  ARHM      O4            -16.2315154029      -11.1990087911       63.0107698826  LPSA9     15             10.0000000000
      9497       303  ARHM      HO4           -16.4928192975      -10.2777385253       62.9740824387  LPSA9     15             10.0000000000
      9498       303  ARHM      C6            -16.6285755963       -9.9741456913       60.4662639243  LPSA9     15             10.0000000000
      9499       303  ARHM      H61           -15.8514033707       -9.4335321407       61.0425180182  LPSA9     15             10.0000000000
      9500       303  ARHM      H62           -16.5261025061       -9.7351975211       59.3851503913  LPSA9     15             10.0000000000
      9501       303  ARHM      H63           -17.6117799254       -9.5980041762       60.8071512579  LPSA9     15             10.0000000000
      9502       304  BMANNA    C1            -19.9537644199      -13.7713743084       62.5054002794  LPSA9     16             11.0000000000
      9503       304  BMANNA    H1            -19.4887732519      -13.1516621455       63.3068333398  LPSA9     16             11.0000000000
      9504       304  BMANNA    C5            -20.5911744067      -15.3237657975       64.1878852234  LPSA9     16             11.0000000000
      9505       304  BMANNA    H5            -20.1075360549      -14.6541406407       64.9461133459  LPSA9     16             11.0000000000
      9506       304  BMANNA    O5            -19.9387757558      -15.1436480424       62.9144830807  LPSA9     16             11.0000000000
      9507       304  BMANNA    C2            -21.3999996975      -13.3228924137       62.3118206853  LPSA9     16             11.0000000000
      9508       304  BMANNA    H2            -21.3588162964      -12.2379907830       62.0391926081  LPSA9     16             11.0000000000
      9509       304  BMANNA    N             -22.1323089359      -14.0146879042       61.2585446464  LPSA9     16             11.0000000000
      9510       304  BMANNA    HN            -22.6494146944      -14.8068097220       61.5365138663  LPSA9     16             11.0000000000
      9511       304  BMANNA    C             -22.2233136697      -13.6408931615       59.9818622544  LPSA9     16             11.0000000000
      9512       304  BMANNA    O             -21.6810074992      -12.6312825639       59.5506552554  LPSA9     16             11.0000000000
      9513       304  BMANNA    CT            -23.0175651666      -14.5494055657       59.0736639713  LPSA9     16             11.0000000000
      9514       304  BMANNA    HT1           -24.0095519931      -14.1124840238       58.8553757351  LPSA9     16             11.0000000000
      9515       304  BMANNA    HT2           -23.1572418338      -15.5483947707       59.5366703047  LPSA9     16             11.0000000000
      9516       304  BMANNA    HT3           -22.4723888856      -14.6710616553       58.1138845967  LPSA9     16             11.0000000000
      9517       304  BMANNA    C3            -22.1106774496      -13.4800135978       63.6488665563  LPSA9     16             11.0000000000
      9518       304  BMANNA    H3            -21.5619134611      -12.8584061586       64.3945391847  LPSA9     16             11.0000000000
      9519       304  BMANNA    O3            -23.4466406457      -12.9880528725       63.5919709715  LPSA9     16             11.0000000000
      9520       304  BMANNA    HO3           -23.5646557969      -12.3340242144       64.2833544648  LPSA9     16             11.0000000000
      9521       304  BMANNA    C4            -22.0570903238      -14.9315987185       64.1125208675  LPSA9     16             11.0000000000
      9522       304  BMANNA    H4            -22.5677399901      -15.5835224013       63.3663106078  LPSA9     16             11.0000000000
      9523       304  BMANNA    O4            -22.7190052024      -15.1757220205       65.3643133227  LPSA9     16             11.0000000000
      9524       304  BMANNA    HO4           -22.9784576138      -16.1007067458       65.4171617111  LPSA9     16             11.0000000000
      9525       304  BMANNA    C6            -20.4525003384      -16.7312696177       64.7165084303  LPSA9     16             11.0000000000
      9526       304  BMANNA    H61           -20.4634874316      -16.6307550706       65.8021370654  LPSA9     16             11.0000000000
      9527       304  BMANNA    H62           -21.3080735077      -17.3658908548       64.4176592551  LPSA9     16             11.0000000000
      9528       304  BMANNA    O6            -19.2612302608      -17.4121535092       64.3743214767  LPSA9     16             11.0000000000
      9529       304  BMANNA    HO6           -19.4863421280      -18.1773880614       63.8439682514  LPSA9     16             11.0000000000
      9530       305  BGLCNA    C1            -16.1059914194      -14.3680860683       64.1452213494  LPSA9     17             11.0000000000
      9531       305  BGLCNA    H1            -15.3226752481      -13.5973336711       63.9994350459  LPSA9     17             11.0000000000
      9532       305  BGLCNA    C5            -14.4340814929      -16.0121555870       64.5609087057  LPSA9     17             11.0000000000
      9533       305  BGLCNA    H5            -13.5862433988      -15.3095747410       64.3573801905  LPSA9     17             11.0000000000
      9534       305  BGLCNA    O5            -15.5871523205      -15.6525144146       63.7864248501  LPSA9     17             11.0000000000
      9535       305  BGLCNA    C2            -16.5787712062      -14.3786540951       65.5831633902  LPSA9     17             11.0000000000
      9536       305  BGLCNA    H2            -17.3350431891      -15.1865035081       65.7494354901  LPSA9     17             11.0000000000
      9537       305  BGLCNA    N             -17.2330620466      -13.1215218669       65.8887072658  LPSA9     17             11.0000000000
      9538       305  BGLCNA    HN            -16.8978025835      -12.3465542581       65.3740260452  LPSA9     17             11.0000000000
      9539       305  BGLCNA    C             -18.1714570435      -12.9162729589       66.8149731950  LPSA9     17             11.0000000000
      9540       305  BGLCNA    O             -18.7072270003      -13.8095668230       67.4581529678  LPSA9     17             11.0000000000
      9541       305  BGLCNA    CT            -18.5030893350      -11.4631743844       67.0349049153  LPSA9     17             11.0000000000
      9542       305  BGLCNA    HT1           -19.4417824684      -11.1605018913       66.5302747243  LPSA9     17             11.0000000000
      9543       305  BGLCNA    HT2           -17.6524451991      -10.8480837151       66.6802861116  LPSA9     17             11.0000000000
      9544       305  BGLCNA    HT3           -18.6215618349      -11.2670480542       68.1199051843  LPSA9     17             11.0000000000
      9545       305  BGLCNA    C3            -15.3559362766      -14.6559704541       66.4302377994  LPSA9     17             11.0000000000
      9546       305  BGLCNA    H3            -14.5913216863      -13.9153561100       66.0923675139  LPSA9     17             11.0000000000
      9547       305  BGLCNA    O3            -15.6485209209      -14.4166287882       67.8320456480  LPSA9     17             11.0000000000
      9548       305  BGLCNA    C4            -14.8341375816      -16.0331476088       66.0441303959  LPSA9     17             11.0000000000
      9549       305  BGLCNA    H4            -15.6664642355      -16.7771193297       66.1222591419  LPSA9     17             11.0000000000
      9550       305  BGLCNA    O4            -13.7814477111      -16.4547065129       66.9121904677  LPSA9     17             11.0000000000
      9551       305  BGLCNA    HO4           -13.4655605269      -17.3486477682       66.7311960014  LPSA9     17             11.0000000000
      9552       305  BGLCNA    C6            -13.9586060791      -17.3534894030       64.1003314441  LPSA9     17             11.0000000000
      9553       305  BGLCNA    H61           -12.8502079064      -17.3465131836       64.1319684491  LPSA9     17             11.0000000000
      9554       305  BGLCNA    H62           -14.3451690324      -18.0776051841       64.8452600656  LPSA9     17             11.0000000000
      9555       305  BGLCNA    O6            -14.3370243959      -17.7694623407       62.7842519106  LPSA9     17             11.0000000000
      9556       305  BGLCNA    HO6           -14.0393086934      -17.1166930593       62.1463459448  LPSA9     17             11.0000000000
      9557       306  AGAL      C1            -14.6019120967      -13.8762723187       68.6249412800  LPSA9     18             12.0000000000
      9558       306  AGAL      H1            -13.8551753920      -14.6804337243       68.8093313763  LPSA9     18             12.0000000000
      9559       306  AGAL      C5            -14.7997602530      -11.6454296089       67.8588676167  LPSA9     18             12.0000000000
      9560       306  AGAL      H5            -15.7525626892      -12.0021727547       67.4357499109  LPSA9     18             12.0000000000
      9561       306  AGAL      O5            -13.9358846847      -12.7891930842       67.9796638262  LPSA9     18             12.0000000000
      9562       306  AGAL      C2            -15.0553982404      -13.3426710531       69.9718826152  LPSA9     18             12.0000000000
      9563       306  AGAL      H2            -14.1103944014      -12.9289142171       70.3992099473  LPSA9     18             12.0000000000
      9564       306  AGAL      O2            -15.4643666762      -14.3778182141       70.8683173595  LPSA9     18             12.0000000000
      9565       306  AGAL      C3            -16.0099561885      -12.1525822733       69.8467249381  LPSA9     18             12.0000000000
      9566       306  AGAL      H3            -16.8467652690      -12.4434388807       69.1722294868  LPSA9     18             12.0000000000
      9567       306  AGAL      O3            -16.5977003058      -11.7689241394       71.0865196317  LPSA9     18             12.0000000000
      9568       306  AGAL      HO3           -17.5476313302      -11.6136594862       70.9901154497  LPSA9     18             12.0000000000
      9569       306  AGAL      C4            -15.2555389497      -11.0232423870       69.1723691398  LPSA9     18             12.0000000000
      9570       306  AGAL      H4            -15.9266706080      -10.1668073131       68.9372339547  LPSA9     18             12.0000000000
      9571       306  AGAL      O4            -14.1844097229      -10.5136595742       69.9577107554  LPSA9     18             12.0000000000
      9572       306  AGAL      HO4           -14.5338673753      -10.0301153354       70.7163885195  LPSA9     18             12.0000000000
      9573       306  AGAL      C6            -14.4328807098      -10.7925012695       66.7032293368  LPSA9     18             12.0000000000
      9574       306  AGAL      H61           -14.4093682863      -11.4085939735       65.7888033614  LPSA9     18             12.0000000000
      9575       306  AGAL      H62           -15.0352301750       -9.8759508527       66.6211894572  LPSA9     18             12.0000000000
      9576       306  AGAL      O6            -13.1434385149      -10.3937020836       66.6626126058  LPSA9     18             12.0000000000
      9577       306  AGAL      HO6           -12.6697482479      -10.6342789459       67.4974737779  LPSA9     18             12.0000000000
      9578       307  ARHM      C1            -14.9901845310      -14.1223289323       72.1721365971  LPSA9     19             13.0000000000
      9579       307  ARHM      H1            -14.8607022924      -13.0327428593       72.3534646177  LPSA9     19             13.0000000000
      9580       307  ARHM      C5            -13.6981187596      -16.1022561568       72.2590837806  LPSA9     19             13.0000000000
      9581       307  ARHM      H5            -14.0588716428      -16.3125866811       71.2235240033  LPSA9     19             13.0000000000
      9582       307  ARHM      O5            -13.6987890650      -14.6843228199       72.4238276929  LPSA9     19             13.0000000000
      9583       307  ARHM      C2            -15.9929742081      -14.7338891718       73.1117497996  LPSA9     19             13.0000000000
      9584       307  ARHM      H2            -17.0174921534      -14.3732129476       72.8586889329  LPSA9     19             13.0000000000
      9585       307  ARHM      O2            -15.7713261285      -14.3820350161       74.4659076263  LPSA9     19             13.0000000000
      9586       307  ARHM      C3            -15.9983497451      -16.2313335965       72.9647184479  LPSA9     19             13.0000000000
      9587       307  ARHM      H3            -16.2429706415      -16.4808127944       71.9058024201  LPSA9     19             13.0000000000
      9588       307  ARHM      O3            -16.9781317760      -16.8176236409       73.8100995541  LPSA9     19             13.0000000000
      9589       307  ARHM      HO3           -16.8159204687      -16.4562948823       74.6778972378  LPSA9     19             13.0000000000
      9590       307  ARHM      C4            -14.6205036868      -16.7573216809       73.2503689562  LPSA9     19             13.0000000000
      9591       307  ARHM      H4            -14.3239643236      -16.4838557676       74.2920561019  LPSA9     19             13.0000000000
      9592       307  ARHM      O4            -14.5307273918      -18.1694851306       73.1495637124  LPSA9     19             13.0000000000
      9593       307  ARHM      HO4           -14.7545835297      -18.4584459952       72.2600239961  LPSA9     19             13.0000000000
      9594       307  ARHM      C6            -12.2689785515      -16.6218368276       72.3147983092  LPSA9     19             13.0000000000
      9595       307  ARHM      H61           -11.7313568963      -16.1216741322       71.5121836727  LPSA9     19             13.0000000000
      9596       307  ARHM      H62           -11.7456576786      -16.4416803222       73.2705995641  LPSA9     19             13.0000000000
      9597       307  ARHM      H63           -12.2193606453      -17.6936058274       72.1147797091  LPSA9     19             13.0000000000
      9598       308  ARHM      C1            -16.1477455744      -13.0656538044       74.6958249723  LPSA9     20             14.0000000000
      9599       308  ARHM      H1            -16.6526906374      -12.5627662297       73.8460561926  LPSA9     20             14.0000000000
      9600       308  ARHM      C5            -14.4031052436      -12.7834890916       75.9409537448  LPSA9     20             14.0000000000
      9601       308  ARHM      H5            -14.0045209243      -13.8272514321       75.8278587551  LPSA9     20             14.0000000000
      9602       308  ARHM      O5            -15.0385257134      -12.3532168846       74.7743928810  LPSA9     20             14.0000000000
      9603       308  ARHM      C2            -16.9133915880      -12.9394432788       75.9515215523  LPSA9     20             14.0000000000
      9604       308  ARHM      H2            -17.7146764982      -13.7060087763       75.8581677568  LPSA9     20             14.0000000000
      9605       308  ARHM      O2            -17.4047935224      -11.6281457788       76.1559788118  LPSA9     20             14.0000000000
      9606       308  ARHM      C3            -16.1324563361      -13.3508476706       77.1463424989  LPSA9     20             14.0000000000
      9607       308  ARHM      H3            -15.6834458608      -14.3700894332       76.9765603805  LPSA9     20             14.0000000000
      9608       308  ARHM      O3            -16.9199374487      -13.3337837492       78.3070946761  LPSA9     20             14.0000000000
      9609       308  ARHM      C4            -14.9954496287      -12.5067391942       77.3024336691  LPSA9     20             14.0000000000
      9610       308  ARHM      H4            -15.2345215704      -11.3936410505       77.3276192032  LPSA9     20             14.0000000000
      9611       308  ARHM      O4            -14.1307009237      -12.7349499847       78.4261445829  LPSA9     20             14.0000000000
      9612       308  ARHM      HO4           -13.2614725667      -12.4241250626       78.1412014408  LPSA9     20             14.0000000000
      9613       308  ARHM      C6            -13.3738993603      -12.3047287397       75.7996912226  LPSA9     20             14.0000000000
      9614       308  ARHM      H61           -13.6652065079      -11.1754372251       75.8652150817  LPSA9     20             14.0000000000
      9615       308  ARHM      H62           -12.7175969013      -12.5966647880       76.6809804523  LPSA9     20             14.0000000000
      9616       308  ARHM      H63           -12.7181968340      -12.5363138418       74.9041005059  LPSA9     20             14.0000000000
      9617       309  BMANNA    C1            -18.5615921746      -11.4903961044       75.4106639397  LPSA9     21             15.0000000000
      9618       309  BMANNA    H1            -18.6792867128      -12.3607564152       74.7185404992  LPSA9     21             15.0000000000
      9619       309  BMANNA    C5            -19.6590732439      -10.4091550828       73.6406015538  LPSA9     21             15.0000000000
      9620       309  BMANNA    H5            -19.7162782508      -11.3763221622       73.0767461740  LPSA9     21             15.0000000000
      9621       309  BMANNA    O5            -18.5061808219      -10.3922043615       74.5094039840  LPSA9     21             15.0000000000
      9622       309  BMANNA    C2            -19.7523433515      -11.4120200423       76.3472814959  LPSA9     21             15.0000000000
      9623       309  BMANNA    H2            -19.7309510999      -12.3726677677       76.9299692878  LPSA9     21             15.0000000000
      9624       309  BMANNA    N             -19.7156558914      -10.2858315955       77.2913870949  LPSA9     21             15.0000000000
      9625       309  BMANNA    HN            -19.3982072582       -9.4400982475       76.9018414047  LPSA9     21             15.0000000000
      9626       309  BMANNA    C             -20.1165176938      -10.3296273446       78.5866874468  LPSA9     21             15.0000000000
      9627       309  BMANNA    O             -20.7749020736      -11.2523379036       79.0411098658  LPSA9     21             15.0000000000
      9628       309  BMANNA    CT            -19.7973937246       -9.1519381401       79.4783874543  LPSA9     21             15.0000000000
      9629       309  BMANNA    HT1           -20.4963589058       -8.3163549807       79.2907077073  LPSA9     21             15.0000000000
      9630       309  BMANNA    HT2           -18.7609166441       -8.8318100839       79.3352069438  LPSA9     21             15.0000000000
      9631       309  BMANNA    HT3           -19.8794360304       -9.4414876348       80.5516419804  LPSA9     21             15.0000000000
      9632       309  BMANNA    C3            -20.9688918069      -11.4365324216       75.4569526146  LPSA9     21             15.0000000000
      9633       309  BMANNA    H3            -20.9432273318      -12.4125586278       74.9214230619  LPSA9     21             15.0000000000
      9634       309  BMANNA    O3            -22.1618106974      -11.3906348449       76.2171759396  LPSA9     21             15.0000000000
      9635       309  BMANNA    HO3           -22.1383544667      -10.6206399564       76.7901037655  LPSA9     21             15.0000000000
      9636       309  BMANNA    C4            -20.9162718188      -10.3044115132       74.4518704677  LPSA9     21             15.0000000000
      9637       309  BMANNA    H4            -20.8786142646       -9.3678807793       75.0116634255  LPSA9     21             15.0000000000
      9638       309  BMANNA    O4            -22.0361427736      -10.2206568749       73.5772825530  LPSA9     21             15.0000000000
      9639       309  BMANNA    HO4           -22.5640884031       -9.4412675998       73.7953960145  LPSA9     21             15.0000000000
      9640       309  BMANNA    C6            -19.5679293620       -9.3103197037       72.6188215053  LPSA9     21             15.0000000000
      9641       309  BMANNA    H61           -20.3024997356       -9.5058805240       71.8022267078  LPSA9     21             15.0000000000
      9642       309  BMANNA    H62           -19.8624087442       -8.3416261131       73.0750834410  LPSA9     21             15.0000000000
      9643       309  BMANNA    O6            -18.2499705277       -9.2158394584       72.0807215857  LPSA9     21             15.0000000000
      9644       309  BMANNA    HO6           -17.6335480997       -8.9721754530       72.7829580612  LPSA9     21             15.0000000000
      9645       310  BGLCNA    C1            -16.6192705542      -14.3218897826       79.2487471820  LPSA9     22             15.0000000000
      9646       310  BGLCNA    H1            -15.5497620128      -14.6212975628       79.2451589982  LPSA9     22             15.0000000000
      9647       310  BGLCNA    C5            -17.2194585551      -16.4420939467       80.1067475803  LPSA9     22             15.0000000000
      9648       310  BGLCNA    H5            -16.1333515149      -16.7033833903       80.1131932259  LPSA9     22             15.0000000000
      9649       310  BGLCNA    O5            -17.4419036325      -15.4735992000       79.0702637482  LPSA9     22             15.0000000000
      9650       310  BGLCNA    C2            -16.9584914781      -13.6619453404       80.5508175864  LPSA9     22             15.0000000000
      9651       310  BGLCNA    H2            -18.0404444570      -13.3632318281       80.4962418614  LPSA9     22             15.0000000000
      9652       310  BGLCNA    N             -16.1413712432      -12.4860139835       80.7261828933  LPSA9     22             15.0000000000
      9653       310  BGLCNA    HN            -15.2143620846      -12.5270899968       80.3723392786  LPSA9     22             15.0000000000
      9654       310  BGLCNA    C             -16.5488482952      -11.3712517928       81.3327171792  LPSA9     22             15.0000000000
      9655       310  BGLCNA    O             -17.6447365911      -11.2086740518       81.8439404757  LPSA9     22             15.0000000000
      9656       310  BGLCNA    CT            -15.5309887969      -10.2849838008       81.3748674712  LPSA9     22             15.0000000000
      9657       310  BGLCNA    HT1           -15.7351202471       -9.5985211748       80.5370765267  LPSA9     22             15.0000000000
      9658       310  BGLCNA    HT2           -14.5202648560      -10.7180740380       81.2512609588  LPSA9     22             15.0000000000
      9659       310  BGLCNA    HT3           -15.6052671101       -9.7352607487       82.3371126255  LPSA9     22             15.0000000000
      9660       310  BGLCNA    C3            -16.7394339672      -14.6315890309       81.6857553500  LPSA9     22             15.0000000000
      9661       310  BGLCNA    H3            -15.6760911037      -14.9674382754       81.6517167452  LPSA9     22             15.0000000000
      9662       310  BGLCNA    O3            -16.9634326862      -13.9030861520       82.9017250950  LPSA9     22             15.0000000000
      9663       310  BGLCNA    C4            -17.6009128276      -15.8493434589       81.4636240265  LPSA9     22             15.0000000000
      9664       310  BGLCNA    H4            -18.6622626343      -15.5174188323       81.4066201094  LPSA9     22             15.0000000000
      9665       310  BGLCNA    O4            -17.4920463768      -16.8006810872       82.5308227013  LPSA9     22             15.0000000000
      9666       310  BGLCNA    HO4           -18.3567693797      -17.1932482327       82.7135536385  LPSA9     22             15.0000000000
      9667       310  BGLCNA    C6            -18.0309715536      -17.6645932249       79.7687994866  LPSA9     22             15.0000000000
      9668       310  BGLCNA    H61           -18.1299649429      -18.2695979244       80.6870120886  LPSA9     22             15.0000000000
      9669       310  BGLCNA    H62           -19.0616772188      -17.3826164062       79.4396337579  LPSA9     22             15.0000000000
      9670       310  BGLCNA    O6            -17.3712915078      -18.4948402062       78.8105069257  LPSA9     22             15.0000000000
      9671       310  BGLCNA    HO6           -17.2652377977      -18.0071185224       77.9891146323  LPSA9     22             15.0000000000
      9672       311  AGAL      C1            -16.4338491439      -14.3901455638       84.1022186297  LPSA9     23             16.0000000000
      9673       311  AGAL      H1            -17.0404628995      -15.2506346759       84.4524052120  LPSA9     23             16.0000000000
      9674       311  AGAL      C5            -14.1520069336      -13.7505929203       83.7274994725  LPSA9     23             16.0000000000
      9675       311  AGAL      H5            -14.5005305224      -13.2095211811       82.8193811350  LPSA9     23             16.0000000000
      9676       311  AGAL      O5            -15.0741166130      -14.8263409513       83.9970734799  LPSA9     23             16.0000000000
      9677       311  AGAL      C2            -16.5326409876      -13.3406426473       85.1838753863  LPSA9     23             16.0000000000
      9678       311  AGAL      H2            -16.1330498934      -13.8190714767       86.1042836951  LPSA9     23             16.0000000000
      9679       311  AGAL      O2            -17.9027089031      -12.9512086754       85.4253542663  LPSA9     23             16.0000000000
      9680       311  AGAL      C3            -15.5918204762      -12.1811294133       84.8788546074  LPSA9     23             16.0000000000
      9681       311  AGAL      H3            -15.8112110158      -11.8031332241       83.8582215452  LPSA9     23             16.0000000000
      9682       311  AGAL      O3            -15.7796678500      -11.0693084779       85.7477158516  LPSA9     23             16.0000000000
      9683       311  AGAL      HO3           -15.8597628963      -11.4028986204       86.6422410795  LPSA9     23             16.0000000000
      9684       311  AGAL      C4            -14.1662307805      -12.7186906694       84.8621334392  LPSA9     23             16.0000000000
      9685       311  AGAL      H4            -13.4462360771      -11.9083148539       84.6313415247  LPSA9     23             16.0000000000
      9686       311  AGAL      O4            -13.7854439517      -13.2993407439       86.1045918761  LPSA9     23             16.0000000000
      9687       311  AGAL      HO4           -13.1025483585      -13.9532781618       85.8690042635  LPSA9     23             16.0000000000
      9688       311  AGAL      C6            -12.8123278177      -14.3534684620       83.3350997209  LPSA9     23             16.0000000000
      9689       311  AGAL      H61           -12.9892297652      -15.1500291811       82.5766033801  LPSA9     23             16.0000000000
      9690       311  AGAL      H62           -12.1767680639      -13.5874768807       82.8311015908  LPSA9     23             16.0000000000
      9691       311  AGAL      O6            -12.1154017549      -14.9322663383       84.4420860426  LPSA9     23             16.0000000000
      9692       311  AGAL      HO6           -11.2615751850      -15.3035979973       84.1569131587  LPSA9     23             16.0000000000
      9693       312  ARHM      C1            -18.6996135707      -13.7462560934       86.2796162406  LPSA9     24             17.0000000000
      9694       312  ARHM      H1            -18.2257404615      -14.7481464076       86.3926074928  LPSA9     24             17.0000000000
      9695       312  ARHM      C5            -20.7885024363      -12.7577574841       85.6394639702  LPSA9     24             17.0000000000
      9696       312  ARHM      H5            -20.2142858851      -12.1004820475       84.9529841102  LPSA9     24             17.0000000000
      9697       312  ARHM      O5            -20.0386376823      -13.9790405500       85.7881491135  LPSA9     24             17.0000000000
      9698       312  ARHM      C2            -18.7423084529      -13.0175918873       87.5995747465  LPSA9     24             17.0000000000
      9699       312  ARHM      H2            -17.7039877979      -12.7703443539       87.9287354317  LPSA9     24             17.0000000000
      9700       312  ARHM      O2            -19.4158028864      -13.8027401768       88.5909302536  LPSA9     24             17.0000000000
      9701       312  ARHM      C3            -19.4883366611      -11.7206851687       87.4253155277  LPSA9     24             17.0000000000
      9702       312  ARHM      H3            -18.9630151125      -11.1319863703       86.6334249742  LPSA9     24             17.0000000000
      9703       312  ARHM      O3            -19.4424760469      -10.9338552460       88.6082998573  LPSA9     24             17.0000000000
      9704       312  ARHM      HO3           -20.1916830142      -11.1761704757       89.1596938327  LPSA9     24             17.0000000000
      9705       312  ARHM      C4            -20.8996207763      -12.0321760425       86.9631367954  LPSA9     24             17.0000000000
      9706       312  ARHM      H4            -21.3836007324      -12.7232256576       87.6890670994  LPSA9     24             17.0000000000
      9707       312  ARHM      O4            -21.7013126454      -10.8646256116       86.8440044488  LPSA9     24             17.0000000000
      9708       312  ARHM      HO4           -22.6310203099      -11.0367778039       86.9956941298  LPSA9     24             17.0000000000
      9709       312  ARHM      C6            -22.1459312243      -13.0385298147       84.9656488108  LPSA9     24             17.0000000000
      9710       312  ARHM      H61           -22.4865213262      -12.1343546574       84.4112241979  LPSA9     24             17.0000000000
      9711       312  ARHM      H62           -22.0204566545      -13.8552476046       84.2311027287  LPSA9     24             17.0000000000
      9712       312  ARHM      H63           -22.9337160834      -13.3422293363       85.6811205037  LPSA9     24             17.0000000000
      9713       313  ARHM      C1            -18.6539526786      -14.8345818890       89.1456467058  LPSA9     25             18.0000000000
      9714       313  ARHM      H1            -17.8029980587      -15.0587865983       88.4669203323  LPSA9     25             18.0000000000
      9715       313  ARHM      C5            -20.4454484146      -15.9911401229       90.2031466901  LPSA9     25             18.0000000000
      9716       313  ARHM      H5            -21.1646636076      -15.2165538142       89.8495822893  LPSA9     25             18.0000000000
      9717       313  ARHM      O5            -19.3465961622      -16.0779061607       89.2838414527  LPSA9     25             18.0000000000
      9718       313  ARHM      C2            -18.1069315411      -14.3885118618       90.4633196404  LPSA9     25             18.0000000000
      9719       313  ARHM      H2            -17.6766349367      -13.3588450602       90.3661976398  LPSA9     25             18.0000000000
      9720       313  ARHM      O2            -17.0919399235      -15.3093287922       90.8927437076  LPSA9     25             18.0000000000
      9721       313  ARHM      C3            -19.2353204187      -14.2946548302       91.4550898779  LPSA9     25             18.0000000000
      9722       313  ARHM      H3            -19.9931260097      -13.5550690692       91.0844474320  LPSA9     25             18.0000000000
      9723       313  ARHM      O3            -18.6703606198      -13.8893351876       92.7027190035  LPSA9     25             18.0000000000
      9724       313  ARHM      C4            -19.9354566323      -15.6141533999       91.5766885259  LPSA9     25             18.0000000000
      9725       313  ARHM      H4            -19.2225862717      -16.4127901100       91.9039884291  LPSA9     25             18.0000000000
      9726       313  ARHM      O4            -20.9973569701      -15.5262134085       92.5233086660  LPSA9     25             18.0000000000
      9727       313  ARHM      HO4           -20.9936668648      -16.3306944804       93.0426455192  LPSA9     25             18.0000000000
      9728       313  ARHM      C6            -21.2034430756      -17.3150303126       90.2163807075  LPSA9     25             18.0000000000
      9729       313  ARHM      H61           -21.4669558324      -17.6168084504       89.1800540468  LPSA9     25             18.0000000000
      9730       313  ARHM      H62           -20.5984377655      -18.1284337654       90.6631594929  LPSA9     25             18.0000000000
      9731       313  ARHM      H63           -22.1420947244      -17.2071437058       90.8018372523  LPSA9     25             18.0000000000
      9732       314  BMANNA    C1            -15.8405451530      -15.1360834168       90.2801121113  LPSA9     26             19.0000000000
      9733       314  BMANNA    H1            -15.7752128134      -14.1444891303       89.8244395247  LPSA9     26             19.0000000000
      9734       314  BMANNA    C5            -14.2933859649      -15.7886364806       88.5915371601  LPSA9     26             19.0000000000
      9735       314  BMANNA    H5            -14.3124543181      -14.7508555791       88.1816831968  LPSA9     26             19.0000000000
      9736       314  BMANNA    O5            -15.5582685625      -16.0651433234       89.2281097322  LPSA9     26             19.0000000000
      9737       314  BMANNA    C2            -14.8095672963      -15.2774432876       91.3519933893  LPSA9     26             19.0000000000
      9738       314  BMANNA    H2            -15.0533538387      -14.5000796889       92.1273060102  LPSA9     26             19.0000000000
      9739       314  BMANNA    N             -14.8534554801      -16.6173443612       91.9298195007  LPSA9     26             19.0000000000
      9740       314  BMANNA    HN            -14.7921444577      -17.3669565503       91.2841547126  LPSA9     26             19.0000000000
      9741       314  BMANNA    C             -14.9704179833      -16.8755932268       93.2359423106  LPSA9     26             19.0000000000
      9742       314  BMANNA    O             -15.1921291560      -15.9847322805       94.0371346434  LPSA9     26             19.0000000000
      9743       314  BMANNA    CT            -14.7444303452      -18.3115680043       93.6658404576  LPSA9     26             19.0000000000
      9744       314  BMANNA    HT1           -15.0501999701      -18.9947325276       92.8517400402  LPSA9     26             19.0000000000
      9745       314  BMANNA    HT2           -15.2708949221      -18.5857926460       94.6046238888  LPSA9     26             19.0000000000
      9746       314  BMANNA    HT3           -13.6602252426      -18.4255639614       93.8583857609  LPSA9     26             19.0000000000
      9747       314  BMANNA    C3            -13.4661053195      -14.9187244951       90.7519121367  LPSA9     26             19.0000000000
      9748       314  BMANNA    H3            -13.4946077242      -13.8890584626       90.3279660201  LPSA9     26             19.0000000000
      9749       314  BMANNA    O3            -12.4728806842      -14.8779802423       91.7618833427  LPSA9     26             19.0000000000
      9750       314  BMANNA    HO3           -12.5890862609      -14.0871077734       92.2983368214  LPSA9     26             19.0000000000
      9751       314  BMANNA    C4            -13.1647903702      -15.8861287811       89.6142766167  LPSA9     26             19.0000000000
      9752       314  BMANNA    H4            -13.1267127356      -16.9291371686       89.9877770275  LPSA9     26             19.0000000000
      9753       314  BMANNA    O4            -11.9099214916      -15.6429311735       89.0013985384  LPSA9     26             19.0000000000
      9754       314  BMANNA    HO4           -11.2216083569      -15.9458817717       89.6041715486  LPSA9     26             19.0000000000
      9755       314  BMANNA    C6            -14.1828813570      -16.7175879622       87.3934847962  LPSA9     26             19.0000000000
      9756       314  BMANNA    H61           -15.1824430767      -16.8156932553       86.9114064055  LPSA9     26             19.0000000000
      9757       314  BMANNA    H62           -13.4779190216      -16.3082039405       86.6345860058  LPSA9     26             19.0000000000
      9758       314  BMANNA    O6            -13.7466113778      -18.0209558919       87.7534590176  LPSA9     26             19.0000000000
      9759       314  BMANNA    HO6           -12.8518245639      -17.9664424380       88.1103889338  LPSA9     26             19.0000000000
      9760       315  BGLCNA    C1            -19.4037657097      -12.9824714573       93.4695906309  LPSA9     27             19.0000000000
      9761       315  BGLCNA    H1            -20.4809685603      -13.1784746025       93.4107601488  LPSA9     27             19.0000000000
      9762       315  BGLCNA    C5            -19.8012002126      -10.6858223806       93.9200488666  LPSA9     27             19.0000000000
      9763       315  BGLCNA    H5            -20.8848641980      -10.9329386188       93.9413574165  LPSA9     27             19.0000000000
      9764       315  BGLCNA    O5            -19.1283658883      -11.6382463046       93.0773305196  LPSA9     27             19.0000000000
      9765       315  BGLCNA    C2            -18.8808903413      -13.2119528482       94.8737377181  LPSA9     27             19.0000000000
      9766       315  BGLCNA    H2            -17.8025840713      -12.9892037579       94.8471517656  LPSA9     27             19.0000000000
      9767       315  BGLCNA    N             -19.0033837800      -14.5988687940       95.3075337280  LPSA9     27             19.0000000000
      9768       315  BGLCNA    HN            -19.8524279808      -15.0493303067       95.0490109877  LPSA9     27             19.0000000000
      9769       315  BGLCNA    C             -17.9888532933      -15.2183236530       95.9576655488  LPSA9     27             19.0000000000
      9770       315  BGLCNA    O             -17.1003475334      -14.5935094242       96.5265365956  LPSA9     27             19.0000000000
      9771       315  BGLCNA    CT            -18.0013140659      -16.7210453669       96.0082781703  LPSA9     27             19.0000000000
      9772       315  BGLCNA    HT1           -18.8060725594      -17.1244922834       95.3611173834  LPSA9     27             19.0000000000
      9773       315  BGLCNA    HT2           -18.1123884367      -17.0746874583       97.0471777996  LPSA9     27             19.0000000000
      9774       315  BGLCNA    HT3           -17.0145982213      -17.0943873040       95.6607649595  LPSA9     27             19.0000000000
      9775       315  BGLCNA    C3            -19.5310399571      -12.2494397335       95.8204190099  LPSA9     27             19.0000000000
      9776       315  BGLCNA    H3            -20.6299522572      -12.4311915778       95.7785369472  LPSA9     27             19.0000000000
      9777       315  BGLCNA    O3            -18.9976660942      -12.5933432744       97.1260454164  LPSA9     27             19.0000000000
      9778       315  BGLCNA    C4            -19.2792013160      -10.8275852098       95.3470778900  LPSA9     27             19.0000000000
      9779       315  BGLCNA    H4            -18.1947174184      -10.5898548078       95.3519262427  LPSA9     27             19.0000000000
      9780       315  BGLCNA    O4            -19.9515294807       -9.8947421106       96.1817820616  LPSA9     27             19.0000000000
      9781       315  BGLCNA    HO4           -20.9022242354      -10.0084660887       96.0775564682  LPSA9     27             19.0000000000
      9782       315  BGLCNA    C6            -19.7185683535       -9.2968338521       93.3174397654  LPSA9     27             19.0000000000
      9783       315  BGLCNA    H61           -20.4152506448       -8.6215829124       93.8594990384  LPSA9     27             19.0000000000
      9784       315  BGLCNA    H62           -18.6906973290       -8.8819450702       93.4322218979  LPSA9     27             19.0000000000
      9785       315  BGLCNA    O6            -20.1170971028       -9.3119350749       91.9408439782  LPSA9     27             19.0000000000
      9786       315  BGLCNA    HO6           -19.8704180445       -8.4843061056       91.5048955312  LPSA9     27             19.0000000000
      9787       316  AGAL      C1            -19.7101732740      -12.1460883493       98.2449438982  LPSA9     28             20.0000000000
      9788       316  AGAL      H1            -19.5526343558      -11.0504490150       98.3271161742  LPSA9     28             20.0000000000
      9789       316  AGAL      C5            -21.4349534292      -13.8160786019       98.1264049243  LPSA9     28             20.0000000000
      9790       316  AGAL      H5            -20.7679033844      -14.3764820690       97.4272732729  LPSA9     28             20.0000000000
      9791       316  AGAL      O5            -21.1157187478      -12.4001299938       98.0636428447  LPSA9     28             20.0000000000
      9792       316  AGAL      C2            -19.2967363040      -12.7359491951       99.6069304767  LPSA9     28             20.0000000000
      9793       316  AGAL      H2            -19.9896735932      -12.2041559522      100.2953377913  LPSA9     28             20.0000000000
      9794       316  AGAL      O2            -17.9744055748      -12.4643523946      100.1024785160  LPSA9     28             20.0000000000
      9795       316  AGAL      C3            -19.6168174641      -14.2139181242       99.6758234300  LPSA9     28             20.0000000000
      9796       316  AGAL      H3            -19.1021540560      -14.7235382559       98.8355283523  LPSA9     28             20.0000000000
      9797       316  AGAL      O3            -19.1738399333      -14.8689729288      100.8556926420  LPSA9     28             20.0000000000
      9798       316  AGAL      HO3           -18.6209780085      -15.6327048061      100.6593789488  LPSA9     28             20.0000000000
      9799       316  AGAL      C4            -21.0966235712      -14.3728671929       99.4903349430  LPSA9     28             20.0000000000
      9800       316  AGAL      H4            -21.3297211219      -15.4591905914       99.4864160562  LPSA9     28             20.0000000000
      9801       316  AGAL      O4            -21.8424677209      -13.7432312925      100.5251420997  LPSA9     28             20.0000000000
      9802       316  AGAL      HO4           -22.1955065580      -14.4303704840      101.0972337760  LPSA9     28             20.0000000000
      9803       316  AGAL      C6            -22.8488181330      -14.1126620928       97.6418243927  LPSA9     28             20.0000000000
      9804       316  AGAL      H61           -22.9090413561      -13.8660341932       96.5590470473  LPSA9     28             20.0000000000
      9805       316  AGAL      H62           -23.1202795532      -15.1871501379       97.7563580959  LPSA9     28             20.0000000000
      9806       316  AGAL      O6            -23.8508625005      -13.3882531611       98.3387766714  LPSA9     28             20.0000000000
      9807       316  AGAL      HO6           -23.9373148612      -12.4913853673       97.9853865322  LPSA9     28             20.0000000000
      9808       317  ARHM      C1            -18.0291357075      -12.1560658182      101.4850953413  LPSA9     29             21.0000000000
      9809       317  ARHM      H1            -18.9061258712      -12.6379763746      101.9687575436  LPSA9     29             21.0000000000
      9810       317  ARHM      C5            -17.0002297373      -10.0490193915      101.1414138207  LPSA9     29             21.0000000000
      9811       317  ARHM      H5            -16.9274939924      -10.3125443225      100.0608282659  LPSA9     29             21.0000000000
      9812       317  ARHM      O5            -18.1158794520      -10.7456582792      101.7043334201  LPSA9     29             21.0000000000
      9813       317  ARHM      C2            -16.8108298785      -12.6869794760      102.1707329936  LPSA9     29             21.0000000000
      9814       317  ARHM      H2            -16.7332033028      -13.7747426838      101.9276680759  LPSA9     29             21.0000000000
      9815       317  ARHM      O2            -16.9062924623      -12.4938076562      103.6035402124  LPSA9     29             21.0000000000
      9816       317  ARHM      C3            -15.5991939690      -11.9958158306      101.6108353689  LPSA9     29             21.0000000000
      9817       317  ARHM      H3            -15.5281146679      -12.1846163194      100.5108263819  LPSA9     29             21.0000000000
      9818       317  ARHM      O3            -14.4460258609      -12.5567987355      102.2038109140  LPSA9     29             21.0000000000
      9819       317  ARHM      HO3           -13.7920115862      -11.8593518003      102.2273375270  LPSA9     29             21.0000000000
      9820       317  ARHM      C4            -15.7061385403      -10.4878289488      101.8166606296  LPSA9     29             21.0000000000
      9821       317  ARHM      H4            -15.7667360448      -10.2625116207      102.9069581584  LPSA9     29             21.0000000000
      9822       317  ARHM      O4            -14.5650944345       -9.7686357459      101.3433600410  LPSA9     29             21.0000000000
      9823       317  ARHM      HO4           -14.3095094008       -9.9979595484      100.4427414664  LPSA9     29             21.0000000000
      9824       317  ARHM      C6            -17.3919501178       -8.5731413993      101.2236448331  LPSA9     29             21.0000000000
      9825       317  ARHM      H61           -18.4053409058       -8.4705934388      100.7728060904  LPSA9     29             21.0000000000
      9826       317  ARHM      H62           -17.4342282495       -8.2311944904      102.2754179652  LPSA9     29             21.0000000000
      9827       317  ARHM      H63           -16.6818017798       -7.9490581079      100.6371892827  LPSA9     29             21.0000000000
      9828       318  ARHM      C1            -17.3577822942      -13.5908527493      104.3683757349  LPSA9     30             22.0000000000
      9829       318  ARHM      H1            -16.7222776192      -14.4831453629      104.1608454975  LPSA9     30             22.0000000000
      9830       318  ARHM      C5            -19.6297415898      -12.8436367906      104.4973352482  LPSA9     30             22.0000000000
      9831       318  ARHM      H5            -19.2902385103      -11.9603581199      103.9132274150  LPSA9     30             22.0000000000
      9832       318  ARHM      O5            -18.7445911819      -13.9221325704      104.1621660105  LPSA9     30             22.0000000000
      9833       318  ARHM      C2            -17.2054742040      -13.2166805830      105.8212901531  LPSA9     30             22.0000000000
      9834       318  ARHM      H2            -16.1482350303      -12.9311673254      106.0365916552  LPSA9     30             22.0000000000
      9835       318  ARHM      O2            -17.6373646157      -14.3248214241      106.5984281968  LPSA9     30             22.0000000000
      9836       318  ARHM      C3            -18.1077636872      -12.0757597815      106.2182452473  LPSA9     30             22.0000000000
      9837       318  ARHM      H3            -17.8765288943      -11.2394769399      105.5163295091  LPSA9     30             22.0000000000
      9838       318  ARHM      O3            -17.8132911046      -11.5897371748      107.5415736865  LPSA9     30             22.0000000000
      9839       318  ARHM      C4            -19.5386732240      -12.4818320058      105.9652258427  LPSA9     30             22.0000000000
      9840       318  ARHM      H4            -19.8281832831      -13.3795796098      106.5555506858  LPSA9     30             22.0000000000
      9841       318  ARHM      O4            -20.4631905231      -11.4560978128      106.3137199588  LPSA9     30             22.0000000000
      9842       318  ARHM      HO4           -20.5565369646      -10.8219475230      105.6033373181  LPSA9     30             22.0000000000
      9843       318  ARHM      C6            -21.0646017347      -13.1704276974      104.0640918599  LPSA9     30             22.0000000000
      9844       318  ARHM      H61           -21.6906917098      -12.2757739384      104.2415092275  LPSA9     30             22.0000000000
      9845       318  ARHM      H62           -21.0827847033      -13.3913873434      102.9804163797  LPSA9     30             22.0000000000
      9846       318  ARHM      H63           -21.4666781602      -14.0387704495      104.6297886278  LPSA9     30             22.0000000000
      9847       319  BMANNA    C1            -16.6651964747      -15.2490414861      106.8863844499  LPSA9     31             23.0000000000
      9848       319  BMANNA    H1            -15.7925074706      -14.7333104465      107.2070782015  LPSA9     31             23.0000000000
      9849       319  BMANNA    C5            -15.3875267297      -17.0507137657      106.1327398184  LPSA9     31             23.0000000000
      9850       319  BMANNA    H5            -14.4967464193      -16.4043256629      106.3955250362  LPSA9     31             23.0000000000
      9851       319  BMANNA    O5            -16.4317725031      -16.1529716724      105.8100650858  LPSA9     31             23.0000000000
      9852       319  BMANNA    C2            -17.1251941782      -15.9626559704      108.0999124903  LPSA9     31             23.0000000000
      9853       319  BMANNA    H2            -17.1959425087      -15.2055120046      108.9225193799  LPSA9     31             23.0000000000
      9854       319  BMANNA    N             -18.4157180973      -16.5392913825      107.8310930440  LPSA9     31             23.0000000000
      9855       319  BMANNA    HN            -18.6338102231      -16.6194088198      106.8542557254  LPSA9     31             23.0000000000
      9856       319  BMANNA    C             -19.3053650957      -16.7494702357      108.7818363207  LPSA9     31             23.0000000000
      9857       319  BMANNA    O             -19.0573038108      -16.4543757307      109.9412637667  LPSA9     31             23.0000000000
      9858       319  BMANNA    CT            -20.6016881320      -17.3474302221      108.3297371372  LPSA9     31             23.0000000000
      9859       319  BMANNA    HT1           -20.4058462640      -18.1205965927      107.5628790989  LPSA9     31             23.0000000000
      9860       319  BMANNA    HT2           -21.2242283814      -16.5449427762      107.8826871300  LPSA9     31             23.0000000000
      9861       319  BMANNA    HT3           -21.1485101813      -17.7737191043      109.1953293298  LPSA9     31             23.0000000000
      9862       319  BMANNA    C3            -16.0424356497      -16.9036736740      108.4979777273  LPSA9     31             23.0000000000
      9863       319  BMANNA    H3            -15.0877594895      -16.3587410107      108.6844622970  LPSA9     31             23.0000000000
      9864       319  BMANNA    O3            -16.3405795435      -17.5424897163      109.7202592754  LPSA9     31             23.0000000000
      9865       319  BMANNA    HO3           -17.0578675352      -17.0137845750      110.1144599074  LPSA9     31             23.0000000000
      9866       319  BMANNA    C4            -15.7988987095      -17.7975129025      107.3396588176  LPSA9     31             23.0000000000
      9867       319  BMANNA    H4            -16.6423134753      -18.5182749766      107.1330269095  LPSA9     31             23.0000000000
      9868       319  BMANNA    O4            -14.5423775301      -18.3547383268      107.4527963702  LPSA9     31             23.0000000000
      9869       319  BMANNA    HO4           -14.1867331010      -18.3413894430      108.3355307456  LPSA9     31             23.0000000000
      9870       319  BMANNA    C6            -14.9284870577      -18.0111275970      105.0146084209  LPSA9     31             23.0000000000
      9871       319  BMANNA    H61           -13.9899020660      -18.5697496016      105.2669048444  LPSA9     31             23.0000000000
      9872       319  BMANNA    H62           -15.6951278062      -18.8000717527      104.8558624140  LPSA9     31             23.0000000000
      9873       319  BMANNA    O6            -14.7075922287      -17.3269192485      103.7959841619  LPSA9     31             23.0000000000
      9874       319  BMANNA    HO6           -13.9140403477      -16.7966713566      103.7869996227  LPSA9     31             23.0000000000
      9875       320  BGLCNA    C1            -18.3981705136      -12.2879084292      108.6129308547  LPSA9     32             23.0000000000
      9876       320  BGLCNA    H1            -18.3934779585      -13.3732953717      108.4118452945  LPSA9     32             23.0000000000
      9877       320  BGLCNA    C5            -20.3327023878      -12.7076719162      109.9251037283  LPSA9     32             23.0000000000
      9878       320  BGLCNA    H5            -20.2674781637      -13.7727870402      109.5889644307  LPSA9     32             23.0000000000
      9879       320  BGLCNA    O5            -19.7363049900      -11.8921196646      108.9035863290  LPSA9     32             23.0000000000
      9880       320  BGLCNA    C2            -17.5745189643      -12.0759861071      109.8546413704  LPSA9     32             23.0000000000
      9881       320  BGLCNA    H2            -17.7102266321      -11.0048099208      110.1456252930  LPSA9     32             23.0000000000
      9882       320  BGLCNA    N             -16.1975440930      -12.3087478348      109.5907106893  LPSA9     32             23.0000000000
      9883       320  BGLCNA    HN            -16.0101076915      -12.9841157159      108.8887778802  LPSA9     32             23.0000000000
      9884       320  BGLCNA    C             -15.1756370309      -11.6576711536      110.1404289593  LPSA9     32             23.0000000000
      9885       320  BGLCNA    O             -15.2426357265      -10.7136968489      110.9128772196  LPSA9     32             23.0000000000
      9886       320  BGLCNA    CT            -13.8879027326      -12.1092256903      109.6151213665  LPSA9     32             23.0000000000
      9887       320  BGLCNA    HT1           -14.0618263077      -12.6476588079      108.7118617056  LPSA9     32             23.0000000000
      9888       320  BGLCNA    HT2           -13.2205182627      -12.7083878207      110.2639773143  LPSA9     32             23.0000000000
      9889       320  BGLCNA    HT3           -13.4433000903      -11.2157340772      109.1855803087  LPSA9     32             23.0000000000
      9890       320  BGLCNA    C3            -18.1088293456      -12.9872444199      110.9292357483  LPSA9     32             23.0000000000
      9891       320  BGLCNA    H3            -18.1428158159      -14.0089766593      110.4773760362  LPSA9     32             23.0000000000
      9892       320  BGLCNA    O3            -17.2634343873      -13.0684054524      112.0935762439  LPSA9     32             23.0000000000
      9893       320  BGLCNA    C4            -19.5274609882      -12.5607821671      111.2045547132  LPSA9     32             23.0000000000
      9894       320  BGLCNA    H4            -19.5141072094      -11.4862079186      111.5145978314  LPSA9     32             23.0000000000
      9895       320  BGLCNA    O4            -20.1113020759      -13.3276984567      112.2425425141  LPSA9     32             23.0000000000
      9896       320  BGLCNA    HO4           -19.9387925906      -12.8726401083      113.0756242700  LPSA9     32             23.0000000000
      9897       320  BGLCNA    C6            -21.8098472435      -12.3829558089      110.0509984658  LPSA9     32             23.0000000000
      9898       320  BGLCNA    H61           -22.3234148432      -13.0925548303      110.7343026657  LPSA9     32             23.0000000000
      9899       320  BGLCNA    H62           -21.9346641885      -11.3677623641      110.4958254319  LPSA9     32             23.0000000000
      9900       320  BGLCNA    O6            -22.4840225709      -12.4671214151      108.7893803836  LPSA9     32             23.0000000000
      9901       320  BGLCNA    HO6           -22.0676422976      -13.1104105024      108.2035147258  LPSA9     32             23.0000000000
      9902       321  AGAL      C1            -17.2343662996      -14.3609774340      112.6857135640  LPSA9     33             24.0000000000
      9903       321  AGAL      H1            -18.2296735037      -14.8456417009      112.6082584451  LPSA9     33             24.0000000000
      9904       321  AGAL      C5            -14.9205828810      -14.7323733040      112.2127094968  LPSA9     33             24.0000000000
      9905       321  AGAL      H5            -14.9547681517      -13.6853400389      111.8394604481  LPSA9     33             24.0000000000
      9906       321  AGAL      O5            -16.2618427098      -15.2334712192      112.0793090554  LPSA9     33             24.0000000000
      9907       321  AGAL      C2            -16.8520547585      -14.2346884899      114.1468209856  LPSA9     33             24.0000000000
      9908       321  AGAL      H2            -16.7644574200      -15.2750701499      114.5328229482  LPSA9     33             24.0000000000
      9909       321  AGAL      O2            -17.9476229220      -13.6407504009      114.8708858838  LPSA9     33             24.0000000000
      9910       321  AGAL      C3            -15.4504295233      -13.6350366967      114.3026525728  LPSA9     33             24.0000000000
      9911       321  AGAL      H3            -15.3874152708      -12.6770585277      113.7264819184  LPSA9     33             24.0000000000
      9912       321  AGAL      O3            -15.1365247338      -13.2494352726      115.6365464922  LPSA9     33             24.0000000000
      9913       321  AGAL      HO3           -15.2135653341      -13.9920604359      116.2385761731  LPSA9     33             24.0000000000
      9914       321  AGAL      C4            -14.4492926990      -14.5979866311      113.6556956782  LPSA9     33             24.0000000000
      9915       321  AGAL      H4            -13.4331723279      -14.1391368246      113.6608745098  LPSA9     33             24.0000000000
      9916       321  AGAL      O4            -14.3130107705      -15.8741716292      114.2826273907  LPSA9     33             24.0000000000
      9917       321  AGAL      HO4           -15.0032425880      -16.0821230405      114.9111780857  LPSA9     33             24.0000000000
      9918       321  AGAL      C6            -13.9803518823      -15.4551423170      111.2615375340  LPSA9     33             24.0000000000
      9919       321  AGAL      H61           -14.3044544653      -15.2116947321      110.2311006377  LPSA9     33             24.0000000000
      9920       321  AGAL      H62           -12.9695829380      -15.0660727958      111.3805556066  LPSA9     33             24.0000000000
      9921       321  AGAL      O6            -13.8513375147      -16.8674461683      111.4124205851  LPSA9     33             24.0000000000
      9922       321  AGAL      HO6           -14.5107164455      -17.3244025780      110.8791080249  LPSA9     33             24.0000000000
      9923       322  ARHM      C1            -18.3137219538      -14.3390257170      116.0475854795  LPSA9     34             25.0000000000
      9924       322  ARHM      H1            -17.3927969826      -14.5207879844      116.6430414128  LPSA9     34             25.0000000000
      9925       322  ARHM      C5            -20.1539681124      -15.5788981060      115.0539596863  LPSA9     34             25.0000000000
      9926       322  ARHM      H5            -19.9083222108      -15.1555754738      114.0596210676  LPSA9     34             25.0000000000
      9927       322  ARHM      O5            -18.9404742177      -15.6312567655      115.8295638607  LPSA9     34             25.0000000000
      9928       322  ARHM      C2            -19.2503201477      -13.4215318630      116.8086298090  LPSA9     34             25.0000000000
      9929       322  ARHM      H2            -18.8034918709      -12.3922284270      116.8407384267  LPSA9     34             25.0000000000
      9930       322  ARHM      O2            -19.5129410151      -13.8180582921      118.1834160988  LPSA9     34             25.0000000000
      9931       322  ARHM      C3            -20.5371153324      -13.3069215885      116.0089146713  LPSA9     34             25.0000000000
      9932       322  ARHM      H3            -20.3139753538      -12.8978912004      114.9938793199  LPSA9     34             25.0000000000
      9933       322  ARHM      O3            -21.4257121909      -12.3982092728      116.6538852209  LPSA9     34             25.0000000000
      9934       322  ARHM      HO3           -21.9620040914      -11.9419548091      115.9947594777  LPSA9     34             25.0000000000
      9935       322  ARHM      C4            -21.1471765215      -14.6830294351      115.7981782244  LPSA9     34             25.0000000000
      9936       322  ARHM      H4            -21.3254352245      -15.1670952765      116.7864303707  LPSA9     34             25.0000000000
      9937       322  ARHM      O4            -22.4045357297      -14.6146956541      115.1223541423  LPSA9     34             25.0000000000
      9938       322  ARHM      HO4           -23.0680566251      -14.2221192191      115.7167472788  LPSA9     34             25.0000000000
      9939       322  ARHM      C6            -20.7489545189      -16.9856292836      114.7753456699  LPSA9     34             25.0000000000
      9940       322  ARHM      H61           -20.9296604215      -17.5304691127      115.6869100271  LPSA9     34             25.0000000000
      9941       322  ARHM      H62           -21.7477903207      -16.8788172944      114.3076675913  LPSA9     34             25.0000000000
      9942       322  ARHM      H63           -20.1196517760      -17.6342464155      114.1406279144  LPSA9     34             25.0000000000
      9943       323  ARHM      C1            -18.4152187110      -14.0393639538      119.0533037767  LPSA9     35             26.0000000000
      9944       323  ARHM      H1            -17.6314263520      -13.2826191872      118.8499027412  LPSA9     35             26.0000000000
      9945       323  ARHM      C5            -18.8092716983      -16.3864524148      119.2143428920  LPSA9     35             26.0000000000
      9946       323  ARHM      H5            -19.6619929067      -16.3168953696      118.5064591494  LPSA9     35             26.0000000000
      9947       323  ARHM      O5            -17.8559714833      -15.3501518156      118.9434283462  LPSA9     35             26.0000000000
      9948       323  ARHM      C2            -18.8643145285      -13.9155685477      120.5017358075  LPSA9     35             26.0000000000
      9949       323  ARHM      H2            -19.2111096379      -12.9064275708      120.6800026389  LPSA9     35             26.0000000000
      9950       323  ARHM      O2            -17.7902261671      -14.0649390202      121.4313508150  LPSA9     35             26.0000000000
      9951       323  ARHM      C3            -19.9447771536      -14.9162475023      120.8224986786  LPSA9     35             26.0000000000
      9952       323  ARHM      H3            -20.8045879919      -14.7967379550      120.1185003171  LPSA9     35             26.0000000000
      9953       323  ARHM      O3            -20.4943553706      -14.7137212646      122.1187466225  LPSA9     35             26.0000000000
      9954       323  ARHM      HO3           -19.8426198382      -14.3695450835      122.7404544505  LPSA9     35             26.0000000000
      9955       323  ARHM      C4            -19.3398976464      -16.2850835595      120.6403919293  LPSA9     35             26.0000000000
      9956       323  ARHM      H4            -18.4723947385      -16.4044070486      121.3347772860  LPSA9     35             26.0000000000
      9957       323  ARHM      O4            -20.2804284437      -17.3221377769      120.9143455373  LPSA9     35             26.0000000000
      9958       323  ARHM      HO4           -21.1594436511      -17.0896834889      120.6063961555  LPSA9     35             26.0000000000
      9959       323  ARHM      C6            -18.1296465870      -17.7174535920      118.8880429929  LPSA9     35             26.0000000000
      9960       323  ARHM      H61           -17.9264056935      -17.7885923855      117.8113464147  LPSA9     35             26.0000000000
      9961       323  ARHM      H62           -17.1758923191      -17.8480656595      119.4384971612  LPSA9     35             26.0000000000
      9962       323  ARHM      H63           -18.8329727877      -18.5372303841      119.1102688561  LPSA9     35             26.0000000000
      9963       324  BMANNA    C1            -16.9223619057      -12.9714048704      121.5170368783  LPSA9     36             27.0000000000
      9964       324  BMANNA    H1            -17.4125283993      -12.0294469441      121.2586232484  LPSA9     36             27.0000000000
      9965       324  BMANNA    C5            -14.9622603659      -11.9808698246      120.7277544476  LPSA9     36             27.0000000000
      9966       324  BMANNA    H5            -15.5251904224      -11.0569835796      120.4340352947  LPSA9     36             27.0000000000
      9967       324  BMANNA    O5            -15.8025085680      -13.1320513461      120.6714794841  LPSA9     36             27.0000000000
      9968       324  BMANNA    C2            -16.4957893420      -12.8320733037      122.9448938315  LPSA9     36             27.0000000000
      9969       324  BMANNA    H2            -17.4411852163      -12.5917624810      123.5002507047  LPSA9     36             27.0000000000
      9970       324  BMANNA    N             -15.8689071758      -14.0080155837      123.4959068826  LPSA9     36             27.0000000000
      9971       324  BMANNA    HN            -15.2629162443      -14.5084919806      122.8940157944  LPSA9     36             27.0000000000
      9972       324  BMANNA    C             -15.9577146493      -14.2835098356      124.8054567777  LPSA9     36             27.0000000000
      9973       324  BMANNA    O             -16.6566844673      -13.6419363418      125.5716080310  LPSA9     36             27.0000000000
      9974       324  BMANNA    CT            -15.1149447540      -15.3963603374      125.3420620868  LPSA9     36             27.0000000000
      9975       324  BMANNA    HT1           -14.1378283066      -15.3179164116      124.8642094708  LPSA9     36             27.0000000000
      9976       324  BMANNA    HT2           -15.5391094295      -16.3901862540      125.1295340580  LPSA9     36             27.0000000000
      9977       324  BMANNA    HT3           -14.9695601974      -15.2823716498      126.4350442695  LPSA9     36             27.0000000000
      9978       324  BMANNA    C3            -15.6239530470      -11.6245532216      123.0322410726  LPSA9     36             27.0000000000
      9979       324  BMANNA    H3            -16.1972382146      -10.7859665000      122.5865352052  LPSA9     36             27.0000000000
      9980       324  BMANNA    O3            -15.2419490515      -11.3005841928      124.3692610504  LPSA9     36             27.0000000000
      9981       324  BMANNA    HO3           -15.5897603405      -10.4283544356      124.6126706162  LPSA9     36             27.0000000000
      9982       324  BMANNA    C4            -14.4480194677      -11.7704020120      122.1441686962  LPSA9     36             27.0000000000
      9983       324  BMANNA    H4            -13.7833806930      -12.5993372312      122.4618380131  LPSA9     36             27.0000000000
      9984       324  BMANNA    O4            -13.7215790342      -10.5844930556      122.2702444009  LPSA9     36             27.0000000000
      9985       324  BMANNA    HO4           -13.4641660376      -10.5578420335      123.2083927331  LPSA9     36             27.0000000000
      9986       324  BMANNA    C6            -13.9420672142      -12.2612734408      119.6870390010  LPSA9     36             27.0000000000
      9987       324  BMANNA    H61           -14.2886130103      -12.3750840243      118.6446136084  LPSA9     36             27.0000000000
      9988       324  BMANNA    H62           -13.5305568485      -11.3497518298      119.3830561385  LPSA9     36             27.0000000000
      9989       324  BMANNA    O6            -12.9179494546      -13.1664793703      120.1270660404  LPSA9     36             27.0000000000
      9990       324  BMANNA    HO6           -12.2090240825      -12.7093754658      120.6197552722  LPSA9     36             27.0000000000
      9991       325  ECLIPA    HB6S           23.8518736389       -2.8169407587       20.4175163200  LPSA10    1               0.0000000000
      9992       325  ECLIPA    OB6            25.4172217922       -2.5572353291       21.7281518143  LPSA10    1               0.0000000000
      9993       325  ECLIPA    CB6            24.5667759482       -2.0139331011       20.6980785906  LPSA10    1               0.0000000000
      9994       325  ECLIPA    HB6R           23.9808678808       -1.1543708706       21.0951158926  LPSA10    1               0.0000000000
      9995       325  ECLIPA    CB5            25.2765471348       -1.5248915559       19.4349844912  LPSA10    1               0.0000000000
      9996       325  ECLIPA    OB5            26.0552158885       -2.6438351132       18.9641292758  LPSA10    1               0.0000000000
      9997       325  ECLIPA    HB5            25.9411111324       -0.6864714997       19.7414391850  LPSA10    1               0.0000000000
      9998       325  ECLIPA    CB1            26.7973996919       -2.3355093100       17.7811360690  LPSA10    1               0.0000000000
      9999       325  ECLIPA    HB1            27.4698868205       -1.4613112894       17.9566887246  LPSA10    1               0.0000000000
     10000       325  ECLIPA    OA6            27.6215247110       -3.4043506710       17.3514817176  LPSA10    1               0.0000000000
     10001       325  ECLIPA    CA6            27.0628952510       -4.7146020807       17.5472002224  LPSA10    1               0.0000000000
     10002       325  ECLIPA    HA6R           25.9620865542       -4.6978487408       17.7401920248  LPSA10    1               0.0000000000
     10003       325  ECLIPA    HA6S           27.5809240631       -5.1632474814       18.4230238155  LPSA10    1               0.0000000000
     10004       325  ECLIPA    CB4            24.3012887749       -1.0359587252       18.3339958414  LPSA10    1               0.0000000000
     10005       325  ECLIPA    HB4            23.5639183486       -1.8316584924       18.0563012946  LPSA10    1               0.0000000000
     10006       325  ECLIPA    OB4            23.6769365280        0.1742874711       18.8246009538  LPSA10    1               0.0000000000
     10007       325  ECLIPA    PB             22.0768591697        0.2094918328       19.3100470454  LPSA10    1               0.0000000000
     10008       325  ECLIPA    OPB4           21.9266269774        1.1664544790       20.5115893838  LPSA10    1               0.0000000000
     10009       325  ECLIPA    OPB3           21.8435076651       -1.2512450390       19.6982620941  LPSA10    1               0.0000000000
     10010       325  ECLIPA    OPB2           21.2574380951        0.6849638306       18.1021154329  LPSA10    1               0.0000000000
     10011       325  ECLIPA    CB3            25.1077033582       -0.7101064355       17.0879826521  LPSA10    1               0.0000000000
     10012       325  ECLIPA    OB3            24.3248799729       -0.3521996621       15.9410947808  LPSA10    1               0.0000000000
     10013       325  ECLIPA    HB3            25.8800371319        0.0595525559       17.3334023102  LPSA10    1               0.0000000000
     10014       325  ECLIPA    C71            23.9905668922        0.9231378339       15.7688164378  LPSA10    1               0.0000000000
     10015       325  ECLIPA    O71            24.6139216293        1.8400304010       16.2807634402  LPSA10    1               0.0000000000
     10016       325  ECLIPA    C72            23.3093579907        1.0396744470       14.3789591347  LPSA10    1               0.0000000000
     10017       325  ECLIPA    H72R           23.9613734935        0.6019950827       13.5966299658  LPSA10    1               0.0000000000
     10018       325  ECLIPA    H72S           23.1321202541        2.1143169756       14.1670247395  LPSA10    1               0.0000000000
     10019       325  ECLIPA    CB2            25.8715774816       -1.9513572872       16.6653786918  LPSA10    1               0.0000000000
     10020       325  ECLIPA    HB2            25.1308110612       -2.7854206599       16.5148761149  LPSA10    1               0.0000000000
     10021       325  ECLIPA    NB2            26.6389243721       -1.6990404237       15.4521191730  LPSA10    1               0.0000000000
     10022       325  ECLIPA    HNB2           27.5619713128       -1.3566499461       15.5774243432  LPSA10    1               0.0000000000
     10023       325  ECLIPA    CA4            28.7165202276       -5.3964869660       15.7872631203  LPSA10    1               0.0000000000
     10024       325  ECLIPA    HA4            28.8023526545       -4.3218655202       15.5087941673  LPSA10    1               0.0000000000
     10025       325  ECLIPA    OA4            29.6685692258       -5.6728325109       16.8073559655  LPSA10    1               0.0000000000
     10026       325  ECLIPA    HOA4           29.3221610447       -5.2681641590       17.5957352594  LPSA10    1               0.0000000000
     10027       325  ECLIPA    CA5            27.3162024059       -5.5773048644       16.3282229000  LPSA10    1               0.0000000000
     10028       325  ECLIPA    HA5            27.0675551838       -6.6421054374       16.5630651514  LPSA10    1               0.0000000000
     10029       325  ECLIPA    OA5            26.4329277070       -5.1049301419       15.3214779525  LPSA10    1               0.0000000000
     10030       325  ECLIPA    CA1            26.5110718928       -5.8497011648       14.0990390138  LPSA10    1               0.0000000000
     10031       325  ECLIPA    HA1            25.8865163275       -5.2340240407       13.4160716426  LPSA10    1               0.0000000000
     10032       325  ECLIPA    OA1            25.9863429586       -7.1615442183       14.1670365279  LPSA10    1               0.0000000000
     10033       325  ECLIPA    OPA2           24.5590887403       -8.1572102658       16.0437324929  LPSA10    1               0.0000000000
     10034       325  ECLIPA    OPA3           23.7020368651       -6.0689980267       14.9420836473  LPSA10    1               0.0000000000
     10035       325  ECLIPA    OPA4           23.6560950430       -8.1616993591       13.7260063811  LPSA10    1               0.0000000000
     10036       325  ECLIPA    PA             24.4378247697       -7.3753596781       14.7447317629  LPSA10    1               0.0000000000
     10037       325  ECLIPA    CA3            28.9364017800       -6.1997292774       14.5285730106  LPSA10    1               0.0000000000
     10038       325  ECLIPA    HA3            28.8316211445       -7.2863075863       14.7430981035  LPSA10    1               0.0000000000
     10039       325  ECLIPA    OA3            30.3059256654       -5.9486648623       14.1603733830  LPSA10    1               0.0000000000
     10040       325  ECLIPA    C31            30.5560715614       -4.8120849450       13.5022161172  LPSA10    1               0.0000000000
     10041       325  ECLIPA    O31            30.5586992257       -4.7528023859       12.2847568287  LPSA10    1               0.0000000000
     10042       325  ECLIPA    C32            31.5632187491       -4.0036035198       14.3052725537  LPSA10    1               0.0000000000
     10043       325  ECLIPA    H32R           32.4978292940       -4.1392530180       13.7434723938  LPSA10    1               0.0000000000
     10044       325  ECLIPA    H32S           31.7667154760       -4.4408493187       15.2957917027  LPSA10    1               0.0000000000
     10045       325  ECLIPA    CA2            27.9024359570       -5.7262005260       13.5084941105  LPSA10    1               0.0000000000
     10046       325  ECLIPA    HA2            28.0440577854       -4.6320016239       13.3369461682  LPSA10    1               0.0000000000
     10047       325  ECLIPA    NA2            28.0204334446       -6.4301731044       12.2224125806  LPSA10    1               0.0000000000
     10048       325  ECLIPA    HNA2           28.8359968181       -6.9772391720       12.1191156205  LPSA10    1               0.0000000000
     10049       325  ECLIPA    C73            21.9721809616        0.2658181228       14.3518218312  LPSA10    1               0.0000000000
     10050       325  ECLIPA    H73R           21.4060627825        0.5264451734       15.2816912304  LPSA10    1               0.0000000000
     10051       325  ECLIPA    O73            22.3139177302       -1.1183241166       14.2678591593  LPSA10    1               0.0000000000
     10052       325  ECLIPA    C81            21.5615019746       -1.9943546217       14.9404918037  LPSA10    1               0.0000000000
     10053       325  ECLIPA    O81            20.5331971887       -1.6913610870       15.5269480016  LPSA10    1               0.0000000000
     10054       325  ECLIPA    C82            21.8462488344       -3.3981353788       14.3473020578  LPSA10    1               0.0000000000
     10055       325  ECLIPA    H82R           21.2314083050       -4.1502630540       14.8718870336  LPSA10    1               0.0000000000
     10056       325  ECLIPA    H82S           22.9085102558       -3.6546910274       14.5567572177  LPSA10    1               0.0000000000
     10057       325  ECLIPA    C83            21.6208773669       -3.4865360677       12.8152024331  LPSA10    1               0.0000000000
     10058       325  ECLIPA    H83R           22.5160721107       -3.0730100287       12.2934582402  LPSA10    1               0.0000000000
     10059       325  ECLIPA    H83S           20.7458632576       -2.8663739940       12.5386874167  LPSA10    1               0.0000000000
     10060       325  ECLIPA    C84            21.4614665986       -4.9247519788       12.2978995892  LPSA10    1               0.0000000000
     10061       325  ECLIPA    H84R           20.4829396804       -5.3562723356       12.5912408834  LPSA10    1               0.0000000000
     10062       325  ECLIPA    H84S           22.2865344934       -5.5263894625       12.7611060216  LPSA10    1               0.0000000000
     10063       325  ECLIPA    C85            21.6657082096       -5.0063368347       10.7789789825  LPSA10    1               0.0000000000
     10064       325  ECLIPA    H85R           22.5366177294       -4.3596709416       10.5472033717  LPSA10    1               0.0000000000
     10065       325  ECLIPA    H85S           20.7868666255       -4.5917903674       10.2399158208  LPSA10    1               0.0000000000
     10066       325  ECLIPA    C86            22.0468321284       -6.4096410234       10.2918127045  LPSA10    1               0.0000000000
     10067       325  ECLIPA    H86R           21.0948367817       -6.8810356701        9.9810730900  LPSA10    1               0.0000000000
     10068       325  ECLIPA    H86S           22.4938197180       -7.0096620501       11.1231738654  LPSA10    1               0.0000000000
     10069       325  ECLIPA    C87            23.0892021850       -6.4262048817        9.1588564994  LPSA10    1               0.0000000000
     10070       325  ECLIPA    H87R           23.2524951250       -7.4680597888        8.8021706173  LPSA10    1               0.0000000000
     10071       325  ECLIPA    H87S           24.0642316432       -6.0807787386        9.5722842238  LPSA10    1               0.0000000000
     10072       325  ECLIPA    C88            22.7122004639       -5.4832986008        8.0186046152  LPSA10    1               0.0000000000
     10073       325  ECLIPA    H88R           22.8954529302       -4.4396421894        8.3483630824  LPSA10    1               0.0000000000
     10074       325  ECLIPA    H88S           21.6090666210       -5.5434343401        7.8784199252  LPSA10    1               0.0000000000
     10075       325  ECLIPA    C89            23.4859856731       -5.7503512516        6.7150964319  LPSA10    1               0.0000000000
     10076       325  ECLIPA    H89R           24.4252895358       -6.3181302140        6.8952217326  LPSA10    1               0.0000000000
     10077       325  ECLIPA    H89S           23.8016808619       -4.7873387159        6.2591213541  LPSA10    1               0.0000000000
     10078       325  ECLIPA    C810           22.5889942409       -6.4605148175        5.6991040630  LPSA10    1               0.0000000000
     10079       325  ECLIPA    H810R          21.5471383273       -6.1509349669        5.9310279184  LPSA10    1               0.0000000000
     10080       325  ECLIPA    H810S          22.6732871484       -7.5575373525        5.8636854979  LPSA10    1               0.0000000000
     10081       325  ECLIPA    C811           22.9157318672       -6.1157718915        4.2401280771  LPSA10    1               0.0000000000
     10082       325  ECLIPA    H811R          22.5086822036       -6.8897969768        3.5512995750  LPSA10    1               0.0000000000
     10083       325  ECLIPA    H811S          24.0242605262       -6.0932094501        4.1525635804  LPSA10    1               0.0000000000
     10084       325  ECLIPA    C812           22.4169791993       -4.7480523436        3.7511652015  LPSA10    1               0.0000000000
     10085       325  ECLIPA    H812R          22.8332146711       -4.6015390988        2.7255223393  LPSA10    1               0.0000000000
     10086       325  ECLIPA    H812S          22.8010281975       -3.9511801836        4.4158211362  LPSA10    1               0.0000000000
     10087       325  ECLIPA    C813           20.9027454889       -4.5664710334        3.6913343647  LPSA10    1               0.0000000000
     10088       325  ECLIPA    H813R          20.5049159369       -5.3883032656        3.0802054537  LPSA10    1               0.0000000000
     10089       325  ECLIPA    H813S          20.4104098340       -4.7278197424        4.6700637673  LPSA10    1               0.0000000000
     10090       325  ECLIPA    C814           20.5010401626       -3.1887831024        3.1469645589  LPSA10    1               0.0000000000
     10091       325  ECLIPA    H814R          21.0671651879       -2.9047448657        2.2295251845  LPSA10    1               0.0000000000
     10092       325  ECLIPA    H814S          20.6877692922       -2.4193859642        3.9242795745  LPSA10    1               0.0000000000
     10093       325  ECLIPA    H814T          19.4204714620       -3.1806102283        2.8944234082  LPSA10    1               0.0000000000
     10094       325  ECLIPA    C74            21.0651245499        0.5627151253       13.1254458589  LPSA10    1               0.0000000000
     10095       325  ECLIPA    H74R           20.7427447478        1.6206676685       13.0365877484  LPSA10    1               0.0000000000
     10096       325  ECLIPA    H74S           20.1388844254       -0.0326521728       13.3147879751  LPSA10    1               0.0000000000
     10097       325  ECLIPA    C75            21.6314541241        0.0581011314       11.7804002715  LPSA10    1               0.0000000000
     10098       325  ECLIPA    H75R           20.7731141180       -0.3297149021       11.1897755029  LPSA10    1               0.0000000000
     10099       325  ECLIPA    H75S           22.3093127080       -0.8020575163       11.9716924618  LPSA10    1               0.0000000000
     10100       325  ECLIPA    C76            22.3988865358        1.1010182942       10.9635139370  LPSA10    1               0.0000000000
     10101       325  ECLIPA    H76R           23.4166564773        1.2325611177       11.3933209003  LPSA10    1               0.0000000000
     10102       325  ECLIPA    H76S           21.8992880278        2.0970024446       10.9944516447  LPSA10    1               0.0000000000
     10103       325  ECLIPA    C77            22.5860763743        0.7478272348        9.4846065961  LPSA10    1               0.0000000000
     10104       325  ECLIPA    H77R           21.5813837836        0.7537128591        9.0030743676  LPSA10    1               0.0000000000
     10105       325  ECLIPA    H77S           22.9649643671       -0.2738769452        9.3248721702  LPSA10    1               0.0000000000
     10106       325  ECLIPA    C78            23.6514397481        1.7238877067        8.9252147152  LPSA10    1               0.0000000000
     10107       325  ECLIPA    H78R           23.3112011240        2.7543456892        9.1763048494  LPSA10    1               0.0000000000
     10108       325  ECLIPA    H78S           24.5923198663        1.5382667617        9.4671064340  LPSA10    1               0.0000000000
     10109       325  ECLIPA    C79            24.0495539646        1.5741858879        7.4561628535  LPSA10    1               0.0000000000
     10110       325  ECLIPA    H79R           24.8928748438        0.8896457110        7.2442349172  LPSA10    1               0.0000000000
     10111       325  ECLIPA    H79S           24.2158867499        2.5487090543        6.9220884300  LPSA10    1               0.0000000000
     10112       325  ECLIPA    C710           22.8886926845        1.0929324418        6.7035978242  LPSA10    1               0.0000000000
     10113       325  ECLIPA    H710R          22.4401777750        0.1281735765        7.0304027282  LPSA10    1               0.0000000000
     10114       325  ECLIPA    H710S          22.2501943814        1.9431448453        7.1036962811  LPSA10    1               0.0000000000
     10115       325  ECLIPA    C711           23.2880454284        0.8731926901        5.2170841696  LPSA10    1               0.0000000000
     10116       325  ECLIPA    H711R          23.6834627958        1.7396847319        4.6374504412  LPSA10    1               0.0000000000
     10117       325  ECLIPA    H711S          23.9530765173        0.0093586668        5.0299956576  LPSA10    1               0.0000000000
     10118       325  ECLIPA    C712           22.0166705021        0.5804842047        4.4801996838  LPSA10    1               0.0000000000
     10119       325  ECLIPA    H712R          21.7228531347        1.6136296096        4.8889372409  LPSA10    1               0.0000000000
     10120       325  ECLIPA    H712S          21.5790110340       -0.2942206745        5.0104821713  LPSA10    1               0.0000000000
     10121       325  ECLIPA    C713           22.2151697982       -0.0014638836        3.0237802824  LPSA10    1               0.0000000000
     10122       325  ECLIPA    H713R          22.9287414164       -0.8684768426        3.0182757824  LPSA10    1               0.0000000000
     10123       325  ECLIPA    H713S          21.3258192868       -0.5035992742        2.5765893951  LPSA10    1               0.0000000000
     10124       325  ECLIPA    C714           22.6401637068        0.9596464607        1.9300211489  LPSA10    1               0.0000000000
     10125       325  ECLIPA    H714R          21.8506786527        1.7166188612        1.7848810640  LPSA10    1               0.0000000000
     10126       325  ECLIPA    H714S          23.5973982830        1.4224387255        2.2261216003  LPSA10    1               0.0000000000
     10127       325  ECLIPA    H714T          22.7834051254        0.4585100530        0.9412820917  LPSA10    1               0.0000000000
     10128       325  ECLIPA    C51            26.1118476489       -1.8573364525       14.2328155641  LPSA10    1               0.0000000000
     10129       325  ECLIPA    O51            25.0748462678       -2.4693742067       14.0693703971  LPSA10    1               0.0000000000
     10130       325  ECLIPA    C52            26.8048204867       -1.2074509949       13.0622163546  LPSA10    1               0.0000000000
     10131       325  ECLIPA    H52R           26.4271942823       -0.1678798499       12.9523674428  LPSA10    1               0.0000000000
     10132       325  ECLIPA    H52S           27.8863854867       -1.1610752498       13.2522733279  LPSA10    1               0.0000000000
     10133       325  ECLIPA    C53            26.5337960441       -1.9992582640       11.7646720653  LPSA10    1               0.0000000000
     10134       325  ECLIPA    H53R           26.4658476439       -3.0911372625       11.9859963163  LPSA10    1               0.0000000000
     10135       325  ECLIPA    O53            27.5986184911       -1.6744382238       10.8532890944  LPSA10    1               0.0000000000
     10136       325  ECLIPA    C61            28.4638517825       -2.6253327698       10.5212130693  LPSA10    1               0.0000000000
     10137       325  ECLIPA    O61            28.4235620960       -3.7824695847       10.8660826388  LPSA10    1               0.0000000000
     10138       325  ECLIPA    C62            29.5387271016       -2.0463991004        9.5885175289  LPSA10    1               0.0000000000
     10139       325  ECLIPA    H62R           30.3096937461       -1.5504732509       10.2069501139  LPSA10    1               0.0000000000
     10140       325  ECLIPA    H62S           29.0415053462       -1.2500841826        9.0053388264  LPSA10    1               0.0000000000
     10141       325  ECLIPA    C63            30.1927315870       -3.1511913349        8.7021867325  LPSA10    1               0.0000000000
     10142       325  ECLIPA    H63R           29.3752630956       -3.7718195410        8.2739303853  LPSA10    1               0.0000000000
     10143       325  ECLIPA    H63S           30.8380537779       -3.8097690509        9.3295907353  LPSA10    1               0.0000000000
     10144       325  ECLIPA    C64            31.0266668856       -2.6494484820        7.5061648918  LPSA10    1               0.0000000000
     10145       325  ECLIPA    H64R           31.5010337581       -3.5125413000        6.9859686269  LPSA10    1               0.0000000000
     10146       325  ECLIPA    H64S           31.8233146800       -1.9951786553        7.9217593646  LPSA10    1               0.0000000000
     10147       325  ECLIPA    C65            30.1435362992       -1.8658706699        6.5302049904  LPSA10    1               0.0000000000
     10148       325  ECLIPA    H65R           29.7874213954       -1.0133495398        7.1429430250  LPSA10    1               0.0000000000
     10149       325  ECLIPA    H65S           29.2682132867       -2.4770125209        6.2218422057  LPSA10    1               0.0000000000
     10150       325  ECLIPA    C66            30.7660376931       -1.2791734695        5.2539752747  LPSA10    1               0.0000000000
     10151       325  ECLIPA    H66R           31.5909328294       -0.5991942627        5.5119383611  LPSA10    1               0.0000000000
     10152       325  ECLIPA    H66S           29.9782378884       -0.6477299925        4.7877463514  LPSA10    1               0.0000000000
     10153       325  ECLIPA    C67            31.2352735822       -2.2545880375        4.1725216988  LPSA10    1               0.0000000000
     10154       325  ECLIPA    H67R           31.9451635343       -3.0206833267        4.5679001127  LPSA10    1               0.0000000000
     10155       325  ECLIPA    H67S           31.7490534802       -1.6927503825        3.3494104312  LPSA10    1               0.0000000000
     10156       325  ECLIPA    C68            30.1479297176       -3.0360958100        3.5210586358  LPSA10    1               0.0000000000
     10157       325  ECLIPA    H68R           29.3235039414       -2.4180569755        3.1162833579  LPSA10    1               0.0000000000
     10158       325  ECLIPA    H68S           29.7563113004       -3.7282613620        4.2916952993  LPSA10    1               0.0000000000
     10159       325  ECLIPA    C69            30.7235320771       -3.7504681778        2.3420046061  LPSA10    1               0.0000000000
     10160       325  ECLIPA    H69R           31.7936656712       -4.0555663673        2.4077972353  LPSA10    1               0.0000000000
     10161       325  ECLIPA    H69S           30.7115483717       -3.0043491902        1.5263827331  LPSA10    1               0.0000000000
     10162       325  ECLIPA    C610           29.8572706566       -4.9374153167        2.0641131387  LPSA10    1               0.0000000000
     10163       325  ECLIPA    H610R          28.7691239834       -4.7525920375        2.0987209746  LPSA10    1               0.0000000000
     10164       325  ECLIPA    H610S          30.1221194380       -5.7966124173        2.7370117088  LPSA10    1               0.0000000000
     10165       325  ECLIPA    C611           30.2332215907       -5.3234332240        0.7033340895  LPSA10    1               0.0000000000
     10166       325  ECLIPA    H611R          31.3005051468       -5.5362456414        0.9242108519  LPSA10    1               0.0000000000
     10167       325  ECLIPA    H611S          29.7081902416       -6.2993441446        0.5439208720  LPSA10    1               0.0000000000
     10168       325  ECLIPA    C612           30.2173745530       -4.2973719329       -0.4731369200  LPSA10    1               0.0000000000
     10169       325  ECLIPA    H612R          29.2551439326       -4.0365393812       -0.7997023179  LPSA10    1               0.0000000000
     10170       325  ECLIPA    H612S          30.3608050940       -3.2629192714       -0.2492017622  LPSA10    1               0.0000000000
     10171       325  ECLIPA    H612T          30.5380405519       -4.6008192414       -1.4788650237  LPSA10    1               0.0000000000
     10172       325  ECLIPA    C54            25.1856146134       -1.5049145846       11.1716582490  LPSA10    1               0.0000000000
     10173       325  ECLIPA    H54R           25.3232360120       -0.4420510827       10.8806821837  LPSA10    1               0.0000000000
     10174       325  ECLIPA    H54S           24.4240053042       -1.5385623409       11.9779428778  LPSA10    1               0.0000000000
     10175       325  ECLIPA    C55            24.6300477190       -2.2873721381        9.9664481403  LPSA10    1               0.0000000000
     10176       325  ECLIPA    H55R           23.5553017652       -2.0443658490        9.8243489067  LPSA10    1               0.0000000000
     10177       325  ECLIPA    H55S           24.6649769212       -3.3727697922       10.2025135861  LPSA10    1               0.0000000000
     10178       325  ECLIPA    C56            25.3883072187       -1.8946799394        8.6945838092  LPSA10    1               0.0000000000
     10179       325  ECLIPA    H56R           26.4670814744       -2.0701128688        8.8605665454  LPSA10    1               0.0000000000
     10180       325  ECLIPA    H56S           25.2608803377       -0.8042378110        8.5080377738  LPSA10    1               0.0000000000
     10181       325  ECLIPA    C57            25.0664642106       -2.6485175529        7.4119142374  LPSA10    1               0.0000000000
     10182       325  ECLIPA    H57R           23.9798674379       -2.6267268763        7.1821929784  LPSA10    1               0.0000000000
     10183       325  ECLIPA    H57S           25.3538751025       -3.7161759491        7.5440881115  LPSA10    1               0.0000000000
     10184       325  ECLIPA    C58            25.8972656030       -2.0565085366        6.2624669163  LPSA10    1               0.0000000000
     10185       325  ECLIPA    H58R           25.8381517832       -0.9489605080        6.2245566550  LPSA10    1               0.0000000000
     10186       325  ECLIPA    H58S           26.9673684469       -2.2922111900        6.4669962846  LPSA10    1               0.0000000000
     10187       325  ECLIPA    C59            25.4492728670       -2.6070049333        4.9185215186  LPSA10    1               0.0000000000
     10188       325  ECLIPA    H59R           24.3689515604       -2.4035946527        4.7274649146  LPSA10    1               0.0000000000
     10189       325  ECLIPA    H59S           25.5757740624       -3.7105129650        4.9801472857  LPSA10    1               0.0000000000
     10190       325  ECLIPA    C510           26.1870592100       -2.0174317865        3.7336437496  LPSA10    1               0.0000000000
     10191       325  ECLIPA    H510R          27.2802804640       -1.9120844805        3.8616510756  LPSA10    1               0.0000000000
     10192       325  ECLIPA    H510S          25.7860580527       -0.9836867412        3.5217433025  LPSA10    1               0.0000000000
     10193       325  ECLIPA    C511           26.0177230824       -2.9754439321        2.5449380064  LPSA10    1               0.0000000000
     10194       325  ECLIPA    H511R          26.6531398385       -3.8479158447        2.5062168653  LPSA10    1               0.0000000000
     10195       325  ECLIPA    H511S          24.9090816777       -3.1699908322        2.3435195516  LPSA10    1               0.0000000000
     10196       325  ECLIPA    C512           26.5702545876       -2.4421903180        1.2560241717  LPSA10    1               0.0000000000
     10197       325  ECLIPA    H512R          25.6412309136       -2.5498561831        0.6585602423  LPSA10    1               0.0000000000
     10198       325  ECLIPA    H512S          26.0964633561       -1.6975274430        1.7360823474  LPSA10    1               0.0000000000
     10199       325  ECLIPA    C513           28.0587764776       -1.7580685520        0.8931139140  LPSA10    1               0.0000000000
     10200       325  ECLIPA    H513R          28.4964466501       -2.7357659112        0.6909270721  LPSA10    1               0.0000000000
     10201       325  ECLIPA    H513S          28.4629732109       -1.2516468663        1.7636679494  LPSA10    1               0.0000000000
     10202       325  ECLIPA    C514           28.7173663870       -0.8069983546       -0.2964918557  LPSA10    1               0.0000000000
     10203       325  ECLIPA    H514R          28.2307261714        0.1581825642       -0.4556043079  LPSA10    1               0.0000000000
     10204       325  ECLIPA    H514S          29.7799556118       -0.7289947587       -0.4376280214  LPSA10    1               0.0000000000
     10205       325  ECLIPA    H514T          28.6879936221       -1.1909453724       -1.3310706611  LPSA10    1               0.0000000000
     10206       325  ECLIPA    C33            31.1999437628       -2.5051803347       14.4623417051  LPSA10    1               0.0000000000
     10207       325  ECLIPA    H33R           32.0770203521       -1.9717152547       14.8880657791  LPSA10    1               0.0000000000
     10208       325  ECLIPA    O33            30.2417405197       -2.3494767569       15.4742227847  LPSA10    1               0.0000000000
     10209       325  ECLIPA    HO33           30.6347837044       -2.4404023434       16.3496802287  LPSA10    1               0.0000000000
     10210       325  ECLIPA    C34            30.6778942063       -1.7807341917       13.1957770608  LPSA10    1               0.0000000000
     10211       325  ECLIPA    H34R           29.7448032329       -2.2200529663       12.8379461895  LPSA10    1               0.0000000000
     10212       325  ECLIPA    H34S           31.3283457925       -1.8971288831       12.2991956964  LPSA10    1               0.0000000000
     10213       325  ECLIPA    C35            30.5093530314       -0.2820865487       13.4225533154  LPSA10    1               0.0000000000
     10214       325  ECLIPA    H35R           31.4604816859        0.1658330236       13.7288557312  LPSA10    1               0.0000000000
     10215       325  ECLIPA    H35S           29.8049651034       -0.0943531886       14.2649896078  LPSA10    1               0.0000000000
     10216       325  ECLIPA    C36            30.0074870354        0.3744001360       12.1620820983  LPSA10    1               0.0000000000
     10217       325  ECLIPA    H36R           29.4576106162       -0.3777009586       11.5999705068  LPSA10    1               0.0000000000
     10218       325  ECLIPA    H36S           30.8016829087        0.8204138575       11.5038132966  LPSA10    1               0.0000000000
     10219       325  ECLIPA    C37            28.8755072303        1.2993621932       12.4728982921  LPSA10    1               0.0000000000
     10220       325  ECLIPA    H37R           29.3478348848        2.2686360383       12.3873033589  LPSA10    1               0.0000000000
     10221       325  ECLIPA    H37S           28.4340437495        1.2181908747       13.4722472598  LPSA10    1               0.0000000000
     10222       325  ECLIPA    C38            27.8163778846        1.4675923559       11.4934823040  LPSA10    1               0.0000000000
     10223       325  ECLIPA    H38R           26.9785607117        0.8252954419       11.3867928622  LPSA10    1               0.0000000000
     10224       325  ECLIPA    H38S           27.2168513181        2.2718611548       11.9605664961  LPSA10    1               0.0000000000
     10225       325  ECLIPA    C39            28.4842523064        1.6093782330       10.1722774342  LPSA10    1               0.0000000000
     10226       325  ECLIPA    H39R           29.2757724666        0.9084525371        9.9110276283  LPSA10    1               0.0000000000
     10227       325  ECLIPA    H39S           29.0834540594        2.5689383957       10.3403613515  LPSA10    1               0.0000000000
     10228       325  ECLIPA    C310           27.5120134621        1.2831056357        8.9681898023  LPSA10    1               0.0000000000
     10229       325  ECLIPA    H310R          27.1842823224        2.2511166487        8.8921209746  LPSA10    1               0.0000000000
     10230       325  ECLIPA    H310S          26.4535609584        1.0924088663        9.0769077772  LPSA10    1               0.0000000000
     10231       325  ECLIPA    C311           28.0449073571        1.1235298618        7.5252992136  LPSA10    1               0.0000000000
     10232       325  ECLIPA    H311R          29.1291253276        1.3531346214        7.6575329534  LPSA10    1               0.0000000000
     10233       325  ECLIPA    H311S          28.1533097289        0.1072777251        7.1879757026  LPSA10    1               0.0000000000
     10234       325  ECLIPA    C312           27.2051908634        1.7009932949        6.3099920565  LPSA10    1               0.0000000000
     10235       325  ECLIPA    H312R          26.2249392282        2.1507613897        6.4786015566  LPSA10    1               0.0000000000
     10236       325  ECLIPA    H312S          27.2923078292        2.7102942499        5.9462201331  LPSA10    1               0.0000000000
     10237       325  ECLIPA    C313           27.7874749032        1.2138054843        5.0166671333  LPSA10    1               0.0000000000
     10238       325  ECLIPA    H313R          28.8341944394        1.6308128742        4.8448955972  LPSA10    1               0.0000000000
     10239       325  ECLIPA    H313S          27.8357300617        0.1594376968        5.1469776073  LPSA10    1               0.0000000000
     10240       325  ECLIPA    C314           26.8937360210        1.4881340260        3.8619290016  LPSA10    1               0.0000000000
     10241       325  ECLIPA    H314R          27.4271868319        2.4014705374        3.8383177979  LPSA10    1               0.0000000000
     10242       325  ECLIPA    H314S          27.1659261551        1.2746397949        2.8202689035  LPSA10    1               0.0000000000
     10243       325  ECLIPA    H314T          25.8407173666        1.8016057793        4.0574672751  LPSA10    1               0.0000000000
     10244       325  ECLIPA    C11            27.0793664576       -6.5295416022       11.2534321867  LPSA10    1               0.0000000000
     10245       325  ECLIPA    O11            26.1300183666       -5.7732463771       11.0969641983  LPSA10    1               0.0000000000
     10246       325  ECLIPA    C12            27.2710689572       -7.7022714723       10.3264169858  LPSA10    1               0.0000000000
     10247       325  ECLIPA    H12R           26.5121310944       -8.4758212627       10.5522364840  LPSA10    1               0.0000000000
     10248       325  ECLIPA    H12S           28.2844409128       -8.1170186904       10.5121718524  LPSA10    1               0.0000000000
     10249       325  ECLIPA    C13            27.1851054721       -7.3072391489        8.8539374704  LPSA10    1               0.0000000000
     10250       325  ECLIPA    H13R           26.3430169605       -6.6058665228        8.6433644086  LPSA10    1               0.0000000000
     10251       325  ECLIPA    O13            26.9502722400       -8.5054585402        8.1220548989  LPSA10    1               0.0000000000
     10252       325  ECLIPA    HO13           26.5018554852       -8.3849601372        7.2806006612  LPSA10    1               0.0000000000
     10253       325  ECLIPA    C14            28.5137905476       -6.6468519876        8.4387533317  LPSA10    1               0.0000000000
     10254       325  ECLIPA    H14R           29.3672258867       -7.1395755759        8.9584759674  LPSA10    1               0.0000000000
     10255       325  ECLIPA    H14S           28.4504093980       -5.5899390643        8.7778093421  LPSA10    1               0.0000000000
     10256       325  ECLIPA    C15            28.8178666477       -6.6264644429        6.9462227046  LPSA10    1               0.0000000000
     10257       325  ECLIPA    H15R           28.7941662582       -7.6725468043        6.5686398555  LPSA10    1               0.0000000000
     10258       325  ECLIPA    H15S           29.8627711167       -6.2605005502        6.8240328987  LPSA10    1               0.0000000000
     10259       325  ECLIPA    C16            27.8364757932       -5.7328261872        6.1792732691  LPSA10    1               0.0000000000
     10260       325  ECLIPA    H16R           28.1318057796       -4.6676004201        6.2745302202  LPSA10    1               0.0000000000
     10261       325  ECLIPA    H16S           26.8322466351       -5.8072083793        6.6470919861  LPSA10    1               0.0000000000
     10262       325  ECLIPA    C17            27.7911634479       -6.1197223827        4.7015648771  LPSA10    1               0.0000000000
     10263       325  ECLIPA    H17R           28.8473272506       -6.2692720219        4.3850037463  LPSA10    1               0.0000000000
     10264       325  ECLIPA    H17S           27.3592504299       -5.3201391302        4.0638609219  LPSA10    1               0.0000000000
     10265       325  ECLIPA    C18            27.0044375879       -7.4099664923        4.4809356759  LPSA10    1               0.0000000000
     10266       325  ECLIPA    H18R           27.4710616447       -8.1961447702        5.1062478149  LPSA10    1               0.0000000000
     10267       325  ECLIPA    H18S           25.9435070109       -7.2656788013        4.7908008690  LPSA10    1               0.0000000000
     10268       325  ECLIPA    C19            27.0360561998       -7.8843610188        3.0450077377  LPSA10    1               0.0000000000
     10269       325  ECLIPA    H19R           26.5868222298       -8.8975405335        2.9516490945  LPSA10    1               0.0000000000
     10270       325  ECLIPA    H19S           28.0820609857       -7.9167585816        2.6550233341  LPSA10    1               0.0000000000
     10271       325  ECLIPA    C110           26.2540559188       -6.9780889456        2.1420542689  LPSA10    1               0.0000000000
     10272       325  ECLIPA    H110R          25.2081061526       -6.7881030912        2.4826404130  LPSA10    1               0.0000000000
     10273       325  ECLIPA    H110S          26.7638175888       -5.9926372411        2.1459396627  LPSA10    1               0.0000000000
     10274       325  ECLIPA    C111           26.2677592387       -7.6856664361        0.7808462886  LPSA10    1               0.0000000000
     10275       325  ECLIPA    H111R          27.2792752999       -7.9106507111        0.4230493461  LPSA10    1               0.0000000000
     10276       325  ECLIPA    H111S          25.6780958258       -8.6137545706        0.8672970627  LPSA10    1               0.0000000000
     10277       325  ECLIPA    C112           25.5787334887       -6.9306200705       -0.2930605133  LPSA10    1               0.0000000000
     10278       325  ECLIPA    H112R          25.0506197342       -6.5219113994        0.4542162376  LPSA10    1               0.0000000000
     10279       325  ECLIPA    H112S          25.3900136680       -5.8213151090       -0.4244860069  LPSA10    1               0.0000000000
     10280       325  ECLIPA    C113           25.7218356962       -7.4783712137       -1.6114269264  LPSA10    1               0.0000000000
     10281       325  ECLIPA    H113R          26.7963557050       -7.4016350928       -1.8733436188  LPSA10    1               0.0000000000
     10282       325  ECLIPA    H113S          25.6948241328       -8.5203384483       -1.7550958327  LPSA10    1               0.0000000000
     10283       325  ECLIPA    C114           24.8492529980       -6.8724042127       -2.5842945969  LPSA10    1               0.0000000000
     10284       325  ECLIPA    H114R          23.7841028328       -6.6000951407       -2.4887653911  LPSA10    1               0.0000000000
     10285       325  ECLIPA    H114S          25.0422581998       -5.9719890202       -2.7000868370  LPSA10    1               0.0000000000
     10286       325  ECLIPA    H114T          25.1733335509       -7.1421320932       -3.5995909411  LPSA10    1               0.0000000000
     10287       326  AKDO      C1             26.2800372168       -0.4506915887       22.4214418353  LPSA10    2               0.0000000000
     10288       326  AKDO      O11            25.6088001890        0.6121348024       22.4183183036  LPSA10    2               0.0000000000
     10289       326  AKDO      O12            27.4873738723       -0.6035106601       22.0779972452  LPSA10    2               0.0000000000
     10290       326  AKDO      C2             25.5346118226       -1.7309062668       22.8816427930  LPSA10    2               0.0000000000
     10291       326  AKDO      C6             23.5026446973       -2.5312381445       23.8705809993  LPSA10    2               0.0000000000
     10292       326  AKDO      H6             23.4537927356       -3.1190196872       22.9297528387  LPSA10    2               0.0000000000
     10293       326  AKDO      O6             24.2548732866       -1.3854891355       23.4808293403  LPSA10    2               0.0000000000
     10294       326  AKDO      C3             26.3103515705       -2.5365981200       23.9260094586  LPSA10    2               0.0000000000
     10295       326  AKDO      H31            26.5717013351       -1.8799913425       24.7856616850  LPSA10    2               0.0000000000
     10296       326  AKDO      H32            27.2567863867       -2.8757916477       23.4546139203  LPSA10    2               0.0000000000
     10297       326  AKDO      C4             25.5552493193       -3.7410907069       24.3732628149  LPSA10    2               0.0000000000
     10298       326  AKDO      H4             25.3122005723       -4.3668223633       23.4819078554  LPSA10    2               0.0000000000
     10299       326  AKDO      O4             26.2638867382       -4.4810671842       25.3736721828  LPSA10    2               0.0000000000
     10300       326  AKDO      C5             24.2348055659       -3.3339954748       24.9662537455  LPSA10    2               0.0000000000
     10301       326  AKDO      H5             23.6546799899       -4.2662867730       25.1263328710  LPSA10    2               0.0000000000
     10302       326  AKDO      O5             24.4879771806       -2.6932851225       26.2523084463  LPSA10    2               0.0000000000
     10303       326  AKDO      C7             22.0591136415       -2.1623222222       24.1694586399  LPSA10    2               0.0000000000
     10304       326  AKDO      H7             22.0751850201       -1.5439980352       25.0826850171  LPSA10    2               0.0000000000
     10305       326  AKDO      O7             21.2462691955       -3.3293876240       24.3942473141  LPSA10    2               0.0000000000
     10306       326  AKDO      HO7            20.9696418746       -3.6053663041       23.5102871082  LPSA10    2               0.0000000000
     10307       326  AKDO      C8             21.4589592300       -1.3531498534       23.0370275348  LPSA10    2               0.0000000000
     10308       326  AKDO      H81            22.1295325786       -0.4755985212       22.8524516138  LPSA10    2               0.0000000000
     10309       326  AKDO      H82            21.4713091459       -1.9647515903       22.0968371069  LPSA10    2               0.0000000000
     10310       326  AKDO      O8             20.1316930267       -0.8641638088       23.3701498183  LPSA10    2               0.0000000000
     10311       326  AKDO      HO8            20.0621174973       -0.0953888797       22.7976571028  LPSA10    2               0.0000000000
     10312       327  AKDO      C1             26.8544409899       -6.2271823350       23.7935095059  LPSA10    3               1.0000000000
     10313       327  AKDO      O11            27.3865773170       -5.9487967154       22.6786574861  LPSA10    3               1.0000000000
     10314       327  AKDO      O12            26.0608706046       -7.1690410755       24.0825610651  LPSA10    3               1.0000000000
     10315       327  AKDO      C2             27.3028745806       -5.3659416223       25.0108047671  LPSA10    3               1.0000000000
     10316       327  AKDO      C6             28.9885383135       -3.8261227387       25.7832606491  LPSA10    3               1.0000000000
     10317       327  AKDO      H6             28.2072836579       -3.0471168520       25.9729550013  LPSA10    3               1.0000000000
     10318       327  AKDO      O6             28.5545024502       -4.6954602028       24.7096551774  LPSA10    3               1.0000000000
     10319       327  AKDO      C3             27.5051508157       -6.1531648680       26.3251773322  LPSA10    3               1.0000000000
     10320       327  AKDO      H31            28.3041026170       -6.9104212019       26.1551281429  LPSA10    3               1.0000000000
     10321       327  AKDO      H32            26.5799722694       -6.7035657896       26.5994291799  LPSA10    3               1.0000000000
     10322       327  AKDO      C4             27.9175762530       -5.2241040000       27.4250093948  LPSA10    3               1.0000000000
     10323       327  AKDO      H4             27.1705062741       -4.3997984540       27.4828999859  LPSA10    3               1.0000000000
     10324       327  AKDO      O4             27.9690355633       -5.8415282216       28.6969445507  LPSA10    3               1.0000000000
     10325       327  AKDO      HO4            27.3991062333       -5.3701085461       29.3264902266  LPSA10    3               1.0000000000
     10326       327  AKDO      C5             29.2284333653       -4.6198997228       27.0519849210  LPSA10    3               1.0000000000
     10327       327  AKDO      H5             29.5388575693       -3.9491149056       27.8819267988  LPSA10    3               1.0000000000
     10328       327  AKDO      O5             30.2366712804       -5.6146630048       26.8700211113  LPSA10    3               1.0000000000
     10329       327  AKDO      HO5            29.8782302390       -6.2218636119       26.2152102435  LPSA10    3               1.0000000000
     10330       327  AKDO      C7             30.2253249393       -3.1048259013       25.3528915103  LPSA10    3               1.0000000000
     10331       327  AKDO      H7             31.0298082585       -3.8552727175       25.1511017345  LPSA10    3               1.0000000000
     10332       327  AKDO      O7             30.6498761561       -2.2403227205       26.4048619358  LPSA10    3               1.0000000000
     10333       327  AKDO      HO7            31.5149670788       -1.9149309464       26.1404738471  LPSA10    3               1.0000000000
     10334       327  AKDO      C8             29.9203328247       -2.3033963808       24.1111510957  LPSA10    3               1.0000000000
     10335       327  AKDO      H81            29.4707495682       -2.9522962976       23.3333376129  LPSA10    3               1.0000000000
     10336       327  AKDO      H82            29.1912063039       -1.4939801090       24.3279367608  LPSA10    3               1.0000000000
     10337       327  AKDO      O8             31.1153871997       -1.7535242094       23.5669546913  LPSA10    3               1.0000000000
     10338       327  AKDO      HO8            31.5753412917       -2.4925992924       23.1943880841  LPSA10    3               1.0000000000
     10339       328  AHEP      C1             23.4962114864       -2.8753681656       27.2502869694  LPSA10    4               2.0000000000
     10340       328  AHEP      H1             22.6714709114       -2.2145497982       26.9097130470  LPSA10    4               2.0000000000
     10341       328  AHEP      C5             23.7314598947       -5.1563545483       28.0059589634  LPSA10    4               2.0000000000
     10342       328  AHEP      H5             24.7357560531       -5.1336560646       27.5247292033  LPSA10    4               2.0000000000
     10343       328  AHEP      O5             22.9217725471       -4.1847476373       27.2998732009  LPSA10    4               2.0000000000
     10344       328  AHEP      C2             23.7410336916       -2.4242095740       28.7051416691  LPSA10    4               2.0000000000
     10345       328  AHEP      H2             24.2453500813       -1.4371023496       28.6832116627  LPSA10    4               2.0000000000
     10346       328  AHEP      O2             22.4900010137       -2.2054277504       29.3471636760  LPSA10    4               2.0000000000
     10347       328  AHEP      HO2            22.5491012773       -1.4373606242       29.9106762502  LPSA10    4               2.0000000000
     10348       328  AHEP      C3             24.6165765831       -3.3846461661       29.5012918204  LPSA10    4               2.0000000000
     10349       328  AHEP      H3             25.6487967168       -3.4323022772       29.0958990683  LPSA10    4               2.0000000000
     10350       328  AHEP      O3             24.6750775185       -2.9699775122       30.8820613486  LPSA10    4               2.0000000000
     10351       328  AHEP      C4             23.9461611094       -4.7485384071       29.4668927569  LPSA10    4               2.0000000000
     10352       328  AHEP      H4             22.9533476580       -4.7399698923       29.9789171947  LPSA10    4               2.0000000000
     10353       328  AHEP      O4             24.8548716935       -5.6798208239       30.0620279036  LPSA10    4               2.0000000000
     10354       328  AHEP      P4             24.4996387946       -6.4785176306       31.4935138624  LPSA10    4               2.0000000000
     10355       328  AHEP      OP42           25.8801824606       -6.6601745141       32.1335929228  LPSA10    4               2.0000000000
     10356       328  AHEP      OP43           23.8006738643       -7.7984798662       31.1081631425  LPSA10    4               2.0000000000
     10357       328  AHEP      OP44           23.6011981918       -5.5361850185       32.2787536232  LPSA10    4               2.0000000000
     10358       328  AHEP      C6             23.0976589313       -6.5460382762       27.7648239776  LPSA10    4               2.0000000000
     10359       328  AHEP      H6             23.8914569610       -7.2940017898       28.0436501222  LPSA10    4               2.0000000000
     10360       328  AHEP      O6             21.9312574492       -6.8619897530       28.5767161120  LPSA10    4               2.0000000000
     10361       328  AHEP      HO6            22.2090199071       -7.4940928303       29.2676235994  LPSA10    4               2.0000000000
     10362       328  AHEP      C7             22.7096449502       -6.6774583386       26.2614642233  LPSA10    4               2.0000000000
     10363       328  AHEP      H71            22.6345146300       -7.6434685734       25.7995982817  LPSA10    4               2.0000000000
     10364       328  AHEP      H72            23.5534155140       -6.3724156028       25.6279857446  LPSA10    4               2.0000000000
     10365       328  AHEP      O7             21.4393376653       -6.1225441727       25.8730477414  LPSA10    4               2.0000000000
     10366       328  AHEP      HO7            20.8411035670       -6.6932669526       26.3654438132  LPSA10    4               2.0000000000
     10367       329  AHEP      C1             25.9213398581       -2.6764997730       31.4622831425  LPSA10    5               3.0000000000
     10368       329  AHEP      H1             26.7188366812       -3.2939324684       30.9865799279  LPSA10    5               3.0000000000
     10369       329  AHEP      C5             25.2431858119       -0.4364708061       31.9566184045  LPSA10    5               3.0000000000
     10370       329  AHEP      H5             24.2363996051       -0.7397826384       31.5905231117  LPSA10    5               3.0000000000
     10371       329  AHEP      O5             26.2246274753       -1.2774684033       31.2928991998  LPSA10    5               3.0000000000
     10372       329  AHEP      C2             25.9215624569       -2.9888331197       32.9648269354  LPSA10    5               3.0000000000
     10373       329  AHEP      H2             25.6122395732       -4.0559942522       33.0864068482  LPSA10    5               3.0000000000
     10374       329  AHEP      O2             27.2594469147       -2.8562441247       33.4828930145  LPSA10    5               3.0000000000
     10375       329  AHEP      HO2            27.5970614014       -3.7435905069       33.6357124259  LPSA10    5               3.0000000000
     10376       329  AHEP      C3             24.9045050575       -2.1322485895       33.7266811457  LPSA10    5               3.0000000000
     10377       329  AHEP      H3             23.8878770976       -2.3459524804       33.3136601659  LPSA10    5               3.0000000000
     10378       329  AHEP      O3             24.8946283477       -2.3407543709       35.1602307455  LPSA10    5               3.0000000000
     10379       329  AHEP      C4             25.2512471436       -0.6844189155       33.4622875218  LPSA10    5               3.0000000000
     10380       329  AHEP      H4             26.2766998656       -0.4697442712       33.8464448815  LPSA10    5               3.0000000000
     10381       329  AHEP      O4             24.2426795184        0.1563126777       34.0477276203  LPSA10    5               3.0000000000
     10382       329  AHEP      P4             24.6741510471        1.1852152563       35.2802845063  LPSA10    5               3.0000000000
     10383       329  AHEP      OP42           23.2916890736        1.6374744627       35.8008791920  LPSA10    5               3.0000000000
     10384       329  AHEP      OP43           25.4852216903        2.2805383345       34.6020489575  LPSA10    5               3.0000000000
     10385       329  AHEP      OP44           25.5190081687        0.3567877053       36.2508805179  LPSA10    5               3.0000000000
     10386       329  AHEP      C6             25.4764254786        1.0297031545       31.5799093396  LPSA10    5               3.0000000000
     10387       329  AHEP      H6             24.6755608985        1.6474942104       32.0560480262  LPSA10    5               3.0000000000
     10388       329  AHEP      O6             26.7848612330        1.4575435106       32.0455682585  LPSA10    5               3.0000000000
     10389       329  AHEP      HO6            27.4290735146        1.2084048762       31.4021388362  LPSA10    5               3.0000000000
     10390       329  AHEP      C7             25.3000785355        1.2348909915       30.0853807355  LPSA10    5               3.0000000000
     10391       329  AHEP      H71            24.8153236233        2.2240404360       29.9276715789  LPSA10    5               3.0000000000
     10392       329  AHEP      H72            24.6119489109        0.4878076645       29.6294758157  LPSA10    5               3.0000000000
     10393       329  AHEP      O7             26.5675552758        1.3049549598       29.4453994322  LPSA10    5               3.0000000000
     10394       330  AHEP      C1             26.9028830088        0.1108110132       28.8290602599  LPSA10    6               4.0000000000
     10395       330  AHEP      H1             26.2205791299       -0.7195131154       29.0640281302  LPSA10    6               4.0000000000
     10396       330  AHEP      C5             27.6601067732        1.2171987246       26.9322649500  LPSA10    6               4.0000000000
     10397       330  AHEP      H5             27.4441844395        2.1480023684       27.5318912730  LPSA10    6               4.0000000000
     10398       330  AHEP      O5             26.7607963902        0.2489379598       27.4334368299  LPSA10    6               4.0000000000
     10399       330  AHEP      C2             28.2935411384       -0.3111293981       29.2678763727  LPSA10    6               4.0000000000
     10400       330  AHEP      H2             28.2879204472       -0.4168051897       30.3668932683  LPSA10    6               4.0000000000
     10401       330  AHEP      O2             28.6230357261       -1.6045330194       28.7617730266  LPSA10    6               4.0000000000
     10402       330  AHEP      HO2            28.6490317235       -2.2078191551       29.4958842054  LPSA10    6               4.0000000000
     10403       330  AHEP      C3             29.3075940745        0.7154894398       28.8889539749  LPSA10    6               4.0000000000
     10404       330  AHEP      H3             29.0383587752        1.7063463565       29.3606763023  LPSA10    6               4.0000000000
     10405       330  AHEP      O3             30.6689768925        0.4247654357       29.2986981631  LPSA10    6               4.0000000000
     10406       330  AHEP      HO3            31.0401854484        1.0720279156       29.9073757929  LPSA10    6               4.0000000000
     10407       330  AHEP      C4             29.0061969231        0.7354120616       27.3883720243  LPSA10    6               4.0000000000
     10408       330  AHEP      H4             29.2830876211       -0.2351040543       27.0076430467  LPSA10    6               4.0000000000
     10409       330  AHEP      O4             29.8964163247        0.9493624820       26.4702069443  LPSA10    6               4.0000000000
     10410       330  AHEP      HO4            29.7775455633        1.8492011692       26.8371399354  LPSA10    6               4.0000000000
     10411       330  AHEP      C6             27.5272769301        1.5966848294       25.4248723640  LPSA10    6               4.0000000000
     10412       330  AHEP      H6             28.2194913335        2.3839990223       25.0551557692  LPSA10    6               4.0000000000
     10413       330  AHEP      O6             28.0257197915        0.5993723340       24.5622301612  LPSA10    6               4.0000000000
     10414       330  AHEP      HO6            27.3651894869        0.4337552992       23.8815841046  LPSA10    6               4.0000000000
     10415       330  AHEP      C7             26.1328487367        2.1484493813       25.1396632649  LPSA10    6               4.0000000000
     10416       330  AHEP      H71            26.1000201847        2.5936869789       24.1194536598  LPSA10    6               4.0000000000
     10417       330  AHEP      H72            25.8890153232        2.9595982027       25.8680401682  LPSA10    6               4.0000000000
     10418       330  AHEP      O7             25.1111944718        1.1703842974       25.2795556573  LPSA10    6               4.0000000000
     10419       330  AHEP      HO7            24.9992146631        1.0233971739       26.2160249039  LPSA10    6               4.0000000000
     10420       331  AGLC      C1             23.9653511525       -3.2741428874       35.6527332943  LPSA10    7               4.0000000000
     10421       331  AGLC      H1             22.9792307707       -3.1512285459       35.1539382526  LPSA10    7               4.0000000000
     10422       331  AGLC      C5             25.6683415893       -4.8928859499       36.0971073463  LPSA10    7               4.0000000000
     10423       331  AGLC      H5             26.4330927300       -4.1237579380       35.8287912014  LPSA10    7               4.0000000000
     10424       331  AGLC      O5             24.4356136838       -4.5981183437       35.4270364591  LPSA10    7               4.0000000000
     10425       331  AGLC      C2             23.7148139190       -3.1990272095       37.1639035917  LPSA10    7               4.0000000000
     10426       331  AGLC      H2             23.0869062366       -4.0794555141       37.4253891353  LPSA10    7               4.0000000000
     10427       331  AGLC      O2             22.9184679221       -2.0846624485       37.5542204974  LPSA10    7               4.0000000000
     10428       331  AGLC      HO2            23.5256370547       -1.3161775164       37.5268691890  LPSA10    7               4.0000000000
     10429       331  AGLC      C3             24.9752052723       -3.3896498035       37.9773560751  LPSA10    7               4.0000000000
     10430       331  AGLC      H3             25.7263897302       -2.6491676570       37.6114438844  LPSA10    7               4.0000000000
     10431       331  AGLC      O3             24.7773167266       -3.1774738030       39.4082229105  LPSA10    7               4.0000000000
     10432       331  AGLC      C4             25.4607632923       -4.7941738712       37.6097574968  LPSA10    7               4.0000000000
     10433       331  AGLC      H4             24.6948003712       -5.5465470127       37.9242646524  LPSA10    7               4.0000000000
     10434       331  AGLC      O4             26.6852763564       -5.0690549045       38.2662432757  LPSA10    7               4.0000000000
     10435       331  AGLC      HO4            26.7093108074       -5.9416835955       38.6712745437  LPSA10    7               4.0000000000
     10436       331  AGLC      C6             26.1889649486       -6.2070453619       35.5044208176  LPSA10    7               4.0000000000
     10437       331  AGLC      H61            26.2916725470       -6.0541988063       34.4055136584  LPSA10    7               4.0000000000
     10438       331  AGLC      H62            27.2019868345       -6.4677300423       35.8877090703  LPSA10    7               4.0000000000
     10439       331  AGLC      O6             25.3395809806       -7.3394752066       35.7078516898  LPSA10    7               4.0000000000
     10440       331  AGLC      HO6            25.5481989318       -7.6701617204       36.5765960820  LPSA10    7               4.0000000000
     10441       332  AGLC      C1             25.5658156656       -2.1101128400       39.9222361239  LPSA10    8               5.0000000000
     10442       332  AGLC      H1             26.5972332613       -2.1728912288       39.5058880561  LPSA10    8               5.0000000000
     10443       332  AGLC      C5             23.7721870505       -0.4521264028       40.2171393878  LPSA10    8               5.0000000000
     10444       332  AGLC      H5             23.0390761162       -1.2189135877       39.8843353182  LPSA10    8               5.0000000000
     10445       332  AGLC      O5             25.0348900644       -0.7956491637       39.5991071625  LPSA10    8               5.0000000000
     10446       332  AGLC      C2             25.7209594192       -2.1878053870       41.4366099220  LPSA10    8               5.0000000000
     10447       332  AGLC      H2             26.4274903560       -1.3717388375       41.7021242909  LPSA10    8               5.0000000000
     10448       332  AGLC      O2             26.2825873203       -3.4084170653       41.9491543363  LPSA10    8               5.0000000000
     10449       332  AGLC      C3             24.4091394956       -1.9319528589       42.1265455297  LPSA10    8               5.0000000000
     10450       332  AGLC      H3             23.6959703600       -2.6973282206       41.7203527443  LPSA10    8               5.0000000000
     10451       332  AGLC      O3             24.5755558307       -2.1750398255       43.5430707603  LPSA10    8               5.0000000000
     10452       332  AGLC      C4             23.9416507775       -0.5481250172       41.7282156612  LPSA10    8               5.0000000000
     10453       332  AGLC      H4             24.7298410956        0.1810084511       42.0349260591  LPSA10    8               5.0000000000
     10454       332  AGLC      O4             22.7330994751       -0.1959226267       42.3850806415  LPSA10    8               5.0000000000
     10455       332  AGLC      HO4            22.1664712873       -0.9678655387       42.4210027594  LPSA10    8               5.0000000000
     10456       332  AGLC      C6             23.1827506396        0.9049504851       39.7455740307  LPSA10    8               5.0000000000
     10457       332  AGLC      H61            23.2171787131        0.9960762190       38.6317137932  LPSA10    8               5.0000000000
     10458       332  AGLC      H62            22.1004810849        0.9502467071       40.0199963677  LPSA10    8               5.0000000000
     10459       332  AGLC      O6             23.7889529264        2.0567616865       40.3533257468  LPSA10    8               5.0000000000
     10460       332  AGLC      HO6            23.3779752171        2.1622348441       41.2105220269  LPSA10    8               5.0000000000
     10461       333  AGAL      C1             27.5280916741       -3.8113098866       41.4338079293  LPSA10    9               6.0000000000
     10462       333  AGAL      H1             27.5226456389       -3.7783650329       40.3277064929  LPSA10    9               6.0000000000
     10463       333  AGAL      C5             28.8280343806       -3.0717376433       43.2858916676  LPSA10    9               6.0000000000
     10464       333  AGAL      H5             27.8356931010       -2.8719779778       43.7500197735  LPSA10    9               6.0000000000
     10465       333  AGAL      O5             28.6255899328       -2.9844849364       41.8649424942  LPSA10    9               6.0000000000
     10466       333  AGAL      C2             27.7450988284       -5.2638710625       41.8352474535  LPSA10    9               6.0000000000
     10467       333  AGAL      H2             28.7065676226       -5.5717218855       41.3641391463  LPSA10    9               6.0000000000
     10468       333  AGAL      O2             26.6955119918       -6.0501085778       41.2068534488  LPSA10    9               6.0000000000
     10469       333  AGAL      C3             27.9453783064       -5.3643775209       43.3302256306  LPSA10    9               6.0000000000
     10470       333  AGAL      H3             27.0443877181       -5.0083967497       43.8797120591  LPSA10    9               6.0000000000
     10471       333  AGAL      O3             28.1209536287       -6.7031407140       43.7334158767  LPSA10    9               6.0000000000
     10472       333  AGAL      HO3            27.5182003827       -7.2206047474       43.1873201787  LPSA10    9               6.0000000000
     10473       333  AGAL      C4             29.1574692855       -4.5034224414       43.6857322433  LPSA10    9               6.0000000000
     10474       333  AGAL      H4             29.3212547688       -4.5353129300       44.7866587367  LPSA10    9               6.0000000000
     10475       333  AGAL      O4             30.3668875530       -4.9404946074       43.0626304837  LPSA10    9               6.0000000000
     10476       333  AGAL      HO4            31.0928025340       -4.7150192587       43.6477630155  LPSA10    9               6.0000000000
     10477       333  AGAL      C6             29.7524282070       -1.9841888275       43.8481666105  LPSA10    9               6.0000000000
     10478       333  AGAL      H61            29.3314748189       -0.9826138853       43.6053464932  LPSA10    9               6.0000000000
     10479       333  AGAL      H62            29.7691920351       -2.0553689935       44.9555877178  LPSA10    9               6.0000000000
     10480       333  AGAL      O6             31.1105720463       -2.0266723649       43.4013378217  LPSA10    9               6.0000000000
     10481       333  AGAL      HO6            31.1797139654       -1.4202598806       42.6513155209  LPSA10    9               6.0000000000
     10482       334  AGAL      C1             26.0171508488       -7.1747425419       41.7542320118  LPSA10    10              7.0000000000
     10483       334  AGAL      H1             26.7315585598       -8.0233577269       41.8348284287  LPSA10    10              7.0000000000
     10484       334  AGAL      C5             24.3645816713       -5.9499073663       43.0469110865  LPSA10    10              7.0000000000
     10485       334  AGAL      H5             24.8519564624       -5.0362088183       42.6458131855  LPSA10    10              7.0000000000
     10486       334  AGAL      O5             25.3954763400       -6.9652584856       43.0560241765  LPSA10    10              7.0000000000
     10487       334  AGAL      C2             24.9302969318       -7.5607753070       40.7563764838  LPSA10    10              7.0000000000
     10488       334  AGAL      H2             24.4622910043       -8.4964568962       41.1280679754  LPSA10    10              7.0000000000
     10489       334  AGAL      O2             25.4486525892       -7.9364181670       39.4814589709  LPSA10    10              7.0000000000
     10490       334  AGAL      HO2            25.0182777168       -8.7805803323       39.2551295804  LPSA10    10              7.0000000000
     10491       334  AGAL      C3             23.8644445719       -6.4603727829       40.7012782349  LPSA10    10              7.0000000000
     10492       334  AGAL      H3             24.3808070072       -5.5068647770       40.4402599591  LPSA10    10              7.0000000000
     10493       334  AGAL      O3             22.8496266500       -6.6739432050       39.7215942069  LPSA10    10              7.0000000000
     10494       334  AGAL      HO3            22.9489388356       -6.0568215077       38.9902608567  LPSA10    10              7.0000000000
     10495       334  AGAL      C4             23.2540168997       -6.3087851930       42.0774426115  LPSA10    10              7.0000000000
     10496       334  AGAL      H4             22.5134280893       -5.4763237035       42.0782200279  LPSA10    10              7.0000000000
     10497       334  AGAL      O4             22.5720566933       -7.4918811425       42.4756793722  LPSA10    10              7.0000000000
     10498       334  AGAL      HO4            23.2538677192       -8.1570457902       42.6049100693  LPSA10    10              7.0000000000
     10499       334  AGAL      C6             23.8542325093       -5.5121936632       44.4257280705  LPSA10    10              7.0000000000
     10500       334  AGAL      H61            24.7076657302       -5.3107673620       45.0966680801  LPSA10    10              7.0000000000
     10501       334  AGAL      H62            23.2972738346       -4.5523405180       44.2824213560  LPSA10    10              7.0000000000
     10502       334  AGAL      O6             22.9938600698       -6.4357717249       45.0982631256  LPSA10    10              7.0000000000
     10503       334  AGAL      HO6            23.3557359672       -6.7273073735       45.9363934958  LPSA10    10              7.0000000000
     10504       335  BGLC      C1             24.8634632398       -1.1477870999       44.4814788986  LPSA10    11              6.0000000000
     10505       335  BGLC      H1             23.9593993823       -0.5213229637       44.6160144748  LPSA10    11              6.0000000000
     10506       335  BGLC      C5             26.3640937259        0.6054748161       45.1562933991  LPSA10    11              6.0000000000
     10507       335  BGLC      H5             25.5246573412        1.3099694773       45.4270781603  LPSA10    11              6.0000000000
     10508       335  BGLC      O5             26.0057741919       -0.3641059792       44.1300662840  LPSA10    11              6.0000000000
     10509       335  BGLC      C2             25.1909170882       -1.8621107903       45.7928814949  LPSA10    11              6.0000000000
     10510       335  BGLC      H2             26.0652537938       -2.5402146377       45.6411254024  LPSA10    11              6.0000000000
     10511       335  BGLC      O2             24.1014723445       -2.6766722507       46.1990711673  LPSA10    11              6.0000000000
     10512       335  BGLC      HO2            24.3916208322       -3.5831647137       46.3060045684  LPSA10    11              6.0000000000
     10513       335  BGLC      C3             25.5703962896       -0.9232336662       46.9147512637  LPSA10    11              6.0000000000
     10514       335  BGLC      H3             24.7027012267       -0.2701367430       47.1756541146  LPSA10    11              6.0000000000
     10515       335  BGLC      O3             26.0191456734       -1.6787630718       48.0629853169  LPSA10    11              6.0000000000
     10516       335  BGLC      C4             26.7492845356       -0.1141268503       46.4325280760  LPSA10    11              6.0000000000
     10517       335  BGLC      H4             27.5916950802       -0.7953447114       46.1844505162  LPSA10    11              6.0000000000
     10518       335  BGLC      O4             27.2018672418        0.7640176695       47.4472258297  LPSA10    11              6.0000000000
     10519       335  BGLC      HO4            27.6282822429        0.2526267801       48.1447163191  LPSA10    11              6.0000000000
     10520       335  BGLC      C6             27.3862920135        1.4478138857       44.4953667596  LPSA10    11              6.0000000000
     10521       335  BGLC      H61            27.9684282954        2.0820079353       45.2313577811  LPSA10    11              6.0000000000
     10522       335  BGLC      H62            28.1581338388        0.9178936069       43.8998922642  LPSA10    11              6.0000000000
     10523       335  BGLC      O6             26.5939260055        2.2499805694       43.6143065920  LPSA10    11              6.0000000000
     10524       335  BGLC      HO6            26.8617793570        3.1204283096       43.9669920255  LPSA10    11              6.0000000000
     10525       336  BGLCNA    C1             25.4021416499       -1.4540846681       49.3164689468  LPSA10    12              7.0000000000
     10526       336  BGLCNA    H1             24.4565461389       -2.0352772925       49.3699853263  LPSA10    12              7.0000000000
     10527       336  BGLCNA    C5             24.5259471399        0.1044409329       50.8790767466  LPSA10    12              7.0000000000
     10528       336  BGLCNA    H5             23.5710610011       -0.4685586750       50.9623210286  LPSA10    12              7.0000000000
     10529       336  BGLCNA    O5             25.1286777711       -0.0849488439       49.5817504132  LPSA10    12              7.0000000000
     10530       336  BGLCNA    C2             26.3966400175       -1.9610199675       50.3511344631  LPSA10    12              7.0000000000
     10531       336  BGLCNA    H2             27.2781507754       -1.2627391072       50.2975573089  LPSA10    12              7.0000000000
     10532       336  BGLCNA    N              26.7672866557       -3.3210497223       50.0496419376  LPSA10    12              7.0000000000
     10533       336  BGLCNA    HN             26.0105901387       -3.9558430531       49.9670441474  LPSA10    12              7.0000000000
     10534       336  BGLCNA    C              28.0426018680       -3.7023457350       49.9130850962  LPSA10    12              7.0000000000
     10535       336  BGLCNA    O              28.9727765785       -2.9268044561       50.0843553377  LPSA10    12              7.0000000000
     10536       336  BGLCNA    CT             28.2901890166       -5.1406887786       49.5440747046  LPSA10    12              7.0000000000
     10537       336  BGLCNA    HT1            28.7469111579       -5.6778209640       50.4001842437  LPSA10    12              7.0000000000
     10538       336  BGLCNA    HT2            29.0284505841       -5.2107904753       48.7165096962  LPSA10    12              7.0000000000
     10539       336  BGLCNA    HT3            27.3401928431       -5.6216118110       49.2395473507  LPSA10    12              7.0000000000
     10540       336  BGLCNA    C3             25.8472510259       -1.8540910854       51.7597397869  LPSA10    12              7.0000000000
     10541       336  BGLCNA    H3             24.9235312133       -2.4760189785       51.8082156551  LPSA10    12              7.0000000000
     10542       336  BGLCNA    O3             26.7697316511       -2.3721085429       52.7629838156  LPSA10    12              7.0000000000
     10543       336  BGLCNA    C4             25.5080297081       -0.3846681502       51.9499557812  LPSA10    12              7.0000000000
     10544       336  BGLCNA    H4             26.4232991150        0.2417375152       51.8668566149  LPSA10    12              7.0000000000
     10545       336  BGLCNA    O4             25.0035072328       -0.1568993265       53.2448753337  LPSA10    12              7.0000000000
     10546       336  BGLCNA    HO4            24.1173227993       -0.5403940127       53.3064587995  LPSA10    12              7.0000000000
     10547       336  BGLCNA    C6             24.1822236527        1.5757020149       50.9574168993  LPSA10    12              7.0000000000
     10548       336  BGLCNA    H61            23.7262031352        1.8431157331       51.9317298574  LPSA10    12              7.0000000000
     10549       336  BGLCNA    H62            25.1157223433        2.1667643326       50.8356764423  LPSA10    12              7.0000000000
     10550       336  BGLCNA    O6             23.2793557266        1.9609412717       49.9217941417  LPSA10    12              7.0000000000
     10551       336  BGLCNA    HO6            22.3653029640        1.7925818651       50.1617364697  LPSA10    12              7.0000000000
     10552       337  AGAL      C1             26.1700915747       -3.1002042142       53.8373719844  LPSA10    13              8.0000000000
     10553       337  AGAL      H1             25.2271216519       -2.5876927780       54.1520327430  LPSA10    13              8.0000000000
     10554       337  AGAL      C5             27.1444239165       -5.2307045268       53.2690367139  LPSA10    13              8.0000000000
     10555       337  AGAL      H5             27.7370261693       -4.6293315324       52.5429072649  LPSA10    13              8.0000000000
     10556       337  AGAL      O5             25.9161637723       -4.4802608030       53.4703104519  LPSA10    13              8.0000000000
     10557       337  AGAL      C2             27.0255953285       -3.1870715758       55.1086265838  LPSA10    13              8.0000000000
     10558       337  AGAL      H2             26.4597310549       -3.8554518781       55.8024644512  LPSA10    13              8.0000000000
     10559       337  AGAL      O2             27.1257772469       -1.9041548529       55.7451857462  LPSA10    13              8.0000000000
     10560       337  AGAL      C3             28.3430646949       -3.9233269534       54.8993705498  LPSA10    13              8.0000000000
     10561       337  AGAL      H3             28.8693025185       -3.4683740776       54.0263112971  LPSA10    13              8.0000000000
     10562       337  AGAL      O3             29.2329644880       -3.8423651199       56.0085687339  LPSA10    13              8.0000000000
     10563       337  AGAL      HO3            30.1304094893       -3.6934180553       55.6777702311  LPSA10    13              8.0000000000
     10564       337  AGAL      C4             28.0149401389       -5.3418993954       54.5190736735  LPSA10    13              8.0000000000
     10565       337  AGAL      H4             28.9637275880       -5.8518224770       54.2326397891  LPSA10    13              8.0000000000
     10566       337  AGAL      O4             27.4337141467       -6.1081139025       55.5843255583  LPSA10    13              8.0000000000
     10567       337  AGAL      HO4            26.7369806219       -5.6035403293       56.0114934163  LPSA10    13              8.0000000000
     10568       337  AGAL      C6             26.9893263955       -6.5571420790       52.5529198225  LPSA10    13              8.0000000000
     10569       337  AGAL      H61            26.4288630935       -6.3973007557       51.6054565921  LPSA10    13              8.0000000000
     10570       337  AGAL      H62            28.0087607471       -6.9442845691       52.3099074005  LPSA10    13              8.0000000000
     10571       337  AGAL      O6             26.3197376802       -7.5432444354       53.3265439859  LPSA10    13              8.0000000000
     10572       337  AGAL      HO6            26.9377148144       -7.9659150230       53.9585296417  LPSA10    13              8.0000000000
     10573       338  ARHM      C1             26.4866966659       -1.7623078622       57.0024602742  LPSA10    14              9.0000000000
     10574       338  ARHM      H1             25.6302489558       -2.4608950844       57.0601689954  LPSA10    14              9.0000000000
     10575       338  ARHM      C5             27.0437800800        0.5307937481       57.1716018392  LPSA10    14              9.0000000000
     10576       338  ARHM      H5             27.5810489291        0.4242567633       56.2043934980  LPSA10    14              9.0000000000
     10577       338  ARHM      O5             25.9828703241       -0.4352165315       57.1935346688  LPSA10    14              9.0000000000
     10578       338  ARHM      C2             27.4684259694       -2.1041176775       58.1061271184  LPSA10    14              9.0000000000
     10579       338  ARHM      H2             27.8536729741       -3.1328918586       57.9307113480  LPSA10    14              9.0000000000
     10580       338  ARHM      O2             26.9615380065       -2.0157037665       59.4498449307  LPSA10    14              9.0000000000
     10581       338  ARHM      C3             28.5994446907       -1.1157997799       58.0524282801  LPSA10    14              9.0000000000
     10582       338  ARHM      H3             29.0131475632       -1.0946940058       57.0194345358  LPSA10    14              9.0000000000
     10583       338  ARHM      O3             29.6855992787       -1.4978478173       58.8895782153  LPSA10    14              9.0000000000
     10584       338  ARHM      HO3            29.4247052106       -1.3617126548       59.7985465055  LPSA10    14              9.0000000000
     10585       338  ARHM      C4             28.0302929093        0.2702823320       58.3139569525  LPSA10    14              9.0000000000
     10586       338  ARHM      H4             27.4504354790        0.3055193372       59.2697038415  LPSA10    14              9.0000000000
     10587       338  ARHM      O4             29.0410404741        1.2788990644       58.3660808757  LPSA10    14              9.0000000000
     10588       338  ARHM      HO4            29.1965570648        1.5831868385       59.2672409071  LPSA10    14              9.0000000000
     10589       338  ARHM      C6             26.4047680720        1.9217714808       57.2279337420  LPSA10    14              9.0000000000
     10590       338  ARHM      H61            25.5095109601        2.0047227501       56.5854740230  LPSA10    14              9.0000000000
     10591       338  ARHM      H62            26.1402855247        2.1031269911       58.2763769237  LPSA10    14              9.0000000000
     10592       338  ARHM      H63            27.0985805977        2.7298181381       56.9444914369  LPSA10    14              9.0000000000
     10593       339  ARHM      C1             25.7925490972       -2.7372832232       59.7442075186  LPSA10    15             10.0000000000
     10594       339  ARHM      H1             25.6846754953       -3.5933800738       59.0399893458  LPSA10    15             10.0000000000
     10595       339  ARHM      C5             24.5400891656       -0.8511858795       60.6455083064  LPSA10    15             10.0000000000
     10596       339  ARHM      H5             25.3411950071       -0.1011220029       60.4447841787  LPSA10    15             10.0000000000
     10597       339  ARHM      O5             24.5951656949       -1.9219196450       59.6852285683  LPSA10    15             10.0000000000
     10598       339  ARHM      C2             25.9284108743       -3.3136601947       61.1404603555  LPSA10    15             10.0000000000
     10599       339  ARHM      H2             26.8873904159       -3.8822946174       61.2061797974  LPSA10    15             10.0000000000
     10600       339  ARHM      O2             24.8192489512       -4.2199117119       61.3105737533  LPSA10    15             10.0000000000
     10601       339  ARHM      C3             25.9699104421       -2.1850663197       62.1334837906  LPSA10    15             10.0000000000
     10602       339  ARHM      H3             26.7842618561       -1.4825097772       61.8365234880  LPSA10    15             10.0000000000
     10603       339  ARHM      O3             26.2902802085       -2.7321470707       63.4104953488  LPSA10    15             10.0000000000
     10604       339  ARHM      C4             24.6631499438       -1.4313465109       62.0377498282  LPSA10    15             10.0000000000
     10605       339  ARHM      H4             23.8262619394       -2.1582705819       62.1599649867  LPSA10    15             10.0000000000
     10606       339  ARHM      O4             24.4786886318       -0.4129760210       63.0161402952  LPSA10    15             10.0000000000
     10607       339  ARHM      HO4            23.5538591853       -0.1465212353       62.9121425144  LPSA10    15             10.0000000000
     10608       339  ARHM      C6             23.1883388024       -0.1342791299       60.4729818734  LPSA10    15             10.0000000000
     10609       339  ARHM      H61            23.1106576464        0.8115977620       61.0463406764  LPSA10    15             10.0000000000
     10610       339  ARHM      H62            23.0285024052        0.0570656450       59.3924225272  LPSA10    15             10.0000000000
     10611       339  ARHM      H63            22.3610707504       -0.7412024379       60.8451297902  LPSA10    15             10.0000000000
     10612       340  BMANNA    C1             24.6664001856       -4.9418813118       62.5111502396  LPSA10    16             11.0000000000
     10613       340  BMANNA    H1             24.3772418987       -4.2275663996       63.3167397573  LPSA10    16             11.0000000000
     10614       340  BMANNA    C5             25.6461329053       -6.3105781256       64.2068205018  LPSA10    16             11.0000000000
     10615       340  BMANNA    H5             25.3298446781       -5.5398544482       64.9552972633  LPSA10    16             11.0000000000
     10616       340  BMANNA    O5             25.8355161905       -5.6639329545       62.9255485802  LPSA10    16             11.0000000000
     10617       340  BMANNA    C2             23.5210205146       -5.9347495869       62.3162629267  LPSA10    16             11.0000000000
     10618       340  BMANNA    H2             22.6235273917       -5.3305382615       62.0321615379  LPSA10    16             11.0000000000
     10619       340  BMANNA    N              23.7320944837       -6.9210779975       61.2655764076  LPSA10    16             11.0000000000
     10620       340  BMANNA    HN             24.1369848641       -7.7797537583       61.5419579042  LPSA10    16             11.0000000000
     10621       340  BMANNA    C              23.3483227039       -6.7749439893       59.9918321015  LPSA10    16             11.0000000000
     10622       340  BMANNA    O              22.7606418375       -5.7837903029       59.5713530519  LPSA10    16             11.0000000000
     10623       340  BMANNA    CT             23.7292683583       -7.9183959206       59.0844793680  LPSA10    16             11.0000000000
     10624       340  BMANNA    HT1            22.8346120555       -8.4987046071       58.8593602997  LPSA10    16             11.0000000000
     10625       340  BMANNA    HT2            24.4831094215       -8.5888169165       59.5393772621  LPSA10    16             11.0000000000
     10626       340  BMANNA    HT3            24.0988318825       -7.5425795490       58.1137006249  LPSA10    16             11.0000000000
     10627       340  BMANNA    C3             23.2755523848       -6.6213012095       63.6515771796  LPSA10    16             11.0000000000
     10628       340  BMANNA    H3             23.0341536496       -5.8298955210       64.3965960708  LPSA10    16             11.0000000000
     10629       340  BMANNA    O3             22.1496444838       -7.4863546124       63.5967740792  LPSA10    16             11.0000000000
     10630       340  BMANNA    HO3            21.5428906072       -7.2672636865       64.3090037714  LPSA10    16             11.0000000000
     10631       340  BMANNA    C4             24.5354906193       -7.3426491674       64.1188274379  LPSA10    16             11.0000000000
     10632       340  BMANNA    H4             24.8190331466       -8.1192049398       63.3745837216  LPSA10    16             11.0000000000
     10633       340  BMANNA    O4             24.3881981446       -8.0297008189       65.3651962702  LPSA10    16             11.0000000000
     10634       340  BMANNA    HO4            25.0613586382       -8.7120655698       65.4447128306  LPSA10    16             11.0000000000
     10635       340  BMANNA    C6             26.9152610653       -6.9245730956       64.7708878233  LPSA10    16             11.0000000000
     10636       340  BMANNA    H61            26.8465520798       -6.9038986358       65.8819554368  LPSA10    16             11.0000000000
     10637       340  BMANNA    H62            26.9994155781       -7.9787745960       64.4401616179  LPSA10    16             11.0000000000
     10638       340  BMANNA    O6             28.1124774554       -6.2624093365       64.3986153892  LPSA10    16             11.0000000000
     10639       340  BMANNA    HO6            28.6573948124       -6.8409146152       63.8546418614  LPSA10    16             11.0000000000
     10640       341  BGLCNA    C1             27.2099503037       -1.9767470551       64.1446377836  LPSA10    17             11.0000000000
     10641       341  BGLCNA    H1             26.9745094568       -0.9028803321       63.9844945796  LPSA10    17             11.0000000000
     10642       341  BGLCNA    C5             29.5149483161       -1.4552674340       64.5586409330  LPSA10    17             11.0000000000
     10643       341  BGLCNA    H5             29.3545385559       -0.3659811767       64.3540290900  LPSA10    17             11.0000000000
     10644       341  BGLCNA    O5             28.5745797531       -2.2144576814       63.7747603258  LPSA10    17             11.0000000000
     10645       341  BGLCNA    C2             26.9566769724       -2.3956863673       65.5807659692  LPSA10    17             11.0000000000
     10646       341  BGLCNA    H2             27.2461546819       -3.4649650381       65.7476368115  LPSA10    17             11.0000000000
     10647       341  BGLCNA    N              25.5389275699       -2.2895633441       65.8811318270  LPSA10    17             11.0000000000
     10648       341  BGLCNA    HN             25.0499206701       -1.6063140804       65.3604678618  LPSA10    17             11.0000000000
     10649       341  BGLCNA    C              24.8706423260       -2.9699979858       66.8165503046  LPSA10    17             11.0000000000
     10650       341  BGLCNA    O              25.3215022262       -3.8836739044       67.4904896270  LPSA10    17             11.0000000000
     10651       341  BGLCNA    CT             23.4561839259       -2.4882075841       67.0317443569  LPSA10    17             11.0000000000
     10652       341  BGLCNA    HT1            22.7034495591       -3.1185091352       66.5165034639  LPSA10    17             11.0000000000
     10653       341  BGLCNA    HT2            23.3852170429       -1.4425176631       66.6727070668  LPSA10    17             11.0000000000
     10654       341  BGLCNA    HT3            23.2324384981       -2.4823027464       68.1177982033  LPSA10    17             11.0000000000
     10655       341  BGLCNA    C3             27.8424612049       -1.5051674087       66.4328038237  LPSA10    17             11.0000000000
     10656       341  BGLCNA    H3             27.6098520858       -0.4689932060       66.0952988601  LPSA10    17             11.0000000000
     10657       341  BGLCNA    O3             27.4688836196       -1.6178879513       67.8310881027  LPSA10    17             11.0000000000
     10658       341  BGLCNA    C4             29.2948012480       -1.7970256205       66.0406634529  LPSA10    17             11.0000000000
     10659       341  BGLCNA    H4             29.4866184087       -2.8947941936       66.1448513094  LPSA10    17             11.0000000000
     10660       341  BGLCNA    O4             30.2235725761       -1.0898373558       66.8614319287  LPSA10    17             11.0000000000
     10661       341  BGLCNA    HO4            31.1251729169       -1.3753123285       66.7163064406  LPSA10    17             11.0000000000
     10662       341  BGLCNA    C6             30.9334780437       -1.8122422374       64.1064362279  LPSA10    17             11.0000000000
     10663       341  BGLCNA    H61            31.5995003825       -0.9520427773       64.0931451864  LPSA10    17             11.0000000000
     10664       341  BGLCNA    H62            31.3847744567       -2.5519029137       64.8055677857  LPSA10    17             11.0000000000
     10665       341  BGLCNA    O6             31.0347596043       -2.3039629208       62.7801064155  LPSA10    17             11.0000000000
     10666       341  BGLCNA    HO6            30.6655374500       -1.6776713977       62.1522839611  LPSA10    17             11.0000000000
     10667       342  AGAL      C1             27.5702327589       -0.4463932017       68.6188885173  LPSA10    18             12.0000000000
     10668       342  AGAL      H1             28.6465613762       -0.2391950431       68.8080498392  LPSA10    18             12.0000000000
     10669       342  AGAL      C5             25.5644012411        0.5800633294       67.8516203855  LPSA10    18             12.0000000000
     10670       342  AGAL      H5             25.3544827436       -0.4067874974       67.4061415676  LPSA10    18             12.0000000000
     10671       342  AGAL      O5             26.9889337067        0.6975012212       67.9778659601  LPSA10    18             12.0000000000
     10672       342  AGAL      C2             26.8749970098       -0.5536542876       69.9694457137  LPSA10    18             12.0000000000
     10673       342  AGAL      H2             27.0244103090        0.4682164928       70.3968600480  LPSA10    18             12.0000000000
     10674       342  AGAL      O2             27.5043418278       -1.4670102300       70.8731829825  LPSA10    18             12.0000000000
     10675       342  AGAL      C3             25.3645443104       -0.7361963874       69.8471967323  LPSA10    18             12.0000000000
     10676       342  AGAL      H3             25.1716064006       -1.6002649442       69.1693039587  LPSA10    18             12.0000000000
     10677       342  AGAL      O3             24.7220406479       -1.0513103968       71.0860694353  LPSA10    18             12.0000000000
     10678       342  AGAL      HO3            24.0881930975       -1.7662753055       70.9704860580  LPSA10    18             12.0000000000
     10679       342  AGAL      C4             24.8086433219        0.5083368298       69.1703998400  LPSA10    18             12.0000000000
     10680       342  AGAL      H4             23.7333425877        0.3760133724       68.9512364205  LPSA10    18             12.0000000000
     10681       342  AGAL      O4             24.9146439051        1.6989226760       69.9356681101  LPSA10    18             12.0000000000
     10682       342  AGAL      HO4            24.3570443342        1.6198458586       70.7159826565  LPSA10    18             12.0000000000
     10683       342  AGAL      C6             25.0851472058        1.5068690009       66.7748583886  LPSA10    18             12.0000000000
     10684       342  AGAL      H61            25.5969094495        1.1806558495       65.8391067288  LPSA10    18             12.0000000000
     10685       342  AGAL      H62            23.9906354095        1.3789950560       66.6356382475  LPSA10    18             12.0000000000
     10686       342  AGAL      O6             25.3913412463        2.8767840951       67.0084526965  LPSA10    18             12.0000000000
     10687       342  AGAL      HO6            26.0825532157        2.9383352867       67.6934872060  LPSA10    18             12.0000000000
     10688       343  ARHM      C1             27.5680434916       -0.8977510280       72.1628685136  LPSA10    19             13.0000000000
     10689       343  ARHM      H1             26.7132137865       -0.2111414989       72.3466522376  LPSA10    19             13.0000000000
     10690       343  ARHM      C5             29.9480274595       -0.8477243380       72.2570931160  LPSA10    19             13.0000000000
     10691       343  ARHM      H5             29.9260020076       -1.2646570353       71.2202368851  LPSA10    19             13.0000000000
     10692       343  ARHM      O5             28.7394216104       -0.1110251086       72.4212725290  LPSA10    19             13.0000000000
     10693       343  ARHM      C2             27.5539406645       -2.0565432147       73.1141383471  LPSA10    19             13.0000000000
     10694       343  ARHM      H2             26.7097519589       -2.7495826530       72.8710056398  LPSA10    19             13.0000000000
     10695       343  ARHM      O2             27.3677646775       -1.6008777590       74.4592739610  LPSA10    19             13.0000000000
     10696       343  ARHM      C3             28.8157183562       -2.8618218627       72.9646198033  LPSA10    19             13.0000000000
     10697       343  ARHM      H3             28.9184109132       -3.2036398825       71.9072415636  LPSA10    19             13.0000000000
     10698       343  ARHM      O3             28.7304832691       -4.0156346010       73.7822009905  LPSA10    19             13.0000000000
     10699       343  ARHM      HO3            28.6027675020       -3.7202968265       74.6888458414  LPSA10    19             13.0000000000
     10700       343  ARHM      C4             30.0078104954       -1.9815954715       73.2501370063  LPSA10    19             13.0000000000
     10701       343  ARHM      H4             29.9257674951       -1.5891318877       74.2910912786  LPSA10    19             13.0000000000
     10702       343  ARHM      O4             31.2539414658       -2.6525638898       73.1448076150  LPSA10    19             13.0000000000
     10703       343  ARHM      HO4            31.3683757856       -2.9742308683       72.2447205637  LPSA10    19             13.0000000000
     10704       343  ARHM      C6             31.1445046149        0.1106340992       72.2980184045  LPSA10    19             13.0000000000
     10705       343  ARHM      H61            30.9318872778        0.8423452064       71.5054415361  LPSA10    19             13.0000000000
     10706       343  ARHM      H62            31.2610125948        0.6526306014       73.2558697122  LPSA10    19             13.0000000000
     10707       343  ARHM      H63            32.0925859256       -0.4221837711       72.0736808336  LPSA10    19             13.0000000000
     10708       344  ARHM      C1             26.0554449018       -1.1584972426       74.7035070842  LPSA10    20             14.0000000000
     10709       344  ARHM      H1             25.3719934420       -1.4503788450       73.8729524338  LPSA10    20             14.0000000000
     10710       344  ARHM      C5             26.6495081585        0.7539934952       75.9614102847  LPSA10    20             14.0000000000
     10711       344  ARHM      H5             27.7198901380        0.4760873882       75.8128243005  LPSA10    20             14.0000000000
     10712       344  ARHM      O5             25.9133895971        0.2620935214       74.8423818547  LPSA10    20             14.0000000000
     10713       344  ARHM      C2             25.6055192266       -1.8655745389       75.9494555993  LPSA10    20             14.0000000000
     10714       344  ARHM      H2             25.8255580175       -2.9620505114       75.8480048305  LPSA10    20             14.0000000000
     10715       344  ARHM      O2             24.2081219340       -1.6594389039       76.1512140474  LPSA10    20             14.0000000000
     10716       344  ARHM      C3             26.3600236068       -1.3724895947       77.1308227446  LPSA10    20             14.0000000000
     10717       344  ARHM      H3             27.4477316550       -1.5618230812       76.9636052446  LPSA10    20             14.0000000000
     10718       344  ARHM      O3             25.9016784711       -2.1020538958       78.2701409072  LPSA10    20             14.0000000000
     10719       344  ARHM      C4             26.1450445615        0.1069875908       77.2429140430  LPSA10    20             14.0000000000
     10720       344  ARHM      H4             25.0673306091        0.3790442232       77.3333962988  LPSA10    20             14.0000000000
     10721       344  ARHM      O4             26.8443213053        0.6317538157       78.3595391301  LPSA10    20             14.0000000000
     10722       344  ARHM      HO4            27.0131700164        1.5319591260       78.0777033164  LPSA10    20             14.0000000000
     10723       344  ARHM      C6             26.5559412965        2.2911268238       75.9766064489  LPSA10    20             14.0000000000
     10724       344  ARHM      H61            25.5253556151        2.6814307912       76.0952157671  LPSA10    20             14.0000000000
     10725       344  ARHM      H62            27.2094628095        2.6935393001       76.7721609879  LPSA10    20             14.0000000000
     10726       344  ARHM      H63            26.9215629575        2.6813891631       75.0168207507  LPSA10    20             14.0000000000
     10727       345  BMANNA    C1             23.4592995951       -2.5666824501       75.4099274715  LPSA10    21             15.0000000000
     10728       345  BMANNA    H1             24.1352897285       -3.1216792121       74.7231212961  LPSA10    21             15.0000000000
     10729       345  BMANNA    C5             21.9504089253       -2.9123957285       73.6458723373  LPSA10    21             15.0000000000
     10730       345  BMANNA    H5             22.7466060075       -3.4817594312       73.1051983237  LPSA10    21             15.0000000000
     10731       345  BMANNA    O5             22.5577857647       -1.9338345138       74.5025700662  LPSA10    21             15.0000000000
     10732       345  BMANNA    C2             22.7539665717       -3.5328227225       76.3504364158  LPSA10    21             15.0000000000
     10733       345  BMANNA    H2             23.5802491210       -4.0222537531       76.9323342836  LPSA10    21             15.0000000000
     10734       345  BMANNA    N              21.8165269778       -2.9108514273       77.2887746678  LPSA10    21             15.0000000000
     10735       345  BMANNA    HN             21.2833192459       -2.1575410080       76.9120017564  LPSA10    21             15.0000000000
     10736       345  BMANNA    C              21.6557547390       -3.2714282529       78.5820803089  LPSA10    21             15.0000000000
     10737       345  BMANNA    O              22.1218463360       -4.3092035165       79.0299741745  LPSA10    21             15.0000000000
     10738       345  BMANNA    CT             20.8251663633       -2.3783386708       79.4747829000  LPSA10    21             15.0000000000
     10739       345  BMANNA    HT1            19.7448601145       -2.5279450444       79.2815702042  LPSA10    21             15.0000000000
     10740       345  BMANNA    HT2            21.1078989386       -1.3198587272       79.3111564317  LPSA10    21             15.0000000000
     10741       345  BMANNA    HT3            21.0177009849       -2.6066119529       80.5437302548  LPSA10    21             15.0000000000
     10742       345  BMANNA    C3             22.1194386423       -4.5758526345       75.4669857150  LPSA10    21             15.0000000000
     10743       345  BMANNA    H3             22.9613630420       -5.0837206703       74.9348724556  LPSA10    21             15.0000000000
     10744       345  BMANNA    O3             21.4080265480       -5.5460005286       76.2213461088  LPSA10    21             15.0000000000
     10745       345  BMANNA    HO3            20.8172264675       -5.0884844680       76.8185113554  LPSA10    21             15.0000000000
     10746       345  BMANNA    C4             21.1910832779       -3.9216372839       74.4698163147  LPSA10    21             15.0000000000
     10747       345  BMANNA    H4             20.3904404423       -3.4168300797       75.0376134568  LPSA10    21             15.0000000000
     10748       345  BMANNA    O4             20.5726919940       -4.8413539488       73.5814127931  LPSA10    21             15.0000000000
     10749       345  BMANNA    HO4            19.6159093617       -4.8889235804       73.6911092680  LPSA10    21             15.0000000000
     10750       345  BMANNA    C6             21.0950227026       -2.2669070696       72.5769292047  LPSA10    21             15.0000000000
     10751       345  BMANNA    H61            20.8414036949       -2.9962017274       71.7836974576  LPSA10    21             15.0000000000
     10752       345  BMANNA    H62            20.1261458529       -2.0057804020       72.9793734150  LPSA10    21             15.0000000000
     10753       345  BMANNA    O6             21.6465406916       -1.0705952784       72.0321815271  LPSA10    21             15.0000000000
     10754       345  BMANNA    HO6            21.8019582174       -0.4712540082       72.7819970849  LPSA10    21             15.0000000000
     10755       346  BGLCNA    C1             26.8744612825       -2.3983456010       79.2382349202  LPSA10    22             15.0000000000
     10756       346  BGLCNA    H1             27.6985551025       -1.6526598941       79.2421042241  LPSA10    22             15.0000000000
     10757       346  BGLCNA    C5             28.3530057159       -4.0322164478       80.0955292056  LPSA10    22             15.0000000000
     10758       346  BGLCNA    H5             29.1506928527       -3.2452705400       80.1107158363  LPSA10    22             15.0000000000
     10759       346  BGLCNA    O5             27.4074076744       -3.7126737486       79.0601888329  LPSA10    22             15.0000000000
     10760       346  BGLCNA    C2             26.1368473446       -2.3391101048       80.5466296457  LPSA10    22             15.0000000000
     10761       346  BGLCNA    H2             25.3178716932       -3.1079869113       80.5005122293  LPSA10    22             15.0000000000
     10762       346  BGLCNA    N              25.5645742800       -1.0261750065       80.7218683072  LPSA10    22             15.0000000000
     10763       346  BGLCNA    HN             26.1036443874       -0.2717456277       80.3798254595  LPSA10    22             15.0000000000
     10764       346  BGLCNA    C              24.4086920608       -0.7793008429       81.3361600861  LPSA10    22             15.0000000000
     10765       346  BGLCNA    O              23.7122664037       -1.6455061435       81.8468189042  LPSA10    22             15.0000000000
     10766       346  BGLCNA    CT             24.0311882888        0.6719462944       81.4174516698  LPSA10    22             15.0000000000
     10767       346  BGLCNA    HT1            23.3393203452        0.8584133282       80.5751629503  LPSA10    22             15.0000000000
     10768       346  BGLCNA    HT2            24.9223412909        1.3083057858       81.2797699480  LPSA10    22             15.0000000000
     10769       346  BGLCNA    HT3            23.5305715179        0.9208419940       82.3753671109  LPSA10    22             15.0000000000
     10770       346  BGLCNA    C3             27.0761013774       -2.6640972645       81.6833520038  LPSA10    22             15.0000000000
     10771       346  BGLCNA    H3             27.9296591840       -1.9462245180       81.6542485848  LPSA10    22             15.0000000000
     10772       346  BGLCNA    O3             26.3238263891       -2.4533115507       82.8886174210  LPSA10    22             15.0000000000
     10773       346  BGLCNA    C4             27.6442703756       -4.0391639334       81.4453163251  LPSA10    22             15.0000000000
     10774       346  BGLCNA    H4             26.8065801175       -4.7672862007       81.4116652324  LPSA10    22             15.0000000000
     10775       346  BGLCNA    O4             28.5351621167       -4.4566413500       82.4651090819  LPSA10    22             15.0000000000
     10776       346  BGLCNA    HO4            28.3831252987       -5.3698512584       82.7607612649  LPSA10    22             15.0000000000
     10777       346  BGLCNA    C6             28.9660550398       -5.3717434192       79.7724022004  LPSA10    22             15.0000000000
     10778       346  BGLCNA    H61            29.4393725733       -5.7817674192       80.6877638283  LPSA10    22             15.0000000000
     10779       346  BGLCNA    H62            28.1763564490       -6.0908810604       79.4551024882  LPSA10    22             15.0000000000
     10780       346  BGLCNA    O6             30.0028035465       -5.2831497028       78.7951582357  LPSA10    22             15.0000000000
     10781       346  BGLCNA    HO6            29.6840590317       -4.8804647481       77.9735617546  LPSA10    22             15.0000000000
     10782       347  AGAL      C1             27.0244738683       -2.2568448385       84.0843314049  LPSA10    23             16.0000000000
     10783       347  AGAL      H1             27.3975943411       -3.2355621285       84.4039235318  LPSA10    23             16.0000000000
     10784       347  AGAL      C5             27.6906340941        0.0082768821       83.7170316442  LPSA10    23             16.0000000000
     10785       347  AGAL      H5             27.0484258095       -0.0098875732       82.8110809943  LPSA10    23             16.0000000000
     10786       347  AGAL      O5             28.1241282462       -1.3351246924       83.9652700124  LPSA10    23             16.0000000000
     10787       347  AGAL      C2             26.0838445784       -1.8072921259       85.1820645567  LPSA10    23             16.0000000000
     10788       347  AGAL      H2             26.7130733581       -1.7232688716       86.0988796910  LPSA10    23             16.0000000000
     10789       347  AGAL      O2             25.0249699548       -2.7631367393       85.4406440813  LPSA10    23             16.0000000000
     10790       347  AGAL      C3             25.5936892691       -0.3980685388       84.8790427014  LPSA10    23             16.0000000000
     10791       347  AGAL      H3             25.1560988972       -0.3898072987       83.8595567447  LPSA10    23             16.0000000000
     10792       347  AGAL      O3             24.5434288692        0.0123102493       85.7525308657  LPSA10    23             16.0000000000
     10793       347  AGAL      HO3            24.8491552774       -0.1880728503       86.6329761412  LPSA10    23             16.0000000000
     10794       347  AGAL      C4             26.8015320140        0.5348270148       84.8485848266  LPSA10    23             16.0000000000
     10795       347  AGAL      H4             26.4959346796        1.5793079343       84.6217965089  LPSA10    23             16.0000000000
     10796       347  AGAL      O4             27.4938266124        0.5599046903       86.0835921353  LPSA10    23             16.0000000000
     10797       347  AGAL      HO4            28.4189197285        0.7835061080       85.8747341571  LPSA10    23             16.0000000000
     10798       347  AGAL      C6             28.9081258116        0.8269672436       83.3217220559  LPSA10    23             16.0000000000
     10799       347  AGAL      H61            29.5020881724        0.2407220866       82.5832266685  LPSA10    23             16.0000000000
     10800       347  AGAL      H62            28.5867582407        1.7556234884       82.8061456823  LPSA10    23             16.0000000000
     10801       347  AGAL      O6             29.7358705449        1.1799334627       84.4298726287  LPSA10    23             16.0000000000
     10802       347  AGAL      HO6            30.5771926693        1.5637589209       84.1657137703  LPSA10    23             16.0000000000
     10803       348  ARHM      C1             25.3070430811       -3.8707097555       86.2810557558  LPSA10    24             17.0000000000
     10804       348  ARHM      H1             26.4075832684       -3.9940963190       86.3802261436  LPSA10    24             17.0000000000
     10805       348  ARHM      C5             23.3612452112       -5.1291936528       85.6360873336  LPSA10    24             17.0000000000
     10806       348  ARHM      H5             23.1197263250       -4.2904719491       84.9451183667  LPSA10    24             17.0000000000
     10807       348  ARHM      O5             24.7907007416       -5.1330614633       85.7998707140  LPSA10    24             17.0000000000
     10808       348  ARHM      C2             24.6576659453       -3.5238231948       87.6000519636  LPSA10    24             17.0000000000
     10809       348  ARHM      H2             24.9968354304       -2.5095155992       87.9228631437  LPSA10    24             17.0000000000
     10810       348  ARHM      O2             24.9456795085       -4.4893720321       88.6237536872  LPSA10    24             17.0000000000
     10811       348  ARHM      C3             23.1613002546       -3.4573076591       87.4173833215  LPSA10    24             17.0000000000
     10812       348  ARHM      H3             22.9409258835       -2.7028229248       86.6266877194  LPSA10    24             17.0000000000
     10813       348  ARHM      O3             22.5433396819       -2.9902104879       88.6091303399  LPSA10    24             17.0000000000
     10814       348  ARHM      HO3            22.2325984643       -3.7378955015       89.1289658209  LPSA10    24             17.0000000000
     10815       348  ARHM      C4             22.6638681974       -4.8167225789       86.9498087273  LPSA10    24             17.0000000000
     10816       348  ARHM      H4             22.9645140049       -5.5616544701       87.7209248406  LPSA10    24             17.0000000000
     10817       348  ARHM      O4             21.2480626012       -4.8934154649       86.7798202586  LPSA10    24             17.0000000000
     10818       348  ARHM      HO4            20.9507519281       -5.7559845059       87.0800554046  LPSA10    24             17.0000000000
     10819       348  ARHM      C6             22.8703290806       -6.4259019557       84.9316868133  LPSA10    24             17.0000000000
     10820       348  ARHM      H61            21.9269280192       -6.2250335978       84.3841684511  LPSA10    24             17.0000000000
     10821       348  ARHM      H62            23.6367851539       -6.7526079277       84.1996911073  LPSA10    24             17.0000000000
     10822       348  ARHM      H63            22.7092055959       -7.2634462637       85.6337805736  LPSA10    24             17.0000000000
     10823       349  ARHM      C1             26.2447217161       -4.3994754479       89.1443539701  LPSA10    25             18.0000000000
     10824       349  ARHM      H1             26.8780655505       -3.7964512625       88.4574853366  LPSA10    25             18.0000000000
     10825       349  ARHM      C5             26.3047265990       -6.5388135987       90.2008660408  LPSA10    25             18.0000000000
     10826       349  ARHM      H5             25.2585872127       -6.7315754629       89.8601119224  LPSA10    25             18.0000000000
     10827       349  ARHM      O5             26.9331186942       -5.6562703567       89.2542846876  LPSA10    25             18.0000000000
     10828       349  ARHM      C2             26.1980592503       -3.6916481972       90.4651931874  LPSA10    25             18.0000000000
     10829       349  ARHM      H2             25.5283538318       -2.7934882349       90.3710848431  LPSA10    25             18.0000000000
     10830       349  ARHM      O2             27.4933166456       -3.3054103544       90.9004310589  LPSA10    25             18.0000000000
     10831       349  ARHM      C3             25.5602401409       -4.5911266748       91.4703107933  LPSA10    25             18.0000000000
     10832       349  ARHM      H3             24.5827508177       -4.8490700001       91.0979494221  LPSA10    25             18.0000000000
     10833       349  ARHM      O3             25.4394421687       -3.9103105332       92.7135787841  LPSA10    25             18.0000000000
     10834       349  ARHM      C4             26.2794483970       -5.8919174498       91.5799038237  LPSA10    25             18.0000000000
     10835       349  ARHM      H4             27.3305814250       -5.7202235044       91.9152914315  LPSA10    25             18.0000000000
     10836       349  ARHM      O4             25.5919425989       -6.7203849104       92.5125224778  LPSA10    25             18.0000000000
     10837       349  ARHM      HO4            26.2487818036       -7.1408753120       93.0503539926  LPSA10    25             18.0000000000
     10838       349  ARHM      C6             27.0208224170       -7.9038587537       90.2144747744  LPSA10    25             18.0000000000
     10839       349  ARHM      H61            27.1310956855       -8.2818310837       89.1786669363  LPSA10    25             18.0000000000
     10840       349  ARHM      H62            28.0282822891       -7.8065986008       90.6721342351  LPSA10    25             18.0000000000
     10841       349  ARHM      H63            26.4271901106       -8.6383907884       90.7981947159  LPSA10    25             18.0000000000
     10842       350  BMANNA    C1             27.9644023934       -2.1494706444       90.2672482983  LPSA10    26             19.0000000000
     10843       350  BMANNA    H1             27.1372254459       -1.5338383245       89.8494888059  LPSA10    26             19.0000000000
     10844       350  BMANNA    C5             29.3498956575       -1.1952503395       88.5890848176  LPSA10    26             19.0000000000
     10845       350  BMANNA    H5             28.4591801670       -0.6665365058       88.1771939111  LPSA10    26             19.0000000000
     10846       350  BMANNA    O5             28.9001638269       -2.4140799772       89.2108300022  LPSA10    26             19.0000000000
     10847       350  BMANNA    C2             28.6399866710       -1.3688510712       91.3412630433  LPSA10    26             19.0000000000
     10848       350  BMANNA    H2             27.8648787212       -1.1684215882       92.1183605216  LPSA10    26             19.0000000000
     10849       350  BMANNA    N              29.7416912914       -2.1301237811       91.9272566583  LPSA10    26             19.0000000000
     10850       350  BMANNA    HN             30.4059352099       -2.4929192448       91.2897149433  LPSA10    26             19.0000000000
     10851       350  BMANNA    C              29.8940638178       -2.3885271799       93.2293152748  LPSA10    26             19.0000000000
     10852       350  BMANNA    O              29.0761047624       -2.0468900289       94.0629057767  LPSA10    26             19.0000000000
     10853       350  BMANNA    CT             31.2057548614       -3.0030525705       93.6199341654  LPSA10    26             19.0000000000
     10854       350  BMANNA    HT1            31.6813516941       -3.5711123137       92.8077483808  LPSA10    26             19.0000000000
     10855       350  BMANNA    HT2            31.2209046493       -3.5510722020       94.5794009793  LPSA10    26             19.0000000000
     10856       350  BMANNA    HT3            31.8458275621       -2.1453848282       93.7732917967  LPSA10    26             19.0000000000
     10857       350  BMANNA    C3             29.0504025307       -0.0493198405       90.7452428732  LPSA10    26             19.0000000000
     10858       350  BMANNA    H3             28.1538807976        0.4749027900       90.3238984863  LPSA10    26             19.0000000000
     10859       350  BMANNA    O3             29.5657066080        0.7754108561       91.7726668082  LPSA10    26             19.0000000000
     10860       350  BMANNA    HO3            28.8220579931        1.1645384988       92.2346126835  LPSA10    26             19.0000000000
     10861       350  BMANNA    C4             30.0241401422       -0.3022864126       89.6159180896  LPSA10    26             19.0000000000
     10862       350  BMANNA    H4             30.9404178648       -0.8094808471       89.9769949656  LPSA10    26             19.0000000000
     10863       350  BMANNA    O4             30.4396022012        0.9088634469       89.0200942285  LPSA10    26             19.0000000000
     10864       350  BMANNA    HO4            31.1458938982        1.2908709702       89.5495645933  LPSA10    26             19.0000000000
     10865       350  BMANNA    C6             30.2275765674       -1.5844288287       87.4088748711  LPSA10    26             19.0000000000
     10866       350  BMANNA    H61            29.7794257825       -2.4673441793       86.9292143813  LPSA10    26             19.0000000000
     10867       350  BMANNA    H62            30.2358228435       -0.7832263223       86.6373875318  LPSA10    26             19.0000000000
     10868       350  BMANNA    O6             31.5746559306       -1.8971620019       87.7795282143  LPSA10    26             19.0000000000
     10869       350  BMANNA    HO6            31.9599399688       -1.0802298849       88.1304542124  LPSA10    26             19.0000000000
     10870       351  BGLCNA    C1             24.2678060542       -4.0624477665       93.4687330309  LPSA10    27             19.0000000000
     10871       351  BGLCNA    H1             23.8488436554       -5.0875540043       93.4293222471  LPSA10    27             19.0000000000
     10872       351  BGLCNA    C5             22.1100543537       -3.2035076895       93.9102273925  LPSA10    27             19.0000000000
     10873       351  BGLCNA    H5             21.7561470361       -4.2634977005       93.9363089297  LPSA10    27             19.0000000000
     10874       351  BGLCNA    O5             23.2651883626       -3.1315331564       93.0589020291  LPSA10    27             19.0000000000
     10875       351  BGLCNA    C2             24.7406100082       -3.7177124118       94.8670419244  LPSA10    27             19.0000000000
     10876       351  BGLCNA    H2             25.0922746284       -2.6584498980       94.8423113039  LPSA10    27             19.0000000000
     10877       351  BGLCNA    N              25.8534413381       -4.5568815233       95.3016596102  LPSA10    27             19.0000000000
     10878       351  BGLCNA    HN             25.7723577477       -5.5155937638       95.0657724610  LPSA10    27             19.0000000000
     10879       351  BGLCNA    C              26.9158509508       -4.0363023527       95.9573915579  LPSA10    27             19.0000000000
     10880       351  BGLCNA    O              26.8613607189       -2.9412518534       96.5070908924  LPSA10    27             19.0000000000
     10881       351  BGLCNA    CT             28.1884565923       -4.8512891302       96.0188324983  LPSA10    27             19.0000000000
     10882       351  BGLCNA    HT1            28.1055840262       -5.7393843479       95.3647982515  LPSA10    27             19.0000000000
     10883       351  BGLCNA    HT2            28.4261944636       -5.1590067601       97.0548930309  LPSA10    27             19.0000000000
     10884       351  BGLCNA    HT3            29.0297287372       -4.2111299575       95.6722413160  LPSA10    27             19.0000000000
     10885       351  BGLCNA    C3             23.5878899780       -3.7715552772       95.8212258281  LPSA10    27             19.0000000000
     10886       351  BGLCNA    H3             23.1659086087       -4.8042838953       95.7757882976  LPSA10    27             19.0000000000
     10887       351  BGLCNA    O3             24.1665057469       -3.5102361467       97.1244290262  LPSA10    27             19.0000000000
     10888       351  BGLCNA    C4             22.5132498358       -2.8174125053       95.3294009825  LPSA10    27             19.0000000000
     10889       351  BGLCNA    H4             22.9079390716       -1.7737266322       95.3227148903  LPSA10    27             19.0000000000
     10890       351  BGLCNA    O4             21.3596208173       -2.8615317331       96.1488066122  LPSA10    27             19.0000000000
     10891       351  BGLCNA    HO4            20.9561356302       -3.7383642967       96.0686618548  LPSA10    27             19.0000000000
     10892       351  BGLCNA    C6             20.9725060729       -2.3932602954       93.3130597634  LPSA10    27             19.0000000000
     10893       351  BGLCNA    H61            20.0275392543       -2.6339574672       93.8498010843  LPSA10    27             19.0000000000
     10894       351  BGLCNA    H62            21.1551611465       -1.3003642891       93.4340776708  LPSA10    27             19.0000000000
     10895       351  BGLCNA    O6             20.7935993166       -2.7208456962       91.9301299000  LPSA10    27             19.0000000000
     10896       351  BGLCNA    HO6            20.1576973707       -2.1276830838       91.4988342724  LPSA10    27             19.0000000000
     10897       352  AGAL      C1             23.4122483571       -3.8844026312       98.2388867053  LPSA10    28             20.0000000000
     10898       352  AGAL      H1             22.5847369001       -3.1607406100       98.2855642442  LPSA10    28             20.0000000000
     10899       352  AGAL      C5             23.8997855851       -6.2052042933       98.1203715323  LPSA10    28             20.0000000000
     10900       352  AGAL      H5             24.7376678250       -5.9478542823       97.4243166872  LPSA10    28             20.0000000000
     10901       352  AGAL      O5             22.8668769538       -5.2019557485       98.0398601275  LPSA10    28             20.0000000000
     10902       352  AGAL      C2             24.1291014118       -3.8410152261       99.6101500728  LPSA10    28             20.0000000000
     10903       352  AGAL      H2             23.3188795484       -4.1602196166      100.3011119622  LPSA10    28             20.0000000000
     10904       352  AGAL      O2             24.5899727997       -2.5669678610      100.0989963101  LPSA10    28             20.0000000000
     10905       352  AGAL      C3             25.2101034007       -4.9046533325       99.6851244684  LPSA10    28             20.0000000000
     10906       352  AGAL      H3             25.9102503774       -4.7274416511       98.8396687097  LPSA10    28             20.0000000000
     10907       352  AGAL      O3             26.0267907471       -4.9130653378      100.8556576982  LPSA10    28             20.0000000000
     10908       352  AGAL      HO3            26.9260712290       -4.6731800042      100.6162516558  LPSA10    28             20.0000000000
     10909       352  AGAL      C4             24.5537347853       -6.2392673774       99.4823323088  LPSA10    28             20.0000000000
     10910       352  AGAL      H4             25.3537798768       -7.0127583833       99.4789681126  LPSA10    28             20.0000000000
     10911       352  AGAL      O4             23.6233965914       -6.5650194203      100.5053605089  LPSA10    28             20.0000000000
     10912       352  AGAL      HO4            24.0439177463       -7.1933175845      101.0969393672  LPSA10    28             20.0000000000
     10913       352  AGAL      C6             23.3657438047       -7.5274846138       97.6353372958  LPSA10    28             20.0000000000
     10914       352  AGAL      H61            23.1517281528       -7.4766952909       96.5548489751  LPSA10    28             20.0000000000
     10915       352  AGAL      H62            24.1488360603       -8.2730850027       97.7126218892  LPSA10    28             20.0000000000
     10916       352  AGAL      O6             22.2311998425       -8.0132228630       98.3438881546  LPSA10    28             20.0000000000
     10917       352  AGAL      HO6            21.4494809238       -7.6565407950       97.9238124233  LPSA10    28             20.0000000000
     10918       353  ARHM      C1             24.2875086784       -2.4515127628      101.4839575176  LPSA10    29             21.0000000000
     10919       353  ARHM      H1             24.2278511019       -3.4522629910      101.9605104843  LPSA10    29             21.0000000000
     10920       353  ARHM      C5             23.0435777699       -0.4599856260      101.1459564372  LPSA10    29             21.0000000000
     10921       353  ARHM      H5             23.3068139493       -0.5473484668      100.0660927058  LPSA10    29             21.0000000000
     10922       353  ARHM      O5             23.0497428525       -1.7692921967      101.7077227260  LPSA10    29             21.0000000000
     10923       353  ARHM      C2             25.3841459973       -1.6991401347      102.1739735978  LPSA10    29             21.0000000000
     10924       353  ARHM      H2             26.3508063090       -2.2058380195      101.9274038290  LPSA10    29             21.0000000000
     10925       353  ARHM      O2             25.1703833271       -1.6824923257      103.6103263667  LPSA10    29             21.0000000000
     10926       353  ARHM      C3             25.4307057317       -0.3042849380      101.6093937123  LPSA10    29             21.0000000000
     10927       353  ARHM      H3             25.6325857049       -0.3558136415      100.5115714559  LPSA10    29             21.0000000000
     10928       353  ARHM      O3             26.4978255903        0.4067458595      102.1975016904  LPSA10    29             21.0000000000
     10929       353  ARHM      HO3            26.2354542122        1.3265575215      102.2340120046  LPSA10    29             21.0000000000
     10930       353  ARHM      C4             24.1045768623        0.4067775533      101.8122820040  LPSA10    29             21.0000000000
     10931       353  ARHM      H4             23.8843946486        0.4709911430      102.9056456255  LPSA10    29             21.0000000000
     10932       353  ARHM      O4             24.1127794442        1.7556519917      101.3212767574  LPSA10    29             21.0000000000
     10933       353  ARHM      HO4            24.4419751453        1.8465268232      100.4242140367  LPSA10    29             21.0000000000
     10934       353  ARHM      C6             21.5831053749       -0.0202325442      101.2316231432  LPSA10    29             21.0000000000
     10935       353  ARHM      H61            20.9597326520       -0.8237876114      100.7764048054  LPSA10    29             21.0000000000
     10936       353  ARHM      H62            21.2567622308        0.1293333134      102.2792181204  LPSA10    29             21.0000000000
     10937       353  ARHM      H63            21.4214951148        0.9064056563      100.6429826052  LPSA10    29             21.0000000000
     10938       354  ARHM      C1             25.8643163209       -2.6486677824      104.3709292840  LPSA10    30             22.0000000000
     10939       354  ARHM      H1             26.9585688080       -2.5762953552      104.1610069466  LPSA10    30             22.0000000000
     10940       354  ARHM      C5             24.0323140505       -4.1676834563      104.4902674288  LPSA10    30             22.0000000000
     10941       354  ARHM      H5             23.4648306589       -3.4113815012      103.9076893326  LPSA10    30             22.0000000000
     10942       354  ARHM      O5             25.4139347271       -4.0004625249      104.1498384116  LPSA10    30             22.0000000000
     10943       354  ARHM      C2             25.6340167371       -2.3182244289      105.8282713142  LPSA10    30             22.0000000000
     10944       354  ARHM      H2             25.9415806187       -1.2632606679      106.0269748628  LPSA10    30             22.0000000000
     10945       354  ARHM      O2             26.3877573214       -3.2450809271      106.6065890126  LPSA10    30             22.0000000000
     10946       354  ARHM      C3             24.1861194379       -2.4813018917      106.2301678983  LPSA10    30             22.0000000000
     10947       354  ARHM      H3             23.5989754090       -1.8495256093      105.5200668155  LPSA10    30             22.0000000000
     10948       354  ARHM      O3             23.9097533303       -1.9712179305      107.5541488780  LPSA10    30             22.0000000000
     10949       354  ARHM      C4             23.7833357638       -3.9104109765      105.9612940338  LPSA10    30             22.0000000000
     10950       354  ARHM      H4             24.3930303726       -4.6357308414      106.5465675301  LPSA10    30             22.0000000000
     10951       354  ARHM      O4             22.4383065852       -4.1727663511      106.3233896289  LPSA10    30             22.0000000000
     10952       354  ARHM      HO4            21.8020981944       -3.9270172251      105.6502002435  LPSA10    30             22.0000000000
     10953       354  ARHM      C6             23.5441455304       -5.5432102303      104.0336169380  LPSA10    30             22.0000000000
     10954       354  ARHM      H61            22.4570911716       -5.6462239326      104.2346728608  LPSA10    30             22.0000000000
     10955       354  ARHM      H62            23.7228607204       -5.6707664247      102.9534255415  LPSA10    30             22.0000000000
     10956       354  ARHM      H63            24.1027434876       -6.3327035553      104.5613380049  LPSA10    30             22.0000000000
     10957       355  BMANNA    C1             27.6808975096       -2.8403107352      106.9053848822  LPSA10    31             23.0000000000
     10958       355  BMANNA    H1             27.6838173348       -1.7664376686      107.1703235157  LPSA10    31             23.0000000000
     10959       355  BMANNA    C5             29.9732458743       -2.8083910107      106.2285659732  LPSA10    31             23.0000000000
     10960       355  BMANNA    H5             29.9912585636       -1.7754147754      106.5899463111  LPSA10    31             23.0000000000
     10961       355  BMANNA    O5             28.6137910863       -3.1471888302      105.8735786484  LPSA10    31             23.0000000000
     10962       355  BMANNA    C2             28.0426836306       -3.6676158418      108.0890713376  LPSA10    31             23.0000000000
     10963       355  BMANNA    H2             27.3589433326       -3.3483148273      108.9162560471  LPSA10    31             23.0000000000
     10964       355  BMANNA    N              27.8216992178       -5.0788012639      107.8211497416  LPSA10    31             23.0000000000
     10965       355  BMANNA    HN             27.7755664040       -5.3305558216      106.8516826777  LPSA10    31             23.0000000000
     10966       355  BMANNA    C              27.5140748515       -5.9484163574      108.7837963734  LPSA10    31             23.0000000000
     10967       355  BMANNA    O              27.4022301639       -5.6007682666      109.9513458252  LPSA10    31             23.0000000000
     10968       355  BMANNA    CT             27.3306195084       -7.3716646010      108.3418626408  LPSA10    31             23.0000000000
     10969       355  BMANNA    HT1            28.0992450856       -7.6103764017      107.5762710167  LPSA10    31             23.0000000000
     10970       355  BMANNA    HT2            26.3170603174       -7.4912287815      107.9102623195  LPSA10    31             23.0000000000
     10971       355  BMANNA    HT3            27.4281307113       -8.0693465798      109.2004180413  LPSA10    31             23.0000000000
     10972       355  BMANNA    C3             29.4462072927       -3.2938759803      108.5059207044  LPSA10    31             23.0000000000
     10973       355  BMANNA    H3             29.4914178073       -2.1894198094      108.6677390451  LPSA10    31             23.0000000000
     10974       355  BMANNA    O3             29.7466771652       -3.8255361099      109.7673061394  LPSA10    31             23.0000000000
     10975       355  BMANNA    HO3            28.9224603106       -4.1955840155      110.1161413386  LPSA10    31             23.0000000000
     10976       355  BMANNA    C4             30.4356842907       -3.6189200199      107.4220615784  LPSA10    31             23.0000000000
     10977       355  BMANNA    H4             30.4080583572       -4.6985859414      107.1341647842  LPSA10    31             23.0000000000
     10978       355  BMANNA    O4             31.7762295834       -3.2922280915      107.7942167088  LPSA10    31             23.0000000000
     10979       355  BMANNA    HO4            31.8396729429       -2.4148702137      108.2014598055  LPSA10    31             23.0000000000
     10980       355  BMANNA    C6             30.9303708140       -2.8383973557      105.0676884497  LPSA10    31             23.0000000000
     10981       355  BMANNA    H61            31.9083670272       -2.3740551290      105.3230049493  LPSA10    31             23.0000000000
     10982       355  BMANNA    H62            31.0914267263       -3.8943519750      104.9083116982  LPSA10    31             23.0000000000
     10983       355  BMANNA    O6             30.4176792801       -2.3135517052      103.8458848410  LPSA10    31             23.0000000000
     10984       355  BMANNA    HO6            30.4249749172       -1.3516400268      103.8076793834  LPSA10    31             23.0000000000
     10985       356  BGLCNA    C1             24.2138858070       -2.8438283520      108.6162254587  LPSA10    32             23.0000000000
     10986       356  BGLCNA    H1             25.1390291362       -3.4077767841      108.4049604542  LPSA10    32             23.0000000000
     10987       356  BGLCNA    C5             23.5567965425       -4.7071991560      109.9202486910  LPSA10    32             23.0000000000
     10988       356  BGLCNA    H5             24.4932814385       -5.2170146423      109.5832077047  LPSA10    32             23.0000000000
     10989       356  BGLCNA    O5             23.1778629150       -3.7753833881      108.9081193383  LPSA10    32             23.0000000000
     10990       356  BGLCNA    C2             24.4727234792       -2.0248336014      109.8574581803  LPSA10    32             23.0000000000
     10991       356  BGLCNA    H2             23.4902891624       -1.5815083732      110.1520573787  LPSA10    32             23.0000000000
     10992       356  BGLCNA    N              25.4042001196       -0.9715843552      109.5792271846  LPSA10    32             23.0000000000
     10993       356  BGLCNA    HN             26.0580369079       -1.1875825025      108.8731391930  LPSA10    32             23.0000000000
     10994       356  BGLCNA    C              25.3962252347        0.2476540975      110.1025774798  LPSA10    32             23.0000000000
     10995       356  BGLCNA    O              24.5671207037        0.6644719130      110.8974828948  LPSA10    32             23.0000000000
     10996       356  BGLCNA    CT             26.4668798599        1.1203043585      109.5562649690  LPSA10    32             23.0000000000
     10997       356  BGLCNA    HT1            26.8531504178        0.7058443236      108.6064481874  LPSA10    32             23.0000000000
     10998       356  BGLCNA    HT2            27.3116024778        1.3330435148      110.2459838378  LPSA10    32             23.0000000000
     10999       356  BGLCNA    HT3            25.9080116699        2.0375306113      109.3320951196  LPSA10    32             23.0000000000
     11000       356  BGLCNA    C3             24.9635372855       -2.9664780186      110.9304620585  LPSA10    32             23.0000000000
     11001       356  BGLCNA    H3             25.8121410009       -3.5330966946      110.4789371633  LPSA10    32             23.0000000000
     11002       356  BGLCNA    O3             25.4577249786       -2.2952814223      112.1034288883  LPSA10    32             23.0000000000
     11003       356  BGLCNA    C4             23.8439835108       -3.9426837246      111.2009139213  LPSA10    32             23.0000000000
     11004       356  BGLCNA    H4             22.9418182526       -3.3582677646      111.5044175269  LPSA10    32             23.0000000000
     11005       356  BGLCNA    O4             24.1398246099       -4.8581165790      112.2394544647  LPSA10    32             23.0000000000
     11006       356  BGLCNA    HO4            23.8974195975       -4.4615061337      113.0853805684  LPSA10    32             23.0000000000
     11007       356  BGLCNA    C6             22.4950101397       -5.7825157227      110.0353846756  LPSA10    32             23.0000000000
     11008       356  BGLCNA    H61            22.8577487763       -6.5964100740      110.6797937487  LPSA10    32             23.0000000000
     11009       356  BGLCNA    H62            21.5811971713       -5.3615077016      110.5050826075  LPSA10    32             23.0000000000
     11010       356  BGLCNA    O6             22.1708046383       -6.3888875604      108.7829059442  LPSA10    32             23.0000000000
     11011       356  BGLCNA    HO6            22.9637019409       -6.4077827416      108.2192346874  LPSA10    32             23.0000000000
     11012       357  AGAL      C1             26.5870468457       -2.9360547225      112.6787078051  LPSA10    33             24.0000000000
     11013       357  AGAL      H1             26.4793619534       -4.0409390653      112.6058267766  LPSA10    33             24.0000000000
     11014       357  AGAL      C5             28.1239968825       -1.1577406836      112.2114439846  LPSA10    33             24.0000000000
     11015       357  AGAL      H5             27.2093427004       -0.6439541692      111.8475074385  LPSA10    33             24.0000000000
     11016       357  AGAL      O5             27.8348992132       -2.5622533157      112.0535619857  LPSA10    33             24.0000000000
     11017       357  AGAL      C2             26.6792659577       -2.5539152069      114.1428200056  LPSA10    33             24.0000000000
     11018       357  AGAL      H2             27.6110974613       -3.0237660046      114.5308843866  LPSA10    33             24.0000000000
     11019       357  AGAL      O2             25.5943130329       -3.1743752474      114.8657841579  LPSA10    33             24.0000000000
     11020       357  AGAL      C3             26.9123854043       -1.0525301392      114.3040270010  LPSA10    33             24.0000000000
     11021       357  AGAL      H3             26.1350282950       -0.4864310484      113.7286014584  LPSA10    33             24.0000000000
     11022       357  AGAL      O3             26.7227243033       -0.6091494364      115.6388857138  LPSA10    33             24.0000000000
     11023       357  AGAL      HO3            27.3587799553       -0.9933063797      116.2486360332  LPSA10    33             24.0000000000
     11024       357  AGAL      C4             28.2656997455       -0.7039247329      113.6640257816  LPSA10    33             24.0000000000
     11025       357  AGAL      H4             28.4009482744        0.4030633881      113.6766538327  LPSA10    33             24.0000000000
     11026       357  AGAL      O4             29.4268100224       -1.2671423730      114.2926997761  LPSA10    33             24.0000000000
     11027       357  AGAL      HO4            29.2155839478       -1.9763218835      114.9113146200  LPSA10    33             24.0000000000
     11028       357  AGAL      C6             29.2282825276       -0.7055139542      111.2661033438  LPSA10    33             24.0000000000
     11029       357  AGAL      H61            28.8602307090       -0.8853660361      110.2371251810  LPSA10    33             24.0000000000
     11030       357  AGAL      H62            29.4095176791        0.3893201666      111.3752036773  LPSA10    33             24.0000000000
     11031       357  AGAL      O6             30.4846468571       -1.3666812925      111.4225740111  LPSA10    33             24.0000000000
     11032       357  AGAL      HO6            30.5547438167       -2.1623516950      110.8677073412  LPSA10    33             24.0000000000
     11033       358  ARHM      C1             25.9981158850       -3.8476679332      116.0491785053  LPSA10    34             25.0000000000
     11034       358  ARHM      H1             26.6344991321       -3.1602658422      116.6463819944  LPSA10    34             25.0000000000
     11035       358  ARHM      C5             26.0833337042       -6.0709915635      115.0660078351  LPSA10    34             25.0000000000
     11036       358  ARHM      H5             25.8717708646       -5.6458402352      114.0644199829  LPSA10    34             25.0000000000
     11037       358  ARHM      O5             26.7673336745       -5.0640777238      115.8335620413  LPSA10    34             25.0000000000
     11038       358  ARHM      C2             24.7229836719       -4.1628803427      116.8101892483  LPSA10    34             25.0000000000
     11039       358  ARHM      H2             24.0866256760       -3.2401084017      116.8581555297  LPSA10    34             25.0000000000
     11040       358  ARHM      O2             24.9564699712       -4.6192448425      118.1671445822  LPSA10    34             25.0000000000
     11041       358  ARHM      C3             23.9405680534       -5.1994567769      116.0100838989  LPSA10    34             25.0000000000
     11042       358  ARHM      H3             23.7249971845       -4.7867496727      114.9958331906  LPSA10    34             25.0000000000
     11043       358  ARHM      O3             22.6819552953       -5.4972485142      116.6281860631  LPSA10    34             25.0000000000
     11044       358  ARHM      HO3            21.9989904200       -5.6787625961      115.9724169669  LPSA10    34             25.0000000000
     11045       358  ARHM      C4             24.7900858695       -6.4351337263      115.7993322246  LPSA10    34             25.0000000000
     11046       358  ARHM      H4             25.1109463950       -6.8503498944      116.7853967875  LPSA10    34             25.0000000000
     11047       358  ARHM      O4             24.0477585661       -7.4409509561      115.0957767678  LPSA10    34             25.0000000000
     11048       358  ARHM      HO4            23.4401300664       -7.8675643476      115.7174315455  LPSA10    34             25.0000000000
     11049       358  ARHM      C6             26.9617332601       -7.3398928999      114.8388302567  LPSA10    34             25.0000000000
     11050       358  ARHM      H61            27.2996925564       -7.8069652051      115.7831416808  LPSA10    34             25.0000000000
     11051       358  ARHM      H62            26.3494302636       -8.1106812955      114.3285570422  LPSA10    34             25.0000000000
     11052       358  ARHM      H63            27.8489191050       -7.1392470957      114.1987852931  LPSA10    34             25.0000000000
     11053       359  ARHM      C1             25.6634841209       -3.7767168465      119.0577395253  LPSA10    35             26.0000000000
     11054       359  ARHM      H1             25.3956275943       -2.7098798261      118.8695059002  LPSA10    35             26.0000000000
     11055       359  ARHM      C5             27.4860700549       -5.3383398182      119.2015106722  LPSA10    35             26.0000000000
     11056       359  ARHM      H5             26.9740268880       -6.0393700756      118.5078661260  LPSA10    35             26.0000000000
     11057       359  ARHM      O5             27.0877578495       -3.9737616777      118.9408284094  LPSA10    35             26.0000000000
     11058       359  ARHM      C2             25.2781410284       -4.1050120030      120.5003774737  LPSA10    35             26.0000000000
     11059       359  ARHM      H2             24.1830547256       -3.9610806873      120.6541069771  LPSA10    35             26.0000000000
     11060       359  ARHM      O2             25.9732809298       -3.2582803316      121.4268353677  LPSA10    35             26.0000000000
     11061       359  ARHM      C3             25.6189359381       -5.5356888745      120.8256528810  LPSA10    35             26.0000000000
     11062       359  ARHM      H3             25.0748578620       -6.2085198553      120.1203625935  LPSA10    35             26.0000000000
     11063       359  ARHM      O3             25.1715939915       -5.9096174443      122.1315412327  LPSA10    35             26.0000000000
     11064       359  ARHM      HO3            25.2773554988       -5.1828444706      122.7561543156  LPSA10    35             26.0000000000
     11065       359  ARHM      C4             27.1142445409       -5.7259798842      120.6328235809  LPSA10    35             26.0000000000
     11066       359  ARHM      H4             27.6893530760       -5.0674418199      121.3295216289  LPSA10    35             26.0000000000
     11067       359  ARHM      O4             27.5018807540       -7.0647351847      120.9139849784  LPSA10    35             26.0000000000
     11068       359  ARHM      HO4            26.8582029641       -7.7041222795      120.5755328636  LPSA10    35             26.0000000000
     11069       359  ARHM      C6             28.9802879156       -5.4876008210      118.8638384549  LPSA10    35             26.0000000000
     11070       359  ARHM      H61            29.1683878000       -5.3551693446      117.7777778164  LPSA10    35             26.0000000000
     11071       359  ARHM      H62            29.5637349280       -4.7225893543      119.4108965466  LPSA10    35             26.0000000000
     11072       359  ARHM      H63            29.3366322274       -6.5122126284      119.1055272230  LPSA10    35             26.0000000000
     11073       360  BMANNA    C1             25.5255396911       -1.9276816647      121.4736854554  LPSA10    36             27.0000000000
     11074       360  BMANNA    H1             24.4735242890       -1.8651922930      121.1243952266  LPSA10    36             27.0000000000
     11075       360  BMANNA    C5             25.7295427732        0.3006110124      120.7208263174  LPSA10    36             27.0000000000
     11076       360  BMANNA    H5             24.6550642972        0.2528300332      120.4316954048  LPSA10    36             27.0000000000
     11077       360  BMANNA    O5             26.2811631183       -1.0363745133      120.6548762358  LPSA10    36             27.0000000000
     11078       360  BMANNA    C2             25.6420204759       -1.4755675405      122.9130359985  LPSA10    36             27.0000000000
     11079       360  BMANNA    H2             24.9680584563       -2.1688846844      123.4805303320  LPSA10    36             27.0000000000
     11080       360  BMANNA    N              26.9953228005       -1.5751926813      123.4699920273  LPSA10    36             27.0000000000
     11081       360  BMANNA    HN             27.7568991998       -1.3518204991      122.8749102939  LPSA10    36             27.0000000000
     11082       360  BMANNA    C              27.2068855615       -1.7798508956      124.7855337352  LPSA10    36             27.0000000000
     11083       360  BMANNA    O              26.2953441659       -2.0594304878      125.5514057689  LPSA10    36             27.0000000000
     11084       360  BMANNA    CT             28.6088408784       -1.6370049179      125.3051512718  LPSA10    36             27.0000000000
     11085       360  BMANNA    HT1            29.0924332460       -0.7496673932      124.8583337856  LPSA10    36             27.0000000000
     11086       360  BMANNA    HT2            29.2034546890       -2.5534735785      125.1422280573  LPSA10    36             27.0000000000
     11087       360  BMANNA    HT3            28.5550997068       -1.4568603127      126.3953232212  LPSA10    36             27.0000000000
     11088       360  BMANNA    C3             25.0531578119       -0.0837790643      123.0216133611  LPSA10    36             27.0000000000
     11089       360  BMANNA    H3             23.9933599923       -0.1033915317      122.6544935598  LPSA10    36             27.0000000000
     11090       360  BMANNA    O3             25.0585710989        0.4038059584      124.3593132947  LPSA10    36             27.0000000000
     11091       360  BMANNA    HO3            24.1719562009        0.5286607401      124.6919726178  LPSA10    36             27.0000000000
     11092       360  BMANNA    C4             25.8096656752        0.8561595448      122.1328058001  LPSA10    36             27.0000000000
     11093       360  BMANNA    H4             26.8740126154        0.9212221234      122.4621722070  LPSA10    36             27.0000000000
     11094       360  BMANNA    O4             25.2898418133        2.1758612580      122.2360717337  LPSA10    36             27.0000000000
     11095       360  BMANNA    HO4            25.3744770563        2.3514055764      123.1854535192  LPSA10    36             27.0000000000
     11096       360  BMANNA    C6             26.3911661248        1.1947014800      119.7353196196  LPSA10    36             27.0000000000
     11097       360  BMANNA    H61            26.3580242602        0.7842827452      118.7013002205  LPSA10    36             27.0000000000
     11098       360  BMANNA    H62            25.8520242327        2.1744813903      119.7085430034  LPSA10    36             27.0000000000
     11099       360  BMANNA    O6             27.7263013577        1.3675388382      120.1829559707  LPSA10    36             27.0000000000
     11100       360  BMANNA    HO6            27.7744221030        2.2444676481      120.6197874560  LPSA10    36             27.0000000000
     11101       361  ECLIPA    HB6S           18.3117553634      -15.9281789494       20.4183606842  LPSA11    1               0.0000000000
     11102       361  ECLIPA    OB6            19.6728863562      -15.1477727980       21.7242485861  LPSA11    1               0.0000000000
     11103       361  ECLIPA    CB6            18.6857487841      -14.9305567694       20.7002250749  LPSA11    1               0.0000000000
     11104       361  ECLIPA    HB6R           17.8277112388      -14.3477704429       21.1041651626  LPSA11    1               0.0000000000
     11105       361  ECLIPA    CB5            19.1590718052      -14.2213870987       19.4373767740  LPSA11    1               0.0000000000
     11106       361  ECLIPA    OB5            20.2874309612      -14.9895098219       18.9571400913  LPSA11    1               0.0000000000
     11107       361  ECLIPA    HB5            19.4600313420      -13.1931259044       19.7455086248  LPSA11    1               0.0000000000
     11108       361  ECLIPA    CB1            20.8702570144      -14.3929391954       17.7882849404  LPSA11    1               0.0000000000
     11109       361  ECLIPA    HB1            21.1714257405      -13.3364443565       17.9739941660  LPSA11    1               0.0000000000
     11110       361  ECLIPA    OA6            22.0255439646      -15.0658518894       17.3368670654  LPSA11    1               0.0000000000
     11111       361  ECLIPA    CA6            22.0222938912      -16.4848526281       17.5586556378  LPSA11    1               0.0000000000
     11112       361  ECLIPA    HA6R           20.9978671141      -16.8785998348       17.7402520799  LPSA11    1               0.0000000000
     11113       361  ECLIPA    HA6S           22.6727152211      -16.6900714784       18.4405462313  LPSA11    1               0.0000000000
     11114       361  ECLIPA    CB4            18.0697949722      -14.1217861330       18.3378531187  LPSA11    1               0.0000000000
     11115       361  ECLIPA    HB4            17.6877931212      -15.1316962511       18.0516246864  LPSA11    1               0.0000000000
     11116       361  ECLIPA    OB4            17.0328193997      -13.2502698084       18.8458356693  LPSA11    1               0.0000000000
     11117       361  ECLIPA    PB             15.5595028376      -13.8682616662       19.3198230868  LPSA11    1               0.0000000000
     11118       361  ECLIPA    OPB4           15.0926589333      -12.9744851002       20.4907407945  LPSA11    1               0.0000000000
     11119       361  ECLIPA    OPB3           15.8894151495      -15.3304460231       19.7068111845  LPSA11    1               0.0000000000
     11120       361  ECLIPA    OPB2           14.6696303583      -13.7374850229       18.0847353186  LPSA11    1               0.0000000000
     11121       361  ECLIPA    CB3            18.6928911836      -13.5183897309       17.0911261583  LPSA11    1               0.0000000000
     11122       361  ECLIPA    OB3            17.8409419953      -13.4704446146       15.9396537371  LPSA11    1               0.0000000000
     11123       361  ECLIPA    HB3            19.1166454653      -12.5200350667       17.3411832608  LPSA11    1               0.0000000000
     11124       361  ECLIPA    C71            17.0292285969      -12.4313563938       15.7837704422  LPSA11    1               0.0000000000
     11125       361  ECLIPA    O71            17.3412126615      -11.3153433594       16.2123364549  LPSA11    1               0.0000000000
     11126       361  ECLIPA    C72            16.3684773798      -12.5816542409       14.3854550495  LPSA11    1               0.0000000000
     11127       361  ECLIPA    H72R           17.1399458133      -12.7413276358       13.6033759702  LPSA11    1               0.0000000000
     11128       361  ECLIPA    H72S           15.8004690312      -11.6520617471       14.1677695999  LPSA11    1               0.0000000000
     11129       361  ECLIPA    CB2            19.8709174687      -14.3703225627       16.6657930277  LPSA11    1               0.0000000000
     11130       361  ECLIPA    HB2            19.5002411355      -15.4225193782       16.5073121103  LPSA11    1               0.0000000000
     11131       361  ECLIPA    NB2            20.4843813289      -13.8214032033       15.4573214550  LPSA11    1               0.0000000000
     11132       361  ECLIPA    HNB2           21.2366455914      -13.1875804692       15.5677275703  LPSA11    1               0.0000000000
     11133       361  ECLIPA    CA4            23.7974069555      -16.4915335938       15.7879241411  LPSA11    1               0.0000000000
     11134       361  ECLIPA    HA4            23.4873804258      -15.4560976517       15.5200256030  LPSA11    1               0.0000000000
     11135       361  ECLIPA    OA4            24.7790212543      -16.4467859999       16.8066171147  LPSA11    1               0.0000000000
     11136       361  ECLIPA    HOA4           24.3951679314      -16.1089365219       17.6193742014  LPSA11    1               0.0000000000
     11137       361  ECLIPA    CA5            22.5805250632      -17.1838663199       16.3330542288  LPSA11    1               0.0000000000
     11138       361  ECLIPA    HA5            22.7612715210      -18.2618634650       16.5581626700  LPSA11    1               0.0000000000
     11139       361  ECLIPA    OA5            21.5751710731      -17.1015227281       15.3384367029  LPSA11    1               0.0000000000
     11140       361  ECLIPA    CA1            21.9302025793      -17.7527107495       14.1051391022  LPSA11    1               0.0000000000
     11141       361  ECLIPA    HA1            21.1231598594      -17.4057755337       13.4235801945  LPSA11    1               0.0000000000
     11142       361  ECLIPA    OA1            21.9068491101      -19.1691017565       14.1262023639  LPSA11    1               0.0000000000
     11143       361  ECLIPA    OPA2           21.0375036274      -20.5745059098       16.0538965049  LPSA11    1               0.0000000000
     11144       361  ECLIPA    OPA3           19.3845450916      -19.0833279852       14.9408171352  LPSA11    1               0.0000000000
     11145       361  ECLIPA    OPA4           20.1697275508      -21.1067967158       13.7247423868  LPSA11    1               0.0000000000
     11146       361  ECLIPA    PA             20.5718716079      -19.9975422675       14.7052560053  LPSA11    1               0.0000000000
     11147       361  ECLIPA    CA3            24.3087681213      -17.1511337859       14.5280359143  LPSA11    1               0.0000000000
     11148       361  ECLIPA    HA3            24.6237749046      -18.1981253249       14.7383210632  LPSA11    1               0.0000000000
     11149       361  ECLIPA    OA3            25.4848876760      -16.4002425983       14.1676622131  LPSA11    1               0.0000000000
     11150       361  ECLIPA    C31            25.2684716450      -15.2466504099       13.5153835984  LPSA11    1               0.0000000000
     11151       361  ECLIPA    O31            25.2863574293      -15.1864665529       12.2979252898  LPSA11    1               0.0000000000
     11152       361  ECLIPA    C32            25.8500470374      -14.0993892838       14.3489143890  LPSA11    1               0.0000000000
     11153       361  ECLIPA    H32R           26.6683755835      -13.7494204949       13.7614366088  LPSA11    1               0.0000000000
     11154       361  ECLIPA    H32S           26.2716739566      -14.4526881838       15.3048338887  LPSA11    1               0.0000000000
     11155       361  ECLIPA    CA2            23.1714257684      -17.1041282743       13.5101069752  LPSA11    1               0.0000000000
     11156       361  ECLIPA    HA2            22.8901337469      -16.0372623183       13.3387051004  LPSA11    1               0.0000000000
     11157       361  ECLIPA    NA2            23.5489850564      -17.7071843999       12.2223697982  LPSA11    1               0.0000000000
     11158       361  ECLIPA    HNA2           24.5093219041      -17.9138507878       12.1192831125  LPSA11    1               0.0000000000
     11159       361  ECLIPA    C73            15.4153788083      -13.7925419126       14.3532922395  LPSA11    1               0.0000000000
     11160       361  ECLIPA    H73R           14.7957517090      -13.7605478478       15.2837493452  LPSA11    1               0.0000000000
     11161       361  ECLIPA    O73            16.2405418289      -14.9492048294       14.2755746920  LPSA11    1               0.0000000000
     11162       361  ECLIPA    C81            15.9315989124      -16.0322180932       14.9748912895  LPSA11    1               0.0000000000
     11163       361  ECLIPA    O81            14.8132352573      -16.2372606849       15.4577814062  LPSA11    1               0.0000000000
     11164       361  ECLIPA    C82            16.7050283875      -17.2246001141       14.3427291497  LPSA11    1               0.0000000000
     11165       361  ECLIPA    H82R           16.4278697969      -18.1536039490       14.8704198024  LPSA11    1               0.0000000000
     11166       361  ECLIPA    H82S           17.7845680373      -17.0745120759       14.5529693384  LPSA11    1               0.0000000000
     11167       361  ECLIPA    C83            16.5127203118      -17.4034940064       12.8128601672  LPSA11    1               0.0000000000
     11168       361  ECLIPA    H83R           17.1883796912      -16.6824655619       12.2911841292  LPSA11    1               0.0000000000
     11169       361  ECLIPA    H83S           15.4759258605      -17.1443511399       12.5296557786  LPSA11    1               0.0000000000
     11170       361  ECLIPA    C84            16.9067678516      -18.7986125366       12.2970468321  LPSA11    1               0.0000000000
     11171       361  ECLIPA    H84R           16.1675759036      -19.5597525295       12.5878105486  LPSA11    1               0.0000000000
     11172       361  ECLIPA    H84S           17.9019952872      -19.0377605838       12.7612147982  LPSA11    1               0.0000000000
     11173       361  ECLIPA    C85            17.1213398868      -18.8280351314       10.7764651734  LPSA11    1               0.0000000000
     11174       361  ECLIPA    H85R           17.6876182690      -17.8951359500       10.5501346101  LPSA11    1               0.0000000000
     11175       361  ECLIPA    H85S           16.1596330310      -18.7451206447       10.2297117765  LPSA11    1               0.0000000000
     11176       361  ECLIPA    C86            18.0098563988      -19.9957649856       10.2908751096  LPSA11    1               0.0000000000
     11177       361  ECLIPA    H86R           17.4012767208      -20.8744942115        9.9857732188  LPSA11    1               0.0000000000
     11178       361  ECLIPA    H86S           18.6692715515      -20.3335923130       11.1270931916  LPSA11    1               0.0000000000
     11179       361  ECLIPA    C87            18.9790259135      -19.5791300090        9.1617731797  LPSA11    1               0.0000000000
     11180       361  ECLIPA    H87R           19.5319161229      -20.4721111545        8.7975306742  LPSA11    1               0.0000000000
     11181       361  ECLIPA    H87S           19.7468313280      -18.8859738324        9.5774426575  LPSA11    1               0.0000000000
     11182       361  ECLIPA    C88            18.2764880264      -18.8401845096        8.0210902672  LPSA11    1               0.0000000000
     11183       361  ECLIPA    H88R           18.0532576557      -17.8042555348        8.3501220895  LPSA11    1               0.0000000000
     11184       361  ECLIPA    H88S           17.2775515383      -19.3102392300        7.8791893712  LPSA11    1               0.0000000000
     11185       361  ECLIPA    C89            19.0934180758      -18.7943629475        6.7161181157  LPSA11    1               0.0000000000
     11186       361  ECLIPA    H89R           20.1781196299      -18.9666268117        6.8944710648  LPSA11    1               0.0000000000
     11187       361  ECLIPA    H89S           19.0229238551      -17.7842233134        6.2584260714  LPSA11    1               0.0000000000
     11188       361  ECLIPA    C810           18.5281294632      -19.7913755205        5.7004647473  LPSA11    1               0.0000000000
     11189       361  ECLIPA    H810R          17.4485716323      -19.8972242287        5.9328428742  LPSA11    1               0.0000000000
     11190       361  ECLIPA    H810S          19.0249088431      -20.7730682286        5.8638756430  LPSA11    1               0.0000000000
     11191       361  ECLIPA    C811           18.6924959693      -19.3541718874        4.2404245766  LPSA11    1               0.0000000000
     11192       361  ECLIPA    H811R          18.6328845018      -20.2200290385        3.5394828897  LPSA11    1               0.0000000000
     11193       361  ECLIPA    H811S          19.6976884822      -18.8954726211        4.1927669155  LPSA11    1               0.0000000000
     11194       361  ECLIPA    C812           17.7208664423      -18.2780864038        3.7383744170  LPSA11    1               0.0000000000
     11195       361  ECLIPA    H812R          18.0671761526      -17.9852664909        2.7150624241  LPSA11    1               0.0000000000
     11196       361  ECLIPA    H812S          17.7730568617      -17.3962112060        4.4086211860  LPSA11    1               0.0000000000
     11197       361  ECLIPA    C813           16.2543406008      -18.6979819652        3.6489045740  LPSA11    1               0.0000000000
     11198       361  ECLIPA    H813R          16.1859842216      -19.5434112272        2.9306759532  LPSA11    1               0.0000000000
     11199       361  ECLIPA    H813S          15.8661679648      -19.0449162984        4.6331426523  LPSA11    1               0.0000000000
     11200       361  ECLIPA    C814           15.3645174541      -17.5581867179        3.1733291089  LPSA11    1               0.0000000000
     11201       361  ECLIPA    H814R          15.8125198925      -17.0486953525        2.2981316876  LPSA11    1               0.0000000000
     11202       361  ECLIPA    H814S          15.2475856171      -16.7839817967        3.9525103052  LPSA11    1               0.0000000000
     11203       361  ECLIPA    H814T          14.3611410179      -17.9478782193        2.8998091719  LPSA11    1               0.0000000000
     11204       361  ECLIPA    C74            14.4662174302      -13.8599092871       13.1245442693  LPSA11    1               0.0000000000
     11205       361  ECLIPA    H74R           13.7721809097      -12.9964158511       13.0386267928  LPSA11    1               0.0000000000
     11206       361  ECLIPA    H74S           13.8375197046      -14.7591974722       13.3134150118  LPSA11    1               0.0000000000
     11207       361  ECLIPA    C75            15.1858766423      -14.1095763725       11.7768386632  LPSA11    1               0.0000000000
     11208       361  ECLIPA    H75R           14.5425948800      -14.7941591073       11.1828605533  LPSA11    1               0.0000000000
     11209       361  ECLIPA    H75S           16.1367499652      -14.6519801102       11.9711524069  LPSA11    1               0.0000000000
     11210       361  ECLIPA    C76            15.5033103421      -12.8560775664       10.9462420641  LPSA11    1               0.0000000000
     11211       361  ECLIPA    H76R           16.3988180353      -12.3551176818       11.3766519116  LPSA11    1               0.0000000000
     11212       361  ECLIPA    H76S           14.6625741401      -12.1259174715       10.9920189401  LPSA11    1               0.0000000000
     11213       361  ECLIPA    C77            15.7800985181      -13.1302333069        9.4543258186  LPSA11    1               0.0000000000
     11214       361  ECLIPA    H77R           14.8509936531      -13.5216732592        8.9909235277  LPSA11    1               0.0000000000
     11215       361  ECLIPA    H77S           16.5388206673      -13.9163019458        9.3123881932  LPSA11    1               0.0000000000
     11216       361  ECLIPA    C78            16.3237256556      -11.8466778392        8.8004799113  LPSA11    1               0.0000000000
     11217       361  ECLIPA    H78R           15.6326282282      -11.0166699619        9.0660316833  LPSA11    1               0.0000000000
     11218       361  ECLIPA    H78S           17.2857210500      -11.6302845289        9.3202723450  LPSA11    1               0.0000000000
     11219       361  ECLIPA    C79            16.6598982119      -11.8844752487        7.2913569873  LPSA11    1               0.0000000000
     11220       361  ECLIPA    H79R           17.7420013956      -12.1228038519        7.1707341509  LPSA11    1               0.0000000000
     11221       361  ECLIPA    H79S           16.4966125233      -10.8833220447        6.8325257816  LPSA11    1               0.0000000000
     11222       361  ECLIPA    C710           15.8246783127      -12.8447932727        6.4486204531  LPSA11    1               0.0000000000
     11223       361  ECLIPA    H710R          15.8810928220      -13.8723422217        6.8640130425  LPSA11    1               0.0000000000
     11224       361  ECLIPA    H710S          14.7672186294      -12.5016568658        6.4852725883  LPSA11    1               0.0000000000
     11225       361  ECLIPA    C711           16.2618634131      -12.9088771513        4.9821618625  LPSA11    1               0.0000000000
     11226       361  ECLIPA    H711R          16.1906762192      -11.8937503694        4.5318116700  LPSA11    1               0.0000000000
     11227       361  ECLIPA    H711S          17.3159052299      -13.2650637244        4.9200164760  LPSA11    1               0.0000000000
     11228       361  ECLIPA    C712           15.3695269269      -13.8970239100        4.2304127920  LPSA11    1               0.0000000000
     11229       361  ECLIPA    H712R          14.3254015427      -13.5164222904        4.2574987540  LPSA11    1               0.0000000000
     11230       361  ECLIPA    H712S          15.3870567701      -14.8427961648        4.8176389283  LPSA11    1               0.0000000000
     11231       361  ECLIPA    C713           15.8248525101      -14.1743188548        2.7936052856  LPSA11    1               0.0000000000
     11232       361  ECLIPA    H713R          16.8485215976      -14.6199298960        2.8362341786  LPSA11    1               0.0000000000
     11233       361  ECLIPA    H713S          15.1479156827      -14.9232108043        2.3199107039  LPSA11    1               0.0000000000
     11234       361  ECLIPA    C714           15.8211794360      -12.9525419641        1.8785369852  LPSA11    1               0.0000000000
     11235       361  ECLIPA    H714R          14.7937759735      -12.5345783959        1.7947093826  LPSA11    1               0.0000000000
     11236       361  ECLIPA    H714S          16.5234323872      -12.1632659404        2.2253781609  LPSA11    1               0.0000000000
     11237       361  ECLIPA    H714T          16.1336092628      -13.2755639764        0.8654133627  LPSA11    1               0.0000000000
     11238       361  ECLIPA    C51            20.0567651130      -14.1816888665       14.2356548748  LPSA11    1               0.0000000000
     11239       361  ECLIPA    O51            19.3431056177      -15.1561531787       14.0771156025  LPSA11    1               0.0000000000
     11240       361  ECLIPA    C52            20.4537731238      -13.3216441166       13.0550635666  LPSA11    1               0.0000000000
     11241       361  ECLIPA    H52R           19.7196014211      -12.4958798321       12.9237981717  LPSA11    1               0.0000000000
     11242       361  ECLIPA    H52S           21.4437759746      -12.8810581115       13.2425378576  LPSA11    1               0.0000000000
     11243       361  ECLIPA    C53            20.5007079043      -14.1635571883       11.7623382509  LPSA11    1               0.0000000000
     11244       361  ECLIPA    H53R           20.8504977898      -15.2017237170       11.9860934590  LPSA11    1               0.0000000000
     11245       361  ECLIPA    O53            21.3630218364      -13.4568162110       10.8520216863  LPSA11    1               0.0000000000
     11246       361  ECLIPA    C61            22.5287432853      -14.0090268122       10.5290404773  LPSA11    1               0.0000000000
     11247       361  ECLIPA    O61            22.9177954165      -15.1029651200       10.8629959281  LPSA11    1               0.0000000000
     11248       361  ECLIPA    C62            23.3047674588      -13.0714953577        9.5940455108  LPSA11    1               0.0000000000
     11249       361  ECLIPA    H62R           23.8246450959      -12.3183959459       10.2166772927  LPSA11    1               0.0000000000
     11250       361  ECLIPA    H62S           22.5403126025      -12.5299524373        9.0056327680  LPSA11    1               0.0000000000
     11251       361  ECLIPA    C63            24.3227290923      -13.8540559063        8.7058261341  LPSA11    1               0.0000000000
     11252       361  ECLIPA    H63R           23.8018286604      -14.7379898675        8.2757082182  LPSA11    1               0.0000000000
     11253       361  ECLIPA    H63S           25.1711410396      -14.2220383753        9.3298685112  LPSA11    1               0.0000000000
     11254       361  ECLIPA    C64            24.9057672993      -13.0754755627        7.5084821420  LPSA11    1               0.0000000000
     11255       361  ECLIPA    H64R           25.6720036256      -13.6963018513        6.9884132506  LPSA11    1               0.0000000000
     11256       361  ECLIPA    H64S           25.4020261305      -12.1705749085        7.9230348075  LPSA11    1               0.0000000000
     11257       361  ECLIPA    C65            23.7969345925      -12.6771926469        6.5285619145  LPSA11    1               0.0000000000
     11258       361  ECLIPA    H65R           23.1286298839      -12.0263540482        7.1361832326  LPSA11    1               0.0000000000
     11259       361  ECLIPA    H65S           23.2173335850      -13.5727070891        6.2165474001  LPSA11    1               0.0000000000
     11260       361  ECLIPA    C66            24.1757293072      -11.8817442468        5.2635632349  LPSA11    1               0.0000000000
     11261       361  ECLIPA    H66R           24.7047993096      -10.9518450253        5.5534533761  LPSA11    1               0.0000000000
     11262       361  ECLIPA    H66S           23.1989712107      -11.6077343064        4.7945893610  LPSA11    1               0.0000000000
     11263       361  ECLIPA    C67            24.9928250966      -12.5907635681        4.1759339832  LPSA11    1               0.0000000000
     11264       361  ECLIPA    H67R           25.9229034739      -13.0554836964        4.5755800163  LPSA11    1               0.0000000000
     11265       361  ECLIPA    H67S           25.2875004810      -11.8747266052        3.3723226343  LPSA11    1               0.0000000000
     11266       361  ECLIPA    C68            24.2452446902      -13.7293098387        3.5216165512  LPSA11    1               0.0000000000
     11267       361  ECLIPA    H68R           23.2417853202      -13.4840061564        3.1121403563  LPSA11    1               0.0000000000
     11268       361  ECLIPA    H68S           24.1438776030      -14.5285203440        4.2892461612  LPSA11    1               0.0000000000
     11269       361  ECLIPA    C69            25.0112001533      -14.2199686986        2.3320264795  LPSA11    1               0.0000000000
     11270       361  ECLIPA    H69R           26.1166093396      -14.0987298924        2.4318797210  LPSA11    1               0.0000000000
     11271       361  ECLIPA    H69S           24.7411309239      -13.5690452290        1.4732993073  LPSA11    1               0.0000000000
     11272       361  ECLIPA    C610           24.6137077888      -15.6769267500        2.0983089019  LPSA11    1               0.0000000000
     11273       361  ECLIPA    H610R          23.5375926929      -15.8809400493        2.1677517757  LPSA11    1               0.0000000000
     11274       361  ECLIPA    H610S          25.2165669956      -16.3365696400        2.7830776490  LPSA11    1               0.0000000000
     11275       361  ECLIPA    C611           25.0256566601      -16.0392522691        0.7241420600  LPSA11    1               0.0000000000
     11276       361  ECLIPA    H611R          25.9809975016      -15.6647886697        1.0473907192  LPSA11    1               0.0000000000
     11277       361  ECLIPA    H611S          25.1956439756      -17.1044573731        0.5297728666  LPSA11    1               0.0000000000
     11278       361  ECLIPA    C612           24.5487481951      -15.2450863816       -0.5041612203  LPSA11    1               0.0000000000
     11279       361  ECLIPA    H612R          23.4968892248      -15.4097371820       -0.7050883443  LPSA11    1               0.0000000000
     11280       361  ECLIPA    H612S          24.5034122360      -14.1877664695       -0.3313007018  LPSA11    1               0.0000000000
     11281       361  ECLIPA    H612T          25.0582684978      -15.5104221466       -1.4591810037  LPSA11    1               0.0000000000
     11282       361  ECLIPA    C54            19.0655185915      -14.2201885620       11.1706377677  LPSA11    1               0.0000000000
     11283       361  ECLIPA    H54R           18.7934526012      -13.1813779540       10.8821951722  LPSA11    1               0.0000000000
     11284       361  ECLIPA    H54S           18.3739936136      -14.5389702374       11.9780202503  LPSA11    1               0.0000000000
     11285       361  ECLIPA    C55            18.8464479350      -15.1539816172        9.9636681266  LPSA11    1               0.0000000000
     11286       361  ECLIPA    H55R           17.7588014850      -15.3345054522        9.8234898890  LPSA11    1               0.0000000000
     11287       361  ECLIPA    H55S           19.2888950432      -16.1462148069       10.2008730119  LPSA11    1               0.0000000000
     11288       361  ECLIPA    C56            19.3996928890      -14.5024169559        8.6895529598  LPSA11    1               0.0000000000
     11289       361  ECLIPA    H56R           20.4654544177      -14.2603967667        8.8597490211  LPSA11    1               0.0000000000
     11290       361  ECLIPA    H56S           18.8692894820      -13.5399604335        8.5042081979  LPSA11    1               0.0000000000
     11291       361  ECLIPA    C57            19.3887635516      -15.3240374796        7.4030003490  LPSA11    1               0.0000000000
     11292       361  ECLIPA    H57R           18.3737840671      -15.7169904961        7.1804644217  LPSA11    1               0.0000000000
     11293       361  ECLIPA    H57S           20.0563245878      -16.2048558516        7.5427510117  LPSA11    1               0.0000000000
     11294       361  ECLIPA    C58            19.9345936942      -14.4668957675        6.2398979739  LPSA11    1               0.0000000000
     11295       361  ECLIPA    H58R           19.4607238447      -13.4634011251        6.2158153367  LPSA11    1               0.0000000000
     11296       361  ECLIPA    H58S           21.0111484625      -14.2779829688        6.4597148925  LPSA11    1               0.0000000000
     11297       361  ECLIPA    C59            19.7326749482      -15.1412958653        4.8701663488  LPSA11    1               0.0000000000
     11298       361  ECLIPA    H59R           18.6511491028      -15.3635010499        4.7157279541  LPSA11    1               0.0000000000
     11299       361  ECLIPA    H59S           20.2629063402      -16.1147770263        4.9598747150  LPSA11    1               0.0000000000
     11300       361  ECLIPA    C510           20.1546724061      -14.2877060856        3.6448095194  LPSA11    1               0.0000000000
     11301       361  ECLIPA    H510R          21.1431258995      -13.8152773867        3.8237405819  LPSA11    1               0.0000000000
     11302       361  ECLIPA    H510S          19.4117043789      -13.4657928233        3.5164055671  LPSA11    1               0.0000000000
     11303       361  ECLIPA    C511           20.2244775122      -15.0497629031        2.3048794853  LPSA11    1               0.0000000000
     11304       361  ECLIPA    H511R          21.1782807484      -15.6154663714        2.2734961104  LPSA11    1               0.0000000000
     11305       361  ECLIPA    H511S          19.3853832163      -15.7732101810        2.2214311352  LPSA11    1               0.0000000000
     11306       361  ECLIPA    C512           20.1781254568      -14.1643839143        1.0623356788  LPSA11    1               0.0000000000
     11307       361  ECLIPA    H512R          19.9451347281      -14.7631905790        0.1463038161  LPSA11    1               0.0000000000
     11308       361  ECLIPA    H512S          19.4060777106      -13.3622917687        1.1322378177  LPSA11    1               0.0000000000
     11309       361  ECLIPA    C513           21.4898154794      -13.5400677067        0.7073093421  LPSA11    1               0.0000000000
     11310       361  ECLIPA    H513R          22.3184795243      -14.2650986400        0.5334771568  LPSA11    1               0.0000000000
     11311       361  ECLIPA    H513S          21.8831536650      -12.8187943173        1.4618335119  LPSA11    1               0.0000000000
     11312       361  ECLIPA    C514           21.1798030546      -12.8217705766       -0.5708038382  LPSA11    1               0.0000000000
     11313       361  ECLIPA    H514R          20.4550908240      -11.9988583584       -0.6170501698  LPSA11    1               0.0000000000
     11314       361  ECLIPA    H514S          21.9691867638      -12.1321288243       -0.4926384450  LPSA11    1               0.0000000000
     11315       361  ECLIPA    H514T          21.2912322536      -13.4266237577       -1.5059921068  LPSA11    1               0.0000000000
     11316       361  ECLIPA    C33            25.0387164256      -12.7999070240       14.4833231788  LPSA11    1               0.0000000000
     11317       361  ECLIPA    H33R           25.7149848518      -11.9924992676       14.8666141499  LPSA11    1               0.0000000000
     11318       361  ECLIPA    O33            24.0702941294      -13.0516658421       15.4750571032  LPSA11    1               0.0000000000
     11319       361  ECLIPA    HO33           24.4740002607      -13.0708030146       16.3493807058  LPSA11    1               0.0000000000
     11320       361  ECLIPA    C34            24.3619033103      -12.2764420230       13.1954768678  LPSA11    1               0.0000000000
     11321       361  ECLIPA    H34R           23.6847101060      -13.0544772944       12.8055240992  LPSA11    1               0.0000000000
     11322       361  ECLIPA    H34S           25.1245172750      -12.0610872302       12.4123186294  LPSA11    1               0.0000000000
     11323       361  ECLIPA    C35            23.5353153129      -10.9973954444       13.4274749085  LPSA11    1               0.0000000000
     11324       361  ECLIPA    H35R           24.2611283640      -10.2266036186       13.7450964243  LPSA11    1               0.0000000000
     11325       361  ECLIPA    H35S           22.8245784274      -11.1506473374       14.2635594905  LPSA11    1               0.0000000000
     11326       361  ECLIPA    C36            22.7498263974      -10.5051951040       12.1985603517  LPSA11    1               0.0000000000
     11327       361  ECLIPA    H36R           22.5113801550      -11.4296087279       11.6531729482  LPSA11    1               0.0000000000
     11328       361  ECLIPA    H36S           23.3805740352       -9.8451716140       11.5496193919  LPSA11    1               0.0000000000
     11329       361  ECLIPA    C37            21.4145337313       -9.7962545321       12.5208318623  LPSA11    1               0.0000000000
     11330       361  ECLIPA    H37R           21.6367788976       -8.7096557061       12.6542908537  LPSA11    1               0.0000000000
     11331       361  ECLIPA    H37S           21.0404567939      -10.1770531697       13.4899778764  LPSA11    1               0.0000000000
     11332       361  ECLIPA    C38            20.3241750154       -9.9621372971       11.4411325990  LPSA11    1               0.0000000000
     11333       361  ECLIPA    H38R           19.8776911437      -10.9775342861       11.4394928768  LPSA11    1               0.0000000000
     11334       361  ECLIPA    H38S           19.5018828873       -9.2477290378       11.6712477486  LPSA11    1               0.0000000000
     11335       361  ECLIPA    C39            20.8712860927       -9.7471165455       10.0217849160  LPSA11    1               0.0000000000
     11336       361  ECLIPA    H39R           21.7552558959      -10.3845073322        9.8239733680  LPSA11    1               0.0000000000
     11337       361  ECLIPA    H39S           21.2259766617       -8.7191073455        9.9724319691  LPSA11    1               0.0000000000
     11338       361  ECLIPA    C310           19.8822491826       -9.8990365711        8.8683133578  LPSA11    1               0.0000000000
     11339       361  ECLIPA    H310R          19.1521971936       -9.0610466299        8.9677358282  LPSA11    1               0.0000000000
     11340       361  ECLIPA    H310S          19.3441254541      -10.8644850189        8.9474899620  LPSA11    1               0.0000000000
     11341       361  ECLIPA    C311           20.6159925362       -9.9433740205        7.5141670892  LPSA11    1               0.0000000000
     11342       361  ECLIPA    H311R          21.4898293572       -9.2538313781        7.5300515543  LPSA11    1               0.0000000000
     11343       361  ECLIPA    H311S          21.0144969492      -10.9737599442        7.3632377406  LPSA11    1               0.0000000000
     11344       361  ECLIPA    C312           19.7254773134       -9.6528825738        6.3008511124  LPSA11    1               0.0000000000
     11345       361  ECLIPA    H312R          18.7028986066      -10.0473202592        6.4866909099  LPSA11    1               0.0000000000
     11346       361  ECLIPA    H312S          19.6646395108       -8.5482816130        6.1804366662  LPSA11    1               0.0000000000
     11347       361  ECLIPA    C313           20.2841222045      -10.2658310509        5.0046887319  LPSA11    1               0.0000000000
     11348       361  ECLIPA    H313R          21.1841876345       -9.6643815892        4.7495093538  LPSA11    1               0.0000000000
     11349       361  ECLIPA    H313S          20.6167499894      -11.3170735718        5.1750027340  LPSA11    1               0.0000000000
     11350       361  ECLIPA    C314           19.3154940823      -10.2387766862        3.8181566682  LPSA11    1               0.0000000000
     11351       361  ECLIPA    H314R          19.0278086483       -9.1900516296        3.5969836790  LPSA11    1               0.0000000000
     11352       361  ECLIPA    H314S          19.7794692272      -10.6733344590        2.9048652515  LPSA11    1               0.0000000000
     11353       361  ECLIPA    H314T          18.3966787648      -10.8219793493        4.0450811853  LPSA11    1               0.0000000000
     11354       361  ECLIPA    C11            22.7169586521      -18.1576309297       11.2539228456  LPSA11    1               0.0000000000
     11355       361  ECLIPA    O11            21.5533842626      -17.8099221413       11.0999756041  LPSA11    1               0.0000000000
     11356       361  ECLIPA    C12            23.3363893888      -19.1732672010       10.3268985882  LPSA11    1               0.0000000000
     11357       361  ECLIPA    H12R           22.9250057634      -20.1758101447       10.5527852522  LPSA11    1               0.0000000000
     11358       361  ECLIPA    H12S           24.4308234500      -19.1780517123       10.5144175040  LPSA11    1               0.0000000000
     11359       361  ECLIPA    C13            23.1092760367      -18.8406284295        8.8547324816  LPSA11    1               0.0000000000
     11360       361  ECLIPA    H13R           22.0643888951      -18.5104224619        8.6423060186  LPSA11    1               0.0000000000
     11361       361  ECLIPA    O13            23.3477573505      -20.0374896042        8.1227246366  LPSA11    1               0.0000000000
     11362       361  ECLIPA    HO13           22.8732626147      -20.0991864677        7.2890668015  LPSA11    1               0.0000000000
     11363       361  ECLIPA    C14            24.0883135054      -17.7248583819        8.4420408605  LPSA11    1               0.0000000000
     11364       361  ECLIPA    H14R           25.0646346749      -17.8589563592        8.9600725230  LPSA11    1               0.0000000000
     11365       361  ECLIPA    H14S           23.6317693556      -16.7700188602        8.7794697587  LPSA11    1               0.0000000000
     11366       361  ECLIPA    C15            24.3640986046      -17.5873130883        6.9531519664  LPSA11    1               0.0000000000
     11367       361  ECLIPA    H15R           24.7388918759      -18.5643877608        6.5775810613  LPSA11    1               0.0000000000
     11368       361  ECLIPA    H15S           25.1933828943      -16.8572669091        6.8272835764  LPSA11    1               0.0000000000
     11369       361  ECLIPA    C16            23.1200748505      -17.1196150564        6.1952277742  LPSA11    1               0.0000000000
     11370       361  ECLIPA    H16R           22.9876842408      -16.0245963825        6.2822284128  LPSA11    1               0.0000000000
     11371       361  ECLIPA    H16S           22.2164675203      -17.5789757923        6.6516826379  LPSA11    1               0.0000000000
     11372       361  ECLIPA    C17            23.2308113938      -17.5032935285        4.7329960119  LPSA11    1               0.0000000000
     11373       361  ECLIPA    H17R           24.2602675611      -17.2504971148        4.3976720306  LPSA11    1               0.0000000000
     11374       361  ECLIPA    H17S           22.5275996318      -16.9277632661        4.0908473540  LPSA11    1               0.0000000000
     11375       361  ECLIPA    C18            23.0039401261      -19.0045434455        4.6056166720  LPSA11    1               0.0000000000
     11376       361  ECLIPA    H18R           23.7442616221      -19.5616222312        5.2055281904  LPSA11    1               0.0000000000
     11377       361  ECLIPA    H18S           21.9585020898      -19.2715198675        4.8906070360  LPSA11    1               0.0000000000
     11378       361  ECLIPA    C19            23.1680872922      -19.5004947867        3.2182634300  LPSA11    1               0.0000000000
     11379       361  ECLIPA    H19R           23.2654929605      -20.6008445198        3.1683482093  LPSA11    1               0.0000000000
     11380       361  ECLIPA    H19S           24.1084565287      -19.0727843133        2.7623782620  LPSA11    1               0.0000000000
     11381       361  ECLIPA    C110           21.8678113585      -19.1547988555        2.4855135996  LPSA11    1               0.0000000000
     11382       361  ECLIPA    H110R          20.8524454645      -19.1599991658        2.8148251747  LPSA11    1               0.0000000000
     11383       361  ECLIPA    H110S          22.0760340252      -18.0351431101        2.4285579527  LPSA11    1               0.0000000000
     11384       361  ECLIPA    C111           21.6723329052      -20.1066023758        1.2339834566  LPSA11    1               0.0000000000
     11385       361  ECLIPA    H111R          22.8108043016      -20.3932542867        1.2322610041  LPSA11    1               0.0000000000
     11386       361  ECLIPA    H111S          21.3270596335      -21.0731828437        1.0156004629  LPSA11    1               0.0000000000
     11387       361  ECLIPA    C112           20.7859209258      -19.5538861665       -0.0822158759  LPSA11    1               0.0000000000
     11388       361  ECLIPA    H112R          19.7675172193      -19.2776635978        0.1878539663  LPSA11    1               0.0000000000
     11389       361  ECLIPA    H112S          20.7933094338      -18.4444563037       -0.3071481897  LPSA11    1               0.0000000000
     11390       361  ECLIPA    C113           21.0756832477      -20.1028022071       -1.5674012881  LPSA11    1               0.0000000000
     11391       361  ECLIPA    H113R          22.1779416406      -20.0250136623       -1.8627535332  LPSA11    1               0.0000000000
     11392       361  ECLIPA    H113S          21.4917601954      -21.0732784737       -1.8496430487  LPSA11    1               0.0000000000
     11393       361  ECLIPA    C114           20.2213369317      -19.3514424525       -2.6725798794  LPSA11    1               0.0000000000
     11394       361  ECLIPA    H114R          19.1483695102      -19.3845913644       -2.6569108520  LPSA11    1               0.0000000000
     11395       361  ECLIPA    H114S          20.3385527444      -18.2510853778       -2.9182505657  LPSA11    1               0.0000000000
     11396       361  ECLIPA    H114T          20.5121690234      -19.8871723812       -3.5811219835  LPSA11    1               0.0000000000
     11397       362  AKDO      C1             19.6647324807      -12.7996176760       22.4187873309  LPSA11    2               0.0000000000
     11398       362  AKDO      O11            18.6358049154      -12.0604250358       22.4176376355  LPSA11    2               0.0000000000
     11399       362  AKDO      O12            20.8313013261      -12.4493280810       22.0725114722  LPSA11    2               0.0000000000
     11400       362  AKDO      C2             19.4852272674      -14.2983411049       22.8652235421  LPSA11    2               0.0000000000
     11401       362  AKDO      C6             17.9004886495      -15.8172168467       23.8719727857  LPSA11    2               0.0000000000
     11402       362  AKDO      H6             18.0746363178      -16.4366568911       22.9602043270  LPSA11    2               0.0000000000
     11403       362  AKDO      O6             18.1752118400      -14.4684015770       23.4675464748  LPSA11    2               0.0000000000
     11404       362  AKDO      C3             20.5033656897      -14.7443855261       23.9252647985  LPSA11    2               0.0000000000
     11405       362  AKDO      H31            20.4878784364      -14.0384016375       24.7854885055  LPSA11    2               0.0000000000
     11406       362  AKDO      H32            21.5099422426      -14.7102270695       23.4495949741  LPSA11    2               0.0000000000
     11407       362  AKDO      C4             20.2522085791      -16.1483484342       24.3781214278  LPSA11    2               0.0000000000
     11408       362  AKDO      H4             20.2637651329      -16.8167473273       23.4930606123  LPSA11    2               0.0000000000
     11409       362  AKDO      O4             21.1947712628      -16.5766163815       25.3678967823  LPSA11    2               0.0000000000
     11410       362  AKDO      C5             18.8726337469      -16.2852696091       24.9697302738  LPSA11    2               0.0000000000
     11411       362  AKDO      H5             18.6810039666      -17.3793733179       25.0996818719  LPSA11    2               0.0000000000
     11412       362  AKDO      O5             18.8562951741      -15.6035454334       26.2639697820  LPSA11    2               0.0000000000
     11413       362  AKDO      C7             16.4267721952      -16.0192041591       24.1755960486  LPSA11    2               0.0000000000
     11414       362  AKDO      H7             16.1754621203      -15.4344119827       25.0840611360  LPSA11    2               0.0000000000
     11415       362  AKDO      O7             16.1760033851      -17.4295076962       24.3632629874  LPSA11    2               0.0000000000
     11416       362  AKDO      HO7            15.8932857658      -17.7321299550       23.5175677336  LPSA11    2               0.0000000000
     11417       362  AKDO      C8             15.5674102340      -15.4990089279       23.0376876907  LPSA11    2               0.0000000000
     11418       362  AKDO      H81            15.8362048581      -14.4260466106       22.8700777589  LPSA11    2               0.0000000000
     11419       362  AKDO      H82            15.8183348212      -16.0389845914       22.0978704192  LPSA11    2               0.0000000000
     11420       362  AKDO      O8             14.1544059306      -15.6179369578       23.3272224262  LPSA11    2               0.0000000000
     11421       362  AKDO      HO8            13.7850205842      -14.8394367883       22.8753031601  LPSA11    2               0.0000000000
     11422       363  AKDO      C1             22.3910670717      -18.0082467956       23.7622623789  LPSA11    3               1.0000000000
     11423       363  AKDO      O11            22.6421879047      -17.5890504545       22.5997702437  LPSA11    3               1.0000000000
     11424       363  AKDO      O12            21.9546495255      -19.1670606638       23.9941130045  LPSA11    3               1.0000000000
     11425       363  AKDO      C2             22.4851768224      -17.0199831650       24.9911206851  LPSA11    3               1.0000000000
     11426       363  AKDO      C6             23.4584830514      -14.9374386456       25.7792267796  LPSA11    3               1.0000000000
     11427       363  AKDO      H6             22.4409999438      -14.5071016144       25.9709141907  LPSA11    3               1.0000000000
     11428       363  AKDO      O6             23.3893038441      -15.9194645319       24.7158020656  LPSA11    3               1.0000000000
     11429       363  AKDO      C3             22.9706026089      -17.6638743173       26.3151762918  LPSA11    3               1.0000000000
     11430       363  AKDO      H31            23.9813934780      -18.0866174258       26.1496898294  LPSA11    3               1.0000000000
     11431       363  AKDO      H32            22.3219414885      -18.5227004731       26.5843886103  LPSA11    3               1.0000000000
     11432       363  AKDO      C4             22.9989468739      -16.6474298837       27.4236392827  LPSA11    3               1.0000000000
     11433       363  AKDO      H4             21.9972572382      -16.1643373865       27.4814093555  LPSA11    3               1.0000000000
     11434       363  AKDO      O4             23.2852397392      -17.1972215553       28.7000827919  LPSA11    3               1.0000000000
     11435       363  AKDO      HO4            22.5774384322      -16.9550251209       29.3244644351  LPSA11    3               1.0000000000
     11436       363  AKDO      C5             23.9802591554      -15.5828294428       27.0493312536  LPSA11    3               1.0000000000
     11437       363  AKDO      H5             23.9772256237      -14.8229064260       27.8583892670  LPSA11    3               1.0000000000
     11438       363  AKDO      O5             25.3075680406      -16.1016058005       26.8911606823  LPSA11    3               1.0000000000
     11439       363  AKDO      HO5            25.2248373085      -16.7478876472       26.1848578859  LPSA11    3               1.0000000000
     11440       363  AKDO      C7             24.3408094144      -13.7997054799       25.3537253066  LPSA11    3               1.0000000000
     11441       363  AKDO      H7             25.3595813837      -14.2043757097       25.1300097233  LPSA11    3               1.0000000000
     11442       363  AKDO      O7             24.4492172534      -12.8405248643       26.4152344826  LPSA11    3               1.0000000000
     11443       363  AKDO      HO7            25.0820495266      -12.1884434947       26.1171342741  LPSA11    3               1.0000000000
     11444       363  AKDO      C8             23.7556190040      -13.1637831010       24.1198423376  LPSA11    3               1.0000000000
     11445       363  AKDO      H81            23.6053302105      -13.9360430549       23.3282168641  LPSA11    3               1.0000000000
     11446       363  AKDO      H82            22.7624553624      -12.7050456981       24.3216887021  LPSA11    3               1.0000000000
     11447       363  AKDO      O8             24.6901575185      -12.1945527788       23.6463196818  LPSA11    3               1.0000000000
     11448       363  AKDO      HO8            25.2917233552      -12.7501124403       23.1388259839  LPSA11    3               1.0000000000
     11449       364  AHEP      C1             17.9886093501      -16.1357359227       27.2550038141  LPSA11    4               2.0000000000
     11450       364  AHEP      H1             16.9832406487      -15.8274958156       26.9101826793  LPSA11    4               2.0000000000
     11451       364  AHEP      C5             19.0908674067      -18.1578423647       27.9919024888  LPSA11    4               2.0000000000
     11452       364  AHEP      H5             20.0141959056      -17.7594155123       27.5101803542  LPSA11    4               2.0000000000
     11453       364  AHEP      O5             17.9575613836      -17.5654171859       27.3115303668  LPSA11    4               2.0000000000
     11454       364  AHEP      C2             18.0483519246      -15.6267903887       28.7135061246  LPSA11    4               2.0000000000
     11455       364  AHEP      H2             18.1739446516      -14.5229484120       28.6729445948  LPSA11    4               2.0000000000
     11456       364  AHEP      O2             16.7931983117      -15.8456069823       29.3912595478  LPSA11    4               2.0000000000
     11457       364  AHEP      HO2            16.6672432490      -15.0597050346       29.9027773288  LPSA11    4               2.0000000000
     11458       364  AHEP      C3             19.2321740792      -16.1751433715       29.5001288731  LPSA11    4               2.0000000000
     11459       364  AHEP      H3             20.2124482881      -15.8240278670       29.1004767892  LPSA11    4               2.0000000000
     11460       364  AHEP      O3             19.1054419235      -15.7610411954       30.8811256669  LPSA11    4               2.0000000000
     11461       364  AHEP      C4             19.1387423603      -17.6840024462       29.4502357205  LPSA11    4               2.0000000000
     11462       364  AHEP      H4             18.2257665267      -18.0632951714       29.9654372804  LPSA11    4               2.0000000000
     11463       364  AHEP      O4             20.3495362071      -18.1525367205       30.0452654223  LPSA11    4               2.0000000000
     11464       364  AHEP      P4             20.2970885303      -19.0165034211       31.4618510063  LPSA11    4               2.0000000000
     11465       364  AHEP      OP42           21.6333680801      -18.6999057880       32.1160189477  LPSA11    4               2.0000000000
     11466       364  AHEP      OP43           20.2188806555      -20.4644679565       31.0031348893  LPSA11    4               2.0000000000
     11467       364  AHEP      OP44           19.0998171469      -18.5270594051       32.2724735078  LPSA11    4               2.0000000000
     11468       364  AHEP      C6             19.0342962549      -19.6986441704       27.7863300067  LPSA11    4               2.0000000000
     11469       364  AHEP      H6             20.0544510316      -20.0734569470       28.0763270154  LPSA11    4               2.0000000000
     11470       364  AHEP      O6             18.0736379579      -20.4012466063       28.6083289718  LPSA11    4               2.0000000000
     11471       364  AHEP      HO6            18.5609308443      -20.9303525447       29.2689200714  LPSA11    4               2.0000000000
     11472       364  AHEP      C7             18.7502971126      -20.1235661910       26.3236705571  LPSA11    4               2.0000000000
     11473       364  AHEP      H71            19.0227547394      -21.1870311503       26.1820505738  LPSA11    4               2.0000000000
     11474       364  AHEP      H72            19.4094586372      -19.5273235536       25.6588118921  LPSA11    4               2.0000000000
     11475       364  AHEP      O7             17.3820553659      -20.0208042436       25.8458755901  LPSA11    4               2.0000000000
     11476       364  AHEP      HO7            16.9740856245      -20.7005611355       26.3938480314  LPSA11    4               2.0000000000
     11477       365  AHEP      C1             20.1704034871      -15.0364872177       31.4623403242  LPSA11    5               3.0000000000
     11478       365  AHEP      H1             21.1417145986      -15.3083669192       30.9806361530  LPSA11    5               3.0000000000
     11479       365  AHEP      C5             18.7323617875      -13.2002417180       31.9617492769  LPSA11    5               3.0000000000
     11480       365  AHEP      H5             17.9132261155      -13.8656608796       31.5999935252  LPSA11    5               3.0000000000
     11481       365  AHEP      O5             19.9485723545      -13.6188570547       31.3002268208  LPSA11    5               3.0000000000
     11482       365  AHEP      C2             20.2866629075      -15.3360112948       32.9652353593  LPSA11    5               3.0000000000
     11483       365  AHEP      H2             20.4094128280      -16.4386458594       33.0858415596  LPSA11    5               3.0000000000
     11484       365  AHEP      O2             21.4544806859      -14.7256017402       33.5120394122  LPSA11    5               3.0000000000
     11485       365  AHEP      HO2            22.1182184100      -15.4029070301       33.6365545648  LPSA11    5               3.0000000000
     11486       365  AHEP      C3             19.0366040504      -14.9133230676       33.7236933983  LPSA11    5               3.0000000000
     11487       365  AHEP      H3             18.1778823102      -15.4902327634       33.3157589428  LPSA11    5               3.0000000000
     11488       365  AHEP      O3             19.0976562818      -15.1095758149       35.1574110151  LPSA11    5               3.0000000000
     11489       365  AHEP      C4             18.8278824276      -13.4376987345       33.4611918966  LPSA11    5               3.0000000000
     11490       365  AHEP      H4             19.6896552777      -12.8435366980       33.8476427364  LPSA11    5               3.0000000000
     11491       365  AHEP      O4             17.5658315937      -13.0589988393       34.0295982644  LPSA11    5               3.0000000000
     11492       365  AHEP      P4             17.5677833777      -11.9272435323       35.2660241908  LPSA11    5               3.0000000000
     11493       365  AHEP      OP42           16.1566048116      -11.9527965750       35.8259744740  LPSA11    5               3.0000000000
     11494       365  AHEP      OP43           17.9283864433      -10.6010325418       34.5900893300  LPSA11    5               3.0000000000
     11495       365  AHEP      OP44           18.5861301827      -12.4113501103       36.2880092474  LPSA11    5               3.0000000000
     11496       365  AHEP      C6             18.3505074434      -11.7672173535       31.5644192273  LPSA11    5               3.0000000000
     11497       365  AHEP      H6             17.3856230359      -11.5142582422       32.0529583785  LPSA11    5               3.0000000000
     11498       365  AHEP      O6             19.2916697421      -10.7817654264       31.9963225213  LPSA11    5               3.0000000000
     11499       365  AHEP      HO6            20.1120001937      -10.8937608366       31.5300834583  LPSA11    5               3.0000000000
     11500       365  AHEP      C7             18.1403863463      -11.6418967044       30.0714246555  LPSA11    5               3.0000000000
     11501       365  AHEP      H71            17.3133183106      -10.9160721193       29.9186768417  LPSA11    5               3.0000000000
     11502       365  AHEP      H72            17.7978080183      -12.5916919248       29.6086587551  LPSA11    5               3.0000000000
     11503       365  AHEP      O7             19.2915068704      -11.0771272963       29.4378395701  LPSA11    5               3.0000000000
     11504       366  AHEP      C1             20.0652732177      -12.0548424301       28.7987612653  LPSA11    6               4.0000000000
     11505       366  AHEP      H1             19.7461179817      -13.0884068746       29.0369307346  LPSA11    6               4.0000000000
     11506       366  AHEP      C5             20.3544433285      -10.6205495844       26.9739418909  LPSA11    6               4.0000000000
     11507       366  AHEP      H5             19.7662359055       -9.8426387080       27.5181735719  LPSA11    6               4.0000000000
     11508       366  AHEP      O5             19.8915614618      -11.9070796760       27.3922723764  LPSA11    6               4.0000000000
     11509       366  AHEP      C2             21.5090943939      -11.9269240337       29.2480355986  LPSA11    6               4.0000000000
     11510       366  AHEP      H2             21.5307687886      -12.0259388799       30.3552581560  LPSA11    6               4.0000000000
     11511       366  AHEP      O2             22.3024095160      -12.9885340676       28.7484449287  LPSA11    6               4.0000000000
     11512       366  AHEP      HO2            22.5629246579      -13.5607018349       29.4646860176  LPSA11    6               4.0000000000
     11513       366  AHEP      C3             22.0382802383      -10.5804686449       28.8893724911  LPSA11    6               4.0000000000
     11514       366  AHEP      H3             21.4405767910       -9.7975070943       29.3930528443  LPSA11    6               4.0000000000
     11515       366  AHEP      O3             23.4152082334      -10.3819877315       29.3001073560  LPSA11    6               4.0000000000
     11516       366  AHEP      HO3            23.5630475931       -9.6575548121       29.9396237670  LPSA11    6               4.0000000000
     11517       366  AHEP      C4             21.8121559889      -10.4980735850       27.4002648935  LPSA11    6               4.0000000000
     11518       366  AHEP      H4             22.4853740670      -11.1606491821       26.8238573756  LPSA11    6               4.0000000000
     11519       366  AHEP      O4             22.2213805293       -9.2608628193       27.0495980641  LPSA11    6               4.0000000000
     11520       366  AHEP      HO4            21.5455922961       -8.5815680598       27.1286355635  LPSA11    6               4.0000000000
     11521       366  AHEP      C6             20.0544717526      -10.2995963167       25.5089193336  LPSA11    6               4.0000000000
     11522       366  AHEP      H6             20.2804059833       -9.2208694722       25.3364326035  LPSA11    6               4.0000000000
     11523       366  AHEP      O6             20.9217661146      -10.9768801342       24.6103200264  LPSA11    6               4.0000000000
     11524       366  AHEP      HO6            20.4084437132      -11.5603468009       24.0220650070  LPSA11    6               4.0000000000
     11525       366  AHEP      C7             18.5713675311      -10.4120782282       25.1794668487  LPSA11    6               4.0000000000
     11526       366  AHEP      H71            18.3936740372      -10.0542171818       24.1404306215  LPSA11    6               4.0000000000
     11527       366  AHEP      H72            18.0013359169       -9.7871875564       25.8958184348  LPSA11    6               4.0000000000
     11528       366  AHEP      O7             18.0013019325      -11.7006253615       25.2762201480  LPSA11    6               4.0000000000
     11529       366  AHEP      HO7            17.9689606049      -11.9972213592       26.1899321131  LPSA11    6               4.0000000000
     11530       367  AGLC      C1             18.5874140032      -16.3234602867       35.6560283792  LPSA11    7               4.0000000000
     11531       367  AGLC      H1             17.6314831039      -16.5935870036       35.1576523104  LPSA11    7               4.0000000000
     11532       367  AGLC      C5             20.7903468498      -17.1577519165       36.0936254982  LPSA11    7               4.0000000000
     11533       367  AGLC      H5             21.1994959017      -16.1607684216       35.8211702230  LPSA11    7               4.0000000000
     11534       367  AGLC      O5             19.5368900272      -17.3603939230       35.4252732820  LPSA11    7               4.0000000000
     11535       367  AGLC      C2             18.3425244946      -16.3501691836       37.1699289615  LPSA11    7               4.0000000000
     11536       367  AGLC      H2             18.0754297544      -17.4006168552       37.4291620511  LPSA11    7               4.0000000000
     11537       367  AGLC      O2             17.2287487677      -15.5780765739       37.5842077374  LPSA11    7               4.0000000000
     11538       367  AGLC      HO2            17.4671341196      -14.6369889865       37.5338168603  LPSA11    7               4.0000000000
     11539       367  AGLC      C3             19.5864342721      -16.0483862649       37.9752839673  LPSA11    7               4.0000000000
     11540       367  AGLC      H3             19.9875427307      -15.0753023455       37.6096624511  LPSA11    7               4.0000000000
     11541       367  AGLC      O3             19.3364465896      -15.9327859863       39.4076326175  LPSA11    7               4.0000000000
     11542       367  AGLC      C4             20.5726778255      -17.1547005064       37.6048298290  LPSA11    7               4.0000000000
     11543       367  AGLC      H4             20.1444348058      -18.1452068124       37.9196833983  LPSA11    7               4.0000000000
     11544       367  AGLC      O4             21.8338331172      -16.9435440861       38.2313736568  LPSA11    7               4.0000000000
     11545       367  AGLC      HO4            22.1130312307      -17.7473958912       38.6873754304  LPSA11    7               4.0000000000
     11546       367  AGLC      C6             21.7759800595      -18.1568771642       35.5056208274  LPSA11    7               4.0000000000
     11547       367  AGLC      H61            21.8061906006      -18.0044365841       34.4026053950  LPSA11    7               4.0000000000
     11548       367  AGLC      H62            22.8125769511      -18.0431873860       35.8846647082  LPSA11    7               4.0000000000
     11549       367  AGLC      O6             21.3798247385      -19.4954043879       35.7274789716  LPSA11    7               4.0000000000
     11550       367  AGLC      HO6            21.7766955370      -19.8280121966       36.5259315500  LPSA11    7               4.0000000000
     11551       368  AGLC      C1             19.6451998690      -14.6445702500       39.9243486564  LPSA11    8               5.0000000000
     11552       368  AGLC      H1             20.6222471828      -14.3056030006       39.5108389282  LPSA11    8               5.0000000000
     11553       368  AGLC      C5             17.3589801213      -13.7841760323       40.2152449100  LPSA11    8               5.0000000000
     11554       368  AGLC      H5             16.9694408162      -14.7700344214       39.8844043121  LPSA11    8               5.0000000000
     11555       368  AGLC      O5             18.6570455608      -13.6363580058       39.5943076288  LPSA11    8               5.0000000000
     11556       368  AGLC      C2             19.8147873299      -14.6458659241       41.4356819139  LPSA11    8               5.0000000000
     11557       368  AGLC      H2             20.1571927165      -13.6231605942       41.7023064241  LPSA11    8               5.0000000000
     11558       368  AGLC      O2             20.8016894956      -15.5530144943       41.9467932444  LPSA11    8               5.0000000000
     11559       368  AGLC      C3             18.5036512783      -14.9064592871       42.1256017655  LPSA11    8               5.0000000000
     11560       368  AGLC      H3             18.1341410846      -15.8859350556       41.7221051877  LPSA11    8               5.0000000000
     11561       368  AGLC      O3             18.7712204739      -15.0602324563       43.5384776787  LPSA11    8               5.0000000000
     11562       368  AGLC      C4             17.5480253287      -13.7991102218       41.7265282289  LPSA11    8               5.0000000000
     11563       368  AGLC      H4             18.0030859626      -12.8277461592       42.0319871905  LPSA11    8               5.0000000000
     11564       368  AGLC      O4             16.2883973216      -13.9258249676       42.3721273359  LPSA11    8               5.0000000000
     11565       368  AGLC      HO4            16.0558344045      -14.8574500512       42.3870605255  LPSA11    8               5.0000000000
     11566       368  AGLC      C6             16.2905588856      -12.7607954369       39.7334703732  LPSA11    8               5.0000000000
     11567       368  AGLC      H61            16.2999930691      -12.6663370383       38.6218306437  LPSA11    8               5.0000000000
     11568       368  AGLC      H62            15.2797449157      -13.1365006935       40.0086792018  LPSA11    8               5.0000000000
     11569       368  AGLC      O6             16.3634272448      -11.4536049595       40.3150428705  LPSA11    8               5.0000000000
     11570       368  AGLC      HO6            16.0544624670      -11.5022898673       41.2231109369  LPSA11    8               5.0000000000
     11571       369  AGAL      C1             22.1060966788      -15.4644945063       41.4348189334  LPSA11    9               6.0000000000
     11572       369  AGAL      H1             22.0906671222      -15.4400295919       40.3274987192  LPSA11    9               6.0000000000
     11573       369  AGAL      C5             23.0372419563      -14.2942126312       43.2821949931  LPSA11    9               6.0000000000
     11574       369  AGAL      H5             22.0427129560      -14.4847445487       43.7479998597  LPSA11    9               6.0000000000
     11575       369  AGAL      O5             22.8172246649      -14.2855728947       41.8612561073  LPSA11    9               6.0000000000
     11576       369  AGAL      C2             22.8487434081      -16.7311029935       41.8381208030  LPSA11    9               6.0000000000
     11577       369  AGAL      H2             23.8524558536      -16.6449340316       41.3691644136  LPSA11    9               6.0000000000
     11578       369  AGAL      O2             22.1852358476      -17.8543618981       41.1952463209  LPSA11    9               6.0000000000
     11579       369  AGAL      C3             23.0834206280      -16.7621871422       43.3340454989  LPSA11    9               6.0000000000
     11580       369  AGAL      H3             22.1145322825      -16.7765952641       43.8873782560  LPSA11    9               6.0000000000
     11581       369  AGAL      O3             23.7720725041      -17.9407601721       43.7062167916  LPSA11    9               6.0000000000
     11582       369  AGAL      HO3            23.3772606854      -18.6512264771       43.1854808179  LPSA11    9               6.0000000000
     11583       369  AGAL      C4             23.8801276407      -15.5017833585       43.6849019935  LPSA11    9               6.0000000000
     11584       369  AGAL      H4             24.0553491401      -15.4541647826       44.7774372985  LPSA11    9               6.0000000000
     11585       369  AGAL      O4             25.1644871481      -15.4767652870       43.0640953414  LPSA11    9               6.0000000000
     11586       369  AGAL      HO4            25.7395530683      -14.9451105601       43.6244903184  LPSA11    9               6.0000000000
     11587       369  AGAL      C6             23.4786159461      -12.9393265009       43.8494624510  LPSA11    9               6.0000000000
     11588       369  AGAL      H61            22.7106403963      -12.1700908722       43.6092366564  LPSA11    9               6.0000000000
     11589       369  AGAL      H62            23.5244289924      -13.0058053732       44.9564676952  LPSA11    9               6.0000000000
     11590       369  AGAL      O6             24.7506090405      -12.4625056165       43.4110207654  LPSA11    9               6.0000000000
     11591       369  AGAL      HO6            24.6028386298      -11.9005239733       42.6366651211  LPSA11    9               6.0000000000
     11592       370  AGAL      C1             21.9704223660      -19.1478310034       41.7503817973  LPSA11    10              7.0000000000
     11593       370  AGAL      H1             22.9467105088      -19.6718192679       41.8373089438  LPSA11    10              7.0000000000
     11594       370  AGAL      C5             19.9755822086      -18.6556249371       43.0413086429  LPSA11    10              7.0000000000
     11595       370  AGAL      H5             20.0851216366      -17.6229988503       42.6430766692  LPSA11    10              7.0000000000
     11596       370  AGAL      O5             21.3179286474      -19.1883907152       43.0520526138  LPSA11    10              7.0000000000
     11597       370  AGAL      C2             21.1174982172      -19.9165498797       40.7524592189  LPSA11    10              7.0000000000
     11598       370  AGAL      H2             21.0518509478      -20.9539104545       41.1368875401  LPSA11    10              7.0000000000
     11599       370  AGAL      O2             21.7353029334      -20.0786660341       39.4776803995  LPSA11    10              7.0000000000
     11600       370  AGAL      HO2            21.6619961268      -21.0141636882       39.2697461916  LPSA11    10              7.0000000000
     11601       370  AGAL      C3             19.7038273478      -19.3160074901       40.6877196272  LPSA11    10              7.0000000000
     11602       370  AGAL      H3             19.8259495337      -18.2332447066       40.4393738650  LPSA11    10              7.0000000000
     11603       370  AGAL      O3             18.8501147864      -19.8991143874       39.6878858544  LPSA11    10              7.0000000000
     11604       370  AGAL      HO3            18.7406225980      -19.2409788335       38.9924002958  LPSA11    10              7.0000000000
     11605       370  AGAL      C4             19.0835081069      -19.4140515897       42.0621855307  LPSA11    10              7.0000000000
     11606       370  AGAL      H4             18.0873704198      -18.9131150275       42.0733945758  LPSA11    10              7.0000000000
     11607       370  AGAL      O4             18.9060799274      -20.7899363032       42.4080908490  LPSA11    10              7.0000000000
     11608       370  AGAL      HO4            19.7898433436      -21.0892274646       42.6568882203  LPSA11    10              7.0000000000
     11609       370  AGAL      C6             19.3360899170      -18.4375626628       44.4185552133  LPSA11    10              7.0000000000
     11610       370  AGAL      H61            20.0550659415      -17.9389143368       45.1014612586  LPSA11    10              7.0000000000
     11611       370  AGAL      H62            18.4713883440      -17.7452894684       44.2767572083  LPSA11    10              7.0000000000
     11612       370  AGAL      O6             18.8472678601      -19.6098381738       45.0729356414  LPSA11    10              7.0000000000
     11613       370  AGAL      HO6            19.3501301363      -19.7353255825       45.8861917981  LPSA11    10              7.0000000000
     11614       371  BGLC      C1             18.6355335432      -13.9876769631       44.4777647543  LPSA11    11              6.0000000000
     11615       371  BGLC      H1             17.5559378013      -13.7728295387       44.6184382378  LPSA11    11              6.0000000000
     11616       371  BGLC      C5             19.3583893547      -11.7420757915       45.1210707609  LPSA11    11              6.0000000000
     11617       371  BGLC      H5             18.3137505986      -11.4218547034       45.3627140953  LPSA11    11              6.0000000000
     11618       371  BGLC      O5             19.4049639515      -12.8101338762       44.1209311351  LPSA11    11              6.0000000000
     11619       371  BGLC      C2             19.2072129614      -14.5374730211       45.7847948150  LPSA11    11              6.0000000000
     11620       371  BGLC      H2             20.2691405133      -14.8419358116       45.6412207360  LPSA11    11              6.0000000000
     11621       371  BGLC      O2             18.4987985460      -15.7128071960       46.1590533582  LPSA11    11              6.0000000000
     11622       371  BGLC      HO2            19.1184786845      -16.4234803523       46.3394741755  LPSA11    11              6.0000000000
     11623       371  BGLC      C3             19.1973146908      -13.5188717239       46.9078789216  LPSA11    11              6.0000000000
     11624       371  BGLC      H3             18.1509107351      -13.2509413102       47.1709385847  LPSA11    11              6.0000000000
     11625       371  BGLC      O3             19.9068466670      -14.0528678371       48.0514086670  LPSA11    11              6.0000000000
     11626       371  BGLC      C4             19.9786897196      -12.3031766149       46.4231441828  LPSA11    11              6.0000000000
     11627       371  BGLC      H4             21.0050976375      -12.6526557310       46.1748865139  LPSA11    11              6.0000000000
     11628       371  BGLC      O4             20.1477414677      -11.3214167840       47.4488760669  LPSA11    11              6.0000000000
     11629       371  BGLC      HO4            20.6816351397      -11.7008583125       48.1599947958  LPSA11    11              6.0000000000
     11630       371  BGLC      C6             20.0475298968      -10.5083898330       44.5139764006  LPSA11    11              6.0000000000
     11631       371  BGLC      H61            20.3637115634       -9.7756572866       45.2909529146  LPSA11    11              6.0000000000
     11632       371  BGLC      H62            20.9322692724      -10.8192285060       43.9261182545  LPSA11    11              6.0000000000
     11633       371  BGLC      O6             19.2196896854       -9.8037025906       43.5933389691  LPSA11    11              6.0000000000
     11634       371  BGLC      HO6            18.9929585631       -8.9299312611       43.9312587767  LPSA11    11              6.0000000000
     11635       372  BGLCNA    C1             19.2706020348      -14.0880083406       49.3187213350  LPSA11    12              7.0000000000
     11636       372  BGLCNA    H1             18.6264960567      -14.9914518767       49.3812854349  LPSA11    12              7.0000000000
     11637       372  BGLCNA    C5             17.8507986421      -12.9774704708       50.8787794238  LPSA11    12              7.0000000000
     11638       372  BGLCNA    H5             17.1869059015      -13.8720313462       50.9399096937  LPSA11    12              7.0000000000
     11639       372  BGLCNA    O5             18.5024540580      -12.9187160699       49.6015329240  LPSA11    12              7.0000000000
     11640       372  BGLCNA    C2             20.3741232570      -14.1843878286       50.3586512780  LPSA11    12              7.0000000000
     11641       372  BGLCNA    H2             20.9260223274      -13.2069072923       50.3040398726  LPSA11    12              7.0000000000
     11642       372  BGLCNA    N              21.2241523411      -15.3120658417       50.0609348718  LPSA11    12              7.0000000000
     11643       372  BGLCNA    HN             20.7463057460      -16.1775498942       49.9582343438  LPSA11    12              7.0000000000
     11644       372  BGLCNA    C              22.5491286131      -15.1860025324       49.9106757708  LPSA11    12              7.0000000000
     11645       372  BGLCNA    O              23.1181424661      -14.1158662848       50.0477679432  LPSA11    12              7.0000000000
     11646       372  BGLCNA    CT             23.3268069246      -16.4253315208       49.5609026187  LPSA11    12              7.0000000000
     11647       372  BGLCNA    HT1            23.9418122790      -16.7456274523       50.4201369229  LPSA11    12              7.0000000000
     11648       372  BGLCNA    HT2            24.0320644478      -16.2002073058       48.7331037939  LPSA11    12              7.0000000000
     11649       372  BGLCNA    HT3            22.6165638974      -17.2186288949       49.2444408130  LPSA11    12              7.0000000000
     11650       372  BGLCNA    C3             19.8128143926      -14.2923573668       51.7642884247  LPSA11    12              7.0000000000
     11651       372  BGLCNA    H3             19.2020864699      -15.2212693873       51.8045856867  LPSA11    12              7.0000000000
     11652       372  BGLCNA    O3             20.8619102787      -14.4176758550       52.7694219057  LPSA11    12              7.0000000000
     11653       372  BGLCNA    C4             18.9338911763      -13.0583826110       51.9583184691  LPSA11    12              7.0000000000
     11654       372  BGLCNA    H4             19.5595614941      -12.1363777423       51.8872904390  LPSA11    12              7.0000000000
     11655       372  BGLCNA    O4             18.3271620957      -13.0370604977       53.2360538427  LPSA11    12              7.0000000000
     11656       372  BGLCNA    HO4            17.7045272221      -13.7581378950       53.3086106921  LPSA11    12              7.0000000000
     11657       372  BGLCNA    C6             16.9632158555      -11.7457776011       50.9393037017  LPSA11    12              7.0000000000
     11658       372  BGLCNA    H61            16.4387314028      -11.6722163409       51.9164542442  LPSA11    12              7.0000000000
     11659       372  BGLCNA    H62            17.6076580094      -10.8453362329       50.8246453840  LPSA11    12              7.0000000000
     11660       372  BGLCNA    O6             15.9843950087      -11.7317695982       49.8887103716  LPSA11    12              7.0000000000
     11661       372  BGLCNA    HO6            15.2005362064      -12.2358622109       50.1332159913  LPSA11    12              7.0000000000
     11662       373  AGAL      C1             20.5852701874      -15.3356036369       53.8348276540  LPSA11    13              8.0000000000
     11663       373  AGAL      H1             19.5224836739      -15.2092348011       54.1537454310  LPSA11    13              8.0000000000
     11664       373  AGAL      C5             22.2809439196      -16.9428529434       53.2683221959  LPSA11    13              8.0000000000
     11665       373  AGAL      H5             22.5921541225      -16.1528335724       52.5416537901  LPSA11    13              8.0000000000
     11666       373  AGAL      O5             20.8597081679      -16.7148975502       53.4676382769  LPSA11    13              8.0000000000
     11667       373  AGAL      C2             21.4072193838      -15.0902507765       55.1073668513  LPSA11    13              8.0000000000
     11668       373  AGAL      H2             21.1283208657      -15.9211340812       55.7970918629  LPSA11    13              8.0000000000
     11669       373  AGAL      O2             21.0189140311      -13.8696059502       55.7537834876  LPSA11    13              8.0000000000
     11670       373  AGAL      C3             22.9029862062      -15.2797861052       54.8920558999  LPSA11    13              8.0000000000
     11671       373  AGAL      H3             23.2150512098      -14.6463198686       54.0250459705  LPSA11    13              8.0000000000
     11672       373  AGAL      O3             23.7136412643      -14.9230883765       56.0027639701  LPSA11    13              8.0000000000
     11673       373  AGAL      HO3            24.4410160606      -14.3552945558       55.7104202864  LPSA11    13              8.0000000000
     11674       373  AGAL      C4             23.1334313689      -16.7155649722       54.5158433825  LPSA11    13              8.0000000000
     11675       373  AGAL      H4             24.2108357345      -16.8319287460       54.2381947860  LPSA11    13              8.0000000000
     11676       373  AGAL      O4             22.8703173689      -17.6326835865       55.5948031851  LPSA11    13              8.0000000000
     11677       373  AGAL      HO4            21.9763102950      -17.4626064533       55.9220530483  LPSA11    13              8.0000000000
     11678       373  AGAL      C6             22.6534039945      -18.2256224635       52.5475824587  LPSA11    13              8.0000000000
     11679       373  AGAL      H61            22.0603998910      -18.2888904703       51.6068090339  LPSA11    13              8.0000000000
     11680       373  AGAL      H62            23.7406446402      -18.1805460800       52.3030792226  LPSA11    13              8.0000000000
     11681       373  AGAL      O6             22.4784829724      -19.4129475502       53.3110122036  LPSA11    13              8.0000000000
     11682       373  AGAL      HO6            23.1393677291      -19.4552310288       54.0091154438  LPSA11    13              8.0000000000
     11683       374  ARHM      C1             20.3633091986      -13.9714843506       57.0040722317  LPSA11    14              9.0000000000
     11684       374  ARHM      H1             19.8054954972      -14.9358050952       57.0456026724  LPSA11    14              9.0000000000
     11685       374  ARHM      C5             20.0027039885      -11.6405173270       57.1772644596  LPSA11    14              9.0000000000
     11686       374  ARHM      H5             20.5397386869      -11.5329542773       56.2089785639  LPSA11    14              9.0000000000
     11687       374  ARHM      O5             19.3959360672      -12.9352603399       57.1865871376  LPSA11    14              9.0000000000
     11688       374  ARHM      C2             21.3955323834      -13.8890415659       58.1116291746  LPSA11    14              9.0000000000
     11689       374  ARHM      H2             22.1755859164      -14.6300483959       57.9028258638  LPSA11    14              9.0000000000
     11690       374  ARHM      O2             20.9176670795      -14.0332851852       59.4635770470  LPSA11    14              9.0000000000
     11691       374  ARHM      C3             22.0766634999      -12.5565693631       58.0654922643  LPSA11    14              9.0000000000
     11692       374  ARHM      H3             22.4576900433      -12.3978781970       57.0331042567  LPSA11    14              9.0000000000
     11693       374  ARHM      O3             23.2235103798      -12.4724447112       58.9153396400  LPSA11    14              9.0000000000
     11694       374  ARHM      HO3            22.9568536461      -12.5112989457       59.8285057391  LPSA11    14              9.0000000000
     11695       374  ARHM      C4             21.0062847752      -11.5261708911       58.3206476805  LPSA11    14              9.0000000000
     11696       374  ARHM      H4             20.4673530314      -11.7100889844       59.2801694579  LPSA11    14              9.0000000000
     11697       374  ARHM      O4             21.5340098004      -10.2218868418       58.3950705956  LPSA11    14              9.0000000000
     11698       374  ARHM      HO4            21.5447119036       -9.8715723686       59.2910142567  LPSA11    14              9.0000000000
     11699       374  ARHM      C6             18.8682543113      -10.6047330907       57.2594460371  LPSA11    14              9.0000000000
     11700       374  ARHM      H61            18.0336055583      -10.8514985904       56.5757226097  LPSA11    14              9.0000000000
     11701       374  ARHM      H62            18.5422489976      -10.5451919993       58.3153086958  LPSA11    14              9.0000000000
     11702       374  ARHM      H63            19.1836553366       -9.5901356717       56.9834481923  LPSA11    14              9.0000000000
     11703       375  ARHM      C1             20.0789892957      -15.1187044303       59.7560204262  LPSA11    15             10.0000000000
     11704       375  ARHM      H1             20.2455869177      -15.9475737771       59.0441991340  LPSA11    15             10.0000000000
     11705       375  ARHM      C5             18.2135275386      -13.8484162041       60.6414996372  LPSA11    15             10.0000000000
     11706       375  ARHM      H5             18.6719824064      -12.8474281672       60.4566493509  LPSA11    15             10.0000000000
     11707       375  ARHM      O5             18.6772748867      -14.8122217997       59.6826002798  LPSA11    15             10.0000000000
     11708       375  ARHM      C2             20.4322712412      -15.6099126854       61.1404938046  LPSA11    15             10.0000000000
     11709       375  ARHM      H2             21.5334516474      -15.7705827012       61.2019792100  LPSA11    15             10.0000000000
     11710       375  ARHM      O2             19.7616390330      -16.8742186970       61.2987936906  LPSA11    15             10.0000000000
     11711       375  ARHM      C3             20.0448899804      -14.5585248974       62.1386356833  LPSA11    15             10.0000000000
     11712       375  ARHM      H3             20.5268982450      -13.5950269348       61.8426470518  LPSA11    15             10.0000000000
     11713       375  ARHM      O3             20.5822139210      -14.9531798489       63.4031305702  LPSA11    15             10.0000000000
     11714       375  ARHM      C4             18.5436435378      -14.3623024267       62.0281793875  LPSA11    15             10.0000000000
     11715       375  ARHM      H4             18.0478494942      -15.3497402996       62.1503411388  LPSA11    15             10.0000000000
     11716       375  ARHM      O4             17.9895559334      -13.5071889547       63.0098440466  LPSA11    15             10.0000000000
     11717       375  ARHM      HO4            17.0148545070      -13.5339740107       62.9711646008  LPSA11    15             10.0000000000
     11718       375  ARHM      C6             16.6890661930      -13.6829035232       60.4629853324  LPSA11    15             10.0000000000
     11719       375  ARHM      H61            16.2880357926      -12.8364364034       61.0544066210  LPSA11    15             10.0000000000
     11720       375  ARHM      H62            16.4627901978      -13.5657269914       59.3832973276  LPSA11    15             10.0000000000
     11721       375  ARHM      H63            16.1520203832      -14.5821848623       60.8258263043  LPSA11    15             10.0000000000
     11722       376  BMANNA    C1             19.8869823404      -17.6029505447       62.4976919505  LPSA11    16             11.0000000000
     11723       376  BMANNA    H1             19.3756676476      -17.0394241127       63.3065136804  LPSA11    16             11.0000000000
     11724       376  BMANNA    C5             21.3006464263      -18.4981815195       64.1972964156  LPSA11    16             11.0000000000
     11725       376  BMANNA    H5             20.7194831110      -17.9018505214       64.9470050676  LPSA11    16             11.0000000000
     11726       376  BMANNA    O5             21.2386402939      -17.8323384201       62.9145935723  LPSA11    16             11.0000000000
     11727       376  BMANNA    C2             19.2018102651      -18.9489735064       62.3051422436  LPSA11    16             11.0000000000
     11728       376  BMANNA    H2             18.1373811481      -18.7347079794       62.0295383272  LPSA11    16             11.0000000000
     11729       376  BMANNA    N              19.7824670563      -19.7826282657       61.2537518587  LPSA11    16             11.0000000000
     11730       376  BMANNA    HN             20.4375165896      -20.4612123037       61.5448382153  LPSA11    16             11.0000000000
     11731       376  BMANNA    C              19.3673215615      -19.8286220813       59.9852677189  LPSA11    16             11.0000000000
     11732       376  BMANNA    O              18.4599155681      -19.1318472271       59.5517440164  LPSA11    16             11.0000000000
     11733       376  BMANNA    CT             20.1209595567      -20.7618302488       59.0737972638  LPSA11    16             11.0000000000
     11734       376  BMANNA    HT1            19.5286555204      -21.6704422757       58.8578496126  LPSA11    16             11.0000000000
     11735       376  BMANNA    HT2            21.0827441839      -21.0640864380       59.5346433634  LPSA11    16             11.0000000000
     11736       376  BMANNA    HT3            20.3355576673      -20.2434289990       58.1165295588  LPSA11    16             11.0000000000
     11737       376  BMANNA    C3             19.2231931941      -19.6744616121       63.6369094504  LPSA11    16             11.0000000000
     11738       376  BMANNA    H3             18.7141960585      -19.0530729002       64.4030399443  LPSA11    16             11.0000000000
     11739       376  BMANNA    O3             18.4736979285      -20.8738916919       63.5527659753  LPSA11    16             11.0000000000
     11740       376  BMANNA    HO3            17.9020185496      -20.9314007215       64.3216806800  LPSA11    16             11.0000000000
     11741       376  BMANNA    C4             20.6589627121      -19.8638382659       64.1096744618  LPSA11    16             11.0000000000
     11742       376  BMANNA    H4             21.2209105188      -20.4961977813       63.3839402850  LPSA11    16             11.0000000000
     11743       376  BMANNA    O4             20.7660447740      -20.4907105219       65.3802918139  LPSA11    16             11.0000000000
     11744       376  BMANNA    HO4            21.6044475465      -20.9617482518       65.3949390568  LPSA11    16             11.0000000000
     11745       376  BMANNA    C6             22.7028874414      -18.5845833690       64.7624233543  LPSA11    16             11.0000000000
     11746       376  BMANNA    H61            22.6339854098      -18.5911761670       65.8765617084  LPSA11    16             11.0000000000
     11747       376  BMANNA    H62            23.1862563658      -19.5257462082       64.4302731226  LPSA11    16             11.0000000000
     11748       376  BMANNA    O6             23.5376772120      -17.5076219099       64.3662093186  LPSA11    16             11.0000000000
     11749       376  BMANNA    HO6            24.2490906070      -17.8366340528       63.8242718553  LPSA11    16             11.0000000000
     11750       377  BGLCNA    C1             21.1107359405      -13.8920601467       64.1481317665  LPSA11    17             11.0000000000
     11751       377  BGLCNA    H1             20.4823169296      -12.9923766772       63.9834007402  LPSA11    17             11.0000000000
     11752       377  BGLCNA    C5             23.0497596866      -12.5258313399       64.5661052256  LPSA11    17             11.0000000000
     11753       377  BGLCNA    H5             22.4886621661      -11.5830668042       64.3591337534  LPSA11    17             11.0000000000
     11754       377  BGLCNA    O5             22.4642269714      -13.5886472952       63.7848001976  LPSA11    17             11.0000000000
     11755       377  BGLCNA    C2             21.0430724144      -14.3774523017       65.5812133643  LPSA11    17             11.0000000000
     11756       377  BGLCNA    H2             21.7154828123      -15.2573829481       65.7504828994  LPSA11    17             11.0000000000
     11757       377  BGLCNA    N              19.6944656608      -14.8158851460       65.8831531006  LPSA11    17             11.0000000000
     11758       377  BGLCNA    HN             18.9756603832      -14.3619047087       65.3774438247  LPSA11    17             11.0000000000
     11759       377  BGLCNA    C              19.3336175534      -15.6949546381       66.8170070709  LPSA11    17             11.0000000000
     11760       377  BGLCNA    O              20.1103627734      -16.3731535102       67.4753938641  LPSA11    17             11.0000000000
     11761       377  BGLCNA    CT             17.8533277416      -15.7844077721       67.0324673249  LPSA11    17             11.0000000000
     11762       377  BGLCNA    HT1            17.3887918583      -16.6547309030       66.5352307035  LPSA11    17             11.0000000000
     11763       377  BGLCNA    HT2            17.3791703360      -14.8447995944       66.6767379708  LPSA11    17             11.0000000000
     11764       377  BGLCNA    HT3            17.6452243785      -15.8690823371       68.1189984951  LPSA11    17             11.0000000000
     11765       377  BGLCNA    C3             21.5227269879      -13.2217131266       66.4377004559  LPSA11    17             11.0000000000
     11766       377  BGLCNA    H3             20.9170646315      -12.3480220122       66.0982498074  LPSA11    17             11.0000000000
     11767       377  BGLCNA    O3             21.2327823883      -13.4883444605       67.8388870952  LPSA11    17             11.0000000000
     11768       377  BGLCNA    C4             22.9754182799      -12.9328113191       66.0530673429  LPSA11    17             11.0000000000
     11769       377  BGLCNA    H4             23.5755484125      -13.8741478789       66.1445554991  LPSA11    17             11.0000000000
     11770       377  BGLCNA    O4             23.5460844079      -11.9353021111       66.9068086630  LPSA11    17             11.0000000000
     11771       377  BGLCNA    HO4            24.4797248434      -11.8460975669       66.6948003086  LPSA11    17             11.0000000000
     11772       377  BGLCNA    C6             24.4958714117      -12.2796029035       64.1041544393  LPSA11    17             11.0000000000
     11773       377  BGLCNA    H61            24.7426710947      -11.2004047485       64.1621080352  LPSA11    17             11.0000000000
     11774       377  BGLCNA    H62            25.1935621692      -12.8061950973       64.7796654212  LPSA11    17             11.0000000000
     11775       377  BGLCNA    O6             24.7965081925      -12.7120331782       62.7762539308  LPSA11    17             11.0000000000
     11776       377  BGLCNA    HO6            24.1860016500      -12.3092727318       62.1610787941  LPSA11    17             11.0000000000
     11777       378  AGAL      C1             20.8758618460      -12.3575543462       68.6207460697  LPSA11    18             12.0000000000
     11778       378  AGAL      H1             21.7889144891      -11.7491547359       68.8050061045  LPSA11    18             12.0000000000
     11779       378  AGAL      C5             18.6379112547      -12.1581700077       67.8676611162  LPSA11    18             12.0000000000
     11780       378  AGAL      H5             18.7990122738      -13.1505408692       67.4105264766  LPSA11    18             12.0000000000
     11781       378  AGAL      O5             19.9167369651      -11.5133171026       67.9784635033  LPSA11    18             12.0000000000
     11782       378  AGAL      C2             20.2714872681      -12.7056121762       69.9722555282  LPSA11    18             12.0000000000
     11783       378  AGAL      H2             20.0219869814      -11.7019820852       70.3957355037  LPSA11    18             12.0000000000
     11784       378  AGAL      O2             21.2075918618      -13.2914212312       70.8726802258  LPSA11    18             12.0000000000
     11785       378  AGAL      C3             18.9404796197      -13.4437653854       69.8541794473  LPSA11    18             12.0000000000
     11786       378  AGAL      H3             19.0841025056      -14.3191032195       69.1778388319  LPSA11    18             12.0000000000
     11787       378  AGAL      O3             18.4555362683      -13.9615562888       71.0931298845  LPSA11    18             12.0000000000
     11788       378  AGAL      HO3            18.1350549121      -14.8666041665       70.9709664431  LPSA11    18             12.0000000000
     11789       378  AGAL      C4             17.9659286207      -12.5008051520       69.1761215392  LPSA11    18             12.0000000000
     11790       378  AGAL      H4             17.0130681427      -13.0330952239       68.9553925406  LPSA11    18             12.0000000000
     11791       378  AGAL      O4             17.6610170407      -11.3416773264       69.9411469939  LPSA11    18             12.0000000000
     11792       378  AGAL      HO4            17.1201668480      -11.6470281184       70.6770779774  LPSA11    18             12.0000000000
     11793       378  AGAL      C6             17.8552206621      -11.4791996629       66.8005165012  LPSA11    18             12.0000000000
     11794       378  AGAL      H61            18.4518153385      -11.6551618234       65.9123779763  LPSA11    18             12.0000000000
     11795       378  AGAL      H62            16.9430396509      -12.0035354607       66.5422968062  LPSA11    18             12.0000000000
     11796       378  AGAL      O6             17.6092985848      -10.0921528452       66.9672018007  LPSA11    18             12.0000000000
     11797       378  AGAL      HO6            18.1990137841       -9.7623418129       67.6656937478  LPSA11    18             12.0000000000
     11798       379  ARHM      C1             21.0495773311      -12.7583461157       72.1676591810  LPSA11    19             13.0000000000
     11799       379  ARHM      H1             19.9977706492      -12.4533687805       72.3505705755  LPSA11    19             13.0000000000
     11800       379  ARHM      C5             23.2269172880      -11.8083407092       72.2511453441  LPSA11    19             13.0000000000
     11801       379  ARHM      H5             23.3666666946      -12.2099125022       71.2194471166  LPSA11    19             13.0000000000
     11802       379  ARHM      O5             21.8287584778      -11.5816137992       72.4212153638  LPSA11    19             13.0000000000
     11803       379  ARHM      C2             21.4738517723      -13.8422925454       73.1111343187  LPSA11    19             13.0000000000
     11804       379  ARHM      H2             20.9460532315      -14.7954641638       72.8675970987  LPSA11    19             13.0000000000
     11805       379  ARHM      O2             21.1280409587      -13.4848496934       74.4509169869  LPSA11    19             13.0000000000
     11806       379  ARHM      C3             22.9508114808      -14.1077393579       72.9556143540  LPSA11    19             13.0000000000
     11807       379  ARHM      H3             23.1581955946      -14.3867757449       71.8954735879  LPSA11    19             13.0000000000
     11808       379  ARHM      O3             23.3458426396      -15.2149572874       73.7488575424  LPSA11    19             13.0000000000
     11809       379  ARHM      HO3            23.0576535804      -15.0083878870       74.6456985541  LPSA11    19             13.0000000000
     11810       379  ARHM      C4             23.7200116557      -12.8390919848       73.2441820672  LPSA11    19             13.0000000000
     11811       379  ARHM      H4             23.4913850286      -12.5083383986       74.2881488436  LPSA11    19             13.0000000000
     11812       379  ARHM      O4             25.1315007516      -12.9953893382       73.1324966569  LPSA11    19             13.0000000000
     11813       379  ARHM      HO4            25.3627538814      -13.2763753376       72.2389469686  LPSA11    19             13.0000000000
     11814       379  ARHM      C6             23.9695787639      -10.4649250208       72.2785766631  LPSA11    19             13.0000000000
     11815       379  ARHM      H61            23.5159975586       -9.8430054904       71.4804748056  LPSA11    19             13.0000000000
     11816       379  ARHM      H62            23.8741150510       -9.9284635210       73.2406040094  LPSA11    19             13.0000000000
     11817       379  ARHM      H63            25.0522570235      -10.6053255900       72.0705351355  LPSA11    19             13.0000000000
     11818       380  ARHM      C1             19.7462985352      -13.5821497874       74.7001487308  LPSA11    20             14.0000000000
     11819       380  ARHM      H1             19.2223825821      -14.1081685393       73.8690538605  LPSA11    20             14.0000000000
     11820       380  ARHM      C5             19.5751053903      -11.5720806425       75.9577202835  LPSA11    20             14.0000000000
     11821       380  ARHM      H5             20.6723923580      -11.4257554270       75.8158098177  LPSA11    20             14.0000000000
     11822       380  ARHM      O5             19.0792640587      -12.3178827059       74.8426972357  LPSA11    20             14.0000000000
     11823       380  ARHM      C2             19.5922961540      -14.3975741286       75.9495118573  LPSA11    20             14.0000000000
     11824       380  ARHM      H2             20.2088636818      -15.3306028875       75.8453707622  LPSA11    20             14.0000000000
     11825       380  ARHM      O2             18.2128438401      -14.7191724243       76.1501052360  LPSA11    20             14.0000000000
     11826       380  ARHM      C3             20.1067238333      -13.6545998110       77.1292269105  LPSA11    20             14.0000000000
     11827       380  ARHM      H3             21.1858749917      -13.4161550339       76.9634699847  LPSA11    20             14.0000000000
     11828       380  ARHM      O3             19.9588777964      -14.5026236441       78.2695947060  LPSA11    20             14.0000000000
     11829       380  ARHM      C4             19.3365741191      -12.3687017685       77.2363915901  LPSA11    20             14.0000000000
     11830       380  ARHM      H4             18.2366580570      -12.5308256983       77.3159274839  LPSA11    20             14.0000000000
     11831       380  ARHM      O4             19.7355821755      -11.6454895923       78.3830440902  LPSA11    20             14.0000000000
     11832       380  ARHM      HO4            19.6871405523      -10.7228895819       78.1222453003  LPSA11    20             14.0000000000
     11833       380  ARHM      C6             18.9104800417      -10.1763084249       75.9494765875  LPSA11    20             14.0000000000
     11834       380  ARHM      H61            17.8123615502      -10.2131745042       76.0842288417  LPSA11    20             14.0000000000
     11835       380  ARHM      H62            19.3560745647       -9.5638846384       76.7565237994  LPSA11    20             14.0000000000
     11836       380  ARHM      H63            19.1181097160       -9.6678969560       74.9850684945  LPSA11    20             14.0000000000
     11837       381  BMANNA    C1             17.8581880791      -15.8382817748       75.3980683120  LPSA11    21             15.0000000000
     11838       381  BMANNA    H1             18.6984011904      -16.1105770077       74.7167815623  LPSA11    21             15.0000000000
     11839       381  BMANNA    C5             16.5848814868      -16.7521998284       73.6544053592  LPSA11    21             15.0000000000
     11840       381  BMANNA    H5             17.5269372291      -16.9837562303       73.0867684186  LPSA11    21             15.0000000000
     11841       381  BMANNA    O5             16.7738680998      -15.5966603009       74.5084521651  LPSA11    21             15.0000000000
     11842       381  BMANNA    C2             17.5556551065      -16.9959533774       76.3296981514  LPSA11    21             15.0000000000
     11843       381  BMANNA    H2             18.4894974312      -17.0922909828       76.9209449924  LPSA11    21             15.0000000000
     11844       381  BMANNA    N              16.4623666110      -16.7709211047       77.2776791163  LPSA11    21             15.0000000000
     11845       381  BMANNA    HN             15.6605827959      -16.3115423984       76.9230790977  LPSA11    21             15.0000000000
     11846       381  BMANNA    C              16.4729978725      -17.1794649503       78.5734633081  LPSA11    21             15.0000000000
     11847       381  BMANNA    O              17.3195757853      -17.9678871222       78.9703651616  LPSA11    21             15.0000000000
     11848       381  BMANNA    CT             15.3709944817      -16.6818952454       79.4882226530  LPSA11    21             15.0000000000
     11849       381  BMANNA    HT1            14.4225272022      -17.2222956636       79.2942532033  LPSA11    21             15.0000000000
     11850       381  BMANNA    HT2            15.2337663196      -15.5930802371       79.3330982585  LPSA11    21             15.0000000000
     11851       381  BMANNA    HT3            15.6301322977      -16.8198690189       80.5591822093  LPSA11    21             15.0000000000
     11852       381  BMANNA    C3             17.3622937782      -18.2176528169       75.4641581285  LPSA11    21             15.0000000000
     11853       381  BMANNA    H3             18.3305501403      -18.3600158804       74.9175439878  LPSA11    21             15.0000000000
     11854       381  BMANNA    O3             17.1266300710      -19.3843002287       76.2364260299  LPSA11    21             15.0000000000
     11855       381  BMANNA    HO3            16.3720764327      -19.2385373514       76.8059350020  LPSA11    21             15.0000000000
     11856       381  BMANNA    C4             16.2407839080      -17.9675878247       74.4778636280  LPSA11    21             15.0000000000
     11857       381  BMANNA    H4             15.2814569267      -17.7856708382       75.0141083991  LPSA11    21             15.0000000000
     11858       381  BMANNA    O4             15.9934586788      -19.0483970338       73.5971705254  LPSA11    21             15.0000000000
     11859       381  BMANNA    HO4            15.1579169591      -19.4869035232       73.7585471819  LPSA11    21             15.0000000000
     11860       381  BMANNA    C6             15.5340556413      -16.4979761207       72.6176620681  LPSA11    21             15.0000000000
     11861       381  BMANNA    H61            15.6138463459      -17.2550194512       71.8033227312  LPSA11    21             15.0000000000
     11862       381  BMANNA    H62            14.5323971714      -16.6112905053       73.0785997628  LPSA11    21             15.0000000000
     11863       381  BMANNA    O6             15.6733144809      -15.1984511434       72.0684547510  LPSA11    21             15.0000000000
     11864       381  BMANNA    HO6            15.5414409753      -14.5492221473       72.7673235157  LPSA11    21             15.0000000000
     11865       382  BGLCNA    C1             20.9715967964      -14.4099400581       79.2402344378  LPSA11    22             15.0000000000
     11866       382  BGLCNA    H1             21.4609992131      -13.4103246568       79.2423289693  LPSA11    22             15.0000000000
     11867       382  BGLCNA    C5             22.9440415193      -15.3841792564       80.1062225647  LPSA11    22             15.0000000000
     11868       382  BGLCNA    H5             23.3785482228      -14.3640501890       80.1689066820  LPSA11    22             15.0000000000
     11869       382  BGLCNA    O5             21.9495074901      -15.4364714036       79.0640146069  LPSA11    22             15.0000000000
     11870       382  BGLCNA    C2             20.2636084633      -14.6375744914       80.5496383149  LPSA11    22             15.0000000000
     11871       382  BGLCNA    H2             19.7990650139      -15.6597877149       80.5030185795  LPSA11    22             15.0000000000
     11872       382  BGLCNA    N              19.2332766812      -13.6435083539       80.7304491169  LPSA11    22             15.0000000000
     11873       382  BGLCNA    HN             19.4481539201      -12.7335579367       80.3934117523  LPSA11    22             15.0000000000
     11874       382  BGLCNA    C              18.0761651630      -13.8601492144       81.3477946340  LPSA11    22             15.0000000000
     11875       382  BGLCNA    O              17.7489276917      -14.9183106797       81.8573558709  LPSA11    22             15.0000000000
     11876       382  BGLCNA    CT             17.1661142910      -12.6671511493       81.3807623613  LPSA11    22             15.0000000000
     11877       382  BGLCNA    HT1            16.4652641448      -12.7664058848       80.5298176585  LPSA11    22             15.0000000000
     11878       382  BGLCNA    HT2            17.7634783550      -11.7415979861       81.2529021379  LPSA11    22             15.0000000000
     11879       382  BGLCNA    HT3            16.6111963535      -12.6337984841       82.3466150150  LPSA11    22             15.0000000000
     11880       382  BGLCNA    C3             21.2557059087      -14.5817287122       81.6884430898  LPSA11    22             15.0000000000
     11881       382  BGLCNA    H3             21.7688727935      -13.5883189182       81.6536406457  LPSA11    22             15.0000000000
     11882       382  BGLCNA    O3             20.5004403634      -14.6902516891       82.9079032353  LPSA11    22             15.0000000000
     11883       382  BGLCNA    C4             22.2986611035      -15.6446030620       81.4622946717  LPSA11    22             15.0000000000
     11884       382  BGLCNA    H4             21.7933044861      -16.6348645161       81.4199531894  LPSA11    22             15.0000000000
     11885       382  BGLCNA    O4             23.2805338466      -15.6861006844       82.4966981477  LPSA11    22             15.0000000000
     11886       382  BGLCNA    HO4            23.4632723976      -16.5974167045       82.7307122869  LPSA11    22             15.0000000000
     11887       382  BGLCNA    C6             24.0242806356      -16.3844927788       79.7788083658  LPSA11    22             15.0000000000
     11888       382  BGLCNA    H61            24.6281668085      -16.5679543639       80.6863998474  LPSA11    22             15.0000000000
     11889       382  BGLCNA    H62            23.5598144914      -17.3412382736       79.4610996478  LPSA11    22             15.0000000000
     11890       382  BGLCNA    O6             24.9479490355      -15.9412058129       78.7916052290  LPSA11    22             15.0000000000
     11891       382  BGLCNA    HO6            24.4847267817      -15.6610661922       77.9939120591  LPSA11    22             15.0000000000
     11892       383  AGAL      C1             21.0706235834      -14.2351249882       84.1067040882  LPSA11    23             16.0000000000
     11893       383  AGAL      H1             21.8144999836      -14.9839631969       84.4525989779  LPSA11    23             16.0000000000
     11894       383  AGAL      C5             20.8155715760      -11.8785570866       83.7289483273  LPSA11    23             16.0000000000
     11895       383  AGAL      H5             20.2296943020      -12.1382144192       82.8164590926  LPSA11    23             16.0000000000
     11896       383  AGAL      O5             21.7288177186      -12.9592990311       84.0036776716  LPSA11    23             16.0000000000
     11897       383  AGAL      C2             20.0183767487      -14.1596809378       85.1874183011  LPSA11    23             16.0000000000
     11898       383  AGAL      H2             20.5560019929      -13.8428113143       86.1073366017  LPSA11    23             16.0000000000
     11899       383  AGAL      O2             19.4030586538      -15.4464856807       85.4248071737  LPSA11    23             16.0000000000
     11900       383  AGAL      C3             19.0346864158      -13.0395032575       84.8861372415  LPSA11    23             16.0000000000
     11901       383  AGAL      H3             18.6205476905      -13.1975613068       83.8674913926  LPSA11    23             16.0000000000
     11902       383  AGAL      O3             17.9073193468      -13.0302647673       85.7494066409  LPSA11    23             16.0000000000
     11903       383  AGAL      HO3            18.1831484827      -13.1347824916       86.6696957117  LPSA11    23             16.0000000000
     11904       383  AGAL      C4             19.7929704000      -11.7161234074       84.8609750669  LPSA11    23             16.0000000000
     11905       383  AGAL      H4             19.1149597013      -10.8713325391       84.6197677348  LPSA11    23             16.0000000000
     11906       383  AGAL      O4             20.4233707288      -11.3972371636       86.0985185350  LPSA11    23             16.0000000000
     11907       383  AGAL      HO4            21.2170522249      -10.9092705606       85.8393189623  LPSA11    23             16.0000000000
     11908       383  AGAL      C6             21.6306501509      -10.6583201078       83.3283882831  LPSA11    23             16.0000000000
     11909       383  AGAL      H61            22.4024418303      -10.9677330546       82.5811244810  LPSA11    23             16.0000000000
     11910       383  AGAL      H62            20.9872260332       -9.9151576623       82.8051604064  LPSA11    23             16.0000000000
     11911       383  AGAL      O6             22.2646015801      -10.0243357645       84.4430682959  LPSA11    23             16.0000000000
     11912       383  AGAL      HO6            22.9110125875       -9.3790747881       84.1260102074  LPSA11    23             16.0000000000
     11913       384  ARHM      C1             20.0552134685      -16.3604545336       86.2844808853  LPSA11    24             17.0000000000
     11914       384  ARHM      H1             21.1262351252      -16.0642547539       86.3849687785  LPSA11    24             17.0000000000
     11915       384  ARHM      C5             18.7242221254      -18.2531959650       85.6514866972  LPSA11    24             17.0000000000
     11916       384  ARHM      H5             18.1838381433      -17.5737152701       84.9562972624  LPSA11    24             17.0000000000
     11917       384  ARHM      O5             20.0500305314      -17.7285767410       85.8219148533  LPSA11    24             17.0000000000
     11918       384  ARHM      C2             19.3260979412      -16.2817950807       87.6096394446  LPSA11    24             17.0000000000
     11919       384  ARHM      H2             19.2583493550      -15.2141873333       87.9305662115  LPSA11    24             17.0000000000
     11920       384  ARHM      O2             19.9849180987      -17.0785957328       88.6066169234  LPSA11    24             17.0000000000
     11921       384  ARHM      C3             17.9149019521      -16.8072786319       87.4286966173  LPSA11    24             17.0000000000
     11922       384  ARHM      H3             17.4411693936      -16.1803252520       86.6324342072  LPSA11    24             17.0000000000
     11923       384  ARHM      O3             17.0831855277      -16.6733534203       88.5806687170  LPSA11    24             17.0000000000
     11924       384  ARHM      HO3            17.2683513465      -17.3677954753       89.2091009585  LPSA11    24             17.0000000000
     11925       384  ARHM      C4             17.9859839705      -18.2459562143       86.9626089975  LPSA11    24             17.0000000000
     11926       384  ARHM      H4             18.5851032876      -18.8479682975       87.6927201751  LPSA11    24             17.0000000000
     11927       384  ARHM      O4             16.6963688580      -18.8458042430       86.8383802316  LPSA11    24             17.0000000000
     11928       384  ARHM      HO4            16.7660412824      -19.7965897487       86.9367020520  LPSA11    24             17.0000000000
     11929       384  ARHM      C6             18.7667679199      -19.6380809065       84.9865018376  LPSA11    24             17.0000000000
     11930       384  ARHM      H61            17.8319797222      -19.8373091464       84.4167257350  LPSA11    24             17.0000000000
     11931       384  ARHM      H62            19.5878827152      -19.6057240016       84.2585073544  LPSA11    24             17.0000000000
     11932       384  ARHM      H63            18.9740950156      -20.4757456059       85.6847549258  LPSA11    24             17.0000000000
     11933       385  ARHM      C1             21.1411042085      -16.5029921956       89.1486169905  LPSA11    25             18.0000000000
     11934       385  ARHM      H1             21.4995122161      -15.6974715400       88.4694757640  LPSA11    25             18.0000000000
     11935       385  ARHM      C5             22.0003838680      -18.4679080198       90.2005520212  LPSA11    25             18.0000000000
     11936       385  ARHM      H5             21.1104608754      -19.0386506935       89.8544066302  LPSA11    25             18.0000000000
     11937       385  ARHM      O5             22.2529884438      -17.4069297524       89.2628844536  LPSA11    25             18.0000000000
     11938       385  ARHM      C2             20.7933177134      -15.8812887111       90.4641871073  LPSA11    25             18.0000000000
     11939       385  ARHM      H2             19.8518884833      -15.2828433444       90.3637359942  LPSA11    25             18.0000000000
     11940       385  ARHM      O2             21.8617156113      -15.0312081948       90.8932568507  LPSA11    25             18.0000000000
     11941       385  ARHM      C3             20.5129819895      -16.9792822705       91.4539139710  LPSA11    25             18.0000000000
     11942       385  ARHM      H3             19.6584876362      -17.6013213333       91.0880253091  LPSA11    25             18.0000000000
     11943       385  ARHM      O3             20.2047437078      -16.3697751995       92.7040637641  LPSA11    25             18.0000000000
     11944       385  ARHM      C4             21.6969699486      -17.8890556008       91.5731035732  LPSA11    25             18.0000000000
     11945       385  ARHM      H4             22.5986255245      -17.3223459912       91.9111112371  LPSA11    25             18.0000000000
     11946       385  ARHM      O4             21.4101999820      -18.9163119640       92.5149812407  LPSA11    25             18.0000000000
     11947       385  ARHM      HO4            22.2107770491      -19.0994895653       93.0244596346  LPSA11    25             18.0000000000
     11948       385  ARHM      C6             23.1857879787      -19.4573151789       90.2156719450  LPSA11    25             18.0000000000
     11949       385  ARHM      H61            23.4386528285      -19.7684279579       89.1820148147  LPSA11    25             18.0000000000
     11950       385  ARHM      H62            24.0765797586      -18.9905466122       90.6787661448  LPSA11    25             18.0000000000
     11951       385  ARHM      H63            22.9132913273      -20.3572325052       90.8085011422  LPSA11    25             18.0000000000
     11952       386  BMANNA    C1             21.8785673125      -13.7697052542       90.2754219523  LPSA11    26             19.0000000000
     11953       386  BMANNA    H1             20.8782042542      -13.5066412365       89.8586614109  LPSA11    26             19.0000000000
     11954       386  BMANNA    C5             22.8056712505      -12.3588276589       88.5866992927  LPSA11    26             19.0000000000
     11955       386  BMANNA    H5             21.7787688125      -12.2127951213       88.1786680668  LPSA11    26             19.0000000000
     11956       386  BMANNA    O5             22.8454875683      -13.6526174760       89.2140807692  LPSA11    26             19.0000000000
     11957       386  BMANNA    C2             22.2284080036      -12.7916140393       91.3538367718  LPSA11    26             19.0000000000
     11958       386  BMANNA    H2             21.4098171173      -12.8844207176       92.1229669406  LPSA11    26             19.0000000000
     11959       386  BMANNA    N              23.5344043292      -13.0674365577       91.9296819042  LPSA11    26             19.0000000000
     11960       386  BMANNA    HN             24.2777633635      -13.1289026362       91.2776994316  LPSA11    26             19.0000000000
     11961       386  BMANNA    C              23.7683456712      -13.2178463318       93.2313871074  LPSA11    26             19.0000000000
     11962       386  BMANNA    O              22.8617702671      -13.2940376513       94.0419256261  LPSA11    26             19.0000000000
     11963       386  BMANNA    CT             25.2211053780      -13.2406163608       93.6550586726  LPSA11    26             19.0000000000
     11964       386  BMANNA    HT1            25.8523385022      -13.6286061346       92.8324323471  LPSA11    26             19.0000000000
     11965       386  BMANNA    HT2            25.4080010539      -13.7927081873       94.5994467789  LPSA11    26             19.0000000000
     11966       386  BMANNA    HT3            25.4793764473      -12.1831209419       93.8505258881  LPSA11    26             19.0000000000
     11967       386  BMANNA    C3             22.1524129045      -11.4170928314       90.7534496662  LPSA11    26             19.0000000000
     11968       386  BMANNA    H3             21.1795966585      -11.3229625452       90.2803387293  LPSA11    26             19.0000000000
     11969       386  BMANNA    O3             22.2471560506      -10.4064590054       91.7480129000  LPSA11    26             19.0000000000
     11970       386  BMANNA    HO3            21.4317956922      -10.4090629551       92.2737708246  LPSA11    26             19.0000000000
     11971       386  BMANNA    C4             23.1303625784      -11.2765819579       89.6086443550  LPSA11    26             19.0000000000
     11972       386  BMANNA    H4             24.1639034145      -11.4170271551       89.9739503105  LPSA11    26             19.0000000000
     11973       386  BMANNA    O4             23.0624682804       -9.9812267864       89.0144828538  LPSA11    26             19.0000000000
     11974       386  BMANNA    HO4            23.5179855407       -9.3912647109       89.6207797805  LPSA11    26             19.0000000000
     11975       386  BMANNA    C6             23.7549598401      -12.4136764197       87.3962363501  LPSA11    26             19.0000000000
     11976       386  BMANNA    H61            23.6867918460      -13.4147872868       86.9130645970  LPSA11    26             19.0000000000
     11977       386  BMANNA    H62            23.4631708505      -11.6597481446       86.6323736013  LPSA11    26             19.0000000000
     11978       386  BMANNA    O6             25.1168325140      -12.1862220148       87.7590047108  LPSA11    26             19.0000000000
     11979       386  BMANNA    HO6            25.1925277801      -11.3184337524       88.1446772768  LPSA11    26             19.0000000000
     11980       387  BGLCNA    C1             19.1877193209      -16.9387526319       93.4735066507  LPSA11    27             19.0000000000
     11981       387  BGLCNA    H1             19.1768489195      -18.0494347104       93.4301426004  LPSA11    27             19.0000000000
     11982       387  BGLCNA    C5             16.8605080081      -16.9460404512       93.9177332637  LPSA11    27             19.0000000000
     11983       387  BGLCNA    H5             16.9368787223      -18.0623571185       93.9358699322  LPSA11    27             19.0000000000
     11984       387  BGLCNA    O5             17.9126756692      -16.4438752295       93.0752226791  LPSA11    27             19.0000000000
     11985       387  BGLCNA    C2             19.4906675062      -16.4415394642       94.8665407352  LPSA11    27             19.0000000000
     11986       387  BGLCNA    H2             19.4159640609      -15.3224897358       94.8317828408  LPSA11    27             19.0000000000
     11987       387  BGLCNA    N              20.8348558527      -16.7994672660       95.2917821399  LPSA11    27             19.0000000000
     11988       387  BGLCNA    HN             21.1453796888      -17.7135598586       95.0512462116  LPSA11    27             19.0000000000
     11989       387  BGLCNA    C              21.6061632726      -15.9194955144       95.9529708632  LPSA11    27             19.0000000000
     11990       387  BGLCNA    O              21.1484903199      -14.9291631351       96.5100825662  LPSA11    27             19.0000000000
     11991       387  BGLCNA    CT             23.0843419981      -16.1970717888       96.0017604130  LPSA11    27             19.0000000000
     11992       387  BGLCNA    HT1            23.3506197895      -17.0536720591       95.3569852041  LPSA11    27             19.0000000000
     11993       387  BGLCNA    HT2            23.4249985869      -16.3827097877       97.0383912250  LPSA11    27             19.0000000000
     11994       387  BGLCNA    HT3            23.6056013488      -15.2780989176       95.6473202395  LPSA11    27             19.0000000000
     11995       387  BGLCNA    C3             18.4434297721      -16.9251833944       95.8193795340  LPSA11    27             19.0000000000
     11996       387  BGLCNA    H3             18.4506251497      -18.0412758570       95.7734322932  LPSA11    27             19.0000000000
     11997       387  BGLCNA    O3             18.8644420849      -16.4520475671       97.1228165793  LPSA11    27             19.0000000000
     11998       387  BGLCNA    C4             17.0865441310      -16.4469808662       95.3375249790  LPSA11    27             19.0000000000
     11999       387  BGLCNA    H4             17.0509637611      -15.3336273053       95.3271602425  LPSA11    27             19.0000000000
     12000       387  BGLCNA    O4             16.0482623951      -16.9227465285       96.1799793663  LPSA11    27             19.0000000000
     12001       387  BGLCNA    HO4            16.0530137940      -17.8819078926       96.0947773655  LPSA11    27             19.0000000000
     12002       387  BGLCNA    C6             15.5072408916      -16.6180779722       93.3151050582  LPSA11    27             19.0000000000
     12003       387  BGLCNA    H61            14.7287964902      -17.2061246040       93.8491973119  LPSA11    27             19.0000000000
     12004       387  BGLCNA    H62            15.2628053864      -15.5404525980       93.4431896126  LPSA11    27             19.0000000000
     12005       387  BGLCNA    O6             15.4685159570      -16.9594906547       91.9238158363  LPSA11    27             19.0000000000
     12006       387  BGLCNA    HO6            14.6430157062      -16.7328295901       91.4879397958  LPSA11    27             19.0000000000
     12007       388  AGAL      C1             18.3219843958      -17.0981526359       98.2446229168  LPSA11    28             20.0000000000
     12008       388  AGAL      H1             17.2665436519      -16.7652830670       98.3277557878  LPSA11    28             20.0000000000
     12009       388  AGAL      C5             19.6684753019      -19.0772169855       98.1237620819  LPSA11    28             20.0000000000
     12010       388  AGAL      H5             20.3306452931      -18.5133555943       97.4214652409  LPSA11    28             20.0000000000
     12011       388  AGAL      O5             18.3291566074      -18.5280473124       98.0472347891  LPSA11    28             20.0000000000
     12012       388  AGAL      C2             18.9661544234      -16.7931956016       99.6157743325  LPSA11    28             20.0000000000
     12013       388  AGAL      H2             18.3135450618      -17.3898610205      100.2981733643  LPSA11    28             20.0000000000
     12014       388  AGAL      O2             18.9088008690      -15.4431727653      100.1007438490  LPSA11    28             20.0000000000
     12015       388  AGAL      C3             20.3736051467      -17.3610073724       99.6877639116  LPSA11    28             20.0000000000
     12016       388  AGAL      H3             20.9565478503      -16.9293012824       98.8447609184  LPSA11    28             20.0000000000
     12017       388  AGAL      O3             21.1369402939      -17.0746239559      100.8580370237  LPSA11    28             20.0000000000
     12018       388  AGAL      HO3            21.8923243780      -16.5185588200      100.6279104535  LPSA11    28             20.0000000000
     12019       388  AGAL      C4             20.2781711233      -18.8392713563       99.4793510265  LPSA11    28             20.0000000000
     12020       388  AGAL      H4             21.3128659051      -19.2438480907       99.4803522555  LPSA11    28             20.0000000000
     12021       388  AGAL      O4             19.5442289510      -19.5111269338      100.4866214113  LPSA11    28             20.0000000000
     12022       388  AGAL      HO4            20.1510421657      -19.8710768971      101.1361996125  LPSA11    28             20.0000000000
     12023       388  AGAL      C6             19.7130626722      -20.5344204589       97.6598560023  LPSA11    28             20.0000000000
     12024       388  AGAL      H61            19.4691114357      -20.5226495984       96.5837468807  LPSA11    28             20.0000000000
     12025       388  AGAL      H62            20.7360202941      -20.9599315291       97.7414675990  LPSA11    28             20.0000000000
     12026       388  AGAL      O6             18.8135293320      -21.4333155567       98.3245349026  LPSA11    28             20.0000000000
     12027       388  AGAL      HO6            17.9310844294      -21.2414354290       97.9842630699  LPSA11    28             20.0000000000
     12028       389  ARHM      C1             18.5972012883      -15.4451757748      101.4841798767  LPSA11    29             21.0000000000
     12029       389  ARHM      H1             18.9234159890      -16.3913409385      101.9640900157  LPSA11    29             21.0000000000
     12030       389  ARHM      C5             16.6917338709      -14.0642460065      101.1396340417  LPSA11    29             21.0000000000
     12031       389  ARHM      H5             16.9745163574      -14.0347743191      100.0619912620  LPSA11    29             21.0000000000
     12032       389  ARHM      O5             17.1873146902      -15.2819056785      101.7021864448  LPSA11    29             21.0000000000
     12033       389  ARHM      C2             19.3277779204      -14.3293266515      102.1646813115  LPSA11    29             21.0000000000
     12034       389  ARHM      H2             20.4128805827      -14.4326674970      101.9166878772  LPSA11    29             21.0000000000
     12035       389  ARHM      O2             19.1257248400      -14.3840034682      103.5971330137  LPSA11    29             21.0000000000
     12036       389  ARHM      C3             18.8416680808      -13.0174960310      101.6111147254  LPSA11    29             21.0000000000
     12037       389  ARHM      H3             19.0465188474      -12.9806598631      100.5130252083  LPSA11    29             21.0000000000
     12038       389  ARHM      O3             19.5668564702      -11.9654880642      102.2060836602  LPSA11    29             21.0000000000
     12039       389  ARHM      HO3            19.0050567254      -11.1964909168      102.1924100509  LPSA11    29             21.0000000000
     12040       389  ARHM      C4             17.3426644155      -12.8614990003      101.8197912581  LPSA11    29             21.0000000000
     12041       389  ARHM      H4             17.1193216244      -12.8899721477      102.9104633750  LPSA11    29             21.0000000000
     12042       389  ARHM      O4             16.8249245654      -11.6053990552      101.3654298168  LPSA11    29             21.0000000000
     12043       389  ARHM      HO4            17.0692082285      -11.4216174857      100.4473792794  LPSA11    29             21.0000000000
     12044       389  ARHM      C6             15.1710327463      -14.2119088667      101.1995402952  LPSA11    29             21.0000000000
     12045       389  ARHM      H61            14.9004668777      -15.1991750385      100.7664738156  LPSA11    29             21.0000000000
     12046       389  ARHM      H62            14.7946215918      -14.1901878935      102.2316354727  LPSA11    29             21.0000000000
     12047       389  ARHM      H63            14.6716002242      -13.4056411737      100.6199201782  LPSA11    29             21.0000000000
     12048       390  ARHM      C1             20.1243719317      -15.0118124391      104.3701176301  LPSA11    30             22.0000000000
     12049       390  ARHM      H1             21.1116736596      -14.5371163210      104.1617539732  LPSA11    30             22.0000000000
     12050       390  ARHM      C5             19.0031887970      -17.1194055499      104.4925648833  LPSA11    30             22.0000000000
     12051       390  ARHM      H5             18.1873397462      -16.6377442917      103.9126312554  LPSA11    30             22.0000000000
     12052       390  ARHM      O5             20.2237793568      -16.4330295709      104.1528671836  LPSA11    30             22.0000000000
     12053       390  ARHM      C2             19.7849816732      -14.7974020076      105.8251210900  LPSA11    30             22.0000000000
     12054       390  ARHM      H2             19.6750323510      -13.7067744119      106.0288340434  LPSA11    30             22.0000000000
     12055       390  ARHM      O2             20.8306719245      -15.3651671610      106.6023722432  LPSA11    30             22.0000000000
     12056       390  ARHM      C3             18.5078114244      -15.5045222069      106.2226263571  LPSA11    30             22.0000000000
     12057       390  ARHM      H3             17.7197706807      -15.1401698227      105.5220464119  LPSA11    30             22.0000000000
     12058       390  ARHM      O3             18.0887046775      -15.1240475427      107.5446593209  LPSA11    30             22.0000000000
     12059       390  ARHM      C4             18.6621406427      -16.9842684881      105.9683190561  LPSA11    30             22.0000000000
     12060       390  ARHM      H4             19.5060577229      -17.4129515460      106.5527326547  LPSA11    30             22.0000000000
     12061       390  ARHM      O4             17.5146656942      -17.7483438517      106.3432162946  LPSA11    30             22.0000000000
     12062       390  ARHM      HO4            16.8241434478      -17.7434761468      105.6657833620  LPSA11    30             22.0000000000
     12063       390  ARHM      C6             19.0778552488      -18.5726994718      104.0388181282  LPSA11    30             22.0000000000
     12064       390  ARHM      H61            18.1100693769      -19.0832269489      104.2357946919  LPSA11    30             22.0000000000
     12065       390  ARHM      H62            19.2922417697      -18.6486984239      102.9609214554  LPSA11    30             22.0000000000
     12066       390  ARHM      H63            19.8785999105      -19.0769816531      104.5974341881  LPSA11    30             22.0000000000
     12067       391  BMANNA    C1             21.8780871248      -14.5067701349      106.8999520858  LPSA11    31             23.0000000000
     12068       391  BMANNA    H1             21.4841782259      -13.5043585129      107.1613539438  LPSA11    31             23.0000000000
     12069       391  BMANNA    C5             23.9815725775      -13.6159136029      106.1993342275  LPSA11    31             23.0000000000
     12070       391  BMANNA    H5             23.5427471845      -12.6387554222      106.5074833290  LPSA11    31             23.0000000000
     12071       391  BMANNA    O5             22.8557896934      -14.4499223494      105.8567063142  LPSA11    31             23.0000000000
     12072       391  BMANNA    C2             22.5241025538      -15.1374587244      108.0845072832  LPSA11    31             23.0000000000
     12073       391  BMANNA    H2             21.7744124193      -15.1030651641      108.9171718697  LPSA11    31             23.0000000000
     12074       391  BMANNA    N              22.8530766639      -16.5311597072      107.8190500914  LPSA11    31             23.0000000000
     12075       391  BMANNA    HN             22.9115106915      -16.7932632416      106.8621220761  LPSA11    31             23.0000000000
     12076       391  BMANNA    C              22.9058378296      -17.4587803025      108.7716332026  LPSA11    31             23.0000000000
     12077       391  BMANNA    O              22.6700199209      -17.1952619370      109.9374941367  LPSA11    31             23.0000000000
     12078       391  BMANNA    CT             23.2711267482      -18.8445327320      108.3256577236  LPSA11    31             23.0000000000
     12079       391  BMANNA    HT1            24.0727043723      -18.7785775512      107.5592343640  LPSA11    31             23.0000000000
     12080       391  BMANNA    HT2            22.3699941012      -19.3391719931      107.9057051207  LPSA11    31             23.0000000000
     12081       391  BMANNA    HT3            23.6192122371      -19.4454096650      109.1930190874  LPSA11    31             23.0000000000
     12082       391  BMANNA    C3             23.6729468786      -14.2589879684      108.4909570949  LPSA11    31             23.0000000000
     12083       391  BMANNA    H3             23.3060411202      -13.2235358644      108.6649116779  LPSA11    31             23.0000000000
     12084       391  BMANNA    O3             24.1531457328      -14.6466184479      109.7424683213  LPSA11    31             23.0000000000
     12085       391  BMANNA    HO3            23.5541397281      -15.2935428229      110.1399789663  LPSA11    31             23.0000000000
     12086       391  BMANNA    C4             24.7049986237      -14.1811843312      107.3981354598  LPSA11    31             23.0000000000
     12087       391  BMANNA    H4             25.1086051006      -15.1866359687      107.1305426005  LPSA11    31             23.0000000000
     12088       391  BMANNA    O4             25.8059910979      -13.3383085181      107.7089065345  LPSA11    31             23.0000000000
     12089       391  BMANNA    HO4            25.5483071993      -12.5758368934      108.2303513048  LPSA11    31             23.0000000000
     12090       391  BMANNA    C6             24.9376299688      -13.3403699127      105.0453582062  LPSA11    31             23.0000000000
     12091       391  BMANNA    H61            25.6332388234      -12.5143458111      105.3198253046  LPSA11    31             23.0000000000
     12092       391  BMANNA    H62            25.5784109110      -14.2378590280      104.8769465183  LPSA11    31             23.0000000000
     12093       391  BMANNA    O6             24.2820915925      -13.0300257899      103.8100239529  LPSA11    31             23.0000000000
     12094       391  BMANNA    HO6            23.8400065296      -12.1777674200      103.7606915505  LPSA11    31             23.0000000000
     12095       392  BGLCNA    C1             18.6765351669      -15.8174123240      108.6193739663  LPSA11    32             23.0000000000
     12096       392  BGLCNA    H1             19.7426724711      -16.0023701678      108.4119617403  LPSA11    32             23.0000000000
     12097       392  BGLCNA    C5             18.7704097014      -17.7990874416      109.9250572474  LPSA11    32             23.0000000000
     12098       392  BGLCNA    H5             19.8284173026      -17.9187360631      109.5822697870  LPSA11    32             23.0000000000
     12099       392  BGLCNA    O5             18.0674337535      -17.0756809012      108.9115215820  LPSA11    32             23.0000000000
     12100       392  BGLCNA    C2             18.6066268486      -14.9512937071      109.8567986755  LPSA11    32             23.0000000000
     12101       392  BGLCNA    H2             17.5311293014      -14.9137527176      110.1531615541  LPSA11    32             23.0000000000
     12102       392  BGLCNA    N              19.0677973712      -13.6123490273      109.5704734524  LPSA11    32             23.0000000000
     12103       392  BGLCNA    HN             19.7527276269      -13.5901546245      108.8645367908  LPSA11    32             23.0000000000
     12104       392  BGLCNA    C              18.5730900151      -12.4639699235      110.0764042448  LPSA11    32             23.0000000000
     12105       392  BGLCNA    O              17.6792392268      -12.4155648679      110.9027351229  LPSA11    32             23.0000000000
     12106       392  BGLCNA    CT             19.2357055692      -11.2180103609      109.5316138304  LPSA11    32             23.0000000000
     12107       392  BGLCNA    HT1            19.7558687796      -11.5010586177      108.5991140328  LPSA11    32             23.0000000000
     12108       392  BGLCNA    HT2            19.9746064985      -10.7951934993      110.2401738546  LPSA11    32             23.0000000000
     12109       392  BGLCNA    HT3            18.4843983730      -10.4295203128      109.3119128427  LPSA11    32             23.0000000000
     12110       392  BGLCNA    C3             19.4163393615      -15.6492863397      110.9270951973  LPSA11    32             23.0000000000
     12111       392  BGLCNA    H3             20.4154235548      -15.8553297343      110.4779476222  LPSA11    32             23.0000000000
     12112       392  BGLCNA    O3             19.6224656118      -14.8599668710      112.1083654300  LPSA11    32             23.0000000000
     12113       392  BGLCNA    C4             18.7413243019      -16.9769749763      111.1987710897  LPSA11    32             23.0000000000
     12114       392  BGLCNA    H4             17.6846134626      -16.7683440143      111.4948603510  LPSA11    32             23.0000000000
     12115       392  BGLCNA    O4             19.3429686806      -17.7169042572      112.2438487722  LPSA11    32             23.0000000000
     12116       392  BGLCNA    HO4            19.0077024402      -17.4010706951      113.0916973310  LPSA11    32             23.0000000000
     12117       392  BGLCNA    C6             18.2069993546      -19.2030784332      110.0507631032  LPSA11    32             23.0000000000
     12118       392  BGLCNA    H61            18.8362339329      -19.8390096925      110.7071085105  LPSA11    32             23.0000000000
     12119       392  BGLCNA    H62            17.1979964658      -19.1564064357      110.4980666269  LPSA11    32             23.0000000000
     12120       392  BGLCNA    O6             18.1118725977      -19.8749244447      108.8009007715  LPSA11    32             23.0000000000
     12121       392  BGLCNA    HO6            18.8572459384      -19.6351965130      108.2248156315  LPSA11    32             23.0000000000
     12122       393  AGAL      C1             20.9109493195      -15.0156175736      112.6834939963  LPSA11    33             24.0000000000
     12123       393  AGAL      H1             21.2292337671      -16.0765455592      112.6088761575  LPSA11    33             24.0000000000
     12124       393  AGAL      C5             21.6667884110      -12.7887209101      112.2124144716  LPSA11    33             24.0000000000
     12125       393  AGAL      H5             20.6240684260      -12.6596893465      111.8429456789  LPSA11    33             24.0000000000
     12126       393  AGAL      O5             21.9237867417      -14.1946497630      112.0618511584  LPSA11    33             24.0000000000
     12127       393  AGAL      C2             20.8480180976      -14.6246988494      114.1502776960  LPSA11    33             24.0000000000
     12128       393  AGAL      H2             21.8893982151      -14.7064519791      114.5323630677  LPSA11    33             24.0000000000
     12129       393  AGAL      O2             20.0799488782      -15.6087639903      114.8725981632  LPSA11    33             24.0000000000
     12130       393  AGAL      C3             20.4915472854      -13.1406099929      114.3071048800  LPSA11    33             24.0000000000
     12131       393  AGAL      H3             19.5552125495      -12.9449338068      113.7300677935  LPSA11    33             24.0000000000
     12132       393  AGAL      O3             20.1522633954      -12.7389567753      115.6315596723  LPSA11    33             24.0000000000
     12133       393  AGAL      HO3            20.8433175547      -12.9952075367      116.2427300989  LPSA11    33             24.0000000000
     12134       393  AGAL      C4             21.6186223115      -12.3193668610      113.6619519192  LPSA11    33             24.0000000000
     12135       393  AGAL      H4             21.3566697080      -11.2450318993      113.6748385402  LPSA11    33             24.0000000000
     12136       393  AGAL      O4             22.8856620129      -12.3508928486      114.3211251446  LPSA11    33             24.0000000000
     12137       393  AGAL      HO4            22.9985033546      -13.1269923421      114.8653649091  LPSA11    33             24.0000000000
     12138       393  AGAL      C6             22.5216409827      -11.9494851330      111.2650809047  LPSA11    33             24.0000000000
     12139       393  AGAL      H61            22.2384259095      -12.2656609433      110.2410799765  LPSA11    33             24.0000000000
     12140       393  AGAL      H62            22.2695868705      -10.8712361676      111.3731714757  LPSA11    33             24.0000000000
     12141       393  AGAL      O6             23.9434720379      -12.0514797039      111.4082466166  LPSA11    33             24.0000000000
     12142       393  AGAL      HO6            24.3052662984      -12.8067078897      110.9124500718  LPSA11    33             24.0000000000
     12143       394  ARHM      C1             20.7050071866      -16.0837424491      116.0512754073  LPSA11    34             25.0000000000
     12144       394  ARHM      H1             21.0317631970      -15.2043142302      116.6465964817  LPSA11    34             25.0000000000
     12145       394  ARHM      C5             21.6197455413      -18.1087392735      115.0671110887  LPSA11    34             25.0000000000
     12146       394  ARHM      H5             21.2560942661      -17.7941412179      114.0667162272  LPSA11    34             25.0000000000
     12147       394  ARHM      O5             21.8810967572      -16.9188942392      115.8360244904  LPSA11    34             25.0000000000
     12148       394  ARHM      C2             19.6429488474      -16.8599005114      116.8156066575  LPSA11    34             25.0000000000
     12149       394  ARHM      H2             18.7070638297      -16.2438685081      116.8522766904  LPSA11    34             25.0000000000
     12150       394  ARHM      O2             20.0106739951      -17.1932909526      118.1848064235  LPSA11    34             25.0000000000
     12151       394  ARHM      C3             19.3140918992      -18.1157546608      116.0160332375  LPSA11    34             25.0000000000
     12152       394  ARHM      H3             18.9431987534      -17.8261256668      115.0027645420  LPSA11    34             25.0000000000
     12153       394  ARHM      O3             18.3032436567      -18.8990834019      116.6556913123  LPSA11    34             25.0000000000
     12154       394  ARHM      HO3            17.6911018078      -19.2543872519      115.9819411938  LPSA11    34             25.0000000000
     12155       394  ARHM      C4             20.5645052740      -18.9326242960      115.7958803366  LPSA11    34             25.0000000000
     12156       394  ARHM      H4             21.0121981237      -19.2052884586      116.7812914046  LPSA11    34             25.0000000000
     12157       394  ARHM      O4             20.2489270332      -20.1309988551      115.0746219462  LPSA11    34             25.0000000000
     12158       394  ARHM      HO4            19.8481358046      -20.7632272260      115.6865263842  LPSA11    34             25.0000000000
     12159       394  ARHM      C6             22.9047493429      -18.9549549152      114.8355847368  LPSA11    34             25.0000000000
     12160       394  ARHM      H61            23.3956328897      -19.2708482992      115.7759957570  LPSA11    34             25.0000000000
     12161       394  ARHM      H62            22.6323661838      -19.9001881398      114.3261631001  LPSA11    34             25.0000000000
     12162       394  ARHM      H63            23.6477458675      -18.4498619645      114.1853481201  LPSA11    34             25.0000000000
     12163       395  ARHM      C1             20.3750033212      -16.1461093454      119.0662801775  LPSA11    35             26.0000000000
     12164       395  ARHM      H1             19.7338499908      -15.2553743877      118.8711367931  LPSA11    35             26.0000000000
     12165       395  ARHM      C5             22.6539479519      -16.9061222983      119.2079485388  LPSA11    35             26.0000000000
     12166       395  ARHM      H5             22.4345962883      -17.7404794148      118.5093091851  LPSA11    35             26.0000000000
     12167       395  ARHM      O5             21.7711784439      -15.7981836793      118.9374287961  LPSA11    35             26.0000000000
     12168       395  ARHM      C2             20.1556674538      -16.5841283681      120.5123682579  LPSA11    35             26.0000000000
     12169       395  ARHM      H2             19.0933522338      -16.8455821330      120.6865688646  LPSA11    35             26.0000000000
     12170       395  ARHM      O2             20.4781272042      -15.5258001946      121.4246372234  LPSA11    35             26.0000000000
     12171       395  ARHM      C3             21.0048663396      -17.7976727772      120.8327500937  LPSA11    35             26.0000000000
     12172       395  ARHM      H3             20.7479952907      -18.6164382820      120.1180367845  LPSA11    35             26.0000000000
     12173       395  ARHM      O3             20.7466609382      -18.3376219828      122.1285121548  LPSA11    35             26.0000000000
     12174       395  ARHM      HO3            20.4750136693      -17.6221653446      122.7267555784  LPSA11    35             26.0000000000
     12175       395  ARHM      C4             22.4569565104      -17.4117394239      120.6495928082  LPSA11    35             26.0000000000
     12176       395  ARHM      H4             22.7247367849      -16.5755898575      121.3410168803  LPSA11    35             26.0000000000
     12177       395  ARHM      O4             23.3126755612      -18.5133726795      120.9642154353  LPSA11    35             26.0000000000
     12178       395  ARHM      HO4            22.9636673865      -19.3072745615      120.5703681289  LPSA11    35             26.0000000000
     12179       395  ARHM      C6             24.0964782432      -16.4652882077      118.8580577314  LPSA11    35             26.0000000000
     12180       395  ARHM      H61            24.2151261396      -16.2591243370      117.7750497343  LPSA11    35             26.0000000000
     12181       395  ARHM      H62            24.3556059368      -15.5478182939      119.4293447054  LPSA11    35             26.0000000000
     12182       395  ARHM      H63            24.8055851111      -17.2834525625      119.1108970821  LPSA11    35             26.0000000000
     12183       396  BMANNA    C1             19.5600601150      -14.4646344973      121.4758656588  LPSA11    36             27.0000000000
     12184       396  BMANNA    H1             18.5626440183      -14.8132788766      121.1335689583  LPSA11    36             27.0000000000
     12185       396  BMANNA    C5             18.9083290253      -12.3155549916      120.7158529595  LPSA11    36             27.0000000000
     12186       396  BMANNA    H5             17.9286058589      -12.7716813924      120.4382789967  LPSA11    36             27.0000000000
     12187       396  BMANNA    O5             19.9193143287      -13.3438414783      120.6522897293  LPSA11    36             27.0000000000
     12188       396  BMANNA    C2             19.4854107417      -14.0184952782      122.9250771062  LPSA11    36             27.0000000000
     12189       396  BMANNA    H2             19.1195800490      -14.9169532793      123.4883520895  LPSA11    36             27.0000000000
     12190       396  BMANNA    N              20.7657950731      -13.6124223736      123.5028085850  LPSA11    36             27.0000000000
     12191       396  BMANNA    HN             21.3962001668      -13.1068801451      122.9162441031  LPSA11    36             27.0000000000
     12192       396  BMANNA    C              21.0227317016      -13.7187692519      124.8161912477  LPSA11    36             27.0000000000
     12193       396  BMANNA    O              20.2881455246      -14.3386518882      125.5762331664  LPSA11    36             27.0000000000
     12194       396  BMANNA    CT             22.2694701515      -13.0604914381      125.3518350784  LPSA11    36             27.0000000000
     12195       396  BMANNA    HT1            22.3948388901      -12.0664939999      124.8775320327  LPSA11    36             27.0000000000
     12196       396  BMANNA    HT2            23.1672723273      -13.6698640232      125.1367112233  LPSA11    36             27.0000000000
     12197       396  BMANNA    HT3            22.1816026440      -12.9437739891      126.4510964318  LPSA11    36             27.0000000000
     12198       396  BMANNA    C3             18.4137535686      -12.9419691798      123.0201463259  LPSA11    36             27.0000000000
     12199       396  BMANNA    H3             17.4489627082      -13.3761688393      122.6621310183  LPSA11    36             27.0000000000
     12200       396  BMANNA    O3             18.2160334631      -12.4492625524      124.3388321322  LPSA11    36             27.0000000000
     12201       396  BMANNA    HO3            17.3810927134      -12.7646215571      124.7057318306  LPSA11    36             27.0000000000
     12202       396  BMANNA    C4             18.7614972350      -11.7887189662      122.1217551047  LPSA11    36             27.0000000000
     12203       396  BMANNA    H4             19.7279072314      -11.3362560139      122.4469307895  LPSA11    36             27.0000000000
     12204       396  BMANNA    O4             17.7704369010      -10.7700626118      122.2181727903  LPSA11    36             27.0000000000
     12205       396  BMANNA    HO4            17.7972161820      -10.6231891933      123.1727692499  LPSA11    36             27.0000000000
     12206       396  BMANNA    C6             19.1729975157      -11.2205522604      119.7216652956  LPSA11    36             27.0000000000
     12207       396  BMANNA    H61            19.2913762355      -11.6382158500      118.7017394555  LPSA11    36             27.0000000000
     12208       396  BMANNA    H62            18.2812796882      -10.5540690058      119.6938653025  LPSA11    36             27.0000000000
     12209       396  BMANNA    O6             20.3359344877      -10.4699423921      120.0514222014  LPSA11    36             27.0000000000
     12210       396  BMANNA    HO6            20.1053338105       -9.7609745167      120.6578373844  LPSA11    36             27.0000000000
     12211       397  ECLIPA    HB6S          -10.4521966052      -24.0765781363       20.4129244788  LPSA12    1               0.0000000000
     12212       397  ECLIPA    OB6           -11.9388244438      -24.6519985774       21.7132776829  LPSA12    1               0.0000000000
     12213       397  ECLIPA    CB6           -10.9860344513      -25.0059547305       20.6880117188  LPSA12    1               0.0000000000
     12214       397  ECLIPA    HB6R          -10.2268108512      -25.7176041560       21.0873023701  LPSA12    1               0.0000000000
     12215       397  ECLIPA    CB5           -11.5736507108      -25.6375163510       19.4273716657  LPSA12    1               0.0000000000
     12216       397  ECLIPA    OB5           -12.5647278590      -24.7034791736       18.9567195939  LPSA12    1               0.0000000000
     12217       397  ECLIPA    HB5           -12.0512459049      -26.5999317476       19.7137118942  LPSA12    1               0.0000000000
     12218       397  ECLIPA    CB1           -13.2341220305      -25.1842924217       17.7864210188  LPSA12    1               0.0000000000
     12219       397  ECLIPA    HB1           -13.7148766668      -26.1770155447       17.9668088132  LPSA12    1               0.0000000000
     12220       397  ECLIPA    OA6           -14.2419363547      -24.3146647380       17.3291905870  LPSA12    1               0.0000000000
     12221       397  ECLIPA    CA6           -14.0024636270      -22.9169973299       17.5653791619  LPSA12    1               0.0000000000
     12222       397  ECLIPA    HA6R          -12.9273263024      -22.6897975760       17.7559789921  LPSA12    1               0.0000000000
     12223       397  ECLIPA    HA6S          -14.6115633972      -22.5982384010       18.4440315061  LPSA12    1               0.0000000000
     12224       397  ECLIPA    CB4           -10.5249925043      -25.9200653941       18.3265825087  LPSA12    1               0.0000000000
     12225       397  ECLIPA    HB4            -9.9762721880      -24.9850730949       18.0481391117  LPSA12    1               0.0000000000
     12226       397  ECLIPA    OB4            -9.6560723736      -26.9670711148       18.8050672568  LPSA12    1               0.0000000000
     12227       397  ECLIPA    PB             -8.0992604851      -26.6433888735       19.2702860329  LPSA12    1               0.0000000000
     12228       397  ECLIPA    OPB4           -7.7243881791      -27.6131471471       20.3912011953  LPSA12    1               0.0000000000
     12229       397  ECLIPA    OPB3           -8.1344480032      -25.1636336156       19.6618358648  LPSA12    1               0.0000000000
     12230       397  ECLIPA    OPB2           -7.2407647405      -27.0154731455       18.0545070588  LPSA12    1               0.0000000000
     12231       397  ECLIPA    CB3           -11.2454824259      -26.4154252280       17.0898599680  LPSA12    1               0.0000000000
     12232       397  ECLIPA    OB3           -10.4164944421      -26.5997063087       15.9422797117  LPSA12    1               0.0000000000
     12233       397  ECLIPA    HB3           -11.8311605236      -27.3343616654       17.3368182584  LPSA12    1               0.0000000000
     12234       397  ECLIPA    C71            -9.8150050643      -27.7480008898       15.7506049855  LPSA12    1               0.0000000000
     12235       397  ECLIPA    O71           -10.1326019752      -28.8108276081       16.2697669186  LPSA12    1               0.0000000000
     12236       397  ECLIPA    C72            -9.1040536372      -27.7140525497       14.3851179290  LPSA12    1               0.0000000000
     12237       397  ECLIPA    H72R           -9.8321685858      -27.4164381667       13.6033508039  LPSA12    1               0.0000000000
     12238       397  ECLIPA    H72S           -8.7040497404      -28.7265883172       14.1733703934  LPSA12    1               0.0000000000
     12239       397  ECLIPA    CB2           -12.2557203859      -25.3708370782       16.6657822324  LPSA12    1               0.0000000000
     12240       397  ECLIPA    HB2           -11.7092876856      -24.3969906409       16.5105294709  LPSA12    1               0.0000000000
     12241       397  ECLIPA    NB2           -12.9561802252      -25.7924292844       15.4541387696  LPSA12    1               0.0000000000
     12242       397  ECLIPA    HNB2          -13.7832809757      -26.3305910250       15.5788644453  LPSA12    1               0.0000000000
     12243       397  ECLIPA    CA4           -15.7685312767      -22.6633203871       15.7967640303  LPSA12    1               0.0000000000
     12244       397  ECLIPA    HA4           -15.6348321886      -23.7281936439       15.5324384184  LPSA12    1               0.0000000000
     12245       397  ECLIPA    OA4           -16.7509972216      -22.5210829521       16.8137637951  LPSA12    1               0.0000000000
     12246       397  ECLIPA    HOA4          -16.4338435406      -22.8958520874       17.6333938961  LPSA12    1               0.0000000000
     12247       397  ECLIPA    CA5           -14.4399560720      -22.1583147103       16.3329415452  LPSA12    1               0.0000000000
     12248       397  ECLIPA    HA5           -14.4296246370      -21.0578787213       16.5521540036  LPSA12    1               0.0000000000
     12249       397  ECLIPA    OA5           -13.4452972571      -22.4412491380       15.3551106573  LPSA12    1               0.0000000000
     12250       397  ECLIPA    CA1           -13.6731329222      -21.7569216068       14.1245043149  LPSA12    1               0.0000000000
     12251       397  ECLIPA    HA1           -12.9793630107      -22.2675044681       13.4307137121  LPSA12    1               0.0000000000
     12252       397  ECLIPA    OA1           -13.1475037940      -20.4753924587       14.1186804787  LPSA12    1               0.0000000000
     12253       397  ECLIPA    OPA2          -12.0937827972      -19.2189624594       16.0700335756  LPSA12    1               0.0000000000
     12254       397  ECLIPA    OPA3          -10.7554967326      -20.9965329928       14.9103729059  LPSA12    1               0.0000000000
     12255       397  ECLIPA    OPA4          -11.3117972181      -18.8574405673       13.7179251672  LPSA12    1               0.0000000000
     12256       397  ECLIPA    PA            -11.7515767909      -19.8885292717       14.7386095747  LPSA12    1               0.0000000000
     12257       397  ECLIPA    CA3           -16.1615424156      -21.9698237569       14.5244651461  LPSA12    1               0.0000000000
     12258       397  ECLIPA    HA3           -16.4541504672      -20.9815521633       14.7803208416  LPSA12    1               0.0000000000
     12259       397  ECLIPA    OA3           -17.4321141319      -22.4996449245       14.1921123276  LPSA12    1               0.0000000000
     12260       397  ECLIPA    C31           -17.5891645556      -23.5818135112       13.4770224561  LPSA12    1               0.0000000000
     12261       397  ECLIPA    O31           -17.3643361607      -23.6708289354       12.2814322687  LPSA12    1               0.0000000000
     12262       397  ECLIPA    C32           -18.3338650813      -24.6403197151       14.2827851540  LPSA12    1               0.0000000000
     12263       397  ECLIPA    H32R          -19.2788192308      -24.7884225207       13.7222227920  LPSA12    1               0.0000000000
     12264       397  ECLIPA    H32S          -18.5903632076      -24.2109835189       15.2744362823  LPSA12    1               0.0000000000
     12265       397  ECLIPA    CA2           -15.0320914024      -22.1945119976       13.5224825793  LPSA12    1               0.0000000000
     12266       397  ECLIPA    HA2           -14.9463585751      -23.2814812974       13.3372395553  LPSA12    1               0.0000000000
     12267       397  ECLIPA    NA2           -15.3097614064      -21.5426145033       12.2305168391  LPSA12    1               0.0000000000
     12268       397  ECLIPA    HNA2          -16.2162723226      -21.1366408620       12.1128277037  LPSA12    1               0.0000000000
     12269       397  ECLIPA    C73            -7.9590890235      -26.6928444084       14.3563009454  LPSA12    1               0.0000000000
     12270       397  ECLIPA    H73R           -7.3499477570      -26.8255016607       15.2843395829  LPSA12    1               0.0000000000
     12271       397  ECLIPA    O73            -8.5817177804      -25.4178202798       14.2734162080  LPSA12    1               0.0000000000
     12272       397  ECLIPA    C81            -8.0421859824      -24.3956137595       14.9326624291  LPSA12    1               0.0000000000
     12273       397  ECLIPA    O81            -6.9830926135      -24.4255551177       15.5327591653  LPSA12    1               0.0000000000
     12274       397  ECLIPA    C82            -8.6274635875      -23.0992301540       14.3371883465  LPSA12    1               0.0000000000
     12275       397  ECLIPA    H82R           -8.1950146946      -22.2294410021       14.8675682603  LPSA12    1               0.0000000000
     12276       397  ECLIPA    H82S           -9.7163990885      -23.0741434982       14.5564515461  LPSA12    1               0.0000000000
     12277       397  ECLIPA    C83            -8.4240115473      -22.9572775940       12.8081234147  LPSA12    1               0.0000000000
     12278       397  ECLIPA    H83R           -9.2141478439      -23.5506890726       12.2904316860  LPSA12    1               0.0000000000
     12279       397  ECLIPA    H83S           -7.4370564430      -23.3781082649       12.5342564641  LPSA12    1               0.0000000000
     12280       397  ECLIPA    C84            -8.5772544185      -21.5145010472       12.2927103943  LPSA12    1               0.0000000000
     12281       397  ECLIPA    H84R           -7.7202111474      -20.8839545920       12.5954174800  LPSA12    1               0.0000000000
     12282       397  ECLIPA    H84S           -9.5121821465      -21.1087614173       12.7583722668  LPSA12    1               0.0000000000
     12283       397  ECLIPA    C85            -8.7890200555      -21.4513249239       10.7708257105  LPSA12    1               0.0000000000
     12284       397  ECLIPA    H85R           -9.5062192804      -22.2732748115       10.5452040634  LPSA12    1               0.0000000000
     12285       397  ECLIPA    H85S           -7.8476235554      -21.6896675468       10.2340881082  LPSA12    1               0.0000000000
     12286       397  ECLIPA    C86            -9.4640430619      -20.1472145729       10.2862929122  LPSA12    1               0.0000000000
     12287       397  ECLIPA    H86R           -8.7076652829      -19.3871589146        9.9923725766  LPSA12    1               0.0000000000
     12288       397  ECLIPA    H86S          -10.0433663018      -19.7025112002       11.1315394170  LPSA12    1               0.0000000000
     12289       397  ECLIPA    C87           -10.4884765178      -20.3890307688        9.1593880340  LPSA12    1               0.0000000000
     12290       397  ECLIPA    H87R          -10.8817917866      -19.4147907218        8.7973480408  LPSA12    1               0.0000000000
     12291       397  ECLIPA    H87S          -11.3623773676      -20.9424631034        9.5757969574  LPSA12    1               0.0000000000
     12292       397  ECLIPA    C88            -9.9198513644      -21.2378289519        8.0200226196  LPSA12    1               0.0000000000
     12293       397  ECLIPA    H88R           -9.8774915755      -22.2966774570        8.3499891053  LPSA12    1               0.0000000000
     12294       397  ECLIPA    H88S           -8.8556779411      -20.9457116331        7.8797347874  LPSA12    1               0.0000000000
     12295       397  ECLIPA    C89           -10.7317115888      -21.1444532328        6.7143274229  LPSA12    1               0.0000000000
     12296       397  ECLIPA    H89R          -11.7708216163      -20.7890149934        6.8957106312  LPSA12    1               0.0000000000
     12297       397  ECLIPA    H89S          -10.8351592537      -22.1520641787        6.2579894012  LPSA12    1               0.0000000000
     12298       397  ECLIPA    C810          -10.0066846667      -20.2598384921        5.6954463607  LPSA12    1               0.0000000000
     12299       397  ECLIPA    H810R          -8.9245385576      -20.3401784522        5.9309839097  LPSA12    1               0.0000000000
     12300       397  ECLIPA    H810S         -10.3264099822      -19.2072380442        5.8630718935  LPSA12    1               0.0000000000
     12301       397  ECLIPA    C811          -10.2505778144      -20.6606853719        4.2329240706  LPSA12    1               0.0000000000
     12302       397  ECLIPA    H811R         -10.0328416438      -19.8154366194        3.5393075167  LPSA12    1               0.0000000000
     12303       397  ECLIPA    H811S         -11.3288223832      -20.9249612686        4.1561373448  LPSA12    1               0.0000000000
     12304       397  ECLIPA    C812           -9.4707635278      -21.8868438622        3.7357820284  LPSA12    1               0.0000000000
     12305       397  ECLIPA    H812R          -9.8633381627      -22.1196045994        2.7150783313  LPSA12    1               0.0000000000
     12306       397  ECLIPA    H812S          -9.6700345739      -22.7465062988        4.4086389971  LPSA12    1               0.0000000000
     12307       397  ECLIPA    C813           -7.9531503735      -21.7300047309        3.6364755065  LPSA12    1               0.0000000000
     12308       397  ECLIPA    H813R          -7.7369162338      -20.9022921550        2.9286381908  LPSA12    1               0.0000000000
     12309       397  ECLIPA    H813S          -7.5069692502      -21.4609747762        4.6232421524  LPSA12    1               0.0000000000
     12310       397  ECLIPA    C814           -7.2773779643      -23.0038444289        3.1296740252  LPSA12    1               0.0000000000
     12311       397  ECLIPA    H814R          -7.7660956012      -23.4086317832        2.2173548650  LPSA12    1               0.0000000000
     12312       397  ECLIPA    H814S          -7.2922717567      -23.7828959470        3.9202095977  LPSA12    1               0.0000000000
     12313       397  ECLIPA    H814T          -6.2228759903      -22.7890650760        2.8798449021  LPSA12    1               0.0000000000
     12314       397  ECLIPA    C74            -7.0155645058      -26.7973604368       13.1280891000  LPSA12    1               0.0000000000
     12315       397  ECLIPA    H74R           -6.4725002578      -27.7601132783       13.0428734746  LPSA12    1               0.0000000000
     12316       397  ECLIPA    H74S           -6.2360682419      -26.0206142274       13.3201914396  LPSA12    1               0.0000000000
     12317       397  ECLIPA    C75            -7.6779706448      -26.4235793440       11.7843214199  LPSA12    1               0.0000000000
     12318       397  ECLIPA    H75R           -6.9249036775      -25.8604062452       11.1927352365  LPSA12    1               0.0000000000
     12319       397  ECLIPA    H75S           -8.5281515233      -25.7314327913       11.9718989661  LPSA12    1               0.0000000000
     12320       397  ECLIPA    C76            -8.1914149392      -27.5942005423       10.9406195188  LPSA12    1               0.0000000000
     12321       397  ECLIPA    H76R           -9.1617235533      -27.9206280099       11.3653869835  LPSA12    1               0.0000000000
     12322       397  ECLIPA    H76S           -7.5015566507      -28.4662433268       10.9901145367  LPSA12    1               0.0000000000
     12323       397  ECLIPA    C77            -8.3546136907      -27.2310422379        9.4518143326  LPSA12    1               0.0000000000
     12324       397  ECLIPA    H77R           -7.3780663460      -26.9969284555        9.0044250346  LPSA12    1               0.0000000000
     12325       397  ECLIPA    H77S           -9.0199610923      -26.3602310507        9.3150591212  LPSA12    1               0.0000000000
     12326       397  ECLIPA    C78            -9.0119502616      -28.3579248761        8.6907573678  LPSA12    1               0.0000000000
     12327       397  ECLIPA    H78R           -8.6305323618      -29.3486477954        9.0352923516  LPSA12    1               0.0000000000
     12328       397  ECLIPA    H78S          -10.0505968328      -28.1785061048        9.0455787761  LPSA12    1               0.0000000000
     12329       397  ECLIPA    C79            -9.3843724008      -28.2338965867        7.2242319300  LPSA12    1               0.0000000000
     12330       397  ECLIPA    H79R          -10.4201015166      -27.8257313202        7.1571359819  LPSA12    1               0.0000000000
     12331       397  ECLIPA    H79S           -9.3138631515      -29.1968143893        6.6766195131  LPSA12    1               0.0000000000
     12332       397  ECLIPA    C710           -8.4446213075      -27.4770585305        6.3975635642  LPSA12    1               0.0000000000
     12333       397  ECLIPA    H710R          -8.3553743558      -26.4719919161        6.8438907668  LPSA12    1               0.0000000000
     12334       397  ECLIPA    H710S          -7.4913712608      -28.0517830336        6.4587010023  LPSA12    1               0.0000000000
     12335       397  ECLIPA    C711           -8.9298457054      -27.4071003584        4.9627151553  LPSA12    1               0.0000000000
     12336       397  ECLIPA    H711R          -9.0369583617      -28.4332631031        4.5386071872  LPSA12    1               0.0000000000
     12337       397  ECLIPA    H711S          -9.9181631541      -26.8904237495        4.9182284527  LPSA12    1               0.0000000000
     12338       397  ECLIPA    C712           -7.8928765358      -26.5989222103        4.2128885628  LPSA12    1               0.0000000000
     12339       397  ECLIPA    H712R          -6.9311938940      -27.1561028152        4.2504915812  LPSA12    1               0.0000000000
     12340       397  ECLIPA    H712S          -7.7534302299      -25.6674212002        4.8091179235  LPSA12    1               0.0000000000
     12341       397  ECLIPA    C713           -8.3025016620      -26.2553101658        2.7843206610  LPSA12    1               0.0000000000
     12342       397  ECLIPA    H713R          -9.2331487016      -25.6397993950        2.8346966744  LPSA12    1               0.0000000000
     12343       397  ECLIPA    H713S          -7.5051774822      -25.6342418847        2.3157673386  LPSA12    1               0.0000000000
     12344       397  ECLIPA    C714           -8.5107570671      -27.4630759119        1.8721448803  LPSA12    1               0.0000000000
     12345       397  ECLIPA    H714R          -7.5689426425      -28.0502729241        1.7953638797  LPSA12    1               0.0000000000
     12346       397  ECLIPA    H714S          -9.3352046726      -28.1187528397        2.2234927965  LPSA12    1               0.0000000000
     12347       397  ECLIPA    H714T          -8.7615748273      -27.0978773456        0.8555933259  LPSA12    1               0.0000000000
     12348       397  ECLIPA    C51           -12.4702737429      -25.5257397787       14.2318771983  LPSA12    1               0.0000000000
     12349       397  ECLIPA    O51           -11.5823868817      -24.7129203341       14.0685463581  LPSA12    1               0.0000000000
     12350       397  ECLIPA    C52           -13.0072299528      -26.3097544620       13.0548667378  LPSA12    1               0.0000000000
     12351       397  ECLIPA    H52R          -12.4260360307      -27.2507274211       12.9282891146  LPSA12    1               0.0000000000
     12352       397  ECLIPA    H52S          -14.0566726427      -26.5750611818       13.2486598622  LPSA12    1               0.0000000000
     12353       397  ECLIPA    C53           -12.9111658846      -25.4683683198       11.7622832256  LPSA12    1               0.0000000000
     12354       397  ECLIPA    H53R          -13.0779669401      -24.3844819670       11.9850427590  LPSA12    1               0.0000000000
     12355       397  ECLIPA    O53           -13.8827284212      -26.0150766772       10.8515870340  LPSA12    1               0.0000000000
     12356       397  ECLIPA    C61           -14.9297950580      -25.2634899928       10.5168589166  LPSA12    1               0.0000000000
     12357       397  ECLIPA    O61           -15.1182895815      -24.1173691444       10.8378982251  LPSA12    1               0.0000000000
     12358       397  ECLIPA    C62           -15.8584710151      -26.0609539126        9.5916138436  LPSA12    1               0.0000000000
     12359       397  ECLIPA    H62R          -16.4988020421      -26.7105287015       10.2170704322  LPSA12    1               0.0000000000
     12360       397  ECLIPA    H62S          -15.2009295960      -26.7277683122        9.0043420114  LPSA12    1               0.0000000000
     12361       397  ECLIPA    C63           -16.7342215363      -25.1226260092        8.7058585154  LPSA12    1               0.0000000000
     12362       397  ECLIPA    H63R          -16.0669975340      -24.3484152497        8.2715751549  LPSA12    1               0.0000000000
     12363       397  ECLIPA    H63S          -17.5025994828      -24.6083341393        9.3304695830  LPSA12    1               0.0000000000
     12364       397  ECLIPA    C64           -17.4395368098      -25.7859780325        7.5076592547  LPSA12    1               0.0000000000
     12365       397  ECLIPA    H64R          -18.0866898121      -25.0415783487        6.9878493269  LPSA12    1               0.0000000000
     12366       397  ECLIPA    H64S          -18.0798155673      -26.5947283863        7.9215301898  LPSA12    1               0.0000000000
     12367       397  ECLIPA    C65           -16.4149365687      -26.3632007975        6.5271375274  LPSA12    1               0.0000000000
     12368       397  ECLIPA    H65R          -15.8752475514      -27.1164374154        7.1359299295  LPSA12    1               0.0000000000
     12369       397  ECLIPA    H65S          -15.6885494692      -25.5820411128        6.2170540228  LPSA12    1               0.0000000000
     12370       397  ECLIPA    C66           -16.9237277892      -27.0773994737        5.2604744905  LPSA12    1               0.0000000000
     12371       397  ECLIPA    H66R          -17.6007766588      -27.9074803001        5.5524568893  LPSA12    1               0.0000000000
     12372       397  ECLIPA    H66S          -16.0104751654      -27.5182450797        4.7939402230  LPSA12    1               0.0000000000
     12373       397  ECLIPA    C67           -17.6037007230      -26.2327779391        4.1680039314  LPSA12    1               0.0000000000
     12374       397  ECLIPA    H67R          -18.4443111132      -25.6267036938        4.5720831865  LPSA12    1               0.0000000000
     12375       397  ECLIPA    H67S          -18.0176157386      -26.8972021043        3.3724654377  LPSA12    1               0.0000000000
     12376       397  ECLIPA    C68           -16.6888522484      -25.2202824169        3.4947468274  LPSA12    1               0.0000000000
     12377       397  ECLIPA    H68R          -15.7412130099      -25.6519029582        3.1024421329  LPSA12    1               0.0000000000
     12378       397  ECLIPA    H68S          -16.4429827425      -24.4707005575        4.2770711455  LPSA12    1               0.0000000000
     12379       397  ECLIPA    C69           -17.3925520991      -24.6169608354        2.2867789206  LPSA12    1               0.0000000000
     12380       397  ECLIPA    H69R          -18.4989955879      -24.5720816051        2.3880352653  LPSA12    1               0.0000000000
     12381       397  ECLIPA    H69S          -17.2025887031      -25.3245957682        1.4515780398  LPSA12    1               0.0000000000
     12382       397  ECLIPA    C610          -16.8761466349      -23.2281452196        1.9524944980  LPSA12    1               0.0000000000
     12383       397  ECLIPA    H610R         -15.7641893189      -23.2146830083        2.0152632002  LPSA12    1               0.0000000000
     12384       397  ECLIPA    H610S         -17.2614650344      -22.4984990485        2.6983236672  LPSA12    1               0.0000000000
     12385       397  ECLIPA    C611          -17.3595074088      -22.8492669390        0.5642611661  LPSA12    1               0.0000000000
     12386       397  ECLIPA    H611R         -18.4712776813      -22.8559815193        0.5362170339  LPSA12    1               0.0000000000
     12387       397  ECLIPA    H611S         -17.0758020893      -21.8314460574        0.3501974589  LPSA12    1               0.0000000000
     12388       397  ECLIPA    C612          -16.6937163066      -23.6336365902       -0.5602616550  LPSA12    1               0.0000000000
     12389       397  ECLIPA    H612R         -15.6202170046      -23.3473360147       -0.6171175675  LPSA12    1               0.0000000000
     12390       397  ECLIPA    H612S         -16.7764703649      -24.7077659167       -0.3743167691  LPSA12    1               0.0000000000
     12391       397  ECLIPA    H612T         -17.1469452665      -23.4512945594       -1.5482636966  LPSA12    1               0.0000000000
     12392       397  ECLIPA    C54           -11.4874539177      -25.6577985126       11.1700098620  LPSA12    1               0.0000000000
     12393       397  ECLIPA    H54R          -11.3959736540      -26.7278270745       10.8817971445  LPSA12    1               0.0000000000
     12394       397  ECLIPA    H54S          -10.7513073739      -25.4599463856       11.9769183643  LPSA12    1               0.0000000000
     12395       397  ECLIPA    C55           -11.1103835895      -24.7730251376        9.9650016117  LPSA12    1               0.0000000000
     12396       397  ECLIPA    H55R          -10.0083550319      -24.7787213515        9.8244360255  LPSA12    1               0.0000000000
     12397       397  ECLIPA    H55S          -11.3773538299      -23.7195026197       10.2013678182  LPSA12    1               0.0000000000
     12398       397  ECLIPA    C56           -11.7672665892      -25.3169498743        8.6895041941  LPSA12    1               0.0000000000
     12399       397  ECLIPA    H56R          -12.8588859447      -25.3730690581        8.8595791950  LPSA12    1               0.0000000000
     12400       397  ECLIPA    H56S          -11.4108322149      -26.3555951553        8.5020063411  LPSA12    1               0.0000000000
     12401       397  ECLIPA    C57           -11.6158830706      -24.5017198382        7.4073030805  LPSA12    1               0.0000000000
     12402       397  ECLIPA    H57R          -10.5478408615      -24.2954715886        7.1802369334  LPSA12    1               0.0000000000
     12403       397  ECLIPA    H57S          -12.1214881835      -23.5195643257        7.5523800011  LPSA12    1               0.0000000000
     12404       397  ECLIPA    C58           -12.3093069428      -25.2388145890        6.2421551873  LPSA12    1               0.0000000000
     12405       397  ECLIPA    H58R          -12.0040299240      -26.3029335468        6.2261491112  LPSA12    1               0.0000000000
     12406       397  ECLIPA    H58S          -13.4025433121      -25.2498834239        6.4621408873  LPSA12    1               0.0000000000
     12407       397  ECLIPA    C59           -11.9887204620      -24.6217791476        4.8655812543  LPSA12    1               0.0000000000
     12408       397  ECLIPA    H59R          -10.8839573968      -24.5953194852        4.7146857783  LPSA12    1               0.0000000000
     12409       397  ECLIPA    H59S          -12.3416903307      -23.5724752714        4.9506515727  LPSA12    1               0.0000000000
     12410       397  ECLIPA    C510          -12.5540867248      -25.3909980177        3.6389305375  LPSA12    1               0.0000000000
     12411       397  ECLIPA    H510R         -13.6040324326      -25.6987529820        3.8216934278  LPSA12    1               0.0000000000
     12412       397  ECLIPA    H510S         -11.9481699761      -26.3098480765        3.5142071124  LPSA12    1               0.0000000000
     12413       397  ECLIPA    C511          -12.5010643156      -24.6518503334        2.2816987059  LPSA12    1               0.0000000000
     12414       397  ECLIPA    H511R         -13.3322361237      -23.9236446432        2.2685370840  LPSA12    1               0.0000000000
     12415       397  ECLIPA    H511S         -11.5454028452      -24.0848204853        2.2078360884  LPSA12    1               0.0000000000
     12416       397  ECLIPA    C512          -12.6531317020      -25.5432630414        1.0230730913  LPSA12    1               0.0000000000
     12417       397  ECLIPA    H512R         -12.2887915528      -24.9884857672        0.1265185433  LPSA12    1               0.0000000000
     12418       397  ECLIPA    H512S         -12.0005185916      -26.4280471358        1.1489628518  LPSA12    1               0.0000000000
     12419       397  ECLIPA    C513          -14.1043035359      -25.9446778337        0.6812044114  LPSA12    1               0.0000000000
     12420       397  ECLIPA    H513R         -14.7223577176      -25.0324326313        0.5603234956  LPSA12    1               0.0000000000
     12421       397  ECLIPA    H513S         -14.5424855213      -26.5552235809        1.4940978527  LPSA12    1               0.0000000000
     12422       397  ECLIPA    C514          -14.2721316790      -26.7286328926       -0.6103502408  LPSA12    1               0.0000000000
     12423       397  ECLIPA    H514R         -13.5912243684      -27.5929736568       -0.5940483788  LPSA12    1               0.0000000000
     12424       397  ECLIPA    H514S         -15.2796823610      -27.1529613350       -0.7332378254  LPSA12    1               0.0000000000
     12425       397  ECLIPA    H514T         -14.0487320706      -26.0756170973       -1.4871692135  LPSA12    1               0.0000000000
     12426       397  ECLIPA    C33           -17.6641710990      -26.0253605325       14.4624297915  LPSA12    1               0.0000000000
     12427       397  ECLIPA    H33R          -18.4401570492      -26.7165185364       14.8660714203  LPSA12    1               0.0000000000
     12428       397  ECLIPA    O33           -16.6422654417      -25.9290556958       15.4377827864  LPSA12    1               0.0000000000
     12429       397  ECLIPA    HO33          -16.9901356923      -25.8246101485       16.3289073659  LPSA12    1               0.0000000000
     12430       397  ECLIPA    C34           -17.0600784516      -26.6775510187       13.2045165046  LPSA12    1               0.0000000000
     12431       397  ECLIPA    H34R          -16.2494553382      -26.0242571168       12.8162268317  LPSA12    1               0.0000000000
     12432       397  ECLIPA    H34S          -17.8328959884      -26.7408581079       12.4084403557  LPSA12    1               0.0000000000
     12433       397  ECLIPA    C35           -16.5046709043      -28.0888600045       13.4643308290  LPSA12    1               0.0000000000
     12434       397  ECLIPA    H35R          -17.2877318564      -28.8054642956       13.7706292700  LPSA12    1               0.0000000000
     12435       397  ECLIPA    H35S          -15.7275541563      -28.0375884824       14.2676858671  LPSA12    1               0.0000000000
     12436       397  ECLIPA    C36           -15.8670611607      -28.6660559927       12.2427665310  LPSA12    1               0.0000000000
     12437       397  ECLIPA    H36R          -15.4078151943      -27.8083844332       11.6972835301  LPSA12    1               0.0000000000
     12438       397  ECLIPA    H36S          -16.5520883523      -29.2038045214       11.5414715126  LPSA12    1               0.0000000000
     12439       397  ECLIPA    C37           -14.7451473057      -29.5677076271       12.6138278699  LPSA12    1               0.0000000000
     12440       397  ECLIPA    H37R          -15.0674268093      -30.6319500596       12.7298654123  LPSA12    1               0.0000000000
     12441       397  ECLIPA    H37S          -14.1495827113      -29.2801372164       13.5067259114  LPSA12    1               0.0000000000
     12442       397  ECLIPA    C38           -13.8727685208      -29.4880014782       11.4391139236  LPSA12    1               0.0000000000
     12443       397  ECLIPA    H38R          -13.1900387267      -28.6048131392       11.3684458864  LPSA12    1               0.0000000000
     12444       397  ECLIPA    H38S          -13.4280035898      -30.4663123719       11.7252054878  LPSA12    1               0.0000000000
     12445       397  ECLIPA    C39           -14.5895804792      -29.5989456449       10.1642042324  LPSA12    1               0.0000000000
     12446       397  ECLIPA    H39R          -15.2299407050      -28.7912690711        9.8508960941  LPSA12    1               0.0000000000
     12447       397  ECLIPA    H39S          -14.9778507132      -30.6211667260       10.3541024023  LPSA12    1               0.0000000000
     12448       397  ECLIPA    C310          -13.7521604257      -29.4727216695        9.0512584376  LPSA12    1               0.0000000000
     12449       397  ECLIPA    H310R         -13.4439123793      -30.5293745056        9.3028837127  LPSA12    1               0.0000000000
     12450       397  ECLIPA    H310S         -13.0282628505      -28.6102881030        9.0070120200  LPSA12    1               0.0000000000
     12451       397  ECLIPA    C311          -14.1717829116      -29.0998376515        7.7191569588  LPSA12    1               0.0000000000
     12452       397  ECLIPA    H311R         -14.8749497757      -29.8210544727        7.4771069649  LPSA12    1               0.0000000000
     12453       397  ECLIPA    H311S         -14.2470405594      -28.1017288792        7.3446689937  LPSA12    1               0.0000000000
     12454       397  ECLIPA    C312          -13.1141802162      -29.0785285382        6.8358956802  LPSA12    1               0.0000000000
     12455       397  ECLIPA    H312R         -12.0244574166      -28.9045423660        7.1636925255  LPSA12    1               0.0000000000
     12456       397  ECLIPA    H312S         -13.1556082796      -30.2500020783        7.2845507462  LPSA12    1               0.0000000000
     12457       397  ECLIPA    C313          -13.3411988427      -28.6958357277        5.0621196512  LPSA12    1               0.0000000000
     12458       397  ECLIPA    H313R         -14.3509618334      -29.1136668655        4.7559684875  LPSA12    1               0.0000000000
     12459       397  ECLIPA    H313S         -13.5898217399      -27.6547839706        5.2118554937  LPSA12    1               0.0000000000
     12460       397  ECLIPA    C314          -12.1798454865      -28.6949901184        3.6555918386  LPSA12    1               0.0000000000
     12461       397  ECLIPA    H314R         -11.6201953654      -29.5937708158        3.1963044517  LPSA12    1               0.0000000000
     12462       397  ECLIPA    H314S         -12.4939438058      -28.5690918354        2.5766122052  LPSA12    1               0.0000000000
     12463       397  ECLIPA    H314T         -11.1298002273      -28.5217135011        3.9315422031  LPSA12    1               0.0000000000
     12464       397  ECLIPA    C11           -14.3971416859      -21.2082715413       11.3077343179  LPSA12    1               0.0000000000
     12465       397  ECLIPA    O11           -13.2948683735      -21.7080231697       11.1523721528  LPSA12    1               0.0000000000
     12466       397  ECLIPA    C12           -14.8335982587      -20.1817469823       10.3897116296  LPSA12    1               0.0000000000
     12467       397  ECLIPA    H12R          -14.2707193780      -19.2244875675       10.5629236738  LPSA12    1               0.0000000000
     12468       397  ECLIPA    H12S          -15.9071723071      -19.9338783473       10.5216660379  LPSA12    1               0.0000000000
     12469       397  ECLIPA    C13           -14.6457000198      -20.8515403215        9.0560931129  LPSA12    1               0.0000000000
     12470       397  ECLIPA    H13R          -13.6665785386      -21.2148580013        8.7320320988  LPSA12    1               0.0000000000
     12471       397  ECLIPA    O13           -14.3097239420      -19.7870498081        8.4046922375  LPSA12    1               0.0000000000
     12472       397  ECLIPA    HO13          -14.2889064797      -19.6604682291        7.4575642766  LPSA12    1               0.0000000000
     12473       397  ECLIPA    C14           -15.8903820373      -21.4808106779        8.4793976581  LPSA12    1               0.0000000000
     12474       397  ECLIPA    H14R          -16.7984619241      -21.0852500933        8.9875673457  LPSA12    1               0.0000000000
     12475       397  ECLIPA    H14S          -15.6392268419      -22.5112840480        8.7804199495  LPSA12    1               0.0000000000
     12476       397  ECLIPA    C15           -16.1329238388      -21.4582199644        6.9718488384  LPSA12    1               0.0000000000
     12477       397  ECLIPA    H15R          -16.3234349511      -20.4180885405        6.6179899737  LPSA12    1               0.0000000000
     12478       397  ECLIPA    H15S          -17.0844628550      -22.0129744953        6.8130608802  LPSA12    1               0.0000000000
     12479       397  ECLIPA    C16           -14.9887568335      -22.1585629659        6.2269787545  LPSA12    1               0.0000000000
     12480       397  ECLIPA    H16R          -15.0379963476      -23.2520627466        6.3301945617  LPSA12    1               0.0000000000
     12481       397  ECLIPA    H16S          -14.0152285107      -21.8224486529        6.6509121800  LPSA12    1               0.0000000000
     12482       397  ECLIPA    C17           -15.0325360571      -21.9013799313        4.7556431956  LPSA12    1               0.0000000000
     12483       397  ECLIPA    H17R          -16.0974589910      -21.8491652252        4.4073029985  LPSA12    1               0.0000000000
     12484       397  ECLIPA    H17S          -14.4362876835      -22.5358584606        4.0701341247  LPSA12    1               0.0000000000
     12485       397  ECLIPA    C18           -14.4348492901      -20.5951120135        4.5518646612  LPSA12    1               0.0000000000
     12486       397  ECLIPA    H18R          -15.1942712260      -19.9582909815        5.0883388152  LPSA12    1               0.0000000000
     12487       397  ECLIPA    H18S          -13.4109717308      -20.3249828735        4.8784640003  LPSA12    1               0.0000000000
     12488       397  ECLIPA    C19           -14.5140155413      -20.3910980255        3.1022985306  LPSA12    1               0.0000000000
     12489       397  ECLIPA    H19R          -14.0860154423      -19.4118229511        2.8791881052  LPSA12    1               0.0000000000
     12490       397  ECLIPA    H19S          -15.5917406090      -20.5377716355        2.8276168902  LPSA12    1               0.0000000000
     12491       397  ECLIPA    C110          -13.5445443228      -20.8159518863        2.0789442104  LPSA12    1               0.0000000000
     12492       397  ECLIPA    H110R         -12.5158266132      -20.6279008501        2.4614862463  LPSA12    1               0.0000000000
     12493       397  ECLIPA    H110S         -13.8914250022      -21.8493765361        2.0258658465  LPSA12    1               0.0000000000
     12494       397  ECLIPA    C111          -13.6947227812      -20.0841038714        0.7326828335  LPSA12    1               0.0000000000
     12495       397  ECLIPA    H111R         -14.7507737057      -20.0302057909        0.4196432689  LPSA12    1               0.0000000000
     12496       397  ECLIPA    H111S         -13.3431231453      -19.0288869000        0.7807267903  LPSA12    1               0.0000000000
     12497       397  ECLIPA    C112          -12.9026268142      -20.8699366143       -0.2983143886  LPSA12    1               0.0000000000
     12498       397  ECLIPA    H112R         -11.8569149603      -20.7545316259        0.0564559163  LPSA12    1               0.0000000000
     12499       397  ECLIPA    H112S         -13.1657710800      -21.9459552407       -0.2117948047  LPSA12    1               0.0000000000
     12500       397  ECLIPA    C113          -13.2005790042      -20.4128268395       -1.7303996340  LPSA12    1               0.0000000000
     12501       397  ECLIPA    H113R         -14.2541149936      -20.7048114459       -1.9757656614  LPSA12    1               0.0000000000
     12502       397  ECLIPA    H113S         -13.1414069169      -19.3122892514       -1.7413054986  LPSA12    1               0.0000000000
     12503       397  ECLIPA    C114          -12.2758455767      -20.8735951552       -2.8569282925  LPSA12    1               0.0000000000
     12504       397  ECLIPA    H114R         -11.2115824060      -20.6354156341       -2.6730600837  LPSA12    1               0.0000000000
     12505       397  ECLIPA    H114S         -12.3824248462      -21.9624811822       -3.0330998130  LPSA12    1               0.0000000000
     12506       397  ECLIPA    H114T         -12.5299875612      -20.3054843485       -3.7783052169  LPSA12    1               0.0000000000
     12507       398  AKDO      C1            -12.3645214575      -26.8896320546       22.2610393764  LPSA12    2               0.0000000000
     12508       398  AKDO      O11           -11.4919428932      -27.6953320497       21.8628104210  LPSA12    2               0.0000000000
     12509       398  AKDO      O12           -13.6098994202      -27.0066804284       22.0954734999  LPSA12    2               0.0000000000
     12510       398  AKDO      C2            -11.8866373598      -25.5140858353       22.8402625003  LPSA12    2               0.0000000000
     12511       398  AKDO      C6            -10.0663398425      -24.2816383725       23.8515850683  LPSA12    2               0.0000000000
     12512       398  AKDO      H6            -10.1287500984      -23.6242043787       22.9472621019  LPSA12    2               0.0000000000
     12513       398  AKDO      O6            -10.5636137257      -25.5713348159       23.4354691425  LPSA12    2               0.0000000000
     12514       398  AKDO      C3            -12.8073169220      -24.8993815787       23.9110754767  LPSA12    2               0.0000000000
     12515       398  AKDO      H31           -12.9148338050      -25.5926385098       24.7751033038  LPSA12    2               0.0000000000
     12516       398  AKDO      H32           -13.8082676391      -24.7557859238       23.4476127964  LPSA12    2               0.0000000000
     12517       398  AKDO      C4            -12.3204574502      -23.5547361599       24.3647735570  LPSA12    2               0.0000000000
     12518       398  AKDO      H4            -12.2147224547      -22.8833896693       23.4808812016  LPSA12    2               0.0000000000
     12519       398  AKDO      O4            -13.1773735940      -22.9872692267       25.3654443247  LPSA12    2               0.0000000000
     12520       398  AKDO      C5            -10.9395896999      -23.6529643822       24.9592089596  LPSA12    2               0.0000000000
     12521       398  AKDO      H5            -10.5606499125      -22.6053885691       25.0819352263  LPSA12    2               0.0000000000
     12522       398  AKDO      O5            -11.0548612167      -24.3187268656       26.2584747581  LPSA12    2               0.0000000000
     12523       398  AKDO      C7             -8.5792053278      -24.3373982504       24.1551950382  LPSA12    2               0.0000000000
     12524       398  AKDO      H7             -8.4409355709      -24.9305986230       25.0711807030  LPSA12    2               0.0000000000
     12525       398  AKDO      O7             -8.0601989457      -23.0157212620       24.3548591568  LPSA12    2               0.0000000000
     12526       398  AKDO      HO7            -7.8387145967      -22.7129815463       23.4715007999  LPSA12    2               0.0000000000
     12527       398  AKDO      C8             -7.8248876771      -25.0031178708       23.0244710266  LPSA12    2               0.0000000000
     12528       398  AKDO      H81            -8.2701010226      -26.0160063791       22.8600776308  LPSA12    2               0.0000000000
     12529       398  AKDO      H82            -7.9689920789      -24.4130535809       22.0879023948  LPSA12    2               0.0000000000
     12530       398  AKDO      O8             -6.4238641990      -25.1437958625       23.3385114837  LPSA12    2               0.0000000000
     12531       398  AKDO      HO8            -6.1515414036      -25.9511199979       22.8662964603  LPSA12    2               0.0000000000
     12532       399  AKDO      C1            -14.1246053227      -21.3795321833       23.8007940293  LPSA12    3               1.0000000000
     12533       399  AKDO      O11           -14.4641640768      -21.7932878621       22.6598221233  LPSA12    3               1.0000000000
     12534       399  AKDO      O12           -13.5177276830      -20.3125620258       24.0826439409  LPSA12    3               1.0000000000
     12535       399  AKDO      C2            -14.3765153705      -22.3242060404       25.0164780520  LPSA12    3               1.0000000000
     12536       399  AKDO      C6            -15.6967340938      -24.1991214779       25.7809714345  LPSA12    3               1.0000000000
     12537       399  AKDO      H6            -14.7685520697      -24.7939989523       25.9770931978  LPSA12    3               1.0000000000
     12538       399  AKDO      O6            -15.4521242650      -23.2447956712       24.7213085802  LPSA12    3               1.0000000000
     12539       399  AKDO      C3            -14.7519891729      -21.5906260469       26.3280243323  LPSA12    3               1.0000000000
     12540       399  AKDO      H31           -15.6791621199      -20.9938816459       26.1572214328  LPSA12    3               1.0000000000
     12541       399  AKDO      H32           -13.9688110937      -20.8522409898       26.5978643861  LPSA12    3               1.0000000000
     12542       399  AKDO      C4            -14.9597358403      -22.5934899157       27.4279873089  LPSA12    3               1.0000000000
     12543       399  AKDO      H4            -14.0507335574      -23.2376063134       27.4822113580  LPSA12    3               1.0000000000
     12544       399  AKDO      O4            -15.1487796374      -22.0186127576       28.7088518976  LPSA12    3               1.0000000000
     12545       399  AKDO      HO4           -14.4922115780      -22.3408693543       29.3476225841  LPSA12    3               1.0000000000
     12546       399  AKDO      C5            -16.1093121963      -23.4763298157       27.0452290258  LPSA12    3               1.0000000000
     12547       399  AKDO      H5            -16.2637432552      -24.1984396253       27.8809149894  LPSA12    3               1.0000000000
     12548       399  AKDO      O5            -17.3275122682      -22.7547440107       26.8245101333  LPSA12    3               1.0000000000
     12549       399  AKDO      HO5           -17.1242405034      -22.0699071521       26.1762305024  LPSA12    3               1.0000000000
     12550       399  AKDO      C7            -16.7646416607      -25.1638365778       25.3383966388  LPSA12    3               1.0000000000
     12551       399  AKDO      H7            -17.6995465787      -24.5933154653       25.1173755675  LPSA12    3               1.0000000000
     12552       399  AKDO      O7            -17.0385837445      -26.0834891857       26.3982041170  LPSA12    3               1.0000000000
     12553       399  AKDO      HO7           -17.7783020640      -26.6249599134       26.1178737431  LPSA12    3               1.0000000000
     12554       399  AKDO      C8            -16.3142445004      -25.9018543328       24.0994381680  LPSA12    3               1.0000000000
     12555       399  AKDO      H81           -16.0105537300      -25.1596401749       23.3243828169  LPSA12    3               1.0000000000
     12556       399  AKDO      H82           -15.4177168708      -26.5055796250       24.3137094621  LPSA12    3               1.0000000000
     12557       399  AKDO      O8            -17.3957009502      -26.6943271448       23.5741789121  LPSA12    3               1.0000000000
     12558       399  AKDO      HO8           -17.9176698622      -25.9736931217       23.2182674226  LPSA12    3               1.0000000000
     12559       400  AHEP      C1            -10.1063645372      -23.9542066710       27.2488917859  LPSA12    4               2.0000000000
     12560       400  AHEP      H1             -9.1672798582      -24.4373299041       26.9055972386  LPSA12    4               2.0000000000
     12561       400  AHEP      C5            -10.8344952474      -21.7716873054       27.9986961283  LPSA12    4               2.0000000000
     12562       400  AHEP      H5            -11.8097232494      -22.0087823173       27.5131873757  LPSA12    4               2.0000000000
     12563       400  AHEP      O5             -9.8162692707      -22.5529902918       27.3261197940  LPSA12    4               2.0000000000
     12564       400  AHEP      C2            -10.2731159184      -24.4423477839       28.7005061765  LPSA12    4               2.0000000000
     12565       400  AHEP      H2            -10.5544516227      -25.5145385988       28.6721610505  LPSA12    4               2.0000000000
     12566       400  AHEP      O2             -9.0197509601      -24.3774657315       29.3664844707  LPSA12    4               2.0000000000
     12567       400  AHEP      HO2            -8.8932365798      -25.1575280692       29.8823793328  LPSA12    4               2.0000000000
     12568       400  AHEP      C3            -11.3319376980      -23.6987861636       29.4943127898  LPSA12    4               2.0000000000
     12569       400  AHEP      H3            -12.3552102143      -23.8708033506       29.0949162896  LPSA12    4               2.0000000000
     12570       400  AHEP      O3            -11.2818073579      -24.1141064266       30.8793031624  LPSA12    4               2.0000000000
     12571       400  AHEP      C4            -10.9585695542      -22.2316808861       29.4549073315  LPSA12    4               2.0000000000
     12572       400  AHEP      H4             -9.9921583878      -22.0237937812       29.9704463338  LPSA12    4               2.0000000000
     12573       400  AHEP      O4            -12.0412615408      -21.5358367635       30.0528114681  LPSA12    4               2.0000000000
     12574       400  AHEP      P4            -11.8788234352      -20.6982750145       31.4787124425  LPSA12    4               2.0000000000
     12575       400  AHEP      OP42          -13.2485665978      -20.8493006068       32.1164439112  LPSA12    4               2.0000000000
     12576       400  AHEP      OP43          -11.5333595619      -19.2817060569       31.0393912948  LPSA12    4               2.0000000000
     12577       400  AHEP      OP44          -10.7582635386      -21.3639455960       32.2672828551  LPSA12    4               2.0000000000
     12578       400  AHEP      C6            -10.5269721751      -20.2651024712       27.8026478437  LPSA12    4               2.0000000000
     12579       400  AHEP      H6            -11.4671595899      -19.7183365706       28.0837874678  LPSA12    4               2.0000000000
     12580       400  AHEP      O6             -9.4755587094      -19.7582859576       28.6644223456  LPSA12    4               2.0000000000
     12581       400  AHEP      HO6            -9.8905514038      -19.1204369299       29.2693446153  LPSA12    4               2.0000000000
     12582       400  AHEP      C7            -10.2018868170      -19.8930042555       26.3391673202  LPSA12    4               2.0000000000
     12583       400  AHEP      H71           -10.3105605164      -18.8023043463       26.1768805159  LPSA12    4               2.0000000000
     12584       400  AHEP      H72           -10.9313162346      -20.3752965068       25.6605416559  LPSA12    4               2.0000000000
     12585       400  AHEP      O7             -8.8907263596      -20.2617738152       25.8821571582  LPSA12    4               2.0000000000
     12586       400  AHEP      HO7            -8.3298098969      -19.6679788694       26.3895368313  LPSA12    4               2.0000000000
     12587       401  AHEP      C1            -12.4438444751      -24.6547264626       31.4575634944  LPSA12    5               3.0000000000
     12588       401  AHEP      H1            -13.3562160620      -24.2310000508       30.9747855208  LPSA12    5               3.0000000000
     12589       401  AHEP      C5            -11.2944372997      -26.6611035023       31.9729217974  LPSA12    5               3.0000000000
     12590       401  AHEP      H5            -10.3747941059      -26.1666886047       31.6036498969  LPSA12    5               3.0000000000
     12591       401  AHEP      O5            -12.4151067531      -26.0746619234       31.2773919632  LPSA12    5               3.0000000000
     12592       401  AHEP      C2            -12.5233972045      -24.3594575353       32.9642157003  LPSA12    5               3.0000000000
     12593       401  AHEP      H2            -12.4438825466      -23.2497351239       33.0881906052  LPSA12    5               3.0000000000
     12594       401  AHEP      O2            -13.8125046141      -24.7592628864       33.4731858078  LPSA12    5               3.0000000000
     12595       401  AHEP      HO2           -14.2760061801      -23.9316548550       33.6150726412  LPSA12    5               3.0000000000
     12596       401  AHEP      C3            -11.3483284936      -24.9745144116       33.7326590392  LPSA12    5               3.0000000000
     12597       401  AHEP      H3            -10.4056281216      -24.5510918362       33.3133996390  LPSA12    5               3.0000000000
     12598       401  AHEP      O3            -11.3621230797      -24.7778423280       35.1651383007  LPSA12    5               3.0000000000
     12599       401  AHEP      C4            -11.3643205010      -26.4557978459       33.4746671928  LPSA12    5               3.0000000000
     12600       401  AHEP      H4            -12.3190928575      -26.9091148063       33.8539475982  LPSA12    5               3.0000000000
     12601       401  AHEP      O4            -10.1743583525      -27.0415809120       34.0379094620  LPSA12    5               3.0000000000
     12602       401  AHEP      P4            -10.3280716438      -28.1449458625       35.2945879152  LPSA12    5               3.0000000000
     12603       401  AHEP      OP42           -8.8983062090      -28.4409883899       35.8137835805  LPSA12    5               3.0000000000
     12604       401  AHEP      OP43          -10.7694023965      -29.3973371616       34.5883703195  LPSA12    5               3.0000000000
     12605       401  AHEP      OP44          -11.2574986210      -27.4846003699       36.3172154907  LPSA12    5               3.0000000000
     12606       401  AHEP      C6            -11.1940843371      -28.0922843631       31.5817255110  LPSA12    5               3.0000000000
     12607       401  AHEP      H6            -10.3118140705      -28.5856463368       32.0695681139  LPSA12    5               3.0000000000
     12608       401  AHEP      O6            -12.3439378220      -28.7542982297       32.0421534556  LPSA12    5               3.0000000000
     12609       401  AHEP      HO6           -13.1145233752      -28.7657094585       31.4915821803  LPSA12    5               3.0000000000
     12610       401  AHEP      C7            -11.0160541843      -28.2056452902       30.1084508239  LPSA12    5               3.0000000000
     12611       401  AHEP      H71           -10.1759079777      -28.9089615415       30.0532903924  LPSA12    5               3.0000000000
     12612       401  AHEP      H72           -10.5259585182      -27.3595810902       29.6084750860  LPSA12    5               3.0000000000
     12613       401  AHEP      O7            -12.1950762328      -28.6602522332       29.4230480750  LPSA12    5               3.0000000000
     12614       402  AHEP      C1            -12.8711455703      -27.5864105464       28.8389809042  LPSA12    6               4.0000000000
     12615       402  AHEP      H1            -12.3698956480      -26.6283590819       29.0525347160  LPSA12    6               4.0000000000
     12616       402  AHEP      C5            -13.4875932659      -28.7983166572       27.0047471175  LPSA12    6               4.0000000000
     12617       402  AHEP      H5            -13.3075433215      -29.7541009941       27.5173222030  LPSA12    6               4.0000000000
     12618       402  AHEP      O5            -12.7512437440      -27.6893500430       27.4550821964  LPSA12    6               4.0000000000
     12619       402  AHEP      C2            -14.3286466561      -27.4766112498       29.2469336338  LPSA12    6               4.0000000000
     12620       402  AHEP      H2            -14.3159409958      -27.3877886990       30.3559264209  LPSA12    6               4.0000000000
     12621       402  AHEP      O2            -14.8791659690      -26.3024889240       28.7018315550  LPSA12    6               4.0000000000
     12622       402  AHEP      HO2           -15.0382424073      -25.7147567879       29.4339198861  LPSA12    6               4.0000000000
     12623       402  AHEP      C3            -15.0926977269      -28.7086240562       28.8538940456  LPSA12    6               4.0000000000
     12624       402  AHEP      H3            -14.5235781025      -29.5039587986       29.3517265464  LPSA12    6               4.0000000000
     12625       402  AHEP      O3            -16.4695504387      -28.6869350929       29.3429687759  LPSA12    6               4.0000000000
     12626       402  AHEP      HO3           -16.5678687043      -29.3946587786       29.9709892622  LPSA12    6               4.0000000000
     12627       402  AHEP      C4            -14.9950195685      -28.8297241695       27.3546000029  LPSA12    6               4.0000000000
     12628       402  AHEP      H4            -15.5310655254      -28.0723322622       26.7808773048  LPSA12    6               4.0000000000
     12629       402  AHEP      O4            -15.5804538325      -30.1153914016       27.0668576821  LPSA12    6               4.0000000000
     12630       402  AHEP      HO4           -14.9870390157      -30.8705325746       27.1168954522  LPSA12    6               4.0000000000
     12631       402  AHEP      C6            -13.0576860761      -28.5252564669       25.5155375261  LPSA12    6               4.0000000000
     12632       402  AHEP      H6            -13.9011577633      -29.1214615463       25.4052282551  LPSA12    6               4.0000000000
     12633       402  AHEP      O6            -13.9149215307      -28.1508737048       24.5141416565  LPSA12    6               4.0000000000
     12634       402  AHEP      HO6           -13.3281861791      -27.9678534986       23.7649791163  LPSA12    6               4.0000000000
     12635       402  AHEP      C7            -11.6691584448      -28.7572970989       24.8370049446  LPSA12    6               4.0000000000
     12636       402  AHEP      H71           -11.5368173701      -29.3384501822       23.8717060647  LPSA12    6               4.0000000000
     12637       402  AHEP      H72           -11.0880756929      -29.4428536673       25.3670393234  LPSA12    6               4.0000000000
     12638       402  AHEP      O7            -10.7064382458      -27.8160402265       25.2225682090  LPSA12    6               4.0000000000
     12639       402  AHEP      HO7           -10.7498414333      -27.9776693731       26.1575107060  LPSA12    6               4.0000000000
     12640       403  AGLC      C1            -10.6711067210      -23.6652203170       35.6702670307  LPSA12    7               4.0000000000
     12641       403  AGLC      H1             -9.6967618158      -23.5506260236       35.1662353798  LPSA12    7               4.0000000000
     12642       403  AGLC      C5            -12.6873651217      -22.4597897260       36.0950640187  LPSA12    7               4.0000000000
     12643       403  AGLC      H5            -13.2600703342      -23.3688161483       35.8176498398  LPSA12    7               4.0000000000
     12644       403  AGLC      O5            -11.4146906068      -22.4798361479       35.4351104372  LPSA12    7               4.0000000000
     12645       403  AGLC      C2            -10.4136698741      -23.6913976449       37.1785148447  LPSA12    7               4.0000000000
     12646       403  AGLC      H2             -9.9749078787      -22.6998086822       37.4389628080  LPSA12    7               4.0000000000
     12647       403  AGLC      O2             -9.4492292175      -24.6612185980       37.5881494958  LPSA12    7               4.0000000000
     12648       403  AGLC      HO2            -9.8771371308      -25.5376594262       37.5554061092  LPSA12    7               4.0000000000
     12649       403  AGLC      C3            -11.6943738714      -23.7712960638       37.9713836324  LPSA12    7               4.0000000000
     12650       403  AGLC      H3            -12.2541491633      -24.6600399616       37.6037751420  LPSA12    7               4.0000000000
     12651       403  AGLC      O3            -11.4584901069      -23.9405442424       39.3941581772  LPSA12    7               4.0000000000
     12652       403  AGLC      C4            -12.4782385134      -22.5075536212       37.6082354041  LPSA12    7               4.0000000000
     12653       403  AGLC      H4            -11.8772147389      -21.6113912773       37.9244190916  LPSA12    7               4.0000000000
     12654       403  AGLC      O4            -13.7549693397      -22.4970144372       38.2455168723  LPSA12    7               4.0000000000
     12655       403  AGLC      HO4           -13.9045070557      -21.6607590876       38.6955517311  LPSA12    7               4.0000000000
     12656       403  AGLC      C6            -13.4702113355      -21.2920243022       35.5087369192  LPSA12    7               4.0000000000
     12657       403  AGLC      H61           -13.5378591757      -21.4304107473       34.4039800078  LPSA12    7               4.0000000000
     12658       403  AGLC      H62           -14.5147849122      -21.2295632900       35.8867591978  LPSA12    7               4.0000000000
     12659       403  AGLC      O6            -12.8242573289      -20.0504804256       35.7532298282  LPSA12    7               4.0000000000
     12660       403  AGLC      HO6           -13.2323769589      -19.6291766686       36.4935506045  LPSA12    7               4.0000000000
     12661       404  AGLC      C1            -11.9901659091      -25.1479899923       39.9223876506  LPSA12    8               5.0000000000
     12662       404  AGLC      H1            -13.0070407783      -25.3171004107       39.5070912686  LPSA12    8               5.0000000000
     12663       404  AGLC      C5             -9.8826939287      -26.3746816270       40.2274394015  LPSA12    8               5.0000000000
     12664       404  AGLC      H5             -9.3435339654      -25.4703515553       39.8803374650  LPSA12    8               5.0000000000
     12665       404  AGLC      O5            -11.1927182012      -26.3196181036       39.6198627710  LPSA12    8               5.0000000000
     12666       404  AGLC      C2            -12.1607473165      -25.1124051080       41.4380596230  LPSA12    8               5.0000000000
     12667       404  AGLC      H2            -12.6737562018      -26.0615165444       41.6991232006  LPSA12    8               5.0000000000
     12668       404  AGLC      O2            -12.9781943272      -24.0438549606       41.9424475664  LPSA12    8               5.0000000000
     12669       404  AGLC      C3            -10.8283172477      -25.0892307160       42.1398345986  LPSA12    8               5.0000000000
     12670       404  AGLC      H3            -10.3301600565      -24.1868857418       41.7352485255  LPSA12    8               5.0000000000
     12671       404  AGLC      O3            -11.0056579107      -24.8350183045       43.5490986253  LPSA12    8               5.0000000000
     12672       404  AGLC      C4            -10.0547343820      -26.3402092588       41.7481567617  LPSA12    8               5.0000000000
     12673       404  AGLC      H4            -10.6851461118      -27.2125781641       42.0375721538  LPSA12    8               5.0000000000
     12674       404  AGLC      O4             -8.7870634983      -26.4219411304       42.4262514397  LPSA12    8               5.0000000000
     12675       404  AGLC      HO4            -8.4627122274      -25.5258561195       42.3238512665  LPSA12    8               5.0000000000
     12676       404  AGLC      C6             -9.0079504478      -27.5538820238       39.7403020889  LPSA12    8               5.0000000000
     12677       404  AGLC      H61            -9.0521524172      -27.6594410886       38.6289045787  LPSA12    8               5.0000000000
     12678       404  AGLC      H62            -7.9467542938      -27.3631556662       39.9988797689  LPSA12    8               5.0000000000
     12679       404  AGLC      O6             -9.2988938476      -28.8137520579       40.3466384405  LPSA12    8               5.0000000000
     12680       404  AGLC      HO6            -9.0237990927      -28.8585491668       41.2510825226  LPSA12    8               5.0000000000
     12681       405  AGAL      C1            -14.2791639044      -23.9190527286       41.4257433051  LPSA12    9               6.0000000000
     12682       405  AGAL      H1            -14.2620663404      -23.9439765944       40.3194322687  LPSA12    9               6.0000000000
     12683       405  AGAL      C5            -15.3841849824      -24.9061351568       43.2844947728  LPSA12    9               6.0000000000
     12684       405  AGAL      H5            -14.3693622422      -24.8824303414       43.7482366155  LPSA12    9               6.0000000000
     12685       405  AGAL      O5            -15.1839222309      -24.9574115117       41.8596081430  LPSA12    9               6.0000000000
     12686       405  AGAL      C2            -14.7895899794      -22.5375789101       41.8373807487  LPSA12    9               6.0000000000
     12687       405  AGAL      H2            -15.7920399902      -22.4362011698       41.3699962951  LPSA12    9               6.0000000000
     12688       405  AGAL      O2            -13.9329611106      -21.5615405630       41.1881776833  LPSA12    9               6.0000000000
     12689       405  AGAL      C3            -15.0096688433      -22.4626369748       43.3400719497  LPSA12    9               6.0000000000
     12690       405  AGAL      H3            -14.0518306410      -22.6136079114       43.8908596018  LPSA12    9               6.0000000000
     12691       405  AGAL      O3            -15.4716941118      -21.1832091967       43.7385046061  LPSA12    9               6.0000000000
     12692       405  AGAL      HO3           -14.9738620083      -20.5490587397       43.2076834145  LPSA12    9               6.0000000000
     12693       405  AGAL      C4            -16.0018433261      -23.5731203699       43.6987872471  LPSA12    9               6.0000000000
     12694       405  AGAL      H4            -16.1749420955      -23.5835847039       44.7947068629  LPSA12    9               6.0000000000
     12695       405  AGAL      O4            -17.2659999634      -23.3959205776       43.0719089714  LPSA12    9               6.0000000000
     12696       405  AGAL      HO4           -17.9549108940      -23.7641600277       43.6404460281  LPSA12    9               6.0000000000
     12697       405  AGAL      C6            -16.0387762724      -26.1698498813       43.8537145306  LPSA12    9               6.0000000000
     12698       405  AGAL      H61           -15.4123045622      -27.0517668284       43.6111821806  LPSA12    9               6.0000000000
     12699       405  AGAL      H62           -16.0808955802      -26.0929721189       44.9610286000  LPSA12    9               6.0000000000
     12700       405  AGAL      O6            -17.3639241887      -26.4563139972       43.4174575000  LPSA12    9               6.0000000000
     12701       405  AGAL      HO6           -17.3430803486      -27.0049357492       42.6228601763  LPSA12    9               6.0000000000
     12702       406  AGAL      C1            -13.5148199805      -20.3166899594       41.7351883546  LPSA12    10              7.0000000000
     12703       406  AGAL      H1            -14.3974015699      -19.6451941121       41.8198993387  LPSA12    10              7.0000000000
     12704       406  AGAL      C5            -11.6460591357      -21.1132163299       43.0356598312  LPSA12    10              7.0000000000
     12705       406  AGAL      H5            -11.9111105002      -22.1215882285       42.6430379838  LPSA12    10              7.0000000000
     12706       406  AGAL      O5            -12.8798773028      -20.3779516489       43.0326447102  LPSA12    10              7.0000000000
     12707       406  AGAL      C2            -12.5397538937      -19.6938368031       40.7500164888  LPSA12    10              7.0000000000
     12708       406  AGAL      H2            -12.2762409781      -18.6803564401       41.1269105508  LPSA12    10              7.0000000000
     12709       406  AGAL      O2            -13.1360908051      -19.4347106020       39.4757500209  LPSA12    10              7.0000000000
     12710       406  AGAL      HO2           -12.8839302903      -18.5218081318       39.2870965082  LPSA12    10              7.0000000000
     12711       406  AGAL      C3            -11.2534127988      -20.5195781005       40.6871125762  LPSA12    10              7.0000000000
     12712       406  AGAL      H3            -11.5445825316      -21.5699787223       40.4416594556  LPSA12    10              7.0000000000
     12713       406  AGAL      O3            -10.3573146868      -20.0620043862       39.6640905312  LPSA12    10              7.0000000000
     12714       406  AGAL      HO3           -10.2424539221      -20.7572615329       39.0076934778  LPSA12    10              7.0000000000
     12715       406  AGAL      C4            -10.6255579131      -20.5334565572       42.0717754758  LPSA12    10              7.0000000000
     12716       406  AGAL      H4             -9.7279002915      -21.1917513972       42.0875097225  LPSA12    10              7.0000000000
     12717       406  AGAL      O4            -10.2142132648      -19.2370486844       42.4734511090  LPSA12    10              7.0000000000
     12718       406  AGAL      HO4           -11.0187969902      -18.7370964648       42.6327649201  LPSA12    10              7.0000000000
     12719       406  AGAL      C6            -11.0957707074      -21.4060382509       44.4380436754  LPSA12    10              7.0000000000
     12720       406  AGAL      H61           -11.8780771040      -21.7932502532       45.1116044837  LPSA12    10              7.0000000000
     12721       406  AGAL      H62           -10.4237923130      -22.2560928995       44.2607427502  LPSA12    10              7.0000000000
     12722       406  AGAL      O6            -10.3585380383      -20.3914119650       45.1417423218  LPSA12    10              7.0000000000
     12723       406  AGAL      HO6           -10.8647773197      -20.1141273152       45.9101450131  LPSA12    10              7.0000000000
     12724       407  BGLC      C1            -11.0841084041      -25.8459804172       44.5229161203  LPSA12    11              6.0000000000
     12725       407  BGLC      H1            -10.0960662557      -26.3380618967       44.6232112066  LPSA12    11              6.0000000000
     12726       407  BGLC      C5            -12.1298727407      -27.7955207629       45.2324660012  LPSA12    11              6.0000000000
     12727       407  BGLC      H5            -11.1666345184      -28.3472338807       45.4976711576  LPSA12    11              6.0000000000
     12728       407  BGLC      O5            -12.0025469069      -26.7968716795       44.1958663626  LPSA12    11              6.0000000000
     12729       407  BGLC      C2            -11.5441104257      -25.2562832488       45.8218351209  LPSA12    11              6.0000000000
     12730       407  BGLC      H2            -12.5585517633      -24.8068033159       45.6592448185  LPSA12    11              6.0000000000
     12731       407  BGLC      O2            -10.6285367263      -24.2303351797       46.1852267277  LPSA12    11              6.0000000000
     12732       407  BGLC      HO2           -11.1854007494      -23.4565559674       46.3177182262  LPSA12    11              6.0000000000
     12733       407  BGLC      C3            -11.7124756847      -26.2594589921       46.9439828620  LPSA12    11              6.0000000000
     12734       407  BGLC      H3            -10.7425455411      -26.7445372593       47.1972653988  LPSA12    11              6.0000000000
     12735       407  BGLC      O3            -12.3289634532      -25.6335557122       48.0738211041  LPSA12    11              6.0000000000
     12736       407  BGLC      C4            -12.6922249501      -27.2633971900       46.4897313736  LPSA12    11              6.0000000000
     12737       407  BGLC      H4            -13.6791707594      -26.8261277411       46.2207652726  LPSA12    11              6.0000000000
     12738       407  BGLC      O4            -12.9472823045      -28.2625441895       47.4625289152  LPSA12    11              6.0000000000
     12739       407  BGLC      HO4           -13.5204900063      -27.8840071084       48.1409771124  LPSA12    11              6.0000000000
     12740       407  BGLC      C6            -12.8859611186      -28.6625721394       44.4731471958  LPSA12    11              6.0000000000
     12741       407  BGLC      H61           -13.3285742582      -29.4204477388       45.2331369157  LPSA12    11              6.0000000000
     12742       407  BGLC      H62           -13.8312396823      -28.3561619805       44.0250124453  LPSA12    11              6.0000000000
     12743       407  BGLC      O6            -11.9005481031      -29.0321885229       43.4043759562  LPSA12    11              6.0000000000
     12744       407  BGLC      HO6           -11.8806635427      -30.0178089375       43.3174929345  LPSA12    11              6.0000000000
     12745       408  BGLCNA    C1            -11.7046898072      -25.7421577018       49.3299966551  LPSA12    12              7.0000000000
     12746       408  BGLCNA    H1            -10.9196352163      -24.9676659278       49.3793492171  LPSA12    12              7.0000000000
     12747       408  BGLCNA    C5            -10.5246561879      -27.1100019297       50.8858054035  LPSA12    12              7.0000000000
     12748       408  BGLCNA    H5             -9.7216716798      -26.3719759976       51.0127165278  LPSA12    12              7.0000000000
     12749       408  BGLCNA    O5            -11.1309487004      -27.0197031593       49.5756789929  LPSA12    12              7.0000000000
     12750       408  BGLCNA    C2            -12.7980234002      -25.4841669148       50.3559086158  LPSA12    12              7.0000000000
     12751       408  BGLCNA    H2            -13.5076023468      -26.3501226584       50.2889395245  LPSA12    12              7.0000000000
     12752       408  BGLCNA    N             -13.4338566111      -24.2226604104       50.0606797416  LPSA12    12              7.0000000000
     12753       408  BGLCNA    HN            -12.8158889910      -23.4523571132       49.9624611608  LPSA12    12              7.0000000000
     12754       408  BGLCNA    C             -14.7541021887      -24.1121216970       49.9134161649  LPSA12    12              7.0000000000
     12755       408  BGLCNA    O             -15.5054622178      -25.0615508281       50.0825304938  LPSA12    12              7.0000000000
     12756       408  BGLCNA    CT            -15.2810164068      -22.7547623274       49.5447292794  LPSA12    12              7.0000000000
     12757       408  BGLCNA    HT1           -15.8512543443      -22.3322299318       50.3984968774  LPSA12    12              7.0000000000
     12758       408  BGLCNA    HT2           -15.9869370306      -22.8400658636       48.6945842477  LPSA12    12              7.0000000000
     12759       408  BGLCNA    HT3           -14.4545651096      -22.0824175910       49.2431986465  LPSA12    12              7.0000000000
     12760       408  BGLCNA    C3            -12.2468039530      -25.5003191580       51.7664654664  LPSA12    12              7.0000000000
     12761       408  BGLCNA    H3            -11.4940881764      -24.7318104582       51.8457316514  LPSA12    12              7.0000000000
     12762       408  BGLCNA    O3            -13.2439050443      -25.1418785379       52.7651353811  LPSA12    12              7.0000000000
     12763       408  BGLCNA    C4            -11.5879753539      -26.8553967080       51.9650031601  LPSA12    12              7.0000000000
     12764       408  BGLCNA    H4            -12.3458000411      -27.6618187388       51.8952705797  LPSA12    12              7.0000000000
     12765       408  BGLCNA    O4            -11.0022719679      -26.9146333819       53.2604450820  LPSA12    12              7.0000000000
     12766       408  BGLCNA    HO4           -10.2072375310      -26.3783988348       53.2927797449  LPSA12    12              7.0000000000
     12767       408  BGLCNA    C6             -9.8495811472      -28.4643496076       50.9404093291  LPSA12    12              7.0000000000
     12768       408  BGLCNA    H61            -9.3410538791      -28.6171548676       51.9212019340  LPSA12    12              7.0000000000
     12769       408  BGLCNA    H62           -10.6303862298      -29.2449744618       50.8261019047  LPSA12    12              7.0000000000
     12770       408  BGLCNA    O6             -8.8823530358      -28.6134828589       49.8915926458  LPSA12    12              7.0000000000
     12771       408  BGLCNA    HO6            -8.0399256732      -28.3049352384       50.2298633528  LPSA12    12              7.0000000000
     12772       409  AGAL      C1            -12.7985244448      -24.2998154890       53.8334676000  LPSA12    13              8.0000000000
     12773       409  AGAL      H1            -11.7673766168      -24.6054485448       54.1434632307  LPSA12    13              8.0000000000
     12774       409  AGAL      C5            -14.2052886247      -22.4261067997       53.2740439439  LPSA12    13              8.0000000000
     12775       409  AGAL      H5            -14.6496227468      -23.1432517748       52.5457351432  LPSA12    13              8.0000000000
     12776       409  AGAL      O5            -12.8468334103      -22.8981458874       53.4795211032  LPSA12    13              8.0000000000
     12777       409  AGAL      C2            -13.6462504172      -24.3991270431       55.1004167041  LPSA12    13              8.0000000000
     12778       409  AGAL      H2            -13.2326880403      -23.6253912568       55.7920394175  LPSA12    13              8.0000000000
     12779       409  AGAL      O2            -13.4626997628      -25.6579056925       55.7501724214  LPSA12    13              8.0000000000
     12780       409  AGAL      C3            -15.0866778976      -23.9701549358       54.8941886454  LPSA12    13              8.0000000000
     12781       409  AGAL      H3            -15.5043992650      -24.5255015574       54.0227280638  LPSA12    13              8.0000000000
     12782       409  AGAL      O3            -15.9097865530      -24.2610427423       56.0130623583  LPSA12    13              8.0000000000
     12783       409  AGAL      HO3           -16.7850364901      -24.5215498834       55.7106940997  LPSA12    13              8.0000000000
     12784       409  AGAL      C4            -15.0802050879      -22.5120471987       54.5214592995  LPSA12    13              8.0000000000
     12785       409  AGAL      H4            -16.1179875426      -22.2055110709       54.2362400345  LPSA12    13              8.0000000000
     12786       409  AGAL      O4            -14.6582729981      -21.6638810967       55.6024198262  LPSA12    13              8.0000000000
     12787       409  AGAL      HO4           -13.8497646039      -21.9978256249       55.9856811761  LPSA12    13              8.0000000000
     12788       409  AGAL      C6            -14.3382532863      -21.1010314625       52.5518925982  LPSA12    13              8.0000000000
     12789       409  AGAL      H61           -13.7523067888      -21.1450218743       51.6068407997  LPSA12    13              8.0000000000
     12790       409  AGAL      H62           -15.4158076442      -20.9495830792       52.3055397557  LPSA12    13              8.0000000000
     12791       409  AGAL      O6            -13.9180320963      -19.9789266163       53.3161548536  LPSA12    13              8.0000000000
     12792       409  AGAL      HO6           -14.5971919037      -19.7458695363       53.9657682855  LPSA12    13              8.0000000000
     12793       410  ARHM      C1            -12.8187163134      -25.6321688723       57.0061125077  LPSA12    14              9.0000000000
     12794       410  ARHM      H1            -12.0944861894      -24.7951648150       57.0433736800  LPSA12    14              9.0000000000
     12795       410  ARHM      C5            -12.8245739188      -27.9568909425       57.1656077346  LPSA12    14              9.0000000000
     12796       410  ARHM      H5            -13.3577272292      -28.0465407455       56.1986850128  LPSA12    14              9.0000000000
     12797       410  ARHM      O5            -12.0329960734      -26.7816135171       57.1915658670  LPSA12    14              9.0000000000
     12798       410  ARHM      C2            -13.8352179517      -25.5261241320       58.1248306684  LPSA12    14              9.0000000000
     12799       410  ARHM      H2            -14.4476102690      -24.6196872430       57.9381716184  LPSA12    14              9.0000000000
     12800       410  ARHM      O2            -13.3365939341      -25.5102549289       59.4711281393  LPSA12    14              9.0000000000
     12801       410  ARHM      C3            -14.7115952214      -26.7231066191       58.0955350191  LPSA12    14              9.0000000000
     12802       410  ARHM      H3            -15.0744987829      -26.8242702037       57.0573258086  LPSA12    14              9.0000000000
     12803       410  ARHM      O3            -15.8703596718      -26.5781190777       58.9255589607  LPSA12    14              9.0000000000
     12804       410  ARHM      HO3           -15.6353346099      -26.7613206263       59.8325697523  LPSA12    14              9.0000000000
     12805       410  ARHM      C4            -13.8730371201      -27.9501202077       58.3413491093  LPSA12    14              9.0000000000
     12806       410  ARHM      H4            -13.2998392868      -27.8880453697       59.2944925071  LPSA12    14              9.0000000000
     12807       410  ARHM      O4            -14.7851678781      -29.0453388496       58.4584807564  LPSA12    14              9.0000000000
     12808       410  ARHM      HO4           -14.6812971768      -29.5450163187       59.2695848985  LPSA12    14              9.0000000000
     12809       410  ARHM      C6            -11.6186333357      -28.8596030992       57.2679074223  LPSA12    14              9.0000000000
     12810       410  ARHM      H61           -10.7922268613      -28.8824103983       56.5402130443  LPSA12    14              9.0000000000
     12811       410  ARHM      H62           -11.6018453891      -29.2025318468       58.3214942250  LPSA12    14              9.0000000000
     12812       410  ARHM      H63           -11.6585288652      -29.8225272473       56.7795973808  LPSA12    14              9.0000000000
     12813       411  ARHM      C1            -12.3229769115      -24.5875201631       59.7492793249  LPSA12    15             10.0000000000
     12814       411  ARHM      H1            -12.3970605212      -23.7343963972       59.0430044417  LPSA12    15             10.0000000000
     12815       411  ARHM      C5            -10.7244509456      -26.1772155684       60.6299742761  LPSA12    15             10.0000000000
     12816       411  ARHM      H5            -11.3473664628      -27.0827838253       60.4461535759  LPSA12    15             10.0000000000
     12817       411  ARHM      O5            -10.9951406046      -25.1413996451       59.6672777713  LPSA12    15             10.0000000000
     12818       411  ARHM      C2            -12.5726319918      -24.0512723922       61.1400131106  LPSA12    15             10.0000000000
     12819       411  ARHM      H2            -13.6133078819      -23.6834537278       61.2084862610  LPSA12    15             10.0000000000
     12820       411  ARHM      O2            -11.7053034412      -22.9226596831       61.2972591438  LPSA12    15             10.0000000000
     12821       411  ARHM      C3            -12.3916510322      -25.1598964914       62.1371453186  LPSA12    15             10.0000000000
     12822       411  ARHM      H3            -13.0342121557      -26.0231171189       61.8395859787  LPSA12    15             10.0000000000
     12823       411  ARHM      O3            -12.8627284169      -24.6823758003       63.3985346089  LPSA12    15             10.0000000000
     12824       411  ARHM      C4            -10.9542403078      -25.6217266967       62.0299815032  LPSA12    15             10.0000000000
     12825       411  ARHM      H4            -10.2921462465      -24.7316478529       62.1550662909  LPSA12    15             10.0000000000
     12826       411  ARHM      O4            -10.5738064996      -26.5912932388       62.9965138045  LPSA12    15             10.0000000000
     12827       411  ARHM      HO4            -9.6062631587      -26.6159580951       62.9755611790  LPSA12    15             10.0000000000
     12828       411  ARHM      C6             -9.2676533907      -26.6286789375       60.4335127711  LPSA12    15             10.0000000000
     12829       411  ARHM      H61            -8.9862083613      -27.5122305614       61.0406752560  LPSA12    15             10.0000000000
     12830       411  ARHM      H62            -9.0445935606      -26.7776094497       59.3603427586  LPSA12    15             10.0000000000
     12831       411  ARHM      H63            -8.6173185450      -25.8220756129       60.7618253043  LPSA12    15             10.0000000000
     12832       412  BMANNA    C1            -11.7080371107      -22.1916705273       62.5057710650  LPSA12    16             11.0000000000
     12833       412  BMANNA    H1            -11.2784535812      -22.8261350824       63.3116091674  LPSA12    16             11.0000000000
     12834       412  BMANNA    C5            -12.9537374195      -21.0941104556       64.2093266986  LPSA12    16             11.0000000000
     12835       412  BMANNA    H5            -12.4757688502      -21.7661750189       64.9598040593  LPSA12    16             11.0000000000
     12836       412  BMANNA    O5            -13.0097759728      -21.7561044536       62.9282696675  LPSA12    16             11.0000000000
     12837       412  BMANNA    C2            -10.8081702164      -20.9729659454       62.3073617491  LPSA12    16             11.0000000000
     12838       412  BMANNA    H2             -9.8056219457      -21.3508244198       62.0012945032  LPSA12    16             11.0000000000
     12839       412  BMANNA    N             -11.2448484532      -20.0541913718       61.2629749609  LPSA12    16             11.0000000000
     12840       412  BMANNA    HN            -11.8069259181      -19.2931920037       61.5576402336  LPSA12    16             11.0000000000
     12841       412  BMANNA    C             -10.8207038227      -20.0670668736       59.9934614491  LPSA12    16             11.0000000000
     12842       412  BMANNA    O             -10.0752811349      -20.9082145694       59.5158061946  LPSA12    16             11.0000000000
     12843       412  BMANNA    CT            -11.4036205230      -18.9987177911       59.1166332746  LPSA12    16             11.0000000000
     12844       412  BMANNA    HT1           -10.6625849523      -18.2202295000       58.8693398354  LPSA12    16             11.0000000000
     12845       412  BMANNA    HT2           -12.3126151831      -18.5558918177       59.5646647357  LPSA12    16             11.0000000000
     12846       412  BMANNA    HT3           -11.7374741793      -19.4438544678       58.1784504720  LPSA12    16             11.0000000000
     12847       412  BMANNA    C3            -10.6833131006      -20.2673361649       63.6452708262  LPSA12    16             11.0000000000
     12848       412  BMANNA    H3            -10.2785330001      -20.9833950690       64.3936044865  LPSA12    16             11.0000000000
     12849       412  BMANNA    O3             -9.7710702289      -19.1677761612       63.5665901942  LPSA12    16             11.0000000000
     12850       412  BMANNA    HO3            -9.1648494057      -19.2160494357       64.3161359508  LPSA12    16             11.0000000000
     12851       412  BMANNA    C4            -12.0686584692      -19.8642401547       64.1194882988  LPSA12    16             11.0000000000
     12852       412  BMANNA    H4            -12.4841572131      -19.2002361623       63.3391712980  LPSA12    16             11.0000000000
     12853       412  BMANNA    O4            -12.0628521948      -19.1795667342       65.3747184450  LPSA12    16             11.0000000000
     12854       412  BMANNA    HO4           -12.8624284996      -18.6501191173       65.4440436871  LPSA12    16             11.0000000000
     12855       412  BMANNA    C6            -14.3360283481      -20.7944699390       64.7736983383  LPSA12    16             11.0000000000
     12856       412  BMANNA    H61           -14.2699599665      -20.7318290852       65.8849347329  LPSA12    16             11.0000000000
     12857       412  BMANNA    H62           -14.6934537464      -19.8468472986       64.3683698455  LPSA12    16             11.0000000000
     12858       412  BMANNA    O6            -15.3771336980      -21.6822968490       64.4094254210  LPSA12    16             11.0000000000
     12859       412  BMANNA    HO6           -16.0007724412      -21.1549577387       63.8915003229  LPSA12    16             11.0000000000
     12860       413  BGLCNA    C1            -13.5682142137      -25.6307766054       64.1400848953  LPSA12    17             11.0000000000
     12861       413  BGLCNA    H1            -13.1012093591      -26.6274841267       63.9826814870  LPSA12    17             11.0000000000
     12862       413  BGLCNA    C5            -15.7016748060      -26.6268372031       64.5612138809  LPSA12    17             11.0000000000
     12863       413  BGLCNA    H5            -15.3111707398      -27.6580788085       64.3601541108  LPSA12    17             11.0000000000
     12864       413  BGLCNA    O5            -14.9518133823      -25.6847438288       63.7739621998  LPSA12    17             11.0000000000
     12865       413  BGLCNA    C2            -13.4081842844      -25.1702546739       65.5739536478  LPSA12    17             11.0000000000
     12866       413  BGLCNA    H2            -13.9168353262      -24.1877322911       65.7453646743  LPSA12    17             11.0000000000
     12867       413  BGLCNA    N             -12.0069802024      -24.9660585948       65.8663994995  LPSA12    17             11.0000000000
     12868       413  BGLCNA    HN            -11.3658073396      -25.5253511148       65.3589707115  LPSA12    17             11.0000000000
     12869       413  BGLCNA    C             -11.5039252396      -24.1581866538       66.7967807576  LPSA12    17             11.0000000000
     12870       413  BGLCNA    O             -12.1638776324      -23.3932138489       67.4824101296  LPSA12    17             11.0000000000
     12871       413  BGLCNA    CT            -10.0251723669      -24.3306023202       66.9989483163  LPSA12    17             11.0000000000
     12872       413  BGLCNA    HT1            -9.4126809969      -23.5374118990       66.5242530806  LPSA12    17             11.0000000000
     12873       413  BGLCNA    HT2            -9.7151324011      -25.3326987389       66.6425003943  LPSA12    17             11.0000000000
     12874       413  BGLCNA    HT3            -9.8154232932      -24.3444346941       68.0748697179  LPSA12    17             11.0000000000
     12875       413  BGLCNA    C3            -14.0766323482      -26.2235164898       66.4313645353  LPSA12    17             11.0000000000
     12876       413  BGLCNA    H3            -13.6319950147      -27.1932948173       66.0990684324  LPSA12    17             11.0000000000
     12877       413  BGLCNA    O3            -13.7395865643      -26.0193638474       67.8307066871  LPSA12    17             11.0000000000
     12878       413  BGLCNA    C4            -15.5522362421      -26.2456862809       66.0432659461  LPSA12    17             11.0000000000
     12879       413  BGLCNA    H4            -15.9718006682      -25.2149214593       66.1351546061  LPSA12    17             11.0000000000
     12880       413  BGLCNA    O4            -16.3097723613      -27.0978280297       66.8958935023  LPSA12    17             11.0000000000
     12881       413  BGLCNA    HO4           -17.2356359224      -27.0764086711       66.6690793570  LPSA12    17             11.0000000000
     12882       413  BGLCNA    C6            -17.1647923577      -26.5919741597       64.1234244245  LPSA12    17             11.0000000000
     12883       413  BGLCNA    H61           -17.5697711974      -27.5996342301       64.1673440646  LPSA12    17             11.0000000000
     12884       413  BGLCNA    H62           -17.7703127923      -25.9651040365       64.8109672486  LPSA12    17             11.0000000000
     12885       413  BGLCNA    O6            -17.4138329779      -26.1444477321       62.7989284500  LPSA12    17             11.0000000000
     12886       413  BGLCNA    HO6           -16.8854027298      -26.6558628182       62.1729181728  LPSA12    17             11.0000000000
     12887       414  AGAL      C1            -13.5952109953      -27.1896787222       68.6275510348  LPSA12    18             12.0000000000
     12888       414  AGAL      H1            -14.5991487476      -27.6323903093       68.8092925579  LPSA12    18             12.0000000000
     12889       414  AGAL      C5            -11.4252471866      -27.7727163268       67.8612207714  LPSA12    18             12.0000000000
     12890       414  AGAL      H5            -11.4154835223      -26.7656762407       67.4052378045  LPSA12    18             12.0000000000
     12891       414  AGAL      O5            -12.7876865343      -28.1810022598       67.9940345823  LPSA12    18             12.0000000000
     12892       414  AGAL      C2            -12.9330983582      -26.9399221856       69.9754215950  LPSA12    18             12.0000000000
     12893       414  AGAL      H2            -12.8648694452      -27.9722699102       70.4000488278  LPSA12    18             12.0000000000
     12894       414  AGAL      O2            -13.7607123309      -26.1968663302       70.8740383437  LPSA12    18             12.0000000000
     12895       414  AGAL      C3            -11.4896649217      -26.4428092209       69.8448155067  LPSA12    18             12.0000000000
     12896       414  AGAL      H3            -11.4883651884      -25.5602468119       69.1652498748  LPSA12    18             12.0000000000
     12897       414  AGAL      O3            -10.9177120420      -26.0010694668       71.0789039486  LPSA12    18             12.0000000000
     12898       414  AGAL      HO3           -10.4783994292      -25.1543218774       70.9658734099  LPSA12    18             12.0000000000
     12899       414  AGAL      C4            -10.6818185849      -27.5391136947       69.1707735613  LPSA12    18             12.0000000000
     12900       414  AGAL      H4             -9.6488097147      -27.1922367962       68.9322711757  LPSA12    18             12.0000000000
     12901       414  AGAL      O4            -10.5592906079      -28.7061400988       69.9702011810  LPSA12    18             12.0000000000
     12902       414  AGAL      HO4            -9.9639557365      -28.5158805541       70.7031368139  LPSA12    18             12.0000000000
     12903       414  AGAL      C6            -10.8258029947      -28.5849280251       66.7632037147  LPSA12    18             12.0000000000
     12904       414  AGAL      H61           -11.3676775876      -28.3752642109       65.8182152380  LPSA12    18             12.0000000000
     12905       414  AGAL      H62            -9.8181099423      -28.2677696640       66.6155616318  LPSA12    18             12.0000000000
     12906       414  AGAL      O6            -10.7390075246      -29.9695902319       66.9818647460  LPSA12    18             12.0000000000
     12907       414  AGAL      HO6           -11.3788999528      -30.2172255292       67.6714020784  LPSA12    18             12.0000000000
     12908       415  ARHM      C1            -13.6894666823      -26.7492895115       72.1678844226  LPSA12    19             13.0000000000
     12909       415  ARHM      H1            -12.7047520879      -27.2351744040       72.3492353065  LPSA12    19             13.0000000000
     12910       415  ARHM      C5            -15.9990863253      -27.3149368241       72.2477576436  LPSA12    19             13.0000000000
     12911       415  ARHM      H5            -16.0632889989      -26.9011201791       71.2136623092  LPSA12    19             13.0000000000
     12912       415  ARHM      O5            -14.6581038500      -27.7754348202       72.4235953764  LPSA12    19             13.0000000000
     12913       415  ARHM      C2            -13.9250358491      -25.6126015235       73.1142551798  LPSA12    19             13.0000000000
     12914       415  ARHM      H2            -13.2490760311      -24.7544695880       72.8693515662  LPSA12    19             13.0000000000
     12915       415  ARHM      O2            -13.6451606002      -26.0487285696       74.4527550197  LPSA12    19             13.0000000000
     12916       415  ARHM      C3            -15.3336109610      -25.0937600368       72.9645185046  LPSA12    19             13.0000000000
     12917       415  ARHM      H3            -15.4973657806      -24.7790079121       71.9036661120  LPSA12    19             13.0000000000
     12918       415  ARHM      O3            -15.5383636442      -23.9593222871       73.7977425391  LPSA12    19             13.0000000000
     12919       415  ARHM      HO3           -15.2665866382      -24.2237763984       74.6773660924  LPSA12    19             13.0000000000
     12920       415  ARHM      C4            -16.3014001570      -26.2108026712       73.2445565969  LPSA12    19             13.0000000000
     12921       415  ARHM      H4            -16.1361154153      -26.5842605468       74.2829405189  LPSA12    19             13.0000000000
     12922       415  ARHM      O4            -17.6524139271      -25.7789542695       73.1621540526  LPSA12    19             13.0000000000
     12923       415  ARHM      HO4           -17.8669006989      -25.5991107950       72.2372932469  LPSA12    19             13.0000000000
     12924       415  ARHM      C6            -16.9603215223      -28.5132041774       72.2785758838  LPSA12    19             13.0000000000
     12925       415  ARHM      H61           -16.6098139873      -29.2035752438       71.4817800664  LPSA12    19             13.0000000000
     12926       415  ARHM      H62           -16.9583472291      -29.0566511564       73.2449885506  LPSA12    19             13.0000000000
     12927       415  ARHM      H63           -18.0022539355      -28.1903254744       72.0636907390  LPSA12    19             13.0000000000
     12928       416  ARHM      C1            -12.2540261469      -26.1354903642       74.6881075216  LPSA12    20             14.0000000000
     12929       416  ARHM      H1            -11.6659293641      -25.7066011875       73.8495458557  LPSA12    20             14.0000000000
     12930       416  ARHM      C5            -12.1906942963      -28.1173864921       75.9565192597  LPSA12    20             14.0000000000
     12931       416  ARHM      H5            -13.3041632082      -28.1414453344       75.7863358009  LPSA12    20             14.0000000000
     12932       416  ARHM      O5            -11.6941157083      -27.4415503111       74.8289266024  LPSA12    20             14.0000000000
     12933       416  ARHM      C2            -11.9766311349      -25.3623477830       75.9433758578  LPSA12    20             14.0000000000
     12934       416  ARHM      H2            -12.4239955591      -24.3423754801       75.8478884882  LPSA12    20             14.0000000000
     12935       416  ARHM      O2            -10.5649766184      -25.2843914775       76.1602573717  LPSA12    20             14.0000000000
     12936       416  ARHM      C3            -12.5975003508      -26.0218278967       77.1204486612  LPSA12    20             14.0000000000
     12937       416  ARHM      H3            -13.7027084775      -26.0940055398       76.9599335868  LPSA12    20             14.0000000000
     12938       416  ARHM      O3            -12.3089057517      -25.2036443901       78.2572836484  LPSA12    20             14.0000000000
     12939       416  ARHM      C4            -11.9758292621      -27.3748732017       77.2474441514  LPSA12    20             14.0000000000
     12940       416  ARHM      H4            -10.8804796283      -27.3986866172       77.3621161684  LPSA12    20             14.0000000000
     12941       416  ARHM      O4            -12.5474883002      -28.0242231784       78.3761207051  LPSA12    20             14.0000000000
     12942       416  ARHM      HO4           -12.6708011771      -28.9410278441       78.1563598667  LPSA12    20             14.0000000000
     12943       416  ARHM      C6            -11.2989602031      -29.4345710404       75.9527396457  LPSA12    20             14.0000000000
     12944       416  ARHM      H61           -10.2674515355      -29.6264579390       76.1661144854  LPSA12    20             14.0000000000
     12945       416  ARHM      H62           -11.6027788898      -30.0495315397       76.8389216584  LPSA12    20             14.0000000000
     12946       416  ARHM      H63           -11.5044278073      -29.9902813195       74.9941210254  LPSA12    20             14.0000000000
     12947       417  BMANNA    C1            -10.0256554609      -24.2517062316       75.4053028491  LPSA12    21             15.0000000000
     12948       417  BMANNA    H1            -10.8035543351      -23.8506741171       74.7153687287  LPSA12    21             15.0000000000
     12949       417  BMANNA    C5             -8.6076592609      -23.5861806824       73.6561308569  LPSA12    21             15.0000000000
     12950       417  BMANNA    H5             -9.4985861177      -23.2036633498       73.0903817933  LPSA12    21             15.0000000000
     12951       417  BMANNA    O5             -8.9997805964      -24.6853651072       74.5165111323  LPSA12    21             15.0000000000
     12952       417  BMANNA    C2             -9.5532715384      -23.1588967858       76.3447195295  LPSA12    21             15.0000000000
     12953       417  BMANNA    H2            -10.4634668249      -22.8492829471       76.9245261035  LPSA12    21             15.0000000000
     12954       417  BMANNA    N              -8.5103324703      -23.5630015097       77.2846427004  LPSA12    21             15.0000000000
     12955       417  BMANNA    HN             -7.7886410647      -24.1093306755       76.8871344523  LPSA12    21             15.0000000000
     12956       417  BMANNA    C              -8.4270551195      -23.1630939286       78.5797091582  LPSA12    21             15.0000000000
     12957       417  BMANNA    O              -9.1152128944      -22.2667605804       79.0383117074  LPSA12    21             15.0000000000
     12958       417  BMANNA    CT             -7.4371787597      -23.8636120917       79.4821237708  LPSA12    21             15.0000000000
     12959       417  BMANNA    HT1            -6.4111409988      -23.4805622773       79.2937360427  LPSA12    21             15.0000000000
     12960       417  BMANNA    HT2            -7.5201010003      -24.9584903573       79.3386746564  LPSA12    21             15.0000000000
     12961       417  BMANNA    HT3            -7.6747360840      -23.6658183734       80.5500455530  LPSA12    21             15.0000000000
     12962       417  BMANNA    C3             -9.1421811500      -22.0162528647       75.4636200682  LPSA12    21             15.0000000000
     12963       417  BMANNA    H3            -10.0698014216      -21.7104052535       74.9226881220  LPSA12    21             15.0000000000
     12964       417  BMANNA    O3             -8.7420339724      -20.8982282661       76.2218208691  LPSA12    21             15.0000000000
     12965       417  BMANNA    HO3            -7.9985732962      -21.1246484284       76.7958425382  LPSA12    21             15.0000000000
     12966       417  BMANNA    C4             -8.0739536006      -22.4367044823       74.4721384841  LPSA12    21             15.0000000000
     12967       417  BMANNA    H4             -7.1482308461      -22.7712340126       75.0053578103  LPSA12    21             15.0000000000
     12968       417  BMANNA    O4             -7.6887753953      -21.3837769249       73.5958973293  LPSA12    21             15.0000000000
     12969       417  BMANNA    HO4            -6.7616802537      -21.1879847142       73.7752011456  LPSA12    21             15.0000000000
     12970       417  BMANNA    C6             -7.6098046344      -24.0327900547       72.6222447532  LPSA12    21             15.0000000000
     12971       417  BMANNA    H61            -7.5467771536      -23.2628812894       71.8171620848  LPSA12    21             15.0000000000
     12972       417  BMANNA    H62            -6.6014836045      -24.0936994985       73.0813105082  LPSA12    21             15.0000000000
     12973       417  BMANNA    O6             -7.9683594204      -25.2963582087       72.0678170123  LPSA12    21             15.0000000000
     12974       417  BMANNA    HO6            -7.9153251135      -25.9668350063       72.7701384169  LPSA12    21             15.0000000000
     12975       418  BGLCNA    C1            -13.3101416553      -25.1228531047       79.2302335392  LPSA12    22             15.0000000000
     12976       418  BGLCNA    H1            -13.9476600932      -26.0087345619       79.1769438944  LPSA12    22             15.0000000000
     12977       418  BGLCNA    C5            -15.1226276431      -23.8631393107       80.1063543668  LPSA12    22             15.0000000000
     12978       418  BGLCNA    H5            -15.7363142868      -24.8015255328       80.1101437761  LPSA12    22             15.0000000000
     12979       418  BGLCNA    O5            -14.1312051203      -23.9631739781       79.0665770175  LPSA12    22             15.0000000000
     12980       418  BGLCNA    C2            -12.5812063168      -25.0336344022       80.5491337787  LPSA12    22             15.0000000000
     12981       418  BGLCNA    H2            -11.9452327869      -24.1114293249       80.5011587951  LPSA12    22             15.0000000000
     12982       418  BGLCNA    N             -11.7469867666      -26.2050127951       80.7300197810  LPSA12    22             15.0000000000
     12983       418  BGLCNA    HN            -12.1269504081      -27.0579816405       80.3894352244  LPSA12    22             15.0000000000
     12984       418  BGLCNA    C             -10.5815809578      -26.2007089113       81.3701192390  LPSA12    22             15.0000000000
     12985       418  BGLCNA    O             -10.0686503322      -25.2046355122       81.8524442093  LPSA12    22             15.0000000000
     12986       418  BGLCNA    CT             -9.8974344955      -27.5252232990       81.4172302142  LPSA12    22             15.0000000000
     12987       418  BGLCNA    HT1            -9.2046950764      -27.4721750432       80.5599503845  LPSA12    22             15.0000000000
     12988       418  BGLCNA    HT2           -10.6288710381      -28.3457239233       81.2806404075  LPSA12    22             15.0000000000
     12989       418  BGLCNA    HT3            -9.3440816442      -27.6715000961       82.3685239694  LPSA12    22             15.0000000000
     12990       418  BGLCNA    C3            -13.5639350312      -24.9009404443       81.6926733955  LPSA12    22             15.0000000000
     12991       418  BGLCNA    H3            -14.2330583520      -25.7602102991       81.7310404402  LPSA12    22             15.0000000000
     12992       418  BGLCNA    O3            -12.8158388734      -24.9264612110       82.9091919052  LPSA12    22             15.0000000000
     12993       418  BGLCNA    C4            -14.4278126719      -23.7015854633       81.4563223209  LPSA12    22             15.0000000000
     12994       418  BGLCNA    H4            -13.7725233610      -22.8039713559       81.4160255950  LPSA12    22             15.0000000000
     12995       418  BGLCNA    O4            -15.3848802355      -23.5191778704       82.4930401566  LPSA12    22             15.0000000000
     12996       418  BGLCNA    HO4           -15.3928541313      -22.5876431437       82.7192367411  LPSA12    22             15.0000000000
     12997       418  BGLCNA    C6            -16.0105061659      -22.6945450580       79.7774823765  LPSA12    22             15.0000000000
     12998       418  BGLCNA    H61           -16.5693056520      -22.3934769639       80.6856134924  LPSA12    22             15.0000000000
     12999       418  BGLCNA    H62           -15.4052528236      -21.8187960758       79.4428712205  LPSA12    22             15.0000000000
     13000       418  BGLCNA    O6            -16.9927820581      -23.0509694302       78.8101711750  LPSA12    22             15.0000000000
     13001       418  BGLCNA    HO6           -16.5765030655      -23.2931343947       77.9821740547  LPSA12    22             15.0000000000
     13002       419  AGAL      C1            -13.4579161684      -25.2872818009       84.1028427380  LPSA12    23             16.0000000000
     13003       419  AGAL      H1            -14.0630155424      -24.4268443084       84.4561334196  LPSA12    23             16.0000000000
     13004       419  AGAL      C5            -13.6159356852      -27.6570467745       83.7226141599  LPSA12    23             16.0000000000
     13005       419  AGAL      H5            -12.9949882369      -27.5085123455       82.8104955943  LPSA12    23             16.0000000000
     13006       419  AGAL      O5            -14.3288784665      -26.4276590726       83.9919429659  LPSA12    23             16.0000000000
     13007       419  AGAL      C2            -12.4365382887      -25.5491578368       85.1849089436  LPSA12    23             16.0000000000
     13008       419  AGAL      H2            -13.0182610424      -25.7664860598       86.1062711717  LPSA12    23             16.0000000000
     13009       419  AGAL      O2            -11.6041328545      -24.3949225088       85.4315987733  LPSA12    23             16.0000000000
     13010       419  AGAL      C3            -11.6600558871      -26.8221025446       84.8769033207  LPSA12    23             16.0000000000
     13011       419  AGAL      H3            -11.2247075515      -26.7388331265       83.8598476353  LPSA12    23             16.0000000000
     13012       419  AGAL      O3            -10.5546074339      -27.0211782827       85.7453590597  LPSA12    23             16.0000000000
     13013       419  AGAL      HO3           -10.8282723573      -26.8490521834       86.6468415975  LPSA12    23             16.0000000000
     13014       419  AGAL      C4            -12.6328081323      -27.9905116528       84.8531443488  LPSA12    23             16.0000000000
     13015       419  AGAL      H4            -12.1089696206      -28.9439546128       84.6240133756  LPSA12    23             16.0000000000
     13016       419  AGAL      O4            -13.3047880775      -28.1674832989       86.0940748597  LPSA12    23             16.0000000000
     13017       419  AGAL      HO4           -14.1582002549      -28.5648649768       85.8426410216  LPSA12    23             16.0000000000
     13018       419  AGAL      C6            -14.6222917769      -28.7303840384       83.3420594197  LPSA12    23             16.0000000000
     13019       419  AGAL      H61           -15.3433293182      -28.3083497982       82.6196870434  LPSA12    23             16.0000000000
     13020       419  AGAL      H62           -14.1189254324      -29.5760632101       82.8172931600  LPSA12    23             16.0000000000
     13021       419  AGAL      O6            -15.3747302941      -29.2082947564       84.4545140589  LPSA12    23             16.0000000000
     13022       419  AGAL      HO6           -16.0779725384      -29.8057053006       84.1638835861  LPSA12    23             16.0000000000
     13023       420  ARHM      C1            -12.0951560180      -23.3782081378       86.2854170123  LPSA12    24             17.0000000000
     13024       420  ARHM      H1            -13.1999147415      -23.4832907897       86.3856743447  LPSA12    24             17.0000000000
     13025       420  ARHM      C5            -10.4820780258      -21.7364742425       85.6336902016  LPSA12    24             17.0000000000
     13026       420  ARHM      H5            -10.0575928474      -22.4981515495       84.9420715066  LPSA12    24             17.0000000000
     13027       420  ARHM      O5            -11.8777310409      -22.0320134694       85.8161861151  LPSA12    24             17.0000000000
     13028       420  ARHM      C2            -11.3980138073      -23.5788481348       87.6023298409  LPSA12    24             17.0000000000
     13029       420  ARHM      H2            -11.5078133321      -24.6418187693       87.9234586580  LPSA12    24             17.0000000000
     13030       420  ARHM      O2            -11.9106255622      -22.6918651113       88.6064914457  LPSA12    24             17.0000000000
     13031       420  ARHM      C3             -9.9289381108      -23.3045928898       87.4258237261  LPSA12    24             17.0000000000
     13032       420  ARHM      H3             -9.5504901356      -23.9944097835       86.6312246099  LPSA12    24             17.0000000000
     13033       420  ARHM      O3             -9.2043777054      -23.6176577669       88.6096695813  LPSA12    24             17.0000000000
     13034       420  ARHM      HO3            -9.1515106646      -22.8412056743       89.1666188489  LPSA12    24             17.0000000000
     13035       420  ARHM      C4             -9.7532771776      -21.8680943805       86.9613594588  LPSA12    24             17.0000000000
     13036       420  ARHM      H4            -10.2266586600      -21.1728751116       87.6969795153  LPSA12    24             17.0000000000
     13037       420  ARHM      O4             -8.3817867303      -21.5159324448       86.8369582565  LPSA12    24             17.0000000000
     13038       420  ARHM      HO4            -8.2360482888      -20.5849115486       87.0210972147  LPSA12    24             17.0000000000
     13039       420  ARHM      C6            -10.3033935069      -20.3689159930       84.9412802444  LPSA12    24             17.0000000000
     13040       420  ARHM      H61            -9.3208332262      -20.3352893702       84.4164944369  LPSA12    24             17.0000000000
     13041       420  ARHM      H62           -11.1032597361      -20.2012267482       84.1986543183  LPSA12    24             17.0000000000
     13042       420  ARHM      H63           -10.3638208216      -19.5478386518       85.6812890108  LPSA12    24             17.0000000000
     13043       421  ARHM      C1            -13.1456118195      -23.0531664191       89.1462896064  LPSA12    25             18.0000000000
     13044       421  ARHM      H1            -13.6314356768      -23.7851821453       88.4658835179  LPSA12    25             18.0000000000
     13045       421  ARHM      C5            -13.6534092921      -20.9724562121       90.2001646080  LPSA12    25             18.0000000000
     13046       421  ARHM      H5            -12.6784508792      -20.5549093781       89.8546019567  LPSA12    25             18.0000000000
     13047       421  ARHM      O5            -14.0864672773      -21.9720803491       89.2616748914  LPSA12    25             18.0000000000
     13048       421  ARHM      C2            -12.9055224014      -23.7205655287       90.4630286332  LPSA12    25             18.0000000000
     13049       421  ARHM      H2            -12.0767213219      -24.4666153056       90.3615811670  LPSA12    25             18.0000000000
     13050       421  ARHM      O2            -14.1019947255      -24.3793504581       90.8936492205  LPSA12    25             18.0000000000
     13051       421  ARHM      C3            -12.4397100692      -22.6909390273       91.4536583399  LPSA12    25             18.0000000000
     13052       421  ARHM      H3            -11.4925787718      -22.2184209777       91.0847001031  LPSA12    25             18.0000000000
     13053       421  ARHM      O3            -12.2420392554      -23.3570454130       92.7010794024  LPSA12    25             18.0000000000
     13054       421  ARHM      C4            -13.4576075780      -21.5993061020       91.5728752881  LPSA12    25             18.0000000000
     13055       421  ARHM      H4            -14.4434832235      -22.0045611956       91.9040145293  LPSA12    25             18.0000000000
     13056       421  ARHM      O4            -13.0227708874      -20.6495408625       92.5349139009  LPSA12    25             18.0000000000
     13057       421  ARHM      HO4           -13.7721620660      -20.3493876133       93.0523177243  LPSA12    25             18.0000000000
     13058       421  ARHM      C6            -14.6627873061      -19.8087344967       90.2196057286  LPSA12    25             18.0000000000
     13059       421  ARHM      H61           -14.8711774894      -19.4678547282       89.1906030103  LPSA12    25             18.0000000000
     13060       421  ARHM      H62           -15.6233017651      -20.1043343815       90.6782067684  LPSA12    25             18.0000000000
     13061       421  ARHM      H63           -14.2257035471      -18.9622007594       90.7883988126  LPSA12    25             18.0000000000
     13062       422  BMANNA    C1            -14.3379367221      -25.6144457851       90.2736530763  LPSA12    26             19.0000000000
     13063       422  BMANNA    H1            -13.3991351926      -26.0409282357       89.8523289169  LPSA12    26             19.0000000000
     13064       422  BMANNA    C5            -15.4826157997      -26.8363445958       88.5841822018  LPSA12    26             19.0000000000
     13065       422  BMANNA    H5            -14.5016832015      -27.1669323489       88.1715915833  LPSA12    26             19.0000000000
     13066       422  BMANNA    O5            -15.3027738959      -25.5536757297       89.2118625364  LPSA12    26             19.0000000000
     13067       422  BMANNA    C2            -14.8347986608      -26.5261674187       91.3504341428  LPSA12    26             19.0000000000
     13068       422  BMANNA    H2            -14.0255167989      -26.5601230929       92.1296831513  LPSA12    26             19.0000000000
     13069       422  BMANNA    N             -16.0902466887      -26.0323400099       91.9286932152  LPSA12    26             19.0000000000
     13070       422  BMANNA    HN            -16.8223562653      -25.8205074996       91.2940803124  LPSA12    26             19.0000000000
     13071       422  BMANNA    C             -16.3074689714      -25.8580936553       93.2383345498  LPSA12    26             19.0000000000
     13072       422  BMANNA    O             -15.3889963970      -25.9448559315       94.0336641973  LPSA12    26             19.0000000000
     13073       422  BMANNA    CT            -17.7339919529      -25.5729134738       93.6580297743  LPSA12    26             19.0000000000
     13074       422  BMANNA    HT1           -18.2818404014      -25.0701996557       92.8370024576  LPSA12    26             19.0000000000
     13075       422  BMANNA    HT2           -17.8121273641      -24.9943218521       94.6022727716  LPSA12    26             19.0000000000
     13076       422  BMANNA    HT3           -18.2003874563      -26.5581876400       93.8542419278  LPSA12    26             19.0000000000
     13077       422  BMANNA    C3            -14.9462746844      -27.9020267791       90.7375918465  LPSA12    26             19.0000000000
     13078       422  BMANNA    H3            -13.9585188255      -28.2209908596       90.3252301162  LPSA12    26             19.0000000000
     13079       422  BMANNA    O3            -15.2881805467      -28.8491552189       91.7216974248  LPSA12    26             19.0000000000
     13080       422  BMANNA    HO3           -14.5229443227      -29.0200160313       92.2877437278  LPSA12    26             19.0000000000
     13081       422  BMANNA    C4            -15.9496586593      -27.8549126973       89.6106251858  LPSA12    26             19.0000000000
     13082       422  BMANNA    H4            -16.9415221048      -27.5371329227       89.9858325146  LPSA12    26             19.0000000000
     13083       422  BMANNA    O4            -16.1229845841      -29.1174248040       88.9929576834  LPSA12    26             19.0000000000
     13084       422  BMANNA    HO4           -16.6764726409      -29.7016773492       89.5384528367  LPSA12    26             19.0000000000
     13085       422  BMANNA    C6            -16.4172347732      -26.6346825384       87.3987736629  LPSA12    26             19.0000000000
     13086       422  BMANNA    H61           -16.1741413604      -25.6635361879       86.9127363160  LPSA12    26             19.0000000000
     13087       422  BMANNA    H62           -16.2570081512      -27.4318468427       86.6367564763  LPSA12    26             19.0000000000
     13088       422  BMANNA    O6            -17.7977646578      -26.6362471859       87.7723557743  LPSA12    26             19.0000000000
     13089       422  BMANNA    HO6           -17.9865589826      -27.4927115657       88.1609562336  LPSA12    26             19.0000000000
     13090       423  BGLCNA    C1            -11.1401904404      -22.9693601189       93.4708469082  LPSA12    27             19.0000000000
     13091       423  BGLCNA    H1            -10.9441777233      -21.8742674917       93.4271779839  LPSA12    27             19.0000000000
     13092       423  BGLCNA    C5             -8.8543273600      -23.3254190000       93.9096651627  LPSA12    27             19.0000000000
     13093       423  BGLCNA    H5             -8.7559331249      -22.2139577499       93.9395694512  LPSA12    27             19.0000000000
     13094       423  BGLCNA    O5             -9.9600526732      -23.6593072223       93.0618824633  LPSA12    27             19.0000000000
     13095       423  BGLCNA    C2            -11.5290575024      -23.4033752548       94.8690988802  LPSA12    27             19.0000000000
     13096       423  BGLCNA    H2            -11.6509342616      -24.5175045288       94.8374681408  LPSA12    27             19.0000000000
     13097       423  BGLCNA    N             -12.7923644896      -22.8131279297       95.3032367985  LPSA12    27             19.0000000000
     13098       423  BGLCNA    HN            -12.9255838995      -21.8596550182       95.0588762656  LPSA12    27             19.0000000000
     13099       423  BGLCNA    C             -13.7136368624      -23.5506747152       95.9696603148  LPSA12    27             19.0000000000
     13100       423  BGLCNA    O             -13.4186244144      -24.6048726207       96.5155396374  LPSA12    27             19.0000000000
     13101       423  BGLCNA    CT            -15.1317662059      -23.0256433195       96.0199528396  LPSA12    27             19.0000000000
     13102       423  BGLCNA    HT1           -15.2400976565      -22.1378105837       95.3693669643  LPSA12    27             19.0000000000
     13103       423  BGLCNA    HT2           -15.4324640232      -22.7799896174       97.0571821214  LPSA12    27             19.0000000000
     13104       423  BGLCNA    HT3           -15.8126771452      -23.8336833496       95.6711016910  LPSA12    27             19.0000000000
     13105       423  BGLCNA    C3            -10.4140686230      -23.1024318671       95.8205161591  LPSA12    27             19.0000000000
     13106       423  BGLCNA    H3            -10.2258649742      -22.0013522091       95.7718770953  LPSA12    27             19.0000000000
     13107       423  BGLCNA    O3            -10.9016434122      -23.4746679822       97.1316558721  LPSA12    27             19.0000000000
     13108       423  BGLCNA    C4             -9.1652713725      -23.8042409014       95.3257519739  LPSA12    27             19.0000000000
     13109       423  BGLCNA    H4             -9.3148183310      -24.9098563380       95.3178277986  LPSA12    27             19.0000000000
     13110       423  BGLCNA    O4             -8.0554749468      -23.5272141507       96.1466869726  LPSA12    27             19.0000000000
     13111       423  BGLCNA    HO4            -7.8577823517      -22.5979134211       96.0720787777  LPSA12    27             19.0000000000
     13112       423  BGLCNA    C6             -7.5490858121      -23.7910852219       93.3109635396  LPSA12    27             19.0000000000
     13113       423  BGLCNA    H61            -6.6730452193      -23.4120888287       93.8669777363  LPSA12    27             19.0000000000
     13114       423  BGLCNA    H62            -7.5036786612      -24.8556763835       93.4317932823  LPSA12    27             19.0000000000
     13115       423  BGLCNA    O6             -7.3982965260      -23.4734074724       91.9249416264  LPSA12    27             19.0000000000
     13116       423  BGLCNA    HO6            -6.6808887179      -24.0142624875       91.5380257617  LPSA12    27             19.0000000000
     13117       424  AGAL      C1            -10.2429339390      -22.9399661004       98.2481888931  LPSA12    28             20.0000000000
     13118       424  AGAL      H1             -9.2657882995      -23.4622294791       98.3309751438  LPSA12    28             20.0000000000
     13119       424  AGAL      C5            -11.2451687936      -20.7639998204       98.1274551791  LPSA12    28             20.0000000000
     13120       424  AGAL      H5            -12.0055201912      -21.2142530540       97.4354897362  LPSA12    28             20.0000000000
     13121       424  AGAL      O5            -10.0105390006      -21.5285055893       98.0547843003  LPSA12    28             20.0000000000
     13122       424  AGAL      C2            -10.9370153072      -23.1392159405       99.6140781652  LPSA12    28             20.0000000000
     13123       424  AGAL      H2            -10.1960308310      -22.6631175012      100.2981831454  LPSA12    28             20.0000000000
     13124       424  AGAL      O2            -11.1105186750      -24.4844047224      100.0952025801  LPSA12    28             20.0000000000
     13125       424  AGAL      C3            -12.2303881810      -22.3453382780       99.6896383551  LPSA12    28             20.0000000000
     13126       424  AGAL      H3            -12.8771319893      -22.6641158046       98.8421803012  LPSA12    28             20.0000000000
     13127       424  AGAL      O3            -13.0288752847      -22.5493663729      100.8558103094  LPSA12    28             20.0000000000
     13128       424  AGAL      HO3           -13.9133425547      -22.8484347362      100.6028525486  LPSA12    28             20.0000000000
     13129       424  AGAL      C4            -11.8810936728      -20.8898482419       99.4906728937  LPSA12    28             20.0000000000
     13130       424  AGAL      H4            -12.8339771907      -20.3102220663       99.4968849075  LPSA12    28             20.0000000000
     13131       424  AGAL      O4            -11.0173345488      -20.3559986169      100.4846955419  LPSA12    28             20.0000000000
     13132       424  AGAL      HO4           -11.5864689333      -19.8742268857      101.0878240548  LPSA12    28             20.0000000000
     13133       424  AGAL      C6            -11.0473893441      -19.3199566501       97.6528754731  LPSA12    28             20.0000000000
     13134       424  AGAL      H61           -10.8181430582      -19.3669874811       96.5651626884  LPSA12    28             20.0000000000
     13135       424  AGAL      H62           -11.9829248425      -18.7223897179       97.7730432116  LPSA12    28             20.0000000000
     13136       424  AGAL      O6             -9.9914211066      -18.5933831102       98.2966506126  LPSA12    28             20.0000000000
     13137       424  AGAL      HO6            -9.1593005479      -18.9079490885       97.9573818597  LPSA12    28             20.0000000000
     13138       425  ARHM      C1            -10.8103386101      -24.5361211714      101.4775354351  LPSA12    29             21.0000000000
     13139       425  ARHM      H1            -10.9701947954      -23.5472525474      101.9581433711  LPSA12    29             21.0000000000
     13140       425  ARHM      C5             -9.1790840428      -26.2157128101      101.1422203021  LPSA12    29             21.0000000000
     13141       425  ARHM      H5             -9.4548167734      -26.1967135241      100.0628745068  LPSA12    29             21.0000000000
     13142       425  ARHM      O5             -9.4550567585      -24.9303576764      101.6912133045  LPSA12    29             21.0000000000
     13143       425  ARHM      C2            -11.7254750110      -25.5038354347      102.1647255780  LPSA12    29             21.0000000000
     13144       425  ARHM      H2            -12.7777135538      -25.2193125645      101.9188671639  LPSA12    29             21.0000000000
     13145       425  ARHM      O2            -11.5088623918      -25.4636301354      103.5949058681  LPSA12    29             21.0000000000
     13146       425  ARHM      C3            -11.4771565073      -26.8804505764      101.6115867639  LPSA12    29             21.0000000000
     13147       425  ARHM      H3            -11.6810525742      -26.8745575332      100.5143237001  LPSA12    29             21.0000000000
     13148       425  ARHM      O3            -12.3874534231      -27.7902476012      102.1893494810  LPSA12    29             21.0000000000
     13149       425  ARHM      HO3           -11.9336758266      -28.6301985828      102.2282511925  LPSA12    29             21.0000000000
     13150       425  ARHM      C4            -10.0216552728      -27.2897537985      101.8232939070  LPSA12    29             21.0000000000
     13151       425  ARHM      H4             -9.7933667813      -27.3098887790      102.9157807634  LPSA12    29             21.0000000000
     13152       425  ARHM      O4             -9.7115624263      -28.6015475553      101.3390906050  LPSA12    29             21.0000000000
     13153       425  ARHM      HO4           -10.0263313982      -28.7618621952      100.4488482459  LPSA12    29             21.0000000000
     13154       425  ARHM      C6             -7.6573103188      -26.3317353173      101.2389523770  LPSA12    29             21.0000000000
     13155       425  ARHM      H61            -7.2197997979      -25.4123046507      100.7815437970  LPSA12    29             21.0000000000
     13156       425  ARHM      H62            -7.3130562952      -26.4122232937      102.2866535326  LPSA12    29             21.0000000000
     13157       425  ARHM      H63            -7.2986269602      -27.2171641291      100.6708611035  LPSA12    29             21.0000000000
     13158       426  ARHM      C1            -12.3939481852      -24.6744962073      104.3632418664  LPSA12    30             22.0000000000
     13159       426  ARHM      H1            -13.4474747236      -24.9851067998      104.1591151310  LPSA12    30             22.0000000000
     13160       426  ARHM      C5            -10.9352337505      -22.7918598981      104.4915098699  LPSA12    30             22.0000000000
     13161       426  ARHM      H5            -10.2154432368      -23.4114444469      103.9087556292  LPSA12    30             22.0000000000
     13162       426  ARHM      O5            -12.2516633817      -23.2538937886      104.1545402383  LPSA12    30             22.0000000000
     13163       426  ARHM      C2            -12.1045343703      -24.9349630664      105.8222339496  LPSA12    30             22.0000000000
     13164       426  ARHM      H2            -12.2239457424      -26.0157361779      106.0149105192  LPSA12    30             22.0000000000
     13165       426  ARHM      O2            -13.0418619153      -24.1949495676      106.6006334318  LPSA12    30             22.0000000000
     13166       426  ARHM      C3            -10.7142531382      -24.4833187417      106.2239501426  LPSA12    30             22.0000000000
     13167       426  ARHM      H3            -10.0045767107      -24.9871823159      105.5237957384  LPSA12    30             22.0000000000
     13168       426  ARHM      O3            -10.3666034783      -24.9273702217      107.5502350738  LPSA12    30             22.0000000000
     13169       426  ARHM      C4            -10.6252904445      -22.9977913107      105.9567287548  LPSA12    30             22.0000000000
     13170       426  ARHM      H4            -11.3807497769      -22.4404901522      106.5506354414  LPSA12    30             22.0000000000
     13171       426  ARHM      O4             -9.3898522003      -22.3844805948      106.2924437109  LPSA12    30             22.0000000000
     13172       426  ARHM      HO4            -8.6738607124      -22.6567673509      105.7111349040  LPSA12    30             22.0000000000
     13173       426  ARHM      C6            -10.7620139448      -21.3301955392      104.0543307136  LPSA12    30             22.0000000000
     13174       426  ARHM      H61            -9.7082693696      -21.0211685343      104.2259631671  LPSA12    30             22.0000000000
     13175       426  ARHM      H62           -10.9658609971      -21.2458585097      102.9704986391  LPSA12    30             22.0000000000
     13176       426  ARHM      H63           -11.4499103783      -20.6653112501      104.6193002468  LPSA12    30             22.0000000000
     13177       427  BMANNA    C1            -14.2123943847      -24.8931860516      106.8890733245  LPSA12    31             23.0000000000
     13178       427  BMANNA    H1            -13.9878044714      -25.9498125866      107.1469948180  LPSA12    31             23.0000000000
     13179       427  BMANNA    C5            -16.4440834172      -25.4047306904      106.2029861370  LPSA12    31             23.0000000000
     13180       427  BMANNA    H5            -16.1569485392      -26.4369239828      106.4992107321  LPSA12    31             23.0000000000
     13181       427  BMANNA    O5            -15.2015346887      -24.7651075604      105.8578787214  LPSA12    31             23.0000000000
     13182       427  BMANNA    C2            -14.7356906325      -24.2007850910      108.0837562153  LPSA12    31             23.0000000000
     13183       427  BMANNA    H2            -13.9956263202      -24.3617126498      108.9087833464  LPSA12    31             23.0000000000
     13184       427  BMANNA    N             -14.8218291759      -22.8007456888      107.8448827818  LPSA12    31             23.0000000000
     13185       427  BMANNA    HN            -14.8233860059      -22.4822483643      106.8930797258  LPSA12    31             23.0000000000
     13186       427  BMANNA    C             -14.7405433533      -21.9745402984      108.8604590151  LPSA12    31             23.0000000000
     13187       427  BMANNA    O             -14.5176190990      -22.2622796195      110.0199282987  LPSA12    31             23.0000000000
     13188       427  BMANNA    CT            -14.8562779936      -20.6442277622      108.4576397536  LPSA12    31             23.0000000000
     13189       427  BMANNA    HT1           -15.6236318114      -20.5046664569      107.6539346237  LPSA12    31             23.0000000000
     13190       427  BMANNA    HT2           -13.8535781275      -20.3752913176      108.0291436261  LPSA12    31             23.0000000000
     13191       427  BMANNA    HT3           -15.0738238215      -19.9288696350      109.2804968092  LPSA12    31             23.0000000000
     13192       427  BMANNA    C3            -16.0241658966      -24.8445401655      108.5061186683  LPSA12    31             23.0000000000
     13193       427  BMANNA    H3            -15.8378913302      -25.9284918685      108.6648154964  LPSA12    31             23.0000000000
     13194       427  BMANNA    O3            -16.4299945223      -24.3671902544      109.7675768283  LPSA12    31             23.0000000000
     13195       427  BMANNA    HO3           -15.7054947749      -23.8274777450      110.1289180753  LPSA12    31             23.0000000000
     13196       427  BMANNA    C4            -17.0474482611      -24.7292531519      107.4102524446  LPSA12    31             23.0000000000
     13197       427  BMANNA    H4            -17.2606844523      -23.6666740169      107.1380943018  LPSA12    31             23.0000000000
     13198       427  BMANNA    O4            -18.2844851634      -25.3471137709      107.7299177666  LPSA12    31             23.0000000000
     13199       427  BMANNA    HO4           -18.1252155370      -26.1331319740      108.2447313614  LPSA12    31             23.0000000000
     13200       427  BMANNA    C6            -17.4280758310      -25.5192492112      105.0603917467  LPSA12    31             23.0000000000
     13201       427  BMANNA    H61           -18.2512089124      -26.2233800995      105.3199605899  LPSA12    31             23.0000000000
     13202       427  BMANNA    H62           -17.8945405248      -24.5250382718      104.8738292951  LPSA12    31             23.0000000000
     13203       427  BMANNA    O6            -16.8082775257      -25.9511497485      103.8560346401  LPSA12    31             23.0000000000
     13204       427  BMANNA    HO6           -16.5788125018      -26.8877629919      103.8163902266  LPSA12    31             23.0000000000
     13205       428  BGLCNA    C1            -10.8259705549      -24.1447825985      108.6216009842  LPSA12    32             23.0000000000
     13206       428  BGLCNA    H1            -11.8479161598      -23.7876527666      108.4124155509  LPSA12    32             23.0000000000
     13207       428  BGLCNA    C5            -10.5763091581      -22.1788704557      109.9319449085  LPSA12    32             23.0000000000
     13208       428  BGLCNA    H5            -11.5968692921      -21.8854859175      109.5835457544  LPSA12    32             23.0000000000
     13209       428  BGLCNA    O5            -10.0109048998      -23.0097154105      108.9167208995  LPSA12    32             23.0000000000
     13210       428  BGLCNA    C2            -10.9006364075      -25.0053776637      109.8601907099  LPSA12    32             23.0000000000
     13211       428  BGLCNA    H2             -9.8420849994      -25.2247904794      110.1482675851  LPSA12    32             23.0000000000
     13212       428  BGLCNA    N             -11.5860758853      -26.2388936136      109.5905351211  LPSA12    32             23.0000000000
     13213       428  BGLCNA    HN            -12.2675569690      -26.1470609442      108.8822227769  LPSA12    32             23.0000000000
     13214       428  BGLCNA    C             -11.2920023979      -27.4367093376      110.1006383269  LPSA12    32             23.0000000000
     13215       428  BGLCNA    O             -10.4233822340      -27.6544321111      110.9333272907  LPSA12    32             23.0000000000
     13216       428  BGLCNA    CT            -12.1519553279      -28.5304081936      109.5416679652  LPSA12    32             23.0000000000
     13217       428  BGLCNA    HT1           -12.6318262413      -28.1842180738      108.6061189405  LPSA12    32             23.0000000000
     13218       428  BGLCNA    HT2           -12.9556193075      -28.8465021181      110.2408310548  LPSA12    32             23.0000000000
     13219       428  BGLCNA    HT3           -11.5131781839      -29.4038391553      109.2954676918  LPSA12    32             23.0000000000
     13220       428  BGLCNA    C3            -11.5794132329      -24.1867817089      110.9282462202  LPSA12    32             23.0000000000
     13221       428  BGLCNA    H3            -12.5277797715      -23.8096911962      110.4787956283  LPSA12    32             23.0000000000
     13222       428  BGLCNA    O3            -11.9295120762      -24.9471382970      112.0986751999  LPSA12    32             23.0000000000
     13223       428  BGLCNA    C4            -10.6962229715      -22.9922326638      111.2022517527  LPSA12    32             23.0000000000
     13224       428  BGLCNA    H4             -9.6872760569      -23.3662636010      111.5027826198  LPSA12    32             23.0000000000
     13225       428  BGLCNA    O4            -11.2033471681      -22.1742363039      112.2398404659  LPSA12    32             23.0000000000
     13226       428  BGLCNA    HO4           -10.8472435242      -22.4878481059      113.0742628188  LPSA12    32             23.0000000000
     13227       428  BGLCNA    C6             -9.7765018665      -20.8969224865      110.0583715987  LPSA12    32             23.0000000000
     13228       428  BGLCNA    H61           -10.2797801480      -20.1624683779      110.7239900028  LPSA12    32             23.0000000000
     13229       428  BGLCNA    H62            -8.7795158078      -21.1128183025      110.5010088907  LPSA12    32             23.0000000000
     13230       428  BGLCNA    O6             -9.6006351880      -20.2643889349      108.7934523074  LPSA12    32             23.0000000000
     13231       428  BGLCNA    HO6           -10.3651744421      -20.4010188433      108.2302881053  LPSA12    32             23.0000000000
     13232       429  AGAL      C1            -13.1693819953      -24.5579468376      112.6793965356  LPSA12    33             24.0000000000
     13233       429  AGAL      H1            -13.2984232926      -23.4551708796      112.6050332098  LPSA12    33             24.0000000000
     13234       429  AGAL      C5            -14.2919977413      -26.6279898063      112.2092929572  LPSA12    33             24.0000000000
     13235       429  AGAL      H5            -13.2863010107      -26.9277941691      111.8419498634  LPSA12    33             24.0000000000
     13236       429  AGAL      O5            -14.3128697830      -25.1974101506      112.0674062303  LPSA12    33             24.0000000000
     13237       429  AGAL      C2            -13.1770466375      -24.9545171166      114.1426268939  LPSA12    33             24.0000000000
     13238       429  AGAL      H2            -14.1866543845      -24.6962830392      114.5301804963  LPSA12    33             24.0000000000
     13239       429  AGAL      O2            -12.2602922477      -24.1163274408      114.8702809660  LPSA12    33             24.0000000000
     13240       429  AGAL      C3            -13.0767163559      -26.4733379976      114.2959880329  LPSA12    33             24.0000000000
     13241       429  AGAL      H3            -12.1939191910      -26.8497300987      113.7198292754  LPSA12    33             24.0000000000
     13242       429  AGAL      O3            -12.8136923460      -26.8996005997      115.6219469649  LPSA12    33             24.0000000000
     13243       429  AGAL      HO3           -13.4732196312      -26.5584370693      116.2325084851  LPSA12    33             24.0000000000
     13244       429  AGAL      C4            -14.3175342689      -27.1040807931      113.6547284311  LPSA12    33             24.0000000000
     13245       429  AGAL      H4            -14.2126442476      -28.2123367945      113.6664427379  LPSA12    33             24.0000000000
     13246       429  AGAL      O4            -15.5644704480      -26.8332859169      114.2984144703  LPSA12    33             24.0000000000
     13247       429  AGAL      HO4           -15.5331592170      -26.0807855307      114.8880390629  LPSA12    33             24.0000000000
     13248       429  AGAL      C6            -15.2758749126      -27.3076911615      111.2580351649  LPSA12    33             24.0000000000
     13249       429  AGAL      H61           -14.9373542494      -27.0466834783      110.2355171012  LPSA12    33             24.0000000000
     13250       429  AGAL      H62           -15.2175792575      -28.4129506000      111.3711096007  LPSA12    33             24.0000000000
     13251       429  AGAL      O6            -16.6570535401      -26.9517104801      111.3752371189  LPSA12    33             24.0000000000
     13252       429  AGAL      HO6           -16.8557424969      -26.1294894770      110.8936702680  LPSA12    33             24.0000000000
     13253       430  ARHM      C1            -12.7908834310      -23.5452989130      116.0554298495  LPSA12    34             25.0000000000
     13254       430  ARHM      H1            -13.2608264333      -24.3536985813      116.6529796731  LPSA12    34             25.0000000000
     13255       430  ARHM      C5            -13.3437241394      -21.3927175494      115.0705565762  LPSA12    34             25.0000000000
     13256       430  ARHM      H5            -13.0438775993      -21.7565108330      114.0668328144  LPSA12    34             25.0000000000
     13257       430  ARHM      O5            -13.8009129848      -22.5266993988      115.8375083285  LPSA12    34             25.0000000000
     13258       430  ARHM      C2            -11.6099566503      -22.9571140835      116.8135917194  LPSA12    34             25.0000000000
     13259       430  ARHM      H2            -10.7985518340      -23.7235703391      116.8535681015  LPSA12    34             25.0000000000
     13260       430  ARHM      O2            -11.9180891259      -22.5625690242      118.1788730509  LPSA12    34             25.0000000000
     13261       430  ARHM      C3            -11.0612296096      -21.7796869011      116.0168446928  LPSA12    34             25.0000000000
     13262       430  ARHM      H3            -10.7547606530      -22.1348918935      115.0016057009  LPSA12    34             25.0000000000
     13263       430  ARHM      O3             -9.9045175573      -21.2035164339      116.6435174555  LPSA12    34             25.0000000000
     13264       430  ARHM      HO3            -9.3026829319      -20.8494963055      115.9758428173  LPSA12    34             25.0000000000
     13265       430  ARHM      C4            -12.1560483390      -20.7616564106      115.8021690455  LPSA12    34             25.0000000000
     13266       430  ARHM      H4            -12.5600149425      -20.4085765688      116.7799798222  LPSA12    34             25.0000000000
     13267       430  ARHM      O4            -11.6266819133      -19.6472406840      115.0831903641  LPSA12    34             25.0000000000
     13268       430  ARHM      HO4           -11.1531105133      -19.0408526827      115.6768218012  LPSA12    34             25.0000000000
     13269       430  ARHM      C6            -14.4763474713      -20.3418681730      114.8447206141  LPSA12    34             25.0000000000
     13270       430  ARHM      H61           -14.8893796748      -19.9445795650      115.7916240884  LPSA12    34             25.0000000000
     13271       430  ARHM      H62           -14.0276636312      -19.4600193568      114.3385030032  LPSA12    34             25.0000000000
     13272       430  ARHM      H63           -15.2927743984      -20.7179382190      114.1922392877  LPSA12    34             25.0000000000
     13273       431  ARHM      C1            -12.4486434051      -23.5427695066      119.0589130221  LPSA12    35             26.0000000000
     13274       431  ARHM      H1            -11.9571641006      -24.5266549550      118.8655873694  LPSA12    35             26.0000000000
     13275       431  ARHM      C5            -14.5589693725      -22.3910150003      119.2130928740  LPSA12    35             26.0000000000
     13276       431  ARHM      H5            -14.2124016797      -21.5999845346      118.5138712156  LPSA12    35             26.0000000000
     13277       431  ARHM      O5            -13.8854546139      -23.6388570685      118.9364937901  LPSA12    35             26.0000000000
     13278       431  ARHM      C2            -12.1446023157      -23.1506008539      120.5065367779  LPSA12    35             26.0000000000
     13279       431  ARHM      H2            -11.0410955138      -23.0475256902      120.6394649235  LPSA12    35             26.0000000000
     13280       431  ARHM      O2            -12.6382483286      -24.1081651319      121.4502379337  LPSA12    35             26.0000000000
     13281       431  ARHM      C3            -12.7750947895      -21.8347679860      120.8529661835  LPSA12    35             26.0000000000
     13282       431  ARHM      H3            -12.4254000816      -21.0888930355      120.1388308806  LPSA12    35             26.0000000000
     13283       431  ARHM      O3            -12.3173427583      -21.3615266767      122.1297343261  LPSA12    35             26.0000000000
     13284       431  ARHM      HO3           -12.3684405260      -22.0873601266      122.7584944761  LPSA12    35             26.0000000000
     13285       431  ARHM      C4            -14.2806331361      -21.9483007897      120.6618290725  LPSA12    35             26.0000000000
     13286       431  ARHM      H4            -14.7112950298      -22.7178093345      121.3451724642  LPSA12    35             26.0000000000
     13287       431  ARHM      O4            -14.9150974054      -20.7054395367      120.9428619687  LPSA12    35             26.0000000000
     13288       431  ARHM      HO4           -14.4334726487      -19.9493927802      120.5940790397  LPSA12    35             26.0000000000
     13289       431  ARHM      C6            -16.0469527282      -22.5867714478      118.8634667004  LPSA12    35             26.0000000000
     13290       431  ARHM      H61           -16.1865521748      -22.7541136812      117.7772280009  LPSA12    35             26.0000000000
     13291       431  ARHM      H62           -16.4660290909      -23.4433560946      119.4312399340  LPSA12    35             26.0000000000
     13292       431  ARHM      H63           -16.5952336796      -21.6540078009      119.1133393897  LPSA12    35             26.0000000000
     13293       432  BMANNA    C1            -11.9135813008      -25.3037695192      121.4917191180  LPSA12    36             27.0000000000
     13294       432  BMANNA    H1            -10.8764772025      -25.1494018494      121.1333002717  LPSA12    36             27.0000000000
     13295       432  BMANNA    C5            -11.6358702323      -27.4799878134      120.7233387892  LPSA12    36             27.0000000000
     13296       432  BMANNA    H5            -10.5873072791      -27.2321065290      120.4373513545  LPSA12    36             27.0000000000
     13297       432  BMANNA    O5            -12.4575597663      -26.3086338650      120.6567257736  LPSA12    36             27.0000000000
     13298       432  BMANNA    C2            -11.9273319773      -25.7769107962      122.9270104766  LPSA12    36             27.0000000000
     13299       432  BMANNA    H2            -11.4224144337      -24.9586065570      123.4952329016  LPSA12    36             27.0000000000
     13300       432  BMANNA    N             -13.2571505430      -25.9743206590      123.4981716496  LPSA12    36             27.0000000000
     13301       432  BMANNA    HN            -13.9483717005      -26.3506211850      122.8841595496  LPSA12    36             27.0000000000
     13302       432  BMANNA    C             -13.5091007144      -25.8044587892      124.8205778947  LPSA12    36             27.0000000000
     13303       432  BMANNA    O             -12.6951112241      -25.3431768730      125.6067048582  LPSA12    36             27.0000000000
     13304       432  BMANNA    CT            -14.8448793448      -26.2326368676      125.3552879127  LPSA12    36             27.0000000000
     13305       432  BMANNA    HT1           -15.0888254486      -27.2139869407      124.9202151271  LPSA12    36             27.0000000000
     13306       432  BMANNA    HT2           -15.6355300252      -25.4921855680      125.1330156991  LPSA12    36             27.0000000000
     13307       432  BMANNA    HT3           -14.7845799025      -26.3669004581      126.4538097262  LPSA12    36             27.0000000000
     13308       432  BMANNA    C3            -11.0546093158      -27.0081622424      123.0260022391  LPSA12    36             27.0000000000
     13309       432  BMANNA    H3            -10.0280094938      -26.7631543133      122.6517762032  LPSA12    36             27.0000000000
     13310       432  BMANNA    O3            -10.9335985512      -27.4908030984      124.3581786981  LPSA12    36             27.0000000000
     13311       432  BMANNA    HO3           -10.0609297005      -27.3329328535      124.7168508276  LPSA12    36             27.0000000000
     13312       432  BMANNA    C4            -11.6104091986      -28.0692412890      122.1331221175  LPSA12    36             27.0000000000
     13313       432  BMANNA    H4            -12.6333114293      -28.3658562224      122.4574950515  LPSA12    36             27.0000000000
     13314       432  BMANNA    O4            -10.8319581117      -29.2456744866      122.2426060977  LPSA12    36             27.0000000000
     13315       432  BMANNA    HO4           -10.8493652742      -29.4437375432      123.1927247804  LPSA12    36             27.0000000000
     13316       432  BMANNA    C6            -12.1109751352      -28.4007609359      119.6948717939  LPSA12    36             27.0000000000
     13317       432  BMANNA    H61           -12.1560050741      -28.0395306535      118.6533942073  LPSA12    36             27.0000000000
     13318       432  BMANNA    H62           -11.2612467426      -29.1038451138      119.5872203024  LPSA12    36             27.0000000000
     13319       432  BMANNA    O6            -13.3858212035      -28.8847646799      120.1409056447  LPSA12    36             27.0000000000
     13320       432  BMANNA    HO6           -13.3270920944      -29.7430352248      120.5993746989  LPSA12    36             27.0000000000
     13321       433  ECLIPA    HB6S          -28.0855336799       -0.6155386945       20.4246561541  LPSA13    1               0.0000000000
     13322       433  ECLIPA    OB6           -27.3762210431       -2.0520557830       21.7215306699  LPSA13    1               0.0000000000
     13323       433  ECLIPA    CB6           -27.1112685591       -1.0697567307       20.7009514841  LPSA13    1               0.0000000000
     13324       433  ECLIPA    HB6R          -26.4551969894       -0.2644678160       21.1012657087  LPSA13    1               0.0000000000
     13325       433  ECLIPA    CB5           -26.4494945220       -1.6066176404       19.4359263078  LPSA13    1               0.0000000000
     13326       433  ECLIPA    OB5           -27.3050994602       -2.6640743931       18.9591941739  LPSA13    1               0.0000000000
     13327       433  ECLIPA    HB5           -25.4530002200       -2.0040058110       19.7411115407  LPSA13    1               0.0000000000
     13328       433  ECLIPA    CB1           -26.7790287148       -3.2916806369       17.7846294134  LPSA13    1               0.0000000000
     13329       433  ECLIPA    HB1           -25.7559911218       -3.6973326735       17.9680998913  LPSA13    1               0.0000000000
     13330       433  ECLIPA    OA6           -27.5627791691       -4.3582437811       17.3106826628  LPSA13    1               0.0000000000
     13331       433  ECLIPA    CA6           -28.9734089952       -4.2297091953       17.5519472554  LPSA13    1               0.0000000000
     13332       433  ECLIPA    HA6R          -29.2868442885       -3.1796407575       17.7549959977  LPSA13    1               0.0000000000
     13333       433  ECLIPA    HA6S          -29.2227290314       -4.8583037527       18.4291375324  LPSA13    1               0.0000000000
     13334       433  ECLIPA    CB4           -26.2559537140       -0.5432871207       18.3310237416  LPSA13    1               0.0000000000
     13335       433  ECLIPA    HB4           -27.2277928608       -0.0619726202       18.0515887551  LPSA13    1               0.0000000000
     13336       433  ECLIPA    OB4           -25.2880255713        0.3912905940       18.8353412863  LPSA13    1               0.0000000000
     13337       433  ECLIPA    PB            -25.7468227234        1.9097306083       19.3258855741  LPSA13    1               0.0000000000
     13338       433  ECLIPA    OPB4          -24.8567966316        2.3215432520       20.5054409065  LPSA13    1               0.0000000000
     13339       433  ECLIPA    OPB3          -27.2142451538        1.7588179951       19.7091444469  LPSA13    1               0.0000000000
     13340       433  ECLIPA    OPB2          -25.5280770217        2.7918275414       18.1079169650  LPSA13    1               0.0000000000
     13341       433  ECLIPA    CB3           -25.7060884856       -1.2135574558       17.0873874783  LPSA13    1               0.0000000000
     13342       433  ECLIPA    OB3           -25.5825322630       -0.3586924682       15.9446344956  LPSA13    1               0.0000000000
     13343       433  ECLIPA    HB3           -24.7462599471       -1.7285439608       17.3366080452  LPSA13    1               0.0000000000
     13344       433  ECLIPA    C71           -24.4639436432        0.3331068320       15.7757714253  LPSA13    1               0.0000000000
     13345       433  ECLIPA    O71           -23.3883997037       -0.0011243713       16.2563196006  LPSA13    1               0.0000000000
     13346       433  ECLIPA    C72           -24.5530644988        1.0179366586       14.3831375306  LPSA13    1               0.0000000000
     13347       433  ECLIPA    H72R          -24.7886081286        0.2674600182       13.6000976343  LPSA13    1               0.0000000000
     13348       433  ECLIPA    H72S          -23.5758403960        1.4955945796       14.1670250733  LPSA13    1               0.0000000000
     13349       433  ECLIPA    CB2           -26.6690748662       -2.3008154308       16.6639452967  LPSA13    1               0.0000000000
     13350       433  ECLIPA    HB2           -27.6813961632       -1.8318564165       16.5103494082  LPSA13    1               0.0000000000
     13351       433  ECLIPA    NB2           -26.1973328898       -2.9593924741       15.4487860713  LPSA13    1               0.0000000000
     13352       433  ECLIPA    HNB2          -25.6037863897       -3.7459516781       15.5692256429  LPSA13    1               0.0000000000
     13353       433  ECLIPA    CA4           -29.1493239309       -6.0191394503       15.7970511068  LPSA13    1               0.0000000000
     13354       433  ECLIPA    HA4           -28.0922702039       -5.8023833063       15.5240124753  LPSA13    1               0.0000000000
     13355       433  ECLIPA    OA4           -29.1741605274       -7.0146656263       16.8102727080  LPSA13    1               0.0000000000
     13356       433  ECLIPA    HOA4          -28.8388776992       -6.6261645285       17.6260154929  LPSA13    1               0.0000000000
     13357       433  ECLIPA    CA5           -29.7296448613       -4.7348756272       16.3413038731  LPSA13    1               0.0000000000
     13358       433  ECLIPA    HA5           -30.8166194033       -4.8061080443       16.5819193236  LPSA13    1               0.0000000000
     13359       433  ECLIPA    OA5           -29.5521029932       -3.7471272698       15.3387546592  LPSA13    1               0.0000000000
     13360       433  ECLIPA    CA1           -30.2367863801       -4.0387199326       14.1067201417  LPSA13    1               0.0000000000
     13361       433  ECLIPA    HA1           -29.8203180935       -3.2631471782       13.4239186210  LPSA13    1               0.0000000000
     13362       433  ECLIPA    OA1           -31.6522593129       -3.9200004043       14.1433815948  LPSA13    1               0.0000000000
     13363       433  ECLIPA    OPA2          -33.0065394259       -2.9654775903       15.9602007794  LPSA13    1               0.0000000000
     13364       433  ECLIPA    OPA3          -31.2375056106       -1.4629352942       14.8424522967  LPSA13    1               0.0000000000
     13365       433  ECLIPA    OPA4          -33.3750020440       -2.1884855776       13.5781617730  LPSA13    1               0.0000000000
     13366       433  ECLIPA    PA            -32.3354298026       -2.5042942239       14.6677293200  LPSA13    1               0.0000000000
     13367       433  ECLIPA    CA3           -29.8467180431       -6.4630109513       14.5298980366  LPSA13    1               0.0000000000
     13368       433  ECLIPA    HA3           -30.9163778173       -6.6761804700       14.7456123557  LPSA13    1               0.0000000000
     13369       433  ECLIPA    OA3           -29.2010925062       -7.7088975447       14.1796660792  LPSA13    1               0.0000000000
     13370       433  ECLIPA    C31           -28.0347560166       -7.6502188459       13.5051021904  LPSA13    1               0.0000000000
     13371       433  ECLIPA    O31           -27.9972195497       -7.5995603168       12.2894114686  LPSA13    1               0.0000000000
     13372       433  ECLIPA    C32           -26.9379311704       -8.3995893068       14.2832852956  LPSA13    1               0.0000000000
     13373       433  ECLIPA    H32R          -26.7102996280       -9.3215729596       13.7091092837  LPSA13    1               0.0000000000
     13374       433  ECLIPA    H32S          -27.3330738760       -8.6881544723       15.2770004161  LPSA13    1               0.0000000000
     13375       433  ECLIPA    CA2           -29.7018272228       -5.3311776049       13.5127084156  LPSA13    1               0.0000000000
     13376       433  ECLIPA    HA2           -28.6145654924       -5.1531607518       13.3372610611  LPSA13    1               0.0000000000
     13377       433  ECLIPA    NA2           -30.3512358663       -5.6447208500       12.2286855596  LPSA13    1               0.0000000000
     13378       433  ECLIPA    HNA2          -30.5958382877       -6.5935067949       12.1067582605  LPSA13    1               0.0000000000
     13379       433  ECLIPA    C73           -25.6772824740        2.0779083822       14.3550396937  LPSA13    1               0.0000000000
     13380       433  ECLIPA    H73R          -25.5905992152        2.6980129005       15.2834973288  LPSA13    1               0.0000000000
     13381       433  ECLIPA    O73           -26.9060262278        1.3568315541       14.2718835898  LPSA13    1               0.0000000000
     13382       433  ECLIPA    C81           -27.9686272772        1.8047690341       14.9452261574  LPSA13    1               0.0000000000
     13383       433  ECLIPA    O81           -28.0028652151        2.8616167276       15.5558365899  LPSA13    1               0.0000000000
     13384       433  ECLIPA    C82           -29.2210109476        1.1317561452       14.3413443639  LPSA13    1               0.0000000000
     13385       433  ECLIPA    H82R          -30.1222870429        1.5037066642       14.8688773877  LPSA13    1               0.0000000000
     13386       433  ECLIPA    H82S          -29.1688160681        0.0431124947       14.5583617870  LPSA13    1               0.0000000000
     13387       433  ECLIPA    C83           -29.3704375030        1.3253878232       12.8089833886  LPSA13    1               0.0000000000
     13388       433  ECLIPA    H83R          -28.7158269171        0.5878789677       12.2896194468  LPSA13    1               0.0000000000
     13389       433  ECLIPA    H83S          -29.0286746561        2.3429332175       12.5367317587  LPSA13    1               0.0000000000
     13390       433  ECLIPA    C84           -30.7975287242        1.0658387912       12.2923782816  LPSA13    1               0.0000000000
     13391       433  ECLIPA    H84R          -31.4851196741        1.8773606390       12.6061294482  LPSA13    1               0.0000000000
     13392       433  ECLIPA    H84S          -31.1346662405        0.1063687502       12.7657420705  LPSA13    1               0.0000000000
     13393       433  ECLIPA    C85           -30.8523962976        0.8512964396       10.7704032204  LPSA13    1               0.0000000000
     13394       433  ECLIPA    H85R          -29.9743635512        0.2025827861       10.5445775607  LPSA13    1               0.0000000000
     13395       433  ECLIPA    H85S          -30.6825882979        1.8079700291       10.2348626349  LPSA13    1               0.0000000000
     13396       433  ECLIPA    C86           -32.1011148142        0.0790335080       10.2880548733  LPSA13    1               0.0000000000
     13397       433  ECLIPA    H86R          -32.9064358711        0.7807813182        9.9918181712  LPSA13    1               0.0000000000
     13398       433  ECLIPA    H86S          -32.4838498435       -0.5414283159       11.1348287354  LPSA13    1               0.0000000000
     13399       433  ECLIPA    C87           -31.7759743300       -0.9216000645        9.1602666109  LPSA13    1               0.0000000000
     13400       433  ECLIPA    H87R          -32.7059070147       -1.3987143404        8.7870149318  LPSA13    1               0.0000000000
     13401       433  ECLIPA    H87S          -31.1487129673       -1.7483578705        9.5754947765  LPSA13    1               0.0000000000
     13402       433  ECLIPA    C88           -30.9695439867       -0.2919928037        8.0207458348  LPSA13    1               0.0000000000
     13403       433  ECLIPA    H88R          -29.9171559544       -0.1697318790        8.3508060599  LPSA13    1               0.0000000000
     13404       433  ECLIPA    H88S          -31.3329405787        0.7489792434        7.8754610660  LPSA13    1               0.0000000000
     13405       433  ECLIPA    C89           -31.0003243158       -1.1102259676        6.7153300271  LPSA13    1               0.0000000000
     13406       433  ECLIPA    H89R          -31.2765120922       -2.1730234199        6.8956259182  LPSA13    1               0.0000000000
     13407       433  ECLIPA    H89S          -29.9876226957       -1.1355991066        6.2588065286  LPSA13    1               0.0000000000
     13408       433  ECLIPA    C810          -31.9357414202       -0.4554804593        5.6945563229  LPSA13    1               0.0000000000
     13409       433  ECLIPA    H810R         -31.9408838546        0.6300847593        5.9305941422  LPSA13    1               0.0000000000
     13410       433  ECLIPA    H810S         -32.9599374485       -0.8573143698        5.8578234537  LPSA13    1               0.0000000000
     13411       433  ECLIPA    C811          -31.5177550241       -0.6688782974        4.2327394097  LPSA13    1               0.0000000000
     13412       433  ECLIPA    H811R         -32.3763174528       -0.5148363496        3.5380533823  LPSA13    1               0.0000000000
     13413       433  ECLIPA    H811S         -31.1702772833       -1.7231407218        4.1546568996  LPSA13    1               0.0000000000
     13414       433  ECLIPA    C812          -30.3555149014        0.2059379511        3.7355239969  LPSA13    1               0.0000000000
     13415       433  ECLIPA    H812R         -30.0962760065       -0.1661957604        2.7135279139  LPSA13    1               0.0000000000
     13416       433  ECLIPA    H812S         -29.4837665341        0.0728470823        4.4086270254  LPSA13    1               0.0000000000
     13417       433  ECLIPA    C813          -30.6301588777        1.7084334264        3.6375898515  LPSA13    1               0.0000000000
     13418       433  ECLIPA    H813R         -31.4727549829        1.8559021767        2.9305607331  LPSA13    1               0.0000000000
     13419       433  ECLIPA    H813S         -30.9344534327        2.1290492195        4.6247902128  LPSA13    1               0.0000000000
     13420       433  ECLIPA    C814          -29.4166510170        2.4893780459        3.1314402676  LPSA13    1               0.0000000000
     13421       433  ECLIPA    H814R         -28.9754795490        2.0288529803        2.2189806699  LPSA13    1               0.0000000000
     13422       433  ECLIPA    H814S         -28.6353261090        2.5247128872        3.9187422482  LPSA13    1               0.0000000000
     13423       433  ECLIPA    H814T         -29.7124594107        3.5290792110        2.8887906989  LPSA13    1               0.0000000000
     13424       433  ECLIPA    C74           -25.6515007997        3.0300872045       13.1259661066  LPSA13    1               0.0000000000
     13425       433  ECLIPA    H74R          -24.7344542020        3.6483670679       13.0423992193  LPSA13    1               0.0000000000
     13426       433  ECLIPA    H74S          -26.4862184551        3.7478700347       13.3207022196  LPSA13    1               0.0000000000
     13427       433  ECLIPA    C75           -25.9689613741        2.3401861148       11.7777625608  LPSA13    1               0.0000000000
     13428       433  ECLIPA    H75R          -26.5911238486        3.0492657873       11.1898538727  LPSA13    1               0.0000000000
     13429       433  ECLIPA    H75S          -26.5975394744        1.4431208872       11.9704497821  LPSA13    1               0.0000000000
     13430       433  ECLIPA    C76           -24.7512435290        1.9057866860       10.9461165699  LPSA13    1               0.0000000000
     13431       433  ECLIPA    H76R          -24.3358260580        0.9671085756       11.3764953131  LPSA13    1               0.0000000000
     13432       433  ECLIPA    H76S          -23.9456131063        2.6735459912       10.9890228456  LPSA13    1               0.0000000000
     13433       433  ECLIPA    C77           -25.0495280297        1.6546989274        9.4543965459  LPSA13    1               0.0000000000
     13434       433  ECLIPA    H77R          -25.3516226160        2.6158147482        8.9904205238  LPSA13    1               0.0000000000
     13435       433  ECLIPA    H77S          -25.9032933868        0.9733477428        9.3124296135  LPSA13    1               0.0000000000
     13436       433  ECLIPA    C78           -23.8226980230        0.9925529049        8.8005560883  LPSA13    1               0.0000000000
     13437       433  ECLIPA    H78R          -22.9316194626        1.6025539523        9.0659672469  LPSA13    1               0.0000000000
     13438       433  ECLIPA    H78S          -23.6973911694        0.0144435307        9.3202265972  LPSA13    1               0.0000000000
     13439       433  ECLIPA    C79           -23.8919161029        0.6616822885        7.2913410355  LPSA13    1               0.0000000000
     13440       433  ECLIPA    H79R          -24.2308607107       -0.3931806739        7.1706469077  LPSA13    1               0.0000000000
     13441       433  ECLIPA    H79S          -22.8802046115        0.7301515504        6.8320239153  LPSA13    1               0.0000000000
     13442       433  ECLIPA    C710          -24.7689360190        1.5840873121        6.4486510610  LPSA13    1               0.0000000000
     13443       433  ECLIPA    H710R         -25.7973495088        1.6247027163        6.8639007134  LPSA13    1               0.0000000000
     13444       433  ECLIPA    H710S         -24.3267098104        2.6040291252        6.4854984725  LPSA13    1               0.0000000000
     13445       433  ECLIPA    C711          -24.8737879997        1.1553238132        4.9821180049  LPSA13    1               0.0000000000
     13446       433  ECLIPA    H711R         -23.8565065093        1.1302653690        4.5315747951  LPSA13    1               0.0000000000
     13447       433  ECLIPA    H711S         -25.3275216124        0.1393090633        4.9198602895  LPSA13    1               0.0000000000
     13448       433  ECLIPA    C712          -25.7746154975        2.1361736673        4.2307797030  LPSA13    1               0.0000000000
     13449       433  ECLIPA    H712R         -25.2967970146        3.1397900355        4.2553740884  LPSA13    1               0.0000000000
     13450       433  ECLIPA    H712S         -26.7171237294        2.2063042443        4.8197728676  LPSA13    1               0.0000000000
     13451       433  ECLIPA    C713          -26.0937857854        1.7064069380        2.7934127216  LPSA13    1               0.0000000000
     13452       433  ECLIPA    H713R         -26.6353175516        0.7318525448        2.8378694889  LPSA13    1               0.0000000000
     13453       433  ECLIPA    H713S         -26.7719674846        2.4532927229        2.3178700851  LPSA13    1               0.0000000000
     13454       433  ECLIPA    C714          -24.8779844004        1.5884094683        1.8792251683  LPSA13    1               0.0000000000
     13455       433  ECLIPA    H714R         -24.3727665401        2.5763806951        1.8101047945  LPSA13    1               0.0000000000
     13456       433  ECLIPA    H714S         -24.1549758093        0.8216624650        2.2284326762  LPSA13    1               0.0000000000
     13457       433  ECLIPA    H714T         -25.2171822558        1.3121734750        0.8608546715  LPSA13    1               0.0000000000
     13458       433  ECLIPA    C51           -26.5092518119       -2.4985165638       14.2298020867  LPSA13    1               0.0000000000
     13459       433  ECLIPA    O51           -27.4075405522       -1.6900168972       14.0717272089  LPSA13    1               0.0000000000
     13460       433  ECLIPA    C52           -25.6800824491       -2.9767112507       13.0553666814  LPSA13    1               0.0000000000
     13461       433  ECLIPA    H52R          -24.7860168719       -2.3252481774       12.9296348118  LPSA13    1               0.0000000000
     13462       433  ECLIPA    H52S          -25.3316344937       -4.0024473993       13.2480760357  LPSA13    1               0.0000000000
     13463       433  ECLIPA    C53           -26.5213819981       -2.9467144809       11.7620683169  LPSA13    1               0.0000000000
     13464       433  ECLIPA    H53R          -27.5883318945       -3.1974160600       11.9856904763  LPSA13    1               0.0000000000
     13465       433  ECLIPA    O53           -25.8980566151       -3.8720047826       10.8526852608  LPSA13    1               0.0000000000
     13466       433  ECLIPA    C61           -26.5592266891       -4.9795480546       10.5292373737  LPSA13    1               0.0000000000
     13467       433  ECLIPA    O61           -27.6874464858       -5.2593728674       10.8583099584  LPSA13    1               0.0000000000
     13468       433  ECLIPA    C62           -25.6999608840       -5.8395566315        9.5926663070  LPSA13    1               0.0000000000
     13469       433  ECLIPA    H62R          -25.0013747846       -6.4291360050       10.2153402391  LPSA13    1               0.0000000000
     13470       433  ECLIPA    H62S          -25.0852544971       -5.1321409174        9.0051732506  LPSA13    1               0.0000000000
     13471       433  ECLIPA    C63           -26.5724064964       -6.7821944620        8.7051758733  LPSA13    1               0.0000000000
     13472       433  ECLIPA    H63R          -27.4042098480       -6.1812819687        8.2750415601  LPSA13    1               0.0000000000
     13473       433  ECLIPA    H63S          -27.0200649253       -7.5906577536        9.3300865004  LPSA13    1               0.0000000000
     13474       433  ECLIPA    C64           -25.8523129694       -7.4369127665        7.5083182264  LPSA13    1               0.0000000000
     13475       433  ECLIPA    H64R          -26.5464153079       -8.1378404840        6.9879123899  LPSA13    1               0.0000000000
     13476       433  ECLIPA    H64S          -24.9971459721       -8.0148133804        7.9218152338  LPSA13    1               0.0000000000
     13477       433  ECLIPA    C65           -25.3539264910       -6.3691451733        6.5281819315  LPSA13    1               0.0000000000
     13478       433  ECLIPA    H65R          -24.6425252291       -5.7647725225        7.1351821564  LPSA13    1               0.0000000000
     13479       433  ECLIPA    H65S          -26.1912265780       -5.7083142543        6.2168157388  LPSA13    1               0.0000000000
     13480       433  ECLIPA    C66           -24.6039938427       -6.8215983082        5.2595654778  LPSA13    1               0.0000000000
     13481       433  ECLIPA    H66R          -23.7254053245       -7.4354458136        5.5502627870  LPSA13    1               0.0000000000
     13482       433  ECLIPA    H66S          -24.2336013627       -5.8761491353        4.7935889891  LPSA13    1               0.0000000000
     13483       433  ECLIPA    C67           -25.3955224212       -7.5659243204        4.1672428559  LPSA13    1               0.0000000000
     13484       433  ECLIPA    H67R          -25.9342961484       -8.4503268101        4.5739996619  LPSA13    1               0.0000000000
     13485       433  ECLIPA    H67S          -24.6994575496       -7.9267423531        3.3723036396  LPSA13    1               0.0000000000
     13486       433  ECLIPA    C68           -26.4818985973       -6.7347030845        3.4962901939  LPSA13    1               0.0000000000
     13487       433  ECLIPA    H68R          -26.1211452414       -5.7574841215        3.1016635539  LPSA13    1               0.0000000000
     13488       433  ECLIPA    H68S          -27.2432014679       -6.5447610677        4.2815426025  LPSA13    1               0.0000000000
     13489       433  ECLIPA    C69           -27.0532132858       -7.4894536132        2.2963700145  LPSA13    1               0.0000000000
     13490       433  ECLIPA    H69R          -26.9866359663       -8.5929937227        2.3900266154  LPSA13    1               0.0000000000
     13491       433  ECLIPA    H69S          -26.3630726707       -7.2295093118        1.4847435519  LPSA13    1               0.0000000000
     13492       433  ECLIPA    C610          -28.4891501324       -7.0817440908        1.9489954137  LPSA13    1               0.0000000000
     13493       433  ECLIPA    H610R         -28.5583661108       -5.9713689620        2.0120721453  LPSA13    1               0.0000000000
     13494       433  ECLIPA    H610S         -29.1566948054       -7.5137281478        2.7186293475  LPSA13    1               0.0000000000
     13495       433  ECLIPA    C611          -28.9591797694       -7.6115137288        0.5841766550  LPSA13    1               0.0000000000
     13496       433  ECLIPA    H611R         -28.7370706646       -8.7029364576        0.5458116155  LPSA13    1               0.0000000000
     13497       433  ECLIPA    H611S         -30.0415416054       -7.4871064159        0.4249467540  LPSA13    1               0.0000000000
     13498       433  ECLIPA    C612          -28.2743604578       -6.8833253363       -0.5426638989  LPSA13    1               0.0000000000
     13499       433  ECLIPA    H612R         -28.4879104431       -5.7974458718       -0.6026614082  LPSA13    1               0.0000000000
     13500       433  ECLIPA    H612S         -27.3088612970       -6.9135406615       -0.2164740951  LPSA13    1               0.0000000000
     13501       433  ECLIPA    H612T         -28.2583201252       -7.3763311688       -1.5399036405  LPSA13    1               0.0000000000
     13502       433  ECLIPA    C54           -26.4430182337       -1.5131999153       11.1702813695  LPSA13    1               0.0000000000
     13503       433  ECLIPA    H54R          -25.3833355569       -1.3399155998       10.8819244394  LPSA13    1               0.0000000000
     13504       433  ECLIPA    H54S          -26.6956274537       -0.7946090040       11.9775714908  LPSA13    1               0.0000000000
     13505       433  ECLIPA    C55           -27.3524100198       -1.2069699311        9.9635520026  LPSA13    1               0.0000000000
     13506       433  ECLIPA    H55R          -27.4297017674       -0.1072590608        9.8235246085  LPSA13    1               0.0000000000
     13507       433  ECLIPA    H55S          -28.3815912875       -1.5536780157       10.2014501753  LPSA13    1               0.0000000000
     13508       433  ECLIPA    C56           -26.7560866866       -1.8191596798        8.6893160092  LPSA13    1               0.0000000000
     13509       433  ECLIPA    H56R          -26.6155465947       -2.9029663749        8.8596801911  LPSA13    1               0.0000000000
     13510       433  ECLIPA    H56S          -25.7478878704       -1.3818294156        8.5041587947  LPSA13    1               0.0000000000
     13511       433  ECLIPA    C57           -27.5730914242       -1.7307148658        7.4024606689  LPSA13    1               0.0000000000
     13512       433  ECLIPA    H57R          -27.8685746119       -0.6832014965        7.1803637566  LPSA13    1               0.0000000000
     13513       433  ECLIPA    H57S          -28.5127597787       -2.3123853782        7.5427256532  LPSA13    1               0.0000000000
     13514       433  ECLIPA    C58           -26.7712093233       -2.3549403811        6.2387076774  LPSA13    1               0.0000000000
     13515       433  ECLIPA    H58R          -25.7274914498       -1.9777524578        6.2155711587  LPSA13    1               0.0000000000
     13516       433  ECLIPA    H58S          -26.6843285208       -3.4441758364        6.4599951964  LPSA13    1               0.0000000000
     13517       433  ECLIPA    C59           -27.4229554405       -2.0914055730        4.8665217482  LPSA13    1               0.0000000000
     13518       433  ECLIPA    H59R          -27.5423733116       -0.9933171038        4.7146806457  LPSA13    1               0.0000000000
     13519       433  ECLIPA    H59S          -28.4423219740       -2.5272388705        4.9572091051  LPSA13    1               0.0000000000
     13520       433  ECLIPA    C510          -26.6101138220       -2.5922441056        3.6391632996  LPSA13    1               0.0000000000
     13521       433  ECLIPA    H510R         -26.2355242928       -3.6209624846        3.8216721335  LPSA13    1               0.0000000000
     13522       433  ECLIPA    H510S         -25.7229145835       -1.9283053325        3.5166251198  LPSA13    1               0.0000000000
     13523       433  ECLIPA    C511          -27.3645008048       -2.5934150328        2.2878259116  LPSA13    1               0.0000000000
     13524       433  ECLIPA    H511R         -28.0249554951       -3.4841076428        2.2679789338  LPSA13    1               0.0000000000
     13525       433  ECLIPA    H511S         -28.0091498126       -1.6903363703        2.2126612542  LPSA13    1               0.0000000000
     13526       433  ECLIPA    C512          -26.4727443935       -2.6535271319        1.0346597590  LPSA13    1               0.0000000000
     13527       433  ECLIPA    H512R         -27.0533827118       -2.3520126235        0.1301111434  LPSA13    1               0.0000000000
     13528       433  ECLIPA    H512S         -25.6116536140       -1.9508557197        1.1172243466  LPSA13    1               0.0000000000
     13529       433  ECLIPA    C513          -25.9946395193       -4.0518002367        0.6899374287  LPSA13    1               0.0000000000
     13530       433  ECLIPA    H513R         -26.8219496562       -4.7784465353        0.5495574832  LPSA13    1               0.0000000000
     13531       433  ECLIPA    H513S         -25.3175935375       -4.4721611078        1.4701343851  LPSA13    1               0.0000000000
     13532       433  ECLIPA    C514          -25.2357818137       -3.9950870626       -0.5997015371  LPSA13    1               0.0000000000
     13533       433  ECLIPA    H514R         -24.4656170232       -3.2299904440       -0.5361959703  LPSA13    1               0.0000000000
     13534       433  ECLIPA    H514S         -24.6797204777       -4.9133314404       -0.5718189678  LPSA13    1               0.0000000000
     13535       433  ECLIPA    H514T         -25.8453641945       -3.8904313827       -1.5246883493  LPSA13    1               0.0000000000
     13536       433  ECLIPA    C33           -25.5903710620       -7.6386953690       14.4621706107  LPSA13    1               0.0000000000
     13537       433  ECLIPA    H33R          -24.8407689343       -8.3594217531       14.8616735531  LPSA13    1               0.0000000000
     13538       433  ECLIPA    O33           -25.7589334491       -6.6362016436       15.4472323313  LPSA13    1               0.0000000000
     13539       433  ECLIPA    HO33          -25.8316138659       -6.9834917612       16.3450288820  LPSA13    1               0.0000000000
     13540       433  ECLIPA    C34           -24.9824392669       -6.9789892253       13.1988161050  LPSA13    1               0.0000000000
     13541       433  ECLIPA    H34R          -25.7044339650       -6.2287297673       12.8145609532  LPSA13    1               0.0000000000
     13542       433  ECLIPA    H34S          -24.8614342381       -7.7493911973       12.4072259343  LPSA13    1               0.0000000000
     13543       433  ECLIPA    C35           -23.6098411408       -6.2880408105       13.4349216468  LPSA13    1               0.0000000000
     13544       433  ECLIPA    H35R          -22.8495674287       -7.0311266314       13.7503986581  LPSA13    1               0.0000000000
     13545       433  ECLIPA    H35S          -23.7321835334       -5.5462146156       14.2584117881  LPSA13    1               0.0000000000
     13546       433  ECLIPA    C36           -23.0728037257       -5.5457588802       12.2006526736  LPSA13    1               0.0000000000
     13547       433  ECLIPA    H36R          -23.9809157731       -5.2123649064       11.6662067263  LPSA13    1               0.0000000000
     13548       433  ECLIPA    H36S          -22.4988926861       -6.2245575688       11.5251492266  LPSA13    1               0.0000000000
     13549       433  ECLIPA    C37           -22.2500937847       -4.2814995261       12.5227777084  LPSA13    1               0.0000000000
     13550       433  ECLIPA    H37R          -21.1901344495       -4.5887862686       12.6724252595  LPSA13    1               0.0000000000
     13551       433  ECLIPA    H37S          -22.5997780411       -3.8535820344       13.4885207435  LPSA13    1               0.0000000000
     13552       433  ECLIPA    C38           -22.3083539057       -3.1811508894       11.4350707398  LPSA13    1               0.0000000000
     13553       433  ECLIPA    H38R          -23.2799129145       -2.6411116075       11.4313815856  LPSA13    1               0.0000000000
     13554       433  ECLIPA    H38S          -21.5345161423       -2.4192193858       11.6825507275  LPSA13    1               0.0000000000
     13555       433  ECLIPA    C39           -22.0891191204       -3.7475137070       10.0233586205  LPSA13    1               0.0000000000
     13556       433  ECLIPA    H39R          -22.8311798634       -4.5529072074        9.8219386864  LPSA13    1               0.0000000000
     13557       433  ECLIPA    H39S          -21.0582869953       -4.1671016825        9.9800191085  LPSA13    1               0.0000000000
     13558       433  ECLIPA    C310          -22.2038455757       -2.7434962546        8.8725322330  LPSA13    1               0.0000000000
     13559       433  ECLIPA    H310R         -21.3131344116       -2.0810000794        8.9638228604  LPSA13    1               0.0000000000
     13560       433  ECLIPA    H310S         -23.1207418391       -2.1235428710        8.9582332128  LPSA13    1               0.0000000000
     13561       433  ECLIPA    C311          -22.3306036839       -3.4615694960        7.5147855378  LPSA13    1               0.0000000000
     13562       433  ECLIPA    H311R         -21.7284313586       -4.3970818627        7.5273015410  LPSA13    1               0.0000000000
     13563       433  ECLIPA    H311S         -23.3951117370       -3.7584147572        7.3645628455  LPSA13    1               0.0000000000
     13564       433  ECLIPA    C312          -21.9581616742       -2.6012170713        6.3016044552  LPSA13    1               0.0000000000
     13565       433  ECLIPA    H312R         -22.2524318374       -1.5456421455        6.4877225091  LPSA13    1               0.0000000000
     13566       433  ECLIPA    H312S         -20.8530876180       -2.6440948136        6.1815872472  LPSA13    1               0.0000000000
     13567       433  ECLIPA    C313          -22.6209847437       -3.0991720251        5.0045900783  LPSA13    1               0.0000000000
     13568       433  ECLIPA    H313R         -22.1075723051       -4.0519515217        4.7478433280  LPSA13    1               0.0000000000
     13569       433  ECLIPA    H313S         -23.6986120338       -3.3312162885        5.1751991131  LPSA13    1               0.0000000000
     13570       433  ECLIPA    C314          -22.5028420613       -2.1367129767        3.8186429429  LPSA13    1               0.0000000000
     13571       433  ECLIPA    H314R         -21.4320453538       -1.9477704840        3.5970811315  LPSA13    1               0.0000000000
     13572       433  ECLIPA    H314S         -22.9791538711       -2.5575284630        2.9052711605  LPSA13    1               0.0000000000
     13573       433  ECLIPA    H314T         -22.9967738470       -1.1678214768        4.0462273805  LPSA13    1               0.0000000000
     13574       433  ECLIPA    C11           -30.6963857427       -4.7753281015       11.2456309637  LPSA13    1               0.0000000000
     13575       433  ECLIPA    O11           -30.2418818388       -3.6499542672       11.0888781963  LPSA13    1               0.0000000000
     13576       433  ECLIPA    C12           -31.7738787076       -5.2989362621       10.3245937826  LPSA13    1               0.0000000000
     13577       433  ECLIPA    H12R          -32.7297217645       -4.7878060822       10.5438207935  LPSA13    1               0.0000000000
     13578       433  ECLIPA    H12S          -31.8739308344       -6.3897533069       10.5064670067  LPSA13    1               0.0000000000
     13579       433  ECLIPA    C13           -31.4235618270       -5.1033098930        8.8531328340  LPSA13    1               0.0000000000
     13580       433  ECLIPA    H13R          -30.9982186552       -4.0932183787        8.6424938524  LPSA13    1               0.0000000000
     13581       433  ECLIPA    O13           -32.6352014074       -5.2351718869        8.1187401680  LPSA13    1               0.0000000000
     13582       433  ECLIPA    HO13          -32.6644793813       -4.7433678509        7.2933726404  LPSA13    1               0.0000000000
     13583       433  ECLIPA    C14           -30.4050318746       -6.1820666522        8.4390445376  LPSA13    1               0.0000000000
     13584       433  ECLIPA    H14R          -30.6299539837       -7.1413932414        8.9582895385  LPSA13    1               0.0000000000
     13585       433  ECLIPA    H14S          -29.4118192355       -5.8183526608        8.7781579685  LPSA13    1               0.0000000000
     13586       433  ECLIPA    C15           -30.2982383896       -6.4681135668        6.9468300963  LPSA13    1               0.0000000000
     13587       433  ECLIPA    H15R          -31.3070764356       -6.7444439312        6.5688295443  LPSA13    1               0.0000000000
     13588       433  ECLIPA    H15S          -29.6475180044       -7.3634316772        6.8243841736  LPSA13    1               0.0000000000
     13589       433  ECLIPA    C16           -29.7250291293       -5.2708655832        6.1808321298  LPSA13    1               0.0000000000
     13590       433  ECLIPA    H16R          -28.6205525665       -5.2470141360        6.2759770582  LPSA13    1               0.0000000000
     13591       433  ECLIPA    H16S          -30.0884450406       -4.3313484494        6.6477458534  LPSA13    1               0.0000000000
     13592       433  ECLIPA    C17           -30.1079316937       -5.3391054413        4.7053970544  LPSA13    1               0.0000000000
     13593       433  ECLIPA    H17R          -29.9484429275       -6.3931675679        4.3860603455  LPSA13    1               0.0000000000
     13594       433  ECLIPA    H17S          -29.4648026943       -4.6961660679        4.0678522471  LPSA13    1               0.0000000000
     13595       433  ECLIPA    C18           -31.5718001627       -4.9594392341        4.4926132966  LPSA13    1               0.0000000000
     13596       433  ECLIPA    H18R          -32.1926945080       -5.6336715444        5.1109001608  LPSA13    1               0.0000000000
     13597       433  ECLIPA    H18S          -31.7411115641       -3.9008077323        4.7980816283  LPSA13    1               0.0000000000
     13598       433  ECLIPA    C19           -31.9974774574       -5.1088209555        3.0564958871  LPSA13    1               0.0000000000
     13599       433  ECLIPA    H19R          -33.0995024453       -4.9760949404        2.9472581630  LPSA13    1               0.0000000000
     13600       433  ECLIPA    H19S          -31.7398461945       -6.1274707432        2.6693001833  LPSA13    1               0.0000000000
     13601       433  ECLIPA    C110          -31.2709261355       -4.0746284288        2.2230862404  LPSA13    1               0.0000000000
     13602       433  ECLIPA    H110R         -31.4455954662       -3.0155728455        2.5139290480  LPSA13    1               0.0000000000
     13603       433  ECLIPA    H110S         -30.1912827675       -4.3139407415        2.1709312123  LPSA13    1               0.0000000000
     13604       433  ECLIPA    C111          -31.7834522393       -4.2189652012        0.8548676497  LPSA13    1               0.0000000000
     13605       433  ECLIPA    H111R         -32.0085868780       -5.2788963965        0.7766130093  LPSA13    1               0.0000000000
     13606       433  ECLIPA    H111S         -32.8561137008       -3.9794568791        0.9888971264  LPSA13    1               0.0000000000
     13607       433  ECLIPA    C112          -30.8730648868       -3.3854149929       -0.1448068400  LPSA13    1               0.0000000000
     13608       433  ECLIPA    H112R         -30.9716324171       -2.3682259666        0.2719726552  LPSA13    1               0.0000000000
     13609       433  ECLIPA    H112S         -29.7928070845       -3.5709374784       -0.1247046039  LPSA13    1               0.0000000000
     13610       433  ECLIPA    C113          -31.2406155470       -3.4286869031       -1.6430165414  LPSA13    1               0.0000000000
     13611       433  ECLIPA    H113R         -30.5855045977       -4.1670932794       -2.0752910281  LPSA13    1               0.0000000000
     13612       433  ECLIPA    H113S         -32.3195649576       -3.6362445781       -1.7898794574  LPSA13    1               0.0000000000
     13613       433  ECLIPA    C114          -30.9666824404       -2.5818289931       -2.7819895134  LPSA13    1               0.0000000000
     13614       433  ECLIPA    H114R         -31.2770143402       -1.5729998591       -2.4925473400  LPSA13    1               0.0000000000
     13615       433  ECLIPA    H114S         -29.9172987942       -2.6122900570       -3.1145713121  LPSA13    1               0.0000000000
     13616       433  ECLIPA    H114T         -31.6349682492       -2.9885967649       -3.6210359604  LPSA13    1               0.0000000000
     13617       434  AKDO      C1            -25.1003970572       -2.2506542020       22.4241983580  LPSA13    2               0.0000000000
     13618       434  AKDO      O11           -24.2590748753       -1.3139068409       22.4376774301  LPSA13    2               0.0000000000
     13619       434  AKDO      O12           -24.8725876638       -3.4519358877       22.1059785690  LPSA13    2               0.0000000000
     13620       434  AKDO      C2            -26.5564412186       -1.9154185792       22.8768067313  LPSA13    2               0.0000000000
     13621       434  AKDO      C6            -27.9301579487       -0.1955323117       23.8600856342  LPSA13    2               0.0000000000
     13622       434  AKDO      H6            -28.5661756586       -0.3174980249       22.9452080626  LPSA13    2               0.0000000000
     13623       434  AKDO      O6            -26.6059675014       -0.5895554684       23.4695401109  LPSA13    2               0.0000000000
     13624       434  AKDO      C3            -27.1025964595       -2.8914487503       23.9250154219  LPSA13    2               0.0000000000
     13625       434  AKDO      H31           -26.4022565902       -2.9458026444       24.7877675145  LPSA13    2               0.0000000000
     13626       434  AKDO      H32           -27.1598760996       -3.8988748243       23.4511758696  LPSA13    2               0.0000000000
     13627       434  AKDO      C4            -28.4788635174       -2.5118805990       24.3679468909  LPSA13    2               0.0000000000
     13628       434  AKDO      H4            -29.1481133388       -2.4600437330       23.4782584704  LPSA13    2               0.0000000000
     13629       434  AKDO      O4            -28.9774325736       -3.4037150583       25.3710342649  LPSA13    2               0.0000000000
     13630       434  AKDO      C5            -28.4865490388       -1.1227875634       24.9586366669  LPSA13    2               0.0000000000
     13631       434  AKDO      H5            -29.5576397166       -0.8288226179       25.0840234235  LPSA13    2               0.0000000000
     13632       434  AKDO      O5            -27.7972347268       -1.1746267537       26.2517328939  LPSA13    2               0.0000000000
     13633       434  AKDO      C7            -27.9938705205        1.2960766979       24.1612103636  LPSA13    2               0.0000000000
     13634       434  AKDO      H7            -27.3991862871        1.4838592836       25.0763080511  LPSA13    2               0.0000000000
     13635       434  AKDO      O7            -29.3653110066        1.6859005658       24.3454314816  LPSA13    2               0.0000000000
     13636       434  AKDO      HO7           -29.6583239709        1.8622194420       23.4522992345  LPSA13    2               0.0000000000
     13637       434  AKDO      C8            -27.4056898622        2.1086944777       23.0161849800  LPSA13    2               0.0000000000
     13638       434  AKDO      H81           -26.3565493992        1.7364929174       22.8524801119  LPSA13    2               0.0000000000
     13639       434  AKDO      H82           -27.9654260358        1.8845086326       22.0816565547  LPSA13    2               0.0000000000
     13640       434  AKDO      O8            -27.4240941385        3.5455605210       23.2547379810  LPSA13    2               0.0000000000
     13641       434  AKDO      HO8           -26.5439133852        3.8110824933       22.9233833163  LPSA13    2               0.0000000000
     13642       435  AKDO      C1            -30.4973609009       -4.4855292749       23.8216135487  LPSA13    3               1.0000000000
     13643       435  AKDO      O11           -30.0398612984       -4.7852645160       22.6907203273  LPSA13    3               1.0000000000
     13644       435  AKDO      O12           -31.5716726131       -3.8895118083       24.1041746811  LPSA13    3               1.0000000000
     13645       435  AKDO      C2            -29.5403015872       -4.6529519185       25.0240518300  LPSA13    3               1.0000000000
     13646       435  AKDO      C6            -27.5692777837       -5.8229646908       25.7865841991  LPSA13    3               1.0000000000
     13647       435  AKDO      H6            -27.0474516489       -4.8511988506       25.9758004138  LPSA13    3               1.0000000000
     13648       435  AKDO      O6            -28.5437246232       -5.6568980728       24.7312939868  LPSA13    3               1.0000000000
     13649       435  AKDO      C3            -30.2447591419       -5.0806587976       26.3274946077  LPSA13    3               1.0000000000
     13650       435  AKDO      H31           -30.7662583555       -6.0497447086       26.1521716411  LPSA13    3               1.0000000000
     13651       435  AKDO      H32           -31.0400400985       -4.3534574758       26.5939316756  LPSA13    3               1.0000000000
     13652       435  AKDO      C4            -29.2282942431       -5.2043979548       27.4264114842  LPSA13    3               1.0000000000
     13653       435  AKDO      H4            -28.6552191621       -4.2502869714       27.4814922623  LPSA13    3               1.0000000000
     13654       435  AKDO      O4            -29.7923162125       -5.4300957569       28.7023591479  LPSA13    3               1.0000000000
     13655       435  AKDO      HO4           -29.4879915692       -4.7813616707       29.3538057171  LPSA13    3               1.0000000000
     13656       435  AKDO      C5            -28.2575080156       -6.2820285316       27.0559806519  LPSA13    3               1.0000000000
     13657       435  AKDO      H5            -27.5221176531       -6.3804468456       27.8849285250  LPSA13    3               1.0000000000
     13658       435  AKDO      O5            -28.8970397558       -7.5466641983       26.8670806415  LPSA13    3               1.0000000000
     13659       435  AKDO      HO5           -29.5527117072       -7.3967882042       26.1789929275  LPSA13    3               1.0000000000
     13660       435  AKDO      C7            -26.5174437858       -6.8007249776       25.3415241826  LPSA13    3               1.0000000000
     13661       435  AKDO      H7            -27.0116300190       -7.7820956218       25.1328391973  LPSA13    3               1.0000000000
     13662       435  AKDO      O7            -25.5490178489       -6.9589459996       26.3846150445  LPSA13    3               1.0000000000
     13663       435  AKDO      HO7           -25.0023889547       -7.7200115761       26.1642480865  LPSA13    3               1.0000000000
     13664       435  AKDO      C8            -25.8344533092       -6.2762102991       24.1058862084  LPSA13    3               1.0000000000
     13665       435  AKDO      H81           -26.5919370454       -6.0552769448       23.3183583824  LPSA13    3               1.0000000000
     13666       435  AKDO      H82           -25.2831014530       -5.3344568516       24.3187083572  LPSA13    3               1.0000000000
     13667       435  AKDO      O8            -24.9429543067       -7.2717125895       23.6076708050  LPSA13    3               1.0000000000
     13668       435  AKDO      HO8           -25.5506004111       -7.8613566587       23.1847530622  LPSA13    3               1.0000000000
     13669       436  AHEP      C1            -28.2447430947       -0.2743262950       27.2514546333  LPSA13    4               2.0000000000
     13670       436  AHEP      H1            -27.8376335254        0.7002225825       26.9116806528  LPSA13    4               2.0000000000
     13671       436  AHEP      C5            -30.3618233938       -1.1693584260       27.9900945216  LPSA13    4               2.0000000000
     13672       436  AHEP      H5            -30.0523089020       -2.1276527611       27.5115629840  LPSA13    4               2.0000000000
     13673       436  AHEP      O5            -29.6672002914       -0.1043279995       27.2973890833  LPSA13    4               2.0000000000
     13674       436  AHEP      C2            -27.7418554878       -0.3855788365       28.7100800425  LPSA13    4               2.0000000000
     13675       436  AHEP      H2            -26.6513008952       -0.5942385774       28.6809595339  LPSA13    4               2.0000000000
     13676       436  AHEP      O2            -27.8718840488        0.8695237451       29.3850225685  LPSA13    4               2.0000000000
     13677       436  AHEP      HO2           -27.0607687424        1.0434731402       29.8717128076  LPSA13    4               2.0000000000
     13678       436  AHEP      C3            -28.4025272763       -1.5035789075       29.4993675363  LPSA13    4               2.0000000000
     13679       436  AHEP      H3            -28.1525429244       -2.5116193821       29.0966691768  LPSA13    4               2.0000000000
     13680       436  AHEP      O3            -27.9985919658       -1.4282563847       30.8858619216  LPSA13    4               2.0000000000
     13681       436  AHEP      C4            -29.8942564782       -1.2523516393       29.4496433937  LPSA13    4               2.0000000000
     13682       436  AHEP      H4            -30.1858454395       -0.3065082843       29.9668669693  LPSA13    4               2.0000000000
     13683       436  AHEP      O4            -30.4894530378       -2.3947595103       30.0455304747  LPSA13    4               2.0000000000
     13684       436  AHEP      P4            -31.3155137701       -2.2810616105       31.4774088491  LPSA13    4               2.0000000000
     13685       436  AHEP      OP42          -31.1047192015       -3.6614055044       32.1014641864  LPSA13    4               2.0000000000
     13686       436  AHEP      OP43          -32.7348153199       -1.9877780641       30.9988512942  LPSA13    4               2.0000000000
     13687       436  AHEP      OP44          -30.6791342645       -1.1397928511       32.2875293983  LPSA13    4               2.0000000000
     13688       436  AHEP      C6            -31.8836185993       -0.9803142140       27.7942518816  LPSA13    4               2.0000000000
     13689       436  AHEP      H6            -32.3581912649       -1.9539099838       28.0934827358  LPSA13    4               2.0000000000
     13690       436  AHEP      O6            -32.4509726333        0.0475425237       28.6248530820  LPSA13    4               2.0000000000
     13691       436  AHEP      HO6           -33.0621805253       -0.3668653516       29.2677954886  LPSA13    4               2.0000000000
     13692       436  AHEP      C7            -32.3054887384       -0.6748956334       26.3403166164  LPSA13    4               2.0000000000
     13693       436  AHEP      H71           -33.3983085802       -0.8326472636       26.2158787462  LPSA13    4               2.0000000000
     13694       436  AHEP      H72           -31.7695221219       -1.3678482421       25.6562983874  LPSA13    4               2.0000000000
     13695       436  AHEP      O7            -32.0503178824        0.6618003490       25.8716731374  LPSA13    4               2.0000000000
     13696       436  AHEP      HO7           -32.6111461384        1.1979812822       26.4521875627  LPSA13    4               2.0000000000
     13697       437  AHEP      C1            -27.3613308224       -2.5416652652       31.4637947719  LPSA13    5               3.0000000000
     13698       437  AHEP      H1            -27.7163089173       -3.4876514150       30.9871385493  LPSA13    5               3.0000000000
     13699       437  AHEP      C5            -25.4024277126       -1.2673980872       31.9573322068  LPSA13    5               3.0000000000
     13700       437  AHEP      H5            -25.9740562105       -0.3800523107       31.5974633976  LPSA13    5               3.0000000000
     13701       437  AHEP      O5            -25.9384611026       -2.4321287761       31.2775832301  LPSA13    5               3.0000000000
     13702       437  AHEP      C2            -27.6526360931       -2.6445860651       32.9674880212  LPSA13    5               3.0000000000
     13703       437  AHEP      H2            -28.7643422729       -2.6581154739       33.0906185906  LPSA13    5               3.0000000000
     13704       437  AHEP      O2            -27.1352600349       -3.8896146683       33.4846111009  LPSA13    5               3.0000000000
     13705       437  AHEP      HO2           -27.8776142896       -4.4743046130       33.6364778208  LPSA13    5               3.0000000000
     13706       437  AHEP      C3            -27.1238712163       -1.4287641065       33.7348662062  LPSA13    5               3.0000000000
     13707       437  AHEP      H3            -27.6118340759       -0.5124164829       33.3158683077  LPSA13    5               3.0000000000
     13708       437  AHEP      O3            -27.3354319676       -1.4746923127       35.1699070637  LPSA13    5               3.0000000000
     13709       437  AHEP      C4            -25.6353103883       -1.3566933240       33.4659680103  LPSA13    5               3.0000000000
     13710       437  AHEP      H4            -25.1322475222       -2.2781625880       33.8402383814  LPSA13    5               3.0000000000
     13711       437  AHEP      O4            -25.1050239335       -0.1776544403       34.0712121459  LPSA13    5               3.0000000000
     13712       437  AHEP      P4            -24.0066291313       -0.2517639129       35.3210882150  LPSA13    5               3.0000000000
     13713       437  AHEP      OP42          -23.9684522457        1.1552975873       35.9232317699  LPSA13    5               3.0000000000
     13714       437  AHEP      OP43          -22.6643128261       -0.7067602748       34.7530095711  LPSA13    5               3.0000000000
     13715       437  AHEP      OP44          -24.5147382955       -1.2766365352       36.3324668534  LPSA13    5               3.0000000000
     13716       437  AHEP      C6            -23.9348071919       -1.0463746491       31.5694618814  LPSA13    5               3.0000000000
     13717       437  AHEP      H6            -23.5888315131       -0.0956189747       32.0451536578  LPSA13    5               3.0000000000
     13718       437  AHEP      O6            -23.1076709841       -2.1377499908       32.0326194973  LPSA13    5               3.0000000000
     13719       437  AHEP      HO6           -23.2163016978       -2.9068637808       31.4851615674  LPSA13    5               3.0000000000
     13720       437  AHEP      C7            -23.7884655574       -0.8381795388       30.0705305101  LPSA13    5               3.0000000000
     13721       437  AHEP      H71           -22.9880845584       -0.0740325081       29.9166320152  LPSA13    5               3.0000000000
     13722       437  AHEP      H72           -24.7017116113       -0.3897107888       29.6179585388  LPSA13    5               3.0000000000
     13723       437  AHEP      O7            -23.3435072171       -2.0394950084       29.4253456913  LPSA13    5               3.0000000000
     13724       438  AHEP      C1            -24.3713628410       -2.7296884101       28.7835410828  LPSA13    6               4.0000000000
     13725       438  AHEP      H1            -25.3678378850       -2.3051811489       29.0261645411  LPSA13    6               4.0000000000
     13726       438  AHEP      C5            -22.9388543765       -3.1644704847       26.9558320746  LPSA13    6               4.0000000000
     13727       438  AHEP      H5            -22.1364573244       -2.6283394234       27.5185175947  LPSA13    6               4.0000000000
     13728       438  AHEP      O5            -24.2062137231       -2.6222388712       27.3700654771  LPSA13    6               4.0000000000
     13729       438  AHEP      C2            -24.3572074675       -4.1807098677       29.2244024264  LPSA13    6               4.0000000000
     13730       438  AHEP      H2            -24.4682111076       -4.1861214487       30.3345589416  LPSA13    6               4.0000000000
     13731       438  AHEP      O2            -25.5056522383       -4.8558719642       28.7387263137  LPSA13    6               4.0000000000
     13732       438  AHEP      HO2           -26.0840298996       -5.0613989510       29.4695506035  LPSA13    6               4.0000000000
     13733       438  AHEP      C3            -23.0239246351       -4.8196113191       28.8443428528  LPSA13    6               4.0000000000
     13734       438  AHEP      H3            -22.2163210273       -4.2689612966       29.3851374955  LPSA13    6               4.0000000000
     13735       438  AHEP      O3            -22.9518370985       -6.2096669799       29.2382474848  LPSA13    6               4.0000000000
     13736       438  AHEP      HO3           -22.3779550233       -6.3557888690       29.9949671729  LPSA13    6               4.0000000000
     13737       438  AHEP      C4            -22.8499751287       -4.6457510565       27.3336173675  LPSA13    6               4.0000000000
     13738       438  AHEP      H4            -23.6295823759       -5.2304119661       26.7941244303  LPSA13    6               4.0000000000
     13739       438  AHEP      O4            -21.5788790000       -5.1157341472       26.9098069176  LPSA13    6               4.0000000000
     13740       438  AHEP      HO4           -20.9183695016       -4.4867428503       27.1907448805  LPSA13    6               4.0000000000
     13741       438  AHEP      C6            -22.6288769929       -2.8596550638       25.4916876576  LPSA13    6               4.0000000000
     13742       438  AHEP      H6            -21.5743036135       -3.1729178592       25.3246427033  LPSA13    6               4.0000000000
     13743       438  AHEP      O6            -23.3756892512       -3.6508384028       24.5707372849  LPSA13    6               4.0000000000
     13744       438  AHEP      HO6           -23.9300328515       -3.0713953694       24.0136683198  LPSA13    6               4.0000000000
     13745       438  AHEP      C7            -22.6448810705       -1.3732365611       25.1670286044  LPSA13    6               4.0000000000
     13746       438  AHEP      H71           -22.2623791329       -1.2046108106       24.1359861701  LPSA13    6               4.0000000000
     13747       438  AHEP      H72           -21.9496048751       -0.8792928975       25.8684247190  LPSA13    6               4.0000000000
     13748       438  AHEP      O7            -23.9183559027       -0.7394676086       25.2889547126  LPSA13    6               4.0000000000
     13749       438  AHEP      HO7           -24.0536904363       -0.5499909225       26.2191428427  LPSA13    6               4.0000000000
     13750       439  AGLC      C1            -28.4967357162       -0.8471172220       35.6613213745  LPSA13    7               4.0000000000
     13751       439  AGLC      H1            -28.6831342766        0.1220709737       35.1539551928  LPSA13    7               4.0000000000
     13752       439  AGLC      C5            -29.5431296882       -2.9477933893       36.0945796892  LPSA13    7               4.0000000000
     13753       439  AGLC      H5            -28.5921451745       -3.4632893540       35.8172188694  LPSA13    7               4.0000000000
     13754       439  AGLC      O5            -29.6250203199       -1.6778977707       35.4334495200  LPSA13    7               4.0000000000
     13755       439  AGLC      C2            -28.4879517642       -0.5863508775       37.1728129630  LPSA13    7               4.0000000000
     13756       439  AGLC      H2            -29.5118113716       -0.2334846898       37.4341536273  LPSA13    7               4.0000000000
     13757       439  AGLC      O2            -27.6108038544        0.4725361393       37.5663318856  LPSA13    7               4.0000000000
     13758       439  AGLC      HO2           -26.6997758280        0.1109830732       37.5541509646  LPSA13    7               4.0000000000
     13759       439  AGLC      C3            -28.3060485768       -1.8585862452       37.9738912533  LPSA13    7               4.0000000000
     13760       439  AGLC      H3            -27.3791783066       -2.3544846997       37.6088124918  LPSA13    7               4.0000000000
     13761       439  AGLC      O3            -28.1636315410       -1.6087276396       39.4011907840  LPSA13    7               4.0000000000
     13762       439  AGLC      C4            -29.5073513214       -2.7399136108       37.6081489755  LPSA13    7               4.0000000000
     13763       439  AGLC      H4            -30.4526046974       -2.2295875109       37.9282687361  LPSA13    7               4.0000000000
     13764       439  AGLC      O4            -29.4212744833       -4.0155786267       38.2382918998  LPSA13    7               4.0000000000
     13765       439  AGLC      HO4           -30.2357331351       -4.2169779932       38.7109736720  LPSA13    7               4.0000000000
     13766       439  AGLC      C6            -30.6568805316       -3.8056778466       35.5036288867  LPSA13    7               4.0000000000
     13767       439  AGLC      H61           -30.4948998385       -3.8777607642       34.4013158990  LPSA13    7               4.0000000000
     13768       439  AGLC      H62           -30.6075089194       -4.8389535487       35.9048133701  LPSA13    7               4.0000000000
     13769       439  AGLC      O6            -31.9721478954       -3.2943323187       35.7392071984  LPSA13    7               4.0000000000
     13770       439  AGLC      HO6           -32.2690012669       -3.7177073905       36.5341506741  LPSA13    7               4.0000000000
     13771       440  AGLC      C1            -26.9215081924       -2.0545245883       39.9230519456  LPSA13    8               5.0000000000
     13772       440  AGLC      H1            -26.6899197902       -3.0603413475       39.5109998745  LPSA13    8               5.0000000000
     13773       440  AGLC      C5            -25.8425409332        0.1349919263       40.2157821307  LPSA13    8               5.0000000000
     13774       440  AGLC      H5            -26.7891282819        0.6119812041       39.8829298943  LPSA13    8               5.0000000000
     13775       440  AGLC      O5            -25.7936966327       -1.1872948456       39.6143800641  LPSA13    8               5.0000000000
     13776       440  AGLC      C2            -26.9470052104       -2.2218997058       41.4366069047  LPSA13    8               5.0000000000
     13777       440  AGLC      H2            -25.9643341415       -2.6623152574       41.7043369297  LPSA13    8               5.0000000000
     13778       440  AGLC      O2            -27.9451972436       -3.1142937862       41.9494751039  LPSA13    8               5.0000000000
     13779       440  AGLC      C3            -27.0747911975       -0.8959875568       42.1287332273  LPSA13    8               5.0000000000
     13780       440  AGLC      H3            -28.0148601389       -0.4321092641       41.7254319479  LPSA13    8               5.0000000000
     13781       440  AGLC      O3            -27.2477759656       -1.1387601375       43.5466826308  LPSA13    8               5.0000000000
     13782       440  AGLC      C4            -25.8879274614       -0.0448533550       41.7290608477  LPSA13    8               5.0000000000
     13783       440  AGLC      H4            -24.9643293416       -0.5876309069       42.0371058588  LPSA13    8               5.0000000000
     13784       440  AGLC      O4            -25.8973495858        1.2133802307       42.3852415108  LPSA13    8               5.0000000000
     13785       440  AGLC      HO4           -26.8015794984        1.5332541405       42.3706442236  LPSA13    8               5.0000000000
     13786       440  AGLC      C6            -24.7236183039        1.0982132558       39.7438039835  LPSA13    8               5.0000000000
     13787       440  AGLC      H61           -24.6255328028        1.0940289300       38.6314681932  LPSA13    8               5.0000000000
     13788       440  AGLC      H62           -24.9876891256        2.1482479477       40.0185004367  LPSA13    8               5.0000000000
     13789       440  AGLC      O6            -23.4470673502        0.8264169179       40.3391499717  LPSA13    8               5.0000000000
     13790       440  AGLC      HO6           -23.4273489939        1.2358439847       41.2092371416  LPSA13    8               5.0000000000
     13791       441  AGAL      C1            -27.9757364221       -4.4184575187       41.4340126735  LPSA13    9               6.0000000000
     13792       441  AGAL      H1            -27.9473623653       -4.4124643965       40.3269836434  LPSA13    9               6.0000000000
     13793       441  AGAL      C5            -26.9019850130       -5.4519758870       43.2758641621  LPSA13    9               6.0000000000
     13794       441  AGAL      H5            -26.9942808800       -4.4487628172       43.7518392436  LPSA13    9               6.0000000000
     13795       441  AGAL      O5            -26.8693663721       -5.2290300908       41.8600488825  LPSA13    9               6.0000000000
     13796       441  AGAL      C2            -29.3051371094       -5.0470428843       41.8407352969  LPSA13    9               6.0000000000
     13797       441  AGAL      H2            -29.3179748456       -6.0503649783       41.3665024447  LPSA13    9               6.0000000000
     13798       441  AGAL      O2            -30.3519125013       -4.2655562127       41.2094799806  LPSA13    9               6.0000000000
     13799       441  AGAL      C3            -29.3587344199       -5.2759657528       43.3411933431  LPSA13    9               6.0000000000
     13800       441  AGAL      H3            -29.2619167551       -4.3069586453       43.8857298961  LPSA13    9               6.0000000000
     13801       441  AGAL      O3            -30.6065517317       -5.8091968978       43.7617126638  LPSA13    9               6.0000000000
     13802       441  AGAL      HO3           -31.2460552275       -5.3930504212       43.1810821395  LPSA13    9               6.0000000000
     13803       441  AGAL      C4            -28.1770207307       -6.1865024562       43.6846077857  LPSA13    9               6.0000000000
     13804       441  AGAL      H4            -28.1493613636       -6.3602993087       44.7836478770  LPSA13    9               6.0000000000
     13805       441  AGAL      O4            -28.2481891252       -7.4605245357       43.0367670110  LPSA13    9               6.0000000000
     13806       441  AGAL      HO4           -27.8553647055       -8.1047652744       43.6442740690  LPSA13    9               6.0000000000
     13807       441  AGAL      C6            -25.6011544145       -6.0119046099       43.8301067831  LPSA13    9               6.0000000000
     13808       441  AGAL      H61           -24.7559004735       -5.3253684592       43.6174780248  LPSA13    9               6.0000000000
     13809       441  AGAL      H62           -25.7234638142       -6.0443629872       44.9280178734  LPSA13    9               6.0000000000
     13810       441  AGAL      O6            -25.2383490003       -7.3205446926       43.3977669568  LPSA13    9               6.0000000000
     13811       441  AGAL      HO6           -24.5967653392       -7.2340921005       42.6880780438  LPSA13    9               6.0000000000
     13812       442  AGAL      C1            -31.6177506285       -3.9419586010       41.7499351059  LPSA13    10              7.0000000000
     13813       442  AGAL      H1            -32.2252434733       -4.8709718535       41.8298260869  LPSA13    10              7.0000000000
     13814       442  AGAL      C5            -30.9377924039       -2.0116535902       43.0435589884  LPSA13    10              7.0000000000
     13815       442  AGAL      H5            -29.9215202349       -2.2110846951       42.6423364503  LPSA13    10              7.0000000000
     13816       442  AGAL      O5            -31.5929902395       -3.3047203829       43.0549206714  LPSA13    10              7.0000000000
     13817       442  AGAL      C2            -32.3111834857       -3.0080869092       40.7605757852  LPSA13    10              7.0000000000
     13818       442  AGAL      H2            -33.3391983663       -2.8346254722       41.1347043484  LPSA13    10              7.0000000000
     13819       442  AGAL      O2            -32.5438370684       -3.5904251803       39.4848330520  LPSA13    10              7.0000000000
     13820       442  AGAL      HO2           -33.4904805469       -3.4755537730       39.3296351433  LPSA13    10              7.0000000000
     13821       442  AGAL      C3            -31.5733266418       -1.6744448852       40.6916347676  LPSA13    10              7.0000000000
     13822       442  AGAL      H3            -30.5096468517       -1.8977687582       40.4405861470  LPSA13    10              7.0000000000
     13823       442  AGAL      O3            -32.0676406860       -0.7888181699       39.6818437288  LPSA13    10              7.0000000000
     13824       442  AGAL      HO3           -31.3860583892       -0.6915207466       39.0173720083  LPSA13    10              7.0000000000
     13825       442  AGAL      C4            -31.5973033752       -1.0551114690       42.0680844720  LPSA13    10              7.0000000000
     13826       442  AGAL      H4            -31.0203288377       -0.0995579043       42.0756449331  LPSA13    10              7.0000000000
     13827       442  AGAL      O4            -32.9210902794       -0.7724451773       42.4724408962  LPSA13    10              7.0000000000
     13828       442  AGAL      HO4           -33.3792643296       -1.6026674433       42.5997082158  LPSA13    10              7.0000000000
     13829       442  AGAL      C6            -30.6686725950       -1.3818591185       44.4214892208  LPSA13    10              7.0000000000
     13830       442  AGAL      H61           -30.2269863089       -2.1413308458       45.0894817772  LPSA13    10              7.0000000000
     13831       442  AGAL      H62           -29.9046055117       -0.5835160746       44.2659943326  LPSA13    10              7.0000000000
     13832       442  AGAL      O6            -31.7798656347       -0.7865950662       45.1037510403  LPSA13    10              7.0000000000
     13833       442  AGAL      HO6           -31.9807492591       -1.2667220380       45.9120400681  LPSA13    10              7.0000000000
     13834       443  BGLC      C1            -26.1721289512       -1.0949306847       44.4833401297  LPSA13    11              6.0000000000
     13835       443  BGLC      H1            -25.8517370756       -0.0429156089       44.6165051373  LPSA13    11              6.0000000000
     13836       443  BGLC      C5            -24.0025430888       -2.0358513330       45.1079521741  LPSA13    11              6.0000000000
     13837       443  BGLC      H5            -23.5800608173       -1.0318974842       45.3515611676  LPSA13    11              6.0000000000
     13838       443  BGLC      O5            -25.0686934941       -1.9609160647       44.1100085191  LPSA13    11              6.0000000000
     13839       443  BGLC      C2            -26.7782734468       -1.6125036546       45.7917270764  LPSA13    11              6.0000000000
     13840       443  BGLC      H2            -27.1819924892       -2.6452706147       45.6442538230  LPSA13    11              6.0000000000
     13841       443  BGLC      O2            -27.8735791031       -0.7853590971       46.2088976509  LPSA13    11              6.0000000000
     13842       443  BGLC      HO2           -28.6283165500       -1.3769384261       46.2863454411  LPSA13    11              6.0000000000
     13843       443  BGLC      C3            -25.7596201308       -1.7036960117       46.9018091456  LPSA13    11              6.0000000000
     13844       443  BGLC      H3            -25.3919063362       -0.6906603703       47.1662076748  LPSA13    11              6.0000000000
     13845       443  BGLC      O3            -26.3696217393       -2.3406185303       48.0457473651  LPSA13    11              6.0000000000
     13846       443  BGLC      C4            -24.6278310672       -2.6005880435       46.4120347219  LPSA13    11              6.0000000000
     13847       443  BGLC      H4            -25.0638475623       -3.5995342583       46.1795463308  LPSA13    11              6.0000000000
     13848       443  BGLC      O4            -23.6670981811       -2.8246579078       47.4391580942  LPSA13    11              6.0000000000
     13849       443  BGLC      HO4           -24.1059630630       -3.3106869841       48.1535435467  LPSA13    11              6.0000000000
     13850       443  BGLC      C6            -22.8327089034       -2.8471917132       44.5029775095  LPSA13    11              6.0000000000
     13851       443  BGLC      H61           -22.1512230799       -3.2204416962       45.2981359321  LPSA13    11              6.0000000000
     13852       443  BGLC      H62           -23.2500464918       -3.7060256958       43.9468643817  LPSA13    11              6.0000000000
     13853       443  BGLC      O6            -22.0060905492       -2.1600816494       43.5516983131  LPSA13    11              6.0000000000
     13854       443  BGLC      HO6           -21.1929739749       -1.8362493803       43.9781511455  LPSA13    11              6.0000000000
     13855       444  BGLCNA    C1            -26.3302220867       -1.7227857659       49.3150304523  LPSA13    12              7.0000000000
     13856       444  BGLCNA    H1            -27.1637335731       -0.9956298117       49.3779988161  LPSA13    12              7.0000000000
     13857       444  BGLCNA    C5            -25.0899344251       -0.4323688391       50.8737926785  LPSA13    12              7.0000000000
     13858       444  BGLCNA    H5            -25.9077198032        0.3164681161       50.9764124508  LPSA13    12              7.0000000000
     13859       444  BGLCNA    O5            -25.1053550385       -1.0525602315       49.5668787244  LPSA13    12              7.0000000000
     13860       444  BGLCNA    C2            -26.5268828110       -2.8200258838       50.3503941184  LPSA13    12              7.0000000000
     13861       444  BGLCNA    H2            -25.6068870797       -3.4624988838       50.3005553665  LPSA13    12              7.0000000000
     13862       444  BGLCNA    N             -27.7262492102       -3.5546363768       50.0464750331  LPSA13    12              7.0000000000
     13863       444  BGLCNA    HN            -28.5448918758       -3.0093998959       49.9381109812  LPSA13    12              7.0000000000
     13864       444  BGLCNA    C             -27.7323018001       -4.8804162119       49.9102307303  LPSA13    12              7.0000000000
     13865       444  BGLCNA    O             -26.7418771371       -5.5469865004       50.1187705240  LPSA13    12              7.0000000000
     13866       444  BGLCNA    CT            -29.0314012323       -5.5448372787       49.5428007227  LPSA13    12              7.0000000000
     13867       444  BGLCNA    HT1           -29.4145962541       -6.1299048371       50.4029141538  LPSA13    12              7.0000000000
     13868       444  BGLCNA    HT2           -28.8769114211       -6.2598621508       48.7095553071  LPSA13    12              7.0000000000
     13869       444  BGLCNA    HT3           -29.7663822851       -4.7720225774       49.2370081203  LPSA13    12              7.0000000000
     13870       444  BGLCNA    C3            -26.5862534433       -2.2627728233       51.7545135871  LPSA13    12              7.0000000000
     13871       444  BGLCNA    H3            -27.4460482352       -1.5590058125       51.8029572497  LPSA13    12              7.0000000000
     13872       444  BGLCNA    O3            -26.8351755040       -3.2988118889       52.7526390192  LPSA13    12              7.0000000000
     13873       444  BGLCNA    C4            -25.2827195366       -1.5124371513       51.9495634967  LPSA13    12              7.0000000000
     13874       444  BGLCNA    H4            -24.4101396797       -2.2069921816       51.8897361474  LPSA13    12              7.0000000000
     13875       444  BGLCNA    O4            -25.2850719437       -0.9608317390       53.2447551211  LPSA13    12              7.0000000000
     13876       444  BGLCNA    HO4           -25.8370218805       -0.1712532607       53.3087698015  LPSA13    12              7.0000000000
     13877       444  BGLCNA    C6            -23.7884377017        0.3376231094       50.9214483824  LPSA13    12              7.0000000000
     13878       444  BGLCNA    H61           -23.6742270269        0.8639669742       51.8877768841  LPSA13    12              7.0000000000
     13879       444  BGLCNA    H62           -22.9361962585       -0.3738889948       50.8270202563  LPSA13    12              7.0000000000
     13880       444  BGLCNA    O6            -23.7458774846        1.3250075385       49.8782178902  LPSA13    12              7.0000000000
     13881       444  BGLCNA    HO6           -24.0437686859        2.1526915247       50.2502603111  LPSA13    12              7.0000000000
     13882       445  AGAL      C1            -27.6976380718       -2.9248290343       53.8314444522  LPSA13    13              8.0000000000
     13883       445  AGAL      H1            -27.4635531894       -1.8823678323       54.1536479911  LPSA13    13              8.0000000000
     13884       445  AGAL      C5            -29.4539577531       -4.4658167836       53.2697179660  LPSA13    13              8.0000000000
     13885       445  AGAL      H5            -28.7051198948       -4.8536922295       52.5393812522  LPSA13    13              8.0000000000
     13886       445  AGAL      O5            -29.0979382525       -3.0736546259       53.4723596071  LPSA13    13              8.0000000000
     13887       445  AGAL      C2            -27.5269904695       -3.7670110035       55.1062044926  LPSA13    13              8.0000000000
     13888       445  AGAL      H2            -28.3290031109       -3.4118612292       55.7974813868  LPSA13    13              8.0000000000
     13889       445  AGAL      O2            -26.2713698415       -3.5230606964       55.7587931781  LPSA13    13              8.0000000000
     13890       445  AGAL      C3            -27.8451050363       -5.2333120508       54.8946496645  LPSA13    13              8.0000000000
     13891       445  AGAL      H3            -27.2665160457       -5.5841865561       54.0155843322  LPSA13    13              8.0000000000
     13892       445  AGAL      O3            -27.4834068226       -6.0639479133       55.9941823834  LPSA13    13              8.0000000000
     13893       445  AGAL      HO3           -27.1702822921       -6.9146754781       55.6752791376  LPSA13    13              8.0000000000
     13894       445  AGAL      C4            -29.2962545438       -5.3324768137       54.5202866566  LPSA13    13              8.0000000000
     13895       445  AGAL      H4            -29.5262068743       -6.3898982817       54.2398366170  LPSA13    13              8.0000000000
     13896       445  AGAL      O4            -30.1626054459       -4.9815491485       55.6020804281  LPSA13    13              8.0000000000
     13897       445  AGAL      HO4           -29.9654329018       -4.1205528651       55.9850071083  LPSA13    13              8.0000000000
     13898       445  AGAL      C6            -30.7617130449       -4.6968540374       52.5452142071  LPSA13    13              8.0000000000
     13899       445  AGAL      H61           -30.7706355768       -4.1156562499       51.5992306006  LPSA13    13              8.0000000000
     13900       445  AGAL      H62           -30.8373490826       -5.7878676815       52.3101703268  LPSA13    13              8.0000000000
     13901       445  AGAL      O6            -31.8960760511       -4.3238858900       53.3061022719  LPSA13    13              8.0000000000
     13902       445  AGAL      HO6           -32.0675132478       -5.0327035279       53.9432827908  LPSA13    13              8.0000000000
     13903       446  ARHM      C1            -26.3153903716       -2.8407182889       57.0034196795  LPSA13    14              9.0000000000
     13904       446  ARHM      H1            -27.2160536363       -2.1853435077       57.0357016555  LPSA13    14              9.0000000000
     13905       446  ARHM      C5            -23.9455865041       -2.7062428281       57.1801812530  LPSA13    14              9.0000000000
     13906       446  ARHM      H5            -23.8958902355       -3.2452506758       56.2057851068  LPSA13    14              9.0000000000
     13907       446  ARHM      O5            -25.1825725844       -1.9855981909       57.2013980092  LPSA13    14              9.0000000000
     13908       446  ARHM      C2            -26.3652312338       -3.8671181020       58.1188841815  LPSA13    14              9.0000000000
     13909       446  ARHM      H2            -27.2326023362       -4.5416752889       57.9366841784  LPSA13    14              9.0000000000
     13910       446  ARHM      O2            -26.4337736239       -3.3567566288       59.4616220736  LPSA13    14              9.0000000000
     13911       446  ARHM      C3            -25.0854816873       -4.6558197587       58.0738561061  LPSA13    14              9.0000000000
     13912       446  ARHM      H3            -24.9471887742       -5.0159954691       57.0371707327  LPSA13    14              9.0000000000
     13913       446  ARHM      O3            -25.1393659015       -5.8196708212       58.8924787345  LPSA13    14              9.0000000000
     13914       446  ARHM      HO3           -25.0744292150       -5.5664578862       59.8154443682  LPSA13    14              9.0000000000
     13915       446  ARHM      C4            -23.9131027701       -3.7226192063       58.3282557699  LPSA13    14              9.0000000000
     13916       446  ARHM      H4            -24.0632944800       -3.1626999234       59.2831046303  LPSA13    14              9.0000000000
     13917       446  ARHM      O4            -22.6426702737       -4.3853464191       58.3963569125  LPSA13    14              9.0000000000
     13918       446  ARHM      HO4           -22.3424112384       -4.5040242403       59.3020982016  LPSA13    14              9.0000000000
     13919       446  ARHM      C6            -22.7984479634       -1.6806328606       57.2495007508  LPSA13    14              9.0000000000
     13920       446  ARHM      H61           -22.9858503564       -0.8183706359       56.5742875279  LPSA13    14              9.0000000000
     13921       446  ARHM      H62           -22.7308023806       -1.3356244308       58.2996896206  LPSA13    14              9.0000000000
     13922       446  ARHM      H63           -21.8291461645       -2.1152429621       56.9478069846  LPSA13    14              9.0000000000
     13923       447  ARHM      C1            -27.4483187081       -2.4366743881       59.7454860006  LPSA13    15             10.0000000000
     13924       447  ARHM      H1            -28.2979725485       -2.5891781200       59.0438237739  LPSA13    15             10.0000000000
     13925       447  ARHM      C5            -25.9920314530       -0.7155154355       60.6474552764  LPSA13    15             10.0000000000
     13926       447  ARHM      H5            -25.0323016444       -1.2488703794       60.4444568531  LPSA13    15             10.0000000000
     13927       447  ARHM      O5            -27.0086875130       -1.0547770336       59.6769607559  LPSA13    15             10.0000000000
     13928       447  ARHM      C2            -27.9614599732       -2.7502891817       61.1363408708  LPSA13    15             10.0000000000
     13929       447  ARHM      H2            -28.2273321131       -3.8314420059       61.1993623739  LPSA13    15             10.0000000000
     13930       447  ARHM      O2            -29.1630711460       -1.9714115876       61.2900894398  LPSA13    15             10.0000000000
     13931       447  ARHM      C3            -26.8708725357       -2.4813116514       62.1332868294  LPSA13    15             10.0000000000
     13932       447  ARHM      H3            -25.9550183129       -3.0453467241       61.8401000865  LPSA13    15             10.0000000000
     13933       447  ARHM      O3            -27.3249465161       -2.9706612568       63.3994593683  LPSA13    15             10.0000000000
     13934       447  ARHM      C4            -26.5222133523       -1.0207981326       62.0232495523  LPSA13    15             10.0000000000
     13935       447  ARHM      H4            -27.4668069450       -0.4683939390       62.1155233574  LPSA13    15             10.0000000000
     13936       447  ARHM      O4            -25.6253694224       -0.5543264158       63.0157594266  LPSA13    15             10.0000000000
     13937       447  ARHM      HO4           -25.6248955535        0.4103493855       62.9681335478  LPSA13    15             10.0000000000
     13938       447  ARHM      C6            -25.7138998981        0.7937188879       60.5441795949  LPSA13    15             10.0000000000
     13939       447  ARHM      H61           -24.7931854429        1.1146061382       61.0676942647  LPSA13    15             10.0000000000
     13940       447  ARHM      H62           -25.6239034929        1.0219882020       59.4950197503  LPSA13    15             10.0000000000
     13941       447  ARHM      H63           -26.5533843301        1.4156763065       60.8863262380  LPSA13    15             10.0000000000
     13942       448  BMANNA    C1            -29.8821175017       -2.0084616415       62.5060735235  LPSA13    16             11.0000000000
     13943       448  BMANNA    H1            -29.2760472465       -1.5194992426       63.3065533521  LPSA13    16             11.0000000000
     13944       448  BMANNA    C5            -30.9059742139       -3.3374917578       64.2066580458  LPSA13    16             11.0000000000
     13945       448  BMANNA    H5            -30.2618886275       -2.8065682910       64.9522475840  LPSA13    16             11.0000000000
     13946       448  BMANNA    O5            -30.2357319711       -3.3313410789       62.9326215296  LPSA13    16             11.0000000000
     13947       448  BMANNA    C2            -31.1656450577       -1.2004102271       62.3058746119  LPSA13    16             11.0000000000
     13948       448  BMANNA    H2            -30.8435307231       -0.1642569244       62.0350320347  LPSA13    16             11.0000000000
     13949       448  BMANNA    N             -32.0543481018       -1.6802206874       61.2546158486  LPSA13    16             11.0000000000
     13950       448  BMANNA    HN            -32.7680261051       -2.3057917585       61.5400380716  LPSA13    16             11.0000000000
     13951       448  BMANNA    C             -32.0457872098       -1.2629271155       59.9875051567  LPSA13    16             11.0000000000
     13952       448  BMANNA    O             -31.2527118839       -0.4339283184       59.5616858169  LPSA13    16             11.0000000000
     13953       448  BMANNA    CT            -33.0476113622       -1.9379623301       59.0773316976  LPSA13    16             11.0000000000
     13954       448  BMANNA    HT1           -33.8990975371       -1.2640501722       58.8515298262  LPSA13    16             11.0000000000
     13955       448  BMANNA    HT2           -33.4334725099       -2.8726045300       59.5339551584  LPSA13    16             11.0000000000
     13956       448  BMANNA    HT3           -32.5632903044       -2.2048744684       58.1169268131  LPSA13    16             11.0000000000
     13957       448  BMANNA    C3            -31.8927899934       -1.1649678695       63.6359874827  LPSA13    16             11.0000000000
     13958       448  BMANNA    H3            -31.1918898946       -0.7098955625       64.3623939735  LPSA13    16             11.0000000000
     13959       448  BMANNA    O3            -33.0436784859       -0.3328462260       63.5837062601  LPSA13    16             11.0000000000
     13960       448  BMANNA    HO3           -33.0220040767        0.3020945846       64.3116230344  LPSA13    16             11.0000000000
     13961       448  BMANNA    C4            -32.2160596502       -2.5753507513       64.1147449117  LPSA13    16             11.0000000000
     13962       448  BMANNA    H4            -32.8890688467       -3.0696621593       63.3725553317  LPSA13    16             11.0000000000
     13963       448  BMANNA    O4            -32.8838500411       -2.6294945685       65.3833009782  LPSA13    16             11.0000000000
     13964       448  BMANNA    HO4           -33.4151458415       -3.4352249953       65.4099847296  LPSA13    16             11.0000000000
     13965       448  BMANNA    C6            -31.1304497171       -4.7366101892       64.7715426198  LPSA13    16             11.0000000000
     13966       448  BMANNA    H61           -31.1478074252       -4.6532031274       65.8786042347  LPSA13    16             11.0000000000
     13967       448  BMANNA    H62           -32.1140141863       -5.1188495124       64.4279374140  LPSA13    16             11.0000000000
     13968       448  BMANNA    O6            -30.1588872686       -5.7220158382       64.4445633410  LPSA13    16             11.0000000000
     13969       448  BMANNA    HO6           -30.5687559575       -6.3330362579       63.8244386847  LPSA13    16             11.0000000000
     13970       449  BGLCNA    C1            -26.3168594363       -3.5882630023       64.1441497383  LPSA13    17             11.0000000000
     13971       449  BGLCNA    H1            -25.3595364984       -3.0463555923       63.9809336772  LPSA13    17             11.0000000000
     13972       449  BGLCNA    C5            -25.1406627208       -5.6498793906       64.5672183027  LPSA13    17             11.0000000000
     13973       449  BGLCNA    H5            -24.1490208701       -5.1830765083       64.3707380774  LPSA13    17             11.0000000000
     13974       449  BGLCNA    O5            -26.1481139570       -4.9658922798       63.7904464697  LPSA13    17             11.0000000000
     13975       449  BGLCNA    C2            -26.7880920644       -3.4695933916       65.5803918776  LPSA13    17             11.0000000000
     13976       449  BGLCNA    H2            -27.7254571306       -4.0554678429       65.7505210672  LPSA13    17             11.0000000000
     13977       449  BGLCNA    N             -27.1079674343       -2.0919303890       65.8877418269  LPSA13    17             11.0000000000
     13978       449  BGLCNA    HN            -26.5989131471       -1.4164153865       65.3665983503  LPSA13    17             11.0000000000
     13979       449  BGLCNA    C             -27.9458259011       -1.6406964988       66.8211672180  LPSA13    17             11.0000000000
     13980       449  BGLCNA    O             -28.7129481980       -2.3518347274       67.4641699031  LPSA13    17             11.0000000000
     13981       449  BGLCNA    CT            -27.8590096986       -0.1512563189       67.0429188105  LPSA13    17             11.0000000000
     13982       449  BGLCNA    HT1           -28.6549448021        0.3995112347       66.5197386941  LPSA13    17             11.0000000000
     13983       449  BGLCNA    HT2           -26.8826882194        0.2266809188       66.6799644214  LPSA13    17             11.0000000000
     13984       449  BGLCNA    HT3           -27.9443395892        0.0772176113       68.1227084827  LPSA13    17             11.0000000000
     13985       449  BGLCNA    C3            -25.6773133862       -4.0541405632       66.4309183535  LPSA13    17             11.0000000000
     13986       449  BGLCNA    H3            -24.7526576547       -3.5318556768       66.0917315445  LPSA13    17             11.0000000000
     13987       449  BGLCNA    O3            -25.9038046418       -3.7277868321       67.8267600447  LPSA13    17             11.0000000000
     13988       449  BGLCNA    C4            -25.5327198069       -5.5290179722       66.0508129646  LPSA13    17             11.0000000000
     13989       449  BGLCNA    H4            -26.5227082335       -6.0369608514       66.1467451790  LPSA13    17             11.0000000000
     13990       449  BGLCNA    O4            -24.5923626062       -6.1884427057       66.8954030274  LPSA13    17             11.0000000000
     13991       449  BGLCNA    HO4           -24.6014001936       -7.1364439750       66.6909814826  LPSA13    17             11.0000000000
     13992       449  BGLCNA    C6            -25.0288700558       -7.1091970251       64.1054348135  LPSA13    17             11.0000000000
     13993       449  BGLCNA    H61           -23.9756859626       -7.4558270793       64.1548658901  LPSA13    17             11.0000000000
     13994       449  BGLCNA    H62           -25.6056590012       -7.7559820088       64.7848443361  LPSA13    17             11.0000000000
     13995       449  BGLCNA    O6            -25.5165334283       -7.3647400297       62.7886895751  LPSA13    17             11.0000000000
     13996       449  BGLCNA    HO6           -25.0353967436       -6.8052195224       62.1796318397  LPSA13    17             11.0000000000
     13997       450  AGAL      C1            -24.7590966275       -3.4951428638       68.6241042121  LPSA13    18             12.0000000000
     13998       450  AGAL      H1            -24.2495326373       -4.4660510515       68.8097101082  LPSA13    18             12.0000000000
     13999       450  AGAL      C5            -24.3426638947       -1.2835974066       67.8506638651  LPSA13    18             12.0000000000
     14000       450  AGAL      H5            -25.3479908771       -1.3515488588       67.3993313616  LPSA13    18             12.0000000000
     14001       450  AGAL      O5            -23.8225115151       -2.6180606230       67.9918662751  LPSA13    18             12.0000000000
     14002       450  AGAL      C2            -25.0645023455       -2.8504842927       69.9675647333  LPSA13    18             12.0000000000
     14003       450  AGAL      H2            -24.0550444304       -2.6824957033       70.3912068283  LPSA13    18             12.0000000000
     14004       450  AGAL      O2            -25.7219672755       -3.7344324876       70.8750764527  LPSA13    18             12.0000000000
     14005       450  AGAL      C3            -25.6708931450       -1.4557291486       69.8395635900  LPSA13    18             12.0000000000
     14006       450  AGAL      H3            -26.5532190872       -1.5237391540       69.1662085964  LPSA13    18             12.0000000000
     14007       450  AGAL      O3            -26.1273451748       -0.9096311750       71.0785722923  LPSA13    18             12.0000000000
     14008       450  AGAL      HO3           -27.0028922569       -0.5263164310       70.9806564361  LPSA13    18             12.0000000000
     14009       450  AGAL      C4            -24.6370247904       -0.5782388891       69.1622670674  LPSA13    18             12.0000000000
     14010       450  AGAL      H4            -25.0679695605        0.4050105716       68.8947285770  LPSA13    18             12.0000000000
     14011       450  AGAL      O4            -23.4702808653       -0.3517446158       69.9444056907  LPSA13    18             12.0000000000
     14012       450  AGAL      HO4           -23.6748309682        0.1610642271       70.7411615715  LPSA13    18             12.0000000000
     14013       450  AGAL      C6            -23.6106792547       -0.5537577596       66.7691175828  LPSA13    18             12.0000000000
     14014       450  AGAL      H61           -23.7654508011       -1.1271987743       65.8261509403  LPSA13    18             12.0000000000
     14015       450  AGAL      H62           -24.0388563821        0.4625745805       66.6278683820  LPSA13    18             12.0000000000
     14016       450  AGAL      O6            -22.2185334531       -0.4524488019       66.9864560020  LPSA13    18             12.0000000000
     14017       450  AGAL      HO6           -21.9105059759       -1.0341510200       67.6932219510  LPSA13    18             12.0000000000
     14018       451  ARHM      C1            -25.1827106681       -3.6250610303       72.1731926948  LPSA13    19             13.0000000000
     14019       451  ARHM      H1            -24.7758268676       -2.6036201111       72.3522435448  LPSA13    19             13.0000000000
     14020       451  ARHM      C5            -24.4434946657       -5.8865730315       72.2472899367  LPSA13    19             13.0000000000
     14021       451  ARHM      H5            -24.8554309307       -5.9865220461       71.2151452393  LPSA13    19             13.0000000000
     14022       451  ARHM      O5            -24.0846303544       -4.5193792334       72.4232380834  LPSA13    19             13.0000000000
     14023       451  ARHM      C2            -26.3024783299       -3.9443176791       73.1191310424  LPSA13    19             13.0000000000
     14024       451  ARHM      H2            -27.2042037450       -3.3313820363       72.8728130254  LPSA13    19             13.0000000000
     14025       451  ARHM      O2            -25.9107412143       -3.6333349683       74.4604138383  LPSA13    19             13.0000000000
     14026       451  ARHM      C3            -26.7086159260       -5.3916880889       72.9631473081  LPSA13    19             13.0000000000
     14027       451  ARHM      H3            -27.0029374241       -5.5735294090       71.9018226617  LPSA13    19             13.0000000000
     14028       451  ARHM      O3            -27.8329140645       -5.6981504887       73.7779435657  LPSA13    19             13.0000000000
     14029       451  ARHM      HO3           -27.5994614750       -5.3963464612       74.6612225186  LPSA13    19             13.0000000000
     14030       451  ARHM      C4            -25.5076084053       -6.2641057292       73.2445225379  LPSA13    19             13.0000000000
     14031       451  ARHM      H4            -25.1583041843       -6.0713463323       74.2858268250  LPSA13    19             13.0000000000
     14032       451  ARHM      O4            -25.7629990488       -7.6512577897       73.1446397416  LPSA13    19             13.0000000000
     14033       451  ARHM      HO4           -26.0560166979       -7.8477216801       72.2484423736  LPSA13    19             13.0000000000
     14034       451  ARHM      C6            -23.1813561843       -6.7603447424       72.2765358846  LPSA13    19             13.0000000000
     14035       451  ARHM      H61           -22.5185266924       -6.3646998100       71.4796271791  LPSA13    19             13.0000000000
     14036       451  ARHM      H62           -22.6616148670       -6.7337727118       73.2518512936  LPSA13    19             13.0000000000
     14037       451  ARHM      H63           -23.4243672383       -7.8208527659       72.0564660647  LPSA13    19             13.0000000000
     14038       452  ARHM      C1            -25.8639863187       -2.2478884342       74.7011188401  LPSA13    20             14.0000000000
     14039       452  ARHM      H1            -26.3373555438       -1.6752029324       73.8700294545  LPSA13    20             14.0000000000
     14040       452  ARHM      C5            -23.8505461722       -2.2662397622       75.9536823044  LPSA13    20             14.0000000000
     14041       452  ARHM      H5            -23.8124147075       -3.3701474903       75.8135478818  LPSA13    20             14.0000000000
     14042       452  ARHM      O5            -24.5405336640       -1.7160448447       74.8329343045  LPSA13    20             14.0000000000
     14043       452  ARHM      C2            -26.6685291062       -2.0109270164       75.9485637948  LPSA13    20             14.0000000000
     14044       452  ARHM      H2            -27.6535506667       -2.5398411974       75.8455939228  LPSA13    20             14.0000000000
     14045       452  ARHM      O2            -26.8719945219       -0.6125994003       76.1636362263  LPSA13    20             14.0000000000
     14046       452  ARHM      C3            -25.9777400083       -2.5954878774       77.1267851652  LPSA13    20             14.0000000000
     14047       452  ARHM      H3            -25.8423027191       -3.6922586748       76.9587589062  LPSA13    20             14.0000000000
     14048       452  ARHM      O3            -26.8133457284       -2.3784553727       78.2665276032  LPSA13    20             14.0000000000
     14049       452  ARHM      C4            -24.6240159133       -1.9470537120       77.2285960313  LPSA13    20             14.0000000000
     14050       452  ARHM      H4            -24.6771988662       -0.8363249369       77.3141270477  LPSA13    20             14.0000000000
     14051       452  ARHM      O4            -23.9364496579       -2.4348909476       78.3588452618  LPSA13    20             14.0000000000
     14052       452  ARHM      HO4           -23.0113867271       -2.4306063432       78.1020780427  LPSA13    20             14.0000000000
     14053       452  ARHM      C6            -22.3981202246       -1.7401755139       75.9527479799  LPSA13    20             14.0000000000
     14054       452  ARHM      H61           -22.3387822292       -0.6371060280       76.0800679700  LPSA13    20             14.0000000000
     14055       452  ARHM      H62           -21.8295588086       -2.2373892913       76.7635723913  LPSA13    20             14.0000000000
     14056       452  ARHM      H63           -21.9160516700       -1.9833878225       74.9845653888  LPSA13    20             14.0000000000
     14057       453  BMANNA    C1            -27.9488864409       -0.1553619040       75.4130095326  LPSA13    21             15.0000000000
     14058       453  BMANNA    H1            -28.2856197734       -0.9669750983       74.7250980465  LPSA13    21             15.0000000000
     14059       453  BMANNA    C5            -28.7313268208        1.1944105079       73.6628980333  LPSA13    21             15.0000000000
     14060       453  BMANNA    H5            -29.0311844066        0.2724991601       73.0958120528  LPSA13    21             15.0000000000
     14061       453  BMANNA    O5            -27.6107238060        0.9069276703       74.5243605399  LPSA13    21             15.0000000000
     14062       453  BMANNA    C2            -29.0844424219        0.2391501974       76.3505074702  LPSA13    21             15.0000000000
     14063       453  BMANNA    H2            -29.3114731763       -0.7015353623       76.9232349583  LPSA13    21             15.0000000000
     14064       453  BMANNA    N             -28.7405974970        1.3187862887       77.2965089363  LPSA13    21             15.0000000000
     14065       453  BMANNA    HN            -28.2121881432        2.0570260119       76.9059115241  LPSA13    21             15.0000000000
     14066       453  BMANNA    C             -29.1460488242        1.3482482006       78.5912975529  LPSA13    21             15.0000000000
     14067       453  BMANNA    O             -30.0042474650        0.5919847831       79.0180385911  LPSA13    21             15.0000000000
     14068       453  BMANNA    CT            -28.5341306318        2.3939177581       79.4902215192  LPSA13    21             15.0000000000
     14069       453  BMANNA    HT1           -28.9991721758        3.3763337695       79.3206972661  LPSA13    21             15.0000000000
     14070       453  BMANNA    HT2           -27.4394531223        2.4306390512       79.3213673881  LPSA13    21             15.0000000000
     14071       453  BMANNA    HT3           -28.7060871740        2.1529429157       80.5616775624  LPSA13    21             15.0000000000
     14072       453  BMANNA    C3            -30.2779613909        0.5430098805       75.4680436244  LPSA13    21             15.0000000000
     14073       453  BMANNA    H3            -30.4985138090       -0.4114538235       74.9283226016  LPSA13    21             15.0000000000
     14074       453  BMANNA    O3            -31.4346543680        0.9003438037       76.2187969925  LPSA13    21             15.0000000000
     14075       453  BMANNA    HO3           -31.2048392697        1.6014732457       76.8368230317  LPSA13    21             15.0000000000
     14076       453  BMANNA    C4            -29.9253909941        1.6327118786       74.4698296243  LPSA13    21             15.0000000000
     14077       453  BMANNA    H4            -29.6621216148        2.5775396010       75.0082338434  LPSA13    21             15.0000000000
     14078       453  BMANNA    O4            -30.9797042278        1.9377589452       73.5569456314  LPSA13    21             15.0000000000
     14079       453  BMANNA    HO4           -31.2840843226        2.8234485596       73.7567529753  LPSA13    21             15.0000000000
     14080       453  BMANNA    C6            -28.3648478399        2.2224069096       72.6324959962  LPSA13    21             15.0000000000
     14081       453  BMANNA    H61           -29.1199011963        2.1983287937       71.8180359469  LPSA13    21             15.0000000000
     14082       453  BMANNA    H62           -28.3983391256        3.2350954284       73.0765142765  LPSA13    21             15.0000000000
     14083       453  BMANNA    O6            -27.0768455954        1.9904553229       72.0859214894  LPSA13    21             15.0000000000
     14084       453  BMANNA    HO6           -26.4200542737        2.0088694807       72.7936057165  LPSA13    21             15.0000000000
     14085       454  BGLCNA    C1            -26.8017771743       -3.3905346643       79.2400722574  LPSA13    22             15.0000000000
     14086       454  BGLCNA    H1            -25.8503281094       -3.9589745018       79.2409822622  LPSA13    22             15.0000000000
     14087       454  BGLCNA    C5            -27.9382627703       -5.2868443782       80.1116173380  LPSA13    22             15.0000000000
     14088       454  BGLCNA    H5            -26.9591438457       -5.8257455936       80.1255221725  LPSA13    22             15.0000000000
     14089       454  BGLCNA    O5            -27.8907712077       -4.3054112621       79.0671801489  LPSA13    22             15.0000000000
     14090       454  BGLCNA    C2            -26.9631231385       -2.6612237399       80.5475379049  LPSA13    22             15.0000000000
     14091       454  BGLCNA    H2            -27.9382538387       -2.1044241465       80.4991397011  LPSA13    22             15.0000000000
     14092       454  BGLCNA    N             -25.8739139173       -1.7232779919       80.7290342458  LPSA13    22             15.0000000000
     14093       454  BGLCNA    HN            -24.9821122830       -2.0142102175       80.4004223491  LPSA13    22             15.0000000000
     14094       454  BGLCNA    C             -25.9687045202       -0.5524485632       81.3514277948  LPSA13    22             15.0000000000
     14095       454  BGLCNA    O             -26.9817198738       -0.1276897436       81.8829811470  LPSA13    22             15.0000000000
     14096       454  BGLCNA    CT            -24.6931624560        0.2320121074       81.3945759988  LPSA13    22             15.0000000000
     14097       454  BGLCNA    HT1           -24.7283714817        0.9274016690       80.5320936932  LPSA13    22             15.0000000000
     14098       454  BGLCNA    HT2           -23.8277188051       -0.4492680140       81.2752418656  LPSA13    22             15.0000000000
     14099       454  BGLCNA    HT3           -24.5948195833        0.7715219346       82.3619633405  LPSA13    22             15.0000000000
     14100       454  BGLCNA    C3            -27.0096012030       -3.6573344531       81.6836515635  LPSA13    22             15.0000000000
     14101       454  BGLCNA    H3            -26.0717793537       -4.2620808552       81.6559281081  LPSA13    22             15.0000000000
     14102       454  BGLCNA    O3            -27.0452564876       -2.8969337227       82.8993774091  LPSA13    22             15.0000000000
     14103       454  BGLCNA    C4            -28.1631622072       -4.5973168734       81.4551527755  LPSA13    22             15.0000000000
     14104       454  BGLCNA    H4            -29.1027413115       -4.0037514165       81.4086683303  LPSA13    22             15.0000000000
     14105       454  BGLCNA    O4            -28.3000687056       -5.5498212274       82.5039695970  LPSA13    22             15.0000000000
     14106       454  BGLCNA    HO4           -29.2304976864       -5.7293831853       82.7034393014  LPSA13    22             15.0000000000
     14107       454  BGLCNA    C6            -29.0499550710       -6.2485066016       79.7812126191  LPSA13    22             15.0000000000
     14108       454  BGLCNA    H61           -29.3019534659       -6.8287410557       80.6928531499  LPSA13    22             15.0000000000
     14109       454  BGLCNA    H62           -29.9636312018       -5.6996957018       79.4614727477  LPSA13    22             15.0000000000
     14110       454  BGLCNA    O6            -28.6724856992       -7.2038052282       78.7947097990  LPSA13    22             15.0000000000
     14111       454  BGLCNA    HO6           -28.3704654689       -6.7802967562       77.9830281168  LPSA13    22             15.0000000000
     14112       455  AGAL      C1            -26.6555794215       -3.5064746592       84.0997451850  LPSA13    23             16.0000000000
     14113       455  AGAL      H1            -27.4664324109       -4.1787436356       84.4505481480  LPSA13    23             16.0000000000
     14114       455  AGAL      C5            -24.3047748055       -3.4815171369       83.7305664712  LPSA13    23             16.0000000000
     14115       455  AGAL      H5            -24.4877383217       -2.8673479645       82.8194583856  LPSA13    23             16.0000000000
     14116       455  AGAL      O5            -25.4614868311       -4.2907838034       83.9919862201  LPSA13    23             16.0000000000
     14117       455  AGAL      C2            -26.4743335687       -2.4668560670       85.1849633671  LPSA13    23             16.0000000000
     14118       455  AGAL      H2            -26.2150375387       -3.0337534179       86.1057169870  LPSA13    23             16.0000000000
     14119       455  AGAL      O2            -27.6887274221       -1.7265437376       85.4319188618  LPSA13    23             16.0000000000
     14120       455  AGAL      C3            -25.2612383420       -1.5949134513       84.8803164105  LPSA13    23             16.0000000000
     14121       455  AGAL      H3            -25.3818994184       -1.1665194797       83.8618703550  LPSA13    23             16.0000000000
     14122       455  AGAL      O3            -25.1342004242       -0.4735264371       85.7457670209  LPSA13    23             16.0000000000
     14123       455  AGAL      HO3           -25.3110960896       -0.7612342343       86.6423995601  LPSA13    23             16.0000000000
     14124       455  AGAL      C4            -24.0282822055       -2.4838509341       84.8581709672  LPSA13    23             16.0000000000
     14125       455  AGAL      H4            -23.1139589800       -1.8891664684       84.6225959675  LPSA13    23             16.0000000000
     14126       455  AGAL      O4            -23.8128731562       -3.1520890361       86.0970101634  LPSA13    23             16.0000000000
     14127       455  AGAL      HO4           -23.3385663741       -3.9717438458       85.8579164257  LPSA13    23             16.0000000000
     14128       455  AGAL      C6            -23.1859110650       -4.4076380437       83.3433916933  LPSA13    23             16.0000000000
     14129       455  AGAL      H61           -23.5403940096       -5.1368867206       82.5870266064  LPSA13    23             16.0000000000
     14130       455  AGAL      H62           -22.4277265504       -3.7782722926       82.8488497524  LPSA13    23             16.0000000000
     14131       455  AGAL      O6            -22.6313925632       -5.1101886590       84.4550046678  LPSA13    23             16.0000000000
     14132       455  AGAL      HO6           -21.9588355047       -5.7600336657       84.1968499402  LPSA13    23             16.0000000000
     14133       456  ARHM      C1            -28.6595546660       -2.2994571015       86.2896189044  LPSA13    24             17.0000000000
     14134       456  ARHM      H1            -28.4660264797       -3.3912702726       86.3883848803  LPSA13    24             17.0000000000
     14135       456  ARHM      C5            -30.4303032730       -0.8228671558       85.6453328646  LPSA13    24             17.0000000000
     14136       456  ARHM      H5            -29.7114444759       -0.3382191951       84.9430506342  LPSA13    24             17.0000000000
     14137       456  ARHM      O5            -30.0183174406       -2.1910950097       85.8243858355  LPSA13    24             17.0000000000
     14138       456  ARHM      C2            -28.5290670212       -1.5885243214       87.6096584510  LPSA13    24             17.0000000000
     14139       456  ARHM      H2            -27.4603034039       -1.6124907219       87.9369713524  LPSA13    24             17.0000000000
     14140       456  ARHM      O2            -29.3878498226       -2.1744353220       88.6051756288  LPSA13    24             17.0000000000
     14141       456  ARHM      C3            -28.9149530243       -0.1417863512       87.4298204506  LPSA13    24             17.0000000000
     14142       456  ARHM      H3            -28.2512861747        0.2894895350       86.6387197789  LPSA13    24             17.0000000000
     14143       456  ARHM      O3            -28.6714706516        0.5989857190       88.6178677299  LPSA13    24             17.0000000000
     14144       456  ARHM      HO3           -29.4480199671        0.6159042483       89.1802488194  LPSA13    24             17.0000000000
     14145       456  ARHM      C4            -30.3563084435       -0.0650965387       86.9603509208  LPSA13    24             17.0000000000
     14146       456  ARHM      H4            -31.0066009712       -0.5911913334       87.7044196456  LPSA13    24             17.0000000000
     14147       456  ARHM      O4            -30.8214050835        1.2769109104       86.8079510541  LPSA13    24             17.0000000000
     14148       456  ARHM      HO4           -31.7498596454        1.3447296263       87.0473848762  LPSA13    24             17.0000000000
     14149       456  ARHM      C6            -31.8103560815       -0.7578835179       84.9618247341  LPSA13    24             17.0000000000
     14150       456  ARHM      H61           -31.8747953162        0.2096793231       84.4173978197  LPSA13    24             17.0000000000
     14151       456  ARHM      H62           -31.9145210181       -1.5576302939       84.2034490161  LPSA13    24             17.0000000000
     14152       456  ARHM      H63           -32.6559303070       -0.8444524236       85.6739090139  LPSA13    24             17.0000000000
     14153       457  ARHM      C1            -28.9181275901       -3.3749615415       89.1478018590  LPSA13    25             18.0000000000
     14154       457  ARHM      H1            -28.1489767057       -3.8027840554       88.4672866332  LPSA13    25             18.0000000000
     14155       457  ARHM      C5            -30.9524986338       -4.0366092618       90.2004070817  LPSA13    25             18.0000000000
     14156       457  ARHM      H5            -31.4361133012       -3.0949275304       89.8525357128  LPSA13    25             18.0000000000
     14157       457  ARHM      O5            -29.9201542300       -4.4016130275       89.2676354413  LPSA13    25             18.0000000000
     14158       457  ARHM      C2            -28.2633378784       -3.0738938334       90.4616233405  LPSA13    25             18.0000000000
     14159       457  ARHM      H2            -27.5859725064       -2.1882906923       90.3577378377  LPSA13    25             18.0000000000
     14160       457  ARHM      O2            -27.5023242555       -4.2006875706       90.9068318822  LPSA13    25             18.0000000000
     14161       457  ARHM      C3            -29.3309001058       -2.6907962316       91.4487394111  LPSA13    25             18.0000000000
     14162       457  ARHM      H3            -29.8711784973       -1.7813139886       91.0832945844  LPSA13    25             18.0000000000
     14163       457  ARHM      O3            -28.6930838460       -2.4469514118       92.6999142105  LPSA13    25             18.0000000000
     14164       457  ARHM      C4            -30.3406317963       -3.7920487983       91.5688706113  LPSA13    25             18.0000000000
     14165       457  ARHM      H4            -29.8576091515       -4.7419587552       91.9047972492  LPSA13    25             18.0000000000
     14166       457  ARHM      O4            -31.3250336616       -3.4271092509       92.5256438783  LPSA13    25             18.0000000000
     14167       457  ARHM      HO4           -31.5579885580       -4.2101332146       93.0334600023  LPSA13    25             18.0000000000
     14168       457  ARHM      C6            -32.0461260330       -5.1253008021       90.2223899878  LPSA13    25             18.0000000000
     14169       457  ARHM      H61           -32.3668228632       -5.3514540017       89.1873450815  LPSA13    25             18.0000000000
     14170       457  ARHM      H62           -31.6610210195       -6.0614733065       90.6721692962  LPSA13    25             18.0000000000
     14171       457  ARHM      H63           -32.9214286369       -4.7697979972       90.8068134566  LPSA13    25             18.0000000000
     14172       458  BMANNA    C1            -26.2530833818       -4.3425629871       90.2792967444  LPSA13    26             19.0000000000
     14173       458  BMANNA    H1            -25.9003884823       -3.3788204895       89.8539127202  LPSA13    26             19.0000000000
     14174       458  BMANNA    C5            -24.9476400754       -5.4061472685       88.5920526575  LPSA13    26             19.0000000000
     14175       458  BMANNA    H5            -24.7001013701       -4.4041164312       88.1748255206  LPSA13    26             19.0000000000
     14176       458  BMANNA    O5            -26.2357737462       -5.3155505559       89.2295919821  LPSA13    26             19.0000000000
     14177       458  BMANNA    C2            -25.3037386561       -4.7730287340       91.3453515563  LPSA13    26             19.0000000000
     14178       458  BMANNA    H2            -25.3371051558       -3.9626281865       92.1224122193  LPSA13    26             19.0000000000
     14179       458  BMANNA    N             -25.6902912136       -6.0545777458       91.9229106121  LPSA13    26             19.0000000000
     14180       458  BMANNA    HN            -25.8396367881       -6.8108448145       91.2944536531  LPSA13    26             19.0000000000
     14181       458  BMANNA    C             -25.8506244526       -6.2771970629       93.2239226483  LPSA13    26             19.0000000000
     14182       458  BMANNA    O             -25.8289305821       -5.3605271689       94.0286324295  LPSA13    26             19.0000000000
     14183       458  BMANNA    CT            -26.0204246669       -7.7149534570       93.6412055644  LPSA13    26             19.0000000000
     14184       458  BMANNA    HT1           -26.4954812078       -8.3092080849       92.8379193555  LPSA13    26             19.0000000000
     14185       458  BMANNA    HT2           -26.6325999676       -7.8270487756       94.5585867077  LPSA13    26             19.0000000000
     14186       458  BMANNA    HT3           -25.0206335605       -8.1362675161       93.8588416837  LPSA13    26             19.0000000000
     14187       458  BMANNA    C3            -23.9227985765       -4.7964762227       90.7446092411  LPSA13    26             19.0000000000
     14188       458  BMANNA    H3            -23.6893128213       -3.7856810685       90.3225283080  LPSA13    26             19.0000000000
     14189       458  BMANNA    O3            -22.9704963167       -5.0492045349       91.7645164553  LPSA13    26             19.0000000000
     14190       458  BMANNA    HO3           -22.8350909551       -4.2063065351       92.1797107796  LPSA13    26             19.0000000000
     14191       458  BMANNA    C4            -23.8892646676       -5.8026757089       89.6111617347  LPSA13    26             19.0000000000
     14192       458  BMANNA    H4            -24.1223985729       -6.8218391740       89.9801962278  LPSA13    26             19.0000000000
     14193       458  BMANNA    O4            -22.6110707477       -5.8519274815       88.9886536741  LPSA13    26             19.0000000000
     14194       458  BMANNA    HO4           -22.0327048861       -6.4025372703       89.5273942779  LPSA13    26             19.0000000000
     14195       458  BMANNA    C6            -25.0899626407       -6.3560553615       87.4008695330  LPSA13    26             19.0000000000
     14196       458  BMANNA    H61           -26.0772372012       -6.1867855400       86.9150670064  LPSA13    26             19.0000000000
     14197       458  BMANNA    H62           -24.3052439306       -6.1348636362       86.6411285776  LPSA13    26             19.0000000000
     14198       458  BMANNA    O6            -24.9963471524       -7.7381761441       87.7569876947  LPSA13    26             19.0000000000
     14199       458  BMANNA    HO6           -24.1154365377       -7.8566245418       88.1348936490  LPSA13    26             19.0000000000
     14200       459  BGLCNA    C1            -29.1480226711       -1.3706802582       93.4677088087  LPSA13    27             19.0000000000
     14201       459  BGLCNA    H1            -30.2520072951       -1.2583388743       93.4257136617  LPSA13    27             19.0000000000
     14202       459  BGLCNA    C5            -28.9936160926        0.9460168278       93.9097381805  LPSA13    27             19.0000000000
     14203       459  BGLCNA    H5            -30.1046994253        0.9728579026       93.9169552821  LPSA13    27             19.0000000000
     14204       459  BGLCNA    O5            -28.5584260479       -0.1328193559       93.0727649763  LPSA13    27             19.0000000000
     14205       459  BGLCNA    C2            -28.6868433251       -1.7239552850       94.8662742159  LPSA13    27             19.0000000000
     14206       459  BGLCNA    H2            -27.5646790209       -1.7578116991       94.8388344431  LPSA13    27             19.0000000000
     14207       459  BGLCNA    N             -29.1803643099       -3.0318128168       95.2918839724  LPSA13    27             19.0000000000
     14208       459  BGLCNA    HN            -30.1184229646       -3.2473618776       95.0504276516  LPSA13    27             19.0000000000
     14209       459  BGLCNA    C             -28.3708528737       -3.9014597510       95.9520549845  LPSA13    27             19.0000000000
     14210       459  BGLCNA    O             -27.3302259363       -3.5561351563       96.5013677992  LPSA13    27             19.0000000000
     14211       459  BGLCNA    CT            -28.7881323361       -5.3501890544       96.0110130362  LPSA13    27             19.0000000000
     14212       459  BGLCNA    HT1           -29.6678906771       -5.5297946374       95.3673806789  LPSA13    27             19.0000000000
     14213       459  BGLCNA    HT2           -29.0039247251       -5.6653718481       97.0504550364  LPSA13    27             19.0000000000
     14214       459  BGLCNA    HT3           -27.9295081379       -5.9739245985       95.6707637468  LPSA13    27             19.0000000000
     14215       459  BGLCNA    C3            -29.1033560009       -0.6470647853       95.8151625312  LPSA13    27             19.0000000000
     14216       459  BGLCNA    H3            -30.2106855627       -0.5520154855       95.7744905125  LPSA13    27             19.0000000000
     14217       459  BGLCNA    O3            -28.6662536837       -1.1115842943       97.1203629081  LPSA13    27             19.0000000000
     14218       459  BGLCNA    C4            -28.5325413167        0.6616467860       95.3211804749  LPSA13    27             19.0000000000
     14219       459  BGLCNA    H4            -27.4560595574        0.5729000856       95.2056122486  LPSA13    27             19.0000000000
     14220       459  BGLCNA    O4            -28.8913909528        1.7404083172       96.1654521158  LPSA13    27             19.0000000000
     14221       459  BGLCNA    HO4           -29.8331012103        1.8283800205       96.0217708368  LPSA13    27             19.0000000000
     14222       459  BGLCNA    C6            -28.5240066000        2.2591568559       93.3165122098  LPSA13    27             19.0000000000
     14223       459  BGLCNA    H61           -29.0089343829        3.1028820096       93.8497943862  LPSA13    27             19.0000000000
     14224       459  BGLCNA    H62           -27.4248645401        2.3882753463       93.4427679284  LPSA13    27             19.0000000000
     14225       459  BGLCNA    O6            -28.9078270451        2.3451279561       91.9387593100  LPSA13    27             19.0000000000
     14226       459  BGLCNA    HO6           -28.5138299670        3.1278215989       91.5387622569  LPSA13    27             19.0000000000
     14227       460  AGAL      C1            -29.2367953511       -0.5044337053       98.2461823284  LPSA13    28             20.0000000000
     14228       460  AGAL      H1            -28.8027267884        0.5138177369       98.3295916210  LPSA13    28             20.0000000000
     14229       460  AGAL      C5            -31.3323553565       -1.6552422533       98.1264852783  LPSA13    28             20.0000000000
     14230       460  AGAL      H5            -30.8367222733       -2.3776867557       97.4304254085  LPSA13    28             20.0000000000
     14231       460  AGAL      O5            -30.6546877166       -0.3740325811       98.0489106798  LPSA13    28             20.0000000000
     14232       460  AGAL      C2            -28.9870076837       -1.1761778292       99.6165238450  LPSA13    28             20.0000000000
     14233       460  AGAL      H2            -29.5173566277       -0.4672582277      100.2982047428  LPSA13    28             20.0000000000
     14234       460  AGAL      O2            -27.6368794745       -1.2632712388      100.1038739670  LPSA13    28             20.0000000000
     14235       460  AGAL      C3            -29.6817631729       -2.5235950688       99.6955196502  LPSA13    28             20.0000000000
     14236       460  AGAL      H3            -29.3131363114       -3.1431717600       98.8485261189  LPSA13    28             20.0000000000
     14237       460  AGAL      O3            -29.4200760463       -3.3043801338      100.8639495041  LPSA13    28             20.0000000000
     14238       460  AGAL      HO3           -28.9868088496       -4.1171200028      100.5911265062  LPSA13    28             20.0000000000
     14239       460  AGAL      C4            -31.1533603538       -2.2851535002       99.4907997683  LPSA13    28             20.0000000000
     14240       460  AGAL      H4            -31.6682378477       -3.2659893183       99.4897741610  LPSA13    28             20.0000000000
     14241       460  AGAL      O4            -31.7227340799       -1.4727146648      100.4989394163  LPSA13    28             20.0000000000
     14242       460  AGAL      HO4           -32.2629302438       -2.0102011270      101.0868732421  LPSA13    28             20.0000000000
     14243       460  AGAL      C6            -32.7788954072       -1.5662783683       97.6453397333  LPSA13    28             20.0000000000
     14244       460  AGAL      H61           -32.7628887381       -1.3209228364       96.5695359997  LPSA13    28             20.0000000000
     14245       460  AGAL      H62           -33.3223014741       -2.5329584072       97.7674012374  LPSA13    28             20.0000000000
     14246       460  AGAL      O6            -33.5685184864       -0.5726917854       98.2827948637  LPSA13    28             20.0000000000
     14247       460  AGAL      HO6           -33.3598322450        0.3130049468       97.9758102658  LPSA13    28             20.0000000000
     14248       461  ARHM      C1            -27.6180866411       -0.9420601095      101.4832987992  LPSA13    29             21.0000000000
     14249       461  ARHM      H1            -28.5949547713       -1.1666649696      101.9599665795  LPSA13    29             21.0000000000
     14250       461  ARHM      C5            -26.0644119175        0.8296953662      101.1302996102  LPSA13    29             21.0000000000
     14251       461  ARHM      H5            -26.0685581979        0.5558124337      100.0517636333  LPSA13    29             21.0000000000
     14252       461  ARHM      O5            -27.3164561060        0.4420741055      101.6934190058  LPSA13    29             21.0000000000
     14253       461  ARHM      C2            -26.5833585776       -1.7610706698      102.1709332064  LPSA13    29             21.0000000000
     14254       461  ARHM      H2            -26.7812072019       -2.8333917969      101.9226399328  LPSA13    29             21.0000000000
     14255       461  ARHM      O2            -26.6207587482       -1.5453023671      103.6050076976  LPSA13    29             21.0000000000
     14256       461  ARHM      C3            -25.2414001879       -1.4066945698      101.6117223073  LPSA13    29             21.0000000000
     14257       461  ARHM      H3            -25.2143174021       -1.6238586787      100.5134989261  LPSA13    29             21.0000000000
     14258       461  ARHM      O3            -24.2915549621       -2.2296048697      102.2359591065  LPSA13    29             21.0000000000
     14259       461  ARHM      HO3           -23.4769399107       -1.7494454589      102.2467827195  LPSA13    29             21.0000000000
     14260       461  ARHM      C4            -24.9358016779        0.0666537121      101.8118245165  LPSA13    29             21.0000000000
     14261       461  ARHM      H4            -24.9433203518        0.2995072321      102.9038944803  LPSA13    29             21.0000000000
     14262       461  ARHM      O4            -23.6299539387        0.4289955709      101.3584027647  LPSA13    29             21.0000000000
     14263       461  ARHM      HO4           -23.4861425760        0.2010756960      100.4355009216  LPSA13    29             21.0000000000
     14264       461  ARHM      C6            -26.0692033019        2.3551053766      101.2092545194  LPSA13    29             21.0000000000
     14265       461  ARHM      H61           -27.0200990120        2.7278900258      100.7647575194  LPSA13    29             21.0000000000
     14266       461  ARHM      H62           -26.0370698998        2.7054143712      102.2528978026  LPSA13    29             21.0000000000
     14267       461  ARHM      H63           -25.2195397999        2.7852343746      100.6430242539  LPSA13    29             21.0000000000
     14268       462  ARHM      C1            -27.3381610393       -2.4922976915      104.3670695088  LPSA13    30             22.0000000000
     14269       462  ARHM      H1            -26.9547932533       -3.5189271952      104.1571632665  LPSA13    30             22.0000000000
     14270       462  ARHM      C5            -29.3358886186       -1.1785382941      104.4968318279  LPSA13    30             22.0000000000
     14271       462  ARHM      H5            -28.7778425400       -0.4180503043      103.9097797867  LPSA13    30             22.0000000000
     14272       462  ARHM      O5            -28.7668010114       -2.4542236453      104.1593281193  LPSA13    30             22.0000000000
     14273       462  ARHM      C2            -27.0902494871       -2.1828582199      105.8246209483  LPSA13    30             22.0000000000
     14274       462  ARHM      H2            -25.9918187731       -2.1825642526      106.0285869292  LPSA13    30             22.0000000000
     14275       462  ARHM      O2            -27.7676145067       -3.1756752733      106.5917643300  LPSA13    30             22.0000000000
     14276       462  ARHM      C3            -27.6642338849       -0.8426465836      106.2228246084  LPSA13    30             22.0000000000
     14277       462  ARHM      H3            -27.2331085684       -0.0969877487      105.5127955143  LPSA13    30             22.0000000000
     14278       462  ARHM      O3            -27.2460262003       -0.4366654912      107.5428126687  LPSA13    30             22.0000000000
     14279       462  ARHM      C4            -29.1490329201       -0.8546659858      105.9692594247  LPSA13    30             22.0000000000
     14280       462  ARHM      H4            -29.6603556062       -1.6482545628      106.5575143762  LPSA13    30             22.0000000000
     14281       462  ARHM      O4            -29.7526093331        0.3799154921      106.3384377080  LPSA13    30             22.0000000000
     14282       462  ARHM      HO4           -29.7404052123        1.0270683400      105.6353677562  LPSA13    30             22.0000000000
     14283       462  ARHM      C6            -30.8046980591       -1.1364141588      104.0539699382  LPSA13    30             22.0000000000
     14284       462  ARHM      H61           -31.2042524684       -0.1161474853      104.2291769409  LPSA13    30             22.0000000000
     14285       462  ARHM      H62           -30.8816189173       -1.3386432031      102.9700113644  LPSA13    30             22.0000000000
     14286       462  ARHM      H63           -31.4190218457       -1.8663374399      104.6216264543  LPSA13    30             22.0000000000
     14287       463  BMANNA    C1            -27.0021434883       -4.2963666699      106.8943393453  LPSA13    31             23.0000000000
     14288       463  BMANNA    H1            -25.9664988451       -3.9932875950      107.1592632487  LPSA13    31             23.0000000000
     14289       463  BMANNA    C5            -26.3057175311       -6.4688616847      106.2087134080  LPSA13    31             23.0000000000
     14290       463  BMANNA    H5            -25.2937682143       -6.1110408630      106.5068734759  LPSA13    31             23.0000000000
     14291       463  BMANNA    O5            -27.0361851161       -5.2797531858      105.8523174282  LPSA13    31             23.0000000000
     14292       463  BMANNA    C2            -27.6853272740       -4.8779110251      108.0858061021  LPSA13    31             23.0000000000
     14293       463  BMANNA    H2            -27.5726300157       -4.1328858876      108.9146556889  LPSA13    31             23.0000000000
     14294       463  BMANNA    N             -29.1022868422       -5.0665100012      107.8247707017  LPSA13    31             23.0000000000
     14295       463  BMANNA    HN            -29.3580112263       -5.1325776217      106.8639632155  LPSA13    31             23.0000000000
     14296       463  BMANNA    C             -30.0325090281       -5.0226274312      108.7783988967  LPSA13    31             23.0000000000
     14297       463  BMANNA    O             -29.7460661062       -4.7929425901      109.9445433415  LPSA13    31             23.0000000000
     14298       463  BMANNA    CT            -31.4490507528       -5.2520606928      108.3329323248  LPSA13    31             23.0000000000
     14299       463  BMANNA    HT1           -31.4370836797       -6.0550709124      107.5686882752  LPSA13    31             23.0000000000
     14300       463  BMANNA    HT2           -31.8555182902       -4.3191028350      107.8959282274  LPSA13    31             23.0000000000
     14301       463  BMANNA    HT3           -32.0828885454       -5.5522228548      109.1928931528  LPSA13    31             23.0000000000
     14302       463  BMANNA    C3            -26.9200409179       -6.1055991209      108.5043322393  LPSA13    31             23.0000000000
     14303       463  BMANNA    H3            -25.8529794158       -5.8327172690      108.6723618074  LPSA13    31             23.0000000000
     14304       463  BMANNA    O3            -27.3726046975       -6.5731532012      109.7485410647  LPSA13    31             23.0000000000
     14305       463  BMANNA    HO3           -27.9170054159       -5.8806056551      110.1372341217  LPSA13    31             23.0000000000
     14306       463  BMANNA    C4            -26.9375603533       -7.1327509244      107.4127576364  LPSA13    31             23.0000000000
     14307       463  BMANNA    H4            -27.9777133600       -7.4273292327      107.1323973251  LPSA13    31             23.0000000000
     14308       463  BMANNA    O4            -26.2151129736       -8.3114986721      107.7640032162  LPSA13    31             23.0000000000
     14309       463  BMANNA    HO4           -25.4117161468       -8.0984751994      108.2551726119  LPSA13    31             23.0000000000
     14310       463  BMANNA    C6            -26.1221079647       -7.4413162532      105.0605845346  LPSA13    31             23.0000000000
     14311       463  BMANNA    H61           -25.3725901548       -8.2165090180      105.3342325373  LPSA13    31             23.0000000000
     14312       463  BMANNA    H62           -27.0795762331       -7.9845073191      104.8814722557  LPSA13    31             23.0000000000
     14313       463  BMANNA    O6            -25.7138425402       -6.7952344344      103.8535056568  LPSA13    31             23.0000000000
     14314       463  BMANNA    HO6           -24.8157316050       -6.4737613021      103.8600115578  LPSA13    31             23.0000000000
     14315       464  BGLCNA    C1            -27.9905897395       -0.9786355559      108.6150970227  LPSA13    32             23.0000000000
     14316       464  BGLCNA    H1            -28.2771387790       -2.0228881709      108.4052047788  LPSA13    32             23.0000000000
     14317       464  BGLCNA    C5            -29.9791491868       -0.8727480057      109.9257213429  LPSA13    32             23.0000000000
     14318       464  BGLCNA    H5            -30.1935307944       -1.9152786774      109.5854375537  LPSA13    32             23.0000000000
     14319       464  BGLCNA    O5            -29.1812008744       -0.2538084809      108.9076938039  LPSA13    32             23.0000000000
     14320       464  BGLCNA    C2            -27.1273360123       -0.9855895078      109.8536130533  LPSA13    32             23.0000000000
     14321       464  BGLCNA    H2            -26.9982554964        0.0882679860      110.1472138339  LPSA13    32             23.0000000000
     14322       464  BGLCNA    N             -25.8318509571       -1.5655925757      109.5623012237  LPSA13    32             23.0000000000
     14323       464  BGLCNA    HN            -25.8707467101       -2.2667688397      108.8684147288  LPSA13    32             23.0000000000
     14324       464  BGLCNA    C             -24.6536376017       -1.1882955856      110.0949641254  LPSA13    32             23.0000000000
     14325       464  BGLCNA    O             -24.5215793973       -0.3030101660      110.9272561002  LPSA13    32             23.0000000000
     14326       464  BGLCNA    CT            -23.4847496826       -1.9587162861      109.5553801247  LPSA13    32             23.0000000000
     14327       464  BGLCNA    HT1           -23.8261201792       -2.4331480835      108.6133966332  LPSA13    32             23.0000000000
     14328       464  BGLCNA    HT2           -23.1095772480       -2.7384035904      110.2480575124  LPSA13    32             23.0000000000
     14329       464  BGLCNA    HT3           -22.6391049865       -1.2783000217      109.3160640670  LPSA13    32             23.0000000000
     14330       464  BGLCNA    C3            -27.9010299205       -1.7243361698      110.9279277388  LPSA13    32             23.0000000000
     14331       464  BGLCNA    H3            -28.2077715224       -2.6954200005      110.4765486997  LPSA13    32             23.0000000000
     14332       464  BGLCNA    O3            -27.1102661473       -2.0234689335      112.0894911892  LPSA13    32             23.0000000000
     14333       464  BGLCNA    C4            -29.1667730980       -0.9366124118      111.2066270034  LPSA13    32             23.0000000000
     14334       464  BGLCNA    H4            -28.8652135459        0.0964032945      111.5140286945  LPSA13    32             23.0000000000
     14335       464  BGLCNA    O4            -29.9622523260       -1.5019520350      112.2401078973  LPSA13    32             23.0000000000
     14336       464  BGLCNA    HO4           -29.6669575229       -1.1161607834      113.0867880297  LPSA13    32             23.0000000000
     14337       464  BGLCNA    C6            -31.3272752959       -0.1741367156      110.0524689672  LPSA13    32             23.0000000000
     14338       464  BGLCNA    H61           -32.0001378875       -0.7327104218      110.7352109451  LPSA13    32             23.0000000000
     14339       464  BGLCNA    H62           -31.1815457555        0.8354760801      110.4996031519  LPSA13    32             23.0000000000
     14340       464  BGLCNA    O6            -32.0239485960       -0.0667062387      108.8057439028  LPSA13    32             23.0000000000
     14341       464  BGLCNA    HO6           -31.8052688587       -0.8079626611      108.2230774446  LPSA13    32             23.0000000000
     14342       465  AGAL      C1            -27.4086767284       -3.2740160376      112.6813779019  LPSA13    33             24.0000000000
     14343       465  AGAL      H1            -28.4985725763       -3.4812347898      112.6095193003  LPSA13    33             24.0000000000
     14344       465  AGAL      C5            -25.2665078901       -4.2271010040      112.2039537510  LPSA13    33             24.0000000000
     14345       465  AGAL      H5            -25.0372928500       -3.2022727347      111.8405483221  LPSA13    33             24.0000000000
     14346       465  AGAL      O5            -26.6942031383       -4.3546465467      112.0507756765  LPSA13    33             24.0000000000
     14347       465  AGAL      C2            -27.0071170475       -3.2548821978      114.1477120665  LPSA13    33             24.0000000000
     14348       465  AGAL      H2            -27.1858297021       -4.2830332934      114.5326737232  LPSA13    33             24.0000000000
     14349       465  AGAL      O2            -27.9060190255       -2.4009853978      114.8743843848  LPSA13    33             24.0000000000
     14350       465  AGAL      C3            -25.4988635444       -3.0321193196      114.3019422881  LPSA13    33             24.0000000000
     14351       465  AGAL      H3            -25.2006905539       -2.1215695681      113.7251530811  LPSA13    33             24.0000000000
     14352       465  AGAL      O3            -25.0646821909       -2.7373315978      115.6247680473  LPSA13    33             24.0000000000
     14353       465  AGAL      HO3           -25.3965420350       -3.3865568552      116.2484505840  LPSA13    33             24.0000000000
     14354       465  AGAL      C4            -24.7900428071       -4.2199964480      113.6530509559  LPSA13    33             24.0000000000
     14355       465  AGAL      H4            -23.6913497333       -4.0400030900      113.6550478989  LPSA13    33             24.0000000000
     14356       465  AGAL      O4            -24.9648271947       -5.4828459318      114.2969710416  LPSA13    33             24.0000000000
     14357       465  AGAL      HO4           -25.7267298847       -5.5745208121      114.8784715623  LPSA13    33             24.0000000000
     14358       465  AGAL      C6            -24.5091949161       -5.1496140719      111.2567059531  LPSA13    33             24.0000000000
     14359       465  AGAL      H61           -24.7905319615       -4.8481119013      110.2319852396  LPSA13    33             24.0000000000
     14360       465  AGAL      H62           -23.4103458656       -5.0177559721      111.3648864995  LPSA13    33             24.0000000000
     14361       465  AGAL      O6            -24.7523997563       -6.5434537560      111.3978398511  LPSA13    33             24.0000000000
     14362       465  AGAL      HO6           -25.5261460024       -6.8603253080      110.9029706375  LPSA13    33             24.0000000000
     14363       466  ARHM      C1            -28.4408722392       -2.9668352989      116.0570915809  LPSA13    34             25.0000000000
     14364       466  ARHM      H1            -27.6027166444       -3.3801580405      116.6528552943  LPSA13    34             25.0000000000
     14365       466  ARHM      C5            -30.5271503842       -3.6902454108      115.0856736094  LPSA13    34             25.0000000000
     14366       466  ARHM      H5            -30.2016465736       -3.3574474333      114.0750431102  LPSA13    34             25.0000000000
     14367       466  ARHM      O5            -29.3685864542       -4.0608821336      115.8478263769  LPSA13    34             25.0000000000
     14368       466  ARHM      C2            -29.1283705319       -1.8428992462      116.8179338247  LPSA13    34             25.0000000000
     14369       466  ARHM      H2            -28.4309130763       -0.9677461704      116.8491539249  LPSA13    34             25.0000000000
     14370       466  ARHM      O2            -29.4966712613       -2.1767189214      118.1808149437  LPSA13    34             25.0000000000
     14371       466  ARHM      C3            -30.3559686567       -1.4024715065      116.0347581161  LPSA13    34             25.0000000000
     14372       466  ARHM      H3            -30.0805854111       -1.1257645530      115.0025438758  LPSA13    34             25.0000000000
     14373       466  ARHM      O3            -30.9994902446       -0.2727506628      116.6418911149  LPSA13    34             25.0000000000
     14374       466  ARHM      HO3           -31.3400094166        0.2839974487      115.9217376043  LPSA13    34             25.0000000000
     14375       466  ARHM      C4            -31.2812292411       -2.5723252917      115.8149389936  LPSA13    34             25.0000000000
     14376       466  ARHM      H4            -31.5950952493       -2.9908726173      116.7971525097  LPSA13    34             25.0000000000
     14377       466  ARHM      O4            -32.4440938167       -2.1580405564      115.0860562587  LPSA13    34             25.0000000000
     14378       466  ARHM      HO4           -33.0053969813       -1.6704840681      115.7014607229  LPSA13    34             25.0000000000
     14379       466  ARHM      C6            -31.4507004778       -4.9048337938      114.8722521789  LPSA13    34             25.0000000000
     14380       466  ARHM      H61           -31.8505389985       -5.3611704824      115.7973290494  LPSA13    34             25.0000000000
     14381       466  ARHM      H62           -32.3400599297       -4.4733003251      114.4007156040  LPSA13    34             25.0000000000
     14382       466  ARHM      H63           -31.0616978222       -5.6873644058      114.1910160582  LPSA13    34             25.0000000000
     14383       467  ARHM      C1            -28.4928898651       -2.6325293522      119.0619087608  LPSA13    35             26.0000000000
     14384       467  ARHM      H1            -27.5462529797       -2.0730571019      118.8691585928  LPSA13    35             26.0000000000
     14385       467  ARHM      C5            -29.4621867769       -4.8336254225      119.2085328551  LPSA13    35             26.0000000000
     14386       467  ARHM      H5            -30.2747895662       -4.5356034082      118.5125443412  LPSA13    35             26.0000000000
     14387       467  ARHM      O5            -28.2729949829       -4.0536080423      118.9502309965  LPSA13    35             26.0000000000
     14388       467  ARHM      C2            -28.9086663325       -2.3605231180      120.5025179722  LPSA13    35             26.0000000000
     14389       467  ARHM      H2            -29.0882333280       -1.2661386600      120.6545965041  LPSA13    35             26.0000000000
     14390       467  ARHM      O2            -27.8813722353       -2.7874474514      121.4192699746  LPSA13    35             26.0000000000
     14391       467  ARHM      C3            -30.1896048312       -3.0949461291      120.8285365040  LPSA13    35             26.0000000000
     14392       467  ARHM      H3            -30.9893473831       -2.7729533206      120.1197201550  LPSA13    35             26.0000000000
     14393       467  ARHM      O3            -30.6584777720       -2.7417840921      122.1278355364  LPSA13    35             26.0000000000
     14394       467  ARHM      HO3           -29.9246645831       -2.6592783911      122.7376240765  LPSA13    35             26.0000000000
     14395       467  ARHM      C4            -29.9462694200       -4.5917857872      120.6512632151  LPSA13    35             26.0000000000
     14396       467  ARHM      H4            -29.1349059001       -4.9192343107      121.3378580740  LPSA13    35             26.0000000000
     14397       467  ARHM      O4            -31.1130638861       -5.3646923493      120.9618077923  LPSA13    35             26.0000000000
     14398       467  ARHM      HO4           -31.8731273257       -4.9068491296      120.5721645296  LPSA13    35             26.0000000000
     14399       467  ARHM      C6            -29.1593656145       -6.3035890815      118.8429016845  LPSA13    35             26.0000000000
     14400       467  ARHM      H61           -28.9736541643       -6.4451742429      117.7607010797  LPSA13    35             26.0000000000
     14401       467  ARHM      H62           -28.2476841178       -6.6389213742      119.3711556597  LPSA13    35             26.0000000000
     14402       467  ARHM      H63           -30.0319036082       -6.9408375278      119.1042811510  LPSA13    35             26.0000000000
     14403       468  BMANNA    C1            -26.7404856354       -1.9705188524      121.4703505724  LPSA13    36             27.0000000000
     14404       468  BMANNA    H1            -26.9891208484       -0.9455463007      121.1273990475  LPSA13    36             27.0000000000
     14405       468  BMANNA    C5            -24.5355579383       -1.5415297413      120.7184396867  LPSA13    36             27.0000000000
     14406       468  BMANNA    H5            -24.8860245127       -0.5199612525      120.4588059282  LPSA13    36             27.0000000000
     14407       468  BMANNA    O5            -25.6632540289       -2.4449183094      120.6555856455  LPSA13    36             27.0000000000
     14408       468  BMANNA    C2            -26.2848291692       -1.9415467229      122.9157728723  LPSA13    36             27.0000000000
     14409       468  BMANNA    H2            -27.1420742270       -1.4960507604      123.4819158082  LPSA13    36             27.0000000000
     14410       468  BMANNA    N             -25.9926030989       -3.2566544693      123.4896692600  LPSA13    36             27.0000000000
     14411       468  BMANNA    HN            -25.5468636929       -3.9178832214      122.8850625922  LPSA13    36             27.0000000000
     14412       468  BMANNA    C             -26.1454675157       -3.5008285434      124.8094946847  LPSA13    36             27.0000000000
     14413       468  BMANNA    O             -26.6817084179       -2.7197529810      125.5812469920  LPSA13    36             27.0000000000
     14414       468  BMANNA    CT            -25.6352113512       -4.8097929214      125.3559457349  LPSA13    36             27.0000000000
     14415       468  BMANNA    HT1           -24.6635428987       -5.0403170111      124.9174211767  LPSA13    36             27.0000000000
     14416       468  BMANNA    HT2           -26.3167096204       -5.6543013561      125.1531145867  LPSA13    36             27.0000000000
     14417       468  BMANNA    HT3           -25.4847556863       -4.7411969582      126.4533320924  LPSA13    36             27.0000000000
     14418       468  BMANNA    C3            -25.1187559112       -0.9793382303      123.0136615284  LPSA13    36             27.0000000000
     14419       468  BMANNA    H3            -25.4417147552        0.0297235036      122.6521721588  LPSA13    36             27.0000000000
     14420       468  BMANNA    O3            -24.6396476130       -0.8176833224      124.3423572075  LPSA13    36             27.0000000000
     14421       468  BMANNA    HO3           -24.8196893012        0.0708157211      124.6616082668  LPSA13    36             27.0000000000
     14422       468  BMANNA    C4            -24.0058255516       -1.4558707645      122.1263387069  LPSA13    36             27.0000000000
     14423       468  BMANNA    H4            -23.6385145274       -2.4545184387      122.4492153642  LPSA13    36             27.0000000000
     14424       468  BMANNA    O4            -22.8950702629       -0.5935575617      122.2194208655  LPSA13    36             27.0000000000
     14425       468  BMANNA    HO4           -22.7445596524       -0.5594210978      123.1718431383  LPSA13    36             27.0000000000
     14426       468  BMANNA    C6            -23.4696894748       -1.8996323335      119.7159913681  LPSA13    36             27.0000000000
     14427       468  BMANNA    H61           -23.9017282160       -1.9395841778      118.6898419878  LPSA13    36             27.0000000000
     14428       468  BMANNA    H62           -22.7166836731       -1.0765044222      119.7009339041  LPSA13    36             27.0000000000
     14429       468  BMANNA    O6            -22.8285347271       -3.1340868225      120.0592103627  LPSA13    36             27.0000000000
     14430       468  BMANNA    HO6           -22.0723962348       -2.9332955240      120.6233241890  LPSA13    36             27.0000000000
     14431       469  ECLIPA    HB6S           19.5836690695       22.8530585413       20.4249199005  LPSA14    1               0.0000000000
     14432       469  ECLIPA    OB6            21.0994361770       23.3834681722       21.7163132620  LPSA14    1               0.0000000000
     14433       469  ECLIPA    CB6            20.1511555268       23.7651912689       20.6998733521  LPSA14    1               0.0000000000
     14434       469  ECLIPA    HB6R           19.4278136762       24.5118818408       21.1006278546  LPSA14    1               0.0000000000
     14435       469  ECLIPA    CB5            20.7627289449       24.3592007086       19.4361105924  LPSA14    1               0.0000000000
     14436       469  ECLIPA    OB5            21.7079091496       23.3821474460       18.9579146242  LPSA14    1               0.0000000000
     14437       469  ECLIPA    HB5            21.2732352035       25.3030983103       19.7420277282  LPSA14    1               0.0000000000
     14438       469  ECLIPA    CB1            22.3981979334       23.8341806016       17.7855446312  LPSA14    1               0.0000000000
     14439       469  ECLIPA    HB1            22.9234993385       24.8025370208       17.9652729439  LPSA14    1               0.0000000000
     14440       469  ECLIPA    OA6            23.3592815637       22.9205349712       17.3261274610  LPSA14    1               0.0000000000
     14441       469  ECLIPA    CA6            23.0550185386       21.5384335515       17.5791045030  LPSA14    1               0.0000000000
     14442       469  ECLIPA    HA6R           21.9762926095       21.3599978508       17.7693286350  LPSA14    1               0.0000000000
     14443       469  ECLIPA    HA6S           23.6662870512       21.1974059210       18.4489090224  LPSA14    1               0.0000000000
     14444       469  ECLIPA    CB4            19.7345856879       24.6765113948       18.3288912159  LPSA14    1               0.0000000000
     14445       469  ECLIPA    HB4            19.1418258285       23.7674294541       18.0498945496  LPSA14    1               0.0000000000
     14446       469  ECLIPA    OB4            18.9266367023       25.7490398203       18.8274999851  LPSA14    1               0.0000000000
     14447       469  ECLIPA    PB             17.3654845823       25.4904093486       19.2981019139  LPSA14    1               0.0000000000
     14448       469  ECLIPA    OPB4           17.0576644903       26.4522138836       20.4471500668  LPSA14    1               0.0000000000
     14449       469  ECLIPA    OPB3           17.3121973854       24.0126800652       19.6881834339  LPSA14    1               0.0000000000
     14450       469  ECLIPA    OPB2           16.5294257677       25.8391744691       18.0761740864  LPSA14    1               0.0000000000
     14451       469  ECLIPA    CB3            20.4648802668       25.1437363357       17.0858742647  LPSA14    1               0.0000000000
     14452       469  ECLIPA    OB3            19.6382649374       25.3684124855       15.9411399381  LPSA14    1               0.0000000000
     14453       469  ECLIPA    HB3            21.0863646691       26.0393334971       17.3331232324  LPSA14    1               0.0000000000
     14454       469  ECLIPA    C71            19.0827989841       26.5427937013       15.7512022054  LPSA14    1               0.0000000000
     14455       469  ECLIPA    O71            19.4683883047       27.5950986630       16.2612572902  LPSA14    1               0.0000000000
     14456       469  ECLIPA    C72            18.3792917492       26.5371675235       14.3663812233  LPSA14    1               0.0000000000
     14457       469  ECLIPA    H72R           19.1044792157       26.2274020221       13.5890227258  LPSA14    1               0.0000000000
     14458       469  ECLIPA    H72S           18.0193603853       27.5642103048       14.1568511525  LPSA14    1               0.0000000000
     14459       469  ECLIPA    CB2            21.4302085618       24.0596544922       16.6636057203  LPSA14    1               0.0000000000
     14460       469  ECLIPA    HB2            20.8425264096       23.1092683285       16.5113025895  LPSA14    1               0.0000000000
     14461       469  ECLIPA    NB2            22.1422424805       24.4523535080       15.4502536752  LPSA14    1               0.0000000000
     14462       469  ECLIPA    HNB2           22.9940854555       24.9558321555       15.5697940795  LPSA14    1               0.0000000000
     14463       469  ECLIPA    CA4            24.7013891999       21.1670882283       15.8211381203  LPSA14    1               0.0000000000
     14464       469  ECLIPA    HA4            24.6531948843       22.2475525584       15.5810516013  LPSA14    1               0.0000000000
     14465       469  ECLIPA    OA4            25.6833742355       20.9383879936       16.8236297770  LPSA14    1               0.0000000000
     14466       469  ECLIPA    HOA4           25.4512938444       21.4184360867       17.6248942384  LPSA14    1               0.0000000000
     14467       469  ECLIPA    CA5            23.4137154341       20.7395200067       16.3553004069  LPSA14    1               0.0000000000
     14468       469  ECLIPA    HA5            23.3949077543       19.6432050635       16.5774829906  LPSA14    1               0.0000000000
     14469       469  ECLIPA    OA5            22.4601274207       21.0447120943       15.3444653325  LPSA14    1               0.0000000000
     14470       469  ECLIPA    CA1            22.6697419216       20.3364820660       14.1056634367  LPSA14    1               0.0000000000
     14471       469  ECLIPA    HA1            21.9588437006       20.8273877940       13.4155381547  LPSA14    1               0.0000000000
     14472       469  ECLIPA    OA1            22.4249003035       18.9524662127       14.1421496250  LPSA14    1               0.0000000000
     14473       469  ECLIPA    OPA2           21.3716184400       17.7040477981       15.9938528987  LPSA14    1               0.0000000000
     14474       469  ECLIPA    OPA3           20.0216258401       19.6065367046       14.9215648386  LPSA14    1               0.0000000000
     14475       469  ECLIPA    OPA4           20.4676413953       17.4680018133       13.6200226211  LPSA14    1               0.0000000000
     14476       469  ECLIPA    PA             20.9646061003       18.4273909747       14.6955084453  LPSA14    1               0.0000000000
     14477       469  ECLIPA    CA3            24.9403227109       20.4645357260       14.5318994961  LPSA14    1               0.0000000000
     14478       469  ECLIPA    HA3            25.0744802036       19.3922509460       14.7508114212  LPSA14    1               0.0000000000
     14479       469  ECLIPA    OA3            26.0605086859       21.1931353773       14.2153818625  LPSA14    1               0.0000000000
     14480       469  ECLIPA    C31            26.2540293645       22.1968242110       13.4091891560  LPSA14    1               0.0000000000
     14481       469  ECLIPA    O31            26.5024738861       22.1022559553       12.2182716817  LPSA14    1               0.0000000000
     14482       469  ECLIPA    C32            27.0696986775       23.0970144781       14.2289383439  LPSA14    1               0.0000000000
     14483       469  ECLIPA    H32R           28.0028232287       23.3151753146       13.6350564282  LPSA14    1               0.0000000000
     14484       469  ECLIPA    H32S           27.2802210552       22.7068502219       15.2618323068  LPSA14    1               0.0000000000
     14485       469  ECLIPA    CA2            23.9638887741       20.7170439680       13.4893892906  LPSA14    1               0.0000000000
     14486       469  ECLIPA    HA2            23.9205155647       21.8114285559       13.3083213972  LPSA14    1               0.0000000000
     14487       469  ECLIPA    NA2            24.2864578950       20.0142438856       12.2291163468  LPSA14    1               0.0000000000
     14488       469  ECLIPA    HNA2           25.2015741378       19.6335497559       12.1323470168  LPSA14    1               0.0000000000
     14489       469  ECLIPA    C73            17.2006774641       25.5319133203       14.3254248405  LPSA14    1               0.0000000000
     14490       469  ECLIPA    H73R           16.5859989787       25.7140212759       15.2458747977  LPSA14    1               0.0000000000
     14491       469  ECLIPA    O73            17.7753361958       24.2331269260       14.3217130426  LPSA14    1               0.0000000000
     14492       469  ECLIPA    C81            17.1812036214       23.2190956004       14.9620883721  LPSA14    1               0.0000000000
     14493       469  ECLIPA    O81            16.1154101274       23.2725585625       15.5583221637  LPSA14    1               0.0000000000
     14494       469  ECLIPA    C82            17.7171901817       21.9180784901       14.3442468017  LPSA14    1               0.0000000000
     14495       469  ECLIPA    H82R           17.2445225068       21.0674119826       14.8646179714  LPSA14    1               0.0000000000
     14496       469  ECLIPA    H82S           18.8047049228       21.8514001080       14.5598766316  LPSA14    1               0.0000000000
     14497       469  ECLIPA    C83            17.5054910006       21.8036154983       12.8109911789  LPSA14    1               0.0000000000
     14498       469  ECLIPA    H83R           18.3156265976       22.3671714019       12.2922894107  LPSA14    1               0.0000000000
     14499       469  ECLIPA    H83S           16.5351146192       22.2645476738       12.5392926920  LPSA14    1               0.0000000000
     14500       469  ECLIPA    C84            17.5978141456       20.3579891281       12.2903589130  LPSA14    1               0.0000000000
     14501       469  ECLIPA    H84R           16.7124691992       19.7639670893       12.5929375400  LPSA14    1               0.0000000000
     14502       469  ECLIPA    H84S           18.5097647589       19.9082784149       12.7650479886  LPSA14    1               0.0000000000
     14503       469  ECLIPA    C85            17.8049756861       20.2851118104       10.7694599547  LPSA14    1               0.0000000000
     14504       469  ECLIPA    H85R           18.5526190004       21.0789059519       10.5439049357  LPSA14    1               0.0000000000
     14505       469  ECLIPA    H85S           16.8729453485       20.5618282576       10.2347985831  LPSA14    1               0.0000000000
     14506       469  ECLIPA    C86            18.4235467798       18.9540396426       10.2860304301  LPSA14    1               0.0000000000
     14507       469  ECLIPA    H86R           17.6379466250       18.2237544708        9.9916321014  LPSA14    1               0.0000000000
     14508       469  ECLIPA    H86S           18.9873560551       18.4866969013       11.1304989449  LPSA14    1               0.0000000000
     14509       469  ECLIPA    C87            19.4577801931       19.1552832806        9.1595564479  LPSA14    1               0.0000000000
     14510       469  ECLIPA    H87R           19.8097632630       18.1653864761        8.7971154533  LPSA14    1               0.0000000000
     14511       469  ECLIPA    H87S           20.3533109649       19.6719238261        9.5769514484  LPSA14    1               0.0000000000
     14512       469  ECLIPA    C88            18.9256313305       20.0264358470        8.0200387608  LPSA14    1               0.0000000000
     14513       469  ECLIPA    H88R           18.9257006260       21.0863115124        8.3496850354  LPSA14    1               0.0000000000
     14514       469  ECLIPA    H88S           17.8497966354       19.7779423314        7.8788878117  LPSA14    1               0.0000000000
     14515       469  ECLIPA    C89            19.7337527912       19.8994886413        6.7152385527  LPSA14    1               0.0000000000
     14516       469  ECLIPA    H89R           20.7573654943       19.5021858210        6.8948467407  LPSA14    1               0.0000000000
     14517       469  ECLIPA    H89S           19.8772737553       20.9017966161        6.2578547506  LPSA14    1               0.0000000000
     14518       469  ECLIPA    C810           18.9742113464       19.0450897073        5.6966941281  LPSA14    1               0.0000000000
     14519       469  ECLIPA    H810R          17.8952384535       19.1699525680        5.9304631302  LPSA14    1               0.0000000000
     14520       469  ECLIPA    H810S          19.2474352924       17.9792886412        5.8645061736  LPSA14    1               0.0000000000
     14521       469  ECLIPA    C811           19.2358418730       19.4369416326        4.2337065114  LPSA14    1               0.0000000000
     14522       469  ECLIPA    H811R          18.9802365064       18.6019297563        3.5406732867  LPSA14    1               0.0000000000
     14523       469  ECLIPA    H811S          20.3250749949       19.6537766200        4.1492094795  LPSA14    1               0.0000000000
     14524       469  ECLIPA    C812           18.5025571834       20.6934966903        3.7358182482  LPSA14    1               0.0000000000
     14525       469  ECLIPA    H812R          18.9038549706       20.9081135906        2.7148225771  LPSA14    1               0.0000000000
     14526       469  ECLIPA    H812S          18.7357794901       21.5443116345        4.4085419631  LPSA14    1               0.0000000000
     14527       469  ECLIPA    C813           16.9788859089       20.5968681000        3.6361816112  LPSA14    1               0.0000000000
     14528       469  ECLIPA    H813R          16.7309302859       19.7779300595        2.9288763925  LPSA14    1               0.0000000000
     14529       469  ECLIPA    H813S          16.5250408596       20.3456884484        4.6237273878  LPSA14    1               0.0000000000
     14530       469  ECLIPA    C814           16.3477595643       21.8947692786        3.1312006573  LPSA14    1               0.0000000000
     14531       469  ECLIPA    H814R          16.8548249387       22.2789554905        2.2181874036  LPSA14    1               0.0000000000
     14532       469  ECLIPA    H814S          16.4030696442       22.6745276192        3.9190886324  LPSA14    1               0.0000000000
     14533       469  ECLIPA    H814T          15.2803430016       21.7209904112        2.8923788867  LPSA14    1               0.0000000000
     14534       469  ECLIPA    C74            16.2854727829       25.5691784115       13.0615653074  LPSA14    1               0.0000000000
     14535       469  ECLIPA    H74R           15.7735745367       26.4575598842       12.6847895508  LPSA14    1               0.0000000000
     14536       469  ECLIPA    H74S           15.4496222227       24.8798545047       13.3064878524  LPSA14    1               0.0000000000
     14537       469  ECLIPA    C75            16.9519307238       25.2334826411       11.7365932278  LPSA14    1               0.0000000000
     14538       469  ECLIPA    H75R           16.1418048350       24.7370728577       11.1572366220  LPSA14    1               0.0000000000
     14539       469  ECLIPA    H75S           17.7653169199       24.5206336921       11.9470653756  LPSA14    1               0.0000000000
     14540       469  ECLIPA    C76            17.4849748784       26.4441393596       10.9423026443  LPSA14    1               0.0000000000
     14541       469  ECLIPA    H76R           18.4607947716       26.7592047683       11.3734822725  LPSA14    1               0.0000000000
     14542       469  ECLIPA    H76S           16.8081985363       27.3325966091       10.9930158061  LPSA14    1               0.0000000000
     14543       469  ECLIPA    C77            17.6922186686       26.1353320541        9.4491062766  LPSA14    1               0.0000000000
     14544       469  ECLIPA    H77R           16.6995616741       25.9487430213        8.9892501504  LPSA14    1               0.0000000000
     14545       469  ECLIPA    H77S           18.2670818521       25.2064521465        9.3082316337  LPSA14    1               0.0000000000
     14546       469  ECLIPA    C78            18.4908265783       27.2765629015        8.8003252455  LPSA14    1               0.0000000000
     14547       469  ECLIPA    H78R           17.9861126935       28.2313960811        9.0662295674  LPSA14    1               0.0000000000
     14548       469  ECLIPA    H78S           19.4758027194       27.2836772348        9.3213627440  LPSA14    1               0.0000000000
     14549       469  ECLIPA    C79            18.8121897047       27.1668333005        7.2923296531  LPSA14    1               0.0000000000
     14550       469  ECLIPA    H79R           19.8199406964       26.7052714928        7.1720742711  LPSA14    1               0.0000000000
     14551       469  ECLIPA    H79S           18.8613147908       28.1792536506        6.8321238093  LPSA14    1               0.0000000000
     14552       469  ECLIPA    C710           17.7931251384       26.4052034599        6.4510965029  LPSA14    1               0.0000000000
     14553       469  ECLIPA    H710R          17.6314217347       25.3889541841        6.8658984992  LPSA14    1               0.0000000000
     14554       469  ECLIPA    H710S          16.8317748606       26.9641863320        6.4852608020  LPSA14    1               0.0000000000
     14555       469  ECLIPA    C711           18.2059414784       26.2485023642        4.9864929872  LPSA14    1               0.0000000000
     14556       469  ECLIPA    H711R          18.3486486590       27.2561441483        4.5338825586  LPSA14    1               0.0000000000
     14557       469  ECLIPA    H711S          19.1618558038       25.6786001335        4.9201295383  LPSA14    1               0.0000000000
     14558       469  ECLIPA    C712           17.1198248845       25.4661821847        4.2508311551  LPSA14    1               0.0000000000
     14559       469  ECLIPA    H712R          16.1824547366       26.0640210120        4.2631118076  LPSA14    1               0.0000000000
     14560       469  ECLIPA    H712S          16.9375305747       24.5381130694        4.8334054215  LPSA14    1               0.0000000000
     14561       469  ECLIPA    C713           17.5053721428       25.0850714248        2.8337447374  LPSA14    1               0.0000000000
     14562       469  ECLIPA    H713R          18.4162864618       24.4381614760        2.8562330936  LPSA14    1               0.0000000000
     14563       469  ECLIPA    H713S          16.6883334888       24.5115656867        2.3318388756  LPSA14    1               0.0000000000
     14564       469  ECLIPA    C714           17.7751217858       26.2707315050        1.9509560283  LPSA14    1               0.0000000000
     14565       469  ECLIPA    H714R          16.8667520862       26.8978767146        1.7975844267  LPSA14    1               0.0000000000
     14566       469  ECLIPA    H714S          18.6264047765       26.9148579927        2.2525316225  LPSA14    1               0.0000000000
     14567       469  ECLIPA    H714T          18.0470633011       25.7856119931        0.9928215984  LPSA14    1               0.0000000000
     14568       469  ECLIPA    C51            21.6356741272       24.1937383117       14.2341943689  LPSA14    1               0.0000000000
     14569       469  ECLIPA    O51            20.7334496704       23.3962830063       14.0761033595  LPSA14    1               0.0000000000
     14570       469  ECLIPA    C52            22.1870690111       24.9519574574       13.0559332142  LPSA14    1               0.0000000000
     14571       469  ECLIPA    H52R           21.6662455258       25.9272222728       12.9334204597  LPSA14    1               0.0000000000
     14572       469  ECLIPA    H52S           23.2340509237       25.1387718761       13.2645858369  LPSA14    1               0.0000000000
     14573       469  ECLIPA    C53            22.0757000872       24.1232173194       11.7616309644  LPSA14    1               0.0000000000
     14574       469  ECLIPA    H53R           22.2031011531       23.0365500277       11.9859248061  LPSA14    1               0.0000000000
     14575       469  ECLIPA    O53            23.0677097603       24.6249045644       10.8519881746  LPSA14    1               0.0000000000
     14576       469  ECLIPA    C61            24.0892855225       23.8374075340       10.5393327132  LPSA14    1               0.0000000000
     14577       469  ECLIPA    O61            24.2210454347       22.6792541943       10.8530446986  LPSA14    1               0.0000000000
     14578       469  ECLIPA    C62            25.0131880115       24.5864999336        9.6082034858  LPSA14    1               0.0000000000
     14579       469  ECLIPA    H62R           25.7039229221       25.1699688800       10.2470504991  LPSA14    1               0.0000000000
     14580       469  ECLIPA    H62S           24.4114946104       25.3052079048        9.0228376592  LPSA14    1               0.0000000000
     14581       469  ECLIPA    C63            25.8035002504       23.5915732586        8.7406669308  LPSA14    1               0.0000000000
     14582       469  ECLIPA    H63R           25.1432495625       22.8269381346        8.2941926410  LPSA14    1               0.0000000000
     14583       469  ECLIPA    H63S           26.5674763513       23.1123318647        9.3862236422  LPSA14    1               0.0000000000
     14584       469  ECLIPA    C64            26.4925641807       24.1913165586        7.5412838263  LPSA14    1               0.0000000000
     14585       469  ECLIPA    H64R           27.0231617969       23.4580073153        6.9763345220  LPSA14    1               0.0000000000
     14586       469  ECLIPA    H64S           27.2643851501       24.8241067675        8.0070570756  LPSA14    1               0.0000000000
     14587       469  ECLIPA    C65            25.4841711115       24.7380201555        6.5401954002  LPSA14    1               0.0000000000
     14588       469  ECLIPA    H65R           24.9735063124       25.5202537257        7.1350588841  LPSA14    1               0.0000000000
     14589       469  ECLIPA    H65S           24.7454711693       23.9885724216        6.2390164286  LPSA14    1               0.0000000000
     14590       469  ECLIPA    C66            25.9417028822       25.2979816414        5.1967540159  LPSA14    1               0.0000000000
     14591       469  ECLIPA    H66R           26.8118064429       25.8921920552        5.3018370110  LPSA14    1               0.0000000000
     14592       469  ECLIPA    H66S           25.1643267396       25.9430777101        4.7466865419  LPSA14    1               0.0000000000
     14593       469  ECLIPA    C67            26.6981547732       24.5184227928        4.2033006455  LPSA14    1               0.0000000000
     14594       469  ECLIPA    H67R           27.5994116097       23.9962806724        4.5742353138  LPSA14    1               0.0000000000
     14595       469  ECLIPA    H67S           26.9543082886       25.2534060365        3.4439152682  LPSA14    1               0.0000000000
     14596       469  ECLIPA    C68            25.7566314363       23.6769775908        3.5294454186  LPSA14    1               0.0000000000
     14597       469  ECLIPA    H68R           24.8647171624       24.2080382425        3.1275917463  LPSA14    1               0.0000000000
     14598       469  ECLIPA    H68S           25.5067429147       22.9297677619        4.3034890544  LPSA14    1               0.0000000000
     14599       469  ECLIPA    C69            26.3635290715       23.1181017834        2.3490550405  LPSA14    1               0.0000000000
     14600       469  ECLIPA    H69R           27.3982275032       22.8613196764        2.3324099940  LPSA14    1               0.0000000000
     14601       469  ECLIPA    H69S           26.3349128446       23.8844246096        1.5610140963  LPSA14    1               0.0000000000
     14602       469  ECLIPA    C610           25.6221182346       21.8183030681        2.2410402209  LPSA14    1               0.0000000000
     14603       469  ECLIPA    H610R          24.5433485153       21.8611027516        2.2822582951  LPSA14    1               0.0000000000
     14604       469  ECLIPA    H610S          26.0700428741       21.0084129690        2.8692993450  LPSA14    1               0.0000000000
     14605       469  ECLIPA    C611           25.7180828172       21.4462919296        0.8950826592  LPSA14    1               0.0000000000
     14606       469  ECLIPA    H611R          26.7301607323       21.5225175969        1.0733484824  LPSA14    1               0.0000000000
     14607       469  ECLIPA    H611S          25.4442536757       20.3961536130        0.6216862462  LPSA14    1               0.0000000000
     14608       469  ECLIPA    C612           25.5332600897       22.4876361571       -0.1126113999  LPSA14    1               0.0000000000
     14609       469  ECLIPA    H612R          24.6918853752       21.9643693542       -0.5135130762  LPSA14    1               0.0000000000
     14610       469  ECLIPA    H612S          25.8281314843       23.5274385887       -0.1356494678  LPSA14    1               0.0000000000
     14611       469  ECLIPA    H612T          25.9647554294       22.5317387940       -1.0885437737  LPSA14    1               0.0000000000
     14612       469  ECLIPA    C54            20.6688409836       24.3760909959       11.1679183647  LPSA14    1               0.0000000000
     14613       469  ECLIPA    H54R           20.6262852974       25.4499950843       10.8806179999  LPSA14    1               0.0000000000
     14614       469  ECLIPA    H54S           19.9282214307       24.2110659936       11.9771013091  LPSA14    1               0.0000000000
     14615       469  ECLIPA    C55            20.2587309711       23.5088086093        9.9630834119  LPSA14    1               0.0000000000
     14616       469  ECLIPA    H55R           19.1579178316       23.5627784283        9.8234214949  LPSA14    1               0.0000000000
     14617       469  ECLIPA    H55S           20.4821181080       22.4461232415       10.2016410017  LPSA14    1               0.0000000000
     14618       469  ECLIPA    C56            20.9373909184       24.0291915332        8.6897588015  LPSA14    1               0.0000000000
     14619       469  ECLIPA    H56R           22.0298873420       24.0424397147        8.8602749222  LPSA14    1               0.0000000000
     14620       469  ECLIPA    H56S           20.6230173145       25.0824650260        8.5053808212  LPSA14    1               0.0000000000
     14621       469  ECLIPA    C57            20.7534347882       23.2283115805        7.4034161344  LPSA14    1               0.0000000000
     14622       469  ECLIPA    H57R           19.6783247891       23.0587154515        7.1805087256  LPSA14    1               0.0000000000
     14623       469  ECLIPA    H57S           21.2205041528       22.2266103226        7.5423739272  LPSA14    1               0.0000000000
     14624       469  ECLIPA    C58            21.4670694021       23.9516105079        6.2412103508  LPSA14    1               0.0000000000
     14625       469  ECLIPA    H58R           21.2156490622       25.0325923912        6.2172506528  LPSA14    1               0.0000000000
     14626       469  ECLIPA    H58S           22.5584266962       23.9098554435        6.4614736885  LPSA14    1               0.0000000000
     14627       469  ECLIPA    C59            21.1279604783       23.3331464616        4.8720176984  LPSA14    1               0.0000000000
     14628       469  ECLIPA    H59R           20.0240036812       23.3461149243        4.7166616265  LPSA14    1               0.0000000000
     14629       469  ECLIPA    H59S           21.4421554468       22.2701461999        4.9603816163  LPSA14    1               0.0000000000
     14630       469  ECLIPA    C510           21.7228772595       24.0861737243        3.6557402840  LPSA14    1               0.0000000000
     14631       469  ECLIPA    H510R          22.7890257978       24.3359925925        3.8300881489  LPSA14    1               0.0000000000
     14632       469  ECLIPA    H510S          21.1674264253       25.0449877858        3.5279336984  LPSA14    1               0.0000000000
     14633       469  ECLIPA    C511           21.6338195168       23.3736567117        2.2961137233  LPSA14    1               0.0000000000
     14634       469  ECLIPA    H511R          22.4342900485       22.6037416477        2.2518282317  LPSA14    1               0.0000000000
     14635       469  ECLIPA    H511S          20.6680376990       22.8201333360        2.2123598809  LPSA14    1               0.0000000000
     14636       469  ECLIPA    C512           21.7742604074       24.3646478172        1.1088128196  LPSA14    1               0.0000000000
     14637       469  ECLIPA    H512R          21.2787664735       23.8616090371        0.2464296686  LPSA14    1               0.0000000000
     14638       469  ECLIPA    H512S          21.1453015413       25.2591559454        1.2008425308  LPSA14    1               0.0000000000
     14639       469  ECLIPA    C513           23.2406760979       24.8076991701        0.7849552874  LPSA14    1               0.0000000000
     14640       469  ECLIPA    H513R          23.8800244772       23.9065718336        0.7799160954  LPSA14    1               0.0000000000
     14641       469  ECLIPA    H513S          23.7474454517       25.3145775815        1.6123355633  LPSA14    1               0.0000000000
     14642       469  ECLIPA    C514           23.4230230385       25.6669643899       -0.5083446249  LPSA14    1               0.0000000000
     14643       469  ECLIPA    H514R          22.6967699236       26.4777196973       -0.5437249091  LPSA14    1               0.0000000000
     14644       469  ECLIPA    H514S          24.4689871696       25.9166846191       -0.6205866757  LPSA14    1               0.0000000000
     14645       469  ECLIPA    H514T          23.2904078451       25.2724084937       -1.5318189220  LPSA14    1               0.0000000000
     14646       469  ECLIPA    C33            26.5314990027       24.3824173148       14.5295170059  LPSA14    1               0.0000000000
     14647       469  ECLIPA    H33R           27.3597170155       24.7886308796       15.1548766647  LPSA14    1               0.0000000000
     14648       469  ECLIPA    O33            25.5633903570       24.3575765337       15.5083232905  LPSA14    1               0.0000000000
     14649       469  ECLIPA    HO33           26.0542427129       24.3891512965       16.3431439746  LPSA14    1               0.0000000000
     14650       469  ECLIPA    C34            26.0019908463       25.0586266379       13.2226557567  LPSA14    1               0.0000000000
     14651       469  ECLIPA    H34R           25.3003588645       24.3928326817       12.7306245308  LPSA14    1               0.0000000000
     14652       469  ECLIPA    H34S           26.8294551940       25.1613353790       12.4541235901  LPSA14    1               0.0000000000
     14653       469  ECLIPA    C35            25.2178165967       26.3563008446       13.4742210859  LPSA14    1               0.0000000000
     14654       469  ECLIPA    H35R           25.7536024126       27.2760374671       13.6497062576  LPSA14    1               0.0000000000
     14655       469  ECLIPA    H35S           24.6950134150       26.4239101021       14.4148431124  LPSA14    1               0.0000000000
     14656       469  ECLIPA    C36            24.4748579619       26.9135833563       12.3474033249  LPSA14    1               0.0000000000
     14657       469  ECLIPA    H36R           24.3952934061       26.2281658920       11.5320014492  LPSA14    1               0.0000000000
     14658       469  ECLIPA    H36S           25.2416897766       27.4795149203       11.9944636313  LPSA14    1               0.0000000000
     14659       469  ECLIPA    C37            23.6779104491       28.1794157726       12.5489790958  LPSA14    1               0.0000000000
     14660       469  ECLIPA    H37R           24.2651661433       29.1439244330       12.5881360530  LPSA14    1               0.0000000000
     14661       469  ECLIPA    H37S           23.3171786135       28.0224023143       13.5812982036  LPSA14    1               0.0000000000
     14662       469  ECLIPA    C38            22.6187199280       28.3016073266       11.4547895869  LPSA14    1               0.0000000000
     14663       469  ECLIPA    H38R           22.0397289051       27.3637069027       11.4643474582  LPSA14    1               0.0000000000
     14664       469  ECLIPA    H38S           22.0351059341       29.1948182667       11.7236098053  LPSA14    1               0.0000000000
     14665       469  ECLIPA    C39            23.0993820099       28.4279301027       10.0080255831  LPSA14    1               0.0000000000
     14666       469  ECLIPA    H39R           23.7067470950       27.5064922572        9.8391715472  LPSA14    1               0.0000000000
     14667       469  ECLIPA    H39S           23.6261600562       29.4131370361        9.8886955521  LPSA14    1               0.0000000000
     14668       469  ECLIPA    C310           22.1588115754       28.4502964666        8.8126523691  LPSA14    1               0.0000000000
     14669       469  ECLIPA    H310R          21.6893302351       29.4465819049        8.9369752450  LPSA14    1               0.0000000000
     14670       469  ECLIPA    H310S          21.5120954938       27.5713317490        8.9489411358  LPSA14    1               0.0000000000
     14671       469  ECLIPA    C311           22.7752084229       28.2258580060        7.4126583544  LPSA14    1               0.0000000000
     14672       469  ECLIPA    H311R          23.5563158974       28.9823845319        7.1883739180  LPSA14    1               0.0000000000
     14673       469  ECLIPA    H311S          23.1907139021       27.1848203190        7.3098641126  LPSA14    1               0.0000000000
     14674       469  ECLIPA    C312           22.0721012300       28.7122717219        6.2071288806  LPSA14    1               0.0000000000
     14675       469  ECLIPA    H312R          21.0191476762       28.5533068124        6.4265014396  LPSA14    1               0.0000000000
     14676       469  ECLIPA    H312S          22.3170072542       29.8111968445        6.0938954903  LPSA14    1               0.0000000000
     14677       469  ECLIPA    C313           22.5824426200       27.9670121274        4.9909432072  LPSA14    1               0.0000000000
     14678       469  ECLIPA    H313R          23.5249818879       28.4598607392        4.7744124740  LPSA14    1               0.0000000000
     14679       469  ECLIPA    H313S          22.7839385273       26.8835899081        5.1685450519  LPSA14    1               0.0000000000
     14680       469  ECLIPA    C314           21.7137267359       28.2021247716        3.7844814151  LPSA14    1               0.0000000000
     14681       469  ECLIPA    H314R          21.6834962795       29.2966313979        3.5879686962  LPSA14    1               0.0000000000
     14682       469  ECLIPA    H314S          22.1090982478       27.6844034515        2.8861992324  LPSA14    1               0.0000000000
     14683       469  ECLIPA    H314T          20.6969896807       27.8341720519        4.0183192497  LPSA14    1               0.0000000000
     14684       469  ECLIPA    C11            23.3973435022       19.7494216844       11.2498136818  LPSA14    1               0.0000000000
     14685       469  ECLIPA    O11            22.3348281133       20.3369119898       11.0880794696  LPSA14    1               0.0000000000
     14686       469  ECLIPA    C12            23.8013428760       18.6325416706       10.3260265897  LPSA14    1               0.0000000000
     14687       469  ECLIPA    H12R           23.1888892810       17.7383346627       10.5506560261  LPSA14    1               0.0000000000
     14688       469  ECLIPA    H12S           24.8719865294       18.4027357393       10.5124657782  LPSA14    1               0.0000000000
     14689       469  ECLIPA    C13            23.6466394015       19.0076618797        8.8563982444  LPSA14    1               0.0000000000
     14690       469  ECLIPA    H13R           22.6944092897       19.5497245931        8.6445131415  LPSA14    1               0.0000000000
     14691       469  ECLIPA    O13            23.6299828416       17.7899478261        8.1197277226  LPSA14    1               0.0000000000
     14692       469  ECLIPA    HO13           23.1475467283       17.8223947255        7.2889564560  LPSA14    1               0.0000000000
     14693       469  ECLIPA    C14            24.8361499104       19.8922572292        8.4403770229  LPSA14    1               0.0000000000
     14694       469  ECLIPA    H14R           25.7648949470       19.5583078293        8.9590219734  LPSA14    1               0.0000000000
     14695       469  ECLIPA    H14S           24.5940537298       20.9214953048        8.7770532058  LPSA14    1               0.0000000000
     14696       469  ECLIPA    C15            25.1262485545       19.9586132340        6.9474274914  LPSA14    1               0.0000000000
     14697       469  ECLIPA    H15R           25.2955251689       18.9269443444        6.5737009243  LPSA14    1               0.0000000000
     14698       469  ECLIPA    H15S           26.0856694762       20.4982396559        6.8286656770  LPSA14    1               0.0000000000
     14699       469  ECLIPA    C16            24.0109210238       20.6599242074        6.1674827367  LPSA14    1               0.0000000000
     14700       469  ECLIPA    H16R           24.1183267680       21.7618677862        6.2695943073  LPSA14    1               0.0000000000
     14701       469  ECLIPA    H16S           23.0366655040       20.4190979410        6.6378748615  LPSA14    1               0.0000000000
     14702       469  ECLIPA    C17            24.0624421871       20.2713875332        4.6844323914  LPSA14    1               0.0000000000
     14703       469  ECLIPA    H17R           25.1324848890       20.3432176134        4.4074206004  LPSA14    1               0.0000000000
     14704       469  ECLIPA    H17S           23.4779083348       20.9694937989        4.0466295055  LPSA14    1               0.0000000000
     14705       469  ECLIPA    C18            23.6210837868       18.8340160804        4.3923924486  LPSA14    1               0.0000000000
     14706       469  ECLIPA    H18R           24.1561479857       18.1653727860        5.0974363587  LPSA14    1               0.0000000000
     14707       469  ECLIPA    H18S           22.5489599819       18.7765444275        4.6725191182  LPSA14    1               0.0000000000
     14708       469  ECLIPA    C19            23.8239115967       18.4213782638        2.9199217252  LPSA14    1               0.0000000000
     14709       469  ECLIPA    H19R           23.7875409674       17.2977715106        2.8422560939  LPSA14    1               0.0000000000
     14710       469  ECLIPA    H19S           24.8286198627       18.7406472008        2.5255229476  LPSA14    1               0.0000000000
     14711       469  ECLIPA    C110           22.8750503134       19.2152765839        1.9854263528  LPSA14    1               0.0000000000
     14712       469  ECLIPA    H110R          21.7455968384       19.1234715625        2.0178816495  LPSA14    1               0.0000000000
     14713       469  ECLIPA    H110S          23.2203432506       20.2479704893        1.9138418742  LPSA14    1               0.0000000000
     14714       469  ECLIPA    C111           22.9990118598       18.7628678777        0.5957091973  LPSA14    1               0.0000000000
     14715       469  ECLIPA    H111R          23.9690480709       18.4908748616        0.1730198510  LPSA14    1               0.0000000000
     14716       469  ECLIPA    H111S          22.7299476005       17.8185237600        1.0860610393  LPSA14    1               0.0000000000
     14717       469  ECLIPA    C112           21.9955355640       19.4894594007       -0.3501438764  LPSA14    1               0.0000000000
     14718       469  ECLIPA    H112R          20.9212046270       19.4542786874       -0.0470497518  LPSA14    1               0.0000000000
     14719       469  ECLIPA    H112S          22.1863201891       20.5579888777       -0.1286906657  LPSA14    1               0.0000000000
     14720       469  ECLIPA    C113           22.2684607913       19.1233949403       -1.8556935722  LPSA14    1               0.0000000000
     14721       469  ECLIPA    H113R          23.3273155933       19.3260318349       -2.0592176565  LPSA14    1               0.0000000000
     14722       469  ECLIPA    H113S          22.2859464320       18.1024099386       -2.2241145484  LPSA14    1               0.0000000000
     14723       469  ECLIPA    C114           21.2668466571       19.5099021749       -2.9073062510  LPSA14    1               0.0000000000
     14724       469  ECLIPA    H114R          20.2961429585       19.2621432080       -2.4689889721  LPSA14    1               0.0000000000
     14725       469  ECLIPA    H114S          21.2181640273       20.5602508051       -3.1862769229  LPSA14    1               0.0000000000
     14726       469  ECLIPA    H114T          21.4470791619       18.9327503284       -3.8381981491  LPSA14    1               0.0000000000
     14727       470  AKDO      C1             21.5653150148       25.6152794803       22.4225558945  LPSA14    2               0.0000000000
     14728       470  AKDO      O11            20.7489639880       26.5712375831       22.4334602483  LPSA14    2               0.0000000000
     14729       470  AKDO      O12            22.7766908450       25.6669064593       22.0694166827  LPSA14    2               0.0000000000
     14730       470  AKDO      C2             21.0559490109       24.2141701515       22.8717080123  LPSA14    2               0.0000000000
     14731       470  AKDO      C6             19.1832447505       23.0520276387       23.8616557654  LPSA14    2               0.0000000000
     14732       470  AKDO      H6             19.2222986539       22.4017629477       22.9505456312  LPSA14    2               0.0000000000
     14733       470  AKDO      O6             19.7341027713       24.3217224325       23.4612758506  LPSA14    2               0.0000000000
     14734       470  AKDO      C3             21.9559798666       23.5592709398       23.9237327696  LPSA14    2               0.0000000000
     14735       470  AKDO      H31            22.0953613406       24.2500658554       24.7850942594  LPSA14    2               0.0000000000
     14736       470  AKDO      H32            22.9499946048       23.3801118554       23.4524479008  LPSA14    2               0.0000000000
     14737       470  AKDO      C4             21.4145265194       22.2398194423       24.3695081874  LPSA14    2               0.0000000000
     14738       470  AKDO      H4             21.2877589472       21.5787597267       23.4830796811  LPSA14    2               0.0000000000
     14739       470  AKDO      O4             22.2355631498       21.6370513823       25.3675923595  LPSA14    2               0.0000000000
     14740       470  AKDO      C5             20.0377947599       22.3929598493       24.9626831291  LPSA14    2               0.0000000000
     14741       470  AKDO      H5             19.6233863348       21.3612338440       25.0860215460  LPSA14    2               0.0000000000
     14742       470  AKDO      O5             20.1781977843       23.0631947407       26.2598329553  LPSA14    2               0.0000000000
     14743       470  AKDO      C7             17.6940680230       23.1852104796       24.1772263360  LPSA14    2               0.0000000000
     14744       470  AKDO      H7             17.5928646727       23.8165738051       25.0780537388  LPSA14    2               0.0000000000
     14745       470  AKDO      O7             17.0768020048       21.9048122279       24.4062721920  LPSA14    2               0.0000000000
     14746       470  AKDO      HO7            16.8705061685       21.6306505915       23.5117904773  LPSA14    2               0.0000000000
     14747       470  AKDO      C8             16.9721084819       23.8679907697       23.0323988486  LPSA14    2               0.0000000000
     14748       470  AKDO      H81            17.4652869506       24.8609074084       22.8639202331  LPSA14    2               0.0000000000
     14749       470  AKDO      H82            17.1021497263       23.2718285180       22.0963894686  LPSA14    2               0.0000000000
     14750       470  AKDO      O8             15.5676632759       24.0488850663       23.3421429608  LPSA14    2               0.0000000000
     14751       470  AKDO      HO8            15.3276730364       24.8933719963       22.9250903139  LPSA14    2               0.0000000000
     14752       471  AKDO      C1             23.1126971647       19.9937504296       23.7932116414  LPSA14    3               1.0000000000
     14753       471  AKDO      O11            23.5270965548       20.3935968766       22.6719217352  LPSA14    3               1.0000000000
     14754       471  AKDO      O12            22.3993513581       18.9783776227       24.0400142884  LPSA14    3               1.0000000000
     14755       471  AKDO      C2             23.3944689160       20.9377983809       24.9987368294  LPSA14    3               1.0000000000
     14756       471  AKDO      C6             24.7171271710       22.7926432756       25.7592843622  LPSA14    3               1.0000000000
     14757       471  AKDO      H6             23.8353020627       23.4408545430       25.9309572907  LPSA14    3               1.0000000000
     14758       471  AKDO      O6             24.5002026532       21.8228774920       24.7071731531  LPSA14    3               1.0000000000
     14759       471  AKDO      C3             23.6938222208       20.2291021793       26.3282092562  LPSA14    3               1.0000000000
     14760       471  AKDO      H31            24.6013744164       19.6767051180       26.1368505762  LPSA14    3               1.0000000000
     14761       471  AKDO      H32            22.9235779228       19.4782700687       26.5884916953  LPSA14    3               1.0000000000
     14762       471  AKDO      C4             23.8894471334       21.2194580440       27.4336757055  LPSA14    3               1.0000000000
     14763       471  AKDO      H4             23.0132940784       21.8783490627       27.5112365091  LPSA14    3               1.0000000000
     14764       471  AKDO      O4             24.1156459440       20.5838610424       28.6818622202  LPSA14    3               1.0000000000
     14765       471  AKDO      HO4            23.5398913903       20.9685401157       29.3573305394  LPSA14    3               1.0000000000
     14766       471  AKDO      C5             24.9843947610       22.1241755703       27.0571203908  LPSA14    3               1.0000000000
     14767       471  AKDO      H5             25.2830815475       22.7863472035       27.8932092456  LPSA14    3               1.0000000000
     14768       471  AKDO      O5             26.1044162421       21.4510273345       26.8471371964  LPSA14    3               1.0000000000
     14769       471  AKDO      HO5            26.0097677266       20.6925431068       26.2516714096  LPSA14    3               1.0000000000
     14770       471  AKDO      C7             25.8586785540       23.6489222196       25.3208138091  LPSA14    3               1.0000000000
     14771       471  AKDO      H7             26.8031066600       23.0624944882       25.1335352067  LPSA14    3               1.0000000000
     14772       471  AKDO      O7             26.0586352804       24.5730440112       26.3651537837  LPSA14    3               1.0000000000
     14773       471  AKDO      HO7            26.9511338523       24.9075146417       26.2180022997  LPSA14    3               1.0000000000
     14774       471  AKDO      C8             25.4541495049       24.3971269349       24.0943538108  LPSA14    3               1.0000000000
     14775       471  AKDO      H81            25.1507410556       23.6857290351       23.3025625079  LPSA14    3               1.0000000000
     14776       471  AKDO      H82            24.6000401356       25.0796233768       24.3094788808  LPSA14    3               1.0000000000
     14777       471  AKDO      O8             26.5589678011       25.1406248501       23.6107928271  LPSA14    3               1.0000000000
     14778       471  AKDO      HO8            27.1121552276       24.4944581740       23.1680433920  LPSA14    3               1.0000000000
     14779       472  AHEP      C1             19.2217520680       22.7253116987       27.2482051760  LPSA14    4               2.0000000000
     14780       472  AHEP      H1             18.3104812057       23.2442343782       26.8959178335  LPSA14    4               2.0000000000
     14781       472  AHEP      C5             19.8651713587       20.5191756345       27.9945319364  LPSA14    4               2.0000000000
     14782       472  AHEP      H5             20.8498614434       20.7174856368       27.5106248467  LPSA14    4               2.0000000000
     14783       472  AHEP      O5             18.8809146092       21.3336630427       27.3162800437  LPSA14    4               2.0000000000
     14784       472  AHEP      C2             19.3872431150       23.2183924341       28.7008861770  LPSA14    4               2.0000000000
     14785       472  AHEP      H2             19.7381937349       24.2717800861       28.6704519010  LPSA14    4               2.0000000000
     14786       472  AHEP      O2             18.1072956732       23.2651541073       29.3465752344  LPSA14    4               2.0000000000
     14787       472  AHEP      HO2            18.1340831261       23.9930180945       29.9582191968  LPSA14    4               2.0000000000
     14788       472  AHEP      C3             20.4236474502       22.4279214829       29.4985792871  LPSA14    4               2.0000000000
     14789       472  AHEP      H3             21.4529035444       22.5605163158       29.0959449715  LPSA14    4               2.0000000000
     14790       472  AHEP      O3             20.4007313796       22.8492659162       30.8849222314  LPSA14    4               2.0000000000
     14791       472  AHEP      C4             20.0052355341       20.9710081407       29.4562176439  LPSA14    4               2.0000000000
     14792       472  AHEP      H4             19.0303252350       20.8028350122       29.9704365761  LPSA14    4               2.0000000000
     14793       472  AHEP      O4             21.0697231051       20.2277034291       30.0490705108  LPSA14    4               2.0000000000
     14794       472  AHEP      P4             20.8691867280       19.3946822188       31.4689617575  LPSA14    4               2.0000000000
     14795       472  AHEP      OP42           22.2455104239       19.4261133900       32.1177721059  LPSA14    4               2.0000000000
     14796       472  AHEP      OP43           20.4979058659       17.9834062153       31.0302055061  LPSA14    4               2.0000000000
     14797       472  AHEP      OP44           19.8077085847       20.1501955065       32.2556706002  LPSA14    4               2.0000000000
     14798       472  AHEP      C6             19.4880896711       19.0247711401       27.7930736267  LPSA14    4               2.0000000000
     14799       472  AHEP      H6             20.4085560436       18.4425533515       28.0812486356  LPSA14    4               2.0000000000
     14800       472  AHEP      O6             18.3930496040       18.5624225820       28.6184942938  LPSA14    4               2.0000000000
     14801       472  AHEP      HO6            18.7491976252       17.9355728638       29.2738052198  LPSA14    4               2.0000000000
     14802       472  AHEP      C7             19.1376095639       18.6466088097       26.3351774797  LPSA14    4               2.0000000000
     14803       472  AHEP      H71            19.1658234303       17.5411938614       26.2181950735  LPSA14    4               2.0000000000
     14804       472  AHEP      H72            19.8986764776       19.1027510918       25.6644169600  LPSA14    4               2.0000000000
     14805       472  AHEP      O7             17.8404847214       19.0375087116       25.8381370470  LPSA14    4               2.0000000000
     14806       472  AHEP      HO7            17.2351077332       18.5912169714       26.4485054310  LPSA14    4               2.0000000000
     14807       473  AHEP      C1             21.5927568165       23.3462753222       31.4666504229  LPSA14    5               3.0000000000
     14808       473  AHEP      H1             22.4890121901       22.8824807405       30.9845712394  LPSA14    5               3.0000000000
     14809       473  AHEP      C5             20.5465207854       25.4389875608       31.9595157770  LPSA14    5               3.0000000000
     14810       473  AHEP      H5             19.6036515831       24.9679730623       31.5998002841  LPSA14    5               3.0000000000
     14811       473  AHEP      O5             21.6300720160       24.7722167807       31.2810089748  LPSA14    5               3.0000000000
     14812       473  AHEP      C2             21.6540292660       23.0373086947       32.9796677144  LPSA14    5               3.0000000000
     14813       473  AHEP      H2             21.5353784571       21.9315720907       33.0879275437  LPSA14    5               3.0000000000
     14814       473  AHEP      O2             22.9272669522       23.3868308420       33.5700219688  LPSA14    5               3.0000000000
     14815       473  AHEP      HO2            23.4634212198       22.5798506664       33.5723676178  LPSA14    5               3.0000000000
     14816       473  AHEP      C3             20.5050410162       23.7065731726       33.7309471729  LPSA14    5               3.0000000000
     14817       473  AHEP      H3             19.5443633485       23.3224804650       33.3152440537  LPSA14    5               3.0000000000
     14818       473  AHEP      O3             20.5202417889       23.5070907951       35.1652311871  LPSA14    5               3.0000000000
     14819       473  AHEP      C4             20.5973503460       25.1955152664       33.4614623632  LPSA14    5               3.0000000000
     14820       473  AHEP      H4             21.5743119521       25.5909616593       33.8307303525  LPSA14    5               3.0000000000
     14821       473  AHEP      O4             19.4645019124       25.8594535414       34.0409781802  LPSA14    5               3.0000000000
     14822       473  AHEP      P4             19.7493772575       26.9454160200       35.2985670199  LPSA14    5               3.0000000000
     14823       473  AHEP      OP42           18.3502029513       27.1903369741       35.9020374756  LPSA14    5               3.0000000000
     14824       473  AHEP      OP43           20.4017097468       28.2162864386       34.6979445278  LPSA14    5               3.0000000000
     14825       473  AHEP      OP44           20.7535936411       26.2442622651       36.2456982763  LPSA14    5               3.0000000000
     14826       473  AHEP      C6             20.5000185704       26.9215839169       31.5605597495  LPSA14    5               3.0000000000
     14827       473  AHEP      H6             19.5977680602       27.3712995390       32.0416581888  LPSA14    5               3.0000000000
     14828       473  AHEP      O6             21.6619636837       27.6574480288       31.9976477656  LPSA14    5               3.0000000000
     14829       473  AHEP      HO6            22.4491922380       27.4137880406       31.4998308088  LPSA14    5               3.0000000000
     14830       473  AHEP      C7             20.3003025063       27.0867730228       30.0694842239  LPSA14    5               3.0000000000
     14831       473  AHEP      H71            19.6552136659       27.9823802404       29.9200227930  LPSA14    5               3.0000000000
     14832       473  AHEP      H72            19.7605683643       26.2320506713       29.6137649978  LPSA14    5               3.0000000000
     14833       473  AHEP      O7             21.5296134768       27.3815429217       29.4159968386  LPSA14    5               3.0000000000
     14834       474  AHEP      C1             22.0817641989       26.2698079110       28.7843810556  LPSA14    6               4.0000000000
     14835       474  AHEP      H1             21.5613025859       25.3275305854       29.0326457394  LPSA14    6               4.0000000000
     14836       474  AHEP      C5             22.6601455398       27.6304617768       26.9608185355  LPSA14    6               4.0000000000
     14837       474  AHEP      H5             22.2373115024       28.5043778646       27.5159620710  LPSA14    6               4.0000000000
     14838       474  AHEP      O5             21.9710830427       26.4460889346       27.3779967931  LPSA14    6               4.0000000000
     14839       474  AHEP      C2             23.4915459006       26.1222994923       29.2391826052  LPSA14    6               4.0000000000
     14840       474  AHEP      H2             23.5223109621       26.0104974044       30.3509267764  LPSA14    6               4.0000000000
     14841       474  AHEP      O2             24.0315930682       24.9015849663       28.7363510209  LPSA14    6               4.0000000000
     14842       474  AHEP      HO2            24.2627238904       24.3467588071       29.4868923732  LPSA14    6               4.0000000000
     14843       474  AHEP      C3             24.2428903483       27.3615205371       28.8806653492  LPSA14    6               4.0000000000
     14844       474  AHEP      H3             23.8494269925       28.2608161349       29.4064520576  LPSA14    6               4.0000000000
     14845       474  AHEP      O3             25.5274838518       27.1395168812       29.4143981649  LPSA14    6               4.0000000000
     14846       474  AHEP      HO3            25.9001315860       27.8685630903       29.9344718302  LPSA14    6               4.0000000000
     14847       474  AHEP      C4             24.1091643909       27.5573064546       27.3644371238  LPSA14    6               4.0000000000
     14848       474  AHEP      H4             24.6440260480       26.7437262291       26.8141979673  LPSA14    6               4.0000000000
     14849       474  AHEP      O4             24.5741455816       28.8050437337       26.9175832072  LPSA14    6               4.0000000000
     14850       474  AHEP      HO4            24.1563753624       29.5736453958       27.2820358296  LPSA14    6               4.0000000000
     14851       474  AHEP      C6             22.4296809104       27.9988382117       25.4952118824  LPSA14    6               4.0000000000
     14852       474  AHEP      H6             22.8653345318       29.0083557777       25.3089700494  LPSA14    6               4.0000000000
     14853       474  AHEP      O6             23.1341942360       27.1331489028       24.6091896762  LPSA14    6               4.0000000000
     14854       474  AHEP      HO6            22.5237964327       26.7177116361       23.9771359456  LPSA14    6               4.0000000000
     14855       474  AHEP      C7             20.9590255241       28.1822428618       25.1744899945  LPSA14    6               4.0000000000
     14856       474  AHEP      H71            20.8506831061       28.5722260141       24.1375742026  LPSA14    6               4.0000000000
     14857       474  AHEP      H72            20.5358512353       28.9286785471       25.8811298232  LPSA14    6               4.0000000000
     14858       474  AHEP      O7             20.1807003057       26.9986352136       25.3013078602  LPSA14    6               4.0000000000
     14859       474  AHEP      HO7            20.0212206205       26.8267271301       26.2230406644  LPSA14    6               4.0000000000
     14860       475  AGLC      C1             19.7774065860       22.4157122907       35.6571181630  LPSA14    7               4.0000000000
     14861       475  AGLC      H1             18.7836827252       22.3618727087       35.1603772823  LPSA14    7               4.0000000000
     14862       475  AGLC      C5             21.7407874674       21.1310909135       36.0973312707  LPSA14    7               4.0000000000
     14863       475  AGLC      H5             22.3588468044       22.0099901413       35.8148595344  LPSA14    7               4.0000000000
     14864       475  AGLC      O5             20.4733403266       21.1969298620       35.4334320845  LPSA14    7               4.0000000000
     14865       475  AGLC      C2             19.5108502051       22.4575515388       37.1645171266  LPSA14    7               4.0000000000
     14866       475  AGLC      H2             19.0471835052       21.4843047707       37.4348094684  LPSA14    7               4.0000000000
     14867       475  AGLC      O2             18.5745952136       23.4724064952       37.5363529521  LPSA14    7               4.0000000000
     14868       475  AGLC      HO2            19.0725391218       24.3150027534       37.5634456176  LPSA14    7               4.0000000000
     14869       475  AGLC      C3             20.7830673354       22.4851243923       37.9696266306  LPSA14    7               4.0000000000
     14870       475  AGLC      H3             21.3815121374       23.3475292316       37.6096678434  LPSA14    7               4.0000000000
     14871       475  AGLC      O3             20.5543868432       22.6466802868       39.3981958214  LPSA14    7               4.0000000000
     14872       475  AGLC      C4             21.5211685127       21.2003445216       37.6054740022  LPSA14    7               4.0000000000
     14873       475  AGLC      H4             20.9147319563       20.3126245031       37.9306631525  LPSA14    7               4.0000000000
     14874       475  AGLC      O4             22.7974525926       21.2115551557       38.2294106028  LPSA14    7               4.0000000000
     14875       475  AGLC      HO4            22.9426710533       20.3526050298       38.6473121587  LPSA14    7               4.0000000000
     14876       475  AGLC      C6             22.4672479564       19.9288874161       35.5141173768  LPSA14    7               4.0000000000
     14877       475  AGLC      H61            22.5457554956       20.0838849039       34.4104313340  LPSA14    7               4.0000000000
     14878       475  AGLC      H62            23.5110994034       19.8320255107       35.8884356293  LPSA14    7               4.0000000000
     14879       475  AGLC      O6             21.7595121449       18.7123882592       35.7472144332  LPSA14    7               4.0000000000
     14880       475  AGLC      HO6            22.1357559386       18.2600466579       36.5027219918  LPSA14    7               4.0000000000
     14881       476  AGLC      C1             21.1429405555       23.8313114369       39.9240588974  LPSA14    8               5.0000000000
     14882       476  AGLC      H1             22.1700742577       23.9479897824       39.5167786608  LPSA14    8               5.0000000000
     14883       476  AGLC      C5             19.1153687143       25.1660838217       40.2095666285  LPSA14    8               5.0000000000
     14884       476  AGLC      H5             18.5281059745       24.2779617730       39.8842269325  LPSA14    8               5.0000000000
     14885       476  AGLC      O5             20.4187598648       25.0399682519       39.5802080296  LPSA14    8               5.0000000000
     14886       476  AGLC      C2             21.3108512596       23.7960794543       41.4381258493  LPSA14    8               5.0000000000
     14887       476  AGLC      H2             21.8628226741       24.7224286669       41.7088117949  LPSA14    8               5.0000000000
     14888       476  AGLC      O2             22.0745122860       22.6969416733       41.9539742988  LPSA14    8               5.0000000000
     14889       476  AGLC      C3             19.9800006919       23.8247724790       42.1291829139  LPSA14    8               5.0000000000
     14890       476  AGLC      H3             19.4080964313       22.9464100180       41.7279321880  LPSA14    8               5.0000000000
     14891       476  AGLC      O3             20.2185898162       23.6297031008       43.5438928549  LPSA14    8               5.0000000000
     14892       476  AGLC      C4             19.2860266497       25.1070623925       41.7217903971  LPSA14    8               5.0000000000
     14893       476  AGLC      H4             19.9313686814       25.9620649663       42.0312620543  LPSA14    8               5.0000000000
     14894       476  AGLC      O4             18.0332982166       25.2635796236       42.3676977029  LPSA14    8               5.0000000000
     14895       476  AGLC      HO4            17.5935686037       24.4086612569       42.4427928010  LPSA14    8               5.0000000000
     14896       476  AGLC      C6             18.2607795235       26.3746934057       39.7328605659  LPSA14    8               5.0000000000
     14897       476  AGLC      H61            18.3124873544       26.4892613368       38.6237029560  LPSA14    8               5.0000000000
     14898       476  AGLC      H62            17.2028842805       26.2049260342       40.0085153731  LPSA14    8               5.0000000000
     14899       476  AGLC      O6             18.5241128353       27.6374816017       40.3383965628  LPSA14    8               5.0000000000
     14900       476  AGLC      HO6            18.3067062152       27.6361378152       41.2740606441  LPSA14    8               5.0000000000
     14901       477  AGAL      C1             23.3641669800       22.5108246873       41.4433226346  LPSA14    9               6.0000000000
     14902       477  AGAL      H1             23.3655886292       22.5360150904       40.3362460694  LPSA14    9               6.0000000000
     14903       477  AGAL      C5             24.4923093819       23.4645822975       43.2793824072  LPSA14    9               6.0000000000
     14904       477  AGAL      H5             23.4926874462       23.4811223381       43.7508548358  LPSA14    9               6.0000000000
     14905       477  AGAL      O5             24.2877711541       23.5245988136       41.8543862369  LPSA14    9               6.0000000000
     14906       477  AGAL      C2             23.8288900047       21.1313503065       41.8564848306  LPSA14    9               6.0000000000
     14907       477  AGAL      H2             24.8292263182       21.0588433607       41.4041753223  LPSA14    9               6.0000000000
     14908       477  AGAL      O2             22.9635519765       20.1680957874       41.1951813429  LPSA14    9               6.0000000000
     14909       477  AGAL      C3             24.0562785331       21.0377796333       43.3495524284  LPSA14    9               6.0000000000
     14910       477  AGAL      H3             23.1051856446       21.2324245573       43.8944076850  LPSA14    9               6.0000000000
     14911       477  AGAL      O3             24.4597648842       19.7295660926       43.7428130906  LPSA14    9               6.0000000000
     14912       477  AGAL      HO3            23.9354664084       19.1366973299       43.2008275006  LPSA14    9               6.0000000000
     14913       477  AGAL      C4             25.0818938912       22.1219956373       43.6979863037  LPSA14    9               6.0000000000
     14914       477  AGAL      H4             25.2731944777       22.1239037902       44.7909630718  LPSA14    9               6.0000000000
     14915       477  AGAL      O4             26.3256340630       21.9306391494       43.0405007285  LPSA14    9               6.0000000000
     14916       477  AGAL      HO4            27.0549960304       22.2498844512       43.5955654323  LPSA14    9               6.0000000000
     14917       477  AGAL      C6             25.1790298642       24.6810805743       43.8405512814  LPSA14    9               6.0000000000
     14918       477  AGAL      H61            24.6472945837       25.6224111456       43.5947009903  LPSA14    9               6.0000000000
     14919       477  AGAL      H62            25.2373266203       24.6063623300       44.9378923518  LPSA14    9               6.0000000000
     14920       477  AGAL      O6             26.5018105553       24.7662452794       43.3986832729  LPSA14    9               6.0000000000
     14921       477  AGAL      HO6            26.6036574112       25.4732710022       42.7439044270  LPSA14    9               6.0000000000
     14922       478  AGAL      C1             22.4700484151       18.9536736293       41.7422531332  LPSA14    10              7.0000000000
     14923       478  AGAL      H1             23.3191306826       18.2415763767       41.8292384748  LPSA14    10              7.0000000000
     14924       478  AGAL      C5             20.6343111931       19.8450808517       43.0507511323  LPSA14    10              7.0000000000
     14925       478  AGAL      H5             20.9529003379       20.8339814527       42.6498278400  LPSA14    10              7.0000000000
     14926       478  AGAL      O5             21.8409010146       19.0374939627       43.0489666859  LPSA14    10              7.0000000000
     14927       478  AGAL      C2             21.4721683508       18.3706197898       40.7452111575  LPSA14    10              7.0000000000
     14928       478  AGAL      H2             21.1750773494       17.3706836010       41.1244157305  LPSA14    10              7.0000000000
     14929       478  AGAL      O2             22.0570159197       18.0795455795       39.4713324182  LPSA14    10              7.0000000000
     14930       478  AGAL      HO2            21.7427103050       17.1893665650       39.2346164968  LPSA14    10              7.0000000000
     14931       478  AGAL      C3             20.2266902700       19.2671917530       40.7040571733  LPSA14    10              7.0000000000
     14932       478  AGAL      H3             20.5694649512       20.2983497955       40.4483054571  LPSA14    10              7.0000000000
     14933       478  AGAL      O3             19.2473828757       18.9033012405       39.7332936487  LPSA14    10              7.0000000000
     14934       478  AGAL      HO3            19.2857895716       19.5055155621       38.9903507670  LPSA14    10              7.0000000000
     14935       478  AGAL      C4             19.6042430246       19.2991479746       42.0843504509  LPSA14    10              7.0000000000
     14936       478  AGAL      H4             18.7339148075       19.9983658218       42.0802895347  LPSA14    10              7.0000000000
     14937       478  AGAL      O4             19.1375614807       18.0140276465       42.4962635605  LPSA14    10              7.0000000000
     14938       478  AGAL      HO4            19.9272874565       17.4617464104       42.5682857229  LPSA14    10              7.0000000000
     14939       478  AGAL      C6             20.0272935149       20.1827570558       44.4271494618  LPSA14    10              7.0000000000
     14940       478  AGAL      H61            20.8347064463       20.5238160239       45.1041627015  LPSA14    10              7.0000000000
     14941       478  AGAL      H62            19.3429311609       21.0531298876       44.2760938688  LPSA14    10              7.0000000000
     14942       478  AGAL      O6             19.2834826790       19.1483567138       45.0995011254  LPSA14    10              7.0000000000
     14943       478  AGAL      HO6            19.7682609733       18.9500598705       45.9121475236  LPSA14    10              7.0000000000
     14944       479  BGLC      C1             20.2793158338       24.7038579855       44.4787572053  LPSA14    11              6.0000000000
     14945       479  BGLC      H1             19.2659758388       25.1341667728       44.6169959491  LPSA14    11              6.0000000000
     14946       479  BGLC      C5             21.4737948465       26.7402528566       45.1193856380  LPSA14    11              6.0000000000
     14947       479  BGLC      H5             20.5220502662       27.2758795035       45.3673426710  LPSA14    11              6.0000000000
     14948       479  BGLC      O5             21.2814148490       25.6863282092       44.1236370128  LPSA14    11              6.0000000000
     14949       479  BGLC      C2             20.7219537420       24.0513132649       45.7784136167  LPSA14    11              6.0000000000
     14950       479  BGLC      H2             21.7035638993       23.5612174045       45.6155389923  LPSA14    11              6.0000000000
     14951       479  BGLC      O2             19.8030448293       23.0328926710       46.1437326697  LPSA14    11              6.0000000000
     14952       479  BGLC      HO2            20.2659134540       22.2168318338       46.3378429547  LPSA14    11              6.0000000000
     14953       479  BGLC      C3             20.9331046779       25.0369975492       46.9030044222  LPSA14    11              6.0000000000
     14954       479  BGLC      H3             19.9669117484       25.5188419671       47.1761559039  LPSA14    11              6.0000000000
     14955       479  BGLC      O3             21.5143501135       24.3670178553       48.0438204847  LPSA14    11              6.0000000000
     14956       479  BGLC      C4             21.9565266403       26.0451212110       46.4091410315  LPSA14    11              6.0000000000
     14957       479  BGLC      H4             22.8970523471       25.4979581423       46.1731022103  LPSA14    11              6.0000000000
     14958       479  BGLC      O4             22.3035792841       26.9576629570       47.4349408382  LPSA14    11              6.0000000000
     14959       479  BGLC      HO4            22.7860663304       26.4837766256       48.1250422533  LPSA14    11              6.0000000000
     14960       479  BGLC      C6             22.4129716131       27.8022639377       44.5146661022  LPSA14    11              6.0000000000
     14961       479  BGLC      H61            22.8899770451       28.4430802764       45.2914538591  LPSA14    11              6.0000000000
     14962       479  BGLC      H62            23.2103833220       27.3071180321       43.9266961523  LPSA14    11              6.0000000000
     14963       479  BGLC      O6             21.7521339905       28.6953322130       43.6177565687  LPSA14    11              6.0000000000
     14964       479  BGLC      HO6            21.6860080609       29.5728723976       44.0182868052  LPSA14    11              6.0000000000
     14965       480  BGLCNA    C1             20.8862333624       24.4595430866       49.3112733230  LPSA14    12              7.0000000000
     14966       480  BGLCNA    H1             20.0508090388       23.7337790531       49.3691783328  LPSA14    12              7.0000000000
     14967       480  BGLCNA    C5             19.7559877384       25.8400374826       50.8747567670  LPSA14    12              7.0000000000
     14968       480  BGLCNA    H5             18.9185994834       25.1037330594       50.9506524650  LPSA14    12              7.0000000000
     14969       480  BGLCNA    O5             20.3908359427       25.7615781250       49.5876937076  LPSA14    12              7.0000000000
     14970       480  BGLCNA    C2             21.9515093967       24.1305683359       50.3506585249  LPSA14    12              7.0000000000
     14971       480  BGLCNA    H2             22.6967966186       24.9731235461       50.2985566903  LPSA14    12              7.0000000000
     14972       480  BGLCNA    N              22.5417070600       22.8471302664       50.0540626002  LPSA14    12              7.0000000000
     14973       480  BGLCNA    HN             21.8892285131       22.1077478839       49.9376648307  LPSA14    12              7.0000000000
     14974       480  BGLCNA    C              23.8604529179       22.7047000013       49.9083476666  LPSA14    12              7.0000000000
     14975       480  BGLCNA    O              24.6284548951       23.6427219620       50.0785737633  LPSA14    12              7.0000000000
     14976       480  BGLCNA    CT             24.3713514137       21.3299340072       49.5421645289  LPSA14    12              7.0000000000
     14977       480  BGLCNA    HT1            24.9049140812       20.8885493193       50.4069768943  LPSA14    12              7.0000000000
     14978       480  BGLCNA    HT2            25.1047783060       21.3974801161       48.7152942102  LPSA14    12              7.0000000000
     14979       480  BGLCNA    HT3            23.5131253257       20.6960471796       49.2351605981  LPSA14    12              7.0000000000
     14980       480  BGLCNA    C3             21.3887641469       24.1483495953       51.7618535805  LPSA14    12              7.0000000000
     14981       480  BGLCNA    H3             20.5944279041       23.3703124669       51.7999778666  LPSA14    12              7.0000000000
     14982       480  BGLCNA    O3             22.3811347077       23.8034919615       52.7727862160  LPSA14    12              7.0000000000
     14983       480  BGLCNA    C4             20.8010782530       25.5394674020       51.9523703143  LPSA14    12              7.0000000000
     14984       480  BGLCNA    H4             21.6046299398       26.3084419343       51.8785918056  LPSA14    12              7.0000000000
     14985       480  BGLCNA    O4             20.2250518888       25.7058001886       53.2325423275  LPSA14    12              7.0000000000
     14986       480  BGLCNA    HO4            19.4726041348       25.1181241527       53.3248648777  LPSA14    12              7.0000000000
     14987       480  BGLCNA    C6             19.1486715327       27.2211260542       50.9427377149  LPSA14    12              7.0000000000
     14988       480  BGLCNA    H61            18.6432503818       27.4058621441       51.9156669892  LPSA14    12              7.0000000000
     14989       480  BGLCNA    H62            19.9634314442       27.9709694518       50.8066183099  LPSA14    12              7.0000000000
     14990       480  BGLCNA    O6             18.1932904814       27.4231551000       49.9042594861  LPSA14    12              7.0000000000
     14991       480  BGLCNA    HO6            17.3052281922       27.1763581982       50.1539945905  LPSA14    12              7.0000000000
     14992       481  AGAL      C1             21.9144062782       22.9707047317       53.8396316554  LPSA14    13              8.0000000000
     14993       481  AGAL      H1             20.9002235309       23.3120476178       54.1508645568  LPSA14    13              8.0000000000
     14994       481  AGAL      C5             23.2368684105       21.0376914247       53.2765854096  LPSA14    13              8.0000000000
     14995       481  AGAL      H5             23.7099639572       21.7363448997       52.5427447000  LPSA14    13              8.0000000000
     14996       481  AGAL      O5             21.9008794110       21.5704915897       53.4798080216  LPSA14    13              8.0000000000
     14997       481  AGAL      C2             22.7743742576       23.0386893075       55.1061483141  LPSA14    13              8.0000000000
     14998       481  AGAL      H2             22.3308968621       22.2822315572       55.8004993072  LPSA14    13              8.0000000000
     14999       481  AGAL      O2             22.6588825273       24.3235494081       55.7397009003  LPSA14    13              8.0000000000
     15000       481  AGAL      C3             24.1938642938       22.5362186887       54.8927008187  LPSA14    13              8.0000000000
     15001       481  AGAL      H3             24.6271198645       23.0758609706       54.0195289954  LPSA14    13              8.0000000000
     15002       481  AGAL      O3             25.0494626124       22.7720395055       56.0002992335  LPSA14    13              8.0000000000
     15003       481  AGAL      HO3            25.9244153497       23.0747024217       55.7292414409  LPSA14    13              8.0000000000
     15004       481  AGAL      C4             24.1205392749       21.0780242869       54.5255273471  LPSA14    13              8.0000000000
     15005       481  AGAL      H4             25.1461259289       20.7350320044       54.2396289565  LPSA14    13              8.0000000000
     15006       481  AGAL      O4             23.6721817829       20.2365163667       55.6072880550  LPSA14    13              8.0000000000
     15007       481  AGAL      HO4            22.8870337364       20.6135339383       56.0253347106  LPSA14    13              8.0000000000
     15008       481  AGAL      C6             23.3127111760       19.7068956106       52.5480200445  LPSA14    13              8.0000000000
     15009       481  AGAL      H61            22.7349636328       19.7757490315       51.6017747910  LPSA14    13              8.0000000000
     15010       481  AGAL      H62            24.3831651381       19.5251119873       52.3156905677  LPSA14    13              8.0000000000
     15011       481  AGAL      O6             22.8691761485       18.5770270715       53.2867148716  LPSA14    13              8.0000000000
     15012       481  AGAL      HO6            23.5108299182       18.4055546944       53.9853709062  LPSA14    13              8.0000000000
     15013       482  ARHM      C1             22.0082894180       24.3455602996       57.0000114983  LPSA14    14              9.0000000000
     15014       482  ARHM      H1             21.2676484099       23.5203794320       57.0460182121  LPSA14    14              9.0000000000
     15015       482  ARHM      C5             22.1418370370       26.7095125125       57.1759502062  LPSA14    14              9.0000000000
     15016       482  ARHM      H5             22.6880160337       26.7069019691       56.2045157783  LPSA14    14              9.0000000000
     15017       482  ARHM      O5             21.2777732599       25.5609011446       57.1884892051  LPSA14    14              9.0000000000
     15018       482  ARHM      C2             23.0262738176       24.1787405360       58.1125549095  LPSA14    14              9.0000000000
     15019       482  ARHM      H2             23.5868752125       23.2351548282       57.9310461772  LPSA14    14              9.0000000000
     15020       482  ARHM      O2             22.5104138797       24.1719017019       59.4604450768  LPSA14    14              9.0000000000
     15021       482  ARHM      C3             23.9613092974       25.3537864691       58.0562121048  LPSA14    14              9.0000000000
     15022       482  ARHM      H3             24.3640082811       25.4486046684       57.0208004370  LPSA14    14              9.0000000000
     15023       482  ARHM      O3             25.1055225620       25.1886230864       58.8843881519  LPSA14    14              9.0000000000
     15024       482  ARHM      HO3            24.8770900229       25.2415459449       59.8090154662  LPSA14    14              9.0000000000
     15025       482  ARHM      C4             23.1626508791       26.6152223801       58.3167440198  LPSA14    14              9.0000000000
     15026       482  ARHM      H4             22.5888174399       26.5404462375       59.2714360348  LPSA14    14              9.0000000000
     15027       482  ARHM      O4             23.9949537154       27.7728844297       58.3952074294  LPSA14    14              9.0000000000
     15028       482  ARHM      HO4            24.0702419961       28.1205864250       59.2865293150  LPSA14    14              9.0000000000
     15029       482  ARHM      C6             21.2560518029       27.9645946554       57.2560371587  LPSA14    14              9.0000000000
     15030       482  ARHM      H61            20.3758378616       27.8924133078       56.5824877588  LPSA14    14              9.0000000000
     15031       482  ARHM      H62            20.9286198986       28.0923740885       58.3064400393  LPSA14    14              9.0000000000
     15032       482  ARHM      H63            21.8051775538       28.8776863644       56.9522469644  LPSA14    14              9.0000000000
     15033       483  ARHM      C1             21.4733064421       23.2737130257       59.7427672666  LPSA14    15             10.0000000000
     15034       483  ARHM      H1             21.5178849893       22.4129700729       59.0375259388  LPSA14    15             10.0000000000
     15035       483  ARHM      C5             19.9072251468       24.9094900892       60.6354570759  LPSA14    15             10.0000000000
     15036       483  ARHM      H5             20.5589834649       25.7897295543       60.4294795971  LPSA14    15             10.0000000000
     15037       483  ARHM      O5             20.1544873433       23.8653320102       59.6735081175  LPSA14    15             10.0000000000
     15038       483  ARHM      C2             21.7070512655       22.7286228809       61.1381889495  LPSA14    15             10.0000000000
     15039       483  ARHM      H2             22.7553528087       22.3469825606       61.2100402512  LPSA14    15             10.0000000000
     15040       483  ARHM      O2             20.7803504509       21.6355068171       61.2994123498  LPSA14    15             10.0000000000
     15041       483  ARHM      C3             21.5519075843       23.8441713125       62.1324082118  LPSA14    15             10.0000000000
     15042       483  ARHM      H3             22.2329918512       24.6779769918       61.8380070723  LPSA14    15             10.0000000000
     15043       483  ARHM      O3             21.9826105881       23.3460145670       63.3991267207  LPSA14    15             10.0000000000
     15044       483  ARHM      C4             20.1279012735       24.3592911098       62.0313897516  LPSA14    15             10.0000000000
     15045       483  ARHM      H4             19.4280198621       23.5012842489       62.1667559015  LPSA14    15             10.0000000000
     15046       483  ARHM      O4             19.7961919234       25.3479991739       62.9974117063  LPSA14    15             10.0000000000
     15047       483  ARHM      HO4            18.8299561191       25.4504034954       62.9897101045  LPSA14    15             10.0000000000
     15048       483  ARHM      C6             18.4529566377       25.3851919625       60.4637865828  LPSA14    15             10.0000000000
     15049       483  ARHM      H61            18.2456639738       26.3143801267       61.0392299536  LPSA14    15             10.0000000000
     15050       483  ARHM      H62            18.2688986515       25.5798639267       59.3880060879  LPSA14    15             10.0000000000
     15051       483  ARHM      H63            17.7316877774       24.6278135567       60.8261518342  LPSA14    15             10.0000000000
     15052       484  BMANNA    C1             20.7577527434       20.8991640058       62.5034356406  LPSA14    16             11.0000000000
     15053       484  BMANNA    H1             20.3524105233       21.5506706283       63.3136769423  LPSA14    16             11.0000000000
     15054       484  BMANNA    C5             21.9621655131       19.7225729414       64.1969677243  LPSA14    16             11.0000000000
     15055       484  BMANNA    H5             21.5114673512       20.4234345413       64.9468452107  LPSA14    16             11.0000000000
     15056       484  BMANNA    O5             22.0379926197       20.3925267428       62.9111161800  LPSA14    16             11.0000000000
     15057       484  BMANNA    C2             19.8028488935       19.7204536774       62.3110740971  LPSA14    16             11.0000000000
     15058       484  BMANNA    H2             18.8092287052       20.1569880447       62.0331243720  LPSA14    16             11.0000000000
     15059       484  BMANNA    N              20.1882915883       18.7890754468       61.2576553354  LPSA14    16             11.0000000000
     15060       484  BMANNA    HN             20.6744063986       17.9849439594       61.5651404410  LPSA14    16             11.0000000000
     15061       484  BMANNA    C              19.7792922015       18.8421042817       59.9879283485  LPSA14    16             11.0000000000
     15062       484  BMANNA    O              19.0382024915       19.7303945614       59.5687351006  LPSA14    16             11.0000000000
     15063       484  BMANNA    CT             20.3228115304       17.7657466643       59.0716744084  LPSA14    16             11.0000000000
     15064       484  BMANNA    HT1            19.5545004025       16.9966890203       58.8600720104  LPSA14    16             11.0000000000
     15065       484  BMANNA    HT2            21.1987055725       17.2636752070       59.5315111859  LPSA14    16             11.0000000000
     15066       484  BMANNA    HT3            20.6464636792       18.2192364092       58.1122454346  LPSA14    16             11.0000000000
     15067       484  BMANNA    C3             19.6902789525       19.0003258197       63.6507966922  LPSA14    16             11.0000000000
     15068       484  BMANNA    H3             19.3436809081       19.7301453606       64.4105753153  LPSA14    16             11.0000000000
     15069       484  BMANNA    O3             18.7350404146       17.9474344626       63.6237149011  LPSA14    16             11.0000000000
     15070       484  BMANNA    HO3            18.0603152286       18.1042219210       64.2927549081  LPSA14    16             11.0000000000
     15071       484  BMANNA    C4             21.0465789528       18.5140851710       64.1165763944  LPSA14    16             11.0000000000
     15072       484  BMANNA    H4             21.4581980152       17.7841281722       63.3822416028  LPSA14    16             11.0000000000
     15073       484  BMANNA    O4             20.9920513029       17.8584958082       65.3843513101  LPSA14    16             11.0000000000
     15074       484  BMANNA    HO4            21.7305292810       17.2444877656       65.4236938415  LPSA14    16             11.0000000000
     15075       484  BMANNA    C6             23.3210828200       19.3460913421       64.7616880747  LPSA14    16             11.0000000000
     15076       484  BMANNA    H61            23.2528204926       19.3478940364       65.8769706791  LPSA14    16             11.0000000000
     15077       484  BMANNA    H62            23.5847762691       18.3214461858       64.4278338334  LPSA14    16             11.0000000000
     15078       484  BMANNA    O6             24.3759994685       20.2098261486       64.3540515764  LPSA14    16             11.0000000000
     15079       484  BMANNA    HO6            25.0249885836       19.7020625895       63.8593658836  LPSA14    16             11.0000000000
     15080       485  BGLCNA    C1             22.7269670279       24.2596846787       64.1511439602  LPSA14    17             11.0000000000
     15081       485  BGLCNA    H1             22.3158617519       25.2780441499       63.9894116925  LPSA14    17             11.0000000000
     15082       485  BGLCNA    C5             24.9088821651       25.1601406199       64.5706235692  LPSA14    17             11.0000000000
     15083       485  BGLCNA    H5             24.5942516077       26.2124495107       64.3581465137  LPSA14    17             11.0000000000
     15084       485  BGLCNA    O5             24.1040759746       24.2585743143       63.7919513636  LPSA14    17             11.0000000000
     15085       485  BGLCNA    C2             22.5590678472       23.8046121373       65.5853425455  LPSA14    17             11.0000000000
     15086       485  BGLCNA    H2             23.0346903107       22.8045550925       65.7524655564  LPSA14    17             11.0000000000
     15087       485  BGLCNA    N              21.1494846246       23.6535079496       65.8914612921  LPSA14    17             11.0000000000
     15088       485  BGLCNA    HN             20.5417206073       24.2434718558       65.3731661904  LPSA14    17             11.0000000000
     15089       485  BGLCNA    C              20.6063888808       22.8669055880       66.8305940315  LPSA14    17             11.0000000000
     15090       485  BGLCNA    O              21.2051642886       22.0388911954       67.5013564956  LPSA14    17             11.0000000000
     15091       485  BGLCNA    CT             19.1347047597       23.1051442796       67.0336149545  LPSA14    17             11.0000000000
     15092       485  BGLCNA    HT1            18.5128271664       22.3524527978       66.5161877280  LPSA14    17             11.0000000000
     15093       485  BGLCNA    HT2            18.8847959400       24.1266674701       66.6805375649  LPSA14    17             11.0000000000
     15094       485  BGLCNA    HT3            18.9119544324       23.0727792701       68.1186029117  LPSA14    17             11.0000000000
     15095       485  BGLCNA    C3             23.2790504045       24.8336245277       66.4352482116  LPSA14    17             11.0000000000
     15096       485  BGLCNA    H3             22.8736341100       25.8165712388       66.0948678901  LPSA14    17             11.0000000000
     15097       485  BGLCNA    O3             22.9297765142       24.6490915900       67.8307235092  LPSA14    17             11.0000000000
     15098       485  BGLCNA    C4             24.7574287401       24.7906553142       66.0484868451  LPSA14    17             11.0000000000
     15099       485  BGLCNA    H4             25.1430363971       23.7481655201       66.1485079163  LPSA14    17             11.0000000000
     15100       485  BGLCNA    O4             25.5371341861       25.6438432698       66.8819676967  LPSA14    17             11.0000000000
     15101       485  BGLCNA    HO4            26.4854191672       25.5719606937       66.7217943015  LPSA14    17             11.0000000000
     15102       485  BGLCNA    C6             26.3441786310       24.9442513297       64.1109517413  LPSA14    17             11.0000000000
     15103       485  BGLCNA    H61            26.9156376326       25.8195958209       64.1151054471  LPSA14    17             11.0000000000
     15104       485  BGLCNA    H62            26.9500939303       24.3423351264       64.8163509786  LPSA14    17             11.0000000000
     15105       485  BGLCNA    O6             26.4977674342       24.5262279879       62.7672700735  LPSA14    17             11.0000000000
     15106       485  BGLCNA    HO6            26.1192147183       25.1603511207       62.1529409118  LPSA14    17             11.0000000000
     15107       486  AGAL      C1             22.8292453682       25.8168879323       68.6228049947  LPSA14    18             12.0000000000
     15108       486  AGAL      H1             23.8529822681       26.2152194155       68.8060946180  LPSA14    18             12.0000000000
     15109       486  AGAL      C5             20.6796549506       26.4933199603       67.8560359614  LPSA14    18             12.0000000000
     15110       486  AGAL      H5             20.6392236633       25.4895079428       67.4010907919  LPSA14    18             12.0000000000
     15111       486  AGAL      O5             22.0679560558       26.8440921574       67.9854778851  LPSA14    18             12.0000000000
     15112       486  AGAL      C2             22.1629763808       25.5945484591       69.9717845401  LPSA14    18             12.0000000000
     15113       486  AGAL      H2             22.1356681682       26.6285770507       70.3969608434  LPSA14    18             12.0000000000
     15114       486  AGAL      O2             22.9627970851       24.8215787490       70.8708427778  LPSA14    18             12.0000000000
     15115       486  AGAL      C3             20.6976581166       25.1594688712       69.8436550773  LPSA14    18             12.0000000000
     15116       486  AGAL      H3             20.6587850875       24.2769668452       69.1655887075  LPSA14    18             12.0000000000
     15117       486  AGAL      O3             20.0849391816       24.7459353805       71.0671098627  LPSA14    18             12.0000000000
     15118       486  AGAL      HO3            19.6049525546       23.9204967207       70.9534277987  LPSA14    18             12.0000000000
     15119       486  AGAL      C4             19.9448174257       26.2899757081       69.1747903516  LPSA14    18             12.0000000000
     15120       486  AGAL      H4             18.8969933188       25.9850566695       68.9395448016  LPSA14    18             12.0000000000
     15121       486  AGAL      O4             19.8975747647       27.4534674437       69.9978064700  LPSA14    18             12.0000000000
     15122       486  AGAL      HO4            19.2535432247       27.2992687150       70.6971415644  LPSA14    18             12.0000000000
     15123       486  AGAL      C6             20.0440054058       27.3297597081       66.7811138104  LPSA14    18             12.0000000000
     15124       486  AGAL      H61            20.6082089544       27.1067188650       65.8414596158  LPSA14    18             12.0000000000
     15125       486  AGAL      H62            18.9937483053       26.9968995852       66.6349385770  LPSA14    18             12.0000000000
     15126       486  AGAL      O6             20.0669693599       28.7325541089       67.0490168574  LPSA14    18             12.0000000000
     15127       486  AGAL      HO6            20.8093043534       28.9284587526       67.6488312708  LPSA14    18             12.0000000000
     15128       487  ARHM      C1             22.9108033254       25.3743405032       72.1664592317  LPSA14    19             13.0000000000
     15129       487  ARHM      H1             21.9479572870       25.9004523958       72.3478374522  LPSA14    19             13.0000000000
     15130       487  ARHM      C5             25.2432779382       25.8515095031       72.2498839801  LPSA14    19             13.0000000000
     15131       487  ARHM      H5             25.2930372892       25.4311799403       71.2184311084  LPSA14    19             13.0000000000
     15132       487  ARHM      O5             23.9206300159       26.3592530876       72.4188696268  LPSA14    19             13.0000000000
     15133       487  ARHM      C2             23.1014631467       24.2335699234       73.1142219937  LPSA14    19             13.0000000000
     15134       487  ARHM      H2             22.3887259641       23.4089207026       72.8700749706  LPSA14    19             13.0000000000
     15135       487  ARHM      O2             22.8401073212       24.6517543158       74.4578108574  LPSA14    19             13.0000000000
     15136       487  ARHM      C3             24.4893793697       23.6655731144       72.9621015704  LPSA14    19             13.0000000000
     15137       487  ARHM      H3             24.6435905693       23.3451133554       71.9028183500  LPSA14    19             13.0000000000
     15138       487  ARHM      O3             24.6338357001       22.5196879717       73.7833056923  LPSA14    19             13.0000000000
     15139       487  ARHM      HO3            24.3999123047       22.8029960856       74.6734563712  LPSA14    19             13.0000000000
     15140       487  ARHM      C4             25.5085767662       24.7422401636       73.2470004381  LPSA14    19             13.0000000000
     15141       487  ARHM      H4             25.3548594159       25.1096253183       74.2893817018  LPSA14    19             13.0000000000
     15142       487  ARHM      O4             26.8550338607       24.2909749071       73.1517988908  LPSA14    19             13.0000000000
     15143       487  ARHM      HO4            27.0300671873       23.9698422914       72.2549147947  LPSA14    19             13.0000000000
     15144       487  ARHM      C6             26.2525945037       27.0070695842       72.2767643558  LPSA14    19             13.0000000000
     15145       487  ARHM      H61            25.9436956584       27.7118617597       71.4777643449  LPSA14    19             13.0000000000
     15146       487  ARHM      H62            26.2758732739       27.5550641382       73.2380165146  LPSA14    19             13.0000000000
     15147       487  ARHM      H63            27.2832787025       26.6501015192       72.0717591893  LPSA14    19             13.0000000000
     15148       488  ARHM      C1             21.4657247760       24.8646696559       74.7021229338  LPSA14    20             14.0000000000
     15149       488  ARHM      H1             20.8457396764       24.4595190975       73.8706237842  LPSA14    20             14.0000000000
     15150       488  ARHM      C5             21.7141620254       26.8645868336       75.9612573848  LPSA14    20             14.0000000000
     15151       488  ARHM      H5             22.8077091356       26.7602368554       75.8164000590  LPSA14    20             14.0000000000
     15152       488  ARHM      O5             21.0742726198       26.2417727838       74.8472168228  LPSA14    20             14.0000000000
     15153       488  ARHM      C2             21.1418871112       24.0963550837       75.9510832147  LPSA14    20             14.0000000000
     15154       488  ARHM      H2             21.5492419476       23.0550193240       75.8485880857  LPSA14    20             14.0000000000
     15155       488  ARHM      O2             19.7234103933       24.0675895339       76.1574577229  LPSA14    20             14.0000000000
     15156       488  ARHM      C3             21.8015769870       24.7134189559       77.1298448373  LPSA14    20             14.0000000000
     15157       488  ARHM      H3             22.9093061899       24.7189601637       76.9658558701  LPSA14    20             14.0000000000
     15158       488  ARHM      O3             21.4779408903       23.9122983882       78.2688822160  LPSA14    20             14.0000000000
     15159       488  ARHM      C4             21.3231260569       26.1327034593       77.2405522462  LPSA14    20             14.0000000000
     15160       488  ARHM      H4             20.2140384880       26.2116410670       77.3260311680  LPSA14    20             14.0000000000
     15161       488  ARHM      O4             21.8888779506       26.7433615568       78.3834820423  LPSA14    20             14.0000000000
     15162       488  ARHM      HO4            21.9942585335       27.6614403642       78.1293567584  LPSA14    20             14.0000000000
     15163       488  ARHM      C6             21.3685736260       28.3709704301       75.9551341916  LPSA14    20             14.0000000000
     15164       488  ARHM      H61            20.2858072965       28.5647433970       76.0908693017  LPSA14    20             14.0000000000
     15165       488  ARHM      H62            21.9363469461       28.8702844612       76.7661573263  LPSA14    20             14.0000000000
     15166       488  ARHM      H63            21.6752152984       28.8198282110       74.9868765146  LPSA14    20             14.0000000000
     15167       489  BMANNA    C1             19.1514898861       23.0408075489       75.4077762334  LPSA14    21             15.0000000000
     15168       489  BMANNA    H1             19.9178127582       22.6051186455       74.7223519118  LPSA14    21             15.0000000000
     15169       489  BMANNA    C5             17.7188590625       22.4249436239       73.6482325250  LPSA14    21             15.0000000000
     15170       489  BMANNA    H5             18.5922368699       21.9947328979       73.0871793097  LPSA14    21             15.0000000000
     15171       489  BMANNA    O5             18.1443747901       23.5072614818       74.5103216599  LPSA14    21             15.0000000000
     15172       489  BMANNA    C2             18.6303569302       21.9616582095       76.3476786206  LPSA14    21             15.0000000000
     15173       489  BMANNA    H2             19.5290977664       21.6191106790       76.9278570123  LPSA14    21             15.0000000000
     15174       489  BMANNA    N              17.6006577989       22.4154759377       77.2886930784  LPSA14    21             15.0000000000
     15175       489  BMANNA    HN             16.9268534844       23.0373699277       76.9209372428  LPSA14    21             15.0000000000
     15176       489  BMANNA    C              17.5143734089       22.0285291141       78.5798214731  LPSA14    21             15.0000000000
     15177       489  BMANNA    O              18.1695953403       21.0939529956       79.0065130881  LPSA14    21             15.0000000000
     15178       489  BMANNA    CT             16.5400889325       22.7576355383       79.4725062314  LPSA14    21             15.0000000000
     15179       489  BMANNA    HT1            15.4999034745       22.4197613075       79.2940136208  LPSA14    21             15.0000000000
     15180       489  BMANNA    HT2            16.6262291316       23.8517128393       79.3170372521  LPSA14    21             15.0000000000
     15181       489  BMANNA    HT3            16.7930805518       22.5503900715       80.5339829582  LPSA14    21             15.0000000000
     15182       489  BMANNA    C3             18.1759716390       20.8326982556       75.4606436254  LPSA14    21             15.0000000000
     15183       489  BMANNA    H3             19.0924771229       20.4857558250       74.9230184452  LPSA14    21             15.0000000000
     15184       489  BMANNA    O3             17.6870384848       19.7253667558       76.1849930407  LPSA14    21             15.0000000000
     15185       489  BMANNA    HO3            17.0518821634       20.0172710931       76.8375018526  LPSA14    21             15.0000000000
     15186       489  BMANNA    C4             17.1330206934       21.3135100501       74.4798662296  LPSA14    21             15.0000000000
     15187       489  BMANNA    H4             16.2309357740       21.6896821739       75.0162518196  LPSA14    21             15.0000000000
     15188       489  BMANNA    O4             16.6745383271       20.2883134005       73.6176824646  LPSA14    21             15.0000000000
     15189       489  BMANNA    HO4            15.7512564308       20.0780806891       73.7504753109  LPSA14    21             15.0000000000
     15190       489  BMANNA    C6             16.7374041688       22.9024568868       72.6079741823  LPSA14    21             15.0000000000
     15191       489  BMANNA    H61            16.6444254905       22.1357491037       71.8046604472  LPSA14    21             15.0000000000
     15192       489  BMANNA    H62            15.7368867744       23.0045371947       73.0783363647  LPSA14    21             15.0000000000
     15193       489  BMANNA    O6             17.1300118755       24.1456903988       72.0302721049  LPSA14    21             15.0000000000
     15194       489  BMANNA    HO6            17.1133978445       24.8048261779       72.7333099271  LPSA14    21             15.0000000000
     15195       490  BGLCNA    C1             22.4866973663       23.7975104868       79.2403656943  LPSA14    22             15.0000000000
     15196       490  BGLCNA    H1             23.1760729141       24.6691575894       79.2413601180  LPSA14    22             15.0000000000
     15197       490  BGLCNA    C5             24.2186273902       22.4433351488       80.1120444505  LPSA14    22             15.0000000000
     15198       490  BGLCNA    H5             24.8730308029       23.3544262271       80.1169225932  LPSA14    22             15.0000000000
     15199       490  BGLCNA    O5             23.2377259562       22.5970369629       79.0665193438  LPSA14    22             15.0000000000
     15200       490  BGLCNA    C2             21.7499569058       23.7224203759       80.5472045560  LPSA14    22             15.0000000000
     15201       490  BGLCNA    H2             21.0821983123       22.8219783639       80.4979191549  LPSA14    22             15.0000000000
     15202       490  BGLCNA    N              20.9464238994       24.9084363487       80.7245314576  LPSA14    22             15.0000000000
     15203       490  BGLCNA    HN             21.3407252569       25.7586402182       80.3938959072  LPSA14    22             15.0000000000
     15204       490  BGLCNA    C              19.7776138782       24.9526069982       81.3582291041  LPSA14    22             15.0000000000
     15205       490  BGLCNA    O              19.2228532647       23.9900765318       81.8731088484  LPSA14    22             15.0000000000
     15206       490  BGLCNA    CT             19.1492339017       26.3157524221       81.3976004664  LPSA14    22             15.0000000000
     15207       490  BGLCNA    HT1            18.4435923681       26.3585131623       80.5424853543  LPSA14    22             15.0000000000
     15208       490  BGLCNA    HT2            19.9282692625       27.0938941475       81.2833115010  LPSA14    22             15.0000000000
     15209       490  BGLCNA    HT3            18.6157923971       26.4788932057       82.3600344045  LPSA14    22             15.0000000000
     15210       490  BGLCNA    C3             22.7309692619       23.5661510130       81.6849256993  LPSA14    22             15.0000000000
     15211       490  BGLCNA    H3             23.4468401767       24.4225719451       81.6534219976  LPSA14    22             15.0000000000
     15212       490  BGLCNA    O3             21.9685179268       23.6267873903       82.8998969744  LPSA14    22             15.0000000000
     15213       490  BGLCNA    C4             23.5278594457       22.3124946689       81.4620310629  LPSA14    22             15.0000000000
     15214       490  BGLCNA    H4             22.8317975310       21.4439841141       81.4126338417  LPSA14    22             15.0000000000
     15215       490  BGLCNA    O4             24.4510895718       22.0646724429       82.5161045088  LPSA14    22             15.0000000000
     15216       490  BGLCNA    HO4            24.5164644658       21.1175743400       82.7010992235  LPSA14    22             15.0000000000
     15217       490  BGLCNA    C6             25.0526299975       21.2510916631       79.7845402562  LPSA14    22             15.0000000000
     15218       490  BGLCNA    H61            25.6213946399       20.9256692927       80.6825973380  LPSA14    22             15.0000000000
     15219       490  BGLCNA    H62            24.4353559675       20.3878498156       79.4732710639  LPSA14    22             15.0000000000
     15220       490  BGLCNA    O6             26.0004264785       21.5976029869       78.7850523537  LPSA14    22             15.0000000000
     15221       490  BGLCNA    HO6            25.6311575325       21.8693793695       77.9472847116  LPSA14    22             15.0000000000
     15222       491  AGAL      C1             22.6282071358       23.9377521226       84.0986705534  LPSA14    23             16.0000000000
     15223       491  AGAL      H1             23.1983935173       23.0492644801       84.4475018591  LPSA14    23             16.0000000000
     15224       491  AGAL      C5             22.8775125040       26.2939917323       83.7202370640  LPSA14    23             16.0000000000
     15225       491  AGAL      H5             22.2448536126       26.1675424639       82.8134266454  LPSA14    23             16.0000000000
     15226       491  AGAL      O5             23.5376105750       25.0442489876       83.9901997611  LPSA14    23             16.0000000000
     15227       491  AGAL      C2             21.6195494911       24.2346901915       85.1840341933  LPSA14    23             16.0000000000
     15228       491  AGAL      H2             22.2088558630       24.4297368179       86.1058595619  LPSA14    23             16.0000000000
     15229       491  AGAL      O2             20.7569517276       23.0989756795       85.4207566797  LPSA14    23             16.0000000000
     15230       491  AGAL      C3             20.8930086050       25.5387037949       84.8775525378  LPSA14    23             16.0000000000
     15231       491  AGAL      H3             20.4480937908       25.4729935226       83.8614117709  LPSA14    23             16.0000000000
     15232       491  AGAL      O3             19.8065663717       25.7997322568       85.7539093596  LPSA14    23             16.0000000000
     15233       491  AGAL      HO3            20.0484282574       25.5844337046       86.6559749105  LPSA14    23             16.0000000000
     15234       491  AGAL      C4             21.9165743389       26.6651889566       84.8516289869  LPSA14    23             16.0000000000
     15235       491  AGAL      H4             21.4387691138       27.6412658583       84.6182532506  LPSA14    23             16.0000000000
     15236       491  AGAL      O4             22.5978626162       26.8112098523       86.0904890956  LPSA14    23             16.0000000000
     15237       491  AGAL      HO4            23.4574923836       27.2038830253       85.8364962585  LPSA14    23             16.0000000000
     15238       491  AGAL      C6             23.9320575697       27.3127469511       83.3228695030  LPSA14    23             16.0000000000
     15239       491  AGAL      H61            24.6119498977       26.8492235916       82.5710178591  LPSA14    23             16.0000000000
     15240       491  AGAL      H62            23.4551100150       28.1882489019       82.8211076905  LPSA14    23             16.0000000000
     15241       491  AGAL      O6             24.7134812391       27.7415502968       84.4377963321  LPSA14    23             16.0000000000
     15242       491  AGAL      HO6            25.4177375423       28.3482326856       84.1820465582  LPSA14    23             16.0000000000
     15243       492  ARHM      C1             21.1949895091       22.0666505924       86.2819522536  LPSA14    24             17.0000000000
     15244       492  ARHM      H1             22.3006619388       22.1336591188       86.3866784669  LPSA14    24             17.0000000000
     15245       492  ARHM      C5             19.5012015938       20.4934499139       85.6346151321  LPSA14    24             17.0000000000
     15246       492  ARHM      H5             19.1107800279       21.2745080903       84.9411360545  LPSA14    24             17.0000000000
     15247       492  ARHM      O5             20.9058119175       20.7283149300       85.8108828513  LPSA14    24             17.0000000000
     15248       492  ARHM      C2             20.4974838499       22.2974202750       87.6009702907  LPSA14    24             17.0000000000
     15249       492  ARHM      H2             20.6496720383       23.3547080395       87.9296996442  LPSA14    24             17.0000000000
     15250       492  ARHM      O2             20.9653087558       21.3732789909       88.5990595073  LPSA14    24             17.0000000000
     15251       492  ARHM      C3             19.0150936991       22.0876963655       87.4189212819  LPSA14    24             17.0000000000
     15252       492  ARHM      H3             18.6660542657       22.8001109355       86.6318234392  LPSA14    24             17.0000000000
     15253       492  ARHM      O3             18.3067116506       22.4216110691       88.6015075037  LPSA14    24             17.0000000000
     15254       492  ARHM      HO3            18.2088671778       21.6501080650       89.1561304344  LPSA14    24             17.0000000000
     15255       492  ARHM      C4             18.7838743029       20.6561239890       86.9575649524  LPSA14    24             17.0000000000
     15256       492  ARHM      H4             19.2343481257       19.9529252331       87.7001472926  LPSA14    24             17.0000000000
     15257       492  ARHM      O4             17.4103044677       20.3132059521       86.8153176594  LPSA14    24             17.0000000000
     15258       492  ARHM      HO4            17.2349141162       19.3978760533       87.0330319216  LPSA14    24             17.0000000000
     15259       492  ARHM      C6             19.2569407330       19.1286096840       84.9549418786  LPSA14    24             17.0000000000
     15260       492  ARHM      H61            18.2875480815       19.1486741024       84.4079919039  LPSA14    24             17.0000000000
     15261       492  ARHM      H62            20.0530298298       18.9391002078       84.2083221609  LPSA14    24             17.0000000000
     15262       492  ARHM      H63            19.2830278498       18.2848990583       85.6707549356  LPSA14    24             17.0000000000
     15263       493  ARHM      C1             22.2126895835       21.7041331336       89.1407046807  LPSA14    25             18.0000000000
     15264       493  ARHM      H1             22.7338697351       22.4165606202       88.4631798506  LPSA14    25             18.0000000000
     15265       493  ARHM      C5             22.6057764082       19.5955370462       90.1868674625  LPSA14    25             18.0000000000
     15266       493  ARHM      H5             21.6230492328       19.2177430524       89.8311381042  LPSA14    25             18.0000000000
     15267       493  ARHM      O5             23.1008656441       20.5794065452       89.2627972462  LPSA14    25             18.0000000000
     15268       493  ARHM      C2             21.9940114151       22.3758141314       90.4613264925  LPSA14    25             18.0000000000
     15269       493  ARHM      H2             21.2109608334       23.1704850601       90.3626920671  LPSA14    25             18.0000000000
     15270       493  ARHM      O2             23.2203734106       22.9597212128       90.8964406767  LPSA14    25             18.0000000000
     15271       493  ARHM      C3             21.4620369434       21.3675668800       91.4395322528  LPSA14    25             18.0000000000
     15272       493  ARHM      H3             20.4984656288       20.9447243222       91.0772738712  LPSA14    25             18.0000000000
     15273       493  ARHM      O3             21.3184923613       22.0171239126       92.7018511041  LPSA14    25             18.0000000000
     15274       493  ARHM      C4             22.3996266655       20.2218349038       91.5472713970  LPSA14    25             18.0000000000
     15275       493  ARHM      H4             23.3730280973       20.5966493090       91.8371632355  LPSA14    25             18.0000000000
     15276       493  ARHM      O4             21.9558648714       19.2969918821       92.5288314801  LPSA14    25             18.0000000000
     15277       493  ARHM      HO4            22.7048604153       18.9486082133       93.0234297651  LPSA14    25             18.0000000000
     15278       493  ARHM      C6             23.5716449859       18.4041299142       90.2347060375  LPSA14    25             18.0000000000
     15279       493  ARHM      H61            23.7636413445       18.0709571296       89.1944361221  LPSA14    25             18.0000000000
     15280       493  ARHM      H62            24.5445220605       18.6597324993       90.6984446601  LPSA14    25             18.0000000000
     15281       493  ARHM      H63            23.1186709798       17.5736273616       90.8201729470  LPSA14    25             18.0000000000
     15282       494  BMANNA    C1             23.4888056275       24.1728717146       90.2650981997  LPSA14    26             19.0000000000
     15283       494  BMANNA    H1             22.5770386470       24.6659209163       89.8579032307  LPSA14    26             19.0000000000
     15284       494  BMANNA    C5             24.7110264947       25.2649692332       88.5454702809  LPSA14    26             19.0000000000
     15285       494  BMANNA    H5             23.7570260646       25.7196297168       88.1621598137  LPSA14    26             19.0000000000
     15286       494  BMANNA    O5             24.4230410215       24.0357620793       89.1928089155  LPSA14    26             19.0000000000
     15287       494  BMANNA    C2             24.0004481413       25.0276709315       91.3480786810  LPSA14    26             19.0000000000
     15288       494  BMANNA    H2             23.1884354474       25.0818117671       92.1306799331  LPSA14    26             19.0000000000
     15289       494  BMANNA    N              25.2527609770       24.5258485023       91.9318863582  LPSA14    26             19.0000000000
     15290       494  BMANNA    HN             25.9679400848       24.3316041959       91.2698614567  LPSA14    26             19.0000000000
     15291       494  BMANNA    C              25.4760089114       24.3800721058       93.2443835282  LPSA14    26             19.0000000000
     15292       494  BMANNA    O              24.6011461175       24.5004325743       94.0901158900  LPSA14    26             19.0000000000
     15293       494  BMANNA    CT             26.9021390608       24.0522708260       93.6571328802  LPSA14    26             19.0000000000
     15294       494  BMANNA    HT1            27.4279219148       23.5209243083       92.8384280724  LPSA14    26             19.0000000000
     15295       494  BMANNA    HT2            26.9625005080       23.4622525273       94.5987711102  LPSA14    26             19.0000000000
     15296       494  BMANNA    HT3            27.4158811363       25.0137118030       93.8515435912  LPSA14    26             19.0000000000
     15297       494  BMANNA    C3             24.1819259960       26.3702682589       90.7811298166  LPSA14    26             19.0000000000
     15298       494  BMANNA    H3             23.2464902117       26.7990144706       90.3432021724  LPSA14    26             19.0000000000
     15299       494  BMANNA    O3             24.3982393714       27.0545640395       92.0535563794  LPSA14    26             19.0000000000
     15300       494  BMANNA    HO3            23.6428450073       27.6048459684       92.3083776852  LPSA14    26             19.0000000000
     15301       494  BMANNA    C4             25.2791738924       26.1679485171       89.5650224373  LPSA14    26             19.0000000000
     15302       494  BMANNA    H4             26.2087818072       25.8343843589       90.0324674304  LPSA14    26             19.0000000000
     15303       494  BMANNA    O4             25.8158467556       27.1270330421       88.6512537150  LPSA14    26             19.0000000000
     15304       494  BMANNA    HO4            26.1833387505       27.8759059399       89.1553667609  LPSA14    26             19.0000000000
     15305       494  BMANNA    C6             25.6450758989       25.0540584859       87.3392149190  LPSA14    26             19.0000000000
     15306       494  BMANNA    H61            25.3596697493       24.1186497048       86.8446337221  LPSA14    26             19.0000000000
     15307       494  BMANNA    H62            25.5092808315       25.8996194836       86.6112318462  LPSA14    26             19.0000000000
     15308       494  BMANNA    O6             27.0356812918       24.9986498389       87.7030194238  LPSA14    26             19.0000000000
     15309       494  BMANNA    HO6            27.2327211741       25.8660480480       88.1023367421  LPSA14    26             19.0000000000
     15310       495  BGLCNA    C1             20.2061627750       21.6930928128       93.4727464942  LPSA14    27             19.0000000000
     15311       495  BGLCNA    H1             19.9661277842       20.6103690802       93.4308830396  LPSA14    27             19.0000000000
     15312       495  BGLCNA    C5             17.9423135311       22.1667958509       93.9164576623  LPSA14    27             19.0000000000
     15313       495  BGLCNA    H5             17.7938229984       21.0609717254       93.9307953838  LPSA14    27             19.0000000000
     15314       495  BGLCNA    O5             19.0608162162       22.4414158572       93.0655153411  LPSA14    27             19.0000000000
     15315       495  BGLCNA    C2             20.6179839710       22.1205970480       94.8674474477  LPSA14    27             19.0000000000
     15316       495  BGLCNA    H2             20.7852654082       23.2302598441       94.8287353236  LPSA14    27             19.0000000000
     15317       495  BGLCNA    N              21.8617184792       21.4987285873       95.3000597007  LPSA14    27             19.0000000000
     15318       495  BGLCNA    HN             21.9677847884       20.5407435122       95.0579266225  LPSA14    27             19.0000000000
     15319       495  BGLCNA    C              22.8139725203       22.1949930366       95.9580423726  LPSA14    27             19.0000000000
     15320       495  BGLCNA    O              22.5816271337       23.2648794464       96.5051638783  LPSA14    27             19.0000000000
     15321       495  BGLCNA    CT             24.2060010398       21.6085451774       96.0099691920  LPSA14    27             19.0000000000
     15322       495  BGLCNA    HT1            24.2737653690       20.7070465659       95.3728894158  LPSA14    27             19.0000000000
     15323       495  BGLCNA    HT2            24.4926326565       21.3485150213       97.0484126111  LPSA14    27             19.0000000000
     15324       495  BGLCNA    HT3            24.9223104063       22.3838768491       95.6620926859  LPSA14    27             19.0000000000
     15325       495  BGLCNA    C3             19.4958253911       21.8687733778       95.8244763930  LPSA14    27             19.0000000000
     15326       495  BGLCNA    H3             19.2616434377       20.7754909672       95.7721397193  LPSA14    27             19.0000000000
     15327       495  BGLCNA    O3             20.0037804698       22.2268280645       97.1330595983  LPSA14    27             19.0000000000
     15328       495  BGLCNA    C4             18.2742029628       22.6213439479       95.3379678897  LPSA14    27             19.0000000000
     15329       495  BGLCNA    H4             18.4788374264       23.7171037126       95.3202821933  LPSA14    27             19.0000000000
     15330       495  BGLCNA    O4             17.1649082182       22.3990205943       96.1881702858  LPSA14    27             19.0000000000
     15331       495  BGLCNA    HO4            16.8882204769       21.4895983935       96.0382421034  LPSA14    27             19.0000000000
     15332       495  BGLCNA    C6             16.6824658576       22.7452501027       93.3093996388  LPSA14    27             19.0000000000
     15333       495  BGLCNA    H61            15.7925768989       22.3840437132       93.8668656933  LPSA14    27             19.0000000000
     15334       495  BGLCNA    H62            16.7424602323       23.8464687491       93.4182973516  LPSA14    27             19.0000000000
     15335       495  BGLCNA    O6             16.4986780339       22.3647982440       91.9350442382  LPSA14    27             19.0000000000
     15336       495  BGLCNA    HO6            15.8617396400       22.9542600425       91.4908760329  LPSA14    27             19.0000000000
     15337       496  AGAL      C1             19.3263446969       21.7216506612       98.2491727184  LPSA14    28             20.0000000000
     15338       496  AGAL      H1             18.3638345151       22.2700278909       98.3350287703  LPSA14    28             20.0000000000
     15339       496  AGAL      C5             20.2334325841       19.5081121601       98.1194593023  LPSA14    28             20.0000000000
     15340       496  AGAL      H5             21.0063292630       19.9201969181       97.4256851612  LPSA14    28             20.0000000000
     15341       496  AGAL      O5             19.0361466801       20.3279018183       98.0488429022  LPSA14    28             20.0000000000
     15342       496  AGAL      C2             20.0245501927       21.8883334536       99.6154201024  LPSA14    28             20.0000000000
     15343       496  AGAL      H2             19.2662184844       21.4415853836      100.3016678623  LPSA14    28             20.0000000000
     15344       496  AGAL      O2             20.2570482486       23.2249107864      100.0938412260  LPSA14    28             20.0000000000
     15345       496  AGAL      C3             21.2815187493       21.0361563322       99.6850940184  LPSA14    28             20.0000000000
     15346       496  AGAL      H3             21.9455110776       21.3270015123       98.8430944087  LPSA14    28             20.0000000000
     15347       496  AGAL      O3             22.0771396243       21.1593872299      100.8608239296  LPSA14    28             20.0000000000
     15348       496  AGAL      HO3            22.9351313861       21.5588086476      100.6505930975  LPSA14    28             20.0000000000
     15349       496  AGAL      C4             20.8770099511       19.6054971045       99.4834359985  LPSA14    28             20.0000000000
     15350       496  AGAL      H4             21.8045493730       18.9928052234       99.4872376645  LPSA14    28             20.0000000000
     15351       496  AGAL      O4             20.0137299810       19.1109088790      100.4923822280  LPSA14    28             20.0000000000
     15352       496  AGAL      HO4            20.5167816579       18.5685774470      101.1026586691  LPSA14    28             20.0000000000
     15353       496  AGAL      C6             19.9737920658       18.0849496308       97.6381754184  LPSA14    28             20.0000000000
     15354       496  AGAL      H61            19.7177231661       18.1191917644       96.5574596908  LPSA14    28             20.0000000000
     15355       496  AGAL      H62            20.8722970227       17.4354569793       97.7506789712  LPSA14    28             20.0000000000
     15356       496  AGAL      O6             18.9241682373       17.4269607525       98.3321154065  LPSA14    28             20.0000000000
     15357       496  AGAL      HO6            18.0515822411       17.6652683352       97.9916758757  LPSA14    28             20.0000000000
     15358       497  ARHM      C1             19.9549236047       23.2796731969      101.4801434706  LPSA14    29             21.0000000000
     15359       497  ARHM      H1             20.0748804531       22.2878987401      101.9633491090  LPSA14    29             21.0000000000
     15360       497  ARHM      C5             18.3797877863       25.0066977867      101.1139173608  LPSA14    29             21.0000000000
     15361       497  ARHM      H5             18.6565839891       24.9718982704      100.0402487799  LPSA14    29             21.0000000000
     15362       497  ARHM      O5             18.6105503016       23.7206550648      101.6930679282  LPSA14    29             21.0000000000
     15363       497  ARHM      C2             20.9040320760       24.2148532515      102.1651351539  LPSA14    29             21.0000000000
     15364       497  ARHM      H2             21.9416103127       23.8799068428      101.9256099221  LPSA14    29             21.0000000000
     15365       497  ARHM      O2             20.6948012136       24.1976650039      103.6015862522  LPSA14    29             21.0000000000
     15366       497  ARHM      C3             20.7148404405       25.5887931471      101.5888935818  LPSA14    29             21.0000000000
     15367       497  ARHM      H3             20.9237883498       25.5821429539      100.4946092800  LPSA14    29             21.0000000000
     15368       497  ARHM      O3             21.6674630130       26.4570212643      102.1593924853  LPSA14    29             21.0000000000
     15369       497  ARHM      HO3            21.2275534763       27.3058391645      102.2349723030  LPSA14    29             21.0000000000
     15370       497  ARHM      C4             19.2674149730       26.0388126710      101.7758853374  LPSA14    29             21.0000000000
     15371       497  ARHM      H4             18.9913931638       25.9650930369      102.8391299189  LPSA14    29             21.0000000000
     15372       497  ARHM      O4             18.9952264990       27.3722831548      101.3263121378  LPSA14    29             21.0000000000
     15373       497  ARHM      HO4            19.3724328691       27.5454639136      100.4619407933  LPSA14    29             21.0000000000
     15374       497  ARHM      C6             16.8672802133       25.2070671003      101.2187827938  LPSA14    29             21.0000000000
     15375       497  ARHM      H61            16.3878850524       24.3050892293      100.7754381250  LPSA14    29             21.0000000000
     15376       497  ARHM      H62            16.5303187810       25.2985860296      102.2718071965  LPSA14    29             21.0000000000
     15377       497  ARHM      H63            16.5506400003       26.1032648287      100.6424349341  LPSA14    29             21.0000000000
     15378       498  ARHM      C1             21.5434927397       23.3726412022      104.3673514004  LPSA14    30             22.0000000000
     15379       498  ARHM      H1             22.6076885511       23.6313940655      104.1579423922  LPSA14    30             22.0000000000
     15380       498  ARHM      C5             20.0054210413       21.5501919294      104.4939307709  LPSA14    30             22.0000000000
     15381       498  ARHM      H5             19.3084078642       22.1908644585      103.9096609742  LPSA14    30             22.0000000000
     15382       498  ARHM      O5             21.3362467687       21.9657512794      104.1585333951  LPSA14    30             22.0000000000
     15383       498  ARHM      C2             21.2532461041       23.6555864905      105.8225653467  LPSA14    30             22.0000000000
     15384       498  ARHM      H2             21.3746015953       24.7463129744      106.0252047152  LPSA14    30             22.0000000000
     15385       498  ARHM      O2             22.1515454758       22.8730807632      106.6020099323  LPSA14    30             22.0000000000
     15386       498  ARHM      C3             19.8542543501       23.2402967710      106.2208929821  LPSA14    30             22.0000000000
     15387       498  ARHM      H3             19.1615210947       23.7617469754      105.5187006974  LPSA14    30             22.0000000000
     15388       498  ARHM      O3             19.5181162107       23.6960724462      107.5449607365  LPSA14    30             22.0000000000
     15389       498  ARHM      C4             19.7044472826       21.7616355239      105.9585328181  LPSA14    30             22.0000000000
     15390       498  ARHM      H4             20.4364112326       21.1665245161      106.5494747928  LPSA14    30             22.0000000000
     15391       498  ARHM      O4             18.4304652689       21.2334009650      106.3059108822  LPSA14    30             22.0000000000
     15392       498  ARHM      HO4            17.7097923156       21.5066203710      105.7296023640  LPSA14    30             22.0000000000
     15393       498  ARHM      C6             19.7832755473       20.1029759357      104.0594507495  LPSA14    30             22.0000000000
     15394       498  ARHM      H61            18.7218617526       19.8234013856      104.2328868180  LPSA14    30             22.0000000000
     15395       498  ARHM      H62            19.9753532460       19.9977192409      102.9755351445  LPSA14    30             22.0000000000
     15396       498  ARHM      H63            20.4334773073       19.4001600366      104.6258391786  LPSA14    30             22.0000000000
     15397       499  BMANNA    C1             23.3566416671       23.4890188086      106.8915997430  LPSA14    31             23.0000000000
     15398       499  BMANNA    H1             23.1879036057       24.5537231351      107.1592073389  LPSA14    31             23.0000000000
     15399       499  BMANNA    C5             25.5776154371       23.9299130957      106.1964874604  LPSA14    31             23.0000000000
     15400       499  BMANNA    H5             25.3609591858       24.9856878345      106.4994274486  LPSA14    31             23.0000000000
     15401       499  BMANNA    O5             24.3212761056       23.3388472704      105.8445217564  LPSA14    31             23.0000000000
     15402       499  BMANNA    C2             23.8489951713       22.7428834905      108.0863548256  LPSA14    31             23.0000000000
     15403       499  BMANNA    H2             23.1234133827       22.9404333655      108.9150478586  LPSA14    31             23.0000000000
     15404       499  BMANNA    N              23.8719723852       21.3105049705      107.8174241927  LPSA14    31             23.0000000000
     15405       499  BMANNA    HN             23.8885091789       21.0348000339      106.8566221107  LPSA14    31             23.0000000000
     15406       499  BMANNA    C              23.7424125108       20.3930902999      108.7755946293  LPSA14    31             23.0000000000
     15407       499  BMANNA    O              23.5616851745       20.7118073803      109.9437284437  LPSA14    31             23.0000000000
     15408       499  BMANNA    CT             23.8050144582       18.9655228516      108.3301165225  LPSA14    31             23.0000000000
     15409       499  BMANNA    HT1            24.6047046744       18.8650521009      107.5634363788  LPSA14    31             23.0000000000
     15410       499  BMANNA    HT2            22.8237558241       18.6760180879      107.9033978500  LPSA14    31             23.0000000000
     15411       499  BMANNA    HT3            24.0216041356       18.3013713247      109.1924849776  LPSA14    31             23.0000000000
     15412       499  BMANNA    C3             25.1488741327       23.3631631673      108.5076794196  LPSA14    31             23.0000000000
     15413       499  BMANNA    H3             25.0106516952       24.4560247254      108.6775989782  LPSA14    31             23.0000000000
     15414       499  BMANNA    O3             25.5721845101       22.8665114950      109.7543818169  LPSA14    31             23.0000000000
     15415       499  BMANNA    HO3            24.8241232757       22.3791812951      110.1310311830  LPSA14    31             23.0000000000
     15416       499  BMANNA    C4             26.1330382179       23.2266295367      107.3947066281  LPSA14    31             23.0000000000
     15417       499  BMANNA    H4             26.3593821079       22.1591793135      107.1372628091  LPSA14    31             23.0000000000
     15418       499  BMANNA    O4             27.3215900793       23.9122565794      107.6801877062  LPSA14    31             23.0000000000
     15419       499  BMANNA    HO4            27.2231234058       24.6661908311      108.2673426827  LPSA14    31             23.0000000000
     15420       499  BMANNA    C6             26.5878390216       23.9896113343      105.0525544174  LPSA14    31             23.0000000000
     15421       499  BMANNA    H61            27.4414882472       24.6593807308      105.3150658878  LPSA14    31             23.0000000000
     15422       499  BMANNA    H62            27.0234745583       22.9803505351      104.8814250465  LPSA14    31             23.0000000000
     15423       499  BMANNA    O6             26.0075039390       24.4215347920      103.8255801871  LPSA14    31             23.0000000000
     15424       499  BMANNA    HO6            25.8290014500       25.3670162426      103.8110754291  LPSA14    31             23.0000000000
     15425       500  BGLCNA    C1             19.9514310431       22.8917310116      108.6169556789  LPSA14    32             23.0000000000
     15426       500  BGLCNA    H1             20.9585349891       22.4909985727      108.4118801903  LPSA14    32             23.0000000000
     15427       500  BGLCNA    C5             19.6211592107       20.9382024300      109.9234291456  LPSA14    32             23.0000000000
     15428       500  BGLCNA    H5             20.6316810527       20.6003767636      109.5830722370  LPSA14    32             23.0000000000
     15429       500  BGLCNA    O5             19.0897070451       21.7928177112      108.9035938314  LPSA14    32             23.0000000000
     15430       500  BGLCNA    C2             20.0607259535       23.7486887996      109.8555331958  LPSA14    32             23.0000000000
     15431       500  BGLCNA    H2             19.0127099945       24.0150817551      110.1459812278  LPSA14    32             23.0000000000
     15432       500  BGLCNA    N              20.7935729131       24.9532434744      109.5845870794  LPSA14    32             23.0000000000
     15433       500  BGLCNA    HN             21.4836006594       24.8390985384      108.8921048882  LPSA14    32             23.0000000000
     15434       500  BGLCNA    C              20.5479596221       26.1651697552      110.1084081903  LPSA14    32             23.0000000000
     15435       500  BGLCNA    O              19.6829405414       26.4012723751      110.9345298632  LPSA14    32             23.0000000000
     15436       500  BGLCNA    CT             21.4796827119       27.2288809346      109.5862447206  LPSA14    32             23.0000000000
     15437       500  BGLCNA    HT1            21.9309651720       26.8590855707      108.6486888563  LPSA14    32             23.0000000000
     15438       500  BGLCNA    HT2            22.2935317549       27.5111392776      110.2765889918  LPSA14    32             23.0000000000
     15439       500  BGLCNA    HT3            20.9120518443       28.1492592820      109.3671085691  LPSA14    32             23.0000000000
     15440       500  BGLCNA    C3             20.7063691918       22.9044275488      110.9254068240  LPSA14    32             23.0000000000
     15441       500  BGLCNA    H3             21.6369049297       22.4853048839      110.4763342580  LPSA14    32             23.0000000000
     15442       500  BGLCNA    O3             21.0945936515       23.6564481065      112.0877343005  LPSA14    32             23.0000000000
     15443       500  BGLCNA    C4             19.7798103251       21.7476150941      111.2004356407  LPSA14    32             23.0000000000
     15444       500  BGLCNA    H4             18.7921368373       22.1703994557      111.5076689583  LPSA14    32             23.0000000000
     15445       500  BGLCNA    O4             20.2673083481       20.9080653834      112.2317391274  LPSA14    32             23.0000000000
     15446       500  BGLCNA    HO4            19.9184461122       21.2084319913      113.0783815418  LPSA14    32             23.0000000000
     15447       500  BGLCNA    C6             18.7719244187       19.6833633875      110.0537023866  LPSA14    32             23.0000000000
     15448       500  BGLCNA    H61            19.2535509748       18.9381376859      110.7242060614  LPSA14    32             23.0000000000
     15449       500  BGLCNA    H62            17.7852541881       19.9465988325      110.4886991819  LPSA14    32             23.0000000000
     15450       500  BGLCNA    O6             18.5618881644       19.0325827571      108.8022259327  LPSA14    32             23.0000000000
     15451       500  BGLCNA    HO6            19.3436682729       19.1433776518      108.2414372026  LPSA14    32             23.0000000000
     15452       501  AGAL      C1             22.3035015821       23.2083948512      112.6756418990  LPSA14    33             24.0000000000
     15453       501  AGAL      H1             22.3828313951       22.1022836425      112.6065460171  LPSA14    33             24.0000000000
     15454       501  AGAL      C5             23.5095241847       25.2256148198      112.2086669644  LPSA14    33             24.0000000000
     15455       501  AGAL      H5             22.5181533217       25.5739118683      111.8405326666  LPSA14    33             24.0000000000
     15456       501  AGAL      O5             23.4666272684       23.7913050012      112.0529561473  LPSA14    33             24.0000000000
     15457       501  AGAL      C2             22.3263135735       23.6039580796      114.1394729732  LPSA14    33             24.0000000000
     15458       501  AGAL      H2             23.3265187703       23.3093322380      114.5280130314  LPSA14    33             24.0000000000
     15459       501  AGAL      O2             21.3675082745       22.8080191581      114.8659446994  LPSA14    33             24.0000000000
     15460       501  AGAL      C3             22.2843743981       25.1229986200      114.3045142739  LPSA14    33             24.0000000000
     15461       501  AGAL      H3             21.4203144386       25.5439001720      113.7291628231  LPSA14    33             24.0000000000
     15462       501  AGAL      O3             22.0187707898       25.5176368346      115.6449267221  LPSA14    33             24.0000000000
     15463       501  AGAL      HO3            22.7207609776       25.2321654574      116.2345756912  LPSA14    33             24.0000000000
     15464       501  AGAL      C4             23.5558867058       25.7026878371      113.6608631222  LPSA14    33             24.0000000000
     15465       501  AGAL      H4             23.5062894299       26.8156703411      113.6636490727  LPSA14    33             24.0000000000
     15466       501  AGAL      O4             24.7930992604       25.3715988739      114.2973517518  LPSA14    33             24.0000000000
     15467       501  AGAL      HO4            24.7283055030       24.6349129070      114.9040071184  LPSA14    33             24.0000000000
     15468       501  AGAL      C6             24.5218890035       25.8677693403      111.2624531251  LPSA14    33             24.0000000000
     15469       501  AGAL      H61            24.1843828035       25.6198941992      110.2382345427  LPSA14    33             24.0000000000
     15470       501  AGAL      H62            24.5140001064       26.9765853006      111.3742873992  LPSA14    33             24.0000000000
     15471       501  AGAL      O6             25.8823878435       25.4570717244      111.3978873839  LPSA14    33             24.0000000000
     15472       501  AGAL      HO6            26.0918606509       24.6573915581      110.8930593099  LPSA14    33             24.0000000000
     15473       502  ARHM      C1             21.8776769317       22.2181354865      116.0504330374  LPSA14    34             25.0000000000
     15474       502  ARHM      H1             22.3840069409       23.0044615443      116.6487406912  LPSA14    34             25.0000000000
     15475       502  ARHM      C5             22.3424828149       20.0539250555      115.0613116873  LPSA14    34             25.0000000000
     15476       502  ARHM      H5             22.0547636242       20.4303883056      114.0615622791  LPSA14    34             25.0000000000
     15477       502  ARHM      O5             22.8455174226       21.1594711042      115.8344751886  LPSA14    34             25.0000000000
     15478       502  ARHM      C2             20.6766572723       21.6817587026      116.8102482123  LPSA14    34             25.0000000000
     15479       502  ARHM      H2             19.8873512851       22.4762772247      116.8445313388  LPSA14    34             25.0000000000
     15480       502  ARHM      O2             20.9661577137       21.2763232204      118.1773915792  LPSA14    34             25.0000000000
     15481       502  ARHM      C3             20.0866737263       20.5313604849      116.0126634799  LPSA14    34             25.0000000000
     15482       502  ARHM      H3             19.8003897575       20.8894042237      114.9945472634  LPSA14    34             25.0000000000
     15483       502  ARHM      O3             18.8902902499       20.0543051487      116.6310290735  LPSA14    34             25.0000000000
     15484       502  ARHM      HO3            18.3262339406       19.6469178971      115.9547358519  LPSA14    34             25.0000000000
     15485       502  ARHM      C4             21.1354722303       19.4603640409      115.7987964711  LPSA14    34             25.0000000000
     15486       502  ARHM      H4             21.5218275150       19.0932513520      116.7794700196  LPSA14    34             25.0000000000
     15487       502  ARHM      O4             20.5829712851       18.3622447819      115.0773359237  LPSA14    34             25.0000000000
     15488       502  ARHM      HO4            20.0937752969       17.7802691185      115.6804091487  LPSA14    34             25.0000000000
     15489       502  ARHM      C6             23.4244911595       18.9804304966      114.7977773247  LPSA14    34             25.0000000000
     15490       502  ARHM      H61            23.8213804948       18.6173085429      115.7498069420  LPSA14    34             25.0000000000
     15491       502  ARHM      H62            22.9585923569       18.0863624116      114.3315819864  LPSA14    34             25.0000000000
     15492       502  ARHM      H63            24.2718440578       19.3020100899      114.1635037765  LPSA14    34             25.0000000000
     15493       503  ARHM      C1             21.5356934202       22.2244507864      119.0654033321  LPSA14    35             26.0000000000
     15494       503  ARHM      H1             21.0990213410       23.2327635048      118.8712012991  LPSA14    35             26.0000000000
     15495       503  ARHM      C5             23.6050708678       21.0057025074      119.2072283945  LPSA14    35             26.0000000000
     15496       503  ARHM      H5             23.2238897702       20.2264262615      118.5110806350  LPSA14    35             26.0000000000
     15497       503  ARHM      O5             22.9668632303       22.2753417982      118.9465752263  LPSA14    35             26.0000000000
     15498       503  ARHM      C2             21.2239477695       21.8378205095      120.5088257291  LPSA14    35             26.0000000000
     15499       503  ARHM      H2             20.1210678725       21.7835101342      120.6669365348  LPSA14    35             26.0000000000
     15500       503  ARHM      O2             21.7593152930       22.7896373155      121.4353578627  LPSA14    35             26.0000000000
     15501       503  ARHM      C3             21.8112314459       20.4883737169      120.8313518757  LPSA14    35             26.0000000000
     15502       503  ARHM      H3             21.3948663509       19.7574359226      120.1005450209  LPSA14    35             26.0000000000
     15503       503  ARHM      O3             21.4059155030       20.0118109885      122.1177957442  LPSA14    35             26.0000000000
     15504       503  ARHM      HO3            21.3832277047       20.7548407935      122.7317957856  LPSA14    35             26.0000000000
     15505       503  ARHM      C4             23.3157473626       20.5546118157      120.6539198017  LPSA14    35             26.0000000000
     15506       503  ARHM      H4             23.7649584767       21.3133584220      121.3390170337  LPSA14    35             26.0000000000
     15507       503  ARHM      O4             23.9086596252       19.3020287592      120.9938017185  LPSA14    35             26.0000000000
     15508       503  ARHM      HO4            23.4365333295       18.5806879379      120.5663604997  LPSA14    35             26.0000000000
     15509       503  ARHM      C6             25.0961932268       21.1734795361      118.8551545642  LPSA14    35             26.0000000000
     15510       503  ARHM      H61            25.2761704601       21.3073558119      117.7683676923  LPSA14    35             26.0000000000
     15511       503  ARHM      H62            25.5515743374       22.0035229478      119.4278704364  LPSA14    35             26.0000000000
     15512       503  ARHM      H63            25.6263894171       20.2560856263      119.1330967515  LPSA14    35             26.0000000000
     15513       504  BMANNA    C1             21.0936049620       24.0227074928      121.4766276093  LPSA14    36             27.0000000000
     15514       504  BMANNA    H1             20.0454734959       23.9028459766      121.1293444008  LPSA14    36             27.0000000000
     15515       504  BMANNA    C5             20.9228510450       26.2622729322      120.7202842425  LPSA14    36             27.0000000000
     15516       504  BMANNA    H5             19.8675242572       26.0257682826      120.4335862922  LPSA14    36             27.0000000000
     15517       504  BMANNA    O5             21.6890934755       25.0367388000      120.6605378179  LPSA14    36             27.0000000000
     15518       504  BMANNA    C2             21.1157564912       24.4751362080      122.9147232882  LPSA14    36             27.0000000000
     15519       504  BMANNA    H2             20.5697968416       23.6770737307      123.4821732085  LPSA14    36             27.0000000000
     15520       504  BMANNA    N              22.4552696556       24.6176810483      123.4834301541  LPSA14    36             27.0000000000
     15521       504  BMANNA    HN             23.1654586568       24.9759200464      122.8796349078  LPSA14    36             27.0000000000
     15522       504  BMANNA    C              22.6967427819       24.4677079802      124.7985623815  LPSA14    36             27.0000000000
     15523       504  BMANNA    O              21.8747908958       24.0074863126      125.5793056480  LPSA14    36             27.0000000000
     15524       504  BMANNA    CT             24.0410446580       24.8533041403      125.3350937025  LPSA14    36             27.0000000000
     15525       504  BMANNA    HT1            24.3747855388       25.7948047489      124.8681068901  LPSA14    36             27.0000000000
     15526       504  BMANNA    HT2            24.7907855487       24.0822896194      125.1115794534  LPSA14    36             27.0000000000
     15527       504  BMANNA    HT3            24.0035509109       24.9546271380      126.4395494793  LPSA14    36             27.0000000000
     15528       504  BMANNA    C3             20.2999165086       25.7427130430      123.0149368925  LPSA14    36             27.0000000000
     15529       504  BMANNA    H3             19.2567772763       25.5493323636      122.6630154656  LPSA14    36             27.0000000000
     15530       504  BMANNA    O3             20.2400787863       26.1965278030      124.3550407534  LPSA14    36             27.0000000000
     15531       504  BMANNA    HO3            19.3461039514       26.2441436479      124.7302153454  LPSA14    36             27.0000000000
     15532       504  BMANNA    C4             20.9004619024       26.7994851410      122.1352670340  LPSA14    36             27.0000000000
     15533       504  BMANNA    H4             21.9355559676       27.0458236682      122.4591207470  LPSA14    36             27.0000000000
     15534       504  BMANNA    O4             20.1614698829       28.0040633992      122.2353386194  LPSA14    36             27.0000000000
     15535       504  BMANNA    HO4            20.1006539316       28.1769217187      123.1982561851  LPSA14    36             27.0000000000
     15536       504  BMANNA    C6             21.3905737514       27.2826345028      119.7142872550  LPSA14    36             27.0000000000
     15537       504  BMANNA    H61            21.3931029736       26.8400308482      118.6938994369  LPSA14    36             27.0000000000
     15538       504  BMANNA    H62            20.6624542150       28.1225058932      119.6996539074  LPSA14    36             27.0000000000
     15539       504  BMANNA    O6             22.6777376859       27.8060708087      120.0311744463  LPSA14    36             27.0000000000
     15540       504  BMANNA    HO6            22.6092217019       28.5289636932      120.6635092093  LPSA14    36             27.0000000000
     15541       505  ECLIPA    HB6S           29.0099500107        9.2904772680       20.4297546208  LPSA15    1               0.0000000000
     15542       505  ECLIPA    OB6            30.0596802482        8.1259053889       21.7181131901  LPSA15    1               0.0000000000
     15543       505  ECLIPA    CB6            30.0582444357        9.1419894864       20.7047205450  LPSA15    1               0.0000000000
     15544       505  ECLIPA    HB6R           30.4482980420       10.1040905749       21.1054453777  LPSA15    1               0.0000000000
     15545       505  ECLIPA    CB5            30.8293108685        8.8170555256       19.4385469380  LPSA15    1               0.0000000000
     15546       505  ECLIPA    OB5            30.2984651077        7.5678884082       18.9577461197  LPSA15    1               0.0000000000
     15547       505  ECLIPA    HB5            31.8992281998        8.7207648558       19.7402123996  LPSA15    1               0.0000000000
     15548       505  ECLIPA    CB1            30.9899227771        7.1088389901       17.7911703166  LPSA15    1               0.0000000000
     15549       505  ECLIPA    HB1            32.0907070680        7.0170947955       17.9687372305  LPSA15    1               0.0000000000
     15550       505  ECLIPA    OA6            30.5438647627        5.8541043302       17.3405361524  LPSA15    1               0.0000000000
     15551       505  ECLIPA    CA6            29.1542534548        5.5730420496       17.5804325766  LPSA15    1               0.0000000000
     15552       505  ECLIPA    HA6R           28.5623661541        6.4937366714       17.7602844300  LPSA15    1               0.0000000000
     15553       505  ECLIPA    HA6S           29.0786773869        4.8898312590       18.4563687528  LPSA15    1               0.0000000000
     15554       505  ECLIPA    CB4            30.7063589991        9.8881360320       18.3352883141  LPSA15    1               0.0000000000
     15555       505  ECLIPA    HB4            29.6403003754       10.0671537963       18.0480738347  LPSA15    1               0.0000000000
     15556       505  ECLIPA    OB4            31.3508450636       11.0689448686       18.8254947672  LPSA15    1               0.0000000000
     15557       505  ECLIPA    PB             30.4527011824       12.3858088406       19.3040321881  LPSA15    1               0.0000000000
     15558       505  ECLIPA    OPB4           31.1880507512       13.0196771824       20.4737005071  LPSA15    1               0.0000000000
     15559       505  ECLIPA    OPB3           29.0575907755       11.8195733329       19.6753050068  LPSA15    1               0.0000000000
     15560       505  ECLIPA    OPB2           30.3945834902       13.2778187815       18.0766390845  LPSA15    1               0.0000000000
     15561       505  ECLIPA    CB3            31.4242267880        9.3917207659       17.1010406957  LPSA15    1               0.0000000000
     15562       505  ECLIPA    OB3            31.3184969503       10.2385511095       15.9720228235  LPSA15    1               0.0000000000
     15563       505  ECLIPA    HB3            32.4918118912        9.1826837558       17.3454427295  LPSA15    1               0.0000000000
     15564       505  ECLIPA    C71            32.1859698896       11.2133293781       15.8227445826  LPSA15    1               0.0000000000
     15565       505  ECLIPA    O71            33.3167502627       11.2037921147       16.2820096612  LPSA15    1               0.0000000000
     15566       505  ECLIPA    C72            31.8900141481       11.7881834937       14.4554911239  LPSA15    1               0.0000000000
     15567       505  ECLIPA    H72R           31.9117724660       11.0495870445       13.6352135665  LPSA15    1               0.0000000000
     15568       505  ECLIPA    H72S           32.6626388720       12.5680608665       14.2680415521  LPSA15    1               0.0000000000
     15569       505  ECLIPA    CB2            30.8142666274        8.0826124909       16.6662454339  LPSA15    1               0.0000000000
     15570       505  ECLIPA    HB2            29.7116639618        8.2425352815       16.5063137420  LPSA15    1               0.0000000000
     15571       505  ECLIPA    NB2            31.4582740099        7.5841854464       15.4528197677  LPSA15    1               0.0000000000
     15572       505  ECLIPA    HNB2           32.2524124784        7.0008979245       15.5668795010  LPSA15    1               0.0000000000
     15573       505  ECLIPA    CA4            29.5185532943        3.8616438631       15.8475751092  LPSA15    1               0.0000000000
     15574       505  ECLIPA    HA4            30.4698680877        4.3763588801       15.5811539166  LPSA15    1               0.0000000000
     15575       505  ECLIPA    OA4            29.7710261647        2.8808061963       16.8593390285  LPSA15    1               0.0000000000
     15576       505  ECLIPA    HOA4           29.9936925000        3.3568665235       17.6607180824  LPSA15    1               0.0000000000
     15577       505  ECLIPA    CA5            28.5758710286        4.8916209483       16.3707989506  LPSA15    1               0.0000000000
     15578       505  ECLIPA    HA5            27.5538293945        4.4925152752       16.5797036816  LPSA15    1               0.0000000000
     15579       505  ECLIPA    OA5            28.4692345340        5.9212892810       15.4006910113  LPSA15    1               0.0000000000
     15580       505  ECLIPA    CA1            27.9158827609        5.4860240094       14.1575501053  LPSA15    1               0.0000000000
     15581       505  ECLIPA    HA1            28.0745340539        6.3318451404       13.4538527901  LPSA15    1               0.0000000000
     15582       505  ECLIPA    OA1            26.5388989006        5.1399996157       14.1782441822  LPSA15    1               0.0000000000
     15583       505  ECLIPA    OPA2           24.9553346854        5.7656273207       16.0480367894  LPSA15    1               0.0000000000
     15584       505  ECLIPA    OPA3           26.1463815241        7.6382374097       14.9101356523  LPSA15    1               0.0000000000
     15585       505  ECLIPA    OPA4           24.3510133697        6.3526478136       13.6571039193  LPSA15    1               0.0000000000
     15586       505  ECLIPA    PA             25.4586919415        6.2931078070       14.7102506617  LPSA15    1               0.0000000000
     15587       505  ECLIPA    CA3            29.0176461586        3.2996244259       14.5727945118  LPSA15    1               0.0000000000
     15588       505  ECLIPA    HA3            28.0761081653        2.7221297558       14.7681506334  LPSA15    1               0.0000000000
     15589       505  ECLIPA    OA3            30.1639211890        2.4406806762       14.3535294416  LPSA15    1               0.0000000000
     15590       505  ECLIPA    C31            31.2125774736        2.9011726281       13.6706961393  LPSA15    1               0.0000000000
     15591       505  ECLIPA    O31            31.3421792615        2.8914071592       12.4577025494  LPSA15    1               0.0000000000
     15592       505  ECLIPA    C32            32.3525615732        2.3275852402       14.3398748243  LPSA15    1               0.0000000000
     15593       505  ECLIPA    H32R           32.6673676669        1.6563351979       13.5035749303  LPSA15    1               0.0000000000
     15594       505  ECLIPA    H32S           32.0925640804        1.7742619759       15.2759240303  LPSA15    1               0.0000000000
     15595       505  ECLIPA    CA2            28.8134174356        4.4754642491       13.5704197846  LPSA15    1               0.0000000000
     15596       505  ECLIPA    HA2            29.8151553247        4.9061001125       13.4009948156  LPSA15    1               0.0000000000
     15597       505  ECLIPA    NA2            28.2748010442        4.1927145086       12.2431058840  LPSA15    1               0.0000000000
     15598       505  ECLIPA    HNA2           28.3131320964        3.2115910163       12.1304752550  LPSA15    1               0.0000000000
     15599       505  ECLIPA    C73            30.4202204325       12.2195236629       14.4887061217  LPSA15    1               0.0000000000
     15600       505  ECLIPA    H73R           30.3706135715       12.9499295222       15.3839446711  LPSA15    1               0.0000000000
     15601       505  ECLIPA    O73            29.4987697068       11.2120181685       14.5781120681  LPSA15    1               0.0000000000
     15602       505  ECLIPA    C81            28.3158592476       11.5768473879       14.9905717476  LPSA15    1               0.0000000000
     15603       505  ECLIPA    O81            28.0041599209       12.5990686443       15.5824614790  LPSA15    1               0.0000000000
     15604       505  ECLIPA    C82            27.3381192547       10.6144141932       14.3484758063  LPSA15    1               0.0000000000
     15605       505  ECLIPA    H82R           26.3774842748       10.7195499113       14.8704523467  LPSA15    1               0.0000000000
     15606       505  ECLIPA    H82S           27.7357367044        9.5943602213       14.5506055102  LPSA15    1               0.0000000000
     15607       505  ECLIPA    C83            27.1671892470       10.7772279664       12.8161326571  LPSA15    1               0.0000000000
     15608       505  ECLIPA    H83R           28.0014996844       10.2498050884       12.2978442685  LPSA15    1               0.0000000000
     15609       505  ECLIPA    H83S           27.2079857436       11.8491314119       12.5409927097  LPSA15    1               0.0000000000
     15610       505  ECLIPA    C84            25.8849687662       10.1172901813       12.2908231440  LPSA15    1               0.0000000000
     15611       505  ECLIPA    H84R           24.9907443353       10.6939663447       12.5970190265  LPSA15    1               0.0000000000
     15612       505  ECLIPA    H84S           25.8470839344        9.1001668277       12.7623299423  LPSA15    1               0.0000000000
     15613       505  ECLIPA    C85            25.9072755224        9.8992795196       10.7701014988  LPSA15    1               0.0000000000
     15614       505  ECLIPA    H85R           26.9335488456        9.5282018255       10.5456810495  LPSA15    1               0.0000000000
     15615       505  ECLIPA    H85S           25.7896122007       10.8639405602       10.2350531550  LPSA15    1               0.0000000000
     15616       505  ECLIPA    C86            24.9345664603        8.8015719203       10.2859923788  LPSA15    1               0.0000000000
     15617       505  ECLIPA    H86R           23.9520127717        9.2307778490        9.9917473423  LPSA15    1               0.0000000000
     15618       505  ECLIPA    H86S           24.7339607798        8.0948311816       11.1275593155  LPSA15    1               0.0000000000
     15619       505  ECLIPA    C87            25.5298478074        7.9356692354        9.1603302416  LPSA15    1               0.0000000000
     15620       505  ECLIPA    H87R           24.7655775629        7.2154966422        8.7964283864  LPSA15    1               0.0000000000
     15621       505  ECLIPA    H87S           26.3618081253        7.3263638024        9.5770049714  LPSA15    1               0.0000000000
     15622       505  ECLIPA    C88            26.1225499710        8.7704762459        8.0278450884  LPSA15    1               0.0000000000
     15623       505  ECLIPA    H88R           27.0940812375        9.1938191427        8.3533577701  LPSA15    1               0.0000000000
     15624       505  ECLIPA    H88S           25.4618489845        9.6541883622        7.8806118902  LPSA15    1               0.0000000000
     15625       505  ECLIPA    C89            26.3338557177        7.9759175226        6.7336028912  LPSA15    1               0.0000000000
     15626       505  ECLIPA    H89R           26.3711719410        6.8778445013        6.8975898282  LPSA15    1               0.0000000000
     15627       505  ECLIPA    H89S           27.3040812874        8.2453517706        6.2627328325  LPSA15    1               0.0000000000
     15628       505  ECLIPA    C810           25.2451125570        8.3403454417        5.7450766786  LPSA15    1               0.0000000000
     15629       505  ECLIPA    H810R          24.9180269199        9.3791137607        5.9524916808  LPSA15    1               0.0000000000
     15630       505  ECLIPA    H810S          24.3737216459        7.6575803224        5.8763123659  LPSA15    1               0.0000000000
     15631       505  ECLIPA    C811           25.7074639019        8.2826061947        4.3035174747  LPSA15    1               0.0000000000
     15632       505  ECLIPA    H811R          24.7497412683        8.2316497810        3.7379421146  LPSA15    1               0.0000000000
     15633       505  ECLIPA    H811S          26.3177060018        7.3647378968        4.1781471200  LPSA15    1               0.0000000000
     15634       505  ECLIPA    C812           26.5739907880        9.4461248074        3.7872685778  LPSA15    1               0.0000000000
     15635       505  ECLIPA    H812R          26.9887664466        9.1815921606        2.7908911345  LPSA15    1               0.0000000000
     15636       505  ECLIPA    H812S          27.4523218458        9.5632605519        4.4360696948  LPSA15    1               0.0000000000
     15637       505  ECLIPA    C813           25.8656973470       10.7909909283        3.6455561466  LPSA15    1               0.0000000000
     15638       505  ECLIPA    H813R          25.0187486406       10.6817568589        2.9345366965  LPSA15    1               0.0000000000
     15639       505  ECLIPA    H813S          25.4475652927       11.1047824480        4.6278973319  LPSA15    1               0.0000000000
     15640       505  ECLIPA    C814           26.8032509159       11.8813057088        3.1323783237  LPSA15    1               0.0000000000
     15641       505  ECLIPA    H814R          27.3560552141       11.5650441575        2.2190264481  LPSA15    1               0.0000000000
     15642       505  ECLIPA    H814S          27.5395888691       12.1399854179        3.9193097396  LPSA15    1               0.0000000000
     15643       505  ECLIPA    H814T          26.2216105118       12.7924009109        2.8915886901  LPSA15    1               0.0000000000
     15644       505  ECLIPA    C74            29.8906790714       12.8688197237       13.2908292269  LPSA15    1               0.0000000000
     15645       505  ECLIPA    H74R           30.3517604101       13.7035167757       13.7885345224  LPSA15    1               0.0000000000
     15646       505  ECLIPA    H74S           28.8837027632       13.2694979158       13.2369319813  LPSA15    1               0.0000000000
     15647       505  ECLIPA    C75            29.9126169542       12.2783174977       11.8349508849  LPSA15    1               0.0000000000
     15648       505  ECLIPA    H75R           29.1785403438       12.8237017304       11.1816407245  LPSA15    1               0.0000000000
     15649       505  ECLIPA    H75S           29.5778873409       11.2930712347       12.0551202740  LPSA15    1               0.0000000000
     15650       505  ECLIPA    C76            31.1240672006       11.9724863531       10.9486801698  LPSA15    1               0.0000000000
     15651       505  ECLIPA    H76R           32.0785220420       11.6328854163       11.3663694162  LPSA15    1               0.0000000000
     15652       505  ECLIPA    H76S           31.3269956310       12.9754338239       11.0210491098  LPSA15    1               0.0000000000
     15653       505  ECLIPA    C77            31.0137512578       11.9762434273        9.4060585826  LPSA15    1               0.0000000000
     15654       505  ECLIPA    H77R           30.5347272883       12.9338702365        9.0705279277  LPSA15    1               0.0000000000
     15655       505  ECLIPA    H77S           30.3358113184       11.2196616572        9.0851826667  LPSA15    1               0.0000000000
     15656       505  ECLIPA    C78            32.3893180848       11.6211892989        8.7936207449  LPSA15    1               0.0000000000
     15657       505  ECLIPA    H78R           33.2109103295       12.2071836013        9.1635736840  LPSA15    1               0.0000000000
     15658       505  ECLIPA    H78S           32.8659468616       10.7997362198        9.3282843039  LPSA15    1               0.0000000000
     15659       505  ECLIPA    C79            32.5189785426       11.4606038768        7.2731134782  LPSA15    1               0.0000000000
     15660       505  ECLIPA    H79R           32.5709021075       10.3826223106        7.0984721900  LPSA15    1               0.0000000000
     15661       505  ECLIPA    H79S           33.5652935707       11.7603230330        7.0333378375  LPSA15    1               0.0000000000
     15662       505  ECLIPA    C710           31.3737807712       12.0386266195        6.3874600339  LPSA15    1               0.0000000000
     15663       505  ECLIPA    H710R          30.3963596988       11.9312205090        6.8636301687  LPSA15    1               0.0000000000
     15664       505  ECLIPA    H710S          31.2868135306       13.1118275425        6.2117629199  LPSA15    1               0.0000000000
     15665       505  ECLIPA    C711           31.4620359919       11.7561765258        4.9101353491  LPSA15    1               0.0000000000
     15666       505  ECLIPA    H711R          32.4570347104       12.0759993596        4.5087180909  LPSA15    1               0.0000000000
     15667       505  ECLIPA    H711S          31.3691727365       10.6671375979        4.8283874568  LPSA15    1               0.0000000000
     15668       505  ECLIPA    C712           30.3078392109       12.5051426692        4.2191576860  LPSA15    1               0.0000000000
     15669       505  ECLIPA    H712R          30.3508298057       13.6169142281        4.1922393830  LPSA15    1               0.0000000000
     15670       505  ECLIPA    H712S          29.4109666874       12.3307163637        4.8370210823  LPSA15    1               0.0000000000
     15671       505  ECLIPA    C713           30.1650908110       12.0151290561        2.8070131599  LPSA15    1               0.0000000000
     15672       505  ECLIPA    H713R          29.9266691704       10.9333213345        2.8444809060  LPSA15    1               0.0000000000
     15673       505  ECLIPA    H713S          29.3351975602       12.5720003775        2.3155957552  LPSA15    1               0.0000000000
     15674       505  ECLIPA    C714           31.4193649522       12.2368095278        1.9838781568  LPSA15    1               0.0000000000
     15675       505  ECLIPA    H714R          31.6108953464       13.3215275800        2.0111989093  LPSA15    1               0.0000000000
     15676       505  ECLIPA    H714S          32.3461675799       11.7351750853        2.3212390286  LPSA15    1               0.0000000000
     15677       505  ECLIPA    H714T          31.1974394935       11.8640974740        0.9672063999  LPSA15    1               0.0000000000
     15678       505  ECLIPA    C51            31.0316784276        7.9399796581       14.2337658710  LPSA15    1               0.0000000000
     15679       505  ECLIPA    O51            29.9432123292        8.4512387846       14.0676290870  LPSA15    1               0.0000000000
     15680       505  ECLIPA    C52            31.9548347596        7.7284038998       13.0586818173  LPSA15    1               0.0000000000
     15681       505  ECLIPA    H52R           32.6244683368        8.6081534861       12.9317732229  LPSA15    1               0.0000000000
     15682       505  ECLIPA    H52S           32.5738190955        6.8462220373       13.2558963079  LPSA15    1               0.0000000000
     15683       505  ECLIPA    C53            31.1413788563        7.5119743839       11.7673513859  LPSA15    1               0.0000000000
     15684       505  ECLIPA    H53R           30.1921099545        6.9641166465       11.9886034400  LPSA15    1               0.0000000000
     15685       505  ECLIPA    O53            31.9946087247        6.8111086436       10.8536510322  LPSA15    1               0.0000000000
     15686       505  ECLIPA    C61            31.6776375952        5.5693547786       10.5392724617  LPSA15    1               0.0000000000
     15687       505  ECLIPA    O61            30.6908621455        4.9630100676       10.8748774997  LPSA15    1               0.0000000000
     15688       505  ECLIPA    C62            32.7357686433        4.9990276626        9.6173964040  LPSA15    1               0.0000000000
     15689       505  ECLIPA    H62R           33.5554059062        4.6164207691       10.2548981603  LPSA15    1               0.0000000000
     15690       505  ECLIPA    H62S           33.1368562551        5.8413494963        9.0193225893  LPSA15    1               0.0000000000
     15691       505  ECLIPA    C63            32.1566340098        3.8555740854        8.7581522946  LPSA15    1               0.0000000000
     15692       505  ECLIPA    H63R           31.2148647206        4.1868920869        8.2955629945  LPSA15    1               0.0000000000
     15693       505  ECLIPA    H63S           31.9805143402        2.9318694020        9.3530202926  LPSA15    1               0.0000000000
     15694       505  ECLIPA    C64            32.9541574942        3.4925157515        7.5366148504  LPSA15    1               0.0000000000
     15695       505  ECLIPA    H64R           32.4179851472        2.6581800519        7.0265575792  LPSA15    1               0.0000000000
     15696       505  ECLIPA    H64S           33.9546297204        3.1932572653        7.9297980682  LPSA15    1               0.0000000000
     15697       505  ECLIPA    C65            33.0412785269        4.6396941402        6.5655714431  LPSA15    1               0.0000000000
     15698       505  ECLIPA    H65R           33.6542449669        5.3807313925        7.1312018582  LPSA15    1               0.0000000000
     15699       505  ECLIPA    H65S           32.0722180028        5.0533710860        6.2959359619  LPSA15    1               0.0000000000
     15700       505  ECLIPA    C66            33.6008440758        4.4095275402        5.1768789049  LPSA15    1               0.0000000000
     15701       505  ECLIPA    H66R           34.3751601060        3.6908654100        5.3662460680  LPSA15    1               0.0000000000
     15702       505  ECLIPA    H66S           34.0020717427        5.3695302108        4.7677394658  LPSA15    1               0.0000000000
     15703       505  ECLIPA    C67            33.1849255853        3.3688642154        4.1886971496  LPSA15    1               0.0000000000
     15704       505  ECLIPA    H67R           33.0808534024        2.3682971213        4.6249302968  LPSA15    1               0.0000000000
     15705       505  ECLIPA    H67S           33.8998732668        3.1738388250        3.3825310826  LPSA15    1               0.0000000000
     15706       505  ECLIPA    C68            32.0774235553        3.9110575162        3.4628811944  LPSA15    1               0.0000000000
     15707       505  ECLIPA    H68R           32.2957388438        4.9443341458        3.0887336424  LPSA15    1               0.0000000000
     15708       505  ECLIPA    H68S           31.3443086008        3.8985472396        4.2810514310  LPSA15    1               0.0000000000
     15709       505  ECLIPA    C69            31.8602252358        2.9939487475        2.3199655699  LPSA15    1               0.0000000000
     15710       505  ECLIPA    H69R           32.3157790477        1.9777072643        2.3927825994  LPSA15    1               0.0000000000
     15711       505  ECLIPA    H69S           32.4090015214        3.5282728258        1.5338226802  LPSA15    1               0.0000000000
     15712       505  ECLIPA    C610           30.3917769825        2.8997639823        2.0544916382  LPSA15    1               0.0000000000
     15713       505  ECLIPA    H610R          30.0413557801        3.9745311141        2.0065043328  LPSA15    1               0.0000000000
     15714       505  ECLIPA    H610S          29.8890234395        2.3688841976        2.8524650671  LPSA15    1               0.0000000000
     15715       505  ECLIPA    C611           30.1457292047        1.9979252339        0.8627710596  LPSA15    1               0.0000000000
     15716       505  ECLIPA    H611R          30.5920415492        1.0080937442        0.7958949866  LPSA15    1               0.0000000000
     15717       505  ECLIPA    H611S          29.0972867452        2.0734460371        0.4386852224  LPSA15    1               0.0000000000
     15718       505  ECLIPA    C612           31.0452531890        2.4929849466       -0.0708897683  LPSA15    1               0.0000000000
     15719       505  ECLIPA    H612R          30.3651832204        3.4397429646        0.0751511857  LPSA15    1               0.0000000000
     15720       505  ECLIPA    H612S          32.0596826908        2.8794189301       -0.0574643515  LPSA15    1               0.0000000000
     15721       505  ECLIPA    H612T          31.1267189913        2.1486217579       -1.1214476542  LPSA15    1               0.0000000000
     15722       505  ECLIPA    C54            30.8027680178        8.8931322666       11.1713822096  LPSA15    1               0.0000000000
     15723       505  ECLIPA    H54R           31.7661125978        9.3686238349       10.8816350711  LPSA15    1               0.0000000000
     15724       505  ECLIPA    H54S           30.3573553572        9.5007041723       11.9811860674  LPSA15    1               0.0000000000
     15725       505  ECLIPA    C55            29.8372241780        8.9070729584        9.9731235908  LPSA15    1               0.0000000000
     15726       505  ECLIPA    H55R           29.3875224016        9.9072245164        9.8629926950  LPSA15    1               0.0000000000
     15727       505  ECLIPA    H55S           28.9566278864        8.2795991166       10.2053739398  LPSA15    1               0.0000000000
     15728       505  ECLIPA    C56            30.5878554256        8.5159463361        8.6934717867  LPSA15    1               0.0000000000
     15729       505  ECLIPA    H56R           31.0412608454        7.5224618231        8.8581220517  LPSA15    1               0.0000000000
     15730       505  ECLIPA    H56S           31.4267401540        9.2206483737        8.5076764667  LPSA15    1               0.0000000000
     15731       505  ECLIPA    C57            29.7831850049        8.3726207375        7.4080837415  LPSA15    1               0.0000000000
     15732       505  ECLIPA    H57R           29.1979936921        9.2885883810        7.1815653144  LPSA15    1               0.0000000000
     15733       505  ECLIPA    H57S           29.0526124831        7.5434353111        7.5450258276  LPSA15    1               0.0000000000
     15734       505  ECLIPA    C58            30.7312042807        8.0090620653        6.2525031126  LPSA15    1               0.0000000000
     15735       505  ECLIPA    H58R           31.6230606703        8.6669271112        6.2188225128  LPSA15    1               0.0000000000
     15736       505  ECLIPA    H58S           31.1303636164        6.9916431389        6.4646828763  LPSA15    1               0.0000000000
     15737       505  ECLIPA    C59            30.0284839118        8.0782907582        4.8978543330  LPSA15    1               0.0000000000
     15738       505  ECLIPA    H59R           29.5966779384        9.0902470282        4.7225088866  LPSA15    1               0.0000000000
     15739       505  ECLIPA    H59S           29.1811881953        7.3616907844        4.9631748529  LPSA15    1               0.0000000000
     15740       505  ECLIPA    C510           30.9802536272        7.8512431022        3.7263204084  LPSA15    1               0.0000000000
     15741       505  ECLIPA    H510R          31.6196184458        6.9495500138        3.8489044023  LPSA15    1               0.0000000000
     15742       505  ECLIPA    H510S          31.6384399133        8.7361720978        3.5698104435  LPSA15    1               0.0000000000
     15743       505  ECLIPA    C511           30.3021412061        7.7254029788        2.4096457863  LPSA15    1               0.0000000000
     15744       505  ECLIPA    H511R          29.9491671152        6.6563952635        2.3647793378  LPSA15    1               0.0000000000
     15745       505  ECLIPA    H511S          29.3859740863        8.3355769285        2.2584919873  LPSA15    1               0.0000000000
     15746       505  ECLIPA    C512           31.3444413975        8.0362506879        1.3311958944  LPSA15    1               0.0000000000
     15747       505  ECLIPA    H512R          30.8854295699        8.3610157740        0.3718665750  LPSA15    1               0.0000000000
     15748       505  ECLIPA    H512S          31.9187283494        8.9561499009        1.3276011634  LPSA15    1               0.0000000000
     15749       505  ECLIPA    C513           32.1034386768        6.7557914564        1.0136129866  LPSA15    1               0.0000000000
     15750       505  ECLIPA    H513R          31.5640590501        5.7895397145        1.0012664469  LPSA15    1               0.0000000000
     15751       505  ECLIPA    H513S          32.9367494997        6.4471120739        1.6249328850  LPSA15    1               0.0000000000
     15752       505  ECLIPA    C514           32.4779135533        7.0681160159       -0.3298017642  LPSA15    1               0.0000000000
     15753       505  ECLIPA    H514R          32.9149508894        8.0558111478       -0.3324272789  LPSA15    1               0.0000000000
     15754       505  ECLIPA    H514S          32.9197694616        6.1554820492       -0.7143481288  LPSA15    1               0.0000000000
     15755       505  ECLIPA    H514T          32.0904640696        6.9428652243       -1.2835043342  LPSA15    1               0.0000000000
     15756       505  ECLIPA    C33            33.3976780384        3.3864658730       14.4693030175  LPSA15    1               0.0000000000
     15757       505  ECLIPA    H33R           34.3538704895        2.9324479104       14.7628287032  LPSA15    1               0.0000000000
     15758       505  ECLIPA    O33            32.9531007745        4.2569607783       15.4810531095  LPSA15    1               0.0000000000
     15759       505  ECLIPA    HO33           33.0043461354        3.8272425759       16.3453946007  LPSA15    1               0.0000000000
     15760       505  ECLIPA    C34            33.7250468105        4.1686450326       13.2009659181  LPSA15    1               0.0000000000
     15761       505  ECLIPA    H34R           32.8259855550        4.6445428986       12.7898290248  LPSA15    1               0.0000000000
     15762       505  ECLIPA    H34S           34.0866146152        3.4211860519       12.4468560064  LPSA15    1               0.0000000000
     15763       505  ECLIPA    C35            34.7349787728        5.2870066367       13.4926216737  LPSA15    1               0.0000000000
     15764       505  ECLIPA    H35R           35.5967807832        4.6864306188       13.8108959818  LPSA15    1               0.0000000000
     15765       505  ECLIPA    H35S           34.4796016494        5.8722879521       14.3872888886  LPSA15    1               0.0000000000
     15766       505  ECLIPA    C36            34.8586408825        6.3299522483       12.3475817688  LPSA15    1               0.0000000000
     15767       505  ECLIPA    H36R           34.0131632873        6.1836657987       11.6829871661  LPSA15    1               0.0000000000
     15768       505  ECLIPA    H36S           35.5730749446        6.2022574209       11.5642552409  LPSA15    1               0.0000000000
     15769       505  ECLIPA    C37            35.4662104672        7.7023366222       12.6118281271  LPSA15    1               0.0000000000
     15770       505  ECLIPA    H37R           36.5841606632        7.7826752455       12.6874804979  LPSA15    1               0.0000000000
     15771       505  ECLIPA    H37S           35.0964365747        7.9522488328       13.6092002602  LPSA15    1               0.0000000000
     15772       505  ECLIPA    C38            35.1817431403        8.6326353409       11.4308576545  LPSA15    1               0.0000000000
     15773       505  ECLIPA    H38R           34.0956931159        8.8212894676       11.4090100667  LPSA15    1               0.0000000000
     15774       505  ECLIPA    H38S           35.7509989878        9.5533079052       11.6645318268  LPSA15    1               0.0000000000
     15775       505  ECLIPA    C39            35.5744233525        8.1094711758       10.0314313876  LPSA15    1               0.0000000000
     15776       505  ECLIPA    H39R           35.0357358674        7.1516017820        9.8193782951  LPSA15    1               0.0000000000
     15777       505  ECLIPA    H39S           36.6853697387        7.9747448604        9.9902014709  LPSA15    1               0.0000000000
     15778       505  ECLIPA    C310           35.2072717594        8.9941585535        8.8547394672  LPSA15    1               0.0000000000
     15779       505  ECLIPA    H310R          35.8802066495        9.8728546688        8.9491337902  LPSA15    1               0.0000000000
     15780       505  ECLIPA    H310S          34.1488635853        9.3008574310        8.9426090094  LPSA15    1               0.0000000000
     15781       505  ECLIPA    C311           35.2927499692        8.2465008358        7.5132749073  LPSA15    1               0.0000000000
     15782       505  ECLIPA    H311R          36.1431237633        7.5421869582        7.5324204053  LPSA15    1               0.0000000000
     15783       505  ECLIPA    H311S          34.3686290412        7.6396651319        7.3659850173  LPSA15    1               0.0000000000
     15784       505  ECLIPA    C312           35.4105127201        9.1642118957        6.2955535749  LPSA15    1               0.0000000000
     15785       505  ECLIPA    H312R          34.8267005196       10.0890629711        6.4812374982  LPSA15    1               0.0000000000
     15786       505  ECLIPA    H312S          36.4823152850        9.4379957316        6.1788930818  LPSA15    1               0.0000000000
     15787       505  ECLIPA    C313           34.9211957397        8.4904403779        5.0027598897  LPSA15    1               0.0000000000
     15788       505  ECLIPA    H313R          35.6878995241        7.7258080745        4.7478098365  LPSA15    1               0.0000000000
     15789       505  ECLIPA    H313S          33.9564264299        7.9579814750        5.1741329246  LPSA15    1               0.0000000000
     15790       505  ECLIPA    C314           34.7561165542        9.4447161900        3.8164258931  LPSA15    1               0.0000000000
     15791       505  ECLIPA    H314R          35.7263660824        9.9361593195        3.5961105311  LPSA15    1               0.0000000000
     15792       505  ECLIPA    H314S          34.4224488098        8.9036755189        2.9030219724  LPSA15    1               0.0000000000
     15793       505  ECLIPA    H314T          34.0042434522       10.2309305786        4.0453143055  LPSA15    1               0.0000000000
     15794       505  ECLIPA    C11            27.6253184769        4.8749660614       11.2610019886  LPSA15    1               0.0000000000
     15795       505  ECLIPA    O11            27.7878462410        6.0600017248       11.0724539766  LPSA15    1               0.0000000000
     15796       505  ECLIPA    C12            26.7035901940        4.1478021568       10.2900738083  LPSA15    1               0.0000000000
     15797       505  ECLIPA    H12R           25.6359005355        4.2325444235       10.5433584287  LPSA15    1               0.0000000000
     15798       505  ECLIPA    H12S           26.5995525267        3.0908554319       10.4395342716  LPSA15    1               0.0000000000
     15799       505  ECLIPA    C13            27.1239042397        4.5173189604        8.8353693833  LPSA15    1               0.0000000000
     15800       505  ECLIPA    H13R           27.1237027251        5.5738123950        8.5925137036  LPSA15    1               0.0000000000
     15801       505  ECLIPA    O13            25.9978361591        3.9085407740        8.1366290270  LPSA15    1               0.0000000000
     15802       505  ECLIPA    HO13           25.8053553661        4.0894665583        7.2133185422  LPSA15    1               0.0000000000
     15803       505  ECLIPA    C14            28.6609892808        4.0055199318        8.4218887448  LPSA15    1               0.0000000000
     15804       505  ECLIPA    H14R           29.0781116962        3.0487477351        8.6496300746  LPSA15    1               0.0000000000
     15805       505  ECLIPA    H14S           29.4186575571        4.4646444392        8.9999360568  LPSA15    1               0.0000000000
     15806       505  ECLIPA    C15            29.0816145200        3.7176730174        6.9887150922  LPSA15    1               0.0000000000
     15807       505  ECLIPA    H15R           28.0660291703        3.4914684986        7.2039317997  LPSA15    1               0.0000000000
     15808       505  ECLIPA    H15S           29.5612672417        2.7965910963        6.5489024722  LPSA15    1               0.0000000000
     15809       505  ECLIPA    C16            28.9131233106        4.7946515778        6.0519963097  LPSA15    1               0.0000000000
     15810       505  ECLIPA    H16R           29.9836250533        5.0432435881        6.1417598756  LPSA15    1               0.0000000000
     15811       505  ECLIPA    H16S           28.1744039413        5.4070049274        6.6022682083  LPSA15    1               0.0000000000
     15812       505  ECLIPA    C17            28.4076030067        4.4418958840        4.6700951137  LPSA15    1               0.0000000000
     15813       505  ECLIPA    H17R           28.9078184989        3.5132628437        4.3424420456  LPSA15    1               0.0000000000
     15814       505  ECLIPA    H17S           28.8991569156        5.1521381286        3.9951644897  LPSA15    1               0.0000000000
     15815       505  ECLIPA    C18            26.8525843376        4.5101509217        4.4814236311  LPSA15    1               0.0000000000
     15816       505  ECLIPA    H18R           26.1971388318        3.7447402602        4.9280884317  LPSA15    1               0.0000000000
     15817       505  ECLIPA    H18S           26.3889124085        5.4230168386        4.8709908548  LPSA15    1               0.0000000000
     15818       505  ECLIPA    C19            26.4842609844        4.2584895281        3.0576887031  LPSA15    1               0.0000000000
     15819       505  ECLIPA    H19R           25.4303555980        3.8794135722        3.0108909507  LPSA15    1               0.0000000000
     15820       505  ECLIPA    H19S           27.0710568350        3.4700923589        2.5110795751  LPSA15    1               0.0000000000
     15821       505  ECLIPA    C110           27.0507766177        5.3842158254        2.3064585011  LPSA15    1               0.0000000000
     15822       505  ECLIPA    H110R          26.5226617448        6.2869378777        2.6146917262  LPSA15    1               0.0000000000
     15823       505  ECLIPA    H110S          28.1521271413        5.3079611694        2.3246340416  LPSA15    1               0.0000000000
     15824       505  ECLIPA    C111           26.9274350071        5.1000961601        0.9098122094  LPSA15    1               0.0000000000
     15825       505  ECLIPA    H111R          27.3822018811        4.0847532790        0.6884967338  LPSA15    1               0.0000000000
     15826       505  ECLIPA    H111S          25.8383498984        5.3044609668        0.9660287739  LPSA15    1               0.0000000000
     15827       505  ECLIPA    C112           26.9911878593        5.9766456042       -0.2563607312  LPSA15    1               0.0000000000
     15828       505  ECLIPA    H112R          27.2123799951        6.9154632490        0.1065234891  LPSA15    1               0.0000000000
     15829       505  ECLIPA    H112S          27.7884831262        5.3813677190       -0.3869410979  LPSA15    1               0.0000000000
     15830       505  ECLIPA    C113           26.8316203196        5.7497556107       -1.7958558670  LPSA15    1               0.0000000000
     15831       505  ECLIPA    H113R          27.5208962651        4.9609404192       -1.9670694219  LPSA15    1               0.0000000000
     15832       505  ECLIPA    H113S          25.7808834453        5.5889836010       -2.0435967741  LPSA15    1               0.0000000000
     15833       505  ECLIPA    C114           27.5150486774        5.9462729336       -3.0285368484  LPSA15    1               0.0000000000
     15834       505  ECLIPA    H114R          26.6567030511        6.1988426358       -3.5971208008  LPSA15    1               0.0000000000
     15835       505  ECLIPA    H114S          27.9025837301        6.8797231222       -3.1144321528  LPSA15    1               0.0000000000
     15836       505  ECLIPA    H114T          28.0976391428        4.9161553423       -3.5098629396  LPSA15    1               0.0000000000
     15837       506  AKDO      C1             32.3020849475        8.5776377323       22.4260697903  LPSA15    2               0.0000000000
     15838       506  AKDO      O11            32.8183690299        9.7243382944       22.4297202868  LPSA15    2               0.0000000000
     15839       506  AKDO      O12            32.8524716760        7.4941258872       22.0742682898  LPSA15    2               0.0000000000
     15840       506  AKDO      C2             30.8100050522        8.4857337700       22.8692532038  LPSA15    2               0.0000000000
     15841       506  AKDO      C6             29.0059884514        9.7350310971       23.8626649525  LPSA15    2               0.0000000000
     15842       506  AKDO      H6             28.4284502718        9.4326970168       22.9533601108  LPSA15    2               0.0000000000
     15843       506  AKDO      O6             30.3809686747        9.7370207572       23.4621195674  LPSA15    2               0.0000000000
     15844       506  AKDO      C3             30.5662862495        7.4076123896       23.9188376089  LPSA15    2               0.0000000000
     15845       506  AKDO      H31            31.2571094811        7.5555547165       24.7788175706  LPSA15    2               0.0000000000
     15846       506  AKDO      H32            30.7945538766        6.4255862743       23.4481569646  LPSA15    2               0.0000000000
     15847       506  AKDO      C4             29.1408901414        7.3783193849       24.3609429790  LPSA15    2               0.0000000000
     15848       506  AKDO      H4             28.4812728285        7.2235188100       23.4790130286  LPSA15    2               0.0000000000
     15849       506  AKDO      O4             28.9182234880        6.3936151729       25.3579433679  LPSA15    2               0.0000000000
     15850       506  AKDO      C5             28.7332919626        8.6954964278       24.9606887813  LPSA15    2               0.0000000000
     15851       506  AKDO      H5             27.6211463278        8.6642822021       25.0854803590  LPSA15    2               0.0000000000
     15852       506  AKDO      O5             29.4085025811        8.8420236182       26.2520831754  LPSA15    2               0.0000000000
     15853       506  AKDO      C7             28.5328442252       11.1416275163       24.1638236297  LPSA15    2               0.0000000000
     15854       506  AKDO      H7             29.0428689254       11.5066579568       25.0800103920  LPSA15    2               0.0000000000
     15855       506  AKDO      O7             27.1074772693       11.1121025251       24.3509307076  LPSA15    2               0.0000000000
     15856       506  AKDO      HO7            26.7099375680       11.3132678090       23.5158495441  LPSA15    2               0.0000000000
     15857       506  AKDO      C8             28.8815998303       12.0788670967       23.0272304168  LPSA15    2               0.0000000000
     15858       506  AKDO      H81            29.9841604277       12.0336003099       22.8572841140  LPSA15    2               0.0000000000
     15859       506  AKDO      H82            28.3850136609       11.7331049776       22.0960108036  LPSA15    2               0.0000000000
     15860       506  AKDO      O8             28.4950231155       13.4322331414       23.3208730529  LPSA15    2               0.0000000000
     15861       506  AKDO      HO8            29.1792273685       13.9898908891       22.9097734631  LPSA15    2               0.0000000000
     15862       507  AKDO      C1             27.7711847174        4.8879679804       23.7995888077  LPSA15    3               1.0000000000
     15863       507  AKDO      O11            28.2846095500        4.7964993089       22.6534107118  LPSA15    3               1.0000000000
     15864       507  AKDO      O12            26.5676774003        5.1444154194       24.0831841257  LPSA15    3               1.0000000000
     15865       507  AKDO      C2             28.7378490067        5.0496759057       25.0088699870  LPSA15    3               1.0000000000
     15866       507  AKDO      C6             30.9719044257        4.7086771305       25.7667260029  LPSA15    3               1.0000000000
     15867       507  AKDO      H6             31.2340702376        5.7725955887       25.8657935299  LPSA15    3               1.0000000000
     15868       507  AKDO      O6             29.9854091211        4.3737130529       24.7628935250  LPSA15    3               1.0000000000
     15869       507  AKDO      C3             28.2243975802        4.5764703024       26.3893718824  LPSA15    3               1.0000000000
     15870       507  AKDO      H31            28.0024799113        3.5581134568       26.4321267281  LPSA15    3               1.0000000000
     15871       507  AKDO      H32            27.2171091149        4.9751156065       26.5979957419  LPSA15    3               1.0000000000
     15872       507  AKDO      C4             29.2053313865        4.9078796850       27.4604212905  LPSA15    3               1.0000000000
     15873       507  AKDO      H4             29.4283991304        5.9641582303       27.5541681689  LPSA15    3               1.0000000000
     15874       507  AKDO      O4             28.7520079626        4.3250929630       28.6850924085  LPSA15    3               1.0000000000
     15875       507  AKDO      HO4            28.7923854169        4.9631022148       29.4026695518  LPSA15    3               1.0000000000
     15876       507  AKDO      C5             30.4845656670        4.3228464551       27.1039953513  LPSA15    3               1.0000000000
     15877       507  AKDO      H5             31.1725314893        4.2897930336       27.9511822319  LPSA15    3               1.0000000000
     15878       507  AKDO      O5             30.5188926223        3.0724087311       27.0909739506  LPSA15    3               1.0000000000
     15879       507  AKDO      HO5            30.0400039154        2.8481507293       26.2560723987  LPSA15    3               1.0000000000
     15880       507  AKDO      C7             32.1689915046        3.9195797618       25.3544664323  LPSA15    3               1.0000000000
     15881       507  AKDO      H7             32.0171551593        2.8169975334       25.1400961451  LPSA15    3               1.0000000000
     15882       507  AKDO      O7             32.9988144474        4.0590148167       26.5010581966  LPSA15    3               1.0000000000
     15883       507  AKDO      HO7            33.6502827538        3.3773691115       26.3317072073  LPSA15    3               1.0000000000
     15884       507  AKDO      C8             32.6211122104        4.6095181591       24.0910387413  LPSA15    3               1.0000000000
     15885       507  AKDO      H81            31.8015491071        4.6061212482       23.3577856614  LPSA15    3               1.0000000000
     15886       507  AKDO      H82            32.9711586475        5.6322286595       24.3219592094  LPSA15    3               1.0000000000
     15887       507  AKDO      O8             33.6003976536        4.0266911686       23.3039604259  LPSA15    3               1.0000000000
     15888       507  AKDO      HO8            33.3991698617        3.0897512866       23.1680907358  LPSA15    3               1.0000000000
     15889       508  AHEP      C1             28.7183969461        9.5737024977       27.2516049649  LPSA15    4               2.0000000000
     15890       508  AHEP      H1             28.8174535698       10.6243254334       26.9094428432  LPSA15    4               2.0000000000
     15891       508  AHEP      C5             26.9435712391        8.1093630803       27.9980090412  LPSA15    4               2.0000000000
     15892       508  AHEP      H5             27.5220540017        7.2881119758       27.5133571661  LPSA15    4               2.0000000000
     15893       508  AHEP      O5             27.3091148265        9.3282650770       27.3129594792  LPSA15    4               2.0000000000
     15894       508  AHEP      C2             29.2375059754        9.6105729952       28.7079030356  LPSA15    4               2.0000000000
     15895       508  AHEP      H2             30.3394316098        9.7262217147       28.6762348968  LPSA15    4               2.0000000000
     15896       508  AHEP      O2             28.7490409426       10.7740405077       29.3740007224  LPSA15    4               2.0000000000
     15897       508  AHEP      HO2            29.4095424452       11.1584388494       29.9403430846  LPSA15    4               2.0000000000
     15898       508  AHEP      C3             28.9235889790        8.3488084458       29.4960209627  LPSA15    4               2.0000000000
     15899       508  AHEP      H3             29.4543598423        7.4604257944       29.0945292271  LPSA15    4               2.0000000000
     15900       508  AHEP      O3             29.2999183734        8.5431449444       30.8784143819  LPSA15    4               2.0000000000
     15901       508  AHEP      C4             27.4192071552        8.1555513668       29.4559327470  LPSA15    4               2.0000000000
     15902       508  AHEP      H4             26.8725370681        8.9779839897       29.9753692462  LPSA15    4               2.0000000000
     15903       508  AHEP      O4             27.1767712039        6.8821751989       30.0456048387  LPSA15    4               2.0000000000
     15904       508  AHEP      P4             26.3614149221        6.7207402482       31.4762777414  LPSA15    4               2.0000000000
     15905       508  AHEP      OP42           27.0357382116        5.5077691446       32.1241013361  LPSA15    4               2.0000000000
     15906       508  AHEP      OP43           24.9129916045        6.5759304714       30.9909271482  LPSA15    4               2.0000000000
     15907       508  AHEP      OP44           26.6183925801        7.9901291081       32.2710517780  LPSA15    4               2.0000000000
     15908       508  AHEP      C6             25.4189532593        7.8578261231       27.8003840325  LPSA15    4               2.0000000000
     15909       508  AHEP      H6             25.2661129446        6.7859413536       28.0871842929  LPSA15    4               2.0000000000
     15910       508  AHEP      O6             24.5353685777        8.6464047465       28.6410825005  LPSA15    4               2.0000000000
     15911       508  AHEP      HO6            24.1225073775        8.0282803797       29.2630226085  LPSA15    4               2.0000000000
     15912       508  AHEP      C7             24.9367461123        8.0262391380       26.3422398195  LPSA15    4               2.0000000000
     15913       508  AHEP      H71            23.9341517253        7.5672415273       26.1967822756  LPSA15    4               2.0000000000
     15914       508  AHEP      H72            25.6498073917        7.5170914796       25.6561266622  LPSA15    4               2.0000000000
     15915       508  AHEP      O7             24.8044235876        9.3846795864       25.8923150267  LPSA15    4               2.0000000000
     15916       508  AHEP      HO7            24.0561938115        9.7282855080       26.4004936507  LPSA15    4               2.0000000000
     15917       509  AHEP      C1             30.2235510486        7.6549788129       31.4530020238  LPSA15    5               3.0000000000
     15918       509  AHEP      H1             30.1539622346        6.6480201396       30.9736238320  LPSA15    5               3.0000000000
     15919       509  AHEP      C5             31.7321481986        9.4407947265       31.9607468893  LPSA15    5               3.0000000000
     15920       509  AHEP      H5             30.9244461743       10.1217197763       31.6009932903  LPSA15    5               3.0000000000
     15921       509  AHEP      O5             31.5594626800        8.1687415225       31.2879466393  LPSA15    5               3.0000000000
     15922       509  AHEP      C2             29.9627356494        7.4751733584       32.9540225862  LPSA15    5               3.0000000000
     15923       509  AHEP      H2             28.9057552463        7.1410289901       33.0835307710  LPSA15    5               3.0000000000
     15924       509  AHEP      O2             30.7955445759        6.4153141575       33.4526757328  LPSA15    5               3.0000000000
     15925       509  AHEP      HO2            30.1914134674        5.7128537194       33.6525722695  LPSA15    5               3.0000000000
     15926       509  AHEP      C3             30.1241920411        8.7903062143       33.7274354531  LPSA15    5               3.0000000000
     15927       509  AHEP      H3             29.3891545685        9.5226853499       33.3136530748  LPSA15    5               3.0000000000
     15928       509  AHEP      O3             29.9454855174        8.6947036259       35.1611917385  LPSA15    5               3.0000000000
     15929       509  AHEP      C4             31.5282318581        9.2857784042       33.4628953467  LPSA15    5               3.0000000000
     15930       509  AHEP      H4             32.2737356786        8.5507130526       33.8456968855  LPSA15    5               3.0000000000
     15931       509  AHEP      O4             31.6839041735       10.5740210560       34.0575073469  LPSA15    5               3.0000000000
     15932       509  AHEP      P4             32.7845880992       10.7883571672       35.3050496514  LPSA15    5               3.0000000000
     15933       509  AHEP      OP42           32.4062340396       12.1297730925       35.8961938202  LPSA15    5               3.0000000000
     15934       509  AHEP      OP43           34.1755598840       10.7370053151       34.6732735206  LPSA15    5               3.0000000000
     15935       509  AHEP      OP44           32.5847826030        9.6404047542       36.2957472945  LPSA15    5               3.0000000000
     15936       509  AHEP      C6             33.0772688456       10.0800235027       31.5799776497  LPSA15    5               3.0000000000
     15937       509  AHEP      H6             33.1309703711       11.0927711103       32.0538034849  LPSA15    5               3.0000000000
     15938       509  AHEP      O6             34.1898923328        9.2817876390       32.0448943857  LPSA15    5               3.0000000000
     15939       509  AHEP      HO6            34.3053207741        8.5265396908       31.4923073937  LPSA15    5               3.0000000000
     15940       509  AHEP      C7             33.1511666532       10.3248940345       30.0814092854  LPSA15    5               3.0000000000
     15941       509  AHEP      H71            33.7049300922       11.2797260156       29.9196386819  LPSA15    5               3.0000000000
     15942       509  AHEP      H72            32.1484192327       10.4726682532       29.6234929741  LPSA15    5               3.0000000000
     15943       509  AHEP      O7             33.9093012374        9.3005246739       29.4448263882  LPSA15    5               3.0000000000
     15944       510  AHEP      C1             33.0915442572        8.3710777620       28.7984613817  LPSA15    6               4.0000000000
     15945       510  AHEP      H1             32.0233261046        8.4715533197       29.0456865931  LPSA15    6               4.0000000000
     15946       510  AHEP      C5             34.4976215852        8.4264094147       26.9384318637  LPSA15    6               4.0000000000
     15947       510  AHEP      H5             35.1489506468        9.1547489151       27.5108942564  LPSA15    6               4.0000000000
     15948       510  AHEP      O5             33.1665485365        8.5724843793       27.3958469681  LPSA15    6               4.0000000000
     15949       510  AHEP      C2             33.5213441972        7.0131268228       29.2417325600  LPSA15    6               4.0000000000
     15950       510  AHEP      H2             33.4252679003        6.9439885899       30.3445098326  LPSA15    6               4.0000000000
     15951       510  AHEP      O2             32.6456790768        6.0126255742       28.7352976297  LPSA15    6               4.0000000000
     15952       510  AHEP      HO2            32.1584474222        5.5921486918       29.4505900121  LPSA15    6               4.0000000000
     15953       510  AHEP      C3             34.9440492435        6.8143063020       28.8625549306  LPSA15    6               4.0000000000
     15954       510  AHEP      H3             35.6329754086        7.5191081343       29.3792074567  LPSA15    6               4.0000000000
     15955       510  AHEP      O3             35.2353215487        5.5089549625       29.3295552031  LPSA15    6               4.0000000000
     15956       510  AHEP      HO3            35.9816310580        5.4099635580       29.9304244643  LPSA15    6               4.0000000000
     15957       510  AHEP      C4             34.9119104102        7.0541508542       27.3433994022  LPSA15    6               4.0000000000
     15958       510  AHEP      H4             34.4621945568        6.1911299286       26.8089633753  LPSA15    6               4.0000000000
     15959       510  AHEP      O4             36.0491069230        7.2178464146       26.6715679660  LPSA15    6               4.0000000000
     15960       510  AHEP      HO4            36.8073524153        7.6658016600       27.0882412705  LPSA15    6               4.0000000000
     15961       510  AHEP      C6             34.7587891056        8.7909511268       25.4400131275  LPSA15    6               4.0000000000
     15962       510  AHEP      H6             35.8587078735        8.8815704072       25.2008346699  LPSA15    6               4.0000000000
     15963       510  AHEP      O6             34.2898586710        7.7613439269       24.5645849242  LPSA15    6               4.0000000000
     15964       510  AHEP      HO6            33.6533238481        8.1370071118       23.9370558747  LPSA15    6               4.0000000000
     15965       510  AHEP      C7             34.3697114272       10.1952577481       25.1381345520  LPSA15    6               4.0000000000
     15966       510  AHEP      H71            34.7194757485       10.4512609834       24.1102566088  LPSA15    6               4.0000000000
     15967       510  AHEP      H72            34.8850087211       10.8290928699       25.8887824263  LPSA15    6               4.0000000000
     15968       510  AHEP      O7             32.9881883334       10.4408464924       25.2822639343  LPSA15    6               4.0000000000
     15969       510  AHEP      HO7            32.7949359551       10.4701977721       26.2112025185  LPSA15    6               4.0000000000
     15970       511  AGLC      C1             28.6553493041        8.9618201906       35.6556785586  LPSA15    7               4.0000000000
     15971       511  AGLC      H1             28.1989787212        9.8519433070       35.1619075083  LPSA15    7               4.0000000000
     15972       511  AGLC      C5             28.2653119282        6.6394026313       36.1009625559  LPSA15    7               4.0000000000
     15973       511  AGLC      H5             29.3197417247        6.4257176405       35.8259031572  LPSA15    7               4.0000000000
     15974       511  AGLC      O5             27.8259060604        7.8321137792       35.4305102491  LPSA15    7               4.0000000000
     15975       511  AGLC      C2             28.5806549582        9.2034177487       37.1697978179  LPSA15    7               4.0000000000
     15976       511  AGLC      H2             27.4980516768        9.2373694306       37.4231774396  LPSA15    7               4.0000000000
     15977       511  AGLC      O2             29.0868835685       10.4695620741       37.5924168806  LPSA15    7               4.0000000000
     15978       511  AGLC      HO2            30.0640437034       10.4241596591       37.5391701001  LPSA15    7               4.0000000000
     15979       511  AGLC      C3             29.1171848431        8.0463978049       37.9746640899  LPSA15    7               4.0000000000
     15980       511  AGLC      H3             30.1504592298        7.8334760104       37.6121695600  LPSA15    7               4.0000000000
     15981       511  AGLC      O3             29.1764286508        8.3431030475       39.3998437881  LPSA15    7               4.0000000000
     15982       511  AGLC      C4             28.2276897288        6.8590051349       37.6160060348  LPSA15    7               4.0000000000
     15983       511  AGLC      H4             27.1736671555        7.0748016875       37.9248888478  LPSA15    7               4.0000000000
     15984       511  AGLC      O4             28.6979092760        5.6969624268       38.2887475261  LPSA15    7               4.0000000000
     15985       511  AGLC      HO4            27.9720194138        5.1541852082       38.6276295310  LPSA15    7               4.0000000000
     15986       511  AGLC      C6             27.4363678022        5.5050562025       35.5244553870  LPSA15    7               4.0000000000
     15987       511  AGLC      H61            27.5858083545        5.4746613340       34.4174003024  LPSA15    7               4.0000000000
     15988       511  AGLC      H62            27.7394223840        4.4998955654       35.9036192195  LPSA15    7               4.0000000000
     15989       511  AGLC      O6             26.0560287390        5.7225973557       35.8138449072  LPSA15    7               4.0000000000
     15990       511  AGLC      HO6            25.7811345705        5.0251389033       36.4052000540  LPSA15    7               4.0000000000
     15991       512  AGLC      C1             30.4997626531        8.2555607977       39.9137792936  LPSA15    8               5.0000000000
     15992       512  AGLC      H1             31.0103233028        7.3612126858       39.4980216215  LPSA15    8               5.0000000000
     15993       512  AGLC      C5             30.9029608067       10.6579859454       40.2108383094  LPSA15    8               5.0000000000
     15994       512  AGLC      H5             29.8566131847       10.8418906675       39.8837451907  LPSA15    8               5.0000000000
     15995       512  AGLC      O5             31.3251613842        9.4071010986       39.6039165235  LPSA15    8               5.0000000000
     15996       512  AGLC      C2             30.5320413972        8.0918787462       41.4264590986  LPSA15    8               5.0000000000
     15997       512  AGLC      H2             31.5978531859        7.9539031237       41.6982807139  LPSA15    8               5.0000000000
     15998       512  AGLC      O2             29.8456621009        6.9501648568       41.9355622277  LPSA15    8               5.0000000000
     15999       512  AGLC      C3             30.0220405613        9.3192980612       42.1210463076  LPSA15    8               5.0000000000
     16000       512  AGLC      H3             28.9849886826        9.4883839536       41.7217207226  LPSA15    8               5.0000000000
     16001       512  AGLC      O3             29.9303150034        9.0429019764       43.5361896218  LPSA15    8               5.0000000000
     16002       512  AGLC      C4             30.9151984310       10.4744955848       41.7256158361  LPSA15    8               5.0000000000
     16003       512  AGLC      H4             31.9584870416       10.2207192300       42.0291028872  LPSA15    8               5.0000000000
     16004       512  AGLC      O4             30.5428927641       11.6743055006       42.3905268061  LPSA15    8               5.0000000000
     16005       512  AGLC      HO4            29.5826579829       11.7112094620       42.4347972633  LPSA15    8               5.0000000000
     16006       512  AGLC      C6             31.6759146532       11.9126784499       39.7352599665  LPSA15    8               5.0000000000
     16007       512  AGLC      H61            31.7943821749       11.9313065883       38.6242442442  LPSA15    8               5.0000000000
     16008       512  AGLC      H62            31.1261562380       12.8375749105       40.0089746360  LPSA15    8               5.0000000000
     16009       512  AGLC      O6             32.9549900701       12.0695687411       40.3385965233  LPSA15    8               5.0000000000
     16010       512  AGLC      HO6            32.9018324213       12.4750291552       41.2027589802  LPSA15    8               5.0000000000
     16011       513  AGAL      C1             30.2045934137        5.7042205884       41.4041194205  LPSA15    9               6.0000000000
     16012       513  AGAL      H1             30.2155705346        5.7086644817       40.3006375791  LPSA15    9               6.0000000000
     16013       513  AGAL      C5             31.5027375739        5.0446053722       43.2725592997  LPSA15    9               6.0000000000
     16014       513  AGAL      H5             31.1335318161        5.9813625555       43.7461110846  LPSA15    9               6.0000000000
     16015       513  AGAL      O5             31.4882247874        5.2415732773       41.8480670369  LPSA15    9               6.0000000000
     16016       513  AGAL      C2             29.1168792833        4.7535852290       41.8157773785  LPSA15    9               6.0000000000
     16017       513  AGAL      H2             29.3716477682        3.7619827207       41.3721192841  LPSA15    9               6.0000000000
     16018       513  AGAL      O2             27.8601131776        5.1645101771       41.2077853345  LPSA15    9               6.0000000000
     16019       513  AGAL      C3             29.2229697174        4.6148212845       43.3138818495  LPSA15    9               6.0000000000
     16020       513  AGAL      H3             29.0473793336        5.5730341013       43.8265535630  LPSA15    9               6.0000000000
     16021       513  AGAL      O3             28.1782710092        4.0644472249       43.9200926955  LPSA15    9               6.0000000000
     16022       513  AGAL      HO3            27.6093353217        3.8821750337       43.1584888097  LPSA15    9               6.0000000000
     16023       513  AGAL      C4             30.5170443323        3.9982112885       43.7219320903  LPSA15    9               6.0000000000
     16024       513  AGAL      H4             30.5801337395        3.8247276777       44.8148482128  LPSA15    9               6.0000000000
     16025       513  AGAL      O4             30.7010886888        2.7177553813       43.1115034751  LPSA15    9               6.0000000000
     16026       513  AGAL      HO4            31.4027723785        2.2526616552       43.5949703989  LPSA15    9               6.0000000000
     16027       513  AGAL      C6             32.8520980135        4.8302141024       43.8373332200  LPSA15    9               6.0000000000
     16028       513  AGAL      H61            33.5140976761        5.6932640108       43.5922588978  LPSA15    9               6.0000000000
     16029       513  AGAL      H62            32.8578315795        4.7522509093       44.9483868353  LPSA15    9               6.0000000000
     16030       513  AGAL      O6             33.3252355759        3.6077377903       43.3022632235  LPSA15    9               6.0000000000
     16031       513  AGAL      HO6            34.1023900886        3.8041865759       42.7453292066  LPSA15    9               6.0000000000
     16032       514  AGAL      C1             26.5424405756        5.0954300705       41.7520163045  LPSA15    10              7.0000000000
     16033       514  AGAL      H1             26.2291051600        4.0271109192       41.8197801662  LPSA15    10              7.0000000000
     16034       514  AGAL      C5             26.6346481073        7.1436097422       43.0476875391  LPSA15    10              7.0000000000
     16035       514  AGAL      H5             27.6684612201        7.2404380919       42.6448289909  LPSA15    10              7.0000000000
     16036       514  AGAL      O5             26.3623116716        5.7241664137       43.0521762324  LPSA15    10              7.0000000000
     16037       514  AGAL      C2             25.6135158595        5.7854459655       40.7615239720  LPSA15    10              7.0000000000
     16038       514  AGAL      H2             24.5749672402        5.6429382588       41.1245831260  LPSA15    10              7.0000000000
     16039       514  AGAL      O2             25.6135272641        5.1651700996       39.4833542085  LPSA15    10              7.0000000000
     16040       514  AGAL      HO2            24.6944081911        4.9590086991       39.2495456330  LPSA15    10              7.0000000000
     16041       514  AGAL      C3             25.9369352966        7.2788685838       40.6981376118  LPSA15    10              7.0000000000
     16042       514  AGAL      H3             27.0210457641        7.3748742980       40.4443826467  LPSA15    10              7.0000000000
     16043       514  AGAL      O3             25.1996512632        8.0039520150       39.7038140813  LPSA15    10              7.0000000000
     16044       514  AGAL      HO3            25.8069602842        8.2378647979       38.9963068918  LPSA15    10              7.0000000000
     16045       514  AGAL      C4             25.7306136923        7.8662142640       42.0696294629  LPSA15    10              7.0000000000
     16046       514  AGAL      H4             26.0048275255        8.9468606403       42.0788015245  LPSA15    10              7.0000000000
     16047       514  AGAL      O4             24.3694501569        7.7454368458       42.4377552092  LPSA15    10              7.0000000000
     16048       514  AGAL      HO4            24.2101555018        6.8228154728       42.6166293922  LPSA15    10              7.0000000000
     16049       514  AGAL      C6             26.7144806249        7.8122326071       44.4347766136  LPSA15    10              7.0000000000
     16050       514  AGAL      H61            27.3580984496        7.2074651914       45.1000998145  LPSA15    10              7.0000000000
     16051       514  AGAL      H62            27.2181226079        8.7956719269       44.2732181900  LPSA15    10              7.0000000000
     16052       514  AGAL      O6             25.4832456914        8.0653123236       45.1329577288  LPSA15    10              7.0000000000
     16053       514  AGAL      HO6            25.4040614497        7.5392411922       45.9351583506  LPSA15    10              7.0000000000
     16054       515  BGLC      C1             30.9451775510        9.3771038207       44.4800110472  LPSA15    11              6.0000000000
     16055       515  BGLC      H1             30.9393378880       10.4778196418       44.6195825761  LPSA15    11              6.0000000000
     16056       515  BGLC      C5             33.2971329039        9.1009687945       45.1156994516  LPSA15    11              6.0000000000
     16057       515  BGLC      H5             33.4284876171       10.1790613966       45.3534485163  LPSA15    11              6.0000000000
     16058       515  BGLC      O5             32.2531766760        8.8581383171       44.1221033668  LPSA15    11              6.0000000000
     16059       515  BGLC      C2             30.5103499307        8.7072324787       45.7830904578  LPSA15    11              6.0000000000
     16060       515  BGLC      H2             30.4232320562        7.6029787992       45.6435026947  LPSA15    11              6.0000000000
     16061       515  BGLC      O2             29.2197929604        9.1850045943       46.1645508351  LPSA15    11              6.0000000000
     16062       515  BGLC      HO2            28.6532428633        8.4240930855       46.3131903517  LPSA15    11              6.0000000000
     16063       515  BGLC      C3             31.5067244241        8.9156104580       46.9032140297  LPSA15    11              6.0000000000
     16064       515  BGLC      H3             31.5541404003        9.9863922174       47.1852868517  LPSA15    11              6.0000000000
     16065       515  BGLC      O3             31.1108745389        8.1270308678       48.0444729282  LPSA15    11              6.0000000000
     16066       515  BGLC      C4             32.8532109934        8.3872209872       46.4154321663  LPSA15    11              6.0000000000
     16067       515  BGLC      H4             32.7288597054        7.3055703643       46.1804955983  LPSA15    11              6.0000000000
     16068       515  BGLC      O4             33.8383617482        8.4574086579       47.4355812241  LPSA15    11              6.0000000000
     16069       515  BGLC      HO4            33.6128128406        7.8441565193       48.1557102650  LPSA15    11              6.0000000000
     16070       515  BGLC      C6             34.6467288768        8.6619661501       44.5175311531  LPSA15    11              6.0000000000
     16071       515  BGLC      H61            35.4164942982        8.4894166100       45.2972465016  LPSA15    11              6.0000000000
     16072       515  BGLC      H62            34.4985488145        7.7327260601       43.9400059614  LPSA15    11              6.0000000000
     16073       515  BGLC      O6             35.2281625544        9.5902835489       43.6043919374  LPSA15    11              6.0000000000
     16074       515  BGLC      HO6            35.9705712331       10.0622266086       44.0107074542  LPSA15    11              6.0000000000
     16075       516  BGLCNA    C1             30.9620035189        8.7470047520       49.3139172939  LPSA15    12              7.0000000000
     16076       516  BGLCNA    H1             29.9563813488        9.2139493858       49.3736804882  LPSA15    12              7.0000000000
     16077       516  BGLCNA    C5             31.7797003735       10.3411533868       50.8792457690  LPSA15    12              7.0000000000
     16078       516  BGLCNA    H5             30.7747527155       10.8190097951       50.9632319752  LPSA15    12              7.0000000000
     16079       516  BGLCNA    O5             31.9296629787        9.7541578653       49.5726024542  LPSA15    12              7.0000000000
     16080       516  BGLCNA    C2             31.0966632571        7.6424363253       50.3536565927  LPSA15    12              7.0000000000
     16081       516  BGLCNA    H2             32.1648289438        7.2914915572       50.3040211471  LPSA15    12              7.0000000000
     16082       516  BGLCNA    N              30.1624790703        6.5883849588       50.0562642265  LPSA15    12              7.0000000000
     16083       516  BGLCNA    HN             29.2154847833        6.8676167645       49.9678306420  LPSA15    12              7.0000000000
     16084       516  BGLCNA    C              30.5571382400        5.3159274505       49.9181692396  LPSA15    12              7.0000000000
     16085       516  BGLCNA    O              31.7169380670        4.9766393371       50.0778811681  LPSA15    12              7.0000000000
     16086       516  BGLCNA    CT             29.5043362715        4.3112640225       49.5696017612  LPSA15    12              7.0000000000
     16087       516  BGLCNA    HT1            29.3014402844        3.6290149670       50.4152424536  LPSA15    12              7.0000000000
     16088       516  BGLCNA    HT2            29.8289793306        3.6655358748       48.7317018951  LPSA15    12              7.0000000000
     16089       516  BGLCNA    HT3            28.5914493693        4.8628072307       49.2834666532  LPSA15    12              7.0000000000
     16090       516  BGLCNA    C3             30.8815567305        8.1601991366       51.7608528917  LPSA15    12              7.0000000000
     16091       516  BGLCNA    H3             29.8534582765        8.5873417432       51.8016275634  LPSA15    12              7.0000000000
     16092       516  BGLCNA    O3             30.9418456319        7.0951095004       52.7594533927  LPSA15    12              7.0000000000
     16093       516  BGLCNA    C4             31.9172032775        9.2560793213       51.9582675577  LPSA15    12              7.0000000000
     16094       516  BGLCNA    H4             32.9501315956        8.8340572914       51.8927791792  LPSA15    12              7.0000000000
     16095       516  BGLCNA    O4             31.7889913030        9.8223462674       53.2479948704  LPSA15    12              7.0000000000
     16096       516  BGLCNA    HO4            31.0123398671       10.3827918044       53.2849721812  LPSA15    12              7.0000000000
     16097       516  BGLCNA    C6             32.8153773938       11.4456017437       50.9436475194  LPSA15    12              7.0000000000
     16098       516  BGLCNA    H61            32.7877686565       11.9731848930       51.9220625935  LPSA15    12              7.0000000000
     16099       516  BGLCNA    H62            33.8281870143       10.9956682333       50.8279051403  LPSA15    12              7.0000000000
     16100       516  BGLCNA    O6             32.6285451099       12.4102072097       49.9040093573  LPSA15    12              7.0000000000
     16101       516  BGLCNA    HO6            32.0081083199       13.0852702969       50.1822597672  LPSA15    12              7.0000000000
     16102       517  AGAL      C1             30.0155192998        7.1991771406       53.8371258952  LPSA15    13              8.0000000000
     16103       517  AGAL      H1             29.9407509668        8.2692377070       54.1445581270  LPSA15    13              8.0000000000
     16104       517  AGAL      C5             28.7708852473        5.2111568160       53.2656627576  LPSA15    13              8.0000000000
     16105       517  AGAL      H5             29.6025490132        5.0547074406       52.5365359224  LPSA15    13              8.0000000000
     16106       517  AGAL      O5             28.7176888999        6.6506249272       53.4792149651  LPSA15    13              8.0000000000
     16107       517  AGAL      C2             30.4118782502        6.4483736421       55.1154361671  LPSA15    13              8.0000000000
     16108       517  AGAL      H2             29.5410401244        6.5479226885       55.8059390200  LPSA15    13              8.0000000000
     16109       517  AGAL      O2             31.5432948186        7.0544483229       55.7607001762  LPSA15    13              8.0000000000
     16110       517  AGAL      C3             30.5207570922        4.9543290255       54.8985102403  LPSA15    13              8.0000000000
     16111       517  AGAL      H3             31.1912982777        4.8163302838       54.0312072475  LPSA15    13              8.0000000000
     16112       517  AGAL      O3             31.0734185120        4.2582730037       56.0071776616  LPSA15    13              8.0000000000
     16113       517  AGAL      HO3            31.7162994035        3.6062420604       55.7155567914  LPSA15    13              8.0000000000
     16114       517  AGAL      C4             29.1683793050        4.4257903291       54.5113566169  LPSA15    13              8.0000000000
     16115       517  AGAL      H4             29.2579307503        3.3464384431       54.2281873636  LPSA15    13              8.0000000000
     16116       517  AGAL      O4             28.2109141863        4.5038608726       55.5716008515  LPSA15    13              8.0000000000
     16117       517  AGAL      HO4            28.2493769447        5.3540333309       56.0223270045  LPSA15    13              8.0000000000
     16118       517  AGAL      C6             27.5740572571        4.6065633457       52.5545133145  LPSA15    13              8.0000000000
     16119       517  AGAL      H61            27.4078491517        5.1645500923       51.6060860236  LPSA15    13              8.0000000000
     16120       517  AGAL      H62            27.8306826425        3.5449623570       52.3081372976  LPSA15    13              8.0000000000
     16121       517  AGAL      O6             26.3745806254        4.5955720759       53.3304192181  LPSA15    13              8.0000000000
     16122       517  AGAL      HO6            26.4452279252        3.8712035884       53.9685483731  LPSA15    13              8.0000000000
     16123       518  ARHM      C1             31.3033688051        7.6799205328       57.0089946061  LPSA15    14              9.0000000000
     16124       518  ARHM      H1             30.2532101743        8.0453658457       57.0422895781  LPSA15    14              9.0000000000
     16125       518  ARHM      C5             33.5229383658        8.4851931716       57.1794147442  LPSA15    14              9.0000000000
     16126       518  ARHM      H5             33.7399852660        7.9876491134       56.2037917027  LPSA15    14              9.0000000000
     16127       518  ARHM      O5             32.1298401380        8.8261049344       57.2146948985  LPSA15    14              9.0000000000
     16128       518  ARHM      C2             31.5600238431        6.6726781803       58.1132685797  LPSA15    14              9.0000000000
     16129       518  ARHM      H2             30.9150760376        5.7850022523       57.9319884255  LPSA15    14              9.0000000000
     16130       518  ARHM      O2             31.3572863304        7.1309227899       59.4645197719  LPSA15    14              9.0000000000
     16131       518  ARHM      C3             33.0094444925        6.2751742783       58.0527667887  LPSA15    14              9.0000000000
     16132       518  ARHM      H3             33.2594833519        5.9486220945       57.0174519587  LPSA15    14              9.0000000000
     16133       518  ARHM      O3             33.2893115195        5.1494424126       58.8767008863  LPSA15    14              9.0000000000
     16134       518  ARHM      HO3            33.2848012803        5.4265321696       59.7921431401  LPSA15    14              9.0000000000
     16135       518  ARHM      C4             33.8497235353        7.5140982130       58.3190531116  LPSA15    14              9.0000000000
     16136       518  ARHM      H4             33.5584742399        8.0144988160       59.2743909836  LPSA15    14              9.0000000000
     16137       518  ARHM      O4             35.2429685896        7.2298073385       58.3933455142  LPSA15    14              9.0000000000
     16138       518  ARHM      HO4            35.5719253261        7.2420929793       59.2935425492  LPSA15    14              9.0000000000
     16139       518  ARHM      C6             34.3128226017        9.7983328531       57.2564304855  LPSA15    14              9.0000000000
     16140       518  ARHM      H61            33.9113730585       10.5727989352       56.5743850368  LPSA15    14              9.0000000000
     16141       518  ARHM      H62            34.2984875509       10.1485457298       58.3060244161  LPSA15    14              9.0000000000
     16142       518  ARHM      H63            35.3515786213        9.6521927371       56.9402991551  LPSA15    14              9.0000000000
     16143       519  ARHM      C1             30.1163263137        7.7240351048       59.7474160250  LPSA15    15             10.0000000000
     16144       519  ARHM      H1             29.3429185772        7.3413044057       59.0429926063  LPSA15    15             10.0000000000
     16145       519  ARHM      C5             30.9915041297        9.8189343344       60.6380482265  LPSA15    15             10.0000000000
     16146       519  ARHM      H5             32.0656789687        9.5738342063       60.4500908528  LPSA15    15             10.0000000000
     16147       519  ARHM      O5             30.1345188221        9.1708314919       59.6757083636  LPSA15    15             10.0000000000
     16148       519  ARHM      C2             29.7077497327        7.2934417325       61.1380865584  LPSA15    15             10.0000000000
     16149       519  ARHM      H2             29.7720057256        6.1820218643       61.2046563292  LPSA15    15             10.0000000000
     16150       519  ARHM      O2             28.3344288745        7.6983669867       61.2997110888  LPSA15    15             10.0000000000
     16151       519  ARHM      C3             30.6636088244        7.8804869851       62.1342819511  LPSA15    15             10.0000000000
     16152       519  ARHM      H3             31.7054016185        7.5986504375       61.8405341449  LPSA15    15             10.0000000000
     16153       519  ARHM      O3             30.3832590285        7.2784523713       63.3994108558  LPSA15    15             10.0000000000
     16154       519  ARHM      C4             30.5585737082        9.3882809786       62.0306646688  LPSA15    15             10.0000000000
     16155       519  ARHM      H4             29.4924555198        9.6826683270       62.1600294090  LPSA15    15             10.0000000000
     16156       519  ARHM      O4             31.2848904182       10.0803986346       63.0276108180  LPSA15    15             10.0000000000
     16157       519  ARHM      HO4            31.0661366609       11.0197638772       62.9510827328  LPSA15    15             10.0000000000
     16158       519  ARHM      C6             30.8365602765       11.3477247555       60.4557705649  LPSA15    15             10.0000000000
     16159       519  ARHM      H61            31.6021138670       11.9035733747       61.0357921809  LPSA15    15             10.0000000000
     16160       519  ARHM      H62            30.9337982051       11.5918485025       59.3778402133  LPSA15    15             10.0000000000
     16161       519  ARHM      H63            29.8537506829       11.6946703022       60.8240592793  LPSA15    15             10.0000000000
     16162       520  BMANNA    C1             27.6542249673        7.4424099512       62.5111730613  LPSA15    16             11.0000000000
     16163       520  BMANNA    H1             28.0879463139        8.0869783921       63.3079044865  LPSA15    16             11.0000000000
     16164       520  BMANNA    C5             27.0739766551        5.8760139324       64.2330878323  LPSA15    16             11.0000000000
     16165       520  BMANNA    H5             27.5291438061        6.5716487710       64.9748173592  LPSA15    16             11.0000000000
     16166       520  BMANNA    O5             27.7183424050        6.0736854848       62.9513464695  LPSA15    16             11.0000000000
     16167       520  BMANNA    C2             26.1912573720        7.8348380251       62.3039313774  LPSA15    16             11.0000000000
     16168       520  BMANNA    H2             26.1952836125        8.9250803876       62.0430674646  LPSA15    16             11.0000000000
     16169       520  BMANNA    N              25.5046993742        7.1464007959       61.2395727008  LPSA15    16             11.0000000000
     16170       520  BMANNA    HN             24.9489081346        6.3828950752       61.5235875285  LPSA15    16             11.0000000000
     16171       520  BMANNA    C              25.3904937716        7.5339606170       59.9709461247  LPSA15    16             11.0000000000
     16172       520  BMANNA    O              25.8920732093        8.5509654243       59.5100523931  LPSA15    16             11.0000000000
     16173       520  BMANNA    CT             24.6142061082        6.5943485356       59.0912946851  LPSA15    16             11.0000000000
     16174       520  BMANNA    HT1            23.6075895063        6.9935109022       58.8588156736  LPSA15    16             11.0000000000
     16175       520  BMANNA    HT2            24.5060059709        5.5857259810       59.5357632030  LPSA15    16             11.0000000000
     16176       520  BMANNA    HT3            25.1717430858        6.4845437671       58.1444228283  LPSA15    16             11.0000000000
     16177       520  BMANNA    C3             25.4688012477        7.6106884948       63.6216674549  LPSA15    16             11.0000000000
     16178       520  BMANNA    H3             25.9237983573        8.1557710386       64.4168723844  LPSA15    16             11.0000000000
     16179       520  BMANNA    O3             24.1286952459        8.0674274869       63.5589101308  LPSA15    16             11.0000000000
     16180       520  BMANNA    HO3            23.9974444518        8.7358316625       64.2424793968  LPSA15    16             11.0000000000
     16181       520  BMANNA    C4             25.5968747805        6.1924048431       64.1229930800  LPSA15    16             11.0000000000
     16182       520  BMANNA    H4             25.1786795140        5.4889164413       63.4268315341  LPSA15    16             11.0000000000
     16183       520  BMANNA    O4             24.9381527617        5.9449984759       65.3722093971  LPSA15    16             11.0000000000
     16184       520  BMANNA    HO4            24.7743023257        4.9973492636       65.4728843874  LPSA15    16             11.0000000000
     16185       520  BMANNA    C6             27.2583384136        4.4702173681       64.7746292547  LPSA15    16             11.0000000000
     16186       520  BMANNA    H61            27.2183357660        4.5307921952       65.8834223216  LPSA15    16             11.0000000000
     16187       520  BMANNA    H62            26.4185923128        3.8214986624       64.4335565587  LPSA15    16             11.0000000000
     16188       520  BMANNA    O6             28.4772535401        3.8366324777       64.4073576100  LPSA15    16             11.0000000000
     16189       520  BMANNA    HO6            28.2423250079        3.0992068411       63.8379533860  LPSA15    16             11.0000000000
     16190       521  BGLCNA    C1             31.5244690061        6.9682562565       64.1330097456  LPSA15    17             11.0000000000
     16191       521  BGLCNA    H1             32.2888291271        7.7599114201       63.9768730122  LPSA15    17             11.0000000000
     16192       521  BGLCNA    C5             33.2362190569        5.3451965220       64.5528633478  LPSA15    17             11.0000000000
     16193       521  BGLCNA    H5             34.0604013357        6.0695102068       64.3515333315  LPSA15    17             11.0000000000
     16194       521  BGLCNA    O5             32.0793526439        5.6962043117       63.7755888458  LPSA15    17             11.0000000000
     16195       521  BGLCNA    C2             31.0306045839        6.9540830556       65.5680430024  LPSA15    17             11.0000000000
     16196       521  BGLCNA    H2             30.3087328139        6.1140054223       65.7398675358  LPSA15    17             11.0000000000
     16197       521  BGLCNA    N              30.3404276095        8.1856350144       65.8764445396  LPSA15    17             11.0000000000
     16198       521  BGLCNA    HN             30.6406334105        8.9775037388       65.3551789788  LPSA15    17             11.0000000000
     16199       521  BGLCNA    C              29.4107184467        8.3656555277       66.8188901080  LPSA15    17             11.0000000000
     16200       521  BGLCNA    O              28.8797561948        7.4697366001       67.4650684376  LPSA15    17             11.0000000000
     16201       521  BGLCNA    CT             29.0709165110        9.8045741985       67.0748375265  LPSA15    17             11.0000000000
     16202       521  BGLCNA    HT1            28.1304878948       10.1110935067       66.6297829311  LPSA15    17             11.0000000000
     16203       521  BGLCNA    HT2            29.8768436415       10.4498579949       66.6837723638  LPSA15    17             11.0000000000
     16204       521  BGLCNA    HT3            28.9333690826        9.9902979842       68.1514700811  LPSA15    17             11.0000000000
     16205       521  BGLCNA    C3             32.2422446741        6.7219529431       66.4170287140  LPSA15    17             11.0000000000
     16206       521  BGLCNA    H3             32.9919041938        7.4820245697       66.0857487270  LPSA15    17             11.0000000000
     16207       521  BGLCNA    O3             31.9550994483        6.9483993011       67.8274434252  LPSA15    17             11.0000000000
     16208       521  BGLCNA    C4             32.8033992086        5.3836261009       66.0243082150  LPSA15    17             11.0000000000
     16209       521  BGLCNA    H4             32.0572785022        4.5582940218       66.1669331606  LPSA15    17             11.0000000000
     16210       521  BGLCNA    O4             33.9275944400        5.2037887045       66.8396284864  LPSA15    17             11.0000000000
     16211       521  BGLCNA    HO4            34.2027968494        4.2966506845       66.6328934282  LPSA15    17             11.0000000000
     16212       521  BGLCNA    C6             33.7666403829        3.9653481921       64.1166797207  LPSA15    17             11.0000000000
     16213       521  BGLCNA    H61            34.8765368230        3.9381930250       64.1729876755  LPSA15    17             11.0000000000
     16214       521  BGLCNA    H62            33.3765085194        3.1768619280       64.7982209235  LPSA15    17             11.0000000000
     16215       521  BGLCNA    O6             33.4078603075        3.5749602300       62.7914200555  LPSA15    17             11.0000000000
     16216       521  BGLCNA    HO6            33.6690612947        4.2417839939       62.1580638340  LPSA15    17             11.0000000000
     16217       522  AGAL      C1             32.9956582633        7.5071313664       68.6186798738  LPSA15    18             12.0000000000
     16218       522  AGAL      H1             33.7646982264        6.7265897567       68.8162414820  LPSA15    18             12.0000000000
     16219       522  AGAL      C5             32.7471557727        9.7458938089       67.8488347454  LPSA15    18             12.0000000000
     16220       522  AGAL      H5             31.8092071709        9.3794203351       67.3992373414  LPSA15    18             12.0000000000
     16221       522  AGAL      O5             33.6310499177        8.6197538376       67.9757697474  LPSA15    18             12.0000000000
     16222       522  AGAL      C2             32.5289043904        8.0340773889       69.9669125207  LPSA15    18             12.0000000000
     16223       522  AGAL      H2             33.4643982113        8.4687757765       70.3954352366  LPSA15    18             12.0000000000
     16224       522  AGAL      O2             32.1449837541        6.9934562515       70.8609189622  LPSA15    18             12.0000000000
     16225       522  AGAL      C3             31.5400904301        9.1966832542       69.8435979304  LPSA15    18             12.0000000000
     16226       522  AGAL      H3             30.7126251920        8.8762372041       69.1706969090  LPSA15    18             12.0000000000
     16227       522  AGAL      O3             30.9435566826        9.5890535397       71.0799649610  LPSA15    18             12.0000000000
     16228       522  AGAL      HO3            29.9875931508        9.6921368795       70.9836641853  LPSA15    18             12.0000000000
     16229       522  AGAL      C4             32.2696621575       10.3402925013       69.1669609979  LPSA15    18             12.0000000000
     16230       522  AGAL      H4             31.5721089692       11.1800153952       68.9351622546  LPSA15    18             12.0000000000
     16231       522  AGAL      O4             33.3216935751       10.8658602288       69.9724557717  LPSA15    18             12.0000000000
     16232       522  AGAL      HO4            32.9177854819       11.3323086363       70.7171997265  LPSA15    18             12.0000000000
     16233       522  AGAL      C6             33.2494078741       10.6573121940       66.7663585318  LPSA15    18             12.0000000000
     16234       522  AGAL      H61            33.2658858096       10.0530738787       65.8290568869  LPSA15    18             12.0000000000
     16235       522  AGAL      H62            32.5428718615       11.5023821843       66.6338103358  LPSA15    18             12.0000000000
     16236       522  AGAL      O6             34.5548584947       11.1659259824       66.9866553709  LPSA15    18             12.0000000000
     16237       522  AGAL      HO6            34.9641003879       10.6652476134       67.6844873972  LPSA15    18             12.0000000000
     16238       523  ARHM      C1             32.6239418492        7.2512504616       72.1629219134  LPSA15    19             13.0000000000
     16239       523  ARHM      H1             32.7139838153        8.3427275492       72.3474007388  LPSA15    19             13.0000000000
     16240       523  ARHM      C5             33.9907383754        5.3090777200       72.2443756267  LPSA15    19             13.0000000000
     16241       523  ARHM      H5             33.6241414181        5.0875642160       71.2143612338  LPSA15    19             13.0000000000
     16242       523  ARHM      O5             33.9351501426        6.7267551052       72.4129881972  LPSA15    19             13.0000000000
     16243       523  ARHM      C2             31.6459634732        6.6190408172       73.1165878578  LPSA15    19             13.0000000000
     16244       523  ARHM      H2             30.6010725849        6.9369898624       72.8706055517  LPSA15    19             13.0000000000
     16245       523  ARHM      O2             31.9288054649        7.0359615127       74.4604639105  LPSA15    19             13.0000000000
     16246       523  ARHM      C3             31.6928715220        5.1155503033       72.9580144165  LPSA15    19             13.0000000000
     16247       523  ARHM      H3             31.4441706273        4.8522336703       71.9014782789  LPSA15    19             13.0000000000
     16248       523  ARHM      O3             30.7485253472        4.4761852118       73.7901944409  LPSA15    19             13.0000000000
     16249       523  ARHM      HO3            30.7988930254        4.8897777556       74.6512534318  LPSA15    19             13.0000000000
     16250       523  ARHM      C4             33.0826839006        4.6197673335       73.2370351302  LPSA15    19             13.0000000000
     16251       523  ARHM      H4             33.3461893848        4.9074788334       74.2825733112  LPSA15    19             13.0000000000
     16252       523  ARHM      O4             33.2077129437        3.2030033287       73.1273865220  LPSA15    19             13.0000000000
     16253       523  ARHM      HO4            32.9910227251        2.9472743594       72.2274924584  LPSA15    19             13.0000000000
     16254       523  ARHM      C6             35.4508071206        4.8410331282       72.2703092564  LPSA15    19             13.0000000000
     16255       523  ARHM      H61            35.9743479167        5.4008494270       71.4722939635  LPSA15    19             13.0000000000
     16256       523  ARHM      H62            35.9592851750        5.0373412988       73.2334486965  LPSA15    19             13.0000000000
     16257       523  ARHM      H63            35.5189094794        3.7511696034       72.0685878249  LPSA15    19             13.0000000000
     16258       524  ARHM      C1             31.5587607786        8.3763401829       74.6978519795  LPSA15    20             14.0000000000
     16259       524  ARHM      H1             30.9440230797        8.7790043270       73.8649247262  LPSA15    20             14.0000000000
     16260       524  ARHM      C5             33.4731495366        8.9688410657       75.9579870202  LPSA15    20             14.0000000000
     16261       524  ARHM      H5             33.7357744504        7.9214692702       75.8121627948  LPSA15    20             14.0000000000
     16262       524  ARHM      O5             32.6578801592        9.2868009522       74.8370868735  LPSA15    20             14.0000000000
     16263       524  ARHM      C2             30.7232199559        8.3682631120       75.9457586698  LPSA15    20             14.0000000000
     16264       524  ARHM      H2             29.9339876457        7.5760035352       75.8446554889  LPSA15    20             14.0000000000
     16265       524  ARHM      O2             30.1411673833        9.6562512816       76.1578410905  LPSA15    20             14.0000000000
     16266       524  ARHM      C3             31.5428728826        8.0169352758       77.1265905337  LPSA15    20             14.0000000000
     16267       524  ARHM      H3             31.9459613840        7.0025616183       76.9328316451  LPSA15    20             14.0000000000
     16268       524  ARHM      O3             30.6981877010        7.9900675508       78.2766995473  LPSA15    20             14.0000000000
     16269       524  ARHM      C4             32.6706063906        9.0011208061       77.2402329325  LPSA15    20             14.0000000000
     16270       524  ARHM      H4             32.2994540645       10.0298316290       77.3147185830  LPSA15    20             14.0000000000
     16271       524  ARHM      O4             33.4748920090        8.7201723680       78.3714089744  LPSA15    20             14.0000000000
     16272       524  ARHM      HO4            34.3539502203        9.0279450431       78.1321572396  LPSA15    20             14.0000000000
     16273       524  ARHM      C6             34.7336450333        9.8616028794       75.9556229575  LPSA15    20             14.0000000000
     16274       524  ARHM      H61            34.4984889180       10.9398453984       76.0841877131  LPSA15    20             14.0000000000
     16275       524  ARHM      H62            35.4244430569        9.5414166808       76.7623096884  LPSA15    20             14.0000000000
     16276       524  ARHM      H63            35.2712079611        9.7570885039       74.9909014691  LPSA15    20             14.0000000000
     16277       525  BMANNA    C1             28.9674173227        9.7599632535       75.4098536961  LPSA15    21             15.0000000000
     16278       525  BMANNA    H1             28.8760185786        8.8850052306       74.7229885020  LPSA15    21             15.0000000000
     16279       525  BMANNA    C5             27.8238839795       10.8243115758       73.6611649129  LPSA15    21             15.0000000000
     16280       525  BMANNA    H5             27.7932928094        9.8554319443       73.0989438419  LPSA15    21             15.0000000000
     16281       525  BMANNA    O5             28.9864516788       10.8671136324       74.5168879776  LPSA15    21             15.0000000000
     16282       525  BMANNA    C2             27.7675749254        9.8108862747       76.3484182533  LPSA15    21             15.0000000000
     16283       525  BMANNA    H2             27.8147425830        8.8452332453       76.9204524178  LPSA15    21             15.0000000000
     16284       525  BMANNA    N              27.7654319903       10.9350862845       77.2860737850  LPSA15    21             15.0000000000
     16285       525  BMANNA    HN             28.0549058805       11.8071227213       76.9126810971  LPSA15    21             15.0000000000
     16286       525  BMANNA    C              27.3627105612       10.8440804846       78.5765878295  LPSA15    21             15.0000000000
     16287       525  BMANNA    O              26.7783507977        9.8709124293       79.0162525635  LPSA15    21             15.0000000000
     16288       525  BMANNA    CT             27.6326328590       12.0248607593       79.4861938827  LPSA15    21             15.0000000000
     16289       525  BMANNA    HT1            26.9334131258       12.8618070762       79.2918447065  LPSA15    21             15.0000000000
     16290       525  BMANNA    HT2            28.6653340822       12.3375578208       79.2894502391  LPSA15    21             15.0000000000
     16291       525  BMANNA    HT3            27.5717874522       11.7591269037       80.5608067762  LPSA15    21             15.0000000000
     16292       525  BMANNA    C3             26.5425168958        9.7744188808       75.4709214821  LPSA15    21             15.0000000000
     16293       525  BMANNA    H3             26.6110243629        8.8131256210       74.9149091545  LPSA15    21             15.0000000000
     16294       525  BMANNA    O3             25.3191916049        9.7464419427       76.2015097468  LPSA15    21             15.0000000000
     16295       525  BMANNA    HO3            25.3669590553       10.4934352106       76.8038998649  LPSA15    21             15.0000000000
     16296       525  BMANNA    C4             26.5691253260       10.9184760459       74.4861404072  LPSA15    21             15.0000000000
     16297       525  BMANNA    H4             26.5492454306       11.9066318874       75.0086029104  LPSA15    21             15.0000000000
     16298       525  BMANNA    O4             25.4576829360       10.8821508845       73.6114891623  LPSA15    21             15.0000000000
     16299       525  BMANNA    HO4            24.9460919543       11.6863344634       73.7209579780  LPSA15    21             15.0000000000
     16300       525  BMANNA    C6             27.8799621442       11.8916901031       72.6132158865  LPSA15    21             15.0000000000
     16301       525  BMANNA    H61            27.1438967376       11.6913400357       71.8022758918  LPSA15    21             15.0000000000
     16302       525  BMANNA    H62            27.5694385205       12.8538941230       73.0769708253  LPSA15    21             15.0000000000
     16303       525  BMANNA    O6             29.1918010852       11.9552833011       72.0553487310  LPSA15    21             15.0000000000
     16304       525  BMANNA    HO6            29.7767016129       12.3081328590       72.7449510702  LPSA15    21             15.0000000000
     16305       526  BGLCNA    C1             30.9982697221        7.0063168727       79.2367518647  LPSA15    22             15.0000000000
     16306       526  BGLCNA    H1             32.0715349094        6.7371833547       79.2523339843  LPSA15    22             15.0000000000
     16307       526  BGLCNA    C5             30.4660681681        4.8683183823       80.1035884512  LPSA15    22             15.0000000000
     16308       526  BGLCNA    H5             31.5602999868        4.6402289193       80.1081663216  LPSA15    22             15.0000000000
     16309       526  BGLCNA    O5             30.2160980538        5.8210701256       79.0608881741  LPSA15    22             15.0000000000
     16310       526  BGLCNA    C2             30.6353602474        7.6534241253       80.5460642976  LPSA15    22             15.0000000000
     16311       526  BGLCNA    H2             29.5434206525        7.9081827173       80.4983364673  LPSA15    22             15.0000000000
     16312       526  BGLCNA    N              31.4058651896        8.8634497082       80.7258761543  LPSA15    22             15.0000000000
     16313       526  BGLCNA    HN             32.3377017244        8.8533234346       80.3855464604  LPSA15    22             15.0000000000
     16314       526  BGLCNA    C              30.9701533531        9.9514328281       81.3559602311  LPSA15    22             15.0000000000
     16315       526  BGLCNA    O              29.8578089305       10.0702930985       81.8519482734  LPSA15    22             15.0000000000
     16316       526  BGLCNA    CT             31.9699705666       11.0701589262       81.4086000581  LPSA15    22             15.0000000000
     16317       526  BGLCNA    HT1            31.7344824563       11.7434792850       80.5648455150  LPSA15    22             15.0000000000
     16318       526  BGLCNA    HT2            32.9987771947       10.6828038077       81.2785366636  LPSA15    22             15.0000000000
     16319       526  BGLCNA    HT3            31.9117631854       11.6240118700       82.3692670623  LPSA15    22             15.0000000000
     16320       526  BGLCNA    C3             30.8852380447        6.6896961076       81.6825053327  LPSA15    22             15.0000000000
     16321       526  BGLCNA    H3             31.9586601832        6.3918424769       81.6491589438  LPSA15    22             15.0000000000
     16322       526  BGLCNA    O3             30.6357905905        7.4025867142       82.9001824325  LPSA15    22             15.0000000000
     16323       526  BGLCNA    C4             30.0639384013        5.4509638083       81.4530814498  LPSA15    22             15.0000000000
     16324       526  BGLCNA    H4             28.9888584284        5.7502997608       81.4102991316  LPSA15    22             15.0000000000
     16325       526  BGLCNA    O4             30.2281072214        4.4809909067       82.4883265026  LPSA15    22             15.0000000000
     16326       526  BGLCNA    HO4            29.3647929520        4.1366905079       82.7465797960  LPSA15    22             15.0000000000
     16327       526  BGLCNA    C6             29.6832159522        3.6213656726       79.7806031798  LPSA15    22             15.0000000000
     16328       526  BGLCNA    H61            29.6048450657        2.9927277325       80.6885456636  LPSA15    22             15.0000000000
     16329       526  BGLCNA    H62            28.6491761177        3.8795271660       79.4704360644  LPSA15    22             15.0000000000
     16330       526  BGLCNA    O6             30.3151828975        2.8246932402       78.7848967599  LPSA15    22             15.0000000000
     16331       526  BGLCNA    HO6            30.4430117895        3.3334149814       77.9754464198  LPSA15    22             15.0000000000
     16332       527  AGAL      C1             31.1841307365        6.9319210387       84.1011758910  LPSA15    23             16.0000000000
     16333       527  AGAL      H1             30.5940573624        6.0600171103       84.4507164094  LPSA15    23             16.0000000000
     16334       527  AGAL      C5             33.4324226774        7.6522976224       83.7308430758  LPSA15    23             16.0000000000
     16335       527  AGAL      H5             33.0681416671        8.1769903692       82.8185239601  LPSA15    23             16.0000000000
     16336       527  AGAL      O5             32.5626601928        6.5286207141       83.9918743561  LPSA15    23             16.0000000000
     16337       527  AGAL      C2             31.0424643766        7.9795910276       85.1856233250  LPSA15    23             16.0000000000
     16338       527  AGAL      H2             31.4656293531        7.5202680876       86.1069839003  LPSA15    23             16.0000000000
     16339       527  AGAL      O2             29.6617660709        8.3411306968       85.4240348399  LPSA15    23             16.0000000000
     16340       527  AGAL      C3             31.9389656297        9.1608038498       84.8811351459  LPSA15    23             16.0000000000
     16341       527  AGAL      H3             31.7142456499        9.5388886104       83.8619655452  LPSA15    23             16.0000000000
     16342       527  AGAL      O3             31.7101983584       10.2730854365       85.7291911540  LPSA15    23             16.0000000000
     16343       527  AGAL      HO3            31.6783806520        9.9944295220       86.6450910892  LPSA15    23             16.0000000000
     16344       527  AGAL      C4             33.3739213222        8.6753793121       84.8653621519  LPSA15    23             16.0000000000
     16345       527  AGAL      H4             34.0295319668        9.5144453892       84.5967854597  LPSA15    23             16.0000000000
     16346       527  AGAL      O4             33.8264967239        8.1511353935       86.1135589572  LPSA15    23             16.0000000000
     16347       527  AGAL      HO4            34.4701332421        7.4585731666       85.8724724803  LPSA15    23             16.0000000000
     16348       527  AGAL      C6             34.8163062608        7.1711064477       83.3636590681  LPSA15    23             16.0000000000
     16349       527  AGAL      H61            34.7305608688        6.4288800119       82.5903040774  LPSA15    23             16.0000000000
     16350       527  AGAL      H62            35.4250489660        7.9357298645       82.8441919936  LPSA15    23             16.0000000000
     16351       527  AGAL      O6             35.4936094927        6.5731822883       84.4605400655  LPSA15    23             16.0000000000
     16352       527  AGAL      HO6            36.3228451864        6.1337120628       84.2144370616  LPSA15    23             16.0000000000
     16353       528  ARHM      C1             28.9031131032        7.5176315566       86.2865596633  LPSA15    24             17.0000000000
     16354       528  ARHM      H1             29.4077692851        6.5296260985       86.3862429787  LPSA15    24             17.0000000000
     16355       528  ARHM      C5             26.7813250810        8.4233791672       85.6405429844  LPSA15    24             17.0000000000
     16356       528  ARHM      H5             27.3345804996        9.0879842881       84.9395557118  LPSA15    24             17.0000000000
     16357       528  ARHM      O5             27.5655178083        7.2313451593       85.8231365863  LPSA15    24             17.0000000000
     16358       528  ARHM      C2             28.8288689376        8.2416832899       87.6053998076  LPSA15    24             17.0000000000
     16359       528  ARHM      H2             29.8601692664        8.5202437475       87.9310127453  LPSA15    24             17.0000000000
     16360       528  ARHM      O2             28.1797082003        7.4356442747       88.5970960953  LPSA15    24             17.0000000000
     16361       528  ARHM      C3             28.0337328658        9.5153360865       87.4243381142  LPSA15    24             17.0000000000
     16362       528  ARHM      H3             28.5541057894       10.1071768733       86.6311881552  LPSA15    24             17.0000000000
     16363       528  ARHM      O3             28.0394005717       10.3291622160       88.5929041696  LPSA15    24             17.0000000000
     16364       528  ARHM      HO3            27.3426986500       10.0485272766       89.1907699333  LPSA15    24             17.0000000000
     16365       528  ARHM      C4             26.6299865230        9.1705241958       86.9531972411  LPSA15    24             17.0000000000
     16366       528  ARHM      H4             26.1636447568        8.4745256739       87.6976606463  LPSA15    24             17.0000000000
     16367       528  ARHM      O4             25.7932244176       10.3246994733       86.7989652113  LPSA15    24             17.0000000000
     16368       528  ARHM      HO4            24.8725431839       10.1211436018       86.9892667657  LPSA15    24             17.0000000000
     16369       528  ARHM      C6             25.4414275220        8.0934063394       84.9611150780  LPSA15    24             17.0000000000
     16370       528  ARHM      H61            25.0795223943        9.0062405049       84.4383465062  LPSA15    24             17.0000000000
     16371       528  ARHM      H62            25.5692131289        7.2997262844       84.2019176144  LPSA15    24             17.0000000000
     16372       528  ARHM      H63            24.6732198172        7.7676482836       85.6845628427  LPSA15    24             17.0000000000
     16373       529  ARHM      C1             28.9717543148        6.4277189354       89.1490586798  LPSA15    25             18.0000000000
     16374       529  ARHM      H1             29.8320665591        6.2298427482       88.4701286084  LPSA15    25             18.0000000000
     16375       529  ARHM      C5             27.2174782442        5.1937264097       90.1998867316  LPSA15    25             18.0000000000
     16376       529  ARHM      H5             26.4777940823        5.9525761452       89.8560215475  LPSA15    25             18.0000000000
     16377       529  ARHM      O5             28.3051016096        5.1664990490       89.2620316428  LPSA15    25             18.0000000000
     16378       529  ARHM      C2             29.5108894681        6.8900798523       90.4646257662  LPSA15    25             18.0000000000
     16379       529  ARHM      H2             29.9103798835        7.9312253246       90.3647735963  LPSA15    25             18.0000000000
     16380       529  ARHM      O2             30.5590932205        6.0163854162       90.8947083296  LPSA15    25             18.0000000000
     16381       529  ARHM      C3             28.3776685094        6.9471453337       91.4526543573  LPSA15    25             18.0000000000
     16382       529  ARHM      H3             27.5993035113        7.6617178538       91.0841525239  LPSA15    25             18.0000000000
     16383       529  ARHM      O3             28.9233117115        7.3665286494       92.7022038471  LPSA15    25             18.0000000000
     16384       529  ARHM      C4             27.7245501720        5.6028581331       91.5707732080  LPSA15    25             18.0000000000
     16385       529  ARHM      H4             28.4694028264        4.8342502904       91.9011309153  LPSA15    25             18.0000000000
     16386       529  ARHM      O4             26.6598659804        5.6682799720       92.5164877547  LPSA15    25             18.0000000000
     16387       529  ARHM      HO4            26.6668139166        4.8835736786       93.0578867373  LPSA15    25             18.0000000000
     16388       529  ARHM      C6             26.4834635187        3.8347848555       90.2155505302  LPSA15    25             18.0000000000
     16389       529  ARHM      H61            26.2385329185        3.5253079698       89.1779281129  LPSA15    25             18.0000000000
     16390       529  ARHM      H62            27.1230496724        3.0478558575       90.6614027190  LPSA15    25             18.0000000000
     16391       529  ARHM      H63            25.5418096349        3.9212665118       90.7968170988  LPSA15    25             18.0000000000
     16392       530  BMANNA    C1             31.7987627313        6.2443421468       90.2777234377  LPSA15    26             19.0000000000
     16393       530  BMANNA    H1             31.8596366551        7.2713986274       89.8561037921  LPSA15    26             19.0000000000
     16394       530  BMANNA    C5             33.3638498833        5.6191595721       88.5918232725  LPSA15    26             19.0000000000
     16395       530  BMANNA    H5             33.3108466817        6.6488136141       88.1729862075  LPSA15    26             19.0000000000
     16396       530  BMANNA    O5             32.1023653772        5.3243763332       89.2197745172  LPSA15    26             19.0000000000
     16397       530  BMANNA    C2             32.8287351334        6.1084219406       91.3515212598  LPSA15    26             19.0000000000
     16398       530  BMANNA    H2             32.5671648165        6.8760833221       92.1292992322  LPSA15    26             19.0000000000
     16399       530  BMANNA    N              32.8176267305        4.7582425203       91.9227133092  LPSA15    26             19.0000000000
     16400       530  BMANNA    HN             32.8789820704        4.0100529264       91.2768347939  LPSA15    26             19.0000000000
     16401       530  BMANNA    C              32.7225602187        4.4915791145       93.2298662178  LPSA15    26             19.0000000000
     16402       530  BMANNA    O              32.4845258023        5.3660051719       94.0410653349  LPSA15    26             19.0000000000
     16403       530  BMANNA    CT             32.9879760028        3.0724764692       93.6561581747  LPSA15    26             19.0000000000
     16404       530  BMANNA    HT1            32.7160123733        2.3651884823       92.8519707059  LPSA15    26             19.0000000000
     16405       530  BMANNA    HT2            32.4762949418        2.7708440796       94.5959141790  LPSA15    26             19.0000000000
     16406       530  BMANNA    HT3            34.0726948024        2.9901355689       93.8465639594  LPSA15    26             19.0000000000
     16407       530  BMANNA    C3             34.1586838165        6.5032879848       90.7513014988  LPSA15    26             19.0000000000
     16408       530  BMANNA    H3             34.0951947272        7.5402209160       90.3358731308  LPSA15    26             19.0000000000
     16409       530  BMANNA    O3             35.1487191840        6.5361814289       91.7639298265  LPSA15    26             19.0000000000
     16410       530  BMANNA    HO3            35.0704829490        7.3607274683       92.2759958157  LPSA15    26             19.0000000000
     16411       530  BMANNA    C4             34.4859392313        5.5487695077       89.6183955845  LPSA15    26             19.0000000000
     16412       530  BMANNA    H4             34.5538291813        4.5039892344       89.9833584945  LPSA15    26             19.0000000000
     16413       530  BMANNA    O4             35.7311438202        5.8566790801       89.0124746498  LPSA15    26             19.0000000000
     16414       530  BMANNA    HO4            36.4562721882        5.5717619183       89.5776084491  LPSA15    26             19.0000000000
     16415       530  BMANNA    C6             33.5055117144        4.6629215876       87.4180285764  LPSA15    26             19.0000000000
     16416       530  BMANNA    H61            32.5092385337        4.5433080202       86.9377270453  LPSA15    26             19.0000000000
     16417       530  BMANNA    H62            34.1898368813        5.0880476410       86.6447404051  LPSA15    26             19.0000000000
     16418       530  BMANNA    O6             33.9871224539        3.3778571821       87.8250724891  LPSA15    26             19.0000000000
     16419       530  BMANNA    HO6            34.8937334307        3.5230142565       88.0936893431  LPSA15    26             19.0000000000
     16420       531  BGLCNA    C1             28.1647249110        8.2584911376       93.4687862112  LPSA15    27             19.0000000000
     16421       531  BGLCNA    H1             27.0750503376        8.0457438024       93.4278330969  LPSA15    27             19.0000000000
     16422       531  BGLCNA    C5             27.6944918886       10.5332610965       93.9134944881  LPSA15    27             19.0000000000
     16423       531  BGLCNA    H5             26.6150590969       10.2373340458       93.9339642665  LPSA15    27             19.0000000000
     16424       531  BGLCNA    O5             28.3944365775        9.6075171754       93.0667130518  LPSA15    27             19.0000000000
     16425       531  BGLCNA    C2             28.7153188399        8.0525322323       94.8666519112  LPSA15    27             19.0000000000
     16426       531  BGLCNA    H2             29.7990740851        8.3450926704       94.8336584498  LPSA15    27             19.0000000000
     16427       531  BGLCNA    N              28.6311952088        6.6597605490       95.2970097796  LPSA15    27             19.0000000000
     16428       531  BGLCNA    HN             27.7844286785        6.1986607466       95.0655698032  LPSA15    27             19.0000000000
     16429       531  BGLCNA    C              29.6495307529        6.0675293034       95.9556915075  LPSA15    27             19.0000000000
     16430       531  BGLCNA    O              30.5207824522        6.7201581230       96.5128774274  LPSA15    27             19.0000000000
     16431       531  BGLCNA    CT             29.6733636065        4.5593996809       96.0055201385  LPSA15    27             19.0000000000
     16432       531  BGLCNA    HT1            28.8812254027        4.1316898748       95.3641355925  LPSA15    27             19.0000000000
     16433       531  BGLCNA    HT2            29.5979929285        4.2011003826       97.0444281434  LPSA15    27             19.0000000000
     16434       531  BGLCNA    HT3            30.6726164119        4.2140977250       95.6553953146  LPSA15    27             19.0000000000
     16435       531  BGLCNA    C3             28.0313691570        8.9834902611       95.8196758552  LPSA15    27             19.0000000000
     16436       531  BGLCNA    H3             26.9358095717        8.7630407864       95.7713547217  LPSA15    27             19.0000000000
     16437       531  BGLCNA    O3             28.5671726633        8.6650521142       97.1283680937  LPSA15    27             19.0000000000
     16438       531  BGLCNA    C4             28.2320458360       10.4057406528       95.3344142376  LPSA15    27             19.0000000000
     16439       531  BGLCNA    H4             29.3198238630       10.6598112711       95.3297022123  LPSA15    27             19.0000000000
     16440       531  BGLCNA    O4             27.5507368314       11.3237057158       96.1697804991  LPSA15    27             19.0000000000
     16441       531  BGLCNA    HO4            26.6031544663       11.2071232249       96.0459287055  LPSA15    27             19.0000000000
     16442       531  BGLCNA    C6             27.7396246342       11.9274046093       93.3085054545  LPSA15    27             19.0000000000
     16443       531  BGLCNA    H61            27.0140706833       12.5816876558       93.8459592450  LPSA15    27             19.0000000000
     16444       531  BGLCNA    H62            28.7501529651       12.3795424097       93.4430060953  LPSA15    27             19.0000000000
     16445       531  BGLCNA    O6             27.3907570425       11.9019481039       91.9142909942  LPSA15    27             19.0000000000
     16446       531  BGLCNA    HO6            27.4757135000       12.7786447920       91.5272685806  LPSA15    27             19.0000000000
     16447       532  AGAL      C1             27.8337659756        9.0800910873       98.2476314121  LPSA15    28             20.0000000000
     16448       532  AGAL      H1             27.9598709292       10.1814996801       98.3338009238  LPSA15    28             20.0000000000
     16449       532  AGAL      C5             26.1664318622        7.3679570811       98.1255467702  LPSA15    28             20.0000000000
     16450       532  AGAL      H5             26.8500754389        6.8198497411       97.4296727501  LPSA15    28             20.0000000000
     16451       532  AGAL      O5             26.4346361081        8.7944938695       98.0495109665  LPSA15    28             20.0000000000
     16452       532  AGAL      C2             28.2658416653        8.5029611886       99.6161871068  LPSA15    28             20.0000000000
     16453       532  AGAL      H2             27.5540206194        9.0268426790      100.2978405447  LPSA15    28             20.0000000000
     16454       532  AGAL      O2             29.5833764202        8.8116544724      100.1056211242  LPSA15    28             20.0000000000
     16455       532  AGAL      C3             27.9873133494        7.0094638702       99.6915304917  LPSA15    28             20.0000000000
     16456       532  AGAL      H3             28.5248522192        6.5231046024       98.8466810682  LPSA15    28             20.0000000000
     16457       532  AGAL      O3             28.4300686466        6.3315049068      100.8668294133  LPSA15    28             20.0000000000
     16458       532  AGAL      HO3            29.0811328404        5.6807015433      100.5908705320  LPSA15    28             20.0000000000
     16459       532  AGAL      C4             26.5129526520        6.8140637923       99.4908434856  LPSA15    28             20.0000000000
     16460       532  AGAL      H4             26.3142644647        5.7172422999       99.4899265908  LPSA15    28             20.0000000000
     16461       532  AGAL      O4             25.7425227230        7.4251296371      100.5159840958  LPSA15    28             20.0000000000
     16462       532  AGAL      HO4            25.4050685985        6.7369162922      101.0911604544  LPSA15    28             20.0000000000
     16463       532  AGAL      C6             24.7571254254        7.0403978406       97.6578857452  LPSA15    28             20.0000000000
     16464       532  AGAL      H61            24.6920237926        7.2687142531       96.5696057462  LPSA15    28             20.0000000000
     16465       532  AGAL      H62            24.5195361410        5.9667036541       97.7846601214  LPSA15    28             20.0000000000
     16466       532  AGAL      O6             23.7297416816        7.7281170559       98.3621946068  LPSA15    28             20.0000000000
     16467       532  AGAL      HO6            23.6189538414        8.6033951400       97.9926082629  LPSA15    28             20.0000000000
     16468       533  ARHM      C1             29.5112649967        9.1214964496      101.4845730399  LPSA15    29             21.0000000000
     16469       533  ARHM      H1             28.6442965676        8.6212531091      101.9625224442  LPSA15    29             21.0000000000
     16470       533  ARHM      C5             30.4823819185       11.2558191699      101.1450912847  LPSA15    29             21.0000000000
     16471       533  ARHM      H5             30.5615273394       10.9983575327      100.0633939959  LPSA15    29             21.0000000000
     16472       533  ARHM      O5             29.3875778649       10.5266246103      101.7081048172  LPSA15    29             21.0000000000
     16473       533  ARHM      C2             30.7437137258        8.6309150306      102.1709416971  LPSA15    29             21.0000000000
     16474       533  ARHM      H2             30.8582544823        7.5464719215      101.9213711993  LPSA15    29             21.0000000000
     16475       533  ARHM      O2             30.6326861981        8.8156505441      103.6046486952  LPSA15    29             21.0000000000
     16476       533  ARHM      C3             31.9349822937        9.3570307815      101.6128995519  LPSA15    29             21.0000000000
     16477       533  ARHM      H3             32.0176331904        9.1635240025      100.5143363707  LPSA15    29             21.0000000000
     16478       533  ARHM      O3             33.0884724357        8.8490743167      102.2537025375  LPSA15    29             21.0000000000
     16479       533  ARHM      HO3            33.7574605930        9.5262897116      102.1885367800  LPSA15    29             21.0000000000
     16480       533  ARHM      C4             31.7934252775       10.8566179186      101.8159156874  LPSA15    29             21.0000000000
     16481       533  ARHM      H4             31.7221732576       11.0790674359      102.9077963564  LPSA15    29             21.0000000000
     16482       533  ARHM      O4             32.9289278398       11.5895872916      101.3329579003  LPSA15    29             21.0000000000
     16483       533  ARHM      HO4            33.1739938439       11.3481210875      100.4317007462  LPSA15    29             21.0000000000
     16484       533  ARHM      C6             30.0380598051       12.7098716617      101.2353038670  LPSA15    29             21.0000000000
     16485       533  ARHM      H61            29.0282104049       12.7983918579      100.7720260588  LPSA15    29             21.0000000000
     16486       533  ARHM      H62            29.9854618414       13.0805322773      102.2758396061  LPSA15    29             21.0000000000
     16487       533  ARHM      H63            30.7298433546       13.3475408326      100.6470421096  LPSA15    29             21.0000000000
     16488       534  ARHM      C1             30.2321997640        7.7029349008      104.3714932673  LPSA15    30             22.0000000000
     16489       534  ARHM      H1             30.8952527221        6.8327389944      104.1607958981  LPSA15    30             22.0000000000
     16490       534  ARHM      C5             27.9460733797        8.3872592452      104.4951982187  LPSA15    30             22.0000000000
     16491       534  ARHM      H5             28.2530528318        9.2802718773      103.9066280514  LPSA15    30             22.0000000000
     16492       534  ARHM      O5             28.8586296602        7.3278886035      104.1657846037  LPSA15    30             22.0000000000
     16493       534  ARHM      C2             30.3800451215        8.0793247145      105.8256456272  LPSA15    30             22.0000000000
     16494       534  ARHM      H2             31.4278920362        8.4071670268      106.0281963729  LPSA15    30             22.0000000000
     16495       534  ARHM      O2             30.0202256673        6.9442216866      106.6041629646  LPSA15    30             22.0000000000
     16496       534  ARHM      C3             29.4430616164        9.1901915294      106.2203366171  LPSA15    30             22.0000000000
     16497       534  ARHM      H3             29.6536687894       10.0234763114      105.5116101173  LPSA15    30             22.0000000000
     16498       534  ARHM      O3             29.7220654232        9.6994879063      107.5378344085  LPSA15    30             22.0000000000
     16499       534  ARHM      C4             28.0299750921        8.7500826694      105.9647805627  LPSA15    30             22.0000000000
     16500       534  ARHM      H4             27.7618343513        7.8459544382      106.5555612020  LPSA15    30             22.0000000000
     16501       534  ARHM      O4             27.1035009082        9.7587694258      106.3418713801  LPSA15    30             22.0000000000
     16502       534  ARHM      HO4            26.8637691561       10.3576457062      105.6389103148  LPSA15    30             22.0000000000
     16503       534  ARHM      C6             26.5299857490        8.0179784850      104.0542842380  LPSA15    30             22.0000000000
     16504       534  ARHM      H61            25.8746565219        8.8976570265      104.2189425123  LPSA15    30             22.0000000000
     16505       534  ARHM      H62            26.5173602668        7.7977258155      102.9704916027  LPSA15    30             22.0000000000
     16506       534  ARHM      H63            26.1446706512        7.1449417516      104.6239810477  LPSA15    30             22.0000000000
     16507       535  BMANNA    C1             31.0757672408        6.0932218237      106.8943114707  LPSA15    31             23.0000000000
     16508       535  BMANNA    H1             31.9811504990        6.6764618323      107.1571103164  LPSA15    31             23.0000000000
     16509       535  BMANNA    C5             32.3637320795        4.2100398767      106.1965743752  LPSA15    31             23.0000000000
     16510       535  BMANNA    H5             33.2368147137        4.8335095495      106.5019024434  LPSA15    31             23.0000000000
     16511       535  BMANNA    O5             31.3206826021        5.1437412674      105.8503760309  LPSA15    31             23.0000000000
     16512       535  BMANNA    C2             30.5949024242        5.3404945465      108.0827546728  LPSA15    31             23.0000000000
     16513       535  BMANNA    H2             30.4747533743        6.0826084794      108.9141050412  LPSA15    31             23.0000000000
     16514       535  BMANNA    N              29.3067732740        4.7476796787      107.8109685688  LPSA15    31             23.0000000000
     16515       535  BMANNA    HN             29.0628162260        4.6220441367      106.8533568436  LPSA15    31             23.0000000000
     16516       535  BMANNA    C              28.4175066453        4.5280662018      108.7524086830  LPSA15    31             23.0000000000
     16517       535  BMANNA    O              28.6226343873        4.7709837504      109.9307121632  LPSA15    31             23.0000000000
     16518       535  BMANNA    CT             27.1301845046        3.9650663628      108.2893824757  LPSA15    31             23.0000000000
     16519       535  BMANNA    HT1            27.3160076896        3.1098834387      107.5954615107  LPSA15    31             23.0000000000
     16520       535  BMANNA    HT2            26.4618891742        4.7116836614      107.8382453753  LPSA15    31             23.0000000000
     16521       535  BMANNA    HT3            26.6205629214        3.6807452956      109.2227878320  LPSA15    31             23.0000000000
     16522       535  BMANNA    C3             31.6788050297        4.3901469786      108.4978492404  LPSA15    31             23.0000000000
     16523       535  BMANNA    H3             32.6245628801        4.9500913596      108.6553370299  LPSA15    31             23.0000000000
     16524       535  BMANNA    O3             31.4197926340        3.8728281607      109.7750941982  LPSA15    31             23.0000000000
     16525       535  BMANNA    HO3            30.6329023801        4.3066808948      110.1287255266  LPSA15    31             23.0000000000
     16526       535  BMANNA    C4             31.9475096862        3.3972316616      107.3999975318  LPSA15    31             23.0000000000
     16527       535  BMANNA    H4             31.0394339315        2.8051382917      107.1301745928  LPSA15    31             23.0000000000
     16528       535  BMANNA    O4             32.9855024348        2.4914712046      107.7205313489  LPSA15    31             23.0000000000
     16529       535  BMANNA    HO4            33.6751268124        2.9011718210      108.2414727723  LPSA15    31             23.0000000000
     16530       535  BMANNA    C6             32.8191197485        3.3268189086      105.0425023375  LPSA15    31             23.0000000000
     16531       535  BMANNA    H61            33.7659527839        2.8048310714      105.3165801624  LPSA15    31             23.0000000000
     16532       535  BMANNA    H62            32.0653639178        2.5267212809      104.8698350783  LPSA15    31             23.0000000000
     16533       535  BMANNA    O6             33.0054006230        4.0464816721      103.8198440081  LPSA15    31             23.0000000000
     16534       535  BMANNA    HO6            33.7893686174        4.6022699568      103.8455370341  LPSA15    31             23.0000000000
     16535       536  BGLCNA    C1             29.1669484524        8.9761079851      108.6132744278  LPSA15    32             23.0000000000
     16536       536  BGLCNA    H1             29.2004159508        7.8934074032      108.4090817234  LPSA15    32             23.0000000000
     16537       536  BGLCNA    C5             27.2334009009        8.4989172493      109.9297660772  LPSA15    32             23.0000000000
     16538       536  BGLCNA    H5             27.3230057768        7.4367471707      109.5914189644  LPSA15    32             23.0000000000
     16539       536  BGLCNA    O5             27.8162982512        9.3230438268      108.9080539798  LPSA15    32             23.0000000000
     16540       536  BGLCNA    C2             29.9964747395        9.2196161332      109.8493727741  LPSA15    32             23.0000000000
     16541       536  BGLCNA    H2             29.8094925299       10.2808684905      110.1465129537  LPSA15    32             23.0000000000
     16542       536  BGLCNA    N              31.4002993958        9.0305786107      109.5578449324  LPSA15    32             23.0000000000
     16543       536  BGLCNA    HN             31.5603689431        8.3504162378      108.8636108234  LPSA15    32             23.0000000000
     16544       536  BGLCNA    C              32.4254612431        9.7169576780      110.0789008189  LPSA15    32             23.0000000000
     16545       536  BGLCNA    O              32.2952338107       10.6070937510      110.9100921101  LPSA15    32             23.0000000000
     16546       536  BGLCNA    CT             33.7689770972        9.3147043081      109.5386101355  LPSA15    32             23.0000000000
     16547       536  BGLCNA    HT1            33.5985071395        8.7599337567      108.5962619102  LPSA15    32             23.0000000000
     16548       536  BGLCNA    HT2            34.3359097030        8.6752341366      110.2408932663  LPSA15    32             23.0000000000
     16549       536  BGLCNA    HT3            34.3715047724       10.2270564374      109.3357568780  LPSA15    32             23.0000000000
     16550       536  BGLCNA    C3             29.4745811603        8.2910065769      110.9222645233  LPSA15    32             23.0000000000
     16551       536  BGLCNA    H3             29.4631334458        7.2691825567      110.4735016023  LPSA15    32             23.0000000000
     16552       536  BGLCNA    O3             30.3093238662        8.2402614204      112.0927697817  LPSA15    32             23.0000000000
     16553       536  BGLCNA    C4             28.0388348360        8.6758157530      111.2023641376  LPSA15    32             23.0000000000
     16554       536  BGLCNA    H4             28.0145219651        9.7493072033      111.5168262832  LPSA15    32             23.0000000000
     16555       536  BGLCNA    O4             27.4865416329        7.8873896679      112.2376848313  LPSA15    32             23.0000000000
     16556       536  BGLCNA    HO4            27.5627064312        8.3608721181      113.0727302676  LPSA15    32             23.0000000000
     16557       536  BGLCNA    C6             25.7453851984        8.7820691993      110.0529832749  LPSA15    32             23.0000000000
     16558       536  BGLCNA    H61            25.2480530981        8.0425056320      110.7192345455  LPSA15    32             23.0000000000
     16559       536  BGLCNA    H62            25.5889156468        9.7888434779      110.5044201458  LPSA15    32             23.0000000000
     16560       536  BGLCNA    O6             25.0923425312        8.7184497534      108.7829208394  LPSA15    32             23.0000000000
     16561       536  BGLCNA    HO6            25.4739350000        8.0222547574      108.2444454734  LPSA15    32             23.0000000000
     16562       537  AGAL      C1             30.3760044991        6.9493092325      112.6860603855  LPSA15    33             24.0000000000
     16563       537  AGAL      H1             29.4015516942        6.4259829453      112.6087355015  LPSA15    33             24.0000000000
     16564       537  AGAL      C5             32.6886904169        6.6488718253      112.2180331755  LPSA15    33             24.0000000000
     16565       537  AGAL      H5             32.6249697409        7.6963657700      111.8459551187  LPSA15    33             24.0000000000
     16566       537  AGAL      O5             31.3676000482        6.1153338312      112.0712271719  LPSA15    33             24.0000000000
     16567       537  AGAL      C2             30.7554843602        7.0879087466      114.1462755865  LPSA15    33             24.0000000000
     16568       537  AGAL      H2             30.8756359921        6.0489593306      114.5248410431  LPSA15    33             24.0000000000
     16569       537  AGAL      O2             29.6479471212        7.6538875350      114.8786732401  LPSA15    33             24.0000000000
     16570       537  AGAL      C3             32.1379367687        7.7248669014      114.3004343986  LPSA15    33             24.0000000000
     16571       537  AGAL      H3             32.1769376562        8.6819458258      113.7208054083  LPSA15    33             24.0000000000
     16572       537  AGAL      O3             32.4277941764        8.1323939259      115.6284787660  LPSA15    33             24.0000000000
     16573       537  AGAL      HO3            32.3905348037        7.3796009696      116.2312493496  LPSA15    33             24.0000000000
     16574       537  AGAL      C4             33.1675610811        6.7935951857      113.6598439793  LPSA15    33             24.0000000000
     16575       537  AGAL      H4             34.1686126978        7.2884398850      113.6664980738  LPSA15    33             24.0000000000
     16576       537  AGAL      O4             33.3458494537        5.5255738812      114.2945913985  LPSA15    33             24.0000000000
     16577       537  AGAL      HO4            32.6456019324        5.2909785095      114.9242996971  LPSA15    33             24.0000000000
     16578       537  AGAL      C6             33.6330058563        5.9749975059      111.2508148471  LPSA15    33             24.0000000000
     16579       537  AGAL      H61            33.3078796862        6.1813869710      110.2177021726  LPSA15    33             24.0000000000
     16580       537  AGAL      H62            34.5811611565        6.4828154335      111.3545081946  LPSA15    33             24.0000000000
     16581       537  AGAL      O6             33.8707654587        4.5814524464      111.4158522547  LPSA15    33             24.0000000000
     16582       537  AGAL      HO6            33.2377454503        4.0646868272      110.8843259827  LPSA15    33             24.0000000000
     16583       538  ARHM      C1             29.2956372543        6.9353233014      116.0509021780  LPSA15    34             25.0000000000
     16584       538  ARHM      H1             30.2149624184        6.7951352642      116.6525303962  LPSA15    34             25.0000000000
     16585       538  ARHM      C5             27.4972427931        5.6261426782      115.0713819874  LPSA15    34             25.0000000000
     16586       538  ARHM      H5             27.7291312109        6.0425802455      114.0684876479  LPSA15    34             25.0000000000
     16587       538  ARHM      O5             28.7151735216        5.6187164559      115.8389898441  LPSA15    34             25.0000000000
     16588       538  ARHM      C2             28.3245763251        7.8216804180      116.8099831391  LPSA15    34             25.0000000000
     16589       538  ARHM      H2             28.7401936882        8.8590707220      116.8619474792  LPSA15    34             25.0000000000
     16590       538  ARHM      O2             28.0828027701        7.3669413822      118.1680555233  LPSA15    34             25.0000000000
     16591       538  ARHM      C3             27.0291801856        7.8985659815      116.0101726282  LPSA15    34             25.0000000000
     16592       538  ARHM      H3             27.2494124879        8.3142054953      114.9961455737  LPSA15    34             25.0000000000
     16593       538  ARHM      O3             26.0748169604        8.7640874217      116.6359166583  LPSA15    34             25.0000000000
     16594       538  ARHM      HO3            25.5513095459        9.2385371744      115.9667977212  LPSA15    34             25.0000000000
     16595       538  ARHM      C4             26.4802839785        6.5006906103      115.8035630512  LPSA15    34             25.0000000000
     16596       538  ARHM      H4             26.3066155025        6.0088388531      116.7879260682  LPSA15    34             25.0000000000
     16597       538  ARHM      O4             25.2365674769        6.5396394266      115.1076733501  LPSA15    34             25.0000000000
     16598       538  ARHM      HO4            24.5376510649        6.8517215150      115.6968203460  LPSA15    34             25.0000000000
     16599       538  ARHM      C6             26.9357319630        4.1903747401      114.8442386292  LPSA15    34             25.0000000000
     16600       538  ARHM      H61            26.7212465969        3.6497331068      115.7874151744  LPSA15    34             25.0000000000
     16601       538  ARHM      H62            25.9551128944        4.2848060046      114.3326434720  LPSA15    34             25.0000000000
     16602       538  ARHM      H63            27.5811998952        3.5649916925      114.1943149365  LPSA15    34             25.0000000000
     16603       539  ARHM      C1             29.1845073554        7.2505874330      119.0478055936  LPSA15    35             26.0000000000
     16604       539  ARHM      H1             29.9237168148        8.0649755815      118.8608542078  LPSA15    35             26.0000000000
     16605       539  ARHM      C5             28.8622895982        4.8895461610      119.1934816062  LPSA15    35             26.0000000000
     16606       539  ARHM      H5             27.9975735775        4.9246786358      118.4978829209  LPSA15    35             26.0000000000
     16607       539  ARHM      O5             29.7947471816        5.9595065815      118.9371808680  LPSA15    35             26.0000000000
     16608       539  ARHM      C2             28.7080865020        7.3693641769      120.4837345086  LPSA15    35             26.0000000000
     16609       539  ARHM      H2             28.2327679475        8.3669913373      120.5474257117  LPSA15    35             26.0000000000
     16610       539  ARHM      O2             29.7749461601        7.2743663549      121.4480453490  LPSA15    35             26.0000000000
     16611       539  ARHM      C3             27.6822433035        6.3180533883      120.8229406673  LPSA15    35             26.0000000000
     16612       539  ARHM      H3             26.8263971131        6.3928004060      120.1126151183  LPSA15    35             26.0000000000
     16613       539  ARHM      O3             27.1010692481        6.5044651040      122.1197440894  LPSA15    35             26.0000000000
     16614       539  ARHM      HO3            27.7461897693        6.8296795387      122.7593347404  LPSA15    35             26.0000000000
     16615       539  ARHM      C4             28.3436639655        4.9732555447      120.6376498146  LPSA15    35             26.0000000000
     16616       539  ARHM      H4             29.2194585257        4.8553239828      121.3219349163  LPSA15    35             26.0000000000
     16617       539  ARHM      O4             27.4346863130        3.9349202023      120.9610854567  LPSA15    35             26.0000000000
     16618       539  ARHM      HO4            26.5524910309        4.0962610007      120.5974184431  LPSA15    35             26.0000000000
     16619       539  ARHM      C6             29.5743771777        3.6041443169      118.8020286861  LPSA15    35             26.0000000000
     16620       539  ARHM      H61            29.8208892644        3.5106193823      117.7323188919  LPSA15    35             26.0000000000
     16621       539  ARHM      H62            30.4940461656        3.5249919147      119.3610367329  LPSA15    35             26.0000000000
     16622       539  ARHM      H63            28.9648233570        2.7264202365      119.0070342711  LPSA15    35             26.0000000000
     16623       540  BMANNA    C1             30.6380335810        8.3880929662      121.4754005551  LPSA15    36             27.0000000000
     16624       540  BMANNA    H1             30.1084654065        9.3014119008      121.1314951669  LPSA15    36             27.0000000000
     16625       540  BMANNA    C5             32.6052228058        9.4605645635      120.6970262440  LPSA15    36             27.0000000000
     16626       540  BMANNA    H5             31.9721664377       10.3311759245      120.4141454417  LPSA15    36             27.0000000000
     16627       540  BMANNA    O5             31.7994212949        8.2546484744      120.6485642060  LPSA15    36             27.0000000000
     16628       540  BMANNA    C2             31.0774070067        8.5546839238      122.9169161299  LPSA15    36             27.0000000000
     16629       540  BMANNA    H2             30.1257810190        8.7322106749      123.4824813777  LPSA15    36             27.0000000000
     16630       540  BMANNA    N              31.7566546859        7.3886059767      123.4942672407  LPSA15    36             27.0000000000
     16631       540  BMANNA    HN             32.3319041756        6.8696676900      122.8659029275  LPSA15    36             27.0000000000
     16632       540  BMANNA    C              31.6809572404        7.1269472467      124.8194811211  LPSA15    36             27.0000000000
     16633       540  BMANNA    O              30.9228288079        7.6872089379      125.5907617390  LPSA15    36             27.0000000000
     16634       540  BMANNA    CT             32.5540402859        6.0442640211      125.3490541033  LPSA15    36             27.0000000000
     16635       540  BMANNA    HT1            33.5069189587        6.0879122915      124.8532006199  LPSA15    36             27.0000000000
     16636       540  BMANNA    HT2            32.1683864008        5.0557647234      125.1017462558  LPSA15    36             27.0000000000
     16637       540  BMANNA    HT3            32.6712232277        6.0965463801      126.4489370277  LPSA15    36             27.0000000000
     16638       540  BMANNA    C3             31.8959748621        9.8231632723      123.0202936193  LPSA15    36             27.0000000000
     16639       540  BMANNA    H3             31.2933416703       10.6932574003      122.6608419696  LPSA15    36             27.0000000000
     16640       540  BMANNA    O3             32.3217658781       10.0776453972      124.3573563908  LPSA15    36             27.0000000000
     16641       540  BMANNA    HO3            31.9549193793       10.8940391468      124.7012355777  LPSA15    36             27.0000000000
     16642       540  BMANNA    C4             33.0755469389        9.7074311888      122.1088626160  LPSA15    36             27.0000000000
     16643       540  BMANNA    H4             33.6442923426        8.8026440859      122.3718909987  LPSA15    36             27.0000000000
     16644       540  BMANNA    O4             33.9338631808       10.8341284785      122.2455556424  LPSA15    36             27.0000000000
     16645       540  BMANNA    HO4            34.0900504235       10.8797783503      123.2040494202  LPSA15    36             27.0000000000
     16646       540  BMANNA    C6             33.7510998206        9.4020399510      119.7199676008  LPSA15    36             27.0000000000
     16647       540  BMANNA    H61            33.3667626288        9.2258503718      118.6897227785  LPSA15    36             27.0000000000
     16648       540  BMANNA    H62            34.2446360426       10.4003802334      119.7015427180  LPSA15    36             27.0000000000
     16649       540  BMANNA    O6             34.7067473158        8.4061262559      120.1021345234  LPSA15    36             27.0000000000
     16650       540  BMANNA    HO6            35.4395279338        8.8214995578      120.5726951532  LPSA15    36             27.0000000000
     16651       541  ECLIPA    HB6S          -24.6368753154       14.9926357936       20.4254467361  LPSA16    1               0.0000000000
     16652       541  ECLIPA    OB6           -25.2150307714       13.4983903601       21.7163853995  LPSA16    1               0.0000000000
     16653       541  ECLIPA    CB6           -24.3091680205       13.9714067698       20.7021481930  LPSA16    1               0.0000000000
     16654       541  ECLIPA    HB6R          -23.2723526641       14.0380099560       21.1021311213  LPSA16    1               0.0000000000
     16655       541  ECLIPA    CB5           -24.2470030553       13.1216321167       19.4434700876  LPSA16    1               0.0000000000
     16656       541  ECLIPA    OB5           -25.5959549293       13.0270544555       18.9711757531  LPSA16    1               0.0000000000
     16657       541  ECLIPA    HB5           -23.8647256679       12.1201975363       19.7457746439  LPSA16    1               0.0000000000
     16658       541  ECLIPA    CB1           -25.6899191788       12.2222550880       17.8019394565  LPSA16    1               0.0000000000
     16659       541  ECLIPA    HB1           -25.3078111385       11.1889660236       17.9691438332  LPSA16    1               0.0000000000
     16660       541  ECLIPA    OA6           -26.9942233477       12.0734344256       17.4093713932  LPSA16    1               0.0000000000
     16661       541  ECLIPA    CA6           -27.8287195340       13.2149283296       17.6291748804  LPSA16    1               0.0000000000
     16662       541  ECLIPA    HA6R          -27.2899270857       14.1638439216       17.8028821723  LPSA16    1               0.0000000000
     16663       541  ECLIPA    HA6S          -28.5349798116       12.9798715476       18.4615200039  LPSA16    1               0.0000000000
     16664       541  ECLIPA    CB4           -23.3503569756       13.7018695115       18.3360451834  LPSA16    1               0.0000000000
     16665       541  ECLIPA    HB4           -23.6596249828       14.7398361018       18.0482433808  LPSA16    1               0.0000000000
     16666       541  ECLIPA    OB4           -22.0029571915       13.6314264205       18.8238479699  LPSA16    1               0.0000000000
     16667       541  ECLIPA    PB            -21.2061503122       15.0049144793       19.3049443920  LPSA16    1               0.0000000000
     16668       541  ECLIPA    OPB4          -20.3291095221       14.6464308587       20.4939461287  LPSA16    1               0.0000000000
     16669       541  ECLIPA    OPB3          -22.3585647260       15.9650034653       19.6714062220  LPSA16    1               0.0000000000
     16670       541  ECLIPA    OPB2          -20.4141081228       15.4296254029       18.0694210358  LPSA16    1               0.0000000000
     16671       541  ECLIPA    CB3           -23.4825830367       12.8311771426       17.1102513188  LPSA16    1               0.0000000000
     16672       541  ECLIPA    OB3           -22.7843043375       13.3026641331       15.9789695694  LPSA16    1               0.0000000000
     16673       541  ECLIPA    HB3           -23.2039273819       11.7792923076       17.3532048018  LPSA16    1               0.0000000000
     16674       541  ECLIPA    C71           -21.5398010104       12.9477903641       15.8207906521  LPSA16    1               0.0000000000
     16675       541  ECLIPA    O71           -21.0416755468       11.9306891203       16.2910121574  LPSA16    1               0.0000000000
     16676       541  ECLIPA    C72           -21.2067282339       13.4248205901       14.4033002129  LPSA16    1               0.0000000000
     16677       541  ECLIPA    H72R          -21.8636963957       13.0779595927       13.6040094919  LPSA16    1               0.0000000000
     16678       541  ECLIPA    H72S          -20.2058577293       12.9653844753       14.2485729017  LPSA16    1               0.0000000000
     16679       541  ECLIPA    CB2           -24.9206365344       12.8129861370       16.6676617257  LPSA16    1               0.0000000000
     16680       541  ECLIPA    HB2           -25.2592186536       13.8762902662       16.5111931180  LPSA16    1               0.0000000000
     16681       541  ECLIPA    NB2           -25.0889939144       12.0196770190       15.4503568616  LPSA16    1               0.0000000000
     16682       541  ECLIPA    HNB2          -25.2711545582       11.0527399976       15.5578186200  LPSA16    1               0.0000000000
     16683       541  ECLIPA    CA4           -28.8960208274       11.9591078778       15.9239649814  LPSA16    1               0.0000000000
     16684       541  ECLIPA    HA4           -28.0123654408       11.4052938655       15.6509787655  LPSA16    1               0.0000000000
     16685       541  ECLIPA    OA4           -29.5961455022       11.2474720009       16.9714227372  LPSA16    1               0.0000000000
     16686       541  ECLIPA    HOA4          -29.3730634134       11.5103738554       17.8603981113  LPSA16    1               0.0000000000
     16687       541  ECLIPA    CA5           -28.5702780623       13.3742687786       16.3679545393  LPSA16    1               0.0000000000
     16688       541  ECLIPA    HA5           -29.4272771907       14.0758492725       16.6017599830  LPSA16    1               0.0000000000
     16689       541  ECLIPA    OA5           -27.7086837562       14.0175647469       15.3910386804  LPSA16    1               0.0000000000
     16690       541  ECLIPA    CA1           -28.3476903524       14.1915166108       14.1203955955  LPSA16    1               0.0000000000
     16691       541  ECLIPA    HA1           -27.5028548870       14.3502942596       13.4112484933  LPSA16    1               0.0000000000
     16692       541  ECLIPA    OA1           -28.9248142018       15.4803447859       13.9386881668  LPSA16    1               0.0000000000
     16693       541  ECLIPA    OPA2          -29.5885293587       16.9059412509       15.9573408939  LPSA16    1               0.0000000000
     16694       541  ECLIPA    OPA3          -27.2359066448       16.9331464247       14.9564306198  LPSA16    1               0.0000000000
     16695       541  ECLIPA    OPA4          -29.2295490350       17.9340472499       13.6691520689  LPSA16    1               0.0000000000
     16696       541  ECLIPA    PA            -28.7236971145       16.9226737528       14.6911218333  LPSA16    1               0.0000000000
     16697       541  ECLIPA    CA3           -29.5865465006       11.9718447923       14.6771845842  LPSA16    1               0.0000000000
     16698       541  ECLIPA    HA3           -30.5629484235       12.0442077805       15.2501449501  LPSA16    1               0.0000000000
     16699       541  ECLIPA    OA3           -29.6108198030       10.6563377973       14.4015264791  LPSA16    1               0.0000000000
     16700       541  ECLIPA    C31           -29.6029148789        9.9410610109       13.4300778741  LPSA16    1               0.0000000000
     16701       541  ECLIPA    O31           -29.6844000416       10.1263957462       12.2262375667  LPSA16    1               0.0000000000
     16702       541  ECLIPA    C32           -29.5495031724        8.6862762861       14.2330427632  LPSA16    1               0.0000000000
     16703       541  ECLIPA    H32R          -30.1143647191        7.9418225418       13.6786634211  LPSA16    1               0.0000000000
     16704       541  ECLIPA    H32S          -30.0388842468        8.8205549999       15.2463110181  LPSA16    1               0.0000000000
     16705       541  ECLIPA    CA2           -28.7365614649       12.7706287989       13.5470512298  LPSA16    1               0.0000000000
     16706       541  ECLIPA    HA2           -27.8838021644       12.1282164191       13.3425089738  LPSA16    1               0.0000000000
     16707       541  ECLIPA    NA2           -29.3386772770       13.0538217903       12.1478957886  LPSA16    1               0.0000000000
     16708       541  ECLIPA    HNA2          -30.3190266518       12.8188154698       12.0122260711  LPSA16    1               0.0000000000
     16709       541  ECLIPA    C73           -21.3771922803       14.9669308578       14.2993055565  LPSA16    1               0.0000000000
     16710       541  ECLIPA    H73R          -20.7010651798       15.3389381952       15.1333767072  LPSA16    1               0.0000000000
     16711       541  ECLIPA    O73           -22.6769101877       15.3953088696       14.4801303753  LPSA16    1               0.0000000000
     16712       541  ECLIPA    C81           -22.9215737016       16.5639976008       15.0113050221  LPSA16    1               0.0000000000
     16713       541  ECLIPA    O81           -22.1793660683       17.2830378446       15.6545517620  LPSA16    1               0.0000000000
     16714       541  ECLIPA    C82           -24.1890506694       17.0458481056       14.3427144789  LPSA16    1               0.0000000000
     16715       541  ECLIPA    H82R          -24.5181160674       17.9595412197       14.8686868088  LPSA16    1               0.0000000000
     16716       541  ECLIPA    H82S          -24.9364615829       16.2492341091       14.5504407637  LPSA16    1               0.0000000000
     16717       541  ECLIPA    C83           -24.0957741757       17.2650198872       12.8112675393  LPSA16    1               0.0000000000
     16718       541  ECLIPA    H83R          -24.1941327776       16.2811679945       12.2949352568  LPSA16    1               0.0000000000
     16719       541  ECLIPA    H83S          -23.1143022198       17.7003613671       12.5419321927  LPSA16    1               0.0000000000
     16720       541  ECLIPA    C84           -25.2488771912       18.1319427402       12.2860476173  LPSA16    1               0.0000000000
     16721       541  ECLIPA    H84R          -25.1278220850       19.1887172846       12.5993484658  LPSA16    1               0.0000000000
     16722       541  ECLIPA    H84S          -26.1800407016       17.7255007228       12.7619296256  LPSA16    1               0.0000000000
     16723       541  ECLIPA    C85           -25.4392745614       18.0173646673       10.7678628366  LPSA16    1               0.0000000000
     16724       541  ECLIPA    H85R          -25.3252680657       16.9315598398       10.5438063470  LPSA16    1               0.0000000000
     16725       541  ECLIPA    H85S          -24.6245815321       18.5461618254       10.2330095167  LPSA16    1               0.0000000000
     16726       541  ECLIPA    C86           -26.8541224524       18.4100778695       10.2860270394  LPSA16    1               0.0000000000
     16727       541  ECLIPA    H86R          -26.8995141832       19.4816315486        9.9940552306  LPSA16    1               0.0000000000
     16728       541  ECLIPA    H86S          -27.5754955931       18.2841467659       11.1303832742  LPSA16    1               0.0000000000
     16729       541  ECLIPA    C87           -27.3720088281       17.4956266419        9.1579260475  LPSA16    1               0.0000000000
     16730       541  ECLIPA    H87R          -28.3543448982       17.8670220910        8.7940129947  LPSA16    1               0.0000000000
     16731       541  ECLIPA    H87S          -27.5569542175       16.4799672103        9.5744139770  LPSA16    1               0.0000000000
     16732       541  ECLIPA    C88           -26.3635823466       17.3320421773        8.0199396535  LPSA16    1               0.0000000000
     16733       541  ECLIPA    H88R          -25.5577050612       16.6438433451        8.3500973986  LPSA16    1               0.0000000000
     16734       541  ECLIPA    H88S          -25.8545066361       18.3109122275        7.8791572054  LPSA16    1               0.0000000000
     16735       541  ECLIPA    C89           -26.9836014108       16.7999937572        6.7149152699  LPSA16    1               0.0000000000
     16736       541  ECLIPA    H89R          -27.9495075702       16.2782716888        6.8956937745  LPSA16    1               0.0000000000
     16737       541  ECLIPA    H89S          -26.3133678120       16.0397856024        6.2591392330  LPSA16    1               0.0000000000
     16738       541  ECLIPA    C810          -27.1393042166       17.9364481185        5.7010215784  LPSA16    1               0.0000000000
     16739       541  ECLIPA    H810R         -26.3443134553       18.6737915162        5.9341873845  LPSA16    1               0.0000000000
     16740       541  ECLIPA    H810S         -28.1300197526       18.4155825262        5.8650255112  LPSA16    1               0.0000000000
     16741       541  ECLIPA    C811          -26.9999663323       17.4954308279        4.2405303016  LPSA16    1               0.0000000000
     16742       541  ECLIPA    H811R         -27.4843784859       18.2160783123        3.5419777578  LPSA16    1               0.0000000000
     16743       541  ECLIPA    H811S         -27.5150101847       16.5220518005        4.1848739391  LPSA16    1               0.0000000000
     16744       541  ECLIPA    C812          -25.5756602965       17.2237104390        3.7385331120  LPSA16    1               0.0000000000
     16745       541  ECLIPA    H812R         -25.6781148304       16.7774317071        2.7177879505  LPSA16    1               0.0000000000
     16746       541  ECLIPA    H812S         -25.0857763378       16.4892887434        4.4090266862  LPSA16    1               0.0000000000
     16747       541  ECLIPA    C813          -24.6584671835       18.4427117283        3.6458518252  LPSA16    1               0.0000000000
     16748       541  ECLIPA    H813R         -25.1251756469       19.1653169235        2.9430426172  LPSA16    1               0.0000000000
     16749       541  ECLIPA    H813S         -24.5610841982       18.9525158138        4.6308879797  LPSA16    1               0.0000000000
     16750       541  ECLIPA    C814          -23.2584928203       18.0805928272        3.1427072893  LPSA16    1               0.0000000000
     16751       541  ECLIPA    H814R         -23.2918690127       17.4381755013        2.2338645121  LPSA16    1               0.0000000000
     16752       541  ECLIPA    H814S         -22.7040113903       17.5312299665        3.9281257772  LPSA16    1               0.0000000000
     16753       541  ECLIPA    H814T         -22.7019226942       19.0052822531        2.8907920798  LPSA16    1               0.0000000000
     16754       541  ECLIPA    C74           -21.0594094783       15.6863360087       12.9544796642  LPSA16    1               0.0000000000
     16755       541  ECLIPA    H74R          -20.1600837766       15.4845498541       12.4320433018  LPSA16    1               0.0000000000
     16756       541  ECLIPA    H74S          -21.1272535907       16.7705876805       13.1520531391  LPSA16    1               0.0000000000
     16757       541  ECLIPA    C75           -21.4376605661       15.4455583523       11.5166547021  LPSA16    1               0.0000000000
     16758       541  ECLIPA    H75R          -21.1415569525       16.4335958574       11.0466642006  LPSA16    1               0.0000000000
     16759       541  ECLIPA    H75S          -22.4611585460       15.2663865205       11.7929589756  LPSA16    1               0.0000000000
     16760       541  ECLIPA    C76           -20.7582035743       14.3269153859       10.7171238600  LPSA16    1               0.0000000000
     16761       541  ECLIPA    H76R          -20.9937559545       13.3524483677       11.2006633253  LPSA16    1               0.0000000000
     16762       541  ECLIPA    H76S          -19.6540294927       14.4209756696       10.5504316453  LPSA16    1               0.0000000000
     16763       541  ECLIPA    C77           -21.0428402147       14.3317949236        9.2750996897  LPSA16    1               0.0000000000
     16764       541  ECLIPA    H77R          -20.4638290929       15.2021675133        8.8828978733  LPSA16    1               0.0000000000
     16765       541  ECLIPA    H77S          -22.1067161814       14.5052463805        9.1818067255  LPSA16    1               0.0000000000
     16766       541  ECLIPA    C78           -20.6861678154       12.9535517000        8.7514000428  LPSA16    1               0.0000000000
     16767       541  ECLIPA    H78R          -19.6656524525       12.7487100187        9.0192200048  LPSA16    1               0.0000000000
     16768       541  ECLIPA    H78S          -21.2454371265       12.1923191995        9.3252149904  LPSA16    1               0.0000000000
     16769       541  ECLIPA    C79           -20.9258005163       12.7267438867        7.2686687390  LPSA16    1               0.0000000000
     16770       541  ECLIPA    H79R          -21.9171308249       12.2689421791        7.1561112472  LPSA16    1               0.0000000000
     16771       541  ECLIPA    H79S          -20.1717145362       12.0441680098        6.8141376563  LPSA16    1               0.0000000000
     16772       541  ECLIPA    C710          -20.8313530882       13.9789532206        6.4402042960  LPSA16    1               0.0000000000
     16773       541  ECLIPA    H710R         -21.4509708491       14.8053840646        6.8510292739  LPSA16    1               0.0000000000
     16774       541  ECLIPA    H710S         -19.7576943554       14.2661934384        6.5263085890  LPSA16    1               0.0000000000
     16775       541  ECLIPA    C711          -21.2430166718       13.7404249517        4.9784993460  LPSA16    1               0.0000000000
     16776       541  ECLIPA    H711R         -20.5136865660       13.0282746701        4.5280168965  LPSA16    1               0.0000000000
     16777       541  ECLIPA    H711S         -22.2835379358       13.3829622628        4.9402556623  LPSA16    1               0.0000000000
     16778       541  ECLIPA    C712          -21.2687024363       15.0023347369        4.1470065663  LPSA16    1               0.0000000000
     16779       541  ECLIPA    H712R         -20.1896327641       15.0508270695        3.9164791072  LPSA16    1               0.0000000000
     16780       541  ECLIPA    H712S         -21.6659471396       15.8571142866        4.7513566535  LPSA16    1               0.0000000000
     16781       541  ECLIPA    C713          -21.7030432736       15.0478056023        2.7123211155  LPSA16    1               0.0000000000
     16782       541  ECLIPA    H713R         -22.7785446233       14.8119918957        2.7506438773  LPSA16    1               0.0000000000
     16783       541  ECLIPA    H713S         -21.5539422668       16.0785998989        2.2929369942  LPSA16    1               0.0000000000
     16784       541  ECLIPA    C714          -20.8622561752       14.1214067027        1.8453858199  LPSA16    1               0.0000000000
     16785       541  ECLIPA    H714R         -19.7907653918       14.4390205791        1.7992384184  LPSA16    1               0.0000000000
     16786       541  ECLIPA    H714S         -20.9189000377       13.0741436267        2.2102376787  LPSA16    1               0.0000000000
     16787       541  ECLIPA    H714T         -21.2711892711       14.1880241262        0.8264727483  LPSA16    1               0.0000000000
     16788       541  ECLIPA    C51           -24.9422554989       12.5550388929       14.2301307431  LPSA16    1               0.0000000000
     16789       541  ECLIPA    O51           -24.9387254689       13.7595963878       14.0630639553  LPSA16    1               0.0000000000
     16790       541  ECLIPA    C52           -24.7388171424       11.6231131678       13.0559416410  LPSA16    1               0.0000000000
     16791       541  ECLIPA    H52R          -23.6548161754       11.4102805803       12.9298771009  LPSA16    1               0.0000000000
     16792       541  ECLIPA    H52S          -25.2596461940       10.6738714542       13.2499759453  LPSA16    1               0.0000000000
     16793       541  ECLIPA    C53           -25.2807129924       12.2572562360       11.7560867681  LPSA16    1               0.0000000000
     16794       541  ECLIPA    H53R          -26.1937568265       12.8688016333       11.9760203767  LPSA16    1               0.0000000000
     16795       541  ECLIPA    O53           -25.5142888809       11.1653678535       10.8456019548  LPSA16    1               0.0000000000
     16796       541  ECLIPA    C61           -26.7675391492       10.8874928665       10.5072937821  LPSA16    1               0.0000000000
     16797       541  ECLIPA    O61           -27.7396502363       11.5238925289       10.7910314576  LPSA16    1               0.0000000000
     16798       541  ECLIPA    C62           -26.8391122886        9.6805764136        9.5810085572  LPSA16    1               0.0000000000
     16799       541  ECLIPA    H62R          -26.8080883733        8.7743233710       10.2124628883  LPSA16    1               0.0000000000
     16800       541  ECLIPA    H62S          -25.9070135030        9.7146540591        8.9929327963  LPSA16    1               0.0000000000
     16801       541  ECLIPA    C63           -28.1338797148        9.6910534755        8.7052542052  LPSA16    1               0.0000000000
     16802       541  ECLIPA    H63R          -28.2520676681       10.7063658870        8.2720324165  LPSA16    1               0.0000000000
     16803       541  ECLIPA    H63S          -29.0351960645        9.4797793811        9.3298999049  LPSA16    1               0.0000000000
     16804       541  ECLIPA    C64           -28.1330825235        8.7243119863        7.5075097033  LPSA16    1               0.0000000000
     16805       541  ECLIPA    H64R          -29.1195292029        8.7560563018        6.9884145650  LPSA16    1               0.0000000000
     16806       541  ECLIPA    H64S          -27.9793647428        7.7043759517        7.9208732482  LPSA16    1               0.0000000000
     16807       541  ECLIPA    C65           -27.0084394762        9.0834682671        6.5331030526  LPSA16    1               0.0000000000
     16808       541  ECLIPA    H65R          -26.0816630697        8.9725145634        7.1377074413  LPSA16    1               0.0000000000
     16809       541  ECLIPA    H65S          -27.0909481718       10.1456735479        6.2166689172  LPSA16    1               0.0000000000
     16810       541  ECLIPA    C66           -26.8198036246        8.2144315644        5.2791584406  LPSA16    1               0.0000000000
     16811       541  ECLIPA    H66R          -26.6766712304        7.1539013562        5.5618883566  LPSA16    1               0.0000000000
     16812       541  ECLIPA    H66S          -25.8843203242        8.5941436400        4.7980860749  LPSA16    1               0.0000000000
     16813       541  ECLIPA    C67           -27.8973665748        8.2701649810        4.2073254788  LPSA16    1               0.0000000000
     16814       541  ECLIPA    H67R          -28.9293282232        8.0886325971        4.5867974549  LPSA16    1               0.0000000000
     16815       541  ECLIPA    H67S          -27.6953723295        7.5313588280        3.3900112706  LPSA16    1               0.0000000000
     16816       541  ECLIPA    C68           -27.9790391956        9.6088248195        3.5568970936  LPSA16    1               0.0000000000
     16817       541  ECLIPA    H68R          -27.0482240241       10.0481075778        3.1312454556  LPSA16    1               0.0000000000
     16818       541  ECLIPA    H68S          -28.4170524931       10.3306231528        4.2851773293  LPSA16    1               0.0000000000
     16819       541  ECLIPA    C69           -28.7992310740        9.3661451308        2.3533292486  LPSA16    1               0.0000000000
     16820       541  ECLIPA    H69R          -29.7108217718        8.7117808278        2.4350095981  LPSA16    1               0.0000000000
     16821       541  ECLIPA    H69S          -28.1740316987        9.0161122349        1.5044848219  LPSA16    1               0.0000000000
     16822       541  ECLIPA    C610          -29.1656367621       10.6678848201        1.9009202510  LPSA16    1               0.0000000000
     16823       541  ECLIPA    H610R         -28.5755217449       11.5741778560        2.0524662947  LPSA16    1               0.0000000000
     16824       541  ECLIPA    H610S         -29.9253892381       10.9058205568        2.6806993758  LPSA16    1               0.0000000000
     16825       541  ECLIPA    C611          -29.5383883371       10.3012928405        0.4564022159  LPSA16    1               0.0000000000
     16826       541  ECLIPA    H611R         -30.3038449454        9.5057953237        0.4728622745  LPSA16    1               0.0000000000
     16827       541  ECLIPA    H611S         -29.7832835565       11.2552154628       -0.0537849502  LPSA16    1               0.0000000000
     16828       541  ECLIPA    C612          -28.8011224300       10.3510170126       -0.7208011004  LPSA16    1               0.0000000000
     16829       541  ECLIPA    H612R         -28.1796122062       11.2119231511       -0.3774495890  LPSA16    1               0.0000000000
     16830       541  ECLIPA    H612S         -28.1510291336        9.5332829766       -0.6154337692  LPSA16    1               0.0000000000
     16831       541  ECLIPA    H612T         -29.5072358425       10.4445394534       -1.6411707252  LPSA16    1               0.0000000000
     16832       541  ECLIPA    C54           -24.1843630576       13.1800706326       11.1696075231  LPSA16    1               0.0000000000
     16833       541  ECLIPA    H54R          -23.3365773100       12.5217791408       10.8823494954  LPSA16    1               0.0000000000
     16834       541  ECLIPA    H54S          -23.8407651871       13.8492951647       11.9817385414  LPSA16    1               0.0000000000
     16835       541  ECLIPA    C55           -24.5799110968       14.0554392005        9.9645787688  LPSA16    1               0.0000000000
     16836       541  ECLIPA    H55R          -23.8359774362       14.8660996619        9.8287219354  LPSA16    1               0.0000000000
     16837       541  ECLIPA    H55S          -25.5338938679       14.5741718182       10.1982347384  LPSA16    1               0.0000000000
     16838       541  ECLIPA    C56           -24.6220125126       13.2032992930        8.6893361401  LPSA16    1               0.0000000000
     16839       541  ECLIPA    H56R          -25.3217341977       12.3643918739        8.8588657882  LPSA16    1               0.0000000000
     16840       541  ECLIPA    H56S          -23.6186736856       12.7583331064        8.5037230516  LPSA16    1               0.0000000000
     16841       541  ECLIPA    C57           -25.1132763749       13.8626152350        7.4030758276  LPSA16    1               0.0000000000
     16842       541  ECLIPA    H57R          -24.5459523598       14.7907979594        7.1800428099  LPSA16    1               0.0000000000
     16843       541  ECLIPA    H57S          -26.1787471136       14.1568597465        7.5442256286  LPSA16    1               0.0000000000
     16844       541  ECLIPA    C58           -25.0267832844       12.8507861262        6.2400825974  LPSA16    1               0.0000000000
     16845       541  ECLIPA    H58R          -24.0423970133       12.3392334119        6.2176114122  LPSA16    1               0.0000000000
     16846       541  ECLIPA    H58S          -25.7656091312       12.0462348680        6.4600735246  LPSA16    1               0.0000000000
     16847       541  ECLIPA    C59           -25.2758681608       13.5088207443        4.8695949391  LPSA16    1               0.0000000000
     16848       541  ECLIPA    H59R          -24.5501688211       14.3408599120        4.7158834714  LPSA16    1               0.0000000000
     16849       541  ECLIPA    H59S          -26.2864668525       13.9613047486        4.9580682284  LPSA16    1               0.0000000000
     16850       541  ECLIPA    C510          -25.0940930909       12.5696938034        3.6493435155  LPSA16    1               0.0000000000
     16851       541  ECLIPA    H510R         -25.5903148356       11.5943226106        3.8301056613  LPSA16    1               0.0000000000
     16852       541  ECLIPA    H510S         -24.0038607724       12.3701003934        3.5187644992  LPSA16    1               0.0000000000
     16853       541  ECLIPA    C511          -25.6137062787       13.1045256219        2.3015003922  LPSA16    1               0.0000000000
     16854       541  ECLIPA    H511R         -26.7147507144       13.0002595726        2.2750807046  LPSA16    1               0.0000000000
     16855       541  ECLIPA    H511S         -25.3820970193       14.1925184907        2.2134760051  LPSA16    1               0.0000000000
     16856       541  ECLIPA    C512          -25.0526786332       12.3320976127        1.0924725088  LPSA16    1               0.0000000000
     16857       541  ECLIPA    H512R         -25.3180278204       12.8595875566        0.1483727747  LPSA16    1               0.0000000000
     16858       541  ECLIPA    H512S         -23.9431053316       12.2605059685        1.1355464821  LPSA16    1               0.0000000000
     16859       541  ECLIPA    C513          -25.6764522475       10.9983197948        0.7934392842  LPSA16    1               0.0000000000
     16860       541  ECLIPA    H513R         -26.7467014584       11.1849258043        0.6559780540  LPSA16    1               0.0000000000
     16861       541  ECLIPA    H513S         -25.5883887948       10.2642833356        1.5861071689  LPSA16    1               0.0000000000
     16862       541  ECLIPA    C514          -25.0858602879       10.4108516495       -0.4564367769  LPSA16    1               0.0000000000
     16863       541  ECLIPA    H514R         -23.9983250834       10.3384648213       -0.5253115027  LPSA16    1               0.0000000000
     16864       541  ECLIPA    H514S         -25.5934874306        9.4645345622       -0.7511868600  LPSA16    1               0.0000000000
     16865       541  ECLIPA    H514T         -25.2169188501       11.2024066550       -1.1971142430  LPSA16    1               0.0000000000
     16866       541  ECLIPA    C33           -28.0754857543        8.3283732505       14.4535672996  LPSA16    1               0.0000000000
     16867       541  ECLIPA    H33R          -28.0918378416        7.3121328303       14.8835412557  LPSA16    1               0.0000000000
     16868       541  ECLIPA    O33           -27.4577409831        9.1554992864       15.4197621519  LPSA16    1               0.0000000000
     16869       541  ECLIPA    HO33          -27.7879119053        9.0243047622       16.3149782787  LPSA16    1               0.0000000000
     16870       541  ECLIPA    C34           -27.1939441851        8.3794253325       13.1919284916  LPSA16    1               0.0000000000
     16871       541  ECLIPA    H34R          -27.1371979654        9.4278404864       12.8190881962  LPSA16    1               0.0000000000
     16872       541  ECLIPA    H34S          -27.6869436593        7.7805070496       12.4007896391  LPSA16    1               0.0000000000
     16873       541  ECLIPA    C35           -25.7588825423        7.8558130991       13.4318746793  LPSA16    1               0.0000000000
     16874       541  ECLIPA    H35R          -25.7956200374        6.7951891336       13.7520864260  LPSA16    1               0.0000000000
     16875       541  ECLIPA    H35S          -25.3059396318        8.4561988227       14.2559424458  LPSA16    1               0.0000000000
     16876       541  ECLIPA    C36           -24.8535452197        7.9656268911       12.1991485199  LPSA16    1               0.0000000000
     16877       541  ECLIPA    H36R          -25.2307235037        8.8598722378       11.6681556251  LPSA16    1               0.0000000000
     16878       541  ECLIPA    H36S          -24.9632038702        7.0839671035       11.5227327925  LPSA16    1               0.0000000000
     16879       541  ECLIPA    C37           -23.3688515695        8.2214033184       12.5229554553  LPSA16    1               0.0000000000
     16880       541  ECLIPA    H37R          -22.8759470047        7.2345785669       12.6718381418  LPSA16    1               0.0000000000
     16881       541  ECLIPA    H37S          -23.2935248313        8.7697027271       13.4884558376  LPSA16    1               0.0000000000
     16882       541  ECLIPA    C38           -22.6014881909        9.0121683738       11.4354845694  LPSA16    1               0.0000000000
     16883       541  ECLIPA    H38R          -22.8651353452       10.0916638761       11.4306493066  LPSA16    1               0.0000000000
     16884       541  ECLIPA    H38S          -21.5177436295        8.9634037638       11.6818259280  LPSA16    1               0.0000000000
     16885       541  ECLIPA    C39           -22.8701908892        8.4673077225       10.0240672937  LPSA16    1               0.0000000000
     16886       541  ECLIPA    H39R          -23.9651913105        8.4651729710        9.8224281226  LPSA16    1               0.0000000000
     16887       541  ECLIPA    H39S          -22.4773169795        7.4257961944        9.9791130020  LPSA16    1               0.0000000000
     16888       541  ECLIPA    C310          -22.2144667417        9.2348245591        8.8724290290  LPSA16    1               0.0000000000
     16889       541  ECLIPA    H310R         -21.1273133239        9.0271818409        8.9626276421  LPSA16    1               0.0000000000
     16890       541  ECLIPA    H310S         -22.3784283547       10.3287735502        8.9577531895  LPSA16    1               0.0000000000
     16891       541  ECLIPA    C311          -22.8270380171        8.8408518719        7.5151750128  LPSA16    1               0.0000000000
     16892       541  ECLIPA    H311R         -23.1001669107        7.7623071591        7.5269311555  LPSA16    1               0.0000000000
     16893       541  ECLIPA    H311S         -23.7673713169        9.4198948170        7.3648604784  LPSA16    1               0.0000000000
     16894       541  ECLIPA    C312          -21.9454688978        9.1564313838        6.3021525208  LPSA16    1               0.0000000000
     16895       541  ECLIPA    H312R         -21.3629494374       10.0828316196        6.4896889962  LPSA16    1               0.0000000000
     16896       541  ECLIPA    H312S         -21.2383998497        8.3137903086        6.1740731700  LPSA16    1               0.0000000000
     16897       541  ECLIPA    C313          -22.7568579280        9.3014174309        5.0039169179  LPSA16    1               0.0000000000
     16898       541  ECLIPA    H313R         -23.1042371794        8.2757212389        4.7474960568  LPSA16    1               0.0000000000
     16899       541  ECLIPA    H313S         -23.6604675876        9.9327564591        5.1724796283  LPSA16    1               0.0000000000
     16900       541  ECLIPA    C314          -21.9678043278        9.8661985825        3.8177471412  LPSA16    1               0.0000000000
     16901       541  ECLIPA    H314R         -21.1024102264        9.2066556502        3.5976895675  LPSA16    1               0.0000000000
     16902       541  ECLIPA    H314S         -22.6002227581        9.9280618746        2.9040896712  LPSA16    1               0.0000000000
     16903       541  ECLIPA    H314T         -21.5890897007       10.8847290212        4.0461226676  LPSA16    1               0.0000000000
     16904       541  ECLIPA    C11           -29.1597661060       14.0886148939       11.2958394841  LPSA16    1               0.0000000000
     16905       541  ECLIPA    O11           -28.1113644112       14.6398228089       11.0646052743  LPSA16    1               0.0000000000
     16906       541  ECLIPA    C12           -30.3330230873       14.5654730416       10.5691024049  LPSA16    1               0.0000000000
     16907       541  ECLIPA    H12R          -30.6515810381       15.5911971213       10.8998242016  LPSA16    1               0.0000000000
     16908       541  ECLIPA    H12S          -31.2140967605       13.9649577860       10.8455867553  LPSA16    1               0.0000000000
     16909       541  ECLIPA    C13           -29.8138796065       14.5207994517        9.1469520783  LPSA16    1               0.0000000000
     16910       541  ECLIPA    H13R          -28.8717298597       14.8695173678        8.7882992070  LPSA16    1               0.0000000000
     16911       541  ECLIPA    O13           -30.6174797818       15.7579178306        8.8376940703  LPSA16    1               0.0000000000
     16912       541  ECLIPA    HO13          -31.0333346711       15.8736900628        7.9582186144  LPSA16    1               0.0000000000
     16913       541  ECLIPA    C14           -30.0032283315       12.8837037447        8.4518795810  LPSA16    1               0.0000000000
     16914       541  ECLIPA    H14R          -30.7211542039       12.1348818811        8.8696544278  LPSA16    1               0.0000000000
     16915       541  ECLIPA    H14S          -29.0870805833       12.4286814974        8.8235890203  LPSA16    1               0.0000000000
     16916       541  ECLIPA    C15           -30.1249379924       12.3430690214        6.9220913534  LPSA16    1               0.0000000000
     16917       541  ECLIPA    H15R          -31.0911634662       12.5001915982        6.3416509540  LPSA16    1               0.0000000000
     16918       541  ECLIPA    H15S          -30.1529534215       11.2764727909        6.8721487238  LPSA16    1               0.0000000000
     16919       541  ECLIPA    C16           -28.9628747005       12.9363071788        6.1520913914  LPSA16    1               0.0000000000
     16920       541  ECLIPA    H16R          -28.1915064029       12.1747591588        6.2837804636  LPSA16    1               0.0000000000
     16921       541  ECLIPA    H16S          -28.6779213855       13.8706064599        6.6859965477  LPSA16    1               0.0000000000
     16922       541  ECLIPA    C17           -29.1853086649       13.2731181446        4.6761233851  LPSA16    1               0.0000000000
     16923       541  ECLIPA    H17R          -29.9950352159       12.5401890184        4.4142563302  LPSA16    1               0.0000000000
     16924       541  ECLIPA    H17S          -28.3556978407       13.0758413034        3.9950502315  LPSA16    1               0.0000000000
     16925       541  ECLIPA    C18           -29.4226074668       14.8100943946        4.4664510638  LPSA16    1               0.0000000000
     16926       541  ECLIPA    H18R          -30.0893871802       14.7049811226        5.2772976611  LPSA16    1               0.0000000000
     16927       541  ECLIPA    H18S          -29.1725771088       15.7093298085        4.9926831452  LPSA16    1               0.0000000000
     16928       541  ECLIPA    C19           -29.9558126973       15.3654216172        3.1519465179  LPSA16    1               0.0000000000
     16929       541  ECLIPA    H19R          -30.9004717143       15.8745197687        2.7303155573  LPSA16    1               0.0000000000
     16930       541  ECLIPA    H19S          -30.5054749234       14.6081364884        2.7917994572  LPSA16    1               0.0000000000
     16931       541  ECLIPA    C110          -29.0766640816       15.2035342149        2.3101285095  LPSA16    1               0.0000000000
     16932       541  ECLIPA    H110R         -28.3652824802       15.9382604252        2.6549090176  LPSA16    1               0.0000000000
     16933       541  ECLIPA    H110S         -28.7518371418       14.0912086075        2.2777927816  LPSA16    1               0.0000000000
     16934       541  ECLIPA    C111          -29.9379492738       15.6909626674        1.1187077286  LPSA16    1               0.0000000000
     16935       541  ECLIPA    H111R         -30.7672150820       14.9723346817        0.9286709476  LPSA16    1               0.0000000000
     16936       541  ECLIPA    H111S         -30.4060825248       16.6556538540        1.0191832309  LPSA16    1               0.0000000000
     16937       541  ECLIPA    C112          -28.9137892946       16.0248149464        0.3402593730  LPSA16    1               0.0000000000
     16938       541  ECLIPA    H112R         -28.1602914580       16.6099703711        0.8266592554  LPSA16    1               0.0000000000
     16939       541  ECLIPA    H112S         -28.6641091339       14.8375819374        0.5673956616  LPSA16    1               0.0000000000
     16940       541  ECLIPA    C113          -28.9957879399       16.7334567342       -1.2694929717  LPSA16    1               0.0000000000
     16941       541  ECLIPA    H113R         -28.8386595455       15.9835980645       -2.0374590491  LPSA16    1               0.0000000000
     16942       541  ECLIPA    H113S         -30.0457217871       16.8408550273       -1.2097454255  LPSA16    1               0.0000000000
     16943       541  ECLIPA    C114          -28.4319354854       16.4083838969       -2.7920561658  LPSA16    1               0.0000000000
     16944       541  ECLIPA    H114R         -28.0920185694       17.3262790251       -3.0621188383  LPSA16    1               0.0000000000
     16945       541  ECLIPA    H114S         -27.7572570704       15.4110493992       -3.1981331624  LPSA16    1               0.0000000000
     16946       541  ECLIPA    H114T         -28.9467159637       16.7329693810       -3.6245849790  LPSA16    1               0.0000000000
     16947       542  AKDO      C1            -23.8312329657       11.6876006373       22.4226514983  LPSA16    2               0.0000000000
     16948       542  AKDO      O11           -22.5779660304       11.7146886294       22.4009185880  LPSA16    2               0.0000000000
     16949       542  AKDO      O12           -24.5624848317       10.7170608947       22.0785015150  LPSA16    2               0.0000000000
     16950       542  AKDO      C2            -24.5589302354       12.9925226133       22.8721587476  LPSA16    2               0.0000000000
     16951       542  AKDO      C6            -24.2410669465       15.1561375859       23.8687728163  LPSA16    2               0.0000000000
     16952       542  AKDO      H6            -24.7598613840       15.5426929012       22.9534495693  LPSA16    2               0.0000000000
     16953       542  AKDO      O6            -23.6180973766       13.9296642977       23.4620647162  LPSA16    2               0.0000000000
     16954       542  AKDO      C3            -25.6403743272       12.7314330625       23.9222538800  LPSA16    2               0.0000000000
     16955       542  AKDO      H31           -25.2064638134       12.1745570711       24.7826900754  LPSA16    2               0.0000000000
     16956       542  AKDO      H32           -26.4227750330       12.0920535503       23.4511166738  LPSA16    2               0.0000000000
     16957       542  AKDO      C4            -26.2921932493       13.9964361460       24.3697474843  LPSA16    2               0.0000000000
     16958       542  AKDO      H4            -26.7124356699       14.5235049984       23.4836736409  LPSA16    2               0.0000000000
     16959       542  AKDO      O4            -27.2705019544       13.7506516376       25.3777667180  LPSA16    2               0.0000000000
     16960       542  AKDO      C5            -25.2880082444       14.9413361425       24.9662108196  LPSA16    2               0.0000000000
     16961       542  AKDO      H5            -25.8037274034       15.9274386701       25.0945485467  LPSA16    2               0.0000000000
     16962       542  AKDO      O5            -24.8478702442       14.4022083673       26.2536454538  LPSA16    2               0.0000000000
     16963       542  AKDO      C7            -23.2090133332       16.2121053919       24.1785129987  LPSA16    2               0.0000000000
     16964       542  AKDO      H7            -22.6208119145       15.9055134782       25.0719397783  LPSA16    2               0.0000000000
     16965       542  AKDO      O7            -23.8557739965       17.4817482956       24.3798839521  LPSA16    2               0.0000000000
     16966       542  AKDO      HO7           -23.8280129800       17.8571814226       23.5005698835  LPSA16    2               0.0000000000
     16967       542  AKDO      C8            -22.3138308737       16.3374509275       22.9821545187  LPSA16    2               0.0000000000
     16968       542  AKDO      H81           -21.7664701523       15.3758354222       22.8300719338  LPSA16    2               0.0000000000
     16969       542  AKDO      H82           -22.8337765510       16.5470363020       22.0395084811  LPSA16    2               0.0000000000
     16970       542  AKDO      O8            -21.4336020002       17.4277253553       23.1482508830  LPSA16    2               0.0000000000
     16971       542  AKDO      HO8           -20.6245285787       16.9569757442       22.8631565236  LPSA16    2               0.0000000000
     16972       543  AKDO      C1            -29.0567656055       14.1525001523       23.8235264401  LPSA16    3               1.0000000000
     16973       543  AKDO      O11           -29.0669128881       13.6070193671       22.6897039793  LPSA16    3               1.0000000000
     16974       543  AKDO      O12           -29.2010531766       15.3753401919       24.0950969522  LPSA16    3               1.0000000000
     16975       543  AKDO      C2            -28.5559338212       13.3120808977       25.0302952742  LPSA16    3               1.0000000000
     16976       543  AKDO      C6            -27.9540911290       11.0856771453       25.7676446837  LPSA16    3               1.0000000000
     16977       543  AKDO      H6            -26.9065874578       11.3760028145       25.9364187725  LPSA16    3               1.0000000000
     16978       543  AKDO      O6            -28.6072493962       11.8966336023       24.7399968912  LPSA16    3               1.0000000000
     16979       543  AKDO      C3            -29.2620767381       13.5274804941       26.3836198898  LPSA16    3               1.0000000000
     16980       543  AKDO      H31           -30.2610777983       13.1434422885       26.4415739304  LPSA16    3               1.0000000000
     16981       543  AKDO      H32           -29.3444760521       14.6159394414       26.6163109280  LPSA16    3               1.0000000000
     16982       543  AKDO      C4            -28.6343959827       12.7212424750       27.4433424260  LPSA16    3               1.0000000000
     16983       543  AKDO      H4            -27.5762519861       13.0034908837       27.5287092533  LPSA16    3               1.0000000000
     16984       543  AKDO      O4            -29.2871613684       12.9633733098       28.6757595021  LPSA16    3               1.0000000000
     16985       543  AKDO      HO4           -28.6621037868       13.2061793350       29.3740424017  LPSA16    3               1.0000000000
     16986       543  AKDO      C5            -28.6311969427       11.2480692727       27.0656779611  LPSA16    3               1.0000000000
     16987       543  AKDO      H5            -28.3130316168       10.6806498315       27.9419741706  LPSA16    3               1.0000000000
     16988       543  AKDO      O5            -29.7321984393       10.5296146697       26.7618540220  LPSA16    3               1.0000000000
     16989       543  AKDO      HO5           -30.3208962383       11.2483611140       26.4322570312  LPSA16    3               1.0000000000
     16990       543  AKDO      C7            -28.0325500318        9.6338782738       25.3112728740  LPSA16    3               1.0000000000
     16991       543  AKDO      H7            -29.0839323475        9.3069266086       25.0467380211  LPSA16    3               1.0000000000
     16992       543  AKDO      O7            -27.5614737772        8.7961004889       26.3715862357  LPSA16    3               1.0000000000
     16993       543  AKDO      HO7           -27.7182442610        7.8894546206       26.1325983682  LPSA16    3               1.0000000000
     16994       543  AKDO      C8            -27.2227465223        9.4782110325       24.0942536307  LPSA16    3               1.0000000000
     16995       543  AKDO      H81           -27.5743138822       10.2052744467       23.3222941816  LPSA16    3               1.0000000000
     16996       543  AKDO      H82           -26.1647733323        9.7086811977       24.3080510624  LPSA16    3               1.0000000000
     16997       543  AKDO      O8            -27.4463518443        8.1398805696       23.6388868485  LPSA16    3               1.0000000000
     16998       543  AKDO      HO8           -28.2232956647        8.2997082975       23.1297798524  LPSA16    3               1.0000000000
     16999       544  AHEP      C1            -24.4993082309       15.3444520340       27.2534154648  LPSA16    4               2.0000000000
     17000       544  AHEP      H1            -23.5078264448       15.7134873464       26.9153097627  LPSA16    4               2.0000000000
     17001       544  AHEP      C5            -26.5933505010       16.2998372373       27.9974448396  LPSA16    4               2.0000000000
     17002       544  AHEP      H5            -27.0806190605       15.4171155880       27.5191433784  LPSA16    4               2.0000000000
     17003       544  AHEP      O5            -25.3377782691       16.5060161910       27.3050910840  LPSA16    4               2.0000000000
     17004       544  AHEP      C2            -24.2426841990       14.8964581020       28.7111043237  LPSA16    4               2.0000000000
     17005       544  AHEP      H2            -23.6510150283       13.9574737370       28.6858007241  LPSA16    4               2.0000000000
     17006       544  AHEP      O2            -23.4238598538       15.8563087282       29.3776248026  LPSA16    4               2.0000000000
     17007       544  AHEP      HO2           -22.7516048900       15.4241923562       29.8951374244  LPSA16    4               2.0000000000
     17008       544  AHEP      C3            -25.5141752797       14.6248416491       29.4986636839  LPSA16    4               2.0000000000
     17009       544  AHEP      H3            -26.0793832519       13.7568297941       29.0953247008  LPSA16    4               2.0000000000
     17010       544  AHEP      O3            -25.1712067378       14.3706643422       30.8815112831  LPSA16    4               2.0000000000
     17011       544  AHEP      C4            -26.3466487515       15.8942692630       29.4578634748  LPSA16    4               2.0000000000
     17012       544  AHEP      H4            -25.8395504060       16.7460188334       29.9682787613  LPSA16    4               2.0000000000
     17013       544  AHEP      O4            -27.5965242144       15.5616638496       30.0615238998  LPSA16    4               2.0000000000
     17014       544  AHEP      P4            -28.0927053803       16.2470311218       31.4914668565  LPSA16    4               2.0000000000
     17015       544  AHEP      OP42          -28.9321217705       15.1425988508       32.1488434592  LPSA16    4               2.0000000000
     17016       544  AHEP      OP43          -28.8659597701       17.4853751819       31.0377839197  LPSA16    4               2.0000000000
     17017       544  AHEP      OP44          -26.8232457434       16.5836571093       32.2764811215  LPSA16    4               2.0000000000
     17018       544  AHEP      C6            -27.4972535613       17.5548041388       27.7926835166  LPSA16    4               2.0000000000
     17019       544  AHEP      H6            -28.5270442879       17.2187582230       28.0867519875  LPSA16    4               2.0000000000
     17020       544  AHEP      O6            -27.1944027792       18.7172310260       28.6042837521  LPSA16    4               2.0000000000
     17021       544  AHEP      HO6           -27.8438756017       18.7850960992       29.3240976021  LPSA16    4               2.0000000000
     17022       544  AHEP      C7            -27.5677527857       18.0538410241       26.3292323677  LPSA16    4               2.0000000000
     17023       544  AHEP      H71           -28.4231695384       18.7499513803       26.2010561927  LPSA16    4               2.0000000000
     17024       544  AHEP      H72           -27.7067368079       17.1854179299       25.6560793230  LPSA16    4               2.0000000000
     17025       544  AHEP      O7            -26.4463221168       18.7878273437       25.8209228378  LPSA16    4               2.0000000000
     17026       544  AHEP      HO7           -26.4041706982       19.5458255268       26.4184525046  LPSA16    4               2.0000000000
     17027       545  AHEP      C1            -25.5624809833       13.1542965144       31.4597359823  LPSA16    5               3.0000000000
     17028       545  AHEP      H1            -26.4777908755       12.7886932748       30.9614286215  LPSA16    5               3.0000000000
     17029       545  AHEP      C5            -23.3118857418       12.5935454768       31.9519484911  LPSA16    5               3.0000000000
     17030       545  AHEP      H5            -23.0442244376       13.6148094771       31.5924746975  LPSA16    5               3.0000000000
     17031       545  AHEP      O5            -24.5208760682       12.1830466273       31.2855222125  LPSA16    5               3.0000000000
     17032       545  AHEP      C2            -25.8309565226       13.3068394171       32.9654517299  LPSA16    5               3.0000000000
     17033       545  AHEP      H2            -26.5978755067       14.1133036346       33.0821035137  LPSA16    5               3.0000000000
     17034       545  AHEP      O2            -26.3857962267       12.0936351450       33.5102368005  LPSA16    5               3.0000000000
     17035       545  AHEP      HO2           -27.3145937382       12.2692169718       33.5823403440  LPSA16    5               3.0000000000
     17036       545  AHEP      C3            -24.5839950102       13.7481235881       33.7269553824  LPSA16    5               3.0000000000
     17037       545  AHEP      H3            -24.2521233586       14.7272106241       33.3092678581  LPSA16    5               3.0000000000
     17038       545  AHEP      O3            -24.7509509739       13.8708378545       35.1609402207  LPSA16    5               3.0000000000
     17039       545  AHEP      C4            -23.5201084572       12.7082237127       33.4609856952  LPSA16    5               3.0000000000
     17040       545  AHEP      H4            -23.8459558975       11.7192201012       33.8428190063  LPSA16    5               3.0000000000
     17041       545  AHEP      O4            -22.2972608528       13.1500738457       34.0541748647  LPSA16    5               3.0000000000
     17042       545  AHEP      P4            -21.5742423242       12.3172026861       35.2855855456  LPSA16    5               3.0000000000
     17043       545  AHEP      OP42          -20.4679541634       13.2495702286       35.7754587008  LPSA16    5               3.0000000000
     17044       545  AHEP      OP43          -21.0714264681       11.0565926666       34.6037274417  LPSA16    5               3.0000000000
     17045       545  AHEP      OP44          -22.6915792120       12.0967724566       36.2949164708  LPSA16    5               3.0000000000
     17046       545  AHEP      C6            -22.1967798426       11.6455073772       31.5350786752  LPSA16    5               3.0000000000
     17047       545  AHEP      H6            -21.2986665922       12.0030058677       32.0149076555  LPSA16    5               3.0000000000
     17048       545  AHEP      O6            -22.3925368829       10.3109454451       32.0161307897  LPSA16    5               3.0000000000
     17049       545  AHEP      HO6           -23.0106116987        9.8443622600       31.4800603573  LPSA16    5               3.0000000000
     17050       545  AHEP      C7            -21.8974158188       11.6902061817       30.0538650712  LPSA16    5               3.0000000000
     17051       545  AHEP      H71           -20.7886015164       11.6207519620       29.9234883945  LPSA16    5               3.0000000000
     17052       545  AHEP      H72           -22.1880503425       12.6644093237       29.6028929587  LPSA16    5               3.0000000000
     17053       545  AHEP      O7            -22.4677793889       10.5472644065       29.4157204227  LPSA16    5               3.0000000000
     17054       546  AHEP      C1            -23.6777406172       10.8386988982       28.7792154856  LPSA16    6               4.0000000000
     17055       546  AHEP      H1            -24.0420845320       11.8593820522       29.0225519769  LPSA16    6               4.0000000000
     17056       546  AHEP      C5            -23.0162215304        9.4894996712       26.9509882405  LPSA16    6               4.0000000000
     17057       546  AHEP      H5            -22.0770735015        9.2608461593       27.5096784638  LPSA16    6               4.0000000000
     17058       546  AHEP      O5            -23.4914847230       10.7845665798       27.3723494927  LPSA16    6               4.0000000000
     17059       546  AHEP      C2            -24.7224688222        9.8370974400       29.2256394213  LPSA16    6               4.0000000000
     17060       546  AHEP      H2            -24.8046405582        9.9209391804       30.3342295054  LPSA16    6               4.0000000000
     17061       546  AHEP      O2            -26.0045778179       10.2117559629       28.7500844559  LPSA16    6               4.0000000000
     17062       546  AHEP      HO2           -26.5740409005       10.5060084481       29.4691675027  LPSA16    6               4.0000000000
     17063       546  AHEP      C3            -24.2725263593        8.4268298472       28.8358225084  LPSA16    6               4.0000000000
     17064       546  AHEP      H3            -23.3221961265        8.1993288267       29.3735101757  LPSA16    6               4.0000000000
     17065       546  AHEP      O3            -25.2349083337        7.4253470443       29.2063015747  LPSA16    6               4.0000000000
     17066       546  AHEP      HO3           -25.0283758563        6.8931082503       29.9792634901  LPSA16    6               4.0000000000
     17067       546  AHEP      C4            -24.0327049080        8.4142899917       27.3212805801  LPSA16    6               4.0000000000
     17068       546  AHEP      H4            -24.9970939803        8.5937784253       26.7927628861  LPSA16    6               4.0000000000
     17069       546  AHEP      O4            -23.5118846452        7.1726964498       26.8543677524  LPSA16    6               4.0000000000
     17070       546  AHEP      HO4           -22.6186041460        7.0633368425       27.1829886401  LPSA16    6               4.0000000000
     17071       546  AHEP      C6            -22.5814038728        9.4607935478       25.4892387125  LPSA16    6               4.0000000000
     17072       546  AHEP      H6            -22.0880474502        8.4784216950       25.3151522512  LPSA16    6               4.0000000000
     17073       546  AHEP      O6            -23.6895580145        9.4773058093       24.5858675500  LPSA16    6               4.0000000000
     17074       546  AHEP      HO6           -23.6225892962       10.2506412970       23.9946799983  LPSA16    6               4.0000000000
     17075       546  AHEP      C7            -21.4971174040       10.4777222722       25.1736683023  LPSA16    6               4.0000000000
     17076       546  AHEP      H71           -21.1107890130       10.3159490157       24.1361374563  LPSA16    6               4.0000000000
     17077       546  AHEP      H72           -20.6532574456       10.3370883085       25.8843561032  LPSA16    6               4.0000000000
     17078       546  AHEP      O7            -21.9686640798       11.8140822016       25.3079920422  LPSA16    6               4.0000000000
     17079       546  AHEP      HO7           -21.8329416272       12.1050961384       26.2046527105  LPSA16    6               4.0000000000
     17080       547  AGLC      C1            -25.0909981317       15.1395867945       35.6547384453  LPSA16    7               4.0000000000
     17081       547  AGLC      H1            -24.4860252333       15.9297877188       35.1576857484  LPSA16    7               4.0000000000
     17082       547  AGLC      C5            -27.3394271624       14.4696005941       36.0972351490  LPSA16    7               4.0000000000
     17083       547  AGLC      H5            -27.0567865344       13.4290974185       35.8211701794  LPSA16    7               4.0000000000
     17084       547  AGLC      O5            -26.4682144779       15.3907658566       35.4253324554  LPSA16    7               4.0000000000
     17085       547  AGLC      C2            -24.9010005548       15.3109102300       37.1659533581  LPSA16    7               4.0000000000
     17086       547  AGLC      H2            -25.3363741674       16.2990949602       37.4288699085  LPSA16    7               4.0000000000
     17087       547  AGLC      O2            -23.5335392466       15.4012189317       37.5509403000  LPSA16    7               4.0000000000
     17088       547  AGLC      HO2           -23.1889744977       14.4866344954       37.5740732084  LPSA16    7               4.0000000000
     17089       547  AGLC      C3            -25.7068580064       14.3123880957       37.9722988693  LPSA16    7               4.0000000000
     17090       547  AGLC      H3            -25.4421904316       13.2940862631       37.6081659228  LPSA16    7               4.0000000000
     17091       547  AGLC      O3            -25.4307705201       14.3822547148       39.4015376123  LPSA16    7               4.0000000000
     17092       547  AGLC      C4            -27.1687373133       14.5898650471       37.6101832432  LPSA16    7               4.0000000000
     17093       547  AGLC      H4            -27.4343520069       15.6352582020       37.9265294430  LPSA16    7               4.0000000000
     17094       547  AGLC      O4            -28.0393970065       13.6382302363       38.2304436810  LPSA16    7               4.0000000000
     17095       547  AGLC      HO4           -28.7514006066       14.1046074126       38.7040954524  LPSA16    7               4.0000000000
     17096       547  AGLC      C6            -28.7287280716       14.6745959376       35.5106755417  LPSA16    7               4.0000000000
     17097       547  AGLC      H61           -28.6634429427       14.5370667723       34.4052926160  LPSA16    7               4.0000000000
     17098       547  AGLC      H62           -29.4783376582       13.9604955452       35.8990374690  LPSA16    7               4.0000000000
     17099       547  AGLC      O6            -29.2348192606       15.9758486209       35.7235222128  LPSA16    7               4.0000000000
     17100       547  AGLC      HO6           -29.7386058710       16.0519052575       36.5285979355  LPSA16    7               4.0000000000
     17101       548  AGLC      C1            -24.9120105656       13.1674664460       39.9224599008  LPSA16    8               5.0000000000
     17102       548  AGLC      H1            -25.4877201565       12.3132332047       39.5082381583  LPSA16    8               5.0000000000
     17103       548  AGLC      C5            -22.5727945097       13.8722821375       40.2159205167  LPSA16    8               5.0000000000
     17104       548  AGLC      H5            -22.8619212186       14.8908557352       39.8834249786  LPSA16    8               5.0000000000
     17105       548  AGLC      O5            -23.5150498650       12.9537512872       39.5998021281  LPSA16    8               5.0000000000
     17106       548  AGLC      C2            -25.0412002075       13.0652838913       41.4336993912  LPSA16    8               5.0000000000
     17107       548  AGLC      H2            -24.6962902972       12.0435013182       41.7013460670  LPSA16    8               5.0000000000
     17108       548  AGLC      O2            -26.3727582549       13.1897442090       41.9376487020  LPSA16    8               5.0000000000
     17109       548  AGLC      C3            -24.1604989160       14.0638654825       42.1277965617  LPSA16    8               5.0000000000
     17110       548  AGLC      H3            -24.4584469665       15.0701223285       41.7240481712  LPSA16    8               5.0000000000
     17111       548  AGLC      O3            -24.4565980910       14.0230461100       43.5441785077  LPSA16    8               5.0000000000
     17112       548  AGLC      C4            -22.7321394121       13.7684200730       41.7336313352  LPSA16    8               5.0000000000
     17113       548  AGLC      H4            -22.5041885256       12.7177000581       42.0331179686  LPSA16    8               5.0000000000
     17114       548  AGLC      O4            -21.8240161255       14.6190968936       42.4226190833  LPSA16    8               5.0000000000
     17115       548  AGLC      HO4           -22.1623317359       15.5208009146       42.3863146989  LPSA16    8               5.0000000000
     17116       548  AGLC      C6            -21.1093356228       13.7063575403       39.7395660432  LPSA16    8               5.0000000000
     17117       548  AGLC      H61           -21.0411620157       13.6158574851       38.6280462501  LPSA16    8               5.0000000000
     17118       548  AGLC      H62           -20.5093159842       14.6061613216       40.0158278611  LPSA16    8               5.0000000000
     17119       548  AGLC      O6            -20.4487491920       12.5938798217       40.3385192038  LPSA16    8               5.0000000000
     17120       548  AGLC      HO6           -20.0868200673       12.8458691290       41.1870695826  LPSA16    8               5.0000000000
     17121       549  AGAL      C1            -27.3513691739       12.3202517312       41.4263075619  LPSA16    9               6.0000000000
     17122       549  AGAL      H1            -27.3358511052       12.3098132983       40.3190735328  LPSA16    9               6.0000000000
     17123       549  AGAL      C5            -27.3465031688       10.8271924143       43.2915759966  LPSA16    9               6.0000000000
     17124       549  AGAL      H5            -26.6828864961       11.5897284914       43.7579874988  LPSA16    9               6.0000000000
     17125       549  AGAL      O5            -27.1857386297       10.9580813221       41.8641521747  LPSA16    9               6.0000000000
     17126       549  AGAL      C2            -28.6973447841       12.8789749875       41.8381308001  LPSA16    9               6.0000000000
     17127       549  AGAL      H2            -29.4726663164       12.2173322344       41.3845563990  LPSA16    9               6.0000000000
     17128       549  AGAL      O2            -28.8003804129       14.1717958182       41.1910642504  LPSA16    9               6.0000000000
     17129       549  AGAL      C3            -28.8049261605       12.7483635430       43.3427356915  LPSA16    9               6.0000000000
     17130       549  AGAL      H3            -28.0076821164       13.3220765222       43.8497506650  LPSA16    9               6.0000000000
     17131       549  AGAL      O3            -29.8499972289       13.4187018447       43.9545775934  LPSA16    9               6.0000000000
     17132       549  AGAL      HO3           -30.2590112016       14.0365215948       43.3109189267  LPSA16    9               6.0000000000
     17133       549  AGAL      C4            -28.7175595106       11.2583791459       43.7140388811  LPSA16    9               6.0000000000
     17134       549  AGAL      H4            -28.8743441273       11.1359993036       44.8054743179  LPSA16    9               6.0000000000
     17135       549  AGAL      O4            -29.6076563945       10.3821991288       43.0309158994  LPSA16    9               6.0000000000
     17136       549  AGAL      HO4           -29.9803951014        9.7326792263       43.6409027357  LPSA16    9               6.0000000000
     17137       549  AGAL      C6            -26.8876911990        9.4813384102       43.8650648298  LPSA16    9               6.0000000000
     17138       549  AGAL      H61           -25.8173182810        9.3450919639       43.6152055180  LPSA16    9               6.0000000000
     17139       549  AGAL      H62           -26.9805680127        9.5169133059       44.9684866809  LPSA16    9               6.0000000000
     17140       549  AGAL      O6            -27.5846054601        8.3000374492       43.4693654262  LPSA16    9               6.0000000000
     17141       549  AGAL      HO6           -27.1981484889        7.9850794917       42.6451749076  LPSA16    9               6.0000000000
     17142       550  AGAL      C1            -29.4264338348       15.3288688659       41.7050731269  LPSA16    10              7.0000000000
     17143       550  AGAL      H1            -30.5053223621       15.1314902351       41.6443865288  LPSA16    10              7.0000000000
     17144       550  AGAL      C5            -27.5926742990       16.1505300468       43.0447072113  LPSA16    10              7.0000000000
     17145       550  AGAL      H5            -27.0600741376       15.2591333709       42.6491217594  LPSA16    10              7.0000000000
     17146       550  AGAL      O5            -28.9846128374       15.7749493700       43.0235335527  LPSA16    10              7.0000000000
     17147       550  AGAL      C2            -29.2422728732       16.4806071623       40.7369766683  LPSA16    10              7.0000000000
     17148       550  AGAL      H2            -29.8365982440       17.3386169317       41.1243026451  LPSA16    10              7.0000000000
     17149       550  AGAL      O2            -29.7981373970       16.2344407352       39.4473678822  LPSA16    10              7.0000000000
     17150       550  AGAL      HO2           -30.4263050648       16.9576391321       39.2849190926  LPSA16    10              7.0000000000
     17151       550  AGAL      C3            -27.7735303775       16.8389286622       40.7046564132  LPSA16    10              7.0000000000
     17152       550  AGAL      H3            -27.2192427804       15.9051177252       40.4461024304  LPSA16    10              7.0000000000
     17153       550  AGAL      O3            -27.4480078419       17.8153690416       39.7249992954  LPSA16    10              7.0000000000
     17154       550  AGAL      HO3           -26.9901313066       17.3989971691       38.9966832287  LPSA16    10              7.0000000000
     17155       550  AGAL      C4            -27.3419743038       17.2817523249       42.0811513947  LPSA16    10              7.0000000000
     17156       550  AGAL      H4            -26.2496091510       17.4922978201       42.0832892855  LPSA16    10              7.0000000000
     17157       550  AGAL      O4            -28.0225157725       18.4569152882       42.4961280087  LPSA16    10              7.0000000000
     17158       550  AGAL      HO4           -28.9451394117       18.2195463528       42.6198426172  LPSA16    10              7.0000000000
     17159       550  AGAL      C6            -26.9471006873       16.3741821246       44.4164283612  LPSA16    10              7.0000000000
     17160       550  AGAL      H61           -27.2162985779       15.5378606112       45.0766657203  LPSA16    10              7.0000000000
     17161       550  AGAL      H62           -25.8447740058       16.3438615124       44.2659584984  LPSA16    10              7.0000000000
     17162       550  AGAL      O6            -27.2316485484       17.5962987330       45.1010101055  LPSA16    10              7.0000000000
     17163       550  AGAL      HO6           -27.7652761134       17.4091864579       45.8762707118  LPSA16    10              7.0000000000
     17164       551  BGLC      C1            -23.7030807906       13.2633846513       44.4842771331  LPSA16    11              6.0000000000
     17165       551  BGLC      H1            -22.7166897248       13.7474423934       44.6207667157  LPSA16    11              6.0000000000
     17166       551  BGLC      C5            -22.9227225588       11.0398149567       45.1237902144  LPSA16    11              6.0000000000
     17167       551  BGLC      H5            -21.9005106756       11.4199966077       45.3660742980  LPSA16    11              6.0000000000
     17168       551  BGLC      O5            -23.5856769224       11.8653211389       44.1200267884  LPSA16    11              6.0000000000
     17169       551  BGLC      C2            -24.4961270068       13.3614699624       45.7863808361  LPSA16    11              6.0000000000
     17170       551  BGLC      H2            -25.5264680575       12.9526851121       45.6405513105  LPSA16    11              6.0000000000
     17171       551  BGLC      O2            -24.6374490491       14.7265361778       46.1820452867  LPSA16    11              6.0000000000
     17172       551  BGLC      HO2           -25.5768451774       14.9038125170       46.2995859712  LPSA16    11              6.0000000000
     17173       551  BGLC      C3            -23.8698237621       12.5599856100       46.9026481274  LPSA16    11              6.0000000000
     17174       551  BGLC      H3            -22.8719060185       12.9777300579       47.1691337630  LPSA16    11              6.0000000000
     17175       551  BGLC      O3            -24.7526545902       12.5713536463       48.0476320628  LPSA16    11              6.0000000000
     17176       551  BGLC      C4            -23.7620619586       11.1258636617       46.4163739591  LPSA16    11              6.0000000000
     17177       551  BGLC      H4            -24.7835475984       10.7535649526       46.1769575856  LPSA16    11              6.0000000000
     17178       551  BGLC      O4            -23.2633286438       10.2953607049       47.4502853176  LPSA16    11              6.0000000000
     17179       551  BGLC      HO4           -23.9258494130       10.1772557806       48.1470278843  LPSA16    11              6.0000000000
     17180       551  BGLC      C6            -22.7220687902        9.6377330400       44.5239885566  LPSA16    11              6.0000000000
     17181       551  BGLC      H61           -22.5434088653        8.8637410083       45.3006755141  LPSA16    11              6.0000000000
     17182       551  BGLC      H62           -23.6142336896        9.3499258465       43.9313624461  LPSA16    11              6.0000000000
     17183       551  BGLC      O6            -21.6073610333        9.5804193951       43.6368567260  LPSA16    11              6.0000000000
     17184       551  BGLC      HO6           -20.8932098186        9.0054981689       43.9440040078  LPSA16    11              6.0000000000
     17185       552  BGLCNA    C1            -24.2597045104       12.9620813573       49.3184495658  LPSA16    12              7.0000000000
     17186       552  BGLCNA    H1            -24.2768240618       14.0723292313       49.3831766717  LPSA16    12              7.0000000000
     17187       552  BGLCNA    C5            -22.4715871251       12.9299339796       50.8823918414  LPSA16    12              7.0000000000
     17188       552  BGLCNA    H5            -22.4798871935       14.0449313233       50.9682948223  LPSA16    12              7.0000000000
     17189       552  BGLCNA    O5            -22.9403340585       12.5076795547       49.5840335220  LPSA16    12              7.0000000000
     17190       552  BGLCNA    C2            -25.1953135921       12.3552680035       50.3537230162  LPSA16    12              7.0000000000
     17191       552  BGLCNA    H2            -25.0444950984       11.2425814886       50.3045366430  LPSA16    12              7.0000000000
     17192       552  BGLCNA    N             -26.5521598193       12.7241270616       50.0552920606  LPSA16    12              7.0000000000
     17193       552  BGLCNA    HN            -26.6876409600       13.7032757494       49.9824335769  LPSA16    12              7.0000000000
     17194       552  BGLCNA    C             -27.5345008342       11.8321487745       49.9142895746  LPSA16    12              7.0000000000
     17195       552  BGLCNA    O             -27.3465252239       10.6399503823       50.0760222865  LPSA16    12              7.0000000000
     17196       552  BGLCNA    CT            -28.9027102468       12.3452915571       49.5486936673  LPSA16    12              7.0000000000
     17197       552  BGLCNA    HT1           -29.5904198475       12.2228266174       50.4072448645  LPSA16    12              7.0000000000
     17198       552  BGLCNA    HT2           -29.3271053298       11.7429184343       48.7186537940  LPSA16    12              7.0000000000
     17199       552  BGLCNA    HT3           -28.8406082917       13.4105760365       49.2496195319  LPSA16    12              7.0000000000
     17200       552  BGLCNA    C3            -24.8242503229       12.7850797701       51.7589633237  LPSA16    12              7.0000000000
     17201       552  BGLCNA    H3            -24.8956783658       13.8900148684       51.8024041129  LPSA16    12              7.0000000000
     17202       552  BGLCNA    O3            -25.7432826433       12.2619803274       52.7603608668  LPSA16    12              7.0000000000
     17203       552  BGLCNA    C4            -23.3867276109       12.3372559969       51.9629931233  LPSA16    12              7.0000000000
     17204       552  BGLCNA    H4            -23.3219064130       11.2263681893       51.8787052753  LPSA16    12              7.0000000000
     17205       552  BGLCNA    O4            -22.9412890201       12.6816949737       53.2630140100  LPSA16    12              7.0000000000
     17206       552  BGLCNA    HO4           -22.7493241149       13.6295999204       53.3019707694  LPSA16    12              7.0000000000
     17207       552  BGLCNA    C6            -21.0334315633       12.4725396669       50.9408873170  LPSA16    12              7.0000000000
     17208       552  BGLCNA    H61           -20.5712239691       12.7151722519       51.9179719109  LPSA16    12              7.0000000000
     17209       552  BGLCNA    H62           -20.9885650770       11.3700883207       50.8237990885  LPSA16    12              7.0000000000
     17210       552  BGLCNA    O6            -20.2657921105       13.0599360085       49.8889551761  LPSA16    12              7.0000000000
     17211       552  BGLCNA    HO6           -19.8833433405       13.8945694460       50.1787295651  LPSA16    12              7.0000000000
     17212       553  AGAL      C1            -26.0691957277       13.1463833781       53.8323665760  LPSA16    13              8.0000000000
     17213       553  AGAL      H1            -25.1431931620       13.6880678257       54.1448738389  LPSA16    13              8.0000000000
     17214       553  AGAL      C5            -28.3943790080       13.3834164777       53.2665566087  LPSA16    13              8.0000000000
     17215       553  AGAL      H5            -28.1681288783       12.5676256743       52.5430448878  LPSA16    13              8.0000000000
     17216       553  AGAL      O5            -27.1284605708       14.0646560745       53.4627242536  LPSA16    13              8.0000000000
     17217       553  AGAL      C2            -26.5747261572       12.4532191671       55.1057427217  LPSA16    13              8.0000000000
     17218       553  AGAL      H2            -26.8625371929       13.2843467585       55.7980102185  LPSA16    13              8.0000000000
     17219       553  AGAL      O2            -25.5346158815       11.7098754088       55.7534892258  LPSA16    13              8.0000000000
     17220       553  AGAL      C3            -27.8690812598       11.6899214136       54.8959951909  LPSA16    13              8.0000000000
     17221       553  AGAL      H3            -27.7385002593       11.0028150255       54.0270602941  LPSA16    13              8.0000000000
     17222       553  AGAL      O3            -28.2402114772       10.8893692175       56.0097345748  LPSA16    13              8.0000000000
     17223       553  AGAL      HO3           -28.5773136023       10.0298061002       55.7214811119  LPSA16    13              8.0000000000
     17224       553  AGAL      C4            -28.9301503601       12.6936785381       54.5154153584  LPSA16    13              8.0000000000
     17225       553  AGAL      H4            -29.8524752244       12.1309903285       54.2306420233  LPSA16    13              8.0000000000
     17226       553  AGAL      O4            -29.2914146041       13.6057920964       55.5657599600  LPSA16    13              8.0000000000
     17227       553  AGAL      HO4           -28.5026511298       13.9787243521       55.9860597978  LPSA16    13              8.0000000000
     17228       553  AGAL      C6            -29.4636965217       14.1784915598       52.5492225864  LPSA16    13              8.0000000000
     17229       553  AGAL      H61           -29.0388936646       14.5807108244       51.6067948078  LPSA16    13              8.0000000000
     17230       553  AGAL      H62           -30.3075674606       13.4934212820       52.3028778645  LPSA16    13              8.0000000000
     17231       553  AGAL      O6            -29.9989073527       15.2530345161       53.3071780072  LPSA16    13              8.0000000000
     17232       553  AGAL      HO6           -30.5963933797       14.9344276186       53.9972306254  LPSA16    13              8.0000000000
     17233       554  ARHM      C1            -25.0784776214       12.1932155159       57.0041742320  LPSA16    14              9.0000000000
     17234       554  ARHM      H1            -25.2088674312       13.2998638275       57.0395401119  LPSA16    14              9.0000000000
     17235       554  ARHM      C5            -23.3756929099       10.5457707261       57.1455038518  LPSA16    14              9.0000000000
     17236       554  ARHM      H5            -23.7315838884       10.1346664127       56.1766879558  LPSA16    14              9.0000000000
     17237       554  ARHM      O5            -23.6762466988       11.9532487368       57.1780048285  LPSA16    14              9.0000000000
     17238       554  ARHM      C2            -25.8624791151       11.5124479075       58.1179552168  LPSA16    14              9.0000000000
     17239       554  ARHM      H2            -26.9442853750       11.7014500612       57.9374563038  LPSA16    14              9.0000000000
     17240       554  ARHM      O2            -25.5351000101       11.8955921231       59.4727118246  LPSA16    14              9.0000000000
     17241       554  ARHM      C3            -25.5822383785       10.0294476898       58.0466222877  LPSA16    14              9.0000000000
     17242       554  ARHM      H3            -25.7840673838        9.6703631214       57.0128190235  LPSA16    14              9.0000000000
     17243       554  ARHM      O3            -26.4317682297        9.2596230906       58.8945257536  LPSA16    14              9.0000000000
     17244       554  ARHM      HO3           -26.1958393713        9.4408112691       59.8012054097  LPSA16    14              9.0000000000
     17245       554  ARHM      C4            -24.0965174208        9.8191315891       58.2766161380  LPSA16    14              9.0000000000
     17246       554  ARHM      H4            -23.7314406853       10.3442128321       59.1849693929  LPSA16    14              9.0000000000
     17247       554  ARHM      O4            -23.7359351610        8.4338234421       58.3704087131  LPSA16    14              9.0000000000
     17248       554  ARHM      HO4           -23.5606832602        8.1893255549       59.2790077895  LPSA16    14              9.0000000000
     17249       554  ARHM      C6            -21.8541642629       10.4055132525       57.2430477700  LPSA16    14              9.0000000000
     17250       554  ARHM      H61           -21.3347479426       11.1221433574       56.5737503869  LPSA16    14              9.0000000000
     17251       554  ARHM      H62           -21.5500848059       10.5710399963       58.2976657313  LPSA16    14              9.0000000000
     17252       554  ARHM      H63           -21.5204032980        9.3909336559       56.9494470255  LPSA16    14              9.0000000000
     17253       555  ARHM      C1            -25.5523105180       13.2761822714       59.7468230261  LPSA16    15             10.0000000000
     17254       555  ARHM      H1            -26.2399905398       13.7975995798       59.0397308152  LPSA16    15             10.0000000000
     17255       555  ARHM      C5            -23.2880083649       13.4130900647       60.6408704739  LPSA16    15             10.0000000000
     17256       555  ARHM      H5            -23.0330598636       12.3409681644       60.4538113580  LPSA16    15             10.0000000000
     17257       555  ARHM      O5            -24.2402459853       13.8934418455       59.6660573241  LPSA16    15             10.0000000000
     17258       555  ARHM      C2            -26.1266297351       13.4796291918       61.1372669184  LPSA16    15             10.0000000000
     17259       555  ARHM      H2            -27.0973771788       12.9276074483       61.2099468999  LPSA16    15             10.0000000000
     17260       555  ARHM      O2            -26.3502311234       14.8891478365       61.2794281763  LPSA16    15             10.0000000000
     17261       555  ARHM      C3            -25.1886045352       12.9139490315       62.1549775523  LPSA16    15             10.0000000000
     17262       555  ARHM      H3            -25.0178423518       11.8861555993       61.8674930451  LPSA16    15             10.0000000000
     17263       555  ARHM      O3            -25.8341496984       12.8628366541       63.4249446401  LPSA16    15             10.0000000000
     17264       555  ARHM      C4            -23.8562827895       13.6253522133       62.0352916068  LPSA16    15             10.0000000000
     17265       555  ARHM      H4            -24.0463204619       14.7114244713       62.1595305544  LPSA16    15             10.0000000000
     17266       555  ARHM      O4            -22.9056504786       13.2432098913       63.0169492712  LPSA16    15             10.0000000000
     17267       555  ARHM      HO4           -22.1968493984       13.8993501781       62.9885052627  LPSA16    15             10.0000000000
     17268       555  ARHM      C6            -21.9761944667       14.2106449153       60.4660872251  LPSA16    15             10.0000000000
     17269       555  ARHM      H61           -21.1347626674       13.7684327075       61.0443003088  LPSA16    15             10.0000000000
     17270       555  ARHM      H62           -21.7191186619       14.2352314789       59.3867294115  LPSA16    15             10.0000000000
     17271       555  ARHM      H63           -22.0955033076       15.2508252833       60.8220782714  LPSA16    15             10.0000000000
     17272       556  BMANNA    C1            -26.8588505348       15.3988439360       62.4822903204  LPSA16    16             11.0000000000
     17273       556  BMANNA    H1            -26.1105370703       15.2564736888       63.2867986716  LPSA16    16             11.0000000000
     17274       556  BMANNA    C5            -28.3697057056       15.2177586340       64.2210457598  LPSA16    16             11.0000000000
     17275       556  BMANNA    H5            -27.5622368114       15.1563964424       64.9685786028  LPSA16    16             11.0000000000
     17276       556  BMANNA    O5            -27.9898312586       14.7075678544       62.9433189295  LPSA16    16             11.0000000000
     17277       556  BMANNA    C2            -27.1566149215       16.8720554006       62.2972649426  LPSA16    16             11.0000000000
     17278       556  BMANNA    H2            -26.1787059390       17.3398170729       62.0223899382  LPSA16    16             11.0000000000
     17279       556  BMANNA    N             -28.1251090076       17.1920877580       61.2507204060  LPSA16    16             11.0000000000
     17280       556  BMANNA    HN            -29.0635999855       17.3058306270       61.5455888482  LPSA16    16             11.0000000000
     17281       556  BMANNA    C             -27.8119478476       17.4584318494       59.9802551677  LPSA16    16             11.0000000000
     17282       556  BMANNA    O             -26.6665883984       17.4540411781       59.5449878267  LPSA16    16             11.0000000000
     17283       556  BMANNA    CT            -28.9853455241       17.7410522837       59.0883087621  LPSA16    16             11.0000000000
     17284       556  BMANNA    HT1           -29.0687907363       18.8197295643       58.8582283403  LPSA16    16             11.0000000000
     17285       556  BMANNA    HT2           -29.9356405028       17.3939325495       59.5438225834  LPSA16    16             11.0000000000
     17286       556  BMANNA    HT3           -28.8185261902       17.1988208079       58.1378236214  LPSA16    16             11.0000000000
     17287       556  BMANNA    C3            -27.5959950484       17.4311499484       63.6356601679  LPSA16    16             11.0000000000
     17288       556  BMANNA    H3            -26.8054068068       17.2487347914       64.3933724076  LPSA16    16             11.0000000000
     17289       556  BMANNA    O3            -27.7758580350       18.8221704708       63.5292884669  LPSA16    16             11.0000000000
     17290       556  BMANNA    HO3           -27.3819937293       19.2855031743       64.2833975342  LPSA16    16             11.0000000000
     17291       556  BMANNA    C4            -28.8173414393       16.7043160302       64.1207996195  LPSA16    16             11.0000000000
     17292       556  BMANNA    H4            -29.6420853362       16.8570950966       63.3739540635  LPSA16    16             11.0000000000
     17293       556  BMANNA    O4            -29.3498496979       17.1391961633       65.3785293671  LPSA16    16             11.0000000000
     17294       556  BMANNA    HO4           -30.2952110681       16.9734229152       65.4228924728  LPSA16    16             11.0000000000
     17295       556  BMANNA    C6            -29.3489128201       14.3176706275       64.8440244284  LPSA16    16             11.0000000000
     17296       556  BMANNA    H61           -29.6402352098       14.5127587544       65.8951018439  LPSA16    16             11.0000000000
     17297       556  BMANNA    H62           -29.9295728613       14.9010613731       64.1888802528  LPSA16    16             11.0000000000
     17298       556  BMANNA    O6            -29.6728522052       13.0117008623       64.3742071484  LPSA16    16             11.0000000000
     17299       556  BMANNA    HO6           -30.5094270566       13.0007417335       63.8626912223  LPSA16    16             11.0000000000
     17300       557  BGLCNA    C1            -25.6167383003       11.6807340090       64.1469084605  LPSA16    17             11.0000000000
     17301       557  BGLCNA    H1            -24.5690061567       11.3454853033       63.9851155761  LPSA16    17             11.0000000000
     17302       557  BGLCNA    C5            -26.3286093184        9.4224049568       64.5569110593  LPSA16    17             11.0000000000
     17303       557  BGLCNA    H5            -25.3088244991        9.0171842978       64.3585739154  LPSA16    17             11.0000000000
     17304       557  BGLCNA    O5            -26.5122166102       10.6191859263       63.7758650615  LPSA16    17             11.0000000000
     17305       557  BGLCNA    C2            -25.8512530623       12.1061891766       65.5819777558  LPSA16    17             11.0000000000
     17306       557  BGLCNA    H2            -26.9183377189       12.3948964435       65.7480957066  LPSA16    17             11.0000000000
     17307       557  BGLCNA    N             -25.0446251316       13.2743349410       65.8844958865  LPSA16    17             11.0000000000
     17308       557  BGLCNA    HN            -24.2016779786       13.3529554234       65.3688979955  LPSA16    17             11.0000000000
     17309       557  BGLCNA    C             -25.2904260348       14.2031617464       66.8146588536  LPSA16    17             11.0000000000
     17310       557  BGLCNA    O             -26.3295530236       14.2793337859       67.4612039406  LPSA16    17             11.0000000000
     17311       557  BGLCNA    CT            -24.1577558183       15.1678892572       67.0435612001  LPSA16    17             11.0000000000
     17312       557  BGLCNA    HT1           -24.3262120629       16.1422556480       66.5479186576  LPSA16    17             11.0000000000
     17313       557  BGLCNA    HT2           -23.2186318865       14.7053320024       66.6781279190  LPSA16    17             11.0000000000
     17314       557  BGLCNA    HT3           -24.0417030482       15.3588565104       68.1266970657  LPSA16    17             11.0000000000
     17315       557  BGLCNA    C3            -25.5308959773       10.8933792884       66.4311621509  LPSA16    17             11.0000000000
     17316       557  BGLCNA    H3            -24.5190359808       10.5727289719       66.0913631460  LPSA16    17             11.0000000000
     17317       557  BGLCNA    O3            -25.4480520104       11.2712132666       67.8301987428  LPSA16    17             11.0000000000
     17318       557  BGLCNA    C4            -26.5112749622        9.7859952218       66.0391781404  LPSA16    17             11.0000000000
     17319       557  BGLCNA    H4            -27.5577343803       10.1701527356       66.1501238918  LPSA16    17             11.0000000000
     17320       557  BGLCNA    O4            -26.3421366189        8.6240894057       66.8528064268  LPSA16    17             11.0000000000
     17321       557  BGLCNA    HO4           -27.0819930218        8.0315305452       66.7096834418  LPSA16    17             11.0000000000
     17322       557  BGLCNA    C6            -27.3109556138        8.3306688430       64.1089660647  LPSA16    17             11.0000000000
     17323       557  BGLCNA    H61           -26.8424419923        7.3327863730       64.1676716920  LPSA16    17             11.0000000000
     17324       557  BGLCNA    H62           -28.1797925394        8.3022163332       64.7992340968  LPSA16    17             11.0000000000
     17325       557  BGLCNA    O6            -27.7958044076        8.4540988148       62.7729547493  LPSA16    17             11.0000000000
     17326       557  BGLCNA    HO6           -27.0664150836        8.5827975643       62.1669758638  LPSA16    17             11.0000000000
     17327       558  AGAL      C1            -24.4895352582       10.5940713501       68.6216074832  LPSA16    18             12.0000000000
     17328       558  AGAL      H1            -24.8551488480        9.5623151172       68.8123225302  LPSA16    18             12.0000000000
     17329       558  AGAL      C5            -22.5838220948       11.7984143185       67.8500731319  LPSA16    18             12.0000000000
     17330       558  AGAL      H5            -23.3192611807       12.4864591443       67.3983776048  LPSA16    18             12.0000000000
     17331       558  AGAL      O5            -23.2127416835       10.5071070023       67.9822931398  LPSA16    18             12.0000000000
     17332       558  AGAL      C2            -24.2244266803       11.2480792469       69.9676251532  LPSA16    18             12.0000000000
     17333       558  AGAL      H2            -23.4203638534       10.6005857520       70.3959824582  LPSA16    18             12.0000000000
     17334       558  AGAL      O2            -25.3293981888       11.1436242818       70.8651466839  LPSA16    18             12.0000000000
     17335       558  AGAL      C3            -23.6143632847       12.6442846027       69.8430422138  LPSA16    18             12.0000000000
     17336       558  AGAL      H3            -24.2604971855       13.2489294092       69.1672015485  LPSA16    18             12.0000000000
     17337       558  AGAL      O3            -23.5523570514       13.3437991354       71.0877769996  LPSA16    18             12.0000000000
     17338       558  AGAL      HO3           -23.8427073984       14.2591702588       70.9840824948  LPSA16    18             12.0000000000
     17339       558  AGAL      C4            -22.2618260130       12.4936445884       69.1685323816  LPSA16    18             12.0000000000
     17340       558  AGAL      H4            -21.8153634451       13.4888480985       68.9354200036  LPSA16    18             12.0000000000
     17341       558  AGAL      O4            -21.3324652979       11.7773534161       69.9694092104  LPSA16    18             12.0000000000
     17342       558  AGAL      HO4           -21.0603337226       12.3324830128       70.7099685062  LPSA16    18             12.0000000000
     17343       558  AGAL      C6            -21.5401600748       11.7399074549       66.7702493488  LPSA16    18             12.0000000000
     17344       558  AGAL      H61           -22.0801160658       11.4751737438       65.8322057163  LPSA16    18             12.0000000000
     17345       558  AGAL      H62           -21.0866890002       12.7455652063       66.6329200232  LPSA16    18             12.0000000000
     17346       558  AGAL      O6            -20.5358021979       10.7551550670       66.9845252876  LPSA16    18             12.0000000000
     17347       558  AGAL      HO6           -20.8118066955       10.1774146522       67.7024096088  LPSA16    18             12.0000000000
     17348       559  ARHM      C1            -24.8782896491       10.8192299160       72.1598564428  LPSA16    19             13.0000000000
     17349       559  ARHM      H1            -23.8547353281       11.2139291967       72.3439851181  LPSA16    19             13.0000000000
     17350       559  ARHM      C5            -26.0348808499        8.7453248730       72.2473247224  LPSA16    19             13.0000000000
     17351       559  ARHM      H5            -26.3880702673        8.9787805080       71.2166956866  LPSA16    19             13.0000000000
     17352       559  ARHM      O5            -24.7849593508        9.4092613184       72.4086609184  LPSA16    19             13.0000000000
     17353       559  ARHM      C2            -25.8685070601       11.4201502817       73.1139570049  LPSA16    19             13.0000000000
     17354       559  ARHM      H2            -26.0362209317       12.4993924672       72.8694436394  LPSA16    19             13.0000000000
     17355       559  ARHM      O2            -25.3804167552       11.3474201051       74.4591789435  LPSA16    19             13.0000000000
     17356       559  ARHM      C3            -27.2017475922       10.7325801184       72.9618964651  LPSA16    19             13.0000000000
     17357       559  ARHM      H3            -27.5476220255       10.8268731385       71.9034808582  LPSA16    19             13.0000000000
     17358       559  ARHM      O3            -28.1724486228       11.3609302893       73.7773554171  LPSA16    19             13.0000000000
     17359       559  ARHM      HO3           -27.8334987194       11.4011131311       74.6732259954  LPSA16    19             13.0000000000
     17360       559  ARHM      C4            -27.0465191799        9.2614027964       73.2462317924  LPSA16    19             13.0000000000
     17361       559  ARHM      H4            -26.6705020264        9.1373516891       74.2889043608  LPSA16    19             13.0000000000
     17362       559  ARHM      O4            -28.2641408865        8.5352247895       73.1366559640  LPSA16    19             13.0000000000
     17363       559  ARHM      HO4           -28.5909010523        8.6083949885       72.2355215591  LPSA16    19             13.0000000000
     17364       559  ARHM      C6            -25.8040253494        7.2312418689       72.2750233942  LPSA16    19             13.0000000000
     17365       559  ARHM      H61           -25.0768019187        7.0072915694       71.4731601159  LPSA16    19             13.0000000000
     17366       559  ARHM      H62           -25.4004445108        6.8734141131       73.2423148694  LPSA16    19             13.0000000000
     17367       559  ARHM      H63           -26.7504968320        6.6824779908       72.0763916690  LPSA16    19             13.0000000000
     17368       560  ARHM      C1            -24.3374278845       12.2609866384       74.6998857965  LPSA16    20             14.0000000000
     17369       560  ARHM      H1            -24.2353962694       12.9956782941       73.8696231874  LPSA16    20             14.0000000000
     17370       560  ARHM      C5            -22.9904844972       10.7766629058       75.9450350320  LPSA16    20             14.0000000000
     17371       560  ARHM      H5            -23.7713015117        9.9944854125       75.8047098408  LPSA16    20             14.0000000000
     17372       560  ARHM      O5            -23.0476326626       11.6532746339       74.8332379528  LPSA16    20             14.0000000000
     17373       560  ARHM      C2            -24.7083513104       13.0065424423       75.9476150644  LPSA16    20             14.0000000000
     17374       560  ARHM      H2            -25.7636817433       13.3758139267       75.8459196975  LPSA16    20             14.0000000000
     17375       560  ARHM      O2            -23.8144450822       14.0950577784       76.1654790457  LPSA16    20             14.0000000000
     17376       560  ARHM      C3            -24.6679890093       12.1055354264       77.1233785708  LPSA16    20             14.0000000000
     17377       560  ARHM      H3            -25.3806932459       11.2616664249       76.9575038422  LPSA16    20             14.0000000000
     17378       560  ARHM      O3            -25.0631203255       12.8640639237       78.2679687310  LPSA16    20             14.0000000000
     17379       560  ARHM      C4            -23.2794968579       11.5479757030       77.2286052839  LPSA16    20             14.0000000000
     17380       560  ARHM      H4            -22.4933570461       12.3368836246       77.3238771646  LPSA16    20             14.0000000000
     17381       560  ARHM      O4            -23.2076720471       10.7049697840       78.3594191193  LPSA16    20             14.0000000000
     17382       560  ARHM      HO4           -22.4903307642       10.0921541939       78.1673313975  LPSA16    20             14.0000000000
     17383       560  ARHM      C6            -21.6190963611       10.0924697845       75.8897146272  LPSA16    20             14.0000000000
     17384       560  ARHM      H61           -20.7572534029       10.7671419941       76.0699974068  LPSA16    20             14.0000000000
     17385       560  ARHM      H62           -21.6202927178        9.3059810202       76.6328503216  LPSA16    20             14.0000000000
     17386       560  ARHM      H63           -21.4605846140        9.5585714415       74.9387241420  LPSA16    20             14.0000000000
     17387       561  BMANNA    C1            -24.2231805690       15.1976038069       75.4164458046  LPSA16    21             15.0000000000
     17388       561  BMANNA    H1            -25.0449656625       14.9009636010       74.7279393386  LPSA16    21             15.0000000000
     17389       561  BMANNA    C5            -23.8159471121       16.6895228388       73.6485774929  LPSA16    21             15.0000000000
     17390       561  BMANNA    H5            -24.6869814893       16.2862931569       73.0848101696  LPSA16    21             15.0000000000
     17391       561  BMANNA    O5            -23.2419819864       15.6728815215       74.5025234295  LPSA16    21             15.0000000000
     17392       561  BMANNA    C2            -24.6906137630       16.2946315102       76.3533747878  LPSA16    21             15.0000000000
     17393       561  BMANNA    H2            -25.5434647033       15.8370089131       76.9247247118  LPSA16    21             15.0000000000
     17394       561  BMANNA    N             -23.6749931706       16.7452915770       77.3040217121  LPSA16    21             15.0000000000
     17395       561  BMANNA    HN            -22.7866257718       16.9298007466       76.9065131645  LPSA16    21             15.0000000000
     17396       561  BMANNA    C             -23.9054091119       17.0903712645       78.5888095922  LPSA16    21             15.0000000000
     17397       561  BMANNA    O             -25.0351961842       17.1809695297       79.0391651161  LPSA16    21             15.0000000000
     17398       561  BMANNA    CT            -22.7144551358       17.3679751690       79.4838128268  LPSA16    21             15.0000000000
     17399       561  BMANNA    HT1           -22.3078739245       18.3787513418       79.2839248784  LPSA16    21             15.0000000000
     17400       561  BMANNA    HT2           -21.9458899093       16.5925735252       79.3125511525  LPSA16    21             15.0000000000
     17401       561  BMANNA    HT3           -23.0240787182       17.3352615323       80.5511026469  LPSA16    21             15.0000000000
     17402       561  BMANNA    C3            -25.2771851959       17.3734603366       75.4707040827  LPSA16    21             15.0000000000
     17403       561  BMANNA    H3            -26.1269650104       16.8917161911       74.9509062343  LPSA16    21             15.0000000000
     17404       561  BMANNA    O3            -25.8135162191       18.4347942482       76.2375505178  LPSA16    21             15.0000000000
     17405       561  BMANNA    HO3           -25.0813734368       18.7930623451       76.7524184370  LPSA16    21             15.0000000000
     17406       561  BMANNA    C4            -24.2686460959       17.8562239322       74.4428673204  LPSA16    21             15.0000000000
     17407       561  BMANNA    H4            -23.3395284480       18.2401367262       74.8699949748  LPSA16    21             15.0000000000
     17408       561  BMANNA    O4            -24.7387534140       18.8644520385       73.5547875755  LPSA16    21             15.0000000000
     17409       561  BMANNA    HO4           -24.2855611109       19.6839268190       73.7899615632  LPSA16    21             15.0000000000
     17410       561  BMANNA    C6            -22.8341730143       17.1322591362       72.6382525568  LPSA16    21             15.0000000000
     17411       561  BMANNA    H61           -23.2877227568       17.7514172443       71.8564011892  LPSA16    21             15.0000000000
     17412       561  BMANNA    H62           -22.0205787586       17.7142415884       73.1234027037  LPSA16    21             15.0000000000
     17413       561  BMANNA    O6            -22.3566705191       15.9943419452       71.9923130458  LPSA16    21             15.0000000000
     17414       561  BMANNA    HO6           -21.7128628171       15.6511173944       72.6468849267  LPSA16    21             15.0000000000
     17415       562  BGLCNA    C1            -25.7961053572       12.1756532654       79.2447310973  LPSA16    22             15.0000000000
     17416       562  BGLCNA    H1            -25.5838337922       11.0866943790       79.2387796293  LPSA16    22             15.0000000000
     17417       562  BGLCNA    C5            -27.9233481942       11.7514490642       80.1422693676  LPSA16    22             15.0000000000
     17418       562  BGLCNA    H5            -27.6289985059       10.6764882143       80.1635433237  LPSA16    22             15.0000000000
     17419       562  BGLCNA    O5            -27.1915476607       12.3820615458       79.0860552664  LPSA16    22             15.0000000000
     17420       562  BGLCNA    C2            -25.3807407268       12.7852039397       80.5507312464  LPSA16    22             15.0000000000
     17421       562  BGLCNA    H2            -25.6327322354       13.8785013432       80.4987309773  LPSA16    22             15.0000000000
     17422       562  BGLCNA    N             -23.9603798651       12.6241333519       80.7240419820  LPSA16    22             15.0000000000
     17423       562  BGLCNA    HN            -23.5714457875       11.7782732698       80.3810548470  LPSA16    22             15.0000000000
     17424       562  BGLCNA    C             -23.1689219025       13.4855146400       81.3430316186  LPSA16    22             15.0000000000
     17425       562  BGLCNA    O             -23.5513090937       14.5185331628       81.8645025319  LPSA16    22             15.0000000000
     17426       562  BGLCNA    CT            -21.7309295092       13.0848328135       81.3852837928  LPSA16    22             15.0000000000
     17427       562  BGLCNA    HT1           -21.2308645846       13.5835230201       80.5306470800  LPSA16    22             15.0000000000
     17428       562  BGLCNA    HT2           -21.6544737149       11.9856939609       81.2644987570  LPSA16    22             15.0000000000
     17429       562  BGLCNA    HT3           -21.2697040136       13.3848192315       82.3524129331  LPSA16    22             15.0000000000
     17430       562  BGLCNA    C3            -26.1293062101       12.1330236849       81.6929083741  LPSA16    22             15.0000000000
     17431       562  BGLCNA    H3            -25.9486693999       11.0335766417       81.6569260870  LPSA16    22             15.0000000000
     17432       562  BGLCNA    O3            -25.5823298310       12.6681501190       82.9047172701  LPSA16    22             15.0000000000
     17433       562  BGLCNA    C4            -27.5932757937       12.3391008718       81.4851524734  LPSA16    22             15.0000000000
     17434       562  BGLCNA    H4            -27.7966026873       13.4133916048       81.4465504394  LPSA16    22             15.0000000000
     17435       562  BGLCNA    O4            -28.3953375615       11.8109228052       82.5303387208  LPSA16    22             15.0000000000
     17436       562  BGLCNA    HO4           -29.1534244267       12.3875659270       82.6640296179  LPSA16    22             15.0000000000
     17437       562  BGLCNA    C6            -29.3351635060       11.8322975699       79.7735236271  LPSA16    22             15.0000000000
     17438       562  BGLCNA    H61           -29.9913699802       11.6428375654       80.6549541365  LPSA16    22             15.0000000000
     17439       562  BGLCNA    H62           -29.6330715219       12.8512847045       79.3971298040  LPSA16    22             15.0000000000
     17440       562  BGLCNA    O6            -29.4878408176       10.7633103940       78.8279066123  LPSA16    22             15.0000000000
     17441       562  BGLCNA    HO6           -29.3434855717       11.0624685882       77.9234464662  LPSA16    22             15.0000000000
     17442       563  AGAL      C1            -25.7798888366       11.9791064111       84.1078703907  LPSA16    23             16.0000000000
     17443       563  AGAL      H1            -26.8273986379       12.1212010304       84.4531590883  LPSA16    23             16.0000000000
     17444       563  AGAL      C5            -24.1577332825       10.2633490530       83.7327591803  LPSA16    23             16.0000000000
     17445       563  AGAL      H5            -23.8468377099       10.8205321911       82.8205101923  LPSA16    23             16.0000000000
     17446       563  AGAL      O5            -25.5373690281       10.5688810266       83.9951208788  LPSA16    23             16.0000000000
     17447       563  AGAL      C2            -24.9036010138       12.5561838369       85.1920234837  LPSA16    23             16.0000000000
     17448       563  AGAL      H2            -25.1394054690       11.9777139450       86.1134224523  LPSA16    23             16.0000000000
     17449       563  AGAL      O2            -25.1978747027       13.9548127728       85.4225806976  LPSA16    23             16.0000000000
     17450       563  AGAL      C3            -23.4387319988       12.2606677247       84.8839688004  LPSA16    23             16.0000000000
     17451       563  AGAL      H3            -23.2069831673       12.6363785647       83.8660675530  LPSA16    23             16.0000000000
     17452       563  AGAL      O3            -22.5396026668       12.9386803398       85.7483251997  LPSA16    23             16.0000000000
     17453       563  AGAL      HO3           -22.8824376787       12.8575526145       86.6421454391  LPSA16    23             16.0000000000
     17454       563  AGAL      C4            -23.2411224729       10.7482528768       84.8603700460  LPSA16    23             16.0000000000
     17455       563  AGAL      H4            -22.1887733573       10.4836865773       84.6184212839  LPSA16    23             16.0000000000
     17456       563  AGAL      O4            -23.5455608828       10.1165856328       86.0996064909  LPSA16    23             16.0000000000
     17457       563  AGAL      HO4           -23.9104789433        9.2479728779       85.8615845491  LPSA16    23             16.0000000000
     17458       563  AGAL      C6            -24.0721344742        8.8033193664       83.3529747170  LPSA16    23             16.0000000000
     17459       563  AGAL      H61           -24.8823565565        8.5888530637       82.6157070818  LPSA16    23             16.0000000000
     17460       563  AGAL      H62           -23.1162193715        8.6028436802       82.8217806270  LPSA16    23             16.0000000000
     17461       563  AGAL      O6            -24.1923801315        7.9112194122       84.4657435939  LPSA16    23             16.0000000000
     17462       563  AGAL      HO6           -24.3067755449        7.0137602390       84.1239351265  LPSA16    23             16.0000000000
     17463       564  ARHM      C1            -26.2746323942       14.2763558841       86.2841408477  LPSA16    24             17.0000000000
     17464       564  ARHM      H1            -26.9409663588       13.3897660389       86.3905701749  LPSA16    24             17.0000000000
     17465       564  ARHM      C5            -26.3941846476       16.5852306529       85.6413326780  LPSA16    24             17.0000000000
     17466       564  ARHM      H5            -25.5425593409       16.3840276571       84.9466352203  LPSA16    24             17.0000000000
     17467       564  ARHM      O5            -27.1172433766       15.3506726588       85.8129831454  LPSA16    24             17.0000000000
     17468       564  ARHM      C2            -25.6522610475       14.6567472999       87.5998196015  LPSA16    24             17.0000000000
     17469       564  ARHM      H2            -24.9443806944       13.8547154239       87.9223465790  LPSA16    24             17.0000000000
     17470       564  ARHM      O2            -26.6559012509       14.8781328007       88.6000227852  LPSA16    24             17.0000000000
     17471       564  ARHM      C3            -24.8558577819       15.9265244984       87.4309944375  LPSA16    24             17.0000000000
     17472       564  ARHM      H3            -24.0928409800       15.7402350621       86.6336796931  LPSA16    24             17.0000000000
     17473       564  ARHM      O3            -24.1307925117       16.2174166535       88.6257149996  LPSA16    24             17.0000000000
     17474       564  ARHM      HO3           -24.6723305631       16.7752187339       89.1893927783  LPSA16    24             17.0000000000
     17475       564  ARHM      C4            -25.7979246502       17.0376210311       86.9662974075  LPSA16    24             17.0000000000
     17476       564  ARHM      H4            -26.6237199312       17.1574847691       87.7075680002  LPSA16    24             17.0000000000
     17477       564  ARHM      O4            -25.1568086744       18.3033742605       86.8250305630  LPSA16    24             17.0000000000
     17478       564  ARHM      HO4           -25.7218794860       19.0351209413       87.0745851555  LPSA16    24             17.0000000000
     17479       564  ARHM      C6            -27.2892150628       17.6494597166       84.9533931919  LPSA16    24             17.0000000000
     17480       564  ARHM      H61           -26.6450488505       18.3665989640       84.4136671376  LPSA16    24             17.0000000000
     17481       564  ARHM      H62           -27.9448184828       17.1720816822       84.2055946764  LPSA16    24             17.0000000000
     17482       564  ARHM      H63           -27.9180570623       18.2004711817       85.6812405638  LPSA16    24             17.0000000000
     17483       565  ARHM      C1            -27.2110473100       13.7177429404       89.1385570591  LPSA16    25             18.0000000000
     17484       565  ARHM      H1            -27.0161108104       12.8651062624       88.4572636457  LPSA16    25             18.0000000000
     17485       565  ARHM      C5            -29.0081356813       14.7628031041       90.2202582436  LPSA16    25             18.0000000000
     17486       565  ARHM      H5            -28.7176321561       15.7757401967       89.8531938343  LPSA16    25             18.0000000000
     17487       565  ARHM      O5            -28.6320600065       13.7678665173       89.2735776371  LPSA16    25             18.0000000000
     17488       565  ARHM      C2            -26.5567895775       13.4504408872       90.4576551504  LPSA16    25             18.0000000000
     17489       565  ARHM      H2            -25.4486620637       13.5457539677       90.3584158403  LPSA16    25             18.0000000000
     17490       565  ARHM      O2            -26.8943978562       12.1343692453       90.9005970463  LPSA16    25             18.0000000000
     17491       565  ARHM      C3            -26.9756295896       14.4949145432       91.4487604946  LPSA16    25             18.0000000000
     17492       565  ARHM      H3            -26.6925829814       15.5156271293       91.0818811705  LPSA16    25             18.0000000000
     17493       565  ARHM      O3            -26.3821015317       14.1926623190       92.7081616367  LPSA16    25             18.0000000000
     17494       565  ARHM      C4            -28.4381536666       14.4892748354       91.5805562091  LPSA16    25             18.0000000000
     17495       565  ARHM      H4            -28.8257136830       13.4897565190       91.9012735102  LPSA16    25             18.0000000000
     17496       565  ARHM      O4            -28.8123604663       15.4801505249       92.5293219731  LPSA16    25             18.0000000000
     17497       565  ARHM      HO4           -29.5989153313       15.1844025516       93.0013280083  LPSA16    25             18.0000000000
     17498       565  ARHM      C6            -30.4810952098       14.7304520074       90.3540266401  LPSA16    25             18.0000000000
     17499       565  ARHM      H61           -30.9820489091       14.7767084745       89.4131076060  LPSA16    25             18.0000000000
     17500       565  ARHM      H62           -30.9209459352       13.7985625510       90.7233931708  LPSA16    25             18.0000000000
     17501       565  ARHM      H63           -30.7653295073       15.6182205179       90.9742590639  LPSA16    25             18.0000000000
     17502       566  BMANNA    C1            -26.1472979119       11.1181364050       90.2779181124  LPSA16    26             19.0000000000
     17503       566  BMANNA    H1            -25.2001291111       11.5130354296       89.8558148606  LPSA16    26             19.0000000000
     17504       566  BMANNA    C5            -26.0227915569        9.4449731804       88.5860154970  LPSA16    26             19.0000000000
     17505       566  BMANNA    H5            -25.1195072274        9.9468353935       88.1773084191  LPSA16    26             19.0000000000
     17506       566  BMANNA    O5            -26.8415942600       10.4464373907       89.2165317802  LPSA16    26             19.0000000000
     17507       566  BMANNA    C2            -25.8186287608       10.1301194517       91.3505497203  LPSA16    26             19.0000000000
     17508       566  BMANNA    H2            -25.2426859969       10.7044815444       92.1255787045  LPSA16    26             19.0000000000
     17509       566  BMANNA    N             -27.0438685789        9.5513139141       91.9234124557  LPSA16    26             19.0000000000
     17510       566  BMANNA    HN            -27.6819456921        9.1539738349       91.2717476530  LPSA16    26             19.0000000000
     17511       566  BMANNA    C             -27.3198867415        9.5185237639       93.2326976218  LPSA16    26             19.0000000000
     17512       566  BMANNA    O             -26.6329936391       10.1271633792       94.0332157561  LPSA16    26             19.0000000000
     17513       566  BMANNA    CT            -28.5117001587        8.6921341551       93.6718562245  LPSA16    26             19.0000000000
     17514       566  BMANNA    HT1           -29.2385846696        8.6046745511       92.8430381826  LPSA16    26             19.0000000000
     17515       566  BMANNA    HT2           -28.9934772742        9.0308597141       94.6090885995  LPSA16    26             19.0000000000
     17516       566  BMANNA    HT3           -28.1666509450        7.6933748077       93.9450218069  LPSA16    26             19.0000000000
     17517       566  BMANNA    C3            -24.8761240962        9.1131352122       90.7378446233  LPSA16    26             19.0000000000
     17518       566  BMANNA    H3            -23.9836860154        9.6379629233       90.3217373974  LPSA16    26             19.0000000000
     17519       566  BMANNA    O3            -24.3733072606        8.2294078178       91.7213489779  LPSA16    26             19.0000000000
     17520       566  BMANNA    HO3           -23.7395877892        8.6921224388       92.2819021407  LPSA16    26             19.0000000000
     17521       566  BMANNA    C4            -25.5877574588        8.4019566358       89.6051346382  LPSA16    26             19.0000000000
     17522       566  BMANNA    H4            -26.4969964341        7.8966434272       89.9833537886  LPSA16    26             19.0000000000
     17523       566  BMANNA    O4            -24.7646884607        7.4097446327       88.9906924063  LPSA16    26             19.0000000000
     17524       566  BMANNA    HO4           -24.7611792679        6.6545555537       89.5855688559  LPSA16    26             19.0000000000
     17525       566  BMANNA    C6            -26.8131667001        8.9004666655       87.3998390741  LPSA16    26             19.0000000000
     17526       566  BMANNA    H61           -27.3656903026        9.7373819653       86.9167091924  LPSA16    26             19.0000000000
     17527       566  BMANNA    H62           -26.1279689774        8.4801385403       86.6333497417  LPSA16    26             19.0000000000
     17528       566  BMANNA    O6            -27.7434917897        7.8786357169       87.7607670907  LPSA16    26             19.0000000000
     17529       566  BMANNA    HO6           -27.2420014366        7.1446038321       88.0998614752  LPSA16    26             19.0000000000
     17530       567  BGLCNA    C1            -25.9219291582       15.2658314742       93.4721261458  LPSA16    27             19.0000000000
     17531       567  BGLCNA    H1            -26.5868526391       16.1571102914       93.4243192173  LPSA16    27             19.0000000000
     17532       567  BGLCNA    C5            -24.0986129302       16.6781403801       93.9104835953  LPSA16    27             19.0000000000
     17533       567  BGLCNA    H5            -24.8296939839       17.5257346543       93.9408730936  LPSA16    27             19.0000000000
     17534       567  BGLCNA    O5            -24.6145340587       15.6485939141       93.0618546078  LPSA16    27             19.0000000000
     17535       567  BGLCNA    C2            -25.8713300012       14.6836831277       94.8681115233  LPSA16    27             19.0000000000
     17536       567  BGLCNA    H2            -25.1350214061       13.8360918274       94.8366300344  LPSA16    27             19.0000000000
     17537       567  BGLCNA    N             -27.1668700870       14.1646174932       95.3000894181  LPSA16    27             19.0000000000
     17538       567  BGLCNA    HN            -27.9582387364       14.7184741091       95.0621761575  LPSA16    27             19.0000000000
     17539       567  BGLCNA    C             -27.2530958888       12.9838382148       95.9603668267  LPSA16    27             19.0000000000
     17540       567  BGLCNA    O             -26.2770412116       12.4837947661       96.5046223392  LPSA16    27             19.0000000000
     17541       567  BGLCNA    CT            -28.5909551830       12.2913995430       95.9931619075  LPSA16    27             19.0000000000
     17542       567  BGLCNA    HT1           -29.3097039165       12.8138174540       95.3495982718  LPSA16    27             19.0000000000
     17543       567  BGLCNA    HT2           -29.0028785889       12.2520058686       97.0125536316  LPSA16    27             19.0000000000
     17544       567  BGLCNA    HT3           -28.4597005572       11.2367419500       95.6651741624  LPSA16    27             19.0000000000
     17545       567  BGLCNA    C3            -25.3321536051       15.7015904434       95.8209598393  LPSA16    27             19.0000000000
     17546       567  BGLCNA    H3            -26.0014747947       16.5954041054       95.7688444801  LPSA16    27             19.0000000000
     17547       567  BGLCNA    O3            -25.4016640276       15.0794830348       97.1265770132  LPSA16    27             19.0000000000
     17548       567  BGLCNA    C4            -23.9658587212       16.1358763904       95.3340832572  LPSA16    27             19.0000000000
     17549       567  BGLCNA    H4            -23.2647332144       15.2733993967       95.3244340835  LPSA16    27             19.0000000000
     17550       567  BGLCNA    O4            -23.4093395349       17.1204380327       96.1785680078  LPSA16    27             19.0000000000
     17551       567  BGLCNA    HO4           -23.9194584278       17.9276156417       96.0853943261  LPSA16    27             19.0000000000
     17552       567  BGLCNA    C6            -22.8328799576       17.2203064419       93.2911035355  LPSA16    27             19.0000000000
     17553       567  BGLCNA    H61           -22.5752192633       18.1329698908       93.8297103663  LPSA16    27             19.0000000000
     17554       567  BGLCNA    H62           -22.0024126950       16.4985951102       93.4282737826  LPSA16    27             19.0000000000
     17555       567  BGLCNA    O6            -22.9823301834       17.5967143747       91.9155453629  LPSA16    27             19.0000000000
     17556       567  BGLCNA    HO6           -22.1370263776       17.8345837244       91.5122513462  LPSA16    27             19.0000000000
     17557       568  AGAL      C1            -25.3239474189       15.9236410851       98.2399648231  LPSA16    28             20.0000000000
     17558       568  AGAL      H1            -24.2794678684       16.2949567856       98.3239575033  LPSA16    28             20.0000000000
     17559       568  AGAL      C5            -27.5879418632       16.7024198343       98.1218372269  LPSA16    28             20.0000000000
     17560       568  AGAL      H5            -27.7912021601       15.8348742981       97.4367516022  LPSA16    28             20.0000000000
     17561       568  AGAL      O5            -26.1889666618       17.0631812643       98.0290734681  LPSA16    28             20.0000000000
     17562       568  AGAL      C2            -25.6394158693       15.2860303630       99.6149874574  LPSA16    28             20.0000000000
     17563       568  AGAL      H2            -25.4943396243       16.1565743638      100.2965687915  LPSA16    28             20.0000000000
     17564       568  AGAL      O2            -24.7904688708       14.2455579079      100.1146126941  LPSA16    28             20.0000000000
     17565       568  AGAL      C3            -27.0876125310       14.8834469734       99.6957453357  LPSA16    28             20.0000000000
     17566       568  AGAL      H3            -27.3191584333       14.1924446113       98.8494788312  LPSA16    28             20.0000000000
     17567       568  AGAL      O3            -27.5215724796       14.1953613675      100.8730360816  LPSA16    28             20.0000000000
     17568       568  AGAL      HO3           -27.8023108986       13.3094335567      100.6213116570  LPSA16    28             20.0000000000
     17569       568  AGAL      C4            -27.8663615658       16.1420316588       99.4950442116  LPSA16    28             20.0000000000
     17570       568  AGAL      H4            -28.8912346831       15.8379843448       99.5280637995  LPSA16    28             20.0000000000
     17571       568  AGAL      O4            -27.6942247613       17.0963734175      100.5325127325  LPSA16    28             20.0000000000
     17572       568  AGAL      HO4           -28.5237789918       17.1184925662      101.0336189768  LPSA16    28             20.0000000000
     17573       568  AGAL      C6            -28.5404359062       17.8043786362       97.6477290828  LPSA16    28             20.0000000000
     17574       568  AGAL      H61           -28.3504506352       17.9455491986       96.5619239451  LPSA16    28             20.0000000000
     17575       568  AGAL      H62           -29.6115054947       17.5219386560       97.7636989662  LPSA16    28             20.0000000000
     17576       568  AGAL      O6            -28.3916841364       19.0666752201       98.2912304407  LPSA16    28             20.0000000000
     17577       568  AGAL      HO6           -27.5812522503       19.4555559457       97.9673333149  LPSA16    28             20.0000000000
     17578       569  ARHM      C1            -24.5494909170       14.4423535577      101.4934954350  LPSA16    29             21.0000000000
     17579       569  ARHM      H1            -25.3849301895       14.9963026069      101.9670103239  LPSA16    29             21.0000000000
     17580       569  ARHM      C5            -22.2115947454       14.5041175412      101.1422524494  LPSA16    29             21.0000000000
     17581       569  ARHM      H5            -22.4214417450       14.3165450158      100.0616414703  LPSA16    29             21.0000000000
     17582       569  ARHM      O5            -23.3370385105       15.1688560070      101.7150504648  LPSA16    29             21.0000000000
     17583       569  ARHM      C2            -24.4575240034       13.1072323713      102.1699779408  LPSA16    29             21.0000000000
     17584       569  ARHM      H2            -25.3831007329       12.5332947564      101.9163454619  LPSA16    29             21.0000000000
     17585       569  ARHM      O2            -24.3306469073       13.2656160192      103.6056183260  LPSA16    29             21.0000000000
     17586       569  ARHM      C3            -23.2847977954       12.3524078017      101.6083069878  LPSA16    29             21.0000000000
     17587       569  ARHM      H3            -23.4255982801       12.2031926237      100.5107910030  LPSA16    29             21.0000000000
     17588       569  ARHM      O3            -23.2289314266       11.0747739631      102.2162066815  LPSA16    29             21.0000000000
     17589       569  ARHM      HO3           -22.3120480299       10.7837746051      102.1917144569  LPSA16    29             21.0000000000
     17590       569  ARHM      C4            -22.0061790354       13.1523891673      101.8116209612  LPSA16    29             21.0000000000
     17591       569  ARHM      H4            -21.8354797096       13.3025977956      102.9021050559  LPSA16    29             21.0000000000
     17592       569  ARHM      O4            -20.8337215102       12.5020686423      101.3211706778  LPSA16    29             21.0000000000
     17593       569  ARHM      HO4           -20.9490985072       12.0474655450      100.4816296942  LPSA16    29             21.0000000000
     17594       569  ARHM      C6            -21.0828563382       15.5343108489      101.2207712638  LPSA16    29             21.0000000000
     17595       569  ARHM      H61           -21.4653111690       16.4806222423      100.7698095449  LPSA16    29             21.0000000000
     17596       569  ARHM      H62           -20.7869509942       15.7411765675      102.2692799088  LPSA16    29             21.0000000000
     17597       569  ARHM      H63           -20.2022151452       15.1978617152      100.6379512264  LPSA16    29             21.0000000000
     17598       570  ARHM      C1            -25.5177867609       13.1727548410      104.3656530188  LPSA16    30             22.0000000000
     17599       570  ARHM      H1            -26.0210103471       12.1973198945      104.1591029830  LPSA16    30             22.0000000000
     17600       570  ARHM      C5            -25.9041747444       15.5333449900      104.4932795566  LPSA16    30             22.0000000000
     17601       570  ARHM      H5            -24.9620543939       15.6409098796      103.9118795490  LPSA16    30             22.0000000000
     17602       570  ARHM      O5            -26.4487344788       14.2526118336      104.1567944194  LPSA16    30             22.0000000000
     17603       570  ARHM      C2            -25.1240732545       13.2122120496      105.8189916594  LPSA16    30             22.0000000000
     17604       570  ARHM      H2            -24.3667402558       12.4254286317      106.0257085642  LPSA16    30             22.0000000000
     17605       570  ARHM      O2            -26.3074707799       13.0396599785      106.5937756159  LPSA16    30             22.0000000000
     17606       570  ARHM      C3            -24.5275872847       14.5397372629      106.2216328810  LPSA16    30             22.0000000000
     17607       570  ARHM      H3            -23.6843637695       14.7248044402      105.5149275972  LPSA16    30             22.0000000000
     17608       570  ARHM      O3            -23.9559921676       14.4765038938      107.5417809571  LPSA16    30             22.0000000000
     17609       570  ARHM      C4            -25.5522738339       15.6130389188      105.9602267287  LPSA16    30             22.0000000000
     17610       570  ARHM      H4            -26.4741833519       15.4390596350      106.5528320243  LPSA16    30             22.0000000000
     17611       570  ARHM      O4            -25.1430691376       16.9169053380      106.3198345515  LPSA16    30             22.0000000000
     17612       570  ARHM      HO4           -24.5156393731       17.3022531035      105.6911096362  LPSA16    30             22.0000000000
     17613       570  ARHM      C6            -26.8696798131       16.6418443125      104.0545524370  LPSA16    30             22.0000000000
     17614       570  ARHM      H61           -26.3796599965       17.6266142266      104.2173088678  LPSA16    30             22.0000000000
     17615       570  ARHM      H62           -27.0626531042       16.5548652402      102.9694312866  LPSA16    30             22.0000000000
     17616       570  ARHM      H63           -27.8226595272       16.5928113176      104.6189294426  LPSA16    30             22.0000000000
     17617       571  BMANNA    C1            -26.6444190816       11.7377476137      106.9122721023  LPSA16    31             23.0000000000
     17618       571  BMANNA    H1            -25.7480469396       11.2141466994      107.2440055475  LPSA16    31             23.0000000000
     17619       571  BMANNA    C5            -27.7319137865        9.7296397630      106.2064251059  LPSA16    31             23.0000000000
     17620       571  BMANNA    H5            -26.7878506411        9.2274124396      106.5050001473  LPSA16    31             23.0000000000
     17621       571  BMANNA    O5            -27.3694369135       11.0790399896      105.8684201827  LPSA16    31             23.0000000000
     17622       571  BMANNA    C2            -27.4988919048       11.8426280393      108.1184904921  LPSA16    31             23.0000000000
     17623       571  BMANNA    H2            -26.8422002159       12.2158527373      108.9319602832  LPSA16    31             23.0000000000
     17624       571  BMANNA    N             -28.4814873002       12.8834961583      107.9902711125  LPSA16    31             23.0000000000
     17625       571  BMANNA    HN            -28.8125166554       12.9587212326      107.0234515563  LPSA16    31             23.0000000000
     17626       571  BMANNA    C             -28.9580401045       13.5932469875      109.0935293347  LPSA16    31             23.0000000000
     17627       571  BMANNA    O             -28.6975018568       13.1791966795      110.1964958960  LPSA16    31             23.0000000000
     17628       571  BMANNA    CT            -29.8303395012       14.8869783423      109.0205608910  LPSA16    31             23.0000000000
     17629       571  BMANNA    HT1           -29.8958049018       14.6206154876      108.0473716653  LPSA16    31             23.0000000000
     17630       571  BMANNA    HT2           -29.7924677301       15.6683440045      108.2463553820  LPSA16    31             23.0000000000
     17631       571  BMANNA    HT3           -30.8722547445       14.7371591618      109.3822972080  LPSA16    31             23.0000000000
     17632       571  BMANNA    C3            -27.8975251347       10.4303793581      108.5043417536  LPSA16    31             23.0000000000
     17633       571  BMANNA    H3            -26.9691514030        9.8295191483      108.6630800057  LPSA16    31             23.0000000000
     17634       571  BMANNA    O3            -28.5086511918       10.4188105236      109.7643856082  LPSA16    31             23.0000000000
     17635       571  BMANNA    HO3           -28.4120365735       11.3205264351      110.1134302480  LPSA16    31             23.0000000000
     17636       571  BMANNA    C4            -28.6589324353        9.7414988257      107.4012226822  LPSA16    31             23.0000000000
     17637       571  BMANNA    H4            -29.5797546205       10.3101465390      107.1273668405  LPSA16    31             23.0000000000
     17638       571  BMANNA    O4            -29.0357361199        8.4011804682      107.7122663882  LPSA16    31             23.0000000000
     17639       571  BMANNA    HO4           -28.3476040677        7.9901613143      108.2428071907  LPSA16    31             23.0000000000
     17640       571  BMANNA    C6            -28.3277756143        8.9388927220      105.0577570065  LPSA16    31             23.0000000000
     17641       571  BMANNA    H61           -28.3830083467        7.8633642922      105.3277893570  LPSA16    31             23.0000000000
     17642       571  BMANNA    H62           -29.3736842564        9.2699523039      104.8858850420  LPSA16    31             23.0000000000
     17643       571  BMANNA    O6            -27.6137946776        9.0764045471      103.8322568075  LPSA16    31             23.0000000000
     17644       571  BMANNA    HO6           -26.7384538399        8.6790377577      103.8228624926  LPSA16    31             23.0000000000
     17645       572  BGLCNA    C1            -24.8459364187       14.6793505167      108.6144993694  LPSA16    32             23.0000000000
     17646       572  BGLCNA    H1            -25.8061649503       14.1782108684      108.4118889713  LPSA16    32             23.0000000000
     17647       572  BGLCNA    C5            -26.1135574134       16.2151802436      109.9261129105  LPSA16    32             23.0000000000
     17648       572  BGLCNA    H5            -27.0289877202       15.6689952350      109.5918417310  LPSA16    32             23.0000000000
     17649       572  BGLCNA    O5            -25.1236393272       16.0469033737      108.8996829890  LPSA16    32             23.0000000000
     17650       572  BGLCNA    C2            -24.2566313799       14.0423632076      109.8525506595  LPSA16    32             23.0000000000
     17651       572  BGLCNA    H2            -23.3828635885       14.6770721677      110.1447634747  LPSA16    32             23.0000000000
     17652       572  BGLCNA    N             -23.7989543268       12.7012982234      109.5656789834  LPSA16    32             23.0000000000
     17653       572  BGLCNA    HN            -24.3610434170       12.2724396737      108.8828471628  LPSA16    32             23.0000000000
     17654       572  BGLCNA    C             -22.7208272607       12.0906563630      110.0888518913  LPSA16    32             23.0000000000
     17655       572  BGLCNA    O             -21.9992020712       12.6100826540      110.9320769112  LPSA16    32             23.0000000000
     17656       572  BGLCNA    CT            -22.4967955190       10.6932926421      109.5450082907  LPSA16    32             23.0000000000
     17657       572  BGLCNA    HT1           -23.0878647850       10.6029612109      108.6120691680  LPSA16    32             23.0000000000
     17658       572  BGLCNA    HT2           -22.8243489974        9.9047773605      110.2475085559  LPSA16    32             23.0000000000
     17659       572  BGLCNA    HT3           -21.4188628414       10.5278939046      109.3220187873  LPSA16    32             23.0000000000
     17660       572  BGLCNA    C3            -25.3197503463       14.1060390043      110.9284494820  LPSA16    32             23.0000000000
     17661       572  BGLCNA    H3            -26.2439583390       13.6691916949      110.4806231690  LPSA16    32             23.0000000000
     17662       572  BGLCNA    O3            -24.9993069804       13.3309538765      112.0986139303  LPSA16    32             23.0000000000
     17663       572  BGLCNA    C4            -25.5984571235       15.5686911747      111.2031107582  LPSA16    32             23.0000000000
     17664       572  BGLCNA    H4            -24.6412499519       16.0554463488      111.5044259683  LPSA16    32             23.0000000000
     17665       572  BGLCNA    O4            -26.5272769628       15.7468415025      112.2555533117  LPSA16    32             23.0000000000
     17666       572  BGLCNA    HO4           -26.0815896658       15.8383259997      113.1015823710  LPSA16    32             23.0000000000
     17667       572  BGLCNA    C6            -26.5156918679       17.6796584653      110.0455001467  LPSA16    32             23.0000000000
     17668       572  BGLCNA    H61           -27.3928250024       17.8019887917      110.7220173550  LPSA16    32             23.0000000000
     17669       572  BGLCNA    H62           -25.6787705503       18.2592740411      110.4992225767  LPSA16    32             23.0000000000
     17670       572  BGLCNA    O6            -26.8749891104       18.2322959345      108.7705542723  LPSA16    32             23.0000000000
     17671       572  BGLCNA    HO6           -27.3309427217       17.5574162965      108.2657143942  LPSA16    32             23.0000000000
     17672       573  AGAL      C1            -26.1296269456       12.6919052706      112.6773228754  LPSA16    33             24.0000000000
     17673       573  AGAL      H1            -27.0259830574       13.3480063197      112.6055000456  LPSA16    33             24.0000000000
     17674       573  AGAL      C5            -25.3810232404       10.4668582877      112.2103967666  LPSA16    33             24.0000000000
     17675       573  AGAL      H5            -24.4776033016       10.9998442363      111.8413312974  LPSA16    33             24.0000000000
     17676       573  AGAL      O5            -26.4390450998       11.4273581984      112.0539778296  LPSA16    33             24.0000000000
     17677       573  AGAL      C2            -25.8472600510       12.4182175665      114.1435246211  LPSA16    33             24.0000000000
     17678       573  AGAL      H2            -26.7226543019       11.8520917195      114.5315618730  LPSA16    33             24.0000000000
     17679       573  AGAL      O2            -25.8300267040       13.6653760596      114.8663322438  LPSA16    33             24.0000000000
     17680       573  AGAL      C3            -24.6656223537       11.4601024709      114.3047466656  LPSA16    33             24.0000000000
     17681       573  AGAL      H3            -23.7885848431       11.8451280303      113.7265678973  LPSA16    33             24.0000000000
     17682       573  AGAL      O3            -24.1680384545       11.3838097086      115.6355879025  LPSA16    33             24.0000000000
     17683       573  AGAL      HO3           -24.8471251914       11.0768564671      116.2448611173  LPSA16    33             24.0000000000
     17684       573  AGAL      C4            -25.0564167811       10.1244780748      113.6579671195  LPSA16    33             24.0000000000
     17685       573  AGAL      H4            -24.1744656896        9.4439643015      113.6739696782  LPSA16    33             24.0000000000
     17686       573  AGAL      O4            -26.1325322330        9.4030974404      114.2613549295  LPSA16    33             24.0000000000
     17687       573  AGAL      HO4           -26.6318407567        9.8963828775      114.9158751091  LPSA16    33             24.0000000000
     17688       573  AGAL      C6            -25.5566345316        9.2763511613      111.2633225607  LPSA16    33             24.0000000000
     17689       573  AGAL      H61           -25.5244569414        9.7013916260      110.2403062715  LPSA16    33             24.0000000000
     17690       573  AGAL      H62           -24.6989269767        8.5788996968      111.3741175789  LPSA16    33             24.0000000000
     17691       573  AGAL      O6            -26.7490018026        8.4863093516      111.3871109993  LPSA16    33             24.0000000000
     17692       573  AGAL      HO6           -27.4895606087        8.9044932860      110.9089426861  LPSA16    33             24.0000000000
     17693       574  ARHM      C1            -26.6143380960       13.6665138390      116.0499644336  LPSA16    34             25.0000000000
     17694       574  ARHM      H1            -26.3455280403       12.7700722508      116.6489291670  LPSA16    34             25.0000000000
     17695       574  ARHM      C5            -28.5822313739       14.7181657660      115.0675947525  LPSA16    34             25.0000000000
     17696       574  ARHM      H5            -28.1096551062       14.6947578628      114.0620604163  LPSA16    34             25.0000000000
     17697       574  ARHM      O5            -28.0559876716       13.6171301763      115.8357335029  LPSA16    34             25.0000000000
     17698       574  ARHM      C2            -26.2437043952       14.9275795354      116.8091573074  LPSA16    34             25.0000000000
     17699       574  ARHM      H2            -25.1270660778       15.0122627754      116.8586276355  LPSA16    34             25.0000000000
     17700       574  ARHM      O2            -26.7575219070       14.9639166215      118.1685854728  LPSA16    34             25.0000000000
     17701       574  ARHM      C3            -26.7442165372       16.1211724918      116.0036590401  LPSA16    34             25.0000000000
     17702       574  ARHM      H3            -26.2725816714       16.1116879687      114.9916110139  LPSA16    34             25.0000000000
     17703       574  ARHM      O3            -26.3869451294       17.3458468481      116.6357741350  LPSA16    34             25.0000000000
     17704       574  ARHM      HO3           -26.1992785652       18.0310857908      115.9788267757  LPSA16    34             25.0000000000
     17705       574  ARHM      C4            -28.2410522090       16.0121142587      115.7989070804  LPSA16    34             25.0000000000
     17706       574  ARHM      H4            -28.7536410843       15.9584603259      116.7865164660  LPSA16    34             25.0000000000
     17707       574  ARHM      O4            -28.7510763700       17.1456030958      115.1000072221  LPSA16    34             25.0000000000
     17708       574  ARHM      HO4           -28.7613347184       17.9203381549      115.6851252816  LPSA16    34             25.0000000000
     17709       574  ARHM      C6            -30.1206598577       14.6029021577      114.8422834968  LPSA16    34             25.0000000000
     17710       574  ARHM      H61           -30.7003433048       14.5660898121      115.7836711268  LPSA16    34             25.0000000000
     17711       574  ARHM      H62           -30.4709779383       15.5242567835      114.3281586952  LPSA16    34             25.0000000000
     17712       574  ARHM      H63           -30.3989121572       13.7495060354      114.1890238533  LPSA16    34             25.0000000000
     17713       575  ARHM      C1            -26.3895766231       13.9276235808      119.0604923857  LPSA16    35             26.0000000000
     17714       575  ARHM      H1            -25.3343257335       13.6127026774      118.8743324739  LPSA16    35             26.0000000000
     17715       575  ARHM      C5            -28.6448293183       13.1500026507      119.2062969686  LPSA16    35             26.0000000000
     17716       575  ARHM      H5            -28.9970792190       13.9420636429      118.5117950199  LPSA16    35             26.0000000000
     17717       575  ARHM      O5            -27.2781957605       12.8007877712      118.9330468234  LPSA16    35             26.0000000000
     17718       575  ARHM      C2            -26.4828538912       14.4106935821      120.5086395180  LPSA16    35             26.0000000000
     17719       575  ARHM      H2            -25.8012815574       15.2861158354      120.6606676703  LPSA16    35             26.0000000000
     17720       575  ARHM      O2            -26.1218695456       13.3540503513      121.4242411988  LPSA16    35             26.0000000000
     17721       575  ARHM      C3            -27.8862097140       14.8551852813      120.8340460168  LPSA16    35             26.0000000000
     17722       575  ARHM      H3            -28.1833532586       15.6655276308      120.1264486250  LPSA16    35             26.0000000000
     17723       575  ARHM      O3            -27.9502761829       15.4282802121      122.1462313623  LPSA16    35             26.0000000000
     17724       575  ARHM      HO3           -27.4088763971       14.9186531447      122.7594077325  LPSA16    35             26.0000000000
     17725       575  ARHM      C4            -28.8146639114       13.6630129306      120.6477579288  LPSA16    35             26.0000000000
     17726       575  ARHM      H4            -28.5377588187       12.8305264056      121.3421271723  LPSA16    35             26.0000000000
     17727       575  ARHM      O4            -30.1762680618       14.0265755596      120.9126304587  LPSA16    35             26.0000000000
     17728       575  ARHM      HO4           -30.3496937685       14.9231687009      120.6134784921  LPSA16    35             26.0000000000
     17729       575  ARHM      C6            -29.4853158926       11.9220806562      118.8510351392  LPSA16    35             26.0000000000
     17730       575  ARHM      H61           -29.5077925267       11.6799166471      117.7715388366  LPSA16    35             26.0000000000
     17731       575  ARHM      H62           -29.1799356762       11.0255691695      119.4311811925  LPSA16    35             26.0000000000
     17732       575  ARHM      H63           -30.5085394732       12.1907470006      119.1208572761  LPSA16    35             26.0000000000
     17733       576  BMANNA    C1            -24.7569873670       13.0557044099      121.4813645515  LPSA16    36             27.0000000000
     17734       576  BMANNA    H1            -24.2529348665       13.9283281579      121.0937488054  LPSA16    36             27.0000000000
     17735       576  BMANNA    C5            -22.9153097183       11.7568136450      120.7188374236  LPSA16    36             27.0000000000
     17736       576  BMANNA    H5            -22.4032761074       12.6813740507      120.3967152868  LPSA16    36             27.0000000000
     17737       576  BMANNA    O5            -24.3535619444       11.9483342153      120.6714304403  LPSA16    36             27.0000000000
     17738       576  BMANNA    C2            -24.4026972084       12.7623543728      122.9338963635  LPSA16    36             27.0000000000
     17739       576  BMANNA    H2            -24.6617617524       13.7007830035      123.4857197792  LPSA16    36             27.0000000000
     17740       576  BMANNA    N             -25.1520291722       11.6579691650      123.5108995203  LPSA16    36             27.0000000000
     17741       576  BMANNA    HN            -25.3599576745       10.9079221903      122.8902766606  LPSA16    36             27.0000000000
     17742       576  BMANNA    C             -25.4497045264       11.5901785277      124.8258299948  LPSA16    36             27.0000000000
     17743       576  BMANNA    O             -25.2207878292       12.5138900023      125.5989386995  LPSA16    36             27.0000000000
     17744       576  BMANNA    CT            -26.0355846055       10.3024930056      125.3411762499  LPSA16    36             27.0000000000
     17745       576  BMANNA    HT1           -25.5242505866        9.4379362087      124.8792174547  LPSA16    36             27.0000000000
     17746       576  BMANNA    HT2           -27.1230088030       10.2520610855      125.1353106527  LPSA16    36             27.0000000000
     17747       576  BMANNA    HT3           -25.9012202602       10.2645975496      126.4436718079  LPSA16    36             27.0000000000
     17748       576  BMANNA    C3            -22.9025006039       12.5515838024      123.0524705408  LPSA16    36             27.0000000000
     17749       576  BMANNA    H3            -22.3558373869       13.4498793638      122.7369041541  LPSA16    36             27.0000000000
     17750       576  BMANNA    O3            -22.4641539907       12.3351137360      124.3958006110  LPSA16    36             27.0000000000
     17751       576  BMANNA    HO3           -21.8872373408       13.0484856717      124.6783580273  LPSA16    36             27.0000000000
     17752       576  BMANNA    C4            -22.4852132049       11.4320642144      122.1405785508  LPSA16    36             27.0000000000
     17753       576  BMANNA    H4            -22.9579757833       10.4761500624      122.4527671918  LPSA16    36             27.0000000000
     17754       576  BMANNA    O4            -21.0782476056       11.2758735559      122.2292531068  LPSA16    36             27.0000000000
     17755       576  BMANNA    HO4           -20.9362357649       11.0428493902      123.1584294632  LPSA16    36             27.0000000000
     17756       576  BMANNA    C6            -22.4603209287       10.7261039287      119.7268581238  LPSA16    36             27.0000000000
     17757       576  BMANNA    H61           -22.7908360058       11.0050762974      118.6987312227  LPSA16    36             27.0000000000
     17758       576  BMANNA    H62           -21.3438971378       10.7312890314      119.7054914800  LPSA16    36             27.0000000000
     17759       576  BMANNA    O6            -22.9306220595        9.4342659743      120.1169284929  LPSA16    36             27.0000000000
     17760       576  BMANNA    HO6           -22.2239672704        8.9826569919      120.5923984083  LPSA16    36             27.0000000000
     17761       577  ECLIPA    HB6S           12.3901262850      -29.8280038926       20.4240765236  LPSA17    1               0.0000000000
     17762       577  ECLIPA    OB6            11.7332495609      -31.2879688456       21.7225376009  LPSA17    1               0.0000000000
     17763       577  ECLIPA    CB6            12.6602172955      -30.8693323737       20.7000703272  LPSA17    1               0.0000000000
     17764       577  ECLIPA    HB6R           13.7002417468      -30.8582508488       21.0989838633  LPSA17    1               0.0000000000
     17765       577  ECLIPA    CB5            12.6719699187      -31.7242189449       19.4354703391  LPSA17    1               0.0000000000
     17766       577  ECLIPA    OB5            11.3114500163      -31.7421297840       18.9561275537  LPSA17    1               0.0000000000
     17767       577  ECLIPA    HB5            13.0042983860      -32.7443765456       19.7417470145  LPSA17    1               0.0000000000
     17768       577  ECLIPA    CB1            11.1667008435      -32.5549276335       17.7850258491  LPSA17    1               0.0000000000
     17769       577  ECLIPA    HB1            11.5113393536      -33.6013813650       17.9675091209  LPSA17    1               0.0000000000
     17770       577  ECLIPA    OA6             9.8393530799      -32.6290011546       17.3232325302  LPSA17    1               0.0000000000
     17771       577  ECLIPA    CA6             9.0371713978      -31.4575988724       17.5660207755  LPSA17    1               0.0000000000
     17772       577  ECLIPA    HA6R            9.6508389319      -30.5486872517       17.7569491661  LPSA17    1               0.0000000000
     17773       577  ECLIPA    HA6S            8.3786441555      -31.6593519139       18.4450060943  LPSA17    1               0.0000000000
     17774       577  ECLIPA    CB4            13.6152083485      -31.1935384879       18.3293645728  LPSA17    1               0.0000000000
     17775       577  ECLIPA    HB4            13.3600591594      -30.1400481963       18.0499857276  LPSA17    1               0.0000000000
     17776       577  ECLIPA    OB4            14.9579928527      -31.3275910995       18.8203432395  LPSA17    1               0.0000000000
     17777       577  ECLIPA    PB             15.8426935519      -30.0041859709       19.2911521065  LPSA17    1               0.0000000000
     17778       577  ECLIPA    OPB4           16.7095161280      -30.4385837898       20.4755057433  LPSA17    1               0.0000000000
     17779       577  ECLIPA    OPB3           14.7764798878      -28.9946219134       19.6888686282  LPSA17    1               0.0000000000
     17780       577  ECLIPA    OPB2           16.6462282412      -29.5965782364       18.0539961672  LPSA17    1               0.0000000000
     17781       577  ECLIPA    CB3            13.4505244477      -32.0479970647       17.0865164874  LPSA17    1               0.0000000000
     17782       577  ECLIPA    OB3            14.1862758791      -31.5976012604       15.9426797612  LPSA17    1               0.0000000000
     17783       577  ECLIPA    HB3            13.6696685280      -33.1152382694       17.3350714313  LPSA17    1               0.0000000000
     17784       577  ECLIPA    C71            15.4333721642      -32.0219351385       15.7676441754  LPSA17    1               0.0000000000
     17785       577  ECLIPA    O71            15.8659270700      -33.0517076913       16.2568292749  LPSA17    1               0.0000000000
     17786       577  ECLIPA    C72            15.8980376904      -31.5057353773       14.3785894852  LPSA17    1               0.0000000000
     17787       577  ECLIPA    H72R           15.1724559367      -31.8084855117       13.5973740092  LPSA17    1               0.0000000000
     17788       577  ECLIPA    H72S           16.8943694544      -31.9453993817       14.1661966195  LPSA17    1               0.0000000000
     17789       577  ECLIPA    CB2            11.9973266289      -32.0026887822       16.6647359047  LPSA17    1               0.0000000000
     17790       577  ECLIPA    HB2            11.7085916548      -30.9233807556       16.5124362495  LPSA17    1               0.0000000000
     17791       577  ECLIPA    NB2            11.7896569133      -32.7901996236       15.4527998179  LPSA17    1               0.0000000000
     17792       577  ECLIPA    HNB2           11.5717967715      -33.7507375655       15.5776261725  LPSA17    1               0.0000000000
     17793       577  ECLIPA    CA4             7.5903642779      -32.4412131926       15.8038244631  LPSA17    1               0.0000000000
     17794       577  ECLIPA    HA4             8.4241176466      -33.1319129673       15.5401067447  LPSA17    1               0.0000000000
     17795       577  ECLIPA    OA4             6.7993427536      -33.0399085740       16.8070497438  LPSA17    1               0.0000000000
     17796       577  ECLIPA    HOA4            7.2379017054      -33.1185682222       17.6567544279  LPSA17    1               0.0000000000
     17797       577  ECLIPA    CA5             8.1842853618      -31.1881590732       16.3442806645  LPSA17    1               0.0000000000
     17798       577  ECLIPA    HA5             7.4196580208      -30.4053817975       16.5724690208  LPSA17    1               0.0000000000
     17799       577  ECLIPA    OA5             9.0565053193      -30.7115438397       15.3325239492  LPSA17    1               0.0000000000
     17800       577  ECLIPA    CA1             8.3897901304      -30.3712990071       14.1018732839  LPSA17    1               0.0000000000
     17801       577  ECLIPA    HA1             9.2501933870      -30.1946166042       13.4203990752  LPSA17    1               0.0000000000
     17802       577  ECLIPA    OA1             7.5829472894      -29.2126055820       14.1322573640  LPSA17    1               0.0000000000
     17803       577  ECLIPA    OPA2            7.4769625653      -27.6158589621       16.0044203129  LPSA17    1               0.0000000000
     17804       577  ECLIPA    OPA3            9.7260037287      -27.9839241519       14.8322784683  LPSA17    1               0.0000000000
     17805       577  ECLIPA    OPA4            7.8543442310      -26.7443163545       13.6386790309  LPSA17    1               0.0000000000
     17806       577  ECLIPA    PA              8.2228541236      -27.7947704860       14.6863789423  LPSA17    1               0.0000000000
     17807       577  ECLIPA    CA3             6.8109947766      -32.1957910666       14.5460726539  LPSA17    1               0.0000000000
     17808       577  ECLIPA    HA3             5.9092803594      -31.5618098205       14.7363207322  LPSA17    1               0.0000000000
     17809       577  ECLIPA    OA3             6.4485256700      -33.5599829301       14.3089494590  LPSA17    1               0.0000000000
     17810       577  ECLIPA    C31             7.2541123035      -34.3505697784       13.5748024453  LPSA17    1               0.0000000000
     17811       577  ECLIPA    O31             7.2267269391      -34.3366223213       12.3607955175  LPSA17    1               0.0000000000
     17812       577  ECLIPA    C32             7.3903228683      -35.6920357420       14.3000357299  LPSA17    1               0.0000000000
     17813       577  ECLIPA    H32R            6.8707193355      -36.4680295347       13.6826472817  LPSA17    1               0.0000000000
     17814       577  ECLIPA    H32S            6.8757121068      -35.5657728947       15.2817749781  LPSA17    1               0.0000000000
     17815       577  ECLIPA    CA2             7.7450392405      -31.6022967535       13.5106599439  LPSA17    1               0.0000000000
     17816       577  ECLIPA    HA2             8.5834910881      -32.3123885742       13.3341191850  LPSA17    1               0.0000000000
     17817       577  ECLIPA    NA2             7.0737381298      -31.3234998164       12.2262583984  LPSA17    1               0.0000000000
     17818       577  ECLIPA    HNA2            6.1636344103      -31.6986769251       12.1268498275  LPSA17    1               0.0000000000
     17819       577  ECLIPA    C73            15.9553914184      -29.9601282155       14.3627509044  LPSA17    1               0.0000000000
     17820       577  ECLIPA    H73R           16.5149817661      -29.6410763477       15.2801604995  LPSA17    1               0.0000000000
     17821       577  ECLIPA    O73            14.6234687988      -29.4770767263       14.3179013554  LPSA17    1               0.0000000000
     17822       577  ECLIPA    C81            14.3059029882      -28.3732905675       14.9789887229  LPSA17    1               0.0000000000
     17823       577  ECLIPA    O81            15.1317462533      -27.6087604049       15.4865922503  LPSA17    1               0.0000000000
     17824       577  ECLIPA    C82            13.0024462847      -27.8425975362       14.3468361330  LPSA17    1               0.0000000000
     17825       577  ECLIPA    H82R           12.6956421294      -26.9204467918       14.8737916035  LPSA17    1               0.0000000000
     17826       577  ECLIPA    H82S           12.1978040852      -28.5803102359       14.5541239473  LPSA17    1               0.0000000000
     17827       577  ECLIPA    C83            13.0619791970      -27.6015999341       12.8138838144  LPSA17    1               0.0000000000
     17828       577  ECLIPA    H83R           12.9094237690      -28.5768075694       12.2937669576  LPSA17    1               0.0000000000
     17829       577  ECLIPA    H83S           14.0590713925      -27.2195817601       12.5319159023  LPSA17    1               0.0000000000
     17830       577  ECLIPA    C84            11.9445788045      -26.6774997233       12.2921771017  LPSA17    1               0.0000000000
     17831       577  ECLIPA    H84R           12.1168599976      -25.6277574113       12.5981320257  LPSA17    1               0.0000000000
     17832       577  ECLIPA    H84S           10.9908886896      -27.0310215571       12.7650275789  LPSA17    1               0.0000000000
     17833       577  ECLIPA    C85            11.7489630703      -26.7762350504       10.7705184107  LPSA17    1               0.0000000000
     17834       577  ECLIPA    H85R           11.8110771930      -27.8648208997       10.5449523672  LPSA17    1               0.0000000000
     17835       577  ECLIPA    H85S           12.5907173619      -26.2899770555       10.2357301209  LPSA17    1               0.0000000000
     17836       577  ECLIPA    C86            10.3567328827      -26.3091955929       10.2867749117  LPSA17    1               0.0000000000
     17837       577  ECLIPA    H86R           10.3687854473      -25.2366924360        9.9932507061  LPSA17    1               0.0000000000
     17838       577  ECLIPA    H86S            9.6298570128      -26.3964747729       11.1310431951  LPSA17    1               0.0000000000
     17839       577  ECLIPA    C87             9.7909156765      -27.1975881150        9.1598022742  LPSA17    1               0.0000000000
     17840       577  ECLIPA    H87R            8.8302691289      -26.7719926248        8.7970831216  LPSA17    1               0.0000000000
     17841       577  ECLIPA    H87S            9.5508412811      -28.2037009270        9.5768790251  LPSA17    1               0.0000000000
     17842       577  ECLIPA    C88            10.7899035330      -27.4108245449        8.0205222747  LPSA17    1               0.0000000000
     17843       577  ECLIPA    H88R           11.5589508152      -28.1401291054        8.3498614266  LPSA17    1               0.0000000000
     17844       577  ECLIPA    H88S           11.3497886612      -26.4592816231        7.8790761234  LPSA17    1               0.0000000000
     17845       577  ECLIPA    C89            10.1418148954      -27.9101597783        6.7155096111  LPSA17    1               0.0000000000
     17846       577  ECLIPA    H89R            9.1496702574      -28.3802723024        6.8951282630  LPSA17    1               0.0000000000
     17847       577  ECLIPA    H89S           10.7706152468      -28.7038940930        6.2581258023  LPSA17    1               0.0000000000
     17848       577  ECLIPA    C810           10.0425562735      -26.7710576516        5.6974403879  LPSA17    1               0.0000000000
     17849       577  ECLIPA    H810R          10.8764140414      -26.0742565675        5.9304700169  LPSA17    1               0.0000000000
     17850       577  ECLIPA    H810S           9.0811399288      -26.2367929310        5.8642722428  LPSA17    1               0.0000000000
     17851       577  ECLIPA    C811           10.1401795851      -27.2330290058        4.2360554684  LPSA17    1               0.0000000000
     17852       577  ECLIPA    H811R           9.7171322072      -26.4711398494        3.5397500099  LPSA17    1               0.0000000000
     17853       577  ECLIPA    H811S           9.5532637196      -28.1728678661        4.1550579637  LPSA17    1               0.0000000000
     17854       577  ECLIPA    C812           11.5462223218      -27.5753807609        3.7395513449  LPSA17    1               0.0000000000
     17855       577  ECLIPA    H812R          11.4404469002      -28.0060544882        2.7127630446  LPSA17    1               0.0000000000
     17856       577  ECLIPA    H812S          12.0159733029      -28.3241097557        4.4100338001  LPSA17    1               0.0000000000
     17857       577  ECLIPA    C813           12.5040754381      -26.4082337018        3.6513849744  LPSA17    1               0.0000000000
     17858       577  ECLIPA    H813R          12.1083972480      -25.6561629162        2.9331868594  LPSA17    1               0.0000000000
     17859       577  ECLIPA    H813S          12.6587707378      -25.8935297689        4.6299194683  LPSA17    1               0.0000000000
     17860       577  ECLIPA    C814           13.8572235635      -26.8649161133        3.1594300052  LPSA17    1               0.0000000000
     17861       577  ECLIPA    H814R          13.8367550610      -27.4600721238        2.2180174560  LPSA17    1               0.0000000000
     17862       577  ECLIPA    H814S          14.4361672518      -27.4087475037        3.9337472096  LPSA17    1               0.0000000000
     17863       577  ECLIPA    H814T          14.3445128435      -25.9056781053        2.9698739170  LPSA17    1               0.0000000000
     17864       577  ECLIPA    C74            16.6379362399      -29.3081733349       13.1489284917  LPSA17    1               0.0000000000
     17865       577  ECLIPA    H74R           17.6827101602      -29.4972294957       13.1503051868  LPSA17    1               0.0000000000
     17866       577  ECLIPA    H74S           16.6662207591      -28.2177943602       13.3292454910  LPSA17    1               0.0000000000
     17867       577  ECLIPA    C75            15.9711860978      -29.5559555340       11.7770430509  LPSA17    1               0.0000000000
     17868       577  ECLIPA    H75R           16.1497490136      -28.6344282062       11.1808319139  LPSA17    1               0.0000000000
     17869       577  ECLIPA    H75S           14.8826195898      -29.6521023034       11.9587521636  LPSA17    1               0.0000000000
     17870       577  ECLIPA    C76            16.4106353049      -30.7858403901       10.9651902794  LPSA17    1               0.0000000000
     17871       577  ECLIPA    H76R           15.9653153593      -31.7103461188       11.3829209218  LPSA17    1               0.0000000000
     17872       577  ECLIPA    H76S           17.4911285530      -30.9333094337       11.0796753410  LPSA17    1               0.0000000000
     17873       577  ECLIPA    C77            16.0708969002      -30.7171818331        9.4589528927  LPSA17    1               0.0000000000
     17874       577  ECLIPA    H77R           16.6208319894      -29.8709131721        8.9972235092  LPSA17    1               0.0000000000
     17875       577  ECLIPA    H77S           15.0025982398      -30.4949811585        9.3055705871  LPSA17    1               0.0000000000
     17876       577  ECLIPA    C78            16.3510607483      -32.0832603903        8.8032227816  LPSA17    1               0.0000000000
     17877       577  ECLIPA    H78R           17.3895430397      -32.3787588203        9.0670736000  LPSA17    1               0.0000000000
     17878       577  ECLIPA    H78S           15.6785289670      -32.8050290656        9.3208147180  LPSA17    1               0.0000000000
     17879       577  ECLIPA    C79            16.0533418646      -32.2429891239        7.2936523427  LPSA17    1               0.0000000000
     17880       577  ECLIPA    H79R           15.0241840970      -32.6548445909        7.1715250630  LPSA17    1               0.0000000000
     17881       577  ECLIPA    H79S           16.7526034807      -32.9753272051        6.8315467260  LPSA17    1               0.0000000000
     17882       577  ECLIPA    C710           16.1998290104      -30.9779080410        6.4551782188  LPSA17    1               0.0000000000
     17883       577  ECLIPA    H710R          15.5727696808      -30.1606041937        6.8673551926  LPSA17    1               0.0000000000
     17884       577  ECLIPA    H710S          17.2657711321      -30.6633268431        6.4866226387  LPSA17    1               0.0000000000
     17885       577  ECLIPA    C711           15.8011363098      -31.1678504843        4.9945758567  LPSA17    1               0.0000000000
     17886       577  ECLIPA    H711R          16.4345829146      -31.9635726657        4.5399729150  LPSA17    1               0.0000000000
     17887       577  ECLIPA    H711S          14.7305009044      -31.4714762887        4.9253218001  LPSA17    1               0.0000000000
     17888       577  ECLIPA    C712           15.9638556628      -29.8350330148        4.2677274473  LPSA17    1               0.0000000000
     17889       577  ECLIPA    H712R          17.0482090234      -29.5727085623        4.2579980475  LPSA17    1               0.0000000000
     17890       577  ECLIPA    H712S          15.4303477847      -29.0622167883        4.8542900170  LPSA17    1               0.0000000000
     17891       577  ECLIPA    C713           15.3674912724      -29.8675130943        2.8775000236  LPSA17    1               0.0000000000
     17892       577  ECLIPA    H713R          14.2746007026      -30.0515049108        2.8898890848  LPSA17    1               0.0000000000
     17893       577  ECLIPA    H713S          15.5716795529      -28.9068355353        2.3312230563  LPSA17    1               0.0000000000
     17894       577  ECLIPA    C714           15.9912132704      -30.9592762246        2.0900035900  LPSA17    1               0.0000000000
     17895       577  ECLIPA    H714R          17.0765798265      -30.6792524977        2.1189055905  LPSA17    1               0.0000000000
     17896       577  ECLIPA    H714S          15.9240905655      -32.0177550406        2.3672527023  LPSA17    1               0.0000000000
     17897       577  ECLIPA    H714T          15.5352557887      -30.8865519420        1.0751039026  LPSA17    1               0.0000000000
     17898       577  ECLIPA    C51            11.9456937990      -32.2618039340       14.2312071148  LPSA17    1               0.0000000000
     17899       577  ECLIPA    O51            11.9949938477      -31.0590409148       14.0674186454  LPSA17    1               0.0000000000
     17900       577  ECLIPA    C52            12.1104107495      -33.1972514909       13.0558037469  LPSA17    1               0.0000000000
     17901       577  ECLIPA    H52R           13.1835415500      -33.4643755093       12.9298156836  LPSA17    1               0.0000000000
     17902       577  ECLIPA    H52S           11.5439267736      -34.1197425740       13.2469408012  LPSA17    1               0.0000000000
     17903       577  ECLIPA    C53            11.5982006028      -32.5270449549       11.7633542004  LPSA17    1               0.0000000000
     17904       577  ECLIPA    H53R           10.7208787718      -31.8683193269       11.9857762950  LPSA17    1               0.0000000000
     17905       577  ECLIPA    O53            11.2912980763      -33.5957321925       10.8540880560  LPSA17    1               0.0000000000
     17906       577  ECLIPA    C61            10.0260599363      -33.7950961560       10.5272866184  LPSA17    1               0.0000000000
     17907       577  ECLIPA    O61             9.0823552861      -33.1098473170       10.8462415754  LPSA17    1               0.0000000000
     17908       577  ECLIPA    C62             9.9402024969      -35.0015096109        9.5944518711  LPSA17    1               0.0000000000
     17909       577  ECLIPA    H62R            9.8983019909      -35.9199086697       10.2137218632  LPSA17    1               0.0000000000
     17910       577  ECLIPA    H62S           10.8713352525      -35.0302942000        9.0071578581  LPSA17    1               0.0000000000
     17911       577  ECLIPA    C63             8.6890847786      -34.9031495126        8.6994425520  LPSA17    1               0.0000000000
     17912       577  ECLIPA    H63R            8.5801480451      -33.8916350731        8.2583852065  LPSA17    1               0.0000000000
     17913       577  ECLIPA    H63S            7.8524819882      -35.0087485857        9.4037540388  LPSA17    1               0.0000000000
     17914       577  ECLIPA    C64             8.6273879765      -35.8949536475        7.5274422441  LPSA17    1               0.0000000000
     17915       577  ECLIPA    H64R            7.6888924690      -35.7216663829        6.9759257321  LPSA17    1               0.0000000000
     17916       577  ECLIPA    H64S            8.6717484301      -36.9349041189        7.9224526280  LPSA17    1               0.0000000000
     17917       577  ECLIPA    C65             9.7408292512      -35.6116228089        6.5266051997  LPSA17    1               0.0000000000
     17918       577  ECLIPA    H65R           10.6572340357      -35.7725608468        7.1321383490  LPSA17    1               0.0000000000
     17919       577  ECLIPA    H65S            9.6943965953      -34.5453522918        6.2138591707  LPSA17    1               0.0000000000
     17920       577  ECLIPA    C66             9.8485877497      -36.4831971525        5.2607879752  LPSA17    1               0.0000000000
     17921       577  ECLIPA    H66R            9.9335147613      -37.5504316035        5.5516187734  LPSA17    1               0.0000000000
     17922       577  ECLIPA    H66S           10.8095010594      -36.1624596019        4.7907523978  LPSA17    1               0.0000000000
     17923       577  ECLIPA    C67             8.7704291805      -36.3496348797        4.1707372161  LPSA17    1               0.0000000000
     17924       577  ECLIPA    H67R            7.7435382488      -36.4980492649        4.5732885002  LPSA17    1               0.0000000000
     17925       577  ECLIPA    H67S            8.9337130159      -37.1136728899        3.3725825150  LPSA17    1               0.0000000000
     17926       577  ECLIPA    C68             8.7422237486      -34.9856998284        3.5046651531  LPSA17    1               0.0000000000
     17927       577  ECLIPA    H68R            9.7176174127      -34.6318848832        3.1111050711  LPSA17    1               0.0000000000
     17928       577  ECLIPA    H68S            8.3726785084      -34.2763822990        4.2792005755  LPSA17    1               0.0000000000
     17929       577  ECLIPA    C69             7.8614040972      -35.0232491226        2.2801523998  LPSA17    1               0.0000000000
     17930       577  ECLIPA    H69R            7.0868420533      -35.7988091390        2.3697477158  LPSA17    1               0.0000000000
     17931       577  ECLIPA    H69S            8.4581500367      -35.4087934400        1.4360233724  LPSA17    1               0.0000000000
     17932       577  ECLIPA    C610            7.3246586151      -33.6361288544        1.9871999065  LPSA17    1               0.0000000000
     17933       577  ECLIPA    H610R           8.0804867833      -32.8462386771        2.0809098348  LPSA17    1               0.0000000000
     17934       577  ECLIPA    H610S           6.5041160203      -33.3770355201        2.7037793534  LPSA17    1               0.0000000000
     17935       577  ECLIPA    C611            6.7828598263      -33.5863165338        0.5916840591  LPSA17    1               0.0000000000
     17936       577  ECLIPA    H611R           6.0821769742      -34.4016778124        0.5484651745  LPSA17    1               0.0000000000
     17937       577  ECLIPA    H611S           6.2604541038      -32.6318122733        0.5357034046  LPSA17    1               0.0000000000
     17938       577  ECLIPA    C612            7.6671141339      -33.7860852668       -0.6056615380  LPSA17    1               0.0000000000
     17939       577  ECLIPA    H612R           8.2569589326      -32.8570469138       -0.6916776526  LPSA17    1               0.0000000000
     17940       577  ECLIPA    H612S           8.3104172645      -34.6609490811       -0.4027956436  LPSA17    1               0.0000000000
     17941       577  ECLIPA    H612T           7.0871405355      -33.9714066787       -1.5412713280  LPSA17    1               0.0000000000
     17942       577  ECLIPA    C54            12.7472598957      -31.6690892037       11.1711359070  LPSA17    1               0.0000000000
     17943       577  ECLIPA    H54R           13.5569675863      -32.3741642037       10.8817713092  LPSA17    1               0.0000000000
     17944       577  ECLIPA    H54S           13.1374723715      -31.0163356770       11.9783587113  LPSA17    1               0.0000000000
     17945       577  ECLIPA    C55            12.4003241198      -30.7756709281        9.9638851600  LPSA17    1               0.0000000000
     17946       577  ECLIPA    H55R           13.1961358076      -30.0129517932        9.8234299158  LPSA17    1               0.0000000000
     17947       577  ECLIPA    H55S           11.4754546000      -30.2064829982       10.2015407357  LPSA17    1               0.0000000000
     17948       577  ECLIPA    C56            12.3115377067      -31.6258319504        8.6901855528  LPSA17    1               0.0000000000
     17949       577  ECLIPA    H56R           11.5682570548      -32.4270243502        8.8595452758  LPSA17    1               0.0000000000
     17950       577  ECLIPA    H56S           13.2922897959      -32.1212764307        8.5041949683  LPSA17    1               0.0000000000
     17951       577  ECLIPA    C57            11.8567723778      -30.9408307264        7.4049428736  LPSA17    1               0.0000000000
     17952       577  ECLIPA    H57R           12.4730416477      -30.0440771245        7.1807196467  LPSA17    1               0.0000000000
     17953       577  ECLIPA    H57S           10.8083290823      -30.5907105160        7.5431236277  LPSA17    1               0.0000000000
     17954       577  ECLIPA    C58            11.8895380516      -31.9568951286        6.2446128421  LPSA17    1               0.0000000000
     17955       577  ECLIPA    H58R           12.8470221403      -32.5180465512        6.2176403723  LPSA17    1               0.0000000000
     17956       577  ECLIPA    H58S           11.1073827650      -32.7210259361        6.4613279350  LPSA17    1               0.0000000000
     17957       577  ECLIPA    C59            11.6760486864      -31.2825540318        4.8795798848  LPSA17    1               0.0000000000
     17958       577  ECLIPA    H59R           12.4439018033      -30.4901293234        4.7192745180  LPSA17    1               0.0000000000
     17959       577  ECLIPA    H59S           10.6874005618      -30.7799756606        4.9627314953  LPSA17    1               0.0000000000
     17960       577  ECLIPA    C510           11.8084126995      -32.2253070035        3.6650010710  LPSA17    1               0.0000000000
     17961       577  ECLIPA    H510R          11.2580261712      -33.1755906637        3.8303583807  LPSA17    1               0.0000000000
     17962       577  ECLIPA    H510S          12.8849742062      -32.4866954710        3.5259375385  LPSA17    1               0.0000000000
     17963       577  ECLIPA    C511           11.3266910178      -31.6367433747        2.3323922499  LPSA17    1               0.0000000000
     17964       577  ECLIPA    H511R          10.2196948030      -31.7041005767        2.2825734930  LPSA17    1               0.0000000000
     17965       577  ECLIPA    H511S          11.6103892379      -30.5656483409        2.2228160579  LPSA17    1               0.0000000000
     17966       577  ECLIPA    C512           11.8677265911      -32.4349216604        1.1572319949  LPSA17    1               0.0000000000
     17967       577  ECLIPA    H512R          11.7827730396      -31.9220416238        0.2531923694  LPSA17    1               0.0000000000
     17968       577  ECLIPA    H512S          12.9619535472      -32.6146269920        1.1857924710  LPSA17    1               0.0000000000
     17969       577  ECLIPA    C513           10.9210719376      -33.5144384398        0.6509523301  LPSA17    1               0.0000000000
     17970       577  ECLIPA    H513R           9.8510144152      -33.3439172057        0.6834667755  LPSA17    1               0.0000000000
     17971       577  ECLIPA    H513S          11.1531256249      -34.2932891069        1.4137561633  LPSA17    1               0.0000000000
     17972       577  ECLIPA    C514           11.1182662678      -33.8559866219       -0.8423833646  LPSA17    1               0.0000000000
     17973       577  ECLIPA    H514R          12.1454509561      -33.9319751464       -0.6403454350  LPSA17    1               0.0000000000
     17974       577  ECLIPA    H514S          10.7042805571      -34.8104003916       -1.2039193709  LPSA17    1               0.0000000000
     17975       577  ECLIPA    H514T          11.2157880775      -33.2235097067       -1.7259161242  LPSA17    1               0.0000000000
     17976       577  ECLIPA    C33             8.7232143096      -36.2743718787       14.4876658849  LPSA17    1               0.0000000000
     17977       577  ECLIPA    H33R            8.5721239203      -37.3001876570       14.8879819950  LPSA17    1               0.0000000000
     17978       577  ECLIPA    O33             9.3402640615      -35.5040676935       15.4796151115  LPSA17    1               0.0000000000
     17979       577  ECLIPA    HO33            8.9407589735      -35.6014686209       16.3564230621  LPSA17    1               0.0000000000
     17980       577  ECLIPA    C34             9.5279945365      -36.3070023108       13.1933280341  LPSA17    1               0.0000000000
     17981       577  ECLIPA    H34R            9.6165273132      -35.2650810393       12.8155436252  LPSA17    1               0.0000000000
     17982       577  ECLIPA    H34S            8.9786301628      -36.8687926473       12.4048168532  LPSA17    1               0.0000000000
     17983       577  ECLIPA    C35            10.9151791185      -36.9147566807       13.4282643164  LPSA17    1               0.0000000000
     17984       577  ECLIPA    H35R           10.8205984724      -37.9663102874       13.7504419102  LPSA17    1               0.0000000000
     17985       577  ECLIPA    H35S           11.3934884103      -36.3323915420       14.2548969581  LPSA17    1               0.0000000000
     17986       577  ECLIPA    C36            11.8128284317      -36.8445214116       12.1955684777  LPSA17    1               0.0000000000
     17987       577  ECLIPA    H36R           11.4798201215      -35.9318789969       11.6664110347  LPSA17    1               0.0000000000
     17988       577  ECLIPA    H36S           11.6543860260      -37.7194493256       11.5208120339  LPSA17    1               0.0000000000
     17989       577  ECLIPA    C37            13.3061980481      -36.6645786597       12.5220718383  LPSA17    1               0.0000000000
     17990       577  ECLIPA    H37R           13.7456559494      -37.6752823924       12.6732759773  LPSA17    1               0.0000000000
     17991       577  ECLIPA    H37S           13.4091514741      -36.1226778691       13.4889294282  LPSA17    1               0.0000000000
     17992       577  ECLIPA    C38            14.1117829164      -35.9159146871       11.4343372436  LPSA17    1               0.0000000000
     17993       577  ECLIPA    H38R           13.9053745865      -34.8241982621       11.4331683998  LPSA17    1               0.0000000000
     17994       577  ECLIPA    H38S           15.1917199527      -36.0236570949       11.6832788684  LPSA17    1               0.0000000000
     17995       577  ECLIPA    C39            13.8154676327      -36.4469306511       10.0233405928  LPSA17    1               0.0000000000
     17996       577  ECLIPA    H39R           12.7214603876      -36.3917987360        9.8223565810  LPSA17    1               0.0000000000
     17997       577  ECLIPA    H39S           14.1486024355      -37.5086339269        9.9819847504  LPSA17    1               0.0000000000
     17998       577  ECLIPA    C310           14.5142514021      -35.7175200960        8.8722005062  LPSA17    1               0.0000000000
     17999       577  ECLIPA    H310R          15.5928005194      -35.9768988784        8.9660429312  LPSA17    1               0.0000000000
     18000       577  ECLIPA    H310S          14.4019309864      -34.6158259108        8.9571906296  LPSA17    1               0.0000000000
     18001       577  ECLIPA    C311           13.8817050714      -36.0797321731        7.5147617402  LPSA17    1               0.0000000000
     18002       577  ECLIPA    H311R          13.5462038535      -37.1406499871        7.5269916360  LPSA17    1               0.0000000000
     18003       577  ECLIPA    H311S          12.9722843215      -35.4498962546        7.3653453750  LPSA17    1               0.0000000000
     18004       577  ECLIPA    C312           14.7811432054      -35.8154252735        6.3014577874  LPSA17    1               0.0000000000
     18005       577  ECLIPA    H312R          15.4033726339      -34.9128649502        6.4863085189  LPSA17    1               0.0000000000
     18006       577  ECLIPA    H312S          15.4531150221      -36.6933321271        6.1783250216  LPSA17    1               0.0000000000
     18007       577  ECLIPA    C313           13.9705639352      -35.6202003081        5.0075894198  LPSA17    1               0.0000000000
     18008       577  ECLIPA    H313R          13.5707487159      -36.6254687461        4.7451474348  LPSA17    1               0.0000000000
     18009       577  ECLIPA    H313S          13.1008548264      -34.9440909148        5.1804106042  LPSA17    1               0.0000000000
     18010       577  ECLIPA    C314           14.7766829188      -35.0707407705        3.8268246721  LPSA17    1               0.0000000000
     18011       577  ECLIPA    H314R          15.6340727564      -35.7308643924        3.6228965651  LPSA17    1               0.0000000000
     18012       577  ECLIPA    H314S          14.1587662929      -34.9986206829        2.9049316970  LPSA17    1               0.0000000000
     18013       577  ECLIPA    H314T          15.2029422218      -34.0748280257        4.0523274466  LPSA17    1               0.0000000000
     18014       577  ECLIPA    C11             7.5052209724      -30.4807607131       11.2548560430  LPSA17    1               0.0000000000
     18015       577  ECLIPA    O11             8.6616005883      -30.1142210629       11.0950665052  LPSA17    1               0.0000000000
     18016       577  ECLIPA    C12             6.4228150873      -29.9912196221       10.3259364156  LPSA17    1               0.0000000000
     18017       577  ECLIPA    H12R            6.1986966257      -28.9313416790       10.5524406299  LPSA17    1               0.0000000000
     18018       577  ECLIPA    H12S            5.5186289202      -30.6078224637       10.5115116091  LPSA17    1               0.0000000000
     18019       577  ECLIPA    C13             6.8004462197      -30.1342192240        8.8551143229  LPSA17    1               0.0000000000
     18020       577  ECLIPA    H13R            7.8501423103      -29.8180783762        8.6436851869  LPSA17    1               0.0000000000
     18021       577  ECLIPA    O13             5.9259167906      -29.2856192322        8.1178468825  LPSA17    1               0.0000000000
     18022       577  ECLIPA    HO13            6.2886034646      -28.9566493125        7.2902516712  LPSA17    1               0.0000000000
     18023       577  ECLIPA    C14             6.6241420944      -31.6064515287        8.4415944429  LPSA17    1               0.0000000000
     18024       577  ECLIPA    H14R            5.7418657784      -32.0513213598        8.9577266261  LPSA17    1               0.0000000000
     18025       577  ECLIPA    H14S            7.5375125827      -32.1413765009        8.7795085201  LPSA17    1               0.0000000000
     18026       577  ECLIPA    C15             6.4761000123      -31.8614531378        6.9494139323  LPSA17    1               0.0000000000
     18027       577  ECLIPA    H15R            5.6116999104      -31.2762804558        6.5682296220  LPSA17    1               0.0000000000
     18028       577  ECLIPA    H15S            6.2190180101      -32.9293154665        6.8321132805  LPSA17    1               0.0000000000
     18029       577  ECLIPA    C16             7.7617124690      -31.5473157305        6.1802495153  LPSA17    1               0.0000000000
     18030       577  ECLIPA    H16R            8.4822079464      -32.3853432256        6.2765160662  LPSA17    1               0.0000000000
     18031       577  ECLIPA    H16S            8.2527091974      -30.6685916836        6.6471637565  LPSA17    1               0.0000000000
     18032       577  ECLIPA    C17             7.4622025607      -31.3001854517        4.7042980204  LPSA17    1               0.0000000000
     18033       577  ECLIPA    H17R            6.7528440982      -32.0972882066        4.3868008900  LPSA17    1               0.0000000000
     18034       577  ECLIPA    H17S            8.3666180385      -31.3813699964        4.0644560218  LPSA17    1               0.0000000000
     18035       577  ECLIPA    C18             6.8170115750      -29.9336339382        4.4892292336  LPSA17    1               0.0000000000
     18036       577  ECLIPA    H18R            5.9037785899      -29.8873159784        5.1112164875  LPSA17    1               0.0000000000
     18037       577  ECLIPA    H18S            7.5222611484      -29.1256694612        4.7942203472  LPSA17    1               0.0000000000
     18038       577  ECLIPA    C19             6.4127602911      -29.7041980423        3.0545960066  LPSA17    1               0.0000000000
     18039       577  ECLIPA    H19R            5.8182628960      -28.7672843318        2.9463454071  LPSA17    1               0.0000000000
     18040       577  ECLIPA    H19S            5.8011473859      -30.5520279810        2.6599288127  LPSA17    1               0.0000000000
     18041       577  ECLIPA    C110            7.6352977349      -29.5833532672        2.1934379238  LPSA17    1               0.0000000000
     18042       577  ECLIPA    H110R           8.3589568926      -28.7900987253        2.4940015578  LPSA17    1               0.0000000000
     18043       577  ECLIPA    H110S           8.1630178053      -30.5597848673        2.1386376386  LPSA17    1               0.0000000000
     18044       577  ECLIPA    C111            7.1225333561      -29.2282941213        0.8602564682  LPSA17    1               0.0000000000
     18045       577  ECLIPA    H111R           6.3085325441      -29.9071184266        0.5020353851  LPSA17    1               0.0000000000
     18046       577  ECLIPA    H111S           6.7253916962      -28.1879080536        0.8588706730  LPSA17    1               0.0000000000
     18047       577  ECLIPA    C112            8.2187416506      -29.3110141816       -0.0999496093  LPSA17    1               0.0000000000
     18048       577  ECLIPA    H112R           8.9382873533      -28.4712801635        0.1166306483  LPSA17    1               0.0000000000
     18049       577  ECLIPA    H112S           8.8430317662      -30.2365732090       -0.0755003687  LPSA17    1               0.0000000000
     18050       577  ECLIPA    C113            7.3502185070      -29.2670134849       -1.3302937892  LPSA17    1               0.0000000000
     18051       577  ECLIPA    H113R           7.0443724583      -30.2569887765       -1.7825457761  LPSA17    1               0.0000000000
     18052       577  ECLIPA    H113S           6.6044352669      -28.4816591244       -1.4290532965  LPSA17    1               0.0000000000
     18053       577  ECLIPA    C114            8.1100164888      -28.6751738989       -2.2631099902  LPSA17    1               0.0000000000
     18054       577  ECLIPA    H114R           8.7465264466      -27.7943325815       -1.9865528206  LPSA17    1               0.0000000000
     18055       577  ECLIPA    H114S           8.6628565936      -29.6562843679       -2.3424186434  LPSA17    1               0.0000000000
     18056       577  ECLIPA    H114T           7.7642368265      -28.5137217645       -3.2960232634  LPSA17    1               0.0000000000
     18057       578  AKDO      C1             13.0416992800      -33.1839829251       22.4229553212  LPSA17    2               0.0000000000
     18058       578  AKDO      O11            14.2980260164      -33.2337737609       22.4496928092  LPSA17    2               0.0000000000
     18059       578  AKDO      O12            12.2571320647      -34.1230373368       22.1086095171  LPSA17    2               0.0000000000
     18060       578  AKDO      C2             12.3655988393      -31.8453242431       22.8721941803  LPSA17    2               0.0000000000
     18061       578  AKDO      C6             12.8091845828      -29.6892710759       23.8635818415  LPSA17    2               0.0000000000
     18062       578  AKDO      H6             12.3136251184      -29.2792459879       22.9485816049  LPSA17    2               0.0000000000
     18063       578  AKDO      O6             13.3496272706      -30.9584517019       23.4679441431  LPSA17    2               0.0000000000
     18064       578  AKDO      C3             11.2681289966      -32.0441663376       23.9259299813  LPSA17    2               0.0000000000
     18065       578  AKDO      H31            11.6722068331      -32.6212451034       24.7871310075  LPSA17    2               0.0000000000
     18066       578  AKDO      H32            10.4553141587      -32.6420800285       23.4534522844  LPSA17    2               0.0000000000
     18067       578  AKDO      C4             10.6794315479      -30.7427825270       24.3706664411  LPSA17    2               0.0000000000
     18068       578  AKDO      H4             10.2919799484      -30.1935575821       23.4824328498  LPSA17    2               0.0000000000
     18069       578  AKDO      O4              9.6704396883      -30.9271143113       25.3694687608  LPSA17    2               0.0000000000
     18070       578  AKDO      C5             11.7412394699      -29.8513453705       24.9632948291  LPSA17    2               0.0000000000
     18071       578  AKDO      H5             11.2802737573      -28.8397599241       25.0888740039  LPSA17    2               0.0000000000
     18072       578  AKDO      O5             12.1402512284      -30.4130098078       26.2575623029  LPSA17    2               0.0000000000
     18073       578  AKDO      C7             13.9173691728      -28.6927839093       24.1654918084  LPSA17    2               0.0000000000
     18074       578  AKDO      H7             14.4481214122      -29.0336757408       25.0768268286  LPSA17    2               0.0000000000
     18075       578  AKDO      O7             13.3551390848      -27.3812188345       24.3613061241  LPSA17    2               0.0000000000
     18076       578  AKDO      HO7            13.3176784112      -26.9902935900       23.4812845364  LPSA17    2               0.0000000000
     18077       578  AKDO      C8             14.9219982649      -28.6363783043       23.0294390398  LPSA17    2               0.0000000000
     18078       578  AKDO      H81            15.3005439724      -29.6779758673       22.8596149026  LPSA17    2               0.0000000000
     18079       578  AKDO      H82            14.4011078786      -28.3181912371       22.0936807363  LPSA17    2               0.0000000000
     18080       578  AKDO      O8             16.0277613565      -27.7480584026       23.3365236916  LPSA17    2               0.0000000000
     18081       578  AKDO      HO8            16.7942017296      -28.1697466418       22.9113224831  LPSA17    2               0.0000000000
     18082       579  AKDO      C1              7.8819627501      -30.4444296948       23.7872063838  LPSA17    3               1.0000000000
     18083       579  AKDO      O11             7.9795359702      -30.9681272423       22.6435822865  LPSA17    3               1.0000000000
     18084       579  AKDO      O12             7.4830031173      -29.2791486571       24.0711858153  LPSA17    3               1.0000000000
     18085       579  AKDO      C2              8.3531623908      -31.2951844162       25.0126949752  LPSA17    3               1.0000000000
     18086       579  AKDO      C6              8.7226814683      -33.5619814535       25.7887150030  LPSA17    3               1.0000000000
     18087       579  AKDO      H6              9.8014483374      -33.3430975626       25.9804018606  LPSA17    3               1.0000000000
     18088       579  AKDO      O6              8.2437658223      -32.7089577346       24.7266701957  LPSA17    3               1.0000000000
     18089       579  AKDO      C3              7.5648481221      -31.0319208736       26.3234612053  LPSA17    3               1.0000000000
     18090       579  AKDO      H31             6.4906072282      -31.2585204061       26.1520153107  LPSA17    3               1.0000000000
     18091       579  AKDO      H32             7.6262126421      -29.9566203816       26.5922502589  LPSA17    3               1.0000000000
     18092       579  AKDO      C4              8.1203826022      -31.8940476901       27.4263246000  LPSA17    3               1.0000000000
     18093       579  AKDO      H4              9.2215188314      -31.7212105286       27.4773177505  LPSA17    3               1.0000000000
     18094       579  AKDO      O4              7.5955505899      -31.6105340510       28.7129175107  LPSA17    3               1.0000000000
     18095       579  AKDO      HO4             8.3039110445      -31.4018006178       29.3450318848  LPSA17    3               1.0000000000
     18096       579  AKDO      C5              7.9235204411      -33.3343821152       27.0539725152  LPSA17    3               1.0000000000
     18097       579  AKDO      H5              8.3209564030      -33.9553592681       27.8866768040  LPSA17    3               1.0000000000
     18098       579  AKDO      O5              6.5550857816      -33.6894052871       26.8504269761  LPSA17    3               1.0000000000
     18099       579  AKDO      HO5             6.2397933118      -33.0489887892       26.2040235799  LPSA17    3               1.0000000000
     18100       579  AKDO      C7              8.6263215906      -34.9937245304       25.3485206837  LPSA17    3               1.0000000000
     18101       579  AKDO      H7              7.5560432167      -35.2367324317       25.1193291125  LPSA17    3               1.0000000000
     18102       579  AKDO      O7              9.0672218772      -35.8389641423       26.4184231362  LPSA17    3               1.0000000000
     18103       579  AKDO      HO7             8.8981863335      -36.7350968262       26.1322239669  LPSA17    3               1.0000000000
     18104       579  AKDO      C8              9.4712980233      -35.1998505122       24.1156704991  LPSA17    3               1.0000000000
     18105       579  AKDO      H81             9.1578844794      -34.4761472575       23.3238649734  LPSA17    3               1.0000000000
     18106       579  AKDO      H82            10.5473972195      -35.0099218726       24.3197907669  LPSA17    3               1.0000000000
     18107       579  AKDO      O8              9.2508996573      -36.5318105634       23.6346263928  LPSA17    3               1.0000000000
     18108       579  AKDO      HO8             8.4327881987      -36.3877164702       23.1329718677  LPSA17    3               1.0000000000
     18109       580  AHEP      C1             12.5446950041      -29.4884763081       27.2556452360  LPSA17    4               2.0000000000
     18110       580  AHEP      H1             13.5539357456      -29.1739158727       26.9149543574  LPSA17    4               2.0000000000
     18111       580  AHEP      C5             10.5006082834      -28.4313051385       27.9971727688  LPSA17    4               2.0000000000
     18112       580  AHEP      H5              9.9680584689      -29.2864630320       27.5171910889  LPSA17    4               2.0000000000
     18113       580  AHEP      O5             11.7643642615      -28.2842886992       27.3065129880  LPSA17    4               2.0000000000
     18114       580  AHEP      C2             12.7795507612      -29.9531628209       28.7097475658  LPSA17    4               2.0000000000
     18115       580  AHEP      H2             13.3208135843      -30.9217673159       28.6788982807  LPSA17    4               2.0000000000
     18116       580  AHEP      O2             13.6624447112      -29.0539219924       29.3733157141  LPSA17    4               2.0000000000
     18117       580  AHEP      HO2            14.2986788413      -29.5296963395       29.9061718561  LPSA17    4               2.0000000000
     18118       580  AHEP      C3             11.4946383921      -30.1597478890       29.4987434543  LPSA17    4               2.0000000000
     18119       580  AHEP      H3             10.8834961779      -30.9950504615       29.0943005826  LPSA17    4               2.0000000000
     18120       580  AHEP      O3             11.8105397104      -30.4280778496       30.8853700312  LPSA17    4               2.0000000000
     18121       580  AHEP      C4             10.7285795742      -28.8480976669       29.4584132151  LPSA17    4               2.0000000000
     18122       580  AHEP      H4             11.2766853899      -28.0214752459       29.9707804748  LPSA17    4               2.0000000000
     18123       580  AHEP      O4              9.4619002824      -29.1141749994       30.0581489955  LPSA17    4               2.0000000000
     18124       580  AHEP      P4              8.9872310767      -28.4152825911       31.4795604485  LPSA17    4               2.0000000000
     18125       580  AHEP      OP42            8.1177558577      -29.5085961692       32.1050699833  LPSA17    4               2.0000000000
     18126       580  AHEP      OP43            8.2091575875      -27.1931481864       30.9975845035  LPSA17    4               2.0000000000
     18127       580  AHEP      OP44           10.2596891485      -28.0931665172       32.2702721882  LPSA17    4               2.0000000000
     18128       580  AHEP      C6              9.6676716594      -27.1323847791       27.7919297969  LPSA17    4               2.0000000000
     18129       580  AHEP      H6              8.6197345066      -27.4059529494       28.0798588948  LPSA17    4               2.0000000000
     18130       580  AHEP      O6             10.0458720916      -26.0046352968       28.6158281821  LPSA17    4               2.0000000000
     18131       580  AHEP      HO6             9.3857707606      -25.8893526543       29.3205015025  LPSA17    4               2.0000000000
     18132       580  AHEP      C7              9.6333172858      -26.6218388401       26.3357220962  LPSA17    4               2.0000000000
     18133       580  AHEP      H71             8.8212820478      -25.8743080816       26.1999043193  LPSA17    4               2.0000000000
     18134       580  AHEP      H72             9.4464518732      -27.4793266715       25.6554880507  LPSA17    4               2.0000000000
     18135       580  AHEP      O7             10.8210939857      -25.9698271888       25.8643226563  LPSA17    4               2.0000000000
     18136       580  AHEP      HO7            10.8931253323      -25.1830732914       26.4226730380  LPSA17    4               2.0000000000
     18137       581  AHEP      C1             11.3614154263      -31.6300286359       31.4615316548  LPSA17    5               3.0000000000
     18138       581  AHEP      H1             10.4101446563      -31.9615884440       30.9821871078  LPSA17    5               3.0000000000
     18139       581  AHEP      C5             13.6030315067      -32.3043128962       31.9616495166  LPSA17    5               3.0000000000
     18140       581  AHEP      H5             13.9137791311      -31.2981318313       31.5911986354  LPSA17    5               3.0000000000
     18141       581  AHEP      O5             12.3670496244      -32.6484576863       31.2918314108  LPSA17    5               3.0000000000
     18142       581  AHEP      C2             11.0907561731      -31.4611917176       32.9669639761  LPSA17    5               3.0000000000
     18143       581  AHEP      H2             10.3746909806      -30.6133339422       33.0877932268  LPSA17    5               3.0000000000
     18144       581  AHEP      O2             10.4550837269      -32.6434057642       33.4974339783  LPSA17    5               3.0000000000
     18145       581  AHEP      HO2             9.5208446967      -32.4555973448       33.6345309870  LPSA17    5               3.0000000000
     18146       581  AHEP      C3             12.3717344625      -31.0902924751       33.7281239714  LPSA17    5               3.0000000000
     18147       581  AHEP      H3             12.7560672956      -30.1288684524       33.3078889981  LPSA17    5               3.0000000000
     18148       581  AHEP      O3             12.2219423184      -30.9535855189       35.1623325315  LPSA17    5               3.0000000000
     18149       581  AHEP      C4             13.3886824142      -32.1796370917       33.4636961749  LPSA17    5               3.0000000000
     18150       581  AHEP      H4             13.0057283352      -33.1593676015       33.8418959730  LPSA17    5               3.0000000000
     18151       581  AHEP      O4             14.6399640729      -31.8033044135       34.0496139498  LPSA17    5               3.0000000000
     18152       581  AHEP      P4             15.2643068816      -32.7182264491       35.3013228127  LPSA17    5               3.0000000000
     18153       581  AHEP      OP42           16.3418942587      -31.8116253941       35.8857499443  LPSA17    5               3.0000000000
     18154       581  AHEP      OP43           15.8303573709      -34.0130260914       34.7057729587  LPSA17    5               3.0000000000
     18155       581  AHEP      OP44           14.1523347533      -32.9698037309       36.3061934843  LPSA17    5               3.0000000000
     18156       581  AHEP      C6             14.7091359751      -33.2900326990       31.5785225291  LPSA17    5               3.0000000000
     18157       581  AHEP      H6             15.6644136288      -32.9479113546       32.0425860058  LPSA17    5               3.0000000000
     18158       581  AHEP      O6             14.4354876772      -34.6241732245       32.0403217457  LPSA17    5               3.0000000000
     18159       581  AHEP      HO6            13.7679588288      -35.0033383368       31.4908495833  LPSA17    5               3.0000000000
     18160       581  AHEP      C7             14.9265444388      -33.2786325908       30.0853228991  LPSA17    5               3.0000000000
     18161       581  AHEP      H71            16.0104460475      -33.4021957604       29.9502753959  LPSA17    5               3.0000000000
     18162       581  AHEP      H72            14.7074195943      -32.2963928642       29.6161582168  LPSA17    5               3.0000000000
     18163       581  AHEP      O7             14.2962788678      -34.3943863657       29.4504136042  LPSA17    5               3.0000000000
     18164       582  AHEP      C1             13.1215544702      -34.0257455428       28.7971942544  LPSA17    6               4.0000000000
     18165       582  AHEP      H1             12.8162712500      -32.9884914853       29.0332954457  LPSA17    6               4.0000000000
     18166       582  AHEP      C5             13.6926363278      -35.3845136867       26.9934275456  LPSA17    6               4.0000000000
     18167       582  AHEP      H5             14.6451687227      -35.6859710167       27.5042924432  LPSA17    6               4.0000000000
     18168       582  AHEP      O5             13.3203692817      -34.0717421273       27.3982640257  LPSA17    6               4.0000000000
     18169       582  AHEP      C2             12.0314657883      -34.9738362612       29.2317449290  LPSA17    6               4.0000000000
     18170       582  AHEP      H2             11.9531098264      -34.8934404381       30.3392326830  LPSA17    6               4.0000000000
     18171       582  AHEP      O2             10.7828353041      -34.5164091685       28.7398456752  LPSA17    6               4.0000000000
     18172       582  AHEP      HO2            10.2426115723      -34.2501899615       29.4851644067  LPSA17    6               4.0000000000
     18173       582  AHEP      C3             12.3994363805      -36.4020743025       28.8494917916  LPSA17    6               4.0000000000
     18174       582  AHEP      H3             13.3447880618      -36.6790325624       29.3743049615  LPSA17    6               4.0000000000
     18175       582  AHEP      O3             11.3839525164      -37.3399922031       29.2419731302  LPSA17    6               4.0000000000
     18176       582  AHEP      HO3            11.5852082728      -37.9023878991       29.9924163044  LPSA17    6               4.0000000000
     18177       582  AHEP      C4             12.6263601079      -36.4253585905       27.3464538864  LPSA17    6               4.0000000000
     18178       582  AHEP      H4             11.6810831717      -36.1995607127       26.8013885610  LPSA17    6               4.0000000000
     18179       582  AHEP      O4             13.0694250726      -37.7138142146       26.9200194216  LPSA17    6               4.0000000000
     18180       582  AHEP      HO4            14.0111277633      -37.8007133393       27.1000259833  LPSA17    6               4.0000000000
     18181       582  AHEP      C6             14.0246174761      -35.3182899028       25.5365810604  LPSA17    6               4.0000000000
     18182       582  AHEP      H6             14.1355622386      -36.3523895648       25.4004606679  LPSA17    6               4.0000000000
     18183       582  AHEP      O6             12.9616729875      -35.3008743452       24.6117751885  LPSA17    6               4.0000000000
     18184       582  AHEP      HO6            13.1368052959      -34.6110326975       23.9553630279  LPSA17    6               4.0000000000
     18185       582  AHEP      C7             15.2654338968      -34.4853431793       25.1961770142  LPSA17    6               4.0000000000
     18186       582  AHEP      H71            15.6279424066      -34.6973600107       24.1689210421  LPSA17    6               4.0000000000
     18187       582  AHEP      H72            16.0986190715      -34.7188964029       25.8975777022  LPSA17    6               4.0000000000
     18188       582  AHEP      O7             15.0125134519      -33.0981452250       25.2939124359  LPSA17    6               4.0000000000
     18189       582  AHEP      HO7            14.9729230319      -32.8914344600       26.2225519439  LPSA17    6               4.0000000000
     18190       583  AGLC      C1             11.9553587031      -29.6636174658       35.6553211516  LPSA17    7               4.0000000000
     18191       583  AGLC      H1             12.5964192054      -28.9042989169       35.1581576828  LPSA17    7               4.0000000000
     18192       583  AGLC      C5              9.6662268316      -30.2187164734       36.0950782453  LPSA17    7               4.0000000000
     18193       583  AGLC      H5              9.8805108897      -31.2746970800       35.8199503873  LPSA17    7               4.0000000000
     18194       583  AGLC      O5             10.5895381696      -29.3396202032       35.4289774837  LPSA17    7               4.0000000000
     18195       583  AGLC      C2             12.1592221266      -29.5070097371       37.1675366399  LPSA17    7               4.0000000000
     18196       583  AGLC      H2             11.7743196149      -28.4949935073       37.4308075753  LPSA17    7               4.0000000000
     18197       583  AGLC      O2             13.5317649400      -29.5182428166       37.5645280241  LPSA17    7               4.0000000000
     18198       583  AGLC      HO2            13.8126498180      -30.4532450933       37.5783761295  LPSA17    7               4.0000000000
     18199       583  AGLC      C3             11.2986816122      -30.4519266008       37.9699570636  LPSA17    7               4.0000000000
     18200       583  AGLC      H3             11.4999262586      -31.4868691341       37.6068936087  LPSA17    7               4.0000000000
     18201       583  AGLC      O3             11.5843169558      -30.4056200926       39.3968505394  LPSA17    7               4.0000000000
     18202       583  AGLC      C4              9.8597103364      -30.0986010254       37.6064944721  LPSA17    7               4.0000000000
     18203       583  AGLC      H4              9.6379873616      -29.0447286971       37.9248553041  LPSA17    7               4.0000000000
     18204       583  AGLC      O4              8.9892186024      -31.0103275610       38.2567060334  LPSA17    7               4.0000000000
     18205       583  AGLC      HO4             8.2453114194      -30.5438977732       38.6452128911  LPSA17    7               4.0000000000
     18206       583  AGLC      C6              8.2885685706      -29.9377912535       35.5167353999  LPSA17    7               4.0000000000
     18207       583  AGLC      H61             8.3413307193      -30.0836922476       34.4116008014  LPSA17    7               4.0000000000
     18208       583  AGLC      H62             7.4969431111      -30.6224914846       35.8914124278  LPSA17    7               4.0000000000
     18209       583  AGLC      O6              7.8935086602      -28.5957539662       35.7475682377  LPSA17    7               4.0000000000
     18210       583  AGLC      HO6             7.3156436750      -28.5107695612       36.4905863925  LPSA17    7               4.0000000000
     18211       584  AGLC      C1             12.0377569308      -31.6432716842       39.9244383561  LPSA17    8               5.0000000000
     18212       584  AGLC      H1             11.4222694332      -32.4657979600       39.5182683549  LPSA17    8               5.0000000000
     18213       584  AGLC      C5             14.3995177468      -31.0639977230       40.2258551386  LPSA17    8               5.0000000000
     18214       584  AGLC      H5             14.1630011806      -30.0325195551       39.8923634108  LPSA17    8               5.0000000000
     18215       584  AGLC      O5             13.4214399727      -31.9331704516       39.6084183843  LPSA17    8               5.0000000000
     18216       584  AGLC      C2             11.8833043992      -31.7376356478       41.4364771381  LPSA17    8               5.0000000000
     18217       584  AGLC      H2             12.1747044499      -32.7770683593       41.7028457234  LPSA17    8               5.0000000000
     18218       584  AGLC      O2             10.5549274652      -31.5398730660       41.9477822955  LPSA17    8               5.0000000000
     18219       584  AGLC      C3             12.8183774350      -30.7874158878       42.1267436431  LPSA17    8               5.0000000000
     18220       584  AGLC      H3             12.5764760494      -29.7685334023       41.7191779894  LPSA17    8               5.0000000000
     18221       584  AGLC      O3             12.5200543664      -30.8079156289       43.5412631978  LPSA17    8               5.0000000000
     18222       584  AGLC      C4             14.2333328251      -31.1526205318       41.7386269899  LPSA17    8               5.0000000000
     18223       584  AGLC      H4             14.4066817863      -32.2165081380       42.0349114106  LPSA17    8               5.0000000000
     18224       584  AGLC      O4             15.1788844828      -30.3268354075       42.4149718822  LPSA17    8               5.0000000000
     18225       584  AGLC      HO4            14.8685904197      -29.4175906318       42.3739536120  LPSA17    8               5.0000000000
     18226       584  AGLC      C6             15.8475432754      -31.3182840703       39.7528951277  LPSA17    8               5.0000000000
     18227       584  AGLC      H61            15.9006490675      -31.4081063009       38.6409697542  LPSA17    8               5.0000000000
     18228       584  AGLC      H62            16.4902015877      -30.4537506052       40.0406157468  LPSA17    8               5.0000000000
     18229       584  AGLC      O6             16.4648468474      -32.4621443582       40.3426989814  LPSA17    8               5.0000000000
     18230       584  AGLC      HO6            16.8386869101      -32.2109878803       41.1874512731  LPSA17    8               5.0000000000
     18231       585  AGAL      C1              9.5266789833      -32.3504011142       41.4441026402  LPSA17    9               6.0000000000
     18232       585  AGAL      H1              9.5521162934      -32.3476184514       40.3422735425  LPSA17    9               6.0000000000
     18233       585  AGAL      C5              9.4248827208      -33.8510554861       43.2824857738  LPSA17    9               6.0000000000
     18234       585  AGAL      H5             10.1360953521      -33.1297429692       43.7488381350  LPSA17    9               6.0000000000
     18235       585  AGAL      O5              9.6177852430      -33.7283850262       41.8641176194  LPSA17    9               6.0000000000
     18236       585  AGAL      C2              8.1973171823      -31.7286753411       41.8399210355  LPSA17    9               6.0000000000
     18237       585  AGAL      H2              7.4210208044      -32.3680260421       41.3688242185  LPSA17    9               6.0000000000
     18238       585  AGAL      O2              8.0977402506      -30.4315802340       41.1929874864  LPSA17    9               6.0000000000
     18239       585  AGAL      C3              7.9844669742      -31.8386784699       43.3317324167  LPSA17    9               6.0000000000
     18240       585  AGAL      H3              8.7812502583      -31.2833609591       43.8847628160  LPSA17    9               6.0000000000
     18241       585  AGAL      O3              6.7500541166      -31.2523676017       43.7102995293  LPSA17    9               6.0000000000
     18242       585  AGAL      HO3             6.7315321995      -30.4008366220       43.2566357024  LPSA17    9               6.0000000000
     18243       585  AGAL      C4              8.0401001389      -33.3278532461       43.6764244542  LPSA17    9               6.0000000000
     18244       585  AGAL      H4              7.9318068946      -33.4567581903       44.7780851246  LPSA17    9               6.0000000000
     18245       585  AGAL      O4              6.9909504633      -34.0622069882       43.0324949431  LPSA17    9               6.0000000000
     18246       585  AGAL      HO4             6.8155009519      -34.8301124266       43.5865490685  LPSA17    9               6.0000000000
     18247       585  AGAL      C6              9.8487649445      -35.2108217905       43.8567696970  LPSA17    9               6.0000000000
     18248       585  AGAL      H61            10.9134825836      -35.4065123996       43.6125722060  LPSA17    9               6.0000000000
     18249       585  AGAL      H62             9.7666536586      -35.1763376006       44.9613932037  LPSA17    9               6.0000000000
     18250       585  AGAL      O6              9.1138629117      -36.3566712580       43.4421577795  LPSA17    9               6.0000000000
     18251       585  AGAL      HO6             9.4961565517      -36.7097939044       42.6328658382  LPSA17    9               6.0000000000
     18252       586  AGAL      C1              7.5736289759      -29.2374618491       41.7638169698  LPSA17    10              7.0000000000
     18253       586  AGAL      H1              6.4729384766      -29.3571440229       41.8544172238  LPSA17    10              7.0000000000
     18254       586  AGAL      C5              9.4989051555      -28.5284217584       43.0478803437  LPSA17    10              7.0000000000
     18255       586  AGAL      H5              9.9846200009      -29.4432684074       42.6449281334  LPSA17    10              7.0000000000
     18256       586  AGAL      O5              8.0918849000      -28.8468160032       43.0637703617  LPSA17    10              7.0000000000
     18257       586  AGAL      C2              7.8343725949      -28.1193619283       40.7657432791  LPSA17    10              7.0000000000
     18258       586  AGAL      H2              7.3228130757      -27.2064284531       41.1344226351  LPSA17    10              7.0000000000
     18259       586  AGAL      O2              7.2016318238      -28.3550613289       39.5082665500  LPSA17    10              7.0000000000
     18260       586  AGAL      HO2             6.7954099820      -27.4985358735       39.2675237585  LPSA17    10              7.0000000000
     18261       586  AGAL      C3              9.3393760564      -27.8439109815       40.6985539646  LPSA17    10              7.0000000000
     18262       586  AGAL      H3              9.8558150900      -28.7979552943       40.4455556845  LPSA17    10              7.0000000000
     18263       586  AGAL      O3              9.7161146444      -26.8899600125       39.7124417696  LPSA17    10              7.0000000000
     18264       586  AGAL      HO3            10.1601015744      -27.3205507194       38.9801955188  LPSA17    10              7.0000000000
     18265       586  AGAL      C4              9.8014501011      -27.4074514232       42.0714010672  LPSA17    10              7.0000000000
     18266       586  AGAL      H4             10.9045230271      -27.2480491387       42.0724029242  LPSA17    10              7.0000000000
     18267       586  AGAL      O4              9.1786446624      -26.1916738995       42.4667538650  LPSA17    10              7.0000000000
     18268       586  AGAL      HO4             8.2480534537      -26.3858993053       42.5825512733  LPSA17    10              7.0000000000
     18269       586  AGAL      C6             10.1429718941      -28.3325918761       44.4310461220  LPSA17    10              7.0000000000
     18270       586  AGAL      H61             9.8309307822      -29.1575737468       45.1003142782  LPSA17    10              7.0000000000
     18271       586  AGAL      H62            11.2447710588      -28.4192956915       44.2788234918  LPSA17    10              7.0000000000
     18272       586  AGAL      O6              9.8945895355      -27.0911361752       45.1117011646  LPSA17    10              7.0000000000
     18273       586  AGAL      HO6             9.3736726372      -27.2490807520       45.9078075058  LPSA17    10              7.0000000000
     18274       587  BGLC      C1             13.2370082410      -31.6160598199       44.4767916516  LPSA17    11              6.0000000000
     18275       587  BGLC      H1             14.2513254774      -31.1864098896       44.6190098812  LPSA17    11              6.0000000000
     18276       587  BGLC      C5             13.9040194975      -33.8751944471       45.1215660949  LPSA17    11              6.0000000000
     18277       587  BGLC      H5             14.9470211761      -33.5533705887       45.3663800928  LPSA17    11              6.0000000000
     18278       587  BGLC      O5             13.2660418325      -33.0203672573       44.1244178421  LPSA17    11              6.0000000000
     18279       587  BGLC      C2             12.4544238427      -31.4851061489       45.7823119185  LPSA17    11              6.0000000000
     18280       587  BGLC      H2             11.4039020484      -31.8376817989       45.6397496645  LPSA17    11              6.0000000000
     18281       587  BGLC      O2             12.3684206345      -30.1186995925       46.1629317964  LPSA17    11              6.0000000000
     18282       587  BGLC      HO2            11.4487034458      -29.8820601507       46.2915787938  LPSA17    11              6.0000000000
     18283       587  BGLC      C3             13.0362370527      -32.3121807615       46.9036431298  LPSA17    11              6.0000000000
     18284       587  BGLC      H3             14.0509996948      -31.9424052544       47.1762931458  LPSA17    11              6.0000000000
     18285       587  BGLC      O3             12.1492902057      -32.2624909704       48.0460826511  LPSA17    11              6.0000000000
     18286       587  BGLC      C4             13.0767602320      -33.7499684188       46.4142471724  LPSA17    11              6.0000000000
     18287       587  BGLC      H4             12.0314771729      -34.0646015322       46.1849548153  LPSA17    11              6.0000000000
     18288       587  BGLC      O4             13.5450088810      -34.6122587414       47.4343074083  LPSA17    11              6.0000000000
     18289       587  BGLC      HO4            12.8693789152      -34.6585389762       48.1319954891  LPSA17    11              6.0000000000
     18290       587  BGLC      C6             14.0329507121      -35.2879540342       44.5222245648  LPSA17    11              6.0000000000
     18291       587  BGLC      H61            14.1641009261      -36.0740136566       45.2986054857  LPSA17    11              6.0000000000
     18292       587  BGLC      H62            13.1253639453      -35.5253435391       43.9277250401  LPSA17    11              6.0000000000
     18293       587  BGLC      O6             15.1534291292      -35.4107704226       43.6454449322  LPSA17    11              6.0000000000
     18294       587  BGLC      HO6            15.8112960980      -36.0249973049       43.9931226957  LPSA17    11              6.0000000000
     18295       588  BGLCNA    C1             12.6587246427      -31.8834009472       49.3165587887  LPSA17    12              7.0000000000
     18296       588  BGLCNA    H1             12.7027192077      -30.7735596795       49.3783025785  LPSA17    12              7.0000000000
     18297       588  BGLCNA    C5             14.4481593479      -32.0082992529       50.8748671578  LPSA17    12              7.0000000000
     18298       588  BGLCNA    H5             14.5022447703      -30.8937221627       50.9586624612  LPSA17    12              7.0000000000
     18299       588  BGLCNA    O5             13.9511585232      -32.4076204606       49.5828445947  LPSA17    12              7.0000000000
     18300       588  BGLCNA    C2             11.6888783110      -32.4364405764       50.3540006739  LPSA17    12              7.0000000000
     18301       588  BGLCNA    H2             11.7816784294      -33.5551090697       50.2991118350  LPSA17    12              7.0000000000
     18302       588  BGLCNA    N              10.3539202136      -31.9896796027       50.0533089690  LPSA17    12              7.0000000000
     18303       588  BGLCNA    HN             10.2620847290      -31.0067674939       49.9584787015  LPSA17    12              7.0000000000
     18304       588  BGLCNA    C               9.3314108957      -32.8316253606       49.9178892160  LPSA17    12              7.0000000000
     18305       588  BGLCNA    O               9.4441535465      -34.0335298500       50.0781709299  LPSA17    12              7.0000000000
     18306       588  BGLCNA    CT              7.9984942073      -32.2572750773       49.5546486634  LPSA17    12              7.0000000000
     18307       588  BGLCNA    HT1             7.2974440953      -32.3117720110       50.4014290554  LPSA17    12              7.0000000000
     18308       588  BGLCNA    HT2             7.5396451075      -32.8395828118       48.7268797486  LPSA17    12              7.0000000000
     18309       588  BGLCNA    HT3             8.1250890441      -31.1992462892       49.2438501054  LPSA17    12              7.0000000000
     18310       588  BGLCNA    C3             12.0846874663      -32.0335043493       51.7632037319  LPSA17    12              7.0000000000
     18311       588  BGLCNA    H3             12.0713675584      -30.9211802748       51.8061016017  LPSA17    12              7.0000000000
     18312       588  BGLCNA    O3             11.1472134376      -32.5219199304       52.7731830806  LPSA17    12              7.0000000000
     18313       588  BGLCNA    C4             13.5024889572      -32.5544460076       51.9573914373  LPSA17    12              7.0000000000
     18314       588  BGLCNA    H4             13.5107416655      -33.6687940658       51.8889727402  LPSA17    12              7.0000000000
     18315       588  BGLCNA    O4             13.9802573572      -32.2103235456       53.2488125445  LPSA17    12              7.0000000000
     18316       588  BGLCNA    HO4            14.1876973993      -31.2636461939       53.2798920964  LPSA17    12              7.0000000000
     18317       588  BGLCNA    C6             15.8623544741      -32.5568064902       50.9096925343  LPSA17    12              7.0000000000
     18318       588  BGLCNA    H61            16.3407349118      -32.4145770305       51.8897655770  LPSA17    12              7.0000000000
     18319       588  BGLCNA    H62            15.8345673050      -33.6596373130       50.7893870835  LPSA17    12              7.0000000000
     18320       588  BGLCNA    O6             16.6910828971      -31.9839690127       49.8827328946  LPSA17    12              7.0000000000
     18321       588  BGLCNA    HO6            17.0592692486      -31.1344021124       50.1352641676  LPSA17    12              7.0000000000
     18322       589  AGAL      C1             10.8598244699      -31.6052643339       53.8374105234  LPSA17    13              8.0000000000
     18323       589  AGAL      H1             11.8082732897      -31.1038868050       54.1524749855  LPSA17    13              8.0000000000
     18324       589  AGAL      C5              8.5485535131      -31.2407241131       53.2655597840  LPSA17    13              8.0000000000
     18325       589  AGAL      H5              8.7312507602      -32.0677128246       52.5397800568  LPSA17    13              8.0000000000
     18326       589  AGAL      O5              9.8481438013      -30.6292216830       53.4701934816  LPSA17    13              8.0000000000
     18327       589  AGAL      C2             10.3205118533      -32.2740978050       55.1085534574  LPSA17    13              8.0000000000
     18328       589  AGAL      H2             10.0794860679      -31.4330434348       55.8011782080  LPSA17    13              8.0000000000
     18329       589  AGAL      O2             11.3275542139      -33.0771069682       55.7449847453  LPSA17    13              8.0000000000
     18330       589  AGAL      C3              8.9858632859      -32.9639431644       54.8943857679  LPSA17    13              8.0000000000
     18331       589  AGAL      H3              9.0790972734      -33.6545286925       54.0244630959  LPSA17    13              8.0000000000
     18332       589  AGAL      O3              8.5595095234      -33.7436228377       56.0054972148  LPSA17    13              8.0000000000
     18333       589  AGAL      HO3             8.2042435528      -34.5879002699       55.7035845005  LPSA17    13              8.0000000000
     18334       589  AGAL      C4              7.9789010528      -31.9071099892       54.5133788066  LPSA17    13              8.0000000000
     18335       589  AGAL      H4              7.0252653405      -32.4163971756       54.2375645516  LPSA17    13              8.0000000000
     18336       589  AGAL      O4              7.6750262211      -30.9721616945       55.5572236257  LPSA17    13              8.0000000000
     18337       589  AGAL      HO4             8.4810280643      -30.7157629873       56.0318958320  LPSA17    13              8.0000000000
     18338       589  AGAL      C6              7.5244243942      -30.3799942074       52.5453382388  LPSA17    13              8.0000000000
     18339       589  AGAL      H61             7.9741958775      -29.9972670448       51.6025745249  LPSA17    13              8.0000000000
     18340       589  AGAL      H62             6.6567069295      -31.0392537745       52.2987110727  LPSA17    13              8.0000000000
     18341       589  AGAL      O6              7.0083279986      -29.2887055217       53.3038706650  LPSA17    13              8.0000000000
     18342       589  AGAL      HO6             6.4365571244      -29.6525570109       53.9872310392  LPSA17    13              8.0000000000
     18343       590  ARHM      C1             11.8027104959      -32.6197942107       57.0024452591  LPSA17    14              9.0000000000
     18344       590  ARHM      H1             11.7357030136      -31.5105420677       57.0409785926  LPSA17    14              9.0000000000
     18345       590  ARHM      C5             13.4201552219      -34.3515798652       57.1822898598  LPSA17    14              9.0000000000
     18346       590  ARHM      H5             13.0387648306      -34.7427877976       56.2115910599  LPSA17    14              9.0000000000
     18347       590  ARHM      O5             13.1877841857      -32.9370615191       57.1937830188  LPSA17    14              9.0000000000
     18348       590  ARHM      C2             10.9799942787      -33.2408528688       58.1119929423  LPSA17    14              9.0000000000
     18349       590  ARHM      H2              9.9137008117      -32.9879368997       57.9324521518  LPSA17    14              9.0000000000
     18350       590  ARHM      O2             11.3265920993      -32.8815419530       59.4635345743  LPSA17    14              9.0000000000
     18351       590  ARHM      C3             11.1741427405      -34.7274439249       58.0609017251  LPSA17    14              9.0000000000
     18352       590  ARHM      H3             10.9783015959      -35.0859161662       57.0252579144  LPSA17    14              9.0000000000
     18353       590  ARHM      O3             10.2379413422      -35.4047850768       58.8999760593  LPSA17    14              9.0000000000
     18354       590  ARHM      HO3            10.5469192958      -35.3228738761       59.8047816431  LPSA17    14              9.0000000000
     18355       590  ARHM      C4             12.6449153243      -35.0194449115       58.3258711208  LPSA17    14              9.0000000000
     18356       590  ARHM      H4             12.9983264027      -34.5620809343       59.2833709646  LPSA17    14              9.0000000000
     18357       590  ARHM      O4             12.9120210634      -36.4166043457       58.3914291558  LPSA17    14              9.0000000000
     18358       590  ARHM      HO4            13.1116076962      -36.7010820775       59.3047084745  LPSA17    14              9.0000000000
     18359       590  ARHM      C6             14.9449082339      -34.5722444547       57.2476572733  LPSA17    14              9.0000000000
     18360       590  ARHM      H61            15.4938261464      -33.8873600175       56.5704540970  LPSA17    14              9.0000000000
     18361       590  ARHM      H62            15.2548246042      -34.4205303375       58.3031486703  LPSA17    14              9.0000000000
     18362       590  ARHM      H63            15.2261142871      -35.6013158153       56.9569908085  LPSA17    14              9.0000000000
     18363       591  ARHM      C1             11.3906276997      -31.5106199187       59.7499653485  LPSA17    15             10.0000000000
     18364       591  ARHM      H1             10.7297458131      -30.9523923519       59.0535836948  LPSA17    15             10.0000000000
     18365       591  ARHM      C5             13.6547933941      -31.5018485643       60.6390645756  LPSA17    15             10.0000000000
     18366       591  ARHM      H5             13.8490306930      -32.5851904470       60.4467392208  LPSA17    15             10.0000000000
     18367       591  ARHM      O5             12.7268209603      -30.9672661924       59.6732156665  LPSA17    15             10.0000000000
     18368       591  ARHM      C2             10.8351335566      -31.2941930390       61.1418284245  LPSA17    15             10.0000000000
     18369       591  ARHM      H2              9.8357109784      -31.7849610373       61.2063149839  LPSA17    15             10.0000000000
     18370       591  ARHM      O2             10.6592850116      -29.8730151883       61.3023483857  LPSA17    15             10.0000000000
     18371       591  ARHM      C3             11.7503819408      -31.9467615461       62.1387662460  LPSA17    15             10.0000000000
     18372       591  ARHM      H3             11.8862392866      -33.0152274731       61.8411908002  LPSA17    15             10.0000000000
     18373       591  ARHM      O3             11.0935554909      -31.9087168937       63.4071071677  LPSA17    15             10.0000000000
     18374       591  ARHM      C4             13.1034951673      -31.2678999067       62.0335164411  LPSA17    15             10.0000000000
     18375       591  ARHM      H4             12.9532966897      -30.1703133859       62.1554987484  LPSA17    15             10.0000000000
     18376       591  ARHM      O4             14.0565397034      -31.6722760991       63.0136251504  LPSA17    15             10.0000000000
     18377       591  ARHM      HO4            14.7735200859      -31.0295557273       62.9544025214  LPSA17    15             10.0000000000
     18378       591  ARHM      C6             15.0012004527      -30.7782536926       60.4719486196  LPSA17    15             10.0000000000
     18379       591  ARHM      H61            15.8163901878      -31.2487192053       61.0498204819  LPSA17    15             10.0000000000
     18380       591  ARHM      H62            15.2649271173      -30.7586546881       59.3955596050  LPSA17    15             10.0000000000
     18381       591  ARHM      H63            14.9395111496      -29.7257574564       60.8148036758  LPSA17    15             10.0000000000
     18382       592  BMANNA    C1             10.1673065192      -29.3444517105       62.5130334715  LPSA17    16             11.0000000000
     18383       592  BMANNA    H1             10.9289607588      -29.4925785797       63.3173866285  LPSA17    16             11.0000000000
     18384       592  BMANNA    C5              8.4895982539      -29.4078234113       64.2059211864  LPSA17    16             11.0000000000
     18385       592  BMANNA    H5              9.3090426730      -29.5610888656       64.9509467216  LPSA17    16             11.0000000000
     18386       592  BMANNA    O5              8.9281104982      -29.9306722520       62.9326620881  LPSA17    16             11.0000000000
     18387       592  BMANNA    C2              9.9566920952      -27.8429523485       62.3033644014  LPSA17    16             11.0000000000
     18388       592  BMANNA    H2             10.9560000626      -27.4209738159       62.0354535346  LPSA17    16             11.0000000000
     18389       592  BMANNA    N               9.0080968972      -27.4797337486       61.2626747080  LPSA17    16             11.0000000000
     18390       592  BMANNA    HN              8.0815323823      -27.3275885463       61.5702362958  LPSA17    16             11.0000000000
     18391       592  BMANNA    C               9.3270357529      -27.2313781678       59.9913686452  LPSA17    16             11.0000000000
     18392       592  BMANNA    O              10.4680730380      -27.3057534601       59.5447462968  LPSA17    16             11.0000000000
     18393       592  BMANNA    CT              8.1760693789      -26.8811977492       59.0803257806  LPSA17    16             11.0000000000
     18394       592  BMANNA    HT1             8.1625763383      -25.7953626737       58.8582584764  LPSA17    16             11.0000000000
     18395       592  BMANNA    HT2             7.2105053626      -27.1661872657       59.5378559424  LPSA17    16             11.0000000000
     18396       592  BMANNA    HT3             8.2896519696      -27.4217019134       58.1198308941  LPSA17    16             11.0000000000
     18397       592  BMANNA    C3              9.5143903018      -27.2526144697       63.6216996243  LPSA17    16             11.0000000000
     18398       592  BMANNA    H3             10.3392605770      -27.4570213892       64.3162137612  LPSA17    16             11.0000000000
     18399       592  BMANNA    O3              9.3734215487      -25.8426107547       63.5660896245  LPSA17    16             11.0000000000
     18400       592  BMANNA    HO3             9.9433685879      -25.4641102710       64.2705700957  LPSA17    16             11.0000000000
     18401       592  BMANNA    C4              8.2367300917      -27.9148331499       64.0992572738  LPSA17    16             11.0000000000
     18402       592  BMANNA    H4              7.4181547585      -27.7181061535       63.3705675607  LPSA17    16             11.0000000000
     18403       592  BMANNA    O4              7.7755057386      -27.4131370251       65.3505200190  LPSA17    16             11.0000000000
     18404       592  BMANNA    HO4             6.8334042050      -27.5802987064       65.4546463407  LPSA17    16             11.0000000000
     18405       592  BMANNA    C6              7.2769140447      -30.1304075643       64.7715441924  LPSA17    16             11.0000000000
     18406       592  BMANNA    H61             7.3227968568      -30.0698056322       65.8814181478  LPSA17    16             11.0000000000
     18407       592  BMANNA    H62             6.3493947414      -29.6150599265       64.4372119838  LPSA17    16             11.0000000000
     18408       592  BMANNA    O6              7.1493009861      -31.4968089450       64.3956598474  LPSA17    16             11.0000000000
     18409       592  BMANNA    HO6             6.3392392274      -31.5298863014       63.8830494972  LPSA17    16             11.0000000000
     18410       593  BGLCNA    C1             11.2289844722      -33.0884288526       64.1424095263  LPSA17    17             11.0000000000
     18411       593  BGLCNA    H1             12.2526977575      -33.4991380692       63.9803006643  LPSA17    17             11.0000000000
     18412       593  BGLCNA    C5             10.3638049943      -35.2877705387       64.5593308648  LPSA17    17             11.0000000000
     18413       593  BGLCNA    H5             11.3351018346      -35.6947652934       64.2652405624  LPSA17    17             11.0000000000
     18414       593  BGLCNA    O5             10.2480655035      -34.0798004228       63.7917672020  LPSA17    17             11.0000000000
     18415       593  BGLCNA    C2             11.0340893226      -32.6622246751       65.5795152531  LPSA17    17             11.0000000000
     18416       593  BGLCNA    H2              9.9836405663      -32.3096597874       65.7487095439  LPSA17    17             11.0000000000
     18417       593  BGLCNA    N              11.8954330594      -31.5430670277       65.8727227387  LPSA17    17             11.0000000000
     18418       593  BGLCNA    HN             12.7372978693      -31.4928905476       65.3528128590  LPSA17    17             11.0000000000
     18419       593  BGLCNA    C              11.6936288368      -30.6238280742       66.8096540764  LPSA17    17             11.0000000000
     18420       593  BGLCNA    O              10.6833429099      -30.5436251494       67.5078138103  LPSA17    17             11.0000000000
     18421       593  BGLCNA    CT             12.8779391592      -29.7187749560       66.9952725454  LPSA17    17             11.0000000000
     18422       593  BGLCNA    HT1            12.8334460553      -28.7355220420       66.4935408326  LPSA17    17             11.0000000000
     18423       593  BGLCNA    HT2            13.8133833735      -30.2259652725       66.6976821120  LPSA17    17             11.0000000000
     18424       593  BGLCNA    HT3            12.8744049908      -29.4919881308       68.0722530085  LPSA17    17             11.0000000000
     18425       593  BGLCNA    C3             11.2819402147      -33.8906335489       66.4326020981  LPSA17    17             11.0000000000
     18426       593  BGLCNA    H3             12.2773582447      -34.2648226147       66.0924556779  LPSA17    17             11.0000000000
     18427       593  BGLCNA    O3             11.3716009305      -33.5266446827       67.8360615336  LPSA17    17             11.0000000000
     18428       593  BGLCNA    C4             10.2314254249      -34.9318094672       66.0474167937  LPSA17    17             11.0000000000
     18429       593  BGLCNA    H4              9.2102709425      -34.4903931885       66.1540561184  LPSA17    17             11.0000000000
     18430       593  BGLCNA    O4             10.3204928239      -36.0920017745       66.8798210569  LPSA17    17             11.0000000000
     18431       593  BGLCNA    HO4             9.6092123943      -36.7178631863       66.6882744757  LPSA17    17             11.0000000000
     18432       593  BGLCNA    C6              9.3349185866      -36.3321923789       64.1265241452  LPSA17    17             11.0000000000
     18433       593  BGLCNA    H61             9.7626205174      -37.3587639266       64.1693196503  LPSA17    17             11.0000000000
     18434       593  BGLCNA    H62             8.4548187781      -36.2977621589       64.8087149422  LPSA17    17             11.0000000000
     18435       593  BGLCNA    O6              8.8572497553      -36.1333132866       62.8050332829  LPSA17    17             11.0000000000
     18436       593  BGLCNA    HO6             9.5926977750      -36.1274425926       62.1894849788  LPSA17    17             11.0000000000
     18437       594  AGAL      C1             12.3068057509      -34.2411030046       68.6278881604  LPSA17    18             12.0000000000
     18438       594  AGAL      H1             11.8987089180      -35.2576006404       68.8158604252  LPSA17    18             12.0000000000
     18439       594  AGAL      C5             14.2677944347      -33.1591758967       67.8545765654  LPSA17    18             12.0000000000
     18440       594  AGAL      H5             13.5726819594      -32.4197993667       67.4084423341  LPSA17    18             12.0000000000
     18441       594  AGAL      O5             13.5722771083      -34.4043839180       67.9872535469  LPSA17    18             12.0000000000
     18442       594  AGAL      C2             12.6041153488      -33.5981233748       69.9721612755  LPSA17    18             12.0000000000
     18443       594  AGAL      H2             13.3753684164      -34.2892882010       70.3978592712  LPSA17    18             12.0000000000
     18444       594  AGAL      O2             11.4934243225      -33.6501526412       70.8689851148  LPSA17    18             12.0000000000
     18445       594  AGAL      C3             13.2968959808      -32.2367014332       69.8375948992  LPSA17    18             12.0000000000
     18446       594  AGAL      H3             12.6850333177      -31.5997715230       69.1608755456  LPSA17    18             12.0000000000
     18447       594  AGAL      O3             13.4175855586      -31.5054489235       71.0543789739  LPSA17    18             12.0000000000
     18448       594  AGAL      HO3            13.0871323618      -30.6016135652       70.9792493414  LPSA17    18             12.0000000000
     18449       594  AGAL      C4             14.6367336285      -32.4884525529       69.1682464578  LPSA17    18             12.0000000000
     18450       594  AGAL      H4             15.1680325272      -31.5602984639       68.9074943557  LPSA17    18             12.0000000000
     18451       594  AGAL      O4             15.5402689080      -33.2360570006       69.9791520616  LPSA17    18             12.0000000000
     18452       594  AGAL      HO4            15.8137137211      -32.6759024463       70.7177941987  LPSA17    18             12.0000000000
     18453       594  AGAL      C6             15.2866328378      -33.2693575024       66.7639602562  LPSA17    18             12.0000000000
     18454       594  AGAL      H61            14.7379673367      -33.5044045047       65.8265038296  LPSA17    18             12.0000000000
     18455       594  AGAL      H62            15.7483151436      -32.2760674931       66.6315526283  LPSA17    18             12.0000000000
     18456       594  AGAL      O6             16.2623928018      -34.2835735056       66.9650240594  LPSA17    18             12.0000000000
     18457       594  AGAL      HO6            15.9711434900      -34.8391650939       67.6975419709  LPSA17    18             12.0000000000
     18458       595  ARHM      C1             11.9247817419      -33.9908921659       72.1716015880  LPSA17    19             13.0000000000
     18459       595  ARHM      H1             12.9715938742      -33.6504059656       72.3476773857  LPSA17    19             13.0000000000
     18460       595  ARHM      C5             10.6703591592      -36.0055570179       72.2646799791  LPSA17    19             13.0000000000
     18461       595  ARHM      H5             10.3277124906      -35.7445522830       71.2332485504  LPSA17    19             13.0000000000
     18462       595  ARHM      O5             11.9523575490      -35.4024444443       72.4293621317  LPSA17    19             13.0000000000
     18463       595  ARHM      C2             10.9779768400      -33.3363404175       73.1369261502  LPSA17    19             13.0000000000
     18464       595  ARHM      H2             10.8587491306      -32.2527080608       72.8783261927  LPSA17    19             13.0000000000
     18465       595  ARHM      O2             11.4646223349      -33.4345494564       74.4717229075  LPSA17    19             13.0000000000
     18466       595  ARHM      C3              9.6185622004      -33.9633740847       73.0091941235  LPSA17    19             13.0000000000
     18467       595  ARHM      H3              9.3477126240      -33.8518437297       71.9637031563  LPSA17    19             13.0000000000
     18468       595  ARHM      O3              8.6336524606      -33.3002211710       73.7798788499  LPSA17    19             13.0000000000
     18469       595  ARHM      HO3             9.0097638262      -33.2527663777       74.6621588629  LPSA17    19             13.0000000000
     18470       595  ARHM      C4              9.6893990786      -35.4438945844       73.2595118883  LPSA17    19             13.0000000000
     18471       595  ARHM      H4             10.0683906423      -35.5823642833       74.2968253347  LPSA17    19             13.0000000000
     18472       595  ARHM      O4              8.4459815806      -36.1330368188       73.1356578740  LPSA17    19             13.0000000000
     18473       595  ARHM      HO4             8.0726312760      -35.9652796223       72.2569570576  LPSA17    19             13.0000000000
     18474       595  ARHM      C6             10.7984651016      -37.5331575319       72.3015267919  LPSA17    19             13.0000000000
     18475       595  ARHM      H61            11.5138927031      -37.7891916525       71.5068767102  LPSA17    19             13.0000000000
     18476       595  ARHM      H62            11.1883504913      -37.9206796801       73.2633073624  LPSA17    19             13.0000000000
     18477       595  ARHM      H63             9.8298704912      -38.0299468839       72.0770175216  LPSA17    19             13.0000000000
     18478       596  ARHM      C1             12.5611961313      -32.5875325502       74.6972321601  LPSA17    20             14.0000000000
     18479       596  ARHM      H1             12.6945252387      -31.8568881363       73.8656824508  LPSA17    20             14.0000000000
     18480       596  ARHM      C5             13.8105455619      -34.1387318490       75.9627880701  LPSA17    20             14.0000000000
     18481       596  ARHM      H5             12.9877629745      -34.8739290961       75.8129706549  LPSA17    20             14.0000000000
     18482       596  ARHM      O5             13.8185705403      -33.2624550879       74.8390727688  LPSA17    20             14.0000000000
     18483       596  ARHM      C2             12.2180095403      -31.8211415040       75.9433252175  LPSA17    20             14.0000000000
     18484       596  ARHM      H2             11.1824851689      -31.4023049007       75.8415867740  LPSA17    20             14.0000000000
     18485       596  ARHM      O2             13.1518235430      -30.7712986562       76.1665902585  LPSA17    20             14.0000000000
     18486       596  ARHM      C3             12.2043986362      -32.7230751989       77.1225399322  LPSA17    20             14.0000000000
     18487       596  ARHM      H3             11.4497935510      -33.5304458295       76.9562912998  LPSA17    20             14.0000000000
     18488       596  ARHM      O3             11.8443423071      -31.9404780574       78.2620028913  LPSA17    20             14.0000000000
     18489       596  ARHM      C4             13.5582852471      -33.3513132159       77.2407449130  LPSA17    20             14.0000000000
     18490       596  ARHM      H4             14.3881471414      -32.6050056834       77.3300248556  LPSA17    20             14.0000000000
     18491       596  ARHM      O4             13.5746588882      -34.1994804202       78.3707887385  LPSA17    20             14.0000000000
     18492       596  ARHM      HO4            14.2594604319      -34.8273428092       78.1473358611  LPSA17    20             14.0000000000
     18493       596  ARHM      C6             15.1274279046      -34.9160479013       75.9673190609  LPSA17    20             14.0000000000
     18494       596  ARHM      H61            16.0277964878      -34.2698728419       76.0854157325  LPSA17    20             14.0000000000
     18495       596  ARHM      H62            15.1232477421      -35.6823381257       76.7668775794  LPSA17    20             14.0000000000
     18496       596  ARHM      H63            15.2506596895      -35.4311399781       74.9924925739  LPSA17    20             14.0000000000
     18497       597  BMANNA    C1             12.8234588834      -29.6504654691       75.4044584542  LPSA17    21             15.0000000000
     18498       597  BMANNA    H1             11.9880319811      -29.9039082669       74.7138229912  LPSA17    21             15.0000000000
     18499       597  BMANNA    C5             13.3709112204      -28.1847793322       73.6531118386  LPSA17    21             15.0000000000
     18500       597  BMANNA    H5             12.4634017125      -28.5372558912       73.0961257834  LPSA17    21             15.0000000000
     18501       597  BMANNA    O5             13.8565418186      -29.2345388182       74.5133322213  LPSA17    21             15.0000000000
     18502       597  BMANNA    C2             12.3912593702      -28.5351620368       76.3382927975  LPSA17    21             15.0000000000
     18503       597  BMANNA    H2             11.5288118204      -28.9483635626       76.9226925517  LPSA17    21             15.0000000000
     18504       597  BMANNA    N              13.4202733240      -28.1007934865       77.2718585886  LPSA17    21             15.0000000000
     18505       597  BMANNA    HN             14.3312185381      -28.0419359383       76.8873899611  LPSA17    21             15.0000000000
     18506       597  BMANNA    C              13.2082663720      -27.7814070052       78.5637726855  LPSA17    21             15.0000000000
     18507       597  BMANNA    O              12.1071068482      -27.6060168898       79.0416070433  LPSA17    21             15.0000000000
     18508       597  BMANNA    CT             14.4077678639      -27.6117381374       79.4436933137  LPSA17    21             15.0000000000
     18509       597  BMANNA    HT1            14.8496713375      -26.6376416813       79.1599360111  LPSA17    21             15.0000000000
     18510       597  BMANNA    HT2            15.1492214167      -28.4122363968       79.3006018009  LPSA17    21             15.0000000000
     18511       597  BMANNA    HT3            14.1175485557      -27.5925955675       80.5244115407  LPSA17    21             15.0000000000
     18512       597  BMANNA    C3             11.8842083034      -27.4299677769       75.4608241746  LPSA17    21             15.0000000000
     18513       597  BMANNA    H3             11.0063467929      -27.8491844628       74.9170913775  LPSA17    21             15.0000000000
     18514       597  BMANNA    O3             11.3833596245      -26.3527331725       76.2221340688  LPSA17    21             15.0000000000
     18515       597  BMANNA    HO3            12.0995673097      -25.9966170591       76.7542160765  LPSA17    21             15.0000000000
     18516       597  BMANNA    C4             12.9612698667      -26.9977845678       74.4825610484  LPSA17    21             15.0000000000
     18517       597  BMANNA    H4             13.8447605588      -26.5847239371       75.0201267786  LPSA17    21             15.0000000000
     18518       597  BMANNA    O4             12.5438343612      -25.9921509532       73.5882721827  LPSA17    21             15.0000000000
     18519       597  BMANNA    HO4            12.9703748549      -25.1507869249       73.7914793210  LPSA17    21             15.0000000000
     18520       597  BMANNA    C6             14.3918893350      -27.8051254507       72.6149365622  LPSA17    21             15.0000000000
     18521       597  BMANNA    H61            13.9086331578      -27.2170798854       71.7999996325  LPSA17    21             15.0000000000
     18522       597  BMANNA    H62            15.1507184676      -27.1438784126       73.0816788346  LPSA17    21             15.0000000000
     18523       597  BMANNA    O6             15.0248389103      -28.9543607740       72.0647920900  LPSA17    21             15.0000000000
     18524       597  BMANNA    HO6            15.5065782124      -29.3969530392       72.7836532314  LPSA17    21             15.0000000000
     18525       598  BGLCNA    C1             11.0715307463      -32.5715321878       79.2379559570  LPSA17    22             15.0000000000
     18526       598  BGLCNA    H1             11.2695983834      -33.6489352416       79.2292027611  LPSA17    22             15.0000000000
     18527       598  BGLCNA    C5              8.8862442372      -32.9095731716       80.0989218965  LPSA17    22             15.0000000000
     18528       598  BGLCNA    H5              9.0646179632      -34.0018568689       80.1159121610  LPSA17    22             15.0000000000
     18529       598  BGLCNA    O5              9.6776629761      -32.3140853261       79.0618574337  LPSA17    22             15.0000000000
     18530       598  BGLCNA    C2             11.5211731281      -31.9962458376       80.5472526373  LPSA17    22             15.0000000000
     18531       598  BGLCNA    H2             11.3355292874      -30.8889040187       80.4986975262  LPSA17    22             15.0000000000
     18532       598  BGLCNA    N              12.9245293847      -32.2585330542       80.7191492255  LPSA17    22             15.0000000000
     18533       598  BGLCNA    HN             13.2618358805      -33.1341902504       80.3945000191  LPSA17    22             15.0000000000
     18534       598  BGLCNA    C              13.7549572352      -31.4305468474       81.3396243001  LPSA17    22             15.0000000000
     18535       598  BGLCNA    O              13.4180502808      -30.3641950133       81.8314380099  LPSA17    22             15.0000000000
     18536       598  BGLCNA    CT             15.1778785083      -31.8907824030       81.3892676966  LPSA17    22             15.0000000000
     18537       598  BGLCNA    HT1            15.7133544612      -31.4205396890       80.5389308762  LPSA17    22             15.0000000000
     18538       598  BGLCNA    HT2            15.2355547799      -32.9936135950       81.2766470166  LPSA17    22             15.0000000000
     18539       598  BGLCNA    HT3            15.6430396383      -31.6198637905       82.3594479060  LPSA17    22             15.0000000000
     18540       598  BGLCNA    C3             10.7332671704      -32.6044200775       81.6854723261  LPSA17    22             15.0000000000
     18541       598  BGLCNA    H3             10.8786282000      -33.7115526475       81.6566297641  LPSA17    22             15.0000000000
     18542       598  BGLCNA    O3             11.2900795430      -32.0839025925       82.9031007145  LPSA17    22             15.0000000000
     18543       598  BGLCNA    C4              9.2727499584      -32.3257243989       81.4511094744  LPSA17    22             15.0000000000
     18544       598  BGLCNA    H4              9.1301621941      -31.2197149297       81.4132113586  LPSA17    22             15.0000000000
     18545       598  BGLCNA    O4              8.4373486798      -32.8572862695       82.4750118404  LPSA17    22             15.0000000000
     18546       598  BGLCNA    HO4             7.8012952546      -32.1904497443       82.7423789546  LPSA17    22             15.0000000000
     18547       598  BGLCNA    C6              7.4335116523      -32.6872157482       79.7720598428  LPSA17    22             15.0000000000
     18548       598  BGLCNA    H61             6.8436652503      -32.8723577378       80.6833784906  LPSA17    22             15.0000000000
     18549       598  BGLCNA    H62             7.2667829211      -31.6361357344       79.4474265651  LPSA17    22             15.0000000000
     18550       598  BGLCNA    O6              6.9246436649      -33.6114877161       78.8153078999  LPSA17    22             15.0000000000
     18551       598  BGLCNA    HO6             7.4306291794      -33.5422213456       77.9929511120  LPSA17    22             15.0000000000
     18552       599  AGAL      C1             11.0887426047      -32.7789197930       84.0993197650  LPSA17    23             16.0000000000
     18553       599  AGAL      H1             10.0573362291      -32.5847324880       84.4472781556  LPSA17    23             16.0000000000
     18554       599  AGAL      C5             12.6047579803      -34.5826564141       83.7218938211  LPSA17    23             16.0000000000
     18555       599  AGAL      H5             12.9612093857      -34.0467686689       82.8115055478  LPSA17    23             16.0000000000
     18556       599  AGAL      O5             11.2396876084      -34.1964986891       83.9877419031  LPSA17    23             16.0000000000
     18557       599  AGAL      C2             12.0009277326      -32.2532359399       85.1809807248  LPSA17    23             16.0000000000
     18558       599  AGAL      H2             11.7273149393      -32.8188788788       86.0994708863  LPSA17    23             16.0000000000
     18559       599  AGAL      O2             11.7843810350      -30.8472671716       85.4242737380  LPSA17    23             16.0000000000
     18560       599  AGAL      C3             13.4466513494      -32.6293398552       84.8756393326  LPSA17    23             16.0000000000
     18561       599  AGAL      H3             13.6984517633      -32.2669992070       83.8561137325  LPSA17    23             16.0000000000
     18562       599  AGAL      O3             14.3849717205      -31.9990621728       85.7430581153  LPSA17    23             16.0000000000
     18563       599  AGAL      HO3            14.0398472858      -32.0459892147       86.6303496160  LPSA17    23             16.0000000000
     18564       599  AGAL      C4             13.5504597408      -34.1505469963       84.8524247888  LPSA17    23             16.0000000000
     18565       599  AGAL      H4             14.5872354649      -34.4787865635       84.6101430341  LPSA17    23             16.0000000000
     18566       599  AGAL      O4             13.1846012459      -34.7483535101       86.0932192201  LPSA17    23             16.0000000000
     18567       599  AGAL      HO4            12.9002057103      -35.6517481328       85.8428552407  LPSA17    23             16.0000000000
     18568       599  AGAL      C6             12.6062789556      -36.0447340506       83.3404998210  LPSA17    23             16.0000000000
     18569       599  AGAL      H61            11.8282351235      -36.2307221702       82.5702704317  LPSA17    23             16.0000000000
     18570       599  AGAL      H62            13.5720181255      -36.2855731516       82.8524650032  LPSA17    23             16.0000000000
     18571       599  AGAL      O6             12.3357307526      -36.9009707190       84.4521094337  LPSA17    23             16.0000000000
     18572       599  AGAL      HO6            12.4248785201      -37.8293902010       84.1967062298  LPSA17    23             16.0000000000
     18573       600  ARHM      C1             10.7242298852      -30.4702621752       86.2836811087  LPSA17    24             17.0000000000
     18574       600  ARHM      H1             10.0081908424      -31.3139130762       86.3845920746  LPSA17    24             17.0000000000
     18575       600  ARHM      C5             10.7029366485      -28.1794714517       85.6605082024  LPSA17    24             17.0000000000
     18576       600  ARHM      H5             11.5295309082      -28.4325128161       84.9671244212  LPSA17    24             17.0000000000
     18577       600  ARHM      O5              9.9289853813      -29.3714348386       85.8005985778  LPSA17    24             17.0000000000
     18578       600  ARHM      C2             11.3568362157      -30.1168990434       87.6041701773  LPSA17    24             17.0000000000
     18579       600  ARHM      H2             12.0184023873      -30.9547024006       87.9310646032  LPSA17    24             17.0000000000
     18580       600  ARHM      O2             10.3592156140      -29.8373012059       88.5987400510  LPSA17    24             17.0000000000
     18581       600  ARHM      C3             12.2235505655      -28.8949914244       87.4254669790  LPSA17    24             17.0000000000
     18582       600  ARHM      H3             12.9734216115      -29.1273739382       86.6300357727  LPSA17    24             17.0000000000
     18583       600  ARHM      O3             12.9748291384      -28.6192404328       88.6012500807  LPSA17    24             17.0000000000
     18584       600  ARHM      HO3            12.4773757779      -28.0196350810       89.1658325477  LPSA17    24             17.0000000000
     18585       600  ARHM      C4             11.3378007183      -27.7439068209       86.9639406804  LPSA17    24             17.0000000000
     18586       600  ARHM      H4             10.5299410077      -27.5706020045       87.7124808567  LPSA17    24             17.0000000000
     18587       600  ARHM      O4             12.0412269640      -26.5225753282       86.7609984358  LPSA17    24             17.0000000000
     18588       600  ARHM      HO4            11.5455566210      -25.7592903103       87.0689838969  LPSA17    24             17.0000000000
     18589       600  ARHM      C6              9.8593654058      -27.0945053778       84.9787299718  LPSA17    24             17.0000000000
     18590       600  ARHM      H61            10.5502618700      -26.4639831105       84.4198747087  LPSA17    24             17.0000000000
     18591       600  ARHM      H62             9.1788849198      -27.5318313571       84.2319665650  LPSA17    24             17.0000000000
     18592       600  ARHM      H63             9.2778630703      -26.4673882932       85.6888000629  LPSA17    24             17.0000000000
     18593       601  ARHM      C1              9.7390657168      -30.9593130459       89.1468420919  LPSA17    25             18.0000000000
     18594       601  ARHM      H1              9.9042501367      -31.8240229305       88.4682577674  LPSA17    25             18.0000000000
     18595       601  ARHM      C5              7.9288944112      -29.8208312211       90.2002419475  LPSA17    25             18.0000000000
     18596       601  ARHM      H5              8.3414481264      -28.8441600563       89.8665648199  LPSA17    25             18.0000000000
     18597       601  ARHM      O5              8.3083143354      -30.8397169458       89.2534982116  LPSA17    25             18.0000000000
     18598       601  ARHM      C2             10.3802614446      -31.2702402399       90.4645564486  LPSA17    25             18.0000000000
     18599       601  ARHM      H2             11.4956331214      -31.2320102086       90.3677351133  LPSA17    25             18.0000000000
     18600       601  ARHM      O2              9.9683148132      -32.5744904028       90.8854751620  LPSA17    25             18.0000000000
     18601       601  ARHM      C3              9.9948552971      -30.2069727637       91.4544174651  LPSA17    25             18.0000000000
     18602       601  ARHM      H3             10.3463787190      -29.2107430105       91.0841617629  LPSA17    25             18.0000000000
     18603       601  ARHM      O3             10.5962124780      -30.5309070210       92.7069774009  LPSA17    25             18.0000000000
     18604       601  ARHM      C4              8.5023141967      -30.1321277556       91.5763145190  LPSA17    25             18.0000000000
     18605       601  ARHM      H4              8.0804961841      -31.1120095213       91.9077667583  LPSA17    25             18.0000000000
     18606       601  ARHM      O4              8.1652951195      -29.1424965843       92.5417902958  LPSA17    25             18.0000000000
     18607       601  ARHM      HO4             7.3869136194      -29.4220347513       93.0294059496  LPSA17    25             18.0000000000
     18608       601  ARHM      C6              6.4015683718      -29.6752631079       90.2128436634  LPSA17    25             18.0000000000
     18609       601  ARHM      H61             6.0016406579      -29.5641619945       89.1840071601  LPSA17    25             18.0000000000
     18610       601  ARHM      H62             5.9397147915      -30.5616300598       90.6861448736  LPSA17    25             18.0000000000
     18611       601  ARHM      H63             6.1043713853      -28.7784107087       90.7984669601  LPSA17    25             18.0000000000
     18612       602  BMANNA    C1             10.6768177031      -33.6236135013       90.2794380809  LPSA17    26             19.0000000000
     18613       602  BMANNA    H1             11.6451937962      -33.2754301331       89.8582660917  LPSA17    26             19.0000000000
     18614       602  BMANNA    C5             10.7088167424      -35.3058947482       88.5883575213  LPSA17    26             19.0000000000
     18615       602  BMANNA    H5             11.6429317270      -34.8607485790       88.1766562898  LPSA17    26             19.0000000000
     18616       602  BMANNA    O5              9.9439713877      -34.2569942096       89.2196672531  LPSA17    26             19.0000000000
     18617       602  BMANNA    C2             10.9571981719      -34.6342368386       91.3533109626  LPSA17    26             19.0000000000
     18618       602  BMANNA    H2             11.5633146862      -34.0899837649       92.1243815087  LPSA17    26             19.0000000000
     18619       602  BMANNA    N               9.7231852961      -35.1644826119       91.9334032239  LPSA17    26             19.0000000000
     18620       602  BMANNA    HN              9.0486485083      -35.4947398117       91.2858566559  LPSA17    26             19.0000000000
     18621       602  BMANNA    C               9.4433955853      -35.1790481125       93.2386780647  LPSA17    26             19.0000000000
     18622       602  BMANNA    O              10.1576273049      -34.6005798642       94.0401617724  LPSA17    26             19.0000000000
     18623       602  BMANNA    CT              8.2258552006      -35.9694117846       93.6631674462  LPSA17    26             19.0000000000
     18624       602  BMANNA    HT1             7.4785038212      -35.9905970196       92.8446033292  LPSA17    26             19.0000000000
     18625       602  BMANNA    HT2             7.7490275096      -35.6077744479       94.5988024223  LPSA17    26             19.0000000000
     18626       602  BMANNA    HT3             8.5612743209      -37.0041433688       93.8586443897  LPSA17    26             19.0000000000
     18627       602  BMANNA    C3             11.8364158845      -35.7062722895       90.7468667788  LPSA17    26             19.0000000000
     18628       602  BMANNA    H3             12.7539368275      -35.2295071987       90.3286357117  LPSA17    26             19.0000000000
     18629       602  BMANNA    O3             12.2930892522      -36.6126795274       91.7382798928  LPSA17    26             19.0000000000
     18630       602  BMANNA    HO3            12.9012838421      -36.1283717035       92.3055683912  LPSA17    26             19.0000000000
     18631       602  BMANNA    C4             11.0826399817      -36.3707930499       89.6106263912  LPSA17    26             19.0000000000
     18632       602  BMANNA    H4             10.1532042989      -36.8483884070       89.9792382701  LPSA17    26             19.0000000000
     18633       602  BMANNA    O4             11.8470625845      -37.3923401848       88.9928960979  LPSA17    26             19.0000000000
     18634       602  BMANNA    HO4            11.8303529005      -38.1583787399       89.5761562046  LPSA17    26             19.0000000000
     18635       602  BMANNA    C6              9.8992388038      -35.8112090333       87.4019358480  LPSA17    26             19.0000000000
     18636       602  BMANNA    H61             9.3864767620      -34.9495872856       86.9161711809  LPSA17    26             19.0000000000
     18637       602  BMANNA    H62            10.5626842614      -36.2666517352       86.6335316800  LPSA17    26             19.0000000000
     18638       602  BMANNA    O6              8.9185127363      -36.7772383386       87.7806133435  LPSA17    26             19.0000000000
     18639       602  BMANNA    HO6             9.3690276229      -37.5511425517       88.1329045099  LPSA17    26             19.0000000000
     18640       603  BGLCNA    C1             11.1151940138      -29.4807335992       93.4706057223  LPSA17    27             19.0000000000
     18641       603  BGLCNA    H1             10.4931065014      -28.5633453518       93.4240351162  LPSA17    27             19.0000000000
     18642       603  BGLCNA    C5             13.0289167284      -28.1672424504       93.9188789074  LPSA17    27             19.0000000000
     18643       603  BGLCNA    H5             12.3384741016      -27.2903502292       93.9402067230  LPSA17    27             19.0000000000
     18644       603  BGLCNA    O5             12.4458182991      -29.1659087511       93.0711571618  LPSA17    27             19.0000000000
     18645       603  BGLCNA    C2             11.1403194162      -30.0673369184       94.8669318788  LPSA17    27             19.0000000000
     18646       603  BGLCNA    H2             11.8300542527      -30.9376843325       94.8472405467  LPSA17    27             19.0000000000
     18647       603  BGLCNA    N               9.8282046280      -30.5357189639       95.2962638276  LPSA17    27             19.0000000000
     18648       603  BGLCNA    HN              9.0658303365      -29.9482148565       95.0509877384  LPSA17    27             19.0000000000
     18649       603  BGLCNA    C               9.6730230893      -31.7130479711       95.9442907214  LPSA17    27             19.0000000000
     18650       603  BGLCNA    O              10.6062098804      -32.2813304053       96.4877529033  LPSA17    27             19.0000000000
     18651       603  BGLCNA    CT              8.2921740805      -32.3250538331       96.0123061594  LPSA17    27             19.0000000000
     18652       603  BGLCNA    HT1             7.5980786374      -31.7653886888       95.3584093701  LPSA17    27             19.0000000000
     18653       603  BGLCNA    HT2             7.9170213080      -32.3632857498       97.0520879236  LPSA17    27             19.0000000000
     18654       603  BGLCNA    HT3             8.3770411748      -33.3797416475       95.6623661164  LPSA17    27             19.0000000000
     18655       603  BGLCNA    C3             11.7341273499      -29.0854143588       95.8217158610  LPSA17    27             19.0000000000
     18656       603  BGLCNA    H3             11.1082749030      -28.1631584611       95.7763424006  LPSA17    27             19.0000000000
     18657       603  BGLCNA    O3             11.6266663990      -29.7124830234       97.1244592007  LPSA17    27             19.0000000000
     18658       603  BGLCNA    C4             13.1204788738      -28.7187684144       95.3363130816  LPSA17    27             19.0000000000
     18659       603  BGLCNA    H4             13.7801254275      -29.6211828438       95.3300895789  LPSA17    27             19.0000000000
     18660       603  BGLCNA    O4             13.6963553650      -27.7309315875       96.1676220182  LPSA17    27             19.0000000000
     18661       603  BGLCNA    HO4            13.2058624059      -26.9104172943       96.0951562480  LPSA17    27             19.0000000000
     18662       603  BGLCNA    C6             14.3286669545      -27.6693130167       93.3184881890  LPSA17    27             19.0000000000
     18663       603  BGLCNA    H61            14.6534300192      -26.7528219182       93.8580826738  LPSA17    27             19.0000000000
     18664       603  BGLCNA    H62            15.1384463995      -28.4264943734       93.4462123367  LPSA17    27             19.0000000000
     18665       603  BGLCNA    O6             14.1559965599      -27.3267644515       91.9359169648  LPSA17    27             19.0000000000
     18666       603  BGLCNA    HO6            15.0076949563      -27.1345606369       91.5306176130  LPSA17    27             19.0000000000
     18667       604  AGAL      C1             11.7500349950      -28.8676806939       98.2401025911  LPSA17    28             20.0000000000
     18668       604  AGAL      H1             12.8136167644      -28.5548352288       98.3218309727  LPSA17    28             20.0000000000
     18669       604  AGAL      C5              9.5128910333      -28.0000532188       98.1241120429  LPSA17    28             20.0000000000
     18670       604  AGAL      H5              9.2828881270      -28.8426800589       97.4252135354  LPSA17    28             20.0000000000
     18671       604  AGAL      O5             10.9304254974      -27.6950286768       98.0565011916  LPSA17    28             20.0000000000
     18672       604  AGAL      C2             11.3905494468      -29.4898132085       99.6057212470  LPSA17    28             20.0000000000
     18673       604  AGAL      H2             11.5879907143      -28.6328707953      100.2913557620  LPSA17    28             20.0000000000
     18674       604  AGAL      O2             12.1885140515      -30.5791701985      100.0888488908  LPSA17    28             20.0000000000
     18675       604  AGAL      C3              9.9168675888      -29.8193771505       99.6859779821  LPSA17    28             20.0000000000
     18676       604  AGAL      H3              9.6702483303      -30.5034562254       98.8445944477  LPSA17    28             20.0000000000
     18677       604  AGAL      O3              9.4918826435      -30.5086956271      100.8589850814  LPSA17    28             20.0000000000
     18678       604  AGAL      HO3             9.1118885182      -31.3613976452      100.6199253482  LPSA17    28             20.0000000000
     18679       604  AGAL      C4              9.1578155047      -28.5371413660       99.4912803048  LPSA17    28             20.0000000000
     18680       604  AGAL      H4              8.0889368013      -28.7934608467       99.5300829650  LPSA17    28             20.0000000000
     18681       604  AGAL      O4              9.3852869619      -27.5694911758      100.4972736476  LPSA17    28             20.0000000000
     18682       604  AGAL      HO4             8.6372007557      -27.5897676550      101.1055308217  LPSA17    28             20.0000000000
     18683       604  AGAL      C6              8.6546112430      -26.8363733599       97.6332651625  LPSA17    28             20.0000000000
     18684       604  AGAL      H61             8.8598776002      -26.6876316400       96.5528400010  LPSA17    28             20.0000000000
     18685       604  AGAL      H62             7.5696723011      -27.0263920766       97.7420641000  LPSA17    28             20.0000000000
     18686       604  AGAL      O6              8.8721184096      -25.6071832865       98.3033447322  LPSA17    28             20.0000000000
     18687       604  AGAL      HO6             9.6991619310      -25.2075146713       98.0074087332  LPSA17    28             20.0000000000
     18688       605  ARHM      C1             12.4410206857      -30.4032200482      101.4722146114  LPSA17    29             21.0000000000
     18689       605  ARHM      H1             11.6408519895      -29.8040719556      101.9576675931  LPSA17    29             21.0000000000
     18690       605  ARHM      C5             14.7923968743      -30.4526561897      101.1120019416  LPSA17    29             21.0000000000
     18691       605  ARHM      H5             14.5812412213      -30.6268916558      100.0334207573  LPSA17    29             21.0000000000
     18692       605  ARHM      O5             13.6919236123      -29.7391508657      101.6823663218  LPSA17    29             21.0000000000
     18693       605  ARHM      C2             12.4698383833      -31.7305425556      102.1615012959  LPSA17    29             21.0000000000
     18694       605  ARHM      H2             11.5125687831      -32.2530001772      101.9198261264  LPSA17    29             21.0000000000
     18695       605  ARHM      O2             12.5966608306      -31.5485932931      103.5930217441  LPSA17    29             21.0000000000
     18696       605  ARHM      C3             13.6102275049      -32.5376118723      101.5979153231  LPSA17    29             21.0000000000
     18697       605  ARHM      H3             13.4544624953      -32.6767949451      100.5017420362  LPSA17    29             21.0000000000
     18698       605  ARHM      O3             13.6046720362      -33.8297959500      102.1829620455  LPSA17    29             21.0000000000
     18699       605  ARHM      HO3            14.5186991865      -34.1237248798      102.2270255918  LPSA17    29             21.0000000000
     18700       605  ARHM      C4             14.9394967601      -31.8070421576      101.7843065654  LPSA17    29             21.0000000000
     18701       605  ARHM      H4             15.1263187683      -31.5759004761      102.8490448458  LPSA17    29             21.0000000000
     18702       605  ARHM      O4             16.0747253966      -32.5592796992      101.3253404863  LPSA17    29             21.0000000000
     18703       605  ARHM      HO4            15.9479241722      -32.8671684990      100.4194407288  LPSA17    29             21.0000000000
     18704       605  ARHM      C6             15.9652751123      -29.4743531309      101.2295909945  LPSA17    29             21.0000000000
     18705       605  ARHM      H61            15.6355441064      -28.5109235262      100.7801424069  LPSA17    29             21.0000000000
     18706       605  ARHM      H62            16.2636150530      -29.3081078903      102.2827656848  LPSA17    29             21.0000000000
     18707       605  ARHM      H63            16.8221405263      -29.8602032053      100.6351921785  LPSA17    29             21.0000000000
     18708       606  ARHM      C1             11.4191325990      -31.6111742233      104.3694768805  LPSA17    30             22.0000000000
     18709       606  ARHM      H1             10.8791596114      -32.5648429052      104.1619350699  LPSA17    30             22.0000000000
     18710       606  ARHM      C5             11.1551239345      -29.2368993272      104.4896762271  LPSA17    30             22.0000000000
     18711       606  ARHM      H5             12.1020374361      -29.1779996398      103.9097764538  LPSA17    30             22.0000000000
     18712       606  ARHM      O5             10.5373626289      -30.4905807275      104.1607465385  LPSA17    30             22.0000000000
     18713       606  ARHM      C2             11.8211428822      -31.5981448988      105.8255622925  LPSA17    30             22.0000000000
     18714       606  ARHM      H2             12.5262773131      -32.4394614947      106.0266957001  LPSA17    30             22.0000000000
     18715       606  ARHM      O2             10.6243353748      -31.7128615737      106.5949979150  LPSA17    30             22.0000000000
     18716       606  ARHM      C3             12.4868280214      -30.3000277521      106.2253190172  LPSA17    30             22.0000000000
     18717       606  ARHM      H3             13.3380783010      -30.1526855543      105.5189987025  LPSA17    30             22.0000000000
     18718       606  ARHM      O3             13.0610979074      -30.3772269323      107.5472672388  LPSA17    30             22.0000000000
     18719       606  ARHM      C4             11.5169306183      -29.1748468514      105.9553228271  LPSA17    30             22.0000000000
     18720       606  ARHM      H4             10.5839090044      -29.2857735863      106.5505015044  LPSA17    30             22.0000000000
     18721       606  ARHM      O4             12.0212771028      -27.8973353841      106.3057222808  LPSA17    30             22.0000000000
     18722       606  ARHM      HO4            12.6506616863      -27.5180117393      105.6880779282  LPSA17    30             22.0000000000
     18723       606  ARHM      C6             10.2796146905      -28.0646223236      104.0348600397  LPSA17    30             22.0000000000
     18724       606  ARHM      H61            10.7928823656      -27.0999263554      104.2274762492  LPSA17    30             22.0000000000
     18725       606  ARHM      H62            10.0630881064      -28.1439290948      102.9560666518  LPSA17    30             22.0000000000
     18726       606  ARHM      H63             9.3171886390      -28.0690019764      104.5678851986  LPSA17    30             22.0000000000
     18727       607  BMANNA    C1             10.2520713222      -33.0141807318      106.8917809140  LPSA17    31             23.0000000000
     18728       607  BMANNA    H1             11.1472207792      -33.6242340243      107.1490210289  LPSA17    31             23.0000000000
     18729       607  BMANNA    C5              9.0122402640      -34.9280829810      106.1967097138  LPSA17    31             23.0000000000
     18730       607  BMANNA    H5              9.9460496168      -35.4556223708      106.4992152198  LPSA17    31             23.0000000000
     18731       607  BMANNA    O5              9.4591798928      -33.6011374215      105.8532665071  LPSA17    31             23.0000000000
     18732       607  BMANNA    C2              9.3703203489      -32.8714835449      108.0854223596  LPSA17    31             23.0000000000
     18733       607  BMANNA    H2             10.0139593314      -32.4733754254      108.9113053847  LPSA17    31             23.0000000000
     18734       607  BMANNA    N               8.3129824004      -31.9118794898      107.8239137530  LPSA17    31             23.0000000000
     18735       607  BMANNA    HN              8.1509256228      -31.7329070641      106.8571356699  LPSA17    31             23.0000000000
     18736       607  BMANNA    C               7.7440479388      -31.1728826390      108.7776836897  LPSA17    31             23.0000000000
     18737       607  BMANNA    O               8.0649496512      -31.2592465852      109.9514732845  LPSA17    31             23.0000000000
     18738       607  BMANNA    CT              6.6790131125      -30.2253266892      108.3328142744  LPSA17    31             23.0000000000
     18739       607  BMANNA    HT1             6.0576438515      -30.7016938638      107.5568711133  LPSA17    31             23.0000000000
     18740       607  BMANNA    HT2             7.1279447705      -29.3118503628      107.9203802344  LPSA17    31             23.0000000000
     18741       607  BMANNA    HT3             6.0336324951      -29.9283685151      109.1894178063  LPSA17    31             23.0000000000
     18742       607  BMANNA    C3              8.9098770451      -34.2383190225      108.5055922022  LPSA17    31             23.0000000000
     18743       607  BMANNA    H3              9.8022707811      -34.8849254880      108.6793165347  LPSA17    31             23.0000000000
     18744       607  BMANNA    O3              8.2329650092      -34.1453857712      109.7368025271  LPSA17    31             23.0000000000
     18745       607  BMANNA    HO3             8.4884586841      -33.3023796759      110.1378003040  LPSA17    31             23.0000000000
     18746       607  BMANNA    C4              8.1072698071      -34.8769996386      107.4078288853  LPSA17    31             23.0000000000
     18747       607  BMANNA    H4              7.2138295771      -34.2683584727      107.1315534619  LPSA17    31             23.0000000000
     18748       607  BMANNA    O4              7.6368965066      -36.1747039592      107.7500147272  LPSA17    31             23.0000000000
     18749       607  BMANNA    HO4             8.3037874134      -36.6621379289      108.2378729376  LPSA17    31             23.0000000000
     18750       607  BMANNA    C6              8.3780978171      -35.6894342354      105.0427101933  LPSA17    31             23.0000000000
     18751       607  BMANNA    H61             8.2459310521      -36.7624217261      105.3047348739  LPSA17    31             23.0000000000
     18752       607  BMANNA    H62             7.3543264242      -35.3056775296      104.8619401413  LPSA17    31             23.0000000000
     18753       607  BMANNA    O6              9.1208853404      -35.5983584370      103.8283913668  LPSA17    31             23.0000000000
     18754       607  BMANNA    HO6             9.9342066550      -36.1134675800      103.8625966426  LPSA17    31             23.0000000000
     18755       608  BGLCNA    C1             12.1722023683      -30.1305739680      108.6108115759  LPSA17    32             23.0000000000
     18756       608  BGLCNA    H1             11.1859028914      -30.5832500959      108.4072453118  LPSA17    32             23.0000000000
     18757       608  BGLCNA    C5             10.9884290115      -28.5353853847      109.9221480254  LPSA17    32             23.0000000000
     18758       608  BGLCNA    H5             10.0537927676      -29.0426894986      109.5798949601  LPSA17    32             23.0000000000
     18759       608  BGLCNA    O5             11.9693014861      -28.7473572285      108.8972181382  LPSA17    32             23.0000000000
     18760       608  BGLCNA    C2             12.7211665242      -30.8042106442      109.8519515726  LPSA17    32             23.0000000000
     18761       608  BGLCNA    H2             13.6307645866      -30.2202240126      110.1457380362  LPSA17    32             23.0000000000
     18762       608  BGLCNA    N              13.0886089710      -32.1770706768      109.5674908590  LPSA17    32             23.0000000000
     18763       608  BGLCNA    HN             12.5268382423      -32.5831198626      108.8687403233  LPSA17    32             23.0000000000
     18764       608  BGLCNA    C              14.1168535671      -32.8604969339      110.0795831038  LPSA17    32             23.0000000000
     18765       608  BGLCNA    O              14.8760489563      -32.4151730487      110.9220858872  LPSA17    32             23.0000000000
     18766       608  BGLCNA    CT             14.2863393543      -34.2499419432      109.5406462982  LPSA17    32             23.0000000000
     18767       608  BGLCNA    HT1            13.7010517008      -34.3118663261      108.6018980365  LPSA17    32             23.0000000000
     18768       608  BGLCNA    HT2            13.9270929955      -35.0282868037      110.2406483363  LPSA17    32             23.0000000000
     18769       608  BGLCNA    HT3            15.3511368555      -34.4415472134      109.3060911914  LPSA17    32             23.0000000000
     18770       608  BGLCNA    C3             11.6598956835      -30.6837950905      110.9243939974  LPSA17    32             23.0000000000
     18771       608  BGLCNA    H3             10.7148626954      -31.0710242508      110.4756708255  LPSA17    32             23.0000000000
     18772       608  BGLCNA    O3             11.9406115414      -31.4682091402      112.0999749388  LPSA17    32             23.0000000000
     18773       608  BGLCNA    C4             11.4573877309      -29.2115172254      111.2004452390  LPSA17    32             23.0000000000
     18774       608  BGLCNA    H4             12.4394595293      -28.7792786088      111.5135493445  LPSA17    32             23.0000000000
     18775       608  BGLCNA    O4             10.5208100343      -28.9877131172      112.2381714467  LPSA17    32             23.0000000000
     18776       608  BGLCNA    HO4            10.9937292534      -29.0120187921      113.0775351205  LPSA17    32             23.0000000000
     18777       608  BGLCNA    C6             10.6897631966      -27.0457057006      110.0489610782  LPSA17    32             23.0000000000
     18778       608  BGLCNA    H61             9.8358086455      -26.8607094203      110.7368775353  LPSA17    32             23.0000000000
     18779       608  BGLCNA    H62            11.5534770987      -26.5251533092      110.5082907395  LPSA17    32             23.0000000000
     18780       608  BGLCNA    O6             10.3839639448      -26.4469130542      108.7824812387  LPSA17    32             23.0000000000
     18781       608  BGLCNA    HO6             9.8743900146      -27.0922851594      108.2650553893  LPSA17    32             23.0000000000
     18782       609  AGAL      C1             10.7871328631      -32.0476753919      112.6851748459  LPSA17    33             24.0000000000
     18783       609  AGAL      H1              9.9238795659      -31.3483800183      112.6087294567  LPSA17    33             24.0000000000
     18784       609  AGAL      C5             11.4070256304      -34.3168019623      112.2113425634  LPSA17    33             24.0000000000
     18785       609  AGAL      H5             12.3397675769      -33.8318199313      111.8444600514  LPSA17    33             24.0000000000
     18786       609  AGAL      O5             10.4060757318      -33.2915335417      112.0607664467  LPSA17    33             24.0000000000
     18787       609  AGAL      C2             11.0540774197      -32.3449012280      114.1492600951  LPSA17    33             24.0000000000
     18788       609  AGAL      H2             10.1487463607      -32.8613431367      114.5313424757  LPSA17    33             24.0000000000
     18789       609  AGAL      O2             11.1406849975      -31.1078682830      114.8780344614  LPSA17    33             24.0000000000
     18790       609  AGAL      C3             12.1839546353      -33.3651381901      114.3140084887  LPSA17    33             24.0000000000
     18791       609  AGAL      H3             13.0706414137      -33.0160371709      113.7316237449  LPSA17    33             24.0000000000
     18792       609  AGAL      O3             12.6786178239      -33.4782623813      115.6480243587  LPSA17    33             24.0000000000
     18793       609  AGAL      HO3            11.9803469517      -33.7151274767      116.2624731263  LPSA17    33             24.0000000000
     18794       609  AGAL      C4             11.7297381023      -34.6795634936      113.6644210944  LPSA17    33             24.0000000000
     18795       609  AGAL      H4             12.5746901968      -35.4045200839      113.6690497084  LPSA17    33             24.0000000000
     18796       609  AGAL      O4             10.6591289506      -35.3574831694      114.3233532531  LPSA17    33             24.0000000000
     18797       609  AGAL      HO4            10.1170406166      -34.7971064588      114.8754951692  LPSA17    33             24.0000000000
     18798       609  AGAL      C6             11.1768492805      -35.4884812566      111.2547387091  LPSA17    33             24.0000000000
     18799       609  AGAL      H61            11.2391679246      -35.0692349853      110.2331285935  LPSA17    33             24.0000000000
     18800       609  AGAL      H62            11.9871220810      -36.2434184320      111.3671515117  LPSA17    33             24.0000000000
     18801       609  AGAL      O6              9.9361044510      -36.1898878785      111.3634520436  LPSA17    33             24.0000000000
     18802       609  AGAL      HO6             9.2169386192      -35.7588692529      110.8747244662  LPSA17    33             24.0000000000
     18803       610  ARHM      C1             10.3500922985      -31.0610720449      116.0525938920  LPSA17    34             25.0000000000
     18804       610  ARHM      H1             10.5671654464      -31.9681133831      116.6520438204  LPSA17    34             25.0000000000
     18805       610  ARHM      C5              8.4522483272      -29.9168982657      115.0680804438  LPSA17    34             25.0000000000
     18806       610  ARHM      H5              8.9210432282      -29.9565711608      114.0638467064  LPSA17    34             25.0000000000
     18807       610  ARHM      O5              8.9160598815      -31.0517109572      115.8292011232  LPSA17    34             25.0000000000
     18808       610  ARHM      C2             10.7863431036      -29.8196589930      116.8133649175  LPSA17    34             25.0000000000
     18809       610  ARHM      H2             11.9056728380      -29.7938054605      116.8531729241  LPSA17    34             25.0000000000
     18810       610  ARHM      O2             10.2902142272      -29.7492733880      118.1773298150  LPSA17    34             25.0000000000
     18811       610  ARHM      C3             10.3486088539      -28.6058751175      116.0114924396  LPSA17    34             25.0000000000
     18812       610  ARHM      H3             10.8087655678      -28.6484950844      114.9939308272  LPSA17    34             25.0000000000
     18813       610  ARHM      O3             10.8011705613      -27.3944576085      116.6160904844  LPSA17    34             25.0000000000
     18814       610  ARHM      HO3            10.9807942996      -26.7588469063      115.9189452857  LPSA17    34             25.0000000000
     18815       610  ARHM      C4              8.8520214216      -28.6383575521      115.8033767213  LPSA17    34             25.0000000000
     18816       610  ARHM      H4              8.3179469610      -28.6603891131      116.7841727205  LPSA17    34             25.0000000000
     18817       610  ARHM      O4              8.4398528473      -27.4854572267      115.0754711873  LPSA17    34             25.0000000000
     18818       610  ARHM      HO4             8.3881947206      -26.7274496257      115.6736706332  LPSA17    34             25.0000000000
     18819       610  ARHM      C6              6.9202751404      -29.9606619494      114.8260237504  LPSA17    34             25.0000000000
     18820       610  ARHM      H61             6.3655613714      -29.9999602385      115.7759379368  LPSA17    34             25.0000000000
     18821       610  ARHM      H62             6.5981663868      -29.0143316461      114.3413361052  LPSA17    34             25.0000000000
     18822       610  ARHM      H63             6.5743439193      -30.7885683889      114.1794911145  LPSA17    34             25.0000000000
     18823       611  ARHM      C1             10.5820729857      -30.8113970155      119.0696062971  LPSA17    35             26.0000000000
     18824       611  ARHM      H1             11.6170602536      -31.1850655010      118.8768182025  LPSA17    35             26.0000000000
     18825       611  ARHM      C5              8.2757343312      -31.4742747230      119.2100695097  LPSA17    35             26.0000000000
     18826       611  ARHM      H5              7.9729956018      -30.6600443703      118.5151618751  LPSA17    35             26.0000000000
     18827       611  ARHM      O5              9.6303650850      -31.8896705648      118.9403211241  LPSA17    35             26.0000000000
     18828       611  ARHM      C2             10.5203236238      -30.3144673002      120.5113979177  LPSA17    35             26.0000000000
     18829       611  ARHM      H2             11.2447030631      -29.4759807082      120.6644565636  LPSA17    35             26.0000000000
     18830       611  ARHM      O2             10.8478469385      -31.3768937094      121.4224693727  LPSA17    35             26.0000000000
     18831       611  ARHM      C3              9.1368629717      -29.8026705152      120.8337159895  LPSA17    35             26.0000000000
     18832       611  ARHM      H3              8.8786273895      -28.9881071698      120.1156204956  LPSA17    35             26.0000000000
     18833       611  ARHM      O3              9.0857017017      -29.1913717660      122.1252430445  LPSA17    35             26.0000000000
     18834       611  ARHM      HO3             9.6108389928      -29.7232036449      122.7510917579  LPSA17    35             26.0000000000
     18835       611  ARHM      C4              8.1454012791      -30.9476693538      120.6526011668  LPSA17    35             26.0000000000
     18836       611  ARHM      H4              8.3907768192      -31.7914973986      121.3444838544  LPSA17    35             26.0000000000
     18837       611  ARHM      O4              6.8079420778      -30.5139615744      120.9364020868  LPSA17    35             26.0000000000
     18838       611  ARHM      HO4             6.6915526141      -29.6286471511      120.5810471709  LPSA17    35             26.0000000000
     18839       611  ARHM      C6              7.3485661230      -32.6617673880      118.8540218730  LPSA17    35             26.0000000000
     18840       611  ARHM      H61             7.3402281648      -32.8853254500      117.7668815813  LPSA17    35             26.0000000000
     18841       611  ARHM      H62             7.6271947932      -33.5679097153      119.4227695236  LPSA17    35             26.0000000000
     18842       611  ARHM      H63             6.3234816995      -32.3668702398      119.1380499650  LPSA17    35             26.0000000000
     18843       612  BMANNA    C1             12.2039593966      -31.7264055893      121.4705932169  LPSA17    36             27.0000000000
     18844       612  BMANNA    H1             12.8347072914      -30.8803891657      121.1218125760  LPSA17    36             27.0000000000
     18845       612  BMANNA    C5             13.9486142683      -33.1440766680      120.7155499716  LPSA17    36             27.0000000000
     18846       612  BMANNA    H5             14.5019945109      -32.2180185820      120.4253852418  LPSA17    36             27.0000000000
     18847       612  BMANNA    O5             12.5303698081      -32.8589762636      120.6575552957  LPSA17    36             27.0000000000
     18848       612  BMANNA    C2             12.5214286351      -32.0546583848      122.9162921578  LPSA17    36             27.0000000000
     18849       612  BMANNA    H2             12.3042836232      -31.1135354674      123.4808805791  LPSA17    36             27.0000000000
     18850       612  BMANNA    N              11.7106649649      -33.1171119797      123.5010025948  LPSA17    36             27.0000000000
     18851       612  BMANNA    HN             11.4453555946      -33.8516140967      122.8749400854  LPSA17    36             27.0000000000
     18852       612  BMANNA    C              11.4243876995      -33.1795999009      124.8235867135  LPSA17    36             27.0000000000
     18853       612  BMANNA    O              11.7198768118      -32.2975549749      125.6226991132  LPSA17    36             27.0000000000
     18854       612  BMANNA    CT             10.7418319313      -34.4173640765      125.3314084056  LPSA17    36             27.0000000000
     18855       612  BMANNA    HT1            11.1693856516      -35.3012555348      124.8468910354  LPSA17    36             27.0000000000
     18856       612  BMANNA    HT2             9.6553264421      -34.4114047258      125.1357934940  LPSA17    36             27.0000000000
     18857       612  BMANNA    HT3            10.8874870829      -34.4941035449      126.4313653284  LPSA17    36             27.0000000000
     18858       612  BMANNA    C3             14.0036057495      -32.3369071273      123.0190432435  LPSA17    36             27.0000000000
     18859       612  BMANNA    H3             14.5705017661      -31.4459982689      122.6427520070  LPSA17    36             27.0000000000
     18860       612  BMANNA    O3             14.3979779292      -32.5895890367      124.3635516058  LPSA17    36             27.0000000000
     18861       612  BMANNA    HO3            15.0379627095      -31.9503725600      124.6757134501  LPSA17    36             27.0000000000
     18862       612  BMANNA    C4             14.3616819705      -33.4981264617      122.1325930148  LPSA17    36             27.0000000000
     18863       612  BMANNA    H4             13.8224880172      -34.4194322184      122.4500316587  LPSA17    36             27.0000000000
     18864       612  BMANNA    O4             15.7427706954      -33.8038946940      122.2473882390  LPSA17    36             27.0000000000
     18865       612  BMANNA    HO4            15.8569814798      -33.9387754394      123.1986742432  LPSA17    36             27.0000000000
     18866       612  BMANNA    C6             14.3408937376      -34.2082943973      119.7255847558  LPSA17    36             27.0000000000
     18867       612  BMANNA    H61            14.0348757436      -33.9107450394      118.6963465488  LPSA17    36             27.0000000000
     18868       612  BMANNA    H62            15.4558225373      -34.2531855478      119.7058962949  LPSA17    36             27.0000000000
     18869       612  BMANNA    O6             13.8130308933      -35.4916842030      120.1069224195  LPSA17    36             27.0000000000
     18870       612  BMANNA    HO6            14.4944444560      -35.9264868812      120.6286787950  LPSA17    36             27.0000000000
     18871       613  ECLIPA    HB6S           -6.1067263172       32.4931357947       20.4247995108  LPSA18    1               0.0000000000
     18872       613  ECLIPA    OB6            -4.5769588010       32.9910903320       21.7186184273  LPSA18    1               0.0000000000
     18873       613  ECLIPA    CB6            -5.5145334673       33.3930273143       20.7000537833  LPSA18    1               0.0000000000
     18874       613  ECLIPA    HB6R           -6.2163251011       34.1598194690       21.0988301132  LPSA18    1               0.0000000000
     18875       613  ECLIPA    CB5            -4.8839163900       33.9701762445       19.4369814321  LPSA18    1               0.0000000000
     18876       613  ECLIPA    OB5            -3.9661926239       32.9679805654       18.9592982014  LPSA18    1               0.0000000000
     18877       613  ECLIPA    HB5            -4.3407657572       34.8966177097       19.7408231414  LPSA18    1               0.0000000000
     18878       613  ECLIPA    CB1            -3.2581502381       33.3934257338       17.7873017139  LPSA18    1               0.0000000000
     18879       613  ECLIPA    HB1            -2.7094064204       34.3490545793       17.9701064732  LPSA18    1               0.0000000000
     18880       613  ECLIPA    OA6            -2.3122956071       32.4534585079       17.3262932202  LPSA18    1               0.0000000000
     18881       613  ECLIPA    CA6            -2.6512303548       31.0750529277       17.5639218917  LPSA18    1               0.0000000000
     18882       613  ECLIPA    HA6R           -3.7388935830       30.9283914896       17.7589316692  LPSA18    1               0.0000000000
     18883       613  ECLIPA    HA6S           -2.0681935486       30.7169406035       18.4456585806  LPSA18    1               0.0000000000
     18884       613  ECLIPA    CB4            -5.9066996590       34.3163285248       18.3320643552  LPSA18    1               0.0000000000
     18885       613  ECLIPA    HB4            -6.5238689936       33.4223337244       18.0553961494  LPSA18    1               0.0000000000
     18886       613  ECLIPA    OB4            -6.6961328388       35.4149975188       18.8176874775  LPSA18    1               0.0000000000
     18887       613  ECLIPA    PB             -8.2835961507       35.2270223159       19.2745193238  LPSA18    1               0.0000000000
     18888       613  ECLIPA    OPB4           -8.5510214728       36.1866155915       20.4465897475  LPSA18    1               0.0000000000
     18889       613  ECLIPA    OPB3           -8.3486918358       33.7478048603       19.6618179066  LPSA18    1               0.0000000000
     18890       613  ECLIPA    OPB2           -9.1464111171       35.6660395213       18.0892354991  LPSA18    1               0.0000000000
     18891       613  ECLIPA    CB3            -5.1548466613       34.7605576068       17.0934472472  LPSA18    1               0.0000000000
     18892       613  ECLIPA    OB3            -5.9844695250       35.0023075979       15.9578639117  LPSA18    1               0.0000000000
     18893       613  ECLIPA    HB3            -4.5075763395       35.6376428722       17.3354139793  LPSA18    1               0.0000000000
     18894       613  ECLIPA    C71            -6.4699619733       36.1965900941       15.7514575375  LPSA18    1               0.0000000000
     18895       613  ECLIPA    O71            -6.0745876014       37.2493383376       16.2314300443  LPSA18    1               0.0000000000
     18896       613  ECLIPA    C72            -7.1954085179       36.2153898363       14.3795708602  LPSA18    1               0.0000000000
     18897       613  ECLIPA    H72R           -6.4901212358       35.8709537259       13.5928973716  LPSA18    1               0.0000000000
     18898       613  ECLIPA    H72S           -7.5199266168       37.2481194364       14.1650768147  LPSA18    1               0.0000000000
     18899       613  ECLIPA    CB2            -4.2231909116       33.6465831303       16.6662639462  LPSA18    1               0.0000000000
     18900       613  ECLIPA    HB2            -4.8376060748       32.7141466455       16.5135024012  LPSA18    1               0.0000000000
     18901       613  ECLIPA    NB2            -3.5040917451       34.0141926390       15.4504521619  LPSA18    1               0.0000000000
     18902       613  ECLIPA    HNB2           -2.6406183639       34.4874045330       15.5783293514  LPSA18    1               0.0000000000
     18903       613  ECLIPA    CA4            -0.9169876847       30.6448068287       15.7946628237  LPSA18    1               0.0000000000
     18904       613  ECLIPA    HA4            -0.9772638586       31.7220795197       15.5212889746  LPSA18    1               0.0000000000
     18905       613  ECLIPA    OA4             0.0644807156       30.4744683356       16.8101764772  LPSA18    1               0.0000000000
     18906       613  ECLIPA    HOA4           -0.2637757975       30.8718618598       17.6240642755  LPSA18    1               0.0000000000
     18907       613  ECLIPA    CA5            -2.2715519534       30.2618370940       16.3402894512  LPSA18    1               0.0000000000
     18908       613  ECLIPA    HA5            -2.3598192226       29.1727597177       16.5700230685  LPSA18    1               0.0000000000
     18909       613  ECLIPA    OA5            -3.2276296903       30.5831675711       15.3432699114  LPSA18    1               0.0000000000
     18910       613  ECLIPA    CA1            -3.0350312926       29.8709267443       14.1081126416  LPSA18    1               0.0000000000
     18911       613  ECLIPA    HA1            -3.7376809282       30.3973284648       13.4251216562  LPSA18    1               0.0000000000
     18912       613  ECLIPA    OA1            -3.3844704434       28.5023695470       14.1373184549  LPSA18    1               0.0000000000
     18913       613  ECLIPA    OPA2           -4.4939986119       27.3396274885       16.0309129354  LPSA18    1               0.0000000000
     18914       613  ECLIPA    OPA3           -5.7771688309       29.1981598575       14.9054413147  LPSA18    1               0.0000000000
     18915       613  ECLIPA    OPA4           -5.3706747057       26.9918127922       13.6574035866  LPSA18    1               0.0000000000
     18916       613  ECLIPA    PA             -4.8611233799       27.9959715904       14.7030309669  LPSA18    1               0.0000000000
     18917       613  ECLIPA    CA3            -0.5845254665       29.8868669866       14.5273967169  LPSA18    1               0.0000000000
     18918       613  ECLIPA    HA3            -0.5309341069       28.7946843457       14.7366849093  LPSA18    1               0.0000000000
     18919       613  ECLIPA    OA3             0.7417818626       30.3359358043       14.1900232251  LPSA18    1               0.0000000000
     18920       613  ECLIPA    C31             0.8835420144       31.4725076978       13.5060828622  LPSA18    1               0.0000000000
     18921       613  ECLIPA    O31             0.8234994917       31.5274026276       12.2916440986  LPSA18    1               0.0000000000
     18922       613  ECLIPA    C32             1.7792003116       32.4288513587       14.2911826544  LPSA18    1               0.0000000000
     18923       613  ECLIPA    H32R            2.7220774039       32.5524204029       13.7177872725  LPSA18    1               0.0000000000
     18924       613  ECLIPA    H32S            2.0069220295       32.0217837959       15.2941701522  LPSA18    1               0.0000000000
     18925       613  ECLIPA    CA2            -1.6755271928       30.2053287103       13.5103071667  LPSA18    1               0.0000000000
     18926       613  ECLIPA    HA2            -1.6892029308       31.3069954449       13.3389391737  LPSA18    1               0.0000000000
     18927       613  ECLIPA    NA2            -1.4545587858       29.5261344414       12.2225406520  LPSA18    1               0.0000000000
     18928       613  ECLIPA    HNA2           -0.5707333298       29.0966016577       12.1198167068  LPSA18    1               0.0000000000
     18929       613  ECLIPA    C73            -8.4110822964       35.2603205787       14.3577281310  LPSA18    1               0.0000000000
     18930       613  ECLIPA    H73R           -9.0123041341       35.4321865939       15.2861503447  LPSA18    1               0.0000000000
     18931       613  ECLIPA    O73            -7.8791946062       33.9422127042       14.2670713807  LPSA18    1               0.0000000000
     18932       613  ECLIPA    C81            -8.4636122519       32.9466549107       14.9308524941  LPSA18    1               0.0000000000
     18933       613  ECLIPA    O81            -9.4923477192       33.0301403800       15.5746428813  LPSA18    1               0.0000000000
     18934       613  ECLIPA    C82            -7.9886687772       31.6159664433       14.3361574235  LPSA18    1               0.0000000000
     18935       613  ECLIPA    H82R           -8.4938690782       30.7868932540       14.8653270276  LPSA18    1               0.0000000000
     18936       613  ECLIPA    H82S           -6.9064093470       31.5118925986       14.5576254995  LPSA18    1               0.0000000000
     18937       613  ECLIPA    C83            -8.2092369104       31.5055444681       12.8074245767  LPSA18    1               0.0000000000
     18938       613  ECLIPA    H83R           -7.3843628855       32.0469077445       12.2893282279  LPSA18    1               0.0000000000
     18939       613  ECLIPA    H83S           -9.1655697663       31.9950569412       12.5374843980  LPSA18    1               0.0000000000
     18940       613  ECLIPA    C84            -8.1615222975       30.0584319548       12.2892997321  LPSA18    1               0.0000000000
     18941       613  ECLIPA    H84R           -9.0640706449       29.4914957762       12.5924513393  LPSA18    1               0.0000000000
     18942       613  ECLIPA    H84S           -7.2635883571       29.5827741548       12.7649074611  LPSA18    1               0.0000000000
     18943       613  ECLIPA    C85            -7.9577152624       29.9805494795       10.7689092665  LPSA18    1               0.0000000000
     18944       613  ECLIPA    H85R           -7.1871291832       30.7522402697       10.5438862175  LPSA18    1               0.0000000000
     18945       613  ECLIPA    H85S           -8.8822508370       30.2835020028       10.2342257968  LPSA18    1               0.0000000000
     18946       613  ECLIPA    C86            -7.3777859480       28.6321389887       10.2862194207  LPSA18    1               0.0000000000
     18947       613  ECLIPA    H86R           -8.1854378708       27.9260220630        9.9930745493  LPSA18    1               0.0000000000
     18948       613  ECLIPA    H86S           -6.8283859813       28.1477585298       11.1304913504  LPSA18    1               0.0000000000
     18949       613  ECLIPA    C87            -6.3383623148       28.8024365026        9.1595703143  LPSA18    1               0.0000000000
     18950       613  ECLIPA    H87R           -6.0158390746       27.8026090766        8.7967200246  LPSA18    1               0.0000000000
     18951       613  ECLIPA    H87S           -5.4278633061       29.2924957686        9.5767994555  LPSA18    1               0.0000000000
     18952       613  ECLIPA    C88            -6.8449423585       29.6891183509        8.0203653054  LPSA18    1               0.0000000000
     18953       613  ECLIPA    H88R           -6.8129602947       30.7485696392        8.3501415835  LPSA18    1               0.0000000000
     18954       613  ECLIPA    H88S           -7.9275528297       29.4720824408        7.8790146153  LPSA18    1               0.0000000000
     18955       613  ECLIPA    C89            -6.0406747965       29.5383367351        6.7153942613  LPSA18    1               0.0000000000
     18956       613  ECLIPA    H89R           -5.0292690040       29.1110659707        6.8950231985  LPSA18    1               0.0000000000
     18957       613  ECLIPA    H89S           -5.8673552032       30.5360386111        6.2582567396  LPSA18    1               0.0000000000
     18958       613  ECLIPA    C810           -6.8252417846       28.7070103591        5.6968245522  LPSA18    1               0.0000000000
     18959       613  ECLIPA    H810R          -7.9002174331       28.8622594419        5.9306812406  LPSA18    1               0.0000000000
     18960       613  ECLIPA    H810S          -6.5819975223       27.6339970181        5.8632695336  LPSA18    1               0.0000000000
     18961       613  ECLIPA    C811           -6.5531894252       29.0908368708        4.2343097919  LPSA18    1               0.0000000000
     18962       613  ECLIPA    H811R          -6.8329454689       28.2639235711        3.5401427565  LPSA18    1               0.0000000000
     18963       613  ECLIPA    H811S          -5.4591021365       29.2777460152        4.1529004082  LPSA18    1               0.0000000000
     18964       613  ECLIPA    C812           -7.2476209591       30.3693457793        3.7362674898  LPSA18    1               0.0000000000
     18965       613  ECLIPA    H812R          -6.8409577665       30.5713821546        2.7144330504  LPSA18    1               0.0000000000
     18966       613  ECLIPA    H812S          -6.9890566678       31.2124746857        4.4088191153  LPSA18    1               0.0000000000
     18967       613  ECLIPA    C813           -8.7740829888       30.3171767101        3.6358484721  LPSA18    1               0.0000000000
     18968       613  ECLIPA    H813R          -9.0440554754       29.5048679718        2.9291175424  LPSA18    1               0.0000000000
     18969       613  ECLIPA    H813S          -9.2337955995       30.0779088365        4.6232324407  LPSA18    1               0.0000000000
     18970       613  ECLIPA    C814           -9.3688568312       31.6327119948        3.1301165103  LPSA18    1               0.0000000000
     18971       613  ECLIPA    H814R          -8.8458915014       32.0032059549        2.2198277340  LPSA18    1               0.0000000000
     18972       613  ECLIPA    H814S          -9.2872859408       32.4091865066        3.9188626292  LPSA18    1               0.0000000000
     18973       613  ECLIPA    H814T         -10.4413971236       31.4933467839        2.8879766190  LPSA18    1               0.0000000000
     18974       613  ECLIPA    C74            -9.3490189469       35.4401656312       13.1309622045  LPSA18    1               0.0000000000
     18975       613  ECLIPA    H74R           -9.8379285478       36.4291964351       13.0412881680  LPSA18    1               0.0000000000
     18976       613  ECLIPA    H74S          -10.1805545567       34.7135659710       13.3177604532  LPSA18    1               0.0000000000
     18977       613  ECLIPA    C75            -8.7139690655       35.0292470519       11.7831532643  LPSA18    1               0.0000000000
     18978       613  ECLIPA    H75R           -9.5059173926       34.5162058213       11.1939332969  LPSA18    1               0.0000000000
     18979       613  ECLIPA    H75S           -7.9211444562       34.2718350506       11.9717617535  LPSA18    1               0.0000000000
     18980       613  ECLIPA    C76            -8.1049554987       36.1657677821       10.9503248122  LPSA18    1               0.0000000000
     18981       613  ECLIPA    H76R           -7.1102392185       36.4316621926       11.3698314840  LPSA18    1               0.0000000000
     18982       613  ECLIPA    H76S           -8.7487408480       37.0721471744       10.9819920607  LPSA18    1               0.0000000000
     18983       613  ECLIPA    C77            -7.9040437937       35.8296095348        9.4572029402  LPSA18    1               0.0000000000
     18984       613  ECLIPA    H77R           -8.8984309953       35.6735566261        8.9920474670  LPSA18    1               0.0000000000
     18985       613  ECLIPA    H77S           -7.3526879706       34.8864486410        9.3132875456  LPSA18    1               0.0000000000
     18986       613  ECLIPA    C78            -7.0724499983       36.9465228308        8.8015928196  LPSA18    1               0.0000000000
     18987       613  ECLIPA    H78R           -7.5414885636       37.9194391211        9.0624708759  LPSA18    1               0.0000000000
     18988       613  ECLIPA    H78S           -6.0920997651       36.9278416480        9.3248225515  LPSA18    1               0.0000000000
     18989       613  ECLIPA    C79            -6.7524895566       36.8303916032        7.2960073233  LPSA18    1               0.0000000000
     18990       613  ECLIPA    H79R           -5.7617416831       36.3354056395        7.1754580436  LPSA18    1               0.0000000000
     18991       613  ECLIPA    H79S           -6.6700164057       37.8424551117        6.8374381670  LPSA18    1               0.0000000000
     18992       613  ECLIPA    C710           -7.7902402334       36.0998633161        6.4619570496  LPSA18    1               0.0000000000
     18993       613  ECLIPA    H710R          -7.9809962059       35.0859361558        6.8696662067  LPSA18    1               0.0000000000
     18994       613  ECLIPA    H710S          -8.7360008377       36.6851665267        6.4894332430  LPSA18    1               0.0000000000
     18995       613  ECLIPA    C711           -7.3837816250       35.9288411669        5.0094634989  LPSA18    1               0.0000000000
     18996       613  ECLIPA    H711R          -7.2078735080       36.9348438546        4.5625141617  LPSA18    1               0.0000000000
     18997       613  ECLIPA    H711S          -6.4449470120       35.3322835526        4.9253104048  LPSA18    1               0.0000000000
     18998       613  ECLIPA    C712           -8.5030088447       35.1606142026        4.3154231390  LPSA18    1               0.0000000000
     18999       613  ECLIPA    H712R          -9.4187556789       35.7966730007        4.2961789629  LPSA18    1               0.0000000000
     19000       613  ECLIPA    H712S          -8.7092846957       34.2301201689        4.8718757589  LPSA18    1               0.0000000000
     19001       613  ECLIPA    C713           -8.1322739180       34.8488480393        2.9125379745  LPSA18    1               0.0000000000
     19002       613  ECLIPA    H713R          -7.2318099504       34.1792275116        2.8682940257  LPSA18    1               0.0000000000
     19003       613  ECLIPA    H713S          -8.9629166233       34.3011271805        2.4009270458  LPSA18    1               0.0000000000
     19004       613  ECLIPA    C714           -7.9076410911       36.2256070570        2.3009788838  LPSA18    1               0.0000000000
     19005       613  ECLIPA    H714R          -8.8013724718       36.7329742028        1.8897880082  LPSA18    1               0.0000000000
     19006       613  ECLIPA    H714S          -6.9337591771       36.7178989932        2.4491787778  LPSA18    1               0.0000000000
     19007       613  ECLIPA    H714T          -7.4752153682       36.1352422325        1.3833370817  LPSA18    1               0.0000000000
     19008       613  ECLIPA    C51            -4.0170081486       33.7677436689       14.2337555562  LPSA18    1               0.0000000000
     19009       613  ECLIPA    O51            -4.9514254742       33.0031701573       14.0791413322  LPSA18    1               0.0000000000
     19010       613  ECLIPA    C52            -3.4348889254       34.5088996463       13.0537612810  LPSA18    1               0.0000000000
     19011       613  ECLIPA    H52R           -3.9375951371       35.4941608726       12.9355651579  LPSA18    1               0.0000000000
     19012       613  ECLIPA    H52S           -2.3783043814       34.6865564434       13.2485089375  LPSA18    1               0.0000000000
     19013       613  ECLIPA    C53            -3.5800496297       33.6857648157       11.7583281296  LPSA18    1               0.0000000000
     19014       613  ECLIPA    H53R           -3.4806070106       32.5978730623       11.9845133189  LPSA18    1               0.0000000000
     19015       613  ECLIPA    O53            -2.5903061948       34.1399854678       10.8284484947  LPSA18    1               0.0000000000
     19016       613  ECLIPA    C61            -1.5774121379       33.3344076167       10.5069214068  LPSA18    1               0.0000000000
     19017       613  ECLIPA    O61            -1.4402015438       32.1916372363       10.8661559380  LPSA18    1               0.0000000000
     19018       613  ECLIPA    C62            -0.5873487849       34.0647481053        9.5757843148  LPSA18    1               0.0000000000
     19019       613  ECLIPA    H62R            0.1197061201       34.6582288527       10.1862778792  LPSA18    1               0.0000000000
     19020       613  ECLIPA    H62S           -1.1913677947       34.7943944891        9.0044558926  LPSA18    1               0.0000000000
     19021       613  ECLIPA    C63             0.2245256712       33.0675052084        8.7079796375  LPSA18    1               0.0000000000
     19022       613  ECLIPA    H63R           -0.4976329601       32.3416225743        8.2758142155  LPSA18    1               0.0000000000
     19023       613  ECLIPA    H63S            0.9583887497       32.5133824056        9.3356997461  LPSA18    1               0.0000000000
     19024       613  ECLIPA    C64             0.9676697186       33.6781918222        7.5175491220  LPSA18    1               0.0000000000
     19025       613  ECLIPA    H64R            1.5700223627       32.9039795412        6.9887195333  LPSA18    1               0.0000000000
     19026       613  ECLIPA    H64S            1.6590965528       34.4554049854        7.9174600360  LPSA18    1               0.0000000000
     19027       613  ECLIPA    C65            -0.0560805185       34.2810408970        6.5645817527  LPSA18    1               0.0000000000
     19028       613  ECLIPA    H65R           -0.5149348736       35.1156802058        7.1479290775  LPSA18    1               0.0000000000
     19029       613  ECLIPA    H65S           -0.8349818578       33.5713258709        6.2417677793  LPSA18    1               0.0000000000
     19030       613  ECLIPA    C66             0.4931957302       34.9062810788        5.3144352048  LPSA18    1               0.0000000000
     19031       613  ECLIPA    H66R            1.2838841966       35.5480039194        5.7492029807  LPSA18    1               0.0000000000
     19032       613  ECLIPA    H66S           -0.3241475985       35.5108397674        4.8382921834  LPSA18    1               0.0000000000
     19033       613  ECLIPA    C67             1.1530786569       34.0934313504        4.1991763629  LPSA18    1               0.0000000000
     19034       613  ECLIPA    H67R            1.9698011326       33.4468261207        4.5799328283  LPSA18    1               0.0000000000
     19035       613  ECLIPA    H67S            1.5994551688       34.7395051996        3.3974437854  LPSA18    1               0.0000000000
     19036       613  ECLIPA    C68             0.1578134222       33.1740828109        3.5545983393  LPSA18    1               0.0000000000
     19037       613  ECLIPA    H68R           -0.7396601963       33.6861338128        3.1387853920  LPSA18    1               0.0000000000
     19038       613  ECLIPA    H68S           -0.1437871514       32.4464303548        4.3304280865  LPSA18    1               0.0000000000
     19039       613  ECLIPA    C69             0.8124398282       32.4994649040        2.3867562116  LPSA18    1               0.0000000000
     19040       613  ECLIPA    H69R            1.9192457309       32.4178619201        2.4628552460  LPSA18    1               0.0000000000
     19041       613  ECLIPA    H69S            0.6269701680       33.2746424142        1.5978468806  LPSA18    1               0.0000000000
     19042       613  ECLIPA    C610            0.2123963721       31.0946873319        2.1274212737  LPSA18    1               0.0000000000
     19043       613  ECLIPA    H610R          -0.9016473707       31.2232098058        2.1384553586  LPSA18    1               0.0000000000
     19044       613  ECLIPA    H610S           0.5622371185       30.3899215200        2.8816813501  LPSA18    1               0.0000000000
     19045       613  ECLIPA    C611            0.5672242454       30.3778049139        0.8386742283  LPSA18    1               0.0000000000
     19046       613  ECLIPA    H611R           1.6572929530       30.5477516318        0.6169848309  LPSA18    1               0.0000000000
     19047       613  ECLIPA    H611S           0.4088128941       29.3342124501        0.5812362754  LPSA18    1               0.0000000000
     19048       613  ECLIPA    C612           -0.4481000946       30.9418168117       -0.0445683851  LPSA18    1               0.0000000000
     19049       613  ECLIPA    H612R          -1.5197136692       30.9993195423       -0.1139417022  LPSA18    1               0.0000000000
     19050       613  ECLIPA    H612S          -0.1888783694       32.0100871177        0.2247943683  LPSA18    1               0.0000000000
     19051       613  ECLIPA    H612T          -0.3190660933       30.6190929705       -1.1044102965  LPSA18    1               0.0000000000
     19052       613  ECLIPA    C54            -4.9787519105       33.9830207832       11.1703344490  LPSA18    1               0.0000000000
     19053       613  ECLIPA    H54R           -4.9892870767       35.0569938012       10.8818449431  LPSA18    1               0.0000000000
     19054       613  ECLIPA    H54S           -5.7236732010       33.8416940527       11.9787763006  LPSA18    1               0.0000000000
     19055       613  ECLIPA    C55            -5.4108432857       33.1307445130        9.9631128513  LPSA18    1               0.0000000000
     19056       613  ECLIPA    H55R           -6.5092418521       33.2166325890        9.8232486905  LPSA18    1               0.0000000000
     19057       613  ECLIPA    H55S           -5.2174489995       32.0618758461       10.2010752635  LPSA18    1               0.0000000000
     19058       613  ECLIPA    C56            -4.7169131342       33.6309415045        8.6898853277  LPSA18    1               0.0000000000
     19059       613  ECLIPA    H56R           -3.6244330460       33.6106219642        8.8579924037  LPSA18    1               0.0000000000
     19060       613  ECLIPA    H56S           -5.0003736094       34.6919821660        8.5043247379  LPSA18    1               0.0000000000
     19061       613  ECLIPA    C57            -4.9235045570       32.8365249495        7.4049918301  LPSA18    1               0.0000000000
     19062       613  ECLIPA    H57R           -6.0025588887       32.7001952871        7.1804128564  LPSA18    1               0.0000000000
     19063       613  ECLIPA    H57S           -4.4859191246       31.8216397200        7.5430134988  LPSA18    1               0.0000000000
     19064       613  ECLIPA    C58            -4.1886204526       33.5377208916        6.2453780569  LPSA18    1               0.0000000000
     19065       613  ECLIPA    H58R           -4.4081192591       34.6254838598        6.2181681878  LPSA18    1               0.0000000000
     19066       613  ECLIPA    H58S           -3.0978909248       33.4621464639        6.4608036530  LPSA18    1               0.0000000000
     19067       613  ECLIPA    C59            -4.5498272169       32.9302012385        4.8844594406  LPSA18    1               0.0000000000
     19068       613  ECLIPA    H59R           -5.6512277581       32.9745620005        4.7197414290  LPSA18    1               0.0000000000
     19069       613  ECLIPA    H59S           -4.2641982571       31.8583154309        4.9625330212  LPSA18    1               0.0000000000
     19070       613  ECLIPA    C510           -3.9385835478       33.6580536184        3.6763103349  LPSA18    1               0.0000000000
     19071       613  ECLIPA    H510R          -2.8603233366       33.8779100651        3.8316545726  LPSA18    1               0.0000000000
     19072       613  ECLIPA    H510S          -4.4577934655       34.6360929407        3.5275879698  LPSA18    1               0.0000000000
     19073       613  ECLIPA    C511           -4.0779464552       32.8956906792        2.3686544892  LPSA18    1               0.0000000000
     19074       613  ECLIPA    H511R          -3.2740493735       32.1257059649        2.2929977130  LPSA18    1               0.0000000000
     19075       613  ECLIPA    H511S          -5.0567974071       32.3931638400        2.2344088691  LPSA18    1               0.0000000000
     19076       613  ECLIPA    C512           -3.8613433146       33.8180763102        1.2208649049  LPSA18    1               0.0000000000
     19077       613  ECLIPA    H512R          -4.0821399612       33.1895693813        0.3532954582  LPSA18    1               0.0000000000
     19078       613  ECLIPA    H512S          -4.4701116424       34.7501656669        1.1524753826  LPSA18    1               0.0000000000
     19079       613  ECLIPA    C513           -2.4099321149       34.0875791089        1.0762119173  LPSA18    1               0.0000000000
     19080       613  ECLIPA    H513R          -1.8865597611       33.1186707830        0.8652551069  LPSA18    1               0.0000000000
     19081       613  ECLIPA    H513S          -1.8330328185       34.7069204062        1.7649374371  LPSA18    1               0.0000000000
     19082       613  ECLIPA    C514           -2.3964850566       34.8596773074       -0.1034595619  LPSA18    1               0.0000000000
     19083       613  ECLIPA    H514R          -3.0227774227       35.7464865018       -0.2752275885  LPSA18    1               0.0000000000
     19084       613  ECLIPA    H514S          -1.3787574366       35.2137055209       -0.3359717113  LPSA18    1               0.0000000000
     19085       613  ECLIPA    H514T          -2.7236777700       34.0657328375       -0.8190326253  LPSA18    1               0.0000000000
     19086       613  ECLIPA    C33             1.1864434136       33.8303270931       14.3883610687  LPSA18    1               0.0000000000
     19087       613  ECLIPA    H33R            2.0041141464       34.4803812549       14.7883239198  LPSA18    1               0.0000000000
     19088       613  ECLIPA    O33             0.1766199438       33.8573380474       15.3846430185  LPSA18    1               0.0000000000
     19089       613  ECLIPA    HO33            0.5157801776       33.7961313678       16.2890813676  LPSA18    1               0.0000000000
     19090       613  ECLIPA    C34             0.6104701969       34.3314672968       13.0063612785  LPSA18    1               0.0000000000
     19091       613  ECLIPA    H34R           -0.2364299664       33.7136645933       12.6895082937  LPSA18    1               0.0000000000
     19092       613  ECLIPA    H34S            1.4532441790       34.4584974229       12.2869219779  LPSA18    1               0.0000000000
     19093       613  ECLIPA    C35            -0.1369442560       35.6316926252       12.9273334776  LPSA18    1               0.0000000000
     19094       613  ECLIPA    H35R            0.7971013344       36.2387661512       12.8654549151  LPSA18    1               0.0000000000
     19095       613  ECLIPA    H35S           -0.8217665507       35.7280658836       13.8064967677  LPSA18    1               0.0000000000
     19096       613  ECLIPA    C36            -0.7235900066       36.3973846939       11.8076681655  LPSA18    1               0.0000000000
     19097       613  ECLIPA    H36R           -1.1685886573       35.5801474509       11.3307998050  LPSA18    1               0.0000000000
     19098       613  ECLIPA    H36S            0.1046804259       36.8882382664       11.2135814518  LPSA18    1               0.0000000000
     19099       613  ECLIPA    C37            -1.9190345680       37.2794086039       12.2232540041  LPSA18    1               0.0000000000
     19100       613  ECLIPA    H37R           -1.5920099100       38.2964789197       12.3624018038  LPSA18    1               0.0000000000
     19101       613  ECLIPA    H37S           -2.4516469289       36.9977401525       13.1446909194  LPSA18    1               0.0000000000
     19102       613  ECLIPA    C38            -2.9629398323       37.5672789672       11.2789782754  LPSA18    1               0.0000000000
     19103       613  ECLIPA    H38R           -3.6425539444       36.7353850968       11.3102477848  LPSA18    1               0.0000000000
     19104       613  ECLIPA    H38S           -3.5603896976       38.4263484944       11.6530042744  LPSA18    1               0.0000000000
     19105       613  ECLIPA    C39            -2.2546588556       37.6762491754        9.9986503304  LPSA18    1               0.0000000000
     19106       613  ECLIPA    H39R           -1.4652903994       36.9562203706        9.7513001381  LPSA18    1               0.0000000000
     19107       613  ECLIPA    H39S           -1.6083745007       38.5960658712       10.1502610489  LPSA18    1               0.0000000000
     19108       613  ECLIPA    C310           -3.3311426637       37.5107935362        8.8910309554  LPSA18    1               0.0000000000
     19109       613  ECLIPA    H310R          -4.0064217732       38.4021169931        8.9447356924  LPSA18    1               0.0000000000
     19110       613  ECLIPA    H310S          -4.0788798692       36.7443266356        9.0374306265  LPSA18    1               0.0000000000
     19111       613  ECLIPA    C311           -2.6429593797       37.2604680764        7.5416157891  LPSA18    1               0.0000000000
     19112       613  ECLIPA    H311R          -1.6214530035       37.6949867981        7.7649139269  LPSA18    1               0.0000000000
     19113       613  ECLIPA    H311S          -2.2892722201       36.2571996877        7.3393738826  LPSA18    1               0.0000000000
     19114       613  ECLIPA    C312           -3.4713107831       37.6125344528        6.2326969252  LPSA18    1               0.0000000000
     19115       613  ECLIPA    H312R          -4.5138627438       37.8750005581        6.4331820962  LPSA18    1               0.0000000000
     19116       613  ECLIPA    H312S          -3.3938188317       38.5683512243        5.6789023659  LPSA18    1               0.0000000000
     19117       613  ECLIPA    C313           -2.8604911868       37.1933618968        4.9241548756  LPSA18    1               0.0000000000
     19118       613  ECLIPA    H313R          -1.8397950448       37.6568209261        4.7986529918  LPSA18    1               0.0000000000
     19119       613  ECLIPA    H313S          -2.7261847679       36.1295397542        5.0498641659  LPSA18    1               0.0000000000
     19120       613  ECLIPA    C314           -3.8005626997       37.6038288490        3.7899138921  LPSA18    1               0.0000000000
     19121       613  ECLIPA    H314R          -3.8257601103       38.6924332185        3.7262064672  LPSA18    1               0.0000000000
     19122       613  ECLIPA    H314S          -3.4655641293       37.2124851042        2.8159796091  LPSA18    1               0.0000000000
     19123       613  ECLIPA    H314T          -4.8520985778       37.3596777896        4.0239766080  LPSA18    1               0.0000000000
     19124       613  ECLIPA    C11            -2.3715136594       29.2862165267       11.2539231139  LPSA18    1               0.0000000000
     19125       613  ECLIPA    O11            -3.4173914908       29.9019350264       11.0953443960  LPSA18    1               0.0000000000
     19126       613  ECLIPA    C12            -2.0128437550       28.1535138057       10.3270701530  LPSA18    1               0.0000000000
     19127       613  ECLIPA    H12R           -2.6514340225       27.2780435360       10.5526209928  LPSA18    1               0.0000000000
     19128       613  ECLIPA    H12S           -0.9503403432       27.8892512683       10.5125338102  LPSA18    1               0.0000000000
     19129       613  ECLIPA    C13            -2.1549871075       28.5316049853        8.8548506505  LPSA18    1               0.0000000000
     19130       613  ECLIPA    H13R           -3.0900721905       29.1022359329        8.6434996205  LPSA18    1               0.0000000000
     19131       613  ECLIPA    O13            -2.2104749110       27.3134677281        8.1204828048  LPSA18    1               0.0000000000
     19132       613  ECLIPA    HO13           -2.6872924311       27.3620205214        7.2874425100  LPSA18    1               0.0000000000
     19133       613  ECLIPA    C14            -0.9364582760       29.3792862967        8.4389300931  LPSA18    1               0.0000000000
     19134       613  ECLIPA    H14R           -0.0211885174       29.0153026943        8.9590436155  LPSA18    1               0.0000000000
     19135       613  ECLIPA    H14S           -1.1503204615       30.4157005665        8.7773025753  LPSA18    1               0.0000000000
     19136       613  ECLIPA    C15            -0.6374078617       29.4433630963        6.9462210175  LPSA18    1               0.0000000000
     19137       613  ECLIPA    H15R           -0.5131024563       28.4045332354        6.5682059864  LPSA18    1               0.0000000000
     19138       613  ECLIPA    H15S            0.3435677077       29.9559441449        6.8242772965  LPSA18    1               0.0000000000
     19139       613  ECLIPA    C16            -1.7392693737       30.1852513303        6.1800792719  LPSA18    1               0.0000000000
     19140       613  ECLIPA    H16R           -1.5990550176       31.2816909669        6.2750345778  LPSA18    1               0.0000000000
     19141       613  ECLIPA    H16S           -2.7211944628       29.9656745097        6.6482912824  LPSA18    1               0.0000000000
     19142       613  ECLIPA    C17            -1.7310306394       29.7970748083        4.7018909575  LPSA18    1               0.0000000000
     19143       613  ECLIPA    H17R           -0.6641945616       29.7968808618        4.3902746631  LPSA18    1               0.0000000000
     19144       613  ECLIPA    H17S           -2.2702908574       30.5268254987        4.0623315074  LPSA18    1               0.0000000000
     19145       613  ECLIPA    C18            -2.3238321536       28.4078341583        4.4699469745  LPSA18    1               0.0000000000
     19146       613  ECLIPA    H18R           -1.7457247663       27.6981433807        5.0960296862  LPSA18    1               0.0000000000
     19147       613  ECLIPA    H18S           -3.3909367451       28.3933464751        4.7886479966  LPSA18    1               0.0000000000
     19148       613  ECLIPA    C19            -2.2326684737       27.9563016389        3.0182249142  LPSA18    1               0.0000000000
     19149       613  ECLIPA    H19R           -2.5242121449       26.8858230035        2.9353637951  LPSA18    1               0.0000000000
     19150       613  ECLIPA    H19S           -1.1838563172       28.0621179252        2.6510308433  LPSA18    1               0.0000000000
     19151       613  ECLIPA    C110           -3.1356287618       28.7787454696        2.1122622635  LPSA18    1               0.0000000000
     19152       613  ECLIPA    H110R          -4.1945471566       28.7905389976        2.4612319415  LPSA18    1               0.0000000000
     19153       613  ECLIPA    H110S          -2.7519934391       29.8203127752        2.1137989762  LPSA18    1               0.0000000000
     19154       613  ECLIPA    C111           -3.0954123576       28.2097408964        0.7045832762  LPSA18    1               0.0000000000
     19155       613  ECLIPA    H111R          -2.0414069665       28.0452670699        0.3878932769  LPSA18    1               0.0000000000
     19156       613  ECLIPA    H111S          -3.5839911343       27.2097668025        0.7586928296  LPSA18    1               0.0000000000
     19157       613  ECLIPA    C112           -3.8603469420       29.0940998646       -0.2846643692  LPSA18    1               0.0000000000
     19158       613  ECLIPA    H112R          -4.9133738314       29.0506857286        0.0685273334  LPSA18    1               0.0000000000
     19159       613  ECLIPA    H112S          -3.5466659381       30.1549046007       -0.2042583168  LPSA18    1               0.0000000000
     19160       613  ECLIPA    C113           -3.6149836409       28.6334303600       -1.7307866416  LPSA18    1               0.0000000000
     19161       613  ECLIPA    H113R          -2.5505695815       28.8648120977       -1.9832196171  LPSA18    1               0.0000000000
     19162       613  ECLIPA    H113S          -3.7042773823       27.5381122874       -1.7492305123  LPSA18    1               0.0000000000
     19163       613  ECLIPA    C114           -4.5217960136       29.1468699019       -2.8539475583  LPSA18    1               0.0000000000
     19164       613  ECLIPA    H114R          -5.6048673594       29.0036734521       -2.6722813044  LPSA18    1               0.0000000000
     19165       613  ECLIPA    H114S          -4.3288432950       30.2205122726       -3.0269355019  LPSA18    1               0.0000000000
     19166       613  ECLIPA    H114T          -4.3049083499       28.5609487051       -3.7762956789  LPSA18    1               0.0000000000
     19167       614  AKDO      C1             -4.0468594354       35.1987863611       22.4168993353  LPSA18    2               0.0000000000
     19168       614  AKDO      O11            -4.8348777965       36.1764037612       22.4421803808  LPSA18    2               0.0000000000
     19169       614  AKDO      O12            -2.8325881882       35.2219574627       22.0785742673  LPSA18    2               0.0000000000
     19170       614  AKDO      C2             -4.5896676204       33.8171338346       22.8776167498  LPSA18    2               0.0000000000
     19171       614  AKDO      C6             -6.4920050121       32.7091466467       23.8594143369  LPSA18    2               0.0000000000
     19172       614  AKDO      H6             -6.4721780110       32.0571468211       22.9485803244  LPSA18    2               0.0000000000
     19173       614  AKDO      O6             -5.9068301078       33.9629234725       23.4687307483  LPSA18    2               0.0000000000
     19174       614  AKDO      C3             -3.7063207547       33.1301068522       23.9272858500  LPSA18    2               0.0000000000
     19175       614  AKDO      H31            -3.5434979575       33.8180965680       24.7858035981  LPSA18    2               0.0000000000
     19176       614  AKDO      H32            -2.7228626168       32.9189819518       23.4488473005  LPSA18    2               0.0000000000
     19177       614  AKDO      C4             -4.2864698439       31.8215384912       24.3693924484  LPSA18    2               0.0000000000
     19178       614  AKDO      H4             -4.4393634096       31.1691035849       23.4793280708  LPSA18    2               0.0000000000
     19179       614  AKDO      O4             -3.4801680585       31.1848787659       25.3685931241  LPSA18    2               0.0000000000
     19180       614  AKDO      C5             -5.6587547424       32.0188794337       24.9576908169  LPSA18    2               0.0000000000
     19181       614  AKDO      H5             -6.1063798865       31.0008255260       25.0809214718  LPSA18    2               0.0000000000
     19182       614  AKDO      O5             -5.4970150604       32.6853492935       26.2510168208  LPSA18    2               0.0000000000
     19183       614  AKDO      C7             -7.9719696445       32.8786520151       24.1649499912  LPSA18    2               0.0000000000
     19184       614  AKDO      H7             -8.0691064260       33.5026512350       25.0755680503  LPSA18    2               0.0000000000
     19185       614  AKDO      O7             -8.5804474513       31.5953781042       24.3737219456  LPSA18    2               0.0000000000
     19186       614  AKDO      HO7            -8.8218882848       31.2748096340       23.4993463047  LPSA18    2               0.0000000000
     19187       614  AKDO      C8             -8.6794492340       33.5883541739       23.0267436764  LPSA18    2               0.0000000000
     19188       614  AKDO      H81            -8.1546354101       34.5639127985       22.8584948704  LPSA18    2               0.0000000000
     19189       614  AKDO      H82            -8.5708440833       32.9864650080       22.0919862449  LPSA18    2               0.0000000000
     19190       614  AKDO      O8            -10.0745795226       33.8351687782       23.3278655580  LPSA18    2               0.0000000000
     19191       614  AKDO      HO8           -10.2694079394       34.6722079094       22.8781573251  LPSA18    2               0.0000000000
     19192       615  AKDO      C1             -2.6466363868       29.5418286833       23.7903934041  LPSA18    3               1.0000000000
     19193       615  AKDO      O11            -2.2725783810       29.9535063424       22.6600726742  LPSA18    3               1.0000000000
     19194       615  AKDO      O12            -3.3266831329       28.5146289055       24.0589892555  LPSA18    3               1.0000000000
     19195       615  AKDO      C2             -2.3250949053       30.4547705907       25.0085243063  LPSA18    3               1.0000000000
     19196       615  AKDO      C6             -0.8862773113       32.2355357604       25.7771528067  LPSA18    3               1.0000000000
     19197       615  AKDO      H6             -1.7678455260       32.8946231625       25.9762037139  LPSA18    3               1.0000000000
     19198       615  AKDO      O6             -1.1910980971       31.3100610980       24.7149568441  LPSA18    3               1.0000000000
     19199       615  AKDO      C3             -2.0020918301       29.7013783568       26.3177296138  LPSA18    3               1.0000000000
     19200       615  AKDO      H31            -1.1169056390       29.0460229218       26.1520899887  LPSA18    3               1.0000000000
     19201       615  AKDO      H32            -2.8366163415       29.0244306837       26.5904635638  LPSA18    3               1.0000000000
     19202       615  AKDO      C4             -1.7365954357       30.6846374249       27.4213310595  LPSA18    3               1.0000000000
     19203       615  AKDO      H4             -2.5939201974       31.3948128816       27.4798336403  LPSA18    3               1.0000000000
     19204       615  AKDO      O4             -1.5823872971       30.0998949359       28.7024453710  LPSA18    3               1.0000000000
     19205       615  AKDO      HO4            -2.2095683127       30.4782922638       29.3415632699  LPSA18    3               1.0000000000
     19206       615  AKDO      C5             -0.5405043718       31.4825100459       27.0362822168  LPSA18    3               1.0000000000
     19207       615  AKDO      H5             -0.3918865044       32.2230913135       27.8424952505  LPSA18    3               1.0000000000
     19208       615  AKDO      O5              0.6252840471       30.6681892248       26.8650775247  LPSA18    3               1.0000000000
     19209       615  AKDO      HO5             0.4078036633       30.0318504573       26.1779023323  LPSA18    3               1.0000000000
     19210       615  AKDO      C7              0.2434388622       33.1190369838       25.3371481421  LPSA18    3               1.0000000000
     19211       615  AKDO      H7              1.1150987159       32.4696903401       25.1002022572  LPSA18    3               1.0000000000
     19212       615  AKDO      O7              0.6070647356       34.0169111484       26.3918623480  LPSA18    3               1.0000000000
     19213       615  AKDO      HO7             1.3611747245       34.5423651926       26.1135650249  LPSA18    3               1.0000000000
     19214       615  AKDO      C8             -0.1808420288       33.8812003948       24.1105829638  LPSA18    3               1.0000000000
     19215       615  AKDO      H81            -0.5191820177       33.1689027363       23.3282990843  LPSA18    3               1.0000000000
     19216       615  AKDO      H82            -1.0220120965       34.5708135917       24.3275968896  LPSA18    3               1.0000000000
     19217       615  AKDO      O8              0.9266644181       34.5984228893       23.5854068971  LPSA18    3               1.0000000000
     19218       615  AKDO      HO8             1.4856361476       33.9072316350       23.2371661183  LPSA18    3               1.0000000000
     19219       616  AHEP      C1             -6.4585761691       32.3749800422       27.2469368879  LPSA18    4               2.0000000000
     19220       616  AHEP      H1             -7.3646884980       32.9186445419       26.9064241195  LPSA18    4               2.0000000000
     19221       616  AHEP      C5             -5.8936172056       30.1504977226       28.0018130479  LPSA18    4               2.0000000000
     19222       616  AHEP      H5             -4.9027894269       30.3240338292       27.5168001774  LPSA18    4               2.0000000000
     19223       616  AHEP      O5             -6.8422393204       30.9956916307       27.3072849158  LPSA18    4               2.0000000000
     19224       616  AHEP      C2             -6.2697769210       32.8596632163       28.6999630187  LPSA18    4               2.0000000000
     19225       616  AHEP      H2             -5.9101727842       33.9108238488       28.6768130032  LPSA18    4               2.0000000000
     19226       616  AHEP      O2             -7.5319989191       32.9042616354       29.3542281163  LPSA18    4               2.0000000000
     19227       616  AHEP      HO2            -7.5519557176       33.6944145762       29.8869460446  LPSA18    4               2.0000000000
     19228       616  AHEP      C3             -5.2650539371       32.0441910800       29.4984489704  LPSA18    4               2.0000000000
     19229       616  AHEP      H3             -4.2344153702       32.1459823932       29.0942414097  LPSA18    4               2.0000000000
     19230       616  AHEP      O3             -5.2773153487       32.4710317671       30.8815566859  LPSA18    4               2.0000000000
     19231       616  AHEP      C4             -5.7389985161       30.6027537280       29.4619891794  LPSA18    4               2.0000000000
     19232       616  AHEP      H4             -6.7206332242       30.4668863098       29.9719541611  LPSA18    4               2.0000000000
     19233       616  AHEP      O4             -4.7149301102       29.8325820456       30.0810710115  LPSA18    4               2.0000000000
     19234       616  AHEP      P4             -4.9458557414       29.0144625250       31.5157622702  LPSA18    4               2.0000000000
     19235       616  AHEP      OP42           -3.5450498309       29.0913540961       32.1280923681  LPSA18    4               2.0000000000
     19236       616  AHEP      OP43           -5.3735255968       27.5987459086       31.0724095937  LPSA18    4               2.0000000000
     19237       616  AHEP      OP44           -5.9853017755       29.8012332060       32.3180040307  LPSA18    4               2.0000000000
     19238       616  AHEP      C6             -6.2974588868       28.6628930086       27.8023124905  LPSA18    4               2.0000000000
     19239       616  AHEP      H6             -5.3927425892       28.0715537275       28.0861997248  LPSA18    4               2.0000000000
     19240       616  AHEP      O6             -7.3887394417       28.1762402580       28.6217110766  LPSA18    4               2.0000000000
     19241       616  AHEP      HO6            -7.0536498517       27.6142267233       29.3344719723  LPSA18    4               2.0000000000
     19242       616  AHEP      C7             -6.6542199858       28.3187889544       26.3433121098  LPSA18    4               2.0000000000
     19243       616  AHEP      H71            -6.6572496277       27.2230352945       26.2053258139  LPSA18    4               2.0000000000
     19244       616  AHEP      H72            -5.8956394781       28.7429073220       25.6556808450  LPSA18    4               2.0000000000
     19245       616  AHEP      O7             -7.9284414609       28.7790773262       25.8765440818  LPSA18    4               2.0000000000
     19246       616  AHEP      HO7            -8.5589870413       28.2587171944       26.3800253488  LPSA18    4               2.0000000000
     19247       617  AHEP      C1             -4.0779680801       32.9235662815       31.4623870551  LPSA18    5               3.0000000000
     19248       617  AHEP      H1             -3.1999381480       32.4302064327       30.9806666269  LPSA18    5               3.0000000000
     19249       617  AHEP      C5             -5.0617736238       35.0388371372       31.9706955073  LPSA18    5               3.0000000000
     19250       617  AHEP      H5             -6.0212323966       34.6074200849       31.5970772483  LPSA18    5               3.0000000000
     19251       617  AHEP      O5             -3.9779182894       34.3480180023       31.3048901814  LPSA18    5               3.0000000000
     19252       617  AHEP      C2             -4.0304346671       32.6103878647       32.9637749764  LPSA18    5               3.0000000000
     19253       617  AHEP      H2             -4.1838662474       31.5128282143       33.0845902661  LPSA18    5               3.0000000000
     19254       617  AHEP      O2             -2.7268645346       32.9282585410       33.4889107446  LPSA18    5               3.0000000000
     19255       617  AHEP      HO2            -2.2324755561       32.1129521803       33.5993481496  LPSA18    5               3.0000000000
     19256       617  AHEP      C3             -5.1563740437       33.3138439950       33.7283709455  LPSA18    5               3.0000000000
     19257       617  AHEP      H3             -6.1309651779       32.9622871261       33.3125628960  LPSA18    5               3.0000000000
     19258       617  AHEP      O3             -5.1485649930       33.1018383745       35.1599785994  LPSA18    5               3.0000000000
     19259       617  AHEP      C4             -5.0153465333       34.7945656070       33.4685440511  LPSA18    5               3.0000000000
     19260       617  AHEP      H4             -4.0322947073       35.1692615968       33.8475831707  LPSA18    5               3.0000000000
     19261       617  AHEP      O4             -6.1295758818       35.4770897380       34.0486974371  LPSA18    5               3.0000000000
     19262       617  AHEP      P4             -5.8976328682       36.5515598043       35.2968476565  LPSA18    5               3.0000000000
     19263       617  AHEP      OP42           -7.3257511464       36.7824959215       35.8164559394  LPSA18    5               3.0000000000
     19264       617  AHEP      OP43           -5.1861473718       37.7561072657       34.6742667959  LPSA18    5               3.0000000000
     19265       617  AHEP      OP44           -5.0031727802       35.8279465659       36.2976524851  LPSA18    5               3.0000000000
     19266       617  AHEP      C6             -5.0485636476       36.5097717360       31.6064135977  LPSA18    5               3.0000000000
     19267       617  AHEP      H6             -5.9459536363       37.0097867853       32.0626240030  LPSA18    5               3.0000000000
     19268       617  AHEP      O6             -3.8361132057       37.1488874743       32.0676077694  LPSA18    5               3.0000000000
     19269       617  AHEP      HO6            -3.1231156274       37.0046397532       31.4619496221  LPSA18    5               3.0000000000
     19270       617  AHEP      C7             -5.2161478672       36.6626894227       30.1275090812  LPSA18    5               3.0000000000
     19271       617  AHEP      H71            -5.7830049213       37.5912475127       30.0909985480  LPSA18    5               3.0000000000
     19272       617  AHEP      H72            -5.8332628612       35.8783962114       29.6274178640  LPSA18    5               3.0000000000
     19273       617  AHEP      O7             -3.9922399315       36.9404110493       29.4720676759  LPSA18    5               3.0000000000
     19274       618  AHEP      C1             -3.5177320912       35.8009635392       28.8563332117  LPSA18    6               4.0000000000
     19275       618  AHEP      H1             -4.0748551655       34.8918290026       29.1033661496  LPSA18    6               4.0000000000
     19276       618  AHEP      C5             -2.9225245156       36.9006478295       26.9320610618  LPSA18    6               4.0000000000
     19277       618  AHEP      H5             -3.3291126254       37.7912983181       27.5016974584  LPSA18    6               4.0000000000
     19278       618  AHEP      O5             -3.6925161566       35.8568897726       27.4542995882  LPSA18    6               4.0000000000
     19279       618  AHEP      C2             -2.1141194550       35.5740800060       29.3476634315  LPSA18    6               4.0000000000
     19280       618  AHEP      H2             -2.0769018903       35.4850832058       30.4424250660  LPSA18    6               4.0000000000
     19281       618  AHEP      O2             -1.6462137840       34.3617001461       28.7853507780  LPSA18    6               4.0000000000
     19282       618  AHEP      HO2            -1.3683052082       33.7861471242       29.4947521940  LPSA18    6               4.0000000000
     19283       618  AHEP      C3             -1.2149886502       36.6287147655       28.9906105506  LPSA18    6               4.0000000000
     19284       618  AHEP      H3             -1.6114126936       37.6409401477       29.3385667220  LPSA18    6               4.0000000000
     19285       618  AHEP      O3              0.1383411477       36.5174454120       29.5989277275  LPSA18    6               4.0000000000
     19286       618  AHEP      HO3             0.4686107875       37.3033960010       30.0531462587  LPSA18    6               4.0000000000
     19287       618  AHEP      C4             -1.4339004255       36.5402584435       27.4898096638  LPSA18    6               4.0000000000
     19288       618  AHEP      H4             -1.0734319208       35.7596493982       26.8337755379  LPSA18    6               4.0000000000
     19289       618  AHEP      O4             -0.2650475844       36.9667800295       27.1427626986  LPSA18    6               4.0000000000
     19290       618  AHEP      HO4            -0.4873493351       37.8870052048       27.3997550497  LPSA18    6               4.0000000000
     19291       618  AHEP      C6             -3.1793613475       37.3622328443       25.4492728091  LPSA18    6               4.0000000000
     19292       618  AHEP      H6             -2.8281900846       38.3547369131       25.0680747031  LPSA18    6               4.0000000000
     19293       618  AHEP      O6             -2.4350869548       36.5491610364       24.5900641520  LPSA18    6               4.0000000000
     19294       618  AHEP      HO6            -3.0255833479       36.2382783288       23.8877258841  LPSA18    6               4.0000000000
     19295       618  AHEP      C7             -4.6151333058       37.6963226557       25.1491328995  LPSA18    6               4.0000000000
     19296       618  AHEP      H71            -4.6976595294       38.1541374444       24.1235268559  LPSA18    6               4.0000000000
     19297       618  AHEP      H72            -4.9200470621       38.4512077949       25.9177527311  LPSA18    6               4.0000000000
     19298       618  AHEP      O7             -5.4577106341       36.5729158789       25.2956957257  LPSA18    6               4.0000000000
     19299       618  AHEP      HO7            -5.5175736579       36.4265387267       26.2350064854  LPSA18    6               4.0000000000
     19300       619  AGLC      C1             -5.9344070156       32.0479444878       35.6528596639  LPSA18    7               4.0000000000
     19301       619  AGLC      H1             -6.9279161550       32.0222001751       35.1546681048  LPSA18    7               4.0000000000
     19302       619  AGLC      C5             -4.0012890923       30.7076291571       36.0961769110  LPSA18    7               4.0000000000
     19303       619  AGLC      H5             -3.3571314913       31.5763021595       35.8165078484  LPSA18    7               4.0000000000
     19304       619  AGLC      O5             -5.2715598332       30.8067171656       35.4327117740  LPSA18    7               4.0000000000
     19305       619  AGLC      C2             -6.1846451900       32.0986511577       37.1650227694  LPSA18    7               4.0000000000
     19306       619  AGLC      H2             -6.6804264316       31.1400829679       37.4272185487  LPSA18    7               4.0000000000
     19307       619  AGLC      O2             -7.0994397462       33.1149512488       37.5647445694  LPSA18    7               4.0000000000
     19308       619  AGLC      HO2            -6.6077295785       33.9636944869       37.5572279767  LPSA18    7               4.0000000000
     19309       619  AGLC      C3             -4.9080756330       32.0935889018       37.9681978959  LPSA18    7               4.0000000000
     19310       619  AGLC      H3             -4.2853853127       32.9434980749       37.6109802102  LPSA18    7               4.0000000000
     19311       619  AGLC      O3             -5.1519881734       32.2637998210       39.3928442804  LPSA18    7               4.0000000000
     19312       619  AGLC      C4             -4.2098135395       30.7803804593       37.6102664150  LPSA18    7               4.0000000000
     19313       619  AGLC      H4             -4.8607002604       29.9212172519       37.9284787804  LPSA18    7               4.0000000000
     19314       619  AGLC      O4             -2.9335188481       30.7233434532       38.2510586142  LPSA18    7               4.0000000000
     19315       619  AGLC      HO4            -2.7662349207       29.8616508085       38.6547034334  LPSA18    7               4.0000000000
     19316       619  AGLC      C6             -3.3090841232       29.4824601493       35.5131848172  LPSA18    7               4.0000000000
     19317       619  AGLC      H61            -3.2241181919       29.6308712382       34.4082636372  LPSA18    7               4.0000000000
     19318       619  AGLC      H62            -2.2722197922       29.3620449854       35.9011509182  LPSA18    7               4.0000000000
     19319       619  AGLC      O6             -4.0283616246       28.2731354056       35.7618651584  LPSA18    7               4.0000000000
     19320       619  AGLC      HO6            -3.6649254735       27.8821257685       36.5432132191  LPSA18    7               4.0000000000
     19321       620  AGLC      C1             -4.5223215562       33.4297421162       39.9170514834  LPSA18    8               5.0000000000
     19322       620  AGLC      H1             -3.4885897210       33.5274079233       39.5075460578  LPSA18    8               5.0000000000
     19323       620  AGLC      C5             -6.5240602084       34.8153706413       40.2172841782  LPSA18    8               5.0000000000
     19324       620  AGLC      H5             -7.1357247757       33.9536477504       39.8904756041  LPSA18    8               5.0000000000
     19325       620  AGLC      O5             -5.2355564313       34.6444305586       39.5826636588  LPSA18    8               5.0000000000
     19326       620  AGLC      C2             -4.3458300513       33.3931875986       41.4348246175  LPSA18    8               5.0000000000
     19327       620  AGLC      H2             -3.7678977363       34.3062999115       41.6982142970  LPSA18    8               5.0000000000
     19328       620  AGLC      O2             -3.6076011638       32.2791937362       41.9588624829  LPSA18    8               5.0000000000
     19329       620  AGLC      C3             -5.6767149758       33.4579047903       42.1274437328  LPSA18    8               5.0000000000
     19330       620  AGLC      H3             -6.2689201541       32.5961323023       41.7196129278  LPSA18    8               5.0000000000
     19331       620  AGLC      O3             -5.4701026432       33.2381293050       43.5426642397  LPSA18    8               5.0000000000
     19332       620  AGLC      C4             -6.3387762332       34.7624623249       41.7351824003  LPSA18    8               5.0000000000
     19333       620  AGLC      H4             -5.6653699098       35.6012973159       42.0339863737  LPSA18    8               5.0000000000
     19334       620  AGLC      O4             -7.5858028567       34.9072145971       42.4111806382  LPSA18    8               5.0000000000
     19335       620  AGLC      HO4            -8.0249972792       34.0666680952       42.3615930509  LPSA18    8               5.0000000000
     19336       620  AGLC      C6             -7.3120977802       36.0581400927       39.7335289157  LPSA18    8               5.0000000000
     19337       620  AGLC      H61            -7.2800289913       36.1615201440       38.6250571756  LPSA18    8               5.0000000000
     19338       620  AGLC      H62            -8.3851712248       35.9648655898       40.0206275884  LPSA18    8               5.0000000000
     19339       620  AGLC      O6             -6.8869893774       37.2867867586       40.3092296557  LPSA18    8               5.0000000000
     19340       620  AGLC      HO6            -7.2592456865       37.3415925143       41.1852030879  LPSA18    8               5.0000000000
     19341       621  AGAL      C1             -2.3276039834       32.0443626847       41.4347989565  LPSA18    9               6.0000000000
     19342       621  AGAL      H1             -2.3311234437       32.0773658220       40.3285036838  LPSA18    9               6.0000000000
     19343       621  AGAL      C5             -1.1355517194       32.9509245102       43.2752330253  LPSA18    9               6.0000000000
     19344       621  AGAL      H5             -2.1477860839       33.0173025310       43.7280275207  LPSA18    9               6.0000000000
     19345       621  AGAL      O5             -1.3500721267       33.0086855917       41.8551976552  LPSA18    9               6.0000000000
     19346       621  AGAL      C2             -1.9158035891       30.6384548700       41.8447653500  LPSA18    9               6.0000000000
     19347       621  AGAL      H2             -0.9359522520       30.4864197458       41.3714074252  LPSA18    9               6.0000000000
     19348       621  AGAL      O2             -2.8389812418       29.7177106590       41.2093182960  LPSA18    9               6.0000000000
     19349       621  AGAL      C3             -1.6852501411       30.5459546003       43.3411385594  LPSA18    9               6.0000000000
     19350       621  AGAL      H3             -2.6259187985       30.7831417793       43.8881005065  LPSA18    9               6.0000000000
     19351       621  AGAL      O3             -1.3392249100       29.2314864847       43.7590528122  LPSA18    9               6.0000000000
     19352       621  AGAL      HO3            -1.8542335887       28.6685585113       43.1707835870  LPSA18    9               6.0000000000
     19353       621  AGAL      C4             -0.6069608078       31.5749147608       43.6749721004  LPSA18    9               6.0000000000
     19354       621  AGAL      H4             -0.3635345757       31.5355506140       44.7438505437  LPSA18    9               6.0000000000
     19355       621  AGAL      O4              0.6305059584       31.3019877648       43.0460894174  LPSA18    9               6.0000000000
     19356       621  AGAL      HO4             1.3419057747       31.6710386841       43.5911161883  LPSA18    9               6.0000000000
     19357       621  AGAL      C6             -0.3850756281       34.1485591682       43.8254507789  LPSA18    9               6.0000000000
     19358       621  AGAL      H61            -0.9570376869       35.0768830006       43.5931434677  LPSA18    9               6.0000000000
     19359       621  AGAL      H62            -0.3141269766       34.1292572332       44.9308325906  LPSA18    9               6.0000000000
     19360       621  AGAL      O6              0.9478966425       34.2649131390       43.3395684809  LPSA18    9               6.0000000000
     19361       621  AGAL      HO6             0.9530511774       34.9432379290       42.6606876119  LPSA18    9               6.0000000000
     19362       622  AGAL      C1             -3.3362898126       28.5091809967       41.7521413356  LPSA18    10              7.0000000000
     19363       622  AGAL      H1             -2.5030582829       27.7710329731       41.8233074875  LPSA18    10              7.0000000000
     19364       622  AGAL      C5             -5.1496545423       29.4606225679       43.0498750115  LPSA18    10              7.0000000000
     19365       622  AGAL      H5             -4.7969163429       30.4377575985       42.6494332533  LPSA18    10              7.0000000000
     19366       622  AGAL      O5             -3.9827511153       28.5999432754       43.0518616795  LPSA18    10              7.0000000000
     19367       622  AGAL      C2             -4.3513698883       27.9905190662       40.7491271238  LPSA18    10              7.0000000000
     19368       622  AGAL      H2             -4.7321431391       27.0270637146       41.1191325878  LPSA18    10              7.0000000000
     19369       622  AGAL      O2             -3.7853840440       27.6813442907       39.4748151732  LPSA18    10              7.0000000000
     19370       622  AGAL      HO2            -4.0236490344       26.7706554990       39.2681575441  LPSA18    10              7.0000000000
     19371       622  AGAL      C3             -5.5608996086       28.9059687751       40.6974122934  LPSA18    10              7.0000000000
     19372       622  AGAL      H3             -5.2013559939       29.9283120899       40.4413091453  LPSA18    10              7.0000000000
     19373       622  AGAL      O3             -6.4891741814       28.4915784042       39.7012858720  LPSA18    10              7.0000000000
     19374       622  AGAL      HO3            -6.5264693945       29.1480922788       39.0021158520  LPSA18    10              7.0000000000
     19375       622  AGAL      C4             -6.1954862699       28.9419198184       42.0730535878  LPSA18    10              7.0000000000
     19376       622  AGAL      H4             -7.0510316524       29.6573176356       42.0815389223  LPSA18    10              7.0000000000
     19377       622  AGAL      O4             -6.6780709815       27.6498420764       42.4422271049  LPSA18    10              7.0000000000
     19378       622  AGAL      HO4            -5.9218579323       27.1080080552       42.6326125888  LPSA18    10              7.0000000000
     19379       622  AGAL      C6             -5.7216754785       29.8233058812       44.4306139363  LPSA18    10              7.0000000000
     19380       622  AGAL      H61            -4.9049979208       30.1478416057       45.1011477824  LPSA18    10              7.0000000000
     19381       622  AGAL      H62            -6.4058508809       30.6972426502       44.2772149949  LPSA18    10              7.0000000000
     19382       622  AGAL      O6             -6.4527107588       28.7954280541       45.1114485795  LPSA18    10              7.0000000000
     19383       622  AGAL      HO6            -6.0273696484       28.5333629241       45.9374191419  LPSA18    10              7.0000000000
     19384       623  BGLC      C1             -5.3469623631       34.3037617456       44.4863506894  LPSA18    11              6.0000000000
     19385       623  BGLC      H1             -6.3315551662       34.7920188979       44.6091619974  LPSA18    11              6.0000000000
     19386       623  BGLC      C5             -4.1087541367       36.2841798061       45.1523625774  LPSA18    11              6.0000000000
     19387       623  BGLC      H5             -5.0501316691       36.8474719278       45.3922385328  LPSA18    11              6.0000000000
     19388       623  BGLC      O5             -4.3097697860       35.2490860544       44.1385843209  LPSA18    11              6.0000000000
     19389       623  BGLC      C2             -4.9256111542       33.6372711419       45.7915021661  LPSA18    11              6.0000000000
     19390       623  BGLC      H2             -3.9771251848       33.0830789788       45.6377419020  LPSA18    11              6.0000000000
     19391       623  BGLC      O2             -5.9034289320       32.6785567288       46.1851774969  LPSA18    11              6.0000000000
     19392       623  BGLC      HO2            -5.4713749016       31.8293597727       46.2956182828  LPSA18    11              6.0000000000
     19393       623  BGLC      C3             -4.6741636594       34.6214318973       46.9138058428  LPSA18    11              6.0000000000
     19394       623  BGLC      H3             -5.5940056943       35.1394979631       47.2087240914  LPSA18    11              6.0000000000
     19395       623  BGLC      O3             -4.1052377909       33.9469211782       48.0568197722  LPSA18    11              6.0000000000
     19396       623  BGLC      C4             -3.6320032323       35.6024218451       46.4282242113  LPSA18    11              6.0000000000
     19397       623  BGLC      H4             -2.7078470235       35.0473498651       46.1694094562  LPSA18    11              6.0000000000
     19398       623  BGLC      O4             -3.2552396213       36.5252234169       47.4382498485  LPSA18    11              6.0000000000
     19399       623  BGLC      HO4            -2.8462853866       36.0367795359       48.1577363635  LPSA18    11              6.0000000000
     19400       623  BGLC      C6             -3.1858969060       37.2994604436       44.5499830827  LPSA18    11              6.0000000000
     19401       623  BGLC      H61            -2.6689693979       37.9710106327       45.2777755487  LPSA18    11              6.0000000000
     19402       623  BGLC      H62            -2.4256294243       36.7803380025       43.9435282821  LPSA18    11              6.0000000000
     19403       623  BGLC      O6             -3.9548469252       38.1162372329       43.6912344146  LPSA18    11              6.0000000000
     19404       623  BGLC      HO6            -3.7752866510       39.0370025193       43.9310542379  LPSA18    11              6.0000000000
     19405       624  BGLCNA    C1             -4.7531980477       34.0645040456       49.3130636708  LPSA18    12              7.0000000000
     19406       624  BGLCNA    H1             -5.6061581318       33.3546228931       49.3663643098  LPSA18    12              7.0000000000
     19407       624  BGLCNA    C5             -5.8540185802       35.4877933144       50.8731470227  LPSA18    12              7.0000000000
     19408       624  BGLCNA    H5             -6.7132648808       34.7806435599       50.9557715719  LPSA18    12              7.0000000000
     19409       624  BGLCNA    O5             -5.2301533562       35.3752195775       49.5767082199  LPSA18    12              7.0000000000
     19410       624  BGLCNA    C2             -3.6966749339       33.7102209435       50.3484605025  LPSA18    12              7.0000000000
     19411       624  BGLCNA    H2             -2.9296402068       34.5319191172       50.3024871628  LPSA18    12              7.0000000000
     19412       624  BGLCNA    N              -3.1393884837       32.4147844629       50.0367562046  LPSA18    12              7.0000000000
     19413       624  BGLCNA    HN             -3.7972301877       31.6776568227       49.9555762627  LPSA18    12              7.0000000000
     19414       624  BGLCNA    C              -1.8303618937       32.2139230728       49.8974013388  LPSA18    12              7.0000000000
     19415       624  BGLCNA    O              -1.0328932810       33.1226770526       50.0462245670  LPSA18    12              7.0000000000
     19416       624  BGLCNA    CT             -1.3649763813       30.8282569109       49.5417932325  LPSA18    12              7.0000000000
     19417       624  BGLCNA    HT1            -0.8439244888       30.3736954134       50.4098204115  LPSA18    12              7.0000000000
     19418       624  BGLCNA    HT2            -0.6294455948       30.8768085937       48.7125808001  LPSA18    12              7.0000000000
     19419       624  BGLCNA    HT3            -2.2389130787       30.2142273588       49.2424491937  LPSA18    12              7.0000000000
     19420       624  BGLCNA    C3             -4.2574564752       33.7369101822       51.7544377196  LPSA18    12              7.0000000000
     19421       624  BGLCNA    H3             -5.0800045383       32.9872004051       51.8031631500  LPSA18    12              7.0000000000
     19422       624  BGLCNA    O3             -3.2704023343       33.3556629740       52.7611698178  LPSA18    12              7.0000000000
     19423       624  BGLCNA    C4             -4.8118249624       35.1385496553       51.9491707560  LPSA18    12              7.0000000000
     19424       624  BGLCNA    H4             -3.9973181553       35.9000522600       51.8916546009  LPSA18    12              7.0000000000
     19425       624  BGLCNA    O4             -5.3576989790       35.2299681777       53.2431907987  LPSA18    12              7.0000000000
     19426       624  BGLCNA    HO4            -6.2328254559       34.8498782675       53.2897375402  LPSA18    12              7.0000000000
     19427       624  BGLCNA    C6             -6.4191800035       36.8948938486       50.9302090090  LPSA18    12              7.0000000000
     19428       624  BGLCNA    H61            -6.9048118537       37.0943101357       51.9129696237  LPSA18    12              7.0000000000
     19429       624  BGLCNA    H62            -5.5824018329       37.6191106317       50.8245835724  LPSA18    12              7.0000000000
     19430       624  BGLCNA    O6             -7.3785132271       37.1191725354       49.8822113141  LPSA18    12              7.0000000000
     19431       624  BGLCNA    HO6            -8.2399703997       36.8996324303       50.2267905466  LPSA18    12              7.0000000000
     19432       625  AGAL      C1             -3.7577237006       32.5459134845       53.8320445139  LPSA18    13              8.0000000000
     19433       625  AGAL      H1             -4.7625079272       32.9161176758       54.1509118719  LPSA18    13              8.0000000000
     19434       625  AGAL      C5             -2.4973858582       30.5742455090       53.2696189409  LPSA18    13              8.0000000000
     19435       625  AGAL      H5             -1.9938824254       31.2585424663       52.5477591545  LPSA18    13              8.0000000000
     19436       625  AGAL      O5             -3.8188052194       31.1468097670       53.4570613554  LPSA18    13              8.0000000000
     19437       625  AGAL      C2             -2.9069357992       32.5905882751       55.1067134730  LPSA18    13              8.0000000000
     19438       625  AGAL      H2             -3.3575230737       31.8477776255       55.8022426617  LPSA18    13              8.0000000000
     19439       625  AGAL      O2             -2.9772705201       33.8710095720       55.7568392785  LPSA18    13              8.0000000000
     19440       625  AGAL      C3             -1.5101575249       32.0469077321       54.9016935477  LPSA18    13              8.0000000000
     19441       625  AGAL      H3             -1.0488005311       32.5700902955       54.0280537522  LPSA18    13              8.0000000000
     19442       625  AGAL      O3             -0.6646365498       32.2590107374       56.0238558024  LPSA18    13              8.0000000000
     19443       625  AGAL      HO3             0.2096765616       32.4668763499       55.6839545420  LPSA18    13              8.0000000000
     19444       625  AGAL      C4             -1.6301465987       30.5947628136       54.5319297450  LPSA18    13              8.0000000000
     19445       625  AGAL      H4             -0.6197972472       30.2242864502       54.2637960089  LPSA18    13              8.0000000000
     19446       625  AGAL      O4             -2.0901211137       29.7713563715       55.6163031983  LPSA18    13              8.0000000000
     19447       625  AGAL      HO4            -2.8824241548       30.1539305452       56.0098420174  LPSA18    13              8.0000000000
     19448       625  AGAL      C6             -2.4576736682       29.2413077836       52.5505825575  LPSA18    13              8.0000000000
     19449       625  AGAL      H61            -3.0372342292       29.3236052311       51.6067182872  LPSA18    13              8.0000000000
     19450       625  AGAL      H62            -1.3940591992       29.0143054451       52.3032407508  LPSA18    13              8.0000000000
     19451       625  AGAL      O6             -2.9593111973       28.1523129028       53.3138208989  LPSA18    13              8.0000000000
     19452       625  AGAL      HO6            -2.3001633153       27.9044416904       53.9734771787  LPSA18    13              8.0000000000
     19453       626  ARHM      C1             -3.6479211129       33.9158320893       57.0053955584  LPSA18    14              9.0000000000
     19454       626  ARHM      H1             -4.4245558870       33.1178852676       57.0353331856  LPSA18    14              9.0000000000
     19455       626  ARHM      C5             -3.4289604189       36.2772895569       57.1802765750  LPSA18    14              9.0000000000
     19456       626  ARHM      H5             -2.8952370376       36.2531979582       56.2033580469  LPSA18    14              9.0000000000
     19457       626  ARHM      O5             -4.3282509350       35.1594096122       57.2065209887  LPSA18    14              9.0000000000
     19458       626  ARHM      C2             -2.6369919101       33.7185545430       58.1113957110  LPSA18    14              9.0000000000
     19459       626  ARHM      H2             -2.1050190958       32.7603277234       57.9307169545  LPSA18    14              9.0000000000
     19460       626  ARHM      O2             -3.1471498234       33.7338920014       59.4623771968  LPSA18    14              9.0000000000
     19461       626  ARHM      C3             -1.6624132237       34.8561939573       58.0541649728  LPSA18    14              9.0000000000
     19462       626  ARHM      H3             -1.2513331744       34.9467790701       57.0213555508  LPSA18    14              9.0000000000
     19463       626  ARHM      O3             -0.5415015010       34.5958641760       58.8840163691  LPSA18    14              9.0000000000
     19464       626  ARHM      HO3            -0.7520896702       34.7798985607       59.7995160117  LPSA18    14              9.0000000000
     19465       626  ARHM      C4             -2.4086503425       36.1508665593       58.3148580668  LPSA18    14              9.0000000000
     19466       626  ARHM      H4             -2.9869210357       36.1057525276       59.2717554761  LPSA18    14              9.0000000000
     19467       626  ARHM      O4             -1.5305914778       37.2732002992       58.3779321741  LPSA18    14              9.0000000000
     19468       626  ARHM      HO4            -1.4609586260       37.5972938301       59.2805600982  LPSA18    14              9.0000000000
     19469       626  ARHM      C6             -4.2634663122       37.5629666290       57.2683027408  LPSA18    14              9.0000000000
     19470       626  ARHM      H61            -5.1442064804       37.5146280950       56.6045754815  LPSA18    14              9.0000000000
     19471       626  ARHM      H62            -4.5973443056       37.6913868284       58.3142197670  LPSA18    14              9.0000000000
     19472       626  ARHM      H63            -3.6924289153       38.4586792019       56.9592960514  LPSA18    14              9.0000000000
     19473       627  ARHM      C1             -4.2010328826       32.8574825105       59.7440725121  LPSA18    15             10.0000000000
     19474       627  ARHM      H1             -4.1800270062       31.9953040878       59.0373206916  LPSA18    15             10.0000000000
     19475       627  ARHM      C5             -5.7057498772       34.5415885410       60.6308187532  LPSA18    15             10.0000000000
     19476       627  ARHM      H5             -5.0281036226       35.4157222270       60.4486823651  LPSA18    15             10.0000000000
     19477       627  ARHM      O5             -5.4945946415       33.4907483041       59.6705919893  LPSA18    15             10.0000000000
     19478       627  ARHM      C2             -3.9837980083       32.3062354675       61.1366213780  LPSA18    15             10.0000000000
     19479       627  ARHM      H2             -2.9491017889       31.8912957891       61.2065827056  LPSA18    15             10.0000000000
     19480       627  ARHM      O2             -4.9445089599       31.2433977511       61.3014845965  LPSA18    15             10.0000000000
     19481       627  ARHM      C3             -4.1019848988       33.4263100062       62.1288619688  LPSA18    15             10.0000000000
     19482       627  ARHM      H3             -3.3960679126       34.2416973139       61.8384644926  LPSA18    15             10.0000000000
     19483       627  ARHM      O3             -3.6989673148       32.9195904536       63.3993820481  LPSA18    15             10.0000000000
     19484       627  ARHM      C4             -5.5054154883       33.9761406515       62.0239614271  LPSA18    15             10.0000000000
     19485       627  ARHM      H4             -6.2223010725       33.1368796792       62.1539712889  LPSA18    15             10.0000000000
     19486       627  ARHM      O4             -5.8262760236       34.9387363648       63.0127398238  LPSA18    15             10.0000000000
     19487       627  ARHM      HO4            -6.7727167357       35.1125888694       62.9543543392  LPSA18    15             10.0000000000
     19488       627  ARHM      C6             -7.1470099596       35.0485194855       60.4495195122  LPSA18    15             10.0000000000
     19489       627  ARHM      H61            -7.2922969562       35.9591252442       61.0575028889  LPSA18    15             10.0000000000
     19490       627  ARHM      H62            -7.3340418176       35.2553028166       59.3758342568  LPSA18    15             10.0000000000
     19491       627  ARHM      H63            -7.8883449839       34.3157690880       60.8147153838  LPSA18    15             10.0000000000
     19492       628  BMANNA    C1             -4.9899684892       30.5121046996       62.5073458866  LPSA18    16             11.0000000000
     19493       628  BMANNA    H1             -5.3799058858       31.1768424086       63.3146471715  LPSA18    16             11.0000000000
     19494       628  BMANNA    C5             -3.8187087234       29.3032430363       64.2052142885  LPSA18    16             11.0000000000
     19495       628  BMANNA    H5             -4.2522967374       30.0147565084       64.9541719125  LPSA18    16             11.0000000000
     19496       628  BMANNA    O5             -3.7239389708       29.9699851855       62.9204118896  LPSA18    16             11.0000000000
     19497       628  BMANNA    C2             -5.9760709009       29.3626617700       62.3125370460  LPSA18    16             11.0000000000
     19498       628  BMANNA    H2             -6.9564534123       29.8251702638       62.0339983212  LPSA18    16             11.0000000000
     19499       628  BMANNA    N              -5.6203176853       28.4171003689       61.2559452237  LPSA18    16             11.0000000000
     19500       628  BMANNA    HN             -5.1373654773       27.6090891464       61.5512513930  LPSA18    16             11.0000000000
     19501       628  BMANNA    C              -5.9976261151       28.4976913991       59.9780591399  LPSA18    16             11.0000000000
     19502       628  BMANNA    O              -6.7194546255       29.3833729245       59.5430236130  LPSA18    16             11.0000000000
     19503       628  BMANNA    CT             -5.4620591579       27.4209311965       59.0742785038  LPSA18    16             11.0000000000
     19504       628  BMANNA    HT1            -6.2354671480       26.7038037401       58.8133704032  LPSA18    16             11.0000000000
     19505       628  BMANNA    HT2            -4.6259450813       26.8650605057       59.5377550427  LPSA18    16             11.0000000000
     19506       628  BMANNA    HT3            -5.1437728310       27.8563549696       58.1084273375  LPSA18    16             11.0000000000
     19507       628  BMANNA    C3             -6.1125286035       28.6536384647       63.6494418864  LPSA18    16             11.0000000000
     19508       628  BMANNA    H3             -6.4782011242       29.3924463277       64.3977173733  LPSA18    16             11.0000000000
     19509       628  BMANNA    O3             -7.0755407347       27.6212284031       63.5822251323  LPSA18    16             11.0000000000
     19510       628  BMANNA    HO3            -7.7222172371       27.7908420367       64.2864883345  LPSA18    16             11.0000000000
     19511       628  BMANNA    C4             -4.7690186235       28.1241852477       64.1208260146  LPSA18    16             11.0000000000
     19512       628  BMANNA    H4             -4.3863311347       27.4066456195       63.3626166766  LPSA18    16             11.0000000000
     19513       628  BMANNA    O4             -4.8219375976       27.4115111545       65.3678761783  LPSA18    16             11.0000000000
     19514       628  BMANNA    HO4            -4.0370022508       26.8780391116       65.4994521681  LPSA18    16             11.0000000000
     19515       628  BMANNA    C6             -2.4725451714       28.8723004184       64.7696501137  LPSA18    16             11.0000000000
     19516       628  BMANNA    H61            -2.5538209846       28.8733232422       65.8810244066  LPSA18    16             11.0000000000
     19517       628  BMANNA    H62            -2.2410029811       27.8415252903       64.4272035794  LPSA18    16             11.0000000000
     19518       628  BMANNA    O6             -1.3677288872       29.6942560794       64.4150814348  LPSA18    16             11.0000000000
     19519       628  BMANNA    HO6            -0.7490474188       29.1949966453       63.8699746577  LPSA18    16             11.0000000000
     19520       629  BGLCNA    C1             -2.9258166681       33.8061719963       64.1487741226  LPSA18    17             11.0000000000
     19521       629  BGLCNA    H1             -3.3009243007       34.8391677198       63.9878486165  LPSA18    17             11.0000000000
     19522       629  BGLCNA    C5             -0.7418388205       34.6295370853       64.5727619272  LPSA18    17             11.0000000000
     19523       629  BGLCNA    H5             -1.0128507116       35.7007655023       64.3582088820  LPSA18    17             11.0000000000
     19524       629  BGLCNA    O5             -1.5534270858       33.7579694675       63.7803209076  LPSA18    17             11.0000000000
     19525       629  BGLCNA    C2             -3.0992287459       33.3625062297       65.5850875603  LPSA18    17             11.0000000000
     19526       629  BGLCNA    H2             -2.6529573715       32.3487491027       65.7517023011  LPSA18    17             11.0000000000
     19527       629  BGLCNA    N              -4.5071936983       33.2505114172       65.8925784856  LPSA18    17             11.0000000000
     19528       629  BGLCNA    HN             -5.0939513785       33.8569195952       65.3756731633  LPSA18    17             11.0000000000
     19529       629  BGLCNA    C              -5.0790423250       32.4775793386       66.8218746972  LPSA18    17             11.0000000000
     19530       629  BGLCNA    O              -4.4913285042       31.6399944379       67.4870634187  LPSA18    17             11.0000000000
     19531       629  BGLCNA    CT             -6.5494298485       32.7618040721       67.0272069979  LPSA18    17             11.0000000000
     19532       629  BGLCNA    HT1            -7.1935790629       32.0114920812       66.5261334877  LPSA18    17             11.0000000000
     19533       629  BGLCNA    HT2            -6.7645635231       33.7929388322       66.6811577689  LPSA18    17             11.0000000000
     19534       629  BGLCNA    HT3            -6.7646521808       32.7260509832       68.1158030631  LPSA18    17             11.0000000000
     19535       629  BGLCNA    C3             -2.3507887215       34.3683154692       66.4389697308  LPSA18    17             11.0000000000
     19536       629  BGLCNA    H3             -2.7284130596       35.3627114441       66.0987729149  LPSA18    17             11.0000000000
     19537       629  BGLCNA    O3             -2.6973778510       34.1916902359       67.8357273038  LPSA18    17             11.0000000000
     19538       629  BGLCNA    C4             -0.8789694175       34.2880846669       66.0555124998  LPSA18    17             11.0000000000
     19539       629  BGLCNA    H4             -0.5165857275       33.2353856592       66.1543278458  LPSA18    17             11.0000000000
     19540       629  BGLCNA    O4             -0.0696764065       35.1437578223       66.8740344465  LPSA18    17             11.0000000000
     19541       629  BGLCNA    HO4             0.8728763709       35.0349134770       66.7150529833  LPSA18    17             11.0000000000
     19542       629  BGLCNA    C6              0.6813807681       34.4044132265       64.1279009707  LPSA18    17             11.0000000000
     19543       629  BGLCNA    H61             1.0567624504       35.3883669197       64.1861280083  LPSA18    17             11.0000000000
     19544       629  BGLCNA    H62             1.3144104681       33.8165245562       64.8217889041  LPSA18    17             11.0000000000
     19545       629  BGLCNA    O6              0.8753622642       33.9879782975       62.7835487054  LPSA18    17             11.0000000000
     19546       629  BGLCNA    HO6             0.4339016109       34.6068646192       62.2012274028  LPSA18    17             11.0000000000
     19547       630  AGAL      C1             -2.7650199059       35.3675363552       68.6195222997  LPSA18    18             12.0000000000
     19548       630  AGAL      H1             -1.7321134036       35.7367686211       68.8019498221  LPSA18    18             12.0000000000
     19549       630  AGAL      C5             -4.8984833476       36.1037036120       67.8498613032  LPSA18    18             12.0000000000
     19550       630  AGAL      H5             -4.9699922143       35.0998674286       67.3977608221  LPSA18    18             12.0000000000
     19551       630  AGAL      O5             -3.5010138755       36.4187763931       67.9842618508  LPSA18    18             12.0000000000
     19552       630  AGAL      C2             -3.4450258795       35.1582614349       69.9678328672  LPSA18    18             12.0000000000
     19553       630  AGAL      H2             -3.4387083582       36.1903460387       70.3986859243  LPSA18    18             12.0000000000
     19554       630  AGAL      O2             -2.7033274291       34.3289897700       70.8670927507  LPSA18    18             12.0000000000
     19555       630  AGAL      C3             -4.9172302203       34.7638905508       69.8418679635  LPSA18    18             12.0000000000
     19556       630  AGAL      H3             -4.9836247948       33.8825292199       69.1642507033  LPSA18    18             12.0000000000
     19557       630  AGAL      O3             -5.5163056094       34.3644728808       71.0798442255  LPSA18    18             12.0000000000
     19558       630  AGAL      HO3            -6.0360289204       33.5527609923       70.9730329562  LPSA18    18             12.0000000000
     19559       630  AGAL      C4             -5.6399322221       35.9217099859       69.1665969661  LPSA18    18             12.0000000000
     19560       630  AGAL      H4             -6.6975768119       35.6451168381       68.9392653138  LPSA18    18             12.0000000000
     19561       630  AGAL      O4             -5.6617859073       37.1099215181       69.9542428602  LPSA18    18             12.0000000000
     19562       630  AGAL      HO4            -6.2459246369       36.9361352951       70.7003159079  LPSA18    18             12.0000000000
     19563       630  AGAL      C6             -5.5081053879       36.9450310226       66.7654330104  LPSA18    18             12.0000000000
     19564       630  AGAL      H61            -4.9560155595       36.6949530268       65.8299111111  LPSA18    18             12.0000000000
     19565       630  AGAL      H62            -6.5760505539       36.6650675426       66.6341949320  LPSA18    18             12.0000000000
     19566       630  AGAL      O6             -5.3869311180       38.3432285819       66.9742362732  LPSA18    18             12.0000000000
     19567       630  AGAL      HO6            -4.7433909180       38.5048093220       67.6749602949  LPSA18    18             12.0000000000
     19568       631  ARHM      C1             -2.7594171697       34.8759999162       72.1624115983  LPSA18    19             13.0000000000
     19569       631  ARHM      H1             -3.6775822781       35.4669365741       72.3479853485  LPSA18    19             13.0000000000
     19570       631  ARHM      C5             -0.5276133348       35.2130952025       72.1763183832  LPSA18    19             13.0000000000
     19571       631  ARHM      H5             -0.4212596296       34.7778066604       71.1543253608  LPSA18    19             13.0000000000
     19572       631  ARHM      O5             -1.7651163757       35.8291948318       72.3208156963  LPSA18    19             13.0000000000
     19573       631  ARHM      C2             -2.5643876691       33.7732204397       73.1434408229  LPSA18    19             13.0000000000
     19574       631  ARHM      H2             -3.2910537263       32.9605414310       72.8933395028  LPSA18    19             13.0000000000
     19575       631  ARHM      O2             -2.8014755683       34.2126757789       74.4788297822  LPSA18    19             13.0000000000
     19576       631  ARHM      C3             -1.1972497405       33.1685191928       72.9929422750  LPSA18    19             13.0000000000
     19577       631  ARHM      H3             -1.0428318715       32.8888282405       71.9369467756  LPSA18    19             13.0000000000
     19578       631  ARHM      O3             -1.0471197283       32.0400697938       73.8086780295  LPSA18    19             13.0000000000
     19579       631  ARHM      HO3            -1.2926072453       32.3173768080       74.6873269330  LPSA18    19             13.0000000000
     19580       631  ARHM      C4             -0.1607699429       34.1850538497       73.2308966952  LPSA18    19             13.0000000000
     19581       631  ARHM      H4             -0.2777125662       34.5805525542       74.2712973079  LPSA18    19             13.0000000000
     19582       631  ARHM      O4              1.1962871705       33.7641420201       73.1215872898  LPSA18    19             13.0000000000
     19583       631  ARHM      HO4             1.3219471765       33.3966594447       72.2500151220  LPSA18    19             13.0000000000
     19584       631  ARHM      C6              0.2838122398       36.3150931245       72.0455273681  LPSA18    19             13.0000000000
     19585       631  ARHM      H61             0.1782984371       37.1219362019       71.3263829688  LPSA18    19             13.0000000000
     19586       631  ARHM      H62             0.1938130698       36.7766766061       73.0767339963  LPSA18    19             13.0000000000
     19587       631  ARHM      H63             1.2712862677       35.8072739038       71.7919509988  LPSA18    19             13.0000000000
     19588       632  ARHM      C1             -4.1708432156       34.4440319843       74.6994937011  LPSA18    20             14.0000000000
     19589       632  ARHM      H1             -4.7975523887       34.0595605971       73.8633647723  LPSA18    20             14.0000000000
     19590       632  ARHM      C5             -3.8613832597       36.4156059043       75.9478363882  LPSA18    20             14.0000000000
     19591       632  ARHM      H5             -2.7645028326       36.2889563666       75.8197850044  LPSA18    20             14.0000000000
     19592       632  ARHM      O5             -4.5201933280       35.8204039337       74.8335597857  LPSA18    20             14.0000000000
     19593       632  ARHM      C2             -4.5068597458       33.6854531196       75.9471983338  LPSA18    20             14.0000000000
     19594       632  ARHM      H2             -4.1347326074       32.6354813368       75.8434360608  LPSA18    20             14.0000000000
     19595       632  ARHM      O2             -5.9145755123       33.6863467131       76.1677901269  LPSA18    20             14.0000000000
     19596       632  ARHM      C3             -3.8325977834       34.2841994670       77.1246525564  LPSA18    20             14.0000000000
     19597       632  ARHM      H3             -2.7275424436       34.2614767317       76.9579420830  LPSA18    20             14.0000000000
     19598       632  ARHM      O3             -4.1641910062       33.4902746239       78.2657942212  LPSA18    20             14.0000000000
     19599       632  ARHM      C4             -4.2768529503       35.7121796375       77.2262063775  LPSA18    20             14.0000000000
     19600       632  ARHM      H4             -5.3840066616       35.8314995767       77.3238127197  LPSA18    20             14.0000000000
     19601       632  ARHM      O4             -3.6491571905       36.3068137802       78.3425512236  LPSA18    20             14.0000000000
     19602       632  ARHM      HO4            -3.5814631325       37.2509561959       78.1291197546  LPSA18    20             14.0000000000
     19603       632  ARHM      C6             -4.1719669953       37.9065890458       75.9407337049  LPSA18    20             14.0000000000
     19604       632  ARHM      H61            -5.2450156228       38.1288741355       76.0877671928  LPSA18    20             14.0000000000
     19605       632  ARHM      H62            -3.5836157196       38.4174533834       76.7274126076  LPSA18    20             14.0000000000
     19606       632  ARHM      H63            -3.8726032732       38.3851942197       74.9852513437  LPSA18    20             14.0000000000
     19607       633  BMANNA    C1             -6.5291440140       32.6916647322       75.4076133962  LPSA18    21             15.0000000000
     19608       633  BMANNA    H1             -5.7802433981       32.2379722396       74.7173851219  LPSA18    21             15.0000000000
     19609       633  BMANNA    C5             -7.9775597054       32.1220608509       73.6544883135  LPSA18    21             15.0000000000
     19610       633  BMANNA    H5             -7.1153081087       31.6732442677       73.0915926954  LPSA18    21             15.0000000000
     19611       633  BMANNA    O5             -7.5234211795       33.1861985311       74.5135397058  LPSA18    21             15.0000000000
     19612       633  BMANNA    C2             -7.0783189831       31.6291460335       76.3446799231  LPSA18    21             15.0000000000
     19613       633  BMANNA    H2             -6.1905238287       31.2589984009       76.9238225088  LPSA18    21             15.0000000000
     19614       633  BMANNA    N              -8.0934358877       32.1033946005       77.2896756037  LPSA18    21             15.0000000000
     19615       633  BMANNA    HN             -8.7595419209       32.7400198711       76.9232306628  LPSA18    21             15.0000000000
     19616       633  BMANNA    C              -8.2059156446       31.7243431206       78.5890739896  LPSA18    21             15.0000000000
     19617       633  BMANNA    O              -7.5839484245       30.7703937618       79.0477398554  LPSA18    21             15.0000000000
     19618       633  BMANNA    CT             -9.1602013139       32.5126333741       79.4694604066  LPSA18    21             15.0000000000
     19619       633  BMANNA    HT1           -10.2037391578       32.1877216590       79.2815741267  LPSA18    21             15.0000000000
     19620       633  BMANNA    HT2            -9.0341572882       33.6001967147       79.3014373324  LPSA18    21             15.0000000000
     19621       633  BMANNA    HT3            -8.9364377359       32.3100397640       80.5381188132  LPSA18    21             15.0000000000
     19622       633  BMANNA    C3             -7.5630417702       30.5148787414       75.4644508317  LPSA18    21             15.0000000000
     19623       633  BMANNA    H3             -6.6611327738       30.1485449434       74.9167040885  LPSA18    21             15.0000000000
     19624       633  BMANNA    O3             -8.0358625658       29.4241731286       76.2291220976  LPSA18    21             15.0000000000
     19625       633  BMANNA    HO3            -8.7452668249       29.7421521365       76.7964376707  LPSA18    21             15.0000000000
     19626       633  BMANNA    C4             -8.5980512641       31.0200398907       74.4768890994  LPSA18    21             15.0000000000
     19627       633  BMANNA    H4             -9.4981534402       31.4125022866       75.0149541585  LPSA18    21             15.0000000000
     19628       633  BMANNA    O4             -9.0526561980       30.0140996907       73.5894644952  LPSA18    21             15.0000000000
     19629       633  BMANNA    HO4            -9.9786965524       29.8151213864       73.7744157333  LPSA18    21             15.0000000000
     19630       633  BMANNA    C6             -8.9271973006       32.6444086992       72.6167484383  LPSA18    21             15.0000000000
     19631       633  BMANNA    H61            -9.0145417538       31.8846636517       71.8049051814  LPSA18    21             15.0000000000
     19632       633  BMANNA    H62            -9.9258859287       32.7707104135       73.0850561970  LPSA18    21             15.0000000000
     19633       633  BMANNA    O6             -8.5006273454       33.8848719293       72.0599772556  LPSA18    21             15.0000000000
     19634       633  BMANNA    HO6            -8.4827334353       34.5289903732       72.7785848678  LPSA18    21             15.0000000000
     19635       634  BGLCNA    C1             -3.1718761972       33.3426917242       79.2413728458  LPSA18    22             15.0000000000
     19636       634  BGLCNA    H1             -2.4780970922       34.2047916119       79.2505591506  LPSA18    22             15.0000000000
     19637       634  BGLCNA    C5             -1.4713263407       31.9404831887       80.1022240599  LPSA18    22             15.0000000000
     19638       634  BGLCNA    H5             -0.7903537483       32.8257149142       80.1175561704  LPSA18    22             15.0000000000
     19639       634  BGLCNA    O5             -2.4495371178       32.1254911227       79.0664850431  LPSA18    22             15.0000000000
     19640       634  BGLCNA    C2             -3.9120109799       33.2899789973       80.5500696244  LPSA18    22             15.0000000000
     19641       634  BGLCNA    H2             -4.6096087415       32.4134075751       80.5010992881  LPSA18    22             15.0000000000
     19642       634  BGLCNA    N              -4.6787935906       34.4964123502       80.7323734545  LPSA18    22             15.0000000000
     19643       634  BGLCNA    HN             -4.2812925454       35.3420874170       80.3912564070  LPSA18    22             15.0000000000
     19644       634  BGLCNA    C              -5.8519141514       34.5792466710       81.3586242073  LPSA18    22             15.0000000000
     19645       634  BGLCNA    O              -6.4332380314       33.6416115213       81.8863886840  LPSA18    22             15.0000000000
     19646       634  BGLCNA    CT             -6.4323387802       35.9564694861       81.3924373460  LPSA18    22             15.0000000000
     19647       634  BGLCNA    HT1            -7.1407396919       36.0410072359       80.5422015225  LPSA18    22             15.0000000000
     19648       634  BGLCNA    HT2            -5.6320217090       36.7087012713       81.2831183667  LPSA18    22             15.0000000000
     19649       634  BGLCNA    HT3            -6.9271247122       36.1813298926       82.3529359097  LPSA18    22             15.0000000000
     19650       634  BGLCNA    C3             -2.9328714902       33.1044730865       81.6858957155  LPSA18    22             15.0000000000
     19651       634  BGLCNA    H3             -2.1978919834       33.9438808999       81.6606898092  LPSA18    22             15.0000000000
     19652       634  BGLCNA    O3             -3.6955448394       33.1705988363       82.8983282130  LPSA18    22             15.0000000000
     19653       634  BGLCNA    C4             -2.1655702525       31.8334986260       81.4569156472  LPSA18    22             15.0000000000
     19654       634  BGLCNA    H4             -2.8895177620       30.9873362511       81.4199524067  LPSA18    22             15.0000000000
     19655       634  BGLCNA    O4             -1.2193682403       31.5666649873       82.4865051545  LPSA18    22             15.0000000000
     19656       634  BGLCNA    HO4            -1.2893558622       30.6399822736       82.7587131048  LPSA18    22             15.0000000000
     19657       634  BGLCNA    C6             -0.6798258953       30.7035767145       79.7672140958  LPSA18    22             15.0000000000
     19658       634  BGLCNA    H61            -0.1544510195       30.3608148205       80.6810043631  LPSA18    22             15.0000000000
     19659       634  BGLCNA    H62            -1.3549443959       29.8783819358       79.4508525668  LPSA18    22             15.0000000000
     19660       634  BGLCNA    O6              0.3245122735       30.9456414482       78.7830127658  LPSA18    22             15.0000000000
     19661       634  BGLCNA    HO6            -0.0479800836       31.3060802514       77.9656715636  LPSA18    22             15.0000000000
     19662       635  AGAL      C1             -3.0370622639       33.4781042907       84.0988013139  LPSA18    23             16.0000000000
     19663       635  AGAL      H1             -2.4844822971       32.5791431950       84.4489974547  LPSA18    23             16.0000000000
     19664       635  AGAL      C5             -2.7111776243       35.8335185298       83.7220804723  LPSA18    23             16.0000000000
     19665       635  AGAL      H5             -3.3472820110       35.7347952561       82.8123558921  LPSA18    23             16.0000000000
     19666       635  AGAL      O5             -2.0978216461       34.5585969960       83.9889405256  LPSA18    23             16.0000000000
     19667       635  AGAL      C2             -4.0335735616       33.8121263066       85.1855309997  LPSA18    23             16.0000000000
     19668       635  AGAL      H2             -3.4321782448       33.9884160580       86.1050427232  LPSA18    23             16.0000000000
     19669       635  AGAL      O2             -4.9474941972       32.7216125324       85.4419196353  LPSA18    23             16.0000000000
     19670       635  AGAL      C3             -4.7180418947       35.1382413512       84.8714548808  LPSA18    23             16.0000000000
     19671       635  AGAL      H3             -5.1580191092       35.0942975867       83.8551805973  LPSA18    23             16.0000000000
     19672       635  AGAL      O3             -5.8082341143       35.4107919491       85.7365779707  LPSA18    23             16.0000000000
     19673       635  AGAL      HO3            -5.5362980261       35.2411362534       86.6382971916  LPSA18    23             16.0000000000
     19674       635  AGAL      C4             -3.6615132675       36.2309923026       84.8554835259  LPSA18    23             16.0000000000
     19675       635  AGAL      H4             -4.0951179308       37.2229247321       84.6276972244  LPSA18    23             16.0000000000
     19676       635  AGAL      O4             -2.9935002699       36.3400946167       86.1052613455  LPSA18    23             16.0000000000
     19677       635  AGAL      HO4            -2.1231525251       36.7412036827       85.8907401541  LPSA18    23             16.0000000000
     19678       635  AGAL      C6             -1.6266515644       36.8193123659       83.3318725310  LPSA18    23             16.0000000000
     19679       635  AGAL      H61            -0.9541016562       36.3456229691       82.5824887324  LPSA18    23             16.0000000000
     19680       635  AGAL      H62            -2.0773291867       37.6926739572       82.8203684973  LPSA18    23             16.0000000000
     19681       635  AGAL      O6             -0.8548446005       37.2696521851       84.4459148157  LPSA18    23             16.0000000000
     19682       635  AGAL      HO6            -0.0657723407       37.7496807517       84.1427838562  LPSA18    23             16.0000000000
     19683       636  ARHM      C1             -4.5144426204       31.6627010080       86.2883083263  LPSA18    24             17.0000000000
     19684       636  ARHM      H1             -3.4060525570       31.6978263076       86.3838165290  LPSA18    24             17.0000000000
     19685       636  ARHM      C5             -6.2521419979       30.1361275586       85.6421866096  LPSA18    24             17.0000000000
     19686       636  ARHM      H5             -6.6165913520       30.9223426983       84.9438625413  LPSA18    24             17.0000000000
     19687       636  ARHM      O5             -4.8451287846       30.3340097091       85.8167687870  LPSA18    24             17.0000000000
     19688       636  ARHM      C2             -5.1919866007       31.9069598207       87.6167605218  LPSA18    24             17.0000000000
     19689       636  ARHM      H2             -5.0088076978       32.9628797463       87.9348976895  LPSA18    24             17.0000000000
     19690       636  ARHM      O2             -4.7516764172       30.9773981322       88.6171677613  LPSA18    24             17.0000000000
     19691       636  ARHM      C3             -6.6733617461       31.7363715250       87.4352106206  LPSA18    24             17.0000000000
     19692       636  ARHM      H3             -6.9634068838       32.4444241178       86.6394625417  LPSA18    24             17.0000000000
     19693       636  ARHM      O3             -7.4210973232       32.1381288672       88.5727567195  LPSA18    24             17.0000000000
     19694       636  ARHM      HO3            -7.4995320591       31.3662688904       89.1506015555  LPSA18    24             17.0000000000
     19695       636  ARHM      C4             -6.9658223819       30.3239224712       86.9650974801  LPSA18    24             17.0000000000
     19696       636  ARHM      H4             -6.5541085063       29.5944489771       87.7053305548  LPSA18    24             17.0000000000
     19697       636  ARHM      O4             -8.3583935923       30.0890828303       86.8103224066  LPSA18    24             17.0000000000
     19698       636  ARHM      HO4            -8.5842102510       29.1654005310       87.0004109626  LPSA18    24             17.0000000000
     19699       636  ARHM      C6             -6.5339270583       28.7789926795       84.9603017266  LPSA18    24             17.0000000000
     19700       636  ARHM      H61            -7.5087476635       28.8276020224       84.4231457078  LPSA18    24             17.0000000000
     19701       636  ARHM      H62            -5.7516345172       28.5772622488       84.2075796526  LPSA18    24             17.0000000000
     19702       636  ARHM      H63            -6.5479561677       27.9399449626       85.6866248473  LPSA18    24             17.0000000000
     19703       637  ARHM      C1             -3.4985027027       31.2796762857       89.1463264544  LPSA18    25             18.0000000000
     19704       637  ARHM      H1             -2.9640197299       31.9732484894       88.4619949894  LPSA18    25             18.0000000000
     19705       637  ARHM      C5             -3.1807894215       29.1603802793       90.1845951992  LPSA18    25             18.0000000000
     19706       637  ARHM      H5             -4.1723665184       28.8165745605       89.8337119073  LPSA18    25             18.0000000000
     19707       637  ARHM      O5             -2.6430615648       30.1333512487       89.2722536094  LPSA18    25             18.0000000000
     19708       637  ARHM      C2             -3.6922166090       31.9552861978       90.4663622451  LPSA18    25             18.0000000000
     19709       637  ARHM      H2             -4.4647568070       32.7620585779       90.3683697997  LPSA18    25             18.0000000000
     19710       637  ARHM      O2             -2.4482560971       32.5167260232       90.9019620539  LPSA18    25             18.0000000000
     19711       637  ARHM      C3             -4.2442186464       30.9568249717       91.4477820267  LPSA18    25             18.0000000000
     19712       637  ARHM      H3             -5.2249458099       30.5621892905       91.0840135486  LPSA18    25             18.0000000000
     19713       637  ARHM      O3             -4.3793958272       31.6164734186       92.7047420061  LPSA18    25             18.0000000000
     19714       637  ARHM      C4             -3.3346165902       29.7774152664       91.5600151797  LPSA18    25             18.0000000000
     19715       637  ARHM      H4             -2.3182238308       30.0866226987       91.8397781716  LPSA18    25             18.0000000000
     19716       637  ARHM      O4             -3.8234538190       28.8533859262       92.5332008121  LPSA18    25             18.0000000000
     19717       637  ARHM      HO4            -3.0776527361       28.5120255041       93.0384609344  LPSA18    25             18.0000000000
     19718       637  ARHM      C6             -2.2684109856       27.9390410325       90.2103332085  LPSA18    25             18.0000000000
     19719       637  ARHM      H61            -2.0601284539       27.5628622563       89.1849065488  LPSA18    25             18.0000000000
     19720       637  ARHM      H62            -1.3254132164       28.2523281416       90.6846525841  LPSA18    25             18.0000000000
     19721       637  ARHM      H63            -2.7055086551       27.1325271473       90.8318913622  LPSA18    25             18.0000000000
     19722       638  BMANNA    C1             -2.1309680687       33.7247742200       90.2659756561  LPSA18    26             19.0000000000
     19723       638  BMANNA    H1             -3.0372298297       34.2248967259       89.8508558387  LPSA18    26             19.0000000000
     19724       638  BMANNA    C5             -0.9098254412       34.8773333876       88.5745324086  LPSA18    26             19.0000000000
     19725       638  BMANNA    H5             -1.8636733515       35.2766395781       88.1705648722  LPSA18    26             19.0000000000
     19726       638  BMANNA    O5             -1.1643302431       33.6050550540       89.2093090514  LPSA18    26             19.0000000000
     19727       638  BMANNA    C2             -1.6011149035       34.5873700183       91.3341677740  LPSA18    26             19.0000000000
     19728       638  BMANNA    H2             -2.3983122037       34.6993514530       92.1198845927  LPSA18    26             19.0000000000
     19729       638  BMANNA    N              -0.3702794230       34.0377658492       91.9253170456  LPSA18    26             19.0000000000
     19730       638  BMANNA    HN              0.3444143308       33.7979964410       91.2739690885  LPSA18    26             19.0000000000
     19731       638  BMANNA    C              -0.1569746529       33.8632918919       93.2293930141  LPSA18    26             19.0000000000
     19732       638  BMANNA    O              -1.0312593440       34.0440251094       94.0603731204  LPSA18    26             19.0000000000
     19733       638  BMANNA    CT              1.2485753930       33.4842972480       93.6277847994  LPSA18    26             19.0000000000
     19734       638  BMANNA    HT1             1.7578953946       32.9238053074       92.8220485875  LPSA18    26             19.0000000000
     19735       638  BMANNA    HT2             1.2830441682       32.8858617236       94.5487434881  LPSA18    26             19.0000000000
     19736       638  BMANNA    HT3             1.8124461231       34.4000264546       93.8481374275  LPSA18    26             19.0000000000
     19737       638  BMANNA    C3             -1.4122410555       35.9002591084       90.6719778695  LPSA18    26             19.0000000000
     19738       638  BMANNA    H3             -2.3548290515       36.3221318265       90.3118098369  LPSA18    26             19.0000000000
     19739       638  BMANNA    O3             -1.0797335636       36.7424224957       91.6546523097  LPSA18    26             19.0000000000
     19740       638  BMANNA    HO3            -1.8045981308       37.1362034954       92.1470997583  LPSA18    26             19.0000000000
     19741       638  BMANNA    C4             -0.3837034391       35.8590215378       89.5773808742  LPSA18    26             19.0000000000
     19742       638  BMANNA    H4              0.6016788598       35.5075131294       89.9584405645  LPSA18    26             19.0000000000
     19743       638  BMANNA    O4             -0.1934149850       37.1430687096       88.9912734581  LPSA18    26             19.0000000000
     19744       638  BMANNA    HO4             0.5042177685       37.5672983685       89.5169801535  LPSA18    26             19.0000000000
     19745       638  BMANNA    C6              0.0062601356       34.6135146258       87.3997339925  LPSA18    26             19.0000000000
     19746       638  BMANNA    H61            -0.2961270808       33.6659028085       86.9083739829  LPSA18    26             19.0000000000
     19747       638  BMANNA    H62            -0.0743315910       35.4290392320       86.6437653433  LPSA18    26             19.0000000000
     19748       638  BMANNA    O6              1.3610432694       34.4926090647       87.8134012742  LPSA18    26             19.0000000000
     19749       638  BMANNA    HO6             1.6377515741       35.3829544228       88.0766071957  LPSA18    26             19.0000000000
     19750       639  BGLCNA    C1             -5.5167741355       31.3200286534       93.4670304861  LPSA18    27             19.0000000000
     19751       639  BGLCNA    H1             -5.7909366099       30.2458885468       93.4270144799  LPSA18    27             19.0000000000
     19752       639  BGLCNA    C5             -7.7703813176       31.8603323046       93.9158770404  LPSA18    27             19.0000000000
     19753       639  BGLCNA    H5             -7.9626566180       30.7580916076       93.9345578979  LPSA18    27             19.0000000000
     19754       639  BGLCNA    O5             -6.6410722316       32.1032374463       93.0636806791  LPSA18    27             19.0000000000
     19755       639  BGLCNA    C2             -5.0967008054       31.7249697086       94.8636729933  LPSA18    27             19.0000000000
     19756       639  BGLCNA    H2             -4.9000975036       32.8305166893       94.8337786604  LPSA18    27             19.0000000000
     19757       639  BGLCNA    N              -3.8784537218       31.0370787145       95.2899290247  LPSA18    27             19.0000000000
     19758       639  BGLCNA    HN             -3.7917155948       30.0765556814       95.0664809704  LPSA18    27             19.0000000000
     19759       639  BGLCNA    C              -2.9175485551       31.7134610283       95.9599571801  LPSA18    27             19.0000000000
     19760       639  BGLCNA    O              -3.1371142651       32.8003815214       96.4643530930  LPSA18    27             19.0000000000
     19761       639  BGLCNA    CT             -1.5468564633       31.0938791235       96.0555595147  LPSA18    27             19.0000000000
     19762       639  BGLCNA    HT1            -1.4870548434       30.1909249310       95.4178680442  LPSA18    27             19.0000000000
     19763       639  BGLCNA    HT2            -1.2453035604       30.8456629127       97.0851528339  LPSA18    27             19.0000000000
     19764       639  BGLCNA    HT3            -0.8181898228       31.8469693091       95.6726511331  LPSA18    27             19.0000000000
     19765       639  BGLCNA    C3             -6.2307511252       31.5027382513       95.8205956315  LPSA18    27             19.0000000000
     19766       639  BGLCNA    H3             -6.5010928879       30.4214146413       95.7758304670  LPSA18    27             19.0000000000
     19767       639  BGLCNA    O3             -5.6977068563       31.8365235331       97.1234402280  LPSA18    27             19.0000000000
     19768       639  BGLCNA    C4             -7.4321271222       32.2932538807       95.3336200001  LPSA18    27             19.0000000000
     19769       639  BGLCNA    H4             -7.1924541467       33.3787654898       95.3199628315  LPSA18    27             19.0000000000
     19770       639  BGLCNA    O4             -8.5820562031       32.0961458862       96.1381424732  LPSA18    27             19.0000000000
     19771       639  BGLCNA    HO4            -8.8106586299       31.1592008371       96.1187474692  LPSA18    27             19.0000000000
     19772       639  BGLCNA    C6             -9.0081288191       32.5020565377       93.3232371171  LPSA18    27             19.0000000000
     19773       639  BGLCNA    H61            -9.9082280974       32.1281216890       93.8577043576  LPSA18    27             19.0000000000
     19774       639  BGLCNA    H62            -8.9820764668       33.6076331473       93.4504701820  LPSA18    27             19.0000000000
     19775       639  BGLCNA    O6             -9.1426182158       32.1664755297       91.9408650303  LPSA18    27             19.0000000000
     19776       639  BGLCNA    HO6            -9.8977653644       32.6228449684       91.5527691824  LPSA18    27             19.0000000000
     19777       640  AGAL      C1             -6.3972354596       31.3692514100       98.2431286073  LPSA18    28             20.0000000000
     19778       640  AGAL      H1             -7.3398596895       31.9535878709       98.3200689441  LPSA18    28             20.0000000000
     19779       640  AGAL      C5             -5.5503296461       29.1237083503       98.1275909928  LPSA18    28             20.0000000000
     19780       640  AGAL      H5             -4.7699833436       29.5198354757       97.4276523090  LPSA18    28             20.0000000000
     19781       640  AGAL      O5             -6.7162976654       29.9737993710       98.0562642864  LPSA18    28             20.0000000000
     19782       640  AGAL      C2             -5.6948176125       31.5089051499       99.6163455779  LPSA18    28             20.0000000000
     19783       640  AGAL      H2             -6.4694604041       31.0875996040      100.2960458213  LPSA18    28             20.0000000000
     19784       640  AGAL      O2             -5.4219100010       32.8246364964      100.1140572069  LPSA18    28             20.0000000000
     19785       640  AGAL      C3             -4.4593524278       30.6295272380       99.6948403853  LPSA18    28             20.0000000000
     19786       640  AGAL      H3             -3.7953272700       30.9097892430       98.8450440297  LPSA18    28             20.0000000000
     19787       640  AGAL      O3             -3.6334025585       30.7543310963      100.8606843130  LPSA18    28             20.0000000000
     19788       640  AGAL      HO3            -2.7596747658       31.0906663264      100.5885591022  LPSA18    28             20.0000000000
     19789       640  AGAL      C4             -4.9149489393       29.2088041380       99.4945035696  LPSA18    28             20.0000000000
     19790       640  AGAL      H4             -4.0070868424       28.5725632327       99.4729510098  LPSA18    28             20.0000000000
     19791       640  AGAL      O4             -5.7863384801       28.7301602319      100.5176685939  LPSA18    28             20.0000000000
     19792       640  AGAL      HO4            -5.2661221066       28.1755718214      101.0890487242  LPSA18    28             20.0000000000
     19793       640  AGAL      C6             -5.8482375044       27.7053322275       97.6482804999  LPSA18    28             20.0000000000
     19794       640  AGAL      H61            -6.1006153227       27.7596644164       96.5658006628  LPSA18    28             20.0000000000
     19795       640  AGAL      H62            -4.9622192885       27.0384361875       97.7556714463  LPSA18    28             20.0000000000
     19796       640  AGAL      O6             -6.9187544625       27.0688585931       98.3417437601  LPSA18    28             20.0000000000
     19797       640  AGAL      HO6            -7.7557051982       27.3800763337       97.9663243692  LPSA18    28             20.0000000000
     19798       641  ARHM      C1             -5.7240256554       32.9134604885      101.4916127938  LPSA18    29             21.0000000000
     19799       641  ARHM      H1             -5.6375475432       31.9152322309      101.9681627336  LPSA18    29             21.0000000000
     19800       641  ARHM      C5             -7.2347031553       34.7049779402      101.1427410779  LPSA18    29             21.0000000000
     19801       641  ARHM      H5             -6.9618074012       34.6624679864      100.0608649338  LPSA18    29             21.0000000000
     19802       641  ARHM      O5             -7.0476623588       33.4049672732      101.7157147574  LPSA18    29             21.0000000000
     19803       641  ARHM      C2             -4.7475625916       33.8192410044      102.1705585557  LPSA18    29             21.0000000000
     19804       641  ARHM      H2             -3.7216745372       33.4529346356      101.9193879438  LPSA18    29             21.0000000000
     19805       641  ARHM      O2             -4.9577295909       33.8090288031      103.6065221836  LPSA18    29             21.0000000000
     19806       641  ARHM      C3             -4.8866468347       35.2041663189      101.6095963820  LPSA18    29             21.0000000000
     19807       641  ARHM      H3             -4.6834565185       35.1974545613      100.5059872466  LPSA18    29             21.0000000000
     19808       641  ARHM      O3             -3.9195479168       36.0269843799      102.2433053580  LPSA18    29             21.0000000000
     19809       641  ARHM      HO3            -4.3183757996       36.9036050146      102.2143554862  LPSA18    29             21.0000000000
     19810       641  ARHM      C4             -6.3089088786       35.7203905561      101.8108646294  LPSA18    29             21.0000000000
     19811       641  ARHM      H4             -6.5408992150       35.7591513867      102.9022270894  LPSA18    29             21.0000000000
     19812       641  ARHM      O4             -6.4916156431       37.0563724164      101.3186802502  LPSA18    29             21.0000000000
     19813       641  ARHM      HO4            -6.2024397843       37.1986422263      100.4024439403  LPSA18    29             21.0000000000
     19814       641  ARHM      C6             -8.7422300933       34.9288428740      101.2223320937  LPSA18    29             21.0000000000
     19815       641  ARHM      H61            -9.2437011676       34.0426490063      100.7652561260  LPSA18    29             21.0000000000
     19816       641  ARHM      H62            -9.0842811776       35.0276966458      102.2713542208  LPSA18    29             21.0000000000
     19817       641  ARHM      H63            -9.0254772175       35.8305038627      100.6350510317  LPSA18    29             21.0000000000
     19818       642  ARHM      C1             -4.1309808873       32.9619560431      104.3710609336  LPSA18    30             22.0000000000
     19819       642  ARHM      H1             -3.0590713515       33.1867380553      104.1649164624  LPSA18    30             22.0000000000
     19820       642  ARHM      C5             -5.7253264092       31.1810883549      104.4934030473  LPSA18    30             22.0000000000
     19821       642  ARHM      H5             -6.4005558778       31.8458984980      103.9098526287  LPSA18    30             22.0000000000
     19822       642  ARHM      O5             -4.3773132600       31.5589885888      104.1603690520  LPSA18    30             22.0000000000
     19823       642  ARHM      C2             -4.4094655866       33.2531839269      105.8250125641  LPSA18    30             22.0000000000
     19824       642  ARHM      H2             -4.2532613927       34.3383244301      106.0309006763  LPSA18    30             22.0000000000
     19825       642  ARHM      O2             -3.5320201777       32.4453426672      106.5979188265  LPSA18    30             22.0000000000
     19826       642  ARHM      C3             -5.8181254727       32.8760751155      106.2209250447  LPSA18    30             22.0000000000
     19827       642  ARHM      H3             -6.4934113487       33.4100596773      105.5118825352  LPSA18    30             22.0000000000
     19828       642  ARHM      O3             -6.1563214198       33.3428287739      107.5424787492  LPSA18    30             22.0000000000
     19829       642  ARHM      C4             -6.0173176537       31.4055104132      105.9612395788  LPSA18    30             22.0000000000
     19830       642  ARHM      H4             -5.3087260105       30.7835193484      106.5526120300  LPSA18    30             22.0000000000
     19831       642  ARHM      O4             -7.3145982013       30.9500713123      106.3222217347  LPSA18    30             22.0000000000
     19832       642  ARHM      HO4            -7.9822760243       31.0795921468      105.6470496600  LPSA18    30             22.0000000000
     19833       642  ARHM      C6             -6.0156095831       29.7397718352      104.0574518848  LPSA18    30             22.0000000000
     19834       642  ARHM      H61            -7.0838931986       29.4965085818      104.2289531863  LPSA18    30             22.0000000000
     19835       642  ARHM      H62            -5.8071393895       29.6371933874      102.9748482075  LPSA18    30             22.0000000000
     19836       642  ARHM      H63            -5.4053401464       29.0398309535      104.6632300336  LPSA18    30             22.0000000000
     19837       643  BMANNA    C1             -2.3087020804       33.0350072089      106.9007559386  LPSA18    31             23.0000000000
     19838       643  BMANNA    H1             -2.4489086772       34.1020320109      107.1676412888  LPSA18    31             23.0000000000
     19839       643  BMANNA    C5             -0.0544241580       33.4082040924      106.2035103505  LPSA18    31             23.0000000000
     19840       643  BMANNA    H5             -0.2501110802       34.4576745824      106.5025631171  LPSA18    31             23.0000000000
     19841       643  BMANNA    O5             -1.3401422676       32.8635140200      105.8591703471  LPSA18    31             23.0000000000
     19842       643  BMANNA    C2             -1.8356882188       32.2682427433      108.0872852338  LPSA18    31             23.0000000000
     19843       643  BMANNA    H2             -2.5575654163       32.4869561575      108.9146217881  LPSA18    31             23.0000000000
     19844       643  BMANNA    N              -1.8734525218       30.8394106986      107.8239713781  LPSA18    31             23.0000000000
     19845       643  BMANNA    HN             -1.8230920804       30.5747305988      106.8640966051  LPSA18    31             23.0000000000
     19846       643  BMANNA    C              -2.0352845682       29.9296707908      108.7793720254  LPSA18    31             23.0000000000
     19847       643  BMANNA    O              -2.1943820873       30.2541526579      109.9498281593  LPSA18    31             23.0000000000
     19848       643  BMANNA    CT             -2.0269800759       28.5005821681      108.3464605184  LPSA18    31             23.0000000000
     19849       643  BMANNA    HT1            -1.2055404628       28.3809689995      107.6027291590  LPSA18    31             23.0000000000
     19850       643  BMANNA    HT2            -2.9946502637       28.2290663741      107.8932686633  LPSA18    31             23.0000000000
     19851       643  BMANNA    HT3            -1.8394296683       27.8206820130      109.1970626942  LPSA18    31             23.0000000000
     19852       643  BMANNA    C3             -0.5062972270       32.8417456482      108.5050485214  LPSA18    31             23.0000000000
     19853       643  BMANNA    H3             -0.6220281630       33.9347845632      108.6732798412  LPSA18    31             23.0000000000
     19854       643  BMANNA    O3             -0.1189718112       32.3286268466      109.7575850556  LPSA18    31             23.0000000000
     19855       643  BMANNA    HO3            -0.8840840767       31.8648905439      110.1312799922  LPSA18    31             23.0000000000
     19856       643  BMANNA    C4              0.5052139139       32.6840955568      107.4007959495  LPSA18    31             23.0000000000
     19857       643  BMANNA    H4              0.6419084097       31.6204509469      107.1032394848  LPSA18    31             23.0000000000
     19858       643  BMANNA    O4              1.7801932323       33.2197264545      107.7217062250  LPSA18    31             23.0000000000
     19859       643  BMANNA    HO4             1.7055633123       34.0298204464      108.2292932885  LPSA18    31             23.0000000000
     19860       643  BMANNA    C6              0.9348209550       33.4340523297      105.0455957313  LPSA18    31             23.0000000000
     19861       643  BMANNA    H61             1.8127998336       34.0658947698      105.3186404151  LPSA18    31             23.0000000000
     19862       643  BMANNA    H62             1.3339093846       32.4097089366      104.8723831458  LPSA18    31             23.0000000000
     19863       643  BMANNA    O6              0.3617796866       33.9102013877      103.8241350599  LPSA18    31             23.0000000000
     19864       643  BMANNA    HO6             0.2194197298       34.8635538245      103.8361765786  LPSA18    31             23.0000000000
     19865       644  BGLCNA    C1             -5.7324428773       32.5320710534      108.6162115856  LPSA18    32             23.0000000000
     19866       644  BGLCNA    H1             -4.7381322344       32.1010883865      108.4080701605  LPSA18    32             23.0000000000
     19867       644  BGLCNA    C5             -6.1228874133       30.5760538945      109.9245885407  LPSA18    32             23.0000000000
     19868       644  BGLCNA    H5             -5.1238975531       30.2126845746      109.5801203836  LPSA18    32             23.0000000000
     19869       644  BGLCNA    O5             -6.6234601588       31.4580246481      108.9118792505  LPSA18    32             23.0000000000
     19870       644  BGLCNA    C2             -5.5969460113       33.3834798514      109.8548589898  LPSA18    32             23.0000000000
     19871       644  BGLCNA    H2             -6.6361294755       33.6713586898      110.1489524534  LPSA18    32             23.0000000000
     19872       644  BGLCNA    N              -4.8413503011       34.5787609049      109.5643130884  LPSA18    32             23.0000000000
     19873       644  BGLCNA    HN             -4.1449371144       34.4368233546      108.8816779476  LPSA18    32             23.0000000000
     19874       644  BGLCNA    C              -5.0412406720       35.8011241295      110.0753180732  LPSA18    32             23.0000000000
     19875       644  BGLCNA    O              -5.9043036628       36.0491526171      110.8964741314  LPSA18    32             23.0000000000
     19876       644  BGLCNA    CT             -4.1079183972       36.8420532848      109.5288562149  LPSA18    32             23.0000000000
     19877       644  BGLCNA    HT1            -3.6390949192       36.4537814917      108.6036923402  LPSA18    32             23.0000000000
     19878       644  BGLCNA    HT2            -3.2964266008       37.0623620552      110.2548981890  LPSA18    32             23.0000000000
     19879       644  BGLCNA    HT3            -4.6371277925       37.7966849682      109.3250125561  LPSA18    32             23.0000000000
     19880       644  BGLCNA    C3             -4.9747448477       32.5114725300      110.9228617113  LPSA18    32             23.0000000000
     19881       644  BGLCNA    H3             -4.0547808914       32.0694394289      110.4745578262  LPSA18    32             23.0000000000
     19882       644  BGLCNA    O3             -4.5780171225       33.2384517541      112.0965604173  LPSA18    32             23.0000000000
     19883       644  BGLCNA    C4             -5.9337896935       31.3741299369      111.1992566254  LPSA18    32             23.0000000000
     19884       644  BGLCNA    H4             -6.9118941545       31.8094795006      111.5069563096  LPSA18    32             23.0000000000
     19885       644  BGLCNA    O4             -5.4859598920       30.5239415985      112.2409551576  LPSA18    32             23.0000000000
     19886       644  BGLCNA    HO4            -5.8098727360       30.8751016486      113.0791843736  LPSA18    32             23.0000000000
     19887       644  BGLCNA    C6             -7.0114228068       29.3436373822      110.0462069011  LPSA18    32             23.0000000000
     19888       644  BGLCNA    H61            -6.5588272096       28.5957219492      110.7324355555  LPSA18    32             23.0000000000
     19889       644  BGLCNA    H62            -7.9935402064       29.6370784860      110.4919574181  LPSA18    32             23.0000000000
     19890       644  BGLCNA    O6             -7.1938131712       28.6714700127      108.7897062089  LPSA18    32             23.0000000000
     19891       644  BGLCNA    HO6            -6.4293943252       28.8110028477      108.2218603025  LPSA18    32             23.0000000000
     19892       645  AGAL      C1             -3.3778963301       32.7666605307      112.6810749786  LPSA18    33             24.0000000000
     19893       645  AGAL      H1             -3.3241038100       31.6602021910      112.6081349923  LPSA18    33             24.0000000000
     19894       645  AGAL      C5             -2.1154937958       34.7549561867      112.2045344646  LPSA18    33             24.0000000000
     19895       645  AGAL      H5             -3.0926646957       35.1307591218      111.8297333734  LPSA18    33             24.0000000000
     19896       645  AGAL      O5             -2.2020053174       33.3206019372      112.0638933539  LPSA18    33             24.0000000000
     19897       645  AGAL      C2             -3.3465305269       33.1672709351      114.1436148036  LPSA18    33             24.0000000000
     19898       645  AGAL      H2             -2.3535874361       32.8384641863      114.5237304335  LPSA18    33             24.0000000000
     19899       645  AGAL      O2             -4.3207382901       32.3992456374      114.8863938574  LPSA18    33             24.0000000000
     19900       645  AGAL      C3             -3.3450437201       34.6910807797      114.2960185613  LPSA18    33             24.0000000000
     19901       645  AGAL      H3             -4.1939664283       35.1346766797      113.7182276122  LPSA18    33             24.0000000000
     19902       645  AGAL      O3             -3.5897922169       35.1206862042      115.6306731867  LPSA18    33             24.0000000000
     19903       645  AGAL      HO3            -2.9475913101       34.7786660271      116.2518613350  LPSA18    33             24.0000000000
     19904       645  AGAL      C4             -2.0643925953       35.2326004750      113.6518140556  LPSA18    33             24.0000000000
     19905       645  AGAL      H4             -2.0803377449       36.3464813786      113.6500534188  LPSA18    33             24.0000000000
     19906       645  AGAL      O4             -0.8498384592       34.8869322863      114.3168489518  LPSA18    33             24.0000000000
     19907       645  AGAL      HO4            -0.8720983733       34.0809850953      114.8267613723  LPSA18    33             24.0000000000
     19908       645  AGAL      C6             -1.0832493504       35.3650180848      111.2589977010  LPSA18    33             24.0000000000
     19909       645  AGAL      H61            -1.4307638841       35.1343786341      110.2344775049  LPSA18    33             24.0000000000
     19910       645  AGAL      H62            -1.0534767744       36.4735356554      111.3625741977  LPSA18    33             24.0000000000
     19911       645  AGAL      O6              0.2552308900       34.8864574219      111.3929025618  LPSA18    33             24.0000000000
     19912       645  AGAL      HO6             0.4191032731       34.1113822028      110.8411213962  LPSA18    33             24.0000000000
     19913       646  ARHM      C1             -3.8092613371       31.7751877284      116.0554333179  LPSA18    34             25.0000000000
     19914       646  ARHM      H1             -3.2930155394       32.5533375043      116.6574369819  LPSA18    34             25.0000000000
     19915       646  ARHM      C5             -3.4128135797       29.5954422198      115.0677073255  LPSA18    34             25.0000000000
     19916       646  ARHM      H5             -3.6917025657       29.9837764174      114.0659941100  LPSA18    34             25.0000000000
     19917       646  ARHM      O5             -2.8681761378       30.6981008926      115.8229014204  LPSA18    34             25.0000000000
     19918       646  ARHM      C2             -4.9907986358       31.2143647918      116.8157928035  LPSA18    34             25.0000000000
     19919       646  ARHM      H2             -5.7595315677       31.9673364175      116.9036770163  LPSA18    34             25.0000000000
     19920       646  ARHM      O2             -4.7263033557       30.8353514221      118.1822974701  LPSA18    34             25.0000000000
     19921       646  ARHM      C3             -5.6534429247       30.1295990363      115.9904316322  LPSA18    34             25.0000000000
     19922       646  ARHM      H3             -5.9276949914       30.5214292824      114.9833186107  LPSA18    34             25.0000000000
     19923       646  ARHM      O3             -6.8826755225       29.7165710297      116.5930101348  LPSA18    34             25.0000000000
     19924       646  ARHM      HO3            -7.4930570771       29.2861768399      115.9715855166  LPSA18    34             25.0000000000
     19925       646  ARHM      C4             -4.6423947486       29.0367276823      115.7911177273  LPSA18    34             25.0000000000
     19926       646  ARHM      H4             -4.2778370692       28.6669920324      116.7790077445  LPSA18    34             25.0000000000
     19927       646  ARHM      O4             -5.2327630727       27.9613765265      115.0676367374  LPSA18    34             25.0000000000
     19928       646  ARHM      HO4            -5.7691370917       27.4413743056      115.6880227736  LPSA18    34             25.0000000000
     19929       646  ARHM      C6             -2.3609866157       28.4693889345      114.8369310308  LPSA18    34             25.0000000000
     19930       646  ARHM      H61            -1.9732417874       28.0448594193      115.7850067198  LPSA18    34             25.0000000000
     19931       646  ARHM      H62            -2.8701286440       27.6208160447      114.3349289234  LPSA18    34             25.0000000000
     19932       646  ARHM      H63            -1.5197951191       28.7953126236      114.1917597779  LPSA18    34             25.0000000000
     19933       647  ARHM      C1             -4.1547129352       31.7929498837      119.0598547708  LPSA18    35             26.0000000000
     19934       647  ARHM      H1             -4.5724777492       32.8134154727      118.8726734025  LPSA18    35             26.0000000000
     19935       647  ARHM      C5             -2.1385745142       30.4984042364      119.1837015190  LPSA18    35             26.0000000000
     19936       647  ARHM      H5             -2.5432413741       29.7388128899      118.4886651897  LPSA18    35             26.0000000000
     19937       647  ARHM      O5             -2.7187090011       31.7948618445      118.9272300184  LPSA18    35             26.0000000000
     19938       647  ARHM      C2             -4.4939330546       31.4185798908      120.5038101906  LPSA18    35             26.0000000000
     19939       647  ARHM      H2             -5.6020420203       31.4117569526      120.6559214896  LPSA18    35             26.0000000000
     19940       647  ARHM      O2             -3.9184273449       32.3546955903      121.4327796057  LPSA18    35             26.0000000000
     19941       647  ARHM      C3             -3.9781437404       30.0330005996      120.8127016159  LPSA18    35             26.0000000000
     19942       647  ARHM      H3             -4.4116922938       29.2984694971      120.0999278295  LPSA18    35             26.0000000000
     19943       647  ARHM      O3             -4.3847395333       29.6163034276      122.1217965208  LPSA18    35             26.0000000000
     19944       647  ARHM      HO3            -4.3486123419       30.3797097554      122.7151625234  LPSA18    35             26.0000000000
     19945       647  ARHM      C4             -2.4756268596       30.0493375104      120.6059763327  LPSA18    35             26.0000000000
     19946       647  ARHM      H4             -2.0409548307       30.8032330333      121.2641991004  LPSA18    35             26.0000000000
     19947       647  ARHM      O4             -1.8840239242       28.7887070517      120.9169392471  LPSA18    35             26.0000000000
     19948       647  ARHM      HO4            -2.3971205437       28.0546122978      120.5581534333  LPSA18    35             26.0000000000
     19949       647  ARHM      C6             -0.6263958522       30.5912288051      118.8568419309  LPSA18    35             26.0000000000
     19950       647  ARHM      H61            -0.4583234636       30.7542259142      117.7748979232  LPSA18    35             26.0000000000
     19951       647  ARHM      H62            -0.1448340999       31.4079389020      119.4242647942  LPSA18    35             26.0000000000
     19952       647  ARHM      H63            -0.1353000255       29.6236566638      119.1120887680  LPSA18    35             26.0000000000
     19953       648  BMANNA    C1             -4.5630608798       33.6061747711      121.4655310560  LPSA18    36             27.0000000000
     19954       648  BMANNA    H1             -5.6146461087       33.5216382617      121.1209048895  LPSA18    36             27.0000000000
     19955       648  BMANNA    C5             -4.7037173089       35.8409918067      120.7163551269  LPSA18    36             27.0000000000
     19956       648  BMANNA    H5             -5.7601656256       35.6527423040      120.4237848141  LPSA18    36             27.0000000000
     19957       648  BMANNA    O5             -3.9534963796       34.6027470898      120.6434748869  LPSA18    36             27.0000000000
     19958       648  BMANNA    C2             -4.5214580575       34.0698699392      122.9127425914  LPSA18    36             27.0000000000
     19959       648  BMANNA    H2             -5.0847561859       33.2872709236      123.4781272850  LPSA18    36             27.0000000000
     19960       648  BMANNA    N              -3.1757155698       34.1694177665      123.4823080152  LPSA18    36             27.0000000000
     19961       648  BMANNA    HN             -2.4670955565       34.4965719442      122.8638773495  LPSA18    36             27.0000000000
     19962       648  BMANNA    C              -2.9302336057       34.0289071321      124.7992193156  LPSA18    36             27.0000000000
     19963       648  BMANNA    O              -3.7853275037       33.6736343298      125.5893922580  LPSA18    36             27.0000000000
     19964       648  BMANNA    CT             -1.5674018306       34.3550504477      125.3306267638  LPSA18    36             27.0000000000
     19965       648  BMANNA    HT1            -1.2063551453       35.2952855340      124.8700967210  LPSA18    36             27.0000000000
     19966       648  BMANNA    HT2            -0.8454059968       33.5438637807      125.1346446512  LPSA18    36             27.0000000000
     19967       648  BMANNA    HT3            -1.6124860180       34.4779457246      126.4364569949  LPSA18    36             27.0000000000
     19968       648  BMANNA    C3             -5.3123150212       35.3580684835      123.0299460547  LPSA18    36             27.0000000000
     19969       648  BMANNA    H3             -6.3530696038       35.1952532961      122.6506102830  LPSA18    36             27.0000000000
     19970       648  BMANNA    O3             -5.4180679791       35.8059866689      124.3858183178  LPSA18    36             27.0000000000
     19971       648  BMANNA    HO3            -6.3343005273       35.9149580875      124.6559515693  LPSA18    36             27.0000000000
     19972       648  BMANNA    C4             -4.7021945985       36.3914167677      122.1335069947  LPSA18    36             27.0000000000
     19973       648  BMANNA    H4             -3.6601785082       36.6280935964      122.4534331167  LPSA18    36             27.0000000000
     19974       648  BMANNA    O4             -5.4443700181       37.5889799776      122.2352846763  LPSA18    36             27.0000000000
     19975       648  BMANNA    HO4            -5.3422155686       37.8152658254      123.1625888040  LPSA18    36             27.0000000000
     19976       648  BMANNA    C6             -4.1685048763       36.8288630060      119.7486936467  LPSA18    36             27.0000000000
     19977       648  BMANNA    H61            -4.1651658035       36.4330411006      118.7074936382  LPSA18    36             27.0000000000
     19978       648  BMANNA    H62            -4.8263875888       37.7263552627      119.7291774190  LPSA18    36             27.0000000000
     19979       648  BMANNA    O6             -2.8658187651       37.1676575766      120.2108147686  LPSA18    36             27.0000000000
     19980       648  BMANNA    HO6            -2.9065602960       38.0443318285      120.6378979735  LPSA18    36             27.0000000000
     19981       649  ECLIPA    HB6S            8.2519265162       32.2206260031       20.4216818709  LPSA19    1               0.0000000000
     19982       649  ECLIPA    OB6             9.7829166596       31.7529643164       21.7215130682  LPSA19    1               0.0000000000
     19983       649  ECLIPA    CB6             9.2501928864       32.6202969806       20.6991168286  LPSA19    1               0.0000000000
     19984       649  ECLIPA    HB6R            9.1048239616       33.6507753308       21.0974546947  LPSA19    1               0.0000000000
     19985       649  ECLIPA    CB5            10.0996964151       32.7368039210       19.4356869339  LPSA19    1               0.0000000000
     19986       649  ECLIPA    OB5            10.3014786285       31.3870472433       18.9651146364  LPSA19    1               0.0000000000
     19987       649  ECLIPA    HB5            11.0671095819       33.1963000402       19.7414894764  LPSA19    1               0.0000000000
     19988       649  ECLIPA    CB1            11.1089441735       31.3443924522       17.7845755891  LPSA19    1               0.0000000000
     19989       649  ECLIPA    HB1            12.1011808134       31.8204807876       17.9655350362  LPSA19    1               0.0000000000
     19990       649  ECLIPA    OA6            11.3584551916       30.0330057265       17.3291430858  LPSA19    1               0.0000000000
     19991       649  ECLIPA    CA6            10.2902947028       29.0976290976       17.5622150383  LPSA19    1               0.0000000000
     19992       649  ECLIPA    HA6R            9.3099052943       29.5946455285       17.7535883255  LPSA19    1               0.0000000000
     19993       649  ECLIPA    HA6S           10.5590209199       28.4802343698       18.4508053736  LPSA19    1               0.0000000000
     19994       649  ECLIPA    CB4             9.4501518855       33.6034034982       18.3308796702  LPSA19    1               0.0000000000
     19995       649  ECLIPA    HB4             8.4341601316       33.2250882040       18.0548069786  LPSA19    1               0.0000000000
     19996       649  ECLIPA    OB4             9.4281785323       34.9494437021       18.8249410053  LPSA19    1               0.0000000000
     19997       649  ECLIPA    PB              8.0259747091       35.7058104986       19.2843987953  LPSA19    1               0.0000000000
     19998       649  ECLIPA    OPB4            8.3996111296       36.6348927511       20.4343966519  LPSA19    1               0.0000000000
     19999       649  ECLIPA    OPB3            7.1244159677       34.5358095201       19.7030332466  LPSA19    1               0.0000000000
     20000       649  ECLIPA    OPB2            7.5710965105       36.4708147189       18.0380132053  LPSA19    1               0.0000000000
     20001       649  ECLIPA    CB3            10.3208788924       33.5456942872       17.0922060459  LPSA19    1               0.0000000000
     20002       649  ECLIPA    OB3             9.7930797752       34.2108789252       15.9442142884  LPSA19    1               0.0000000000
     20003       649  ECLIPA    HB3            11.3525899077       33.8984116248       17.3392504390  LPSA19    1               0.0000000000
     20004       649  ECLIPA    C71            10.0583308893       35.4800684711       15.7690499668  LPSA19    1               0.0000000000
     20005       649  ECLIPA    O71            10.9520776430       36.1034182338       16.3282361564  LPSA19    1               0.0000000000
     20006       649  ECLIPA    C72             9.4855214769       35.9095986316       14.3894937865  LPSA19    1               0.0000000000
     20007       649  ECLIPA    H72R            9.8643277941       35.2307078771       13.5975325970  LPSA19    1               0.0000000000
     20008       649  ECLIPA    H72S            9.8077362701       36.9449250675       14.1701529705  LPSA19    1               0.0000000000
     20009       649  ECLIPA    CB2            10.4549274558       32.1003707976       16.6665058399  LPSA19    1               0.0000000000
     20010       649  ECLIPA    HB2             9.4190424849       31.6820491286       16.5147551649  LPSA19    1               0.0000000000
     20011       649  ECLIPA    NB2            11.2593280483       31.9940564524       15.4516498418  LPSA19    1               0.0000000000
     20012       649  ECLIPA    HNB2           12.2398481207       31.8952575918       15.5710958904  LPSA19    1               0.0000000000
     20013       649  ECLIPA    CA4            11.4733661272       27.7416690983       15.8037996282  LPSA19    1               0.0000000000
     20014       649  ECLIPA    HA4            12.0518574567       28.6644235765       15.5383884856  LPSA19    1               0.0000000000
     20015       649  ECLIPA    OA4            12.1222274610       26.9964252491       16.8402694653  LPSA19    1               0.0000000000
     20016       649  ECLIPA    HOA4           12.1609734299       27.6206932643       17.5827521047  LPSA19    1               0.0000000000
     20017       649  ECLIPA    CA5            10.1411997461       28.2145937994       16.3391266782  LPSA19    1               0.0000000000
     20018       649  ECLIPA    HA5             9.4384818874       27.3807514280       16.5660583512  LPSA19    1               0.0000000000
     20019       649  ECLIPA    OA5             9.5484994064       29.0173222306       15.3384508174  LPSA19    1               0.0000000000
     20020       649  ECLIPA    CA1             9.2989578831       28.3188585179       14.1034440627  LPSA19    1               0.0000000000
     20021       649  ECLIPA    HA1             9.0033013885       29.1472221230       13.4219082267  LPSA19    1               0.0000000000
     20022       649  ECLIPA    OA1             8.2703176686       27.3474046993       14.1495620151  LPSA19    1               0.0000000000
     20023       649  ECLIPA    OPA2            6.7016027311       27.0352429097       16.0400158456  LPSA19    1               0.0000000000
     20024       649  ECLIPA    OPA3            6.7593946538       29.3165927774       14.8292554964  LPSA19    1               0.0000000000
     20025       649  ECLIPA    OPA4            5.7973614298       27.3084796382       13.6442543639  LPSA19    1               0.0000000000
     20026       649  ECLIPA    PA              6.7802201571       27.7985268071       14.7046514718  LPSA19    1               0.0000000000
     20027       649  ECLIPA    CA3            11.3169220502       26.9487366914       14.5231865739  LPSA19    1               0.0000000000
     20028       649  ECLIPA    HA3            10.7253456603       26.0296692938       14.7210367727  LPSA19    1               0.0000000000
     20029       649  ECLIPA    OA3            12.6592715193       26.5400240163       14.1871368731  LPSA19    1               0.0000000000
     20030       649  ECLIPA    C31            13.4253631262       27.4711738060       13.5287123886  LPSA19    1               0.0000000000
     20031       649  ECLIPA    O31            13.4422618426       27.5350763142       12.3133559074  LPSA19    1               0.0000000000
     20032       649  ECLIPA    C32            14.6226934060       27.8533731903       14.4120436280  LPSA19    1               0.0000000000
     20033       649  ECLIPA    H32R           15.5748799489       27.5990568998       13.9776080267  LPSA19    1               0.0000000000
     20034       649  ECLIPA    H32S           14.6192828695       27.2848409834       15.3526387007  LPSA19    1               0.0000000000
     20035       649  ECLIPA    CA2            10.6038992772       27.8299559134       13.5044092200  LPSA19    1               0.0000000000
     20036       649  ECLIPA    HA2            11.2144503978       28.7449041252       13.3358640795  LPSA19    1               0.0000000000
     20037       649  ECLIPA    NA2            10.3967268625       27.1458655764       12.2155694645  LPSA19    1               0.0000000000
     20038       649  ECLIPA    HNA2           10.8810511853       26.2962424422       12.0890239960  LPSA19    1               0.0000000000
     20039       649  ECLIPA    C73             7.9492421488       35.7930786940       14.3607143344  LPSA19    1               0.0000000000
     20040       649  ECLIPA    H73R            7.5411625886       36.2840078647       15.2842061281  LPSA19    1               0.0000000000
     20041       649  ECLIPA    O73             7.6329792148       34.4075855353       14.2742190264  LPSA19    1               0.0000000000
     20042       649  ECLIPA    C81             6.5812634754       33.9450211153       14.9465319875  LPSA19    1               0.0000000000
     20043       649  ECLIPA    O81             5.7803092573       34.6429566425       15.5450999198  LPSA19    1               0.0000000000
     20044       649  ECLIPA    C82             6.2031756240       32.5794272382       14.3410778355  LPSA19    1               0.0000000000
     20045       649  ECLIPA    H82R            5.3160449592       32.1767065922       14.8713995675  LPSA19    1               0.0000000000
     20046       649  ECLIPA    H82S            7.0348824835       31.8740549056       14.5547161042  LPSA19    1               0.0000000000
     20047       649  ECLIPA    C83             5.9581811345       32.6078298245       12.8102835006  LPSA19    1               0.0000000000
     20048       649  ECLIPA    H83R            6.9451991355       32.5805566344       12.2911030800  LPSA19    1               0.0000000000
     20049       649  ECLIPA    H83S            5.4513588147       33.5526703070       12.5361025649  LPSA19    1               0.0000000000
     20050       649  ECLIPA    C84             5.1764505216       31.3873058436       12.2915439972  LPSA19    1               0.0000000000
     20051       649  ECLIPA    H84R            4.1106798159       31.4236534170       12.5928766206  LPSA19    1               0.0000000000
     20052       649  ECLIPA    H84S            5.6469697971       30.4847357449       12.7639773958  LPSA19    1               0.0000000000
     20053       649  ECLIPA    C85             5.3008933200       31.2067464601       10.7703978627  LPSA19    1               0.0000000000
     20054       649  ECLIPA    H85R            6.3728164483       31.4036154901       10.5447818376  LPSA19    1               0.0000000000
     20055       649  ECLIPA    H85S            4.7126252429       31.9802254730       10.2350412274  LPSA19    1               0.0000000000
     20056       649  ECLIPA    C86             5.0098955796       29.7680164604       10.2861125005  LPSA19    1               0.0000000000
     20057       649  ECLIPA    H86R            3.9433723659       29.6467423879        9.9950721532  LPSA19    1               0.0000000000
     20058       649  ECLIPA    H86S            5.1882219070       29.0571257520       11.1302501794  LPSA19    1               0.0000000000
     20059       649  ECLIPA    C87             5.9623822346       29.3173102886        9.1596315686  LPSA19    1               0.0000000000
     20060       649  ECLIPA    H87R            5.6614192906       28.3107388607        8.7970341636  LPSA19    1               0.0000000000
     20061       649  ECLIPA    H87S            6.9904941382       29.2037217026        9.5768331379  LPSA19    1               0.0000000000
     20062       649  ECLIPA    C88             6.0495509957       30.3345326071        8.0201950655  LPSA19    1               0.0000000000
     20063       649  ECLIPA    H88R            6.6787269914       31.1874950969        8.3497857989  LPSA19    1               0.0000000000
     20064       649  ECLIPA    H88S            5.0360277358       30.7715668609        7.8791535055  LPSA19    1               0.0000000000
     20065       649  ECLIPA    C89             6.6257582470       29.7537316849        6.7149641268  LPSA19    1               0.0000000000
     20066       649  ECLIPA    H89R            7.2157029912       28.8275582647        6.8947906754  LPSA19    1               0.0000000000
     20067       649  ECLIPA    H89S            7.3356794437       30.4762994833        6.2586148955  LPSA19    1               0.0000000000
     20068       649  ECLIPA    C810            5.5070872554       29.5162246808        5.6962625841  LPSA19    1               0.0000000000
     20069       649  ECLIPA    H810R           4.7114372468       30.2549177222        5.9306246756  LPSA19    1               0.0000000000
     20070       649  ECLIPA    H810S           5.0996994826       28.4940288389        5.8632159493  LPSA19    1               0.0000000000
     20071       649  ECLIPA    C811            5.9479594468       29.6775464701        4.2335871656  LPSA19    1               0.0000000000
     20072       649  ECLIPA    H811R           5.2496865654       29.1542071971        3.5398065576  LPSA19    1               0.0000000000
     20073       649  ECLIPA    H811S           6.9549012414       29.2102507516        4.1550787193  LPSA19    1               0.0000000000
     20074       649  ECLIPA    C812            6.1031972998       31.1237729984        3.7343397939  LPSA19    1               0.0000000000
     20075       649  ECLIPA    H812R           6.5535974316       31.0592489156        2.7125866052  LPSA19    1               0.0000000000
     20076       649  ECLIPA    H812S           6.7973000391       31.6680816397        4.4075659215  LPSA19    1               0.0000000000
     20077       649  ECLIPA    C813            4.8177405585       31.9481052748        3.6358517764  LPSA19    1               0.0000000000
     20078       649  ECLIPA    H813R           4.1358271206       31.4326078629        2.9275117755  LPSA19    1               0.0000000000
     20079       649  ECLIPA    H813S           4.3029795306       32.0133360057        4.6233969253  LPSA19    1               0.0000000000
     20080       649  ECLIPA    C814            5.0766844800       33.3682593735        3.1309259059  LPSA19    1               0.0000000000
     20081       649  ECLIPA    H814R           5.7156883066       33.3765634927        2.2193792933  LPSA19    1               0.0000000000
     20082       649  ECLIPA    H814S           5.5838838085       33.9621123780        3.9193623918  LPSA19    1               0.0000000000
     20083       649  ECLIPA    H814T           4.1150038150       33.8626079174        2.8887034448  LPSA19    1               0.0000000000
     20084       649  ECLIPA    C74             7.2922902592       36.4566787162       13.1292121985  LPSA19    1               0.0000000000
     20085       649  ECLIPA    H74R            7.4651460057       37.5317538932       13.0521602287  LPSA19    1               0.0000000000
     20086       649  ECLIPA    H74S            6.2143463943       36.2872181033       13.3000741953  LPSA19    1               0.0000000000
     20087       649  ECLIPA    C75             7.5544992545       35.7794558042       11.7733089611  LPSA19    1               0.0000000000
     20088       649  ECLIPA    H75R            6.6056700109       35.8154096216       11.1914880393  LPSA19    1               0.0000000000
     20089       649  ECLIPA    H75S            7.7728932817       34.7072864497       11.9647992161  LPSA19    1               0.0000000000
     20090       649  ECLIPA    C76             8.6950001358       36.3801760933       10.9452496568  LPSA19    1               0.0000000000
     20091       649  ECLIPA    H76R            9.6631937473       36.0419474798       11.3765454677  LPSA19    1               0.0000000000
     20092       649  ECLIPA    H76S            8.6831331336       37.4912075384       10.9805637487  LPSA19    1               0.0000000000
     20093       649  ECLIPA    C77             8.6725234439       35.9877956020        9.4543664119  LPSA19    1               0.0000000000
     20094       649  ECLIPA    H77R            7.7633698350       36.4252874336        8.9925248030  LPSA19    1               0.0000000000
     20095       649  ECLIPA    H77S            8.5865830227       34.8986182038        9.3126797614  LPSA19    1               0.0000000000
     20096       649  ECLIPA    C78             9.9924863128       36.4338012422        8.8008980486  LPSA19    1               0.0000000000
     20097       649  ECLIPA    H78R           10.1536195419       37.5017086861        9.0662902777  LPSA19    1               0.0000000000
     20098       649  ECLIPA    H78S           10.7917385240       35.8554858730        9.3200602458  LPSA19    1               0.0000000000
     20099       649  ECLIPA    C79            10.1869362576       36.1567781262        7.2923158504  LPSA19    1               0.0000000000
     20100       649  ECLIPA    H79R           10.7245305873       35.1876360878        7.1707466925  LPSA19    1               0.0000000000
     20101       649  ECLIPA    H79S           10.8286514567       36.9404933939        6.8311214633  LPSA19    1               0.0000000000
     20102       649  ECLIPA    C710            8.9142479579       36.1458626135        6.4527260692  LPSA19    1               0.0000000000
     20103       649  ECLIPA    H710R           8.1831534939       35.4197478626        6.8650866268  LPSA19    1               0.0000000000
     20104       649  ECLIPA    H710S           8.4699685166       37.1653216579        6.4871446530  LPSA19    1               0.0000000000
     20105       649  ECLIPA    C711            9.1551311902       35.7761102258        4.9901148081  LPSA19    1               0.0000000000
     20106       649  ECLIPA    H711R           9.8679776690       36.5006655637        4.5355173369  LPSA19    1               0.0000000000
     20107       649  ECLIPA    H711S           9.5876886614       34.7508838501        4.9222528856  LPSA19    1               0.0000000000
     20108       649  ECLIPA    C712            7.8195883720       35.7845256779        4.2522151584  LPSA19    1               0.0000000000
     20109       649  ECLIPA    H712R           7.4148695982       36.8214519082        4.2610652622  LPSA19    1               0.0000000000
     20110       649  ECLIPA    H712S           7.1224286318       35.1432330563        4.8310173652  LPSA19    1               0.0000000000
     20111       649  ECLIPA    C713            7.9319454215       35.2516422111        2.8362513961  LPSA19    1               0.0000000000
     20112       649  ECLIPA    H713R           8.2660056344       34.1903587921        2.8523331452  LPSA19    1               0.0000000000
     20113       649  ECLIPA    H713S           6.9290279525       35.2678154721        2.3554346132  LPSA19    1               0.0000000000
     20114       649  ECLIPA    C714            8.8924585658       36.0737219865        2.0024012150  LPSA19    1               0.0000000000
     20115       649  ECLIPA    H714R           8.4669356877       37.0756346903        1.8527092864  LPSA19    1               0.0000000000
     20116       649  ECLIPA    H714S           9.9387103047       36.1053133006        2.3280721842  LPSA19    1               0.0000000000
     20117       649  ECLIPA    H714T           9.0227807015       35.5868913379        1.0560038958  LPSA19    1               0.0000000000
     20118       649  ECLIPA    C51            10.7119250967       32.0867943686       14.2314728859  LPSA19    1               0.0000000000
     20119       649  ECLIPA    O51             9.5088986267       31.9947044312       14.0737015647  LPSA19    1               0.0000000000
     20120       649  ECLIPA    C52            11.6252648940       32.3651414957       13.0558743890  LPSA19    1               0.0000000000
     20121       649  ECLIPA    H52R           11.7614356249       33.4638635043       12.9306378713  LPSA19    1               0.0000000000
     20122       649  ECLIPA    H52S           12.6113554026       31.9178367536       13.2478640241  LPSA19    1               0.0000000000
     20123       649  ECLIPA    C53            11.0272264269       31.7708973176       11.7628379468  LPSA19    1               0.0000000000
     20124       649  ECLIPA    H53R           10.4816021601       30.8200128165       11.9854045028  LPSA19    1               0.0000000000
     20125       649  ECLIPA    O53            12.1275089810       31.5943686731       10.8523895712  LPSA19    1               0.0000000000
     20126       649  ECLIPA    C61            12.4826293413       30.3566154802       10.5248142976  LPSA19    1               0.0000000000
     20127       649  ECLIPA    O61            11.9259844487       29.3386285605       10.8617393456  LPSA19    1               0.0000000000
     20128       649  ECLIPA    C62            13.7007181530       30.3958186307        9.5923592026  LPSA19    1               0.0000000000
     20129       649  ECLIPA    H62R           14.6086575869       30.5036815934       10.2151749795  LPSA19    1               0.0000000000
     20130       649  ECLIPA    H62S           13.6041982678       31.3280605007        9.0046946019  LPSA19    1               0.0000000000
     20131       649  ECLIPA    C63            13.7935394777       29.1133960301        8.7062296709  LPSA19    1               0.0000000000
     20132       649  ECLIPA    H63R           12.7866995153       28.9159386596        8.2759739466  LPSA19    1               0.0000000000
     20133       649  ECLIPA    H63S           14.0796799596       28.2343988667        9.3308207251  LPSA19    1               0.0000000000
     20134       649  ECLIPA    C64            14.7622232191       29.1922275840        7.5093878963  LPSA19    1               0.0000000000
     20135       649  ECLIPA    H64R           14.8025995286       28.2073254582        6.9877784008  LPSA19    1               0.0000000000
     20136       649  ECLIPA    H64S           15.7688409864       29.4219771615        7.9216463222  LPSA19    1               0.0000000000
     20137       649  ECLIPA    C65            14.3226568043       30.2885313825        6.5332305600  LPSA19    1               0.0000000000
     20138       649  ECLIPA    H65R           14.3678061530       31.2201880220        7.1397501463  LPSA19    1               0.0000000000
     20139       649  ECLIPA    H65S           13.2688121575       30.1276853611        6.2183685863  LPSA19    1               0.0000000000
     20140       649  ECLIPA    C66            15.1699288166       30.5389511106        5.2728814226  LPSA19    1               0.0000000000
     20141       649  ECLIPA    H66R           16.2196026355       30.7572504672        5.5598751044  LPSA19    1               0.0000000000
     20142       649  ECLIPA    H66S           14.7289490166       31.4485872733        4.7973563709  LPSA19    1               0.0000000000
     20143       649  ECLIPA    C67            15.1877401125       29.4546013473        4.1979981856  LPSA19    1               0.0000000000
     20144       649  ECLIPA    H67R           15.4613888232       28.4495676684        4.5935661105  LPSA19    1               0.0000000000
     20145       649  ECLIPA    H67S           15.9152353599       29.7083794809        3.3872248069  LPSA19    1               0.0000000000
     20146       649  ECLIPA    C68            13.8551638882       29.2025759094        3.5399972169  LPSA19    1               0.0000000000
     20147       649  ECLIPA    H68R           13.3763480507       30.1137871835        3.0914952631  LPSA19    1               0.0000000000
     20148       649  ECLIPA    H68S           13.1732711192       28.7993568664        4.3170250336  LPSA19    1               0.0000000000
     20149       649  ECLIPA    C69            14.1841462356       28.1720808994        2.4442004831  LPSA19    1               0.0000000000
     20150       649  ECLIPA    H69R           15.0502268695       27.5292874450        2.5215347889  LPSA19    1               0.0000000000
     20151       649  ECLIPA    H69S           14.5419200700       28.8510564116        1.6616035219  LPSA19    1               0.0000000000
     20152       649  ECLIPA    C610           13.1134723840       27.1213243252        2.1701335762  LPSA19    1               0.0000000000
     20153       649  ECLIPA    H610R          12.3292797244       27.8948133376        2.5102367866  LPSA19    1               0.0000000000
     20154       649  ECLIPA    H610S          12.6952840190       26.4783450654        2.9465211384  LPSA19    1               0.0000000000
     20155       649  ECLIPA    C611           13.1415059798       26.2821093641        0.6408667302  LPSA19    1               0.0000000000
     20156       649  ECLIPA    H611R          14.1450617663       25.9096108835        0.5008689175  LPSA19    1               0.0000000000
     20157       649  ECLIPA    H611S          12.2410600391       25.7389931910        0.8453156146  LPSA19    1               0.0000000000
     20158       649  ECLIPA    C612           12.5504212030       26.2947039243       -1.0108269577  LPSA19    1               0.0000000000
     20159       649  ECLIPA    H612R          11.7081546475       26.9673814045       -1.4393584837  LPSA19    1               0.0000000000
     20160       649  ECLIPA    H612S          13.0696218732       27.0950769331       -1.1318773417  LPSA19    1               0.0000000000
     20161       649  ECLIPA    H612T          13.3877951884       26.4616307905       -1.6595864853  LPSA19    1               0.0000000000
     20162       649  ECLIPA    C54            10.0331532910       32.8070354707       11.1714852553  LPSA19    1               0.0000000000
     20163       649  ECLIPA    H54R           10.6302197914       33.6992876599       10.8820602825  LPSA19    1               0.0000000000
     20164       649  ECLIPA    H54S            9.3355237740       33.1132344403       11.9780419391  LPSA19    1               0.0000000000
     20165       649  ECLIPA    C55             9.1877809163       32.3518871241        9.9667127219  LPSA19    1               0.0000000000
     20166       649  ECLIPA    H55R            8.3318715549       33.0460203862        9.8239346847  LPSA19    1               0.0000000000
     20167       649  ECLIPA    H55S            8.7385379646       31.3622361137       10.2020728148  LPSA19    1               0.0000000000
     20168       649  ECLIPA    C56            10.0420777574       32.3700056535        8.6964243713  LPSA19    1               0.0000000000
     20169       649  ECLIPA    H56R           10.9305288841       31.7317863314        8.8611467807  LPSA19    1               0.0000000000
     20170       649  ECLIPA    H56S           10.4115923492       33.4044073276        8.5055510956  LPSA19    1               0.0000000000
     20171       649  ECLIPA    C57             9.4154191480       31.8325151713        7.4202891083  LPSA19    1               0.0000000000
     20172       649  ECLIPA    H57R            8.4516718866       32.3328425869        7.1841991091  LPSA19    1               0.0000000000
     20173       649  ECLIPA    H57S            9.2011604283       30.7471655337        7.5472979347  LPSA19    1               0.0000000000
     20174       649  ECLIPA    C58            10.4212276872       31.9951003465        6.2808919845  LPSA19    1               0.0000000000
     20175       649  ECLIPA    H58R           10.8620689472       33.0150246157        6.2317957552  LPSA19    1               0.0000000000
     20176       649  ECLIPA    H58S           11.2810895429       31.3114219995        6.4724267917  LPSA19    1               0.0000000000
     20177       649  ECLIPA    C59             9.7737984656       31.7188180996        4.9442628155  LPSA19    1               0.0000000000
     20178       649  ECLIPA    H59R            8.8855063456       32.3648771695        4.7492400530  LPSA19    1               0.0000000000
     20179       649  ECLIPA    H59S            9.4133999747       30.6620091127        4.9680995000  LPSA19    1               0.0000000000
     20180       649  ECLIPA    C510           10.7273957822       32.1011040215        3.8356863370  LPSA19    1               0.0000000000
     20181       649  ECLIPA    H510R          11.6983348968       31.5395936826        3.8402231579  LPSA19    1               0.0000000000
     20182       649  ECLIPA    H510S          10.8986675672       33.1754323782        3.6727325156  LPSA19    1               0.0000000000
     20183       649  ECLIPA    C511           10.0933283301       31.9587890673        2.5581267110  LPSA19    1               0.0000000000
     20184       649  ECLIPA    H511R          10.1671460630       30.8214486267        2.7998663104  LPSA19    1               0.0000000000
     20185       649  ECLIPA    H511S           9.0232027753       31.7468233436        2.2901168344  LPSA19    1               0.0000000000
     20186       649  ECLIPA    C512           11.0018083357       32.7079106043        1.3411424454  LPSA19    1               0.0000000000
     20187       649  ECLIPA    H512R          10.2160628169       32.5821922348        0.5474597310  LPSA19    1               0.0000000000
     20188       649  ECLIPA    H512S          10.9472027131       33.7613746952        1.2897710421  LPSA19    1               0.0000000000
     20189       649  ECLIPA    C513           12.5138474671       32.1766691039        0.7811419321  LPSA19    1               0.0000000000
     20190       649  ECLIPA    H513R          12.5018521740       31.2338727667        0.2071180962  LPSA19    1               0.0000000000
     20191       649  ECLIPA    H513S          13.0891395351       31.7156590620        1.5899457592  LPSA19    1               0.0000000000
     20192       649  ECLIPA    C514           13.4068780583       32.7945607044       -0.3325584714  LPSA19    1               0.0000000000
     20193       649  ECLIPA    H514R          12.8787828309       33.6991892718       -0.6457484620  LPSA19    1               0.0000000000
     20194       649  ECLIPA    H514S          14.1128996116       32.0367737940       -0.8009359137  LPSA19    1               0.0000000000
     20195       649  ECLIPA    H514T          13.1246122550       32.7051987658       -1.4039079726  LPSA19    1               0.0000000000
     20196       649  ECLIPA    C33            15.0678671584       29.3136193092       14.5044021324  LPSA19    1               0.0000000000
     20197       649  ECLIPA    H33R           16.1206515475       29.3129297303       14.8672231405  LPSA19    1               0.0000000000
     20198       649  ECLIPA    O33            14.2823051862       29.9225887352       15.4949122008  LPSA19    1               0.0000000000
     20199       649  ECLIPA    HO33           14.3906157479       29.4904037578       16.3487803866  LPSA19    1               0.0000000000
     20200       649  ECLIPA    C34            15.0146650849       30.1540957616       13.2101462245  LPSA19    1               0.0000000000
     20201       649  ECLIPA    H34R           13.9791497375       30.1323181687       12.8153169480  LPSA19    1               0.0000000000
     20202       649  ECLIPA    H34S           15.6618626189       29.7028216685       12.4214801354  LPSA19    1               0.0000000000
     20203       649  ECLIPA    C35            15.4581985845       31.6169896095       13.4378530093  LPSA19    1               0.0000000000
     20204       649  ECLIPA    H35R           16.5195361853       31.6640500398       13.7434196968  LPSA19    1               0.0000000000
     20205       649  ECLIPA    H35S           14.8225954202       32.0418406847       14.2510829437  LPSA19    1               0.0000000000
     20206       649  ECLIPA    C36            15.2867970571       32.5115737075       12.2051232992  LPSA19    1               0.0000000000
     20207       649  ECLIPA    H36R           14.4223507422       32.0814322845       11.6674279905  LPSA19    1               0.0000000000
     20208       649  ECLIPA    H36S           16.1714057367       32.4735193925       11.5261623799  LPSA19    1               0.0000000000
     20209       649  ECLIPA    C37            14.9156363312       33.9740693832       12.5206908114  LPSA19    1               0.0000000000
     20210       649  ECLIPA    H37R           15.8548322834       34.5587596259       12.6707743801  LPSA19    1               0.0000000000
     20211       649  ECLIPA    H37S           14.3646151083       34.0285877363       13.4859740295  LPSA19    1               0.0000000000
     20212       649  ECLIPA    C38            14.0720140363       34.6846204085       11.4317301859  LPSA19    1               0.0000000000
     20213       649  ECLIPA    H38R           13.0140520723       34.3490512993       11.4306705777  LPSA19    1               0.0000000000
     20214       649  ECLIPA    H38S           14.0602531127       35.7724415661       11.6916810565  LPSA19    1               0.0000000000
     20215       649  ECLIPA    C39            14.6288778648       34.4561790675       10.0194059077  LPSA19    1               0.0000000000
     20216       649  ECLIPA    H39R           14.7188514335       33.3654167121        9.8216332450  LPSA19    1               0.0000000000
     20217       649  ECLIPA    H39S           15.6326490616       34.9271904452        9.9732766744  LPSA19    1               0.0000000000
     20218       649  ECLIPA    C310           13.8228443030       35.0624634212        8.8683697382  LPSA19    1               0.0000000000
     20219       649  ECLIPA    H310R          13.9530751451       36.1654912870        8.9685972727  LPSA19    1               0.0000000000
     20220       649  ECLIPA    H310S          12.7451405683       34.8172990963        8.9580323430  LPSA19    1               0.0000000000
     20221       649  ECLIPA    C311           14.2640114269       34.4803026653        7.5126221652  LPSA19    1               0.0000000000
     20222       649  ECLIPA    H311R          15.3570068650       34.2768417372        7.5267822352  LPSA19    1               0.0000000000
     20223       649  ECLIPA    H311S          13.7537796832       33.4993925036        7.3646041358  LPSA19    1               0.0000000000
     20224       649  ECLIPA    C312           13.8933884582       35.3413550307        6.3008547316  LPSA19    1               0.0000000000
     20225       649  ECLIPA    H312R          12.9206696140       35.8462777783        6.4881836318  LPSA19    1               0.0000000000
     20226       649  ECLIPA    H312S          14.6796210580       36.1188904421        6.1817667172  LPSA19    1               0.0000000000
     20227       649  ECLIPA    C313           13.8035070379       34.5158857714        5.0052245942  LPSA19    1               0.0000000000
     20228       649  ECLIPA    H313R          14.8485717636       34.2383001668        4.7461282543  LPSA19    1               0.0000000000
     20229       649  ECLIPA    H313S          13.2360348826       33.5705562773        5.1759483030  LPSA19    1               0.0000000000
     20230       649  ECLIPA    C314           13.1808171794       35.2575064108        3.8191320166  LPSA19    1               0.0000000000
     20231       649  ECLIPA    H314R          13.7715354301       36.1689098956        3.5945792934  LPSA19    1               0.0000000000
     20232       649  ECLIPA    H314S          13.1611803772       34.6214080226        2.9053329407  LPSA19    1               0.0000000000
     20233       649  ECLIPA    H314T          12.1354484231       35.5587027088        4.0464764414  LPSA19    1               0.0000000000
     20234       649  ECLIPA    C11             9.5017701154       27.4637168560       11.2516059575  LPSA19    1               0.0000000000
     20235       649  ECLIPA    O11             8.9899792361       28.5635251079       11.0930294601  LPSA19    1               0.0000000000
     20236       649  ECLIPA    C12             9.1558404182       26.3244161720       10.3252732556  LPSA19    1               0.0000000000
     20237       649  ECLIPA    H12R            8.1326943799       25.9674557227       10.5521065811  LPSA19    1               0.0000000000
     20238       649  ECLIPA    H12S            9.8798246338       25.5036189699       10.5123717618  LPSA19    1               0.0000000000
     20239       649  ECLIPA    C13             9.2522934054       26.7169215993        8.8539360585  LPSA19    1               0.0000000000
     20240       649  ECLIPA    H13R            8.8070228528       27.7181877320        8.6434866625  LPSA19    1               0.0000000000
     20241       649  ECLIPA    O13             8.5146303486       25.7462462860        8.1200658341  LPSA19    1               0.0000000000
     20242       649  ECLIPA    HO13            8.1498450647       26.0573064545        7.2871943737  LPSA19    1               0.0000000000
     20243       649  ECLIPA    C14            10.7365137450       26.7231406250        8.4380743436  LPSA19    1               0.0000000000
     20244       649  ECLIPA    H14R           11.2827900463       25.9030482035        8.9577652019  LPSA19    1               0.0000000000
     20245       649  ECLIPA    H14S           11.1495690471       27.6970284646        8.7778809633  LPSA19    1               0.0000000000
     20246       649  ECLIPA    C15            11.0190706060       26.6063044922        6.9451618504  LPSA19    1               0.0000000000
     20247       649  ECLIPA    H15R           10.5321689477       25.6797298572        6.5686444816  LPSA19    1               0.0000000000
     20248       649  ECLIPA    H15S           12.1176568574       26.4704829771        6.8242350390  LPSA19    1               0.0000000000
     20249       649  ECLIPA    C16            10.5346537318       27.8424446244        6.1776429600  LPSA19    1               0.0000000000
     20250       649  ECLIPA    H16R           11.2718938193       28.6656109183        6.2752578152  LPSA19    1               0.0000000000
     20251       649  ECLIPA    H16S            9.6017498517       28.2187488499        6.6476577814  LPSA19    1               0.0000000000
     20252       649  ECLIPA    C17            10.3216149499       27.5173364163        4.7000245821  LPSA19    1               0.0000000000
     20253       649  ECLIPA    H17R           11.2003205280       26.9115060622        4.3887283924  LPSA19    1               0.0000000000
     20254       649  ECLIPA    H17S           10.2931424036       28.4272114731        4.0648270569  LPSA19    1               0.0000000000
     20255       649  ECLIPA    C18             9.0452250292       26.7064478902        4.4734952948  LPSA19    1               0.0000000000
     20256       649  ECLIPA    H18R            9.1153432214       25.7956882297        5.0999535977  LPSA19    1               0.0000000000
     20257       649  ECLIPA    H18S            8.1589303867       27.3042544693        4.7899629861  LPSA19    1               0.0000000000
     20258       649  ECLIPA    C19             8.8599538579       26.2856549176        3.0247328240  LPSA19    1               0.0000000000
     20259       649  ECLIPA    H19R            8.0113480518       25.5739748265        2.9314719403  LPSA19    1               0.0000000000
     20260       649  ECLIPA    H19S            9.7826335167       25.7792510521        2.6484795091  LPSA19    1               0.0000000000
     20261       649  ECLIPA    C110            8.5925240345       27.5032177186        2.1638132060  LPSA19    1               0.0000000000
     20262       649  ECLIPA    H110R           7.7196293080       28.1106952278        2.4934177256  LPSA19    1               0.0000000000
     20263       649  ECLIPA    H110S           9.5113254286       28.0975384425        2.1930691446  LPSA19    1               0.0000000000
     20264       649  ECLIPA    C111            8.3274547758       27.0941726049        0.7528681184  LPSA19    1               0.0000000000
     20265       649  ECLIPA    H111R           9.1173101149       26.3771854311        0.4110772762  LPSA19    1               0.0000000000
     20266       649  ECLIPA    H111S           7.3084699732       26.6474065052        0.8406047709  LPSA19    1               0.0000000000
     20267       649  ECLIPA    C112            8.1103657610       28.2205199430       -0.1986307759  LPSA19    1               0.0000000000
     20268       649  ECLIPA    H112R           7.2344093304       28.7851174378        0.1433942280  LPSA19    1               0.0000000000
     20269       649  ECLIPA    H112S           8.9476746746       28.8325615523       -0.2265125079  LPSA19    1               0.0000000000
     20270       649  ECLIPA    C113            8.1094490062       27.9126348890       -1.6517555549  LPSA19    1               0.0000000000
     20271       649  ECLIPA    H113R           9.0979775361       27.4828511830       -1.9704596387  LPSA19    1               0.0000000000
     20272       649  ECLIPA    H113S           7.3805666388       27.1088510993       -1.6700805998  LPSA19    1               0.0000000000
     20273       649  ECLIPA    C114            7.6579748410       29.0841918977       -2.5417124656  LPSA19    1               0.0000000000
     20274       649  ECLIPA    H114R           6.5638869953       29.2783674827       -2.5422952615  LPSA19    1               0.0000000000
     20275       649  ECLIPA    H114S           8.5115295420       29.6593137181       -2.9143547224  LPSA19    1               0.0000000000
     20276       649  ECLIPA    H114T           7.5204897801       28.9303424137       -3.6163327793  LPSA19    1               0.0000000000
     20277       650  AKDO      C1             11.4838654682       33.2846127092       22.4314317174  LPSA19    2               0.0000000000
     20278       650  AKDO      O11            11.3913416286       34.5366785516       22.4499286207  LPSA19    2               0.0000000000
     20279       650  AKDO      O12            12.5010315588       32.6237662858       22.0914465247  LPSA19    2               0.0000000000
     20280       650  AKDO      C2             10.2476008297       32.4467935505       22.8755155665  LPSA19    2               0.0000000000
     20281       650  AKDO      C6              8.0584055283       32.6208366519       23.8594645651  LPSA19    2               0.0000000000
     20282       650  AKDO      H6              7.7050573864       32.0710409324       22.9480694484  LPSA19    2               0.0000000000
     20283       650  AKDO      O6              9.2471938848       33.3156604423       23.4641437337  LPSA19    2               0.0000000000
     20284       650  AKDO      C3             10.5859804404       31.3842725039       23.9290895668  LPSA19    2               0.0000000000
     20285       650  AKDO      H31            11.1104099190       31.8600089258       24.7876023369  LPSA19    2               0.0000000000
     20286       650  AKDO      H32            11.2806758605       30.6556363583       23.4530535159  LPSA19    2               0.0000000000
     20287       650  AKDO      C4              9.3696128343       30.6366850549       24.3753391239  LPSA19    2               0.0000000000
     20288       650  AKDO      H4              8.8726666732       30.1844435889       23.4851508361  LPSA19    2               0.0000000000
     20289       650  AKDO      O4              9.6839570743       29.6515754775       25.3699087065  LPSA19    2               0.0000000000
     20290       650  AKDO      C5              8.3517749284       31.5838487001       24.9646883056  LPSA19    2               0.0000000000
     20291       650  AKDO      H5              7.4028210718       31.0020780187       25.0839608776  LPSA19    2               0.0000000000
     20292       650  AKDO      O5              8.8587427389       32.0475040517       26.2623424662  LPSA19    2               0.0000000000
     20293       650  AKDO      C7              6.9440398566       33.6019952518       24.1569581309  LPSA19    2               0.0000000000
     20294       650  AKDO      H7              7.2033020625       34.1716077592       25.0744152217  LPSA19    2               0.0000000000
     20295       650  AKDO      O7              5.7296083399       32.8662409633       24.3299690815  LPSA19    2               0.0000000000
     20296       650  AKDO      HO7             5.3431675255       32.7722457455       23.4613070145  LPSA19    2               0.0000000000
     20297       650  AKDO      C8              6.7566727888       34.5830181941       23.0204899871  LPSA19    2               0.0000000000
     20298       650  AKDO      H81             7.7350686075       35.1015073534       22.8600859494  LPSA19    2               0.0000000000
     20299       650  AKDO      H82             6.5113507515       34.0255964262       22.0883840061  LPSA19    2               0.0000000000
     20300       650  AKDO      O8              5.7177312962       35.5479183408       23.3018086729  LPSA19    2               0.0000000000
     20301       650  AKDO      HO8             6.0474684522       36.3738616835       22.9054707852  LPSA19    2               0.0000000000
     20302       651  AKDO      C1              9.3996887340       27.8075412557       23.7839617692  LPSA19    3               1.0000000000
     20303       651  AKDO      O11             9.9064035187       27.8782769637       22.6324112555  LPSA19    3               1.0000000000
     20304       651  AKDO      O12             8.2591883855       27.3253132074       24.0541873413  LPSA19    3               1.0000000000
     20305       651  AKDO      C2             10.2061207548       28.3892036913       24.9990363159  LPSA19    3               1.0000000000
     20306       651  AKDO      C6             12.4113434351       29.0349134935       25.7873127988  LPSA19    3               1.0000000000
     20307       651  AKDO      H6             12.0617092080       30.0832607219       25.9774384513  LPSA19    3               1.0000000000
     20308       651  AKDO      O6             11.6279166183       28.4449682203       24.7177131217  LPSA19    3               1.0000000000
     20309       651  AKDO      C3             10.0461731144       27.5870538996       26.3174030150  LPSA19    3               1.0000000000
     20310       651  AKDO      H31            10.3975537132       26.5511322464       26.1416540221  LPSA19    3               1.0000000000
     20311       651  AKDO      H32             8.9733341839       27.5153209266       26.5944282703  LPSA19    3               1.0000000000
     20312       651  AKDO      C4             10.8341692801       28.2441229939       27.4268350074  LPSA19    3               1.0000000000
     20313       651  AKDO      H4             10.5220378030       29.3149161174       27.4886028896  LPSA19    3               1.0000000000
     20314       651  AKDO      O4             10.6527563581       27.6478499270       28.7014758188  LPSA19    3               1.0000000000
     20315       651  AKDO      HO4            10.2969014891       28.2980373380       29.3329022108  LPSA19    3               1.0000000000
     20316       651  AKDO      C5             12.2769558435       28.2156622354       27.0585753841  LPSA19    3               1.0000000000
     20317       651  AKDO      H5             12.8519423650       28.6945269269       27.8846702562  LPSA19    3               1.0000000000
     20318       651  AKDO      O5             12.7394420837       26.8678584159       26.8834832882  LPSA19    3               1.0000000000
     20319       651  AKDO      HO5            12.2454843694       26.5805093106       26.1026534026  LPSA19    3               1.0000000000
     20320       651  AKDO      C7             13.8457766331       29.1284780592       25.3528444455  LPSA19    3               1.0000000000
     20321       651  AKDO      H7             14.2219501669       28.0996152599       25.1239672077  LPSA19    3               1.0000000000
     20322       651  AKDO      O7             14.6401589413       29.6774229806       26.4147249374  LPSA19    3               1.0000000000
     20323       651  AKDO      HO7            15.5477709168       29.6401640813       26.1019497620  LPSA19    3               1.0000000000
     20324       651  AKDO      C8             13.9215295751       29.9963336991       24.1215632516  LPSA19    3               1.0000000000
     20325       651  AKDO      H81            13.2560670074       29.5969882508       23.3221877320  LPSA19    3               1.0000000000
     20326       651  AKDO      H82            13.6100190477       31.0426390331       24.3261871596  LPSA19    3               1.0000000000
     20327       651  AKDO      O8             15.2583232145       29.9771304865       23.6437744706  LPSA19    3               1.0000000000
     20328       651  AKDO      HO8            15.3098817030       29.1347669748       23.1763837717  LPSA19    3               1.0000000000
     20329       652  AHEP      C1              7.8898661906       32.3389268875       27.2541276084  LPSA19    4               2.0000000000
     20330       652  AHEP      H1              7.4521701767       33.2961062750       26.9059311864  LPSA19    4               2.0000000000
     20331       652  AHEP      C5              7.1031356128       30.1757098826       27.9965921763  LPSA19    4               2.0000000000
     20332       652  AHEP      H5              8.0135954448       29.7500558954       27.5146886654  LPSA19    4               2.0000000000
     20333       652  AHEP      O5              6.7987334744       31.4145520059       27.3191218874  LPSA19    4               2.0000000000
     20334       652  AHEP      C2              8.3185410700       32.6251488616       28.7119789407  LPSA19    4               2.0000000000
     20335       652  AHEP      H2              9.2143737043       33.2816746050       28.6810232362  LPSA19    4               2.0000000000
     20336       652  AHEP      O2              7.3054089578       33.3695654188       29.3939018183  LPSA19    4               2.0000000000
     20337       652  AHEP      HO2             7.7097213835       34.0601397544       29.9182875135  LPSA19    4               2.0000000000
     20338       652  AHEP      C3              8.6870759320       31.3757344670       29.5004536390  LPSA19    4               2.0000000000
     20339       652  AHEP      H3              9.5916331777       30.8734745104       29.0934613127  LPSA19    4               2.0000000000
     20340       652  AHEP      O3              8.9148608346       31.7188998385       30.8857802846  LPSA19    4               2.0000000000
     20341       652  AHEP      C4              7.4806571151       30.4541255048       29.4561293930  LPSA19    4               2.0000000000
     20342       652  AHEP      H4              6.5952622853       30.8974719714       29.9655194263  LPSA19    4               2.0000000000
     20343       652  AHEP      O4              7.8637813403       29.2274970851       30.0602812206  LPSA19    4               2.0000000000
     20344       652  AHEP      P4              7.2009335256       28.7104105951       31.4977838443  LPSA19    4               2.0000000000
     20345       652  AHEP      OP42            8.3860255301       27.9701601271       32.1203407397  LPSA19    4               2.0000000000
     20346       652  AHEP      OP43            6.0074588237       27.8162079740       31.1194575259  LPSA19    4               2.0000000000
     20347       652  AHEP      OP44            6.7463403204       29.9545293057       32.2684394900  LPSA19    4               2.0000000000
     20348       652  AHEP      C6              5.9135654401       29.1972892876       27.7977840472  LPSA19    4               2.0000000000
     20349       652  AHEP      H6              6.3073740163       28.1866788316       28.0929591962  LPSA19    4               2.0000000000
     20350       652  AHEP      O6              4.7661268194       29.4776187573       28.6299786928  LPSA19    4               2.0000000000
     20351       652  AHEP      HO6             4.6783023536       28.7314747195       29.2414995650  LPSA19    4               2.0000000000
     20352       652  AHEP      C7              5.4041226530       29.0905959221       26.3474440618  LPSA19    4               2.0000000000
     20353       652  AHEP      H71             4.7638544343       28.1915821174       26.2167476909  LPSA19    4               2.0000000000
     20354       652  AHEP      H72             6.2795934969       29.0173190604       25.6627844570  LPSA19    4               2.0000000000
     20355       652  AHEP      O7              4.6052465814       30.1870301562       25.8833113760  LPSA19    4               2.0000000000
     20356       652  AHEP      HO7             3.7792709770       30.1453326762       26.3910640927  LPSA19    4               2.0000000000
     20357       653  AHEP      C1             10.1633747326       31.4284804266       31.4590872803  LPSA19    5               3.0000000000
     20358       653  AHEP      H1             10.6097904140       30.5237707483       30.9804162469  LPSA19    5               3.0000000000
     20359       653  AHEP      C5             10.5555608719       33.7391525876       31.9590316145  LPSA19    5               3.0000000000
     20360       653  AHEP      H5              9.5171872117       33.9186559173       31.5962587454  LPSA19    5               3.0000000000
     20361       653  AHEP      O5             11.0487901005       32.5533314357       31.2864794651  LPSA19    5               3.0000000000
     20362       653  AHEP      C2             10.0271911384       31.1439371776       32.9601787782  LPSA19    5               3.0000000000
     20363       653  AHEP      H2              9.2779058482       30.3240253767       33.0850104879  LPSA19    5               3.0000000000
     20364       653  AHEP      O2             11.2882291489       30.6675024570       33.4638862833  LPSA19    5               3.0000000000
     20365       653  AHEP      HO2            11.2013197652       29.7329605935       33.6675920138  LPSA19    5               3.0000000000
     20366       653  AHEP      C3              9.5038246647       32.3621894639       33.7276604389  LPSA19    5               3.0000000000
     20367       653  AHEP      H3              8.5023459576       32.6224453681       33.3081279621  LPSA19    5               3.0000000000
     20368       653  AHEP      O3              9.3924093095       32.1824117078       35.1631474458  LPSA19    5               3.0000000000
     20369       653  AHEP      C4             10.4573736362       33.5077921529       33.4672571112  LPSA19    5               3.0000000000
     20370       653  AHEP      H4             11.4809810230       33.2532570941       33.8408414135  LPSA19    5               3.0000000000
     20371       653  AHEP      O4              9.9041769293       34.6901971590       34.0685034519  LPSA19    5               3.0000000000
     20372       653  AHEP      P4             10.7266607783       35.4193254062       35.3215001146  LPSA19    5               3.0000000000
     20373       653  AHEP      OP42            9.6879909306       36.4223035475       35.8433970561  LPSA19    5               3.0000000000
     20374       653  AHEP      OP43           11.9250923989       36.0745222439       34.6626259544  LPSA19    5               3.0000000000
     20375       653  AHEP      OP44           11.0952641504       34.2983142339       36.3113381160  LPSA19    5               3.0000000000
     20376       653  AHEP      C6             11.3956613876       34.9599227419       31.5657756042  LPSA19    5               3.0000000000
     20377       653  AHEP      H6             10.9475901328       35.8629868360       32.0483434120  LPSA19    5               3.0000000000
     20378       653  AHEP      O6             12.7528961315       34.8409998193       32.0214902158  LPSA19    5               3.0000000000
     20379       653  AHEP      HO6            13.2819017706       34.2406828972       31.5067477386  LPSA19    5               3.0000000000
     20380       653  AHEP      C7             11.3473623284       35.1968264310       30.0710720894  LPSA19    5               3.0000000000
     20381       653  AHEP      H71            11.3447474958       36.2999558084       29.9269470224  LPSA19    5               3.0000000000
     20382       653  AHEP      H72            10.3997899858       34.8362188071       29.6177676623  LPSA19    5               3.0000000000
     20383       653  AHEP      O7             12.5261245703       34.7013810213       29.4262592830  LPSA19    5               3.0000000000
     20384       654  AHEP      C1             12.3332344605       33.4817714970       28.7845233346  LPSA19    6               4.0000000000
     20385       654  AHEP      H1             11.3411548780       33.0442135163       29.0245090463  LPSA19    6               4.0000000000
     20386       654  AHEP      C5             13.6341784549       34.2450707131       26.9588312560  LPSA19    6               4.0000000000
     20387       654  AHEP      H5             13.7938771222       35.1972248191       27.5190986396  LPSA19    6               4.0000000000
     20388       654  AHEP      O5             12.3610042135       33.7096271239       27.3771412026  LPSA19    6               4.0000000000
     20389       654  AHEP      C2             13.4106167529       32.5049142687       29.2216527159  LPSA19    6               4.0000000000
     20390       654  AHEP      H2             13.3364045230       32.4281499494       30.3336548659  LPSA19    6               4.0000000000
     20391       654  AHEP      O2             13.1166756786       31.1975062188       28.7480920121  LPSA19    6               4.0000000000
     20392       654  AHEP      HO2            12.8578453917       30.6507098276       29.4906209834  LPSA19    6               4.0000000000
     20393       654  AHEP      C3             14.7911476607       33.0448689255       28.8425036184  LPSA19    6               4.0000000000
     20394       654  AHEP      H3             14.9451766568       34.0117261072       29.3833318626  LPSA19    6               4.0000000000
     20395       654  AHEP      O3             15.8477217538       32.1399233848       29.2421089171  LPSA19    6               4.0000000000
     20396       654  AHEP      HO3            16.3735823375       32.4893258304       29.9768640990  LPSA19    6               4.0000000000
     20397       654  AHEP      C4             14.7846344268       33.2961652353       27.3268756602  LPSA19    6               4.0000000000
     20398       654  AHEP      H4             14.6675348876       32.3244346027       26.7916341599  LPSA19    6               4.0000000000
     20399       654  AHEP      O4             15.9962141197       33.9040380050       26.8743066915  LPSA19    6               4.0000000000
     20400       654  AHEP      HO4            16.0105411163       34.8131299328       27.1786618692  LPSA19    6               4.0000000000
     20401       654  AHEP      C6             13.6237727768       34.6781435523       25.4938003200  LPSA19    6               4.0000000000
     20402       654  AHEP      H6             14.5742879601       35.2314159856       25.3189145160  LPSA19    6               4.0000000000
     20403       654  AHEP      O6             13.6966552377       33.5711188130       24.5962142717  LPSA19    6               4.0000000000
     20404       654  AHEP      HO6            12.9156076706       33.5652659217       24.0130298181  LPSA19    6               4.0000000000
     20405       654  AHEP      C7             12.5302516740       35.6958844471       25.1750900543  LPSA19    6               4.0000000000
     20406       654  AHEP      H71            12.6769383856       36.0843721792       24.1375632140  LPSA19    6               4.0000000000
     20407       654  AHEP      H72            12.6252227784       36.5463650915       25.8846647662  LPSA19    6               4.0000000000
     20408       654  AHEP      O7             11.1960539409       35.2097212033       25.3010541978  LPSA19    6               4.0000000000
     20409       654  AHEP      HO7            10.9595223335       35.1867766931       26.2229799099  LPSA19    6               4.0000000000
     20410       655  AGLC      C1              8.1466038914       31.7473260309       35.6541415482  LPSA19    7               4.0000000000
     20411       655  AGLC      H1              7.3134846151       32.2912200860       35.1570279358  LPSA19    7               4.0000000000
     20412       655  AGLC      C5              8.9720384441       29.5560343952       36.0971863363  LPSA19    7               4.0000000000
     20413       655  AGLC      H5              9.9898307278       29.9060465905       35.8147022765  LPSA19    7               4.0000000000
     20414       655  AGLC      O5              7.9862867858       30.3553530978       35.4302064936  LPSA19    7               4.0000000000
     20415       655  AGLC      C2              7.9565472330       31.9446686071       37.1624871354  LPSA19    7               4.0000000000
     20416       655  AGLC      H2              7.0065299006       31.4325964333       37.4408830137  LPSA19    7               4.0000000000
     20417       655  AGLC      O2              7.7706387274       33.3233644959       37.5081555708  LPSA19    7               4.0000000000
     20418       655  AGLC      HO2             8.6768419417       33.6994177616       37.5883769966  LPSA19    7               4.0000000000
     20419       655  AGLC      C3              9.0141039129       31.2135871447       37.9683633309  LPSA19    7               4.0000000000
     20420       655  AGLC      H3             10.0116107723       31.5488722742       37.6087691886  LPSA19    7               4.0000000000
     20421       655  AGLC      O3              8.9260445813       31.4899251092       39.3940706168  LPSA19    7               4.0000000000
     20422       655  AGLC      C4              8.8458948473       29.7318021858       37.6108989730  LPSA19    7               4.0000000000
     20423       655  AGLC      H4              7.8204214860       29.3918365925       37.9271746319  LPSA19    7               4.0000000000
     20424       655  AGLC      O4              9.8578346902       28.9480417229       38.2511477986  LPSA19    7               4.0000000000
     20425       655  AGLC      HO4             9.4437976946       28.1843671962       38.6782080530  LPSA19    7               4.0000000000
     20426       655  AGLC      C6              8.8480137810       28.1563845453       35.5101851052  LPSA19    7               4.0000000000
     20427       655  AGLC      H61             8.9989215022       28.2278252584       34.4058275888  LPSA19    7               4.0000000000
     20428       655  AGLC      H62             9.6302023878       27.4691051439       35.8921194657  LPSA19    7               4.0000000000
     20429       655  AGLC      O6              7.5683147395       27.5678724266       35.7352454624  LPSA19    7               4.0000000000
     20430       655  AGLC      HO6             7.5927540431       27.0317632059       36.5200647850  LPSA19    7               4.0000000000
     20431       656  AGLC      C1             10.1003806686       32.0982212988       39.9176241856  LPSA19    8               5.0000000000
     20432       656  AGLC      H1             10.9990038494       31.5892045242       39.5070537695  LPSA19    8               5.0000000000
     20433       656  AGLC      C5              9.2259608523       34.3700606318       40.2145467957  LPSA19    8               5.0000000000
     20434       656  AGLC      H5              8.2326729023       34.0002595311       39.8869060166  LPSA19    8               5.0000000000
     20435       656  AGLC      O5             10.2031801645       33.5074664559       39.5861283521  LPSA19    8               5.0000000000
     20436       656  AGLC      C2             10.2118828318       31.9613397009       41.4338144496  LPSA19    8               5.0000000000
     20437       656  AGLC      H2             11.2059704861       32.3814215577       41.6994202050  LPSA19    8               5.0000000000
     20438       656  AGLC      O2             10.1826655463       30.6231131001       41.9551946969  LPSA19    8               5.0000000000
     20439       656  AGLC      C3              9.1495928744       32.7697252079       42.1247891967  LPSA19    8               5.0000000000
     20440       656  AGLC      H3              8.1702021927       32.3903632162       41.7258783388  LPSA19    8               5.0000000000
     20441       656  AGLC      O3              9.2186209601       32.4798954752       43.5392002810  LPSA19    8               5.0000000000
     20442       656  AGLC      C4              9.3351421921       34.2199151514       41.7274085384  LPSA19    8               5.0000000000
     20443       656  AGLC      H4             10.3653896829       34.5254548858       42.0313794848  LPSA19    8               5.0000000000
     20444       656  AGLC      O4              8.3922782711       35.0692134969       42.3792805324  LPSA19    8               5.0000000000
     20445       656  AGLC      HO4             7.5530149402       34.6165290587       42.4126448521  LPSA19    8               5.0000000000
     20446       656  AGLC      C6              9.2994886430       35.8454006692       39.7403037511  LPSA19    8               5.0000000000
     20447       656  AGLC      H61             9.3785061534       35.9130399295       38.6302910018  LPSA19    8               5.0000000000
     20448       656  AGLC      H62             8.3585033435       36.3698418159       40.0241529990  LPSA19    8               5.0000000000
     20449       656  AGLC      O6             10.3622046801       36.6077777080       40.3257155372  LPSA19    8               5.0000000000
     20450       656  AGLC      HO6            10.0587675355       36.9082351306       41.1899359506  LPSA19    8               5.0000000000
     20451       657  AGAL      C1             11.0999553951       29.7019719496       41.4378949654  LPSA19    9               6.0000000000
     20452       657  AGAL      H1             11.0983487596       29.7400703144       40.3355036486  LPSA19    9               6.0000000000
     20453       657  AGAL      C5             12.6041661649       29.7766290374       43.2734210375  LPSA19    9               6.0000000000
     20454       657  AGAL      H5             11.8081159892       30.3993086223       43.7462885503  LPSA19    9               6.0000000000
     20455       657  AGAL      O5             12.4554911031       29.9439732749       41.8456720905  LPSA19    9               6.0000000000
     20456       657  AGAL      C2             10.6542036948       28.3029782184       41.8514292444  LPSA19    9               6.0000000000
     20457       657  AGAL      H2             11.3768773809       27.6047364042       41.3801919310  LPSA19    9               6.0000000000
     20458       657  AGAL      O2              9.3907021291       28.0453705424       41.1983255670  LPSA19    9               6.0000000000
     20459       657  AGAL      C3             10.7957797604       28.0817684003       43.3447208419  LPSA19    9               6.0000000000
     20460       657  AGAL      H3             10.1516251333       28.8131436776       43.8936729827  LPSA19    9               6.0000000000
     20461       657  AGAL      O3             10.3339797643       26.7764818604       43.7152928375  LPSA19    9               6.0000000000
     20462       657  AGAL      HO3             9.5160677127       26.7287481772       43.1968265888  LPSA19    9               6.0000000000
     20463       657  AGAL      C4             12.2693735018       28.3361815278       43.6780247437  LPSA19    9               6.0000000000
     20464       657  AGAL      H4             12.4152749986       28.2555928393       44.7812494261  LPSA19    9               6.0000000000
     20465       657  AGAL      O4             13.1583706633       27.4084849338       43.0316950247  LPSA19    9               6.0000000000
     20466       657  AGAL      HO4            13.8817230090       27.3378008439       43.6701543009  LPSA19    9               6.0000000000
     20467       657  AGAL      C6             13.9051195805       30.3459132302       43.8388226473  LPSA19    9               6.0000000000
     20468       657  AGAL      H61            13.9777145630       31.4300739923       43.6016973257  LPSA19    9               6.0000000000
     20469       657  AGAL      H62            13.9029692425       30.2691880851       44.9498767194  LPSA19    9               6.0000000000
     20470       657  AGAL      O6             15.0775648991       29.6948941316       43.3575785664  LPSA19    9               6.0000000000
     20471       657  AGAL      HO6            15.4623074290       30.2364841999       42.6656929691  LPSA19    9               6.0000000000
     20472       658  AGAL      C1              8.2507125896       27.3900158824       41.7485602167  LPSA19    10              7.0000000000
     20473       658  AGAL      H1              8.4613425444       26.3171760196       41.8410735958  LPSA19    10              7.0000000000
     20474       658  AGAL      C5              7.3282731200       29.1899145139       43.0493377205  LPSA19    10              7.0000000000
     20475       658  AGAL      H5              8.1649531162       29.7941173548       42.6421385490  LPSA19    10              7.0000000000
     20476       658  AGAL      O5              7.8256980692       27.8330475063       43.0582962004  LPSA19    10              7.0000000000
     20477       658  AGAL      C2              7.1136046976       27.4995486997       40.7476158496  LPSA19    10              7.0000000000
     20478       658  AGAL      H2              6.2783868493       26.8653864377       41.1155855197  LPSA19    10              7.0000000000
     20479       658  AGAL      O2              7.4517157869       26.9169691208       39.4895281892  LPSA19    10              7.0000000000
     20480       658  AGAL      HO2             6.6769568897       26.3770748115       39.2708851354  LPSA19    10              7.0000000000
     20481       658  AGAL      C3              6.6469663269       28.9546157180       40.7006385159  LPSA19    10              7.0000000000
     20482       658  AGAL      H3              7.5360088772       29.5784693685       40.4453983993  LPSA19    10              7.0000000000
     20483       658  AGAL      O3              5.6383055667       29.2413036109       39.7365130391  LPSA19    10              7.0000000000
     20484       658  AGAL      HO3             6.0129569617       29.6780506813       38.9737890512  LPSA19    10              7.0000000000
     20485       658  AGAL      C4              6.1756789000       29.3603455974       42.0819333339  LPSA19    10              7.0000000000
     20486       658  AGAL      H4              5.8717682337       30.4315782878       42.0798159990  LPSA19    10              7.0000000000
     20487       658  AGAL      O4              5.0506123401       28.6101998619       42.5031705776  LPSA19    10              7.0000000000
     20488       658  AGAL      HO4             5.2973568319       27.6885615824       42.6130943002  LPSA19    10              7.0000000000
     20489       658  AGAL      C6              7.0580293472       29.8053928352       44.4287669600  LPSA19    10              7.0000000000
     20490       658  AGAL      H61             7.9104576731       29.6074968876       45.1000244678  LPSA19    10              7.0000000000
     20491       658  AGAL      H62             6.9771144172       30.9123649850       44.2784759371  LPSA19    10              7.0000000000
     20492       658  AGAL      O6              5.8785086235       29.3555186238       45.1003470401  LPSA19    10              7.0000000000
     20493       658  AGAL      HO6             6.0477944693       28.9378241025       45.9438661115  LPSA19    10              7.0000000000
     20494       659  BGLC      C1              9.9286257797       33.2856378358       44.4767504641  LPSA19    11              6.0000000000
     20495       659  BGLC      H1              9.3748822789       34.2399452124       44.6229910947  LPSA19    11              6.0000000000
     20496       659  BGLC      C5             12.0831168294       34.2352701676       45.1187357281  LPSA19    11              6.0000000000
     20497       659  BGLC      H5             11.6279213052       35.2279488381       45.3588834316  LPSA19    11              6.0000000000
     20498       659  BGLC      O5             11.3183512395       33.4871458415       44.1239349371  LPSA19    11              6.0000000000
     20499       659  BGLC      C2              9.8882698461       32.4906486569       45.7802081599  LPSA19    11              6.0000000000
     20500       659  BGLC      H2             10.3692014809       31.4921374128       45.6395393585  LPSA19    11              6.0000000000
     20501       659  BGLC      O2              8.5357050275       32.2394326348       46.1403266120  LPSA19    11              6.0000000000
     20502       659  BGLC      HO2             8.3964845871       31.3109355252       46.3126651381  LPSA19    11              6.0000000000
     20503       659  BGLC      C3             10.6405385213       33.1769335370       46.9037578719  LPSA19    11              6.0000000000
     20504       659  BGLC      H3             10.1403921177       34.1351838876       47.1723263636  LPSA19    11              6.0000000000
     20505       659  BGLC      O3             10.7010661303       32.2916328329       48.0445345259  LPSA19    11              6.0000000000
     20506       659  BGLC      C4             12.0682994585       33.3978611031       46.4194176421  LPSA19    11              6.0000000000
     20507       659  BGLC      H4             12.4894126088       32.3944161239       46.1793340949  LPSA19    11              6.0000000000
     20508       659  BGLC      O4             12.8980929180       33.9373997186       47.4472821638  LPSA19    11              6.0000000000
     20509       659  BGLC      HO4            12.9433265090       33.2811645215       48.1603143674  LPSA19    11              6.0000000000
     20510       659  BGLC      C6             13.4713159581       34.5260826486       44.5161092061  LPSA19    11              6.0000000000
     20511       659  BGLC      H61            14.2279408420       34.7709102732       45.2913210911  LPSA19    11              6.0000000000
     20512       659  BGLC      H62            13.8087765816       33.6456594257       43.9366835619  LPSA19    11              6.0000000000
     20513       659  BGLC      O6             13.5045219797       35.6058343856       43.5869401325  LPSA19    11              6.0000000000
     20514       659  BGLC      HO6            13.9142842392       36.3940154020       43.9787454650  LPSA19    11              6.0000000000
     20515       660  BGLCNA    C1             10.2963306318       32.7641662773       49.3166018896  LPSA19    12              7.0000000000
     20516       660  BGLCNA    H1              9.2065940996       32.7345240459       49.3926398080  LPSA19    12              7.0000000000
     20517       660  BGLCNA    C5             10.1649902549       34.5292158708       50.8773340729  LPSA19    12              7.0000000000
     20518       660  BGLCNA    H5              9.0541283759       34.4441673320       50.9527622327  LPSA19    12              7.0000000000
     20519       660  BGLCNA    O5             10.6489607654       34.1050491970       49.5840872417  LPSA19    12              7.0000000000
     20520       660  BGLCNA    C2             10.9381932077       31.8590674971       50.3565235007  LPSA19    12              7.0000000000
     20521       660  BGLCNA    H2             12.0359888897       32.0848960358       50.3142456209  LPSA19    12              7.0000000000
     20522       660  BGLCNA    N              10.6588990298       30.4755651705       50.0444201048  LPSA19    12              7.0000000000
     20523       660  BGLCNA    HN              9.6976752728       30.2383907035       49.9433304983  LPSA19    12              7.0000000000
     20524       660  BGLCNA    C              11.6432777899       29.5712100643       49.9235402930  LPSA19    12              7.0000000000
     20525       660  BGLCNA    O              12.8107335200       29.8652477678       50.0925095775  LPSA19    12              7.0000000000
     20526       660  BGLCNA    CT             11.2938539478       28.1534711955       49.5795072804  LPSA19    12              7.0000000000
     20527       660  BGLCNA    HT1            11.4347405438       27.4726518965       50.4351711356  LPSA19    12              7.0000000000
     20528       660  BGLCNA    HT2            11.8801832664       27.7843402798       48.7147734592  LPSA19    12              7.0000000000
     20529       660  BGLCNA    HT3            10.2488384870       28.0929418335       49.3292730184  LPSA19    12              7.0000000000
     20530       660  BGLCNA    C3             10.4718978588       32.1983984827       51.7601387074  LPSA19    12              7.0000000000
     20531       660  BGLCNA    H3              9.3716819329       32.0457067926       51.8025806701  LPSA19    12              7.0000000000
     20532       660  BGLCNA    O3             11.0643807521       31.3235453819       52.7650827626  LPSA19    12              7.0000000000
     20533       660  BGLCNA    C4             10.8147544082       33.6649707687       51.9695239796  LPSA19    12              7.0000000000
     20534       660  BGLCNA    H4             11.9206175689       33.8189691204       51.8966269422  LPSA19    12              7.0000000000
     20535       660  BGLCNA    O4             10.4106012742       34.0825721930       53.2657569638  LPSA19    12              7.0000000000
     20536       660  BGLCNA    HO4             9.4548008471       34.1836449632       53.3152908945  LPSA19    12              7.0000000000
     20537       660  BGLCNA    C6             10.5080699326       35.9908137457       50.9369430289  LPSA19    12              7.0000000000
     20538       660  BGLCNA    H61            10.2166645386       36.4245254023       51.9095634359  LPSA19    12              7.0000000000
     20539       660  BGLCNA    H62            11.6077755214       36.1045909830       50.8263727543  LPSA19    12              7.0000000000
     20540       660  BGLCNA    O6              9.8892333410       36.7299146698       49.8819700086  LPSA19    12              7.0000000000
     20541       660  BGLCNA    HO6             9.0364462923       37.0779706169       50.1354154094  LPSA19    12              7.0000000000
     20542       661  AGAL      C1             10.2048814897       30.9341710550       53.8396725259  LPSA19    13              8.0000000000
     20543       661  AGAL      H1              9.5919348704       31.8120946970       54.1534830917  LPSA19    13              8.0000000000
     20544       661  AGAL      C5             10.1303924244       28.5972539906       53.2701316779  LPSA19    13              8.0000000000
     20545       661  AGAL      H5             10.9266281987       28.8776018361       52.5415302850  LPSA19    13              8.0000000000
     20546       661  AGAL      O5              9.3596281203       29.8141077903       53.4764683309  LPSA19    13              8.0000000000
     20547       661  AGAL      C2             10.9359422288       30.4793372615       55.1103865537  LPSA19    13              8.0000000000
     20548       661  AGAL      H2             10.1277883903       30.1329081456       55.7982717802  LPSA19    13              8.0000000000
     20549       661  AGAL      O2             11.5971328586       31.5770311742       55.7610631734  LPSA19    13              8.0000000000
     20550       661  AGAL      C3             11.7873494886       29.2375906971       54.9002375070  LPSA19    13              8.0000000000
     20551       661  AGAL      H3             12.4595745536       29.4133071614       54.0252941516  LPSA19    13              8.0000000000
     20552       661  AGAL      O3             12.6164778681       28.9074505514       56.0109170961  LPSA19    13              8.0000000000
     20553       661  AGAL      HO3            13.4818993331       28.6816757148       55.6468133151  LPSA19    13              8.0000000000
     20554       661  AGAL      C4             10.8627092357       28.1128521746       54.5219254124  LPSA19    13              8.0000000000
     20555       661  AGAL      H4             11.4841629039       27.2277583625       54.2301849764  LPSA19    13              8.0000000000
     20556       661  AGAL      O4              9.9943854393       27.7089300648       55.5971191368  LPSA19    13              8.0000000000
     20557       661  AGAL      HO4             9.5801872637       28.4646423462       56.0216627501  LPSA19    13              8.0000000000
     20558       661  AGAL      C6              9.4098974604       27.4758397203       52.5550139175  LPSA19    13              8.0000000000
     20559       661  AGAL      H61             8.9751693440       27.8665111635       51.6078254405  LPSA19    13              8.0000000000
     20560       661  AGAL      H62            10.1555942141       26.6793437476       52.3094898885  LPSA19    13              8.0000000000
     20561       661  AGAL      O6              8.3847390278       26.8889648851       53.3454446417  LPSA19    13              8.0000000000
     20562       661  AGAL      HO6             8.7770780460       26.2864205436       53.9916453475  LPSA19    13              8.0000000000
     20563       662  ARHM      C1             11.0805675690       31.9980407660       57.0081695459  LPSA19    14              9.0000000000
     20564       662  ARHM      H1              9.9892642219       31.7811069668       57.0401366185  LPSA19    14              9.0000000000
     20565       662  ARHM      C5             12.6016202138       33.8100973633       57.1815278085  LPSA19    14              9.0000000000
     20566       662  ARHM      H5             13.0295312135       33.4889587505       56.2031596327  LPSA19    14              9.0000000000
     20567       662  ARHM      O5             11.2195048171       33.4070785872       57.2085320558  LPSA19    14              9.0000000000
     20568       662  ARHM      C2             11.8085966224       31.2551499168       58.1108742664  LPSA19    14              9.0000000000
     20569       662  ARHM      H2             11.7012265369       30.1653930358       57.9236380366  LPSA19    14              9.0000000000
     20570       662  ARHM      O2             11.3940520318       31.5383796684       59.4601443639  LPSA19    14              9.0000000000
     20571       662  ARHM      C3             13.2640026661       31.6407573345       58.0523259444  LPSA19    14              9.0000000000
     20572       662  ARHM      H3             13.6397967536       31.4846781830       57.0154414516  LPSA19    14              9.0000000000
     20573       662  ARHM      O3             14.0826332942       30.8101361477       58.8704107556  LPSA19    14              9.0000000000
     20574       662  ARHM      HO3            13.9312684394       31.0270419041       59.7928974844  LPSA19    14              9.0000000000
     20575       662  ARHM      C4             13.3791498040       33.1308884771       58.3124277101  LPSA19    14              9.0000000000
     20576       662  ARHM      H4             12.8743871872       33.4187312145       59.2717162035  LPSA19    14              9.0000000000
     20577       662  ARHM      O4             14.7454157796       33.5599418117       58.3686141278  LPSA19    14              9.0000000000
     20578       662  ARHM      HO4            14.9707292111       33.7664819910       59.2759501077  LPSA19    14              9.0000000000
     20579       662  ARHM      C6             12.6458536012       35.3386425642       57.2722598630  LPSA19    14              9.0000000000
     20580       662  ARHM      H61            11.8726161536       35.7852398172       56.6155512515  LPSA19    14              9.0000000000
     20581       662  ARHM      H62            12.4475298335       35.6386662870       58.3167096303  LPSA19    14              9.0000000000
     20582       662  ARHM      H63            13.6152809586       35.7653339032       56.9538460294  LPSA19    14              9.0000000000
     20583       663  ARHM      C1             10.0264266012       31.4322063179       59.7476270287  LPSA19    15             10.0000000000
     20584       663  ARHM      H1              9.5494122322       30.7120144506       59.0438667102  LPSA19    15             10.0000000000
     20585       663  ARHM      C5              9.7399139413       33.6838283450       60.6323671778  LPSA19    15             10.0000000000
     20586       663  ARHM      H5             10.7935395476       34.0170533013       60.4443604410  LPSA19    15             10.0000000000
     20587       663  ARHM      O5              9.3153521703       32.6953801963       59.6689121506  LPSA19    15             10.0000000000
     20588       663  ARHM      C2              9.8949353387       30.8586265967       61.1421380425  LPSA19    15             10.0000000000
     20589       663  ARHM      H2             10.5074886297       29.9270420471       61.2082443791  LPSA19    15             10.0000000000
     20590       663  ARHM      O2              8.5044340484       30.5220475788       61.2997073626  LPSA19    15             10.0000000000
     20591       663  ARHM      C3             10.4320288536       31.8557257222       62.1357043550  LPSA19    15             10.0000000000
     20592       663  ARHM      H3             11.4741616846       32.1291992570       61.8413214959  LPSA19    15             10.0000000000
     20593       663  ARHM      O3             10.4805581664       31.2009982982       63.4035331648  LPSA19    15             10.0000000000
     20594       663  ARHM      C4              9.5846500510       33.1135304672       62.0343182853  LPSA19    15             10.0000000000
     20595       663  ARHM      H4              8.5162053544       32.8230269957       62.1586429141  LPSA19    15             10.0000000000
     20596       663  ARHM      O4              9.8484407827       34.1165812102       63.0167514853  LPSA19    15             10.0000000000
     20597       663  ARHM      HO4             9.1360607991       34.7662390450       62.9749730084  LPSA19    15             10.0000000000
     20598       663  ARHM      C6              8.8319778771       34.9111968363       60.4537764260  LPSA19    15             10.0000000000
     20599       663  ARHM      H61             9.1800526409       35.7478397633       61.0711135829  LPSA19    15             10.0000000000
     20600       663  ARHM      H62             8.8079743365       35.2018152794       59.3831548995  LPSA19    15             10.0000000000
     20601       663  ARHM      H63             7.8044418485       34.7229731953       60.8174459373  LPSA19    15             10.0000000000
     20602       664  BMANNA    C1              8.0394027632       29.9567736224       62.5091248854  LPSA19    16             11.0000000000
     20603       664  BMANNA    H1              8.0952161786       30.7265100800       63.3137305202  LPSA19    16             11.0000000000
     20604       664  BMANNA    C5              8.3188669676       28.2929511519       64.2025164940  LPSA19    16             11.0000000000
     20605       664  BMANNA    H5              8.3669436194       29.1205201079       64.9530170754  LPSA19    16             11.0000000000
     20606       664  BMANNA    O5              8.7764381866       28.7920266665       62.9248742564  LPSA19    16             11.0000000000
     20607       664  BMANNA    C2              6.5697792282       29.5708197542       62.3120178512  LPSA19    16             11.0000000000
     20608       664  BMANNA    H2              6.0293131993       30.5123020920       62.0381635302  LPSA19    16             11.0000000000
     20609       664  BMANNA    N               6.3233131972       28.5901669847       61.2580166052  LPSA19    16             11.0000000000
     20610       664  BMANNA    HN              6.3288184159       27.6402095630       61.5419820769  LPSA19    16             11.0000000000
     20611       664  BMANNA    C               6.0292819513       28.8617888859       59.9828771460  LPSA19    16             11.0000000000
     20612       664  BMANNA    O               5.9698436807       30.0017235247       59.5383320506  LPSA19    16             11.0000000000
     20613       664  BMANNA    CT              5.8238929190       27.6941411758       59.0633261533  LPSA19    16             11.0000000000
     20614       664  BMANNA    HT1             4.7513127075       27.5368015677       58.8486966911  LPSA19    16             11.0000000000
     20615       664  BMANNA    HT2             6.2177377691       26.7690202062       59.5172292660  LPSA19    16             11.0000000000
     20616       664  BMANNA    HT3             6.3643631083       27.8683374223       58.1126769104  LPSA19    16             11.0000000000
     20617       664  BMANNA    C3              6.0400657359       29.0655444682       63.6473451424  LPSA19    16             11.0000000000
     20618       664  BMANNA    H3              6.1744366460       29.8808126874       64.3959009184  LPSA19    16             11.0000000000
     20619       664  BMANNA    O3              4.6395502636       28.8056940885       63.5805530175  LPSA19    16             11.0000000000
     20620       664  BMANNA    HO3             4.2206106078       29.2692979279       64.3191282556  LPSA19    16             11.0000000000
     20621       664  BMANNA    C4              6.8604794463       27.8605082239       64.1140207173  LPSA19    16             11.0000000000
     20622       664  BMANNA    H4              6.7634132840       27.0344462094       63.3725821814  LPSA19    16             11.0000000000
     20623       664  BMANNA    O4              6.4451965037       27.3132504855       65.3658465496  LPSA19    16             11.0000000000
     20624       664  BMANNA    HO4             6.6823794023       26.3813629796       65.4091338226  LPSA19    16             11.0000000000
     20625       664  BMANNA    C6              9.1890556184       27.1763510627       64.7724359737  LPSA19    16             11.0000000000
     20626       664  BMANNA    H61             9.1095294339       27.2281834934       65.8803469381  LPSA19    16             11.0000000000
     20627       664  BMANNA    H62             8.7872064655       26.2006696696       64.4339612172  LPSA19    16             11.0000000000
     20628       664  BMANNA    O6             10.5762722594       27.2087446104       64.4453709445  LPSA19    16             11.0000000000
     20629       664  BMANNA    HO6            10.7705055662       26.5035657851       63.8087860383  LPSA19    16             11.0000000000
     20630       665  BGLCNA    C1             11.6329369829       31.4856543848       64.1458977222  LPSA19    17             11.0000000000
     20631       665  BGLCNA    H1             11.9039042892       32.5511957254       63.9832053091  LPSA19    17             11.0000000000
     20632       665  BGLCNA    C5             13.9324495245       30.9258520916       64.5700356239  LPSA19    17             11.0000000000
     20633       665  BGLCNA    H5             14.2522971124       31.9722665229       64.3905517316  LPSA19    17             11.0000000000
     20634       665  BGLCNA    O5             12.7495583410       30.6608960973       63.7818242294  LPSA19    17             11.0000000000
     20635       665  BGLCNA    C2             11.2221663478       31.2237467716       65.5804668082  LPSA19    17             11.0000000000
     20636       665  BGLCNA    H2             11.0144807725       30.1355015829       65.7527601398  LPSA19    17             11.0000000000
     20637       665  BGLCNA    N               9.9923820269       31.9339756518       65.8828311219  LPSA19    17             11.0000000000
     20638       665  BGLCNA    HN              9.8444589028       32.7679800625       65.3706706357  LPSA19    17             11.0000000000
     20639       665  BGLCNA    C               9.0904892338       31.6105921053       66.8223609282  LPSA19    17             11.0000000000
     20640       665  BGLCNA    O               9.0999849293       30.5844484690       67.4862055024  LPSA19    17             11.0000000000
     20641       665  BGLCNA    CT              8.0436688720       32.6799238610       67.0353076383  LPSA19    17             11.0000000000
     20642       665  BGLCNA    HT1             7.0862661599       32.4435258019       66.5271395215  LPSA19    17             11.0000000000
     20643       665  BGLCNA    HT2             8.4458596723       33.6539027943       66.6789719276  LPSA19    17             11.0000000000
     20644       665  BGLCNA    HT3             7.8433552671       32.7792981466       68.1217598150  LPSA19    17             11.0000000000
     20645       665  BGLCNA    C3             12.4096341158       31.6286214043       66.4320106275  LPSA19    17             11.0000000000
     20646       665  BGLCNA    H3             12.6676044815       32.6594620664       66.0916462632  LPSA19    17             11.0000000000
     20647       665  BGLCNA    O3             12.0159670798       31.6933950755       67.8269129593  LPSA19    17             11.0000000000
     20648       665  BGLCNA    C4             13.5815596429       30.7212868000       66.0526390795  LPSA19    17             11.0000000000
     20649       665  BGLCNA    H4             13.2710773275       29.6548035790       66.1456834467  LPSA19    17             11.0000000000
     20650       665  BGLCNA    O4             14.7068473730       30.9300295328       66.9066257841  LPSA19    17             11.0000000000
     20651       665  BGLCNA    HO4            15.4536445009       30.3516844035       66.6702778222  LPSA19    17             11.0000000000
     20652       665  BGLCNA    C6             15.0768378636       30.0139587153       64.1115910263  LPSA19    17             11.0000000000
     20653       665  BGLCNA    H61            16.0482565119       30.5573602787       64.1559587579  LPSA19    17             11.0000000000
     20654       665  BGLCNA    H62            15.1353377980       29.1416841218       64.7999946716  LPSA19    17             11.0000000000
     20655       665  BGLCNA    O6             14.9303813708       29.4978513509       62.7885614397  LPSA19    17             11.0000000000
     20656       665  BGLCNA    HO6            14.8509982544       30.2450604991       62.1898827403  LPSA19    17             11.0000000000
     20657       666  AGAL      C1             12.6268860270       32.6944317489       68.6210278733  LPSA19    18             12.0000000000
     20658       666  AGAL      H1             13.6842526160       32.3999741374       68.8068047861  LPSA19    18             12.0000000000
     20659       666  AGAL      C5             11.2921424608       34.5078448182       67.8552826551  LPSA19    18             12.0000000000
     20660       666  AGAL      H5             10.6637804083       33.7188719377       67.4054439465  LPSA19    18             12.0000000000
     20661       666  AGAL      O5             12.6219318529       33.9754801862       67.9815184415  LPSA19    18             12.0000000000
     20662       666  AGAL      C2             11.9599827100       32.9086414525       69.9703803954  LPSA19    18             12.0000000000
     20663       666  AGAL      H2             12.5474011091       33.7585161271       70.3961475440  LPSA19    18             12.0000000000
     20664       666  AGAL      O2             12.1462387171       31.8119185616       70.8676266415  LPSA19    18             12.0000000000
     20665       666  AGAL      C3             10.5263453024       33.4221143592       69.8474124063  LPSA19    18             12.0000000000
     20666       666  AGAL      H3              9.9700242686       32.7284492675       69.1725539459  LPSA19    18             12.0000000000
     20667       666  AGAL      O3              9.8134622087       33.4465163148       71.0863017838  LPSA19    18             12.0000000000
     20668       666  AGAL      HO3             8.9528294909       33.0229565146       70.9614181704  LPSA19    18             12.0000000000
     20669       666  AGAL      C4             10.5829306867       34.7842638864       69.1712783679  LPSA19    18             12.0000000000
     20670       666  AGAL      H4              9.5550281630       35.1560565208       68.9411319486  LPSA19    18             12.0000000000
     20671       666  AGAL      O4             11.2397676447       35.7769786487       69.9561320438  LPSA19    18             12.0000000000
     20672       666  AGAL      HO4            10.6593803953       35.9911723042       70.7010161760  LPSA19    18             12.0000000000
     20673       666  AGAL      C6             11.2636865905       35.5453723458       66.7705841493  LPSA19    18             12.0000000000
     20674       666  AGAL      H61            11.5705488410       35.0205436576       65.8393910086  LPSA19    18             12.0000000000
     20675       666  AGAL      H62            10.2282397005       35.9253958097       66.6399120261  LPSA19    18             12.0000000000
     20676       666  AGAL      O6             12.1626272124       36.6239476142       66.9636382997  LPSA19    18             12.0000000000
     20677       666  AGAL      HO6            12.7416292790       36.4073980427       67.7033256072  LPSA19    18             12.0000000000
     20678       667  ARHM      C1             12.4383977032       32.2836910440       72.1615945558  LPSA19    19             13.0000000000
     20679       667  ARHM      H1             11.9699758322       33.2758727578       72.3467275468  LPSA19    19             13.0000000000
     20680       667  ARHM      C5             14.5966029268       31.2853873399       72.2452913654  LPSA19    19             13.0000000000
     20681       667  ARHM      H5             14.3866858145       30.9133990464       71.2149609008  LPSA19    19             13.0000000000
     20682       667  ARHM      O5             13.8421288694       32.4874928015       72.4001930080  LPSA19    19             13.0000000000
     20683       667  ARHM      C2             11.9124289465       31.2538834980       73.1170069940  LPSA19    19             13.0000000000
     20684       667  ARHM      H2             10.8480268925       31.0012957172       72.8764267358  LPSA19    19             13.0000000000
     20685       667  ARHM      O2             11.9533333986       31.7600181230       74.4576696584  LPSA19    19             13.0000000000
     20686       667  ARHM      C3             12.6996750738       29.9754475338       72.9590867712  LPSA19    19             13.0000000000
     20687       667  ARHM      H3             12.6168619327       29.6231474139       71.9026017750  LPSA19    19             13.0000000000
     20688       667  ARHM      O3             12.1690555446       28.9555273882       73.7775498358  LPSA19    19             13.0000000000
     20689       667  ARHM      HO3            12.0713651666       29.2943369755       74.6698589517  LPSA19    19             13.0000000000
     20690       667  ARHM      C4             14.1564822177       30.2334182720       73.2381657615  LPSA19    19             13.0000000000
     20691       667  ARHM      H4             14.2290727567       30.6219113145       74.2831484480  LPSA19    19             13.0000000000
     20692       667  ARHM      O4             14.9877938290       29.0755166832       73.1158978768  LPSA19    19             13.0000000000
     20693       667  ARHM      HO4            14.9058583283       28.7363842228       72.2210398687  LPSA19    19             13.0000000000
     20694       667  ARHM      C6             16.1000137603       31.6135590026       72.2753329783  LPSA19    19             13.0000000000
     20695       667  ARHM      H61            16.2662346730       32.3371286439       71.4619239919  LPSA19    19             13.0000000000
     20696       667  ARHM      H62            16.4232292997       32.0432236167       73.2469723044  LPSA19    19             13.0000000000
     20697       667  ARHM      H63            16.7072523134       30.7076944286       72.0718473483  LPSA19    19             13.0000000000
     20698       668  ARHM      C1             10.9635473653       32.7323267466       74.7067820147  LPSA19    20             14.0000000000
     20699       668  ARHM      H1             10.2275609154       32.7731119497       73.8732648729  LPSA19    20             14.0000000000
     20700       668  ARHM      C5             12.3322301100       34.1908528132       75.9604249385  LPSA19    20             14.0000000000
     20701       668  ARHM      H5             13.1202452054       33.4374034970       75.7960805054  LPSA19    20             14.0000000000
     20702       668  ARHM      O5             11.4618726016       34.0703650819       74.8458479605  LPSA19    20             14.0000000000
     20703       668  ARHM      C2             10.2484302825       32.2983305405       75.9521474489  LPSA19    20             14.0000000000
     20704       668  ARHM      H2              9.9639499490       31.2171422623       75.8470399963  LPSA19    20             14.0000000000
     20705       668  ARHM      O2              9.0861386387       33.1034973818       76.1595021259  LPSA19    20             14.0000000000
     20706       668  ARHM      C3             11.1467791860       32.4084467169       77.1315761117  LPSA19    20             14.0000000000
     20707       668  ARHM      H3             12.0384473369       31.7567157327       76.9584474542  LPSA19    20             14.0000000000
     20708       668  ARHM      O3             10.4185108277       31.9495226256       78.2705231445  LPSA19    20             14.0000000000
     20709       668  ARHM      C4             11.6015980737       33.8392257063       77.2481381005  LPSA19    20             14.0000000000
     20710       668  ARHM      H4             10.7510938026       34.5568791679       77.3313281150  LPSA19    20             14.0000000000
     20711       668  ARHM      O4             12.4496210513       34.0121387573       78.3767372054  LPSA19    20             14.0000000000
     20712       668  ARHM      HO4            13.0591806023       34.6957103941       78.0998655941  LPSA19    20             14.0000000000
     20713       668  ARHM      C6             12.9564670892       35.5998412549       75.9567570476  LPSA19    20             14.0000000000
     20714       668  ARHM      H61            12.2015747334       36.4059022048       76.0793736283  LPSA19    20             14.0000000000
     20715       668  ARHM      H62            13.7112447247       35.6745688309       76.7602229156  LPSA19    20             14.0000000000
     20716       668  ARHM      H63            13.4672342426       35.7903308619       74.9901512136  LPSA19    20             14.0000000000
     20717       669  BMANNA    C1              8.0145394636       32.6274442760       75.4107580663  LPSA19    21             15.0000000000
     20718       669  BMANNA    H1              8.3754708409       31.8273869413       74.7220399395  LPSA19    21             15.0000000000
     20719       669  BMANNA    C5              6.4709606803       33.0144573433       73.7056401323  LPSA19    21             15.0000000000
     20720       669  BMANNA    H5              6.9100320786       32.1280855732       73.2217455488  LPSA19    21             15.0000000000
     20721       669  BMANNA    O5              7.4732600555       33.6223236104       74.5411266756  LPSA19    21             15.0000000000
     20722       669  BMANNA    C2              6.9577025708       32.0630423868       76.3536947150  LPSA19    21             15.0000000000
     20723       669  BMANNA    H2              7.4832681048       31.2527973518       76.9275094431  LPSA19    21             15.0000000000
     20724       669  BMANNA    N               6.3891704303       33.0344753320       77.2911611487  LPSA19    21             15.0000000000
     20725       669  BMANNA    HN              6.2131784722       33.9374529431       76.9203362789  LPSA19    21             15.0000000000
     20726       669  BMANNA    C               6.0740216600       32.7815425328       78.5795647425  LPSA19    21             15.0000000000
     20727       669  BMANNA    O               6.0494516871       31.6522990317       79.0392014343  LPSA19    21             15.0000000000
     20728       669  BMANNA    CT              5.7356607834       33.9620486941       79.4716121142  LPSA19    21             15.0000000000
     20729       669  BMANNA    HT1             4.7002220793       34.3132711317       79.2800322094  LPSA19    21             15.0000000000
     20730       669  BMANNA    HT2             6.4615215134       34.7830906145       79.3029182012  LPSA19    21             15.0000000000
     20731       669  BMANNA    HT3             5.8070819369       33.6701928745       80.5441245912  LPSA19    21             15.0000000000
     20732       669  BMANNA    C3              5.9135368320       31.4174855147       75.4784045289  LPSA19    21             15.0000000000
     20733       669  BMANNA    H3              6.4470449172       30.6029069551       74.9276513600  LPSA19    21             15.0000000000
     20734       669  BMANNA    O3              4.8938002536       30.7846877212       76.2280975054  LPSA19    21             15.0000000000
     20735       669  BMANNA    HO3             4.5178716644       31.4444394853       76.8212715603  LPSA19    21             15.0000000000
     20736       669  BMANNA    C4              5.3417406157       32.4393980598       74.5119608507  LPSA19    21             15.0000000000
     20737       669  BMANNA    H4              4.8193759380       33.2682800063       75.0377866724  LPSA19    21             15.0000000000
     20738       669  BMANNA    O4              4.4175127186       31.8627337533       73.6089798619  LPSA19    21             15.0000000000
     20739       669  BMANNA    HO4             3.5309069382       32.2051554393       73.7568123595  LPSA19    21             15.0000000000
     20740       669  BMANNA    C6              5.9890823251       33.9496998553       72.6307299282  LPSA19    21             15.0000000000
     20741       669  BMANNA    H61             5.4912408830       33.3738922693       71.8234475900  LPSA19    21             15.0000000000
     20742       669  BMANNA    H62             5.2350319281       34.6286781665       73.0798653546  LPSA19    21             15.0000000000
     20743       669  BMANNA    O6              7.0507234384       34.6954018958       72.0528611152  LPSA19    21             15.0000000000
     20744       669  BMANNA    HO6             7.4371136725       35.2349257684       72.7522161169  LPSA19    21             15.0000000000
     20745       670  BGLCNA    C1             11.1534160564       31.2555476652       79.2392948707  LPSA19    22             15.0000000000
     20746       670  BGLCNA    H1             12.2233481731       31.5559261241       79.2367352324  LPSA19    22             15.0000000000
     20747       670  BGLCNA    C5             11.7478082453       29.1453535515       80.1005951677  LPSA19    22             15.0000000000
     20748       670  BGLCNA    H5             12.8101039238       29.4966901538       80.1025907113  LPSA19    22             15.0000000000
     20749       670  BGLCNA    O5             11.0482765982       29.8424497211       79.0654859781  LPSA19    22             15.0000000000
     20750       670  BGLCNA    C2             10.5125377966       31.6327609627       80.5466874841  LPSA19    22             15.0000000000
     20751       670  BGLCNA    H2              9.4379034899       31.3089512105       80.4967269175  LPSA19    22             15.0000000000
     20752       670  BGLCNA    N              10.5702103348       33.0632578041       80.7221021642  LPSA19    22             15.0000000000
     20753       670  BGLCNA    HN             11.3920509436       33.5140597643       80.3903532074  LPSA19    22             15.0000000000
     20754       670  BGLCNA    C               9.6395922364       33.7903409583       81.3388751506  LPSA19    22             15.0000000000
     20755       670  BGLCNA    O               8.6191233798       33.3422524512       81.8500689804  LPSA19    22             15.0000000000
     20756       670  BGLCNA    CT              9.9489958111       35.2605375150       81.3813558432  LPSA19    22             15.0000000000
     20757       670  BGLCNA    HT1             9.4144332058       35.7317332054       80.5340585125  LPSA19    22             15.0000000000
     20758       670  BGLCNA    HT2            11.0367840539       35.4440586156       81.2780623154  LPSA19    22             15.0000000000
     20759       670  BGLCNA    HT3             9.6089351212       35.6883974081       82.3424827426  LPSA19    22             15.0000000000
     20760       670  BGLCNA    C3             11.2146727175       30.9275011931       81.6875954787  LPSA19    22             15.0000000000
     20761       670  BGLCNA    H3             12.2938768033       31.2040903536       81.6516309871  LPSA19    22             15.0000000000
     20762       670  BGLCNA    O3             10.6414801000       31.4383620352       82.9005196074  LPSA19    22             15.0000000000
     20763       670  BGLCNA    C4             11.1231291623       29.4402817346       81.4643273178  LPSA19    22             15.0000000000
     20764       670  BGLCNA    H4             10.0445169216       29.1615502539       81.4179035804  LPSA19    22             15.0000000000
     20765       670  BGLCNA    O4             11.7376941060       28.6617715672       82.4997175209  LPSA19    22             15.0000000000
     20766       670  BGLCNA    HO4            11.1573027688       27.9261523819       82.7433503392  LPSA19    22             15.0000000000
     20767       670  BGLCNA    C6             11.7020934217       27.6937927130       79.7531488559  LPSA19    22             15.0000000000
     20768       670  BGLCNA    H61            11.9601087146       27.1524732676       80.6660910097  LPSA19    22             15.0000000000
     20769       670  BGLCNA    H62            10.6809310106       27.3748119292       79.4355113355  LPSA19    22             15.0000000000
     20770       670  BGLCNA    O6             12.7032682084       27.3341522039       78.8079744753  LPSA19    22             15.0000000000
     20771       670  BGLCNA    HO6            12.5441996208       27.7809742658       77.9608853162  LPSA19    22             15.0000000000
     20772       671  AGAL      C1             11.3512395503       31.2937871811       84.1005419213  LPSA19    23             16.0000000000
     20773       671  AGAL      H1             11.2827151217       30.2410905010       84.4491232290  LPSA19    23             16.0000000000
     20774       671  AGAL      C5             12.9393857118       33.0497097501       83.7251016840  LPSA19    23             16.0000000000
     20775       671  AGAL      H5             12.3577023056       33.3241329065       82.8161691252  LPSA19    23             16.0000000000
     20776       671  AGAL      O5             12.7381634865       31.6450347864       83.9917194129  LPSA19    23             16.0000000000
     20777       671  AGAL      C2             10.7136015259       32.1311256694       85.1862818285  LPSA19    23             16.0000000000
     20778       671  AGAL      H2             11.3031890544       31.9375469651       86.1086098385  LPSA19    23             16.0000000000
     20779       671  AGAL      O2              9.3407460015       31.7473315379       85.4278698859  LPSA19    23             16.0000000000
     20780       671  AGAL      C3             10.9004512581       33.6112660492       84.8814302227  LPSA19    23             16.0000000000
     20781       671  AGAL      H3             10.5033350690       33.8187552197       83.8645753871  LPSA19    23             16.0000000000
     20782       671  AGAL      O3             10.1594074104       34.4535871136       85.7503206255  LPSA19    23             16.0000000000
     20783       671  AGAL      HO3            10.2599575271       34.1652051460       86.6584754005  LPSA19    23             16.0000000000
     20784       671  AGAL      C4             12.3924198428       33.9173234098       84.8578658150  LPSA19    23             16.0000000000
     20785       671  AGAL      H4             12.5799931751       34.9903469146       84.6221501323  LPSA19    23             16.0000000000
     20786       671  AGAL      O4             13.0407094255       33.6220935639       86.0935301514  LPSA19    23             16.0000000000
     20787       671  AGAL      HO4            13.9627991478       33.4066038449       85.8455504643  LPSA19    23             16.0000000000
     20788       671  AGAL      C6             14.3855163535       33.2624648265       83.3432510065  LPSA19    23             16.0000000000
     20789       671  AGAL      H61            14.6569426737       32.4970641699       82.6035344560  LPSA19    23             16.0000000000
     20790       671  AGAL      H62            14.5311426347       34.2403648722       82.8274595486  LPSA19    23             16.0000000000
     20791       671  AGAL      O6             15.2697215930       33.1315226844       84.4526444089  LPSA19    23             16.0000000000
     20792       671  AGAL      HO6            16.1964094396       33.1823398296       84.1721818909  LPSA19    23             16.0000000000
     20793       672  ARHM      C1              9.0865807046       30.6378856374       86.2699843320  LPSA19    24             17.0000000000
     20794       672  ARHM      H1             10.0176732576       30.0375777035       86.3815914037  LPSA19    24             17.0000000000
     20795       672  ARHM      C5              6.7898679348       30.3652979232       85.6389310672  LPSA19    24             17.0000000000
     20796       672  ARHM      H5              6.9331648477       31.2233561644       84.9436254771  LPSA19    24             17.0000000000
     20797       672  ARHM      O5              8.0764990799       29.7373047515       85.7815761554  LPSA19    24             17.0000000000
     20798       672  ARHM      C2              8.6486155766       31.2102837194       87.5890259810  LPSA19    24             17.0000000000
     20799       672  ARHM      H2              9.4034305291       31.9578739971       87.8823995211  LPSA19    24             17.0000000000
     20800       672  ARHM      O2              8.5094336211       30.2022294345       88.6033061051  LPSA19    24             17.0000000000
     20801       672  ARHM      C3              7.3408271026       31.9387651985       87.4222293336  LPSA19    24             17.0000000000
     20802       672  ARHM      H3              7.4815882559       32.7100187944       86.6281071691  LPSA19    24             17.0000000000
     20803       672  ARHM      O3              6.9837089418       32.6534262463       88.6023880326  LPSA19    24             17.0000000000
     20804       672  ARHM      HO3             6.4575975113       32.0634408554       89.1533680893  LPSA19    24             17.0000000000
     20805       672  ARHM      C4              6.3010271544       30.9334891312       86.9617946386  LPSA19    24             17.0000000000
     20806       672  ARHM      H4              6.2369827203       30.0969837225       87.7031908052  LPSA19    24             17.0000000000
     20807       672  ARHM      O4              5.0090771352       31.5177097547       86.8185887831  LPSA19    24             17.0000000000
     20808       672  ARHM      HO4             4.3429518646       30.8522430644       87.0371040377  LPSA19    24             17.0000000000
     20809       672  ARHM      C6              5.7874609058       29.4033509032       84.9626989579  LPSA19    24             17.0000000000
     20810       672  ARHM      H61             5.0203636192       29.9936652330       84.4131576148  LPSA19    24             17.0000000000
     20811       672  ARHM      H62             6.3171168908       28.7813731091       84.2122688387  LPSA19    24             17.0000000000
     20812       672  ARHM      H63             5.2922283469       28.7179124177       85.6832003817  LPSA19    24             17.0000000000
     20813       673  ARHM      C1              9.7036840271       29.7178629829       89.1457081639  LPSA19    25             18.0000000000
     20814       673  ARHM      H1             10.5404002681       29.9926426346       88.4655108898  LPSA19    25             18.0000000000
     20815       673  ARHM      C5              8.7925666298       27.7874636567       90.2088194322  LPSA19    25             18.0000000000
     20816       673  ARHM      H5              7.7755691146       28.0731380261       89.8523478803  LPSA19    25             18.0000000000
     20817       673  ARHM      O5              9.7591926480       28.2862859120       89.2664558374  LPSA19    25             18.0000000000
     20818       673  ARHM      C2              9.9306618392       30.3864370318       90.4676471389  LPSA19    25             18.0000000000
     20819       673  ARHM      H2              9.7435151956       31.4803091732       90.3827281708  LPSA19    25             18.0000000000
     20820       673  ARHM      O2             11.2793539082       30.1599859059       90.8948754556  LPSA19    25             18.0000000000
     20821       673  ARHM      C3              8.9187648834       29.8827060615       91.4595507266  LPSA19    25             18.0000000000
     20822       673  ARHM      H3              7.8864359240       30.1077382585       91.0845354540  LPSA19    25             18.0000000000
     20823       673  ARHM      O3              9.1699715683       30.5441062288       92.7001087437  LPSA19    25             18.0000000000
     20824       673  ARHM      C4              9.0323433067       28.3956848973       91.5879503223  LPSA19    25             18.0000000000
     20825       673  ARHM      H4             10.0611920470       28.1022386554       91.9080693214  LPSA19    25             18.0000000000
     20826       673  ARHM      O4              8.1165559355       27.9274361493       92.5767238547  LPSA19    25             18.0000000000
     20827       673  ARHM      HO4             8.5009188737       27.1792585312       93.0307001035  LPSA19    25             18.0000000000
     20828       673  ARHM      C6              8.8527407106       26.2525715474       90.2168192056  LPSA19    25             18.0000000000
     20829       673  ARHM      H61             8.7847159110       25.8779103822       89.1769017172  LPSA19    25             18.0000000000
     20830       673  ARHM      H62             9.7963368030       25.8903859011       90.6608233839  LPSA19    25             18.0000000000
     20831       673  ARHM      H63             7.9869769952       25.8619204308       90.7947863618  LPSA19    25             18.0000000000
     20832       674  BMANNA    C1             12.2400678846       30.9826240985       90.2834247015  LPSA19    26             19.0000000000
     20833       674  BMANNA    H1             11.7879413923       31.8984700328       89.8619763270  LPSA19    26             19.0000000000
     20834       674  BMANNA    C5             13.8958965716       31.2407551331       88.5922810706  LPSA19    26             19.0000000000
     20835       674  BMANNA    H5             13.3373069998       32.1111161714       88.1765941809  LPSA19    26             19.0000000000
     20836       674  BMANNA    O5             12.9553376908       30.3405505612       89.2236754519  LPSA19    26             19.0000000000
     20837       674  BMANNA    C2             13.2020385706       31.3757443469       91.3556909958  LPSA19    26             19.0000000000
     20838       674  BMANNA    H2             12.5840000380       31.9218390607       92.1226891877  LPSA19    26             19.0000000000
     20839       674  BMANNA    N              13.8717415497       30.2221188841       91.9291650634  LPSA19    26             19.0000000000
     20840       674  BMANNA    HN             14.3219584812       29.6161128411       91.2886816275  LPSA19    26             19.0000000000
     20841       674  BMANNA    C              13.9121333524       29.9626402285       93.2357315559  LPSA19    26             19.0000000000
     20842       674  BMANNA    O              13.2715728041       30.6363649309       94.0253316385  LPSA19    26             19.0000000000
     20843       674  BMANNA    CT             14.8489254831       28.8606025085       93.6722498630  LPSA19    26             19.0000000000
     20844       674  BMANNA    HT1            14.9613290394       28.1152979461       92.8575429478  LPSA19    26             19.0000000000
     20845       674  BMANNA    HT2            14.5501459835       28.3376910412       94.6036620617  LPSA19    26             19.0000000000
     20846       674  BMANNA    HT3            15.8373420508       29.3170200125       93.8643666259  LPSA19    26             19.0000000000
     20847       674  BMANNA    C3             14.1622274556       32.3619538985       90.7627178459  LPSA19    26             19.0000000000
     20848       674  BMANNA    H3             13.5379969454       33.1555511454       90.3227616251  LPSA19    26             19.0000000000
     20849       674  BMANNA    O3             15.0010660231       32.9124388356       91.7721102337  LPSA19    26             19.0000000000
     20850       674  BMANNA    HO3            14.4802887430       33.5869205552       92.2220761111  LPSA19    26             19.0000000000
     20851       674  BMANNA    C4             14.9135624544       31.7293710652       89.6194062015  LPSA19    26             19.0000000000
     20852       674  BMANNA    H4             15.5098467349       30.8664185639       89.9719742952  LPSA19    26             19.0000000000
     20853       674  BMANNA    O4             15.8101963087       32.6610548137       89.0361302280  LPSA19    26             19.0000000000
     20854       674  BMANNA    HO4            16.6225013570       32.6867034463       89.5438375622  LPSA19    26             19.0000000000
     20855       674  BMANNA    C6             14.4949452384       30.4961892609       87.4068932684  LPSA19    26             19.0000000000
     20856       674  BMANNA    H61            13.7000063610       29.8890370600       86.9153858882  LPSA19    26             19.0000000000
     20857       674  BMANNA    H62            14.8788056413       31.2128090072       86.6431164011  LPSA19    26             19.0000000000
     20858       674  BMANNA    O6             15.5534744081       29.6228664376       87.8030395428  LPSA19    26             19.0000000000
     20859       674  BMANNA    HO6            16.2829504147       30.1731711574       88.0991059512  LPSA19    26             19.0000000000
     20860       675  BGLCNA    C1              8.0743761709       30.9276692363       93.4743116721  LPSA19    27             19.0000000000
     20861       675  BGLCNA    H1              7.2388562109       30.1943392022       93.4277463655  LPSA19    27             19.0000000000
     20862       675  BGLCNA    C5              6.5276418637       32.6486978084       93.9239961985  LPSA19    27             19.0000000000
     20863       675  BGLCNA    H5              5.7479793284       31.8465783270       93.9347203328  LPSA19    27             19.0000000000
     20864       675  BGLCNA    O5              7.5960510506       32.2109778724       93.0771522116  LPSA19    27             19.0000000000
     20865       675  BGLCNA    C2              8.6540752344       31.0224943559       94.8706122726  LPSA19    27             19.0000000000
     20866       675  BGLCNA    H2              9.4479619146       31.8168380835       94.8355428318  LPSA19    27             19.0000000000
     20867       675  BGLCNA    N               9.2692409361       29.7720603545       95.3034711425  LPSA19    27             19.0000000000
     20868       675  BGLCNA    HN              8.7778248412       28.9506454471       95.0503162693  LPSA19    27             19.0000000000
     20869       675  BGLCNA    C              10.4524887181       29.7630145269       95.9595302275  LPSA19    27             19.0000000000
     20870       675  BGLCNA    O              10.8880469336       30.7622434093       96.5031315421  LPSA19    27             19.0000000000
     20871       675  BGLCNA    CT             11.2328436268       28.4709986803       96.0130698473  LPSA19    27             19.0000000000
     20872       675  BGLCNA    HT1            10.7668588160       27.7063504341       95.3648844850  LPSA19    27             19.0000000000
     20873       675  BGLCNA    HT2            11.3257801910       28.0985513080       97.0513795904  LPSA19    27             19.0000000000
     20874       675  BGLCNA    HT3            12.2717187353       28.6778624719       95.6694020743  LPSA19    27             19.0000000000
     20875       675  BGLCNA    C3              7.5989570813       31.4787659863       95.8229860404  LPSA19    27             19.0000000000
     20876       675  BGLCNA    H3              6.7661694038       30.7347552946       95.7773651788  LPSA19    27             19.0000000000
     20877       675  BGLCNA    O3              8.2371940949       31.4674809356       97.1225139892  LPSA19    27             19.0000000000
     20878       675  BGLCNA    C4              7.0571866166       32.8052824286       95.3380440111  LPSA19    27             19.0000000000
     20879       675  BGLCNA    H4              7.8650661302       33.5734337406       95.3302378316  LPSA19    27             19.0000000000
     20880       675  BGLCNA    O4              6.0125369707       33.2737671501       96.1619243002  LPSA19    27             19.0000000000
     20881       675  BGLCNA    HO4             5.2727060276       32.6660975383       96.0825720178  LPSA19    27             19.0000000000
     20882       675  BGLCNA    C6              5.8600875601       33.8693097379       93.3329410676  LPSA19    27             19.0000000000
     20883       675  BGLCNA    H61             4.9119927553       34.0866922592       93.8671300532  LPSA19    27             19.0000000000
     20884       675  BGLCNA    H62             6.5257233544       34.7387893697       93.4414022575  LPSA19    27             19.0000000000
     20885       675  BGLCNA    O6              5.5553332891       33.6550076978       91.9583817316  LPSA19    27             19.0000000000
     20886       675  BGLCNA    HO6             5.2608396391       34.4545432687       91.4859846384  LPSA19    27             19.0000000000
     20887       676  AGAL      C1              7.3991595033       31.4574413981       98.2393835354  LPSA19    28             20.0000000000
     20888       676  AGAL      H1              6.9393038057       32.4676900182       98.3200929528  LPSA19    28             20.0000000000
     20889       676  AGAL      C5              6.8035166176       29.1334407926       98.1248038947  LPSA19    28             20.0000000000
     20890       676  AGAL      H5              7.6690404863       29.0109243799       97.4294339426  LPSA19    28             20.0000000000
     20891       676  AGAL      O5              6.3369322994       30.5026456876       98.0464446655  LPSA19    28             20.0000000000
     20892       676  AGAL      C2              8.0584765705       31.1752661118       99.6094220087  LPSA19    28             20.0000000000
     20893       676  AGAL      H2              7.2066847321       31.2450396197      100.3024765494  LPSA19    28             20.0000000000
     20894       676  AGAL      O2              9.0197662170       32.1154703450      100.1106497841  LPSA19    28             20.0000000000
     20895       676  AGAL      C3              8.5613816019       29.7455283830       99.6912609541  LPSA19    28             20.0000000000
     20896       676  AGAL      H3              9.2629549288       29.5875159689       98.8429661095  LPSA19    28             20.0000000000
     20897       676  AGAL      O3              9.2844656373       29.3885730038      100.8731212929  LPSA19    28             20.0000000000
     20898       676  AGAL      HO3            10.1632439787       29.1048064206      100.5910980149  LPSA19    28             20.0000000000
     20899       676  AGAL      C4              7.3744935513       28.8383376337       99.4932634190  LPSA19    28             20.0000000000
     20900       676  AGAL      H4              7.7497856709       27.7893657866       99.4893795530  LPSA19    28             20.0000000000
     20901       676  AGAL      O4              6.3874701993       28.9682705953      100.5117394272  LPSA19    28             20.0000000000
     20902       676  AGAL      HO4             6.4750501524       28.2250265393      101.1105825119  LPSA19    28             20.0000000000
     20903       676  AGAL      C6              5.7537021334       28.1377235496       97.6433995471  LPSA19    28             20.0000000000
     20904       676  AGAL      H61             5.5785945487       28.3151344912       96.5613909409  LPSA19    28             20.0000000000
     20905       676  AGAL      H62             6.0929984360       27.0888581177       97.7573864177  LPSA19    28             20.0000000000
     20906       676  AGAL      O6              4.5095616188       28.2169073033       98.3223260206  LPSA19    28             20.0000000000
     20907       676  AGAL      HO6             4.0108681929       28.9555656706       97.9745829087  LPSA19    28             20.0000000000
     20908       677  ARHM      C1              8.8112158979       32.3439918702      101.4914457672  LPSA19    29             21.0000000000
     20909       677  ARHM      H1              8.3178647592       31.4758323343      101.9683471553  LPSA19    29             21.0000000000
     20910       677  ARHM      C5              8.5889164001       34.6599109157      101.1575244215  LPSA19    29             21.0000000000
     20911       677  ARHM      H5              8.7864389604       34.4874227858      100.0710809548  LPSA19    29             21.0000000000
     20912       677  ARHM      O5              7.9950790743       33.4892464132      101.7146769880  LPSA19    29             21.0000000000
     20913       677  ARHM      C2             10.1241458311       32.5373809002      102.1708964109  LPSA19    29             21.0000000000
     20914       677  ARHM      H2             10.7643243301       31.6600484244      101.9190433552  LPSA19    29             21.0000000000
     20915       677  ARHM      O2              9.9362705166       32.6362126267      103.6052832431  LPSA19    29             21.0000000000
     20916       677  ARHM      C3             10.7875412427       33.7642156790      101.6069790224  LPSA19    29             21.0000000000
     20917       677  ARHM      H3             10.9507257872       33.6390318236      100.5085310720  LPSA19    29             21.0000000000
     20918       677  ARHM      O3             12.0552972611       33.9147981876      102.1907127047  LPSA19    29             21.0000000000
     20919       677  ARHM      HO3            12.2194857775       34.8630990118      102.1980027608  LPSA19    29             21.0000000000
     20920       677  ARHM      C4              9.9140510438       34.9826232702      101.8263625788  LPSA19    29             21.0000000000
     20921       677  ARHM      H4              9.7500062008       35.1443839120      102.9171292269  LPSA19    29             21.0000000000
     20922       677  ARHM      O4             10.5039738434       36.1942956468      101.3567884405  LPSA19    29             21.0000000000
     20923       677  ARHM      HO4            10.8446819780       36.1174108822      100.4566356076  LPSA19    29             21.0000000000
     20924       677  ARHM      C6              7.4737203419       35.6737841302      101.2322439391  LPSA19    29             21.0000000000
     20925       677  ARHM      H61             6.5913855773       35.2104084199      100.7575813900  LPSA19    29             21.0000000000
     20926       677  ARHM      H62             7.2343847495       36.0070527424      102.2662348954  LPSA19    29             21.0000000000
     20927       677  ARHM      H63             7.7111665821       36.4904482179      100.5542844848  LPSA19    29             21.0000000000
     20928       678  ARHM      C1             10.1411599248       31.4711094188      104.3717967867  LPSA19    30             22.0000000000
     20929       678  ARHM      H1             11.1526026909       31.0563255821      104.1634559364  LPSA19    30             22.0000000000
     20930       678  ARHM      C5              7.8214308527       30.9187260722      104.4969513165  LPSA19    30             22.0000000000
     20931       678  ARHM      H5              7.6377850579       31.8485432444      103.9150926047  LPSA19    30             22.0000000000
     20932       678  ARHM      O5              9.1397138495       30.4602115192      104.1583227330  LPSA19    30             22.0000000000
     20933       678  ARHM      C2             10.0754448861       31.8696792785      105.8269915914  LPSA19    30             22.0000000000
     20934       678  ARHM      H2             10.8314854566       32.6623210640      106.0277324965  LPSA19    30             22.0000000000
     20935       678  ARHM      O2             10.3413068323       30.7095232107      106.6044300202  LPSA19    30             22.0000000000
     20936       678  ARHM      C3              8.7015269225       32.3673027266      106.2249660329  LPSA19    30             22.0000000000
     20937       678  ARHM      H3              8.4443743534       33.1917479333      105.5172322523  LPSA19    30             22.0000000000
     20938       678  ARHM      O3              8.7084365566       32.9423256374      107.5487382665  LPSA19    30             22.0000000000
     20939       678  ARHM      C4              7.7012226833       31.2703936456      105.9653304097  LPSA19    30             22.0000000000
     20940       678  ARHM      H4              7.9284903818       30.3564556351      106.5570579399  LPSA19    30             22.0000000000
     20941       678  ARHM      O4              6.3717443946       31.6401048621      106.3082365280  LPSA19    30             22.0000000000
     20942       678  ARHM      HO4             5.9299246009       32.1774192113      105.6504449259  LPSA19    30             22.0000000000
     20943       678  ARHM      C6              6.7871425389       29.8816828996      104.0572334429  LPSA19    30             22.0000000000
     20944       678  ARHM      H61             5.7696761504       30.2881377765      104.2425825497  LPSA19    30             22.0000000000
     20945       678  ARHM      H62             6.8710970441       29.6893690683      102.9735699614  LPSA19    30             22.0000000000
     20946       678  ARHM      H63             6.8967454496       28.9288796392      104.6221423228  LPSA19    30             22.0000000000
     20947       679  BMANNA    C1             11.6835731934       30.5040028566      106.9004761461  LPSA19    31             23.0000000000
     20948       679  BMANNA    H1             12.1726867303       31.4642517967      107.1634317993  LPSA19    31             23.0000000000
     20949       679  BMANNA    C5             13.7459512639       29.5349518354      106.2090230922  LPSA19    31             23.0000000000
     20950       679  BMANNA    H5             14.1873295483       30.5136856024      106.5096070371  LPSA19    31             23.0000000000
     20951       679  BMANNA    O5             12.3843070647       29.8171477330      105.8535518039  LPSA19    31             23.0000000000
     20952       679  BMANNA    C2             11.6373632171       29.6011262983      108.0885560045  LPSA19    31             23.0000000000
     20953       679  BMANNA    H2             11.1657223558       30.1904619459      108.9164773213  LPSA19    31             23.0000000000
     20954       679  BMANNA    N              10.8062393948       28.4387961996      107.8254806348  LPSA19    31             23.0000000000
     20955       679  BMANNA    HN             10.6482230208       28.2053442849      106.8653695087  LPSA19    31             23.0000000000
     20956       679  BMANNA    C              10.1696636281       27.7724921352      108.7839755336  LPSA19    31             23.0000000000
     20957       679  BMANNA    O              10.2404666957       28.1267035992      109.9511546598  LPSA19    31             23.0000000000
     20958       679  BMANNA    CT              9.3821902642       26.5834945318      108.3633076184  LPSA19    31             23.0000000000
     20959       679  BMANNA    HT1             9.9411769119       26.0373938566      107.5695770067  LPSA19    31             23.0000000000
     20960       679  BMANNA    HT2             8.4108700173       26.9478816628      107.9685085536  LPSA19    31             23.0000000000
     20961       679  BMANNA    HT3             9.1410123929       25.9184054386      109.2106768986  LPSA19    31             23.0000000000
     20962       679  BMANNA    C3             13.0547475614       29.3134083588      108.5099595351  LPSA19    31             23.0000000000
     20963       679  BMANNA    H3             13.5849135721       30.2807952584      108.6786800389  LPSA19    31             23.0000000000
     20964       679  BMANNA    O3             13.0776195408       28.6523325074      109.7546057337  LPSA19    31             23.0000000000
     20965       679  BMANNA    HO3            12.1922098349       28.7576161148      110.1358424751  LPSA19    31             23.0000000000
     20966       679  BMANNA    C4             13.7928337574       28.6050654220      107.4115466678  LPSA19    31             23.0000000000
     20967       679  BMANNA    H4             13.2900971934       27.6462340668      107.1217871439  LPSA19    31             23.0000000000
     20968       679  BMANNA    O4             15.1336268536       28.2953037304      107.7874216265  LPSA19    31             23.0000000000
     20969       679  BMANNA    HO4            15.5630696324       29.0439311750      108.2157462904  LPSA19    31             23.0000000000
     20970       679  BMANNA    C6             14.5603519589       29.0016937965      105.0482547325  LPSA19    31             23.0000000000
     20971       679  BMANNA    H61            15.6292551277       29.0794370935      105.3251436512  LPSA19    31             23.0000000000
     20972       679  BMANNA    H62            14.3192903993       27.9283154974      104.8835207351  LPSA19    31             23.0000000000
     20973       679  BMANNA    O6             14.3737719561       29.6982075401      103.8187812763  LPSA19    31             23.0000000000
     20974       679  BMANNA    HO6            14.7423208962       30.5782465298      103.8515260773  LPSA19    31             23.0000000000
     20975       680  BGLCNA    C1              8.5834936069       32.0364775263      108.6178789431  LPSA19    32             23.0000000000
     20976       680  BGLCNA    H1              9.1490709489       31.1142951285      108.4086806303  LPSA19    32             23.0000000000
     20977       680  BGLCNA    C5              7.1609666636       30.6513033197      109.9238087303  LPSA19    32             23.0000000000
     20978       680  BGLCNA    H5              7.7705747155       29.7825327261      109.5781682247  LPSA19    32             23.0000000000
     20979       680  BGLCNA    O5              7.2423568413       31.6615812457      108.9061029123  LPSA19    32             23.0000000000
     20980       680  BGLCNA    C2              9.1783506273       32.6635142026      109.8573388506  LPSA19    32             23.0000000000
     20981       680  BGLCNA    H2              8.4851363074       33.4910568461      110.1509595586  LPSA19    32             23.0000000000
     20982       680  BGLCNA    N              10.4832946582       33.2124209933      109.5700172677  LPSA19    32             23.0000000000
     20983       680  BGLCNA    HN             10.9660371494       32.6984649006      108.8770485933  LPSA19    32             23.0000000000
     20984       680  BGLCNA    C              11.0264732175       34.3347139681      110.0767757917  LPSA19    32             23.0000000000
     20985       680  BGLCNA    O              10.4513770385       35.0401667255      110.8928030734  LPSA19    32             23.0000000000
     20986       680  BGLCNA    CT             12.3997019571       34.6631970700      109.5386155314  LPSA19    32             23.0000000000
     20987       680  BGLCNA    HT1            12.5261395334       34.0875230707      108.6023278071  LPSA19    32             23.0000000000
     20988       680  BGLCNA    HT2            13.2086708848       34.3921040131      110.2448444187  LPSA19    32             23.0000000000
     20989       680  BGLCNA    HT3            12.4817453016       35.7512899623      109.3149032994  LPSA19    32             23.0000000000
     20990       680  BGLCNA    C3              9.1927466540       31.5975166790      110.9284117284  LPSA19    32             23.0000000000
     20991       680  BGLCNA    H3              9.6964761163       30.7089974149      110.4774888306  LPSA19    32             23.0000000000
     20992       680  BGLCNA    O3              9.9380135857       31.9710839469      112.1006660356  LPSA19    32             23.0000000000
     20993       680  BGLCNA    C4              7.7587377640       31.2103099081      111.2036911432  LPSA19    32             23.0000000000
     20994       680  BGLCNA    H4              7.1948319896       32.1258427544      111.5086998238  LPSA19    32             23.0000000000
     20995       680  BGLCNA    O4              7.6691830006       30.2585079194      112.2478724801  LPSA19    32             23.0000000000
     20996       680  BGLCNA    HO4             7.5373518014       30.7109659042      113.0874227766  LPSA19    32             23.0000000000
     20997       680  BGLCNA    C6              5.7503859428       30.1127475163      110.0403059376  LPSA19    32             23.0000000000
     20998       680  BGLCNA    H61             5.6871512055       29.2329569218      110.7096605773  LPSA19    32             23.0000000000
     20999       680  BGLCNA    H62             5.1240312568       30.8706901871      110.5454612751  LPSA19    32             23.0000000000
     21000       680  BGLCNA    O6              5.2109460779       29.7250390086      108.7668267181  LPSA19    32             23.0000000000
     21001       680  BGLCNA    HO6             5.8987018164       29.3704849868      108.1924077803  LPSA19    32             23.0000000000
     21002       681  AGAL      C1             10.6638965268       30.8937982566      112.6819252684  LPSA19    33             24.0000000000
     21003       681  AGAL      H1             10.0764899593       29.9520330174      112.6118469671  LPSA19    33             24.0000000000
     21004       681  AGAL      C5             12.8292981992       31.8001287491      112.2112133085  LPSA19    33             24.0000000000
     21005       681  AGAL      H5             12.2348147849       32.6678131393      111.8434953183  LPSA19    33             24.0000000000
     21006       681  AGAL      O5             11.9480199237       30.6689914041      112.0585314225  LPSA19    33             24.0000000000
     21007       681  AGAL      C2             10.9158071491       31.2009578601      114.1450677615  LPSA19    33             24.0000000000
     21008       681  AGAL      H2             11.5390351773       30.3686876710      114.5320312328  LPSA19    33             24.0000000000
     21009       681  AGAL      O2              9.6751371237       31.1337530831      114.8726320035  LPSA19    33             24.0000000000
     21010       681  AGAL      C3             11.7901441460       32.4468294832      114.3018831820  LPSA19    33             24.0000000000
     21011       681  AGAL      H3             11.3379147245       33.2802998707      113.7123388169  LPSA19    33             24.0000000000
     21012       681  AGAL      O3             11.8405770740       32.9631205970      115.6261312666  LPSA19    33             24.0000000000
     21013       681  AGAL      HO3            12.1553789314       32.3019146441      116.2437018462  LPSA19    33             24.0000000000
     21014       681  AGAL      C4             13.1521685376       32.1570864417      113.6637750967  LPSA19    33             24.0000000000
     21015       681  AGAL      H4             13.7641398439       33.0782953475      113.6687406894  LPSA19    33             24.0000000000
     21016       681  AGAL      O4             13.9720443123       31.1986912989      114.3392243124  LPSA19    33             24.0000000000
     21017       681  AGAL      HO4            13.4549970702       30.5801207811      114.8578399834  LPSA19    33             24.0000000000
     21018       681  AGAL      C6             14.0200233260       31.7292505575      111.2637860547  LPSA19    33             24.0000000000
     21019       681  AGAL      H61            13.6048559823       31.7265424804      110.2355000255  LPSA19    33             24.0000000000
     21020       681  AGAL      H62            14.6640568405       32.6302056654      111.3667149623  LPSA19    33             24.0000000000
     21021       681  AGAL      O6             14.8749310495       30.6003374606      111.4251127909  LPSA19    33             24.0000000000
     21022       681  AGAL      HO6            14.5854591122       29.8620656772      110.8685099270  LPSA19    33             24.0000000000
     21023       682  ARHM      C1              9.7241273711       30.3449282426      116.0517507195  LPSA19    34             25.0000000000
     21024       682  ARHM      H1             10.6002944758       30.6774990242      116.6479519637  LPSA19    34             25.0000000000
     21025       682  ARHM      C5              8.8136521136       28.3140896118      115.0759874742  LPSA19    34             25.0000000000
     21026       682  ARHM      H5              8.8115444621       28.7825611807      114.0680182851  LPSA19    34             25.0000000000
     21027       682  ARHM      O5              9.8756958674       28.9122722343      115.8438816431  LPSA19    34             25.0000000000
     21028       682  ARHM      C2              8.4361739957       30.6265590129      116.8071099164  LPSA19    34             25.0000000000
     21029       682  ARHM      H2              8.2678549397       31.7347714739      116.8437347012  LPSA19    34             25.0000000000
     21030       682  ARHM      O2              8.4424947249       30.1133015921      118.1692441358  LPSA19    34             25.0000000000
     21031       682  ARHM      C3              7.2742131730       30.0419224237      116.0084953743  LPSA19    34             25.0000000000
     21032       682  ARHM      H3              7.2578493704       30.5103479018      114.9937736915  LPSA19    34             25.0000000000
     21033       682  ARHM      O3              6.0148968577       30.3116452364      116.6356062047  LPSA19    34             25.0000000000
     21034       682  ARHM      HO3             5.3404953893       30.4839167176      115.9618370305  LPSA19    34             25.0000000000
     21035       682  ARHM      C4              7.4969994774       28.5600781530      115.7991681233  LPSA19    34             25.0000000000
     21036       682  ARHM      H4              7.5919998390       28.0475591035      116.7854521568  LPSA19    34             25.0000000000
     21037       682  ARHM      O4              6.4163390849       27.9597300846      115.0869851555  LPSA19    34             25.0000000000
     21038       682  ARHM      HO4             5.6593064172       27.8892237091      115.6787590986  LPSA19    34             25.0000000000
     21039       682  ARHM      C6              9.0223759574       26.7855449393      114.8649525047  LPSA19    34             25.0000000000
     21040       682  ARHM      H61             9.1143068161       26.2068717893      115.8007154961  LPSA19    34             25.0000000000
     21041       682  ARHM      H62             8.1398047483       26.3728290184      114.3361609729  LPSA19    34             25.0000000000
     21042       682  ARHM      H63             9.8811408261       26.5770314015      114.2146915062  LPSA19    34             25.0000000000
     21043       683  ARHM      C1              9.4649691515       30.5078653969      119.0702269653  LPSA19    35             26.0000000000
     21044       683  ARHM      H1              9.7957363642       31.5329919095      118.8686308736  LPSA19    35             26.0000000000
     21045       683  ARHM      C5             10.3996712307       28.3233750293      119.2117078765  LPSA19    35             26.0000000000
     21046       683  ARHM      H5              9.6316610705       27.9362968159      118.5112484119  LPSA19    35             26.0000000000
     21047       683  ARHM      O5             10.6464394021       29.7097881295      118.9495226194  LPSA19    35             26.0000000000
     21048       683  ARHM      C2              8.9708536718       30.4225552944      120.5107654920  LPSA19    35             26.0000000000
     21049       683  ARHM      H2              8.0514613776       31.0417349270      120.6554403437  LPSA19    35             26.0000000000
     21050       683  ARHM      O2              9.9750433776       30.8850492523      121.4321818636  LPSA19    35             26.0000000000
     21051       683  ARHM      C3              8.6343395186       28.9906464557      120.8342353543  LPSA19    35             26.0000000000
     21052       683  ARHM      H3              7.8567557413       28.6345835918      120.1203387394  LPSA19    35             26.0000000000
     21053       683  ARHM      O3              8.0487912008       28.8587910669      122.1284230117  LPSA19    35             26.0000000000
     21054       683  ARHM      HO3             8.4809013466       29.4599479339      122.7457500845  LPSA19    35             26.0000000000
     21055       683  ARHM      C4              9.8880139099       28.1490787767      120.6460197205  LPSA19    35             26.0000000000
     21056       683  ARHM      H4             10.6920876097       28.4983617230      121.3381462914  LPSA19    35             26.0000000000
     21057       683  ARHM      O4              9.6290854791       26.7717935376      120.9253381627  LPSA19    35             26.0000000000
     21058       683  ARHM      HO4             8.7536301656       26.5293927367      120.5995251717  LPSA19    35             26.0000000000
     21059       683  ARHM      C6             11.6860440167       27.5444671819      118.8652376549  LPSA19    35             26.0000000000
     21060       683  ARHM      H61            11.9205408119       27.5920814646      117.7799163115  LPSA19    35             26.0000000000
     21061       683  ARHM      H62            12.5477971663       27.9617546065      119.4278158665  LPSA19    35             26.0000000000
     21062       683  ARHM      H63            11.5442326732       26.4703470428      119.1133375494  LPSA19    35             26.0000000000
     21063       684  BMANNA    C1             10.1574117731       32.2769479848      121.4769863234  LPSA19    36             27.0000000000
     21064       684  BMANNA    H1              9.2395674198       32.7962067893      121.1497986397  LPSA19    36             27.0000000000
     21065       684  BMANNA    C5             11.3472553122       34.1842780728      120.7214023979  LPSA19    36             27.0000000000
     21066       684  BMANNA    H5             10.3606449795       34.6239725311      120.4520259281  LPSA19    36             27.0000000000
     21067       684  BMANNA    O5             11.2295461384       32.7418249000      120.6571167277  LPSA19    36             27.0000000000
     21068       684  BMANNA    C2             10.4567380222       32.6258624278      122.9145017231  LPSA19    36             27.0000000000
     21069       684  BMANNA    H2              9.5424681339       32.3007487580      123.4769683773  LPSA19    36             27.0000000000
     21070       684  BMANNA    N              11.6213507605       31.9463900159      123.4876513730  LPSA19    36             27.0000000000
     21071       684  BMANNA    HN             12.3917431396       31.8121526466      122.8712211333  LPSA19    36             27.0000000000
     21072       684  BMANNA    C              11.6794762769       31.6975840606      124.8182215805  LPSA19    36             27.0000000000
     21073       684  BMANNA    O              10.7217246372       31.8501794179      125.5622633310  LPSA19    36             27.0000000000
     21074       684  BMANNA    CT             12.9844329983       31.2338786376      125.3985257853  LPSA19    36             27.0000000000
     21075       684  BMANNA    HT1            13.8269158503       31.6910035636      124.9290661563  LPSA19    36             27.0000000000
     21076       684  BMANNA    HT2            13.1725803034       30.2041000702      125.2480677784  LPSA19    36             27.0000000000
     21077       684  BMANNA    HT3            13.0406902559       31.3468020330      126.4930103296  LPSA19    36             27.0000000000
     21078       684  BMANNA    C3             10.5417432268       34.1352923637      123.0120211999  LPSA19    36             27.0000000000
     21079       684  BMANNA    H3              9.5884562331       34.5925577499      122.6506227264  LPSA19    36             27.0000000000
     21080       684  BMANNA    O3             10.7403167085       34.5639256826      124.3473303662  LPSA19    36             27.0000000000
     21081       684  BMANNA    HO3            10.0119310041       35.0942699669      124.6775065901  LPSA19    36             27.0000000000
     21082       684  BMANNA    C4             11.6495915640       34.6378972899      122.1319996184  LPSA19    36             27.0000000000
     21083       684  BMANNA    H4             12.6298355882       34.2156209201      122.4428759831  LPSA19    36             27.0000000000
     21084       684  BMANNA    O4             11.7686606139       36.0463491432      122.2497009123  LPSA19    36             27.0000000000
     21085       684  BMANNA    HO4            11.8407659425       36.1936920706      123.1940499232  LPSA19    36             27.0000000000
     21086       684  BMANNA    C6             12.3518979735       34.7085425087      119.7284078809  LPSA19    36             27.0000000000
     21087       684  BMANNA    H61            12.0920855715       34.3667367985      118.7006104702  LPSA19    36             27.0000000000
     21088       684  BMANNA    H62            12.2615470160       35.8186146135      119.7070171679  LPSA19    36             27.0000000000
     21089       684  BMANNA    O6             13.6898522824       34.3426181841      120.0871186965  LPSA19    36             27.0000000000
     21090       684  BMANNA    HO6            14.0647758941       35.0461987613      120.6401000028  LPSA19    36             27.0000000000
     21091       685  ECLIPA    HB6S          -25.4240574826      -25.1702389811       20.4244230775  LPSA20    1               0.0000000000
     21092       685  ECLIPA    OB6           -26.4866318496      -23.9573407548       21.7177026163  LPSA20    1               0.0000000000
     21093       685  ECLIPA    CB6           -26.4827456267      -24.9817516802       20.7005255677  LPSA20    1               0.0000000000
     21094       685  ECLIPA    HB6R          -26.9002993580      -25.9325814696       21.1018874508  LPSA20    1               0.0000000000
     21095       685  ECLIPA    CB5           -27.2663427766      -24.6408269928       19.4368830154  LPSA20    1               0.0000000000
     21096       685  ECLIPA    OB5           -26.7241076111      -23.3935489146       18.9584273974  LPSA20    1               0.0000000000
     21097       685  ECLIPA    HB5           -28.3328967961      -24.5246964544       19.7431206099  LPSA20    1               0.0000000000
     21098       685  ECLIPA    CB1           -27.3987768780      -22.9264621180       17.7843217388  LPSA20    1               0.0000000000
     21099       685  ECLIPA    HB1           -28.4957857701      -22.8118714781       17.9645245230  LPSA20    1               0.0000000000
     21100       685  ECLIPA    OA6           -26.9204326022      -21.6788290863       17.3307996769  LPSA20    1               0.0000000000
     21101       685  ECLIPA    CA6           -25.5201430977      -21.4340992827       17.5625070253  LPSA20    1               0.0000000000
     21102       685  ECLIPA    HA6R          -24.9466431674      -22.3706994892       17.7537113104  LPSA20    1               0.0000000000
     21103       685  ECLIPA    HA6S          -25.4267834524      -20.7567632024       18.4438281513  LPSA20    1               0.0000000000
     21104       685  ECLIPA    CB4           -27.1680837911      -25.7175589462       18.3337791210  LPSA20    1               0.0000000000
     21105       685  ECLIPA    HB4           -26.1040099381      -25.9254512606       18.0551545494  LPSA20    1               0.0000000000
     21106       685  ECLIPA    OB4           -27.8456481407      -26.8721644759       18.8508314629  LPSA20    1               0.0000000000
     21107       685  ECLIPA    PB            -26.9976978259      -28.2274864385       19.3096339010  LPSA20    1               0.0000000000
     21108       685  ECLIPA    OPB4          -27.7286899082      -28.8972185372       20.4764420391  LPSA20    1               0.0000000000
     21109       685  ECLIPA    OPB3          -25.5750465627      -27.7752417326       19.6772514714  LPSA20    1               0.0000000000
     21110       685  ECLIPA    OPB2          -27.0131283805      -29.0844477774       18.0645117932  LPSA20    1               0.0000000000
     21111       685  ECLIPA    CB3           -27.8785141948      -25.2170621751       17.0894027116  LPSA20    1               0.0000000000
     21112       685  ECLIPA    OB3           -27.7689061576      -26.0713983202       15.9460904273  LPSA20    1               0.0000000000
     21113       685  ECLIPA    HB3           -28.9412113140      -24.9758121682       17.3369838931  LPSA20    1               0.0000000000
     21114       685  ECLIPA    C71           -28.6589865919      -27.0372305352       15.7782832354  LPSA20    1               0.0000000000
     21115       685  ECLIPA    O71           -29.7813535983      -27.0019566619       16.2593558767  LPSA20    1               0.0000000000
     21116       685  ECLIPA    C72           -28.3969922282      -27.6731714468       14.3836049980  LPSA20    1               0.0000000000
     21117       685  ECLIPA    H72R          -28.3701551003      -26.8874917762       13.6004817304  LPSA20    1               0.0000000000
     21118       685  ECLIPA    H72S          -29.2127849819      -28.3920436747       14.1670009141  LPSA20    1               0.0000000000
     21119       685  ECLIPA    CB2           -27.2385904915      -23.9117234853       16.6647021665  LPSA20    1               0.0000000000
     21120       685  ECLIPA    HB2           -26.1370589690      -24.0966578012       16.5128038204  LPSA20    1               0.0000000000
     21121       685  ECLIPA    NB2           -27.8702243656      -23.3981832821       15.4519683574  LPSA20    1               0.0000000000
     21122       685  ECLIPA    HNB2          -28.6517303707      -22.7949456086       15.5718874525  LPSA20    1               0.0000000000
     21123       685  ECLIPA    CA4           -25.8175192183      -19.6744342504       15.7935906847  LPSA20    1               0.0000000000
     21124       685  ECLIPA    HA4           -26.7749475305      -20.1674718028       15.5196823863  LPSA20    1               0.0000000000
     21125       685  ECLIPA    OA4           -26.0699458438      -18.7147185361       16.8038434553  LPSA20    1               0.0000000000
     21126       685  ECLIPA    HOA4          -26.3082526448      -19.1471093942       17.6283194207  LPSA20    1               0.0000000000
     21127       685  ECLIPA    CA5           -24.9249373461      -20.7564064839       16.3410688107  LPSA20    1               0.0000000000
     21128       685  ECLIPA    HA5           -23.8947864744      -20.3928653356       16.5676781895  LPSA20    1               0.0000000000
     21129       685  ECLIPA    OA5           -24.8400252238      -21.7593940802       15.3417796767  LPSA20    1               0.0000000000
     21130       685  ECLIPA    CA1           -24.2659757187      -21.2984618493       14.1053678513  LPSA20    1               0.0000000000
     21131       685  ECLIPA    HA1           -24.4670739862      -22.1551116309       13.4253753284  LPSA20    1               0.0000000000
     21132       685  ECLIPA    OA1           -22.8726130405      -21.0628738836       14.1169601350  LPSA20    1               0.0000000000
     21133       685  ECLIPA    OPA2          -21.3677449738      -21.6031918799       15.9925137545  LPSA20    1               0.0000000000
     21134       685  ECLIPA    OPA3          -22.6189554817      -23.5022735572       14.8609556174  LPSA20    1               0.0000000000
     21135       685  ECLIPA    OPA4          -20.7518371059      -22.3421548547       13.6151015375  LPSA20    1               0.0000000000
     21136       685  ECLIPA    PA            -21.8335880484      -22.2121569886       14.6815803565  LPSA20    1               0.0000000000
     21137       685  ECLIPA    CA3           -25.2529082410      -19.0579646395       14.5327090730  LPSA20    1               0.0000000000
     21138       685  ECLIPA    HA3           -24.2815125559      -18.5589705917       14.7422123544  LPSA20    1               0.0000000000
     21139       685  ECLIPA    OA3           -26.1842377622      -18.0312848154       14.1506806265  LPSA20    1               0.0000000000
     21140       685  ECLIPA    C31           -27.2584002594      -18.4371241548       13.5113558582  LPSA20    1               0.0000000000
     21141       685  ECLIPA    O31           -27.3706422375      -18.4442111356       12.2969473132  LPSA20    1               0.0000000000
     21142       685  ECLIPA    C32           -28.4375826665      -18.1166551317       14.4048218337  LPSA20    1               0.0000000000
     21143       685  ECLIPA    H32R          -28.8960076394      -17.2745840566       13.9608338266  LPSA20    1               0.0000000000
     21144       685  ECLIPA    H32S          -28.1859146381      -17.6477383731       15.3675651718  LPSA20    1               0.0000000000
     21145       685  ECLIPA    CA2           -25.1118048737      -20.1870903209       13.5145369024  LPSA20    1               0.0000000000
     21146       685  ECLIPA    HA2           -26.1139710570      -20.6502831456       13.3425896603  LPSA20    1               0.0000000000
     21147       685  ECLIPA    NA2           -24.5877089148      -19.7140395944       12.2256419520  LPSA20    1               0.0000000000
     21148       685  ECLIPA    HNA2          -24.5396815941      -18.7266499481       12.1311348951  LPSA20    1               0.0000000000
     21149       685  ECLIPA    C73           -27.0329194170      -28.3997642351       14.3545089222  LPSA20    1               0.0000000000
     21150       685  ECLIPA    H73R          -26.9531269044      -29.0214437771       15.2822925331  LPSA20    1               0.0000000000
     21151       685  ECLIPA    O73           -26.0366528308      -27.3825914082       14.2717152932  LPSA20    1               0.0000000000
     21152       685  ECLIPA    C81           -24.8882903160      -27.5229943633       14.9362659739  LPSA20    1               0.0000000000
     21153       685  ECLIPA    O81           -24.5611594503      -28.5051719679       15.5812331002  LPSA20    1               0.0000000000
     21154       685  ECLIPA    C82           -23.8665224088      -26.5408394798       14.3362093255  LPSA20    1               0.0000000000
     21155       685  ECLIPA    H82R          -22.9007484742      -26.6643504616       14.8664937131  LPSA20    1               0.0000000000
     21156       685  ECLIPA    H82S          -24.2071078537      -25.5070741943       14.5572077060  LPSA20    1               0.0000000000
     21157       685  ECLIPA    C83           -23.6705130073      -26.6940808764       12.8072462013  LPSA20    1               0.0000000000
     21158       685  ECLIPA    H83R          -24.4983406358      -26.1568515842       12.2886216592  LPSA20    1               0.0000000000
     21159       685  ECLIPA    H83S          -23.7320936273      -27.7667422474       12.5368398809  LPSA20    1               0.0000000000
     21160       685  ECLIPA    C84           -22.3634280583      -26.0652173551       12.2923712579  LPSA20    1               0.0000000000
     21161       685  ECLIPA    H84R          -21.4816914180      -26.6627117247       12.6009887365  LPSA20    1               0.0000000000
     21162       685  ECLIPA    H84S          -22.2940897537      -25.0498713939       12.7649277747  LPSA20    1               0.0000000000
     21163       685  ECLIPA    C85           -22.3755395710      -25.8461867446       10.7712508776  LPSA20    1               0.0000000000
     21164       685  ECLIPA    H85R          -23.3930813320      -25.4525210791       10.5449235257  LPSA20    1               0.0000000000
     21165       685  ECLIPA    H85S          -22.2838939556      -26.8132016093       10.2349934709  LPSA20    1               0.0000000000
     21166       685  ECLIPA    C86           -21.3776011854      -24.7710127386       10.2865634039  LPSA20    1               0.0000000000
     21167       685  ECLIPA    H86R          -20.4054543566      -25.2232001740        9.9932981638  LPSA20    1               0.0000000000
     21168       685  ECLIPA    H86S          -21.1552291428      -24.0730044454       11.1302762969  LPSA20    1               0.0000000000
     21169       685  ECLIPA    C87           -21.9536794740      -23.8884379896        9.1588501319  LPSA20    1               0.0000000000
     21170       685  ECLIPA    H87R          -21.1712911174      -23.1867709338        8.7950915984  LPSA20    1               0.0000000000
     21171       685  ECLIPA    H87S          -22.7706197097      -23.2546325992        9.5766476562  LPSA20    1               0.0000000000
     21172       685  ECLIPA    C88           -22.5595981851      -24.7103026587        8.0196911213  LPSA20    1               0.0000000000
     21173       685  ECLIPA    H88R          -23.5414584806      -25.1094777349        8.3495481802  LPSA20    1               0.0000000000
     21174       685  ECLIPA    H88S          -21.9221049244      -25.6114053895        7.8784841450  LPSA20    1               0.0000000000
     21175       685  ECLIPA    C89           -22.7463507648      -23.9135658112        6.7147618132  LPSA20    1               0.0000000000
     21176       685  ECLIPA    H89R          -22.7650791954      -22.8158217768        6.8961840647  LPSA20    1               0.0000000000
     21177       685  ECLIPA    H89S          -23.7296880190      -24.1577030482        6.2587070658  LPSA20    1               0.0000000000
     21178       685  ECLIPA    C810          -21.6695907584      -24.2957386648        5.6957819883  LPSA20    1               0.0000000000
     21179       685  ECLIPA    H810R         -21.3768590411      -25.3416266363        5.9303972268  LPSA20    1               0.0000000000
     21180       685  ECLIPA    H810S         -20.7854176395      -23.6415627219        5.8629655306  LPSA20    1               0.0000000000
     21181       685  ECLIPA    C811          -22.1302311858      -24.2022313696        4.2328142514  LPSA20    1               0.0000000000
     21182       685  ECLIPA    H811R         -21.2602509660      -24.1229906006        3.5395864739  LPSA20    1               0.0000000000
     21183       685  ECLIPA    H811S         -22.7459362921      -23.2792767585        4.1546649339  LPSA20    1               0.0000000000
     21184       685  ECLIPA    C812          -23.0142933183      -25.3551164585        3.7364384798  LPSA20    1               0.0000000000
     21185       685  ECLIPA    H812R         -23.3664936760      -25.0662833955        2.7143457794  LPSA20    1               0.0000000000
     21186       685  ECLIPA    H812S         -23.8927725592      -25.4596038275        4.4074280467  LPSA20    1               0.0000000000
     21187       685  ECLIPA    C813          -22.3290954768      -26.7216560393        3.6476982885  LPSA20    1               0.0000000000
     21188       685  ECLIPA    H813R         -21.4836333725      -26.6384003975        2.9337349135  LPSA20    1               0.0000000000
     21189       685  ECLIPA    H813S         -21.9328777381      -27.0474031356        4.6373773773  LPSA20    1               0.0000000000
     21190       685  ECLIPA    C814          -23.2703152451      -27.8006121344        3.1353445933  LPSA20    1               0.0000000000
     21191       685  ECLIPA    H814R         -23.7715793116      -27.4528445536        2.2062207331  LPSA20    1               0.0000000000
     21192       685  ECLIPA    H814S         -24.0248532352      -28.0303176763        3.9193365117  LPSA20    1               0.0000000000
     21193       685  ECLIPA    H814T         -22.7268418142      -28.7361282998        2.8963627526  LPSA20    1               0.0000000000
     21194       685  ECLIPA    C74           -26.8067476592      -29.3226924698       13.1243493743  LPSA20    1               0.0000000000
     21195       685  ECLIPA    H74R          -27.5278168263      -30.1607349669       13.0427604295  LPSA20    1               0.0000000000
     21196       685  ECLIPA    H74S          -25.8113462087      -29.7922870873       13.3193169827  LPSA20    1               0.0000000000
     21197       685  ECLIPA    C75           -26.6825267332      -28.5739667343       11.7773696535  LPSA20    1               0.0000000000
     21198       685  ECLIPA    H75R          -25.8949759946      -29.0931321354       11.1891245145  LPSA20    1               0.0000000000
     21199       685  ECLIPA    H75S          -26.3151512101      -27.5420869231       11.9704239802  LPSA20    1               0.0000000000
     21200       685  ECLIPA    C76           -27.9713405061      -28.4785135142       10.9486384154  LPSA20    1               0.0000000000
     21201       685  ECLIPA    H76R          -28.6207300894      -27.6821905484       11.3771860682  LPSA20    1               0.0000000000
     21202       685  ECLIPA    H76S          -28.5470128422      -29.4309691703       10.9898027947  LPSA20    1               0.0000000000
     21203       685  ECLIPA    C77           -27.7530457218      -28.1577359797        9.4595238266  LPSA20    1               0.0000000000
     21204       685  ECLIPA    H77R          -27.2076795853      -29.0045093906        8.9921189832  LPSA20    1               0.0000000000
     21205       685  ECLIPA    H77S          -27.1109852802      -27.2735788520        9.3131424420  LPSA20    1               0.0000000000
     21206       685  ECLIPA    C78           -29.1225644788      -27.8421406830        8.8319025296  LPSA20    1               0.0000000000
     21207       685  ECLIPA    H78R          -29.8142627582      -28.6732660943        9.0811916123  LPSA20    1               0.0000000000
     21208       685  ECLIPA    H78S          -29.4960113784      -26.9277611115        9.3415348072  LPSA20    1               0.0000000000
     21209       685  ECLIPA    C79           -29.1686646419      -27.4984807550        7.3483633534  LPSA20    1               0.0000000000
     21210       685  ECLIPA    H79R          -29.0960200879      -26.3936744048        7.1931625724  LPSA20    1               0.0000000000
     21211       685  ECLIPA    H79S          -30.1081213619      -27.8351649631        6.8526446301  LPSA20    1               0.0000000000
     21212       685  ECLIPA    C710          -28.0988759809      -28.1586755018        6.5513097317  LPSA20    1               0.0000000000
     21213       685  ECLIPA    H710R         -27.0766914501      -27.9154770381        6.9227441937  LPSA20    1               0.0000000000
     21214       685  ECLIPA    H710S         -28.2225555893      -29.2652116584        6.5243112472  LPSA20    1               0.0000000000
     21215       685  ECLIPA    C711          -28.2230837268      -27.6158946127        5.1749030538  LPSA20    1               0.0000000000
     21216       685  ECLIPA    H711R         -29.1281582097      -27.9495061001        4.6047597766  LPSA20    1               0.0000000000
     21217       685  ECLIPA    H711S         -28.0215694617      -26.5232487662        5.0642647711  LPSA20    1               0.0000000000
     21218       685  ECLIPA    C712          -27.0492117705      -28.0812639462        4.4932781555  LPSA20    1               0.0000000000
     21219       685  ECLIPA    H712R         -27.2162722557      -29.2060056798        4.4988401354  LPSA20    1               0.0000000000
     21220       685  ECLIPA    H712S         -26.1349887174      -28.1294594452        5.1195585666  LPSA20    1               0.0000000000
     21221       685  ECLIPA    C713          -27.1246663789      -27.1453821945        3.1986886305  LPSA20    1               0.0000000000
     21222       685  ECLIPA    H713R         -26.5978678208      -26.2071655526        2.9754503701  LPSA20    1               0.0000000000
     21223       685  ECLIPA    H713S         -26.0719884505      -27.2215619742        2.8093256740  LPSA20    1               0.0000000000
     21224       685  ECLIPA    C714          -28.4053705414      -27.4846078383        2.2352392731  LPSA20    1               0.0000000000
     21225       685  ECLIPA    H714R         -28.5814534286      -28.5629010752        2.0106953393  LPSA20    1               0.0000000000
     21226       685  ECLIPA    H714S         -29.4170782634      -27.2634960517        2.5115406981  LPSA20    1               0.0000000000
     21227       685  ECLIPA    H714T         -28.3239573714      -27.1641219173        1.1895660611  LPSA20    1               0.0000000000
     21228       685  ECLIPA    C51           -27.4519200226      -23.7633553034       14.2319910231  LPSA20    1               0.0000000000
     21229       685  ECLIPA    O51           -26.3787311720      -24.3110025752       14.0717632461  LPSA20    1               0.0000000000
     21230       685  ECLIPA    C52           -28.3727403374      -23.5225804471       13.0562295143  LPSA20    1               0.0000000000
     21231       685  ECLIPA    H52R          -29.0605244637      -24.3886990749       12.9297162149  LPSA20    1               0.0000000000
     21232       685  ECLIPA    H52S          -28.9794330954      -22.6263987192       13.2504367324  LPSA20    1               0.0000000000
     21233       685  ECLIPA    C53           -27.5525452199      -23.3290707818       11.7634982920  LPSA20    1               0.0000000000
     21234       685  ECLIPA    H53R          -26.5895505295      -22.8050598069       11.9862637027  LPSA20    1               0.0000000000
     21235       685  ECLIPA    O53           -28.3993520725      -22.6022014980       10.8545571649  LPSA20    1               0.0000000000
     21236       685  ECLIPA    C61           -28.0473264892      -21.3674315383       10.5238546174  LPSA20    1               0.0000000000
     21237       685  ECLIPA    O61           -27.0426473063      -20.7900462326       10.8658924800  LPSA20    1               0.0000000000
     21238       685  ECLIPA    C62           -29.1000007726      -20.7639408193        9.5867401218  LPSA20    1               0.0000000000
     21239       685  ECLIPA    H62R          -29.9252372597      -20.3821559048       10.2183689545  LPSA20    1               0.0000000000
     21240       685  ECLIPA    H62S          -29.5130067369      -21.6051831919        9.0012042461  LPSA20    1               0.0000000000
     21241       685  ECLIPA    C63           -28.4580232664      -19.6403775723        8.7092242864  LPSA20    1               0.0000000000
     21242       685  ECLIPA    H63R          -27.4941569915      -20.0026292287        8.3114503583  LPSA20    1               0.0000000000
     21243       685  ECLIPA    H63S          -28.2935518658      -18.7221040042        9.3261417937  LPSA20    1               0.0000000000
     21244       685  ECLIPA    C64           -29.1614317276      -19.2373057626        7.4082050655  LPSA20    1               0.0000000000
     21245       685  ECLIPA    H64R          -28.7514613333      -18.3346404732        6.9260840063  LPSA20    1               0.0000000000
     21246       685  ECLIPA    H64S          -30.0654151684      -18.8678762082        7.7602478196  LPSA20    1               0.0000000000
     21247       685  ECLIPA    C65           -29.5277820007      -20.3978852920        6.4905030357  LPSA20    1               0.0000000000
     21248       685  ECLIPA    H65R          -30.1001999115      -21.1094488083        7.1320896403  LPSA20    1               0.0000000000
     21249       685  ECLIPA    H65S          -28.5604655819      -20.8311692894        6.1875443896  LPSA20    1               0.0000000000
     21250       685  ECLIPA    C66           -30.3539652123      -20.1759296794        5.2030996388  LPSA20    1               0.0000000000
     21251       685  ECLIPA    H66R          -31.4026746353      -19.8885950582        5.3673786839  LPSA20    1               0.0000000000
     21252       685  ECLIPA    H66S          -30.4728500736      -21.1777823636        4.7515730357  LPSA20    1               0.0000000000
     21253       685  ECLIPA    C67           -29.7864654720      -19.2225292787        4.1478372980  LPSA20    1               0.0000000000
     21254       685  ECLIPA    H67R          -29.5391671084      -18.2187018021        4.5633613685  LPSA20    1               0.0000000000
     21255       685  ECLIPA    H67S          -30.5479563241      -19.0783540609        3.3461446089  LPSA20    1               0.0000000000
     21256       685  ECLIPA    C68           -28.5467351028      -19.7102016038        3.4780047576  LPSA20    1               0.0000000000
     21257       685  ECLIPA    H68R          -28.6600569770      -20.7446914859        3.0926404898  LPSA20    1               0.0000000000
     21258       685  ECLIPA    H68S          -27.7768876105      -19.6768677227        4.2750167492  LPSA20    1               0.0000000000
     21259       685  ECLIPA    C69           -28.2487784970      -18.8309952033        2.2796905239  LPSA20    1               0.0000000000
     21260       685  ECLIPA    H69R          -28.5761248946      -17.7745109204        2.3970580581  LPSA20    1               0.0000000000
     21261       685  ECLIPA    H69S          -28.8741679705      -19.2433137153        1.4612012084  LPSA20    1               0.0000000000
     21262       685  ECLIPA    C610          -26.7662597467      -18.8474108257        1.9552871482  LPSA20    1               0.0000000000
     21263       685  ECLIPA    H610R         -26.3914604072      -19.8865288175        2.0327107521  LPSA20    1               0.0000000000
     21264       685  ECLIPA    H610S         -26.2268754554      -18.2315800517        2.7082310702  LPSA20    1               0.0000000000
     21265       685  ECLIPA    C611          -26.5391262286      -18.2489804024        0.5850028163  LPSA20    1               0.0000000000
     21266       685  ECLIPA    H611R         -27.0170256005      -17.2660118241        0.6476740710  LPSA20    1               0.0000000000
     21267       685  ECLIPA    H611S         -25.4495853853      -18.0971493666        0.3867754443  LPSA20    1               0.0000000000
     21268       685  ECLIPA    C612          -27.2754705891      -18.9525151391       -0.5422761818  LPSA20    1               0.0000000000
     21269       685  ECLIPA    H612R         -26.9312228736      -19.9595090728       -0.5962704223  LPSA20    1               0.0000000000
     21270       685  ECLIPA    H612S         -28.2838562237      -19.2977750575       -0.3583218583  LPSA20    1               0.0000000000
     21271       685  ECLIPA    H612T         -27.0864355746      -18.5355963842       -1.5558916504  LPSA20    1               0.0000000000
     21272       685  ECLIPA    C54           -27.2472122120      -24.7321272332       11.1704874763  LPSA20    1               0.0000000000
     21273       685  ECLIPA    H54R          -28.2231243013      -25.1800091771       10.8821720610  LPSA20    1               0.0000000000
     21274       685  ECLIPA    H54S          -26.8135028919      -25.3584983831       11.9773971863  LPSA20    1               0.0000000000
     21275       685  ECLIPA    C55           -26.2888383677      -24.7860521439        9.9640727572  LPSA20    1               0.0000000000
     21276       685  ECLIPA    H55R          -25.9237274834      -25.8263759877        9.8230329660  LPSA20    1               0.0000000000
     21277       685  ECLIPA    H55S          -25.3877624207      -24.1782334734       10.2005055291  LPSA20    1               0.0000000000
     21278       685  ECLIPA    C56           -27.0264803401      -24.3543784118        8.6902181309  LPSA20    1               0.0000000000
     21279       685  ECLIPA    H56R          -27.4492937826      -23.3467588810        8.8596711539  LPSA20    1               0.0000000000
     21280       685  ECLIPA    H56S          -27.8824993168      -25.0434804511        8.5045746464  LPSA20    1               0.0000000000
     21281       685  ECLIPA    C57           -26.2160278211      -24.2251155787        7.4033451388  LPSA20    1               0.0000000000
     21282       685  ECLIPA    H57R          -25.6530422017      -25.1560380829        7.1807175681  LPSA20    1               0.0000000000
     21283       685  ECLIPA    H57S          -25.4635869065      -23.4149164098        7.5420281146  LPSA20    1               0.0000000000
     21284       685  ECLIPA    C58           -27.1541894592      -23.8342684597        6.2417020045  LPSA20    1               0.0000000000
     21285       685  ECLIPA    H58R          -28.0611231515      -24.4736196080        6.2166901931  LPSA20    1               0.0000000000
     21286       685  ECLIPA    H58S          -27.5259457979      -22.8073821786        6.4605300115  LPSA20    1               0.0000000000
     21287       685  ECLIPA    C59           -26.4545543567      -23.9157973372        4.8734003367  LPSA20    1               0.0000000000
     21288       685  ECLIPA    H59R          -26.0477437901      -24.9413204312        4.7204006958  LPSA20    1               0.0000000000
     21289       685  ECLIPA    H59S          -25.5881675874      -23.2243277977        4.9606676214  LPSA20    1               0.0000000000
     21290       685  ECLIPA    C510          -27.3671579581      -23.6489363612        3.6483822454  LPSA20    1               0.0000000000
     21291       685  ECLIPA    H510R         -28.0018328609      -22.7544275480        3.8214808589  LPSA20    1               0.0000000000
     21292       685  ECLIPA    H510S         -28.0525568699      -24.5193825500        3.5183781225  LPSA20    1               0.0000000000
     21293       685  ECLIPA    C511          -26.6196107984      -23.4628987213        2.3117370316  LPSA20    1               0.0000000000
     21294       685  ECLIPA    H511R         -26.2363055208      -22.4204635365        2.2835074639  LPSA20    1               0.0000000000
     21295       685  ECLIPA    H511S         -25.7608831301      -24.1571977318        2.2240473306  LPSA20    1               0.0000000000
     21296       685  ECLIPA    C512          -27.4900303689      -23.6473859580        1.0788845656  LPSA20    1               0.0000000000
     21297       685  ECLIPA    H512R         -26.8810133181      -23.7650552676        0.1468896008  LPSA20    1               0.0000000000
     21298       685  ECLIPA    H512S         -28.1519981696      -24.5437839873        1.1364874861  LPSA20    1               0.0000000000
     21299       685  ECLIPA    C513          -28.3147094996      -22.4249224293        0.8491125832  LPSA20    1               0.0000000000
     21300       685  ECLIPA    H513R         -27.7503249159      -21.4928247035        0.6038671235  LPSA20    1               0.0000000000
     21301       685  ECLIPA    H513S         -29.0864573700      -22.1774553425        1.6049772928  LPSA20    1               0.0000000000
     21302       685  ECLIPA    C514          -29.0593706956      -22.6982322575       -0.3444686459  LPSA20    1               0.0000000000
     21303       685  ECLIPA    H514R         -29.7040344840      -23.5926372608       -0.4616906559  LPSA20    1               0.0000000000
     21304       685  ECLIPA    H514S         -29.7545144366      -21.8203298195       -0.2921335203  LPSA20    1               0.0000000000
     21305       685  ECLIPA    H514T         -28.4200683726      -22.6281238797       -1.2519331654  LPSA20    1               0.0000000000
     21306       685  ECLIPA    C33           -29.5428070663      -19.1644997268       14.5417394342  LPSA20    1               0.0000000000
     21307       685  ECLIPA    H33R          -30.3283130512      -18.6844463928       15.1383170895  LPSA20    1               0.0000000000
     21308       685  ECLIPA    O33           -29.1357357256      -20.1051010747       15.4752258167  LPSA20    1               0.0000000000
     21309       685  ECLIPA    HO33          -29.2985757458      -19.7050896547       16.3433919084  LPSA20    1               0.0000000000
     21310       685  ECLIPA    C34           -30.0314700965      -19.9045587236       13.2425531093  LPSA20    1               0.0000000000
     21311       685  ECLIPA    H34R          -29.1684809952      -20.4243351233       12.7988766331  LPSA20    1               0.0000000000
     21312       685  ECLIPA    H34S          -30.3690304587      -19.1809471264       12.4631366113  LPSA20    1               0.0000000000
     21313       685  ECLIPA    C35           -31.2214916437      -20.8922251405       13.4460643968  LPSA20    1               0.0000000000
     21314       685  ECLIPA    H35R          -32.1538660572      -20.3697454907       13.7495470339  LPSA20    1               0.0000000000
     21315       685  ECLIPA    H35S          -30.9306660222      -21.5775383702       14.2717833489  LPSA20    1               0.0000000000
     21316       685  ECLIPA    C36           -31.5523421139      -21.7378276559       12.2052963272  LPSA20    1               0.0000000000
     21317       685  ECLIPA    H36R          -30.5928320271      -21.8220956031       11.6679473153  LPSA20    1               0.0000000000
     21318       685  ECLIPA    H36S          -32.2645850285      -21.2239783004       11.5192729052  LPSA20    1               0.0000000000
     21319       685  ECLIPA    C37           -32.0205050030      -23.1748789127       12.5224793174  LPSA20    1               0.0000000000
     21320       685  ECLIPA    H37R          -33.1223054795      -23.1644064140       12.6790214930  LPSA20    1               0.0000000000
     21321       685  ECLIPA    H37S          -31.5738670386      -23.4947527135       13.4903919710  LPSA20    1               0.0000000000
     21322       685  ECLIPA    C38           -31.6762688033      -24.2208387615       11.4351580452  LPSA20    1               0.0000000000
     21323       685  ECLIPA    H38R          -30.5960110267      -24.4832385308       11.4307570428  LPSA20    1               0.0000000000
     21324       685  ECLIPA    H38S          -32.2205253014      -25.1601177585       11.6830338640  LPSA20    1               0.0000000000
     21325       685  ECLIPA    C39           -32.0378878946      -23.7330401652       10.0241970535  LPSA20    1               0.0000000000
     21326       685  ECLIPA    H39R          -31.5369725150      -22.7588033229        9.8225713036  LPSA20    1               0.0000000000
     21327       685  ECLIPA    H39S          -33.1432136581      -23.6040175047        9.9835468705  LPSA20    1               0.0000000000
     21328       685  ECLIPA    C310          -31.6607105669      -24.6700923180        8.8730123076  LPSA20    1               0.0000000000
     21329       685  ECLIPA    H310R         -32.3441767621      -25.5446877908        8.9638270243  LPSA20    1               0.0000000000
     21330       685  ECLIPA    H310S         -30.6121011080      -25.0246403593        8.9581372376  LPSA20    1               0.0000000000
     21331       685  ECLIPA    C311          -31.7274125186      -23.9444750049        7.5153551814  LPSA20    1               0.0000000000
     21332       685  ECLIPA    H311R         -32.5544655654      -23.2019304654        7.5299354635  LPSA20    1               0.0000000000
     21333       685  ECLIPA    H311S         -30.7809898525      -23.3750092262        7.3640659261  LPSA20    1               0.0000000000
     21334       685  ECLIPA    C312          -31.8600704929      -24.8721781342        6.3021920765  LPSA20    1               0.0000000000
     21335       685  ECLIPA    H312R         -31.2948765969      -25.8117511267        6.4864515788  LPSA20    1               0.0000000000
     21336       685  ECLIPA    H312S         -32.9371968775      -25.1215259473        6.1808327564  LPSA20    1               0.0000000000
     21337       685  ECLIPA    C313          -31.3537074185      -24.2158841248        5.0046924801  LPSA20    1               0.0000000000
     21338       685  ECLIPA    H313R         -32.1011065433      -23.4329269332        4.7490854908  LPSA20    1               0.0000000000
     21339       685  ECLIPA    H313S         -30.3743228655      -23.7089037155        5.1740386364  LPSA20    1               0.0000000000
     21340       685  ECLIPA    C314          -31.2128067958      -25.1751948818        3.8173128083  LPSA20    1               0.0000000000
     21341       685  ECLIPA    H314R         -32.1952084771      -25.6410123504        3.5973904673  LPSA20    1               0.0000000000
     21342       685  ECLIPA    H314S         -30.8652188064      -24.6428349660        2.9042817052  LPSA20    1               0.0000000000
     21343       685  ECLIPA    H314T         -30.4786043655      -25.9773188269        4.0446458445  LPSA20    1               0.0000000000
     21344       685  ECLIPA    C11           -24.0095799500      -20.4666322211       11.2613194423  LPSA20    1               0.0000000000
     21345       685  ECLIPA    O11           -24.1462933761      -21.6727474892       11.1141317930  LPSA20    1               0.0000000000
     21346       685  ECLIPA    C12           -23.1322370193      -19.7050405394       10.3228432840  LPSA20    1               0.0000000000
     21347       685  ECLIPA    H12R          -22.0755505339      -19.9326403782       10.5579437887  LPSA20    1               0.0000000000
     21348       685  ECLIPA    H12S          -23.3274028175      -18.6237234207       10.4942356598  LPSA20    1               0.0000000000
     21349       685  ECLIPA    C13           -23.4332881621      -20.0570080850        8.8712121838  LPSA20    1               0.0000000000
     21350       685  ECLIPA    H13R          -23.6225764455      -21.1239820554        8.6751283797  LPSA20    1               0.0000000000
     21351       685  ECLIPA    O13           -22.2344118273      -19.8255291483        8.1486203655  LPSA20    1               0.0000000000
     21352       685  ECLIPA    HO13          -22.2038920075      -20.0334789980        7.2156694159  LPSA20    1               0.0000000000
     21353       685  ECLIPA    C14           -24.6421256435      -19.1850344452        8.4312791069  LPSA20    1               0.0000000000
     21354       685  ECLIPA    H14R          -24.6762106650      -18.2026066201        8.9592753933  LPSA20    1               0.0000000000
     21355       685  ECLIPA    H14S          -25.5214734735      -19.7776290430        8.7696287069  LPSA20    1               0.0000000000
     21356       685  ECLIPA    C15           -24.8344289663      -18.9343704719        6.9432599590  LPSA20    1               0.0000000000
     21357       685  ECLIPA    H15R          -23.9355900907      -18.3998605872        6.5685776110  LPSA20    1               0.0000000000
     21358       685  ECLIPA    H15S          -25.7030349515      -18.2441473653        6.8267411780  LPSA20    1               0.0000000000
     21359       685  ECLIPA    C16           -25.0781821656      -20.2401790842        6.1781837087  LPSA20    1               0.0000000000
     21360       685  ECLIPA    H16R          -26.1368111834      -20.5550531412        6.2778422287  LPSA20    1               0.0000000000
     21361       685  ECLIPA    H16S          -24.4804848271      -21.0509137235        6.6450802103  LPSA20    1               0.0000000000
     21362       685  ECLIPA    C17           -24.7294529071      -20.0752460534        4.7015271566  LPSA20    1               0.0000000000
     21363       685  ECLIPA    H17R          -25.1589258655      -19.0982668506        4.3854187064  LPSA20    1               0.0000000000
     21364       685  ECLIPA    H17S          -25.1764839480      -20.8643048625        4.0609227266  LPSA20    1               0.0000000000
     21365       685  ECLIPA    C18           -23.2201231825      -20.0672412652        4.4829981746  LPSA20    1               0.0000000000
     21366       685  ECLIPA    H18R          -22.8070687676      -19.2488825867        5.1084640924  LPSA20    1               0.0000000000
     21367       685  ECLIPA    H18S          -22.7700955183      -21.0322347044        4.8042101219  LPSA20    1               0.0000000000
     21368       685  ECLIPA    C19           -22.8321439846      -19.8209917384        3.0352714603  LPSA20    1               0.0000000000
     21369       685  ECLIPA    H19R          -21.7418717761      -19.6803994856        2.9769392633  LPSA20    1               0.0000000000
     21370       685  ECLIPA    H19S          -23.3891564380      -18.9321605454        2.6411820695  LPSA20    1               0.0000000000
     21371       685  ECLIPA    C110          -23.0880593895      -20.9890282929        2.1180924083  LPSA20    1               0.0000000000
     21372       685  ECLIPA    H110R         -22.7649919285      -21.9611558618        2.5227232712  LPSA20    1               0.0000000000
     21373       685  ECLIPA    H110S         -24.2015334703      -20.9789566007        2.1532525099  LPSA20    1               0.0000000000
     21374       685  ECLIPA    C111          -22.3838698712      -20.8061811071        0.7326567806  LPSA20    1               0.0000000000
     21375       685  ECLIPA    H111R         -22.6487122427      -19.7573261836        0.4404307543  LPSA20    1               0.0000000000
     21376       685  ECLIPA    H111S         -21.2955807933      -20.7329995776        0.8825042127  LPSA20    1               0.0000000000
     21377       685  ECLIPA    C112          -22.4254625724      -22.0759735447       -0.2357759413  LPSA20    1               0.0000000000
     21378       685  ECLIPA    H112R         -22.2445797685      -22.9510926743        0.3654892929  LPSA20    1               0.0000000000
     21379       685  ECLIPA    H112S         -23.3374603977      -22.6812393580       -0.3079335632  LPSA20    1               0.0000000000
     21380       685  ECLIPA    C113          -21.9949152114      -21.9477951867       -1.7356931213  LPSA20    1               0.0000000000
     21381       685  ECLIPA    H113R         -22.2174947733      -20.8672142186       -1.9180777944  LPSA20    1               0.0000000000
     21382       685  ECLIPA    H113S         -21.2735261501      -21.2201154735       -2.0963759173  LPSA20    1               0.0000000000
     21383       685  ECLIPA    C114          -22.5879693395      -22.9874228599       -2.8115661978  LPSA20    1               0.0000000000
     21384       685  ECLIPA    H114R         -22.0657608517      -23.9226951166       -2.7208562801  LPSA20    1               0.0000000000
     21385       685  ECLIPA    H114S         -23.6285436252      -23.2673445439       -3.1776518483  LPSA20    1               0.0000000000
     21386       685  ECLIPA    H114T         -22.2843067803      -22.5240812304       -3.7121683395  LPSA20    1               0.0000000000
     21387       686  AKDO      C1            -28.7344318313      -24.3808512945       22.4343362102  LPSA20    2               0.0000000000
     21388       686  AKDO      O11           -29.2827809787      -25.5125896372       22.4518873541  LPSA20    2               0.0000000000
     21389       686  AKDO      O12           -29.2643390019      -23.2838539404       22.0977932120  LPSA20    2               0.0000000000
     21390       686  AKDO      C2            -27.2379957931      -24.3126565191       22.8766063394  LPSA20    2               0.0000000000
     21391       686  AKDO      C6            -25.4581410867      -25.6086077639       23.8617259076  LPSA20    2               0.0000000000
     21392       686  AKDO      H6            -24.8761266569      -25.3265739399       22.9474600465  LPSA20    2               0.0000000000
     21393       686  AKDO      O6            -26.8381469269      -25.5788097565       23.4681558058  LPSA20    2               0.0000000000
     21394       686  AKDO      C3            -26.9748430439      -23.2293611647       23.9278479660  LPSA20    2               0.0000000000
     21395       686  AKDO      H31           -27.6692323525      -23.3620905929       24.7877712053  LPSA20    2               0.0000000000
     21396       686  AKDO      H32           -27.1836067383      -22.2439728582       23.4528843543  LPSA20    2               0.0000000000
     21397       686  AKDO      C4            -25.5467429470      -23.2309206608       24.3740098239  LPSA20    2               0.0000000000
     21398       686  AKDO      H4            -24.8847150933      -23.1103380287       23.4863121238  LPSA20    2               0.0000000000
     21399       686  AKDO      O4            -25.3004725975      -22.2287809799       25.3690070399  LPSA20    2               0.0000000000
     21400       686  AKDO      C5            -25.1709108799      -24.5687372764       24.9625211689  LPSA20    2               0.0000000000
     21401       686  AKDO      H5            -24.0574540755      -24.5700427249       25.0835248963  LPSA20    2               0.0000000000
     21402       686  AKDO      O5            -25.8517993611      -24.6979394448       26.2559070924  LPSA20    2               0.0000000000
     21403       686  AKDO      C7            -25.0201009330      -27.0331678389       24.1693496223  LPSA20    2               0.0000000000
     21404       686  AKDO      H7            -25.5505025609      -27.3696127262       25.0811338472  LPSA20    2               0.0000000000
     21405       686  AKDO      O7            -23.5965259989      -27.0973114090       24.3633301807  LPSA20    2               0.0000000000
     21406       686  AKDO      HO7           -23.2412695370      -27.1059796191       23.4767961018  LPSA20    2               0.0000000000
     21407       686  AKDO      C8            -25.3846931719      -27.9611060347       23.0266059449  LPSA20    2               0.0000000000
     21408       686  AKDO      H81           -26.4917715058      -27.8822093149       22.8615371735  LPSA20    2               0.0000000000
     21409       686  AKDO      H82           -24.8932685208      -27.5989104345       22.0943256284  LPSA20    2               0.0000000000
     21410       686  AKDO      O8            -25.0050641529      -29.3376420645       23.2886570191  LPSA20    2               0.0000000000
     21411       686  AKDO      HO8           -25.7423437946      -29.8376170456       22.9031222072  LPSA20    2               0.0000000000
     21412       687  AKDO      C1            -24.1187798833      -20.8017078123       23.7999642610  LPSA20    3               1.0000000000
     21413       687  AKDO      O11           -24.6161667797      -20.6619886660       22.6506422535  LPSA20    3               1.0000000000
     21414       687  AKDO      O12           -22.9185989070      -21.0547963827       24.0918255030  LPSA20    3               1.0000000000
     21415       687  AKDO      C2            -25.0954054650      -20.8739743250       25.0101689716  LPSA20    3               1.0000000000
     21416       687  AKDO      C6            -27.3051072876      -20.2763393526       25.7906956466  LPSA20    3               1.0000000000
     21417       687  AKDO      H6            -27.5502259311      -21.3522894968       25.9762855230  LPSA20    3               1.0000000000
     21418       687  AKDO      O6            -26.3317582338      -20.1784813763       24.7261505358  LPSA20    3               1.0000000000
     21419       687  AKDO      C3            -24.5338290429      -20.2769033324       26.3258542888  LPSA20    3               1.0000000000
     21420       687  AKDO      H31           -24.2831476578      -19.2060967228       26.1521534836  LPSA20    3               1.0000000000
     21421       687  AKDO      H32           -23.5758459239      -20.7716231850       26.5912301405  LPSA20    3               1.0000000000
     21422       687  AKDO      C4            -25.5441835842      -20.4300321919       27.4295543680  LPSA20    3               1.0000000000
     21423       687  AKDO      H4            -25.8381068321      -21.5052608596       27.4840777972  LPSA20    3               1.0000000000
     21424       687  AKDO      O4            -25.0762877789      -20.0480053440       28.7118471140  LPSA20    3               1.0000000000
     21425       687  AKDO      HO4           -25.1333722184      -20.7900033328       29.3427881713  LPSA20    3               1.0000000000
     21426       687  AKDO      C5            -26.7661543673      -19.6541480204       27.0570726542  LPSA20    3               1.0000000000
     21427       687  AKDO      H5            -27.4967270984      -19.7620820276       27.8887052958  LPSA20    3               1.0000000000
     21428       687  AKDO      O5            -26.5115281451      -18.2598983917       26.8799143056  LPSA20    3               1.0000000000
     21429       687  AKDO      HO5           -25.8458141559      -18.2280013813       26.1881066129  LPSA20    3               1.0000000000
     21430       687  AKDO      C7            -28.5726949025      -19.6041059637       25.3543681362  LPSA20    3               1.0000000000
     21431       687  AKDO      H7            -28.3537290562      -18.5312133223       25.1224241792  LPSA20    3               1.0000000000
     21432       687  AKDO      O7            -29.5495414104      -19.6497273476       26.4081024803  LPSA20    3               1.0000000000
     21433       687  AKDO      HO7           -30.2931058486      -19.1425784320       26.0630616401  LPSA20    3               1.0000000000
     21434       687  AKDO      C8            -29.0810647519      -20.2952429467       24.1145334784  LPSA20    3               1.0000000000
     21435       687  AKDO      H81           -28.2986425681      -20.3117083009       23.3238941865  LPSA20    3               1.0000000000
     21436       687  AKDO      H82           -29.3792845059      -21.3471282568       24.3225508874  LPSA20    3               1.0000000000
     21437       687  AKDO      O8            -30.1814591165      -19.5569005297       23.6040523691  LPSA20    3               1.0000000000
     21438       687  AKDO      HO8           -29.7866700119      -18.8016644303       23.1506350126  LPSA20    3               1.0000000000
     21439       688  AHEP      C1            -25.1780130231      -25.4483193130       27.2530651075  LPSA20    4               2.0000000000
     21440       688  AHEP      H1            -25.3073087396      -26.4974198378       26.9130625938  LPSA20    4               2.0000000000
     21441       688  AHEP      C5            -23.3738671540      -24.0273937773       27.9967898828  LPSA20    4               2.0000000000
     21442       688  AHEP      H5            -23.9286606723      -23.1895257913       27.5134314645  LPSA20    4               2.0000000000
     21443       688  AHEP      O5            -23.7636430646      -25.2342614690       27.3050237921  LPSA20    4               2.0000000000
     21444       688  AHEP      C2            -25.6938381667      -25.4735162530       28.7103566908  LPSA20    4               2.0000000000
     21445       688  AHEP      H2            -26.7999018059      -25.5664101225       28.6791969677  LPSA20    4               2.0000000000
     21446       688  AHEP      O2            -25.2161000266      -26.6432532270       29.3855838241  LPSA20    4               2.0000000000
     21447       688  AHEP      HO2           -25.9250503363      -27.0297367235       29.8925960973  LPSA20    4               2.0000000000
     21448       688  AHEP      C3            -25.3561932353      -24.2187662447       29.4980616302  LPSA20    4               2.0000000000
     21449       688  AHEP      H3            -25.8655458193      -23.3158364425       29.0947254116  LPSA20    4               2.0000000000
     21450       688  AHEP      O3            -25.7309683867      -24.3976458804       30.8830180348  LPSA20    4               2.0000000000
     21451       688  AHEP      C4            -23.8508917255      -24.0658916140       29.4509154982  LPSA20    4               2.0000000000
     21452       688  AHEP      H4            -23.3267402294      -24.9043626741       29.9657884496  LPSA20    4               2.0000000000
     21453       688  AHEP      O4            -23.5704151651      -22.8056370959       30.0452344488  LPSA20    4               2.0000000000
     21454       688  AHEP      P4            -22.7023617088      -22.7275351832       31.4652570399  LPSA20    4               2.0000000000
     21455       688  AHEP      OP42          -23.2474958226      -21.4687212516       32.1187785332  LPSA20    4               2.0000000000
     21456       688  AHEP      OP43          -21.2348996877      -22.5925330561       31.0412855659  LPSA20    4               2.0000000000
     21457       688  AHEP      OP44          -22.9233466414      -24.0067797511       32.2949731515  LPSA20    4               2.0000000000
     21458       688  AHEP      C6            -21.8463704971      -23.8180242963       27.8102517042  LPSA20    4               2.0000000000
     21459       688  AHEP      H6            -21.6574952136      -22.7465855365       28.0920860980  LPSA20    4               2.0000000000
     21460       688  AHEP      O6            -21.0047594105      -24.6408011922       28.6548057922  LPSA20    4               2.0000000000
     21461       688  AHEP      HO6           -20.5603867490      -24.0135340657       29.2478369026  LPSA20    4               2.0000000000
     21462       688  AHEP      C7            -21.3643906079      -23.9982567559       26.3619612575  LPSA20    4               2.0000000000
     21463       688  AHEP      H71           -20.3442137761      -23.5687538613       26.2169831819  LPSA20    4               2.0000000000
     21464       688  AHEP      H72           -22.0670370244      -23.4773670832       25.6713489865  LPSA20    4               2.0000000000
     21465       688  AHEP      O7            -21.2858686364      -25.3660194315       25.9360731308  LPSA20    4               2.0000000000
     21466       688  AHEP      HO7           -20.5169505920      -25.7120588891       26.3970560442  LPSA20    4               2.0000000000
     21467       689  AHEP      C1            -26.6409421715      -23.4896301907       31.4604342518  LPSA20    5               3.0000000000
     21468       689  AHEP      H1            -26.5418128066      -22.4821345342       30.9857578835  LPSA20    5               3.0000000000
     21469       689  AHEP      C5            -28.1881462951      -25.2444075816       31.9615663494  LPSA20    5               3.0000000000
     21470       689  AHEP      H5            -27.3940809525      -25.9419403243       31.5997221681  LPSA20    5               3.0000000000
     21471       689  AHEP      O5            -27.9893118676      -23.9795897387       31.2873374768  LPSA20    5               3.0000000000
     21472       689  AHEP      C2            -26.3703196487      -23.3204910561       32.9642445932  LPSA20    5               3.0000000000
     21473       689  AHEP      H2            -25.3049369798      -23.0090350777       33.0825808953  LPSA20    5               3.0000000000
     21474       689  AHEP      O2            -27.1816825935      -22.2635934716       33.4988240446  LPSA20    5               3.0000000000
     21475       689  AHEP      HO2           -26.6242789187      -21.4836211829       33.6129834390  LPSA20    5               3.0000000000
     21476       689  AHEP      C3            -26.5625847579      -24.6287562322       33.7271327941  LPSA20    5               3.0000000000
     21477       689  AHEP      H3            -25.8487695401      -25.3784227040       33.3111595229  LPSA20    5               3.0000000000
     21478       689  AHEP      O3            -26.3805871487      -24.5366315781       35.1619934360  LPSA20    5               3.0000000000
     21479       689  AHEP      C4            -27.9752605565      -25.0967792759       33.4646594022  LPSA20    5               3.0000000000
     21480       689  AHEP      H4            -28.7091704399      -24.3469529889       33.8475144051  LPSA20    5               3.0000000000
     21481       689  AHEP      O4            -28.1294052806      -26.3860273109       34.0615847618  LPSA20    5               3.0000000000
     21482       689  AHEP      P4            -29.2302020517      -26.5892533041       35.2960032322  LPSA20    5               3.0000000000
     21483       689  AHEP      OP42          -28.9542618176      -28.0037694977       35.7873208195  LPSA20    5               3.0000000000
     21484       689  AHEP      OP43          -30.5957027586      -26.5513680019       34.6009666622  LPSA20    5               3.0000000000
     21485       689  AHEP      OP44          -28.9465524756      -25.4849244051       36.3213128051  LPSA20    5               3.0000000000
     21486       689  AHEP      C6            -29.5472217163      -25.8489735409       31.5632238996  LPSA20    5               3.0000000000
     21487       689  AHEP      H6            -29.6131105006      -26.8516381964       32.0477649146  LPSA20    5               3.0000000000
     21488       689  AHEP      O6            -30.6830604967      -25.0562387538       31.9832690869  LPSA20    5               3.0000000000
     21489       689  AHEP      HO6           -30.6989322785      -24.2105700463       31.5468448406  LPSA20    5               3.0000000000
     21490       689  AHEP      C7            -29.6182779838      -26.0873609135       30.0688850856  LPSA20    5               3.0000000000
     21491       689  AHEP      H71           -30.1901331401      -27.0255827254       29.9055734704  LPSA20    5               3.0000000000
     21492       689  AHEP      H72           -28.6222390303      -26.2676899764       29.6146319623  LPSA20    5               3.0000000000
     21493       689  AHEP      O7            -30.3647235915      -25.0552562077       29.4226650107  LPSA20    5               3.0000000000
     21494       690  AHEP      C1            -29.5486894713      -24.1128045654       28.7839618285  LPSA20    6               4.0000000000
     21495       690  AHEP      H1            -28.4789649046      -24.2542370404       29.0298105732  LPSA20    6               4.0000000000
     21496       690  AHEP      C5            -31.0441688068      -24.0948108034       26.9558404687  LPSA20    6               4.0000000000
     21497       690  AHEP      H5            -31.6859890697      -24.8161098754       27.5155676441  LPSA20    6               4.0000000000
     21498       690  AHEP      O5            -29.6769609922      -24.2767649365       27.3759088911  LPSA20    6               4.0000000000
     21499       690  AHEP      C2            -29.9430520882      -22.7167125092       29.2135369505  LPSA20    6               4.0000000000
     21500       690  AHEP      H2            -29.8509188087      -22.6766311152       30.3285930973  LPSA20    6               4.0000000000
     21501       690  AHEP      O2            -29.0449264698      -21.7349583556       28.7247500849  LPSA20    6               4.0000000000
     21502       690  AHEP      HO2           -28.5341898488      -21.4240967904       29.4699246994  LPSA20    6               4.0000000000
     21503       690  AHEP      C3            -31.3739655582      -22.4905800347       28.8052591357  LPSA20    6               4.0000000000
     21504       690  AHEP      H3            -31.9516703305      -23.2121638463       29.3809471392  LPSA20    6               4.0000000000
     21505       690  AHEP      O3            -31.8409764330      -21.2048821535       29.1543001454  LPSA20    6               4.0000000000
     21506       690  AHEP      HO3           -32.4055226113      -21.1844163808       29.9418020821  LPSA20    6               4.0000000000
     21507       690  AHEP      C4            -31.5246069496      -22.7058516634       27.3134171867  LPSA20    6               4.0000000000
     21508       690  AHEP      H4            -30.9515635116      -21.9109345249       26.7742278186  LPSA20    6               4.0000000000
     21509       690  AHEP      O4            -32.8818123802      -22.6494662286       26.8911143696  LPSA20    6               4.0000000000
     21510       690  AHEP      HO4           -33.3743131408      -23.3954227492       27.2166102686  LPSA20    6               4.0000000000
     21511       690  AHEP      C6            -31.2784097929      -24.4547712880       25.4971448469  LPSA20    6               4.0000000000
     21512       690  AHEP      H6            -32.3752000754      -24.4366062016       25.3175413476  LPSA20    6               4.0000000000
     21513       690  AHEP      O6            -30.7599599103      -23.4638272926       24.6204987763  LPSA20    6               4.0000000000
     21514       690  AHEP      HO6           -30.1428194307      -23.8969900835       23.9955543482  LPSA20    6               4.0000000000
     21515       690  AHEP      C7            -30.8818318926      -25.8865032906       25.1670582164  LPSA20    6               4.0000000000
     21516       690  AHEP      H71           -31.2139605877      -26.1377928902       24.1311685460  LPSA20    6               4.0000000000
     21517       690  AHEP      H72           -31.4052411158      -26.5616834060       25.8800040098  LPSA20    6               4.0000000000
     21518       690  AHEP      O7            -29.4882525773      -26.1546555727       25.2894580040  LPSA20    6               4.0000000000
     21519       690  AHEP      HO7           -29.2928728008      -26.2582308669       26.2131996477  LPSA20    6               4.0000000000
     21520       691  AGLC      C1            -25.1024873174      -24.8241916517       35.6600977558  LPSA20    7               4.0000000000
     21521       691  AGLC      H1            -24.6784170809      -25.7200102588       35.1610256604  LPSA20    7               4.0000000000
     21522       691  AGLC      C5            -24.6483489484      -22.5214501094       36.0986008328  LPSA20    7               4.0000000000
     21523       691  AGLC      H5            -25.6985336190      -22.2791118612       35.8195879390  LPSA20    7               4.0000000000
     21524       691  AGLC      O5            -24.2338403244      -23.7264196519       35.4364223205  LPSA20    7               4.0000000000
     21525       691  AGLC      C2            -25.0422944530      -25.0660962182       37.1691135069  LPSA20    7               4.0000000000
     21526       691  AGLC      H2            -23.9764079921      -25.1350107234       37.4638747335  LPSA20    7               4.0000000000
     21527       691  AGLC      O2            -25.5701500696      -26.3214758842       37.5540165127  LPSA20    7               4.0000000000
     21528       691  AGLC      HO2           -26.5490768560      -26.2597135343       37.5471507292  LPSA20    7               4.0000000000
     21529       691  AGLC      C3            -25.5530365210      -23.8998408204       37.9696213819  LPSA20    7               4.0000000000
     21530       691  AGLC      H3            -26.5790443777      -23.6727087706       37.6052817878  LPSA20    7               4.0000000000
     21531       691  AGLC      O3            -25.6187645348      -24.1905347806       39.3925212839  LPSA20    7               4.0000000000
     21532       691  AGLC      C4            -24.6281672168      -22.7336561047       37.6150911797  LPSA20    7               4.0000000000
     21533       691  AGLC      H4            -23.5769296440      -22.9796455978       37.9318647461  LPSA20    7               4.0000000000
     21534       691  AGLC      O4            -25.0726056162      -21.5456481178       38.2675997517  LPSA20    7               4.0000000000
     21535       691  AGLC      HO4           -24.3144650875      -21.0772560011       38.6378213973  LPSA20    7               4.0000000000
     21536       691  AGLC      C6            -23.8167452033      -21.4007927797       35.4979542919  LPSA20    7               4.0000000000
     21537       691  AGLC      H61           -23.9809920299      -21.3825616861       34.3950584895  LPSA20    7               4.0000000000
     21538       691  AGLC      H62           -24.1633466195      -20.4116997631       35.8582154273  LPSA20    7               4.0000000000
     21539       691  AGLC      O6            -22.4137009262      -21.5516683006       35.7327922263  LPSA20    7               4.0000000000
     21540       691  AGLC      HO6           -22.1571114314      -21.0935061061       36.5306375761  LPSA20    7               4.0000000000
     21541       692  AGLC      C1            -26.9322265116      -24.0888224933       39.9221417703  LPSA20    8               5.0000000000
     21542       692  AGLC      H1            -27.4324848546      -23.1843873161       39.5098174926  LPSA20    8               5.0000000000
     21543       692  AGLC      C5            -27.3792475437      -26.4847697941       40.2177083480  LPSA20    8               5.0000000000
     21544       692  AGLC      H5            -26.3435783255      -26.6980930904       39.8811938066  LPSA20    8               5.0000000000
     21545       692  AGLC      O5            -27.7606686935      -25.2302381192       39.5947774767  LPSA20    8               5.0000000000
     21546       692  AGLC      C2            -26.9523316102      -23.9195509784       41.4360291607  LPSA20    8               5.0000000000
     21547       692  AGLC      H2            -28.0199557980      -23.7611177920       41.7059164117  LPSA20    8               5.0000000000
     21548       692  AGLC      O2            -26.2238208535      -22.7925677651       41.9467521611  LPSA20    8               5.0000000000
     21549       692  AGLC      C3            -26.4704494798      -25.1631980176       42.1265974275  LPSA20    8               5.0000000000
     21550       692  AGLC      H3            -25.4417499249      -25.3633057745       41.7234091389  LPSA20    8               5.0000000000
     21551       692  AGLC      O3            -26.3632512431      -24.8757793716       43.5404027419  LPSA20    8               5.0000000000
     21552       692  AGLC      C4            -27.3889989773      -26.2971963294       41.7344392641  LPSA20    8               5.0000000000
     21553       692  AGLC      H4            -28.4276620911      -26.0235498073       42.0415729661  LPSA20    8               5.0000000000
     21554       692  AGLC      O4            -27.0209627143      -27.5060663383       42.3939905524  LPSA20    8               5.0000000000
     21555       692  AGLC      HO4           -26.0629898981      -27.5907284474       42.4329879149  LPSA20    8               5.0000000000
     21556       692  AGLC      C6            -28.2051107034      -27.7085398432       39.7436431183  LPSA20    8               5.0000000000
     21557       692  AGLC      H61           -28.3094877380      -27.7294564269       38.6312408812  LPSA20    8               5.0000000000
     21558       692  AGLC      H62           -27.6795913138      -28.6510115570       40.0183280520  LPSA20    8               5.0000000000
     21559       692  AGLC      O6            -29.4988459899      -27.8026963759       40.3431728630  LPSA20    8               5.0000000000
     21560       692  AGLC      HO6           -29.4226997284      -28.2012792993       41.2111042536  LPSA20    8               5.0000000000
     21561       693  AGAL      C1            -26.5339559467      -21.5243088093       41.4321583575  LPSA20    9               6.0000000000
     21562       693  AGAL      H1            -26.5585661064      -21.5440426206       40.3257854836  LPSA20    9               6.0000000000
     21563       693  AGAL      C5            -27.8574830386      -20.8078357184       43.2747658716  LPSA20    9               6.0000000000
     21564       693  AGAL      H5            -27.4963094939      -21.7515847621       43.7474094233  LPSA20    9               6.0000000000
     21565       693  AGAL      O5            -27.8191921405      -21.0331710329       41.8509064970  LPSA20    9               6.0000000000
     21566       693  AGAL      C2            -25.4214323622      -20.5686973661       41.8401587395  LPSA20    9               6.0000000000
     21567       693  AGAL      H2            -25.6769208040      -19.5949650072       41.3684153098  LPSA20    9               6.0000000000
     21568       693  AGAL      O2            -24.2071078122      -21.0266866401       41.1949070751  LPSA20    9               6.0000000000
     21569       693  AGAL      C3            -25.4278163162      -20.3293034907       43.3400142960  LPSA20    9               6.0000000000
     21570       693  AGAL      H3            -25.2595509205      -21.2857164534       43.8932560600  LPSA20    9               6.0000000000
     21571       693  AGAL      O3            -24.3674213187      -19.4601165419       43.7242514037  LPSA20    9               6.0000000000
     21572       693  AGAL      HO3           -23.6132976496      -19.7403009592       43.1932466731  LPSA20    9               6.0000000000
     21573       693  AGAL      C4            -26.8079710587      -19.7651736116       43.6759665975  LPSA20    9               6.0000000000
     21574       693  AGAL      H4            -26.8948001117      -19.5780446579       44.7535352563  LPSA20    9               6.0000000000
     21575       693  AGAL      O4            -27.0264121321      -18.4953326324       43.0763970562  LPSA20    9               6.0000000000
     21576       693  AGAL      HO4           -27.6878315638      -18.0201164085       43.6011313947  LPSA20    9               6.0000000000
     21577       693  AGAL      C6            -29.2673504242      -20.6160693597       43.8447855504  LPSA20    9               6.0000000000
     21578       693  AGAL      H61           -29.8945008297      -21.5031918101       43.6073016663  LPSA20    9               6.0000000000
     21579       693  AGAL      H62           -29.2244062176      -20.5451468401       44.9538956861  LPSA20    9               6.0000000000
     21580       693  AGAL      O6            -29.9531899731      -19.4589103169       43.3823969014  LPSA20    9               6.0000000000
     21581       693  AGAL      HO6           -30.5340408518      -19.7081144514       42.6588873287  LPSA20    9               6.0000000000
     21582       694  AGAL      C1            -22.9032727851      -21.0201928605       41.7467870940  LPSA20    10              7.0000000000
     21583       694  AGAL      H1            -22.5479140206      -19.9669825442       41.8353607937  LPSA20    10              7.0000000000
     21584       694  AGAL      C5            -23.0372854737      -23.0706334069       43.0287187009  LPSA20    10              7.0000000000
     21585       694  AGAL      H5            -24.0722111229      -23.1491504506       42.6337215753  LPSA20    10              7.0000000000
     21586       694  AGAL      O5            -22.7597792423      -21.6490768989       43.0472277592  LPSA20    10              7.0000000000
     21587       694  AGAL      C2            -21.9842442791      -21.7273391384       40.7541722989  LPSA20    10              7.0000000000
     21588       694  AGAL      H2            -20.9454413193      -21.6174276203       41.1265688915  LPSA20    10              7.0000000000
     21589       694  AGAL      O2            -21.9408156336      -21.1065290221       39.4688666778  LPSA20    10              7.0000000000
     21590       694  AGAL      HO2           -20.9953240224      -20.9685608511       39.3011047535  LPSA20    10              7.0000000000
     21591       694  AGAL      C3            -22.3401165946      -23.2159338242       40.7076564211  LPSA20    10              7.0000000000
     21592       694  AGAL      H3            -23.4262334829      -23.2912416904       40.4541749882  LPSA20    10              7.0000000000
     21593       694  AGAL      O3            -21.6316073541      -23.9575114603       39.7195942180  LPSA20    10              7.0000000000
     21594       694  AGAL      HO3           -22.2257201777      -24.1983022284       39.0111604335  LPSA20    10              7.0000000000
     21595       694  AGAL      C4            -22.1322721640      -23.8160036959       42.0784378979  LPSA20    10              7.0000000000
     21596       694  AGAL      H4            -22.4468939997      -24.8865452703       42.0792860351  LPSA20    10              7.0000000000
     21597       694  AGAL      O4            -20.7694284810      -23.7592879391       42.4960189223  LPSA20    10              7.0000000000
     21598       694  AGAL      HO4           -20.5696511164      -22.8325112025       42.6435818870  LPSA20    10              7.0000000000
     21599       694  AGAL      C6            -23.1385468150      -23.7500839074       44.3918582522  LPSA20    10              7.0000000000
     21600       694  AGAL      H61           -23.7832786008      -23.0968044119       44.9924561209  LPSA20    10              7.0000000000
     21601       694  AGAL      H62           -23.6636460011      -24.7261847149       44.2577277668  LPSA20    10              7.0000000000
     21602       694  AGAL      O6            -21.9266931975      -24.0213498208       45.1085388248  LPSA20    10              7.0000000000
     21603       694  AGAL      HO6           -21.8107961812      -23.4527877439       45.8755282524  LPSA20    10              7.0000000000
     21604       695  BGLC      C1            -27.3919571012      -25.1970957352       44.4747929364  LPSA20    11              6.0000000000
     21605       695  BGLC      H1            -27.4294961897      -26.3023763623       44.6169393157  LPSA20    11              6.0000000000
     21606       695  BGLC      C5            -29.7063239430      -24.7819756724       45.1042701840  LPSA20    11              6.0000000000
     21607       695  BGLC      H5            -29.8792886756      -25.7976407951       45.4142749089  LPSA20    11              6.0000000000
     21608       695  BGLC      O5            -28.6679832428      -24.6196431289       44.1033930603  LPSA20    11              6.0000000000
     21609       695  BGLC      C2            -26.9442095453      -24.5547599983       45.7907370735  LPSA20    11              6.0000000000
     21610       695  BGLC      H2            -26.8402193199      -23.4532148663       45.6386953344  LPSA20    11              6.0000000000
     21611       695  BGLC      O2            -25.6582644274      -25.0313039259       46.1828792899  LPSA20    11              6.0000000000
     21612       695  BGLC      HO2           -25.1070297481      -24.2681855384       46.3297090365  LPSA20    11              6.0000000000
     21613       695  BGLC      C3            -27.9556700794      -24.7254965337       46.9041702024  LPSA20    11              6.0000000000
     21614       695  BGLC      H3            -28.0415422588      -25.8072236320       47.1678305226  LPSA20    11              6.0000000000
     21615       695  BGLC      O3            -27.5426486940      -23.9415894365       48.0463967508  LPSA20    11              6.0000000000
     21616       695  BGLC      C4            -29.2684582065      -24.1179839900       46.4179680692  LPSA20    11              6.0000000000
     21617       695  BGLC      H4            -29.1114732436      -23.0461386834       46.1899191846  LPSA20    11              6.0000000000
     21618       695  BGLC      O4            -30.2730128794      -24.1692652032       47.4336507185  LPSA20    11              6.0000000000
     21619       695  BGLC      HO4           -30.0172921791      -23.5737387254       48.1549065762  LPSA20    11              6.0000000000
     21620       695  BGLC      C6            -31.0360559589      -24.3798194892       44.4785750045  LPSA20    11              6.0000000000
     21621       695  BGLC      H61           -31.7366825382      -24.2045062170       45.3020828917  LPSA20    11              6.0000000000
     21622       695  BGLC      H62           -30.9104356760      -23.4568026258       43.8846519520  LPSA20    11              6.0000000000
     21623       695  BGLC      O6            -31.6242377886      -25.3723799827       43.6253699658  LPSA20    11              6.0000000000
     21624       695  BGLC      HO6           -32.4584917579      -25.7448317045       43.9653511813  LPSA20    11              6.0000000000
     21625       696  BGLCNA    C1            -27.4232490260      -24.5707203280       49.3112754437  LPSA20    12              7.0000000000
     21626       696  BGLCNA    H1            -26.4255045687      -25.0654969536       49.3726204857  LPSA20    12              7.0000000000
     21627       696  BGLCNA    C5            -28.3009831056      -26.1099702057       50.8812141764  LPSA20    12              7.0000000000
     21628       696  BGLCNA    H5            -27.2952632079      -26.5391083556       50.9304785921  LPSA20    12              7.0000000000
     21629       696  BGLCNA    O5            -28.4683505144      -25.5046709389       49.5892852392  LPSA20    12              7.0000000000
     21630       696  BGLCNA    C2            -27.5115472197      -23.4569025459       50.3489111261  LPSA20    12              7.0000000000
     21631       696  BGLCNA    H2            -28.5662912424      -23.0730445151       50.3006715471  LPSA20    12              7.0000000000
     21632       696  BGLCNA    N             -26.5466347120      -22.4351263267       50.0391429298  LPSA20    12              7.0000000000
     21633       696  BGLCNA    HN            -25.6109656036      -22.7548661525       49.9586202194  LPSA20    12              7.0000000000
     21634       696  BGLCNA    C             -26.8867107642      -21.1479351849       49.9129835980  LPSA20    12              7.0000000000
     21635       696  BGLCNA    O             -28.0228460862      -20.7441145526       50.1067411375  LPSA20    12              7.0000000000
     21636       696  BGLCNA    CT            -25.8062602332      -20.1650498658       49.5503993457  LPSA20    12              7.0000000000
     21637       696  BGLCNA    HT1           -25.5898880286      -19.5058133058       50.4113150165  LPSA20    12              7.0000000000
     21638       696  BGLCNA    HT2           -26.1516937964      -19.5148995811       48.7193483960  LPSA20    12              7.0000000000
     21639       696  BGLCNA    HT3           -24.8984981695      -20.7215166073       49.2381525742  LPSA20    12              7.0000000000
     21640       696  BGLCNA    C3            -27.3029326470      -23.9805500614       51.7554971868  LPSA20    12              7.0000000000
     21641       696  BGLCNA    H3            -26.2861736490      -24.4326573424       51.8021752719  LPSA20    12              7.0000000000
     21642       696  BGLCNA    O3            -27.3489661149      -22.9267862776       52.7648544897  LPSA20    12              7.0000000000
     21643       696  BGLCNA    C4            -28.3785544900      -25.0295368058       51.9659070584  LPSA20    12              7.0000000000
     21644       696  BGLCNA    H4            -29.4000577949      -24.5861943588       51.9076644215  LPSA20    12              7.0000000000
     21645       696  BGLCNA    O4            -28.2169353709      -25.5765327933       53.2635531825  LPSA20    12              7.0000000000
     21646       696  BGLCNA    HO4           -27.5192572626      -26.2325676778       53.2940305012  LPSA20    12              7.0000000000
     21647       696  BGLCNA    C6            -29.3344932723      -27.2169904933       50.9592991362  LPSA20    12              7.0000000000
     21648       696  BGLCNA    H61           -29.3085591470      -27.7522545562       51.9336758729  LPSA20    12              7.0000000000
     21649       696  BGLCNA    H62           -30.3345367498      -26.7479792979       50.8396849542  LPSA20    12              7.0000000000
     21650       696  BGLCNA    O6            -29.1896956978      -28.1754548210       49.9071402017  LPSA20    12              7.0000000000
     21651       696  BGLCNA    HO6           -28.5611654629      -28.8643289451       50.1274576733  LPSA20    12              7.0000000000
     21652       697  AGAL      C1            -26.4066928763      -23.0407822484       53.8371093811  LPSA20    13              8.0000000000
     21653       697  AGAL      H1            -26.3427111983      -24.1079569123       54.1489652142  LPSA20    13              8.0000000000
     21654       697  AGAL      C5            -25.1169615207      -21.0946704789       53.2721911397  LPSA20    13              8.0000000000
     21655       697  AGAL      H5            -25.9446455148      -20.9243012067       52.5429155896  LPSA20    13              8.0000000000
     21656       697  AGAL      O5            -25.1004302954      -22.5323659036       53.4786460020  LPSA20    13              8.0000000000
     21657       697  AGAL      C2            -26.7895675882      -22.2790340942       55.1114473610  LPSA20    13              8.0000000000
     21658       697  AGAL      H2            -25.9215505776      -22.3964131416       55.8040736705  LPSA20    13              8.0000000000
     21659       697  AGAL      O2            -27.9307919590      -22.8570729725       55.7645447961  LPSA20    13              8.0000000000
     21660       697  AGAL      C3            -26.8678366936      -20.7877523287       54.8921633247  LPSA20    13              8.0000000000
     21661       697  AGAL      H3            -27.5347128865      -20.6125989740       54.0198459677  LPSA20    13              8.0000000000
     21662       697  AGAL      O3            -27.4238123429      -20.0940635313       55.9941212866  LPSA20    13              8.0000000000
     21663       697  AGAL      HO3           -27.9794584595      -19.3763626113       55.6740247440  LPSA20    13              8.0000000000
     21664       697  AGAL      C4            -25.5005091236      -20.2953246378       54.5150405006  LPSA20    13              8.0000000000
     21665       697  AGAL      H4            -25.5647898573      -19.2184676548       54.2293813136  LPSA20    13              8.0000000000
     21666       697  AGAL      O4            -24.5654857764      -20.3702690802       55.5923807870  LPSA20    13              8.0000000000
     21667       697  AGAL      HO4           -24.5754074735      -21.2435214299       56.0098891611  LPSA20    13              8.0000000000
     21668       697  AGAL      C6            -23.9198935130      -20.5126345887       52.5449586823  LPSA20    13              8.0000000000
     21669       697  AGAL      H61           -23.7572902277      -21.0803579839       51.6020958212  LPSA20    13              8.0000000000
     21670       697  AGAL      H62           -24.1453893005      -19.4496085945       52.3028304765  LPSA20    13              8.0000000000
     21671       697  AGAL      O6            -22.7182959446      -20.4951072885       53.2993370608  LPSA20    13              8.0000000000
     21672       697  AGAL      HO6           -22.7771619569      -19.8090722283       53.9751460586  LPSA20    13              8.0000000000
     21673       698  ARHM      C1            -27.7118817253      -23.4904495349       57.0097869708  LPSA20    14              9.0000000000
     21674       698  ARHM      H1            -26.6676969083      -23.8738023001       57.0411181709  LPSA20    14              9.0000000000
     21675       698  ARHM      C5            -29.9558094628      -24.2481066220       57.1885973462  LPSA20    14              9.0000000000
     21676       698  ARHM      H5            -30.1551565453      -23.7500601786       56.2150592571  LPSA20    14              9.0000000000
     21677       698  ARHM      O5            -28.5679979451      -24.6216976634       57.1954329511  LPSA20    14              9.0000000000
     21678       698  ARHM      C2            -27.9491139592      -22.4783174708       58.1167312871  LPSA20    14              9.0000000000
     21679       698  ARHM      H2            -27.2825912117      -21.6055397257       57.9335072996  LPSA20    14              9.0000000000
     21680       698  ARHM      O2            -27.7549462718      -22.9431398843       59.4662423758  LPSA20    14              9.0000000000
     21681       698  ARHM      C3            -29.3881668963      -22.0391782971       58.0631933754  LPSA20    14              9.0000000000
     21682       698  ARHM      H3            -29.6259554314      -21.7089412718       57.0276373443  LPSA20    14              9.0000000000
     21683       698  ARHM      O3            -29.6417923437      -20.9102797348       58.9049974010  LPSA20    14              9.0000000000
     21684       698  ARHM      HO3           -29.6658392656      -21.2208228904       59.8113118534  LPSA20    14              9.0000000000
     21685       698  ARHM      C4            -30.2654570502      -23.2555850964       58.3194377350  LPSA20    14              9.0000000000
     21686       698  ARHM      H4            -29.9816727996      -23.7625031133       59.2683012734  LPSA20    14              9.0000000000
     21687       698  ARHM      O4            -31.6519442768      -22.9137508219       58.4019218696  LPSA20    14              9.0000000000
     21688       698  ARHM      HO4           -31.9977300335      -23.0458418987       59.2977133580  LPSA20    14              9.0000000000
     21689       698  ARHM      C6            -30.7599365131      -25.5552899121       57.2861851144  LPSA20    14              9.0000000000
     21690       698  ARHM      H61           -30.3940311455      -26.3297970407       56.5797138088  LPSA20    14              9.0000000000
     21691       698  ARHM      H62           -30.7455789560      -25.8986091153       58.3335211060  LPSA20    14              9.0000000000
     21692       698  ARHM      H63           -31.8314325948      -25.4347135159       57.0817199075  LPSA20    14              9.0000000000
     21693       699  ARHM      C1            -26.5294410281      -23.5655569193       59.7449480193  LPSA20    15             10.0000000000
     21694       699  ARHM      H1            -25.7463259143      -23.2004120112       59.0407231493  LPSA20    15             10.0000000000
     21695       699  ARHM      C5            -27.4618675446      -25.6344187042       60.6351216848  LPSA20    15             10.0000000000
     21696       699  ARHM      H5            -28.5200942236      -25.3611023258       60.4360333913  LPSA20    15             10.0000000000
     21697       699  ARHM      O5            -26.5894388660      -25.0123162296       59.6739346678  LPSA20    15             10.0000000000
     21698       699  ARHM      C2            -26.1081932958      -23.1471977282       61.1374595678  LPSA20    15             10.0000000000
     21699       699  ARHM      H2            -26.1391676877      -22.0321085076       61.2025040227  LPSA20    15             10.0000000000
     21700       699  ARHM      O2            -24.7486494964      -23.6020295708       61.3016152559  LPSA20    15             10.0000000000
     21701       699  ARHM      C3            -27.0838872076      -23.7095330785       62.1341014825  LPSA20    15             10.0000000000
     21702       699  ARHM      H3            -28.1178805987      -23.4022206059       61.8406772623  LPSA20    15             10.0000000000
     21703       699  ARHM      O3            -26.7941889085      -23.1209486945       63.4038136910  LPSA20    15             10.0000000000
     21704       699  ARHM      C4            -27.0196204390      -25.2206501764       62.0280932249  LPSA20    15             10.0000000000
     21705       699  ARHM      H4            -25.9596712166      -25.5359456288       62.1611972522  LPSA20    15             10.0000000000
     21706       699  ARHM      O4            -27.7770963793      -25.9043603822       63.0089277627  LPSA20    15             10.0000000000
     21707       699  ARHM      HO4           -27.5795806165      -26.8548780226       62.9782296654  LPSA20    15             10.0000000000
     21708       699  ARHM      C6            -27.3922031073      -27.1623089178       60.4571125796  LPSA20    15             10.0000000000
     21709       699  ARHM      H61           -28.1556893707      -27.7129302790       61.0454270219  LPSA20    15             10.0000000000
     21710       699  ARHM      H62           -27.4656792412      -27.4101121065       59.3796499429  LPSA20    15             10.0000000000
     21711       699  ARHM      H63           -26.4434548272      -27.5574658474       60.8111128412  LPSA20    15             10.0000000000
     21712       700  BMANNA    C1            -24.0630748306      -23.3450530966       62.5097615940  LPSA20    16             11.0000000000
     21713       700  BMANNA    H1            -24.5113955402      -23.9721205917       63.3177706024  LPSA20    16             11.0000000000
     21714       700  BMANNA    C5            -23.4285155885      -21.7818133071       64.1977384221  LPSA20    16             11.0000000000
     21715       700  BMANNA    H5            -23.9033621284      -22.4655381901       64.9483174544  LPSA20    16             11.0000000000
     21716       700  BMANNA    O5            -24.0807624005      -21.9664146053       62.9182970469  LPSA20    16             11.0000000000
     21717       700  BMANNA    C2            -22.6126131661      -23.7894940085       62.3108979888  LPSA20    16             11.0000000000
     21718       700  BMANNA    H2            -22.6352181127      -24.8754682559       62.0413906224  LPSA20    16             11.0000000000
     21719       700  BMANNA    N             -21.8945316695      -23.0922361281       61.2481447147  LPSA20    16             11.0000000000
     21720       700  BMANNA    HN            -21.3489263294      -22.3190652316       61.5427910156  LPSA20    16             11.0000000000
     21721       700  BMANNA    C             -21.7835978687      -23.4893165804       59.9829477688  LPSA20    16             11.0000000000
     21722       700  BMANNA    O             -22.3031302632      -24.5075211432       59.5471805562  LPSA20    16             11.0000000000
     21723       700  BMANNA    CT            -20.9978459139      -22.5741145990       59.0829258358  LPSA20    16             11.0000000000
     21724       700  BMANNA    HT1           -19.9924871348      -22.9888945002       58.8660713991  LPSA20    16             11.0000000000
     21725       700  BMANNA    HT2           -20.9153321757      -21.5819927456       59.5623672059  LPSA20    16             11.0000000000
     21726       700  BMANNA    HT3           -21.5248539465      -22.4103953832       58.1293834880  LPSA20    16             11.0000000000
     21727       700  BMANNA    C3            -21.9053526706      -23.6260281116       63.6478070492  LPSA20    16             11.0000000000
     21728       700  BMANNA    H3            -22.4360739966      -24.2588337428       64.3944628572  LPSA20    16             11.0000000000
     21729       700  BMANNA    O3            -20.5722780299      -24.0984506652       63.5929918210  LPSA20    16             11.0000000000
     21730       700  BMANNA    HO3           -20.4373870727      -24.7639697654       64.2726564360  LPSA20    16             11.0000000000
     21731       700  BMANNA    C4            -21.9671696215      -22.1743038059       64.1078381166  LPSA20    16             11.0000000000
     21732       700  BMANNA    H4            -21.4466826761      -21.5257641594       63.3671591016  LPSA20    16             11.0000000000
     21733       700  BMANNA    O4            -21.3287621574      -21.9404613209       65.3621881083  LPSA20    16             11.0000000000
     21734       700  BMANNA    HO4           -21.0132932170      -21.0362058741       65.4574794645  LPSA20    16             11.0000000000
     21735       700  BMANNA    C6            -23.5843126583      -20.3818520224       64.7694075472  LPSA20    16             11.0000000000
     21736       700  BMANNA    H61           -23.5510243769      -20.4567708130       65.8811487788  LPSA20    16             11.0000000000
     21737       700  BMANNA    H62           -22.7292246957      -19.7546489871       64.4377900533  LPSA20    16             11.0000000000
     21738       700  BMANNA    O6            -24.7832719439      -19.7119788586       64.3968769870  LPSA20    16             11.0000000000
     21739       700  BMANNA    HO6           -24.5453928052      -18.9301288715       63.9070739249  LPSA20    16             11.0000000000
     21740       701  BGLCNA    C1            -27.9260144884      -22.7716285661       64.1425550889  LPSA20    17             11.0000000000
     21741       701  BGLCNA    H1            -28.7098877537      -23.5397791070       63.9802959808  LPSA20    17             11.0000000000
     21742       701  BGLCNA    C5            -29.5909356013      -21.0863508471       64.5628906834  LPSA20    17             11.0000000000
     21743       701  BGLCNA    H5            -30.4275644289      -21.8074442321       64.3662101778  LPSA20    17             11.0000000000
     21744       701  BGLCNA    O5            -28.4455818638      -21.4861993812       63.7750034332  LPSA20    17             11.0000000000
     21745       701  BGLCNA    C2            -27.4300415605      -22.7679408697       65.5742870311  LPSA20    17             11.0000000000
     21746       701  BGLCNA    H2            -26.6828067136      -21.9510565983       65.7501543731  LPSA20    17             11.0000000000
     21747       701  BGLCNA    N             -26.7592163183      -24.0155973750       65.8736464934  LPSA20    17             11.0000000000
     21748       701  BGLCNA    HN            -27.0877642409      -24.8066921147       65.3740946581  LPSA20    17             11.0000000000
     21749       701  BGLCNA    C             -25.8310398337      -24.2200412381       66.8131527088  LPSA20    17             11.0000000000
     21750       701  BGLCNA    O             -25.2952314641      -23.3414120170       67.4802964190  LPSA20    17             11.0000000000
     21751       701  BGLCNA    CT            -25.4906616042      -25.6718775337       67.0274474023  LPSA20    17             11.0000000000
     21752       701  BGLCNA    HT1           -24.5539462773      -25.9742714261       66.5182181985  LPSA20    17             11.0000000000
     21753       701  BGLCNA    HT2           -26.3421321420      -26.2932302780       66.6813505816  LPSA20    17             11.0000000000
     21754       701  BGLCNA    HT3           -25.3783735339      -25.8681452346       68.1134933588  LPSA20    17             11.0000000000
     21755       701  BGLCNA    C3            -28.6385476365      -22.4914740791       66.4304724680  LPSA20    17             11.0000000000
     21756       701  BGLCNA    H3            -29.4075191719      -23.2308290835       66.0976020098  LPSA20    17             11.0000000000
     21757       701  BGLCNA    O3            -28.3484809842      -22.7465895962       67.8341821258  LPSA20    17             11.0000000000
     21758       701  BGLCNA    C4            -29.1411430975      -21.1086378773       66.0354090266  LPSA20    17             11.0000000000
     21759       701  BGLCNA    H4            -28.3223538034      -20.3607736503       66.1195242511  LPSA20    17             11.0000000000
     21760       701  BGLCNA    O4            -30.1050800778      -20.6806273130       66.9573858152  LPSA20    17             11.0000000000
     21761       701  BGLCNA    HO4           -30.5479704459      -19.8598964130       66.7032915566  LPSA20    17             11.0000000000
     21762       701  BGLCNA    C6            -30.0810953003      -19.7040678247       64.1213253659  LPSA20    17             11.0000000000
     21763       701  BGLCNA    H61           -31.1924906281      -19.6589832950       64.1612131144  LPSA20    17             11.0000000000
     21764       701  BGLCNA    H62           -29.6870273309      -18.9253370046       64.8106541941  LPSA20    17             11.0000000000
     21765       701  BGLCNA    O6            -29.6758788054      -19.3455976527       62.8016419102  LPSA20    17             11.0000000000
     21766       701  BGLCNA    HO6           -30.0268136471      -20.0106839827       62.2065459959  LPSA20    17             11.0000000000
     21767       702  AGAL      C1            -29.4101551364      -23.2789986485       68.6163594715  LPSA20    18             12.0000000000
     21768       702  AGAL      H1            -30.1591072163      -22.4768855214       68.8048554897  LPSA20    18             12.0000000000
     21769       702  AGAL      C5            -29.2036317669      -25.5218392701       67.8719277452  LPSA20    18             12.0000000000
     21770       702  AGAL      H5            -28.2611520449      -25.1771054657       67.4106978502  LPSA20    18             12.0000000000
     21771       702  AGAL      O5            -30.0713605731      -24.3769611696       67.9808152394  LPSA20    18             12.0000000000
     21772       702  AGAL      C2            -28.9524819594      -23.8114458579       69.9676043216  LPSA20    18             12.0000000000
     21773       702  AGAL      H2            -29.8968141908      -24.2251645524       70.3922977889  LPSA20    18             12.0000000000
     21774       702  AGAL      O2            -28.5469960778      -22.7847911992       70.8706931913  LPSA20    18             12.0000000000
     21775       702  AGAL      C3            -27.9899189172      -24.9968882208       69.8479680244  LPSA20    18             12.0000000000
     21776       702  AGAL      H3            -27.1531179134      -24.7031902634       69.1715279124  LPSA20    18             12.0000000000
     21777       702  AGAL      O3            -27.4037290880      -25.3876858175       71.0885398259  LPSA20    18             12.0000000000
     21778       702  AGAL      HO3           -26.4591857691      -25.5382435732       70.9774663799  LPSA20    18             12.0000000000
     21779       702  AGAL      C4            -28.7419419719      -26.1258922641       69.1807653641  LPSA20    18             12.0000000000
     21780       702  AGAL      H4            -28.0647469724      -26.9817946341       68.9382517440  LPSA20    18             12.0000000000
     21781       702  AGAL      O4            -29.8142907483      -26.6236510343       69.9774235896  LPSA20    18             12.0000000000
     21782       702  AGAL      HO4           -29.4246128041      -27.1074459439       70.7102943032  LPSA20    18             12.0000000000
     21783       702  AGAL      C6            -29.7002488487      -26.4440418158       66.8231341789  LPSA20    18             12.0000000000
     21784       702  AGAL      H61           -29.6283769126      -25.8390945098       65.9080690923  LPSA20    18             12.0000000000
     21785       702  AGAL      H62           -29.0270226149      -27.3070494952       66.6638076344  LPSA20    18             12.0000000000
     21786       702  AGAL      O6            -31.0312092734      -26.8934455586       67.0126025600  LPSA20    18             12.0000000000
     21787       702  AGAL      HO6           -31.4828757152      -26.3566506239       67.6723972238  LPSA20    18             12.0000000000
     21788       703  ARHM      C1            -29.0481709268      -23.0358991217       72.1701818432  LPSA20    19             13.0000000000
     21789       703  ARHM      H1            -29.1513846603      -24.1255206395       72.3528140138  LPSA20    19             13.0000000000
     21790       703  ARHM      C5            -30.3404239370      -21.0517004754       72.2511996516  LPSA20    19             13.0000000000
     21791       703  ARHM      H5            -29.9714637022      -20.8434607355       71.2168776632  LPSA20    19             13.0000000000
     21792       703  ARHM      O5            -30.3400936590      -22.4706005686       72.4140750935  LPSA20    19             13.0000000000
     21793       703  ARHM      C2            -28.0994357859      -22.4160352985       73.1510084594  LPSA20    19             13.0000000000
     21794       703  ARHM      H2            -27.0901735824      -22.7745769974       73.0058088440  LPSA20    19             13.0000000000
     21795       703  ARHM      O2            -28.3838646882      -22.8261295586       74.4852925151  LPSA20    19             13.0000000000
     21796       703  ARHM      C3            -28.0534532841      -20.9282707923       72.9653652288  LPSA20    19             13.0000000000
     21797       703  ARHM      H3            -27.7986274881      -20.6767945318       71.9033164180  LPSA20    19             13.0000000000
     21798       703  ARHM      O3            -27.0513577451      -20.3531934953       73.7739512645  LPSA20    19             13.0000000000
     21799       703  ARHM      HO3           -27.1808889165      -20.6497876866       74.6781847811  LPSA20    19             13.0000000000
     21800       703  ARHM      C4            -29.4159326672      -20.3884761434       73.2522720231  LPSA20    19             13.0000000000
     21801       703  ARHM      H4            -29.7003609828      -20.6708398918       74.2929021081  LPSA20    19             13.0000000000
     21802       703  ARHM      O4            -29.4649203253      -18.9713496254       73.1669687179  LPSA20    19             13.0000000000
     21803       703  ARHM      HO4           -29.2984883856      -18.7041659297       72.2480781024  LPSA20    19             13.0000000000
     21804       703  ARHM      C6            -31.7850186577      -20.5616531496       72.2995242328  LPSA20    19             13.0000000000
     21805       703  ARHM      H61           -32.3197745178      -21.1061310288       71.4913932128  LPSA20    19             13.0000000000
     21806       703  ARHM      H62           -32.2999869427      -20.7414462371       73.2605449456  LPSA20    19             13.0000000000
     21807       703  ARHM      H63           -31.8263245373      -19.4685201232       72.1062304274  LPSA20    19             13.0000000000
     21808       704  ARHM      C1            -28.0073058073      -24.1715909933       74.7056069703  LPSA20    20             14.0000000000
     21809       704  ARHM      H1            -27.3943484895      -24.5938833725       73.8719591792  LPSA20    20             14.0000000000
     21810       704  ARHM      C5            -29.9374771806      -24.6827997868       75.9633383981  LPSA20    20             14.0000000000
     21811       704  ARHM      H5            -30.2691366178      -23.6315216675       75.8143416607  LPSA20    20             14.0000000000
     21812       704  ARHM      O5            -29.1270189506      -25.0538153411       74.8502594834  LPSA20    20             14.0000000000
     21813       704  ARHM      C2            -27.1660178826      -24.1825814132       75.9502746110  LPSA20    20             14.0000000000
     21814       704  ARHM      H2            -26.3560312850      -23.4160543196       75.8441211655  LPSA20    20             14.0000000000
     21815       704  ARHM      O2            -26.6004818127      -25.4802554852       76.1605346635  LPSA20    20             14.0000000000
     21816       704  ARHM      C3            -27.9833542311      -23.8097447789       77.1325680446  LPSA20    20             14.0000000000
     21817       704  ARHM      H3            -28.4059586759      -22.7885396320       76.9652439858  LPSA20    20             14.0000000000
     21818       704  ARHM      O3            -27.1257155240      -23.8092184813       78.2752298083  LPSA20    20             14.0000000000
     21819       704  ARHM      C4            -29.1212026441      -24.7812529746       77.2462920987  LPSA20    20             14.0000000000
     21820       704  ARHM      H4            -28.7762462887      -25.8419092415       77.3248394404  LPSA20    20             14.0000000000
     21821       704  ARHM      O4            -29.9197140248      -24.4718651938       78.3796127796  LPSA20    20             14.0000000000
     21822       704  ARHM      HO4           -30.7890198189      -24.7621617424       78.1004406978  LPSA20    20             14.0000000000
     21823       704  ARHM      C6            -31.1960400753      -25.5587115128       75.9586784937  LPSA20    20             14.0000000000
     21824       704  ARHM      H61           -30.9520465089      -26.6282723951       76.0921948999  LPSA20    20             14.0000000000
     21825       704  ARHM      H62           -31.8805864752      -25.2452277742       76.7688185092  LPSA20    20             14.0000000000
     21826       704  ARHM      H63           -31.7159991020      -25.4640714249       74.9836009592  LPSA20    20             14.0000000000
     21827       705  BMANNA    C1            -25.4378127645      -25.6352073695       75.4060144873  LPSA20    21             15.0000000000
     21828       705  BMANNA    H1            -25.3276058125      -24.7657788806       74.7166462433  LPSA20    21             15.0000000000
     21829       705  BMANNA    C5            -24.3239307406      -26.7370363221       73.6534273783  LPSA20    21             15.0000000000
     21830       705  BMANNA    H5            -24.2673898448      -25.7643094418       73.0909915525  LPSA20    21             15.0000000000
     21831       705  BMANNA    O5            -25.4811490374      -26.7523807876       74.5172728519  LPSA20    21             15.0000000000
     21832       705  BMANNA    C2            -24.2348661620      -25.7089925532       76.3416064512  LPSA20    21             15.0000000000
     21833       705  BMANNA    H2            -24.2599201048      -24.7470653702       76.9206439261  LPSA20    21             15.0000000000
     21834       705  BMANNA    N             -24.2550049674      -26.8297173538       77.2823108767  LPSA20    21             15.0000000000
     21835       705  BMANNA    HN            -24.5972354173      -27.6767653805       76.9086745386  LPSA20    21             15.0000000000
     21836       705  BMANNA    C             -23.8512770543      -26.7761158846       78.5777855564  LPSA20    21             15.0000000000
     21837       705  BMANNA    O             -23.2474461720      -25.8230817945       79.0388346954  LPSA20    21             15.0000000000
     21838       705  BMANNA    CT            -24.1693550403      -27.9405162579       79.4911665002  LPSA20    21             15.0000000000
     21839       705  BMANNA    HT1           -23.4895843710      -28.7902672405       79.3000156643  LPSA20    21             15.0000000000
     21840       705  BMANNA    HT2           -25.1983046454      -28.2466752787       79.2799909132  LPSA20    21             15.0000000000
     21841       705  BMANNA    HT3           -24.0975673128      -27.6667367919       80.5640357281  LPSA20    21             15.0000000000
     21842       705  BMANNA    C3            -23.0120531751      -25.7037366668       75.4604883718  LPSA20    21             15.0000000000
     21843       705  BMANNA    H3            -23.0483508266      -24.7249050242       74.9245421185  LPSA20    21             15.0000000000
     21844       705  BMANNA    O3            -21.7989724773      -25.7342425294       76.1984445972  LPSA20    21             15.0000000000
     21845       705  BMANNA    HO3           -21.8119210779      -26.4972986388       76.7841286199  LPSA20    21             15.0000000000
     21846       705  BMANNA    C4            -23.0673843081      -26.8538335835       74.4750455519  LPSA20    21             15.0000000000
     21847       705  BMANNA    H4            -23.0628368706      -27.8325108270       75.0132757281  LPSA20    21             15.0000000000
     21848       705  BMANNA    O4            -21.9650028355      -26.8737908749       73.5840148793  LPSA20    21             15.0000000000
     21849       705  BMANNA    HO4           -21.4221412428      -27.6514509801       73.7646862898  LPSA20    21             15.0000000000
     21850       705  BMANNA    C6            -24.3992591369      -27.8262437900       72.6157498414  LPSA20    21             15.0000000000
     21851       705  BMANNA    H61           -23.6653269209      -27.6216505866       71.8038988866  LPSA20    21             15.0000000000
     21852       705  BMANNA    H62           -24.1142947041      -28.7912487440       73.0795764170  LPSA20    21             15.0000000000
     21853       705  BMANNA    O6            -25.7006206642      -27.9351141084       72.0566026840  LPSA20    21             15.0000000000
     21854       705  BMANNA    HO6           -26.3093909117      -28.1434620308       72.7770964620  LPSA20    21             15.0000000000
     21855       706  BGLCNA    C1            -27.3917560321      -22.8256398038       79.2389910542  LPSA20    22             15.0000000000
     21856       706  BGLCNA    H1            -28.4592104572      -22.5242053850       79.2393573485  LPSA20    22             15.0000000000
     21857       706  BGLCNA    C5            -26.7922551680      -20.7046649796       80.1004999185  LPSA20    22             15.0000000000
     21858       706  BGLCNA    H5            -27.8817165334      -20.4480763443       80.1083829878  LPSA20    22             15.0000000000
     21859       706  BGLCNA    O5            -26.5662607721      -21.6739586240       79.0635886497  LPSA20    22             15.0000000000
     21860       706  BGLCNA    C2            -27.0467029612      -23.4787904693       80.5476268943  LPSA20    22             15.0000000000
     21861       706  BGLCNA    H2            -25.9607984056      -23.7636294358       80.4992932268  LPSA20    22             15.0000000000
     21862       706  BGLCNA    N             -27.8510471099      -24.6601695014       80.7240243486  LPSA20    22             15.0000000000
     21863       706  BGLCNA    HN            -28.7865381583      -24.6233393407       80.3903126377  LPSA20    22             15.0000000000
     21864       706  BGLCNA    C             -27.4380108341      -25.7536393381       81.3424476735  LPSA20    22             15.0000000000
     21865       706  BGLCNA    O             -26.3325439579      -25.8908534388       81.8549249197  LPSA20    22             15.0000000000
     21866       706  BGLCNA    CT            -28.4485163010      -26.8485353810       81.3608710654  LPSA20    22             15.0000000000
     21867       706  BGLCNA    HT1           -28.2740596928      -27.4980244677       80.5002340574  LPSA20    22             15.0000000000
     21868       706  BGLCNA    HT2           -29.4791285533      -26.4489630023       81.2987277072  LPSA20    22             15.0000000000
     21869       706  BGLCNA    HT3           -28.3178625200      -27.4262479024       82.2929233595  LPSA20    22             15.0000000000
     21870       706  BGLCNA    C3            -27.2685822129      -22.5091157511       81.6863017847  LPSA20    22             15.0000000000
     21871       706  BGLCNA    H3            -28.3333053830      -22.1791244595       81.6563378840  LPSA20    22             15.0000000000
     21872       706  BGLCNA    O3            -27.0282083126      -23.2280964076       82.9038184143  LPSA20    22             15.0000000000
     21873       706  BGLCNA    C4            -26.4078927261      -21.2971883407       81.4539645529  LPSA20    22             15.0000000000
     21874       706  BGLCNA    H4            -25.3480751779      -21.6306318880       81.4109920806  LPSA20    22             15.0000000000
     21875       706  BGLCNA    O4            -26.5049980834      -20.3291779269       82.4939870870  LPSA20    22             15.0000000000
     21876       706  BGLCNA    HO4           -25.6323712012      -19.9854193450       82.7414600783  LPSA20    22             15.0000000000
     21877       706  BGLCNA    C6            -25.9910874180      -19.4727154553       79.7743638630  LPSA20    22             15.0000000000
     21878       706  BGLCNA    H61           -25.8968467816      -18.8520771500       80.6884130754  LPSA20    22             15.0000000000
     21879       706  BGLCNA    H62           -24.9652558858      -19.7534231917       79.4431244161  LPSA20    22             15.0000000000
     21880       706  BGLCNA    O6            -26.6422253580      -18.6513306724       78.8093773286  LPSA20    22             15.0000000000
     21881       706  BGLCNA    HO6           -26.7648536161      -19.1305300856       77.9760640571  LPSA20    22             15.0000000000
     21882       707  AGAL      C1            -27.5743743448      -22.7467823572       84.0999907898  LPSA20    23             16.0000000000
     21883       707  AGAL      H1            -26.9654222738      -21.8867475005       84.4517145219  LPSA20    23             16.0000000000
     21884       707  AGAL      C5            -29.8521965516      -23.4085134555       83.7259694195  LPSA20    23             16.0000000000
     21885       707  AGAL      H5            -29.5032841277      -23.9543903558       82.8204625355  LPSA20    23             16.0000000000
     21886       707  AGAL      O5            -28.9420595842      -22.3155989414       83.9901051615  LPSA20    23             16.0000000000
     21887       707  AGAL      C2            -27.4663122367      -23.7951961115       85.1804849343  LPSA20    23             16.0000000000
     21888       707  AGAL      H2            -27.8762435812      -23.3282141345       86.1040027747  LPSA20    23             16.0000000000
     21889       707  AGAL      O2            -26.0913659614      -24.1801122828       85.4249628362  LPSA20    23             16.0000000000
     21890       707  AGAL      C3            -28.3954308588      -24.9573837620       84.8714698432  LPSA20    23             16.0000000000
     21891       707  AGAL      H3            -28.1812627778      -25.3476029632       83.8550388817  LPSA20    23             16.0000000000
     21892       707  AGAL      O3            -28.1507018426      -26.0543103360       85.7312927749  LPSA20    23             16.0000000000
     21893       707  AGAL      HO3           -28.1721419646      -25.7636223311       86.6438185966  LPSA20    23             16.0000000000
     21894       707  AGAL      C4            -29.8347593390      -24.4430044434       84.8608207011  LPSA20    23             16.0000000000
     21895       707  AGAL      H4            -30.5554452780      -25.2567702809       84.6239933711  LPSA20    23             16.0000000000
     21896       707  AGAL      O4            -30.2337556878      -23.8587882069       86.0996536951  LPSA20    23             16.0000000000
     21897       707  AGAL      HO4           -30.8992497436      -23.2007772763       85.8346395149  LPSA20    23             16.0000000000
     21898       707  AGAL      C6            -31.1944817590      -22.8148679735       83.3359640892  LPSA20    23             16.0000000000
     21899       707  AGAL      H61           -31.0215122910      -22.0270716292       82.5723507384  LPSA20    23             16.0000000000
     21900       707  AGAL      H62           -31.8289955535      -23.5897311522       82.8376076000  LPSA20    23             16.0000000000
     21901       707  AGAL      O6            -31.8711554073      -22.2005251975       84.4399711665  LPSA20    23             16.0000000000
     21902       707  AGAL      HO6           -32.7460385550      -21.8938873134       84.1738592067  LPSA20    23             16.0000000000
     21903       708  ARHM      C1            -25.3091623932      -23.3804391574       86.2883682141  LPSA20    24             17.0000000000
     21904       708  ARHM      H1            -25.7836640540      -22.3771339198       86.3870968865  LPSA20    24             17.0000000000
     21905       708  ARHM      C5            -23.2092866348      -24.3505487894       85.6442699004  LPSA20    24             17.0000000000
     21906       708  ARHM      H5            -23.7794907484      -24.9984071812       84.9429628869  LPSA20    24             17.0000000000
     21907       708  ARHM      O5            -23.9686105095      -23.1430446396       85.8211351061  LPSA20    24             17.0000000000
     21908       708  ARHM      C2            -25.2598935576      -24.1121304202       87.6089964800  LPSA20    24             17.0000000000
     21909       708  ARHM      H2            -26.2989603076      -24.3684690085       87.9296959858  LPSA20    24             17.0000000000
     21910       708  ARHM      O2            -24.5958708666      -23.3308877469       88.6161515234  LPSA20    24             17.0000000000
     21911       708  ARHM      C3            -24.4994020011      -25.4037191905       87.4201549306  LPSA20    24             17.0000000000
     21912       708  ARHM      H3            -25.0315263880      -25.9817129657       86.6261525126  LPSA20    24             17.0000000000
     21913       708  ARHM      O3            -24.5191344557      -26.2357358920       88.5708453471  LPSA20    24             17.0000000000
     21914       708  ARHM      HO3           -23.8268852981      -25.9678241881       89.1792596160  LPSA20    24             17.0000000000
     21915       708  ARHM      C4            -23.0889011909      -25.0908398615       86.9591086754  LPSA20    24             17.0000000000
     21916       708  ARHM      H4            -22.5989715351      -24.4067953740       87.6988081676  LPSA20    24             17.0000000000
     21917       708  ARHM      O4            -22.2859956169      -26.2659593236       86.8160639324  LPSA20    24             17.0000000000
     21918       708  ARHM      HO4           -21.3642621404      -26.0621661523       87.0115515780  LPSA20    24             17.0000000000
     21919       708  ARHM      C6            -21.8511085368      -24.0717725660       84.9675230131  LPSA20    24             17.0000000000
     21920       708  ARHM      H61           -21.5102066383      -24.9796312622       84.4242220652  LPSA20    24             17.0000000000
     21921       708  ARHM      H62           -21.9763825581      -23.2720825824       84.2232095840  LPSA20    24             17.0000000000
     21922       708  ARHM      H63           -21.0731364555      -23.7346323201       85.6838322737  LPSA20    24             17.0000000000
     21923       709  ARHM      C1            -25.3612473634      -22.2815341614       89.1420955074  LPSA20    25             18.0000000000
     21924       709  ARHM      H1            -26.2169309975      -22.0756867417       88.4629713084  LPSA20    25             18.0000000000
     21925       709  ARHM      C5            -23.5887068844      -21.1148759860       90.1946489076  LPSA20    25             18.0000000000
     21926       709  ARHM      H5            -22.8576678739      -21.8841687012       89.8455049867  LPSA20    25             18.0000000000
     21927       709  ARHM      O5            -24.6644913844      -21.0287020651       89.2496449354  LPSA20    25             18.0000000000
     21928       709  ARHM      C2            -25.9063214880      -22.7398916443       90.4638804125  LPSA20    25             18.0000000000
     21929       709  ARHM      H2            -26.3295229422      -23.7734709264       90.3645863257  LPSA20    25             18.0000000000
     21930       709  ARHM      O2            -26.9318505125      -21.8366076490       90.8954187046  LPSA20    25             18.0000000000
     21931       709  ARHM      C3            -24.7727710437      -22.8318666963       91.4561249752  LPSA20    25             18.0000000000
     21932       709  ARHM      H3            -24.0172813606      -23.5704427615       91.0879287270  LPSA20    25             18.0000000000
     21933       709  ARHM      O3            -25.3199417257      -23.2333116995       92.7074978462  LPSA20    25             18.0000000000
     21934       709  ARHM      C4            -24.0835855784      -21.5041403481       91.5760873502  LPSA20    25             18.0000000000
     21935       709  ARHM      H4            -24.8094557576      -20.7174446093       91.9085338115  LPSA20    25             18.0000000000
     21936       709  ARHM      O4            -22.9944193865      -21.5668039957       92.5026098702  LPSA20    25             18.0000000000
     21937       709  ARHM      HO4           -23.0419721643      -20.7921047045       93.0693007831  LPSA20    25             18.0000000000
     21938       709  ARHM      C6            -22.8705069436      -19.7730084617       90.2061792935  LPSA20    25             18.0000000000
     21939       709  ARHM      H61           -22.5575499276      -19.4896741596       89.1755978257  LPSA20    25             18.0000000000
     21940       709  ARHM      H62           -23.4760778232      -18.9641883511       90.6467782591  LPSA20    25             18.0000000000
     21941       709  ARHM      H63           -21.9736081062      -19.8240052744       90.8462676923  LPSA20    25             18.0000000000
     21942       710  BMANNA    C1            -28.1776983509      -22.0418547645       90.2794013443  LPSA20    26             19.0000000000
     21943       710  BMANNA    H1            -28.2585814726      -23.0681600227       89.8570211562  LPSA20    26             19.0000000000
     21944       710  BMANNA    C5            -29.7222182744      -21.3808986379       88.5871554075  LPSA20    26             19.0000000000
     21945       710  BMANNA    H5            -29.6913108851      -22.4121807502       88.1736599934  LPSA20    26             19.0000000000
     21946       710  BMANNA    O5            -28.4541972954      -21.1184102193       89.2170674555  LPSA20    26             19.0000000000
     21947       710  BMANNA    C2            -29.2022861046      -21.8637742857       91.3567160648  LPSA20    26             19.0000000000
     21948       710  BMANNA    H2            -28.9620071879      -22.6490170841       92.1276385347  LPSA20    26             19.0000000000
     21949       710  BMANNA    N             -29.1592409894      -20.5261097203       91.9321184862  LPSA20    26             19.0000000000
     21950       710  BMANNA    HN            -29.2098954008      -19.7666858675       91.2871559320  LPSA20    26             19.0000000000
     21951       710  BMANNA    C             -29.0575316570      -20.2591510317       93.2369348461  LPSA20    26             19.0000000000
     21952       710  BMANNA    O             -28.8682536732      -21.1357986601       94.0677124309  LPSA20    26             19.0000000000
     21953       710  BMANNA    CT            -29.2793661022      -18.8277397333       93.6500655223  LPSA20    26             19.0000000000
     21954       710  BMANNA    HT1           -28.9975062979      -18.1463515107       92.8261031333  LPSA20    26             19.0000000000
     21955       710  BMANNA    HT2           -28.7605030387      -18.5473021734       94.5894204780  LPSA20    26             19.0000000000
     21956       710  BMANNA    HT3           -30.3637921153      -18.7202845952       93.8441954683  LPSA20    26             19.0000000000
     21957       710  BMANNA    C3            -30.5363197272      -22.1980665770       90.7525510087  LPSA20    26             19.0000000000
     21958       710  BMANNA    H3            -30.4420257899      -23.1810741282       90.2792439761  LPSA20    26             19.0000000000
     21959       710  BMANNA    O3            -31.5553193651      -22.2818492372       91.7417626526  LPSA20    26             19.0000000000
     21960       710  BMANNA    HO3           -31.4207516149      -23.0720783837       92.2747286031  LPSA20    26             19.0000000000
     21961       710  BMANNA    C4            -30.8390667741      -21.2652278208       89.6100072197  LPSA20    26             19.0000000000
     21962       710  BMANNA    H4            -30.8644933905      -20.2182672546       89.9454968306  LPSA20    26             19.0000000000
     21963       710  BMANNA    O4            -32.0944708234      -21.5992630805       89.0308425155  LPSA20    26             19.0000000000
     21964       710  BMANNA    HO4           -32.7553406088      -21.1265335628       89.5488340477  LPSA20    26             19.0000000000
     21965       710  BMANNA    C6            -29.8422520370      -20.4302857216       87.3943982827  LPSA20    26             19.0000000000
     21966       710  BMANNA    H61           -28.8411400328      -20.3204385443       86.9171137318  LPSA20    26             19.0000000000
     21967       710  BMANNA    H62           -30.5280600540      -20.8557199120       86.6321183787  LPSA20    26             19.0000000000
     21968       710  BMANNA    O6            -30.3288450885      -19.1256025449       87.7208037390  LPSA20    26             19.0000000000
     21969       710  BMANNA    HO6           -31.1705290652      -19.1982281535       88.1800666396  LPSA20    26             19.0000000000
     21970       711  BGLCNA    C1            -24.5983409506      -24.1534047025       93.4726324569  LPSA20    27             19.0000000000
     21971       711  BGLCNA    H1            -23.5015590054      -23.9718145311       93.4288389698  LPSA20    27             19.0000000000
     21972       711  BGLCNA    C5            -24.1822057571      -26.4352966277       93.9167526350  LPSA20    27             19.0000000000
     21973       711  BGLCNA    H5            -23.0955736213      -26.1648191362       93.9365033968  LPSA20    27             19.0000000000
     21974       711  BGLCNA    O5            -24.8606540163      -25.4937983316       93.0683771161  LPSA20    27             19.0000000000
     21975       711  BGLCNA    C2            -25.1398870651      -23.9302321514       94.8666625220  LPSA20    27             19.0000000000
     21976       711  BGLCNA    H2            -26.2289163181      -24.1942545869       94.8344468316  LPSA20    27             19.0000000000
     21977       711  BGLCNA    N             -25.0148998795      -22.5371307222       95.2954812450  LPSA20    27             19.0000000000
     21978       711  BGLCNA    HN            -24.1615894206      -22.0828917218       95.0809419579  LPSA20    27             19.0000000000
     21979       711  BGLCNA    C             -26.0143850098      -21.9188671918       95.9644485648  LPSA20    27             19.0000000000
     21980       711  BGLCNA    O             -26.9189903454      -22.5461595067       96.4986553090  LPSA20    27             19.0000000000
     21981       711  BGLCNA    CT            -26.0035019037      -20.4104716632       96.0227538338  LPSA20    27             19.0000000000
     21982       711  BGLCNA    HT1           -25.2058169143      -20.0105796158       95.3688901811  LPSA20    27             19.0000000000
     21983       711  BGLCNA    HT2           -25.8763138201      -20.0438781894       97.0578678019  LPSA20    27             19.0000000000
     21984       711  BGLCNA    HT3           -26.9934071858      -20.0441718298       95.6721522479  LPSA20    27             19.0000000000
     21985       711  BGLCNA    C3            -24.4823034013      -24.8790917986       95.8193572631  LPSA20    27             19.0000000000
     21986       711  BGLCNA    H3            -23.3831504871      -24.6875180381       95.7753088133  LPSA20    27             19.0000000000
     21987       711  BGLCNA    O3            -25.0107549933      -24.5425142151       97.1242688716  LPSA20    27             19.0000000000
     21988       711  BGLCNA    C4            -24.7199261742      -26.2967752319       95.3358427411  LPSA20    27             19.0000000000
     21989       711  BGLCNA    H4            -25.8115337481      -26.5248200112       95.3302862371  LPSA20    27             19.0000000000
     21990       711  BGLCNA    O4            -24.0642776414      -27.2294002023       96.1728820567  LPSA20    27             19.0000000000
     21991       711  BGLCNA    HO4           -23.1153445977      -27.1147859954       96.0737552708  LPSA20    27             19.0000000000
     21992       711  BGLCNA    C6            -24.2648551157      -27.8269464369       93.3197081369  LPSA20    27             19.0000000000
     21993       711  BGLCNA    H61           -23.5576284523      -28.5015295326       93.8534465285  LPSA20    27             19.0000000000
     21994       711  BGLCNA    H62           -25.2857745848      -28.2550845476       93.4461971404  LPSA20    27             19.0000000000
     21995       711  BGLCNA    O6            -23.9152250974      -27.8087599404       91.9321691533  LPSA20    27             19.0000000000
     21996       711  BGLCNA    HO6           -24.0384088641      -28.6836824129       91.5541365938  LPSA20    27             19.0000000000
     21997       712  AGAL      C1            -24.2882120819      -24.9778904657       98.2441771496  LPSA20    28             20.0000000000
     21998       712  AGAL      H1            -24.4388478675      -26.0749363669       98.3265467532  LPSA20    28             20.0000000000
     21999       712  AGAL      C5            -22.5759294512      -23.3144573518       98.1188514982  LPSA20    28             20.0000000000
     22000       712  AGAL      H5            -23.2452888741      -22.7459870065       97.4257667372  LPSA20    28             20.0000000000
     22001       712  AGAL      O5            -22.8850050344      -24.7233123002       98.0470286909  LPSA20    28             20.0000000000
     22002       712  AGAL      C2            -24.7063935941      -24.3951491490       99.6104460023  LPSA20    28             20.0000000000
     22003       712  AGAL      H2            -24.0036915544      -24.9269083560      100.2951175233  LPSA20    28             20.0000000000
     22004       712  AGAL      O2            -26.0218021825      -24.6791800237      100.1028752922  LPSA20    28             20.0000000000
     22005       712  AGAL      C3            -24.4024760259      -22.9175017734       99.6853956782  LPSA20    28             20.0000000000
     22006       712  AGAL      H3            -24.9200809899      -22.4062787649       98.8444157407  LPSA20    28             20.0000000000
     22007       712  AGAL      O3            -24.8351129553      -22.2379777707      100.8642234156  LPSA20    28             20.0000000000
     22008       712  AGAL      HO3           -25.4448021639      -21.5223094338      100.6119930651  LPSA20    28             20.0000000000
     22009       712  AGAL      C4            -22.9273742364      -22.7715739461       99.4770580059  LPSA20    28             20.0000000000
     22010       712  AGAL      H4            -22.7409433030      -21.6904732709       99.4264730709  LPSA20    28             20.0000000000
     22011       712  AGAL      O4            -22.1528050674      -23.3598331836      100.5122400897  LPSA20    28             20.0000000000
     22012       712  AGAL      HO4           -21.8030879264      -22.6640911323      101.0677909125  LPSA20    28             20.0000000000
     22013       712  AGAL      C6            -21.1565335482      -23.0145130168       97.6436807428  LPSA20    28             20.0000000000
     22014       712  AGAL      H61           -21.1049124603      -23.2432705730       96.5598107376  LPSA20    28             20.0000000000
     22015       712  AGAL      H62           -20.9163386381      -21.9315987525       97.7733324192  LPSA20    28             20.0000000000
     22016       712  AGAL      O6            -20.1296990379      -23.7558649565       98.3027791506  LPSA20    28             20.0000000000
     22017       712  AGAL      HO6           -20.0402666626      -24.6658394484       97.9862002402  LPSA20    28             20.0000000000
     22018       713  ARHM      C1            -25.9669008465      -24.9813240068      101.4829548947  LPSA20    29             21.0000000000
     22019       713  ARHM      H1            -25.0891113771      -24.4978142740      101.9601290986  LPSA20    29             21.0000000000
     22020       713  ARHM      C5            -26.9874849249      -27.0953560777      101.1456257923  LPSA20    29             21.0000000000
     22021       713  ARHM      H5            -27.0632819943      -26.8297094609      100.0638092911  LPSA20    29             21.0000000000
     22022       713  ARHM      O5            -25.8743049332      -26.3905758231      101.7074164565  LPSA20    29             21.0000000000
     22023       713  ARHM      C2            -27.1911934981      -24.4565305958      102.1684394006  LPSA20    29             21.0000000000
     22024       713  ARHM      H2            -27.2735349148      -23.3704858392      101.9212356443  LPSA20    29             21.0000000000
     22025       713  ARHM      O2            -27.1070869602      -24.6503885516      103.6012327140  LPSA20    29             21.0000000000
     22026       713  ARHM      C3            -28.3996359581      -25.1559018150      101.6062795209  LPSA20    29             21.0000000000
     22027       713  ARHM      H3            -28.4528181137      -24.9667505281      100.5066457541  LPSA20    29             21.0000000000
     22028       713  ARHM      O3            -29.5791872155      -24.6129203106      102.1649021585  LPSA20    29             21.0000000000
     22029       713  ARHM      HO3           -30.1773575170      -25.3550016254      102.2634789263  LPSA20    29             21.0000000000
     22030       713  ARHM      C4            -28.2928906573      -26.6607442283      101.8202547107  LPSA20    29             21.0000000000
     22031       713  ARHM      H4            -28.2291007528      -26.8816282302      102.9142154498  LPSA20    29             21.0000000000
     22032       713  ARHM      O4            -29.4429451048      -27.3714518037      101.3479915146  LPSA20    29             21.0000000000
     22033       713  ARHM      HO4           -29.6864410100      -27.1152811788      100.4571829774  LPSA20    29             21.0000000000
     22034       713  ARHM      C6            -26.5812439746      -28.5703841018      101.2286741457  LPSA20    29             21.0000000000
     22035       713  ARHM      H61           -25.5701275327      -28.6714490923      100.7666888369  LPSA20    29             21.0000000000
     22036       713  ARHM      H62           -26.5421356318      -28.9179981916      102.2788817709  LPSA20    29             21.0000000000
     22037       713  ARHM      H63           -27.2881021120      -29.1958453007      100.6393997884  LPSA20    29             21.0000000000
     22038       714  ARHM      C1            -26.6517496152      -23.5585747987      104.3716792737  LPSA20    30             22.0000000000
     22039       714  ARHM      H1            -27.2811158031      -22.6611775463      104.1635409625  LPSA20    30             22.0000000000
     22040       714  ARHM      C5            -24.3700898481      -24.2914717692      104.4976616463  LPSA20    30             22.0000000000
     22041       714  ARHM      H5            -24.7038605308      -25.1760935762      103.9122555868  LPSA20    30             22.0000000000
     22042       714  ARHM      O5            -25.2644284299      -23.2200370841      104.1651820188  LPSA20    30             22.0000000000
     22043       714  ARHM      C2            -26.8006321143      -23.9225343886      105.8267427882  LPSA20    30             22.0000000000
     22044       714  ARHM      H2            -27.8579733561      -24.2149507477      106.0296075075  LPSA20    30             22.0000000000
     22045       714  ARHM      O2            -26.4134892715      -22.7874906503      106.6002825131  LPSA20    30             22.0000000000
     22046       714  ARHM      C3            -25.8876851851      -25.0615869896      106.2220421434  LPSA20    30             22.0000000000
     22047       714  ARHM      H3            -26.1127281644      -25.8984308393      105.5172050314  LPSA20    30             22.0000000000
     22048       714  ARHM      O3            -26.1934159148      -25.5519721898      107.5398957406  LPSA20    30             22.0000000000
     22049       714  ARHM      C4            -24.4583515544      -24.6501321773      105.9660504740  LPSA20    30             22.0000000000
     22050       714  ARHM      H4            -24.1769515890      -23.7482311480      106.5559359213  LPSA20    30             22.0000000000
     22051       714  ARHM      O4            -23.5210879391      -25.6565614862      106.3225074746  LPSA20    30             22.0000000000
     22052       714  ARHM      HO4           -23.3937365775      -26.3099967931      105.6368912658  LPSA20    30             22.0000000000
     22053       714  ARHM      C6            -22.9378828532      -23.9557632848      104.0514985000  LPSA20    30             22.0000000000
     22054       714  ARHM      H61           -22.2797009303      -24.8317420802      104.2298191043  LPSA20    30             22.0000000000
     22055       714  ARHM      H62           -22.9278695181      -23.7356959418      102.9675099219  LPSA20    30             22.0000000000
     22056       714  ARHM      H63           -22.5414233111      -23.0944557749      104.6208947376  LPSA20    30             22.0000000000
     22057       715  BMANNA    C1            -27.4447058132      -21.9118904992      106.8995471407  LPSA20    31             23.0000000000
     22058       715  BMANNA    H1            -28.3687738317      -22.4736531817      107.1551313616  LPSA20    31             23.0000000000
     22059       715  BMANNA    C5            -28.6945354325      -19.9985637373      106.2030812270  LPSA20    31             23.0000000000
     22060       715  BMANNA    H5            -29.5816686231      -20.6059608719      106.5009996775  LPSA20    31             23.0000000000
     22061       715  BMANNA    O5            -27.6709127647      -20.9550939640      105.8599997286  LPSA20    31             23.0000000000
     22062       715  BMANNA    C2            -26.9363467033      -21.1664526703      108.0855039683  LPSA20    31             23.0000000000
     22063       715  BMANNA    H2            -26.8387232019      -21.9131882648      108.9144119344  LPSA20    31             23.0000000000
     22064       715  BMANNA    N             -25.6143931253      -20.6050071976      107.8264366269  LPSA20    31             23.0000000000
     22065       715  BMANNA    HN            -25.3596503985      -20.5342954793      106.8639172258  LPSA20    31             23.0000000000
     22066       715  BMANNA    C             -24.7298717931      -20.3879816778      108.8044595312  LPSA20    31             23.0000000000
     22067       715  BMANNA    O             -24.9723895669      -20.6847412089      109.9605423418  LPSA20    31             23.0000000000
     22068       715  BMANNA    CT            -23.4137007827      -19.8052101203      108.4126653740  LPSA20    31             23.0000000000
     22069       715  BMANNA    HT1           -23.5047181349      -19.0881423291      107.6009489734  LPSA20    31             23.0000000000
     22070       715  BMANNA    HT2           -22.7752372165      -20.6220489808      108.0700336632  LPSA20    31             23.0000000000
     22071       715  BMANNA    HT3           -22.8836350108      -19.3218660225      109.2436589032  LPSA20    31             23.0000000000
     22072       715  BMANNA    C3            -28.0026982168      -20.1918306012      108.4960308892  LPSA20    31             23.0000000000
     22073       715  BMANNA    H3            -28.9606270688      -20.7328442231      108.6652839633  LPSA20    31             23.0000000000
     22074       715  BMANNA    O3            -27.6964378112      -19.6310274429      109.7414204270  LPSA20    31             23.0000000000
     22075       715  BMANNA    HO3           -26.9796783039      -20.1383484634      110.1549866884  LPSA20    31             23.0000000000
     22076       715  BMANNA    C4            -28.2608002212      -19.1949260865      107.4047783126  LPSA20    31             23.0000000000
     22077       715  BMANNA    H4            -27.3394032714      -18.6287265495      107.1299809690  LPSA20    31             23.0000000000
     22078       715  BMANNA    O4            -29.2552841647      -18.2397228059      107.7475601984  LPSA20    31             23.0000000000
     22079       715  BMANNA    HO4           -29.9896623110      -18.6399799582      108.2264994886  LPSA20    31             23.0000000000
     22080       715  BMANNA    C6            -29.1271369675      -19.1051064876      105.0508141120  LPSA20    31             23.0000000000
     22081       715  BMANNA    H61           -30.0635768145      -18.5641433181      105.3210547656  LPSA20    31             23.0000000000
     22082       715  BMANNA    H62           -28.3495706893      -18.3305147948      104.8740128504  LPSA20    31             23.0000000000
     22083       715  BMANNA    O6            -29.3388788963      -19.8178795442      103.8316995630  LPSA20    31             23.0000000000
     22084       715  BMANNA    HO6           -30.1339887567      -20.3604952761      103.8679740057  LPSA20    31             23.0000000000
     22085       716  BGLCNA    C1            -25.6152548565      -24.8446433792      108.6119883999  LPSA20    32             23.0000000000
     22086       716  BGLCNA    H1            -25.6162681568      -23.7622225913      108.4055651804  LPSA20    32             23.0000000000
     22087       716  BGLCNA    C5            -23.6724896935      -24.4114763533      109.9238825511  LPSA20    32             23.0000000000
     22088       716  BGLCNA    H5            -23.7370267828      -23.3492467077      109.5817825245  LPSA20    32             23.0000000000
     22089       716  BGLCNA    O5            -24.2743333379      -25.2336881054      108.9085291068  LPSA20    32             23.0000000000
     22090       716  BGLCNA    C2            -26.4517931467      -25.0591350209      109.8553479915  LPSA20    32             23.0000000000
     22091       716  BGLCNA    H2            -26.2963788356      -26.1275379655      110.1492834235  LPSA20    32             23.0000000000
     22092       716  BGLCNA    N             -27.8552047085      -24.8308075875      109.5796979379  LPSA20    32             23.0000000000
     22093       716  BGLCNA    HN            -28.0068555708      -24.1690713540      108.8615694685  LPSA20    32             23.0000000000
     22094       716  BGLCNA    C             -28.8961930528      -25.5153766373      110.0973086567  LPSA20    32             23.0000000000
     22095       716  BGLCNA    O             -28.7868800345      -26.4050269450      110.9221592386  LPSA20    32             23.0000000000
     22096       716  BGLCNA    CT            -30.2349862841      -25.0896500383      109.5640087675  LPSA20    32             23.0000000000
     22097       716  BGLCNA    HT1           -30.0262104364      -24.5074822162      108.6541251296  LPSA20    32             23.0000000000
     22098       716  BGLCNA    HT2           -30.7956911848      -24.4311654822      110.2490406601  LPSA20    32             23.0000000000
     22099       716  BGLCNA    HT3           -30.8734747192      -25.9673022350      109.3141976822  LPSA20    32             23.0000000000
     22100       716  BGLCNA    C3            -25.9009550573      -24.1439182918      110.9243667257  LPSA20    32             23.0000000000
     22101       716  BGLCNA    H3            -25.8619201828      -23.1242156607      110.4748143334  LPSA20    32             23.0000000000
     22102       716  BGLCNA    O3            -26.7322980894      -24.0677871856      112.0952186657  LPSA20    32             23.0000000000
     22103       716  BGLCNA    C4            -24.4754564793      -24.5692543558      111.2009192333  LPSA20    32             23.0000000000
     22104       716  BGLCNA    H4            -24.4842544501      -25.6438254681      111.5067070649  LPSA20    32             23.0000000000
     22105       716  BGLCNA    O4            -23.8842285545      -23.8056175341      112.2365112929  LPSA20    32             23.0000000000
     22106       716  BGLCNA    HO4           -24.0518332738      -24.2483822591      113.0767573828  LPSA20    32             23.0000000000
     22107       716  BGLCNA    C6            -22.1911336586      -24.7141699040      110.0523127851  LPSA20    32             23.0000000000
     22108       716  BGLCNA    H61           -21.6699485496      -23.9949085099      110.7210009775  LPSA20    32             23.0000000000
     22109       716  BGLCNA    H62           -22.0706592354      -25.7187500896      110.4998974765  LPSA20    32             23.0000000000
     22110       716  BGLCNA    O6            -21.5318602665      -24.6646221899      108.7895545420  LPSA20    32             23.0000000000
     22111       716  BGLCNA    HO6           -21.8873081846      -23.9340269334      108.2777967165  LPSA20    32             23.0000000000
     22112       717  AGAL      C1            -26.7720369885      -22.7787215957      112.6846927313  LPSA20    33             24.0000000000
     22113       717  AGAL      H1            -25.7804088938      -22.2856560458      112.6086772937  LPSA20    33             24.0000000000
     22114       717  AGAL      C5            -29.0751025887      -22.4226917724      112.2099303797  LPSA20    33             24.0000000000
     22115       717  AGAL      H5            -29.0344016583      -23.4696741167      111.8391760355  LPSA20    33             24.0000000000
     22116       717  AGAL      O5            -27.7431425758      -21.9232779084      112.0577841736  LPSA20    33             24.0000000000
     22117       717  AGAL      C2            -27.1520453738      -22.9080964634      114.1505408929  LPSA20    33             24.0000000000
     22118       717  AGAL      H2            -27.2552241827      -21.8678532845      114.5314939424  LPSA20    33             24.0000000000
     22119       717  AGAL      O2            -26.0459794767      -23.4840438358      114.8729163237  LPSA20    33             24.0000000000
     22120       717  AGAL      C3            -28.5517950409      -23.5242248933      114.3042391533  LPSA20    33             24.0000000000
     22121       717  AGAL      H3            -28.6020789322      -24.4801235794      113.7263091236  LPSA20    33             24.0000000000
     22122       717  AGAL      O3            -28.9044386565      -23.9188448304      115.6241178742  LPSA20    33             24.0000000000
     22123       717  AGAL      HO3           -28.7706167616      -23.2052432281      116.2481609813  LPSA20    33             24.0000000000
     22124       717  AGAL      C4            -29.5461153024      -22.5615885982      113.6572411686  LPSA20    33             24.0000000000
     22125       717  AGAL      H4            -30.5632766395      -22.9951627816      113.6709069424  LPSA20    33             24.0000000000
     22126       717  AGAL      O4            -29.7434948852      -21.3251536186      114.3272942801  LPSA20    33             24.0000000000
     22127       717  AGAL      HO4           -28.9988038652      -21.0111497784      114.8397917348  LPSA20    33             24.0000000000
     22128       717  AGAL      C6            -30.0066219478      -21.7414252066      111.2348015593  LPSA20    33             24.0000000000
     22129       717  AGAL      H61           -29.6690538492      -21.9441426950      110.2099750907  LPSA20    33             24.0000000000
     22130       717  AGAL      H62           -30.9718178710      -22.2304996023      111.3065874995  LPSA20    33             24.0000000000
     22131       717  AGAL      O6            -30.2304677829      -20.3490541395      111.3938164855  LPSA20    33             24.0000000000
     22132       717  AGAL      HO6           -29.5705033252      -19.8014016563      110.9231429851  LPSA20    33             24.0000000000
     22133       718  ARHM      C1            -25.6958805460      -22.7898036465      116.0558106250  LPSA20    34             25.0000000000
     22134       718  ARHM      H1            -26.6202801921      -22.6265098795      116.6487213900  LPSA20    34             25.0000000000
     22135       718  ARHM      C5            -23.8644804348      -21.5342681543      115.0722943962  LPSA20    34             25.0000000000
     22136       718  ARHM      H5            -24.1077556694      -21.9465235569      114.0706825120  LPSA20    34             25.0000000000
     22137       718  ARHM      O5            -25.0789750937      -21.4877541476      115.8453853201  LPSA20    34             25.0000000000
     22138       718  ARHM      C2            -24.7439150737      -23.7044378101      116.8134771942  LPSA20    34             25.0000000000
     22139       718  ARHM      H2            -25.1866806968      -24.7292996980      116.8566810991  LPSA20    34             25.0000000000
     22140       718  ARHM      O2            -24.4751643348      -23.2793496025      118.1756428072  LPSA20    34             25.0000000000
     22141       718  ARHM      C3            -23.4524549333      -23.8113805690      116.0103604297  LPSA20    34             25.0000000000
     22142       718  ARHM      H3            -23.6832069799      -24.2274508327      114.9967545741  LPSA20    34             25.0000000000
     22143       718  ARHM      O3            -22.4931808660      -24.6756010426      116.6253539095  LPSA20    34             25.0000000000
     22144       718  ARHM      HO3           -22.1132799293      -25.2341415592      115.9441141240  LPSA20    34             25.0000000000
     22145       718  ARHM      C4            -22.8703395102      -22.4354537431      115.7964283138  LPSA20    34             25.0000000000
     22146       718  ARHM      H4            -22.6804913876      -21.9516290255      116.7849073931  LPSA20    34             25.0000000000
     22147       718  ARHM      O4            -21.6356160331      -22.5187850045      115.0781195404  LPSA20    34             25.0000000000
     22148       718  ARHM      HO4           -20.9511909124      -22.8102524578      115.6837544789  LPSA20    34             25.0000000000
     22149       718  ARHM      C6            -23.2531881483      -20.1161938900      114.8443345083  LPSA20    34             25.0000000000
     22150       718  ARHM      H61           -23.0298706130      -19.5861221256      115.7873095389  LPSA20    34             25.0000000000
     22151       718  ARHM      H62           -22.2797645134      -20.2276012987      114.3301004656  LPSA20    34             25.0000000000
     22152       718  ARHM      H63           -23.8889242644      -19.4817593631      114.1912276590  LPSA20    34             25.0000000000
     22153       719  ARHM      C1            -25.5734280759      -23.1171537164      119.0593091463  LPSA20    35             26.0000000000
     22154       719  ARHM      H1            -26.3399802492      -23.9061799969      118.8658071899  LPSA20    35             26.0000000000
     22155       719  ARHM      C5            -25.2073137772      -20.7392294677      119.2069706753  LPSA20    35             26.0000000000
     22156       719  ARHM      H5            -24.3438010817      -20.8097791645      118.5109588736  LPSA20    35             26.0000000000
     22157       719  ARHM      O5            -26.1561628982      -21.8023505875      118.9551185083  LPSA20    35             26.0000000000
     22158       719  ARHM      C2            -25.1006119259      -23.2611224444      120.5011028633  LPSA20    35             26.0000000000
     22159       719  ARHM      H2            -24.6322119958      -24.2654113445      120.6489543708  LPSA20    35             26.0000000000
     22160       719  ARHM      O2            -26.1872842664      -23.1184323650      121.4408829824  LPSA20    35             26.0000000000
     22161       719  ARHM      C3            -24.0629201714      -22.2185966188      120.8256507805  LPSA20    35             26.0000000000
     22162       719  ARHM      H3            -23.2023084074      -22.3136368200      120.1211449983  LPSA20    35             26.0000000000
     22163       719  ARHM      O3            -23.5217905407      -22.4517211938      122.1251869531  LPSA20    35             26.0000000000
     22164       719  ARHM      HO3           -24.2008371519      -22.7999655087      122.7053781861  LPSA20    35             26.0000000000
     22165       719  ARHM      C4            -24.6840813483      -20.8378230919      120.6466764059  LPSA20    35             26.0000000000
     22166       719  ARHM      H4            -25.5612911468      -20.7093233258      121.3290499801  LPSA20    35             26.0000000000
     22167       719  ARHM      O4            -23.7531899316      -19.7948147787      120.9542668886  LPSA20    35             26.0000000000
     22168       719  ARHM      HO4           -22.8942972167      -20.0042960227      120.5703798140  LPSA20    35             26.0000000000
     22169       719  ARHM      C6            -25.8682696345      -19.3969592506      118.8406011392  LPSA20    35             26.0000000000
     22170       719  ARHM      H61           -26.1005383853      -19.3177121468      117.7613859460  LPSA20    35             26.0000000000
     22171       719  ARHM      H62           -26.8237814955      -19.3337916790      119.3728936430  LPSA20    35             26.0000000000
     22172       719  ARHM      H63           -25.2104252503      -18.5434589635      119.1130664484  LPSA20    35             26.0000000000
     22173       720  BMANNA    C1            -27.0851845986      -24.1968555324      121.4706671748  LPSA20    36             27.0000000000
     22174       720  BMANNA    H1            -26.5755771869      -25.1213744891      121.1172454512  LPSA20    36             27.0000000000
     22175       720  BMANNA    C5            -29.0846544704      -25.2159040955      120.7102887413  LPSA20    36             27.0000000000
     22176       720  BMANNA    H5            -28.4702202549      -26.1036945858      120.4211309419  LPSA20    36             27.0000000000
     22177       720  BMANNA    O5            -28.2537032858      -24.0307181692      120.6583540030  LPSA20    36             27.0000000000
     22178       720  BMANNA    C2            -27.5221442451      -24.3622411710      122.9166627353  LPSA20    36             27.0000000000
     22179       720  BMANNA    H2            -26.5849547681      -24.5439152858      123.4900197791  LPSA20    36             27.0000000000
     22180       720  BMANNA    N             -28.1607552159      -23.1844709708      123.4939163274  LPSA20    36             27.0000000000
     22181       720  BMANNA    HN            -28.7360284848      -22.6497771661      122.8841172996  LPSA20    36             27.0000000000
     22182       720  BMANNA    C             -28.0832224715      -22.8740054005      124.8012207777  LPSA20    36             27.0000000000
     22183       720  BMANNA    O             -27.3537923085      -23.4917116216      125.5610781802  LPSA20    36             27.0000000000
     22184       720  BMANNA    CT            -28.9517341712      -21.7555255755      125.3128959911  LPSA20    36             27.0000000000
     22185       720  BMANNA    HT1           -29.9536025001      -21.8102849456      124.8470378300  LPSA20    36             27.0000000000
     22186       720  BMANNA    HT2           -28.4956044066      -20.7680775946      125.1298211226  LPSA20    36             27.0000000000
     22187       720  BMANNA    HT3           -29.0682519224      -21.8604031159      126.4139858432  LPSA20    36             27.0000000000
     22188       720  BMANNA    C3            -28.3760534489      -25.6113597705      123.0154213038  LPSA20    36             27.0000000000
     22189       720  BMANNA    H3            -27.7954948546      -26.4915876070      122.6480308260  LPSA20    36             27.0000000000
     22190       720  BMANNA    O3            -28.8113067109      -25.8975720788      124.3427992777  LPSA20    36             27.0000000000
     22191       720  BMANNA    HO3           -28.4451509361      -26.6975380749      124.7285001443  LPSA20    36             27.0000000000
     22192       720  BMANNA    C4            -29.5663191453      -25.4545600414      122.1232517102  LPSA20    36             27.0000000000
     22193       720  BMANNA    H4            -30.1751628463      -24.5828662871      122.4480787307  LPSA20    36             27.0000000000
     22194       720  BMANNA    O4            -30.3754507874      -26.6129446515      122.2185678925  LPSA20    36             27.0000000000
     22195       720  BMANNA    HO4           -30.5832220780      -26.6656877240      123.1599497469  LPSA20    36             27.0000000000
     22196       720  BMANNA    C6            -30.2158606403      -25.1545197105      119.7164391014  LPSA20    36             27.0000000000
     22197       720  BMANNA    H61           -29.8156168403      -24.9900348182      118.6894383299  LPSA20    36             27.0000000000
     22198       720  BMANNA    H62           -30.7117218188      -26.1504490257      119.6965455979  LPSA20    36             27.0000000000
     22199       720  BMANNA    O6            -31.1837823537      -24.1605515167      120.0738080576  LPSA20    36             27.0000000000
     22200       720  BMANNA    HO6           -31.8524939128      -24.5500205960      120.6552738620  LPSA20    36             27.0000000000
     22201       721  ECLIPA    HB6S          -20.6559190356       30.4956081658       20.4265805052  LPSA21    1               0.0000000000
     22202       721  ECLIPA    OB6           -20.0223177032       31.9740361300       21.7136389179  LPSA21    1               0.0000000000
     22203       721  ECLIPA    CB6           -20.9452846428       31.5296738494       20.6996730977  LPSA21    1               0.0000000000
     22204       721  ECLIPA    HB6R          -21.9835628015       31.4936762168       21.1009925215  LPSA21    1               0.0000000000
     22205       721  ECLIPA    CB5           -20.9689056984       32.3825314793       19.4355035553  LPSA21    1               0.0000000000
     22206       721  ECLIPA    OB5           -19.6101638090       32.4296975440       18.9601219766  LPSA21    1               0.0000000000
     22207       721  ECLIPA    HB5           -21.3220228859       33.3945761265       19.7419665047  LPSA21    1               0.0000000000
     22208       721  ECLIPA    CB1           -19.4724360828       33.2331712187       17.7833423799  LPSA21    1               0.0000000000
     22209       721  ECLIPA    HB1           -19.8396823940       34.2719975759       17.9640734316  LPSA21    1               0.0000000000
     22210       721  ECLIPA    OA6           -18.1387947106       33.3393752424       17.3322299344  LPSA21    1               0.0000000000
     22211       721  ECLIPA    CA6           -17.3207564454       32.1787077617       17.5639401967  LPSA21    1               0.0000000000
     22212       721  ECLIPA    HA6R          -17.9247313381       31.2627451942       17.7520920624  LPSA21    1               0.0000000000
     22213       721  ECLIPA    HA6S          -16.6741126067       32.3734208416       18.4508158822  LPSA21    1               0.0000000000
     22214       721  ECLIPA    CB4           -21.8893465727       31.8334229422       18.3275116193  LPSA21    1               0.0000000000
     22215       721  ECLIPA    HB4           -21.6275797419       30.7800462375       18.0524153184  LPSA21    1               0.0000000000
     22216       721  ECLIPA    OB4           -23.2165793679       31.9702040541       18.8359737434  LPSA21    1               0.0000000000
     22217       721  ECLIPA    PB            -24.0753236512       30.6366014256       19.3023809766  LPSA21    1               0.0000000000
     22218       721  ECLIPA    OPB4          -24.9532064404       31.0764161439       20.4688497947  LPSA21    1               0.0000000000
     22219       721  ECLIPA    OPB3          -23.0331398185       29.5862539951       19.7015176207  LPSA21    1               0.0000000000
     22220       721  ECLIPA    OPB2          -24.8424061979       30.2621888707       18.0467246807  LPSA21    1               0.0000000000
     22221       721  ECLIPA    CB3           -21.7482849447       32.6842169399       17.0838147113  LPSA21    1               0.0000000000
     22222       721  ECLIPA    OB3           -22.4777363411       32.2230281366       15.9404777617  LPSA21    1               0.0000000000
     22223       721  ECLIPA    HB3           -21.9873694451       33.7472390808       17.3357924577  LPSA21    1               0.0000000000
     22224       721  ECLIPA    C71           -23.7313804974       32.6262670628       15.7746655889  LPSA21    1               0.0000000000
     22225       721  ECLIPA    O71           -24.1844759078       33.6361256728       16.2893044196  LPSA21    1               0.0000000000
     22226       721  ECLIPA    C72           -24.1998066605       32.1087303986       14.3842135995  LPSA21    1               0.0000000000
     22227       721  ECLIPA    H72R          -23.4747427193       32.4147354760       13.6004886390  LPSA21    1               0.0000000000
     22228       721  ECLIPA    H72S          -25.1965978678       32.5410452378       14.1670306189  LPSA21    1               0.0000000000
     22229       721  ECLIPA    CB2           -20.2961335972       32.6663406618       16.6631705429  LPSA21    1               0.0000000000
     22230       721  ECLIPA    HB2           -19.9916933217       31.5920005746       16.5116519148  LPSA21    1               0.0000000000
     22231       721  ECLIPA    NB2           -20.1049042397       33.4547108168       15.4501860154  LPSA21    1               0.0000000000
     22232       721  ECLIPA    HNB2          -19.8987243959       34.4174235440       15.5705434559  LPSA21    1               0.0000000000
     22233       721  ECLIPA    CA4           -15.8557323737       33.2277660665       15.7994414181  LPSA21    1               0.0000000000
     22234       721  ECLIPA    HA4           -16.7263439053       33.8572617556       15.5074241689  LPSA21    1               0.0000000000
     22235       721  ECLIPA    OA4           -15.1351558292       33.9327924906       16.8241238720  LPSA21    1               0.0000000000
     22236       721  ECLIPA    HOA4          -15.6344835563       33.7548806421       17.6289182734  LPSA21    1               0.0000000000
     22237       721  ECLIPA    CA5           -16.4501678471       31.9406156307       16.3455432523  LPSA21    1               0.0000000000
     22238       721  ECLIPA    HA5           -15.6884371697       31.1585466696       16.5753317170  LPSA21    1               0.0000000000
     22239       721  ECLIPA    OA5           -17.3199527270       31.4249313125       15.3480487946  LPSA21    1               0.0000000000
     22240       721  ECLIPA    CA1           -16.6569284902       31.0960282903       14.1156772603  LPSA21    1               0.0000000000
     22241       721  ECLIPA    HA1           -17.5139079558       30.9049972010       13.4275883672  LPSA21    1               0.0000000000
     22242       721  ECLIPA    OA1           -15.8443441475       29.9380710074       14.1831378524  LPSA21    1               0.0000000000
     22243       721  ECLIPA    OPA2          -15.7090864335       28.1924215057       16.0906600949  LPSA21    1               0.0000000000
     22244       721  ECLIPA    OPA3          -17.9617087015       28.5551183969       14.9448531107  LPSA21    1               0.0000000000
     22245       721  ECLIPA    OPA4          -16.0892192795       27.4481428238       13.7053826451  LPSA21    1               0.0000000000
     22246       721  ECLIPA    PA            -16.4463526317       28.4883516461       14.7522334966  LPSA21    1               0.0000000000
     22247       721  ECLIPA    CA3           -15.0646160358       32.9831782711       14.5272942764  LPSA21    1               0.0000000000
     22248       721  ECLIPA    HA3           -14.2055342007       32.3047269335       14.7398120315  LPSA21    1               0.0000000000
     22249       721  ECLIPA    OA3           -14.5601973342       34.3041071531       14.2015650819  LPSA21    1               0.0000000000
     22250       721  ECLIPA    C31           -15.3572069438       35.1284260209       13.4844621258  LPSA21    1               0.0000000000
     22251       721  ECLIPA    O31           -15.4073104091       35.1019655322       12.2712957873  LPSA21    1               0.0000000000
     22252       721  ECLIPA    C32           -15.4977086302       36.4521296980       14.2709568220  LPSA21    1               0.0000000000
     22253       721  ECLIPA    H32R          -14.9486474527       37.2268420617       13.6971651306  LPSA21    1               0.0000000000
     22254       721  ECLIPA    H32S          -15.0250651600       36.3286614141       15.2614058428  LPSA21    1               0.0000000000
     22255       721  ECLIPA    CA2           -16.0237046867       32.3495381097       13.5140168794  LPSA21    1               0.0000000000
     22256       721  ECLIPA    HA2           -16.8694585776       33.0561212031       13.3400278289  LPSA21    1               0.0000000000
     22257       721  ECLIPA    NA2           -15.3692174855       32.0694046038       12.2247238334  LPSA21    1               0.0000000000
     22258       721  ECLIPA    HNA2          -14.4687978951       32.4606031504       12.1180652539  LPSA21    1               0.0000000000
     22259       721  ECLIPA    C73           -24.2693119666       30.5633711690       14.3536923893  LPSA21    1               0.0000000000
     22260       721  ECLIPA    H73R          -24.7937248551       30.2197007340       15.2828643142  LPSA21    1               0.0000000000
     22261       721  ECLIPA    O73           -22.9205743240       30.1112390326       14.2682032043  LPSA21    1               0.0000000000
     22262       721  ECLIPA    C81           -22.5562641736       29.0276338478       14.9347274350  LPSA21    1               0.0000000000
     22263       721  ECLIPA    O81           -23.3114131198       28.2657875854       15.5230454887  LPSA21    1               0.0000000000
     22264       721  ECLIPA    C82           -21.2313913579       28.5007410660       14.3371867966  LPSA21    1               0.0000000000
     22265       721  ECLIPA    H82R          -20.9287228853       27.5809370089       14.8690538952  LPSA21    1               0.0000000000
     22266       721  ECLIPA    H82S          -20.4430167886       29.2549037963       14.5479734903  LPSA21    1               0.0000000000
     22267       721  ECLIPA    C83           -21.2850710757       28.2431528244       12.8120216847  LPSA21    1               0.0000000000
     22268       721  ECLIPA    H83R          -21.1502858873       29.2218135604       12.2928280918  LPSA21    1               0.0000000000
     22269       721  ECLIPA    H83S          -22.2830667778       27.8535800417       12.5338240867  LPSA21    1               0.0000000000
     22270       721  ECLIPA    C84           -20.1555180339       27.3356344299       12.2961195270  LPSA21    1               0.0000000000
     22271       721  ECLIPA    H84R          -20.3101430046       26.2852365614       12.5946164947  LPSA21    1               0.0000000000
     22272       721  ECLIPA    H84S          -19.2065422622       27.7177213571       12.7613169431  LPSA21    1               0.0000000000
     22273       721  ECLIPA    C85           -19.9637064911       27.4391524807       10.7745911374  LPSA21    1               0.0000000000
     22274       721  ECLIPA    H85R          -20.0422575206       28.5279928928       10.5494117336  LPSA21    1               0.0000000000
     22275       721  ECLIPA    H85S          -20.7959329563       26.9490685317       10.2291640720  LPSA21    1               0.0000000000
     22276       721  ECLIPA    C86           -18.5626218518       27.0025525498       10.2864881681  LPSA21    1               0.0000000000
     22277       721  ECLIPA    H86R          -18.5507486079       25.9326992640        9.9844150269  LPSA21    1               0.0000000000
     22278       721  ECLIPA    H86S          -17.8375468842       27.1037080153       11.1308950612  LPSA21    1               0.0000000000
     22279       721  ECLIPA    C87           -18.0124825751       27.9014458273        9.1599205590  LPSA21    1               0.0000000000
     22280       721  ECLIPA    H87R          -17.0448146606       27.4905938894        8.7969306720  LPSA21    1               0.0000000000
     22281       721  ECLIPA    H87S          -17.7884733427       28.9108671937        9.5768823065  LPSA21    1               0.0000000000
     22282       721  ECLIPA    C88           -19.0145116528       28.0969471048        8.0204497867  LPSA21    1               0.0000000000
     22283       721  ECLIPA    H88R          -19.7958965695       28.8127824226        8.3500144179  LPSA21    1               0.0000000000
     22284       721  ECLIPA    H88S          -19.5578046126       27.1357603866        7.8791147534  LPSA21    1               0.0000000000
     22285       721  ECLIPA    C89           -18.3752035119       28.6072506317        6.7151949990  LPSA21    1               0.0000000000
     22286       721  ECLIPA    H89R          -17.3909088294       29.0939466661        6.8945959172  LPSA21    1               0.0000000000
     22287       721  ECLIPA    H89S          -19.0171930111       29.3901687198        6.2582628222  LPSA21    1               0.0000000000
     22288       721  ECLIPA    C810          -18.2580182226       27.4693842238        5.6971965573  LPSA21    1               0.0000000000
     22289       721  ECLIPA    H810R         -19.0786321776       26.7579799025        5.9308342204  LPSA21    1               0.0000000000
     22290       721  ECLIPA    H810S         -17.2871002014       26.9528520368        5.8652322560  LPSA21    1               0.0000000000
     22291       721  ECLIPA    C811          -18.3705228761       27.9263243971        4.2345605324  LPSA21    1               0.0000000000
     22292       721  ECLIPA    H811R         -17.9281295366       27.1749428447        3.5396004867  LPSA21    1               0.0000000000
     22293       721  ECLIPA    H811S         -17.7975144599       28.8765242487        4.1541392785  LPSA21    1               0.0000000000
     22294       721  ECLIPA    C812          -19.7919801862       28.2363346438        3.7371896272  LPSA21    1               0.0000000000
     22295       721  ECLIPA    H812R         -19.6797602359       28.6750514061        2.7150910878  LPSA21    1               0.0000000000
     22296       721  ECLIPA    H812S         -20.2612777337       28.9838680120        4.4084485629  LPSA21    1               0.0000000000
     22297       721  ECLIPA    C813          -20.7488661785       27.0462339931        3.6371564980  LPSA21    1               0.0000000000
     22298       721  ECLIPA    H813R         -20.3113379542       26.3119819275        2.9298969575  LPSA21    1               0.0000000000
     22299       721  ECLIPA    H813S         -20.8708565079       26.5420112321        4.6244019815  LPSA21    1               0.0000000000
     22300       721  ECLIPA    C814          -22.1316182601       27.4530775100        3.1303249827  LPSA21    1               0.0000000000
     22301       721  ECLIPA    H814R         -22.0713073559       28.0878279853        2.2180209968  LPSA21    1               0.0000000000
     22302       721  ECLIPA    H814S         -22.6682133885       28.0199058192        3.9200859213  LPSA21    1               0.0000000000
     22303       721  ECLIPA    H814T         -22.7294986378       26.5524721221        2.8885027047  LPSA21    1               0.0000000000
     22304       721  ECLIPA    C74           -25.0054074288       29.9582005169       13.1258089896  LPSA21    1               0.0000000000
     22305       721  ECLIPA    H74R          -26.0722481309       30.2485638883       13.0431275625  LPSA21    1               0.0000000000
     22306       721  ECLIPA    H74S          -25.0004060123       28.8571609525       13.3198270247  LPSA21    1               0.0000000000
     22307       721  ECLIPA    C75           -24.2735907206       30.1670972917       11.7779448163  LPSA21    1               0.0000000000
     22308       721  ECLIPA    H75R          -24.4038192512       29.2327279572       11.1899840567  LPSA21    1               0.0000000000
     22309       721  ECLIPA    H75S          -23.1834594071       30.2758848966       11.9704001443  LPSA21    1               0.0000000000
     22310       721  ECLIPA    C76           -24.7384698040       31.3728310619       10.9462416711  LPSA21    1               0.0000000000
     22311       721  ECLIPA    H76R          -24.2977499801       32.2999830211       11.3764539112  LPSA21    1               0.0000000000
     22312       721  ECLIPA    H76S          -25.8458931900       31.4830960880       10.9889097477  LPSA21    1               0.0000000000
     22313       721  ECLIPA    C77           -24.3538420694       31.3096761114        9.4547484363  LPSA21    1               0.0000000000
     22314       721  ECLIPA    H77R          -24.8840215028       30.4537478870        8.9900044982  LPSA21    1               0.0000000000
     22315       721  ECLIPA    H77S          -23.2797625784       31.1097577618        9.3122322868  LPSA21    1               0.0000000000
     22316       721  ECLIPA    C78           -24.6541573444       32.6706864422        8.8014732091  LPSA21    1               0.0000000000
     22317       721  ECLIPA    H78R          -25.6969130039       32.9502991776        9.0666821623  LPSA21    1               0.0000000000
     22318       721  ECLIPA    H78S          -23.9960895398       33.4031642228        9.3212886239  LPSA21    1               0.0000000000
     22319       721  ECLIPA    C79           -24.3570009724       32.8357083778        7.2931781280  LPSA21    1               0.0000000000
     22320       721  ECLIPA    H79R          -23.3357638072       33.2658901371        7.1723199699  LPSA21    1               0.0000000000
     22321       721  ECLIPA    H79S          -25.0689186810       33.5565791300        6.8322187811  LPSA21    1               0.0000000000
     22322       721  ECLIPA    C710          -24.4826063357       31.5697352712        6.4541086985  LPSA21    1               0.0000000000
     22323       721  ECLIPA    H710R         -23.8421325894       30.7643019690        6.8682465099  LPSA21    1               0.0000000000
     22324       721  ECLIPA    H710S         -25.5439797390       31.2385805973        6.4867235312  LPSA21    1               0.0000000000
     22325       721  ECLIPA    C711          -24.0801776137       31.7583631296        4.9933915862  LPSA21    1               0.0000000000
     22326       721  ECLIPA    H711R         -24.7332225034       32.5443782292        4.5438478401  LPSA21    1               0.0000000000
     22327       721  ECLIPA    H711S         -23.0197223230       32.0907092649        4.9249731513  LPSA21    1               0.0000000000
     22328       721  ECLIPA    C712          -24.1976056040       30.4024401214        4.2809176931  LPSA21    1               0.0000000000
     22329       721  ECLIPA    H712R         -25.2861522329       30.1428922911        4.2577362048  LPSA21    1               0.0000000000
     22330       721  ECLIPA    H712S         -23.6778630425       29.6513637161        4.8943420666  LPSA21    1               0.0000000000
     22331       721  ECLIPA    C713          -23.5405912163       30.3456221458        2.9038385093  LPSA21    1               0.0000000000
     22332       721  ECLIPA    H713R         -22.4632708994       30.6190323361        2.9107560502  LPSA21    1               0.0000000000
     22333       721  ECLIPA    H713S         -23.7668004803       29.4012584603        2.3465606047  LPSA21    1               0.0000000000
     22334       721  ECLIPA    C714          -24.2544943183       31.3224206911        2.1127295837  LPSA21    1               0.0000000000
     22335       721  ECLIPA    H714R         -25.2626021588       31.0699708651        2.3769316163  LPSA21    1               0.0000000000
     22336       721  ECLIPA    H714S         -24.2915416612       32.3057316441        2.5806673480  LPSA21    1               0.0000000000
     22337       721  ECLIPA    H714T         -23.9906657487       31.3417210154        1.0257777283  LPSA21    1               0.0000000000
     22338       721  ECLIPA    C51           -20.2525669197       32.9188527016       14.2312638370  LPSA21    1               0.0000000000
     22339       721  ECLIPA    O51           -20.2862889637       31.7125612237       14.0736238396  LPSA21    1               0.0000000000
     22340       721  ECLIPA    C52           -20.4301586748       33.8555774750       13.0573385825  LPSA21    1               0.0000000000
     22341       721  ECLIPA    H52R          -21.5078904537       34.1007343240       12.9372952712  LPSA21    1               0.0000000000
     22342       721  ECLIPA    H52S          -19.8803588806       34.7887229237       13.2490067452  LPSA21    1               0.0000000000
     22343       721  ECLIPA    C53           -19.9059835675       33.2002392300       11.7624171044  LPSA21    1               0.0000000000
     22344       721  ECLIPA    H53R          -19.0196886255       32.5553691638       11.9846935569  LPSA21    1               0.0000000000
     22345       721  ECLIPA    O53           -19.6139321981       34.2801018192       10.8551610509  LPSA21    1               0.0000000000
     22346       721  ECLIPA    C61           -18.3422663337       34.4979400461       10.5294425579  LPSA21    1               0.0000000000
     22347       721  ECLIPA    O61           -17.3953515032       33.8237999238       10.8576341188  LPSA21    1               0.0000000000
     22348       721  ECLIPA    C62           -18.2496279563       35.7104176640        9.5934887963  LPSA21    1               0.0000000000
     22349       721  ECLIPA    H62R          -18.2575143001       36.6253112301       10.2152359812  LPSA21    1               0.0000000000
     22350       721  ECLIPA    H62S          -19.1855692113       35.7108214472        9.0037991798  LPSA21    1               0.0000000000
     22351       721  ECLIPA    C63           -16.9666269900       35.6639138625        8.7069347972  LPSA21    1               0.0000000000
     22352       721  ECLIPA    H63R          -16.8803701140       34.6417021241        8.2758121792  LPSA21    1               0.0000000000
     22353       721  ECLIPA    H63S          -16.0619517499       35.8518079227        9.3308650318  LPSA21    1               0.0000000000
     22354       721  ECLIPA    C64           -16.9418612952       36.6366173659        7.5115544353  LPSA21    1               0.0000000000
     22355       721  ECLIPA    H64R          -15.9584347933       36.5687355610        6.9888645578  LPSA21    1               0.0000000000
     22356       721  ECLIPA    H64S          -17.0608259062       37.6614938648        7.9240303314  LPSA21    1               0.0000000000
     22357       721  ECLIPA    C65           -18.0855314290       36.3213328712        6.5439979413  LPSA21    1               0.0000000000
     22358       721  ECLIPA    H65R          -19.0036430742       36.4583431451        7.1499717721  LPSA21    1               0.0000000000
     22359       721  ECLIPA    H65S          -18.0349015864       35.2562022585        6.2245077908  LPSA21    1               0.0000000000
     22360       721  ECLIPA    C66           -18.2603111349       37.2079476592        5.3033504089  LPSA21    1               0.0000000000
     22361       721  ECLIPA    H66R          -18.3531309745       38.2757314833        5.5747458820  LPSA21    1               0.0000000000
     22362       721  ECLIPA    H66S          -19.1991291156       36.8544121254        4.8101341256  LPSA21    1               0.0000000000
     22363       721  ECLIPA    C67           -17.1979064078       37.0618387120        4.2453087682  LPSA21    1               0.0000000000
     22364       721  ECLIPA    H67R          -16.1731198100       37.2581712596        4.6452609794  LPSA21    1               0.0000000000
     22365       721  ECLIPA    H67S          -17.3471146720       37.7942373763        3.4047085218  LPSA21    1               0.0000000000
     22366       721  ECLIPA    C68           -17.1377482479       35.6078075134        3.7564373630  LPSA21    1               0.0000000000
     22367       721  ECLIPA    H68R          -18.0810296999       35.2931064494        3.2319636106  LPSA21    1               0.0000000000
     22368       721  ECLIPA    H68S          -16.8069523687       34.9092971600        4.5155806290  LPSA21    1               0.0000000000
     22369       721  ECLIPA    C69           -15.9313368436       35.5783186174        2.8461007034  LPSA21    1               0.0000000000
     22370       721  ECLIPA    H69R          -15.4942220963       36.5443991530        3.0045086005  LPSA21    1               0.0000000000
     22371       721  ECLIPA    H69S          -16.6697563924       36.0297203586        2.1177467692  LPSA21    1               0.0000000000
     22372       721  ECLIPA    C610          -14.9005629205       34.2000659852        2.3753954355  LPSA21    1               0.0000000000
     22373       721  ECLIPA    H610R         -15.6167922610       33.4353780121        2.7479488125  LPSA21    1               0.0000000000
     22374       721  ECLIPA    H610S         -14.1393959999       34.1949365679        3.1509463239  LPSA21    1               0.0000000000
     22375       721  ECLIPA    C611          -14.3827703246       33.6886330108        0.6101027315  LPSA21    1               0.0000000000
     22376       721  ECLIPA    H611R         -13.7648134173       34.5801150191        0.4330165549  LPSA21    1               0.0000000000
     22377       721  ECLIPA    H611S         -13.5784681745       33.0313439073        0.4010803387  LPSA21    1               0.0000000000
     22378       721  ECLIPA    C612          -15.3586762907       33.1423178233       -0.9238128623  LPSA21    1               0.0000000000
     22379       721  ECLIPA    H612R         -16.3666123692       32.7109425762       -0.9433273056  LPSA21    1               0.0000000000
     22380       721  ECLIPA    H612S         -16.3179932443       33.7497211361       -1.2399983296  LPSA21    1               0.0000000000
     22381       721  ECLIPA    H612T         -15.5779235954       33.8041957202       -1.6675732393  LPSA21    1               0.0000000000
     22382       721  ECLIPA    C54           -21.0434359715       32.3232971184       11.1709428654  LPSA21    1               0.0000000000
     22383       721  ECLIPA    H54R          -21.8663240256       33.0121143109       10.8815866867  LPSA21    1               0.0000000000
     22384       721  ECLIPA    H54S          -21.4227625770       31.6625105781       11.9779468792  LPSA21    1               0.0000000000
     22385       721  ECLIPA    C55           -20.6822821376       31.4336727418        9.9656883003  LPSA21    1               0.0000000000
     22386       721  ECLIPA    H55R          -21.4648148077       30.6573672455        9.8238538629  LPSA21    1               0.0000000000
     22387       721  ECLIPA    H55S          -19.7471257792       30.8801274074       10.2016180515  LPSA21    1               0.0000000000
     22388       721  ECLIPA    C56           -20.6084700263       32.2862428895        8.6945768979  LPSA21    1               0.0000000000
     22389       721  ECLIPA    H56R          -19.8780644880       33.0999012101        8.8613817125  LPSA21    1               0.0000000000
     22390       721  ECLIPA    H56S          -21.5971830233       32.7650652483        8.5060094186  LPSA21    1               0.0000000000
     22391       721  ECLIPA    C57           -20.1412530681       31.6064411883        7.4158188781  LPSA21    1               0.0000000000
     22392       721  ECLIPA    H57R          -20.7421455360       30.7009067337        7.1836015401  LPSA21    1               0.0000000000
     22393       721  ECLIPA    H57S          -19.0862992072       31.2742557446        7.5473813206  LPSA21    1               0.0000000000
     22394       721  ECLIPA    C58           -20.1826636685       32.6184165313        6.2641410190  LPSA21    1               0.0000000000
     22395       721  ECLIPA    H58R          -21.1527925433       33.1611179174        6.2147202630  LPSA21    1               0.0000000000
     22396       721  ECLIPA    H58S          -19.4190204352       33.4022731120        6.4720360654  LPSA21    1               0.0000000000
     22397       721  ECLIPA    C59           -19.9085597602       31.9206314612        4.9377115042  LPSA21    1               0.0000000000
     22398       721  ECLIPA    H59R          -20.6980897525       31.1468822833        4.7334825455  LPSA21    1               0.0000000000
     22399       721  ECLIPA    H59S          -18.9281438558       31.4240197084        5.0057430342  LPSA21    1               0.0000000000
     22400       721  ECLIPA    C510          -19.9681986081       32.8618667162        3.7534381596  LPSA21    1               0.0000000000
     22401       721  ECLIPA    H510R         -19.5297578082       33.8678415573        3.8646669931  LPSA21    1               0.0000000000
     22402       721  ECLIPA    H510S         -21.0392279775       32.9997906248        3.8325019201  LPSA21    1               0.0000000000
     22403       721  ECLIPA    C511          -19.4386842063       32.2279435422        2.4790857726  LPSA21    1               0.0000000000
     22404       721  ECLIPA    H511R         -18.3479289591       32.2890513191        2.4349448708  LPSA21    1               0.0000000000
     22405       721  ECLIPA    H511S         -19.8400741725       31.1922464804        2.2850000238  LPSA21    1               0.0000000000
     22406       721  ECLIPA    C512          -19.6422740243       33.0073165412        1.2325571951  LPSA21    1               0.0000000000
     22407       721  ECLIPA    H512R         -19.5929574704       32.3240105069        0.3602515769  LPSA21    1               0.0000000000
     22408       721  ECLIPA    H512S         -20.6684404932       32.9029904623        1.2643527183  LPSA21    1               0.0000000000
     22409       721  ECLIPA    C513          -19.4121644577       34.6239031659        1.0650422626  LPSA21    1               0.0000000000
     22410       721  ECLIPA    H513R         -18.7890742135       34.3556239501        0.2693488521  LPSA21    1               0.0000000000
     22411       721  ECLIPA    H513S         -19.4398586059       35.3244836875        1.8413370988  LPSA21    1               0.0000000000
     22412       721  ECLIPA    C514          -19.2406035012       35.6545931686       -0.1946476371  LPSA21    1               0.0000000000
     22413       721  ECLIPA    H514R         -20.3176730797       35.8975914585       -0.0416958693  LPSA21    1               0.0000000000
     22414       721  ECLIPA    H514S         -19.2297883275       36.6664946502       -0.4752908325  LPSA21    1               0.0000000000
     22415       721  ECLIPA    H514T         -19.0078245795       35.1670107033       -1.2164934266  LPSA21    1               0.0000000000
     22416       721  ECLIPA    C33           -16.9499022982       36.9672323512       14.4577007193  LPSA21    1               0.0000000000
     22417       721  ECLIPA    H33R          -16.9095051154       38.0077282710       14.8583577125  LPSA21    1               0.0000000000
     22418       721  ECLIPA    O33           -17.5700016919       36.1634705063       15.4405515275  LPSA21    1               0.0000000000
     22419       721  ECLIPA    HO33          -17.3854189514       36.3891902843       16.3459265728  LPSA21    1               0.0000000000
     22420       721  ECLIPA    C34           -17.8462762379       36.9960343287       13.1994479931  LPSA21    1               0.0000000000
     22421       721  ECLIPA    H34R          -17.9496547551       35.9596464658       12.8154223088  LPSA21    1               0.0000000000
     22422       721  ECLIPA    H34S          -17.3437940603       37.5912748428       12.4069182317  LPSA21    1               0.0000000000
     22423       721  ECLIPA    C35           -19.2583771064       37.5813566969       13.4389374476  LPSA21    1               0.0000000000
     22424       721  ECLIPA    H35R          -19.2003872844       38.6428673406       13.7496139452  LPSA21    1               0.0000000000
     22425       721  ECLIPA    H35S          -19.7478277051       37.0077305511       14.2617405390  LPSA21    1               0.0000000000
     22426       721  ECLIPA    C36           -20.1452039903       37.4792539635       12.2028847107  LPSA21    1               0.0000000000
     22427       721  ECLIPA    H36R          -19.7932011755       36.5915772457       11.6564735701  LPSA21    1               0.0000000000
     22428       721  ECLIPA    H36S          -20.0578078344       38.3760968126       11.5350132154  LPSA21    1               0.0000000000
     22429       721  ECLIPA    C37           -21.5921873354       37.1504274513       12.5454978730  LPSA21    1               0.0000000000
     22430       721  ECLIPA    H37R          -22.0158297983       38.1192674400       12.7578662667  LPSA21    1               0.0000000000
     22431       721  ECLIPA    H37S          -21.7369921291       36.6749869188       13.5298446896  LPSA21    1               0.0000000000
     22432       721  ECLIPA    C38           -22.3453605709       36.3640333842       11.4575127991  LPSA21    1               0.0000000000
     22433       721  ECLIPA    H38R          -22.2337174546       35.2777295336       11.4921640093  LPSA21    1               0.0000000000
     22434       721  ECLIPA    H38S          -23.4335614506       36.5162066418       11.6926338946  LPSA21    1               0.0000000000
     22435       721  ECLIPA    C39           -21.8914160434       36.6859220873       10.0083530093  LPSA21    1               0.0000000000
     22436       721  ECLIPA    H39R          -20.8303848964       36.8249571657        9.8229361902  LPSA21    1               0.0000000000
     22437       721  ECLIPA    H39S          -22.0511142250       37.6993167515        9.7097474438  LPSA21    1               0.0000000000
     22438       721  ECLIPA    C310          -22.7048528209       36.0089687057        8.9291275798  LPSA21    1               0.0000000000
     22439       721  ECLIPA    H310R         -23.7692796345       36.1775250699        9.2129680125  LPSA21    1               0.0000000000
     22440       721  ECLIPA    H310S         -22.6401870665       34.9350946726        8.9348477508  LPSA21    1               0.0000000000
     22441       721  ECLIPA    C311          -22.1648280515       36.4711422131        7.5715971339  LPSA21    1               0.0000000000
     22442       721  ECLIPA    H311R         -21.7658697822       37.4836462497        7.6876631469  LPSA21    1               0.0000000000
     22443       721  ECLIPA    H311S         -21.2279013063       35.9504938948        7.3372802628  LPSA21    1               0.0000000000
     22444       721  ECLIPA    C312          -23.0619241095       36.2488005089        6.3637460439  LPSA21    1               0.0000000000
     22445       721  ECLIPA    H312R         -23.7279157290       35.3847041301        6.4935619384  LPSA21    1               0.0000000000
     22446       721  ECLIPA    H312S         -23.8096189075       37.0381254916        6.2857964302  LPSA21    1               0.0000000000
     22447       721  ECLIPA    C313          -22.2301158768       36.1757648890        5.0884823476  LPSA21    1               0.0000000000
     22448       721  ECLIPA    H313R         -21.8716929633       37.1919572253        4.7822127657  LPSA21    1               0.0000000000
     22449       721  ECLIPA    H313S         -21.3432853213       35.5344266212        5.2019689787  LPSA21    1               0.0000000000
     22450       721  ECLIPA    C314          -23.0466219365       35.6406718983        3.9825117894  LPSA21    1               0.0000000000
     22451       721  ECLIPA    H314R         -23.9886415273       36.1472522454        3.9137931414  LPSA21    1               0.0000000000
     22452       721  ECLIPA    H314S         -22.5020075369       35.7758677239        3.0124584986  LPSA21    1               0.0000000000
     22453       721  ECLIPA    H314T         -23.4590241234       34.6210126884        4.1196414559  LPSA21    1               0.0000000000
     22454       721  ECLIPA    C11           -15.7868072437       31.2194233355       11.2548324930  LPSA21    1               0.0000000000
     22455       721  ECLIPA    O11           -16.9359652318       30.8297571940       11.0964409540  LPSA21    1               0.0000000000
     22456       721  ECLIPA    C12           -14.6947887732       30.7510770858       10.3268316882  LPSA21    1               0.0000000000
     22457       721  ECLIPA    H12R          -14.4496888336       29.6955501028       10.5520528039  LPSA21    1               0.0000000000
     22458       721  ECLIPA    H12S          -13.8010886186       31.3829901705       10.5121139713  LPSA21    1               0.0000000000
     22459       721  ECLIPA    C13           -15.0719641631       30.8910122571        8.8540071832  LPSA21    1               0.0000000000
     22460       721  ECLIPA    H13R          -16.1154797785       30.5559216853        8.6431129227  LPSA21    1               0.0000000000
     22461       721  ECLIPA    O13           -14.1852753935       30.0532889363        8.1206561073  LPSA21    1               0.0000000000
     22462       721  ECLIPA    HO13          -14.5368242914       29.7210649391        7.2901610782  LPSA21    1               0.0000000000
     22463       721  ECLIPA    C14           -14.9178783940       32.3673474345        8.4410353577  LPSA21    1               0.0000000000
     22464       721  ECLIPA    H14R          -14.0449008017       32.8231543164        8.9600421427  LPSA21    1               0.0000000000
     22465       721  ECLIPA    H14S          -15.8429478997       32.8826759485        8.7785587820  LPSA21    1               0.0000000000
     22466       721  ECLIPA    C15           -14.7727612283       32.6341261923        6.9509236794  LPSA21    1               0.0000000000
     22467       721  ECLIPA    H15R          -13.9051251438       32.0514075709        6.5690469858  LPSA21    1               0.0000000000
     22468       721  ECLIPA    H15S          -14.5202982486       33.7118867064        6.8256090047  LPSA21    1               0.0000000000
     22469       721  ECLIPA    C16           -16.0591544886       32.2777267984        6.2004108026  LPSA21    1               0.0000000000
     22470       721  ECLIPA    H16R          -16.7936878321       33.1067772249        6.2784645413  LPSA21    1               0.0000000000
     22471       721  ECLIPA    H16S          -16.5363418007       31.3937321798        6.6651092714  LPSA21    1               0.0000000000
     22472       721  ECLIPA    C17           -15.7615445947       32.0079392668        4.7368312266  LPSA21    1               0.0000000000
     22473       721  ECLIPA    H17R          -15.0419103371       32.8081030301        4.4682741171  LPSA21    1               0.0000000000
     22474       721  ECLIPA    H17S          -16.6663839379       32.0830010884        4.0952243031  LPSA21    1               0.0000000000
     22475       721  ECLIPA    C18           -15.0828859576       30.6678634873        4.4886759802  LPSA21    1               0.0000000000
     22476       721  ECLIPA    H18R          -14.1656036890       30.6488996890        5.1058689419  LPSA21    1               0.0000000000
     22477       721  ECLIPA    H18S          -15.7741456541       29.8511506819        4.7944253843  LPSA21    1               0.0000000000
     22478       721  ECLIPA    C19           -14.6856194918       30.4615425175        3.0397728107  LPSA21    1               0.0000000000
     22479       721  ECLIPA    H19R          -14.0710203227       29.5369969674        2.9358989524  LPSA21    1               0.0000000000
     22480       721  ECLIPA    H19S          -14.0817993767       31.3195477052        2.6567518555  LPSA21    1               0.0000000000
     22481       721  ECLIPA    C110          -15.9255888578       30.3526395665        2.1853920456  LPSA21    1               0.0000000000
     22482       721  ECLIPA    H110R         -16.6116164353       29.5216680322        2.4854014008  LPSA21    1               0.0000000000
     22483       721  ECLIPA    H110S         -16.4667881949       31.3063226445        2.1621459886  LPSA21    1               0.0000000000
     22484       721  ECLIPA    C111          -15.5022045453       30.0838253681        0.8056998333  LPSA21    1               0.0000000000
     22485       721  ECLIPA    H111R         -14.6350302108       30.6757577762        0.4330040168  LPSA21    1               0.0000000000
     22486       721  ECLIPA    H111S         -15.1435331320       29.0460472198        1.0224708280  LPSA21    1               0.0000000000
     22487       721  ECLIPA    C112          -16.6774656283       30.1451155349       -0.1578776592  LPSA21    1               0.0000000000
     22488       721  ECLIPA    H112R         -17.3340346289       29.3074289195        0.1452254664  LPSA21    1               0.0000000000
     22489       721  ECLIPA    H112S         -17.3075778028       31.0291076564       -0.0398848263  LPSA21    1               0.0000000000
     22490       721  ECLIPA    C113          -16.2582058284       30.3982475244       -1.5866075862  LPSA21    1               0.0000000000
     22491       721  ECLIPA    H113R         -15.4774893469       31.1218083641       -1.8087966608  LPSA21    1               0.0000000000
     22492       721  ECLIPA    H113S         -15.3688004274       29.9047798555       -1.8238517801  LPSA21    1               0.0000000000
     22493       721  ECLIPA    C114          -17.2581879473       30.7692163142       -2.6442984824  LPSA21    1               0.0000000000
     22494       721  ECLIPA    H114R         -17.4387786156       31.8362276635       -2.3671840710  LPSA21    1               0.0000000000
     22495       721  ECLIPA    H114S         -18.2132771414       30.2999817980       -2.8210872260  LPSA21    1               0.0000000000
     22496       721  ECLIPA    H114T         -16.8534777946       30.4229909900       -3.6179465211  LPSA21    1               0.0000000000
     22497       722  AKDO      C1            -21.3449024792       33.8247540523       22.4347607341  LPSA21    2               0.0000000000
     22498       722  AKDO      O11           -22.5995575074       33.8137154146       22.4076405749  LPSA21    2               0.0000000000
     22499       722  AKDO      O12           -20.5830894096       34.7651018140       22.0648069960  LPSA21    2               0.0000000000
     22500       722  AKDO      C2            -20.6564911000       32.4980032890       22.8736126889  LPSA21    2               0.0000000000
     22501       722  AKDO      C6            -21.0652968533       30.3375938792       23.8562035769  LPSA21    2               0.0000000000
     22502       722  AKDO      H6            -20.5596417028       29.9247891280       22.9446240271  LPSA21    2               0.0000000000
     22503       722  AKDO      O6            -21.6293012863       31.5919715661       23.4583294448  LPSA21    2               0.0000000000
     22504       722  AKDO      C3            -19.5678459391       32.7201828012       23.9276743955  LPSA21    2               0.0000000000
     22505       722  AKDO      H31           -19.9859645744       33.2907093475       24.7868337682  LPSA21    2               0.0000000000
     22506       722  AKDO      H32           -18.7669906090       33.3325536018       23.4543949232  LPSA21    2               0.0000000000
     22507       722  AKDO      C4            -18.9546813859       31.4300849782       24.3730381237  LPSA21    2               0.0000000000
     22508       722  AKDO      H4            -18.5613403807       30.8895190586       23.4809237670  LPSA21    2               0.0000000000
     22509       722  AKDO      O4            -17.9430572331       31.6294174310       25.3708493842  LPSA21    2               0.0000000000
     22510       722  AKDO      C5            -20.0043842458       30.5189237307       24.9618845508  LPSA21    2               0.0000000000
     22511       722  AKDO      H5            -19.5300199959       29.5137486490       25.0866205894  LPSA21    2               0.0000000000
     22512       722  AKDO      O5            -20.4110986041       31.0640596068       26.2591441853  LPSA21    2               0.0000000000
     22513       722  AKDO      C7            -22.1645148387       29.3412618084       24.1658664030  LPSA21    2               0.0000000000
     22514       722  AKDO      H7            -22.7047176691       29.6628067920       25.0782014104  LPSA21    2               0.0000000000
     22515       722  AKDO      O7            -21.5737217261       28.0534058499       24.3748061271  LPSA21    2               0.0000000000
     22516       722  AKDO      HO7           -21.5857103103       27.6426928246       23.5136064559  LPSA21    2               0.0000000000
     22517       722  AKDO      C8            -23.1665418135       29.2665876832       23.0279880088  LPSA21    2               0.0000000000
     22518       722  AKDO      H81           -23.5575021468       30.2992994447       22.8513457259  LPSA21    2               0.0000000000
     22519       722  AKDO      H82           -22.6413467326       28.9465096636       22.0955995910  LPSA21    2               0.0000000000
     22520       722  AKDO      O8            -24.2830272139       28.4001241872       23.3334592965  LPSA21    2               0.0000000000
     22521       722  AKDO      HO8           -25.0199669735       28.8033112087       22.8528940717  LPSA21    2               0.0000000000
     22522       723  AKDO      C1            -16.1326215351       31.1674435881       23.8058444563  LPSA21    3               1.0000000000
     22523       723  AKDO      O11           -16.2094783763       31.7031141219       22.6696655842  LPSA21    3               1.0000000000
     22524       723  AKDO      O12           -15.8666103841       29.9610463079       24.0817417333  LPSA21    3               1.0000000000
     22525       723  AKDO      C2            -16.6331818288       32.0218501858       25.0151120925  LPSA21    3               1.0000000000
     22526       723  AKDO      C6            -17.0471906779       34.2830972659       25.7899260943  LPSA21    3               1.0000000000
     22527       723  AKDO      H6            -18.1227420254       34.0430015882       25.9764839655  LPSA21    3               1.0000000000
     22528       723  AKDO      O6            -16.5424793079       33.4391949938       24.7295586137  LPSA21    3               1.0000000000
     22529       723  AKDO      C3            -15.8530545127       31.7748372546       26.3321161896  LPSA21    3               1.0000000000
     22530       723  AKDO      H31           -14.7784532743       32.0136611693       26.1552465438  LPSA21    3               1.0000000000
     22531       723  AKDO      H32           -15.8906892159       30.6983859042       26.5951426370  LPSA21    3               1.0000000000
     22532       723  AKDO      C4            -16.4259555660       32.6269517893       27.4363516638  LPSA21    3               1.0000000000
     22533       723  AKDO      H4            -17.5251368901       32.4358811551       27.4823639991  LPSA21    3               1.0000000000
     22534       723  AKDO      O4            -15.8925366142       32.3757510631       28.7310976121  LPSA21    3               1.0000000000
     22535       723  AKDO      HO4           -16.6126954656       32.1108019011       29.3281908762  LPSA21    3               1.0000000000
     22536       723  AKDO      C5            -16.2483941569       34.0615941588       27.0562171299  LPSA21    3               1.0000000000
     22537       723  AKDO      H5            -16.6556471542       34.6843043837       27.8843322027  LPSA21    3               1.0000000000
     22538       723  AKDO      O5            -14.8745939599       34.4033128774       26.8792173029  LPSA21    3               1.0000000000
     22539       723  AKDO      HO5           -14.5500968078       33.8249759829       26.1765543927  LPSA21    3               1.0000000000
     22540       723  AKDO      C7            -16.9868953646       35.7183097480       25.3534938758  LPSA21    3               1.0000000000
     22541       723  AKDO      H7            -15.9207843872       35.9782958977       25.1300985354  LPSA21    3               1.0000000000
     22542       723  AKDO      O7            -17.4486264855       36.5783823746       26.4082563133  LPSA21    3               1.0000000000
     22543       723  AKDO      HO7           -17.2624647365       37.4535288388       26.0783521811  LPSA21    3               1.0000000000
     22544       723  AKDO      C8            -17.8304221819       35.9007500272       24.1123459160  LPSA21    3               1.0000000000
     22545       723  AKDO      H81           -17.5063144679       35.1781409542       23.3254268907  LPSA21    3               1.0000000000
     22546       723  AKDO      H82           -18.9031656353       35.7019161588       24.3191383010  LPSA21    3               1.0000000000
     22547       723  AKDO      O8            -17.6323464951       37.2271860863       23.6115047144  LPSA21    3               1.0000000000
     22548       723  AKDO      HO8           -16.7633848523       37.1177519077       23.2515258253  LPSA21    3               1.0000000000
     22549       724  AHEP      C1            -20.8088650687       30.1315835838       27.2530167048  LPSA21    4               2.0000000000
     22550       724  AHEP      H1            -21.8099849025       29.8049480367       26.9105422903  LPSA21    4               2.0000000000
     22551       724  AHEP      C5            -18.7446116745       29.1193011665       28.0001724191  LPSA21    4               2.0000000000
     22552       724  AHEP      H5            -18.2286939413       29.9806506435       27.5145521768  LPSA21    4               2.0000000000
     22553       724  AHEP      O5            -20.0058439944       28.9436213517       27.3117514709  LPSA21    4               2.0000000000
     22554       724  AHEP      C2            -21.0523937838       30.5931664814       28.7131043084  LPSA21    4               2.0000000000
     22555       724  AHEP      H2            -21.6063608967       31.5567539998       28.6782743079  LPSA21    4               2.0000000000
     22556       724  AHEP      O2            -21.9077500651       29.6685243164       29.3915369307  LPSA21    4               2.0000000000
     22557       724  AHEP      HO2           -22.5511848467       30.1456560858       29.9047181717  LPSA21    4               2.0000000000
     22558       724  AHEP      C3            -19.7692374352       30.8283220012       29.4980972280  LPSA21    4               2.0000000000
     22559       724  AHEP      H3            -19.1748205457       31.6772710520       29.0936429149  LPSA21    4               2.0000000000
     22560       724  AHEP      O3            -20.0875727580       31.0879485230       30.8847692125  LPSA21    4               2.0000000000
     22561       724  AHEP      C4            -18.9766490501       29.5376906256       29.4594149341  LPSA21    4               2.0000000000
     22562       724  AHEP      H4            -19.5078417932       28.7049789094       29.9772668465  LPSA21    4               2.0000000000
     22563       724  AHEP      O4            -17.7197138202       29.8439986622       30.0639531418  LPSA21    4               2.0000000000
     22564       724  AHEP      P4            -17.2421039838       29.1341250858       31.5029266822  LPSA21    4               2.0000000000
     22565       724  AHEP      OP42          -16.3184050027       30.1873433041       32.1354832558  LPSA21    4               2.0000000000
     22566       724  AHEP      OP43          -16.5101124734       27.8637990653       31.0518331780  LPSA21    4               2.0000000000
     22567       724  AHEP      OP44          -18.5048249139       28.8089755446       32.2978638158  LPSA21    4               2.0000000000
     22568       724  AHEP      C6            -17.8901876279       27.8361843523       27.8066825040  LPSA21    4               2.0000000000
     22569       724  AHEP      H6            -16.8490612001       28.1329465755       28.0943729044  LPSA21    4               2.0000000000
     22570       724  AHEP      O6            -18.2486963412       26.7204520021       28.6567066395  LPSA21    4               2.0000000000
     22571       724  AHEP      HO6           -17.5446588489       26.5835786469       29.3169711783  LPSA21    4               2.0000000000
     22572       724  AHEP      C7            -17.8446846232       27.3288931804       26.3422804602  LPSA21    4               2.0000000000
     22573       724  AHEP      H71           -17.0274040268       26.5891881520       26.1983207864  LPSA21    4               2.0000000000
     22574       724  AHEP      H72           -17.6680987917       28.1893679152       25.6602208707  LPSA21    4               2.0000000000
     22575       724  AHEP      O7            -19.0196335478       26.6739333640       25.8529649297  LPSA21    4               2.0000000000
     22576       724  AHEP      HO7           -19.0102544610       25.8314756621       26.3054539207  LPSA21    4               2.0000000000
     22577       725  AHEP      C1            -19.6598556965       32.2974828813       31.4624433197  LPSA21    5               3.0000000000
     22578       725  AHEP      H1            -18.7117858555       32.6472269817       30.9848197905  LPSA21    5               3.0000000000
     22579       725  AHEP      C5            -21.9125149087       32.9428762717       31.9593573761  LPSA21    5               3.0000000000
     22580       725  AHEP      H5            -22.2004999580       31.9323797016       31.5957557306  LPSA21    5               3.0000000000
     22581       725  AHEP      O5            -20.6813828322       33.3001391287       31.2840997632  LPSA21    5               3.0000000000
     22582       725  AHEP      C2            -19.4003265330       32.1326123061       32.9634292840  LPSA21    5               3.0000000000
     22583       725  AHEP      H2            -18.6535596032       31.3118969394       33.0886309659  LPSA21    5               3.0000000000
     22584       725  AHEP      O2            -18.8361375438       33.3419890009       33.4860534110  LPSA21    5               3.0000000000
     22585       725  AHEP      HO2           -17.9056724490       33.1907211928       33.6482699725  LPSA21    5               3.0000000000
     22586       725  AHEP      C3            -20.6623044924       31.7396675564       33.7260038492  LPSA21    5               3.0000000000
     22587       725  AHEP      H3            -21.0320266606       30.7699661581       33.3129318361  LPSA21    5               3.0000000000
     22588       725  AHEP      O3            -20.5009461044       31.6178501249       35.1606690424  LPSA21    5               3.0000000000
     22589       725  AHEP      C4            -21.6923274136       32.8124922390       33.4640140300  LPSA21    5               3.0000000000
     22590       725  AHEP      H4            -21.3322986619       33.8032777183       33.8425470306  LPSA21    5               3.0000000000
     22591       725  AHEP      O4            -22.9263827724       32.3844904185       34.0599513685  LPSA21    5               3.0000000000
     22592       725  AHEP      P4            -23.5791471393       33.2755846532       35.3158584580  LPSA21    5               3.0000000000
     22593       725  AHEP      OP42          -24.7221528696       32.4376073457       35.8828117644  LPSA21    5               3.0000000000
     22594       725  AHEP      OP43          -24.0367371547       34.5947748820       34.7122522407  LPSA21    5               3.0000000000
     22595       725  AHEP      OP44          -22.4828316164       33.6260082939       36.3266726168  LPSA21    5               3.0000000000
     22596       725  AHEP      C6            -23.0326636802       33.9190989756       31.5749704862  LPSA21    5               3.0000000000
     22597       725  AHEP      H6            -23.9813906947       33.5698159658       32.0519984577  LPSA21    5               3.0000000000
     22598       725  AHEP      O6            -22.7398444290       35.2510695264       32.0505777217  LPSA21    5               3.0000000000
     22599       725  AHEP      HO6           -22.1307493629       35.7087582512       31.4798171241  LPSA21    5               3.0000000000
     22600       725  AHEP      C7            -23.2818672001       33.8909423803       30.0764323022  LPSA21    5               3.0000000000
     22601       725  AHEP      H71           -24.3802509887       34.0105255975       29.9268950345  LPSA21    5               3.0000000000
     22602       725  AHEP      H72           -23.0250107839       32.9107882931       29.6191715936  LPSA21    5               3.0000000000
     22603       725  AHEP      O7            -22.6578815935       35.0026165574       29.4313184916  LPSA21    5               3.0000000000
     22604       726  AHEP      C1            -21.4644447682       34.6711839030       28.7923056639  LPSA21    6               4.0000000000
     22605       726  AHEP      H1            -21.1317509263       33.6440611538       29.0340585794  LPSA21    6               4.0000000000
     22606       726  AHEP      C5            -22.0763594986       36.0187653124       26.9639674152  LPSA21    6               4.0000000000
     22607       726  AHEP      H5            -23.0040706479       36.3071624366       27.5219514849  LPSA21    6               4.0000000000
     22608       726  AHEP      O5            -21.6563128447       34.7064959604       27.3817650170  LPSA21    6               4.0000000000
     22609       726  AHEP      C2            -20.3801450437       35.6297456966       29.2366413186  LPSA21    6               4.0000000000
     22610       726  AHEP      H2            -20.3111738070       35.5544478826       30.3469573479  LPSA21    6               4.0000000000
     22611       726  AHEP      O2            -19.1076154123       35.2443560156       28.7403063299  LPSA21    6               4.0000000000
     22612       726  AHEP      HO2           -18.6171112072       34.8703756912       29.4709559174  LPSA21    6               4.0000000000
     22613       726  AHEP      C3            -20.7453514497       37.0372803045       28.8673603944  LPSA21    6               4.0000000000
     22614       726  AHEP      H3            -21.7011552691       37.3172939437       29.3816077905  LPSA21    6               4.0000000000
     22615       726  AHEP      O3            -19.7218497921       37.9895483275       29.2408921713  LPSA21    6               4.0000000000
     22616       726  AHEP      HO3           -20.0145382008       38.5576342036       29.9645574299  LPSA21    6               4.0000000000
     22617       726  AHEP      C4            -20.9689154841       36.9831924392       27.3725381803  LPSA21    6               4.0000000000
     22618       726  AHEP      H4            -20.0342505876       36.7977532317       26.8123785091  LPSA21    6               4.0000000000
     22619       726  AHEP      O4            -21.3160183978       38.2294448760       26.9540623446  LPSA21    6               4.0000000000
     22620       726  AHEP      HO4           -22.2536719188       38.3947402309       27.1461825417  LPSA21    6               4.0000000000
     22621       726  AHEP      C6            -22.5049979209       36.0878761531       25.4948163993  LPSA21    6               4.0000000000
     22622       726  AHEP      H6            -22.9607424952       37.0908833806       25.3150772321  LPSA21    6               4.0000000000
     22623       726  AHEP      O6            -21.3829627390       36.0037161443       24.6106401663  LPSA21    6               4.0000000000
     22624       726  AHEP      HO6           -21.5224847559       35.2685071514       23.9868741819  LPSA21    6               4.0000000000
     22625       726  AHEP      C7            -23.6296212125       35.1086599973       25.1669021321  LPSA21    6               4.0000000000
     22626       726  AHEP      H71           -24.0068360301       35.3121791150       24.1351522372  LPSA21    6               4.0000000000
     22627       726  AHEP      H72           -24.4659264937       35.2948259812       25.8781291988  LPSA21    6               4.0000000000
     22628       726  AHEP      O7            -23.2767974334       33.7255884105       25.2883337507  LPSA21    6               4.0000000000
     22629       726  AHEP      HO7           -23.2831783230       33.5353083845       26.2195872262  LPSA21    6               4.0000000000
     22630       727  AGLC      C1            -20.2115827269       30.3318860316       35.6423399586  LPSA21    7               4.0000000000
     22631       727  AGLC      H1            -20.8476502990       29.5576945318       35.1578919466  LPSA21    7               4.0000000000
     22632       727  AGLC      C5            -17.9280619965       30.9266419625       36.0960013998  LPSA21    7               4.0000000000
     22633       727  AGLC      H5            -18.1660189800       31.9775671135       35.8169406187  LPSA21    7               4.0000000000
     22634       727  AGLC      O5            -18.8342792996       30.0449695063       35.4219928883  LPSA21    7               4.0000000000
     22635       727  AGLC      C2            -20.3984990235       30.1958189866       37.1548844864  LPSA21    7               4.0000000000
     22636       727  AGLC      H2            -19.9645070659       29.2197676527       37.4116451640  LPSA21    7               4.0000000000
     22637       727  AGLC      O2            -21.7516355454       30.1188596523       37.5786819510  LPSA21    7               4.0000000000
     22638       727  AGLC      HO2           -22.1086954219       31.0276919691       37.5504176306  LPSA21    7               4.0000000000
     22639       727  AGLC      C3            -19.5646502400       31.1513673229       37.9653208880  LPSA21    7               4.0000000000
     22640       727  AGLC      H3            -19.7961866396       32.1747331580       37.6056153590  LPSA21    7               4.0000000000
     22641       727  AGLC      O3            -19.8526602996       31.0823629602       39.3918738583  LPSA21    7               4.0000000000
     22642       727  AGLC      C4            -18.1182078429       30.8112489148       37.6093849321  LPSA21    7               4.0000000000
     22643       727  AGLC      H4            -17.8953485594       29.7576612548       37.9290052606  LPSA21    7               4.0000000000
     22644       727  AGLC      O4            -17.2399038249       31.7270799709       38.2566400459  LPSA21    7               4.0000000000
     22645       727  AGLC      HO4           -16.5232570334       31.2326857891       38.6748881829  LPSA21    7               4.0000000000
     22646       727  AGLC      C6            -16.5423596070       30.6520273808       35.5060373618  LPSA21    7               4.0000000000
     22647       727  AGLC      H61           -16.6162021993       30.8115291012       34.4050076556  LPSA21    7               4.0000000000
     22648       727  AGLC      H62           -15.7836669595       31.3650393304       35.8929901205  LPSA21    7               4.0000000000
     22649       727  AGLC      O6            -16.0479636089       29.3271382737       35.7133158704  LPSA21    7               4.0000000000
     22650       727  AGLC      HO6           -15.6364746088       29.3017777766       36.5704153522  LPSA21    7               4.0000000000
     22651       728  AGLC      C1            -20.3346912541       32.3144451938       39.9203089615  LPSA21    8               5.0000000000
     22652       728  AGLC      H1            -19.7294440095       33.1544285653       39.5119188630  LPSA21    8               5.0000000000
     22653       728  AGLC      C5            -22.6860204774       31.6924572453       40.2183119142  LPSA21    8               5.0000000000
     22654       728  AGLC      H5            -22.4227902328       30.6687956760       39.8872182975  LPSA21    8               5.0000000000
     22655       728  AGLC      O5            -21.7255162862       32.5653356903       39.5910117828  LPSA21    8               5.0000000000
     22656       728  AGLC      C2            -20.1803227578       32.4125729831       41.4350359927  LPSA21    8               5.0000000000
     22657       728  AGLC      H2            -20.4913961157       33.4471373851       41.7014300515  LPSA21    8               5.0000000000
     22658       728  AGLC      O2            -18.8464737237       32.2307276995       41.9464613066  LPSA21    8               5.0000000000
     22659       728  AGLC      C3            -21.1000881050       31.4428695652       42.1232958728  LPSA21    8               5.0000000000
     22660       728  AGLC      H3            -20.8354530382       30.4277904553       41.7210763485  LPSA21    8               5.0000000000
     22661       728  AGLC      O3            -20.8019204511       31.4659719697       43.5362667089  LPSA21    8               5.0000000000
     22662       728  AGLC      C4            -22.5227112528       31.7889466484       41.7302778653  LPSA21    8               5.0000000000
     22663       728  AGLC      H4            -22.7154793927       32.8460738308       42.0347265173  LPSA21    8               5.0000000000
     22664       728  AGLC      O4            -23.4683836019       30.9435191008       42.3801104091  LPSA21    8               5.0000000000
     22665       728  AGLC      HO4           -23.1131746621       30.0552726979       42.4059479470  LPSA21    8               5.0000000000
     22666       728  AGLC      C6            -24.1442488210       31.9092285636       39.7343918271  LPSA21    8               5.0000000000
     22667       728  AGLC      H61           -24.1957391445       31.9893566428       38.6225394710  LPSA21    8               5.0000000000
     22668       728  AGLC      H62           -24.7672859252       31.0346375058       40.0207816138  LPSA21    8               5.0000000000
     22669       728  AGLC      O6            -24.8194568480       33.0349014695       40.2948914783  LPSA21    8               5.0000000000
     22670       728  AGLC      HO6           -25.0669267695       32.8515077600       41.1947212244  LPSA21    8               5.0000000000
     22671       729  AGAL      C1            -17.8295163109       33.0558206187       41.4385196921  LPSA21    9               6.0000000000
     22672       729  AGAL      H1            -17.8639751182       33.0702971444       40.3318885687  LPSA21    9               6.0000000000
     22673       729  AGAL      C5            -17.7572523881       34.5483491602       43.2818887229  LPSA21    9               6.0000000000
     22674       729  AGAL      H5            -18.4616497608       33.8227427727       43.7469803026  LPSA21    9               6.0000000000
     22675       729  AGAL      O5            -17.9349395120       34.4240347765       41.8607007688  LPSA21    9               6.0000000000
     22676       729  AGAL      C2            -16.4894525284       32.4615364335       41.8512262791  LPSA21    9               6.0000000000
     22677       729  AGAL      H2            -15.7229459941       33.1119484210       41.3752164353  LPSA21    9               6.0000000000
     22678       729  AGAL      O2            -16.4008954582       31.1661682930       41.2075842178  LPSA21    9               6.0000000000
     22679       729  AGAL      C3            -16.2710492193       32.5637670793       43.3557366745  LPSA21    9               6.0000000000
     22680       729  AGAL      H3            -17.0729548274       32.0022544874       43.8909510516  LPSA21    9               6.0000000000
     22681       729  AGAL      O3            -15.0329000196       31.9675938960       43.7515996353  LPSA21    9               6.0000000000
     22682       729  AGAL      HO3           -15.0094722817       31.1562059407       43.2175192196  LPSA21    9               6.0000000000
     22683       729  AGAL      C4            -16.3630295188       34.0504381452       43.7017022984  LPSA21    9               6.0000000000
     22684       729  AGAL      H4            -16.2838763229       34.1817288130       44.7981813384  LPSA21    9               6.0000000000
     22685       729  AGAL      O4            -15.2925227550       34.7990916114       43.1266315014  LPSA21    9               6.0000000000
     22686       729  AGAL      HO4           -15.2199496958       35.6369677205       43.5934639475  LPSA21    9               6.0000000000
     22687       729  AGAL      C6            -18.1913507013       35.9023812570       43.8461209350  LPSA21    9               6.0000000000
     22688       729  AGAL      H61           -19.2618110746       36.0971264745       43.6091101851  LPSA21    9               6.0000000000
     22689       729  AGAL      H62           -18.1088066067       35.8981218132       44.9540580211  LPSA21    9               6.0000000000
     22690       729  AGAL      O6            -17.4306212469       37.0013412494       43.3731987493  LPSA21    9               6.0000000000
     22691       729  AGAL      HO6           -17.9434931585       37.4419664678       42.6907179659  LPSA21    9               6.0000000000
     22692       730  AGAL      C1            -15.8243587900       29.9886946157       41.7500270458  LPSA21    10              7.0000000000
     22693       730  AGAL      H1            -14.7213134265       30.1244861201       41.8394824976  LPSA21    10              7.0000000000
     22694       730  AGAL      C5            -17.7338262838       29.2349753184       43.0495133620  LPSA21    10              7.0000000000
     22695       730  AGAL      H5            -18.2454708498       30.1363769313       42.6448918306  LPSA21    10              7.0000000000
     22696       730  AGAL      O5            -16.3256361462       29.5801537009       43.0535373334  LPSA21    10              7.0000000000
     22697       730  AGAL      C2            -16.0758313484       28.8663250077       40.7480266598  LPSA21    10              7.0000000000
     22698       730  AGAL      H2            -15.5290718084       27.9826357421       41.1212852566  LPSA21    10              7.0000000000
     22699       730  AGAL      O2            -15.4878045408       29.0909910460       39.4642458231  LPSA21    10              7.0000000000
     22700       730  AGAL      HO2           -14.9929360591       28.2695693387       39.2820671506  LPSA21    10              7.0000000000
     22701       730  AGAL      C3            -17.5708113431       28.5417199650       40.7065132234  LPSA21    10              7.0000000000
     22702       730  AGAL      H3            -18.1026910172       29.4880187357       40.4470510799  LPSA21    10              7.0000000000
     22703       730  AGAL      O3            -17.9416662920       27.5755465140       39.7262583087  LPSA21    10              7.0000000000
     22704       730  AGAL      HO3           -18.4192415086       28.0258417071       39.0375617218  LPSA21    10              7.0000000000
     22705       730  AGAL      C4            -18.0200451149       28.1090670923       42.0823577687  LPSA21    10              7.0000000000
     22706       730  AGAL      H4            -19.1209238030       27.9263760499       42.0770793899  LPSA21    10              7.0000000000
     22707       730  AGAL      O4            -17.3664109257       26.9180273950       42.4968026940  LPSA21    10              7.0000000000
     22708       730  AGAL      HO4           -16.4371225209       27.1320895954       42.6217381735  LPSA21    10              7.0000000000
     22709       730  AGAL      C6            -18.3976816610       29.0377677629       44.4270913149  LPSA21    10              7.0000000000
     22710       730  AGAL      H61           -18.0918701872       29.8644219030       45.0958635089  LPSA21    10              7.0000000000
     22711       730  AGAL      H62           -19.4971147424       29.1048377981       44.2655390095  LPSA21    10              7.0000000000
     22712       730  AGAL      O6            -18.1850699876       27.8103220378       45.1324227929  LPSA21    10              7.0000000000
     22713       730  AGAL      HO6           -17.6097829165       28.0084847678       45.8710614899  LPSA21    10              7.0000000000
     22714       731  BGLC      C1            -21.5222302450       32.2503288691       44.4824886754  LPSA21    11              6.0000000000
     22715       731  BGLC      H1            -22.5295045554       31.8179531355       44.6081398185  LPSA21    11              6.0000000000
     22716       731  BGLC      C5            -22.2110445863       34.4900528282       45.1416233235  LPSA21    11              6.0000000000
     22717       731  BGLC      H5            -23.2613846143       34.1633903209       45.3802260161  LPSA21    11              6.0000000000
     22718       731  BGLC      O5            -21.5699224981       33.6451178544       44.1319957556  LPSA21    11              6.0000000000
     22719       731  BGLC      C2            -20.7457199742       32.1265641108       45.7878835796  LPSA21    11              6.0000000000
     22720       731  BGLC      H2            -19.7032042226       32.5052988910       45.6406418144  LPSA21    11              6.0000000000
     22721       731  BGLC      O2            -20.6449863852       30.7523585406       46.1659735734  LPSA21    11              6.0000000000
     22722       731  BGLC      HO2           -19.7148101897       30.5752668918       46.3039064304  LPSA21    11              6.0000000000
     22723       731  BGLC      C3            -21.3447714302       32.9544600660       46.9060535433  LPSA21    11              6.0000000000
     22724       731  BGLC      H3            -22.3549212708       32.5745283756       47.1762082595  LPSA21    11              6.0000000000
     22725       731  BGLC      O3            -20.4597059445       32.9276003688       48.0481887670  LPSA21    11              6.0000000000
     22726       731  BGLC      C4            -21.4001770151       34.3945225756       46.4292764393  LPSA21    11              6.0000000000
     22727       731  BGLC      H4            -20.3667669016       34.7263054439       46.1819140848  LPSA21    11              6.0000000000
     22728       731  BGLC      O4            -21.8644488516       35.2534799611       47.4619829066  LPSA21    11              6.0000000000
     22729       731  BGLC      HO4           -21.1817918152       35.2718013718       48.1391280010  LPSA21    11              6.0000000000
     22730       731  BGLC      C6            -22.3339834174       35.8614118097       44.5293738022  LPSA21    11              6.0000000000
     22731       731  BGLC      H61           -22.5732154918       36.6811236466       45.2626258286  LPSA21    11              6.0000000000
     22732       731  BGLC      H62           -21.4603624469       36.1707372376       43.9314949223  LPSA21    11              6.0000000000
     22733       731  BGLC      O6            -23.3678726730       35.7363199489       43.5888317062  LPSA21    11              6.0000000000
     22734       731  BGLC      HO6           -24.0478414607       36.3891925340       43.8990773433  LPSA21    11              6.0000000000
     22735       732  BGLCNA    C1            -20.9594023782       32.5380215331       49.3152728592  LPSA21    12              7.0000000000
     22736       732  BGLCNA    H1            -20.9878449149       31.4282115726       49.3696019726  LPSA21    12              7.0000000000
     22737       732  BGLCNA    C5            -22.7472737722       32.6340946259       50.8815248031  LPSA21    12              7.0000000000
     22738       732  BGLCNA    H5            -22.7742568865       31.5210333144       50.9486084001  LPSA21    12              7.0000000000
     22739       732  BGLCNA    O5            -22.2538476668       33.0527479595       49.5939352247  LPSA21    12              7.0000000000
     22740       732  BGLCNA    C2            -19.9994930773       33.1038040161       50.3553353524  LPSA21    12              7.0000000000
     22741       732  BGLCNA    H2            -20.1216769464       34.2211118215       50.3075989585  LPSA21    12              7.0000000000
     22742       732  BGLCNA    N             -18.6511681262       32.6919732086       50.0526557640  LPSA21    12              7.0000000000
     22743       732  BGLCNA    HN            -18.5365652442       31.7069389742       49.9820457756  LPSA21    12              7.0000000000
     22744       732  BGLCNA    C             -17.6565174129       33.5798722312       49.9128032455  LPSA21    12              7.0000000000
     22745       732  BGLCNA    O             -17.8388034092       34.7708841548       50.0692204723  LPSA21    12              7.0000000000
     22746       732  BGLCNA    CT            -16.2997622634       33.0540784383       49.5468726906  LPSA21    12              7.0000000000
     22747       732  BGLCNA    HT1           -15.6104543694       33.0822622427       50.4137560852  LPSA21    12              7.0000000000
     22748       732  BGLCNA    HT2           -15.8519836280       33.6192263296       48.7092301879  LPSA21    12              7.0000000000
     22749       732  BGLCNA    HT3           -16.4853530615       32.0363818896       49.2000279142  LPSA21    12              7.0000000000
     22750       732  BGLCNA    C3            -20.3862560903       32.6904554365       51.7642410889  LPSA21    12              7.0000000000
     22751       732  BGLCNA    H3            -20.3620122415       31.5782032435       51.8048769086  LPSA21    12              7.0000000000
     22752       732  BGLCNA    O3            -19.4320051033       33.1729876117       52.7613420006  LPSA21    12              7.0000000000
     22753       732  BGLCNA    C4            -21.8135049573       33.1905622519       51.9625227166  LPSA21    12              7.0000000000
     22754       732  BGLCNA    H4            -21.8509524036       34.3062021729       51.8971453031  LPSA21    12              7.0000000000
     22755       732  BGLCNA    O4            -22.2923521523       32.8296165150       53.2459328350  LPSA21    12              7.0000000000
     22756       732  BGLCNA    HO4           -22.4609103536       31.8910864379       53.3003872415  LPSA21    12              7.0000000000
     22757       732  BGLCNA    C6            -24.1810919409       33.1244298985       50.9536191430  LPSA21    12              7.0000000000
     22758       732  BGLCNA    H61           -24.6514246024       32.8872600792       51.9302706726  LPSA21    12              7.0000000000
     22759       732  BGLCNA    H62           -24.1848704208       34.2277219578       50.8387042106  LPSA21    12              7.0000000000
     22760       732  BGLCNA    O6            -24.9877023436       32.5706858502       49.9105369949  LPSA21    12              7.0000000000
     22761       732  BGLCNA    HO6           -25.3084400224       31.6916257045       50.1282943889  LPSA21    12              7.0000000000
     22762       733  AGAL      C1            -19.1621064661       32.2776252331       53.8425691150  LPSA21    13              8.0000000000
     22763       733  AGAL      H1            -20.1049914250       31.7671917059       54.1505600284  LPSA21    13              8.0000000000
     22764       733  AGAL      C5            -16.8379396270       31.9717774427       53.2736022484  LPSA21    13              8.0000000000
     22765       733  AGAL      H5            -17.0362299828       32.7908439178       52.5436652489  LPSA21    13              8.0000000000
     22766       733  AGAL      O5            -18.1234386263       31.3310073853       53.4836828734  LPSA21    13              8.0000000000
     22767       733  AGAL      C2            -18.6335500030       32.9621071821       55.1101116775  LPSA21    13              8.0000000000
     22768       733  AGAL      H2            -18.3730232294       32.1304240133       55.8032056245  LPSA21    13              8.0000000000
     22769       733  AGAL      O2            -19.6378533334       33.7514251556       55.7650338746  LPSA21    13              8.0000000000
     22770       733  AGAL      C3            -17.3136852817       33.6778111018       54.8914384908  LPSA21    13              8.0000000000
     22771       733  AGAL      H3            -17.4316424787       34.3542948954       54.0199626024  LPSA21    13              8.0000000000
     22772       733  AGAL      O3            -16.9110966245       34.4809015541       55.9886032630  LPSA21    13              8.0000000000
     22773       733  AGAL      HO3           -16.6027840598       35.3387897193       55.6745740770  LPSA21    13              8.0000000000
     22774       733  AGAL      C4            -16.2804507495       32.6561975276       54.5156924994  LPSA21    13              8.0000000000
     22775       733  AGAL      H4            -15.3335873926       33.1762021435       54.2314163359  LPSA21    13              8.0000000000
     22776       733  AGAL      O4            -15.9601444099       31.7591246953       55.5850667245  LPSA21    13              8.0000000000
     22777       733  AGAL      HO4           -16.7638099617       31.4575503131       56.0096609255  LPSA21    13              8.0000000000
     22778       733  AGAL      C6            -15.8092622462       31.1292371739       52.5601447377  LPSA21    13              8.0000000000
     22779       733  AGAL      H61           -16.2547320950       30.7364946081       51.6217851535  LPSA21    13              8.0000000000
     22780       733  AGAL      H62           -14.9383532222       31.7808704727       52.3088749051  LPSA21    13              8.0000000000
     22781       733  AGAL      O6            -15.3261367288       30.0529292150       53.3490581024  LPSA21    13              8.0000000000
     22782       733  AGAL      HO6           -14.6520316173       30.3878537980       53.9553392583  LPSA21    13              8.0000000000
     22783       734  ARHM      C1            -20.1166156203       33.2752364137       57.0075178499  LPSA21    14              9.0000000000
     22784       734  ARHM      H1            -20.0271350182       32.1644044162       57.0431557513  LPSA21    14              9.0000000000
     22785       734  ARHM      C5            -21.7380607949       34.9936608088       57.1289286691  LPSA21    14              9.0000000000
     22786       734  ARHM      H5            -21.3764764360       35.3821568007       56.1594255265  LPSA21    14              9.0000000000
     22787       734  ARHM      O5            -21.4996433158       33.5807529227       57.1958111790  LPSA21    14              9.0000000000
     22788       734  ARHM      C2            -19.2996671396       33.9268203857       58.1144092125  LPSA21    14              9.0000000000
     22789       734  ARHM      H2            -18.2271524114       33.6986230943       57.9370926479  LPSA21    14              9.0000000000
     22790       734  ARHM      O2            -19.6560484512       33.5506718978       59.4599007607  LPSA21    14              9.0000000000
     22791       734  ARHM      C3            -19.5152264064       35.4217885462       58.0436547069  LPSA21    14              9.0000000000
     22792       734  ARHM      H3            -19.3078918000       35.7714820252       57.0062156833  LPSA21    14              9.0000000000
     22793       734  ARHM      O3            -18.6653481979       36.1890002218       58.9037133996  LPSA21    14              9.0000000000
     22794       734  ARHM      HO3           -18.7984855773       35.9448826265       59.8190743203  LPSA21    14              9.0000000000
     22795       734  ARHM      C4            -20.9828366609       35.6751023206       58.2617842981  LPSA21    14              9.0000000000
     22796       734  ARHM      H4            -21.3043626413       35.1524815190       59.1698249219  LPSA21    14              9.0000000000
     22797       734  ARHM      O4            -21.2900947357       37.0620522961       58.3786716064  LPSA21    14              9.0000000000
     22798       734  ARHM      HO4           -21.5149025380       37.3550308933       59.2593257661  LPSA21    14              9.0000000000
     22799       734  ARHM      C6            -23.2465118897       35.1926263402       57.2065786512  LPSA21    14              9.0000000000
     22800       734  ARHM      H61           -23.7991993130       34.4701135066       56.5754825255  LPSA21    14              9.0000000000
     22801       734  ARHM      H62           -23.4806435331       35.0147720236       58.2512531479  LPSA21    14              9.0000000000
     22802       734  ARHM      H63           -23.5918135942       36.2071186227       56.9296333853  LPSA21    14              9.0000000000
     22803       735  ARHM      C1            -19.6861237711       32.1820323758       59.7544730514  LPSA21    15             10.0000000000
     22804       735  ARHM      H1            -19.0657193161       31.6239909155       59.0359331392  LPSA21    15             10.0000000000
     22805       735  ARHM      C5            -21.9227222304       32.1514579532       60.6266291280  LPSA21    15             10.0000000000
     22806       735  ARHM      H5            -22.1506503191       33.2157014872       60.4312023075  LPSA21    15             10.0000000000
     22807       735  ARHM      O5            -21.0016293726       31.6247157315       59.6701582414  LPSA21    15             10.0000000000
     22808       735  ARHM      C2            -19.1362762411       31.9709346393       61.1445520015  LPSA21    15             10.0000000000
     22809       735  ARHM      H2            -18.1647932928       32.4966560320       61.2155564739  LPSA21    15             10.0000000000
     22810       735  ARHM      O2            -18.9303229360       30.5492535995       61.2890375277  LPSA21    15             10.0000000000
     22811       735  ARHM      C3            -20.0569180503       32.6152804961       62.1407719780  LPSA21    15             10.0000000000
     22812       735  ARHM      H3            -20.2050957095       33.6814831980       61.8454649013  LPSA21    15             10.0000000000
     22813       735  ARHM      O3            -19.4117915317       32.5896019806       63.4109915192  LPSA21    15             10.0000000000
     22814       735  ARHM      C4            -21.3901282129       31.9189917561       62.0309476617  LPSA21    15             10.0000000000
     22815       735  ARHM      H4            -21.2204165756       30.8241195309       62.1600525972  LPSA21    15             10.0000000000
     22816       735  ARHM      O4            -22.3582785901       32.3105255296       62.9988475386  LPSA21    15             10.0000000000
     22817       735  ARHM      HO4           -23.0585218342       31.6530643392       62.9813638195  LPSA21    15             10.0000000000
     22818       735  ARHM      C6            -23.2361535451       31.4200804445       60.4176870359  LPSA21    15             10.0000000000
     22819       735  ARHM      H61           -24.0151724660       31.8747468549       61.0344800710  LPSA21    15             10.0000000000
     22820       735  ARHM      H62           -23.5421041181       31.3682478791       59.3535500396  LPSA21    15             10.0000000000
     22821       735  ARHM      H63           -23.0637225011       30.4059623881       60.7806737336  LPSA21    15             10.0000000000
     22822       736  BMANNA    C1            -18.4234430410       30.0350581560       62.5035521930  LPSA21    16             11.0000000000
     22823       736  BMANNA    H1            -19.1821019917       30.1831598658       63.3057110883  LPSA21    16             11.0000000000
     22824       736  BMANNA    C5            -16.7393592749       30.1281515351       64.2061095134  LPSA21    16             11.0000000000
     22825       736  BMANNA    H5            -17.5575942207       30.2749152827       64.9558839381  LPSA21    16             11.0000000000
     22826       736  BMANNA    O5            -17.1859684525       30.6244480887       62.9278288302  LPSA21    16             11.0000000000
     22827       736  BMANNA    C2            -18.2046624098       28.5340939288       62.3107931758  LPSA21    16             11.0000000000
     22828       736  BMANNA    H2            -19.1984525344       28.0996024414       62.0312023227  LPSA21    16             11.0000000000
     22829       736  BMANNA    N             -17.2576570069       28.1717804104       61.2611231772  LPSA21    16             11.0000000000
     22830       736  BMANNA    HN            -16.3233092414       28.0425069489       61.5515220085  LPSA21    16             11.0000000000
     22831       736  BMANNA    C             -17.5723640040       27.9126198847       59.9896854194  LPSA21    16             11.0000000000
     22832       736  BMANNA    O             -18.7099555486       27.9891113192       59.5448980765  LPSA21    16             11.0000000000
     22833       736  BMANNA    CT            -16.4047569859       27.5917313646       59.0888679767  LPSA21    16             11.0000000000
     22834       736  BMANNA    HT1           -16.3488910201       26.5097852694       58.8631630095  LPSA21    16             11.0000000000
     22835       736  BMANNA    HT2           -15.4447954830       27.9031815921       59.5423586769  LPSA21    16             11.0000000000
     22836       736  BMANNA    HT3           -16.5167060188       28.1398405203       58.1437510434  LPSA21    16             11.0000000000
     22837       736  BMANNA    C3            -17.7608834976       27.9634480334       63.6491222134  LPSA21    16             11.0000000000
     22838       736  BMANNA    H3            -18.5533308489       28.1894045071       64.3950566026  LPSA21    16             11.0000000000
     22839       736  BMANNA    O3            -17.6712814291       26.5463514861       63.6011048079  LPSA21    16             11.0000000000
     22840       736  BMANNA    HO3           -18.0967106032       26.1414461819       64.3664332085  LPSA21    16             11.0000000000
     22841       736  BMANNA    C4            -16.4710370697       28.6380807652       64.1113155619  LPSA21    16             11.0000000000
     22842       736  BMANNA    H4            -15.6607522469       28.4510110682       63.3713332271  LPSA21    16             11.0000000000
     22843       736  BMANNA    O4            -15.9891301813       28.1656633533       65.3656494839  LPSA21    16             11.0000000000
     22844       736  BMANNA    HO4           -15.0383774202       28.2878961282       65.4682176892  LPSA21    16             11.0000000000
     22845       736  BMANNA    C6            -15.5321137066       30.8565366320       64.7783613858  LPSA21    16             11.0000000000
     22846       736  BMANNA    H61           -15.5926265807       30.8052987148       65.8887629809  LPSA21    16             11.0000000000
     22847       736  BMANNA    H62           -14.6097215702       30.3512387201       64.4457199067  LPSA21    16             11.0000000000
     22848       736  BMANNA    O6            -15.4040367910       32.2262157855       64.4419596913  LPSA21    16             11.0000000000
     22849       736  BMANNA    HO6           -14.7437738130       32.3956314319       63.7663665644  LPSA21    16             11.0000000000
     22850       737  BGLCNA    C1            -19.5664556899       33.7729125063       64.1409302769  LPSA21    17             11.0000000000
     22851       737  BGLCNA    H1            -20.5967685463       34.1490119313       63.9854239433  LPSA21    17             11.0000000000
     22852       737  BGLCNA    C5            -18.7682257303       35.9996718238       64.5571820471  LPSA21    17             11.0000000000
     22853       737  BGLCNA    H5            -19.7741640634       36.4509239769       64.3669209985  LPSA21    17             11.0000000000
     22854       737  BGLCNA    O5            -18.6343948158       34.7992841142       63.7696773887  LPSA21    17             11.0000000000
     22855       737  BGLCNA    C2            -19.3397929520       33.3371807335       65.5758060782  LPSA21    17             11.0000000000
     22856       737  BGLCNA    H2            -18.2808706932       33.0138654546       65.7449990658  LPSA21    17             11.0000000000
     22857       737  BGLCNA    N             -20.1833244554       32.1985362270       65.8772873541  LPSA21    17             11.0000000000
     22858       737  BGLCNA    HN            -21.0342757506       32.1722569271       65.3722934660  LPSA21    17             11.0000000000
     22859       737  BGLCNA    C             -19.9724246458       31.2614512475       66.8050159224  LPSA21    17             11.0000000000
     22860       737  BGLCNA    O             -18.9625180608       31.1360627020       67.4837637983  LPSA21    17             11.0000000000
     22861       737  BGLCNA    CT            -21.1467676330       30.3455718146       67.0106274009  LPSA21    17             11.0000000000
     22862       737  BGLCNA    HT1           -21.0148364708       29.3598498146       66.5196240045  LPSA21    17             11.0000000000
     22863       737  BGLCNA    HT2           -22.0667647048       30.8481749287       66.6574080374  LPSA21    17             11.0000000000
     22864       737  BGLCNA    HT3           -21.3094108887       30.2171020056       68.0934523962  LPSA21    17             11.0000000000
     22865       737  BGLCNA    C3            -19.6154102258       34.5549843568       66.4307054354  LPSA21    17             11.0000000000
     22866       737  BGLCNA    H3            -20.6141984933       34.9201282691       66.0967242036  LPSA21    17             11.0000000000
     22867       737  BGLCNA    O3            -19.7153973920       34.1718458445       67.8303936818  LPSA21    17             11.0000000000
     22868       737  BGLCNA    C4            -18.5945051675       35.6227588695       66.0362234093  LPSA21    17             11.0000000000
     22869       737  BGLCNA    H4            -17.5634989435       35.2088343225       66.1464333459  LPSA21    17             11.0000000000
     22870       737  BGLCNA    O4            -18.7251858577       36.7772909955       66.8502043909  LPSA21    17             11.0000000000
     22871       737  BGLCNA    HO4           -17.9749899026       37.3843743015       66.7586957872  LPSA21    17             11.0000000000
     22872       737  BGLCNA    C6            -17.7309957718       37.0442070250       64.1226322401  LPSA21    17             11.0000000000
     22873       737  BGLCNA    H61           -18.1581518125       38.0647954124       64.1861195848  LPSA21    17             11.0000000000
     22874       737  BGLCNA    H62           -16.8500993678       37.0005834866       64.8040558731  LPSA21    17             11.0000000000
     22875       737  BGLCNA    O6            -17.2380353079       36.9012441631       62.7965008984  LPSA21    17             11.0000000000
     22876       737  BGLCNA    HO6           -17.9461221673       36.7860801171       62.1680476775  LPSA21    17             11.0000000000
     22877       738  AGAL      C1            -20.6531630700       34.8915977914       68.6106922819  LPSA21    18             12.0000000000
     22878       738  AGAL      H1            -20.2266805927       35.8994682055       68.7846759587  LPSA21    18             12.0000000000
     22879       738  AGAL      C5            -22.5980442240       33.7572291838       67.8576387213  LPSA21    18             12.0000000000
     22880       738  AGAL      H5            -21.8816137737       33.0510269609       67.4043202053  LPSA21    18             12.0000000000
     22881       738  AGAL      O5            -21.9300200054       35.0203959756       67.9738282780  LPSA21    18             12.0000000000
     22882       738  AGAL      C2            -20.9348981837       34.2533011487       69.9652657841  LPSA21    18             12.0000000000
     22883       738  AGAL      H2            -21.7130974387       34.9324691020       70.3907845649  LPSA21    18             12.0000000000
     22884       738  AGAL      O2            -19.8247441719       34.2918963856       70.8712613062  LPSA21    18             12.0000000000
     22885       738  AGAL      C3            -21.5989905482       32.8817785929       69.8440870590  LPSA21    18             12.0000000000
     22886       738  AGAL      H3            -20.9753482097       32.2540584266       69.1682823936  LPSA21    18             12.0000000000
     22887       738  AGAL      O3            -21.6753334595       32.1898381505       71.0921837434  LPSA21    18             12.0000000000
     22888       738  AGAL      HO3           -21.4156417694       31.2703169607       70.9975452914  LPSA21    18             12.0000000000
     22889       738  AGAL      C4            -22.9454072805       33.0806228734       69.1737600599  LPSA21    18             12.0000000000
     22890       738  AGAL      H4            -23.4274029944       32.1041863782       68.9365104417  LPSA21    18             12.0000000000
     22891       738  AGAL      O4            -23.8548637411       33.8251184240       69.9721133539  LPSA21    18             12.0000000000
     22892       738  AGAL      HO4           -24.1401988014       33.2818958596       70.7098950231  LPSA21    18             12.0000000000
     22893       738  AGAL      C6            -23.6221401940       33.8349452837       66.7775977008  LPSA21    18             12.0000000000
     22894       738  AGAL      H61           -23.0659801027       34.0925360287       65.8504511748  LPSA21    18             12.0000000000
     22895       738  AGAL      H62           -24.1134012645       32.8519057119       66.6404428267  LPSA21    18             12.0000000000
     22896       738  AGAL      O6            -24.6111152212       34.8196397191       66.9765894124  LPSA21    18             12.0000000000
     22897       738  AGAL      HO6           -24.3291829287       35.4746696532       67.6388640180  LPSA21    18             12.0000000000
     22898       739  ARHM      C1            -20.2648878969       34.6527519237       72.1634295989  LPSA21    19             13.0000000000
     22899       739  ARHM      H1            -21.3016662598       34.2967515858       72.3511509153  LPSA21    19             13.0000000000
     22900       739  ARHM      C5            -19.0463376510       36.6931172718       72.2503855419  LPSA21    19             13.0000000000
     22901       739  ARHM      H5            -18.7008422070       36.4524370281       71.2154684767  LPSA21    19             13.0000000000
     22902       739  ARHM      O5            -20.3193710726       36.0646914438       72.4199878547  LPSA21    19             13.0000000000
     22903       739  ARHM      C2            -19.2946985695       34.0170125747       73.1114031099  LPSA21    19             13.0000000000
     22904       739  ARHM      H2            -19.1676344642       32.9327793952       72.8695024616  LPSA21    19             13.0000000000
     22905       739  ARHM      O2            -19.7779686778       34.1085146493       74.4531203002  LPSA21    19             13.0000000000
     22906       739  ARHM      C3            -17.9430072536       34.6658817941       72.9602969387  LPSA21    19             13.0000000000
     22907       739  ARHM      H3            -17.6095393811       34.5631127627       71.9002313979  LPSA21    19             13.0000000000
     22908       739  ARHM      O3            -16.9728067711       34.0202098202       73.7641672435  LPSA21    19             13.0000000000
     22909       739  ARHM      HO3           -17.3508536085       33.9426591924       74.6490554923  LPSA21    19             13.0000000000
     22910       739  ARHM      C4            -18.0501787990       36.1354791823       73.2491846803  LPSA21    19             13.0000000000
     22911       739  ARHM      H4            -18.4310682183       36.2717376035       74.2886481285  LPSA21    19             13.0000000000
     22912       739  ARHM      O4            -16.7961874187       36.8049571530       73.1757337618  LPSA21    19             13.0000000000
     22913       739  ARHM      HO4           -16.4899468702       36.7777030735       72.2532394632  LPSA21    19             13.0000000000
     22914       739  ARHM      C6            -19.2161553443       38.2156210053       72.2861934017  LPSA21    19             13.0000000000
     22915       739  ARHM      H61           -19.9357619467       38.4673721575       71.4811753023  LPSA21    19             13.0000000000
     22916       739  ARHM      H62           -19.6079308782       38.5993734296       73.2478624861  LPSA21    19             13.0000000000
     22917       739  ARHM      H63           -18.2568228719       38.7321061992       72.0693510913  LPSA21    19             13.0000000000
     22918       740  ARHM      C1            -20.8629253654       33.2365113737       74.6998127101  LPSA21    20             14.0000000000
     22919       740  ARHM      H1            -20.9893965174       32.5035026278       73.8725726158  LPSA21    20             14.0000000000
     22920       740  ARHM      C5            -22.1465246712       34.7598584687       75.9528187786  LPSA21    20             14.0000000000
     22921       740  ARHM      H5            -21.3418984498       35.5211577776       75.8140443236  LPSA21    20             14.0000000000
     22922       740  ARHM      O5            -22.1357602669       33.8845737462       74.8343495013  LPSA21    20             14.0000000000
     22923       740  ARHM      C2            -20.5170062168       32.4793189388       75.9499503665  LPSA21    20             14.0000000000
     22924       740  ARHM      H2            -19.4750183280       32.0731179255       75.8482241306  LPSA21    20             14.0000000000
     22925       740  ARHM      O2            -21.4548025884       31.4169508961       76.1556247796  LPSA21    20             14.0000000000
     22926       740  ARHM      C3            -20.5246169411       33.3855527548       77.1286394977  LPSA21    20             14.0000000000
     22927       740  ARHM      H3            -19.7838108750       34.2041596146       76.9606955001  LPSA21    20             14.0000000000
     22928       740  ARHM      O3            -20.1521294054       32.6132514933       78.2674230119  LPSA21    20             14.0000000000
     22929       740  ARHM      C4            -21.8886228731       33.9939915582       77.2465542415  LPSA21    20             14.0000000000
     22930       740  ARHM      H4            -22.6972446384       33.2296633289       77.3430048674  LPSA21    20             14.0000000000
     22931       740  ARHM      O4            -21.9436563186       34.8550729167       78.3738084486  LPSA21    20             14.0000000000
     22932       740  ARHM      HO4           -22.5949558888       35.5116716262       78.1273741688  LPSA21    20             14.0000000000
     22933       740  ARHM      C6            -23.4801513761       35.4954535526       75.9278171959  LPSA21    20             14.0000000000
     22934       740  ARHM      H61           -24.3823757358       34.9074982708       76.0533746120  LPSA21    20             14.0000000000
     22935       740  ARHM      H62           -23.4849421880       36.1623416503       76.8024363637  LPSA21    20             14.0000000000
     22936       740  ARHM      H63           -23.6163125545       36.0783081827       74.9951936567  LPSA21    20             14.0000000000
     22937       741  BMANNA    C1            -21.0904927224       30.2931185239       75.4152913900  LPSA21    21             15.0000000000
     22938       741  BMANNA    H1            -20.2556695455       30.5643839266       74.7260804036  LPSA21    21             15.0000000000
     22939       741  BMANNA    C5            -21.6029985857       28.8239093841       73.6540346196  LPSA21    21             15.0000000000
     22940       741  BMANNA    H5            -20.7000677767       29.1888375274       73.0932913181  LPSA21    21             15.0000000000
     22941       741  BMANNA    O5            -22.1087662657       29.8597850059       74.5192467767  LPSA21    21             15.0000000000
     22942       741  BMANNA    C2            -20.6444172434       29.1740856083       76.3516033066  LPSA21    21             15.0000000000
     22943       741  BMANNA    H2            -19.7850419867       29.6120109981       76.9276933049  LPSA21    21             15.0000000000
     22944       741  BMANNA    N             -21.6735013113       28.7079841505       77.2953186826  LPSA21    21             15.0000000000
     22945       741  BMANNA    HN            -22.5907370359       28.6848767246       76.9143012056  LPSA21    21             15.0000000000
     22946       741  BMANNA    C             -21.4488408055       28.3875827702       78.5964169143  LPSA21    21             15.0000000000
     22947       741  BMANNA    O             -20.3185864167       28.2573513589       79.0436518756  LPSA21    21             15.0000000000
     22948       741  BMANNA    CT            -22.6514491767       28.1709155979       79.4844910251  LPSA21    21             15.0000000000
     22949       741  BMANNA    HT1           -23.1030893707       27.1819864542       79.2849622695  LPSA21    21             15.0000000000
     22950       741  BMANNA    HT2           -23.3882391423       28.9796915331       79.3171641237  LPSA21    21             15.0000000000
     22951       741  BMANNA    HT3           -22.3526427937       28.2219957824       80.5524816152  LPSA21    21             15.0000000000
     22952       741  BMANNA    C3            -20.1087918424       28.0776765946       75.4598190049  LPSA21    21             15.0000000000
     22953       741  BMANNA    H3            -19.2383382511       28.5299573038       74.9244781904  LPSA21    21             15.0000000000
     22954       741  BMANNA    O3            -19.6079860813       26.9783625419       76.1938427287  LPSA21    21             15.0000000000
     22955       741  BMANNA    HO3           -20.2827803272       26.7202049226       76.8237079882  LPSA21    21             15.0000000000
     22956       741  BMANNA    C4            -21.1677546451       27.6328774765       74.4652435241  LPSA21    21             15.0000000000
     22957       741  BMANNA    H4            -22.0553751081       27.2159626347       75.0066647888  LPSA21    21             15.0000000000
     22958       741  BMANNA    O4            -20.7214918716       26.6337978955       73.5537205679  LPSA21    21             15.0000000000
     22959       741  BMANNA    HO4           -21.1196393103       25.7891753055       73.7821707807  LPSA21    21             15.0000000000
     22960       741  BMANNA    C6            -22.6191193724       28.4254221420       72.6146884275  LPSA21    21             15.0000000000
     22961       741  BMANNA    H61           -22.1150073230       27.8530513800       71.8047281230  LPSA21    21             15.0000000000
     22962       741  BMANNA    H62           -23.3726525024       27.7563417374       73.0767126105  LPSA21    21             15.0000000000
     22963       741  BMANNA    O6            -23.2778892574       29.5484178642       72.0507112249  LPSA21    21             15.0000000000
     22964       741  BMANNA    HO6           -23.7489749993       29.9878874384       72.7747142574  LPSA21    21             15.0000000000
     22965       742  BGLCNA    C1            -19.3851175985       33.2702045357       79.2373693581  LPSA21    22             15.0000000000
     22966       742  BGLCNA    H1            -19.5631826321       34.3664140650       79.2391933964  LPSA21    22             15.0000000000
     22967       742  BGLCNA    C5            -17.2178314895       33.6369169123       80.0913125005  LPSA21    22             15.0000000000
     22968       742  BGLCNA    H5            -17.4433974959       34.7352923272       80.1059846675  LPSA21    22             15.0000000000
     22969       742  BGLCNA    O5            -17.9919073041       33.0114163425       79.0567988317  LPSA21    22             15.0000000000
     22970       742  BGLCNA    C2            -19.8251154832       32.6756262297       80.5453418988  LPSA21    22             15.0000000000
     22971       742  BGLCNA    H2            -19.6158765744       31.5741032144       80.4971697636  LPSA21    22             15.0000000000
     22972       742  BGLCNA    N             -21.2371483944       32.8864831939       80.7221736020  LPSA21    22             15.0000000000
     22973       742  BGLCNA    HN            -21.6061856331       33.7383971427       80.3694951086  LPSA21    22             15.0000000000
     22974       742  BGLCNA    C             -22.0534916122       32.0407534109       81.3444634844  LPSA21    22             15.0000000000
     22975       742  BGLCNA    O             -21.7118496323       30.9876686551       81.8600850014  LPSA21    22             15.0000000000
     22976       742  BGLCNA    CT            -23.4772277635       32.4780244914       81.3897430859  LPSA21    22             15.0000000000
     22977       742  BGLCNA    HT1           -24.0023362447       32.0052295329       80.5392031351  LPSA21    22             15.0000000000
     22978       742  BGLCNA    HT2           -23.5056856151       33.5653925394       81.2204411558  LPSA21    22             15.0000000000
     22979       742  BGLCNA    HT3           -23.9726698629       32.2337460452       82.3512620569  LPSA21    22             15.0000000000
     22980       742  BGLCNA    C3            -19.0500297618       33.2993163484       81.6820388998  LPSA21    22             15.0000000000
     22981       742  BGLCNA    H3            -19.2050516690       34.4027734429       81.6471427209  LPSA21    22             15.0000000000
     22982       742  BGLCNA    O3            -19.6160416618       32.7916008376       82.8992667720  LPSA21    22             15.0000000000
     22983       742  BGLCNA    C4            -17.5879521005       33.0401990972       81.4526298537  LPSA21    22             15.0000000000
     22984       742  BGLCNA    H4            -17.4220520354       31.9395052216       81.4128844086  LPSA21    22             15.0000000000
     22985       742  BGLCNA    O4            -16.7776009730       33.5631362550       82.4991224891  LPSA21    22             15.0000000000
     22986       742  BGLCNA    HO4           -16.0689745339       32.9446058787       82.7313108881  LPSA21    22             15.0000000000
     22987       742  BGLCNA    C6            -15.7756484511       33.4165586483       79.7424812944  LPSA21    22             15.0000000000
     22988       742  BGLCNA    H61           -15.2067757393       33.5062878744       80.6696919626  LPSA21    22             15.0000000000
     22989       742  BGLCNA    H62           -15.5867840189       32.3749982820       79.4108544128  LPSA21    22             15.0000000000
     22990       742  BGLCNA    O6            -15.2705285877       34.3762694481       78.8073628328  LPSA21    22             15.0000000000
     22991       742  BGLCNA    HO6           -15.7854991382       34.2819608334       77.9936923538  LPSA21    22             15.0000000000
     22992       743  AGAL      C1            -19.3980175060       33.4767141578       84.1012052512  LPSA21    23             16.0000000000
     22993       743  AGAL      H1            -18.3582073707       33.2856763849       84.4477618395  LPSA21    23             16.0000000000
     22994       743  AGAL      C5            -20.9665248158       35.2433997959       83.7289666511  LPSA21    23             16.0000000000
     22995       743  AGAL      H5            -21.2979971831       34.6920727839       82.8192381594  LPSA21    23             16.0000000000
     22996       743  AGAL      O5            -19.5940367912       34.8986067981       83.9957501376  LPSA21    23             16.0000000000
     22997       743  AGAL      C2            -20.3039952481       32.9228577194       85.1858155327  LPSA21    23             16.0000000000
     22998       743  AGAL      H2            -20.0412288352       33.4904302232       86.1060474216  LPSA21    23             16.0000000000
     22999       743  AGAL      O2            -20.0787290120       31.5165068277       85.4352773853  LPSA21    23             16.0000000000
     23000       743  AGAL      C3            -21.7581571524       33.2680618363       84.8775084365  LPSA21    23             16.0000000000
     23001       743  AGAL      H3            -21.9962862490       32.8994466004       83.8577506005  LPSA21    23             16.0000000000
     23002       743  AGAL      O3            -22.6980878010       32.6255145781       85.7302434403  LPSA21    23             16.0000000000
     23003       743  AGAL      HO3           -22.3734131865       32.6938775072       86.6327318763  LPSA21    23             16.0000000000
     23004       743  AGAL      C4            -21.8976648446       34.7848839666       84.8619151055  LPSA21    23             16.0000000000
     23005       743  AGAL      H4            -22.9414294427       35.0850851597       84.6238432633  LPSA21    23             16.0000000000
     23006       743  AGAL      O4            -21.5708681362       35.3867182923       86.1125790142  LPSA21    23             16.0000000000
     23007       743  AGAL      HO4           -21.2176840265       36.2658896351       85.8720994286  LPSA21    23             16.0000000000
     23008       743  AGAL      C6            -21.0137054490       36.7030112238       83.3329431714  LPSA21    23             16.0000000000
     23009       743  AGAL      H61           -20.2214232053       36.8868275267       82.5729089805  LPSA21    23             16.0000000000
     23010       743  AGAL      H62           -21.9775200362       36.9479065847       82.8281861868  LPSA21    23             16.0000000000
     23011       743  AGAL      O6            -20.7944497150       37.5752490666       84.4446939898  LPSA21    23             16.0000000000
     23012       743  AGAL      HO6           -20.8145934246       38.5098034343       84.1582019497  LPSA21    23             16.0000000000
     23013       744  ARHM      C1            -18.9969191322       31.1497812086       86.2824535653  LPSA21    24             17.0000000000
     23014       744  ARHM      H1            -18.2962722631       32.0110743440       86.3832190525  LPSA21    24             17.0000000000
     23015       744  ARHM      C5            -18.9684416768       28.8366432688       85.6420176889  LPSA21    24             17.0000000000
     23016       744  ARHM      H5            -19.8014321101       29.0716383190       84.9430131239  LPSA21    24             17.0000000000
     23017       744  ARHM      O5            -18.2006309935       30.0421532332       85.8133772382  LPSA21    24             17.0000000000
     23018       744  ARHM      C2            -19.6239327915       30.7924713521       87.6076707429  LPSA21    24             17.0000000000
     23019       744  ARHM      H2            -20.3003020499       31.6226947590       87.9313405564  LPSA21    24             17.0000000000
     23020       744  ARHM      O2            -18.6357710894       30.5192356413       88.6164070834  LPSA21    24             17.0000000000
     23021       744  ARHM      C3            -20.4736870084       29.5616017111       87.4394878421  LPSA21    24             17.0000000000
     23022       744  ARHM      H3            -21.2298360066       29.7793025267       86.6433513865  LPSA21    24             17.0000000000
     23023       744  ARHM      O3            -21.1942682562       29.2784841791       88.6423815094  LPSA21    24             17.0000000000
     23024       744  ARHM      HO3           -20.6727395130       28.6702626861       89.1709458332  LPSA21    24             17.0000000000
     23025       744  ARHM      C4            -19.5912925372       28.4182921068       86.9661371712  LPSA21    24             17.0000000000
     23026       744  ARHM      H4            -18.7592243265       28.2647939425       87.6980691063  LPSA21    24             17.0000000000
     23027       744  ARHM      O4            -20.3229896744       27.1993365700       86.8575636841  LPSA21    24             17.0000000000
     23028       744  ARHM      HO4           -19.7349912725       26.4483664821       87.0205782378  LPSA21    24             17.0000000000
     23029       744  ARHM      C6            -18.1035578888       27.7439992400       84.9711059466  LPSA21    24             17.0000000000
     23030       744  ARHM      H61           -18.7621626272       27.0210014118       84.4456771079  LPSA21    24             17.0000000000
     23031       744  ARHM      H62           -17.4276809066       28.2043888162       84.2225373436  LPSA21    24             17.0000000000
     23032       744  ARHM      H63           -17.4811496286       27.1726003589       85.6886159904  LPSA21    24             17.0000000000
     23033       745  ARHM      C1            -18.0308892171       31.6605069894       89.1492747019  LPSA21    25             18.0000000000
     23034       745  ARHM      H1            -18.2047530220       32.5204926056       88.4656505802  LPSA21    25             18.0000000000
     23035       745  ARHM      C5            -16.1903528746       30.5572519987       90.1987295212  LPSA21    25             18.0000000000
     23036       745  ARHM      H5            -16.5776959014       29.5734874786       89.8497724568  LPSA21    25             18.0000000000
     23037       745  ARHM      O5            -16.6021083428       31.5697846219       89.2652966241  LPSA21    25             18.0000000000
     23038       745  ARHM      C2            -18.6759477612       31.9635832225       90.4662869546  LPSA21    25             18.0000000000
     23039       745  ARHM      H2            -19.7919201934       31.9064281884       90.3672675769  LPSA21    25             18.0000000000
     23040       745  ARHM      O2            -18.2938536943       33.2720179355       90.8970797745  LPSA21    25             18.0000000000
     23041       745  ARHM      C3            -18.2679657541       30.9061853156       91.4550161024  LPSA21    25             18.0000000000
     23042       745  ARHM      H3            -18.6087123404       29.9067221544       91.0886254760  LPSA21    25             18.0000000000
     23043       745  ARHM      O3            -18.8609581563       31.2197582106       92.7127209886  LPSA21    25             18.0000000000
     23044       745  ARHM      C4            -16.7738859412       30.8496960617       91.5705258199  LPSA21    25             18.0000000000
     23045       745  ARHM      H4            -16.3678833649       31.8383445752       91.9106787424  LPSA21    25             18.0000000000
     23046       745  ARHM      O4            -16.3970013868       29.8458321338       92.5069077145  LPSA21    25             18.0000000000
     23047       745  ARHM      HO4           -15.6813274764       30.2092654058       93.0309967698  LPSA21    25             18.0000000000
     23048       745  ARHM      C6            -14.6531703635       30.4378498764       90.2101157020  LPSA21    25             18.0000000000
     23049       745  ARHM      H61           -14.2700471825       30.3321886113       89.1748416694  LPSA21    25             18.0000000000
     23050       745  ARHM      H62           -14.1881349694       31.3356163929       90.6639353794  LPSA21    25             18.0000000000
     23051       745  ARHM      H63           -14.3485393062       29.5461108927       90.7961364316  LPSA21    25             18.0000000000
     23052       746  BMANNA    C1            -19.0049798318       34.3138619063       90.2785560373  LPSA21    26             19.0000000000
     23053       746  BMANNA    H1            -19.9598830361       33.9469232539       89.8591170915  LPSA21    26             19.0000000000
     23054       746  BMANNA    C5            -19.0666759905       35.9991625126       88.5913841067  LPSA21    26             19.0000000000
     23055       746  BMANNA    H5            -19.9893954094       35.5316321505       88.1788371748  LPSA21    26             19.0000000000
     23056       746  BMANNA    O5            -18.2840033599       34.9651012321       89.2213443437  LPSA21    26             19.0000000000
     23057       746  BMANNA    C2            -19.3073979979       35.3107927554       91.3538991440  LPSA21    26             19.0000000000
     23058       746  BMANNA    H2            -19.8995667620       34.7528793450       92.1259069889  LPSA21    26             19.0000000000
     23059       746  BMANNA    N             -18.0827645568       35.8486354602       91.9349726786  LPSA21    26             19.0000000000
     23060       746  BMANNA    HN            -17.4434451371       36.2302112061       91.2695557835  LPSA21    26             19.0000000000
     23061       746  BMANNA    C             -17.7869165498       35.8742132317       93.2388579479  LPSA21    26             19.0000000000
     23062       746  BMANNA    O             -18.4804175255       35.3197269921       94.0793805517  LPSA21    26             19.0000000000
     23063       746  BMANNA    CT            -16.5890477944       36.6922116086       93.6541645735  LPSA21    26             19.0000000000
     23064       746  BMANNA    HT1           -15.8406441060       36.7224778900       92.8389228930  LPSA21    26             19.0000000000
     23065       746  BMANNA    HT2           -16.1037728785       36.3458409498       94.5935836778  LPSA21    26             19.0000000000
     23066       746  BMANNA    HT3           -16.9572328632       37.7166982121       93.8231316744  LPSA21    26             19.0000000000
     23067       746  BMANNA    C3            -20.2045229117       36.3722802358       90.7503914624  LPSA21    26             19.0000000000
     23068       746  BMANNA    H3            -21.1209745747       35.8861929240       90.3347049630  LPSA21    26             19.0000000000
     23069       746  BMANNA    O3            -20.6568065131       37.2724248587       91.7506618233  LPSA21    26             19.0000000000
     23070       746  BMANNA    HO3           -21.3230685887       36.8064251569       92.2755343152  LPSA21    26             19.0000000000
     23071       746  BMANNA    C4            -19.4670245293       37.0581765092       89.6160610474  LPSA21    26             19.0000000000
     23072       746  BMANNA    H4            -18.5443656581       37.5478683911       89.9779959612  LPSA21    26             19.0000000000
     23073       746  BMANNA    O4            -20.2797655201       38.0638326479       89.0205187125  LPSA21    26             19.0000000000
     23074       746  BMANNA    HO4           -20.2227287340       38.8654901767       89.5619503604  LPSA21    26             19.0000000000
     23075       746  BMANNA    C6            -18.2698370948       36.5034263468       87.3843047030  LPSA21    26             19.0000000000
     23076       746  BMANNA    H61           -17.7511021356       35.6432438709       86.9092012996  LPSA21    26             19.0000000000
     23077       746  BMANNA    H62           -18.9551936312       36.9495805710       86.6356060958  LPSA21    26             19.0000000000
     23078       746  BMANNA    O6            -17.2850828613       37.4901317201       87.6730794122  LPSA21    26             19.0000000000
     23079       746  BMANNA    HO6           -17.7206507719       38.1907414504       88.1726587506  LPSA21    26             19.0000000000
     23080       747  BGLCNA    C1            -19.3813768471       30.1719946652       93.4753012844  LPSA21    27             19.0000000000
     23081       747  BGLCNA    H1            -18.7460837698       29.2626838952       93.4363059834  LPSA21    27             19.0000000000
     23082       747  BGLCNA    C5            -21.2626996504       28.8271936258       93.9148965559  LPSA21    27             19.0000000000
     23083       747  BGLCNA    H5            -20.5586956993       27.9552533539       93.9386441715  LPSA21    27             19.0000000000
     23084       747  BGLCNA    O5            -20.7045137039       29.8383366215       93.0657722748  LPSA21    27             19.0000000000
     23085       747  BGLCNA    C2            -19.4164120916       30.7590543983       94.8711277379  LPSA21    27             19.0000000000
     23086       747  BGLCNA    H2            -20.1212853773       31.6310279452       94.8360294830  LPSA21    27             19.0000000000
     23087       747  BGLCNA    N             -18.1093270833       31.2498899362       95.3001227000  LPSA21    27             19.0000000000
     23088       747  BGLCNA    HN            -17.3254899279       30.6815721662       95.0873590261  LPSA21    27             19.0000000000
     23089       747  BGLCNA    C             -17.9822488177       32.4233316112       95.9670135110  LPSA21    27             19.0000000000
     23090       747  BGLCNA    O             -18.9341557777       32.9762322212       96.5142305898  LPSA21    27             19.0000000000
     23091       747  BGLCNA    CT            -16.6091864678       33.0575073497       96.0205069735  LPSA21    27             19.0000000000
     23092       747  BGLCNA    HT1           -15.9000331314       32.5039928709       95.3740674769  LPSA21    27             19.0000000000
     23093       747  BGLCNA    HT2           -16.2239125618       33.0937976929       97.0584307434  LPSA21    27             19.0000000000
     23094       747  BGLCNA    HT3           -16.6984275985       34.1074508651       95.6667430780  LPSA21    27             19.0000000000
     23095       747  BGLCNA    C3            -19.9895804031       29.7528269225       95.8238992013  LPSA21    27             19.0000000000
     23096       747  BGLCNA    H3            -19.3457726096       28.8421160590       95.7764173073  LPSA21    27             19.0000000000
     23097       747  BGLCNA    O3            -19.8998296440       30.3733381851       97.1277874065  LPSA21    27             19.0000000000
     23098       747  BGLCNA    C4            -21.3726320754       29.3600643153       95.3361624277  LPSA21    27             19.0000000000
     23099       747  BGLCNA    H4            -22.0469459193       30.2494219423       95.3341118624  LPSA21    27             19.0000000000
     23100       747  BGLCNA    O4            -21.9477034546       28.3397046255       96.1386752537  LPSA21    27             19.0000000000
     23101       747  BGLCNA    HO4           -21.4111132866       27.5463725286       96.0815540192  LPSA21    27             19.0000000000
     23102       747  BGLCNA    C6            -22.5525839558       28.3253149529       93.3043366699  LPSA21    27             19.0000000000
     23103       747  BGLCNA    H61           -22.8763581738       27.4371968607       93.8755228889  LPSA21    27             19.0000000000
     23104       747  BGLCNA    H62           -23.3794317006       29.0578150369       93.4351511534  LPSA21    27             19.0000000000
     23105       747  BGLCNA    O6            -22.3742116928       27.9783907873       91.9166665361  LPSA21    27             19.0000000000
     23106       747  BGLCNA    HO6           -23.2083436602       27.6994679046       91.5402751269  LPSA21    27             19.0000000000
     23107       748  AGAL      C1            -19.9971528208       29.5356337207       98.2429486005  LPSA21    28             20.0000000000
     23108       748  AGAL      H1            -21.0566125745       29.2083394093       98.3233179589  LPSA21    28             20.0000000000
     23109       748  AGAL      C5            -17.7466706609       28.7063535252       98.1291315933  LPSA21    28             20.0000000000
     23110       748  AGAL      H5            -17.5269147842       29.5501469607       97.4293673156  LPSA21    28             20.0000000000
     23111       748  AGAL      O5            -19.1586756509       28.3773471628       98.0600357561  LPSA21    28             20.0000000000
     23112       748  AGAL      C2            -19.6418955610       30.1694565205       99.6080751354  LPSA21    28             20.0000000000
     23113       748  AGAL      H2            -19.8086538028       29.3150174910      100.2929754053  LPSA21    28             20.0000000000
     23114       748  AGAL      O2            -20.4633555344       31.2399297819      100.1137147379  LPSA21    28             20.0000000000
     23115       748  AGAL      C3            -18.1714292824       30.5216601644       99.6854217946  LPSA21    28             20.0000000000
     23116       748  AGAL      H3            -17.9375595755       31.2083550410       98.8436803758  LPSA21    28             20.0000000000
     23117       748  AGAL      O3            -17.7720202233       31.2078116913      100.8711113708  LPSA21    28             20.0000000000
     23118       748  AGAL      HO3           -17.3954240274       32.0638912708      100.6216376842  LPSA21    28             20.0000000000
     23119       748  AGAL      C4            -17.3840766561       29.2550055146       99.4899348319  LPSA21    28             20.0000000000
     23120       748  AGAL      H4            -16.3030145978       29.5211383090       99.4901418516  LPSA21    28             20.0000000000
     23121       748  AGAL      O4            -17.6211564644       28.2930356444      100.5110828647  LPSA21    28             20.0000000000
     23122       748  AGAL      HO4           -16.8743990714       28.2755087883      101.1071033532  LPSA21    28             20.0000000000
     23123       748  AGAL      C6            -16.9018069529       27.5281175442       97.6538661956  LPSA21    28             20.0000000000
     23124       748  AGAL      H61           -17.0723779196       27.4133887641       96.5661870860  LPSA21    28             20.0000000000
     23125       748  AGAL      H62           -15.8138897605       27.6885349256       97.7945589303  LPSA21    28             20.0000000000
     23126       748  AGAL      O6            -17.1938833135       26.2941660123       98.3034367715  LPSA21    28             20.0000000000
     23127       748  AGAL      HO6           -17.9151464333       25.8465192648       97.8790256674  LPSA21    28             20.0000000000
     23128       749  ARHM      C1            -20.7243981117       31.0410346508      101.4953954960  LPSA21    29             21.0000000000
     23129       749  ARHM      H1            -19.9103521122       30.4576025355      101.9693768302  LPSA21    29             21.0000000000
     23130       749  ARHM      C5            -23.0601873552       31.0785840738      101.1113196683  LPSA21    29             21.0000000000
     23131       749  ARHM      H5            -22.8578282597       31.2435941171      100.0302161097  LPSA21    29             21.0000000000
     23132       749  ARHM      O5            -21.9688889461       30.3686565329      101.6960299051  LPSA21    29             21.0000000000
     23133       749  ARHM      C2            -20.7698396500       32.3680523790      102.1961721050  LPSA21    29             21.0000000000
     23134       749  ARHM      H2            -19.8153715422       32.8665599328      101.9466637710  LPSA21    29             21.0000000000
     23135       749  ARHM      O2            -20.8909881007       32.2318846804      103.6239284873  LPSA21    29             21.0000000000
     23136       749  ARHM      C3            -21.8859761474       33.1845161136      101.6342086115  LPSA21    29             21.0000000000
     23137       749  ARHM      H3            -21.6780577163       33.3171873357      100.5744790175  LPSA21    29             21.0000000000
     23138       749  ARHM      O3            -21.9271271899       34.4775071338      102.2355716307  LPSA21    29             21.0000000000
     23139       749  ARHM      HO3           -22.8552467562       34.7291390746      102.1819676553  LPSA21    29             21.0000000000
     23140       749  ARHM      C4            -23.1868630707       32.4302937734      101.7839925836  LPSA21    29             21.0000000000
     23141       749  ARHM      H4            -23.2915965480       32.2717071659      102.8532888615  LPSA21    29             21.0000000000
     23142       749  ARHM      O4            -24.3341595407       33.1643218444      101.3611565133  LPSA21    29             21.0000000000
     23143       749  ARHM      HO4           -24.3296703425       33.4505107069      100.4338013341  LPSA21    29             21.0000000000
     23144       749  ARHM      C6            -24.2211700451       30.0866911440      101.2369679276  LPSA21    29             21.0000000000
     23145       749  ARHM      H61           -23.8818822182       29.1288339621      100.7752908973  LPSA21    29             21.0000000000
     23146       749  ARHM      H62           -24.5136466718       29.8966009142      102.2867103464  LPSA21    29             21.0000000000
     23147       749  ARHM      H63           -25.0972536875       30.4524034716      100.6653424439  LPSA21    29             21.0000000000
     23148       750  ARHM      C1            -19.6988945324       32.2688172926      104.3725442403  LPSA21    30             22.0000000000
     23149       750  ARHM      H1            -19.1736677199       33.2307388484      104.1671704143  LPSA21    30             22.0000000000
     23150       750  ARHM      C5            -19.4053046612       29.9049615048      104.4969677997  LPSA21    30             22.0000000000
     23151       750  ARHM      H5            -20.3499414047       29.8328668163      103.9132535286  LPSA21    30             22.0000000000
     23152       750  ARHM      O5            -18.7994970359       31.1605614186      104.1571393917  LPSA21    30             22.0000000000
     23153       750  ARHM      C2            -20.1118329884       32.2534331795      105.8233059559  LPSA21    30             22.0000000000
     23154       750  ARHM      H2            -20.8369470161       33.0745836919      106.0274065142  LPSA21    30             22.0000000000
     23155       750  ARHM      O2            -18.9273616400       32.4019772622      106.5940103686  LPSA21    30             22.0000000000
     23156       750  ARHM      C3            -20.7546847447       30.9453888517      106.2239784978  LPSA21    30             22.0000000000
     23157       750  ARHM      H3            -21.6060320317       30.7839672767      105.5169328790  LPSA21    30             22.0000000000
     23158       750  ARHM      O3            -21.3297432644       31.0065514340      107.5445713443  LPSA21    30             22.0000000000
     23159       750  ARHM      C4            -19.7625833860       29.8383708481      105.9666701572  LPSA21    30             22.0000000000
     23160       750  ARHM      H4            -18.8299506334       29.9721401300      106.5549397723  LPSA21    30             22.0000000000
     23161       750  ARHM      O4            -20.2476037691       28.5591108068      106.3352688835  LPSA21    30             22.0000000000
     23162       750  ARHM      HO4           -20.8358967091       28.2027778101      105.6598855011  LPSA21    30             22.0000000000
     23163       750  ARHM      C6            -18.4936212109       28.7559651261      104.0523844798  LPSA21    30             22.0000000000
     23164       750  ARHM      H61           -19.0120245633       27.7922528871      104.2341285216  LPSA21    30             22.0000000000
     23165       750  ARHM      H62           -18.2954533895       28.8483633386      102.9703017892  LPSA21    30             22.0000000000
     23166       750  ARHM      H63           -17.5388288788       28.7713747961      104.6203286331  LPSA21    30             22.0000000000
     23167       751  BMANNA    C1            -18.5785759178       33.7108496646      106.9013275129  LPSA21    31             23.0000000000
     23168       751  BMANNA    H1            -19.4818498783       34.2985309493      107.1653171460  LPSA21    31             23.0000000000
     23169       751  BMANNA    C5            -17.3917937240       35.6554049445      106.2064798948  LPSA21    31             23.0000000000
     23170       751  BMANNA    H5            -18.3154828499       36.1920116822      106.5153662458  LPSA21    31             23.0000000000
     23171       751  BMANNA    O5            -17.8219455373       34.3280227278      105.8560647868  LPSA21    31             23.0000000000
     23172       751  BMANNA    C2            -17.6888273248       33.5721882705      108.0874602712  LPSA21    31             23.0000000000
     23173       751  BMANNA    H2            -18.3262823792       33.1718938146      108.9162432782  LPSA21    31             23.0000000000
     23174       751  BMANNA    N             -16.6274933845       32.6192927648      107.8287930104  LPSA21    31             23.0000000000
     23175       751  BMANNA    HN            -16.4004996644       32.4700586325      106.8691703154  LPSA21    31             23.0000000000
     23176       751  BMANNA    C             -16.0524321016       31.8979396468      108.7876058174  LPSA21    31             23.0000000000
     23177       751  BMANNA    O             -16.4095435633       31.9732150506      109.9543086691  LPSA21    31             23.0000000000
     23178       751  BMANNA    CT            -14.9575062848       30.9772329209      108.3336447962  LPSA21    31             23.0000000000
     23179       751  BMANNA    HT1           -14.3373736600       31.4976759098      107.5705146186  LPSA21    31             23.0000000000
     23180       751  BMANNA    HT2           -15.3941564481       30.0593613352      107.8942589662  LPSA21    31             23.0000000000
     23181       751  BMANNA    HT3           -14.3429946635       30.6595705396      109.1980191717  LPSA21    31             23.0000000000
     23182       751  BMANNA    C3            -17.2490327201       34.9549797940      108.4986150040  LPSA21    31             23.0000000000
     23183       751  BMANNA    H3            -18.1526844303       35.5819708577      108.6761789883  LPSA21    31             23.0000000000
     23184       751  BMANNA    O3            -16.5849218605       34.9209173677      109.7320852818  LPSA21    31             23.0000000000
     23185       751  BMANNA    HO3           -16.7611761472       34.0532629868      110.1268168745  LPSA21    31             23.0000000000
     23186       751  BMANNA    C4            -16.4636660871       35.6096826894      107.4001425997  LPSA21    31             23.0000000000
     23187       751  BMANNA    H4            -15.5604043670       35.0102727277      107.1214962970  LPSA21    31             23.0000000000
     23188       751  BMANNA    O4            -16.0368725720       36.9307698729      107.7229137580  LPSA21    31             23.0000000000
     23189       751  BMANNA    HO4           -16.6852584673       37.3849296624      108.2583805038  LPSA21    31             23.0000000000
     23190       751  BMANNA    C6            -16.7909928743       36.4409527191      105.0572827628  LPSA21    31             23.0000000000
     23191       751  BMANNA    H61           -16.6715636185       37.5145950742      105.3228778599  LPSA21    31             23.0000000000
     23192       751  BMANNA    H62           -15.7724229755       36.0757716467      104.8811229642  LPSA21    31             23.0000000000
     23193       751  BMANNA    O6            -17.5081303361       36.3102406792      103.8313247641  LPSA21    31             23.0000000000
     23194       751  BMANNA    HO6           -18.3430290454       36.7605969282      103.8021005310  LPSA21    31             23.0000000000
     23195       752  BGLCNA    C1            -20.4373302619       30.7993932280      108.6093650542  LPSA21    32             23.0000000000
     23196       752  BGLCNA    H1            -19.4607994828       31.2655676136      108.4002064895  LPSA21    32             23.0000000000
     23197       752  BGLCNA    C5            -19.2171745854       29.2314796884      109.9209381888  LPSA21    32             23.0000000000
     23198       752  BGLCNA    H5            -18.2831000209       29.7434083205      109.5803736973  LPSA21    32             23.0000000000
     23199       752  BGLCNA    O5            -20.2169326546       29.4223369080      108.9098035248  LPSA21    32             23.0000000000
     23200       752  BGLCNA    C2            -20.9881875839       31.4614166131      109.8525897803  LPSA21    32             23.0000000000
     23201       752  BGLCNA    H2            -21.8910430319       30.8674820869      110.1455431588  LPSA21    32             23.0000000000
     23202       752  BGLCNA    N             -21.3834982440       32.8227908077      109.5800766515  LPSA21    32             23.0000000000
     23203       752  BGLCNA    HN            -20.8467117626       33.2495980819      108.8733488184  LPSA21    32             23.0000000000
     23204       752  BGLCNA    C             -22.4470618323       33.4492143750      110.1057494962  LPSA21    32             23.0000000000
     23205       752  BGLCNA    O             -23.2070512412       32.9194781257      110.8953272104  LPSA21    32             23.0000000000
     23206       752  BGLCNA    CT            -22.6521397883       34.8308563733      109.5610744578  LPSA21    32             23.0000000000
     23207       752  BGLCNA    HT1           -22.0539384484       34.8693988131      108.6297837098  LPSA21    32             23.0000000000
     23208       752  BGLCNA    HT2           -22.2749445524       35.6100858127      110.2393815943  LPSA21    32             23.0000000000
     23209       752  BGLCNA    HT3           -23.7150229925       35.0502812906      109.3242711258  LPSA21    32             23.0000000000
     23210       752  BGLCNA    C3            -19.9276605255       31.3552612076      110.9220091714  LPSA21    32             23.0000000000
     23211       752  BGLCNA    H3            -18.9913237281       31.7634693483      110.4755910597  LPSA21    32             23.0000000000
     23212       752  BGLCNA    O3            -20.2270461499       32.1233687691      112.0974018913  LPSA21    32             23.0000000000
     23213       752  BGLCNA    C4            -19.7035056014       29.8871008912      111.1988623765  LPSA21    32             23.0000000000
     23214       752  BGLCNA    H4            -20.6798658818       29.4376661087      111.5055813027  LPSA21    32             23.0000000000
     23215       752  BGLCNA    O4            -18.7670944369       29.6655774499      112.2406147995  LPSA21    32             23.0000000000
     23216       752  BGLCNA    HO4           -19.2333308151       29.6861023950      113.0808560385  LPSA21    32             23.0000000000
     23217       752  BGLCNA    C6            -18.8686142842       27.7601124590      110.0409121384  LPSA21    32             23.0000000000
     23218       752  BGLCNA    H61           -17.9784602041       27.6027798561      110.6870629105  LPSA21    32             23.0000000000
     23219       752  BGLCNA    H62           -19.7279389083       27.2244796823      110.4911278877  LPSA21    32             23.0000000000
     23220       752  BGLCNA    O6            -18.5659176391       27.1628659649      108.7849744568  LPSA21    32             23.0000000000
     23221       752  BGLCNA    HO6           -18.0734990609       27.7958030051      108.2393690540  LPSA21    32             23.0000000000
     23222       753  AGAL      C1            -19.0780015660       32.7244753189      112.6809966245  LPSA21    33             24.0000000000
     23223       753  AGAL      H1            -18.2065662380       32.0424136850      112.6081460772  LPSA21    33             24.0000000000
     23224       753  AGAL      C5            -19.7234272255       34.9644789770      112.1903094956  LPSA21    33             24.0000000000
     23225       753  AGAL      H5            -20.6620504170       34.4778938453      111.8361700555  LPSA21    33             24.0000000000
     23226       753  AGAL      O5            -18.7020810231       33.9635257449      112.0467002485  LPSA21    33             24.0000000000
     23227       753  AGAL      C2            -19.3481594613       33.0199279054      114.1432013221  LPSA21    33             24.0000000000
     23228       753  AGAL      H2            -18.4522297623       33.5535528591      114.5279691062  LPSA21    33             24.0000000000
     23229       753  AGAL      O2            -19.4136568413       31.7870312846      114.8770696124  LPSA21    33             24.0000000000
     23230       753  AGAL      C3            -20.4930902162       34.0090386253      114.2956495481  LPSA21    33             24.0000000000
     23231       753  AGAL      H3            -21.3866030431       33.6612724588      113.7205161682  LPSA21    33             24.0000000000
     23232       753  AGAL      O3            -20.9664017980       34.1396641713      115.6312147053  LPSA21    33             24.0000000000
     23233       753  AGAL      HO3           -20.2848094816       34.3780864976      116.2491415719  LPSA21    33             24.0000000000
     23234       753  AGAL      C4            -20.0430777591       35.3038708122      113.6306983097  LPSA21    33             24.0000000000
     23235       753  AGAL      H4            -20.9197160096       35.9626888060      113.5502511697  LPSA21    33             24.0000000000
     23236       753  AGAL      O4            -18.9903318050       36.0127286041      114.2892243417  LPSA21    33             24.0000000000
     23237       753  AGAL      HO4           -18.4846663497       35.4495396776      114.8715482601  LPSA21    33             24.0000000000
     23238       753  AGAL      C6            -19.5496017091       36.1476494508      111.2405521482  LPSA21    33             24.0000000000
     23239       753  AGAL      H61           -19.6021006745       35.7343269864      110.2218528583  LPSA21    33             24.0000000000
     23240       753  AGAL      H62           -20.3569639101       36.8908294519      111.3656446416  LPSA21    33             24.0000000000
     23241       753  AGAL      O6            -18.3627633644       36.9122232289      111.3276579079  LPSA21    33             24.0000000000
     23242       753  AGAL      HO6           -17.5943890785       36.4751483520      110.9375076337  LPSA21    33             24.0000000000
     23243       754  ARHM      C1            -18.6310425837       31.7555169613      116.0563953924  LPSA21    34             25.0000000000
     23244       754  ARHM      H1            -18.8691535108       32.6613992132      116.6526729953  LPSA21    34             25.0000000000
     23245       754  ARHM      C5            -16.7051807320       30.6401318712      115.0729167078  LPSA21    34             25.0000000000
     23246       754  ARHM      H5            -17.1751999275       30.6786210782      114.0678550285  LPSA21    34             25.0000000000
     23247       754  ARHM      O5            -17.1950308192       31.7598496552      115.8442078416  LPSA21    34             25.0000000000
     23248       754  ARHM      C2            -19.0487245863       30.5019542193      116.8074263853  LPSA21    34             25.0000000000
     23249       754  ARHM      H2            -20.1674323677       30.4592318863      116.8527970368  LPSA21    34             25.0000000000
     23250       754  ARHM      O2            -18.5463825584       30.4521076879      118.1676405768  LPSA21    34             25.0000000000
     23251       754  ARHM      C3            -18.5906355221       29.2883809118      116.0021261690  LPSA21    34             25.0000000000
     23252       754  ARHM      H3            -19.0561025812       29.3281743706      114.9917340907  LPSA21    34             25.0000000000
     23253       754  ARHM      O3            -19.0170229385       28.0548058863      116.5929942134  LPSA21    34             25.0000000000
     23254       754  ARHM      HO3           -19.1972805345       27.3769091806      115.9382887510  LPSA21    34             25.0000000000
     23255       754  ARHM      C4            -17.0882922050       29.3493646812      115.7956698640  LPSA21    34             25.0000000000
     23256       754  ARHM      H4            -16.5693751642       29.3784099056      116.7836910473  LPSA21    34             25.0000000000
     23257       754  ARHM      O4            -16.6318747827       28.2048123340      115.0704492946  LPSA21    34             25.0000000000
     23258       754  ARHM      HO4           -16.5841797038       27.4665580105      115.7026106140  LPSA21    34             25.0000000000
     23259       754  ARHM      C6            -15.1623987129       30.6989913379      114.8404172625  LPSA21    34             25.0000000000
     23260       754  ARHM      H61           -14.5794532291       30.7194164820      115.7802745295  LPSA21    34             25.0000000000
     23261       754  ARHM      H62           -14.8425721671       29.7676424570      114.3270567543  LPSA21    34             25.0000000000
     23262       754  ARHM      H63           -14.8575419717       31.5419699657      114.1893151631  LPSA21    34             25.0000000000
     23263       755  ARHM      C1            -18.8642082440       31.5045049995      119.0617881564  LPSA21    35             26.0000000000
     23264       755  ARHM      H1            -19.9048497149       31.8567618947      118.8710547430  LPSA21    35             26.0000000000
     23265       755  ARHM      C5            -16.5687990793       32.1929976190      119.2016507035  LPSA21    35             26.0000000000
     23266       755  ARHM      H5            -16.2604339249       31.3855224168      118.5037483538  LPSA21    35             26.0000000000
     23267       755  ARHM      O5            -17.9316360157       32.6010131437      118.9486967641  LPSA21    35             26.0000000000
     23268       755  ARHM      C2            -18.7881442158       31.0141765116      120.5065458159  LPSA21    35             26.0000000000
     23269       755  ARHM      H2            -19.5014779859       30.1661987984      120.6582608917  LPSA21    35             26.0000000000
     23270       755  ARHM      O2            -19.1199031549       32.0821109586      121.4181106442  LPSA21    35             26.0000000000
     23271       755  ARHM      C3            -17.3967894132       30.5075882949      120.8208853536  LPSA21    35             26.0000000000
     23272       755  ARHM      H3            -17.1301849433       29.6930351175      120.1105521303  LPSA21    35             26.0000000000
     23273       755  ARHM      O3            -17.3286865260       29.9158221216      122.1199527805  LPSA21    35             26.0000000000
     23274       755  ARHM      HO3           -17.9471636185       30.3546348417      122.7230551516  LPSA21    35             26.0000000000
     23275       755  ARHM      C4            -16.4247045414       31.6603462640      120.6324981407  LPSA21    35             26.0000000000
     23276       755  ARHM      H4            -16.6897672386       32.4866906721      121.3238123041  LPSA21    35             26.0000000000
     23277       755  ARHM      O4            -15.0755928416       31.2651534196      120.8958775653  LPSA21    35             26.0000000000
     23278       755  ARHM      HO4           -14.9205961542       30.3826921197      120.5515925005  LPSA21    35             26.0000000000
     23279       755  ARHM      C6            -15.6493259524       33.3777268145      118.8527733347  LPSA21    35             26.0000000000
     23280       755  ARHM      H61           -15.6624754903       33.6185978472      117.7703066594  LPSA21    35             26.0000000000
     23281       755  ARHM      H62           -15.9712258435       34.2712897237      119.4130106383  LPSA21    35             26.0000000000
     23282       755  ARHM      H63           -14.5979229747       33.1115278004      119.0991895202  LPSA21    35             26.0000000000
     23283       756  BMANNA    C1            -20.4873083166       32.4065772185      121.4687318751  LPSA21    36             27.0000000000
     23284       756  BMANNA    H1            -21.1053460560       31.5467478208      121.1283590798  LPSA21    36             27.0000000000
     23285       756  BMANNA    C5            -22.2635192410       33.7659854708      120.7243271233  LPSA21    36             27.0000000000
     23286       756  BMANNA    H5            -22.8029655385       32.8340112657      120.4303578751  LPSA21    36             27.0000000000
     23287       756  BMANNA    O5            -20.8391811159       33.5281761460      120.6442292854  LPSA21    36             27.0000000000
     23288       756  BMANNA    C2            -20.7997946275       32.7312144021      122.9235254863  LPSA21    36             27.0000000000
     23289       756  BMANNA    H2            -20.5926550479       31.7840065401      123.4861126624  LPSA21    36             27.0000000000
     23290       756  BMANNA    N             -19.9964771983       33.8102976791      123.4879210181  LPSA21    36             27.0000000000
     23291       756  BMANNA    HN            -19.7935763572       34.5590232185      122.8733340833  LPSA21    36             27.0000000000
     23292       756  BMANNA    C             -19.7255613125       33.8752814009      124.8017898822  LPSA21    36             27.0000000000
     23293       756  BMANNA    O             -19.9502793105       32.9682426959      125.5793634670  LPSA21    36             27.0000000000
     23294       756  BMANNA    CT            -19.1091416326       35.1330853699      125.3339004798  LPSA21    36             27.0000000000
     23295       756  BMANNA    HT1           -19.5787060118       36.0143993331      124.8674916305  LPSA21    36             27.0000000000
     23296       756  BMANNA    HT2           -18.0175184317       35.1432323313      125.1436559402  LPSA21    36             27.0000000000
     23297       756  BMANNA    HT3           -19.2359342183       35.1712092349      126.4378267228  LPSA21    36             27.0000000000
     23298       756  BMANNA    C3            -22.2812111742       33.0026274246      123.0281655453  LPSA21    36             27.0000000000
     23299       756  BMANNA    H3            -22.7918166374       32.1070834672      122.6224361531  LPSA21    36             27.0000000000
     23300       756  BMANNA    O3            -22.7474455966       33.2757619001      124.3554878306  LPSA21    36             27.0000000000
     23301       756  BMANNA    HO3           -23.2608015800       32.5195868431      124.6805621772  LPSA21    36             27.0000000000
     23302       756  BMANNA    C4            -22.6688004783       34.1234836611      122.1311884388  LPSA21    36             27.0000000000
     23303       756  BMANNA    H4            -22.1711423952       35.0641606303      122.4552847396  LPSA21    36             27.0000000000
     23304       756  BMANNA    O4            -24.0627846444       34.3219856254      122.2189501556  LPSA21    36             27.0000000000
     23305       756  BMANNA    HO4           -24.1753795779       34.5791306116      123.1444168035  LPSA21    36             27.0000000000
     23306       756  BMANNA    C6            -22.6739517402       34.8084817218      119.7540614145  LPSA21    36             27.0000000000
     23307       756  BMANNA    H61           -22.3613569168       34.5099911842      118.7252211165  LPSA21    36             27.0000000000
     23308       756  BMANNA    H62           -23.7917870960       34.8590749345      119.7185713338  LPSA21    36             27.0000000000
     23309       756  BMANNA    O6            -22.1169043475       36.0736674959      120.1411976181  LPSA21    36             27.0000000000
     23310       756  BMANNA    HO6           -22.7897592137       36.5799001270      120.6151523664  LPSA21    36             27.0000000000
     23311       757  ECLIPA    HB6S            0.9157763959      -36.8798879456       20.4223707155  LPSA22    1               0.0000000000
     23312       757  ECLIPA    OB6             1.3019473167      -38.4248157364       21.7080054407  LPSA22    1               0.0000000000
     23313       757  ECLIPA    CB6             1.7717679533      -37.5296832144       20.6863109391  LPSA22    1               0.0000000000
     23314       757  ECLIPA    HB6R            2.5815851706      -36.8751526187       21.0860605572  LPSA22    1               0.0000000000
     23315       757  ECLIPA    CB5             2.3180314942      -38.1993773932       19.4291605329  LPSA22    1               0.0000000000
     23316       757  ECLIPA    OB5             1.2699269166      -39.0574926269       18.9493110237  LPSA22    1               0.0000000000
     23317       757  ECLIPA    HB5             3.2168024114      -38.7882836546       19.7108171135  LPSA22    1               0.0000000000
     23318       757  ECLIPA    CB1             1.6565977305      -39.7900320365       17.7864587352  LPSA22    1               0.0000000000
     23319       757  ECLIPA    HB1             2.5740290386      -40.3983742411       17.9691297138  LPSA22    1               0.0000000000
     23320       757  ECLIPA    OA6             0.6564791242      -40.6702308174       17.3545714470  LPSA22    1               0.0000000000
     23321       757  ECLIPA    CA6            -0.6955304904      -40.2356379867       17.5935324857  LPSA22    1               0.0000000000
     23322       757  ECLIPA    HA6R           -0.7711887842      -39.1432806864       17.7752341049  LPSA22    1               0.0000000000
     23323       757  ECLIPA    HA6S           -1.0907565413      -40.8126769073       18.4600561267  LPSA22    1               0.0000000000
     23324       757  ECLIPA    CB4             2.7259207769      -37.2074311199       18.3343764113  LPSA22    1               0.0000000000
     23325       757  ECLIPA    HB4             1.8791817650      -36.5308209958       18.0502507523  LPSA22    1               0.0000000000
     23326       757  ECLIPA    OB4             3.8787413795      -36.5151561935       18.8427964043  LPSA22    1               0.0000000000
     23327       757  ECLIPA    PB              3.7514556478      -34.9204566611       19.2941186973  LPSA22    1               0.0000000000
     23328       757  ECLIPA    OPB4            4.6588745554      -34.6853447732       20.4977797626  LPSA22    1               0.0000000000
     23329       757  ECLIPA    OPB3            2.2803874182      -34.7466087228       19.6531535608  LPSA22    1               0.0000000000
     23330       757  ECLIPA    OPB2            4.1690194548      -34.1320554632       18.0637824530  LPSA22    1               0.0000000000
     23331       757  ECLIPA    CB3             3.1222318546      -37.9947011362       17.1129090292  LPSA22    1               0.0000000000
     23332       757  ECLIPA    OB3             3.4118991100      -37.2062551627       15.9768668510  LPSA22    1               0.0000000000
     23333       757  ECLIPA    HB3             3.9586518899      -38.6868887669       17.3593549713  LPSA22    1               0.0000000000
     23334       757  ECLIPA    C71             4.5997835296      -36.6879265028       15.8267941008  LPSA22    1               0.0000000000
     23335       757  ECLIPA    O71             5.6168661860      -37.3301380028       16.1500302565  LPSA22    1               0.0000000000
     23336       757  ECLIPA    C72             4.4381740418      -36.0875524079       14.4004367393  LPSA22    1               0.0000000000
     23337       757  ECLIPA    H72R            4.2039444859      -36.7928110163       13.5962357822  LPSA22    1               0.0000000000
     23338       757  ECLIPA    H72S            5.2708943198      -35.5917644688       14.0549044362  LPSA22    1               0.0000000000
     23339       757  ECLIPA    CB2             1.9633534503      -38.8470343258       16.6660211711  LPSA22    1               0.0000000000
     23340       757  ECLIPA    HB2             1.0724977332      -38.1732252933       16.5114946933  LPSA22    1               0.0000000000
     23341       757  ECLIPA    NB2             2.2970039729      -39.5820801673       15.4463263429  LPSA22    1               0.0000000000
     23342       757  ECLIPA    HNB2            2.6782206937      -40.4874833453       15.5749034530  LPSA22    1               0.0000000000
     23343       757  ECLIPA    CA4            -1.2497369856      -41.8752709613       15.8947252439  LPSA22    1               0.0000000000
     23344       757  ECLIPA    HA4            -0.1506959284      -41.7922341348       15.7012624912  LPSA22    1               0.0000000000
     23345       757  ECLIPA    OA4            -1.4894156766      -42.8626773876       16.9210762853  LPSA22    1               0.0000000000
     23346       757  ECLIPA    HOA4           -1.0183673750      -42.6057776446       17.7089804869  LPSA22    1               0.0000000000
     23347       757  ECLIPA    CA5            -1.5470140137      -40.5321681027       16.3928848981  LPSA22    1               0.0000000000
     23348       757  ECLIPA    HA5            -2.6340484194      -40.4079023126       16.5959896711  LPSA22    1               0.0000000000
     23349       757  ECLIPA    OA5            -1.1480432350      -39.6026615973       15.3890232282  LPSA22    1               0.0000000000
     23350       757  ECLIPA    CA1            -1.8779672155      -39.7221947183       14.1571962386  LPSA22    1               0.0000000000
     23351       757  ECLIPA    HA1            -1.3208224042      -39.0640815312       13.4428837891  LPSA22    1               0.0000000000
     23352       757  ECLIPA    OA1            -3.2353352500      -39.3767826408       14.1800472094  LPSA22    1               0.0000000000
     23353       757  ECLIPA    OPA2           -4.3515135056      -38.2161633425       16.0015181665  LPSA22    1               0.0000000000
     23354       757  ECLIPA    OPA3           -2.2966397719      -37.1082988160       14.8936195331  LPSA22    1               0.0000000000
     23355       757  ECLIPA    OPA4           -4.4406747325      -37.2899152478       13.6045189253  LPSA22    1               0.0000000000
     23356       757  ECLIPA    PA             -3.5970013857      -37.8819741929       14.7188491042  LPSA22    1               0.0000000000
     23357       757  ECLIPA    CA3            -1.9905357879      -42.1171995080       14.6184322927  LPSA22    1               0.0000000000
     23358       757  ECLIPA    HA3            -3.0840538662      -42.2745092996       14.7542142324  LPSA22    1               0.0000000000
     23359       757  ECLIPA    OA3            -1.3025976665      -43.3662884639       14.5307452197  LPSA22    1               0.0000000000
     23360       757  ECLIPA    C31            -0.0376458702      -43.3676616531       14.1152648483  LPSA22    1               0.0000000000
     23361       757  ECLIPA    O31             0.3595396975      -42.8670825387       13.0926244102  LPSA22    1               0.0000000000
     23362       757  ECLIPA    C32             0.7252109953      -44.2837597793       15.0019240073  LPSA22    1               0.0000000000
     23363       757  ECLIPA    H32R            0.9256529493      -45.2825218097       14.7172127771  LPSA22    1               0.0000000000
     23364       757  ECLIPA    H32S            0.0421518223      -44.8555315517       15.6498157009  LPSA22    1               0.0000000000
     23365       757  ECLIPA    CA2            -1.6315718044      -41.0303084108       13.5806276769  LPSA22    1               0.0000000000
     23366       757  ECLIPA    HA2            -0.5634580556      -41.0001456906       13.3563231907  LPSA22    1               0.0000000000
     23367       757  ECLIPA    NA2            -2.3838393742      -41.0935609232       12.3180657063  LPSA22    1               0.0000000000
     23368       757  ECLIPA    HNA2           -2.7832857892      -41.9831886252       12.1684627372  LPSA22    1               0.0000000000
     23369       757  ECLIPA    C73             3.7063448941      -34.7582894615       14.3412175537  LPSA22    1               0.0000000000
     23370       757  ECLIPA    H73R            3.9985915208      -34.1782033905       15.2651640113  LPSA22    1               0.0000000000
     23371       757  ECLIPA    O73             2.3865820299      -35.2131318760       14.2771663111  LPSA22    1               0.0000000000
     23372       757  ECLIPA    C81             1.5007125248      -34.5471753318       14.9626528753  LPSA22    1               0.0000000000
     23373       757  ECLIPA    O81             1.7197878093      -33.4931971648       15.5391908893  LPSA22    1               0.0000000000
     23374       757  ECLIPA    C82             0.1544708614      -34.9501802240       14.3456526779  LPSA22    1               0.0000000000
     23375       757  ECLIPA    H82R           -0.6476282442      -34.4046727134       14.8705386568  LPSA22    1               0.0000000000
     23376       757  ECLIPA    H82S           -0.0021363515      -36.0308285317       14.5596129537  LPSA22    1               0.0000000000
     23377       757  ECLIPA    C83             0.0633044679      -34.7351812973       12.8108565730  LPSA22    1               0.0000000000
     23378       757  ECLIPA    H83R            0.5553259396      -35.5919779132       12.2924267072  LPSA22    1               0.0000000000
     23379       757  ECLIPA    H83S            0.6091548332      -33.8107183525       12.5382895321  LPSA22    1               0.0000000000
     23380       757  ECLIPA    C84            -1.3843129749      -34.6990035144       12.2910959431  LPSA22    1               0.0000000000
     23381       757  ECLIPA    H84R           -1.8959180290      -33.7644105622       12.5992341940  LPSA22    1               0.0000000000
     23382       757  ECLIPA    H84S           -1.9107177701      -35.5701017820       12.7640751038  LPSA22    1               0.0000000000
     23383       757  ECLIPA    C85            -1.4715300542      -34.8991707083       10.7694370269  LPSA22    1               0.0000000000
     23384       757  ECLIPA    H85R           -0.7487490351      -35.7162415233       10.5443931382  LPSA22    1               0.0000000000
     23385       757  ECLIPA    H85S           -1.1131737773      -33.9955301035       10.2346598368  LPSA22    1               0.0000000000
     23386       757  ECLIPA    C86            -2.8527958822      -35.3966248479       10.2852879828  LPSA22    1               0.0000000000
     23387       757  ECLIPA    H86R           -3.5105625957      -34.5487061382        9.9924657965  LPSA22    1               0.0000000000
     23388       757  ECLIPA    H86S           -3.3674248886      -35.9186303718       11.1295073994  LPSA22    1               0.0000000000
     23389       757  ECLIPA    C87            -2.7440671175      -36.4433888263        9.1579646964  LPSA22    1               0.0000000000
     23390       757  ECLIPA    H87R           -3.7602803535      -36.7082668229        8.7948613292  LPSA22    1               0.0000000000
     23391       757  ECLIPA    H87S           -2.3079258589      -37.3781237107        9.5783715466  LPSA22    1               0.0000000000
     23392       757  ECLIPA    C88            -1.8297127735      -35.9911217451        8.0196632506  LPSA22    1               0.0000000000
     23393       757  ECLIPA    H88R           -0.7743645176      -36.0880803549        8.3492933388  LPSA22    1               0.0000000000
     23394       757  ECLIPA    H88S           -1.9814351627      -34.8981579962        7.8790900395  LPSA22    1               0.0000000000
     23395       757  ECLIPA    C89            -2.0285512106      -36.7849438950        6.7149241548  LPSA22    1               0.0000000000
     23396       757  ECLIPA    H89R           -2.5133314960      -37.7692757423        6.8944787695  LPSA22    1               0.0000000000
     23397       757  ECLIPA    H89S           -1.0425446736      -37.0177614926        6.2584340026  LPSA22    1               0.0000000000
     23398       757  ECLIPA    C810           -2.8124260717      -35.9530064763        5.6964861757  LPSA22    1               0.0000000000
     23399       757  ECLIPA    H810R          -2.5924955876      -34.8897444557        5.9305759492  LPSA22    1               0.0000000000
     23400       757  ECLIPA    H810S          -3.8977345381      -36.1336847287        5.8635108185  LPSA22    1               0.0000000000
     23401       757  ECLIPA    C811           -2.4442669080      -36.2484401520        4.2344010089  LPSA22    1               0.0000000000
     23402       757  ECLIPA    H811R          -3.2526638298      -35.9214359588        3.5393749917  LPSA22    1               0.0000000000
     23403       757  ECLIPA    H811S          -2.3208400414      -37.3513933839        4.1535890350  LPSA22    1               0.0000000000
     23404       757  ECLIPA    C812           -1.1282433103      -35.6295590469        3.7357311710  LPSA22    1               0.0000000000
     23405       757  ECLIPA    H812R          -0.9483917697      -36.0484226848        2.7146226916  LPSA22    1               0.0000000000
     23406       757  ECLIPA    H812S          -0.3015420615      -35.9382885227        4.4084421957  LPSA22    1               0.0000000000
     23407       757  ECLIPA    C813           -1.0965768918      -34.1027937795        3.6412862611  LPSA22    1               0.0000000000
     23408       757  ECLIPA    H813R          -1.8864222678      -33.7857959114        2.9283419185  LPSA22    1               0.0000000000
     23409       757  ECLIPA    H813S          -1.3058041096      -33.6293864070        4.6279749895  LPSA22    1               0.0000000000
     23410       757  ECLIPA    C814            0.2491325138      -33.5806237531        3.1513305773  LPSA22    1               0.0000000000
     23411       757  ECLIPA    H814R           0.5866747089      -34.1289923052        2.2528138193  LPSA22    1               0.0000000000
     23412       757  ECLIPA    H814S           1.0164296764      -33.7071205356        3.9389513861  LPSA22    1               0.0000000000
     23413       757  ECLIPA    H814T           0.1782981191      -32.5056219952        2.8946918074  LPSA22    1               0.0000000000
     23414       757  ECLIPA    C74             3.9600739689      -33.8370863398       13.0977867818  LPSA22    1               0.0000000000
     23415       757  ECLIPA    H74R            4.9309895603      -33.3692310212       12.8966641446  LPSA22    1               0.0000000000
     23416       757  ECLIPA    H74S            3.3247632501      -32.9519674419       13.3141786567  LPSA22    1               0.0000000000
     23417       757  ECLIPA    C75             3.5554278513      -34.4571587286       11.7552176992  LPSA22    1               0.0000000000
     23418       757  ECLIPA    H75R            3.1180815120      -33.6229986683       11.1695472054  LPSA22    1               0.0000000000
     23419       757  ECLIPA    H75S            2.7709093733      -35.2097420165       11.9597643418  LPSA22    1               0.0000000000
     23420       757  ECLIPA    C76             4.6667930681      -35.1289549182       10.9311657156  LPSA22    1               0.0000000000
     23421       757  ECLIPA    H76R            4.9206677085      -36.1184221053       11.3739207577  LPSA22    1               0.0000000000
     23422       757  ECLIPA    H76S            5.5914884340      -34.5190367562       10.9072056795  LPSA22    1               0.0000000000
     23423       757  ECLIPA    C77             4.3221679942      -35.3128395890        9.4453055878  LPSA22    1               0.0000000000
     23424       757  ECLIPA    H77R            4.2572293695      -34.3026429461        8.9849598617  LPSA22    1               0.0000000000
     23425       757  ECLIPA    H77S            3.3475571083      -35.7902321994        9.3041430597  LPSA22    1               0.0000000000
     23426       757  ECLIPA    C78             5.3475678650      -36.2548146232        8.8046314590  LPSA22    1               0.0000000000
     23427       757  ECLIPA    H78R            6.3156703627      -35.8617493114        9.0729588800  LPSA22    1               0.0000000000
     23428       757  ECLIPA    H78S            5.3050308831      -37.2254027273        9.3302479221  LPSA22    1               0.0000000000
     23429       757  ECLIPA    C79             5.2285589978      -36.5557374965        7.3107398303  LPSA22    1               0.0000000000
     23430       757  ECLIPA    H79R            4.6827138902      -37.5065518918        7.1729280665  LPSA22    1               0.0000000000
     23431       757  ECLIPA    H79S            6.1852912650      -36.7612509637        6.8013606640  LPSA22    1               0.0000000000
     23432       757  ECLIPA    C710            4.6087788480      -35.4444709603        6.5290607765  LPSA22    1               0.0000000000
     23433       757  ECLIPA    H710R           3.6040934583      -35.1659707572        6.8945591197  LPSA22    1               0.0000000000
     23434       757  ECLIPA    H710S           5.2641060791      -34.5507445296        6.5073915885  LPSA22    1               0.0000000000
     23435       757  ECLIPA    C711            4.4562880713      -35.8604846123        5.1325638536  LPSA22    1               0.0000000000
     23436       757  ECLIPA    H711R           5.4936444171      -36.1133075372        4.7829770546  LPSA22    1               0.0000000000
     23437       757  ECLIPA    H711S           3.7952533558      -36.7517523671        4.9784788371  LPSA22    1               0.0000000000
     23438       757  ECLIPA    C712            3.7444061862      -34.6988148767        4.5325586250  LPSA22    1               0.0000000000
     23439       757  ECLIPA    H712R           4.4128857662      -33.8118692129        4.3266584381  LPSA22    1               0.0000000000
     23440       757  ECLIPA    H712S           2.8067837443      -34.3758273150        5.0173609873  LPSA22    1               0.0000000000
     23441       757  ECLIPA    C713            3.3618180425      -35.2641617143        3.3095897727  LPSA22    1               0.0000000000
     23442       757  ECLIPA    H713R           2.6231118761      -36.0551461355        3.0586432723  LPSA22    1               0.0000000000
     23443       757  ECLIPA    H713S           2.7820073240      -34.3411413887        3.0185481789  LPSA22    1               0.0000000000
     23444       757  ECLIPA    C714            4.7880808405      -35.5354734590        2.7802045298  LPSA22    1               0.0000000000
     23445       757  ECLIPA    H714R           5.2238248686      -34.6649153635        2.2862578833  LPSA22    1               0.0000000000
     23446       757  ECLIPA    H714S           5.1678212637      -36.5494605605        2.5453322946  LPSA22    1               0.0000000000
     23447       757  ECLIPA    H714T           4.7037424141      -35.8299799465        1.8689097097  LPSA22    1               0.0000000000
     23448       757  ECLIPA    C51             2.0707459399      -39.0666262825       14.2282754677  LPSA22    1               0.0000000000
     23449       757  ECLIPA    O51             1.3730768258      -38.0827375484       14.0745344571  LPSA22    1               0.0000000000
     23450       757  ECLIPA    C52             2.7930335674      -39.7041067209       13.0552495633  LPSA22    1               0.0000000000
     23451       757  ECLIPA    H52R            3.7955868381      -39.2435541986       12.9246144839  LPSA22    1               0.0000000000
     23452       757  ECLIPA    H52S            2.9130143044      -40.7803047119       13.2455403887  LPSA22    1               0.0000000000
     23453       757  ECLIPA    C53             1.9800936939      -39.5006596371       11.7594660012  LPSA22    1               0.0000000000
     23454       757  ECLIPA    H53R            0.8850423481      -39.5311312477       11.9836950828  LPSA22    1               0.0000000000
     23455       757  ECLIPA    O53             2.4025984108      -40.5327985229       10.8497531316  LPSA22    1               0.0000000000
     23456       757  ECLIPA    C61             1.5270495425      -41.4846744257       10.5376468146  LPSA22    1               0.0000000000
     23457       757  ECLIPA    O61             0.3406326550      -41.4806640205       10.7700495481  LPSA22    1               0.0000000000
     23458       757  ECLIPA    C62             2.1975177340      -42.4980429338        9.6005707574  LPSA22    1               0.0000000000
     23459       757  ECLIPA    H62R            2.7559407432      -43.2230669780       10.2202387091  LPSA22    1               0.0000000000
     23460       757  ECLIPA    H62S            2.9411538773      -41.9317028561        9.0102033866  LPSA22    1               0.0000000000
     23461       757  ECLIPA    C63             1.1555073871      -43.2345602823        8.7101353876  LPSA22    1               0.0000000000
     23462       757  ECLIPA    H63R            0.4617418682      -42.4845153765        8.2747300099  LPSA22    1               0.0000000000
     23463       757  ECLIPA    H63S            0.5543455480      -43.9442532576        9.3163176052  LPSA22    1               0.0000000000
     23464       757  ECLIPA    C64             1.7233225180      -44.0161419450        7.5188790785  LPSA22    1               0.0000000000
     23465       757  ECLIPA    H64R            0.8665776226      -44.5226035656        7.0283215960  LPSA22    1               0.0000000000
     23466       757  ECLIPA    H64S            2.4327892902      -44.7712782817        7.9212084660  LPSA22    1               0.0000000000
     23467       757  ECLIPA    C65             2.4188570158      -43.0843768003        6.5246693857  LPSA22    1               0.0000000000
     23468       757  ECLIPA    H65R            3.2394393842      -42.6407265320        7.1345710261  LPSA22    1               0.0000000000
     23469       757  ECLIPA    H65S            1.7333860984      -42.2687153146        6.2145288309  LPSA22    1               0.0000000000
     23470       757  ECLIPA    C66             3.0804469204      -43.6773279051        5.2619448771  LPSA22    1               0.0000000000
     23471       757  ECLIPA    H66R            3.8001372369      -44.4709896631        5.5538333756  LPSA22    1               0.0000000000
     23472       757  ECLIPA    H66S            3.6435854059      -42.8241608880        4.8142348024  LPSA22    1               0.0000000000
     23473       757  ECLIPA    C67             2.2229428851      -44.1761958645        4.0910471386  LPSA22    1               0.0000000000
     23474       757  ECLIPA    H67R            1.4091926525      -44.8026633500        4.3369279975  LPSA22    1               0.0000000000
     23475       757  ECLIPA    H67S            2.8039629699      -44.7363080856        3.3322572512  LPSA22    1               0.0000000000
     23476       757  ECLIPA    C68             1.2706543308      -43.1934068788        3.4772359934  LPSA22    1               0.0000000000
     23477       757  ECLIPA    H68R            1.9245647421      -42.3800501836        3.1361470242  LPSA22    1               0.0000000000
     23478       757  ECLIPA    H68S            0.5602897832      -42.8627051608        4.2767370908  LPSA22    1               0.0000000000
     23479       757  ECLIPA    C69             0.5573963810      -43.8297479897        2.2803455420  LPSA22    1               0.0000000000
     23480       757  ECLIPA    H69R            0.3660613115      -44.9244225173        2.3799697493  LPSA22    1               0.0000000000
     23481       757  ECLIPA    H69S            1.2756063869      -43.7412071782        1.4437064398  LPSA22    1               0.0000000000
     23482       757  ECLIPA    C610           -0.7510624761      -43.1222813077        1.9540816714  LPSA22    1               0.0000000000
     23483       757  ECLIPA    H610R          -0.6222992090      -42.0243953964        2.0263953554  LPSA22    1               0.0000000000
     23484       757  ECLIPA    H610S          -1.5045781925      -43.4270445112        2.7002054992  LPSA22    1               0.0000000000
     23485       757  ECLIPA    C611           -1.2630660917      -43.5121205831        0.5828667346  LPSA22    1               0.0000000000
     23486       757  ECLIPA    H611R          -1.3042673382      -44.6012762110        0.6067983976  LPSA22    1               0.0000000000
     23487       757  ECLIPA    H611S          -2.3018915812      -43.1715848327        0.4341184791  LPSA22    1               0.0000000000
     23488       757  ECLIPA    C612           -0.3777964114      -43.0028933878       -0.5407343998  LPSA22    1               0.0000000000
     23489       757  ECLIPA    H612R          -0.5122901869      -41.9121233685       -0.6295714255  LPSA22    1               0.0000000000
     23490       757  ECLIPA    H612S           0.6920679500      -43.2348918320       -0.3685786597  LPSA22    1               0.0000000000
     23491       757  ECLIPA    H612T          -0.6540408591      -43.3887541829       -1.5179891405  LPSA22    1               0.0000000000
     23492       757  ECLIPA    C54             2.3511244859      -38.1133888632       11.1696839190  LPSA22    1               0.0000000000
     23493       757  ECLIPA    H54R            3.4238672203      -38.1614145315       10.8820784753  LPSA22    1               0.0000000000
     23494       757  ECLIPA    H54S            2.2487197591      -37.3618370373       11.9792037087  LPSA22    1               0.0000000000
     23495       757  ECLIPA    C55             1.5209556935      -37.6296303954        9.9653294832  LPSA22    1               0.0000000000
     23496       757  ECLIPA    H55R            1.6673154998      -36.5379733446        9.8244258284  LPSA22    1               0.0000000000
     23497       757  ECLIPA    H55S            0.4418120061      -37.7614627470       10.2039378595  LPSA22    1               0.0000000000
     23498       757  ECLIPA    C56             1.9786704397      -38.3518332287        8.6913749303  LPSA22    1               0.0000000000
     23499       757  ECLIPA    H56R            1.8954209225      -39.4410049464        8.8608642572  LPSA22    1               0.0000000000
     23500       757  ECLIPA    H56S            3.0544455643      -38.1312974381        8.5050332629  LPSA22    1               0.0000000000
     23501       757  ECLIPA    C57             1.1981001242      -38.0980272151        7.4044275597  LPSA22    1               0.0000000000
     23502       757  ECLIPA    H57R            1.1243504809      -37.0126429747        7.1802444332  LPSA22    1               0.0000000000
     23503       757  ECLIPA    H57S            0.1591228064      -38.4733580166        7.5433499629  LPSA22    1               0.0000000000
     23504       757  ECLIPA    C58             1.8566663942      -38.8732462815        6.2433663805  LPSA22    1               0.0000000000
     23505       757  ECLIPA    H58R            2.9548385297      -38.7191006432        6.2202251650  LPSA22    1               0.0000000000
     23506       757  ECLIPA    H58S            1.7188893954      -39.9565839675        6.4615816456  LPSA22    1               0.0000000000
     23507       757  ECLIPA    C59             1.2745222439      -38.4770727566        4.8767565333  LPSA22    1               0.0000000000
     23508       757  ECLIPA    H59R            1.3810246629      -37.3792072791        4.7205673775  LPSA22    1               0.0000000000
     23509       757  ECLIPA    H59S            0.1868329210      -38.6941871465        4.9606948144  LPSA22    1               0.0000000000
     23510       757  ECLIPA    C510            1.9588019384      -39.1215135725        3.6462753368  LPSA22    1               0.0000000000
     23511       757  ECLIPA    H510R           2.1086609590      -40.2108065431        3.8196496555  LPSA22    1               0.0000000000
     23512       757  ECLIPA    H510S           2.9682594031      -38.6667588878        3.5168316507  LPSA22    1               0.0000000000
     23513       757  ECLIPA    C511            1.1738218261      -38.9013956178        2.3319243753  LPSA22    1               0.0000000000
     23514       757  ECLIPA    H511R           0.3508188358      -39.6486779690        2.3056432931  LPSA22    1               0.0000000000
     23515       757  ECLIPA    H511S           0.7315887772      -37.8955285234        2.2627293420  LPSA22    1               0.0000000000
     23516       757  ECLIPA    C512            1.9424995739      -39.0281030797        1.0313923266  LPSA22    1               0.0000000000
     23517       757  ECLIPA    H512R           1.5274153320      -38.5388455964        0.1355152551  LPSA22    1               0.0000000000
     23518       757  ECLIPA    H512S           3.0230146853      -38.7241411425        1.1231737957  LPSA22    1               0.0000000000
     23519       757  ECLIPA    C513            1.6863090086      -40.3474776867        0.4274154419  LPSA22    1               0.0000000000
     23520       757  ECLIPA    H513R           0.8407705697      -40.9574568056        0.2001571103  LPSA22    1               0.0000000000
     23521       757  ECLIPA    H513S           1.6289757705      -40.9155871069        1.4034869171  LPSA22    1               0.0000000000
     23522       757  ECLIPA    C514            2.6469799960      -40.3989931821       -0.7766885366  LPSA22    1               0.0000000000
     23523       757  ECLIPA    H514R           3.6746816166      -39.9705597784       -0.7029553570  LPSA22    1               0.0000000000
     23524       757  ECLIPA    H514S           2.9258114671      -41.3778807673       -0.8106858256  LPSA22    1               0.0000000000
     23525       757  ECLIPA    H514T           2.2582430701      -40.4091736572       -1.7924754009  LPSA22    1               0.0000000000
     23526       757  ECLIPA    C33             2.1913016841      -44.1125104834       14.6993674101  LPSA22    1               0.0000000000
     23527       757  ECLIPA    H33R            2.7364773585      -45.0462988772       14.9999259355  LPSA22    1               0.0000000000
     23528       757  ECLIPA    O33             2.3322168752      -43.1162236154       15.6508873799  LPSA22    1               0.0000000000
     23529       757  ECLIPA    HO33            1.8921310934      -43.4949269285       16.4248042802  LPSA22    1               0.0000000000
     23530       757  ECLIPA    C34             2.7838568816      -43.7441890569       13.2827809778  LPSA22    1               0.0000000000
     23531       757  ECLIPA    H34R            2.3714176784      -42.8370904516       12.8223008985  LPSA22    1               0.0000000000
     23532       757  ECLIPA    H34S            2.6731374197      -44.5236868164       12.4933828725  LPSA22    1               0.0000000000
     23533       757  ECLIPA    C35             4.2216791854      -43.3323649833       13.4510287522  LPSA22    1               0.0000000000
     23534       757  ECLIPA    H35R            4.7042092403      -44.2438652719       13.8047036735  LPSA22    1               0.0000000000
     23535       757  ECLIPA    H35S            4.2045120611      -42.5885906432       14.2758663103  LPSA22    1               0.0000000000
     23536       757  ECLIPA    C36             4.8475505617      -42.7376666999       12.1962886690  LPSA22    1               0.0000000000
     23537       757  ECLIPA    H36R            4.0068730294      -42.2457062264       11.6625290914  LPSA22    1               0.0000000000
     23538       757  ECLIPA    H36S            5.2500716532      -43.5297507591       11.5178023141  LPSA22    1               0.0000000000
     23539       757  ECLIPA    C37             5.8871934257      -41.6541177228       12.5228830990  LPSA22    1               0.0000000000
     23540       757  ECLIPA    H37R            6.8595302602      -42.1631522842       12.6314677524  LPSA22    1               0.0000000000
     23541       757  ECLIPA    H37S            5.5623950304      -41.1945468142       13.4755507029  LPSA22    1               0.0000000000
     23542       757  ECLIPA    C38             6.0578343169      -40.5801350924       11.4397072118  LPSA22    1               0.0000000000
     23543       757  ECLIPA    H38R            5.2069723437      -39.8606256983       11.4176351065  LPSA22    1               0.0000000000
     23544       757  ECLIPA    H38S            6.9723892627      -39.9885782839       11.6555408490  LPSA22    1               0.0000000000
     23545       757  ECLIPA    C39             6.1556479520      -41.1947950950       10.0341610614  LPSA22    1               0.0000000000
     23546       757  ECLIPA    H39R            5.2607879325      -41.8277167395        9.8217646289  LPSA22    1               0.0000000000
     23547       757  ECLIPA    H39S            7.0740463512      -41.8226798523        9.9722876833  LPSA22    1               0.0000000000
     23548       757  ECLIPA    C310            6.2492232266      -40.1914927320        8.8800065833  LPSA22    1               0.0000000000
     23549       757  ECLIPA    H310R           7.2558261117      -39.7220907637        8.9568819248  LPSA22    1               0.0000000000
     23550       757  ECLIPA    H310S           5.4765951220      -39.3978378768        8.9606331909  LPSA22    1               0.0000000000
     23551       757  ECLIPA    C311            5.9757376724      -40.8676602870        7.5192577326  LPSA22    1               0.0000000000
     23552       757  ECLIPA    H311R           6.3728633873      -41.9072606678        7.5293331975  LPSA22    1               0.0000000000
     23553       757  ECLIPA    H311S           4.8725893457      -40.9384266777        7.3668349462  LPSA22    1               0.0000000000
     23554       757  ECLIPA    C312            6.5161675893      -40.1033413544        6.3051863296  LPSA22    1               0.0000000000
     23555       757  ECLIPA    H312R           6.4446769049      -39.0085197373        6.4859235641  LPSA22    1               0.0000000000
     23556       757  ECLIPA    H312S           7.5890229661      -40.3707877657        6.1810507336  LPSA22    1               0.0000000000
     23557       757  ECLIPA    C313            5.7640115848      -40.4549583370        5.0105119518  LPSA22    1               0.0000000000
     23558       757  ECLIPA    H313R           6.0718526961      -41.4917037831        4.7485750245  LPSA22    1               0.0000000000
     23559       757  ECLIPA    H313S           4.6607874916      -40.4580704855        5.1768391341  LPSA22    1               0.0000000000
     23560       757  ECLIPA    C314            6.0837639789      -39.5303034310        3.8368451789  LPSA22    1               0.0000000000
     23561       757  ECLIPA    H314R           7.1691665415      -39.5699229318        3.6132372827  LPSA22    1               0.0000000000
     23562       757  ECLIPA    H314S           5.5445581749      -39.8282509875        2.9190642527  LPSA22    1               0.0000000000
     23563       757  ECLIPA    H314T           5.7974180263      -38.4806764766        4.0567774390  LPSA22    1               0.0000000000
     23564       757  ECLIPA    C11            -2.5137078514      -40.2581995795       11.2781648095  LPSA22    1               0.0000000000
     23565       757  ECLIPA    O11            -1.7731099817      -39.3190618270       11.0416253887  LPSA22    1               0.0000000000
     23566       757  ECLIPA    C12            -3.6442633720      -40.5866384926       10.3418353801  LPSA22    1               0.0000000000
     23567       757  ECLIPA    H12R           -4.5285111592      -39.9834303603       10.5841190532  LPSA22    1               0.0000000000
     23568       757  ECLIPA    H12S           -3.9872599681      -41.6337404923       10.4493422897  LPSA22    1               0.0000000000
     23569       757  ECLIPA    C13            -3.2361890235      -40.2421406526        8.9116592718  LPSA22    1               0.0000000000
     23570       757  ECLIPA    H13R           -2.6791546945      -39.3336430354        8.6948811642  LPSA22    1               0.0000000000
     23571       757  ECLIPA    O13            -4.4836640092      -40.3087251417        8.2054158630  LPSA22    1               0.0000000000
     23572       757  ECLIPA    HO13           -4.4383693362      -40.0018563963        7.2971130927  LPSA22    1               0.0000000000
     23573       757  ECLIPA    C14            -2.1615946131      -41.1818292842        8.3803662849  LPSA22    1               0.0000000000
     23574       757  ECLIPA    H14R           -2.6075548133      -41.8829998830        8.9546577251  LPSA22    1               0.0000000000
     23575       757  ECLIPA    H14S           -1.1628879707      -41.3859774397        8.7512563423  LPSA22    1               0.0000000000
     23576       757  ECLIPA    C15            -2.2806398115      -41.5107222828        6.9859285965  LPSA22    1               0.0000000000
     23577       757  ECLIPA    H15R           -3.3848578339      -41.6402634648        6.9202597136  LPSA22    1               0.0000000000
     23578       757  ECLIPA    H15S           -1.7135998655      -42.3906052030        6.6108758259  LPSA22    1               0.0000000000
     23579       757  ECLIPA    C16            -1.4746749445      -40.7444463598        6.0773117829  LPSA22    1               0.0000000000
     23580       757  ECLIPA    H16R           -0.4237815047      -41.1246102696        6.2278833223  LPSA22    1               0.0000000000
     23581       757  ECLIPA    H16S           -1.6632647172      -39.7993545678        6.5902143607  LPSA22    1               0.0000000000
     23582       757  ECLIPA    C17            -1.9565154291      -40.9152118734        4.6475982247  LPSA22    1               0.0000000000
     23583       757  ECLIPA    H17R           -1.9662813463      -41.9551713907        4.3017580660  LPSA22    1               0.0000000000
     23584       757  ECLIPA    H17S           -1.2086239120      -40.4748311521        3.9792200833  LPSA22    1               0.0000000000
     23585       757  ECLIPA    C18            -3.3714525784      -40.3703210482        4.4541285760  LPSA22    1               0.0000000000
     23586       757  ECLIPA    H18R           -4.0917348938      -40.9369995467        5.0851492813  LPSA22    1               0.0000000000
     23587       757  ECLIPA    H18S           -3.3494333255      -39.3137909145        4.7933708197  LPSA22    1               0.0000000000
     23588       757  ECLIPA    C19            -3.8468588406      -40.4241705510        3.0101289845  LPSA22    1               0.0000000000
     23589       757  ECLIPA    H19R           -4.9052384471      -40.1039291374        2.9349479478  LPSA22    1               0.0000000000
     23590       757  ECLIPA    H19S           -3.7810699129      -41.4142356627        2.5092332786  LPSA22    1               0.0000000000
     23591       757  ECLIPA    C110           -2.9514503117      -39.6188633373        2.1195116171  LPSA22    1               0.0000000000
     23592       757  ECLIPA    H110R          -2.8765204053      -38.5609731232        2.4539097727  LPSA22    1               0.0000000000
     23593       757  ECLIPA    H110S          -1.9415594579      -40.0826069672        2.1234685805  LPSA22    1               0.0000000000
     23594       757  ECLIPA    C111           -3.5065519255      -39.7408382075        0.7182844795  LPSA22    1               0.0000000000
     23595       757  ECLIPA    H111R          -3.7519036892      -40.7619736792        0.4288067651  LPSA22    1               0.0000000000
     23596       757  ECLIPA    H111S          -4.4518418406      -39.1327666834        0.7263966203  LPSA22    1               0.0000000000
     23597       757  ECLIPA    C112           -2.4847226266      -39.3476698801       -0.3504290103  LPSA22    1               0.0000000000
     23598       757  ECLIPA    H112R          -2.3693116106      -38.4577728843        0.2470006054  LPSA22    1               0.0000000000
     23599       757  ECLIPA    H112S          -1.4113300666      -39.5197708778       -0.2439128699  LPSA22    1               0.0000000000
     23600       757  ECLIPA    C113           -3.1375259755      -39.6594634526       -1.7741409115  LPSA22    1               0.0000000000
     23601       757  ECLIPA    H113R          -2.8981796852      -40.7078974521       -1.9405809766  LPSA22    1               0.0000000000
     23602       757  ECLIPA    H113S          -4.2043073119      -39.4320187802       -1.6923935420  LPSA22    1               0.0000000000
     23603       757  ECLIPA    C114           -2.7337363734      -39.3309513701       -3.2326049943  LPSA22    1               0.0000000000
     23604       757  ECLIPA    H114R          -3.2991751497      -38.3758394481       -3.3982450662  LPSA22    1               0.0000000000
     23605       757  ECLIPA    H114S          -1.6777876368      -39.0532849396       -3.0295356488  LPSA22    1               0.0000000000
     23606       757  ECLIPA    H114T          -3.2664844170      -38.9108002546       -4.1112366681  LPSA22    1               0.0000000000
     23607       758  AKDO      C1              3.5278408882      -38.9500093756       22.2104754803  LPSA22    2               0.0000000000
     23608       758  AKDO      O11             4.5705276339      -38.3275646486       22.5229324020  LPSA22    2               0.0000000000
     23609       758  AKDO      O12             3.4996970491      -40.0628975535       21.6095655865  LPSA22    2               0.0000000000
     23610       758  AKDO      C2              2.1550318697      -38.4484305892       22.8334147499  LPSA22    2               0.0000000000
     23611       758  AKDO      C6              1.1619055482      -36.5200756296       23.8454441623  LPSA22    2               0.0000000000
     23612       758  AKDO      H6              0.5349876959      -36.5206444878       22.9278088497  LPSA22    2               0.0000000000
     23613       758  AKDO      O6              2.3748322265      -37.1595945531       23.4350897761  LPSA22    2               0.0000000000
     23614       758  AKDO      C3              1.3917167138      -39.2538540510       23.9077254887  LPSA22    2               0.0000000000
     23615       758  AKDO      H31             2.0176410261      -39.4130441923       24.8166289182  LPSA22    2               0.0000000000
     23616       758  AKDO      H32             1.1176420731      -40.2484509840       23.4625497932  LPSA22    2               0.0000000000
     23617       758  AKDO      C4              0.1518873046      -38.6012377635       24.3462870571  LPSA22    2               0.0000000000
     23618       758  AKDO      H4             -0.4858381530      -38.4018707136       23.4697534806  LPSA22    2               0.0000000000
     23619       758  AKDO      O4             -0.4957989175      -39.3311003509       25.3504357668  LPSA22    2               0.0000000000
     23620       758  AKDO      C5              0.4250586967      -37.2877193543       24.9572939402  LPSA22    2               0.0000000000
     23621       758  AKDO      H5             -0.5669063742      -36.7918968070       25.0881617565  LPSA22    2               0.0000000000
     23622       758  AKDO      O5              1.0836314693      -37.5089446091       26.2547366495  LPSA22    2               0.0000000000
     23623       758  AKDO      C7              1.3992603108      -35.0628571556       24.1159169078  LPSA22    2               0.0000000000
     23624       758  AKDO      H7              2.0198941075      -35.1117075709       24.9978896768  LPSA22    2               0.0000000000
     23625       758  AKDO      O7              0.1747513387      -34.3565907210       24.3661721489  LPSA22    2               0.0000000000
     23626       758  AKDO      HO7            -0.1525767033      -34.1444477098       23.4851291652  LPSA22    2               0.0000000000
     23627       758  AKDO      C8              2.1746721685      -34.3712214309       23.0191134802  LPSA22    2               0.0000000000
     23628       758  AKDO      H81             3.1093414509      -34.9652196813       22.8491828495  LPSA22    2               0.0000000000
     23629       758  AKDO      H82             1.5757417452      -34.4446602777       22.0795616595  LPSA22    2               0.0000000000
     23630       758  AKDO      O8              2.5324122045      -32.9960580781       23.3620651858  LPSA22    2               0.0000000000
     23631       758  AKDO      HO8             3.3717480201      -32.8894082519       22.8756171044  LPSA22    2               0.0000000000
     23632       759  AKDO      C1             -2.2501700216      -39.9458795503       23.7714366353  LPSA22    3               1.0000000000
     23633       759  AKDO      O11            -1.8009704980      -40.0034364421       22.5931589691  LPSA22    3               1.0000000000
     23634       759  AKDO      O12            -3.3285990570      -39.4452822464       24.1679016203  LPSA22    3               1.0000000000
     23635       759  AKDO      C2             -1.3167741261      -40.3439661969       24.9373992682  LPSA22    3               1.0000000000
     23636       759  AKDO      C6              0.4119921209      -41.8807001206       25.7394010461  LPSA22    3               1.0000000000
     23637       759  AKDO      H6              1.2149884599      -41.1290343825       25.8816990378  LPSA22    3               1.0000000000
     23638       759  AKDO      O6             -0.5445793846      -41.5646279513       24.6939000792  LPSA22    3               1.0000000000
     23639       759  AKDO      C3             -2.1512123311      -40.4309821275       26.2485648592  LPSA22    3               1.0000000000
     23640       759  AKDO      H31            -3.0413490770      -41.1231196497       26.0729718216  LPSA22    3               1.0000000000
     23641       759  AKDO      H32            -2.6918812117      -39.5729926769       26.5393221845  LPSA22    3               1.0000000000
     23642       759  AKDO      C4             -1.1265301570      -40.7150184980       27.4064355213  LPSA22    3               1.0000000000
     23643       759  AKDO      H4             -0.3038431174      -40.0034079220       27.5083147667  LPSA22    3               1.0000000000
     23644       759  AKDO      O4             -1.7226700282      -40.9762049382       28.7125379052  LPSA22    3               1.0000000000
     23645       759  AKDO      HO4            -1.2512409351      -40.5983803491       29.4631711579  LPSA22    3               1.0000000000
     23646       759  AKDO      C5             -0.4030743794      -41.8985054339       27.0042155262  LPSA22    3               1.0000000000
     23647       759  AKDO      H5              0.1596249048      -42.2888173041       27.8803716182  LPSA22    3               1.0000000000
     23648       759  AKDO      O5             -1.5520774058      -42.5338469981       26.7363185509  LPSA22    3               1.0000000000
     23649       759  AKDO      HO5            -1.5790534300      -43.2457701432       26.0587831205  LPSA22    3               1.0000000000
     23650       759  AKDO      C7              1.0248543670      -43.2884369494       25.3806466940  LPSA22    3               1.0000000000
     23651       759  AKDO      H7              0.3109013673      -44.0961127757       25.0678982178  LPSA22    3               1.0000000000
     23652       759  AKDO      O7              2.0437763296      -43.7662436701       26.2814270595  LPSA22    3               1.0000000000
     23653       759  AKDO      HO7             2.4424114875      -44.6104628480       26.0026337377  LPSA22    3               1.0000000000
     23654       759  AKDO      C8              1.7399136287      -43.2502693357       24.2433568793  LPSA22    3               1.0000000000
     23655       759  AKDO      H81             1.2135716354      -42.6852728311       23.4181703272  LPSA22    3               1.0000000000
     23656       759  AKDO      H82             2.5674961914      -42.7015067901       24.5668905541  LPSA22    3               1.0000000000
     23657       759  AKDO      O8              2.3440767236      -44.5289330779       23.9474402791  LPSA22    3               1.0000000000
     23658       759  AKDO      HO8             1.8802570920      -44.7122425836       23.1448471279  LPSA22    3               1.0000000000
     23659       760  AHEP      C1              0.8209216346      -36.5550752852       27.2663600065  LPSA22    4               2.0000000000
     23660       760  AHEP      H1              1.4005258316      -35.7130656722       26.9069470676  LPSA22    4               2.0000000000
     23661       760  AHEP      C5             -1.4149964521      -36.9648319830       28.0013802558  LPSA22    4               2.0000000000
     23662       760  AHEP      H5             -1.3116987712      -37.9600881247       27.5148916953  LPSA22    4               2.0000000000
     23663       760  AHEP      O5             -0.5183355903      -36.0698281617       27.3206907614  LPSA22    4               2.0000000000
     23664       760  AHEP      C2              1.3119720805      -36.7497439595       28.7158308473  LPSA22    4               2.0000000000
     23665       760  AHEP      H2              2.3359128618      -37.1527989595       28.6764684804  LPSA22    4               2.0000000000
     23666       760  AHEP      O2              1.4366585715      -35.4833033552       29.3594528027  LPSA22    4               2.0000000000
     23667       760  AHEP      HO2             2.2016428915      -35.4591392001       29.9450602198  LPSA22    4               2.0000000000
     23668       760  AHEP      C3              0.4297663955      -37.6926216173       29.5082444941  LPSA22    4               2.0000000000
     23669       760  AHEP      H3              0.4755608284      -38.7306911537       29.1099348094  LPSA22    4               2.0000000000
     23670       760  AHEP      O3              0.8470544204      -37.6640095307       30.8982144378  LPSA22    4               2.0000000000
     23671       760  AHEP      C4             -0.9785884682      -37.1431003387       29.4600509319  LPSA22    4               2.0000000000
     23672       760  AHEP      H4             -1.0593443012      -36.1593634527       29.9718720590  LPSA22    4               2.0000000000
     23673       760  AHEP      O4             -1.8018308161      -38.1343946794       30.0628783968  LPSA22    4               2.0000000000
     23674       760  AHEP      P4             -2.6037702184      -37.8544705610       31.4814835145  LPSA22    4               2.0000000000
     23675       760  AHEP      OP42           -2.6463617481      -39.2370182139       32.0873335935  LPSA22    4               2.0000000000
     23676       760  AHEP      OP43           -3.9739132392      -37.3394194619       31.0460503466  LPSA22    4               2.0000000000
     23677       760  AHEP      OP44           -1.7822847317      -36.8749519124       32.3173373947  LPSA22    4               2.0000000000
     23678       760  AHEP      C6             -2.8518982660      -36.4279891960       27.8067459173  LPSA22    4               2.0000000000
     23679       760  AHEP      H6             -3.4882216532      -37.2474268001       28.1625140943  LPSA22    4               2.0000000000
     23680       760  AHEP      O6             -3.2267305392      -35.3266792057       28.6609142635  LPSA22    4               2.0000000000
     23681       760  AHEP      HO6            -3.9280805350      -35.6698322220       29.2431358341  LPSA22    4               2.0000000000
     23682       760  AHEP      C7             -3.2145035885      -36.0848815147       26.3506199811  LPSA22    4               2.0000000000
     23683       760  AHEP      H71            -4.3174339463      -35.9899546252       26.1967950144  LPSA22    4               2.0000000000
     23684       760  AHEP      H72            -2.8407933370      -36.8728091570       25.6554790518  LPSA22    4               2.0000000000
     23685       760  AHEP      O7             -2.6168220078      -34.8494435804       25.9479480945  LPSA22    4               2.0000000000
     23686       760  AHEP      HO7            -3.1835768939      -34.1829414586       26.3424022163  LPSA22    4               2.0000000000
     23687       761  AHEP      C1              1.2318865671      -38.8732330677       31.4919890062  LPSA22    5               3.0000000000
     23688       761  AHEP      H1              0.6284507354      -39.6521161533       31.0213038780  LPSA22    5               3.0000000000
     23689       761  AHEP      C5              3.4222342297      -38.0739305502       31.9584559757  LPSA22    5               3.0000000000
     23690       761  AHEP      H5              3.0351306930      -37.0933673624       31.5970594869  LPSA22    5               3.0000000000
     23691       761  AHEP      O5              2.6407781828      -39.0974148122       31.3051514257  LPSA22    5               3.0000000000
     23692       761  AHEP      C2              0.9237597746      -38.9477567796       32.9896772554  LPSA22    5               3.0000000000
     23693       761  AHEP      H2             -0.1654253246      -38.7354065457       33.0926201243  LPSA22    5               3.0000000000
     23694       761  AHEP      O2              1.1507406836      -40.2619524861       33.5443435662  LPSA22    5               3.0000000000
     23695       761  AHEP      HO2             0.3228504016      -40.7434394029       33.5409403962  LPSA22    5               3.0000000000
     23696       761  AHEP      C3              1.7033638349      -37.8889919066       33.7422701654  LPSA22    5               3.0000000000
     23697       761  AHEP      H3              1.4059796278      -36.8956872913       33.3228998002  LPSA22    5               3.0000000000
     23698       761  AHEP      O3              1.4899950812      -37.9187139948       35.1756361660  LPSA22    5               3.0000000000
     23699       761  AHEP      C4              3.1732362603      -38.1185874446       33.4590004334  LPSA22    5               3.0000000000
     23700       761  AHEP      H4              3.4828169330      -39.1249428569       33.8287779426  LPSA22    5               3.0000000000
     23701       761  AHEP      O4              3.9259901637      -37.0553566118       34.0445690614  LPSA22    5               3.0000000000
     23702       761  AHEP      P4              4.9919507236      -37.3763675933       35.2829680796  LPSA22    5               3.0000000000
     23703       761  AHEP      OP42            5.4111584227      -36.0374807057       35.8736666742  LPSA22    5               3.0000000000
     23704       761  AHEP      OP43            6.2437046980      -38.0597499128       34.7105788369  LPSA22    5               3.0000000000
     23705       761  AHEP      OP44            4.2312616072      -38.2727615080       36.2647977827  LPSA22    5               3.0000000000
     23706       761  AHEP      C6              4.9066221939      -38.1285072992       31.5588620095  LPSA22    5               3.0000000000
     23707       761  AHEP      H6              5.4733895116      -37.3570360052       32.0756281724  LPSA22    5               3.0000000000
     23708       761  AHEP      O6              5.5884718397      -39.2776635402       32.0053225397  LPSA22    5               3.0000000000
     23709       761  AHEP      HO6             5.3438112716      -40.0365068543       31.4782324986  LPSA22    5               3.0000000000
     23710       761  AHEP      C7              5.1330733945      -37.9222216551       30.0963977039  LPSA22    5               3.0000000000
     23711       761  AHEP      H71             6.0666894362      -37.3723482009       29.9299854219  LPSA22    5               3.0000000000
     23712       761  AHEP      H72             4.3332556227      -37.3000460336       29.6350199763  LPSA22    5               3.0000000000
     23713       761  AHEP      O7              5.3483620999      -39.1616840099       29.4780708664  LPSA22    5               3.0000000000
     23714       762  AHEP      C1              4.1970860041      -39.4704115037       28.8602582401  LPSA22    6               4.0000000000
     23715       762  AHEP      H1              3.3770288945      -38.7516009435       29.0309515077  LPSA22    6               4.0000000000
     23716       762  AHEP      C5              5.5304661109      -40.1667987144       27.1083375315  LPSA22    6               4.0000000000
     23717       762  AHEP      H5              6.4158943625      -39.8954388888       27.6985329426  LPSA22    6               4.0000000000
     23718       762  AHEP      O5              4.3971205424      -39.4040492828       27.4609625223  LPSA22    6               4.0000000000
     23719       762  AHEP      C2              3.8853969008      -40.7529632199       29.3696974342  LPSA22    6               4.0000000000
     23720       762  AHEP      H2              3.7409045949      -40.9075607032       30.4569192007  LPSA22    6               4.0000000000
     23721       762  AHEP      O2              2.5353554436      -40.7135181936       29.0473221162  LPSA22    6               4.0000000000
     23722       762  AHEP      HO2             2.2453594185      -41.5742058007       29.4029742010  LPSA22    6               4.0000000000
     23723       762  AHEP      C3              5.0160912009      -41.7213903153       29.0584907655  LPSA22    6               4.0000000000
     23724       762  AHEP      H3              5.9925267552      -41.4877127539       29.4993231879  LPSA22    6               4.0000000000
     23725       762  AHEP      O3              4.6897289559      -42.9093367574       29.8686249681  LPSA22    6               4.0000000000
     23726       762  AHEP      HO3             5.3247637499      -43.6567227782       29.9366316126  LPSA22    6               4.0000000000
     23727       762  AHEP      C4              5.2597427897      -41.6013830284       27.4657228898  LPSA22    6               4.0000000000
     23728       762  AHEP      H4              4.4288682248      -41.9821060363       26.7882779407  LPSA22    6               4.0000000000
     23729       762  AHEP      O4              6.5227730099      -42.1908928676       27.0989438312  LPSA22    6               4.0000000000
     23730       762  AHEP      HO4             7.3656546272      -41.8980520958       27.4719304556  LPSA22    6               4.0000000000
     23731       762  AHEP      C6              6.0532810614      -39.8174163691       25.7560833848  LPSA22    6               4.0000000000
     23732       762  AHEP      H6              7.0343223318      -40.2752163235       25.5676178106  LPSA22    6               4.0000000000
     23733       762  AHEP      O6              5.2383985702      -40.4038021074       24.9215892737  LPSA22    6               4.0000000000
     23734       762  AHEP      HO6             4.7979101708      -39.8086328467       24.2797227043  LPSA22    6               4.0000000000
     23735       762  AHEP      C7              6.2014129381      -38.4746695864       25.2249960357  LPSA22    6               4.0000000000
     23736       762  AHEP      H71             6.5478899665      -38.5716651091       24.1486489835  LPSA22    6               4.0000000000
     23737       762  AHEP      H72             6.9780935844      -38.1178661318       25.9134882813  LPSA22    6               4.0000000000
     23738       762  AHEP      O7              5.0206026468      -37.6944570600       25.3154758402  LPSA22    6               4.0000000000
     23739       762  AHEP      HO7             4.8380882322      -37.6386599367       26.2475504774  LPSA22    6               4.0000000000
     23740       763  AGLC      C1              0.5038052208      -37.0346615097       35.6648714071  LPSA22    7               4.0000000000
     23741       763  AGLC      H1              0.5364896299      -36.0466347272       35.1596868130  LPSA22    7               4.0000000000
     23742       763  AGLC      C5             -0.9558025908      -38.8683732899       36.0787857073  LPSA22    7               4.0000000000
     23743       763  AGLC      H5             -0.1420439097      -39.5638430627       35.7899780744  LPSA22    7               4.0000000000
     23744       763  AGLC      O5             -0.7675299013      -37.6089374672       35.4333153810  LPSA22    7               4.0000000000
     23745       763  AGLC      C2              0.5554675138      -36.7870944640       37.1761726896  LPSA22    7               4.0000000000
     23746       763  AGLC      H2             -0.3632362494      -36.2352105026       37.4559567103  LPSA22    7               4.0000000000
     23747       763  AGLC      O2              1.6135521510      -35.9186712297       37.5630275474  LPSA22    7               4.0000000000
     23748       763  AGLC      HO2             2.4318288594      -36.4487740253       37.5807020074  LPSA22    7               4.0000000000
     23749       763  AGLC      C3              0.4679332172      -38.0685146393       37.9654810694  LPSA22    7               4.0000000000
     23750       763  AGLC      H3              1.2838962847      -38.7299593988       37.6036074549  LPSA22    7               4.0000000000
     23751       763  AGLC      O3              0.6274095446      -37.8852203950       39.3969569360  LPSA22    7               4.0000000000
     23752       763  AGLC      C4             -0.8768096449      -38.6840906128       37.6004490436  LPSA22    7               4.0000000000
     23753       763  AGLC      H4             -1.7098383753      -38.0021039082       37.9374061145  LPSA22    7               4.0000000000
     23754       763  AGLC      O4             -0.9620927303      -39.9651534034       38.2254716018  LPSA22    7               4.0000000000
     23755       763  AGLC      HO4            -1.8604357284      -39.9870229550       38.6428734150  LPSA22    7               4.0000000000
     23756       763  AGLC      C6             -2.2154898334      -39.3913382675       35.4208460578  LPSA22    7               4.0000000000
     23757       763  AGLC      H61            -2.0874451581      -39.4427475510       34.3159819204  LPSA22    7               4.0000000000
     23758       763  AGLC      H62            -2.4804355609      -40.4328325140       35.5672797391  LPSA22    7               4.0000000000
     23759       763  AGLC      O6             -3.3248711364      -38.6057113470       35.8179780355  LPSA22    7               4.0000000000
     23760       763  AGLC      HO6            -3.8945168631      -39.0672614055       36.4320788407  LPSA22    7               4.0000000000
     23761       764  AGLC      C1              1.7826956798      -38.5214787522       39.9242538974  LPSA22    8               5.0000000000
     23762       764  AGLC      H1              1.8401301402      -39.5491117915       39.5109163422  LPSA22    8               5.0000000000
     23763       764  AGLC      C5              3.2656895590      -36.6184564615       40.2102273767  LPSA22    8               5.0000000000
     23764       764  AGLC      H5              2.4373540802      -35.9589399522       39.8800383937  LPSA22    8               5.0000000000
     23765       764  AGLC      O5              3.0304916086      -37.8987669768       39.5810808105  LPSA22    8               5.0000000000
     23766       764  AGLC      C2              1.7664422637      -38.6592546336       41.4378975222  LPSA22    8               5.0000000000
     23767       764  AGLC      H2              2.6275800554      -39.3063277889       41.7028106941  LPSA22    8               5.0000000000
     23768       764  AGLC      O2              0.6455591170      -39.2878915570       41.9964009952  LPSA22    8               5.0000000000
     23769       764  AGLC      C3              1.8690095372      -37.3496187820       42.1242502910  LPSA22    8               5.0000000000
     23770       764  AGLC      H3              1.0327738370      -36.7166933408       41.7220178650  LPSA22    8               5.0000000000
     23771       764  AGLC      O3              1.6388713446      -37.5647789520       43.5340784004  LPSA22    8               5.0000000000
     23772       764  AGLC      C4              3.1987862679      -36.7741499903       41.7263887454  LPSA22    8               5.0000000000
     23773       764  AGLC      H4              3.9926868655      -37.4973390011       42.0382267640  LPSA22    8               5.0000000000
     23774       764  AGLC      O4              3.4175156544      -35.5210665479       42.3647800234  LPSA22    8               5.0000000000
     23775       764  AGLC      HO4             2.5753886433      -35.0621038546       42.4043204301  LPSA22    8               5.0000000000
     23776       764  AGLC      C6              4.5640712054      -35.9227820738       39.7380732017  LPSA22    8               5.0000000000
     23777       764  AGLC      H61             4.6635312176      -35.9496002951       38.6280585993  LPSA22    8               5.0000000000
     23778       764  AGLC      H62             4.5180445296      -34.8518985609       40.0249108859  LPSA22    8               5.0000000000
     23779       764  AGLC      O6              5.7625631247      -36.4170329581       40.3449833775  LPSA22    8               5.0000000000
     23780       764  AGLC      HO6             5.8540448537      -35.9940461463       41.2007152743  LPSA22    8               5.0000000000
     23781       765  AGAL      C1              0.4242311195      -40.4950530012       41.4451432061  LPSA22    9               6.0000000000
     23782       765  AGAL      H1              0.3767138649      -40.5038264488       40.3342558327  LPSA22    9               6.0000000000
     23783       765  AGAL      C5              1.1347129025      -41.8545643083       43.2027086237  LPSA22    9               6.0000000000
     23784       765  AGAL      H5              1.2075384703      -40.8577293178       43.7096463572  LPSA22    9               6.0000000000
     23785       765  AGAL      O5              1.2612223032      -41.5897868543       41.8149654169  LPSA22    9               6.0000000000
     23786       765  AGAL      C2             -0.9307261044      -40.7664896450       41.8622027258  LPSA22    9               6.0000000000
     23787       765  AGAL      H2             -0.8003420954      -41.7431222331       41.2938869605  LPSA22    9               6.0000000000
     23788       765  AGAL      O2             -1.8922224114      -39.8894687935       41.1938595629  LPSA22    9               6.0000000000
     23789       765  AGAL      C3             -1.1392243442      -41.0246025199       43.3599212001  LPSA22    9               6.0000000000
     23790       765  AGAL      H3             -0.8353133437      -40.1533170225       43.9594738086  LPSA22    9               6.0000000000
     23791       765  AGAL      O3             -2.4598973850      -41.1862834651       43.8539518709  LPSA22    9               6.0000000000
     23792       765  AGAL      HO3            -3.1432505855      -40.8771965611       43.2450281871  LPSA22    9               6.0000000000
     23793       765  AGAL      C4             -0.3072224906      -42.2292385573       43.6382220401  LPSA22    9               6.0000000000
     23794       765  AGAL      H4             -0.3560290005      -42.4713346277       44.7321669119  LPSA22    9               6.0000000000
     23795       765  AGAL      O4             -0.8153094789      -43.3083988050       42.8634752814  LPSA22    9               6.0000000000
     23796       765  AGAL      HO4            -0.7335042521      -44.1124676993       43.4134775456  LPSA22    9               6.0000000000
     23797       765  AGAL      C6              2.3711386968      -42.5445932943       43.7708844430  LPSA22    9               6.0000000000
     23798       765  AGAL      H61             3.2879506274      -41.9719313646       43.6230797551  LPSA22    9               6.0000000000
     23799       765  AGAL      H62             2.0069556417      -42.3896352410       44.8008585218  LPSA22    9               6.0000000000
     23800       765  AGAL      O6              2.8001581743      -43.9174330104       43.5356001288  LPSA22    9               6.0000000000
     23801       765  AGAL      HO6             2.9000878074      -44.1697296733       42.6061096156  LPSA22    9               6.0000000000
     23802       766  AGAL      C1             -3.1547674312      -39.4065765060       41.7314413501  LPSA22    10              7.0000000000
     23803       766  AGAL      H1             -3.9554508695      -40.1925602468       41.8184454713  LPSA22    10              7.0000000000
     23804       766  AGAL      C5             -2.1512093732      -37.6682938682       43.0484714610  LPSA22    10              7.0000000000
     23805       766  AGAL      H5             -1.1941506023      -38.0759294822       42.6548011863  LPSA22    10              7.0000000000
     23806       766  AGAL      O5             -3.0707108866      -38.7706356997       43.0265287988  LPSA22    10              7.0000000000
     23807       766  AGAL      C2             -3.6853980063      -38.3839782623       40.7458258579  LPSA22    10              7.0000000000
     23808       766  AGAL      H2             -4.6622555255      -38.0125062409       41.1308380459  LPSA22    10              7.0000000000
     23809       766  AGAL      O2             -3.9849612532      -38.9562050732       39.4683337803  LPSA22    10              7.0000000000
     23810       766  AGAL      HO2            -4.8958237286      -38.7055074170       39.2561606985  LPSA22    10              7.0000000000
     23811       766  AGAL      C3             -2.6962526761      -37.2246934921       40.7002549707  LPSA22    10              7.0000000000
     23812       766  AGAL      H3             -1.6961783560      -37.6500881681       40.4503504761  LPSA22    10              7.0000000000
     23813       766  AGAL      O3             -2.9730601822      -36.2094972299       39.7335856896  LPSA22    10              7.0000000000
     23814       766  AGAL      HO3            -2.3764501831      -36.3556512241       38.9927462348  LPSA22    10              7.0000000000
     23815       766  AGAL      C4             -2.6107124450      -36.6139403515       42.0714654715  LPSA22    10              7.0000000000
     23816       766  AGAL      H4             -1.8393171011      -35.8236624574       42.0520950332  LPSA22    10              7.0000000000
     23817       766  AGAL      O4             -3.8524497104      -36.0283015194       42.4465803609  LPSA22    10              7.0000000000
     23818       766  AGAL      HO4            -4.4527517834      -36.7564233848       42.6647758371  LPSA22    10              7.0000000000
     23819       766  AGAL      C6             -1.7630175402      -37.1263987662       44.4327082039  LPSA22    10              7.0000000000
     23820       766  AGAL      H61            -1.4861388507      -37.9649917179       45.0983619914  LPSA22    10              7.0000000000
     23821       766  AGAL      H62            -0.8405837709      -36.5156651743       44.2868727109  LPSA22    10              7.0000000000
     23822       766  AGAL      O6             -2.7324745211      -36.3215726412       45.1180046217  LPSA22    10              7.0000000000
     23823       766  AGAL      HO6            -3.0414982570      -36.7821274155       45.9022785282  LPSA22    10              7.0000000000
     23824       767  BGLC      C1              2.6804876662      -37.7293767536       44.4727323011  LPSA22    11              6.0000000000
     23825       767  BGLC      H1              3.2253710965      -36.7787167806       44.6084053092  LPSA22    11              6.0000000000
     23826       767  BGLC      C5              4.6232236185      -39.0251136144       45.1202758915  LPSA22    11              6.0000000000
     23827       767  BGLC      H5              5.2779537309      -38.1475861245       45.3189178580  LPSA22    11              6.0000000000
     23828       767  BGLC      O5              3.5721047185      -38.8260499870       44.1335762989  LPSA22    11              6.0000000000
     23829       767  BGLC      C2              1.9656945717      -38.0730025330       45.7851691750  LPSA22    11              6.0000000000
     23830       767  BGLC      H2              1.3504967592      -39.0063808464       45.6444228078  LPSA22    11              6.0000000000
     23831       767  BGLC      O2              1.0545800798      -37.0788243671       46.1881623788  LPSA22    11              6.0000000000
     23832       767  BGLC      HO2             0.2119993428      -37.5132072317       46.2705437808  LPSA22    11              6.0000000000
     23833       767  BGLC      C3              2.9236878906      -38.2346080221       46.9169324554  LPSA22    11              6.0000000000
     23834       767  BGLC      H3              3.5082252845      -37.3480515086       47.2121876007  LPSA22    11              6.0000000000
     23835       767  BGLC      O3              2.2387106483      -38.8730042202       48.0445646733  LPSA22    11              6.0000000000
     23836       767  BGLC      C4              3.8441174731      -39.2464952250       46.4389359431  LPSA22    11              6.0000000000
     23837       767  BGLC      H4              3.0031255294      -39.9599898260       46.1896203885  LPSA22    11              6.0000000000
     23838       767  BGLC      O4              4.7140454716      -39.5412608341       47.5373366681  LPSA22    11              6.0000000000
     23839       767  BGLC      HO4             4.3365806314      -40.2396617657       48.0981697819  LPSA22    11              6.0000000000
     23840       767  BGLC      C6              5.5848759437      -40.1139445633       44.5387076218  LPSA22    11              6.0000000000
     23841       767  BGLC      H61             6.1930434663      -40.6541741088       45.2961785510  LPSA22    11              6.0000000000
     23842       767  BGLC      H62             5.0343466516      -40.8745941052       43.9515717456  LPSA22    11              6.0000000000
     23843       767  BGLC      O6              6.5280627878      -39.5813025151       43.6128580784  LPSA22    11              6.0000000000
     23844       767  BGLC      HO6             7.4170393005      -39.5910722597       43.9801321068  LPSA22    11              6.0000000000
     23845       768  BGLCNA    C1              2.3997851006      -38.3180025212       49.3307139272  LPSA22    12              7.0000000000
     23846       768  BGLCNA    H1              1.7568820873      -37.4213652543       49.3881299473  LPSA22    12              7.0000000000
     23847       768  BGLCNA    C5              3.9022532938      -37.3076063471       50.8783472975  LPSA22    12              7.0000000000
     23848       768  BGLCNA    H5              3.2511054849      -36.4044009371       50.9502839160  LPSA22    12              7.0000000000
     23849       768  BGLCNA    O5              3.7446480063      -37.9443652600       49.6021579000  LPSA22    12              7.0000000000
     23850       768  BGLCNA    C2              1.9893726176      -39.3355090048       50.3961447618  LPSA22    12              7.0000000000
     23851       768  BGLCNA    H2              2.7467800934      -40.1604807290       50.3099704742  LPSA22    12              7.0000000000
     23852       768  BGLCNA    N               0.6223704163      -39.7671368735       50.2475209993  LPSA22    12              7.0000000000
     23853       768  BGLCNA    HN             -0.0125442852      -39.0588184219       50.0197960385  LPSA22    12              7.0000000000
     23854       768  BGLCNA    C               0.2258675345      -41.0097697580       50.1126155082  LPSA22    12              7.0000000000
     23855       768  BGLCNA    O               0.9364933255      -41.9114794463       49.9594977205  LPSA22    12              7.0000000000
     23856       768  BGLCNA    CT             -1.1279339953      -41.3999817556       49.8054998769  LPSA22    12              7.0000000000
     23857       768  BGLCNA    HT1            -1.5430452876      -41.9042687317       50.6485902675  LPSA22    12              7.0000000000
     23858       768  BGLCNA    HT2            -1.0686894011      -42.2231041754       49.0267292657  LPSA22    12              7.0000000000
     23859       768  BGLCNA    HT3            -1.7218818800      -40.5791781432       49.4109991535  LPSA22    12              7.0000000000
     23860       768  BGLCNA    C3              2.0860686550      -38.7361010594       51.7736615651  LPSA22    12              7.0000000000
     23861       768  BGLCNA    H3              1.3667918682      -37.8885397003       51.7947578182  LPSA22    12              7.0000000000
     23862       768  BGLCNA    O3              1.6898108799      -39.6281031028       52.8399798085  LPSA22    12              7.0000000000
     23863       768  BGLCNA    C4              3.5055276718      -38.3007743230       51.9607769145  LPSA22    12              7.0000000000
     23864       768  BGLCNA    H4              4.1946834504      -39.1839367975       51.8901329113  LPSA22    12              7.0000000000
     23865       768  BGLCNA    O4              3.6612565306      -37.7679139760       53.2565981710  LPSA22    12              7.0000000000
     23866       768  BGLCNA    HO4             3.2398248879      -36.9044322442       53.3319898280  LPSA22    12              7.0000000000
     23867       768  BGLCNA    C6              5.3395263771      -36.8505708633       50.9516148695  LPSA22    12              7.0000000000
     23868       768  BGLCNA    H61             5.5557076197      -36.3685071811       51.9298224321  LPSA22    12              7.0000000000
     23869       768  BGLCNA    H62             6.0004159059      -37.7358792757       50.8534608780  LPSA22    12              7.0000000000
     23870       768  BGLCNA    O6              5.6661846777      -35.9423681013       49.8981189278  LPSA22    12              7.0000000000
     23871       768  BGLCNA    HO6             5.3902941099      -35.0503821864       50.1344699964  LPSA22    12              7.0000000000
     23872       769  AGAL      C1              0.8205098578      -39.1755717322       53.8805434992  LPSA22    13              8.0000000000
     23873       769  AGAL      H1              1.2288551155      -38.1884664009       54.2017289020  LPSA22    13              8.0000000000
     23874       769  AGAL      C5             -1.2398462973      -40.3498864992       53.2883550042  LPSA22    13              8.0000000000
     23875       769  AGAL      H5             -0.7080361203      -40.8420844975       52.4924496430  LPSA22    13              8.0000000000
     23876       769  AGAL      O5             -0.5671191768      -39.0687969581       53.4614631527  LPSA22    13              8.0000000000
     23877       769  AGAL      C2              0.7362647035      -39.9890211312       55.2008200431  LPSA22    13              8.0000000000
     23878       769  AGAL      H2              0.0479763846      -39.4633322395       55.8732446055  LPSA22    13              8.0000000000
     23879       769  AGAL      O2              2.0413556507      -39.9841673189       55.7652649296  LPSA22    13              8.0000000000
     23880       769  AGAL      C3              0.0511708583      -41.3321345319       55.1020620193  LPSA22    13              8.0000000000
     23881       769  AGAL      H3              0.4650064995      -41.9603162626       54.4819932711  LPSA22    13              8.0000000000
     23882       769  AGAL      O3              0.0935746612      -42.1353275668       56.2623544390  LPSA22    13              8.0000000000
     23883       769  AGAL      HO3             0.3954329491      -43.0504533886       56.1848279006  LPSA22    13              8.0000000000
     23884       769  AGAL      C4             -1.3202680739      -41.1517636335       54.6029857366  LPSA22    13              8.0000000000
     23885       769  AGAL      H4             -1.6883824852      -42.1782708844       54.3327020991  LPSA22    13              8.0000000000
     23886       769  AGAL      O4             -2.1740858762      -40.6615459666       55.6034133550  LPSA22    13              8.0000000000
     23887       769  AGAL      HO4            -1.6823869156      -39.9711528269       56.0578811580  LPSA22    13              8.0000000000
     23888       769  AGAL      C6             -2.5359346510      -40.3090143150       52.5562883942  LPSA22    13              8.0000000000
     23889       769  AGAL      H61            -2.4293124603      -39.7546219834       51.6030722915  LPSA22    13              8.0000000000
     23890       769  AGAL      H62            -2.8790686054      -41.3564652520       52.3354385761  LPSA22    13              8.0000000000
     23891       769  AGAL      O6             -3.4766371879      -39.6556997513       53.3509728851  LPSA22    13              8.0000000000
     23892       769  AGAL      HO6            -3.8039349991      -40.3340565736       53.9769551955  LPSA22    13              8.0000000000
     23893       770  ARHM      C1              2.1283127967      -39.2820714638       56.9826280284  LPSA22    14              9.0000000000
     23894       770  ARHM      H1              1.3989032534      -38.4671946103       57.0191539075  LPSA22    14              9.0000000000
     23895       770  ARHM      C5              4.5163446917      -39.6043637844       56.9496404495  LPSA22    14              9.0000000000
     23896       770  ARHM      H5              4.4816201073      -40.1537205780       56.0225197327  LPSA22    14              9.0000000000
     23897       770  ARHM      O5              3.4394485728      -38.7125152450       57.1269351326  LPSA22    14              9.0000000000
     23898       770  ARHM      C2              1.7581789894      -40.3099647024       57.9660633020  LPSA22    14              9.0000000000
     23899       770  ARHM      H2              0.7042971577      -40.6831389653       57.9026688880  LPSA22    14              9.0000000000
     23900       770  ARHM      O2              1.9854264410      -39.9423150294       59.3470704306  LPSA22    14              9.0000000000
     23901       770  ARHM      C3              2.6877661524      -41.3471131499       57.6936604595  LPSA22    14              9.0000000000
     23902       770  ARHM      H3              2.9069604655      -41.7376700642       56.7230610929  LPSA22    14              9.0000000000
     23903       770  ARHM      O3              1.9280802894      -42.5124329955       58.2990854117  LPSA22    14              9.0000000000
     23904       770  ARHM      HO3             2.3000384342      -42.6765033134       59.2161324340  LPSA22    14              9.0000000000
     23905       770  ARHM      C4              4.2967532514      -40.6380238522       57.9003516917  LPSA22    14              9.0000000000
     23906       770  ARHM      H4              4.3782657170      -40.0706434323       58.8746528843  LPSA22    14              9.0000000000
     23907       770  ARHM      O4              5.4782952240      -41.5234848109       57.8009632518  LPSA22    14              9.0000000000
     23908       770  ARHM      HO4             5.7841460314      -41.8873607805       58.6833000116  LPSA22    14              9.0000000000
     23909       770  ARHM      C6              5.7460748495      -38.7073993999       57.2651712014  LPSA22    14              9.0000000000
     23910       770  ARHM      H61             5.7779948130      -37.8646039002       56.5625247246  LPSA22    14              9.0000000000
     23911       770  ARHM      H62             5.9201466910      -38.5867399212       58.3597556500  LPSA22    14              9.0000000000
     23912       770  ARHM      H63             6.7669509649      -38.9290865570       57.0395252375  LPSA22    14              9.0000000000
     23913       771  ARHM      C1              1.1949770298      -38.8367115785       59.7402488109  LPSA22    15             10.0000000000
     23914       771  ARHM      H1              0.3089344105      -38.7697740289       59.0590297880  LPSA22    15             10.0000000000
     23915       771  ARHM      C5              2.9561139296      -37.4113658206       60.6379445996  LPSA22    15             10.0000000000
     23916       771  ARHM      H5              3.7841153284      -38.1385875605       60.4539044515  LPSA22    15             10.0000000000
     23917       771  ARHM      O5              1.9014062176      -37.5725727571       59.6706018540  LPSA22    15             10.0000000000
     23918       771  ARHM      C2              0.6223939338      -39.0066146739       61.1369696698  LPSA22    15             10.0000000000
     23919       771  ARHM      H2              0.1332776074      -40.0073741263       61.2059079486  LPSA22    15             10.0000000000
     23920       771  ARHM      O2             -0.3894727135      -37.9764432488       61.2682406306  LPSA22    15             10.0000000000
     23921       771  ARHM      C3              1.7326937795      -38.9579178686       62.1555393315  LPSA22    15             10.0000000000
     23922       771  ARHM      H3              2.5090062184      -39.7105433258       61.8650356214  LPSA22    15             10.0000000000
     23923       771  ARHM      O3              1.1462947443      -39.3453639465       63.4266025319  LPSA22    15             10.0000000000
     23924       771  ARHM      C4              2.3745669708      -37.5802653816       62.0321748577  LPSA22    15             10.0000000000
     23925       771  ARHM      H4              1.5767902214      -36.8097359734       62.1620230543  LPSA22    15             10.0000000000
     23926       771  ARHM      O4              3.3864480011      -37.3168445733       62.9911284337  LPSA22    15             10.0000000000
     23927       771  ARHM      HO4             3.5583786813      -36.3628925884       62.9775198885  LPSA22    15             10.0000000000
     23928       771  ARHM      C6              3.5567876021      -35.9957270538       60.4567917156  LPSA22    15             10.0000000000
     23929       771  ARHM      H61             4.4940671251      -35.8738486335       61.0426074010  LPSA22    15             10.0000000000
     23930       771  ARHM      H62             3.7520973210      -35.8252792925       59.3783211985  LPSA22    15             10.0000000000
     23931       771  ARHM      H63             2.8511207945      -35.2212503794       60.8101342803  LPSA22    15             10.0000000000
     23932       772  BMANNA    C1             -1.1098575275      -37.8281337681       62.4808120225  LPSA22    16             11.0000000000
     23933       772  BMANNA    H1             -0.4185223681      -37.5109795567       63.2969951616  LPSA22    16             11.0000000000
     23934       772  BMANNA    C5             -2.4694910736      -38.8381968043       64.2078427455  LPSA22    16             11.0000000000
     23935       772  BMANNA    H5             -1.6909765567      -38.5084096961       64.9552098216  LPSA22    16             11.0000000000
     23936       772  BMANNA    O5             -1.7619560268      -38.9898434200       62.9015381672  LPSA22    16             11.0000000000
     23937       772  BMANNA    C2             -2.2399084646      -36.8502982506       62.3057340799  LPSA22    16             11.0000000000
     23938       772  BMANNA    H2             -1.7561235402      -35.9601712962       61.9661217561  LPSA22    16             11.0000000000
     23939       772  BMANNA    N              -3.1927499166      -37.1603498036       61.2551652604  LPSA22    16             11.0000000000
     23940       772  BMANNA    HN             -4.0351186301      -37.5901183439       61.5435636297  LPSA22    16             11.0000000000
     23941       772  BMANNA    C              -3.0955565680      -36.7617962309       59.9820650691  LPSA22    16             11.0000000000
     23942       772  BMANNA    O              -2.1710773194      -36.0798826432       59.5477383450  LPSA22    16             11.0000000000
     23943       772  BMANNA    CT             -4.2061404546      -37.1844125670       59.0734066906  LPSA22    16             11.0000000000
     23944       772  BMANNA    HT1            -4.9011397386      -36.3559781511       58.8598894291  LPSA22    16             11.0000000000
     23945       772  BMANNA    HT2            -4.7796260418      -38.0163347846       59.5281457979  LPSA22    16             11.0000000000
     23946       772  BMANNA    HT3            -3.7790634811      -37.5607579301       58.1225725189  LPSA22    16             11.0000000000
     23947       772  BMANNA    C3             -2.9372266698      -36.6155919627       63.6418221405  LPSA22    16             11.0000000000
     23948       772  BMANNA    H3             -2.1539658547      -36.3232092172       64.3900398577  LPSA22    16             11.0000000000
     23949       772  BMANNA    O3             -3.9039882401      -35.5906377450       63.5869825840  LPSA22    16             11.0000000000
     23950       772  BMANNA    HO3            -3.6818873194      -34.9423719624       64.2544751700  LPSA22    16             11.0000000000
     23951       772  BMANNA    C4             -3.5563737384      -37.8760902502       64.1112046254  LPSA22    16             11.0000000000
     23952       772  BMANNA    H4             -4.2861115427      -38.2833114613       63.3650506913  LPSA22    16             11.0000000000
     23953       772  BMANNA    O4             -4.2622851516      -37.8091913336       65.3558348757  LPSA22    16             11.0000000000
     23954       772  BMANNA    HO4            -4.8177746681      -38.5995769957       65.4336437559  LPSA22    16             11.0000000000
     23955       772  BMANNA    C6             -3.1036010291      -40.0179663050       64.8448408255  LPSA22    16             11.0000000000
     23956       772  BMANNA    H61            -2.9330123512      -40.1755411493       65.9346784469  LPSA22    16             11.0000000000
     23957       772  BMANNA    H62            -4.0688854484      -40.4116466045       64.4636397693  LPSA22    16             11.0000000000
     23958       772  BMANNA    O6             -2.2567414351      -40.8377608449       64.2873179219  LPSA22    16             11.0000000000
     23959       772  BMANNA    HO6            -2.7447053800      -41.5289899680       63.8364057474  LPSA22    16             11.0000000000
     23960       773  BGLCNA    C1              1.9532873177      -40.0582708696       64.3389724067  LPSA22    17             11.0000000000
     23961       773  BGLCNA    H1              3.0286681425      -39.8064666177       64.0352837972  LPSA22    17             11.0000000000
     23962       773  BGLCNA    C5              2.7257338132      -42.4437629828       65.0838454855  LPSA22    17             11.0000000000
     23963       773  BGLCNA    H5              3.8148415347      -42.0134458026       64.7840463435  LPSA22    17             11.0000000000
     23964       773  BGLCNA    O5              1.7740768599      -41.4846635742       64.3553019953  LPSA22    17             11.0000000000
     23965       773  BGLCNA    C2              1.6635575890      -39.8456254633       65.7023494624  LPSA22    17             11.0000000000
     23966       773  BGLCNA    H2              0.6052070267      -40.2505404944       65.8182074351  LPSA22    17             11.0000000000
     23967       773  BGLCNA    N               1.6127581164      -38.4573324226       65.9046188389  LPSA22    17             11.0000000000
     23968       773  BGLCNA    HN              2.2438078870      -37.9164409140       65.3616305475  LPSA22    17             11.0000000000
     23969       773  BGLCNA    C               0.8684016113      -37.9043634253       66.8408782363  LPSA22    17             11.0000000000
     23970       773  BGLCNA    O               0.0003152084      -38.4871382034       67.4775954139  LPSA22    17             11.0000000000
     23971       773  BGLCNA    CT              1.2593649238      -36.5040962344       67.0714772476  LPSA22    17             11.0000000000
     23972       773  BGLCNA    HT1             0.5810000301      -35.8490372283       66.5371849855  LPSA22    17             11.0000000000
     23973       773  BGLCNA    HT2             2.2842029765      -36.3266828475       66.6909125586  LPSA22    17             11.0000000000
     23974       773  BGLCNA    HT3             1.2114556839      -36.2495922207       68.1420033986  LPSA22    17             11.0000000000
     23975       773  BGLCNA    C3              2.6414885003      -40.6477132558       66.5297010974  LPSA22    17             11.0000000000
     23976       773  BGLCNA    H3              3.5959899787      -40.3226247018       66.0848090337  LPSA22    17             11.0000000000
     23977       773  BGLCNA    O3              2.5808810181      -40.1675050651       67.8291610290  LPSA22    17             11.0000000000
     23978       773  BGLCNA    C4              2.4859230851      -42.1492872255       66.3357370947  LPSA22    17             11.0000000000
     23979       773  BGLCNA    H4              1.4141576109      -42.5362197083       66.3322340923  LPSA22    17             11.0000000000
     23980       773  BGLCNA    O4              3.5719906602      -43.0546471297       66.5822935747  LPSA22    17             11.0000000000
     23981       773  BGLCNA    HO4             3.0904425662      -43.8951111072       66.7409181012  LPSA22    17             11.0000000000
     23982       773  BGLCNA    C6              2.6224413688      -44.1807051616       64.5601176057  LPSA22    17             11.0000000000
     23983       773  BGLCNA    H61             3.6102502616      -44.6917410859       64.5951872862  LPSA22    17             11.0000000000
     23984       773  BGLCNA    H62             1.7396683720      -44.5289025023       65.1205818905  LPSA22    17             11.0000000000
     23985       773  BGLCNA    O6              2.4260412783      -44.7714773484       63.1845019127  LPSA22    17             11.0000000000
     23986       773  BGLCNA    HO6             2.5350087386      -44.1204974797       62.4359368215  LPSA22    17             11.0000000000
     23987       774  AGAL      C1              3.8564744952      -40.0666007788       68.3578348406  LPSA22    18             12.0000000000
     23988       774  AGAL      H1              4.3630568652      -41.0358299565       68.0513082997  LPSA22    18             12.0000000000
     23989       774  AGAL      C5              4.5368516761      -38.1194657895       67.7717794732  LPSA22    18             12.0000000000
     23990       774  AGAL      H5              3.5149959939      -38.0853638081       67.3628512692  LPSA22    18             12.0000000000
     23991       774  AGAL      O5              4.8785642465      -39.4459042491       67.7558050169  LPSA22    18             12.0000000000
     23992       774  AGAL      C2              3.5702476469      -39.4979921561       69.8290351177  LPSA22    18             12.0000000000
     23993       774  AGAL      H2              4.5137545532      -39.6450360159       70.3850934597  LPSA22    18             12.0000000000
     23994       774  AGAL      O2              2.4732254299      -40.0089189605       70.6339956302  LPSA22    18             12.0000000000
     23995       774  AGAL      C3              3.1702767266      -38.0775991877       69.7925658959  LPSA22    18             12.0000000000
     23996       774  AGAL      H3              2.2522517743      -38.0313189306       69.1496538586  LPSA22    18             12.0000000000
     23997       774  AGAL      O3              2.8150086374      -37.4929180869       71.0724561968  LPSA22    18             12.0000000000
     23998       774  AGAL      HO3             1.9747524383      -37.0224246691       70.9859870844  LPSA22    18             12.0000000000
     23999       774  AGAL      C4              4.3409971524      -37.4319957111       69.1258207410  LPSA22    18             12.0000000000
     24000       774  AGAL      H4              4.1062342244      -36.3779556474       68.9283611921  LPSA22    18             12.0000000000
     24001       774  AGAL      O4              5.4979787689      -37.5359197300       69.9487571431  LPSA22    18             12.0000000000
     24002       774  AGAL      HO4             5.3733257056      -36.9822169053       70.7420996391  LPSA22    18             12.0000000000
     24003       774  AGAL      C6              5.4080543554      -37.6561088196       66.7074879041  LPSA22    18             12.0000000000
     24004       774  AGAL      H61             5.0827354607      -38.2429914304       65.8049589093  LPSA22    18             12.0000000000
     24005       774  AGAL      H62             5.1581241845      -36.5915149503       66.5867361051  LPSA22    18             12.0000000000
     24006       774  AGAL      O6              6.7961098371      -37.9057060218       66.9670591495  LPSA22    18             12.0000000000
     24007       774  AGAL      HO6             6.8126354424      -38.5627823879       67.6847569176  LPSA22    18             12.0000000000
     24008       775  ARHM      C1              2.9045460941      -40.4026834778       71.9074939621  LPSA22    19             13.0000000000
     24009       775  ARHM      H1              3.6245089993      -39.5846183289       72.2666621831  LPSA22    19             13.0000000000
     24010       775  ARHM      C5              3.2574313097      -42.9492223621       72.0938636303  LPSA22    19             13.0000000000
     24011       775  ARHM      H5              2.6810222884      -43.2008313621       71.1921634493  LPSA22    19             13.0000000000
     24012       775  ARHM      O5              3.8258593602      -41.5439039525       72.0419843464  LPSA22    19             13.0000000000
     24013       775  ARHM      C2              1.8222519404      -40.4242459929       73.0077845172  LPSA22    19             13.0000000000
     24014       775  ARHM      H2              1.0519350664      -39.6405766802       72.7663495736  LPSA22    19             13.0000000000
     24015       775  ARHM      O2              2.1184917282      -39.9679624846       74.3504270994  LPSA22    19             13.0000000000
     24016       775  ARHM      C3              1.2133717665      -41.9508614853       72.9110768943  LPSA22    19             13.0000000000
     24017       775  ARHM      H3              1.1004016952      -42.2285615540       71.8722907546  LPSA22    19             13.0000000000
     24018       775  ARHM      O3             -0.0507290393      -41.9111229843       73.4483627812  LPSA22    19             13.0000000000
     24019       775  ARHM      HO3             0.0873847616      -41.6037508773       74.3675773881  LPSA22    19             13.0000000000
     24020       775  ARHM      C4              2.2260059234      -43.1758984129       73.2609853143  LPSA22    19             13.0000000000
     24021       775  ARHM      H4              2.3371780353      -43.3156421066       74.3733293488  LPSA22    19             13.0000000000
     24022       775  ARHM      O4              2.3229676441      -44.5027797044       73.2746117674  LPSA22    19             13.0000000000
     24023       775  ARHM      HO4             1.8684392808      -44.5672688776       72.4239385334  LPSA22    19             13.0000000000
     24024       775  ARHM      C6              4.3962953654      -44.0782910824       72.0901885813  LPSA22    19             13.0000000000
     24025       775  ARHM      H61             5.1803596537      -43.8031216078       71.3676660895  LPSA22    19             13.0000000000
     24026       775  ARHM      H62             4.8609321664      -44.1813790109       73.1023549361  LPSA22    19             13.0000000000
     24027       775  ARHM      H63             4.0522454882      -45.1125559407       71.8796711454  LPSA22    19             13.0000000000
     24028       776  ARHM      C1              2.7164173063      -38.7710287866       74.6828365991  LPSA22    20             14.0000000000
     24029       776  ARHM      H1              2.4268078138      -38.1111170155       73.8629880817  LPSA22    20             14.0000000000
     24030       776  ARHM      C5              4.7240819666      -39.2800120046       75.8974209793  LPSA22    20             14.0000000000
     24031       776  ARHM      H5              4.4865124661      -40.2901702734       75.6552582872  LPSA22    20             14.0000000000
     24032       776  ARHM      O5              4.1371498942      -38.5483195805       74.8215289807  LPSA22    20             14.0000000000
     24033       776  ARHM      C2              2.0247248783      -38.4667046399       75.9687192435  LPSA22    20             14.0000000000
     24034       776  ARHM      H2              0.9480413884      -38.7969883033       75.8899193097  LPSA22    20             14.0000000000
     24035       776  ARHM      O2              2.1027751482      -37.0832169615       76.1970864686  LPSA22    20             14.0000000000
     24036       776  ARHM      C3              2.5748722961      -39.2420801919       77.1197492947  LPSA22    20             14.0000000000
     24037       776  ARHM      H3              2.5146373019      -40.3438976610       76.9684398724  LPSA22    20             14.0000000000
     24038       776  ARHM      O3              1.8003486670      -38.8785758077       78.2707040692  LPSA22    20             14.0000000000
     24039       776  ARHM      C4              4.0275744589      -38.8754152421       77.2046286991  LPSA22    20             14.0000000000
     24040       776  ARHM      H4              4.2003159004      -37.7888623717       77.3094704583  LPSA22    20             14.0000000000
     24041       776  ARHM      O4              4.5618257707      -39.4585505942       78.3644535759  LPSA22    20             14.0000000000
     24042       776  ARHM      HO4             5.4979057176      -39.6557839557       78.1949232306  LPSA22    20             14.0000000000
     24043       776  ARHM      C6              6.2655910958      -39.1384355099       75.9335864511  LPSA22    20             14.0000000000
     24044       776  ARHM      H61             6.5704168325      -38.0841980507       76.0769375154  LPSA22    20             14.0000000000
     24045       776  ARHM      H62             6.7092941084      -39.7537056030       76.7457772538  LPSA22    20             14.0000000000
     24046       776  ARHM      H63             6.6941450529      -39.5046840343       74.9779836681  LPSA22    20             14.0000000000
     24047       777  BMANNA    C1              1.1359022654      -36.4665224190       75.4162062744  LPSA22    21             15.0000000000
     24048       777  BMANNA    H1              0.6449193006      -37.1973127036       74.7277584931  LPSA22    21             15.0000000000
     24049       777  BMANNA    C5              0.6649892486      -34.9976299916       73.6519818315  LPSA22    21             15.0000000000
     24050       777  BMANNA    H5              0.1717919843      -35.8333112987       73.0858400627  LPSA22    21             15.0000000000
     24051       777  BMANNA    O5              1.6975352898      -35.5197247779       74.5150114553  LPSA22    21             15.0000000000
     24052       777  BMANNA    C2              0.1142104118      -35.8616657719       76.3547569271  LPSA22    21             15.0000000000
     24053       777  BMANNA    H2             -0.2970028409      -36.7369616450       76.9302927748  LPSA22    21             15.0000000000
     24054       777  BMANNA    N               0.6640012167      -34.8775797654       77.2926726272  LPSA22    21             15.0000000000
     24055       777  BMANNA    HN              1.3414746900      -34.2618693647       76.8992240387  LPSA22    21             15.0000000000
     24056       777  BMANNA    C               0.2856208986      -34.7509180397       78.5894123141  LPSA22    21             15.0000000000
     24057       777  BMANNA    O              -0.7020855271      -35.2982005757       79.0446994293  LPSA22    21             15.0000000000
     24058       777  BMANNA    CT              1.1145126845      -33.8432806312       79.4821721580  LPSA22    21             15.0000000000
     24059       777  BMANNA    HT1             0.8638695424      -32.7820076730       79.2872730572  LPSA22    21             15.0000000000
     24060       777  BMANNA    HT2             2.1918688954      -34.0403102495       79.3098550581  LPSA22    21             15.0000000000
     24061       777  BMANNA    HT3             0.9024109605      -34.0519072305       80.5535380014  LPSA22    21             15.0000000000
     24062       777  BMANNA    C3             -0.9731754230      -35.3166114787       75.4700135764  LPSA22    21             15.0000000000
     24063       777  BMANNA    H3             -1.3846465975      -36.2003971259       74.9274424245  LPSA22    21             15.0000000000
     24064       777  BMANNA    O3             -2.0464245957      -34.7524947237       76.2013546578  LPSA22    21             15.0000000000
     24065       777  BMANNA    HO3            -1.6676533633      -34.0766307012       76.7680470451  LPSA22    21             15.0000000000
     24066       777  BMANNA    C4             -0.4020661918      -34.3216590762       74.4834894263  LPSA22    21             15.0000000000
     24067       777  BMANNA    H4              0.0499371880      -33.4467063939       75.0092732707  LPSA22    21             15.0000000000
     24068       777  BMANNA    O4             -1.4036072734      -33.8174872561       73.6237888258  LPSA22    21             15.0000000000
     24069       777  BMANNA    HO4            -1.4710830635      -32.8685780182       73.7303270159  LPSA22    21             15.0000000000
     24070       777  BMANNA    C6              1.2327212317      -34.0588373707       72.6189588648  LPSA22    21             15.0000000000
     24071       777  BMANNA    H61             0.4799086258      -33.9145050494       71.8079586379  LPSA22    21             15.0000000000
     24072       777  BMANNA    H62             1.4021024737      -33.0695972811       73.0882755548  LPSA22    21             15.0000000000
     24073       777  BMANNA    O6              2.4668218797      -34.5223126356       72.0742618413  LPSA22    21             15.0000000000
     24074       777  BMANNA    HO6             3.0829226866      -34.6903157190       72.7981377756  LPSA22    21             15.0000000000
     24075       778  BGLCNA    C1              1.5868839335      -39.8605912136       79.2504123120  LPSA22    22             15.0000000000
     24076       778  BGLCNA    H1              2.3730856877      -40.6292667392       79.1957990375  LPSA22    22             15.0000000000
     24077       778  BGLCNA    C5             -0.0055957003      -41.3532549006       80.1862936512  LPSA22    22             15.0000000000
     24078       778  BGLCNA    H5              0.9346104091      -41.9275327421       80.3677596261  LPSA22    22             15.0000000000
     24079       778  BGLCNA    O5              0.3017901729      -40.4742792560       79.1106113853  LPSA22    22             15.0000000000
     24080       778  BGLCNA    C2              1.5911375845      -39.0972779271       80.5574971214  LPSA22    22             15.0000000000
     24081       778  BGLCNA    H2              0.7570571653      -38.3478051764       80.4847561726  LPSA22    22             15.0000000000
     24082       778  BGLCNA    N               2.8574374742      -38.4207868786       80.7228163274  LPSA22    22             15.0000000000
     24083       778  BGLCNA    HN              3.6687296468      -38.8874095995       80.3975608051  LPSA22    22             15.0000000000
     24084       778  BGLCNA    C               3.0018808180      -37.2603372330       81.3498484402  LPSA22    22             15.0000000000
     24085       778  BGLCNA    O               2.0723633256      -36.6452256777       81.8545507660  LPSA22    22             15.0000000000
     24086       778  BGLCNA    CT              4.4221417959      -36.7638872399       81.3994604220  LPSA22    22             15.0000000000
     24087       778  BGLCNA    HT1             4.5305783861      -36.0696895040       80.5403042703  LPSA22    22             15.0000000000
     24088       778  BGLCNA    HT2             5.1311282004      -37.6057967516       81.2726405087  LPSA22    22             15.0000000000
     24089       778  BGLCNA    HT3             4.6290993240      -36.2516218762       82.3630327819  LPSA22    22             15.0000000000
     24090       778  BGLCNA    C3              1.2982072325      -40.0078164170       81.7302768368  LPSA22    22             15.0000000000
     24091       778  BGLCNA    H3              2.0071697137      -40.8282702767       81.8178940685  LPSA22    22             15.0000000000
     24092       778  BGLCNA    O3              1.4550813673      -39.2314848276       82.9221815116  LPSA22    22             15.0000000000
     24093       778  BGLCNA    C4             -0.0368719600      -40.6482189776       81.5309926918  LPSA22    22             15.0000000000
     24094       778  BGLCNA    H4             -0.8396740763      -39.8875878924       81.5045567717  LPSA22    22             15.0000000000
     24095       778  BGLCNA    O4             -0.2366586294      -41.6533895534       82.5420088709  LPSA22    22             15.0000000000
     24096       778  BGLCNA    HO4            -1.1208661001      -41.5809557994       82.9396455302  LPSA22    22             15.0000000000
     24097       778  BGLCNA    C6             -1.4001714717      -42.0553288244       79.8234800609  LPSA22    22             15.0000000000
     24098       778  BGLCNA    H61            -1.5815976047      -42.7456878553       80.6846696030  LPSA22    22             15.0000000000
     24099       778  BGLCNA    H62            -2.0466643877      -41.1792750470       79.6520186759  LPSA22    22             15.0000000000
     24100       778  BGLCNA    O6             -1.7818800475      -42.9315251670       78.7200032237  LPSA22    22             15.0000000000
     24101       778  BGLCNA    HO6            -1.1445952930      -43.1443505879       78.0269586122  LPSA22    22             15.0000000000
     24102       779  AGAL      C1              1.6745023058      -39.9144555842       84.1242795966  LPSA22    23             16.0000000000
     24103       779  AGAL      H1              0.7683654507      -40.4648118572       84.4462307046  LPSA22    23             16.0000000000
     24104       779  AGAL      C5              3.9526498764      -40.3032237494       83.8210813512  LPSA22    23             16.0000000000
     24105       779  AGAL      H5              3.9349847429      -39.7399524611       82.8455439038  LPSA22    23             16.0000000000
     24106       779  AGAL      O5              2.6793140222      -40.8736613888       84.0348581151  LPSA22    23             16.0000000000
     24107       779  AGAL      C2              2.0901066206      -38.9904321961       85.2072134060  LPSA22    23             16.0000000000
     24108       779  AGAL      H2              2.2389974419      -39.6280705303       86.1100452860  LPSA22    23             16.0000000000
     24109       779  AGAL      O2              1.0504795320      -38.0457207272       85.4323237059  LPSA22    23             16.0000000000
     24110       779  AGAL      C3              3.4567824307      -38.3840090151       84.9198267467  LPSA22    23             16.0000000000
     24111       779  AGAL      H3              3.4478255838      -37.9582023405       83.8879667842  LPSA22    23             16.0000000000
     24112       779  AGAL      O3              3.8193276198      -37.3301176675       85.7624254363  LPSA22    23             16.0000000000
     24113       779  AGAL      HO3             3.6028156758      -37.5651049147       86.6672029322  LPSA22    23             16.0000000000
     24114       779  AGAL      C4              4.4719591631      -39.4514744586       84.9054192457  LPSA22    23             16.0000000000
     24115       779  AGAL      H4              5.5052322685      -39.1200424369       84.6376529807  LPSA22    23             16.0000000000
     24116       779  AGAL      O4              4.5842631775      -40.2105956017       86.1106291499  LPSA22    23             16.0000000000
     24117       779  AGAL      HO4             4.9185607939      -41.0813606234       85.7974737816  LPSA22    23             16.0000000000
     24118       779  AGAL      C6              4.9123889258      -41.3021109375       83.5814987870  LPSA22    23             16.0000000000
     24119       779  AGAL      H61             4.5031967374      -41.9275111694       82.7789254852  LPSA22    23             16.0000000000
     24120       779  AGAL      H62             5.7937933808      -40.6956494512       83.3077014836  LPSA22    23             16.0000000000
     24121       779  AGAL      O6              5.3214213421      -42.1945689995       84.5781398758  LPSA22    23             16.0000000000
     24122       779  AGAL      HO6             5.7214454719      -42.9711076939       84.1225201614  LPSA22    23             16.0000000000
     24123       780  ARHM      C1              0.0001028757      -38.4198453079       86.2921821792  LPSA22    24             17.0000000000
     24124       780  ARHM      H1             -0.0255148004      -39.5298302872       86.3910047030  LPSA22    24             17.0000000000
     24125       780  ARHM      C5             -1.4191494238      -36.6141991210       85.6422227397  LPSA22    24             17.0000000000
     24126       780  ARHM      H5             -0.6150503464      -36.2829786071       84.9453400109  LPSA22    24             17.0000000000
     24127       780  ARHM      O5             -1.3015955515      -38.0393452300       85.8137154368  LPSA22    24             17.0000000000
     24128       780  ARHM      C2              0.3095975928      -37.7500866961       87.6046185249  LPSA22    24             17.0000000000
     24129       780  ARHM      H2              1.3453831927      -38.0020507275       87.9323677499  LPSA22    24             17.0000000000
     24130       780  ARHM      O2             -0.6368741262      -38.1184119643       88.6077757928  LPSA22    24             17.0000000000
     24131       780  ARHM      C3              0.2283095868      -36.2584821377       87.4211854499  LPSA22    24             17.0000000000
     24132       780  ARHM      H3              0.9552147720      -35.9806655110       86.6248623998  LPSA22    24             17.0000000000
     24133       780  ARHM      O3              0.6627268521      -35.5403546826       88.5713093019  LPSA22    24             17.0000000000
     24134       780  ARHM      HO3            -0.0806483207      -35.4491937977       89.1598132590  LPSA22    24             17.0000000000
     24135       780  ARHM      C4             -1.1807086626      -35.9025812886       86.9637258627  LPSA22    24             17.0000000000
     24136       780  ARHM      H4             -1.9327389037      -36.2823001382       87.6959502412  LPSA22    24             17.0000000000
     24137       780  ARHM      O4             -1.3405863920      -34.4953259723       86.8349155458  LPSA22    24             17.0000000000
     24138       780  ARHM      HO4            -2.2510448170      -34.2024609903       86.9812136893  LPSA22    24             17.0000000000
     24139       780  ARHM      C6             -2.7592660817      -36.2616148353       84.9658565440  LPSA22    24             17.0000000000
     24140       780  ARHM      H61            -2.6506261588      -35.2871422539       84.4337574533  LPSA22    24             17.0000000000
     24141       780  ARHM      H62            -3.0200771139      -37.0268950364       84.2136404936  LPSA22    24             17.0000000000
     24142       780  ARHM      H63            -3.5989317354      -36.1778519273       85.6864343591  LPSA22    24             17.0000000000
     24143       781  ARHM      C1             -0.4671501983      -39.3878266698       89.1376620536  LPSA22    25             18.0000000000
     24144       781  ARHM      H1              0.1960736331      -39.9839162292       88.4671027172  LPSA22    25             18.0000000000
     24145       781  ARHM      C5             -2.6018825036      -39.6004460727       90.1932980396  LPSA22    25             18.0000000000
     24146       781  ARHM      H5             -2.8772704726      -38.5819973766       89.8579122841  LPSA22    25             18.0000000000
     24147       781  ARHM      O5             -1.6751935620      -40.1370971223       89.2251419425  LPSA22    25             18.0000000000
     24148       781  ARHM      C2              0.1931816861      -39.3023838116       90.4625841072  LPSA22    25             18.0000000000
     24149       781  ARHM      H2              1.0305476190      -38.6008616860       90.3844133258  LPSA22    25             18.0000000000
     24150       781  ARHM      O2              0.6389244222      -40.5830228604       90.8293779742  LPSA22    25             18.0000000000
     24151       781  ARHM      C3             -0.7100356963      -38.7195886002       91.4876259285  LPSA22    25             18.0000000000
     24152       781  ARHM      H3             -1.0051336749      -37.7526732397       91.1430859254  LPSA22    25             18.0000000000
     24153       781  ARHM      O3             -0.0024487599      -38.5463564773       92.7097942202  LPSA22    25             18.0000000000
     24154       781  ARHM      C4             -1.9464056230      -39.5392794770       91.5780024538  LPSA22    25             18.0000000000
     24155       781  ARHM      H4             -1.6823369958      -40.5510314167       91.9278935777  LPSA22    25             18.0000000000
     24156       781  ARHM      O4             -2.8080670524      -39.0006026564       92.5615596595  LPSA22    25             18.0000000000
     24157       781  ARHM      HO4            -3.2087408874      -39.7426773088       93.0033416290  LPSA22    25             18.0000000000
     24158       781  ARHM      C6             -3.9002773827      -40.4511453324       90.2030042781  LPSA22    25             18.0000000000
     24159       781  ARHM      H61            -4.2544786053      -40.6306654264       89.1649398932  LPSA22    25             18.0000000000
     24160       781  ARHM      H62            -3.7831725320      -41.4496260419       90.6694825989  LPSA22    25             18.0000000000
     24161       781  ARHM      H63            -4.6754760652      -39.9287315647       90.7901599615  LPSA22    25             18.0000000000
     24162       782  BMANNA    C1              1.8593643108      -40.8702750651       90.2785319354  LPSA22    26             19.0000000000
     24163       782  BMANNA    H1              2.4174911466      -39.9927675467       89.8601452361  LPSA22    26             19.0000000000
     24164       782  BMANNA    C5              3.0129563903      -42.0627167362       88.7412038862  LPSA22    26             19.0000000000
     24165       782  BMANNA    H5              3.4620993971      -41.1500279022       88.2362641487  LPSA22    26             19.0000000000
     24166       782  BMANNA    O5              1.7348450777      -41.7655348734       89.2514653928  LPSA22    26             19.0000000000
     24167       782  BMANNA    C2              2.6710197275      -41.4554819199       91.3523375158  LPSA22    26             19.0000000000
     24168       782  BMANNA    H2              2.5280035427      -40.6111112492       92.0644942698  LPSA22    26             19.0000000000
     24169       782  BMANNA    N               2.2290640990      -42.5374893462       92.2220494073  LPSA22    26             19.0000000000
     24170       782  BMANNA    HN              1.7742591002      -43.2200181980       91.6654977829  LPSA22    26             19.0000000000
     24171       782  BMANNA    C               2.5096438468      -42.8854557465       93.4481517754  LPSA22    26             19.0000000000
     24172       782  BMANNA    O               2.6744058953      -41.8359815251       94.0041798143  LPSA22    26             19.0000000000
     24173       782  BMANNA    CT              2.2221347033      -44.4001637178       93.9905606536  LPSA22    26             19.0000000000
     24174       782  BMANNA    HT1             1.6038088909      -44.9595292994       93.2308064873  LPSA22    26             19.0000000000
     24175       782  BMANNA    HT2             1.3617761560      -44.5701625831       94.7377921579  LPSA22    26             19.0000000000
     24176       782  BMANNA    HT3             2.9053053806      -45.1463078513       93.6223615373  LPSA22    26             19.0000000000
     24177       782  BMANNA    C3              4.0087984154      -41.7745298392       90.6534241668  LPSA22    26             19.0000000000
     24178       782  BMANNA    H3              4.6116136694      -40.9792800206       90.1337445431  LPSA22    26             19.0000000000
     24179       782  BMANNA    O3              4.6393580075      -42.2963826525       91.7197723599  LPSA22    26             19.0000000000
     24180       782  BMANNA    HO3             5.2059423681      -41.6802728274       92.2141851979  LPSA22    26             19.0000000000
     24181       782  BMANNA    C4              3.9772215588      -42.7224058758       89.5734548929  LPSA22    26             19.0000000000
     24182       782  BMANNA    H4              4.0403672314      -43.7996236046       89.7446686209  LPSA22    26             19.0000000000
     24183       782  BMANNA    O4              5.0648767163      -43.0533590149       88.8483235971  LPSA22    26             19.0000000000
     24184       782  BMANNA    HO4             5.4884052241      -43.7258055941       89.4441761185  LPSA22    26             19.0000000000
     24185       782  BMANNA    C6              2.6661533781      -42.9434374933       87.7998072063  LPSA22    26             19.0000000000
     24186       782  BMANNA    H61             1.7245665045      -42.6204882427       87.2838270876  LPSA22    26             19.0000000000
     24187       782  BMANNA    H62             3.5596653813      -42.7755615623       87.1246762887  LPSA22    26             19.0000000000
     24188       782  BMANNA    O6              2.5678225828      -44.3573178684       88.1310433438  LPSA22    26             19.0000000000
     24189       782  BMANNA    HO6             3.3818349352      -44.8781281758       88.1593552685  LPSA22    26             19.0000000000
     24190       783  BGLCNA    C1             -0.2467724233      -37.4082382498       93.4644680101  LPSA22    27             19.0000000000
     24191       783  BGLCNA    H1             -1.2778994211      -37.0649468376       93.3501882237  LPSA22    27             19.0000000000
     24192       783  BGLCNA    C5              0.4198193115      -35.1990217938       93.9227037644  LPSA22    27             19.0000000000
     24193       783  BGLCNA    H5             -0.6654792604      -34.9773692496       93.9492171265  LPSA22    27             19.0000000000
     24194       783  BGLCNA    O5              0.5940907202      -36.3370111444       93.0736101607  LPSA22    27             19.0000000000
     24195       783  BGLCNA    C2              0.1247702922      -37.8249022569       94.8686349438  LPSA22    27             19.0000000000
     24196       783  BGLCNA    H2              1.2077671423      -38.1118518091       94.8122898916  LPSA22    27             19.0000000000
     24197       783  BGLCNA    N              -0.6529278682      -38.9423727380       95.3484715566  LPSA22    27             19.0000000000
     24198       783  BGLCNA    HN             -1.6019632687      -39.0254767559       95.0693867884  LPSA22    27             19.0000000000
     24199       783  BGLCNA    C              -0.0119836007      -39.9080460125       95.9929089653  LPSA22    27             19.0000000000
     24200       783  BGLCNA    O               1.1112032973      -39.7822243207       96.4734531843  LPSA22    27             19.0000000000
     24201       783  BGLCNA    CT             -0.7351460997      -41.1992676660       96.0377889879  LPSA22    27             19.0000000000
     24202       783  BGLCNA    HT1            -1.6065035086      -41.2188696690       95.3745638831  LPSA22    27             19.0000000000
     24203       783  BGLCNA    HT2            -1.0807137888      -41.3021005878       97.0778121574  LPSA22    27             19.0000000000
     24204       783  BGLCNA    HT3            -0.0681986067      -42.0546954034       95.7427070548  LPSA22    27             19.0000000000
     24205       783  BGLCNA    C3             -0.0148718689      -36.6938600021       95.8265972794  LPSA22    27             19.0000000000
     24206       783  BGLCNA    H3             -1.0521299811      -36.3321552606       95.8096194958  LPSA22    27             19.0000000000
     24207       783  BGLCNA    O3              0.2773564441      -37.2486616765       97.1342521500  LPSA22    27             19.0000000000
     24208       783  BGLCNA    C4              0.8395917441      -35.5589208559       95.3402590079  LPSA22    27             19.0000000000
     24209       783  BGLCNA    H4              1.9076936361      -35.8632463245       95.3260542526  LPSA22    27             19.0000000000
     24210       783  BGLCNA    O4              0.6716323159      -34.4130773066       96.1619396678  LPSA22    27             19.0000000000
     24211       783  BGLCNA    HO4            -0.2398528208      -34.1144834795       96.0824639345  LPSA22    27             19.0000000000
     24212       783  BGLCNA    C6              1.1128637304      -33.9934729802       93.3268938677  LPSA22    27             19.0000000000
     24213       783  BGLCNA    H61             0.7774892986      -33.0748436711       93.8560182344  LPSA22    27             19.0000000000
     24214       783  BGLCNA    H62             2.2115504474      -34.0820520636       93.4580139071  LPSA22    27             19.0000000000
     24215       783  BGLCNA    O6              0.8052136877      -33.8703901428       91.9377505040  LPSA22    27             19.0000000000
     24216       783  BGLCNA    HO6             1.2154183362      -33.1159639237       91.5071202758  LPSA22    27             19.0000000000
     24217       784  AGAL      C1             -0.1775405010      -36.5417388833       98.2496456485  LPSA22    28             20.0000000000
     24218       784  AGAL      H1              0.4550493927      -35.6294555157       98.3306728886  LPSA22    28             20.0000000000
     24219       784  AGAL      C5             -2.4755487006      -37.2564937946       98.1432383867  LPSA22    28             20.0000000000
     24220       784  AGAL      H5             -2.1363591515      -38.0560519994       97.4369686116  LPSA22    28             20.0000000000
     24221       784  AGAL      O5             -1.5505112353      -36.1424809679       98.0606981093  LPSA22    28             20.0000000000
     24222       784  AGAL      C2             -0.0717086054      -37.2455119920       99.6134720687  LPSA22    28             20.0000000000
     24223       784  AGAL      H2             -0.4528917204      -36.4546759840      100.3005072353  LPSA22    28             20.0000000000
     24224       784  AGAL      O2              1.2381564397      -37.5922980984      100.0962289639  LPSA22    28             20.0000000000
     24225       784  AGAL      C3             -1.0226546213      -38.4288720987       99.6835950160  LPSA22    28             20.0000000000
     24226       784  AGAL      H3             -0.7955243427      -39.1123045947       98.8374032066  LPSA22    28             20.0000000000
     24227       784  AGAL      O3             -0.9119611344      -39.2350277351      100.8519424869  LPSA22    28             20.0000000000
     24228       784  AGAL      HO3            -0.6953442834      -40.1443766717      100.6275999900  LPSA22    28             20.0000000000
     24229       784  AGAL      C4             -2.4213338049      -37.9106017088       99.4984539355  LPSA22    28             20.0000000000
     24230       784  AGAL      H4             -3.1185641195      -38.7742897104       99.5039498475  LPSA22    28             20.0000000000
     24231       784  AGAL      O4             -2.8397064952      -36.9989316936      100.4971628875  LPSA22    28             20.0000000000
     24232       784  AGAL      HO4            -3.4076966235      -37.4456825960      101.1306845653  LPSA22    28             20.0000000000
     24233       784  AGAL      C6             -3.9004505090      -36.8688072541       97.7338503558  LPSA22    28             20.0000000000
     24234       784  AGAL      H61            -3.9129473390      -36.5717368707       96.7051944450  LPSA22    28             20.0000000000
     24235       784  AGAL      H62            -4.6049443808      -37.7254135276       97.7938087352  LPSA22    28             20.0000000000
     24236       784  AGAL      O6             -4.4747985517      -35.7336263351       98.3699216822  LPSA22    28             20.0000000000
     24237       784  AGAL      HO6            -4.0652377249      -34.9233187222       98.0275077080  LPSA22    28             20.0000000000
     24238       785  ARHM      C1              1.3157186154      -37.3163325142      101.4827892999  LPSA22    29             21.0000000000
     24239       785  ARHM      H1              0.3142023582      -37.3512847704      101.9595839205  LPSA22    29             21.0000000000
     24240       785  ARHM      C5              3.1877740096      -35.8905084833      101.1545178963  LPSA22    29             21.0000000000
     24241       785  ARHM      H5              3.1358234792      -36.1538846615      100.0697780895  LPSA22    29             21.0000000000
     24242       785  ARHM      O5              1.8821379231      -36.0269106006      101.7166951636  LPSA22    29             21.0000000000
     24243       785  ARHM      C2              2.1686785388      -38.3330465851      102.1637103308  LPSA22    29             21.0000000000
     24244       785  ARHM      H2              1.7481372542      -39.3418598835      101.9205483070  LPSA22    29             21.0000000000
     24245       785  ARHM      O2              2.1773984026      -38.1042003530      103.5960235187  LPSA22    29             21.0000000000
     24246       785  ARHM      C3              3.5570279243      -38.2486885808      101.5984443583  LPSA22    29             21.0000000000
     24247       785  ARHM      H3              3.5315638977      -38.4570402555      100.5037075999  LPSA22    29             21.0000000000
     24248       785  ARHM      O3              4.3488390605      -39.2546365305      102.1721843518  LPSA22    29             21.0000000000
     24249       785  ARHM      HO3             5.2232926709      -38.8800945126      102.2798475164  LPSA22    29             21.0000000000
     24250       785  ARHM      C4              4.1479194186      -36.8655458560      101.8129635360  LPSA22    29             21.0000000000
     24251       785  ARHM      H4              4.2095444628      -36.6483208038      102.9069753886  LPSA22    29             21.0000000000
     24252       785  ARHM      O4              5.4796380666      -36.7211611366      101.3210716175  LPSA22    29             21.0000000000
     24253       785  ARHM      HO4             5.6337856708      -37.0944528855      100.4487706086  LPSA22    29             21.0000000000
     24254       785  ARHM      C6              3.5066362146      -34.3996154415      101.2333290613  LPSA22    29             21.0000000000
     24255       785  ARHM      H61             2.6551501386      -33.8464807018      100.7755211091  LPSA22    29             21.0000000000
     24256       785  ARHM      H62             3.6369886280      -34.0613653789      102.2780285658  LPSA22    29             21.0000000000
     24257       785  ARHM      H63             4.4206799733      -34.1747884881      100.6424986746  LPSA22    29             21.0000000000
     24258       786  ARHM      C1              1.2803558557      -38.8788972451      104.3654078424  LPSA22    30             22.0000000000
     24259       786  ARHM      H1              1.4343036274      -39.9623471099      104.1543915257  LPSA22    30             22.0000000000
     24260       786  ARHM      C5             -0.4151923991      -37.1969673544      104.4960061604  LPSA22    30             22.0000000000
     24261       786  ARHM      H5              0.2878725786      -36.5694494385      103.9082940325  LPSA22    30             22.0000000000
     24262       786  ARHM      O5             -0.1054283465      -38.5559919642      104.1651732296  LPSA22    30             22.0000000000
     24263       786  ARHM      C2              1.5913844572      -38.6175204367      105.8158992315  LPSA22    30             22.0000000000
     24264       786  ARHM      H2              2.6573313256      -38.8448992224      106.0257530125  LPSA22    30             22.0000000000
     24265       786  ARHM      O2              0.7419286282      -39.3976290913      106.6036947908  LPSA22    30             22.0000000000
     24266       786  ARHM      C3              1.2911994647      -37.2109677659      106.2179535612  LPSA22    30             22.0000000000
     24267       786  ARHM      H3              1.8900411191      -36.6184609812      105.5067984929  LPSA22    30             22.0000000000
     24268       786  ARHM      O3              1.7742861375      -36.8874308354      107.5321305412  LPSA22    30             22.0000000000
     24269       786  ARHM      C4             -0.1683490835      -36.9247737097      105.9594724541  LPSA22    30             22.0000000000
     24270       786  ARHM      H4             -0.8345347907      -37.5931415285      106.5511305837  LPSA22    30             22.0000000000
     24271       786  ARHM      O4             -0.5475242029      -35.6044288697      106.3203557772  LPSA22    30             22.0000000000
     24272       786  ARHM      HO4            -0.3351639194      -34.9146672137      105.6966831396  LPSA22    30             22.0000000000
     24273       786  ARHM      C6             -1.8419211925      -36.8424414792      104.0609616537  LPSA22    30             22.0000000000
     24274       786  ARHM      H61            -2.0245100731      -35.7601676539      104.2313227071  LPSA22    30             22.0000000000
     24275       786  ARHM      H62            -1.9547063825      -37.0361933170      102.9771321130  LPSA22    30             22.0000000000
     24276       786  ARHM      H63            -2.5946661406      -37.4360084256      104.6252816991  LPSA22    30             22.0000000000
     24277       787  BMANNA    C1              1.2794262448      -40.6159112771      106.8809078355  LPSA22    31             23.0000000000
     24278       787  BMANNA    H1              2.3498108508      -40.5337937800      107.1946034547  LPSA22    31             23.0000000000
     24279       787  BMANNA    C5              1.5510987447      -42.8874989784      106.0994017756  LPSA22    31             23.0000000000
     24280       787  BMANNA    H5              2.4379573463      -42.8380181071      106.4605510788  LPSA22    31             23.0000000000
     24281       787  BMANNA    O5              1.1055147029      -41.5583041241      105.7951966357  LPSA22    31             23.0000000000
     24282       787  BMANNA    C2              0.4199260294      -40.9897949036      108.0520616455  LPSA22    31             23.0000000000
     24283       787  BMANNA    H2              0.6801383501      -40.3496861610      108.9296865260  LPSA22    31             23.0000000000
     24284       787  BMANNA    N              -1.0005822950      -40.7639591750      107.7396184139  LPSA22    31             23.0000000000
     24285       787  BMANNA    HN             -1.2664637171      -40.9645382597      106.7916216985  LPSA22    31             23.0000000000
     24286       787  BMANNA    C              -1.9048673730      -40.3323628608      108.6471367030  LPSA22    31             23.0000000000
     24287       787  BMANNA    O              -1.5860249142      -40.1364264596      109.8133794993  LPSA22    31             23.0000000000
     24288       787  BMANNA    CT             -3.3428869774      -40.5829475578      108.2679055094  LPSA22    31             23.0000000000
     24289       787  BMANNA    HT1            -3.4208225992      -41.4586042574      107.5773597432  LPSA22    31             23.0000000000
     24290       787  BMANNA    HT2            -3.6958035143      -39.6605746781      107.7973262034  LPSA22    31             23.0000000000
     24291       787  BMANNA    HT3            -3.9595967525      -40.8442248909      109.1615236269  LPSA22    31             23.0000000000
     24292       787  BMANNA    C3              0.9891213127      -42.3303224949      108.4186867098  LPSA22    31             23.0000000000
     24293       787  BMANNA    H3              1.9878735107      -41.9548405813      108.5873017892  LPSA22    31             23.0000000000
     24294       787  BMANNA    O3              0.6758858747      -42.8108786497      109.6956344268  LPSA22    31             23.0000000000
     24295       787  BMANNA    HO3             0.0489701699      -42.1949521426      110.1188266382  LPSA22    31             23.0000000000
     24296       787  BMANNA    C4              0.8742272882      -43.2917946654      107.2570172889  LPSA22    31             23.0000000000
     24297       787  BMANNA    H4             -0.2053705227      -43.2225698619      106.9564059630  LPSA22    31             23.0000000000
     24298       787  BMANNA    O4              1.5856029770      -44.5883697289      107.4554734183  LPSA22    31             23.0000000000
     24299       787  BMANNA    HO4             2.2137767145      -44.6359526837      108.2198788879  LPSA22    31             23.0000000000
     24300       787  BMANNA    C6              1.5553604751      -44.0695749415      105.0493172287  LPSA22    31             23.0000000000
     24301       787  BMANNA    H61             2.1773314220      -44.9494226301      105.2833248983  LPSA22    31             23.0000000000
     24302       787  BMANNA    H62             0.5577712808      -44.5425184742      104.9428609694  LPSA22    31             23.0000000000
     24303       787  BMANNA    O6              1.9148887511      -43.6367155114      103.7836600932  LPSA22    31             23.0000000000
     24304       787  BMANNA    HO6             2.8306312202      -43.3080757952      103.8371230037  LPSA22    31             23.0000000000
     24305       788  BGLCNA    C1              0.9519726921      -37.2675200961      108.6128112424  LPSA22    32             23.0000000000
     24306       788  BGLCNA    H1              0.4528084603      -38.2262767867      108.4132381978  LPSA22    32             23.0000000000
     24307       788  BGLCNA    C5             -0.9717562504      -36.7474540298      109.9153617890  LPSA22    32             23.0000000000
     24308       788  BGLCNA    H5             -1.4056119681      -37.7204897981      109.5836076437  LPSA22    32             23.0000000000
     24309       788  BGLCNA    O5             -0.0604484054      -36.3160245525      108.8959060248  LPSA22    32             23.0000000000
     24310       788  BGLCNA    C2              1.7947919064      -37.4530729377      109.8537568686  LPSA22    32             23.0000000000
     24311       788  BGLCNA    H2              2.1492316551      -36.4316064184      110.1439186265  LPSA22    32             23.0000000000
     24312       788  BGLCNA    N               2.9248995174      -38.3181368787      109.5848651153  LPSA22    32             23.0000000000
     24313       788  BGLCNA    HN              2.7864105926      -38.9607186765      108.8570687103  LPSA22    32             23.0000000000
     24314       788  BGLCNA    C               4.1589728284      -38.1803039072      110.0921276434  LPSA22    32             23.0000000000
     24315       788  BGLCNA    O               4.4530137368      -37.3137854800      110.8965606337  LPSA22    32             23.0000000000
     24316       788  BGLCNA    CT              5.1647439295      -39.1714131819      109.5469091937  LPSA22    32             23.0000000000
     24317       788  BGLCNA    HT1             4.7409618390      -39.5813905472      108.6067009460  LPSA22    32             23.0000000000
     24318       788  BGLCNA    HT2             5.3627992992      -40.0076436697      110.2409240257  LPSA22    32             23.0000000000
     24319       788  BGLCNA    HT3             6.1330315490      -38.6761537254      109.3144769788  LPSA22    32             23.0000000000
     24320       788  BGLCNA    C3              0.8758917771      -38.0065992660      110.9147320601  LPSA22    32             23.0000000000
     24321       788  BGLCNA    H3              0.3884706238      -38.8948290302      110.4646982912  LPSA22    32             23.0000000000
     24322       788  BGLCNA    O3              1.5438518983      -38.4720913101      112.0798573955  LPSA22    32             23.0000000000
     24323       788  BGLCNA    C4             -0.1967711040      -36.9833642698      111.1968036358  LPSA22    32             23.0000000000
     24324       788  BGLCNA    H4              0.3057577318      -36.0397884324      111.5223133139  LPSA22    32             23.0000000000
     24325       788  BGLCNA    O4             -1.0928007962      -37.4045013545      112.2134591172  LPSA22    32             23.0000000000
     24326       788  BGLCNA    HO4            -0.7387656712      -37.0847769180      113.0538221540  LPSA22    32             23.0000000000
     24327       788  BGLCNA    C6             -2.1348132442      -35.7754205842      110.0317117686  LPSA22    32             23.0000000000
     24328       788  BGLCNA    H61            -2.9212329031      -36.1307838878      110.7062774152  LPSA22    32             23.0000000000
     24329       788  BGLCNA    H62            -1.7919318098      -34.8204207885      110.4857403403  LPSA22    32             23.0000000000
     24330       788  BGLCNA    O6             -2.7983557917      -35.5543578296      108.7854965508  LPSA22    32             23.0000000000
     24331       788  BGLCNA    HO6            -2.7519587790      -36.3294033652      108.2192116927  LPSA22    32             23.0000000000
     24332       789  AGAL      C1              0.9381711932      -39.6315585181      112.6099866973  LPSA22    33             24.0000000000
     24333       789  AGAL      H1             -0.1544544656      -39.5988351279      112.5663175459  LPSA22    33             24.0000000000
     24334       789  AGAL      C5              2.7876391930      -40.9825521319      112.0790567415  LPSA22    33             24.0000000000
     24335       789  AGAL      H5              3.2709986793      -40.0216741483      111.7769693073  LPSA22    33             24.0000000000
     24336       789  AGAL      O5              1.3833979277      -40.8426626779      111.9501467677  LPSA22    33             24.0000000000
     24337       789  AGAL      C2              1.2766514130      -39.5948563793      114.0559033293  LPSA22    33             24.0000000000
     24338       789  AGAL      H2              0.9649352767      -40.5665179845      114.5124030892  LPSA22    33             24.0000000000
     24339       789  AGAL      O2              0.5722648952      -38.5478467347      114.7666497060  LPSA22    33             24.0000000000
     24340       789  AGAL      C3              2.7223831571      -39.6012006064      114.1964691183  LPSA22    33             24.0000000000
     24341       789  AGAL      H3              3.3271593698      -38.8532841765      113.6535444832  LPSA22    33             24.0000000000
     24342       789  AGAL      O3              2.8826892639      -39.2346798170      115.5891207746  LPSA22    33             24.0000000000
     24343       789  AGAL      HO3             3.1163579085      -39.9916447370      116.1410733496  LPSA22    33             24.0000000000
     24344       789  AGAL      C4              3.1481452971      -40.9764473134      113.5218224396  LPSA22    33             24.0000000000
     24345       789  AGAL      H4              4.2273529856      -41.1765862266      113.2531590616  LPSA22    33             24.0000000000
     24346       789  AGAL      O4              2.8343803255      -42.0424438581      114.3806310957  LPSA22    33             24.0000000000
     24347       789  AGAL      HO4             2.0539441024      -42.0302900825      114.9569681902  LPSA22    33             24.0000000000
     24348       789  AGAL      C6              3.5379291928      -41.9333005324      111.1484790795  LPSA22    33             24.0000000000
     24349       789  AGAL      H61             3.3452364619      -41.5590511091      110.1337503382  LPSA22    33             24.0000000000
     24350       789  AGAL      H62             4.6281160310      -42.0247727703      111.3440220861  LPSA22    33             24.0000000000
     24351       789  AGAL      O6              3.1981502998      -43.2797224239      111.1615320630  LPSA22    33             24.0000000000
     24352       789  AGAL      HO6             2.2633260547      -43.4913240623      110.9566313835  LPSA22    33             24.0000000000
     24353       790  ARHM      C1              0.0251292716      -38.9719345062      115.9977557483  LPSA22    34             25.0000000000
     24354       790  ARHM      H1              0.8299202817      -39.4207432858      116.6278396688  LPSA22    34             25.0000000000
     24355       790  ARHM      C5             -2.1754983215      -39.3116322874      115.0237123018  LPSA22    34             25.0000000000
     24356       790  ARHM      H5             -1.7664123612      -39.0995536228      114.0177924398  LPSA22    34             25.0000000000
     24357       790  ARHM      O5             -1.1200689678      -39.8492220984      115.7734300459  LPSA22    34             25.0000000000
     24358       790  ARHM      C2             -0.3813130087      -37.7904959607      116.7969341744  LPSA22    34             25.0000000000
     24359       790  ARHM      H2              0.5086615489      -37.1253808901      116.8462270204  LPSA22    34             25.0000000000
     24360       790  ARHM      O2             -0.7941694827      -38.0877885884      118.1627966320  LPSA22    34             25.0000000000
     24361       790  ARHM      C3             -1.4654181601      -37.1341955848      115.9977838061  LPSA22    34             25.0000000000
     24362       790  ARHM      H3             -1.0655171710      -36.9072381113      114.9788703382  LPSA22    34             25.0000000000
     24363       790  ARHM      O3             -1.8417244148      -35.9047301839      116.6129339334  LPSA22    34             25.0000000000
     24364       790  ARHM      HO3            -2.1521770040      -35.3049121448      115.9198922522  LPSA22    34             25.0000000000
     24365       790  ARHM      C4             -2.6257985713      -38.0953051811      115.7911228427  LPSA22    34             25.0000000000
     24366       790  ARHM      H4             -2.9947542647      -38.4808575728      116.7754707192  LPSA22    34             25.0000000000
     24367       790  ARHM      O4             -3.6946041712      -37.4566689360      115.0953195831  LPSA22    34             25.0000000000
     24368       790  ARHM      HO4            -4.1360072859      -36.8644585779      115.7100027181  LPSA22    34             25.0000000000
     24369       790  ARHM      C6             -3.3098420479      -40.3563867175      114.8925620517  LPSA22    34             25.0000000000
     24370       790  ARHM      H61            -3.7465114685      -40.7345404584      115.8320761288  LPSA22    34             25.0000000000
     24371       790  ARHM      H62            -4.1260063893      -39.8022038221      114.4188720204  LPSA22    34             25.0000000000
     24372       790  ARHM      H63            -3.1092504714      -41.2308357564      114.2652157007  LPSA22    34             25.0000000000
     24373       791  ARHM      C1              0.1101762833      -38.7287282047      119.0536626343  LPSA22    35             26.0000000000
     24374       791  ARHM      H1              1.1573670864      -38.4137588488      118.8673960319  LPSA22    35             26.0000000000
     24375       791  ARHM      C5             -1.2405106515      -40.6864352963      119.2138516818  LPSA22    35             26.0000000000
     24376       791  ARHM      H5             -2.0155191056      -40.2932055084      118.5099271390  LPSA22    35             26.0000000000
     24377       791  ARHM      O5              0.0544028283      -40.1443871021      118.9201443448  LPSA22    35             26.0000000000
     24378       791  ARHM      C2             -0.2380112681      -38.4485985941      120.5115556215  LPSA22    35             26.0000000000
     24379       791  ARHM      H2             -0.2263464098      -37.3667410539      120.7066913574  LPSA22    35             26.0000000000
     24380       791  ARHM      O2              0.6940404795      -39.0960439931      121.4077874256  LPSA22    35             26.0000000000
     24381       791  ARHM      C3             -1.6308667843      -38.9019761059      120.8359297576  LPSA22    35             26.0000000000
     24382       791  ARHM      H3             -2.3441562543      -38.4149683170      120.1230223869  LPSA22    35             26.0000000000
     24383       791  ARHM      O3             -2.0364426168      -38.5043937042      122.1393242215  LPSA22    35             26.0000000000
     24384       791  ARHM      HO3            -1.2783932509      -38.4656760499      122.7278820867  LPSA22    35             26.0000000000
     24385       791  ARHM      C4             -1.6615857210      -40.3837270937      120.6445705650  LPSA22    35             26.0000000000
     24386       791  ARHM      H4             -0.9833645062      -40.9051664800      121.3561887911  LPSA22    35             26.0000000000
     24387       791  ARHM      O4             -2.9422498384      -40.8986778648      120.9088053390  LPSA22    35             26.0000000000
     24388       791  ARHM      HO4            -3.5884743207      -40.2767937467      120.5861738147  LPSA22    35             26.0000000000
     24389       791  ARHM      C6             -1.1937974650      -42.1898357423      118.9614581407  LPSA22    35             26.0000000000
     24390       791  ARHM      H61            -1.1256442548      -42.5161718239      117.9269529639  LPSA22    35             26.0000000000
     24391       791  ARHM      H62            -0.4628424847      -42.8015957455      119.5009503234  LPSA22    35             26.0000000000
     24392       791  ARHM      H63            -2.2035364145      -42.4883398696      119.2268641865  LPSA22    35             26.0000000000
     24393       792  BMANNA    C1              1.9650981327      -38.5032210132      121.4575435575  LPSA22    36             27.0000000000
     24394       792  BMANNA    H1              1.9292394055      -37.4523214870      121.1147042220  LPSA22    36             27.0000000000
     24395       792  BMANNA    C5              4.2109522646      -38.5182609776      120.7080202187  LPSA22    36             27.0000000000
     24396       792  BMANNA    H5              4.0504528233      -37.4478697158      120.4267385470  LPSA22    36             27.0000000000
     24397       792  BMANNA    O5              2.9353082421      -39.1999496497      120.6630277916  LPSA22    36             27.0000000000
     24398       792  BMANNA    C2              2.4168524232      -38.5300799660      122.8943502747  LPSA22    36             27.0000000000
     24399       792  BMANNA    H2              1.6605490903      -37.9260263058      123.4518574301  LPSA22    36             27.0000000000
     24400       792  BMANNA    N               2.3882991347      -39.8523905538      123.4688165250  LPSA22    36             27.0000000000
     24401       792  BMANNA    HN              2.6609718714      -40.6383399814      122.9249985921  LPSA22    36             27.0000000000
     24402       792  BMANNA    C               2.0160251598      -40.0339539780      124.7420667649  LPSA22    36             27.0000000000
     24403       792  BMANNA    O               1.8303503362      -39.1620334912      125.5857475405  LPSA22    36             27.0000000000
     24404       792  BMANNA    CT              2.0045986633      -41.4133887222      125.1478339853  LPSA22    36             27.0000000000
     24405       792  BMANNA    HT1             2.8355779028      -41.8207211507      124.5289554684  LPSA22    36             27.0000000000
     24406       792  BMANNA    HT2             1.3341523143      -42.2019191497      124.9492034952  LPSA22    36             27.0000000000
     24407       792  BMANNA    HT3             2.1356745259      -41.4364883666      126.2590964350  LPSA22    36             27.0000000000
     24408       792  BMANNA    C3              3.7444615670      -37.8204232008      123.0069808970  LPSA22    36             27.0000000000
     24409       792  BMANNA    H3              3.6389513939      -36.7723596272      122.6454014233  LPSA22    36             27.0000000000
     24410       792  BMANNA    O3              4.2034865239      -37.8137343959      124.3568503093  LPSA22    36             27.0000000000
     24411       792  BMANNA    HO3             4.4326189876      -36.9235216636      124.6371620575  LPSA22    36             27.0000000000
     24412       792  BMANNA    C4              4.7390902080      -38.4997596945      122.1232009769  LPSA22    36             27.0000000000
     24413       792  BMANNA    H4              4.9013255180      -39.4963036647      122.5059488983  LPSA22    36             27.0000000000
     24414       792  BMANNA    O4              6.0106277859      -37.9048973235      122.2207444708  LPSA22    36             27.0000000000
     24415       792  BMANNA    HO4             6.1758970239      -37.9564794017      123.1734404982  LPSA22    36             27.0000000000
     24416       792  BMANNA    C6              5.1787359068      -39.0643349227      119.6832818489  LPSA22    36             27.0000000000
     24417       792  BMANNA    H61             4.7349427542      -39.0148931544      118.6674576525  LPSA22    36             27.0000000000
     24418       792  BMANNA    H62             6.0838911108      -38.4204695001      119.6893571240  LPSA22    36             27.0000000000
     24419       792  BMANNA    O6              5.5804819489      -40.4036417085      119.9252937215  LPSA22    36             27.0000000000
     24420       792  BMANNA    HO6             6.3199633629      -40.3893922344      120.5615817123  LPSA22    36             27.0000000000
     24421       793  ECLIPA    HB6S           32.8624525218      -15.1872065521       20.4229738088  LPSA23    1               0.0000000000
     24422       793  ECLIPA    OB6            34.0986738736      -14.1566779354       21.7139964803  LPSA23    1               0.0000000000
     24423       793  ECLIPA    CB6            33.0770043487      -14.1330521493       20.6980157555  LPSA23    1               0.0000000000
     24424       793  ECLIPA    HB6R           32.1383419758      -13.6904041998       21.1001753410  LPSA23    1               0.0000000000
     24425       793  ECLIPA    CB5            33.4395485982      -13.3554448942       19.4371503115  LPSA23    1               0.0000000000
     24426       793  ECLIPA    OB5            34.6718849155      -13.9267240455       18.9670974459  LPSA23    1               0.0000000000
     24427       793  ECLIPA    HB5            33.5854121389      -12.2950569065       19.7447558000  LPSA23    1               0.0000000000
     24428       793  ECLIPA    CB1            35.1435728394      -13.2697713119       17.7918173214  LPSA23    1               0.0000000000
     24429       793  ECLIPA    HB1            35.3074998179      -12.1825851465       17.9655334068  LPSA23    1               0.0000000000
     24430       793  ECLIPA    OA6            36.3584074930      -13.7897195268       17.3634372429  LPSA23    1               0.0000000000
     24431       793  ECLIPA    CA6            36.5309548499      -15.1925799275       17.6143751267  LPSA23    1               0.0000000000
     24432       793  ECLIPA    HA6R           35.5872089677      -15.7456398434       17.7891548393  LPSA23    1               0.0000000000
     24433       793  ECLIPA    HA6S           37.2443061344      -15.3124116814       18.4626881310  LPSA23    1               0.0000000000
     24434       793  ECLIPA    CB4            32.3659050755      -13.4257807610       18.3301206472  LPSA23    1               0.0000000000
     24435       793  ECLIPA    HB4            32.1251220919      -14.4839049893       18.0530772267  LPSA23    1               0.0000000000
     24436       793  ECLIPA    OB4            31.2356227640      -12.6967369819       18.8343728015  LPSA23    1               0.0000000000
     24437       793  ECLIPA    PB             29.8552347609      -13.4778870631       19.3135506987  LPSA23    1               0.0000000000
     24438       793  ECLIPA    OPB4           29.2396055325      -12.7446963457       20.5069425667  LPSA23    1               0.0000000000
     24439       793  ECLIPA    OPB3           30.3349232405      -14.8714026004       19.6931671562  LPSA23    1               0.0000000000
     24440       793  ECLIPA    OPB2           28.9515344311      -13.4389037683       18.0932467158  LPSA23    1               0.0000000000
     24441       793  ECLIPA    CB3            32.8841582092      -12.7345289532       17.0850841537  LPSA23    1               0.0000000000
     24442       793  ECLIPA    OB3            32.0288323474      -12.8240049730       15.9417949604  LPSA23    1               0.0000000000
     24443       793  ECLIPA    HB3            33.1568385800      -11.6793686917       17.3325130660  LPSA23    1               0.0000000000
     24444       793  ECLIPA    C71            31.0935454495      -11.9008098787       15.7723234341  LPSA23    1               0.0000000000
     24445       793  ECLIPA    O71            31.1653393886      -10.7758735297       16.2474780804  LPSA23    1               0.0000000000
     24446       793  ECLIPA    C72            30.4553408535      -12.1363745726       14.3816643952  LPSA23    1               0.0000000000
     24447       793  ECLIPA    H72R           31.2381144729      -12.1877120247       13.5981242465  LPSA23    1               0.0000000000
     24448       793  ECLIPA    H72S           29.7569605377      -11.3011559797       14.1667587984  LPSA23    1               0.0000000000
     24449       793  ECLIPA    CB2            34.1683286266      -13.4115111888       16.6639664213  LPSA23    1               0.0000000000
     24450       793  ECLIPA    HB2            33.9541541962      -14.5076479105       16.5133563998  LPSA23    1               0.0000000000
     24451       793  ECLIPA    NB2            34.7027399988      -12.7999731108       15.4496602954  LPSA23    1               0.0000000000
     24452       793  ECLIPA    HNB2           35.3234536383      -12.0345328470       15.5643775636  LPSA23    1               0.0000000000
     24453       793  ECLIPA    CA4            38.0879819536      -14.7468659110       15.8682677233  LPSA23    1               0.0000000000
     24454       793  ECLIPA    HA4            37.6612718158      -13.8109685376       15.5217702116  LPSA23    1               0.0000000000
     24455       793  ECLIPA    OA4            39.0885610571      -14.4176109765       16.8557815523  LPSA23    1               0.0000000000
     24456       793  ECLIPA    HOA4           38.7157164136      -14.4343641263       17.7435506232  LPSA23    1               0.0000000000
     24457       793  ECLIPA    CA5            37.1212032106      -15.7483511937       16.3816229927  LPSA23    1               0.0000000000
     24458       793  ECLIPA    HA5            37.5452496796      -16.7757397765       16.5811360833  LPSA23    1               0.0000000000
     24459       793  ECLIPA    OA5            36.1055808342      -15.9267409127       15.3915429880  LPSA23    1               0.0000000000
     24460       793  ECLIPA    CA1            36.6102560784      -16.4789047110       14.1538749756  LPSA23    1               0.0000000000
     24461       793  ECLIPA    HA1            35.7815580433      -16.2932893766       13.4364089690  LPSA23    1               0.0000000000
     24462       793  ECLIPA    OA1            36.9129120519      -17.8607977231       14.1640514280  LPSA23    1               0.0000000000
     24463       793  ECLIPA    OPA2           36.3054946815      -19.3446114295       16.0503616875  LPSA23    1               0.0000000000
     24464       793  ECLIPA    OPA3           34.4499297000      -18.0346848664       14.8121171724  LPSA23    1               0.0000000000
     24465       793  ECLIPA    OPA4           35.5880112673      -19.9817352482       13.6317339704  LPSA23    1               0.0000000000
     24466       793  ECLIPA    PA             35.7153479232      -18.8686841112       14.6851511555  LPSA23    1               0.0000000000
     24467       793  ECLIPA    CA3            38.5048541949      -15.3282259637       14.6215614225  LPSA23    1               0.0000000000
     24468       793  ECLIPA    HA3            38.9157191982      -16.3140940518       15.0108703143  LPSA23    1               0.0000000000
     24469       793  ECLIPA    OA3            39.1410892896      -14.4534747264       13.7039504007  LPSA23    1               0.0000000000
     24470       793  ECLIPA    C31            39.3005273578      -13.1768453363       13.4112515287  LPSA23    1               0.0000000000
     24471       793  ECLIPA    O31            39.2801873284      -12.8691935527       12.2352852652  LPSA23    1               0.0000000000
     24472       793  ECLIPA    C32            39.9708892994      -12.1766015603       14.3059769568  LPSA23    1               0.0000000000
     24473       793  ECLIPA    H32R           40.7440053317      -11.6715644195       13.6589020115  LPSA23    1               0.0000000000
     24474       793  ECLIPA    H32S           40.4673165205      -12.4942937481       15.2389992607  LPSA23    1               0.0000000000
     24475       793  ECLIPA    CA2            37.5632524675      -15.5813519241       13.5159509448  LPSA23    1               0.0000000000
     24476       793  ECLIPA    HA2            37.0665677734      -14.6106244232       13.2883122674  LPSA23    1               0.0000000000
     24477       793  ECLIPA    NA2            38.1400503249      -16.1196099165       12.2171779673  LPSA23    1               0.0000000000
     24478       793  ECLIPA    HNA2           39.1402095852      -16.2194805835       12.1413442455  LPSA23    1               0.0000000000
     24479       793  ECLIPA    C73            29.7142666072      -13.4823752024       14.3447165290  LPSA23    1               0.0000000000
     24480       793  ECLIPA    H73R           29.0629622616      -13.5454141256       15.2590292900  LPSA23    1               0.0000000000
     24481       793  ECLIPA    O73            30.7006782512      -14.5052184761       14.2866387555  LPSA23    1               0.0000000000
     24482       793  ECLIPA    C81            30.4889552610      -15.6435707534       14.9506655137  LPSA23    1               0.0000000000
     24483       793  ECLIPA    O81            29.4547053207      -15.9059787004       15.5433860997  LPSA23    1               0.0000000000
     24484       793  ECLIPA    C82            31.4359487002      -16.7043938258       14.3415491899  LPSA23    1               0.0000000000
     24485       793  ECLIPA    H82R           31.2878753030      -17.6670110075       14.8699548075  LPSA23    1               0.0000000000
     24486       793  ECLIPA    H82S           32.4810519754      -16.3966709214       14.5621731053  LPSA23    1               0.0000000000
     24487       793  ECLIPA    C83            31.2859602063      -16.8951648849       12.8078294503  LPSA23    1               0.0000000000
     24488       793  ECLIPA    H83R           31.8475619867      -16.0839659117       12.2893769874  LPSA23    1               0.0000000000
     24489       793  ECLIPA    H83S           30.2157680308      -16.8023322488       12.5368881755  LPSA23    1               0.0000000000
     24490       793  ECLIPA    C84            31.8769631903      -18.2219653103       12.2899439357  LPSA23    1               0.0000000000
     24491       793  ECLIPA    H84R           31.2484714716      -19.0797037787       12.6048900269  LPSA23    1               0.0000000000
     24492       793  ECLIPA    H84S           32.8860733848      -18.3136821330       12.7699980870  LPSA23    1               0.0000000000
     24493       793  ECLIPA    C85            32.0982131284      -18.2212129993       10.7684162717  LPSA23    1               0.0000000000
     24494       793  ECLIPA    H85R           32.5212766595      -17.2145391469       10.5448011014  LPSA23    1               0.0000000000
     24495       793  ECLIPA    H85S           31.1249841217      -18.2752827718       10.2356730867  LPSA23    1               0.0000000000
     24496       793  ECLIPA    C86            33.1437075773      -19.2540865049       10.2874032109  LPSA23    1               0.0000000000
     24497       793  ECLIPA    H86R           32.6410526374      -20.1970713378        9.9917170385  LPSA23    1               0.0000000000
     24498       793  ECLIPA    H86S           33.8297632551      -19.4729514913       11.1408799862  LPSA23    1               0.0000000000
     24499       793  ECLIPA    C87            34.0397293743      -18.7049573486        9.1615285197  LPSA23    1               0.0000000000
     24500       793  ECLIPA    H87R           34.7232825010      -19.4903708367        8.7853850246  LPSA23    1               0.0000000000
     24501       793  ECLIPA    H87S           34.6896181031      -17.8941061417        9.5738127772  LPSA23    1               0.0000000000
     24502       793  ECLIPA    C88            33.2355592110      -18.0726549693        8.0235609039  LPSA23    1               0.0000000000
     24503       793  ECLIPA    H88R           32.8700215624      -17.0763379347        8.3517690277  LPSA23    1               0.0000000000
     24504       793  ECLIPA    H88S           32.3077743557      -18.6668756351        7.8761430859  LPSA23    1               0.0000000000
     24505       793  ECLIPA    C89            34.0352614165      -17.9021542312        6.7167927596  LPSA23    1               0.0000000000
     24506       793  ECLIPA    H89R           35.1327914774      -17.9171026686        6.8957429268  LPSA23    1               0.0000000000
     24507       793  ECLIPA    H89S           33.8196725449      -16.9120052482        6.2606746318  LPSA23    1               0.0000000000
     24508       793  ECLIPA    C810           33.6205944283      -18.9651179727        5.6955592085  LPSA23    1               0.0000000000
     24509       793  ECLIPA    H810R          32.5673180431      -19.2277355312        5.9314470320  LPSA23    1               0.0000000000
     24510       793  ECLIPA    H810S          34.2527332618      -19.8648517205        5.8565673302  LPSA23    1               0.0000000000
     24511       793  ECLIPA    C811           33.7290089316      -18.5081969234        4.2333701821  LPSA23    1               0.0000000000
     24512       793  ECLIPA    H811R          33.7832513915      -19.3791747841        3.5390853313  LPSA23    1               0.0000000000
     24513       793  ECLIPA    H811S          34.6704005153      -17.9210852228        4.1544681292  LPSA23    1               0.0000000000
     24514       793  ECLIPA    C812           32.6038710675      -17.5869210444        3.7360348096  LPSA23    1               0.0000000000
     24515       793  ECLIPA    H812R          32.9024634598      -17.2461465755        2.7149531964  LPSA23    1               0.0000000000
     24516       793  ECLIPA    H812S          32.5277961374      -16.7078502335        4.4082217118  LPSA23    1               0.0000000000
     24517       793  ECLIPA    C813           31.2113694568      -18.2108864871        3.6367493592  LPSA23    1               0.0000000000
     24518       793  ECLIPA    H813R          31.2663982713      -19.0638049232        2.9305248691  LPSA23    1               0.0000000000
     24519       793  ECLIPA    H813S          30.8744514520      -18.6034442882        4.6247658201  LPSA23    1               0.0000000000
     24520       793  ECLIPA    C814           30.1666352627      -17.2190251445        3.1274078303  LPSA23    1               0.0000000000
     24521       793  ECLIPA    H814R          30.5108695018      -16.6793895882        2.2162979987  LPSA23    1               0.0000000000
     24522       793  ECLIPA    H814S          29.9476388815      -16.4698607099        3.9172485000  LPSA23    1               0.0000000000
     24523       793  ECLIPA    H814T          29.2242647452      -17.7488522930        2.8865306389  LPSA23    1               0.0000000000
     24524       793  ECLIPA    C74            28.8335791319      -13.6713304012       13.0947886864  LPSA23    1               0.0000000000
     24525       793  ECLIPA    H74R           28.0814845738      -12.8627290232       12.9613930079  LPSA23    1               0.0000000000
     24526       793  ECLIPA    H74S           28.3189959502      -14.6526780347       13.2841153005  LPSA23    1               0.0000000000
     24527       793  ECLIPA    C75            29.5376390858      -13.8337196351       11.7519660517  LPSA23    1               0.0000000000
     24528       793  ECLIPA    H75R           28.9629060021      -14.6011446151       11.1836363560  LPSA23    1               0.0000000000
     24529       793  ECLIPA    H75S           30.5479234351      -14.2389346682       11.9528191420  LPSA23    1               0.0000000000
     24530       793  ECLIPA    C76            29.6399905422      -12.5413134778       10.9378839307  LPSA23    1               0.0000000000
     24531       793  ECLIPA    H76R           30.4473570961      -11.9123729676       11.3722868773  LPSA23    1               0.0000000000
     24532       793  ECLIPA    H76S           28.6971615983      -11.9463997578       10.9847142270  LPSA23    1               0.0000000000
     24533       793  ECLIPA    C77            29.9465043340      -12.7702731435        9.4487393399  LPSA23    1               0.0000000000
     24534       793  ECLIPA    H77R           29.0789106582      -13.2918093922        8.9918366114  LPSA23    1               0.0000000000
     24535       793  ECLIPA    H77S           30.8093298604      -13.4406575737        9.3097419598  LPSA23    1               0.0000000000
     24536       793  ECLIPA    C78            30.2972060772      -11.4212085358        8.7997099313  LPSA23    1               0.0000000000
     24537       793  ECLIPA    H78R           29.4921149086      -10.7008282166        9.0642307418  LPSA23    1               0.0000000000
     24538       793  ECLIPA    H78S           31.2178978987      -11.0700906533        9.3197439282  LPSA23    1               0.0000000000
     24539       793  ECLIPA    C79            30.6358224922      -11.4091768929        7.2924945188  LPSA23    1               0.0000000000
     24540       793  ECLIPA    H79R           31.7399735241      -11.4912787202        7.1705099067  LPSA23    1               0.0000000000
     24541       793  ECLIPA    H79S           30.3290890041      -10.4429463983        6.8327596770  LPSA23    1               0.0000000000
     24542       793  ECLIPA    C710           29.9466459505      -12.4791624736        6.4584704671  LPSA23    1               0.0000000000
     24543       793  ECLIPA    H710R          30.1496261456      -13.4903076481        6.8694299389  LPSA23    1               0.0000000000
     24544       793  ECLIPA    H710S          28.8495043575      -12.2921740270        6.4883611001  LPSA23    1               0.0000000000
     24545       793  ECLIPA    C711           30.3863436314      -12.4953140891        5.0007188507  LPSA23    1               0.0000000000
     24546       793  ECLIPA    H711R          30.1671429001      -11.5003032420        4.5442040196  LPSA23    1               0.0000000000
     24547       793  ECLIPA    H711S          31.4817516810      -12.6864157682        4.9255696520  LPSA23    1               0.0000000000
     24548       793  ECLIPA    C712           29.6408231814      -13.6540115617        4.3333753999  LPSA23    1               0.0000000000
     24549       793  ECLIPA    H712R          28.5560624584      -13.3864732989        4.2945263007  LPSA23    1               0.0000000000
     24550       793  ECLIPA    H712S          29.7879191854      -14.5717729601        4.9177096863  LPSA23    1               0.0000000000
     24551       793  ECLIPA    C713           30.1097576162      -13.9579546413        2.9638087591  LPSA23    1               0.0000000000
     24552       793  ECLIPA    H713R          31.2202877421      -14.1234894627        2.8760937252  LPSA23    1               0.0000000000
     24553       793  ECLIPA    H713S          29.5696254854      -14.7671384511        2.4133126965  LPSA23    1               0.0000000000
     24554       793  ECLIPA    C714           29.7146555581      -12.7537561916        2.2748640658  LPSA23    1               0.0000000000
     24555       793  ECLIPA    H714R          28.6956085307      -12.3951580953        2.0787678360  LPSA23    1               0.0000000000
     24556       793  ECLIPA    H714S          30.4518413042      -11.9186481920        2.4320255409  LPSA23    1               0.0000000000
     24557       793  ECLIPA    H714T          29.7792165920      -13.2014617977        1.2820995788  LPSA23    1               0.0000000000
     24558       793  ECLIPA    C51            34.3220532702      -13.2057970226       14.2304601105  LPSA23    1               0.0000000000
     24559       793  ECLIPA    O51            33.7423118902      -14.2649830773       14.0725933635  LPSA23    1               0.0000000000
     24560       793  ECLIPA    C52            34.5912415406      -12.2887219810       13.0561695790  LPSA23    1               0.0000000000
     24561       793  ECLIPA    H52R           33.7473920194      -11.5736309952       12.9293451432  LPSA23    1               0.0000000000
     24562       793  ECLIPA    H52S           35.5066832728      -11.7094234888       13.2498050805  LPSA23    1               0.0000000000
     24563       793  ECLIPA    C53            34.7568103710      -13.1138298071       11.7628531074  LPSA23    1               0.0000000000
     24564       793  ECLIPA    H53R           35.2550844413      -14.0909701518       11.9844461399  LPSA23    1               0.0000000000
     24565       793  ECLIPA    O53            35.5026466520      -12.2873224586       10.8569417739  LPSA23    1               0.0000000000
     24566       793  ECLIPA    C61            36.7254746086      -12.6628170231       10.5263147012  LPSA23    1               0.0000000000
     24567       793  ECLIPA    O61            37.2546432146      -13.7173699001       10.7995442245  LPSA23    1               0.0000000000
     24568       793  ECLIPA    C62            37.3172576966      -11.6116298637        9.5849516810  LPSA23    1               0.0000000000
     24569       793  ECLIPA    H62R           37.7773443347      -10.8153113156       10.2074772359  LPSA23    1               0.0000000000
     24570       793  ECLIPA    H62S           36.4891740302      -11.1711397387        9.0145607360  LPSA23    1               0.0000000000
     24571       793  ECLIPA    C63            38.3557704754      -12.2263132787        8.6274969050  LPSA23    1               0.0000000000
     24572       793  ECLIPA    H63R           38.0586362164      -13.2228816258        8.2504100685  LPSA23    1               0.0000000000
     24573       793  ECLIPA    H63S           39.2061050466      -12.3750299499        9.2803535512  LPSA23    1               0.0000000000
     24574       793  ECLIPA    C64            38.8366963611      -11.3584440850        7.4571689356  LPSA23    1               0.0000000000
     24575       793  ECLIPA    H64R           39.6029276357      -11.8671516742        6.8357347239  LPSA23    1               0.0000000000
     24576       793  ECLIPA    H64S           39.2771217244      -10.4311965335        7.8914890815  LPSA23    1               0.0000000000
     24577       793  ECLIPA    C65            37.7188604702      -11.1366343475        6.4947354396  LPSA23    1               0.0000000000
     24578       793  ECLIPA    H65R           36.9884220188      -10.6013354675        7.1313165943  LPSA23    1               0.0000000000
     24579       793  ECLIPA    H65S           37.3264687958      -12.1343780216        6.1946895173  LPSA23    1               0.0000000000
     24580       793  ECLIPA    C66            38.0170430471      -10.2877040995        5.2573231786  LPSA23    1               0.0000000000
     24581       793  ECLIPA    H66R           38.4506218272       -9.3126087293        5.5554456478  LPSA23    1               0.0000000000
     24582       793  ECLIPA    H66S           37.0247108340      -10.1649846623        4.7809778146  LPSA23    1               0.0000000000
     24583       793  ECLIPA    C67            38.8894891088      -10.8769438154        4.1689183494  LPSA23    1               0.0000000000
     24584       793  ECLIPA    H67R           39.8386136761      -11.1197392099        4.6643886952  LPSA23    1               0.0000000000
     24585       793  ECLIPA    H67S           39.1411785159      -10.1505322490        3.3613557572  LPSA23    1               0.0000000000
     24586       793  ECLIPA    C68            38.2753557401      -12.1165677790        3.5603273818  LPSA23    1               0.0000000000
     24587       793  ECLIPA    H68R           37.2368217595      -12.0218675328        3.2035073650  LPSA23    1               0.0000000000
     24588       793  ECLIPA    H68S           38.3987309727      -12.9561490737        4.2823079436  LPSA23    1               0.0000000000
     24589       793  ECLIPA    C69            38.8144182970      -12.4430392857        2.2377384559  LPSA23    1               0.0000000000
     24590       793  ECLIPA    H69R           39.8176948146      -12.1001683917        2.0844392248  LPSA23    1               0.0000000000
     24591       793  ECLIPA    H69S           38.5789167692      -11.7282829234        1.4586952889  LPSA23    1               0.0000000000
     24592       793  ECLIPA    C610           38.7532341800      -13.9351057681        2.0424233557  LPSA23    1               0.0000000000
     24593       793  ECLIPA    H610R          37.8020101779      -14.4431985414        2.0928962603  LPSA23    1               0.0000000000
     24594       793  ECLIPA    H610S          39.4433515094      -14.5031838901        2.7081028156  LPSA23    1               0.0000000000
     24595       793  ECLIPA    C611           39.1642942188      -13.9610038567        0.6778440078  LPSA23    1               0.0000000000
     24596       793  ECLIPA    H611R          40.0044790773      -13.4323094100        0.7942611966  LPSA23    1               0.0000000000
     24597       793  ECLIPA    H611S          39.8420824677      -14.6932484114        0.2662250727  LPSA23    1               0.0000000000
     24598       793  ECLIPA    C612           38.4981011253      -13.1582395252       -0.3514342517  LPSA23    1               0.0000000000
     24599       793  ECLIPA    H612R          37.5373044953      -13.4922824776       -0.7040702631  LPSA23    1               0.0000000000
     24600       793  ECLIPA    H612S          38.8297136892      -12.1398813986       -0.3880029420  LPSA23    1               0.0000000000
     24601       793  ECLIPA    H612T          38.8216460851      -13.4566939179       -1.2645031733  LPSA23    1               0.0000000000
     24602       793  ECLIPA    C54            33.3488154342      -13.3777117036       11.1712478596  LPSA23    1               0.0000000000
     24603       793  ECLIPA    H54R           32.9309494408      -12.3886154730       10.8819056396  LPSA23    1               0.0000000000
     24604       793  ECLIPA    H54S           32.7129112676      -13.7938892428       11.9785260116  LPSA23    1               0.0000000000
     24605       793  ECLIPA    C55            33.2670078112      -14.3336638585        9.9660122762  LPSA23    1               0.0000000000
     24606       793  ECLIPA    H55R           32.2174572536      -14.6692810570        9.8238264159  LPSA23    1               0.0000000000
     24607       793  ECLIPA    H55S           33.8503615969      -15.2516251068       10.2003490534  LPSA23    1               0.0000000000
     24608       793  ECLIPA    C56            33.7211243897      -13.6097957609        8.6948236023  LPSA23    1               0.0000000000
     24609       793  ECLIPA    H56R           34.7410556237      -13.2162811622        8.8610335752  LPSA23    1               0.0000000000
     24610       793  ECLIPA    H56S           33.0591292603      -12.7335148705        8.5046298209  LPSA23    1               0.0000000000
     24611       793  ECLIPA    C57            33.8281601303      -14.4287769503        7.4158804335  LPSA23    1               0.0000000000
     24612       793  ECLIPA    H57R           32.8808051794      -14.9606128911        7.1835771142  LPSA23    1               0.0000000000
     24613       793  ECLIPA    H57S           34.6173630047      -15.2030052242        7.5484114531  LPSA23    1               0.0000000000
     24614       793  ECLIPA    C58            34.2435349908      -13.4998687811        6.2710677307  LPSA23    1               0.0000000000
     24615       793  ECLIPA    H58R           33.6328099614      -12.5722628432        6.2299594516  LPSA23    1               0.0000000000
     24616       793  ECLIPA    H58S           35.2845845968      -13.1548817527        6.4703972004  LPSA23    1               0.0000000000
     24617       793  ECLIPA    C59            34.1305792620      -14.1846503078        4.9200958073  LPSA23    1               0.0000000000
     24618       793  ECLIPA    H59R           33.1007160728      -14.5703625284        4.7293127894  LPSA23    1               0.0000000000
     24619       793  ECLIPA    H59S           34.8067705369      -15.0709469721        4.9627970340  LPSA23    1               0.0000000000
     24620       793  ECLIPA    C510           34.3868416438      -13.1763082202        3.8069579306  LPSA23    1               0.0000000000
     24621       793  ECLIPA    H510R          35.3484140910      -12.6271597185        3.8959777075  LPSA23    1               0.0000000000
     24622       793  ECLIPA    H510S          33.5344342320      -12.4940218292        3.6216708803  LPSA23    1               0.0000000000
     24623       793  ECLIPA    C511           34.4465200340      -13.8067522743        2.5056120739  LPSA23    1               0.0000000000
     24624       793  ECLIPA    H511R          35.5174651977      -14.1852110243        2.5048411927  LPSA23    1               0.0000000000
     24625       793  ECLIPA    H511S          33.7501219981      -14.6693692190        2.3906951574  LPSA23    1               0.0000000000
     24626       793  ECLIPA    C512           34.1783600481      -12.8770164132        1.3164999551  LPSA23    1               0.0000000000
     24627       793  ECLIPA    H512R          33.8467505036      -13.4434962195        0.4348480765  LPSA23    1               0.0000000000
     24628       793  ECLIPA    H512S          33.3390467082      -12.2026986796        1.2853561121  LPSA23    1               0.0000000000
     24629       793  ECLIPA    C513           35.4412931940      -12.3976350042        0.7090650289  LPSA23    1               0.0000000000
     24630       793  ECLIPA    H513R          36.3355560241      -13.0088336202        0.5559771429  LPSA23    1               0.0000000000
     24631       793  ECLIPA    H513S          35.9323353052      -11.9605984655        1.5502783067  LPSA23    1               0.0000000000
     24632       793  ECLIPA    C514           34.9542393521      -11.7739108664       -0.5692106829  LPSA23    1               0.0000000000
     24633       793  ECLIPA    H514R          34.2087497372      -10.9961352125       -0.5688217929  LPSA23    1               0.0000000000
     24634       793  ECLIPA    H514S          35.6403542840      -11.2308304837       -0.9484361369  LPSA23    1               0.0000000000
     24635       793  ECLIPA    H514T          35.4174180801      -12.0271942489       -1.5379444702  LPSA23    1               0.0000000000
     24636       793  ECLIPA    C33            39.0225865410      -11.0363115022       14.4899881245  LPSA23    1               0.0000000000
     24637       793  ECLIPA    H33R           39.6204245052      -10.1807050497       14.8779226432  LPSA23    1               0.0000000000
     24638       793  ECLIPA    O33            38.0984930640      -11.4507659270       15.4637844997  LPSA23    1               0.0000000000
     24639       793  ECLIPA    HO33           38.5351567685      -11.5602311156       16.3099679652  LPSA23    1               0.0000000000
     24640       793  ECLIPA    C34            38.2852648840      -10.6071603739       13.2071817027  LPSA23    1               0.0000000000
     24641       793  ECLIPA    H34R           37.6981926492      -11.4719723540       12.8227449781  LPSA23    1               0.0000000000
     24642       793  ECLIPA    H34S           39.0328946516      -10.3543486492       12.4171670538  LPSA23    1               0.0000000000
     24643       793  ECLIPA    C35            37.3027261363       -9.4671394900       13.4352568928  LPSA23    1               0.0000000000
     24644       793  ECLIPA    H35R           37.8589117092       -8.5639952927       13.7460159157  LPSA23    1               0.0000000000
     24645       793  ECLIPA    H35S           36.6227925874       -9.7846678166       14.2609081878  LPSA23    1               0.0000000000
     24646       793  ECLIPA    C36            36.4673452719       -9.1434608864       12.1975097310  LPSA23    1               0.0000000000
     24647       793  ECLIPA    H36R           36.3649489644      -10.1091776060       11.6675131988  LPSA23    1               0.0000000000
     24648       793  ECLIPA    H36S           36.9936040697       -8.4256991445       11.5228957818  LPSA23    1               0.0000000000
     24649       793  ECLIPA    C37            35.0463582291       -8.6492389467       12.5217587527  LPSA23    1               0.0000000000
     24650       793  ECLIPA    H37R           35.0962304996       -7.5473524175       12.6721812679  LPSA23    1               0.0000000000
     24651       793  ECLIPA    H37S           34.7172735426       -9.0903124138       13.4891721150  LPSA23    1               0.0000000000
     24652       793  ECLIPA    C38            33.9929540287       -8.9648183106       11.4342052404  LPSA23    1               0.0000000000
     24653       793  ECLIPA    H38R           33.6997058277      -10.0368903958       11.4319109000  LPSA23    1               0.0000000000
     24654       793  ECLIPA    H38S           33.0690204452       -8.3940230763       11.6818407360  LPSA23    1               0.0000000000
     24655       793  ECLIPA    C39            34.4940429696       -8.6198560425       10.0226472511  LPSA23    1               0.0000000000
     24656       793  ECLIPA    H39R           35.4520316083       -9.1514863701        9.8226719966  LPSA23    1               0.0000000000
     24657       793  ECLIPA    H39S           34.6594611315       -7.5186747421        9.9812820545  LPSA23    1               0.0000000000
     24658       793  ECLIPA    C310           33.5433064004       -8.9659635222        8.8726419116  LPSA23    1               0.0000000000
     24659       793  ECLIPA    H310R          32.6875861480       -8.2579593442        8.9654780684  LPSA23    1               0.0000000000
     24660       793  ECLIPA    H310S          33.1591022780      -10.0044070224        8.9584122146  LPSA23    1               0.0000000000
     24661       793  ECLIPA    C311           34.2710830930       -8.9200137159        7.5144149979  LPSA23    1               0.0000000000
     24662       793  ECLIPA    H311R          35.0391532201       -8.1153632022        7.5269119143  LPSA23    1               0.0000000000
     24663       793  ECLIPA    H311S          34.8104290110       -9.8849078106        7.3653007324  LPSA23    1               0.0000000000
     24664       793  ECLIPA    C312           33.3475086131       -8.7617557184        6.3002381748  LPSA23    1               0.0000000000
     24665       793  ECLIPA    H312R          32.3907891588       -9.2968251355        6.4882282527  LPSA23    1               0.0000000000
     24666       793  ECLIPA    H312S          33.1284823736       -7.6779394588        6.1803632755  LPSA23    1               0.0000000000
     24667       793  ECLIPA    C313           33.9869514560       -9.2890592521        5.0027881166  LPSA23    1               0.0000000000
     24668       793  ECLIPA    H313R          34.7935386704       -8.5668435967        4.7472706662  LPSA23    1               0.0000000000
     24669       793  ECLIPA    H313S          34.4681537874      -10.2813142939        5.1736048668  LPSA23    1               0.0000000000
     24670       793  ECLIPA    C314           33.0237141022       -9.4000885206        3.8169088165  LPSA23    1               0.0000000000
     24671       793  ECLIPA    H314R          32.5879965182       -8.4043495424        3.5946823712  LPSA23    1               0.0000000000
     24672       793  ECLIPA    H314S          33.5472746080       -9.7657373970        2.9053720506  LPSA23    1               0.0000000000
     24673       793  ECLIPA    H314T          32.1997049881      -10.1101508792        4.0440247280  LPSA23    1               0.0000000000
     24674       793  ECLIPA    C11            37.4403672061      -16.7416201524       11.2463822750  LPSA23    1               0.0000000000
     24675       793  ECLIPA    O11            36.2461103574      -16.5836095334       11.0704864843  LPSA23    1               0.0000000000
     24676       793  ECLIPA    C12            38.1990775273      -17.6767510607       10.3487605582  LPSA23    1               0.0000000000
     24677       793  ECLIPA    H12R           38.0257598454      -18.7336740176       10.6001578503  LPSA23    1               0.0000000000
     24678       793  ECLIPA    H12S           39.2707164085      -17.4571637300       10.4302700432  LPSA23    1               0.0000000000
     24679       793  ECLIPA    C13            37.8507346814      -17.4622598365        8.9086440760  LPSA23    1               0.0000000000
     24680       793  ECLIPA    H13R           36.7991323945      -17.2437145663        8.6635861815  LPSA23    1               0.0000000000
     24681       793  ECLIPA    O13            38.2695032328      -18.6121329006        8.1981316984  LPSA23    1               0.0000000000
     24682       793  ECLIPA    HO13           37.9574140351      -18.6446147710        7.2925784557  LPSA23    1               0.0000000000
     24683       793  ECLIPA    C14            38.5965789555      -16.2832858602        8.4509196375  LPSA23    1               0.0000000000
     24684       793  ECLIPA    H14R           39.6319179487      -16.3669068069        8.8786080602  LPSA23    1               0.0000000000
     24685       793  ECLIPA    H14S           38.1364952781      -15.3364780918        8.8183035451  LPSA23    1               0.0000000000
     24686       793  ECLIPA    C15            38.5964925148      -16.2080859127        6.9610833698  LPSA23    1               0.0000000000
     24687       793  ECLIPA    H15R           39.3508359812      -16.9018818488        6.5251133524  LPSA23    1               0.0000000000
     24688       793  ECLIPA    H15S           38.8765462253      -15.1704746804        6.9053134527  LPSA23    1               0.0000000000
     24689       793  ECLIPA    C16            37.4810495024      -15.7154990203        6.1212735207  LPSA23    1               0.0000000000
     24690       793  ECLIPA    H16R           37.2887873953      -14.6089154650        6.2111647692  LPSA23    1               0.0000000000
     24691       793  ECLIPA    H16S           36.6830359314      -16.2751516311        6.6093189634  LPSA23    1               0.0000000000
     24692       793  ECLIPA    C17            37.8460468965      -16.0528169404        4.6915009473  LPSA23    1               0.0000000000
     24693       793  ECLIPA    H17R           38.8553934113      -15.6516306193        4.4321181887  LPSA23    1               0.0000000000
     24694       793  ECLIPA    H17S           37.1301588507      -15.5671127328        4.0090187667  LPSA23    1               0.0000000000
     24695       793  ECLIPA    C18            37.8154687576      -17.5751735085        4.5613793166  LPSA23    1               0.0000000000
     24696       793  ECLIPA    H18R           38.6835444292      -18.0032917851        5.1113670563  LPSA23    1               0.0000000000
     24697       793  ECLIPA    H18S           36.8505875732      -17.9787020815        4.8988236861  LPSA23    1               0.0000000000
     24698       793  ECLIPA    C19            37.9559233654      -18.1186376249        3.1848682088  LPSA23    1               0.0000000000
     24699       793  ECLIPA    H19R           38.2045840648      -19.1760462360        3.0698995782  LPSA23    1               0.0000000000
     24700       793  ECLIPA    H19S           38.7098779353      -17.4526360678        2.8443300271  LPSA23    1               0.0000000000
     24701       793  ECLIPA    C110           37.0169819967      -17.7536183093        2.1528682143  LPSA23    1               0.0000000000
     24702       793  ECLIPA    H110R          36.0066901007      -17.9981656997        2.5213417038  LPSA23    1               0.0000000000
     24703       793  ECLIPA    H110S          37.1920529262      -16.6285426539        2.2304958117  LPSA23    1               0.0000000000
     24704       793  ECLIPA    C111           37.1788596179      -18.4079950635        0.7173633934  LPSA23    1               0.0000000000
     24705       793  ECLIPA    H111R          38.0940703070      -18.3340439195        0.1498819476  LPSA23    1               0.0000000000
     24706       793  ECLIPA    H111S          37.1328966689      -19.4647244297        0.8695015069  LPSA23    1               0.0000000000
     24707       793  ECLIPA    C112           36.2125894914      -18.1160776567       -0.4483126233  LPSA23    1               0.0000000000
     24708       793  ECLIPA    H112R          35.2263457848      -18.3961587885       -0.1219143581  LPSA23    1               0.0000000000
     24709       793  ECLIPA    H112S          36.0358674714      -17.1077902535       -0.7129722192  LPSA23    1               0.0000000000
     24710       793  ECLIPA    C113           36.6457873636      -18.2054070003       -1.8876656077  LPSA23    1               0.0000000000
     24711       793  ECLIPA    H113R          37.4156969767      -17.6129667029       -2.3655549032  LPSA23    1               0.0000000000
     24712       793  ECLIPA    H113S          37.0991801198      -19.1521745958       -1.8749113706  LPSA23    1               0.0000000000
     24713       793  ECLIPA    C114           35.5460287277      -17.7810996776       -2.7722267027  LPSA23    1               0.0000000000
     24714       793  ECLIPA    H114R          34.6720843277      -18.2153817057       -2.3219123475  LPSA23    1               0.0000000000
     24715       793  ECLIPA    H114S          35.4212829047      -16.7437318224       -3.0369363828  LPSA23    1               0.0000000000
     24716       793  ECLIPA    H114T          35.5674201314      -18.1090537642       -3.7830808951  LPSA23    1               0.0000000000
     24717       794  AKDO      C1             33.7629432270      -11.9048940281       22.4251221405  LPSA23    2               0.0000000000
     24718       794  AKDO      O11            32.6618516433      -11.3008646310       22.4499469598  LPSA23    2               0.0000000000
     24719       794  AKDO      O12            34.8823134016      -11.4259014585       22.0873370377  LPSA23    2               0.0000000000
     24720       794  AKDO      C2             33.7695053640      -13.3957707721       22.8701467835  LPSA23    2               0.0000000000
     24721       794  AKDO      C6             32.4233249713      -15.1344083612       23.8559479215  LPSA23    2               0.0000000000
     24722       794  AKDO      H6             32.6901410019      -15.7312791351       22.9452876084  LPSA23    2               0.0000000000
     24723       794  AKDO      O6             32.4923455148      -13.7548245293       23.4593835170  LPSA23    2               0.0000000000
     24724       794  AKDO      C3             34.8369670004      -13.6903013599       23.9198736429  LPSA23    2               0.0000000000
     24725       794  AKDO      H31            34.7294916969      -12.9962362210       24.7842917886  LPSA23    2               0.0000000000
     24726       794  AKDO      H32            35.8331167904      -13.5128346267       23.4523155832  LPSA23    2               0.0000000000
     24727       794  AKDO      C4             34.7808677746      -15.1135566007       24.3595805058  LPSA23    2               0.0000000000
     24728       794  AKDO      H4             34.9036755973      -15.7841996031       23.4794761742  LPSA23    2               0.0000000000
     24729       794  AKDO      O4             35.7404897417      -15.3798787107       25.3598316069  LPSA23    2               0.0000000000
     24730       794  AKDO      C5             33.4471209129      -15.4580124485       24.9556703408  LPSA23    2               0.0000000000
     24731       794  AKDO      H5             33.4214402239      -16.5694241822       25.0816887514  LPSA23    2               0.0000000000
     24732       794  AKDO      O5             33.3428784494      -14.7773131519       26.2499997103  LPSA23    2               0.0000000000
     24733       794  AKDO      C7             30.9857305577      -15.5230242125       24.1625766747  LPSA23    2               0.0000000000
     24734       794  AKDO      H7             30.6690561936      -14.9790491910       25.0742502045  LPSA23    2               0.0000000000
     24735       794  AKDO      O7             30.8473967056      -16.9378229778       24.3669821224  LPSA23    2               0.0000000000
     24736       794  AKDO      HO7            30.8139090554      -17.3129868400       23.4792151307  LPSA23    2               0.0000000000
     24737       794  AKDO      C8             30.0745930368      -15.1338964481       23.0245598348  LPSA23    2               0.0000000000
     24738       794  AKDO      H81            30.1917246839      -14.0351526650       22.8530764100  LPSA23    2               0.0000000000
     24739       794  AKDO      H82            30.3952748206      -15.6565423713       22.0893806815  LPSA23    2               0.0000000000
     24740       794  AKDO      O8             28.7004490830      -15.4377993253       23.3559565198  LPSA23    2               0.0000000000
     24741       794  AKDO      HO8            28.1903923118      -14.7596677725       22.8990015262  LPSA23    2               0.0000000000
     24742       795  AKDO      C1             37.1525660598      -16.6487715241       23.7659746744  LPSA23    3               1.0000000000
     24743       795  AKDO      O11            37.3772025729      -16.1631541774       22.6245495384  LPSA23    3               1.0000000000
     24744       795  AKDO      O12            36.9535692032      -17.8717213111       24.0466579408  LPSA23    3               1.0000000000
     24745       795  AKDO      C2             37.0475875612      -15.6342417813       24.9707140617  LPSA23    3               1.0000000000
     24746       795  AKDO      C6             37.7206951024      -13.4279865987       25.7855778800  LPSA23    3               1.0000000000
     24747       795  AKDO      H6             36.6626434130      -13.1369810132       25.9305364073  LPSA23    3               1.0000000000
     24748       795  AKDO      O6             37.8503184258      -14.4344536961       24.7392773590  LPSA23    3               1.0000000000
     24749       795  AKDO      C3             37.5274892935      -16.2040976146       26.2973836090  LPSA23    3               1.0000000000
     24750       795  AKDO      H31            38.4307688411      -16.5498831772       25.8661737438  LPSA23    3               1.0000000000
     24751       795  AKDO      H32            37.0984113676      -17.1719774583       26.6078500781  LPSA23    3               1.0000000000
     24752       795  AKDO      C4             37.4161647791      -15.1863626677       27.4261236230  LPSA23    3               1.0000000000
     24753       795  AKDO      H4             36.3769593577      -14.8620998792       27.5121502256  LPSA23    3               1.0000000000
     24754       795  AKDO      O4             37.8404758949      -15.6718056401       28.6921657447  LPSA23    3               1.0000000000
     24755       795  AKDO      HO4            37.1754092523      -15.6185903954       29.3841334576  LPSA23    3               1.0000000000
     24756       795  AKDO      C5             38.1769035505      -13.9706558528       27.1018492426  LPSA23    3               1.0000000000
     24757       795  AKDO      H5             38.1403457825      -13.2300326266       27.9137946674  LPSA23    3               1.0000000000
     24758       795  AKDO      O5             39.4846774510      -14.1503395613       27.1861534530  LPSA23    3               1.0000000000
     24759       795  AKDO      HO5            39.7127286184      -14.6891476861       26.4265186547  LPSA23    3               1.0000000000
     24760       795  AKDO      C7             38.5014158624      -12.2047869245       25.3505822715  LPSA23    3               1.0000000000
     24761       795  AKDO      H7             39.5709128609      -12.4671061247       25.1332676323  LPSA23    3               1.0000000000
     24762       795  AKDO      O7             38.4637931818      -11.2170279617       26.3880469593  LPSA23    3               1.0000000000
     24763       795  AKDO      HO7            39.0480750396      -10.4967954642       26.1524764830  LPSA23    3               1.0000000000
     24764       795  AKDO      C8             37.8373570821      -11.6661113453       24.1098243392  LPSA23    3               1.0000000000
     24765       795  AKDO      H81            37.7987041622      -12.4563817337       23.3273268591  LPSA23    3               1.0000000000
     24766       795  AKDO      H82            36.7944018100      -11.3460492332       24.3188588412  LPSA23    3               1.0000000000
     24767       795  AKDO      O8             38.5952023912      -10.5782401815       23.5898730947  LPSA23    3               1.0000000000
     24768       795  AKDO      HO8            39.3426358508      -11.0413469232       23.2013982746  LPSA23    3               1.0000000000
     24769       796  AHEP      C1             32.5765536820      -15.4230556063       27.2540798064  LPSA23    4               2.0000000000
     24770       796  AHEP      H1             31.5331099519      -15.2616049204       26.9144631667  LPSA23    4               2.0000000000
     24771       796  AHEP      C5             33.9470990830      -17.2725919252       27.9965996162  LPSA23    4               2.0000000000
     24772       796  AHEP      H5             34.8017987204      -16.7427824753       27.5152458914  LPSA23    4               2.0000000000
     24773       796  AHEP      O5             32.7470852681      -16.8430205650       27.3113108164  LPSA23    4               2.0000000000
     24774       796  AHEP      C2             32.5670471149      -14.9117680715       28.7135680263  LPSA23    4               2.0000000000
     24775       796  AHEP      H2             32.4992379978      -13.8022150570       28.6850149219  LPSA23    4               2.0000000000
     24776       796  AHEP      O2             31.3965769330      -15.3677575151       29.3948900795  LPSA23    4               2.0000000000
     24777       796  AHEP      HO2            31.0130374948      -14.6217480440       29.8481543228  LPSA23    4               2.0000000000
     24778       796  AHEP      C3             33.8071409930      -15.2865172690       29.5031785272  LPSA23    4               2.0000000000
     24779       796  AHEP      H3             34.7222206265      -14.8039168785       29.0960570720  LPSA23    4               2.0000000000
     24780       796  AHEP      O3             33.6424029036      -14.9051752836       30.8891531961  LPSA23    4               2.0000000000
     24781       796  AHEP      C4             33.9155716988      -16.7974215706       29.4528406907  LPSA23    4               2.0000000000
     24782       796  AHEP      H4             33.0587884027      -17.2975516619       29.9629134433  LPSA23    4               2.0000000000
     24783       796  AHEP      O4             35.1587476641      -17.1231210024       30.0555590926  LPSA23    4               2.0000000000
     24784       796  AHEP      P4             35.2423402821      -17.9479167088       31.4834002929  LPSA23    4               2.0000000000
     24785       796  AHEP      OP42           36.5092764465      -17.3663759699       32.1040594117  LPSA23    4               2.0000000000
     24786       796  AHEP      OP43           35.3435369889      -19.4165964179       31.0677738050  LPSA23    4               2.0000000000
     24787       796  AHEP      OP44           33.9574875541      -17.6377087904       32.2749354598  LPSA23    4               2.0000000000
     24788       796  AHEP      C6             34.1185015329      -18.8078392092       27.8067852452  LPSA23    4               2.0000000000
     24789       796  AHEP      H6             35.1841752738      -19.0218627721       28.0864186217  LPSA23    4               2.0000000000
     24790       796  AHEP      O6             33.2725315163      -19.6259194218       28.6598084936  LPSA23    4               2.0000000000
     24791       796  AHEP      HO6            33.8155745499      -20.0849504522       29.3205699786  LPSA23    4               2.0000000000
     24792       796  AHEP      C7             33.9168486092      -19.2786398236       26.3469340954  LPSA23    4               2.0000000000
     24793       796  AHEP      H71            34.3127880689      -20.3113590427       26.2037226176  LPSA23    4               2.0000000000
     24794       796  AHEP      H72            34.4668232658      -18.5973486258       25.6618290487  LPSA23    4               2.0000000000
     24795       796  AHEP      O7             32.5542472836      -19.3068010424       25.8926271664  LPSA23    4               2.0000000000
     24796       796  AHEP      HO7            32.1985413676      -20.0739193519       26.3531531017  LPSA23    4               2.0000000000
     24797       797  AHEP      C1             34.5750053345      -14.0216677475       31.4633741462  LPSA23    5               3.0000000000
     24798       797  AHEP      H1             35.5756341393      -14.1479394343       30.9824565431  LPSA23    5               3.0000000000
     24799       797  AHEP      C5             32.8601076211      -12.4270719775       31.9585392194  LPSA23    5               3.0000000000
     24800       797  AHEP      H5             32.1395305743      -13.1885688630       31.5876643469  LPSA23    5               3.0000000000
     24801       797  AHEP      O5             34.1242471893      -12.6659811296       31.2866820981  LPSA23    5               3.0000000000
     24802       797  AHEP      C2             34.7392108453      -14.2921700590       32.9652515508  LPSA23    5               3.0000000000
     24803       797  AHEP      H2             35.0106145786      -15.3692556676       33.0870103020  LPSA23    5               3.0000000000
     24804       797  AHEP      O2             35.8273192585      -13.5059418959       33.4833195955  LPSA23    5               3.0000000000
     24805       797  AHEP      HO2            36.5657282687      -14.1041818354       33.6319884609  LPSA23    5               3.0000000000
     24806       797  AHEP      C3             33.4332553012      -14.0615306537       33.7283457003  LPSA23    5               3.0000000000
     24807       797  AHEP      H3             32.6701360305      -14.7527220691       33.3004467628  LPSA23    5               3.0000000000
     24808       797  AHEP      O3             33.4942430755      -14.2535478258       35.1634836790  LPSA23    5               3.0000000000
     24809       797  AHEP      C4             33.0004034090      -12.6361534195       33.4677294442  LPSA23    5               3.0000000000
     24810       797  AHEP      H4             33.7713448828      -11.9201812747       33.8450230980  LPSA23    5               3.0000000000
     24811       797  AHEP      O4             31.7218243519      -12.4367223390       34.0773552234  LPSA23    5               3.0000000000
     24812       797  AHEP      P4             31.5350565362      -11.3203609444       35.3078450237  LPSA23    5               3.0000000000
     24813       797  AHEP      OP42           30.1239487323      -11.6948784156       35.8035433836  LPSA23    5               3.0000000000
     24814       797  AHEP      OP43           31.6529399986       -9.9344664526       34.6686309400  LPSA23    5               3.0000000000
     24815       797  AHEP      OP44           32.6665779984      -11.6219722848       36.2980122148  LPSA23    5               3.0000000000
     24816       797  AHEP      C6             32.2991476557      -11.0581903349       31.5677853748  LPSA23    5               3.0000000000
     24817       797  AHEP      H6             31.2980343331      -10.9404385548       32.0496882601  LPSA23    5               3.0000000000
     24818       797  AHEP      O6             33.1630288430      -10.0047146673       32.0361305492  LPSA23    5               3.0000000000
     24819       797  AHEP      HO6            33.9242693319       -9.8779150226       31.4857931271  LPSA23    5               3.0000000000
     24820       797  AHEP      C7             32.0637071693      -10.9615330871       30.0706114882  LPSA23    5               3.0000000000
     24821       797  AHEP      H71            31.1392257803      -10.3502747701       29.9208257730  LPSA23    5               3.0000000000
     24822       797  AHEP      H72            31.8463686377      -11.9529044988       29.6172093932  LPSA23    5               3.0000000000
     24823       797  AHEP      O7             33.1271268978      -10.2553073943       29.4247696654  LPSA23    5               3.0000000000
     24824       798  AHEP      C1             34.0438577511      -11.0934155243       28.7837789808  LPSA23    6               4.0000000000
     24825       798  AHEP      H1             33.8696313665      -12.1595910481       29.0291866750  LPSA23    6               4.0000000000
     24826       798  AHEP      C5             34.1205426882       -9.5885494051       26.9587838170  LPSA23    6               4.0000000000
     24827       798  AHEP      H5             33.4127744189       -8.9331801958       27.5178540103  LPSA23    6               4.0000000000
     24828       798  AHEP      O5             33.8896111456      -10.9497489945       27.3721078325  LPSA23    6               4.0000000000
     24829       798  AHEP      C2             35.4463437379      -10.7220314379       29.2216070449  LPSA23    6               4.0000000000
     24830       798  AHEP      H2             35.4789294348      -10.8276812457       30.3329753524  LPSA23    6               4.0000000000
     24831       798  AHEP      O2             36.3854017482      -11.6681715276       28.7429753137  LPSA23    6               4.0000000000
     24832       798  AHEP      HO2            36.7199004812      -12.1898511140       29.4729730965  LPSA23    6               4.0000000000
     24833       798  AHEP      C3             35.7477316950       -9.2789508123       28.8340173052  LPSA23    6               4.0000000000
     24834       798  AHEP      H3             35.0309694997       -8.6207044559       29.3834666872  LPSA23    6               4.0000000000
     24835       798  AHEP      O3             37.0893719654       -8.8890842801       29.1840843953  LPSA23    6               4.0000000000
     24836       798  AHEP      HO3            37.1171700611       -8.2925928687       29.9259371957  LPSA23    6               4.0000000000
     24837       798  AHEP      C4             35.5379872240       -9.1553202590       27.3312163758  LPSA23    6               4.0000000000
     24838       798  AHEP      H4             36.2938834196       -9.7720184397       26.7915081735  LPSA23    6               4.0000000000
     24839       798  AHEP      O4             35.7139956469       -7.8157994317       26.8991366465  LPSA23    6               4.0000000000
     24840       798  AHEP      HO4            34.9533855364       -7.2814637022       27.1270819913  LPSA23    6               4.0000000000
     24841       798  AHEP      C6             33.7564996231       -9.3530869595       25.4991515227  LPSA23    6               4.0000000000
     24842       798  AHEP      H6             33.8151126342       -8.2538666267       25.3205822746  LPSA23    6               4.0000000000
     24843       798  AHEP      O6             34.7220159700       -9.9151119640       24.6137086961  LPSA23    6               4.0000000000
     24844       798  AHEP      HO6            34.2845173678      -10.5223272886       23.9875779513  LPSA23    6               4.0000000000
     24845       798  AHEP      C7             32.3072043822       -9.7127249120       25.1801253314  LPSA23    6               4.0000000000
     24846       798  AHEP      H71            32.0647490671       -9.3858531558       24.1439587781  LPSA23    6               4.0000000000
     24847       798  AHEP      H72            31.6470461102       -9.1668483209       25.8908710520  LPSA23    6               4.0000000000
     24848       798  AHEP      O7             31.9823097719      -11.0946904420       25.2931169121  LPSA23    6               4.0000000000
     24849       798  AHEP      HO7            31.8648332699      -11.3000980026       26.2158853855  LPSA23    6               4.0000000000
     24850       799  AGLC      C1             33.2025420123      -15.5271971062       35.6616723942  LPSA23    7               4.0000000000
     24851       799  AGLC      H1             32.3153327279      -15.9177734644       35.1493470871  LPSA23    7               4.0000000000
     24852       799  AGLC      C5             35.4766143282      -16.0466765324       36.0895638244  LPSA23    7               4.0000000000
     24853       799  AGLC      H5             35.7501551614      -14.9999521531       35.8217871978  LPSA23    7               4.0000000000
     24854       799  AGLC      O5             34.2638761416      -16.4229431262       35.4171168783  LPSA23    7               4.0000000000
     24855       799  AGLC      C2             32.9330458779      -15.5790516398       37.1679481747  LPSA23    7               4.0000000000
     24856       799  AGLC      H2             32.8326058147      -16.6536080526       37.4424942543  LPSA23    7               4.0000000000
     24857       799  AGLC      O2             31.6878871489      -14.9756029637       37.5245137430  LPSA23    7               4.0000000000
     24858       799  AGLC      HO2            31.8558152403      -14.0104513735       37.5877823921  LPSA23    7               4.0000000000
     24859       799  AGLC      C3             34.1170470941      -15.1080254393       37.9755586350  LPSA23    7               4.0000000000
     24860       799  AGLC      H3             34.3872364835      -14.0898888377       37.6100882903  LPSA23    7               4.0000000000
     24861       799  AGLC      O3             33.8371903116      -15.0262529519       39.4033610479  LPSA23    7               4.0000000000
     24862       799  AGLC      C4             35.2496611691      -16.0661222741       37.6055371368  LPSA23    7               4.0000000000
     24863       799  AGLC      H4             34.9886610868      -17.0990874798       37.9391316263  LPSA23    7               4.0000000000
     24864       799  AGLC      O4             36.4369486152      -15.6500648918       38.2517033234  LPSA23    7               4.0000000000
     24865       799  AGLC      HO4            36.8985996095      -16.3850099560       38.6751936502  LPSA23    7               4.0000000000
     24866       799  AGLC      C6             36.5952990906      -16.9018677221       35.4987685784  LPSA23    7               4.0000000000
     24867       799  AGLC      H61            36.6196985923      -16.7280661038       34.4014044292  LPSA23    7               4.0000000000
     24868       799  AGLC      H62            37.6029049380      -16.6331516052       35.8874424451  LPSA23    7               4.0000000000
     24869       799  AGLC      O6             36.3923768263      -18.2954955239       35.6775479881  LPSA23    7               4.0000000000
     24870       799  AGLC      HO6            36.7968370691      -18.5362665671       36.5009170365  LPSA23    7               4.0000000000
     24871       800  AGLC      C1             33.9774619918      -13.7102999078       39.9233118578  LPSA23    8               5.0000000000
     24872       800  AGLC      H1             34.9005939809      -13.2417101956       39.5124010824  LPSA23    8               5.0000000000
     24873       800  AGLC      C5             31.5975425942      -13.1926147392       40.2217304622  LPSA23    8               5.0000000000
     24874       800  AGLC      H5             31.3651977559      -14.2237421920       39.8867540523  LPSA23    8               5.0000000000
     24875       800  AGLC      O5             32.8552138780      -12.8547223033       39.5936478334  LPSA23    8               5.0000000000
     24876       800  AGLC      C2             34.1533574775      -13.6896687699       41.4353031414  LPSA23    8               5.0000000000
     24877       800  AGLC      H2             34.3495804005      -12.6300461883       41.7043515516  LPSA23    8               5.0000000000
     24878       800  AGLC      O2             35.2512521022      -14.4589760080       41.9391813875  LPSA23    8               5.0000000000
     24879       800  AGLC      C3             32.8990449299      -14.1353684655       42.1270908196  LPSA23    8               5.0000000000
     24880       800  AGLC      H3             32.6713357194      -15.1592846287       41.7248497792  LPSA23    8               5.0000000000
     24881       800  AGLC      O3             33.1746784121      -14.2550423351       43.5413710026  LPSA23    8               5.0000000000
     24882       800  AGLC      C4             31.7934422719      -13.1780501961       41.7359940354  LPSA23    8               5.0000000000
     24883       800  AGLC      H4             32.1115150262      -12.1479111677       42.0289036394  LPSA23    8               5.0000000000
     24884       800  AGLC      O4             30.5814095829      -13.4869784117       42.4151548435  LPSA23    8               5.0000000000
     24885       800  AGLC      HO4            30.4929508996      -14.4434508540       42.3967124641  LPSA23    8               5.0000000000
     24886       800  AGLC      C6             30.3987303603      -12.3360803090       39.7428803059  LPSA23    8               5.0000000000
     24887       800  AGLC      H61            30.3962301812      -12.2246027272       38.6318325069  LPSA23    8               5.0000000000
     24888       800  AGLC      H62            29.4417473411      -12.8345431054       40.0180048680  LPSA23    8               5.0000000000
     24889       800  AGLC      O6             30.3333959368      -11.0345155245       40.3266144630  LPSA23    8               5.0000000000
     24890       800  AGLC      HO6            29.9546534428      -11.0716138664       41.2065744151  LPSA23    8               5.0000000000
     24891       801  AGAL      C1             36.5266053815      -14.1782547979       41.4255681634  LPSA23    9               6.0000000000
     24892       801  AGAL      H1             36.5152050124      -14.1580333775       40.3207218311  LPSA23    9               6.0000000000
     24893       801  AGAL      C5             37.2168800299      -12.8566596326       43.2805817494  LPSA23    9               6.0000000000
     24894       801  AGAL      H5             36.2782860666      -13.1977151305       43.7650471462  LPSA23    9               6.0000000000
     24895       801  AGAL      O5             37.0121370008      -12.8946515897       41.8473795150  LPSA23    9               6.0000000000
     24896       801  AGAL      C2             37.4383861876      -15.3252719647       41.8328290899  LPSA23    9               6.0000000000
     24897       801  AGAL      H2             38.4360569419      -15.1264457619       41.3708639736  LPSA23    9               6.0000000000
     24898       801  AGAL      O2             36.9290572154      -16.5236644815       41.2068665818  LPSA23    9               6.0000000000
     24899       801  AGAL      C3             37.5987638090      -15.2723040721       43.3342002229  LPSA23    9               6.0000000000
     24900       801  AGAL      H3             36.6225954806      -15.3735007257       43.8439542065  LPSA23    9               6.0000000000
     24901       801  AGAL      O3             38.1722956413      -16.3914771335       43.9463139998  LPSA23    9               6.0000000000
     24902       801  AGAL      HO3            38.2306523025      -17.0477761456       43.2297295692  LPSA23    9               6.0000000000
     24903       801  AGAL      C4             38.1987279242      -13.9075263321       43.6726137648  LPSA23    9               6.0000000000
     24904       801  AGAL      H4             38.4656125297      -13.8592522171       44.7546369100  LPSA23    9               6.0000000000
     24905       801  AGAL      O4             39.3019495649      -13.5169120379       42.8734217871  LPSA23    9               6.0000000000
     24906       801  AGAL      HO4            39.9235289140      -13.2370370463       43.5589984331  LPSA23    9               6.0000000000
     24907       801  AGAL      C6             37.5255184056      -11.4672795050       43.8494678538  LPSA23    9               6.0000000000
     24908       801  AGAL      H61            36.6596119109      -10.8183969120       43.6160183464  LPSA23    9               6.0000000000
     24909       801  AGAL      H62            37.5958446267      -11.5266348876       44.9580275069  LPSA23    9               6.0000000000
     24910       801  AGAL      O6             38.7175682109      -10.8243617871       43.3738558051  LPSA23    9               6.0000000000
     24911       801  AGAL      HO6            38.4578097084      -10.2610463926       42.6626992612  LPSA23    9               6.0000000000
     24912       802  AGAL      C1             36.9313999821      -17.8298899060       41.7548237785  LPSA23    10              7.0000000000
     24913       802  AGAL      H1             37.9779575730      -18.1918586818       41.8416709247  LPSA23    10              7.0000000000
     24914       802  AGAL      C5             34.8876125334      -17.6300987259       43.0455922119  LPSA23    10              7.0000000000
     24915       802  AGAL      H5             34.8485410179      -16.5940658955       42.6469631058  LPSA23    10              7.0000000000
     24916       802  AGAL      O5             36.2820236956      -17.9946433527       43.0471365934  LPSA23    10              7.0000000000
     24917       802  AGAL      C2             36.2072795179      -18.7189784932       40.7611216813  LPSA23    10              7.0000000000
     24918       802  AGAL      H2             36.2712610177      -19.7595493009       41.1390571850  LPSA23    10              7.0000000000
     24919       802  AGAL      O2             36.8653815921      -18.7954541354       39.4940827124  LPSA23    10              7.0000000000
     24920       802  AGAL      HO2            36.8231258772      -19.7171506795       39.2296830580  LPSA23    10              7.0000000000
     24921       802  AGAL      C3             34.7319259423      -18.3168846512       40.7142890212  LPSA23    10              7.0000000000
     24922       802  AGAL      H3             34.6794715730      -17.2355850341       40.4383262113  LPSA23    10              7.0000000000
     24923       802  AGAL      O3             33.9743851002      -19.0613478411       39.7792728480  LPSA23    10              7.0000000000
     24924       802  AGAL      HO3            33.7779999250      -18.5197654963       38.9963558625  LPSA23    10              7.0000000000
     24925       802  AGAL      C4             34.1216179874      -18.5041998729       42.0802814513  LPSA23    10              7.0000000000
     24926       802  AGAL      H4             33.0590448347      -18.1635556310       42.0782342272  LPSA23    10              7.0000000000
     24927       802  AGAL      O4             34.1472104808      -19.8762799106       42.4664604532  LPSA23    10              7.0000000000
     24928       802  AGAL      HO4            35.0698768366      -20.0779719678       42.6345994191  LPSA23    10              7.0000000000
     24929       802  AGAL      C6             34.2245474015      -17.5260365742       44.4218226918  LPSA23    10              7.0000000000
     24930       802  AGAL      H61            34.8626711169      -16.9115704415       45.0903905039  LPSA23    10              7.0000000000
     24931       802  AGAL      H62            33.2639877517      -16.9697035757       44.2771392321  LPSA23    10              7.0000000000
     24932       802  AGAL      O6             33.9628230841      -18.7739217513       45.0829436378  LPSA23    10              7.0000000000
     24933       802  AGAL      HO6            34.4269415907      -18.7607526944       45.9237950640  LPSA23    10              7.0000000000
     24934       803  BGLC      C1             32.8971863956      -13.2196019121       44.4782531277  LPSA23    11              6.0000000000
     24935       803  BGLC      H1             31.7955303438      -13.1495649889       44.6165620070  LPSA23    11              6.0000000000
     24936       803  BGLC      C5             33.3352657104      -10.9029674284       45.0961633833  LPSA23    11              6.0000000000
     24937       803  BGLC      H5             32.2680991799      -10.7787497485       45.2763303318  LPSA23    11              6.0000000000
     24938       803  BGLC      O5             33.4997719124      -11.9568279553       44.1074098036  LPSA23    11              6.0000000000
     24939       803  BGLC      C2             33.5311596711      -13.6868278857       45.7919006260  LPSA23    11              6.0000000000
     24940       803  BGLC      H2             34.6298068478      -13.8315294324       45.6454495042  LPSA23    11              6.0000000000
     24941       803  BGLC      O2             32.9759403979      -14.9386694612       46.1988725239  LPSA23    11              6.0000000000
     24942       803  BGLC      HO2            33.6865093133      -15.5759261604       46.3001908116  LPSA23    11              6.0000000000
     24943       803  BGLC      C3             33.3762987950      -12.6701421668       46.8996210508  LPSA23    11              6.0000000000
     24944       803  BGLC      H3             32.3031865572      -12.5523179004       47.1676162824  LPSA23    11              6.0000000000
     24945       803  BGLC      O3             34.1434918448      -13.1047244575       48.0495377252  LPSA23    11              6.0000000000
     24946       803  BGLC      C4             33.9919137777      -11.3668181483       46.4131246485  LPSA23    11              6.0000000000
     24947       803  BGLC      H4             35.0684118060      -11.5430029943       46.1921933668  LPSA23    11              6.0000000000
     24948       803  BGLC      O4             33.9186808887      -10.3810069163       47.4382692921  LPSA23    11              6.0000000000
     24949       803  BGLC      HO4            34.5463838700      -10.6277479518       48.1385992864  LPSA23    11              6.0000000000
     24950       803  BGLC      C6             33.8086775361       -9.5598428666       44.5151169192  LPSA23    11              6.0000000000
     24951       803  BGLC      H61            34.0140762660       -8.7966157872       45.2981478085  LPSA23    11              6.0000000000
     24952       803  BGLC      H62            34.7256631975       -9.7429107680       43.9263569983  LPSA23    11              6.0000000000
     24953       803  BGLC      O6             32.8797086506       -8.9773750259       43.6011670768  LPSA23    11              6.0000000000
     24954       803  BGLC      HO6            32.4328195724       -8.1914644927       43.9468311659  LPSA23    11              6.0000000000
     24955       804  BGLCNA    C1             33.5226216959      -13.2266032262       49.3166690300  LPSA23    12              7.0000000000
     24956       804  BGLCNA    H1             33.0012898755      -14.2065112836       49.3718408136  LPSA23    12              7.0000000000
     24957       804  BGLCNA    C5             31.9639663660      -12.3341521559       50.8739026189  LPSA23    12              7.0000000000
     24958       804  BGLCNA    H5             31.4358285242      -13.3117496665       50.9510964531  LPSA23    12              7.0000000000
     24959       804  BGLCNA    O5             32.5733506889      -12.1984051667       49.5730136787  LPSA23    12              7.0000000000
     24960       804  BGLCNA    C2             34.6407054928      -13.1562905590       50.3469662955  LPSA23    12              7.0000000000
     24961       804  BGLCNA    H2             35.0477543448      -12.1077199917       50.3021207298  LPSA23    12              7.0000000000
     24962       804  BGLCNA    N              35.6339722329      -14.1624146321       50.0451057415  LPSA23    12              7.0000000000
     24963       804  BGLCNA    HN             35.2811555322      -15.0885623732       49.9532588752  LPSA23    12              7.0000000000
     24964       804  BGLCNA    C              36.9273203065      -13.8482599842       49.8928519119  LPSA23    12              7.0000000000
     24965       804  BGLCNA    O              37.3353205957      -12.7111728477       50.0510205355  LPSA23    12              7.0000000000
     24966       804  BGLCNA    CT             37.8851381794      -14.9475728446       49.5392026157  LPSA23    12              7.0000000000
     24967       804  BGLCNA    HT1            38.5320215909      -15.1735386446       50.4082279596  LPSA23    12              7.0000000000
     24968       804  BGLCNA    HT2            38.5510421501      -14.6266827715       48.7128151105  LPSA23    12              7.0000000000
     24969       804  BGLCNA    HT3            37.3103093294      -15.8450812319       49.2324917780  LPSA23    12              7.0000000000
     24970       804  BGLCNA    C3             34.1090705885      -13.3510381014       51.7474670525  LPSA23    12              7.0000000000
     24971       804  BGLCNA    H3             33.6368073689      -14.3500768746       51.7871720960  LPSA23    12              7.0000000000
     24972       804  BGLCNA    O3             35.1640827336      -13.3241874567       52.7594026468  LPSA23    12              7.0000000000
     24973       804  BGLCNA    C4             33.0639440375      -12.2756933053       51.9441096906  LPSA23    12              7.0000000000
     24974       804  BGLCNA    H4             33.5389514351      -11.2797628402       51.8380622611  LPSA23    12              7.0000000000
     24975       804  BGLCNA    O4             32.5306415877      -12.4085970471       53.2496256346  LPSA23    12              7.0000000000
     24976       804  BGLCNA    HO4            31.8541337490      -13.0857827253       53.2709738245  LPSA23    12              7.0000000000
     24977       804  BGLCNA    C6             30.9253302754      -11.2275780637       50.9385749358  LPSA23    12              7.0000000000
     24978       804  BGLCNA    H61            30.3875083759      -11.2344447370       51.9160634311  LPSA23    12              7.0000000000
     24979       804  BGLCNA    H62            31.4362955144      -10.2451700065       50.8417478871  LPSA23    12              7.0000000000
     24980       804  BGLCNA    O6             29.9701660787      -11.3391241042       49.8733492000  LPSA23    12              7.0000000000
     24981       804  BGLCNA    HO6            29.2612496984      -11.9093913791       50.1890548159  LPSA23    12              7.0000000000
     24982       805  AGAL      C1             35.0187229276      -14.2560954615       53.8310211076  LPSA23    13              8.0000000000
     24983       805  AGAL      H1             33.9524991969      -14.2866415802       54.1426328315  LPSA23    13              8.0000000000
     24984       805  AGAL      C5             36.9164745241      -15.5987271818       53.2696582484  LPSA23    13              8.0000000000
     24985       805  AGAL      H5             37.1241504265      -14.7837801974       52.5399660259  LPSA23    13              8.0000000000
     24986       805  AGAL      O5             35.4812234204      -15.5728991077       53.4627232849  LPSA23    13              8.0000000000
     24987       805  AGAL      C2             35.7895496359      -13.8954031724       55.1016223166  LPSA23    13              8.0000000000
     24988       805  AGAL      H2             35.6453011308      -14.7602048990       55.7960129891  LPSA23    13              8.0000000000
     24989       805  AGAL      O2             35.2293117040      -12.7446617788       55.7484150593  LPSA23    13              8.0000000000
     24990       805  AGAL      C3             37.2854555478      -13.8567052641       54.8853676862  LPSA23    13              8.0000000000
     24991       805  AGAL      H3             37.5131051667      -13.2029831375       54.0148370576  LPSA23    13              8.0000000000
     24992       805  AGAL      O3             37.9776857700      -13.3062130102       55.9895089066  LPSA23    13              8.0000000000
     24993       805  AGAL      HO3            38.7411508542      -12.7937665863       55.7105272852  LPSA23    13              8.0000000000
     24994       805  AGAL      C4             37.7246055887      -15.2456435671       54.5123475031  LPSA23    13              8.0000000000
     24995       805  AGAL      H4             38.7987146466      -15.2137812949       54.2283219975  LPSA23    13              8.0000000000
     24996       805  AGAL      O4             37.6156873178      -16.1894907982       55.5792833855  LPSA23    13              8.0000000000
     24997       805  AGAL      HO4            36.7675035707      -16.1299410521       56.0355624916  LPSA23    13              8.0000000000
     24998       805  AGAL      C6             37.4538844549      -16.8109707247       52.5547366343  LPSA23    13              8.0000000000
     24999       805  AGAL      H61            36.9064528019      -16.9627358836       51.6017688898  LPSA23    13              8.0000000000
     25000       805  AGAL      H62            38.5242315584      -16.6032263010       52.3449962227  LPSA23    13              8.0000000000
     25001       805  AGAL      O6             37.3944945121      -18.0003957048       53.3184229230  LPSA23    13              8.0000000000
     25002       805  AGAL      HO6            38.1260632001      -17.9952143174       53.9448258036  LPSA23    13              8.0000000000
     25003       806  ARHM      C1             34.6101420601      -12.9463645731       57.0054289078  LPSA23    14              9.0000000000
     25004       806  ARHM      H1             34.1950601512      -13.9789044896       57.0465547852  LPSA23    14              9.0000000000
     25005       806  ARHM      C5             33.9134518805      -10.6862010598       57.1773481887  LPSA23    14              9.0000000000
     25006       806  ARHM      H5             34.4255839026      -10.4907402818       56.2060617504  LPSA23    14              9.0000000000
     25007       806  ARHM      O5             33.4977543650      -12.0664553605       57.1848084004  LPSA23    14              9.0000000000
     25008       806  ARHM      C2             35.6271821293      -12.7425358653       58.1147002100  LPSA23    14              9.0000000000
     25009       806  ARHM      H2             36.4809724189      -13.4365518402       57.9374310102  LPSA23    14              9.0000000000
     25010       806  ARHM      O2             35.1390310658      -12.9179959456       59.4590217000  LPSA23    14              9.0000000000
     25011       806  ARHM      C3             36.0983141118      -11.3107639846       58.0603964895  LPSA23    14              9.0000000000
     25012       806  ARHM      H3             36.4376287940      -11.0841421656       57.0231116580  LPSA23    14              9.0000000000
     25013       806  ARHM      O3             37.2303277383      -11.0658257327       58.8949743194  LPSA23    14              9.0000000000
     25014       806  ARHM      HO3            36.9403445760      -11.0969962514       59.8062706956  LPSA23    14              9.0000000000
     25015       806  ARHM      C4             34.9036419176      -10.4029843147       58.3180737434  LPSA23    14              9.0000000000
     25016       806  ARHM      H4             34.3878493168      -10.6668402642       59.2741313518  LPSA23    14              9.0000000000
     25017       806  ARHM      O4             35.2641427003       -9.0180610026       58.3945782543  LPSA23    14              9.0000000000
     25018       806  ARHM      HO4            35.2137805460       -8.7058568808       59.3014625120  LPSA23    14              9.0000000000
     25019       806  ARHM      C6             32.6494033292       -9.8160085380       57.2573018314  LPSA23    14              9.0000000000
     25020       806  ARHM      H61            31.8655280826      -10.1871113520       56.5670579193  LPSA23    14              9.0000000000
     25021       806  ARHM      H62            32.3047665299       -9.8110490638       58.3103896919  LPSA23    14              9.0000000000
     25022       806  ARHM      H63            32.8588240057       -8.7723425914       56.9588916096  LPSA23    14              9.0000000000
     25023       807  ARHM      C1             34.4922946351      -14.1284587127       59.7455310932  LPSA23    15             10.0000000000
     25024       807  ARHM      H1             34.8391115269      -14.9207006051       59.0418186032  LPSA23    15             10.0000000000
     25025       807  ARHM      C5             32.4662585220      -13.1219852337       60.6386628826  LPSA23    15             10.0000000000
     25026       807  ARHM      H5             32.7679784783      -12.0629717781       60.4497600498  LPSA23    15             10.0000000000
     25027       807  ARHM      O5             33.0485009139      -14.0206176532       59.6750712434  LPSA23    15             10.0000000000
     25028       807  ARHM      C2             34.9040406890      -14.5622535923       61.1397400255  LPSA23    15             10.0000000000
     25029       807  ARHM      H2             36.0180946991      -14.5646200820       61.2039957341  LPSA23    15             10.0000000000
     25030       807  ARHM      O2             34.4117204856      -15.9084058396       61.3028109457  LPSA23    15             10.0000000000
     25031       807  ARHM      C3             34.3725463989      -13.5684149632       62.1367355493  LPSA23    15             10.0000000000
     25032       807  ARHM      H3             34.7162048458      -12.5477900233       61.8397326336  LPSA23    15             10.0000000000
     25033       807  ARHM      O3             34.9353028955      -13.8768073781       63.4122883413  LPSA23    15             10.0000000000
     25034       807  ARHM      C4             32.8596806172      -13.5788671555       62.0358270626  LPSA23    15             10.0000000000
     25035       807  ARHM      H4             32.5121026579      -14.6321099691       62.1649265011  LPSA23    15             10.0000000000
     25036       807  ARHM      O4             32.1861509493      -12.7951529857       63.0140427243  LPSA23    15             10.0000000000
     25037       807  ARHM      HO4            31.2595559030      -13.0454893976       62.9698640179  LPSA23    15             10.0000000000
     25038       807  ARHM      C6             30.9423518067      -13.1778497119       60.4536711971  LPSA23    15             10.0000000000
     25039       807  ARHM      H61            30.4041881178      -12.4066246654       61.0439861227  LPSA23    15             10.0000000000
     25040       807  ARHM      H62            30.6890335376      -13.0875354515       59.3764231571  LPSA23    15             10.0000000000
     25041       807  ARHM      H63            30.5968976032      -14.1536917029       60.8124121934  LPSA23    15             10.0000000000
     25042       808  BMANNA    C1             34.6497611068      -16.6113863574       62.5027459453  LPSA23    16             11.0000000000
     25043       808  BMANNA    H1             34.0363191708      -16.1426784097       63.3089976550  LPSA23    16             11.0000000000
     25044       808  BMANNA    C5             36.1644219280      -17.2703076932       64.2105462476  LPSA23    16             11.0000000000
     25045       808  BMANNA    H5             35.4968492938      -16.7730070711       64.9531545549  LPSA23    16             11.0000000000
     25046       808  BMANNA    O5             36.0180970408      -16.6258776212       62.9267694001  LPSA23    16             11.0000000000
     25047       808  BMANNA    C2             34.1599440942      -18.0548331808       62.3068818982  LPSA23    16             11.0000000000
     25048       808  BMANNA    H2             33.0763506363      -17.9805407854       62.0343160943  LPSA23    16             11.0000000000
     25049       808  BMANNA    N              34.8320744649      -18.8097878726       61.2644775774  LPSA23    16             11.0000000000
     25050       808  BMANNA    HN             35.6322025902      -19.3125511892       61.5697275045  LPSA23    16             11.0000000000
     25051       808  BMANNA    C              34.4496791944      -18.8760342752       59.9854865792  LPSA23    16             11.0000000000
     25052       808  BMANNA    O              33.4650919248      -18.2873192409       59.5468761044  LPSA23    16             11.0000000000
     25053       808  BMANNA    CT             35.3420170726      -19.6855690576       59.0763369133  LPSA23    16             11.0000000000
     25054       808  BMANNA    HT1            34.8882401640      -20.6719972471       58.8538119959  LPSA23    16             11.0000000000
     25055       808  BMANNA    HT2            36.3325276919      -19.8544999430       59.5417289071  LPSA23    16             11.0000000000
     25056       808  BMANNA    HT3            35.4759548654      -19.1422180805       58.1198136022  LPSA23    16             11.0000000000
     25057       808  BMANNA    C3             34.3094335204      -18.7674659920       63.6415955997  LPSA23    16             11.0000000000
     25058       808  BMANNA    H3             33.7751020369      -18.1788364707       64.3836236412  LPSA23    16             11.0000000000
     25059       808  BMANNA    O3             33.7700265034      -20.0898160621       63.6213154240  LPSA23    16             11.0000000000
     25060       808  BMANNA    HO3            33.0950589138      -20.1737624403       64.3003092277  LPSA23    16             11.0000000000
     25061       808  BMANNA    C4             35.7379710418      -18.7350426921       64.1304490119  LPSA23    16             11.0000000000
     25062       808  BMANNA    H4             36.3013139629      -19.3234091524       63.4028559825  LPSA23    16             11.0000000000
     25063       808  BMANNA    O4             35.9758830085      -19.3740492824       65.3904372754  LPSA23    16             11.0000000000
     25064       808  BMANNA    HO4            36.8923555564      -19.6835706087       65.3627793997  LPSA23    16             11.0000000000
     25065       808  BMANNA    C6             37.5441208619      -17.1268892380       64.8048788289  LPSA23    16             11.0000000000
     25066       808  BMANNA    H61            37.4984379048      -17.1822505094       65.9068494504  LPSA23    16             11.0000000000
     25067       808  BMANNA    H62            38.0681120963      -18.0348560531       64.5003678011  LPSA23    16             11.0000000000
     25068       808  BMANNA    O6             38.3128446310      -15.9801817833       64.4296864576  LPSA23    16             11.0000000000
     25069       808  BMANNA    HO6            39.0043817248      -16.2909169550       63.8194404788  LPSA23    16             11.0000000000
     25070       809  BGLCNA    C1             35.3269925125      -12.7538801573       64.1478976589  LPSA23    17             11.0000000000
     25071       809  BGLCNA    H1             34.5798433730      -11.9489650321       63.9848389588  LPSA23    17             11.0000000000
     25072       809  BGLCNA    C5             37.0549122724      -11.1285493204       64.5692755306  LPSA23    17             11.0000000000
     25073       809  BGLCNA    H5             36.3551227054      -10.2818790082       64.3684209145  LPSA23    17             11.0000000000
     25074       809  BGLCNA    O5             36.6255336430      -12.2597827781       63.7838039095  LPSA23    17             11.0000000000
     25075       809  BGLCNA    C2             35.3292200937      -13.2478127628       65.5821024493  LPSA23    17             11.0000000000
     25076       809  BGLCNA    H2             36.1199162083      -14.0216218577       65.7456658721  LPSA23    17             11.0000000000
     25077       809  BGLCNA    N              34.0623604054      -13.8788077386       65.8884154901  LPSA23    17             11.0000000000
     25078       809  BGLCNA    HN             33.2969337769      -13.5308975817       65.3716549977  LPSA23    17             11.0000000000
     25079       809  BGLCNA    C              33.8107912247      -14.8112889345       66.8084449559  LPSA23    17             11.0000000000
     25080       809  BGLCNA    O              34.6567539652      -15.3963773063       67.4673569945  LPSA23    17             11.0000000000
     25081       809  BGLCNA    CT             32.3494231991      -15.0962274059       67.0248527104  LPSA23    17             11.0000000000
     25082       809  BGLCNA    HT1            32.0291212841      -16.0311117093       66.5309166141  LPSA23    17             11.0000000000
     25083       809  BGLCNA    HT2            31.7619313503      -14.2319792890       66.6667468872  LPSA23    17             11.0000000000
     25084       809  BGLCNA    HT3            32.1725102051      -15.1887023703       68.1062297779  LPSA23    17             11.0000000000
     25085       809  BGLCNA    C3             35.6387731019      -12.0351817980       66.4348309653  LPSA23    17             11.0000000000
     25086       809  BGLCNA    H3             34.9142519424      -11.2571106457       66.0966440148  LPSA23    17             11.0000000000
     25087       809  BGLCNA    O3             35.3760928151      -12.3276876281       67.8326144442  LPSA23    17             11.0000000000
     25088       809  BGLCNA    C4             37.0387331207      -11.5496357099       66.0467190784  LPSA23    17             11.0000000000
     25089       809  BGLCNA    H4             37.7581152760      -12.3991252122       66.1365109160  LPSA23    17             11.0000000000
     25090       809  BGLCNA    O4             37.4894809226      -10.5024609341       66.9023906959  LPSA23    17             11.0000000000
     25091       809  BGLCNA    HO4            38.3868310390      -10.2116404759       66.7071039124  LPSA23    17             11.0000000000
     25092       809  BGLCNA    C6             38.4491497660      -10.6807645991       64.1165584586  LPSA23    17             11.0000000000
     25093       809  BGLCNA    H61            38.5367474627       -9.5731828147       64.1608869337  LPSA23    17             11.0000000000
     25094       809  BGLCNA    H62            39.2193924923      -11.1021967183       64.8040572442  LPSA23    17             11.0000000000
     25095       809  BGLCNA    O6             38.7854035907      -11.0875628967       62.7902168148  LPSA23    17             11.0000000000
     25096       809  BGLCNA    HO6            38.1422040636      -10.7663736482       62.1575977286  LPSA23    17             11.0000000000
     25097       810  AGAL      C1             34.8736423308      -11.2585637965       68.6187768230  LPSA23    18             12.0000000000
     25098       810  AGAL      H1             35.6952715919      -10.5324068629       68.8070451214  LPSA23    18             12.0000000000
     25099       810  AGAL      C5             32.6238852649      -11.3883430851       67.8559727504  LPSA23    18             12.0000000000
     25100       810  AGAL      H5             32.9425534278      -12.3453060838       67.4053318188  LPSA23    18             12.0000000000
     25101       810  AGAL      O5             33.7948646189      -10.5632235750       67.9811522996  LPSA23    18             12.0000000000
     25102       810  AGAL      C2             34.3274100227      -11.7045542039       69.9699208241  LPSA23    18             12.0000000000
     25103       810  AGAL      H2             33.9388885508      -10.7481206468       70.3978731417  LPSA23    18             12.0000000000
     25104       810  AGAL      O2             35.3380929774      -12.1563089948       70.8724965404  LPSA23    18             12.0000000000
     25105       810  AGAL      C3             33.1142063226      -12.6290690807       69.8451730081  LPSA23    18             12.0000000000
     25106       810  AGAL      H3             33.3864700521      -13.4737433958       69.1718320723  LPSA23    18             12.0000000000
     25107       810  AGAL      O3             32.7221154560      -13.2163891098       71.0835925911  LPSA23    18             12.0000000000
     25108       810  AGAL      HO3            32.5364120759      -14.1563350045       70.9951780649  LPSA23    18             12.0000000000
     25109       810  AGAL      C4             32.0051109386      -11.8401383662       69.1760435094  LPSA23    18             12.0000000000
     25110       810  AGAL      H4             31.1374899755      -12.4941386400       68.9435724635  LPSA23    18             12.0000000000
     25111       810  AGAL      O4             31.5109843192      -10.7751786084       69.9770107766  LPSA23    18             12.0000000000
     25112       810  AGAL      HO4            31.0248310343      -11.1319970911       70.7338788320  LPSA23    18             12.0000000000
     25113       810  AGAL      C6             31.7404842210      -10.8378599156       66.7733654666  LPSA23    18             12.0000000000
     25114       810  AGAL      H61            32.3507654000      -10.8472239802       65.8370135403  LPSA23    18             12.0000000000
     25115       810  AGAL      H62            30.8692441858      -11.5061937543       66.6323853474  LPSA23    18             12.0000000000
     25116       810  AGAL      O6             31.2684328088       -9.5227851049       67.0271029987  LPSA23    18             12.0000000000
     25117       810  AGAL      HO6            31.8893299267       -9.0898835226       67.6248798244  LPSA23    18             12.0000000000
     25118       811  ARHM      C1             35.1074924785      -11.6502079673       72.1692208710  LPSA23    19             13.0000000000
     25119       811  ARHM      H1             34.0212471090      -11.4932915149       72.3533695146  LPSA23    19             13.0000000000
     25120       811  ARHM      C5             37.1302972371      -10.4261841348       72.2690136272  LPSA23    19             13.0000000000
     25121       811  ARHM      H5             37.3241616027      -10.7833090286       71.2283398318  LPSA23    19             13.0000000000
     25122       811  ARHM      O5             35.7122761183      -10.3790799830       72.4178364428  LPSA23    19             13.0000000000
     25123       811  ARHM      C2             35.6822793480      -12.6594303951       73.1175982319  LPSA23    19             13.0000000000
     25124       811  ARHM      H2             35.3045831675      -13.6842452770       72.8734723422  LPSA23    19             13.0000000000
     25125       811  ARHM      O2             35.2879900912      -12.3527700638       74.4568840627  LPSA23    19             13.0000000000
     25126       811  ARHM      C3             37.1819473867      -12.7126411665       72.9680018163  LPSA23    19             13.0000000000
     25127       811  ARHM      H3             37.4366957712      -12.9580558494       71.9096406742  LPSA23    19             13.0000000000
     25128       811  ARHM      O3             37.7265573722      -13.7256905730       73.7880358889  LPSA23    19             13.0000000000
     25129       811  ARHM      HO3            37.4081201253      -13.5869607017       74.6881282257  LPSA23    19             13.0000000000
     25130       811  ARHM      C4             37.7571691772      -11.3546326536       73.2585508736  LPSA23    19             13.0000000000
     25131       811  ARHM      H4             37.4810282702      -11.0587845668       74.2968052658  LPSA23    19             13.0000000000
     25132       811  ARHM      O4             39.1725493153      -11.2775280391       73.1529857882  LPSA23    19             13.0000000000
     25133       811  ARHM      HO4            39.4498318321      -11.4957501273       72.2536446491  LPSA23    19             13.0000000000
     25134       811  ARHM      C6             37.6846164253       -9.0170232214       72.3231613273  LPSA23    19             13.0000000000
     25135       811  ARHM      H61            37.1300673806       -8.5734807044       71.5006378506  LPSA23    19             13.0000000000
     25136       811  ARHM      H62            37.4809266998       -8.4483835198       73.2479597287  LPSA23    19             13.0000000000
     25137       811  ARHM      H63            38.7656683566       -8.9555625973       72.0780398293  LPSA23    19             13.0000000000
     25138       812  ARHM      C1             33.9297284028      -12.6423992402       74.7023696476  LPSA23    20             14.0000000000
     25139       812  ARHM      H1             33.4917877388      -13.2394580686       73.8697782235  LPSA23    20             14.0000000000
     25140       812  ARHM      C5             33.4757522931      -10.6852410335       75.9622619543  LPSA23    20             14.0000000000
     25141       812  ARHM      H5             34.5380902396      -10.3863759946       75.8094588576  LPSA23    20             14.0000000000
     25142       812  ARHM      O5             33.0863228799      -11.4931979327       74.8545699233  LPSA23    20             14.0000000000
     25143       812  ARHM      C2             33.8931025745      -13.4765368256       75.9496548090  LPSA23    20             14.0000000000
     25144       812  ARHM      H2             34.6392559096      -14.3078369159       75.8441856338  LPSA23    20             14.0000000000
     25145       812  ARHM      O2             32.5793631208      -14.0063156788       76.1600426055  LPSA23    20             14.0000000000
     25146       812  ARHM      C3             34.2949493736      -12.6655627995       77.1308478330  LPSA23    20             14.0000000000
     25147       812  ARHM      H3             35.3263277550      -12.2721117172       76.9610267461  LPSA23    20             14.0000000000
     25148       812  ARHM      O3             34.2781211705      -13.5367481779       78.2634990107  LPSA23    20             14.0000000000
     25149       812  ARHM      C4             33.3539568210      -11.4985220671       77.2421383375  LPSA23    20             14.0000000000
     25150       812  ARHM      H4             32.2860937008      -11.8187612615       77.3220235208  LPSA23    20             14.0000000000
     25151       812  ARHM      O4             33.6638730237      -10.6919743222       78.3670164968  LPSA23    20             14.0000000000
     25152       812  ARHM      HO4            33.3569804108       -9.8211527897       78.0981652574  LPSA23    20             14.0000000000
     25153       812  ARHM      C6             32.6238625026       -9.4022844242       75.9618221779  LPSA23    20             14.0000000000
     25154       812  ARHM      H61            31.5383982458       -9.5945037496       76.0908021873  LPSA23    20             14.0000000000
     25155       812  ARHM      H62            32.9713497230       -8.7236562874       76.7651480926  LPSA23    20             14.0000000000
     25156       812  ARHM      H63            32.7411248569       -8.8700518019       74.9935421765  LPSA23    20             14.0000000000
     25157       813  BMANNA    C1             32.3986067553      -15.1657445338       75.4071990076  LPSA23    21             15.0000000000
     25158       813  BMANNA    H1             33.2662534332      -15.3015602399       74.7201241557  LPSA23    21             15.0000000000
     25159       813  BMANNA    C5             31.2758773317      -16.2328006604       73.6444297538  LPSA23    21             15.0000000000
     25160       813  BMANNA    H5             32.2385181802      -16.3256786714       73.0782250357  LPSA23    21             15.0000000000
     25161       813  BMANNA    O5             31.2991219254      -15.0804262046       74.5075498664  LPSA23    21             15.0000000000
     25162       813  BMANNA    C2             32.2816852615      -16.3599453994       76.3433482227  LPSA23    21             15.0000000000
     25163       813  BMANNA    H2             33.2456706754      -16.3568094914       76.9214042805  LPSA23    21             15.0000000000
     25164       813  BMANNA    N              31.1570049774      -16.2935182424       77.2877509796  LPSA23    21             15.0000000000
     25165       813  BMANNA    HN             30.2966076761      -15.9492976051       76.9168962006  LPSA23    21             15.0000000000
     25166       813  BMANNA    C              31.2013065660      -16.6880305394       78.5863278412  LPSA23    21             15.0000000000
     25167       813  BMANNA    O              32.1265506458      -17.3543411407       79.0349687558  LPSA23    21             15.0000000000
     25168       813  BMANNA    CT             30.0328096291      -16.3323988542       79.4785999374  LPSA23    21             15.0000000000
     25169       813  BMANNA    HT1            29.1805313724      -17.0100158247       79.2932394750  LPSA23    21             15.0000000000
     25170       813  BMANNA    HT2            29.7363303318      -15.2763227131       79.3149313585  LPSA23    21             15.0000000000
     25171       813  BMANNA    HT3            30.3100945130      -16.4370047533       80.5501362413  LPSA23    21             15.0000000000
     25172       813  BMANNA    C3             32.2696539862      -17.5840548648       75.4578589265  LPSA23    21             15.0000000000
     25173       813  BMANNA    H3             33.2465793108      -17.5827526127       74.9174820213  LPSA23    21             15.0000000000
     25174       813  BMANNA    O3             32.1981117280      -18.7850235747       76.2142433989  LPSA23    21             15.0000000000
     25175       813  BMANNA    HO3            31.4096289153      -18.7233893824       76.7590359183  LPSA23    21             15.0000000000
     25176       813  BMANNA    C4             31.1312612549      -17.4809436655       74.4607822769  LPSA23    21             15.0000000000
     25177       813  BMANNA    H4             30.1744836883      -17.3952571456       74.9911886073  LPSA23    21             15.0000000000
     25178       813  BMANNA    O4             31.0182109183      -18.5765242705       73.5662371342  LPSA23    21             15.0000000000
     25179       813  BMANNA    HO4            30.2523238801      -19.1160355029       73.7957159559  LPSA23    21             15.0000000000
     25180       813  BMANNA    C6             30.1601918163      -16.1208297782       72.6412637185  LPSA23    21             15.0000000000
     25181       813  BMANNA    H61            30.3122643963      -16.8943236314       71.8628354263  LPSA23    21             15.0000000000
     25182       813  BMANNA    H62            29.1943564535      -16.3804101270       73.1120594537  LPSA23    21             15.0000000000
     25183       813  BMANNA    O6             30.0789542141      -14.8233225886       72.0527211824  LPSA23    21             15.0000000000
     25184       813  BMANNA    HO6            29.8687433349      -14.1907434871       72.7566047065  LPSA23    21             15.0000000000
     25185       814  BGLCNA    C1             35.2504249147      -13.2940685789       79.2444627024  LPSA23    22             15.0000000000
     25186       814  BGLCNA    H1             35.5854592643      -12.2353303135       79.2439956597  LPSA23    22             15.0000000000
     25187       814  BGLCNA    C5             37.3543211451      -13.8700964881       80.1047081000  LPSA23    22             15.0000000000
     25188       814  BGLCNA    H5             37.6439001212      -12.7962980546       80.1089124019  LPSA23    22             15.0000000000
     25189       814  BGLCNA    O5             36.3967694983      -14.1167635041       79.0650361136  LPSA23    22             15.0000000000
     25190       814  BGLCNA    C2             34.5930744478      -13.6231190729       80.5554928179  LPSA23    22             15.0000000000
     25191       814  BGLCNA    H2             34.2797949393      -14.6964982161       80.5025536886  LPSA23    22             15.0000000000
     25192       814  BGLCNA    N              33.4293177066      -12.7875995610       80.7282711010  LPSA23    22             15.0000000000
     25193       814  BGLCNA    HN             33.5088526987      -11.8618560353       80.3820224900  LPSA23    22             15.0000000000
     25194       814  BGLCNA    C              32.3198005783      -13.1539350131       81.3635688313  LPSA23    22             15.0000000000
     25195       814  BGLCNA    O              32.1336469222      -14.2403085093       81.8917827263  LPSA23    22             15.0000000000
     25196       814  BGLCNA    CT             31.2656001373      -12.1030628351       81.4180544089  LPSA23    22             15.0000000000
     25197       814  BGLCNA    HT1            30.5930316400      -12.3238473819       80.5589473398  LPSA23    22             15.0000000000
     25198       814  BGLCNA    HT2            31.6958866819      -11.0930900012       81.2828220438  LPSA23    22             15.0000000000
     25199       814  BGLCNA    HT3            30.6909066768      -12.1305678282       82.3657440286  LPSA23    22             15.0000000000
     25200       814  BGLCNA    C3             35.5755756241      -13.3955917375       81.6844575459  LPSA23    22             15.0000000000
     25201       814  BGLCNA    H3             35.9224158657      -12.3390713542       81.6499207053  LPSA23    22             15.0000000000
     25202       814  BGLCNA    O3             34.8407982933      -13.6134499942       82.8961813020  LPSA23    22             15.0000000000
     25203       814  BGLCNA    C4             36.7982793320      -14.2336458929       81.4639196589  LPSA23    22             15.0000000000
     25204       814  BGLCNA    H4             36.5778436177      -15.2770022583       81.3439563814  LPSA23    22             15.0000000000
     25205       814  BGLCNA    O4             37.7520512597      -14.2020478978       82.5276345985  LPSA23    22             15.0000000000
     25206       814  BGLCNA    HO4            37.9882679793      -15.1306817622       82.7141259967  LPSA23    22             15.0000000000
     25207       814  BGLCNA    C6             38.5086903365      -14.6954401092       79.7575795044  LPSA23    22             15.0000000000
     25208       814  BGLCNA    H61            39.0816777954      -14.8095537895       80.6920911476  LPSA23    22             15.0000000000
     25209       814  BGLCNA    H62            38.2348199709      -15.7308527224       79.4411917396  LPSA23    22             15.0000000000
     25210       814  BGLCNA    O6             39.3203125738      -13.9941953686       78.8083057509  LPSA23    22             15.0000000000
     25211       814  BGLCNA    HO6            38.9510980467      -14.0738036654       77.9222534684  LPSA23    22             15.0000000000
     25212       815  AGAL      C1             35.3425659863      -13.1043341751       84.0978259051  LPSA23    23             16.0000000000
     25213       815  AGAL      H1             36.1806227589      -13.7437706048       84.4450773530  LPSA23    23             16.0000000000
     25214       815  AGAL      C5             34.7434708064      -10.8139826718       83.7269049937  LPSA23    23             16.0000000000
     25215       815  AGAL      H5             34.1987713659      -11.1555672375       82.8175638692  LPSA23    23             16.0000000000
     25216       815  AGAL      O5             35.8112214123      -11.7478606698       83.9934679030  LPSA23    23             16.0000000000
     25217       815  AGAL      C2             34.2878625824      -13.1829063543       85.1816805011  LPSA23    23             16.0000000000
     25218       815  AGAL      H2             34.7821892346      -12.7908302487       86.0985948339  LPSA23    23             16.0000000000
     25219       815  AGAL      O2             33.8563887744      -14.5420783871       85.4382814136  LPSA23    23             16.0000000000
     25220       815  AGAL      C3             33.1441629318      -12.2163107909       84.8801812833  LPSA23    23             16.0000000000
     25221       815  AGAL      H3             32.7560568229      -12.4276288064       83.8620398037  LPSA23    23             16.0000000000
     25222       815  AGAL      O3             32.0333761406      -12.3875748896       85.7549836340  LPSA23    23             16.0000000000
     25223       815  AGAL      HO3            32.3892898514      -12.4288857488       86.6423526829  LPSA23    23             16.0000000000
     25224       815  AGAL      C4             33.7027959146      -10.7946086018       84.8579841417  LPSA23    23             16.0000000000
     25225       815  AGAL      H4             32.9131080587      -10.0492181652       84.6138718343  LPSA23    23             16.0000000000
     25226       815  AGAL      O4             34.2655188232      -10.3912948646       86.1022872656  LPSA23    23             16.0000000000
     25227       815  AGAL      HO4            34.9978952298       -9.7996968018       85.8423246805  LPSA23    23             16.0000000000
     25228       815  AGAL      C6             35.3550604034       -9.4862875630       83.3395725578  LPSA23    23             16.0000000000
     25229       815  AGAL      H61            36.1372420518       -9.6601763193       82.5791989685  LPSA23    23             16.0000000000
     25230       815  AGAL      H62            34.6120195954       -8.8351695055       82.8327927320  LPSA23    23             16.0000000000
     25231       815  AGAL      O6             35.9110231685       -8.8155107560       84.4698946658  LPSA23    23             16.0000000000
     25232       815  AGAL      HO6            36.4647445298       -8.0669680305       84.2289500887  LPSA23    23             16.0000000000
     25233       816  ARHM      C1             34.6498129011      -15.3568608647       86.2827600555  LPSA23    24             17.0000000000
     25234       816  ARHM      H1             35.6633380569      -14.9056063681       86.3818785817  LPSA23    24             17.0000000000
     25235       816  ARHM      C5             33.6049367866      -17.4092443225       85.6081791398  LPSA23    24             17.0000000000
     25236       816  ARHM      H5             32.9834797750      -16.8202471742       84.9013126822  LPSA23    24             17.0000000000
     25237       816  ARHM      O5             34.8453315421      -16.7186187762       85.8288788459  LPSA23    24             17.0000000000
     25238       816  ARHM      C2             33.9171919393      -15.3753666124       87.6019091308  LPSA23    24             17.0000000000
     25239       816  ARHM      H2             33.6998701895      -14.3319259352       87.9328790845  LPSA23    24             17.0000000000
     25240       816  ARHM      O2             34.6772510800      -16.0724256205       88.6008372445  LPSA23    24             17.0000000000
     25241       816  ARHM      C3             32.5899479772      -16.0734069020       87.4055171837  LPSA23    24             17.0000000000
     25242       816  ARHM      H3             32.0269601282      -15.5308253599       86.6139857915  LPSA23    24             17.0000000000
     25243       816  ARHM      O3             31.7735850536      -16.0126132253       88.5675197937  LPSA23    24             17.0000000000
     25244       816  ARHM      HO3            31.9812272429      -16.7594810440       89.1515308175  LPSA23    24             17.0000000000
     25245       816  ARHM      C4             32.8481064756      -17.4763066279       86.9056333087  LPSA23    24             17.0000000000
     25246       816  ARHM      H4             33.5466329406      -17.9530871954       87.5926461117  LPSA23    24             17.0000000000
     25247       816  ARHM      O4             31.6789610549      -18.2781267529       86.8010372480  LPSA23    24             17.0000000000
     25248       816  ARHM      HO4            31.8372749089      -19.1867618027       87.0725933806  LPSA23    24             17.0000000000
     25249       816  ARHM      C6             33.8700196210      -18.7921818872       84.9792040136  LPSA23    24             17.0000000000
     25250       816  ARHM      H61            32.9555567124      -19.1081379073       84.4230231695  LPSA23    24             17.0000000000
     25251       816  ARHM      H62            34.6859380309      -18.6938671690       84.2320729779  LPSA23    24             17.0000000000
     25252       816  ARHM      H63            34.1822160550      -19.5743278050       85.6930068785  LPSA23    24             17.0000000000
     25253       817  ARHM      C1             35.7316999715      -15.3355566412       89.1519069453  LPSA23    25             18.0000000000
     25254       817  ARHM      H1             35.9692061420      -14.4852841868       88.4748253237  LPSA23    25             18.0000000000
     25255       817  ARHM      C5             36.8704010686      -17.1558577262       90.2027413272  LPSA23    25             18.0000000000
     25256       817  ARHM      H5             36.0811681543      -17.8544917157       89.8564083151  LPSA23    25             18.0000000000
     25257       817  ARHM      O5             36.9601091086      -16.0746292006       89.2585205965  LPSA23    25             18.0000000000
     25258       817  ARHM      C2             35.2976806125      -14.7765290724       90.4680625568  LPSA23    25             18.0000000000
     25259       817  ARHM      H2             34.2797599115      -14.3203230639       90.3724937255  LPSA23    25             18.0000000000
     25260       817  ARHM      O2             36.2362781438      -13.7845385331       90.8907840983  LPSA23    25             18.0000000000
     25261       817  ARHM      C3             35.1760672085      -15.9017268996       91.4533583985  LPSA23    25             18.0000000000
     25262       817  ARHM      H3             34.4181089631      -16.6427833964       91.0895123640  LPSA23    25             18.0000000000
     25263       817  ARHM      O3             34.7923202345      -15.3485604328       92.7106169851  LPSA23    25             18.0000000000
     25264       817  ARHM      C4             36.4771691365      -16.6276759894       91.5728032867  LPSA23    25             18.0000000000
     25265       817  ARHM      H4             37.2917048132      -15.9399889076       91.9155096417  LPSA23    25             18.0000000000
     25266       817  ARHM      O4             36.3082671291      -17.6826816864       92.5084806654  LPSA23    25             18.0000000000
     25267       817  ARHM      HO4            37.1420245454      -17.7734979937       93.0147052134  LPSA23    25             18.0000000000
     25268       817  ARHM      C6             38.1817152029      -17.9701571009       90.2181257690  LPSA23    25             18.0000000000
     25269       817  ARHM      H61            38.4808833039      -18.2332781883       89.1826852590  LPSA23    25             18.0000000000
     25270       817  ARHM      H62            39.0011945510      -17.3705661923       90.6636374895  LPSA23    25             18.0000000000
     25271       817  ARHM      H63            38.0490192673      -18.9002194935       90.8063325715  LPSA23    25             18.0000000000
     25272       818  BMANNA    C1             36.0743644231      -12.5361612394       90.2713685136  LPSA23    26             19.0000000000
     25273       818  BMANNA    H1             35.0493228511      -12.4174345275       89.8547687280  LPSA23    26             19.0000000000
     25274       818  BMANNA    C5             36.7823897908      -11.0067591765       88.5875559849  LPSA23    26             19.0000000000
     25275       818  BMANNA    H5             35.7484583616      -11.0040854813       88.1759787492  LPSA23    26             19.0000000000
     25276       818  BMANNA    O5             37.0118773687      -12.2803356184       89.2155691310  LPSA23    26             19.0000000000
     25277       818  BMANNA    C2             36.2708614610      -11.5077243563       91.3334812919  LPSA23    26             19.0000000000
     25278       818  BMANNA    H2             35.5044684954      -11.7145383680       92.1080115109  LPSA23    26             19.0000000000
     25279       818  BMANNA    N              37.6075000055      -11.5839229198       91.9155722342  LPSA23    26             19.0000000000
     25280       818  BMANNA    HN             38.3703908492      -11.5411275453       91.2862530401  LPSA23    26             19.0000000000
     25281       818  BMANNA    C              37.8669304384      -11.6920231614       93.2226204342  LPSA23    26             19.0000000000
     25282       818  BMANNA    O              36.9924526502      -11.9079652127       94.0433717093  LPSA23    26             19.0000000000
     25283       818  BMANNA    CT             39.3060407227      -11.5104245697       93.6556325499  LPSA23    26             19.0000000000
     25284       818  BMANNA    HT1            39.9902285071      -11.8171071106       92.8423746300  LPSA23    26             19.0000000000
     25285       818  BMANNA    HT2            39.5635909599      -12.0462347881       94.5941744902  LPSA23    26             19.0000000000
     25286       818  BMANNA    HT3            39.4506931417      -10.4294435020       93.8511711506  LPSA23    26             19.0000000000
     25287       818  BMANNA    C3             35.9462461177      -10.1621870361       90.7406235335  LPSA23    26             19.0000000000
     25288       818  BMANNA    H3             34.9030467592      -10.1752548029       90.3331242850  LPSA23    26             19.0000000000
     25289       818  BMANNA    O3             35.9766803505       -9.1752685751       91.7543931119  LPSA23    26             19.0000000000
     25290       818  BMANNA    HO3            35.1758511694       -9.2404246051       92.2872044412  LPSA23    26             19.0000000000
     25291       818  BMANNA    C4             36.9121173681       -9.8853542473       89.6120881431  LPSA23    26             19.0000000000
     25292       818  BMANNA    H4             37.9573280854       -9.8637071154       89.9807658848  LPSA23    26             19.0000000000
     25293       818  BMANNA    O4             36.6494725804       -8.6221073550       89.0176444455  LPSA23    26             19.0000000000
     25294       818  BMANNA    HO4            37.0547242850       -7.9495483094       89.5740719905  LPSA23    26             19.0000000000
     25295       818  BMANNA    C6             37.7321954022      -10.9181749157       87.3998799485  LPSA23    26             19.0000000000
     25296       818  BMANNA    H61            37.8030796059      -11.9155737561       86.9124978070  LPSA23    26             19.0000000000
     25297       818  BMANNA    H62            37.3394360520      -10.2012653734       86.6424116229  LPSA23    26             19.0000000000
     25298       818  BMANNA    O6             39.0516785967      -10.5190438622       87.7692127620  LPSA23    26             19.0000000000
     25299       818  BMANNA    HO6            38.9960809603       -9.6304127843       88.1320339008  LPSA23    26             19.0000000000
     25300       819  BGLCNA    C1             33.8498330222      -16.0468612844       93.4688157562  LPSA23    27             19.0000000000
     25301       819  BGLCNA    H1             33.9943525579      -17.1491934681       93.4201778121  LPSA23    27             19.0000000000
     25302       819  BGLCNA    C5             31.5528200605      -16.3634824836       93.9244146558  LPSA23    27             19.0000000000
     25303       819  BGLCNA    H5             31.7972956864      -17.4420830649       93.9834773246  LPSA23    27             19.0000000000
     25304       819  BGLCNA    O5             32.5160383720      -15.7197638343       93.0778941712  LPSA23    27             19.0000000000
     25305       819  BGLCNA    C2             34.0900761528      -15.5231563998       94.8712501180  LPSA23    27             19.0000000000
     25306       819  BGLCNA    H2             33.8547620847      -14.4346489619       94.8534667660  LPSA23    27             19.0000000000
     25307       819  BGLCNA    N              35.4725289511      -15.6819572645       95.3007170368  LPSA23    27             19.0000000000
     25308       819  BGLCNA    HN             35.8994567026      -16.5431074930       95.0479589901  LPSA23    27             19.0000000000
     25309       819  BGLCNA    C              36.1209613800      -14.6863006639       95.9560402396  LPSA23    27             19.0000000000
     25310       819  BGLCNA    O              35.5189357012      -13.7665862624       96.5004908820  LPSA23    27             19.0000000000
     25311       819  BGLCNA    CT             37.6299843163      -14.7453321194       96.0177627167  LPSA23    27             19.0000000000
     25312       819  BGLCNA    HT1            38.0006512708      -15.5608849169       95.3729192611  LPSA23    27             19.0000000000
     25313       819  BGLCNA    HT2            37.9897297955      -14.8856711885       97.0542568416  LPSA23    27             19.0000000000
     25314       819  BGLCNA    HT3            38.0289698248      -13.7679859452       95.6657282997  LPSA23    27             19.0000000000
     25315       819  BGLCNA    C3             33.1236066213      -16.1495413039       95.8244537158  LPSA23    27             19.0000000000
     25316       819  BGLCNA    H3             33.2846247823      -17.2523466009       95.7779798856  LPSA23    27             19.0000000000
     25317       819  BGLCNA    O3             33.4898627916      -15.6334079923       97.1292282190  LPSA23    27             19.0000000000
     25318       819  BGLCNA    C4             31.7150455422      -15.8536045407       95.3449023056  LPSA23    27             19.0000000000
     25319       819  BGLCNA    H4             31.5184717625      -14.7568724756       95.3447899167  LPSA23    27             19.0000000000
     25320       819  BGLCNA    O4             30.7594413036      -16.5044491469       96.1631509529  LPSA23    27             19.0000000000
     25321       819  BGLCNA    HO4            30.8644067157      -17.4573334206       96.0763992397  LPSA23    27             19.0000000000
     25322       819  BGLCNA    C6             30.1608846674      -16.2549148868       93.3211108742  LPSA23    27             19.0000000000
     25323       819  BGLCNA    H61            29.4829758786      -16.9549716228       93.8570312490  LPSA23    27             19.0000000000
     25324       819  BGLCNA    H62            29.7713336481      -15.2254103577       93.4506911771  LPSA23    27             19.0000000000
     25325       819  BGLCNA    O6             30.1559144302      -16.5808608662       91.9249768604  LPSA23    27             19.0000000000
     25326       819  BGLCNA    HO6            29.3193338346      -16.4292948021       91.4776884163  LPSA23    27             19.0000000000
     25327       820  AGAL      C1             33.0161435810      -16.3361574917       98.2494789608  LPSA23    28             20.0000000000
     25328       820  AGAL      H1             31.9223361845      -16.1520266328       98.3262449054  LPSA23    28             20.0000000000
     25329       820  AGAL      C5             34.6486224954      -18.0912329250       98.1331499464  LPSA23    28             20.0000000000
     25330       820  AGAL      H5             35.2266444289      -17.4395089038       97.4304166468  LPSA23    28             20.0000000000
     25331       820  AGAL      O5             33.2437600702      -17.7513821267       98.0613597925  LPSA23    28             20.0000000000
     25332       820  AGAL      C2             33.6142286192      -15.9397998878       99.6168181095  LPSA23    28             20.0000000000
     25333       820  AGAL      H2             33.0565378957      -16.6210466110      100.3021415553  LPSA23    28             20.0000000000
     25334       820  AGAL      O2             33.3683594299      -14.6109214727      100.1016621013  LPSA23    28             20.0000000000
     25335       820  AGAL      C3             35.0920482969      -16.2931232047       99.6847234132  LPSA23    28             20.0000000000
     25336       820  AGAL      H3             35.6014594459      -15.7847093888       98.8372046797  LPSA23    28             20.0000000000
     25337       820  AGAL      O3             35.8035485571      -15.8714264370      100.8460461702  LPSA23    28             20.0000000000
     25338       820  AGAL      HO3            36.4757545314      -15.2284203169      100.6084553258  LPSA23    28             20.0000000000
     25339       820  AGAL      C4             35.2177186306      -17.7791054799       99.4939298777  LPSA23    28             20.0000000000
     25340       820  AGAL      H4             36.2972955463      -18.0343779350       99.4861772883  LPSA23    28             20.0000000000
     25341       820  AGAL      O4             34.5763038379      -18.5461740855      100.5087353835  LPSA23    28             20.0000000000
     25342       820  AGAL      HO4            35.2145148086      -18.8880233244      101.1342811275  LPSA23    28             20.0000000000
     25343       820  AGAL      C6             34.8997062160      -19.5105196762       97.6619207125  LPSA23    28             20.0000000000
     25344       820  AGAL      H61            34.7013109871      -19.5571050498       96.5761877516  LPSA23    28             20.0000000000
     25345       820  AGAL      H62            35.9543905975      -19.7881429031       97.8040681501  LPSA23    28             20.0000000000
     25346       820  AGAL      O6             34.1471927874      -20.5108055812       98.3343374026  LPSA23    28             20.0000000000
     25347       820  AGAL      HO6            33.2628561995      -20.5665402428       97.9550003456  LPSA23    28             20.0000000000
     25348       821  ARHM      C1             33.0619465584      -14.6540150920      101.4800157312  LPSA23    29             21.0000000000
     25349       821  ARHM      H1             33.5194145789      -15.5443634852      101.9633778395  LPSA23    29             21.0000000000
     25350       821  ARHM      C5             30.9883452624      -13.5548786115      101.1119228900  LPSA23    29             21.0000000000
     25351       821  ARHM      H5             31.2473750209      -13.5138473453      100.0320210478  LPSA23    29             21.0000000000
     25352       821  ARHM      O5             31.6485877835      -14.6776521929      101.7000443362  LPSA23    29             21.0000000000
     25353       821  ARHM      C2             33.6275315108      -13.4421021711      102.1551768474  LPSA23    29             21.0000000000
     25354       821  ARHM      H2             34.7155820156      -13.3983659563      101.9144694852  LPSA23    29             21.0000000000
     25355       821  ARHM      O2             33.4339043499      -13.5271939642      103.5937895116  LPSA23    29             21.0000000000
     25356       821  ARHM      C3             32.9924790827      -12.2070042804      101.5728217658  LPSA23    29             21.0000000000
     25357       821  ARHM      H3             33.1919119275      -12.1324276385      100.4776102660  LPSA23    29             21.0000000000
     25358       821  ARHM      O3             33.5413787338      -11.0797056104      102.2443609913  LPSA23    29             21.0000000000
     25359       821  ARHM      HO3            32.8652054926      -10.3926730120      102.1833023087  LPSA23    29             21.0000000000
     25360       821  ARHM      C4             31.4911749320      -12.2712317695      101.7578813617  LPSA23    29             21.0000000000
     25361       821  ARHM      H4             31.3776594361      -12.3319828854      102.8295257379  LPSA23    29             21.0000000000
     25362       821  ARHM      O4             30.7973274639      -11.0848489762      101.3547629921  LPSA23    29             21.0000000000
     25363       821  ARHM      HO4            31.0003780801      -10.8750309597      100.4264749133  LPSA23    29             21.0000000000
     25364       821  ARHM      C6             29.5026704802      -13.9119940395      101.2277475781  LPSA23    29             21.0000000000
     25365       821  ARHM      H61            29.3706184357      -14.9170990856      100.7592590300  LPSA23    29             21.0000000000
     25366       821  ARHM      H62            29.1444225641      -13.9520198607      102.2764752843  LPSA23    29             21.0000000000
     25367       821  ARHM      H63            28.8847352170      -13.2027180436      100.6418094152  LPSA23    29             21.0000000000
     25368       822  ARHM      C1             34.5115221662      -14.0148471105      104.3667150442  LPSA23    30             22.0000000000
     25369       822  ARHM      H1             35.4246058050      -13.4083600616      104.1602008645  LPSA23    30             22.0000000000
     25370       822  ARHM      C5             33.7099894766      -16.2709684378      104.4928663140  LPSA23    30             22.0000000000
     25371       822  ARHM      H5             32.8333377121      -15.9127378745      103.9094557816  LPSA23    30             22.0000000000
     25372       822  ARHM      O5             34.8094393690      -15.4074888492      104.1579027254  LPSA23    30             22.0000000000
     25373       822  ARHM      C2             34.1438636454      -13.8495858547      105.8210537243  LPSA23    30             22.0000000000
     25374       822  ARHM      H2             33.8814281958      -12.7864465542      106.0281155883  LPSA23    30             22.0000000000
     25375       822  ARHM      O2             35.2540721111      -14.2657673614      106.6008867012  LPSA23    30             22.0000000000
     25376       822  ARHM      C3             32.9817618933      -14.7292811421      106.2212587635  LPSA23    30             22.0000000000
     25377       822  ARHM      H3             32.1494975528      -14.4877332614      105.5173156310  LPSA23    30             22.0000000000
     25378       822  ARHM      O3             32.5049329871      -14.4152142825      107.5432860903  LPSA23    30             22.0000000000
     25379       822  ARHM      C4             33.3576016426      -16.1697362852      105.9637458403  LPSA23    30             22.0000000000
     25380       822  ARHM      H4             34.2583737914      -16.4707643556      106.5464572491  LPSA23    30             22.0000000000
     25381       822  ARHM      O4             32.3483792752      -17.0928892338      106.3435723803  LPSA23    30             22.0000000000
     25382       822  ARHM      HO4            31.6463157844      -17.1718808072      105.6863041807  LPSA23    30             22.0000000000
     25383       822  ARHM      C6             34.0051736493      -17.7145663253      104.0554520610  LPSA23    30             22.0000000000
     25384       822  ARHM      H61            33.1028070715      -18.3403734537      104.2246928133  LPSA23    30             22.0000000000
     25385       822  ARHM      H62            34.2232643252      -17.7363236364      102.9720553238  LPSA23    30             22.0000000000
     25386       822  ARHM      H63            34.8680836746      -18.1286706426      104.6200523476  LPSA23    30             22.0000000000
     25387       823  BMANNA    C1             36.1632828720      -13.2609150065      106.8944587124  LPSA23    31             23.0000000000
     25388       823  BMANNA    H1             35.6393222774      -12.3239206227      107.1685896694  LPSA23    31             23.0000000000
     25389       823  BMANNA    C5             38.0709197482      -12.0482150506      106.1718337986  LPSA23    31             23.0000000000
     25390       823  BMANNA    H5             37.5805594571      -11.1471327381      106.5662734735  LPSA23    31             23.0000000000
     25391       823  BMANNA    O5             37.0986334199      -13.0488305996      105.8329746145  LPSA23    31             23.0000000000
     25392       823  BMANNA    C2             36.8915178737      -13.7830225957      108.0864324279  LPSA23    31             23.0000000000
     25393       823  BMANNA    H2             36.1475856495      -13.8580437610      108.9166607976  LPSA23    31             23.0000000000
     25394       823  BMANNA    N              37.4104080105      -15.1173997122      107.8391080963  LPSA23    31             23.0000000000
     25395       823  BMANNA    HN             37.5585947913      -15.3506912821      106.8742531582  LPSA23    31             23.0000000000
     25396       823  BMANNA    C              37.5751387669      -16.0087981666      108.8149179760  LPSA23    31             23.0000000000
     25397       823  BMANNA    O              37.3510082808      -15.7565825363      109.9906348232  LPSA23    31             23.0000000000
     25398       823  BMANNA    CT             38.0747719382      -17.3285343366      108.3758259635  LPSA23    31             23.0000000000
     25399       823  BMANNA    HT1            38.7722630626      -17.1077219639      107.5656182203  LPSA23    31             23.0000000000
     25400       823  BMANNA    HT2            37.2976130240      -17.9735960104      107.9413648071  LPSA23    31             23.0000000000
     25401       823  BMANNA    HT3            38.6020567162      -17.8683134649      109.1902093712  LPSA23    31             23.0000000000
     25402       823  BMANNA    C3             37.8815470361      -12.7317231023      108.4978923682  LPSA23    31             23.0000000000
     25403       823  BMANNA    H3             37.3703055323      -11.7665399080      108.6895816660  LPSA23    31             23.0000000000
     25404       823  BMANNA    O3             38.4771866711      -13.0768303570      109.7281543190  LPSA23    31             23.0000000000
     25405       823  BMANNA    HO3            37.9393754930      -13.7867996463      110.1234261757  LPSA23    31             23.0000000000
     25406       823  BMANNA    C4             38.8161470476      -12.4752176291      107.3552807691  LPSA23    31             23.0000000000
     25407       823  BMANNA    H4             39.2018694207      -13.4417994296      106.9501272020  LPSA23    31             23.0000000000
     25408       823  BMANNA    O4             39.7520809875      -11.4098625900      107.6019536081  LPSA23    31             23.0000000000
     25409       823  BMANNA    HO4            39.4306805543      -10.7769495661      108.2682453035  LPSA23    31             23.0000000000
     25410       823  BMANNA    C6             39.0073513735      -11.6712458129      105.0249471599  LPSA23    31             23.0000000000
     25411       823  BMANNA    H61            39.5620524358      -10.7465377813      105.3021078315  LPSA23    31             23.0000000000
     25412       823  BMANNA    H62            39.7717950842      -12.4708539789      104.8770580789  LPSA23    31             23.0000000000
     25413       823  BMANNA    O6             38.3350858251      -11.4363975383      103.7861262550  LPSA23    31             23.0000000000
     25414       823  BMANNA    HO6            37.7734621635      -10.6655770701      103.8583821525  LPSA23    31             23.0000000000
     25415       824  BGLCNA    C1             33.1981064188      -15.0121382408      108.6126265489  LPSA23    32             23.0000000000
     25416       824  BGLCNA    H1             34.2810978539      -15.0359478558      108.4078870369  LPSA23    32             23.0000000000
     25417       824  BGLCNA    C5             33.5675423748      -16.9687019211      109.9221351608  LPSA23    32             23.0000000000
     25418       824  BGLCNA    H5             34.6322290189      -16.9295467799      109.5812121786  LPSA23    32             23.0000000000
     25419       824  BGLCNA    O5             32.7734951299      -16.3417891220      108.9093044677  LPSA23    32             23.0000000000
     25420       824  BGLCNA    C2             33.0023574210      -14.1703021122      109.8528075886  LPSA23    32             23.0000000000
     25421       824  BGLCNA    H2             31.9296782163      -14.2947765942      110.1467911498  LPSA23    32             23.0000000000
     25422       824  BGLCNA    N              33.2620085375      -12.7748567703      109.5702597165  LPSA23    32             23.0000000000
     25423       824  BGLCNA    HN             33.9569301853      -12.6444847111      108.8817553347  LPSA23    32             23.0000000000
     25424       824  BGLCNA    C              32.6151406076      -11.7187420209      110.0959295636  LPSA23    32             23.0000000000
     25425       824  BGLCNA    O              31.7103532112      -11.8314995650      110.9171488217  LPSA23    32             23.0000000000
     25426       824  BGLCNA    CT             33.0838039355      -10.3877129504      109.5490072987  LPSA23    32             23.0000000000
     25427       824  BGLCNA    HT1            33.6409936851      -10.5914611183      108.6104876230  LPSA23    32             23.0000000000
     25428       824  BGLCNA    HT2            33.7623628003       -9.8462785638      110.2375349631  LPSA23    32             23.0000000000
     25429       824  BGLCNA    HT3            32.2273751854       -9.7155580821      109.3218794228  LPSA23    32             23.0000000000
     25430       824  BGLCNA    C3             33.9034486534      -14.7478491377      110.9231088456  LPSA23    32             23.0000000000
     25431       824  BGLCNA    H3             34.9223101519      -14.8110404258      110.4759988350  LPSA23    32             23.0000000000
     25432       824  BGLCNA    O3             33.9952266629      -13.9250500052      112.0968163199  LPSA23    32             23.0000000000
     25433       824  BGLCNA    C4             33.4382272298      -16.1627875730      111.1987639527  LPSA23    32             23.0000000000
     25434       824  BGLCNA    H4             32.3636864361      -16.1176953836      111.5082965958  LPSA23    32             23.0000000000
     25435       824  BGLCNA    O4             34.1872595456      -16.7956361408      112.2249224635  LPSA23    32             23.0000000000
     25436       824  BGLCNA    HO4            33.7875199355      -16.5786190879      113.0678536030  LPSA23    32             23.0000000000
     25437       824  BGLCNA    C6             33.2099527699      -18.4464703595      110.0438549573  LPSA23    32             23.0000000000
     25438       824  BGLCNA    H61            33.9119591633      -18.9661638787      110.7277042042  LPSA23    32             23.0000000000
     25439       824  BGLCNA    H62            32.1924367063      -18.5446435564      110.4901201312  LPSA23    32             23.0000000000
     25440       824  BGLCNA    O6             33.2934350466      -19.1531731761      108.7969598589  LPSA23    32             23.0000000000
     25441       824  BGLCNA    HO6            33.9446544504      -18.7434562421      108.2170764885  LPSA23    32             23.0000000000
     25442       825  AGAL      C1             35.2878978638      -13.9067410981      112.6838826311  LPSA23    33             24.0000000000
     25443       825  AGAL      H1             35.7567508505      -14.9104404356      112.6098630133  LPSA23    33             24.0000000000
     25444       825  AGAL      C5             35.7026902549      -11.5931226214      112.2051556683  LPSA23    33             24.0000000000
     25445       825  AGAL      H5             34.6578574619      -11.6144832014      111.8337877619  LPSA23    33             24.0000000000
     25446       825  AGAL      O5             36.1718233261      -12.9506407507      112.0678266075  LPSA23    33             24.0000000000
     25447       825  AGAL      C2             35.1705489177      -13.5227651222      114.1466501534  LPSA23    33             24.0000000000
     25448       825  AGAL      H2             36.2104517267      -13.4517250344      114.5347495901  LPSA23    33             24.0000000000
     25449       825  AGAL      O2             34.5469657379      -14.6043914682      114.8733277969  LPSA23    33             24.0000000000
     25450       825  AGAL      C3             34.6027527038      -12.1086933378      114.2899320571  LPSA23    33             24.0000000000
     25451       825  AGAL      H3             33.6463256488      -12.0236168767      113.7179422489  LPSA23    33             24.0000000000
     25452       825  AGAL      O3             34.2148754131      -11.7646436327      115.6053754128  LPSA23    33             24.0000000000
     25453       825  AGAL      HO3            34.9191601424      -11.8950813186      116.2477897959  LPSA23    33             24.0000000000
     25454       825  AGAL      C4             35.5686660678      -11.1253912865      113.6466119333  LPSA23    33             24.0000000000
     25455       825  AGAL      H4             35.1323149456      -10.1031056996      113.6581494104  LPSA23    33             24.0000000000
     25456       825  AGAL      O4             36.8133105259      -10.9646066444      114.2950706964  LPSA23    33             24.0000000000
     25457       825  AGAL      HO4            37.0970093203      -11.6846711910      114.8769010590  LPSA23    33             24.0000000000
     25458       825  AGAL      C6             36.4292340173      -10.6440067998      111.2687643757  LPSA23    33             24.0000000000
     25459       825  AGAL      H61            36.2094714874      -10.9841920206      110.2379075377  LPSA23    33             24.0000000000
     25460       825  AGAL      H62            36.0451274288       -9.6020337698      111.3688911310  LPSA23    33             24.0000000000
     25461       825  AGAL      O6             37.8378422222      -10.6009503475      111.4675480412  LPSA23    33             24.0000000000
     25462       825  AGAL      HO6            38.3158290081      -11.1680689659      110.8449837914  LPSA23    33             24.0000000000
     25463       826  ARHM      C1             35.2451852285      -14.9824760084      116.0546846096  LPSA23    34             25.0000000000
     25464       826  ARHM      H1             35.4386441689      -14.0635416847      116.6522070828  LPSA23    34             25.0000000000
     25465       826  ARHM      C5             36.4435882469      -16.8582683372      115.0671853176  LPSA23    34             25.0000000000
     25466       826  ARHM      H5             36.0395503202      -16.6048468808      114.0668957915  LPSA23    34             25.0000000000
     25467       826  ARHM      O5             36.5264543998      -15.6400942205      115.8335904916  LPSA23    34             25.0000000000
     25468       826  ARHM      C2             34.3202150312      -15.9181976061      116.8133761884  LPSA23    34             25.0000000000
     25469       826  ARHM      H2             33.3176571581      -15.4588455398      116.8635814907  LPSA23    34             25.0000000000
     25470       826  ARHM      O2             34.6843635013      -16.1929726049      118.1852751169  LPSA23    34             25.0000000000
     25471       826  ARHM      C3             34.1673175188      -17.2009774974      116.0137347401  LPSA23    34             25.0000000000
     25472       826  ARHM      H3             33.7901115996      -16.9620369957      114.9928814837  LPSA23    34             25.0000000000
     25473       826  ARHM      O3             33.2238192322      -18.0762765631      116.6383790560  LPSA23    34             25.0000000000
     25474       826  ARHM      HO3            32.8051036809      -18.6509920561      115.9841321549  LPSA23    34             25.0000000000
     25475       826  ARHM      C4             35.5201430582      -17.8350557950      115.7978998385  LPSA23    34             25.0000000000
     25476       826  ARHM      H4             36.0008478028      -18.0436701943      116.7841003364  LPSA23    34             25.0000000000
     25477       826  ARHM      O4             35.3709917252      -19.0577412843      115.0637464411  LPSA23    34             25.0000000000
     25478       826  ARHM      HO4            35.0756833007      -19.7446295401      115.6856237596  LPSA23    34             25.0000000000
     25479       826  ARHM      C6             37.8469194765      -17.4994832927      114.8356259011  LPSA23    34             25.0000000000
     25480       826  ARHM      H61            38.3627619551      -17.7520038711      115.7805089529  LPSA23    34             25.0000000000
     25481       826  ARHM      H62            37.7056442495      -18.4784598832      114.3308941265  LPSA23    34             25.0000000000
     25482       826  ARHM      H63            38.5076766964      -16.8900857395      114.1839624615  LPSA23    34             25.0000000000
     25483       827  ARHM      C1             34.8734228251      -15.0974563114      119.0631558813  LPSA23    35             26.0000000000
     25484       827  ARHM      H1             34.1323091136      -14.2953667345      118.8702044460  LPSA23    35             26.0000000000
     25485       827  ARHM      C5             37.1533911734      -15.5359985789      119.2128157348  LPSA23    35             26.0000000000
     25486       827  ARHM      H5             37.1221268554      -16.4009533066      118.5106761248  LPSA23    35             26.0000000000
     25487       827  ARHM      O5             36.1738808702      -14.5536845749      118.9262814346  LPSA23    35             26.0000000000
     25488       827  ARHM      C2             34.7386238878      -15.5722651042      120.5052935364  LPSA23    35             26.0000000000
     25489       827  ARHM      H2             33.7254461542      -15.9986915764      120.6609500729  LPSA23    35             26.0000000000
     25490       827  ARHM      O2             34.9177271819      -14.4937270259      121.4303454517  LPSA23    35             26.0000000000
     25491       827  ARHM      C3             35.7346306293      -16.6510705954      120.8319376644  LPSA23    35             26.0000000000
     25492       827  ARHM      H3             35.6409740422      -17.4995844833      120.1115212535  LPSA23    35             26.0000000000
     25493       827  ARHM      O3             35.4670235307      -17.2155203523      122.1214526810  LPSA23    35             26.0000000000
     25494       827  ARHM      HO3            35.3321686172      -16.5199365916      122.7720276792  LPSA23    35             26.0000000000
     25495       827  ARHM      C4             37.1035455623      -16.0581554230      120.6543008582  LPSA23    35             26.0000000000
     25496       827  ARHM      H4             37.2864201295      -15.1828659967      121.3117222914  LPSA23    35             26.0000000000
     25497       827  ARHM      O4             38.1032270747      -17.0262052985      120.9585475728  LPSA23    35             26.0000000000
     25498       827  ARHM      HO4            37.9346657690      -17.8765273012      120.5439001419  LPSA23    35             26.0000000000
     25499       827  ARHM      C6             38.4059096195      -14.8479922406      118.8569944357  LPSA23    35             26.0000000000
     25500       827  ARHM      H61            38.5835830390      -14.6277719506      117.7969668944  LPSA23    35             26.0000000000
     25501       827  ARHM      H62            38.6951559029      -13.9651158801      119.4627267757  LPSA23    35             26.0000000000
     25502       827  ARHM      H63            39.0217708899      -15.7289438040      119.1091532127  LPSA23    35             26.0000000000
     25503       828  BMANNA    C1             33.8732503830      -13.5589804713      121.4690063137  LPSA23    36             27.0000000000
     25504       828  BMANNA    H1             32.9316122973      -14.0314765920      121.1227319028  LPSA23    36             27.0000000000
     25505       828  BMANNA    C5             32.9393774649      -11.5268642112      120.7229884195  LPSA23    36             27.0000000000
     25506       828  BMANNA    H5             32.0323256395      -12.1104664811      120.4281647556  LPSA23    36             27.0000000000
     25507       828  BMANNA    O5             34.0896271152      -12.3988135760      120.6634044533  LPSA23    36             27.0000000000
     25508       828  BMANNA    C2             33.7247576864      -13.1263771020      122.9105108686  LPSA23    36             27.0000000000
     25509       828  BMANNA    H2             33.5010361831      -14.0670330151      123.4755971970  LPSA23    36             27.0000000000
     25510       828  BMANNA    N              34.9245439874      -12.5204807962      123.4681308319  LPSA23    36             27.0000000000
     25511       828  BMANNA    HN             35.4851852887      -11.9780433572      122.8448862334  LPSA23    36             27.0000000000
     25512       828  BMANNA    C              35.1982100286      -12.6012189713      124.7745096915  LPSA23    36             27.0000000000
     25513       828  BMANNA    O              34.5269751116      -13.2391817674      125.5691775385  LPSA23    36             27.0000000000
     25514       828  BMANNA    CT             36.3538875766      -11.8057581820      125.2826938590  LPSA23    36             27.0000000000
     25515       828  BMANNA    HT1            36.3263300917      -10.7847862702      124.8646520121  LPSA23    36             27.0000000000
     25516       828  BMANNA    HT2            37.3410018640      -12.2676690315      125.1065070269  LPSA23    36             27.0000000000
     25517       828  BMANNA    HT3            36.2596068984      -11.7417379362      126.3802328541  LPSA23    36             27.0000000000
     25518       828  BMANNA    C3             32.5191717071      -12.2252577140      123.0277099316  LPSA23    36             27.0000000000
     25519       828  BMANNA    H3             31.6142323769      -12.7676785392      122.6536416310  LPSA23    36             27.0000000000
     25520       828  BMANNA    O3             32.2657358940      -11.8417178481      124.3838541762  LPSA23    36             27.0000000000
     25521       828  BMANNA    HO3            31.3771645796      -12.1212106834      124.6211475767  LPSA23    36             27.0000000000
     25522       828  BMANNA    C4             32.7191404124      -11.0341468805      122.1366737374  LPSA23    36             27.0000000000
     25523       828  BMANNA    H4             33.6013569055      -10.4365653943      122.4454932057  LPSA23    36             27.0000000000
     25524       828  BMANNA    O4             31.6032348856      -10.1758192632      122.2265547857  LPSA23    36             27.0000000000
     25525       828  BMANNA    HO4            31.5163651566       -9.9671295013      123.1583371082  LPSA23    36             27.0000000000
     25526       828  BMANNA    C6             33.0558691420      -10.4050245258      119.7290901781  LPSA23    36             27.0000000000
     25527       828  BMANNA    H61            33.1746126556      -10.8097572232      118.6966561433  LPSA23    36             27.0000000000
     25528       828  BMANNA    H62            32.0892096914       -9.8686096389      119.7534151946  LPSA23    36             27.0000000000
     25529       828  BMANNA    O6             34.0920910748       -9.4743227373      120.0707759854  LPSA23    36             27.0000000000
     25530       828  BMANNA    HO6            33.7154282936       -8.8027011789      120.6473706414  LPSA23    36             27.0000000000
     25531       829  ECLIPA    HB6S          -34.7166225306      -14.8688562896       20.4264738002  LPSA24    1               0.0000000000
     25532       829  ECLIPA    OB6           -35.8273411078      -16.0315305142       21.7102039881  LPSA24    1               0.0000000000
     25533       829  ECLIPA    CB6           -34.8120483868      -15.9407077180       20.6969579936  LPSA24    1               0.0000000000
     25534       829  ECLIPA    HB6R          -33.8319520337      -16.2845304952       21.0990739550  LPSA24    1               0.0000000000
     25535       829  ECLIPA    CB5           -35.0963472630      -16.7476097873       19.4381615402  LPSA24    1               0.0000000000
     25536       829  ECLIPA    OB5           -36.3866376915      -16.3148958962       18.9682245198  LPSA24    1               0.0000000000
     25537       829  ECLIPA    HB5           -35.1289656235      -17.8187502202       19.7428649671  LPSA24    1               0.0000000000
     25538       829  ECLIPA    CB1           -36.7801636037      -17.0185157970       17.7926155795  LPSA24    1               0.0000000000
     25539       829  ECLIPA    HB1           -36.8050494352      -18.1189658720       17.9640206495  LPSA24    1               0.0000000000
     25540       829  ECLIPA    OA6           -38.0654549319      -16.6563137797       17.3975946620  LPSA24    1               0.0000000000
     25541       829  ECLIPA    CA6           -38.3734546347      -15.2709284310       17.6250376104  LPSA24    1               0.0000000000
     25542       829  ECLIPA    HA6R          -37.4957701941      -14.6115122711       17.7848074287  LPSA24    1               0.0000000000
     25543       829  ECLIPA    HA6S          -39.0967083018      -15.2008711448       18.4676094305  LPSA24    1               0.0000000000
     25544       829  ECLIPA    CB4           -34.0298976300      -16.5612002259       18.3387647650  LPSA24    1               0.0000000000
     25545       829  ECLIPA    HB4           -33.9052396778      -15.4872471410       18.0550259595  LPSA24    1               0.0000000000
     25546       829  ECLIPA    OB4           -32.8175697698      -17.1401797730       18.8466737027  LPSA24    1               0.0000000000
     25547       829  ECLIPA    PB            -31.5121726949      -16.2135997867       19.3304010070  LPSA24    1               0.0000000000
     25548       829  ECLIPA    OPB4          -30.8048471162      -16.9306365442       20.4844866665  LPSA24    1               0.0000000000
     25549       829  ECLIPA    OPB3          -32.0936238060      -14.8501212804       19.7165952559  LPSA24    1               0.0000000000
     25550       829  ECLIPA    OPB2          -30.6419569990      -16.1648923466       18.0900642829  LPSA24    1               0.0000000000
     25551       829  ECLIPA    CB3           -34.4856172965      -17.3124373015       17.1052703424  LPSA24    1               0.0000000000
     25552       829  ECLIPA    OB3           -33.6594928786      -17.1313615099       15.9681500157  LPSA24    1               0.0000000000
     25553       829  ECLIPA    HB3           -34.6364794319      -18.3917496485       17.3452737856  LPSA24    1               0.0000000000
     25554       829  ECLIPA    C71           -32.6549460643      -17.9294535120       15.7495243492  LPSA24    1               0.0000000000
     25555       829  ECLIPA    O71           -32.5235128678      -19.0536334259       16.2254889926  LPSA24    1               0.0000000000
     25556       829  ECLIPA    C72           -32.1644399306      -17.5230843160       14.3234534043  LPSA24    1               0.0000000000
     25557       829  ECLIPA    H72R          -32.9710077860      -17.5394222101       13.5899765999  LPSA24    1               0.0000000000
     25558       829  ECLIPA    H72S          -31.5908036076      -18.2732747231       13.8442894472  LPSA24    1               0.0000000000
     25559       829  ECLIPA    CB2           -35.8275079545      -16.7731272792       16.6662333521  LPSA24    1               0.0000000000
     25560       829  ECLIPA    HB2           -35.7302706711      -15.6617329882       16.5117428369  LPSA24    1               0.0000000000
     25561       829  ECLIPA    NB2           -36.2846136751      -17.4411056214       15.4482617107  LPSA24    1               0.0000000000
     25562       829  ECLIPA    HNB2          -36.8034080742      -18.2763264625       15.5528091119  LPSA24    1               0.0000000000
     25563       829  ECLIPA    CA4           -39.8711368925      -15.9506312921       15.8897204752  LPSA24    1               0.0000000000
     25564       829  ECLIPA    HA4           -39.2957183558      -16.7767884853       15.4992580651  LPSA24    1               0.0000000000
     25565       829  ECLIPA    OA4           -40.7746040545      -16.5693124139       16.8638491648  LPSA24    1               0.0000000000
     25566       829  ECLIPA    HOA4          -40.5862288165      -16.0451797155       17.6552032484  LPSA24    1               0.0000000000
     25567       829  ECLIPA    CA5           -39.0125673312      -14.8097530614       16.3950937118  LPSA24    1               0.0000000000
     25568       829  ECLIPA    HA5           -39.5465452647      -13.8213565580       16.5851562989  LPSA24    1               0.0000000000
     25569       829  ECLIPA    OA5           -38.0004106011      -14.5264790242       15.4047656322  LPSA24    1               0.0000000000
     25570       829  ECLIPA    CA1           -38.5513883961      -14.0560844280       14.1686119288  LPSA24    1               0.0000000000
     25571       829  ECLIPA    HA1           -37.7151571636      -14.1715637877       13.4510317324  LPSA24    1               0.0000000000
     25572       829  ECLIPA    OA1           -38.8220651414      -12.7000094448       14.1016409276  LPSA24    1               0.0000000000
     25573       829  ECLIPA    OPA2          -38.5107164506      -11.0810858631       16.0211681880  LPSA24    1               0.0000000000
     25574       829  ECLIPA    OPA3          -36.5268891625      -12.1438902656       14.9117143229  LPSA24    1               0.0000000000
     25575       829  ECLIPA    OPA4          -37.8765707677      -10.3994776340       13.6435837215  LPSA24    1               0.0000000000
     25576       829  ECLIPA    PA            -37.8813759689      -11.5168742405       14.6895451125  LPSA24    1               0.0000000000
     25577       829  ECLIPA    CA3           -40.3334258781      -15.4175810766       14.6521262976  LPSA24    1               0.0000000000
     25578       829  ECLIPA    HA3           -40.8094857159      -14.4815236666       15.0680505400  LPSA24    1               0.0000000000
     25579       829  ECLIPA    OA3           -40.9293096140      -16.3269943833       13.7600591927  LPSA24    1               0.0000000000
     25580       829  ECLIPA    C31           -41.0244627995      -17.5656651188       13.3643752333  LPSA24    1               0.0000000000
     25581       829  ECLIPA    O31           -41.0354541982      -17.7915701474       12.1672803488  LPSA24    1               0.0000000000
     25582       829  ECLIPA    C32           -41.5747681061      -18.6349090984       14.2906913185  LPSA24    1               0.0000000000
     25583       829  ECLIPA    H32R          -42.3994169334      -19.1410621502       13.7156690479  LPSA24    1               0.0000000000
     25584       829  ECLIPA    H32S          -42.0277932437      -18.3152683905       15.2370461170  LPSA24    1               0.0000000000
     25585       829  ECLIPA    CA2           -39.4072786222      -15.0574014381       13.5340879979  LPSA24    1               0.0000000000
     25586       829  ECLIPA    HA2           -38.8383169055      -15.9759580834       13.3124256082  LPSA24    1               0.0000000000
     25587       829  ECLIPA    NA2           -40.0010826852      -14.5960640722       12.2096569804  LPSA24    1               0.0000000000
     25588       829  ECLIPA    HNA2          -41.0060110881      -14.5842674207       12.1200018943  LPSA24    1               0.0000000000
     25589       829  ECLIPA    C73           -31.4253434515      -16.1738506380       14.3070668202  LPSA24    1               0.0000000000
     25590       829  ECLIPA    H73R          -30.7853167622      -16.0972041657       15.2345847977  LPSA24    1               0.0000000000
     25591       829  ECLIPA    O73           -32.5050157733      -15.2687728217       14.3015639266  LPSA24    1               0.0000000000
     25592       829  ECLIPA    C81           -32.4147437927      -14.1315091819       14.9574950805  LPSA24    1               0.0000000000
     25593       829  ECLIPA    O81           -31.4243038577      -13.7494880381       15.5588196772  LPSA24    1               0.0000000000
     25594       829  ECLIPA    C82           -33.4695442447      -13.1970797950       14.3428753996  LPSA24    1               0.0000000000
     25595       829  ECLIPA    H82R          -33.4277839980      -12.2248445407       14.8679464495  LPSA24    1               0.0000000000
     25596       829  ECLIPA    H82S          -34.4722987769      -13.6254077377       14.5595556446  LPSA24    1               0.0000000000
     25597       829  ECLIPA    C83           -33.3340201418      -13.0018305890       12.8095655202  LPSA24    1               0.0000000000
     25598       829  ECLIPA    H83R          -33.8047725371      -13.8690131609       12.2906843889  LPSA24    1               0.0000000000
     25599       829  ECLIPA    H83S          -32.2606752484      -12.9762731323       12.5376057073  LPSA24    1               0.0000000000
     25600       829  ECLIPA    C84           -34.0649075238      -11.7522597291       12.2904997391  LPSA24    1               0.0000000000
     25601       829  ECLIPA    H84R          -33.5364955215      -10.8291073154       12.6014878527  LPSA24    1               0.0000000000
     25602       829  ECLIPA    H84S          -35.0818056324      -11.7667805397       12.7641576619  LPSA24    1               0.0000000000
     25603       829  ECLIPA    C85           -34.2835040395      -11.7771706352       10.7698427797  LPSA24    1               0.0000000000
     25604       829  ECLIPA    H85R          -34.5979657381      -12.8217232932       10.5442004791  LPSA24    1               0.0000000000
     25605       829  ECLIPA    H85S          -33.3265942786      -11.6079678233       10.2346373893  LPSA24    1               0.0000000000
     25606       829  ECLIPA    C86           -35.4333447011      -10.8640796779       10.2876624682  LPSA24    1               0.0000000000
     25607       829  ECLIPA    H86R          -35.0587181721       -9.8635285008        9.9843190016  LPSA24    1               0.0000000000
     25608       829  ECLIPA    H86S          -36.1506065447      -10.7078193917       11.1288494238  LPSA24    1               0.0000000000
     25609       829  ECLIPA    C87           -36.2656534627      -11.5088395040        9.1598904181  LPSA24    1               0.0000000000
     25610       829  ECLIPA    H87R          -37.0257073336      -10.7843148780        8.7950576467  LPSA24    1               0.0000000000
     25611       829  ECLIPA    H87S          -36.8345579027      -12.3715643926        9.5770259571  LPSA24    1               0.0000000000
     25612       829  ECLIPA    C88           -35.4002800600      -12.0505549226        8.0207762074  LPSA24    1               0.0000000000
     25613       829  ECLIPA    H88R          -34.9260761787      -12.9977448618        8.3501460653  LPSA24    1               0.0000000000
     25614       829  ECLIPA    H88S          -34.5524080911      -11.3449299737        7.8791173185  LPSA24    1               0.0000000000
     25615       829  ECLIPA    C89           -36.1792410730      -12.2990001788        6.7159801665  LPSA24    1               0.0000000000
     25616       829  ECLIPA    H89R          -37.2719396838      -12.4012857660        6.8970525677  LPSA24    1               0.0000000000
     25617       829  ECLIPA    H89S          -35.8587201879      -13.2597051826        6.2592488341  LPSA24    1               0.0000000000
     25618       829  ECLIPA    C810          -35.8782090995      -11.1907387098        5.7034495362  LPSA24    1               0.0000000000
     25619       829  ECLIPA    H810R         -34.8620549508      -10.8182237225        5.9368866367  LPSA24    1               0.0000000000
     25620       829  ECLIPA    H810S         -36.6077672413      -10.3659184523        5.8639800366  LPSA24    1               0.0000000000
     25621       829  ECLIPA    C811          -35.9160407134      -11.6543125545        4.2468419407  LPSA24    1               0.0000000000
     25622       829  ECLIPA    H811R         -36.0894057796      -10.8036846537        3.5428867522  LPSA24    1               0.0000000000
     25623       829  ECLIPA    H811S         -36.7696936893      -12.3630287806        4.2213739547  LPSA24    1               0.0000000000
     25624       829  ECLIPA    C812          -34.7152262285      -12.4568192607        3.7366751401  LPSA24    1               0.0000000000
     25625       829  ECLIPA    H812R         -34.9839316953      -12.8273791098        2.7153886798  LPSA24    1               0.0000000000
     25626       829  ECLIPA    H812S         -34.5484113547      -13.3228402328        4.4085262973  LPSA24    1               0.0000000000
     25627       829  ECLIPA    C813          -33.4016981490      -11.6861801075        3.6349679172  LPSA24    1               0.0000000000
     25628       829  ECLIPA    H813R         -33.5537785454      -10.8438742669        2.9280826777  LPSA24    1               0.0000000000
     25629       829  ECLIPA    H813S         -33.1115442005      -11.2587381830        4.6235819394  LPSA24    1               0.0000000000
     25630       829  ECLIPA    C814          -32.2562981516      -12.5609577266        3.1290799193  LPSA24    1               0.0000000000
     25631       829  ECLIPA    H814R         -32.5380822266      -13.1347635085        2.2181982029  LPSA24    1               0.0000000000
     25632       829  ECLIPA    H814S         -31.9576947215      -13.2819161432        3.9179509447  LPSA24    1               0.0000000000
     25633       829  ECLIPA    H814T         -31.3787364651      -11.9294911197        2.8878241546  LPSA24    1               0.0000000000
     25634       829  ECLIPA    C74           -30.5425580422      -15.8199479538       13.0710714900  LPSA24    1               0.0000000000
     25635       829  ECLIPA    H74R          -29.6714829112      -16.3714582638       12.7116951597  LPSA24    1               0.0000000000
     25636       829  ECLIPA    H74S          -30.1122837241      -14.8236347974       13.3166791686  LPSA24    1               0.0000000000
     25637       829  ECLIPA    C75           -31.2875741558      -15.8100097794       11.7471062705  LPSA24    1               0.0000000000
     25638       829  ECLIPA    H75R          -30.7948623746      -15.0044242396       11.1609094003  LPSA24    1               0.0000000000
     25639       829  ECLIPA    H75S          -32.3383023267      -15.5435735702       11.9515745382  LPSA24    1               0.0000000000
     25640       829  ECLIPA    C76           -31.2306677898      -17.1235885129       10.9536024976  LPSA24    1               0.0000000000
     25641       829  ECLIPA    H76R          -31.9593461258      -17.8497830563       11.3806939308  LPSA24    1               0.0000000000
     25642       829  ECLIPA    H76S          -30.2264157484      -17.6158840209       10.9824527203  LPSA24    1               0.0000000000
     25643       829  ECLIPA    C77           -31.5865893914      -16.9215039353        9.4802843349  LPSA24    1               0.0000000000
     25644       829  ECLIPA    H77R          -30.7630866635      -16.3547392611        8.9899459991  LPSA24    1               0.0000000000
     25645       829  ECLIPA    H77S          -32.4957898106      -16.3314888855        9.3245908590  LPSA24    1               0.0000000000
     25646       829  ECLIPA    C78           -31.9222909780      -18.2765605154        8.8879359236  LPSA24    1               0.0000000000
     25647       829  ECLIPA    H78R          -31.0960074053      -18.9299127158        9.2504815242  LPSA24    1               0.0000000000
     25648       829  ECLIPA    H78S          -32.7773461826      -18.7572539899        9.3830163992  LPSA24    1               0.0000000000
     25649       829  ECLIPA    C79           -32.2276904565      -18.2945231337        7.3630629405  LPSA24    1               0.0000000000
     25650       829  ECLIPA    H79R          -33.3056911310      -18.3864246547        7.1706429603  LPSA24    1               0.0000000000
     25651       829  ECLIPA    H79S          -31.8369214909      -19.2601538150        7.0292896077  LPSA24    1               0.0000000000
     25652       829  ECLIPA    C710          -31.5821428836      -17.2083242378        6.4729084672  LPSA24    1               0.0000000000
     25653       829  ECLIPA    H710R         -31.8441801433      -16.2159944194        6.8762646198  LPSA24    1               0.0000000000
     25654       829  ECLIPA    H710S         -30.4731960736      -17.2766475160        6.4740447175  LPSA24    1               0.0000000000
     25655       829  ECLIPA    C711          -32.0358366458      -17.2176636685        5.0081183116  LPSA24    1               0.0000000000
     25656       829  ECLIPA    H711R         -31.8194452458      -18.1683028882        4.5299484454  LPSA24    1               0.0000000000
     25657       829  ECLIPA    H711S         -33.1323289038      -17.1463450765        4.9362163032  LPSA24    1               0.0000000000
     25658       829  ECLIPA    C712          -31.3589971764      -16.0878074769        4.2320008450  LPSA24    1               0.0000000000
     25659       829  ECLIPA    H712R         -30.2531289115      -16.2111246350        4.2595843222  LPSA24    1               0.0000000000
     25660       829  ECLIPA    H712S         -31.5971499501      -15.1735449023        4.8155219112  LPSA24    1               0.0000000000
     25661       829  ECLIPA    C713          -31.8627746787      -15.9480050457        2.7889898587  LPSA24    1               0.0000000000
     25662       829  ECLIPA    H713R         -32.9637783488      -15.7736416981        2.8353339925  LPSA24    1               0.0000000000
     25663       829  ECLIPA    H713S         -31.3902833062      -15.0566623950        2.3156811601  LPSA24    1               0.0000000000
     25664       829  ECLIPA    C714          -31.5622673998      -17.1284218477        1.8659563417  LPSA24    1               0.0000000000
     25665       829  ECLIPA    H714R         -30.4665954483      -17.2737491211        1.7821628323  LPSA24    1               0.0000000000
     25666       829  ECLIPA    H714S         -32.0421613579      -18.0678809755        2.2138224457  LPSA24    1               0.0000000000
     25667       829  ECLIPA    H714T         -31.9370404257      -16.9016659606        0.8489483734  LPSA24    1               0.0000000000
     25668       829  ECLIPA    C51           -35.9555818867      -17.0004876093       14.2287119529  LPSA24    1               0.0000000000
     25669       829  ECLIPA    O51           -35.4926166452      -15.8897133962       14.0664081269  LPSA24    1               0.0000000000
     25670       829  ECLIPA    C52           -36.1240730651      -17.9402207910       13.0551438463  LPSA24    1               0.0000000000
     25671       829  ECLIPA    H52R          -35.2064121456      -18.5574579200       12.9289885478  LPSA24    1               0.0000000000
     25672       829  ECLIPA    H52S          -36.9713809700      -18.6134417862       13.2500920910  LPSA24    1               0.0000000000
     25673       829  ECLIPA    C53           -36.3815419426      -17.1386639899       11.7601587650  LPSA24    1               0.0000000000
     25674       829  ECLIPA    H53R          -36.9804135008      -16.2192832425       11.9812941682  LPSA24    1               0.0000000000
     25675       829  ECLIPA    O53           -37.0362825686      -18.0430600522       10.8504973006  LPSA24    1               0.0000000000
     25676       829  ECLIPA    C61           -38.3002397431      -17.7998959640       10.5207347334  LPSA24    1               0.0000000000
     25677       829  ECLIPA    O61           -38.9420220993      -16.8252137857       10.8315749188  LPSA24    1               0.0000000000
     25678       829  ECLIPA    C62           -38.8075112507      -18.9035021359        9.5902585836  LPSA24    1               0.0000000000
     25679       829  ECLIPA    H62R          -39.1383060545      -19.7565784576       10.2152528130  LPSA24    1               0.0000000000
     25680       829  ECLIPA    H62S          -37.9338240074      -19.2377438666        9.0059786189  LPSA24    1               0.0000000000
     25681       829  ECLIPA    C63           -39.9669103085      -18.4026145290        8.6864162861  LPSA24    1               0.0000000000
     25682       829  ECLIPA    H63R          -39.7116519277      -17.4044035364        8.2718102457  LPSA24    1               0.0000000000
     25683       829  ECLIPA    H63S          -40.8693617405      -18.2905583776        9.3101657195  LPSA24    1               0.0000000000
     25684       829  ECLIPA    C64           -40.3400596222      -19.3041335050        7.4990254072  LPSA24    1               0.0000000000
     25685       829  ECLIPA    H64R          -41.2106446378      -18.8929697430        6.9443223976  LPSA24    1               0.0000000000
     25686       829  ECLIPA    H64S          -40.6186573021      -20.2955021179        7.9183839434  LPSA24    1               0.0000000000
     25687       829  ECLIPA    C65           -39.1780930577      -19.4037734301        6.5244580389  LPSA24    1               0.0000000000
     25688       829  ECLIPA    H65R          -38.3753749133      -19.8652770239        7.1370153598  LPSA24    1               0.0000000000
     25689       829  ECLIPA    H65S          -38.8587896579      -18.3854705033        6.2130339349  LPSA24    1               0.0000000000
     25690       829  ECLIPA    C66           -39.3568689001      -20.2752564986        5.2745315215  LPSA24    1               0.0000000000
     25691       829  ECLIPA    H66R          -39.6413745251      -21.3021207210        5.5608699055  LPSA24    1               0.0000000000
     25692       829  ECLIPA    H66S          -38.3498138387      -20.2921367583        4.7916686772  LPSA24    1               0.0000000000
     25693       829  ECLIPA    C67           -40.3248693889      -19.8077092031        4.2067371946  LPSA24    1               0.0000000000
     25694       829  ECLIPA    H67R          -41.3462520562      -19.5707707910        4.5806075916  LPSA24    1               0.0000000000
     25695       829  ECLIPA    H67S          -40.4358817384      -20.5628983287        3.3876848312  LPSA24    1               0.0000000000
     25696       829  ECLIPA    C68           -39.8412375084      -18.5638536365        3.5775683810  LPSA24    1               0.0000000000
     25697       829  ECLIPA    H68R          -38.8155490229      -18.5005333014        3.1504858127  LPSA24    1               0.0000000000
     25698       829  ECLIPA    H68S          -40.0018945669      -17.7106303587        4.2907902722  LPSA24    1               0.0000000000
     25699       829  ECLIPA    C69           -40.6268407460      -18.4750156530        2.3613637170  LPSA24    1               0.0000000000
     25700       829  ECLIPA    H69R          -41.5925779985      -18.9365982734        2.2450054657  LPSA24    1               0.0000000000
     25701       829  ECLIPA    H69S          -40.1670538947      -18.9963453490        1.5136179464  LPSA24    1               0.0000000000
     25702       829  ECLIPA    C610          -40.6693816691      -17.0682218412        2.2640958823  LPSA24    1               0.0000000000
     25703       829  ECLIPA    H610R         -39.6266308174      -16.7453901884        2.2247128831  LPSA24    1               0.0000000000
     25704       829  ECLIPA    H610S         -41.2809229182      -16.3521369265        2.8759139431  LPSA24    1               0.0000000000
     25705       829  ECLIPA    C611          -41.2235065268      -16.9620199002        1.0116309760  LPSA24    1               0.0000000000
     25706       829  ECLIPA    H611R         -42.0753461902      -17.5026929702        0.8863702467  LPSA24    1               0.0000000000
     25707       829  ECLIPA    H611S         -41.8510999270      -16.1395794965        1.0529871214  LPSA24    1               0.0000000000
     25708       829  ECLIPA    C612          -40.1342996772      -17.1627859826        0.1052576285  LPSA24    1               0.0000000000
     25709       829  ECLIPA    H612R         -39.5839636556      -16.3186695852       -0.3220583631  LPSA24    1               0.0000000000
     25710       829  ECLIPA    H612S         -39.9205958366      -18.1981865019       -0.1924506429  LPSA24    1               0.0000000000
     25711       829  ECLIPA    H612T         -40.6757137921      -17.2637822009       -0.6496024549  LPSA24    1               0.0000000000
     25712       829  ECLIPA    C54           -35.0072601843      -16.7219767102       11.1703092123  LPSA24    1               0.0000000000
     25713       829  ECLIPA    H54R          -34.4830100344      -17.6584985706       10.8827485259  LPSA24    1               0.0000000000
     25714       829  ECLIPA    H54S          -34.4204665485      -16.2378101527       11.9777292249  LPSA24    1               0.0000000000
     25715       829  ECLIPA    C55           -35.0300294543      -15.7616271643        9.9648161906  LPSA24    1               0.0000000000
     25716       829  ECLIPA    H55R          -34.0255976091      -15.3099351298        9.8247662768  LPSA24    1               0.0000000000
     25717       829  ECLIPA    H55S          -35.7075761451      -14.9122834755       10.2005687009  LPSA24    1               0.0000000000
     25718       829  ECLIPA    C56           -35.4022961578      -16.5301743728        8.6901799257  LPSA24    1               0.0000000000
     25719       829  ECLIPA    H56R          -36.3725113384      -17.0321139191        8.8601108977  LPSA24    1               0.0000000000
     25720       829  ECLIPA    H56S          -34.6496720798      -17.3288879088        8.5052446401  LPSA24    1               0.0000000000
     25721       829  ECLIPA    C57           -35.5960862027      -15.7332815184        7.4029099841  LPSA24    1               0.0000000000
     25722       829  ECLIPA    H57R          -34.7128533268      -15.0979912943        7.1803639408  LPSA24    1               0.0000000000
     25723       829  ECLIPA    H57S          -36.4629081042      -15.0474436567        7.5442880282  LPSA24    1               0.0000000000
     25724       829  ECLIPA    C58           -35.9104626253      -16.6993415489        6.2401418407  LPSA24    1               0.0000000000
     25725       829  ECLIPA    H58R          -35.2016843000      -17.5524928743        6.2164895538  LPSA24    1               0.0000000000
     25726       829  ECLIPA    H58S          -36.9043755915      -17.1526068712        6.4604887010  LPSA24    1               0.0000000000
     25727       829  ECLIPA    C59           -35.8833422336      -15.9960387570        4.8705789098  LPSA24    1               0.0000000000
     25728       829  ECLIPA    H59R          -34.8926124450      -15.5090803964        4.7164059993  LPSA24    1               0.0000000000
     25729       829  ECLIPA    H59S          -36.6390439689      -15.1856887464        4.9598324610  LPSA24    1               0.0000000000
     25730       829  ECLIPA    C510          -36.0747876393      -16.9298775834        3.6469240859  LPSA24    1               0.0000000000
     25731       829  ECLIPA    H510R         -36.9146844348      -17.6335236207        3.8234578348  LPSA24    1               0.0000000000
     25732       829  ECLIPA    H510S         -35.1508914131      -17.5387390086        3.5172548441  LPSA24    1               0.0000000000
     25733       829  ECLIPA    C511          -36.3256878335      -16.2127181262        2.3048505776  LPSA24    1               0.0000000000
     25734       829  ECLIPA    H511R         -37.3873907898      -15.9124466153        2.2743122779  LPSA24    1               0.0000000000
     25735       829  ECLIPA    H511S         -35.7043323813      -15.2956420234        2.2245647197  LPSA24    1               0.0000000000
     25736       829  ECLIPA    C512          -36.0325800098      -17.0489371535        1.0597578920  LPSA24    1               0.0000000000
     25737       829  ECLIPA    H512R         -35.9765687582      -16.4004889004        0.1502445871  LPSA24    1               0.0000000000
     25738       829  ECLIPA    H512S         -35.0993699003      -17.6406274913        1.1283056835  LPSA24    1               0.0000000000
     25739       829  ECLIPA    C513          -37.1211788980      -17.9704174437        0.6617507147  LPSA24    1               0.0000000000
     25740       829  ECLIPA    H513R         -38.0361939214      -17.4324371860        0.6129026039  LPSA24    1               0.0000000000
     25741       829  ECLIPA    H513S         -37.3568147510      -18.7823532127        1.3874345694  LPSA24    1               0.0000000000
     25742       829  ECLIPA    C514          -36.7900358179      -18.4242379782       -0.7374805753  LPSA24    1               0.0000000000
     25743       829  ECLIPA    H514R         -35.9443652695      -19.1353191565       -0.7543958589  LPSA24    1               0.0000000000
     25744       829  ECLIPA    H514S         -37.7358497712      -18.8962255287       -1.0361767094  LPSA24    1               0.0000000000
     25745       829  ECLIPA    H514T         -36.7199152916      -17.8069779797       -1.5893346836  LPSA24    1               0.0000000000
     25746       829  ECLIPA    C33           -40.4416221154      -19.6454814650       14.4643065790  LPSA24    1               0.0000000000
     25747       829  ECLIPA    H33R          -40.8888832078      -20.5920450665       14.8453368536  LPSA24    1               0.0000000000
     25748       829  ECLIPA    O33           -39.5418712143      -19.1409934952       15.4354682588  LPSA24    1               0.0000000000
     25749       829  ECLIPA    HO33          -39.8947879142      -19.1563256578       16.3040074004  LPSA24    1               0.0000000000
     25750       829  ECLIPA    C34           -39.6319281141      -19.9773639398       13.1946732509  LPSA24    1               0.0000000000
     25751       829  ECLIPA    H34R          -39.1622455124      -19.0468780896       12.8117639622  LPSA24    1               0.0000000000
     25752       829  ECLIPA    H34S          -40.3352097202      -20.3454697743       12.4140987624  LPSA24    1               0.0000000000
     25753       829  ECLIPA    C35           -38.5198662661      -21.0136012084       13.4381263471  LPSA24    1               0.0000000000
     25754       829  ECLIPA    H35R          -38.9812820263      -21.9770721130       13.7466115108  LPSA24    1               0.0000000000
     25755       829  ECLIPA    H35S          -37.8769234063      -20.6449354550       14.2685875769  LPSA24    1               0.0000000000
     25756       829  ECLIPA    C36           -37.6374816818      -21.2445088412       12.2109372322  LPSA24    1               0.0000000000
     25757       829  ECLIPA    H36R          -37.6517395503      -20.2853225632       11.6668475861  LPSA24    1               0.0000000000
     25758       829  ECLIPA    H36S          -38.0773239920      -22.0169206295       11.5482882178  LPSA24    1               0.0000000000
     25759       829  ECLIPA    C37           -36.1739207068      -21.5850362781       12.5285105137  LPSA24    1               0.0000000000
     25760       829  ECLIPA    H37R          -36.0708832987      -22.6790735399       12.6800318489  LPSA24    1               0.0000000000
     25761       829  ECLIPA    H37S          -35.8908235134      -21.1201803960       13.4960610769  LPSA24    1               0.0000000000
     25762       829  ECLIPA    C38           -35.1775207411      -21.1644367936       11.4293613413  LPSA24    1               0.0000000000
     25763       829  ECLIPA    H38R          -34.9877434512      -20.0715294157       11.4278522915  LPSA24    1               0.0000000000
     25764       829  ECLIPA    H38S          -34.2157675396      -21.6500833998       11.6794590047  LPSA24    1               0.0000000000
     25765       829  ECLIPA    C39           -35.6298575414      -21.5750174882       10.0207978126  LPSA24    1               0.0000000000
     25766       829  ECLIPA    H39R          -36.6398451228      -21.1534410379        9.8204018689  LPSA24    1               0.0000000000
     25767       829  ECLIPA    H39S          -35.6702377892      -22.6881189525        9.9828220642  LPSA24    1               0.0000000000
     25768       829  ECLIPA    C310          -34.7230902527      -21.1249164401        8.8715358613  LPSA24    1               0.0000000000
     25769       829  ECLIPA    H310R         -33.7951679615      -21.7319318935        8.9622179270  LPSA24    1               0.0000000000
     25770       829  ECLIPA    H310S         -34.4512122357      -20.0525728015        8.9580623558  LPSA24    1               0.0000000000
     25771       829  ECLIPA    C311          -35.4393695374      -21.2515948981        7.5139223275  LPSA24    1               0.0000000000
     25772       829  ECLIPA    H311R         -36.1138614803      -22.1371102501        7.5265459189  LPSA24    1               0.0000000000
     25773       829  ECLIPA    H311S         -36.0814129021      -20.3515266619        7.3643509047  LPSA24    1               0.0000000000
     25774       829  ECLIPA    C312          -34.5033742642      -21.3084270096        6.3015671569  LPSA24    1               0.0000000000
     25775       829  ECLIPA    H312R         -33.6092980974      -20.6736609257        6.4871350472  LPSA24    1               0.0000000000
     25776       829  ECLIPA    H312S         -34.1693865156      -22.3620996375        6.1762933121  LPSA24    1               0.0000000000
     25777       829  ECLIPA    C313          -35.1976523103      -20.8539986010        5.0049753245  LPSA24    1               0.0000000000
     25778       829  ECLIPA    H313R         -35.9177672950      -21.6626277181        4.7481192130  LPSA24    1               0.0000000000
     25779       829  ECLIPA    H313S         -35.7831151637      -19.9197795959        5.1748459321  LPSA24    1               0.0000000000
     25780       829  ECLIPA    C314          -34.2522547096      -20.6369286259        3.8186018912  LPSA24    1               0.0000000000
     25781       829  ECLIPA    H314R         -33.7112561725      -21.5804186131        3.5976151486  LPSA24    1               0.0000000000
     25782       829  ECLIPA    H314S         -34.8098142777      -20.3333031638        2.9042370717  LPSA24    1               0.0000000000
     25783       829  ECLIPA    H314T         -33.5084314000      -19.8433814134        4.0462832167  LPSA24    1               0.0000000000
     25784       829  ECLIPA    C11           -39.3662571186      -13.8636631318       11.2603020650  LPSA24    1               0.0000000000
     25785       829  ECLIPA    O11           -38.1638377102      -13.8553816941       11.0886479293  LPSA24    1               0.0000000000
     25786       829  ECLIPA    C12           -40.2038015737      -13.0238906325       10.3664350374  LPSA24    1               0.0000000000
     25787       829  ECLIPA    H12R          -40.2121109983      -11.9464176194       10.6240590074  LPSA24    1               0.0000000000
     25788       829  ECLIPA    H12S          -41.2397973158      -13.4068305379       10.4420061330  LPSA24    1               0.0000000000
     25789       829  ECLIPA    C13           -39.7789645920      -13.2167960016        8.9448038467  LPSA24    1               0.0000000000
     25790       829  ECLIPA    H13R          -38.7288595788      -13.3582239434        8.6973045341  LPSA24    1               0.0000000000
     25791       829  ECLIPA    O13           -40.1133982766      -12.0306812008        8.2757517242  LPSA24    1               0.0000000000
     25792       829  ECLIPA    HO13          -40.1114950056      -12.0549899659        7.3178152228  LPSA24    1               0.0000000000
     25793       829  ECLIPA    C14           -40.4978035735      -14.4258167517        8.4728961036  LPSA24    1               0.0000000000
     25794       829  ECLIPA    H14R          -41.5294395182      -14.4017927091        8.8983670292  LPSA24    1               0.0000000000
     25795       829  ECLIPA    H14S          -39.9984888527      -15.3478557036        8.8418328979  LPSA24    1               0.0000000000
     25796       829  ECLIPA    C15           -40.5207946304      -14.5758176610        7.0086254336  LPSA24    1               0.0000000000
     25797       829  ECLIPA    H15R          -41.3033688528      -13.9051322264        6.5808212755  LPSA24    1               0.0000000000
     25798       829  ECLIPA    H15S          -40.7448039900      -15.6522267501        6.9404103875  LPSA24    1               0.0000000000
     25799       829  ECLIPA    C16           -39.3627871008      -14.8886065923        6.2001487227  LPSA24    1               0.0000000000
     25800       829  ECLIPA    H16R          -39.0480873705      -15.9631346886        6.2437713648  LPSA24    1               0.0000000000
     25801       829  ECLIPA    H16S          -38.6271730034      -14.2151116285        6.6422800801  LPSA24    1               0.0000000000
     25802       829  ECLIPA    C17           -39.7546436363      -14.5467845968        4.8106128589  LPSA24    1               0.0000000000
     25803       829  ECLIPA    H17R          -40.6930974166      -15.0522357011        4.4547209085  LPSA24    1               0.0000000000
     25804       829  ECLIPA    H17S          -38.8997364739      -14.9812291312        4.2894533959  LPSA24    1               0.0000000000
     25805       829  ECLIPA    C18           -39.7922566936      -13.0144196974        4.7798685430  LPSA24    1               0.0000000000
     25806       829  ECLIPA    H18R          -40.7475222395      -12.7212570590        5.2859115168  LPSA24    1               0.0000000000
     25807       829  ECLIPA    H18S          -38.8771528009      -12.5234268286        5.0955805114  LPSA24    1               0.0000000000
     25808       829  ECLIPA    C19           -39.9220546475      -12.3303168511        3.4739820874  LPSA24    1               0.0000000000
     25809       829  ECLIPA    H19R          -40.3659263563      -11.3652038182        3.3217134233  LPSA24    1               0.0000000000
     25810       829  ECLIPA    H19S          -40.7543898586      -13.0895220137        3.3785701648  LPSA24    1               0.0000000000
     25811       829  ECLIPA    C110          -38.7444792674      -12.0855896649        2.4566955963  LPSA24    1               0.0000000000
     25812       829  ECLIPA    H110R         -37.7466646645      -11.9863801985        2.7177117313  LPSA24    1               0.0000000000
     25813       829  ECLIPA    H110S         -38.3029446445      -13.0740573868        2.6961376248  LPSA24    1               0.0000000000
     25814       829  ECLIPA    C111          -39.0001997493      -11.6004873205        0.8770333436  LPSA24    1               0.0000000000
     25815       829  ECLIPA    H111R         -40.0805938423      -11.9719565269        0.8961326387  LPSA24    1               0.0000000000
     25816       829  ECLIPA    H111S         -39.4184711655      -10.6338595950        0.6415759944  LPSA24    1               0.0000000000
     25817       829  ECLIPA    C112          -37.9181949975      -11.9690157498       -0.4762663677  LPSA24    1               0.0000000000
     25818       829  ECLIPA    H112R         -36.9146695476      -12.1924631781       -0.1383987419  LPSA24    1               0.0000000000
     25819       829  ECLIPA    H112S         -37.5739354786      -13.0171528919       -0.7897430729  LPSA24    1               0.0000000000
     25820       829  ECLIPA    C113          -38.3253471664      -11.9076655529       -2.0364281993  LPSA24    1               0.0000000000
     25821       829  ECLIPA    H113R         -38.8805435114      -12.7155377358       -2.5510175780  LPSA24    1               0.0000000000
     25822       829  ECLIPA    H113S         -39.1853095543      -11.2740292397       -2.1851795154  LPSA24    1               0.0000000000
     25823       829  ECLIPA    C114          -37.3915352566      -12.4307470371       -3.0709027748  LPSA24    1               0.0000000000
     25824       829  ECLIPA    H114R         -36.4674731167      -11.9042701611       -2.8909908439  LPSA24    1               0.0000000000
     25825       829  ECLIPA    H114S         -37.2438933459      -13.5093110843       -2.7812496710  LPSA24    1               0.0000000000
     25826       829  ECLIPA    H114T         -37.9044424649      -12.2243517281       -4.0614963560  LPSA24    1               0.0000000000
     25827       830  AKDO      C1            -35.2537908674      -18.2345786920       22.4246345059  LPSA24    2               0.0000000000
     25828       830  AKDO      O11           -34.0858700606      -18.7083740042       22.3938248580  LPSA24    2               0.0000000000
     25829       830  AKDO      O12           -36.3269385416      -18.8320874050       22.1068380450  LPSA24    2               0.0000000000
     25830       830  AKDO      C2            -35.4113453402      -16.7502360193       22.8682282494  LPSA24    2               0.0000000000
     25831       830  AKDO      C6            -34.2721736802      -14.8710045823       23.8587186190  LPSA24    2               0.0000000000
     25832       830  AKDO      H6            -34.6080647192      -14.3115959732       22.9470444001  LPSA24    2               0.0000000000
     25833       830  AKDO      O6            -34.1869756790      -16.2491135733       23.4586875163  LPSA24    2               0.0000000000
     25834       830  AKDO      C3            -36.5022667206      -16.5671489409       23.9201966342  LPSA24    2               0.0000000000
     25835       830  AKDO      H31           -36.3273334015      -17.2510574536       24.7812435399  LPSA24    2               0.0000000000
     25836       830  AKDO      H32           -37.4693363414      -16.8368010317       23.4441049478  LPSA24    2               0.0000000000
     25837       830  AKDO      C4            -36.6028631663      -15.1477771345       24.3609468379  LPSA24    2               0.0000000000
     25838       830  AKDO      H4            -36.7992605662      -14.4882134383       23.4852521590  LPSA24    2               0.0000000000
     25839       830  AKDO      O4            -37.5679762923      -14.9820669128       25.3727656254  LPSA24    2               0.0000000000
     25840       830  AKDO      C5            -35.3240345433      -14.6622911318       24.9585716963  LPSA24    2               0.0000000000
     25841       830  AKDO      H5            -35.4255903966      -13.5550745947       25.0853622625  LPSA24    2               0.0000000000
     25842       830  AKDO      O5            -35.1564130259      -15.3318085509       26.2531633614  LPSA24    2               0.0000000000
     25843       830  AKDO      C7            -32.8934463631      -14.3093985487       24.1648842497  LPSA24    2               0.0000000000
     25844       830  AKDO      H7            -32.5363312483      -14.7817858758       25.0866653168  LPSA24    2               0.0000000000
     25845       830  AKDO      O7            -32.9438275659      -12.8989815749       24.3903446301  LPSA24    2               0.0000000000
     25846       830  AKDO      HO7           -32.9611132804      -12.5381824815       23.5057467066  LPSA24    2               0.0000000000
     25847       830  AKDO      C8            -31.9324372439      -14.5994664447       23.0239838750  LPSA24    2               0.0000000000
     25848       830  AKDO      H81           -31.9354567127      -15.7102534601       22.8571168933  LPSA24    2               0.0000000000
     25849       830  AKDO      H82           -32.3310744090      -14.1388104108       22.0899991774  LPSA24    2               0.0000000000
     25850       830  AKDO      O8            -30.5798768267      -14.1337226585       23.2901842814  LPSA24    2               0.0000000000
     25851       830  AKDO      HO8           -30.0299065753      -14.8432819872       22.9201782792  LPSA24    2               0.0000000000
     25852       831  AKDO      C1            -39.1142295399      -13.9127030830       23.7619857495  LPSA24    3               1.0000000000
     25853       831  AKDO      O11           -39.1054640673      -14.4362099897       22.6172032254  LPSA24    3               1.0000000000
     25854       831  AKDO      O12           -39.0745669366      -12.6943704575       24.0696137487  LPSA24    3               1.0000000000
     25855       831  AKDO      C2            -38.8768643450      -14.8717049061       24.9557961097  LPSA24    3               1.0000000000
     25856       831  AKDO      C6            -39.2165387623      -17.1093837257       25.7347179745  LPSA24    3               1.0000000000
     25857       831  AKDO      H6            -38.1555244744      -17.2838290126       25.9459184656  LPSA24    3               1.0000000000
     25858       831  AKDO      O6            -39.4649150507      -16.1608732062       24.6721519684  LPSA24    3               1.0000000000
     25859       831  AKDO      C3            -39.4725842027      -14.3473525969       26.2323048262  LPSA24    3               1.0000000000
     25860       831  AKDO      H31           -40.4386980373      -14.1528041124       25.7579595129  LPSA24    3               1.0000000000
     25861       831  AKDO      H32           -39.1679115407      -13.3382502316       26.5697857218  LPSA24    3               1.0000000000
     25862       831  AKDO      C4            -39.2512799063      -15.3133492738       27.3725151378  LPSA24    3               1.0000000000
     25863       831  AKDO      H4            -38.1820219127      -15.5277071140       27.5093968410  LPSA24    3               1.0000000000
     25864       831  AKDO      O4            -39.7522141651      -14.9086476613       28.6463397342  LPSA24    3               1.0000000000
     25865       831  AKDO      HO4           -39.0945617115      -14.9557189886       29.3561091523  LPSA24    3               1.0000000000
     25866       831  AKDO      C5            -39.8017114055      -16.6082550305       26.9722347642  LPSA24    3               1.0000000000
     25867       831  AKDO      H5            -39.6153151203      -17.3236498460       27.7965291395  LPSA24    3               1.0000000000
     25868       831  AKDO      O5            -41.1170541527      -16.6073678881       26.6556004405  LPSA24    3               1.0000000000
     25869       831  AKDO      HO5           -41.4516805938      -15.8847371872       26.1219955761  LPSA24    3               1.0000000000
     25870       831  AKDO      C7            -39.8224465515      -18.4065025009       25.2742979022  LPSA24    3               1.0000000000
     25871       831  AKDO      H7            -40.8269077743      -18.1000702117       24.8701916884  LPSA24    3               1.0000000000
     25872       831  AKDO      O7            -39.7726789827      -19.4268729374       26.2952955661  LPSA24    3               1.0000000000
     25873       831  AKDO      HO7           -40.4175188634      -20.1240185084       26.3038035350  LPSA24    3               1.0000000000
     25874       831  AKDO      C8            -39.0365870846      -18.9025400490       24.1271159946  LPSA24    3               1.0000000000
     25875       831  AKDO      H81           -39.0610045881      -18.0731803466       23.3876729694  LPSA24    3               1.0000000000
     25876       831  AKDO      H82           -38.0011399548      -19.0942655034       24.3876631965  LPSA24    3               1.0000000000
     25877       831  AKDO      O8            -39.6271684141      -20.0569233490       23.5217209078  LPSA24    3               1.0000000000
     25878       831  AKDO      HO8           -40.4676327976      -19.5996537142       23.2811187974  LPSA24    3               1.0000000000
     25879       832  AHEP      C1            -34.4640081512      -14.6033198146       27.2489362409  LPSA24    4               2.0000000000
     25880       832  AHEP      H1            -33.4097432732      -14.6466474885       26.9063546061  LPSA24    4               2.0000000000
     25881       832  AHEP      C5            -36.0225250407      -12.9168754755       27.9925226575  LPSA24    4               2.0000000000
     25882       832  AHEP      H5            -36.8111823307      -13.5343580302       27.5074243837  LPSA24    4               2.0000000000
     25883       832  AHEP      O5            -34.7825120953      -13.2096304980       27.3119455748  LPSA24    4               2.0000000000
     25884       832  AHEP      C2            -34.3974225841      -15.1131467713       28.7034608307  LPSA24    4               2.0000000000
     25885       832  AHEP      H2            -34.2315725143      -16.2058165026       28.6839005600  LPSA24    4               2.0000000000
     25886       832  AHEP      O2            -33.2477166086      -14.5602292848       29.3469193453  LPSA24    4               2.0000000000
     25887       832  AHEP      HO2           -32.8620822327      -15.1944038857       29.9477558353  LPSA24    4               2.0000000000
     25888       832  AHEP      C3            -35.6727233348      -14.8681951158       29.4964129123  LPSA24    4               2.0000000000
     25889       832  AHEP      H3            -36.5331445992      -15.4502703425       29.0982130896  LPSA24    4               2.0000000000
     25890       832  AHEP      O3            -35.4527960098      -15.2302486267       30.8756556105  LPSA24    4               2.0000000000
     25891       832  AHEP      C4            -35.9468429998      -13.3789902124       29.4551278170  LPSA24    4               2.0000000000
     25892       832  AHEP      H4            -35.1501115015      -12.7917164180       29.9712054060  LPSA24    4               2.0000000000
     25893       832  AHEP      O4            -37.2259123881      -13.1915285301       30.0543410026  LPSA24    4               2.0000000000
     25894       832  AHEP      P4            -37.4220398351      -12.3554308370       31.4741193358  LPSA24    4               2.0000000000
     25895       832  AHEP      OP42          -38.6376623715      -13.0471334552       32.0885357981  LPSA24    4               2.0000000000
     25896       832  AHEP      OP43          -37.6562845825      -10.9045849501       31.0253534010  LPSA24    4               2.0000000000
     25897       832  AHEP      OP44          -36.1418335685      -12.5627358390       32.2780058013  LPSA24    4               2.0000000000
     25898       832  AHEP      C6            -36.3457789827      -11.4161532506       27.7909992793  LPSA24    4               2.0000000000
     25899       832  AHEP      H6            -37.4264626895      -11.2990683017       28.0845079434  LPSA24    4               2.0000000000
     25900       832  AHEP      O6            -35.5597109277      -10.5399740214       28.6278657111  LPSA24    4               2.0000000000
     25901       832  AHEP      HO6           -36.1756014144      -10.1364679117       29.2470306607  LPSA24    4               2.0000000000
     25902       832  AHEP      C7            -36.2082583677      -10.9167868267       26.3360348199  LPSA24    4               2.0000000000
     25903       832  AHEP      H71           -36.7228623578       -9.9400285921       26.2044895800  LPSA24    4               2.0000000000
     25904       832  AHEP      H72           -36.6748612570      -11.6558012575       25.6497268265  LPSA24    4               2.0000000000
     25905       832  AHEP      O7            -34.8674978186      -10.6973114839       25.8714219890  LPSA24    4               2.0000000000
     25906       832  AHEP      HO7           -34.5883758687       -9.9594133258       26.4342734739  LPSA24    4               2.0000000000
     25907       833  AHEP      C1            -36.2878310676      -16.2042446944       31.4606369482  LPSA24    5               3.0000000000
     25908       833  AHEP      H1            -37.3012015161      -16.1956751685       30.9863565422  LPSA24    5               3.0000000000
     25909       833  AHEP      C5            -34.4294996908      -17.6137678457       31.9729152430  LPSA24    5               3.0000000000
     25910       833  AHEP      H5            -33.7920024685      -16.7702908664       31.6084016512  LPSA24    5               3.0000000000
     25911       833  AHEP      O5            -35.6956626751      -17.5060002920       31.2841174864  LPSA24    5               3.0000000000
     25912       833  AHEP      C2            -36.4805973370      -15.9528999472       32.9656141495  LPSA24    5               3.0000000000
     25913       833  AHEP      H2            -36.8762531251      -14.9187410785       33.0910221893  LPSA24    5               3.0000000000
     25914       833  AHEP      O2            -37.4653696526      -16.8557721768       33.4895977054  LPSA24    5               3.0000000000
     25915       833  AHEP      HO2           -38.2976373769      -16.3963139945       33.6248280457  LPSA24    5               3.0000000000
     25916       833  AHEP      C3            -35.1569789674      -16.0441002306       33.7299817358  LPSA24    5               3.0000000000
     25917       833  AHEP      H3            -34.4631961442      -15.2737159294       33.3159912239  LPSA24    5               3.0000000000
     25918       833  AHEP      O3            -35.2579721630      -15.8681053349       35.1623298599  LPSA24    5               3.0000000000
     25919       833  AHEP      C4            -34.5846828268      -17.4193960470       33.4663815733  LPSA24    5               3.0000000000
     25920       833  AHEP      H4            -35.2812041783      -18.2102773033       33.8422284612  LPSA24    5               3.0000000000
     25921       833  AHEP      O4            -33.2711898750      -17.5093204980       34.0329921042  LPSA24    5               3.0000000000
     25922       833  AHEP      P4            -33.0163428077      -18.5549112251       35.3033138712  LPSA24    5               3.0000000000
     25923       833  AHEP      OP42          -31.6524891353      -18.1393366347       35.8517029873  LPSA24    5               3.0000000000
     25924       833  AHEP      OP43          -32.9673911443      -19.9484663058       34.6779179069  LPSA24    5               3.0000000000
     25925       833  AHEP      OP44          -34.1430159503      -18.3454483117       36.3082076847  LPSA24    5               3.0000000000
     25926       833  AHEP      C6            -33.7226111973      -18.9163628743       31.5952435177  LPSA24    5               3.0000000000
     25927       833  AHEP      H6            -32.7057377163      -18.9162911622       32.0568992395  LPSA24    5               3.0000000000
     25928       833  AHEP      O6            -34.3946213528      -20.1213905286       31.9996581231  LPSA24    5               3.0000000000
     25929       833  AHEP      HO6           -35.2396296824      -20.2133491898       31.5631231487  LPSA24    5               3.0000000000
     25930       833  AHEP      C7            -33.5152190023      -18.9309696454       30.1209618841  LPSA24    5               3.0000000000
     25931       833  AHEP      H71           -32.4856152084      -19.2863119996       29.9810524416  LPSA24    5               3.0000000000
     25932       833  AHEP      H72           -33.4485264988      -17.9192845135       29.7057169770  LPSA24    5               3.0000000000
     25933       833  AHEP      O7            -34.4322157931      -19.7898767258       29.4313279958  LPSA24    5               3.0000000000
     25934       834  AHEP      C1            -35.4407036380      -19.0720850252       28.7864626713  LPSA24    6               4.0000000000
     25935       834  AHEP      H1            -35.3946330712      -17.9911618984       29.0251482769  LPSA24    6               4.0000000000
     25936       834  AHEP      C5            -35.3614118660      -20.5542257683       26.9508061294  LPSA24    6               4.0000000000
     25937       834  AHEP      H5            -34.5989260255      -21.1232884222       27.5223620990  LPSA24    6               4.0000000000
     25938       834  AHEP      O5            -35.2669203233      -19.1781451903       27.3793907872  LPSA24    6               4.0000000000
     25939       834  AHEP      C2            -36.7830257726      -19.5726281044       29.2254190137  LPSA24    6               4.0000000000
     25940       834  AHEP      H2            -36.8429689929      -19.4805368320       30.3374140420  LPSA24    6               4.0000000000
     25941       834  AHEP      O2            -37.7985353573      -18.7017264491       28.7300174399  LPSA24    6               4.0000000000
     25942       834  AHEP      HO2           -38.2643027372      -18.3310167091       29.4864358001  LPSA24    6               4.0000000000
     25943       834  AHEP      C3            -36.9255926583      -21.0296875078       28.8495719994  LPSA24    6               4.0000000000
     25944       834  AHEP      H3            -36.1579371044      -21.6368614046       29.3869530307  LPSA24    6               4.0000000000
     25945       834  AHEP      O3            -38.2148788315      -21.4441264535       29.2883479510  LPSA24    6               4.0000000000
     25946       834  AHEP      HO3           -38.2277259817      -22.1970806847       29.9085113755  LPSA24    6               4.0000000000
     25947       834  AHEP      C4            -36.7145673579      -21.1405050706       27.3356386053  LPSA24    6               4.0000000000
     25948       834  AHEP      H4            -37.5303017777      -20.6086134571       26.8100420427  LPSA24    6               4.0000000000
     25949       834  AHEP      O4            -36.7455846586      -22.4690251080       26.8503002048  LPSA24    6               4.0000000000
     25950       834  AHEP      HO4           -35.9983504546      -22.9583441608       27.2051586729  LPSA24    6               4.0000000000
     25951       834  AHEP      C6            -34.9868073397      -20.7647053404       25.4852514180  LPSA24    6               4.0000000000
     25952       834  AHEP      H6            -34.9100693698      -21.8613592702       25.3152664678  LPSA24    6               4.0000000000
     25953       834  AHEP      O6            -36.0205608537      -20.3286616599       24.5935575951  LPSA24    6               4.0000000000
     25954       834  AHEP      HO6           -35.6042205865      -19.6530083211       24.0163785394  LPSA24    6               4.0000000000
     25955       834  AHEP      C7            -33.5976932785      -20.2249373941       25.1489524279  LPSA24    6               4.0000000000
     25956       834  AHEP      H71           -33.2899470487      -20.5460540548       24.1274743879  LPSA24    6               4.0000000000
     25957       834  AHEP      H72           -32.8416028538      -20.6173774394       25.8485426843  LPSA24    6               4.0000000000
     25958       834  AHEP      O7            -33.5132287099      -18.8154039477       25.2778785531  LPSA24    6               4.0000000000
     25959       834  AHEP      HO7           -33.2463086072      -18.6338932047       26.1818417234  LPSA24    6               4.0000000000
     25960       835  AGLC      C1            -35.0776762716      -14.5685716968       35.6567085415  LPSA24    7               4.0000000000
     25961       835  AGLC      H1            -34.2130243396      -14.0702056200       35.1611209833  LPSA24    7               4.0000000000
     25962       835  AGLC      C5            -37.4176871399      -14.3063645905       36.0932071031  LPSA24    7               4.0000000000
     25963       835  AGLC      H5            -37.5779264814      -15.3742270054       35.8190282017  LPSA24    7               4.0000000000
     25964       835  AGLC      O5            -36.2511636902      -13.8022158616       35.4300644817  LPSA24    7               4.0000000000
     25965       835  AGLC      C2            -34.8382110548      -14.4805931867       37.1663017190  LPSA24    7               4.0000000000
     25966       835  AGLC      H2            -34.8453951602      -13.4016847408       37.4305021786  LPSA24    7               4.0000000000
     25967       835  AGLC      O2            -33.5546426133      -14.9393009536       37.5641200973  LPSA24    7               4.0000000000
     25968       835  AGLC      HO2           -33.5701491447      -15.9145255519       37.5601701457  LPSA24    7               4.0000000000
     25969       835  AGLC      C3            -35.9613952615      -15.0762520218       37.9731315495  LPSA24    7               4.0000000000
     25970       835  AGLC      H3            -36.0822384902      -16.1103359796       37.6032130435  LPSA24    7               4.0000000000
     25971       835  AGLC      O3            -35.6870216499      -15.1335909236       39.3998928021  LPSA24    7               4.0000000000
     25972       835  AGLC      C4            -37.1951065540      -14.2544273042       37.6059118192  LPSA24    7               4.0000000000
     25973       835  AGLC      H4            -37.0247362131      -13.1928460684       37.9212711056  LPSA24    7               4.0000000000
     25974       835  AGLC      O4            -38.3484133351      -14.7698951268       38.2546989789  LPSA24    7               4.0000000000
     25975       835  AGLC      HO4           -38.8820121214      -14.1284214157       38.7105103415  LPSA24    7               4.0000000000
     25976       835  AGLC      C6            -38.6064642797      -13.5501742477       35.4981655920  LPSA24    7               4.0000000000
     25977       835  AGLC      H61           -38.6089287041      -13.7277625660       34.3968818847  LPSA24    7               4.0000000000
     25978       835  AGLC      H62           -39.5778089986      -13.9490657766       35.8785902222  LPSA24    7               4.0000000000
     25979       835  AGLC      O6            -38.5571513470      -12.1359351652       35.7281771417  LPSA24    7               4.0000000000
     25980       835  AGLC      HO6           -38.9844579648      -12.0266824707       36.5443897184  LPSA24    7               4.0000000000
     25981       836  AGLC      C1            -35.6726286006      -16.4554307663       39.9204207208  LPSA24    8               5.0000000000
     25982       836  AGLC      H1            -36.5338543976      -17.0207994267       39.5185797398  LPSA24    8               5.0000000000
     25983       836  AGLC      C5            -33.2499683876      -16.7155386020       40.2172103838  LPSA24    8               5.0000000000
     25984       836  AGLC      H5            -33.1179526540      -15.6618807572       39.8855111078  LPSA24    8               5.0000000000
     25985       836  AGLC      O5            -34.4669893975      -17.1950575423       39.5997898486  LPSA24    8               5.0000000000
     25986       836  AGLC      C2            -35.8417648248      -16.4926533102       41.4327582667  LPSA24    8               5.0000000000
     25987       836  AGLC      H2            -35.9161304018      -17.5686266766       41.7022753028  LPSA24    8               5.0000000000
     25988       836  AGLC      O2            -37.0274602129      -15.8608393205       41.9330688789  LPSA24    8               5.0000000000
     25989       836  AGLC      C3            -34.6413602946      -15.9148720957       42.1257536436  LPSA24    8               5.0000000000
     25990       836  AGLC      H3            -34.5248932707      -14.8726919060       41.7244023667  LPSA24    8               5.0000000000
     25991       836  AGLC      O3            -34.9270890456      -15.8370322063       43.5412650540  LPSA24    8               5.0000000000
     25992       836  AGLC      C4            -33.4393827809      -16.7447279517       41.7284507972  LPSA24    8               5.0000000000
     25993       836  AGLC      H4            -33.6342602914      -17.7995588427       42.0348406299  LPSA24    8               5.0000000000
     25994       836  AGLC      O4            -32.2571047033      -16.3112524803       42.3814691579  LPSA24    8               5.0000000000
     25995       836  AGLC      HO4           -32.2500768641      -15.3477993439       42.3784305061  LPSA24    8               5.0000000000
     25996       836  AGLC      C6            -31.9710289100      -17.4493587709       39.7436068727  LPSA24    8               5.0000000000
     25997       836  AGLC      H61           -31.9483231962      -17.5516966129       38.6328220184  LPSA24    8               5.0000000000
     25998       836  AGLC      H62           -31.0735094925      -16.8429112143       40.0210370148  LPSA24    8               5.0000000000
     25999       836  AGLC      O6            -31.7806668055      -18.7299943164       40.3578519475  LPSA24    8               5.0000000000
     26000       836  AGLC      HO6           -31.3755975958      -18.5414044671       41.2053594779  LPSA24    8               5.0000000000
     26001       837  AGAL      C1            -38.2627037029      -16.2754118081       41.4095555520  LPSA24    9               6.0000000000
     26002       837  AGAL      H1            -38.2422738370      -16.2885052462       40.3057514958  LPSA24    9               6.0000000000
     26003       837  AGAL      C5            -38.7818788754      -17.6444609940       43.2891803078  LPSA24    9               6.0000000000
     26004       837  AGAL      H5            -37.8738207097      -17.2154341419       43.7509584222  LPSA24    9               6.0000000000
     26005       837  AGAL      O5            -38.6262131392      -17.6011808725       41.8586367016  LPSA24    9               6.0000000000
     26006       837  AGAL      C2            -39.2744151790      -15.2167868105       41.8366582766  LPSA24    9               6.0000000000
     26007       837  AGAL      H2            -40.2486031967      -15.5290156610       41.3828008583  LPSA24    9               6.0000000000
     26008       837  AGAL      O2            -38.9226557425      -13.9689519344       41.1933660262  LPSA24    9               6.0000000000
     26009       837  AGAL      C3            -39.3754232241      -15.2842598813       43.3549452234  LPSA24    9               6.0000000000
     26010       837  AGAL      H3            -38.4153436387      -15.0805497154       43.8459789928  LPSA24    9               6.0000000000
     26011       837  AGAL      O3            -40.0697981320      -14.2725511210       43.9954272140  LPSA24    9               6.0000000000
     26012       837  AGAL      HO3           -40.2263022016      -13.6728919613       43.2446984724  LPSA24    9               6.0000000000
     26013       837  AGAL      C4            -39.8361961957      -16.6549997197       43.7227742562  LPSA24    9               6.0000000000
     26014       837  AGAL      H4            -40.0198988746      -16.6504111624       44.8108288394  LPSA24    9               6.0000000000
     26015       837  AGAL      O4            -41.0110035013      -17.0063908466       43.0546730617  LPSA24    9               6.0000000000
     26016       837  AGAL      HO4           -41.5267271820      -17.5681645152       43.6744894730  LPSA24    9               6.0000000000
     26017       837  AGAL      C6            -38.8558645496      -19.0780215603       43.8352937877  LPSA24    9               6.0000000000
     26018       837  AGAL      H61           -37.9348748576      -19.6298431463       43.5979491547  LPSA24    9               6.0000000000
     26019       837  AGAL      H62           -38.9077977291      -19.0481293442       44.9388357844  LPSA24    9               6.0000000000
     26020       837  AGAL      O6            -39.9372906695      -19.8814678134       43.3867596540  LPSA24    9               6.0000000000
     26021       837  AGAL      HO6           -39.6723252652      -20.4854241706       42.6903550131  LPSA24    9               6.0000000000
     26022       838  AGAL      C1            -39.0506556569      -12.6830846205       41.7541795477  LPSA24    10              7.0000000000
     26023       838  AGAL      H1            -40.1257944902      -12.4227817922       41.8505462267  LPSA24    10              7.0000000000
     26024       838  AGAL      C5            -36.9971326339      -12.6536301804       43.0427339912  LPSA24    10              7.0000000000
     26025       838  AGAL      H5            -36.8512446913      -13.6819340446       42.6441282535  LPSA24    10              7.0000000000
     26026       838  AGAL      O5            -38.4250017491      -12.4448652548       43.0404427787  LPSA24    10              7.0000000000
     26027       838  AGAL      C2            -38.4233857596      -11.7493459953       40.7402041197  LPSA24    10              7.0000000000
     26028       838  AGAL      H2            -38.5841019479      -10.7184061874       41.1422704274  LPSA24    10              7.0000000000
     26029       838  AGAL      O2            -39.0812745779      -11.7094834373       39.4507792178  LPSA24    10              7.0000000000
     26030       838  AGAL      HO2           -38.9424558503      -10.7838544846       39.3328544681  LPSA24    10              7.0000000000
     26031       838  AGAL      C3            -36.9132771390      -11.9673601452       40.6866263088  LPSA24    10              7.0000000000
     26032       838  AGAL      H3            -36.7361050199      -13.0410424713       40.4419602786  LPSA24    10              7.0000000000
     26033       838  AGAL      O3            -36.3137921339      -11.1732420856       39.6595827790  LPSA24    10              7.0000000000
     26034       838  AGAL      HO3           -35.8641558776      -11.7499352648       39.0296251692  LPSA24    10              7.0000000000
     26035       838  AGAL      C4            -36.3233451860      -11.7069795251       42.0646524381  LPSA24    10              7.0000000000
     26036       838  AGAL      H4            -35.2306061971      -11.9358542069       42.0753294818  LPSA24    10              7.0000000000
     26037       838  AGAL      O4            -36.4974843223      -10.3487636622       42.4522260828  LPSA24    10              7.0000000000
     26038       838  AGAL      HO4           -37.4221779397      -10.2543405535       42.6847844460  LPSA24    10              7.0000000000
     26039       838  AGAL      C6            -36.3249607776      -12.7112700931       44.4277630514  LPSA24    10              7.0000000000
     26040       838  AGAL      H61           -36.9027979529      -13.3786031928       45.0958148007  LPSA24    10              7.0000000000
     26041       838  AGAL      H62           -35.3122491739      -13.1586110098       44.2738271805  LPSA24    10              7.0000000000
     26042       838  AGAL      O6            -36.1266974411      -11.4754516471       45.1203449414  LPSA24    10              7.0000000000
     26043       838  AGAL      HO6           -36.7105267233      -11.4025136113       45.8852586728  LPSA24    10              7.0000000000
     26044       839  BGLC      C1            -34.5277111741      -16.8355733704       44.4793616739  LPSA24    11              6.0000000000
     26045       839  BGLC      H1            -33.4266770409      -16.7752788636       44.6211723174  LPSA24    11              6.0000000000
     26046       839  BGLC      C5            -34.6710186851      -19.1915898109       45.1163291656  LPSA24    11              6.0000000000
     26047       839  BGLC      H5            -33.5803210210      -19.2402347420       45.3628985739  LPSA24    11              6.0000000000
     26048       839  BGLC      O5            -34.9830528018      -18.1695240831       44.1215486081  LPSA24    11              6.0000000000
     26049       839  BGLC      C2            -35.2225454873      -16.4458022569       45.7874205917  LPSA24    11              6.0000000000
     26050       839  BGLC      H2            -36.3290883971      -16.4245323559       45.6404843019  LPSA24    11              6.0000000000
     26051       839  BGLC      O2            -34.8370413469      -15.1385236579       46.2028060262  LPSA24    11              6.0000000000
     26052       839  BGLC      HO2           -35.6106018869      -14.5809366868       46.2831336283  LPSA24    11              6.0000000000
     26053       839  BGLC      C3            -34.9608887278      -17.4300316190       46.9022668030  LPSA24    11              6.0000000000
     26054       839  BGLC      H3            -33.8775730643      -17.4294749968       47.1676303784  LPSA24    11              6.0000000000
     26055       839  BGLC      O3            -35.7810467303      -17.0817066157       48.0436201619  LPSA24    11              6.0000000000
     26056       839  BGLC      C4            -35.4182282853      -18.7890896780       46.4037451007  LPSA24    11              6.0000000000
     26057       839  BGLC      H4            -36.5027300217      -18.7234251533       46.1709725169  LPSA24    11              6.0000000000
     26058       839  BGLC      O4            -35.3119132170      -19.7710585290       47.4110786510  LPSA24    11              6.0000000000
     26059       839  BGLC      HO4           -35.9065431897      -19.5822034564       48.1583224746  LPSA24    11              6.0000000000
     26060       839  BGLC      C6            -35.0330045799      -20.5643117074       44.5160265205  LPSA24    11              6.0000000000
     26061       839  BGLC      H61           -35.1688133255      -21.3477458455       45.2939705442  LPSA24    11              6.0000000000
     26062       839  BGLC      H62           -35.9712973960      -20.4767387953       43.9311425659  LPSA24    11              6.0000000000
     26063       839  BGLC      O6            -34.0553226345      -21.0714868056       43.6061094711  LPSA24    11              6.0000000000
     26064       839  BGLC      HO6           -33.5565379366      -21.7916378091       43.9913720416  LPSA24    11              6.0000000000
     26065       840  BGLCNA    C1            -35.1695691544      -16.8978605376       49.3100881693  LPSA24    12              7.0000000000
     26066       840  BGLCNA    H1            -34.7528384858      -15.8714889345       49.3650330363  LPSA24    12              7.0000000000
     26067       840  BGLCNA    C5            -33.5097111012      -17.5838371931       50.8601535669  LPSA24    12              7.0000000000
     26068       840  BGLCNA    H5            -33.0873125638      -16.5606322342       50.9375999860  LPSA24    12              7.0000000000
     26069       840  BGLCNA    O5            -34.1213254877      -17.8172009373       49.5795581936  LPSA24    12              7.0000000000
     26070       840  BGLCNA    C2            -36.2595187564      -17.0830305585       50.3479173166  LPSA24    12              7.0000000000
     26071       840  BGLCNA    H2            -36.5527439804      -18.1701906109       50.3059954825  LPSA24    12              7.0000000000
     26072       840  BGLCNA    N             -37.3582880249      -16.2109809856       50.0309110602  LPSA24    12              7.0000000000
     26073       840  BGLCNA    HN            -37.1307206239      -15.2543368533       49.9633960649  LPSA24    12              7.0000000000
     26074       840  BGLCNA    C             -38.6020446489      -16.6536036470       49.8875058486  LPSA24    12              7.0000000000
     26075       840  BGLCNA    O             -38.8800014069      -17.8209516236       50.0594871345  LPSA24    12              7.0000000000
     26076       840  BGLCNA    CT            -39.6566382419      -15.6372244197       49.5251869430  LPSA24    12              7.0000000000
     26077       840  BGLCNA    HT1           -40.3095924897      -15.4367165141       50.3968318190  LPSA24    12              7.0000000000
     26078       840  BGLCNA    HT2           -40.2991771802      -16.0380763300       48.7111436551  LPSA24    12              7.0000000000
     26079       840  BGLCNA    HT3           -39.1794597779      -14.6889055756       49.2154657293  LPSA24    12              7.0000000000
     26080       840  BGLCNA    C3            -35.7480667966      -16.8106668932       51.7493685600  LPSA24    12              7.0000000000
     26081       840  BGLCNA    H3            -35.3962334350      -15.7600774379       51.8023922463  LPSA24    12              7.0000000000
     26082       840  BGLCNA    O3            -36.7811148399      -16.9599016854       52.7610696822  LPSA24    12              7.0000000000
     26083       840  BGLCNA    C4            -34.5847222899      -17.7648336552       51.9246760698  LPSA24    12              7.0000000000
     26084       840  BGLCNA    H4            -34.9665107216      -18.7885102942       51.7525464951  LPSA24    12              7.0000000000
     26085       840  BGLCNA    O4            -34.0225970030      -17.6825088322       53.2197583400  LPSA24    12              7.0000000000
     26086       840  BGLCNA    HO4           -33.5581030526      -16.8446099371       53.3174682651  LPSA24    12              7.0000000000
     26087       840  BGLCNA    C6            -32.3503192958      -18.5526926705       50.9532891118  LPSA24    12              7.0000000000
     26088       840  BGLCNA    H61           -31.8259035698      -18.5186129703       51.9297982029  LPSA24    12              7.0000000000
     26089       840  BGLCNA    H62           -32.7622179305      -19.5605881322       50.8544205884  LPSA24    12              7.0000000000
     26090       840  BGLCNA    O6            -31.4081887638      -18.3954813676       49.8945214166  LPSA24    12              7.0000000000
     26091       840  BGLCNA    HO6           -30.7869376955      -17.6964404657       50.0972326403  LPSA24    12              7.0000000000
     26092       841  AGAL      C1            -36.7480449359      -16.0137946282       53.8351140579  LPSA24    13              8.0000000000
     26093       841  AGAL      H1            -35.6901234208      -15.8631244877       54.1555807072  LPSA24    13              8.0000000000
     26094       841  AGAL      C5            -38.8034341606      -14.8992652689       53.2661139832  LPSA24    13              8.0000000000
     26095       841  AGAL      H5            -38.9157368510      -15.7379845756       52.5413218935  LPSA24    13              8.0000000000
     26096       841  AGAL      O5            -37.3757494584      -14.7615923379       53.4694771626  LPSA24    13              8.0000000000
     26097       841  AGAL      C2            -37.4847810323      -16.4686394555       55.1038044648  LPSA24    13              8.0000000000
     26098       841  AGAL      H2            -37.4301956983      -15.5898365869       55.7954044254  LPSA24    13              8.0000000000
     26099       841  AGAL      O2            -36.8106758819      -17.5642117578       55.7497973017  LPSA24    13              8.0000000000
     26100       841  AGAL      C3            -38.9733154633      -16.6709867962       54.8844455205  LPSA24    13              8.0000000000
     26101       841  AGAL      H3            -39.1253829825      -17.3509757174       54.0150008758  LPSA24    13              8.0000000000
     26102       841  AGAL      O3            -39.6295462210      -17.2645267926       55.9925127252  LPSA24    13              8.0000000000
     26103       841  AGAL      HO3           -40.2896605756      -17.9140401842       55.7274416177  LPSA24    13              8.0000000000
     26104       841  AGAL      C4            -39.5616102205      -15.3397555458       54.5132239248  LPSA24    13              8.0000000000
     26105       841  AGAL      H4            -40.6214935160      -15.5006377814       54.2249545633  LPSA24    13              8.0000000000
     26106       841  AGAL      O4            -39.5741226556      -14.3925060992       55.5867651066  LPSA24    13              8.0000000000
     26107       841  AGAL      HO4           -38.7060038441      -14.3405275249       56.0070764429  LPSA24    13              8.0000000000
     26108       841  AGAL      C6            -39.4732540656      -13.7476822040       52.5512675304  LPSA24    13              8.0000000000
     26109       841  AGAL      H61           -38.9199260915      -13.5320666543       51.6099251411  LPSA24    13              8.0000000000
     26110       841  AGAL      H62           -40.5202796325      -14.0504909862       52.3076590542  LPSA24    13              8.0000000000
     26111       841  AGAL      O6            -39.5429627986      -12.5638197892       53.3283239476  LPSA24    13              8.0000000000
     26112       841  AGAL      HO6           -40.2469850637      -12.6421569800       53.9760521925  LPSA24    13              8.0000000000
     26113       842  ARHM      C1            -36.1996303999      -17.2910770367       56.9999239123  LPSA24    14              9.0000000000
     26114       842  ARHM      H1            -35.9078872491      -16.2235665278       57.0321384854  LPSA24    14              9.0000000000
     26115       842  ARHM      C5            -35.2822854814      -19.4708330457       57.1776183092  LPSA24    14              9.0000000000
     26116       842  ARHM      H5            -35.7700131963      -19.7026835140       56.2046401934  LPSA24    14              9.0000000000
     26117       842  ARHM      O5            -35.0065134052      -18.0624194278       57.1941828634  LPSA24    14              9.0000000000
     26118       842  ARHM      C2            -37.1896063184      -17.6023330232       58.1096190276  LPSA24    14              9.0000000000
     26119       842  ARHM      H2            -38.0996158987      -17.0007996394       57.9091032552  LPSA24    14              9.0000000000
     26120       842  ARHM      O2            -36.7575820233      -17.3707490016       59.4666157599  LPSA24    14              9.0000000000
     26121       842  ARHM      C3            -37.5160993965      -19.0708431826       58.0620151376  LPSA24    14              9.0000000000
     26122       842  ARHM      H3            -37.8321998079      -19.3355803600       57.0235195978  LPSA24    14              9.0000000000
     26123       842  ARHM      O3            -38.6133189181      -19.4113722252       58.9154101830  LPSA24    14              9.0000000000
     26124       842  ARHM      HO3           -38.3206187493      -19.4113221617       59.8243354197  LPSA24    14              9.0000000000
     26125       842  ARHM      C4            -36.2347933714      -19.8475758818       58.3232307302  LPSA24    14              9.0000000000
     26126       842  ARHM      H4            -35.7503900531      -19.5225292942       59.2762447553  LPSA24    14              9.0000000000
     26127       842  ARHM      O4            -36.4727510723      -21.2585568747       58.4064851530  LPSA24    14              9.0000000000
     26128       842  ARHM      HO4           -36.3957157903      -21.6086325252       59.3063115478  LPSA24    14              9.0000000000
     26129       842  ARHM      C6            -33.9260537702      -20.1907488050       57.2503247330  LPSA24    14              9.0000000000
     26130       842  ARHM      H61           -33.1739707666      -19.7315548596       56.5766281938  LPSA24    14              9.0000000000
     26131       842  ARHM      H62           -33.5830512016      -20.1581640448       58.3012964901  LPSA24    14              9.0000000000
     26132       842  ARHM      H63           -33.9983572083      -21.2534007284       56.9521772417  LPSA24    14              9.0000000000
     26133       843  ARHM      C1            -36.2312487664      -16.0997281269       59.7463754446  LPSA24    15             10.0000000000
     26134       843  ARHM      H1            -36.6549897043      -15.3472040182       59.0397571964  LPSA24    15             10.0000000000
     26135       843  ARHM      C5            -34.0946907914      -16.8725852010       60.6391273414  LPSA24    15             10.0000000000
     26136       843  ARHM      H5            -34.2876917072      -17.9518436292       60.4387181117  LPSA24    15             10.0000000000
     26137       843  ARHM      O5            -34.7850150978      -16.0461600683       59.6846048298  LPSA24    15             10.0000000000
     26138       843  ARHM      C2            -36.6774915491      -15.7175326446       61.1401987819  LPSA24    15             10.0000000000
     26139       843  ARHM      H2            -37.7842724495      -15.8277137479       61.2057042019  LPSA24    15             10.0000000000
     26140       843  ARHM      O2            -36.3307815986      -14.3282513148       61.2977888695  LPSA24    15             10.0000000000
     26141       843  ARHM      C3            -36.0461646783      -16.6528731761       62.1352797070  LPSA24    15             10.0000000000
     26142       843  ARHM      H3            -36.2744004314      -17.7017976500       61.8380448817  LPSA24    15             10.0000000000
     26143       843  ARHM      O3            -36.6594102576      -16.3960246589       63.3996743189  LPSA24    15             10.0000000000
     26144       843  ARHM      C4            -34.5441240876      -16.4879192082       62.0354379609  LPSA24    15             10.0000000000
     26145       843  ARHM      H4            -34.3583231935      -15.4129345739       62.1769229151  LPSA24    15             10.0000000000
     26146       843  ARHM      O4            -33.7733458800      -17.1945118676       63.0014809767  LPSA24    15             10.0000000000
     26147       843  ARHM      HO4           -32.8822547609      -16.8234668863       62.9666334734  LPSA24    15             10.0000000000
     26148       843  ARHM      C6            -32.5730426977      -16.6508622670       60.4579574111  LPSA24    15             10.0000000000
     26149       843  ARHM      H61           -31.9682670993      -17.3685438966       61.0483843001  LPSA24    15             10.0000000000
     26150       843  ARHM      H62           -32.3292571238      -16.7171054897       59.3763260929  LPSA24    15             10.0000000000
     26151       843  ARHM      H63           -32.2890036721      -15.6489559029       60.8212803373  LPSA24    15             10.0000000000
     26152       844  BMANNA    C1            -36.6260104629      -13.6525749136       62.5030995227  LPSA24    16             11.0000000000
     26153       844  BMANNA    H1            -35.9701911332      -14.0527029228       63.3102095608  LPSA24    16             11.0000000000
     26154       844  BMANNA    C5            -38.2405554233      -13.1423759158       64.1952186410  LPSA24    16             11.0000000000
     26155       844  BMANNA    H5            -37.5271875763      -13.5627536350       64.9520926748  LPSA24    16             11.0000000000
     26156       844  BMANNA    O5            -37.9963362181      -13.7768477137       62.9175566219  LPSA24    16             11.0000000000
     26157       844  BMANNA    C2            -36.3090831647      -12.1696619426       62.3047253411  LPSA24    16             11.0000000000
     26158       844  BMANNA    H2            -35.2263826749      -12.1174984044       62.0268732599  LPSA24    16             11.0000000000
     26159       844  BMANNA    N             -37.0699757144      -11.5077585536       61.2518252814  LPSA24    16             11.0000000000
     26160       844  BMANNA    HN            -37.8969736101      -11.0582870852       61.5516329918  LPSA24    16             11.0000000000
     26161       844  BMANNA    C             -36.6876059549      -11.3664942622       59.9748957448  LPSA24    16             11.0000000000
     26162       844  BMANNA    O             -35.6553395306      -11.8302968207       59.5125507643  LPSA24    16             11.0000000000
     26163       844  BMANNA    CT            -37.6687707472      -10.6546211715       59.0781753770  LPSA24    16             11.0000000000
     26164       844  BMANNA    HT1           -37.3196601867       -9.6289764206       58.8565660825  LPSA24    16             11.0000000000
     26165       844  BMANNA    HT2           -38.6735371240      -10.6112899557       59.5413382151  LPSA24    16             11.0000000000
     26166       844  BMANNA    HT3           -37.7418787150      -11.2046096558       58.1174142084  LPSA24    16             11.0000000000
     26167       844  BMANNA    C3            -36.5301352836      -11.4694261669       63.6420722014  LPSA24    16             11.0000000000
     26168       844  BMANNA    H3            -35.8628241063      -11.9590906019       64.3890531255  LPSA24    16             11.0000000000
     26169       844  BMANNA    O3            -36.1638594786      -10.0943810194       63.5969575342  LPSA24    16             11.0000000000
     26170       844  BMANNA    HO3           -35.5051386103       -9.9193160229       64.2693094474  LPSA24    16             11.0000000000
     26171       844  BMANNA    C4            -37.9724088077      -11.6546025128       64.1046582417  LPSA24    16             11.0000000000
     26172       844  BMANNA    H4            -38.6652849363      -11.1962949445       63.3635026337  LPSA24    16             11.0000000000
     26173       844  BMANNA    O4            -38.2784418865      -11.0310991304       65.3527496557  LPSA24    16             11.0000000000
     26174       844  BMANNA    HO4           -39.2263720105      -10.8887560607       65.4481954858  LPSA24    16             11.0000000000
     26175       844  BMANNA    C6            -39.6288427818      -13.4036411815       64.7545719761  LPSA24    16             11.0000000000
     26176       844  BMANNA    H61           -39.5602796664      -13.3612466611       65.8679826599  LPSA24    16             11.0000000000
     26177       844  BMANNA    H62           -40.3327565768      -12.6113919898       64.4245807247  LPSA24    16             11.0000000000
     26178       844  BMANNA    O6            -40.1933186622      -14.6512112081       64.3752627485  LPSA24    16             11.0000000000
     26179       844  BMANNA    HO6           -40.9888094419      -14.4868333612       63.8444325139  LPSA24    16             11.0000000000
     26180       845  BGLCNA    C1            -36.8958760237      -17.5553854017       64.1441740881  LPSA24    17             11.0000000000
     26181       845  BGLCNA    H1            -36.0623785226      -18.2668873678       63.9807229584  LPSA24    17             11.0000000000
     26182       845  BGLCNA    C5            -38.3889793219      -19.3916468509       64.5651334995  LPSA24    17             11.0000000000
     26183       845  BGLCNA    H5            -37.5868358298      -20.1433162985       64.3663128707  LPSA24    17             11.0000000000
     26184       845  BGLCNA    O5            -38.1247828663      -18.2070604038       63.7842888813  LPSA24    17             11.0000000000
     26185       845  BGLCNA    C2            -36.9579626044      -17.0711188478       65.5792126462  LPSA24    17             11.0000000000
     26186       845  BGLCNA    H2            -37.8273174444      -16.3864215992       65.7477563115  LPSA24    17             11.0000000000
     26187       845  BGLCNA    N             -35.7679352217      -16.3069808468       65.8853066011  LPSA24    17             11.0000000000
     26188       845  BGLCNA    HN            -34.9584878434      -16.5575806481       65.3719421400  LPSA24    17             11.0000000000
     26189       845  BGLCNA    C             -35.6397510916      -15.3624830655       66.8185998778  LPSA24    17             11.0000000000
     26190       845  BGLCNA    O             -36.5587803271      -14.9004182783       67.4847523868  LPSA24    17             11.0000000000
     26191       845  BGLCNA    CT            -34.2136701850      -14.9224457605       67.0310162774  LPSA24    17             11.0000000000
     26192       845  BGLCNA    HT1           -33.9883891094      -14.0093866873       66.4631137941  LPSA24    17             11.0000000000
     26193       845  BGLCNA    HT2           -33.5303449571      -15.7201155670       66.6853092843  LPSA24    17             11.0000000000
     26194       845  BGLCNA    HT3           -34.0311252270      -14.7658678999       68.1164143557  LPSA24    17             11.0000000000
     26195       845  BGLCNA    C3            -37.1302785873      -18.3089120830       66.4329179588  LPSA24    17             11.0000000000
     26196       845  BGLCNA    H3            -36.3210604558      -18.9978152565       66.0976009424  LPSA24    17             11.0000000000
     26197       845  BGLCNA    O3            -36.9405224181      -17.9992965358       67.8382494254  LPSA24    17             11.0000000000
     26198       845  BGLCNA    C4            -38.4501192358      -18.9631825097       66.0388195630  LPSA24    17             11.0000000000
     26199       845  BGLCNA    H4            -39.2405686276      -18.1756621254       66.0929059217  LPSA24    17             11.0000000000
     26200       845  BGLCNA    O4            -38.8131634451      -20.0272152447       66.9258219612  LPSA24    17             11.0000000000
     26201       845  BGLCNA    HO4           -39.6604549919      -20.4277317385       66.6871480260  LPSA24    17             11.0000000000
     26202       845  BGLCNA    C6            -39.6474196735      -20.1008571820       64.1154394640  LPSA24    17             11.0000000000
     26203       845  BGLCNA    H61           -39.5455028501      -21.1331612213       64.2344415166  LPSA24    17             11.0000000000
     26204       845  BGLCNA    H62           -40.4629040570      -19.9606341438       64.8659131389  LPSA24    17             11.0000000000
     26205       845  BGLCNA    O6            -40.0673879257      -19.8477468275       62.7644795786  LPSA24    17             11.0000000000
     26206       845  BGLCNA    HO6           -39.3572904157      -19.9357485962       62.1229840489  LPSA24    17             11.0000000000
     26207       846  AGAL      C1            -36.2940886646      -18.9852595041       68.6244170645  LPSA24    18             12.0000000000
     26208       846  AGAL      H1            -37.0210029188      -19.8043101291       68.8149461275  LPSA24    18             12.0000000000
     26209       846  AGAL      C5            -34.0805400203      -18.6014393939       67.8502224805  LPSA24    18             12.0000000000
     26210       846  AGAL      H5            -34.4897969799      -17.6839134450       67.4038401576  LPSA24    18             12.0000000000
     26211       846  AGAL      O5            -35.1528271520      -19.5506024320       67.9820762919  LPSA24    18             12.0000000000
     26212       846  AGAL      C2            -35.7923226073      -18.4833394801       69.9683484578  LPSA24    18             12.0000000000
     26213       846  AGAL      H2            -35.2997444842      -19.3898705965       70.3959502279  LPSA24    18             12.0000000000
     26214       846  AGAL      O2            -36.8522094402      -18.1637668939       70.8651828524  LPSA24    18             12.0000000000
     26215       846  AGAL      C3            -34.6909596443      -17.4294974250       69.8401087078  LPSA24    18             12.0000000000
     26216       846  AGAL      H3            -35.0544304358      -16.6209801804       69.1688523569  LPSA24    18             12.0000000000
     26217       846  AGAL      O3            -34.3404524114      -16.8093845422       71.0754449639  LPSA24    18             12.0000000000
     26218       846  AGAL      HO3           -34.2905423827      -15.8529758605       70.9688782212  LPSA24    18             12.0000000000
     26219       846  AGAL      C4            -33.5085235750      -18.0917050995       69.1600523648  LPSA24    18             12.0000000000
     26220       846  AGAL      H4            -32.6991568243      -17.3569255742       68.9375433204  LPSA24    18             12.0000000000
     26221       846  AGAL      O4            -32.9397261722      -19.1241581043       69.9395757451  LPSA24    18             12.0000000000
     26222       846  AGAL      HO4           -32.4702035073      -18.7014602510       70.6758937511  LPSA24    18             12.0000000000
     26223       846  AGAL      C6            -33.1595941529      -19.0521323332       66.7713964455  LPSA24    18             12.0000000000
     26224       846  AGAL      H61           -33.7506002993      -19.0924083107       65.8293097552  LPSA24    18             12.0000000000
     26225       846  AGAL      H62           -32.3251458732      -18.3223732686       66.6395712868  LPSA24    18             12.0000000000
     26226       846  AGAL      O6            -32.6888231174      -20.3663824374       66.9757718276  LPSA24    18             12.0000000000
     26227       846  AGAL      HO6           -33.0858687642      -20.7879407270       67.7434641679  LPSA24    18             12.0000000000
     26228       847  ARHM      C1            -36.5483455560      -18.6326523953       72.1564610904  LPSA24    19             13.0000000000
     26229       847  ARHM      H1            -35.4551383265      -18.6584358393       72.3404684264  LPSA24    19             13.0000000000
     26230       847  ARHM      C5            -38.3937242645      -20.1097980184       72.2638437819  LPSA24    19             13.0000000000
     26231       847  ARHM      H5            -38.6130977623      -19.7598553748       71.2406715818  LPSA24    19             13.0000000000
     26232       847  ARHM      O5            -36.9937589428      -19.9676343883       72.4085447301  LPSA24    19             13.0000000000
     26233       847  ARHM      C2            -37.2132130785      -17.6948464566       73.0985580585  LPSA24    19             13.0000000000
     26234       847  ARHM      H2            -36.9424054312      -16.6351346285       72.8541731083  LPSA24    19             13.0000000000
     26235       847  ARHM      O2            -36.8002287155      -17.9558773587       74.4463833756  LPSA24    19             13.0000000000
     26236       847  ARHM      C3            -38.6945857441      -17.7953603329       72.9684658057  LPSA24    19             13.0000000000
     26237       847  ARHM      H3            -39.0043815480      -17.5811675966       71.9165074072  LPSA24    19             13.0000000000
     26238       847  ARHM      O3            -39.2047533608      -16.7588189357       73.7994435874  LPSA24    19             13.0000000000
     26239       847  ARHM      HO3           -39.0300788877      -17.0152137873       74.7112254104  LPSA24    19             13.0000000000
     26240       847  ARHM      C4            -39.1165192055      -19.2434099893       73.2562822127  LPSA24    19             13.0000000000
     26241       847  ARHM      H4            -38.8457947409      -19.4984152402       74.3042525144  LPSA24    19             13.0000000000
     26242       847  ARHM      O4            -40.4786730402      -19.5629451152       73.0823595884  LPSA24    19             13.0000000000
     26243       847  ARHM      HO4           -40.7824689875      -19.2567436074       72.2311648699  LPSA24    19             13.0000000000
     26244       847  ARHM      C6            -38.7991760221      -21.5926409140       72.2785489633  LPSA24    19             13.0000000000
     26245       847  ARHM      H61           -38.2130709487      -22.0832813295       71.4802114991  LPSA24    19             13.0000000000
     26246       847  ARHM      H62           -38.5930683163      -22.0744776918       73.2538522129  LPSA24    19             13.0000000000
     26247       847  ARHM      H63           -39.8840219500      -21.7233907596       72.0669301255  LPSA24    19             13.0000000000
     26248       848  ARHM      C1            -35.4904441810      -17.5176987171       74.7016433007  LPSA24    20             14.0000000000
     26249       848  ARHM      H1            -35.1149920039      -16.8785099295       73.8707557227  LPSA24    20             14.0000000000
     26250       848  ARHM      C5            -34.8317692241      -19.4126553624       75.9613818074  LPSA24    20             14.0000000000
     26251       848  ARHM      H5            -35.8598882840      -19.8235081002       75.8161777456  LPSA24    20             14.0000000000
     26252       848  ARHM      O5            -34.5300287411      -18.5751035532       74.8451389439  LPSA24    20             14.0000000000
     26253       848  ARHM      C2            -35.5540584218      -16.6826619986       75.9489652501  LPSA24    20             14.0000000000
     26254       848  ARHM      H2            -36.3827381893      -15.9316419604       75.8471898516  LPSA24    20             14.0000000000
     26255       848  ARHM      O2            -34.3032415485      -16.0250393873       76.1558194639  LPSA24    20             14.0000000000
     26256       848  ARHM      C3            -35.8704297943      -17.5265038953       77.1293260153  LPSA24    20             14.0000000000
     26257       848  ARHM      H3            -36.8551503266      -18.0287134530       76.9626073045  LPSA24    20             14.0000000000
     26258       848  ARHM      O3            -35.9431254414      -16.6620364092       78.2655856860  LPSA24    20             14.0000000000
     26259       848  ARHM      C4            -34.8077249626      -18.5840813984       77.2411869329  LPSA24    20             14.0000000000
     26260       848  ARHM      H4            -33.7816461605      -18.1545376985       77.3252863207  LPSA24    20             14.0000000000
     26261       848  ARHM      O4            -35.0394808647      -19.3898309693       78.3816667884  LPSA24    20             14.0000000000
     26262       848  ARHM      HO4           -34.7181755926      -20.2516410700       78.1218587757  LPSA24    20             14.0000000000
     26263       848  ARHM      C6            -33.8455736828      -20.5994785230       75.9576197293  LPSA24    20             14.0000000000
     26264       848  ARHM      H61           -32.7884790980      -20.2868124088       76.0852475111  LPSA24    20             14.0000000000
     26265       848  ARHM      H62           -34.1206607147      -21.3027010960       76.7676185653  LPSA24    20             14.0000000000
     26266       848  ARHM      H63           -33.9152135473      -21.1448643830       74.9923117018  LPSA24    20             14.0000000000
     26267       849  BMANNA    C1            -34.2387137379      -14.8464803119       75.4166772056  LPSA24    21             15.0000000000
     26268       849  BMANNA    H1            -35.1184196029      -14.8012039060       74.7277565628  LPSA24    21             15.0000000000
     26269       849  BMANNA    C5            -33.2410693013      -13.6531950463       73.6529286889  LPSA24    21             15.0000000000
     26270       849  BMANNA    H5            -34.2070280647      -13.6763265843       73.0829099268  LPSA24    21             15.0000000000
     26271       849  BMANNA    O5            -33.1329835546      -14.8067324644       74.5180449548  LPSA24    21             15.0000000000
     26272       849  BMANNA    C2            -34.2554902902      -13.6472949358       76.3518018564  LPSA24    21             15.0000000000
     26273       849  BMANNA    H2            -35.2112013270      -13.7568746855       76.9293766540  LPSA24    21             15.0000000000
     26274       849  BMANNA    N             -33.1381759020      -13.5703200283       77.2906652919  LPSA24    21             15.0000000000
     26275       849  BMANNA    HN            -32.2591718290      -13.8217390780       76.9196824746  LPSA24    21             15.0000000000
     26276       849  BMANNA    C             -33.2268383651      -13.1767578530       78.5773280969  LPSA24    21             15.0000000000
     26277       849  BMANNA    O             -34.2191004590      -12.6174805529       79.0045934961  LPSA24    21             15.0000000000
     26278       849  BMANNA    CT            -32.0360587863      -13.4177573783       79.4746932038  LPSA24    21             15.0000000000
     26279       849  BMANNA    HT1           -31.2571588192      -12.6521541984       79.2849275567  LPSA24    21             15.0000000000
     26280       849  BMANNA    HT2           -31.6339553472      -14.4376356193       79.3156135076  LPSA24    21             15.0000000000
     26281       849  BMANNA    HT3           -32.3192634910      -13.3469131081       80.5462354640  LPSA24    21             15.0000000000
     26282       849  BMANNA    C3            -34.3610705795      -12.4423613165       75.4611118542  LPSA24    21             15.0000000000
     26283       849  BMANNA    H3            -35.3145234064      -12.5942876746       74.9238096413  LPSA24    21             15.0000000000
     26284       849  BMANNA    O3            -34.4676135502      -11.2406851762       76.1973423952  LPSA24    21             15.0000000000
     26285       849  BMANNA    HO3           -33.7060610173      -11.1528594609       76.7913638532  LPSA24    21             15.0000000000
     26286       849  BMANNA    C4            -33.2286887733      -12.3849360775       74.4604642010  LPSA24    21             15.0000000000
     26287       849  BMANNA    H4            -32.2772463949      -12.3089366698       75.0181925382  LPSA24    21             15.0000000000
     26288       849  BMANNA    O4            -33.2902968020      -11.2833792120       73.5542147966  LPSA24    21             15.0000000000
     26289       849  BMANNA    HO4           -32.5929201111      -10.6496480347       73.7617164248  LPSA24    21             15.0000000000
     26290       849  BMANNA    C6            -32.1522722684      -13.6383476027       72.6192649917  LPSA24    21             15.0000000000
     26291       849  BMANNA    H61           -32.4189148116      -12.9220484690       71.8071039597  LPSA24    21             15.0000000000
     26292       849  BMANNA    H62           -31.2100150065      -13.2804290644       73.0746664188  LPSA24    21             15.0000000000
     26293       849  BMANNA    O6            -31.9470037719      -14.9287339843       72.0690123205  LPSA24    21             15.0000000000
     26294       849  BMANNA    HO6           -31.6519440438      -15.5269538354       72.7710415504  LPSA24    21             15.0000000000
     26295       850  BGLCNA    C1            -36.8882747982      -17.0160235775       79.2369422817  LPSA24    22             15.0000000000
     26296       850  BGLCNA    H1            -37.1100799532      -18.1055596644       79.2329958876  LPSA24    22             15.0000000000
     26297       850  BGLCNA    C5            -39.0197486819      -16.6399545576       80.1096835482  LPSA24    22             15.0000000000
     26298       850  BGLCNA    H5            -39.2033847039      -17.7424110793       80.1169430539  LPSA24    22             15.0000000000
     26299       850  BGLCNA    O5            -38.1070817394      -16.3118458176       79.0571325470  LPSA24    22             15.0000000000
     26300       850  BGLCNA    C2            -36.2660536869      -16.6250232317       80.5455213942  LPSA24    22             15.0000000000
     26301       850  BGLCNA    H2            -36.0695219205      -15.5180245473       80.4982174320  LPSA24    22             15.0000000000
     26302       850  BGLCNA    N             -35.0258100161      -17.3412609289       80.7212459014  LPSA24    22             15.0000000000
     26303       850  BGLCNA    HN            -35.0068102770      -18.2693441045       80.3648562219  LPSA24    22             15.0000000000
     26304       850  BGLCNA    C             -33.9535540075      -16.8395762332       81.3389242700  LPSA24    22             15.0000000000
     26305       850  BGLCNA    O             -33.8866162822      -15.7263459958       81.8457435360  LPSA24    22             15.0000000000
     26306       850  BGLCNA    CT            -32.7720141890      -17.7703091954       81.3949648760  LPSA24    22             15.0000000000
     26307       850  BGLCNA    HT1           -32.1224363443      -17.4958716207       80.5369305106  LPSA24    22             15.0000000000
     26308       850  BGLCNA    HT2           -33.1135793871      -18.8167404121       81.2748045780  LPSA24    22             15.0000000000
     26309       850  BGLCNA    HT3           -32.2320578030      -17.6772517925       82.3635625894  LPSA24    22             15.0000000000
     26310       850  BGLCNA    C3            -37.2064679809      -16.9325833374       81.6851709482  LPSA24    22             15.0000000000
     26311       850  BGLCNA    H3            -37.4563592216      -18.0207097411       81.6539294217  LPSA24    22             15.0000000000
     26312       850  BGLCNA    O3            -36.5119679184      -16.6201177338       82.9014413770  LPSA24    22             15.0000000000
     26313       850  BGLCNA    C4            -38.4783347753      -16.1883413254       81.4605655657  LPSA24    22             15.0000000000
     26314       850  BGLCNA    H4            -38.2387139063      -15.1113141612       81.3657186597  LPSA24    22             15.0000000000
     26315       850  BGLCNA    O4            -39.4088955403      -16.3389117314       82.5375721060  LPSA24    22             15.0000000000
     26316       850  BGLCNA    HO4           -39.8956511490      -15.5223919684       82.6893076448  LPSA24    22             15.0000000000
     26317       850  BGLCNA    C6            -40.2662302712      -15.9676976075       79.7725430182  LPSA24    22             15.0000000000
     26318       850  BGLCNA    H61           -40.8690209593      -15.9500685803       80.6987117043  LPSA24    22             15.0000000000
     26319       850  BGLCNA    H62           -40.0607341564      -14.9255358644       79.4545584751  LPSA24    22             15.0000000000
     26320       850  BGLCNA    O6            -41.0282271505      -16.6908962580       78.8111295106  LPSA24    22             15.0000000000
     26321       850  BGLCNA    HO6           -40.6100196585      -16.7590774748       77.9448725271  LPSA24    22             15.0000000000
     26322       851  AGAL      C1            -36.9472159518      -17.2043088437       84.1010237551  LPSA24    23             16.0000000000
     26323       851  AGAL      H1            -37.8517507371      -16.6691892051       84.4543626684  LPSA24    23             16.0000000000
     26324       851  AGAL      C5            -36.1235288433      -19.4255016880       83.7239756982  LPSA24    23             16.0000000000
     26325       851  AGAL      H5            -35.6153906163      -19.0351826818       82.8143635157  LPSA24    23             16.0000000000
     26326       851  AGAL      O5            -37.2749187921      -18.5976098410       83.9892027547  LPSA24    23             16.0000000000
     26327       851  AGAL      C2            -35.9159775461      -17.0202233872       85.1870541775  LPSA24    23             16.0000000000
     26328       851  AGAL      H2            -36.3588471608      -17.4612200827       86.1062033283  LPSA24    23             16.0000000000
     26329       851  AGAL      O2            -35.6489873764      -15.6218308746       85.4288457892  LPSA24    23             16.0000000000
     26330       851  AGAL      C3            -34.6844032189      -17.8640929620       84.8798641217  LPSA24    23             16.0000000000
     26331       851  AGAL      H3            -34.3184051478      -17.6013470302       83.8635956673  LPSA24    23             16.0000000000
     26332       851  AGAL      O3            -33.5910430270      -17.6113084479       85.7494996364  LPSA24    23             16.0000000000
     26333       851  AGAL      HO3           -33.9260903162      -17.4945236854       86.6382773606  LPSA24    23             16.0000000000
     26334       851  AGAL      C4            -35.0918783736      -19.3299063876       84.8553840062  LPSA24    23             16.0000000000
     26335       851  AGAL      H4            -34.2194881767      -19.9780957206       84.6166159556  LPSA24    23             16.0000000000
     26336       851  AGAL      O4            -35.6257431562      -19.7892405360       86.0960393052  LPSA24    23             16.0000000000
     26337       851  AGAL      HO4           -36.2606273282      -20.4845115677       85.8327827381  LPSA24    23             16.0000000000
     26338       851  AGAL      C6            -36.6079356528      -20.8123833991       83.3368290452  LPSA24    23             16.0000000000
     26339       851  AGAL      H61           -37.4183113161      -20.7043785095       82.5784538444  LPSA24    23             16.0000000000
     26340       851  AGAL      H62           -35.7916205454      -21.3818486468       82.8294630597  LPSA24    23             16.0000000000
     26341       851  AGAL      O6            -37.1185044100      -21.5519028160       84.4521933186  LPSA24    23             16.0000000000
     26342       851  AGAL      HO6           -37.4645771780      -22.3963984253       84.1472835814  LPSA24    23             16.0000000000
     26343       852  ARHM      C1            -36.5065962140      -14.8895596388       86.2874912266  LPSA24    24             17.0000000000
     26344       852  ARHM      H1            -37.4616504432      -15.4499827295       86.3938109795  LPSA24    24             17.0000000000
     26345       852  ARHM      C5            -35.7341012531      -12.7202850575       85.6456496331  LPSA24    24             17.0000000000
     26346       852  ARHM      H5            -35.0655071981      -13.2406068529       84.9403755401  LPSA24    24             17.0000000000
     26347       852  ARHM      O5            -36.8800649130      -13.5785527964       85.7950451784  LPSA24    24             17.0000000000
     26348       852  ARHM      C2            -35.7833548765      -14.7809174711       87.6106938237  LPSA24    24             17.0000000000
     26349       852  ARHM      H2            -35.4438138480      -15.7956914513       87.9335190329  LPSA24    24             17.0000000000
     26350       852  ARHM      O2            -36.6204418431      -14.1753825211       88.6072689286  LPSA24    24             17.0000000000
     26351       852  ARHM      C3            -34.5534947605      -13.9271479434       87.4302152592  LPSA24    24             17.0000000000
     26352       852  ARHM      H3            -33.9382819114      -14.4154245452       86.6400808284  LPSA24    24             17.0000000000
     26353       852  ARHM      O3            -33.7368223341      -13.8868620005       88.5968148028  LPSA24    24             17.0000000000
     26354       852  ARHM      HO3           -34.0524081405      -13.1754285089       89.1579205805  LPSA24    24             17.0000000000
     26355       852  ARHM      C4            -34.9865152850      -12.5486875315       86.9603846932  LPSA24    24             17.0000000000
     26356       852  ARHM      H4            -35.6979942927      -12.1162326131       87.7075496016  LPSA24    24             17.0000000000
     26357       852  ARHM      O4            -33.8869897166      -11.6554680675       86.8093796413  LPSA24    24             17.0000000000
     26358       852  ARHM      HO4           -34.1058935035      -10.7488348910       87.0223730117  LPSA24    24             17.0000000000
     26359       852  ARHM      C6            -36.1200024490      -11.3943131577       84.9509924464  LPSA24    24             17.0000000000
     26360       852  ARHM      H61           -35.2262499234      -10.9871039395       84.4183770672  LPSA24    24             17.0000000000
     26361       852  ARHM      H62           -36.9105806905      -11.5889732933       84.2024782337  LPSA24    24             17.0000000000
     26362       852  ARHM      H63           -36.4941260181      -10.6533024895       85.6871982273  LPSA24    24             17.0000000000
     26363       853  ARHM      C1            -37.5838983165      -15.0282314268       89.1494666125  LPSA24    25             18.0000000000
     26364       853  ARHM      H1            -37.7251958093      -15.8963248525       88.4689708479  LPSA24    25             18.0000000000
     26365       853  ARHM      C5            -38.9212614792      -13.3558701110       90.2046300757  LPSA24    25             18.0000000000
     26366       853  ARHM      H5            -38.2072948567      -12.6317944317       89.8083495448  LPSA24    25             18.0000000000
     26367       853  ARHM      O5            -38.8837696334      -14.4366465001       89.2520168066  LPSA24    25             18.0000000000
     26368       853  ARHM      C2            -37.0931537397      -15.5382673077       90.4681071310  LPSA24    25             18.0000000000
     26369       853  ARHM      H2            -36.0311243548      -15.8792913419       90.3658559072  LPSA24    25             18.0000000000
     26370       853  ARHM      O2            -37.9114078671      -16.6335870741       90.8976653583  LPSA24    25             18.0000000000
     26371       853  ARHM      C3            -37.0997713430      -14.4032158917       91.4573339929  LPSA24    25             18.0000000000
     26372       853  ARHM      H3            -36.4333624665      -13.5838468152       91.0849962503  LPSA24    25             18.0000000000
     26373       853  ARHM      O3            -36.6455254856      -14.9169750360       92.7078278417  LPSA24    25             18.0000000000
     26374       853  ARHM      C4            -38.4767535481      -13.8291564166       91.5878218418  LPSA24    25             18.0000000000
     26375       853  ARHM      H4            -39.2062197830      -14.6133062059       91.9033753231  LPSA24    25             18.0000000000
     26376       853  ARHM      O4            -38.4802207911      -12.7995390470       92.5855220390  LPSA24    25             18.0000000000
     26377       853  ARHM      HO4           -39.3293211365      -12.8285568419       93.0315937975  LPSA24    25             18.0000000000
     26378       853  ARHM      C6            -40.2911425781      -12.6435298543       90.2291054619  LPSA24    25             18.0000000000
     26379       853  ARHM      H61           -40.6281622524      -12.4281027564       89.1919996777  LPSA24    25             18.0000000000
     26380       853  ARHM      H62           -41.0487581119      -13.2938738176       90.7085180669  LPSA24    25             18.0000000000
     26381       853  ARHM      H63           -40.2517698323      -11.7022494738       90.8083107044  LPSA24    25             18.0000000000
     26382       854  BMANNA    C1            -37.5973822730      -17.8503342344       90.2687257865  LPSA24    26             19.0000000000
     26383       854  BMANNA    H1            -36.5709637574      -17.8514753827       89.8474189266  LPSA24    26             19.0000000000
     26384       854  BMANNA    C5            -38.1191215916      -19.4719470308       88.6173090459  LPSA24    26             19.0000000000
     26385       854  BMANNA    H5            -37.0940305523      -19.3434582911       88.2029200150  LPSA24    26             19.0000000000
     26386       854  BMANNA    O5            -38.5117689782      -18.2224967519       89.2305280158  LPSA24    26             19.0000000000
     26387       854  BMANNA    C2            -37.6644989706      -18.8852865119       91.3296197334  LPSA24    26             19.0000000000
     26388       854  BMANNA    H2            -36.9107433234      -18.5857965938       92.1080690664  LPSA24    26             19.0000000000
     26389       854  BMANNA    N             -38.9786558430      -18.9394712123       91.9061676274  LPSA24    26             19.0000000000
     26390       854  BMANNA    HN            -39.7465241767      -19.0775985918       91.2850606765  LPSA24    26             19.0000000000
     26391       854  BMANNA    C             -39.1415718176      -18.9693061092       93.2205477277  LPSA24    26             19.0000000000
     26392       854  BMANNA    O             -38.3330883887      -18.5897618435       94.0407344132  LPSA24    26             19.0000000000
     26393       854  BMANNA    CT            -40.4398294715      -19.4838290272       93.6272389297  LPSA24    26             19.0000000000
     26394       854  BMANNA    HT1           -41.0186760474      -19.4309464067       92.6791782766  LPSA24    26             19.0000000000
     26395       854  BMANNA    HT2           -40.8307239232      -18.9168631870       94.4947102640  LPSA24    26             19.0000000000
     26396       854  BMANNA    HT3           -40.5541684949      -20.5242419835       93.9124227505  LPSA24    26             19.0000000000
     26397       854  BMANNA    C3            -37.2215224788      -20.2040179699       90.7467543606  LPSA24    26             19.0000000000
     26398       854  BMANNA    H3            -36.1885434643      -20.0849928613       90.3396858598  LPSA24    26             19.0000000000
     26399       854  BMANNA    O3            -37.1672311187      -21.1994547625       91.7480913037  LPSA24    26             19.0000000000
     26400       854  BMANNA    HO3           -36.3694442378      -21.0148041011       92.2630907329  LPSA24    26             19.0000000000
     26401       854  BMANNA    C4            -38.1430213278      -20.5928889840       89.6223252437  LPSA24    26             19.0000000000
     26402       854  BMANNA    H4            -39.1858837826      -20.7126463959       89.9935285752  LPSA24    26             19.0000000000
     26403       854  BMANNA    O4            -37.7852337472      -21.8179050089       88.9987322114  LPSA24    26             19.0000000000
     26404       854  BMANNA    HO4           -38.0791536176      -22.5423377693       89.5664365399  LPSA24    26             19.0000000000
     26405       854  BMANNA    C6            -38.9881724329      -19.7085848476       87.4328488392  LPSA24    26             19.0000000000
     26406       854  BMANNA    H61           -39.0475159467      -18.6987882489       86.9599763990  LPSA24    26             19.0000000000
     26407       854  BMANNA    H62           -38.5636538508      -20.3588401684       86.6429584600  LPSA24    26             19.0000000000
     26408       854  BMANNA    O6            -40.2552871569      -20.2431240884       87.8338616221  LPSA24    26             19.0000000000
     26409       854  BMANNA    HO6           -40.1586717859      -21.1462529575       88.1601961617  LPSA24    26             19.0000000000
     26410       855  BGLCNA    C1            -35.7913179592      -14.1174936445       93.4703263601  LPSA24    27             19.0000000000
     26411       855  BGLCNA    H1            -36.0627319149      -13.0427455287       93.4214545431  LPSA24    27             19.0000000000
     26412       855  BGLCNA    C5            -33.5567627962      -13.5172322385       93.9234130120  LPSA24    27             19.0000000000
     26413       855  BGLCNA    H5            -33.9153161403      -12.4618456113       93.9427593191  LPSA24    27             19.0000000000
     26414       855  BGLCNA    O5            -34.4335208611      -14.2656918672       93.0736429056  LPSA24    27             19.0000000000
     26415       855  BGLCNA    C2            -35.9526040589      -14.6783525415       94.8643267245  LPSA24    27             19.0000000000
     26416       855  BGLCNA    H2            -35.6114249452      -15.7466490725       94.8254806375  LPSA24    27             19.0000000000
     26417       855  BGLCNA    N             -37.3272105228      -14.6631060133       95.3094526920  LPSA24    27             19.0000000000
     26418       855  BGLCNA    HN            -37.8669866799      -13.8804667051       95.0287645048  LPSA24    27             19.0000000000
     26419       855  BGLCNA    C             -37.8216722668      -15.7094945465       96.0057935326  LPSA24    27             19.0000000000
     26420       855  BGLCNA    O             -37.1333968050      -16.5790597497       96.5147607363  LPSA24    27             19.0000000000
     26421       855  BGLCNA    CT            -39.2971818910      -15.8002070261       96.0948233482  LPSA24    27             19.0000000000
     26422       855  BGLCNA    HT1           -39.7319900259      -14.9799647086       95.5171305761  LPSA24    27             19.0000000000
     26423       855  BGLCNA    HT2           -39.7392831562      -15.7712275409       97.1028289795  LPSA24    27             19.0000000000
     26424       855  BGLCNA    HT3           -39.5188891535      -16.7969234060       95.6497979947  LPSA24    27             19.0000000000
     26425       855  BGLCNA    C3            -35.0703313983      -13.9468505668       95.8244678030  LPSA24    27             19.0000000000
     26426       855  BGLCNA    H3            -35.3542342481      -12.8674725331       95.7798916934  LPSA24    27             19.0000000000
     26427       855  BGLCNA    O3            -35.3744726514      -14.4980565088       97.1280445291  LPSA24    27             19.0000000000
     26428       855  BGLCNA    C4            -33.6405448797      -14.0649731268       95.3413066924  LPSA24    27             19.0000000000
     26429       855  BGLCNA    H4            -33.3298250439      -15.1371482439       95.3283650177  LPSA24    27             19.0000000000
     26430       855  BGLCNA    O4            -32.7354565112      -13.3367597863       96.1597952344  LPSA24    27             19.0000000000
     26431       855  BGLCNA    HO4           -32.9541234113      -12.4024383176       96.0771059016  LPSA24    27             19.0000000000
     26432       855  BGLCNA    C6            -32.1737940172      -13.4778519230       93.3267534133  LPSA24    27             19.0000000000
     26433       855  BGLCNA    H61           -31.5498332782      -12.7342273578       93.8627081096  LPSA24    27             19.0000000000
     26434       855  BGLCNA    H62           -31.7183839807      -14.4752583783       93.4657975489  LPSA24    27             19.0000000000
     26435       855  BGLCNA    O6            -32.2100135434      -13.0991928641       91.9477309148  LPSA24    27             19.0000000000
     26436       855  BGLCNA    HO6           -31.3817453664      -13.2525673549       91.4731813508  LPSA24    27             19.0000000000
     26437       856  AGAL      C1            -35.0012499263      -13.7413568343       98.2461756769  LPSA24    28             20.0000000000
     26438       856  AGAL      H1            -33.8922134756      -13.7961030684       98.3292857178  LPSA24    28             20.0000000000
     26439       856  AGAL      C5            -36.7988886359      -12.1591617836       98.1340951403  LPSA24    28             20.0000000000
     26440       856  AGAL      H5            -37.3018069623      -12.8798550309       97.4410907662  LPSA24    28             20.0000000000
     26441       856  AGAL      O5            -35.3715522340      -12.3650829421       98.0453771397  LPSA24    28             20.0000000000
     26442       856  AGAL      C2            -35.5408154150      -14.2055331604       99.6201856685  LPSA24    28             20.0000000000
     26443       856  AGAL      H2            -35.0610136297      -13.4648205899      100.2994663714  LPSA24    28             20.0000000000
     26444       856  AGAL      O2            -35.1444002793      -15.4990063535      100.0981638703  LPSA24    28             20.0000000000
     26445       856  AGAL      C3            -37.0456288055      -14.0184076256       99.7002826942  LPSA24    28             20.0000000000
     26446       856  AGAL      H3            -37.5049938440      -14.5717200779       98.8495285158  LPSA24    28             20.0000000000
     26447       856  AGAL      O3            -37.7313479955      -14.4836718279      100.8710218056  LPSA24    28             20.0000000000
     26448       856  AGAL      HO3           -38.3217067102      -15.2055965736      100.6252718943  LPSA24    28             20.0000000000
     26449       856  AGAL      C4            -37.2986420860      -12.5599037338       99.5121928034  LPSA24    28             20.0000000000
     26450       856  AGAL      H4            -38.3827142742      -12.4430706809       99.5991891594  LPSA24    28             20.0000000000
     26451       856  AGAL      O4            -36.7553247360      -11.7690518431      100.5496793597  LPSA24    28             20.0000000000
     26452       856  AGAL      HO4           -37.4996172998      -11.4419584081      101.0620560518  LPSA24    28             20.0000000000
     26453       856  AGAL      C6            -37.1931775220      -10.7614443028       97.6321874335  LPSA24    28             20.0000000000
     26454       856  AGAL      H61           -36.9683934287      -10.7163213558       96.5477756518  LPSA24    28             20.0000000000
     26455       856  AGAL      H62           -38.2649179918      -10.5284166228       97.7431130995  LPSA24    28             20.0000000000
     26456       856  AGAL      O6            -36.5649171816       -9.6571736119       98.2593465896  LPSA24    28             20.0000000000
     26457       856  AGAL      HO6           -35.6423784088       -9.5983773898       97.9883391516  LPSA24    28             20.0000000000
     26458       857  ARHM      C1            -34.8502376647      -15.4174722357      101.4835486285  LPSA24    29             21.0000000000
     26459       857  ARHM      H1            -35.4075655697      -14.5847181127      101.9614785712  LPSA24    29             21.0000000000
     26460       857  ARHM      C5            -32.6750981311      -16.2797357397      101.1439889809  LPSA24    29             21.0000000000
     26461       857  ARHM      H5            -32.9380648325      -16.3570742192      100.0640651909  LPSA24    29             21.0000000000
     26462       857  ARHM      O5            -33.4558562397      -15.2260701622      101.7086630526  LPSA24    29             21.0000000000
     26463       857  ARHM      C2            -35.2505152249      -16.6741368873      102.1793345430  LPSA24    29             21.0000000000
     26464       857  ARHM      H2            -36.3086815021      -16.8081491508      101.9179860219  LPSA24    29             21.0000000000
     26465       857  ARHM      O2            -35.0852667067      -16.5578395957      103.6155565868  LPSA24    29             21.0000000000
     26466       857  ARHM      C3            -34.4864800745      -17.8338840853      101.6133750423  LPSA24    29             21.0000000000
     26467       857  ARHM      H3            -34.6910163822      -17.9182159717      100.5179579601  LPSA24    29             21.0000000000
     26468       857  ARHM      O3            -34.9110819876      -19.0304368184      102.2399747179  LPSA24    29             21.0000000000
     26469       857  ARHM      HO3           -34.1818704572      -19.6427718068      102.2085651022  LPSA24    29             21.0000000000
     26470       857  ARHM      C4            -33.0074637772      -17.6098945217      101.8124031096  LPSA24    29             21.0000000000
     26471       857  ARHM      H4            -32.7952833456      -17.5366203765      102.8966515357  LPSA24    29             21.0000000000
     26472       857  ARHM      O4            -32.2150914226      -18.7075622572      101.3521494280  LPSA24    29             21.0000000000
     26473       857  ARHM      HO4           -32.4065264161      -18.9625551239      100.4441888223  LPSA24    29             21.0000000000
     26474       857  ARHM      C6            -31.2419371454      -15.7663598528      101.2197865941  LPSA24    29             21.0000000000
     26475       857  ARHM      H61           -31.2571087394      -14.7450655665      100.7769342334  LPSA24    29             21.0000000000
     26476       857  ARHM      H62           -30.8922278033      -15.6919007814      102.2684162329  LPSA24    29             21.0000000000
     26477       857  ARHM      H63           -30.5557989671      -16.4098194223      100.6320402207  LPSA24    29             21.0000000000
     26478       858  ARHM      C1            -36.2324035962      -16.2120866048      104.3642185725  LPSA24    30             22.0000000000
     26479       858  ARHM      H1            -37.0662726890      -16.9240426915      104.1505867377  LPSA24    30             22.0000000000
     26480       858  ARHM      C5            -35.6722611702      -13.8864594857      104.4966649609  LPSA24    30             22.0000000000
     26481       858  ARHM      H5            -34.7682239234      -14.1523828905      103.9076682765  LPSA24    30             22.0000000000
     26482       858  ARHM      O5            -36.6733756926      -14.8537989517      104.1588737340  LPSA24    30             22.0000000000
     26483       858  ARHM      C2            -35.8570444876      -16.3363130970      105.8231303083  LPSA24    30             22.0000000000
     26484       858  ARHM      H2            -35.4834594370      -17.3698086553      106.0267621239  LPSA24    30             22.0000000000
     26485       858  ARHM      O2            -37.0086024381      -16.0299529826      106.6022495564  LPSA24    30             22.0000000000
     26486       858  ARHM      C3            -34.7958892157      -15.3390874110      106.2224895431  LPSA24    30             22.0000000000
     26487       858  ARHM      H3            -33.9483229996      -15.4795005517      105.5166342463  LPSA24    30             22.0000000000
     26488       858  ARHM      O3            -34.2751644025      -15.5942056659      107.5398918089  LPSA24    30             22.0000000000
     26489       858  ARHM      C4            -35.3125263672      -13.9499570840      105.9629865973  LPSA24    30             22.0000000000
     26490       858  ARHM      H4            -36.2303437402      -13.7370723666      106.5561577321  LPSA24    30             22.0000000000
     26491       858  ARHM      O4            -34.3749139218      -12.9421262605      106.3099964975  LPSA24    30             22.0000000000
     26492       858  ARHM      HO4           -33.6861082958      -12.8125129039      105.6569604232  LPSA24    30             22.0000000000
     26493       858  ARHM      C6            -36.1224729723      -12.4847836360      104.0620995544  LPSA24    30             22.0000000000
     26494       858  ARHM      H61           -35.2971594152      -11.7626771111      104.2308519138  LPSA24    30             22.0000000000
     26495       858  ARHM      H62           -36.3447876626      -12.4916221003      102.9772055313  LPSA24    30             22.0000000000
     26496       858  ARHM      H63           -37.0211461233      -12.1554063198      104.6267118310  LPSA24    30             22.0000000000
     26497       859  BMANNA    C1            -37.7915191106      -17.1305919682      106.9015373988  LPSA24    31             23.0000000000
     26498       859  BMANNA    H1            -37.1652771701      -18.0125266548      107.1518662172  LPSA24    31             23.0000000000
     26499       859  BMANNA    C5            -39.5450952564      -18.5069151687      106.1890103289  LPSA24    31             23.0000000000
     26500       859  BMANNA    H5            -38.8974710569      -19.3687131810      106.4841071429  LPSA24    31             23.0000000000
     26501       859  BMANNA    O5            -38.7061793107      -17.4096075073      105.8562736819  LPSA24    31             23.0000000000
     26502       859  BMANNA    C2            -38.5706479184      -16.7198924740      108.0940327763  LPSA24    31             23.0000000000
     26503       859  BMANNA    H2            -37.8315146400      -16.5679431218      108.9163518556  LPSA24    31             23.0000000000
     26504       859  BMANNA    N             -39.2132358512      -15.4565518743      107.8595784382  LPSA24    31             23.0000000000
     26505       859  BMANNA    HN            -39.3887069044      -15.2083702835      106.8997100763  LPSA24    31             23.0000000000
     26506       859  BMANNA    C             -39.4174804122      -14.6054628309      108.8554459584  LPSA24    31             23.0000000000
     26507       859  BMANNA    O             -39.1937638641      -14.8290885773      110.0319657325  LPSA24    31             23.0000000000
     26508       859  BMANNA    CT            -39.9965007597      -13.3565764671      108.4457689667  LPSA24    31             23.0000000000
     26509       859  BMANNA    HT1           -40.6363835436      -13.7064484414      107.6376470948  LPSA24    31             23.0000000000
     26510       859  BMANNA    HT2           -39.3627340102      -12.6048894912      107.9549659952  LPSA24    31             23.0000000000
     26511       859  BMANNA    HT3           -40.6117985336      -12.8807901875      109.2432252400  LPSA24    31             23.0000000000
     26512       859  BMANNA    C3            -39.4575863848      -17.8595439346      108.5064153097  LPSA24    31             23.0000000000
     26513       859  BMANNA    H3            -38.8406841720      -18.7647407148      108.6784676606  LPSA24    31             23.0000000000
     26514       859  BMANNA    O3            -40.0685932799      -17.6010281289      109.7471047300  LPSA24    31             23.0000000000
     26515       859  BMANNA    HO3           -39.6106496848      -16.8325480462      110.1232395414  LPSA24    31             23.0000000000
     26516       859  BMANNA    C4            -40.3943472933      -18.1895565737      107.3926328609  LPSA24    31             23.0000000000
     26517       859  BMANNA    H4            -40.9324611278      -17.2785759360      107.0603514381  LPSA24    31             23.0000000000
     26518       859  BMANNA    O4            -41.2891610378      -19.2661355913      107.7175319016  LPSA24    31             23.0000000000
     26519       859  BMANNA    HO4           -40.8138974570      -19.9444534580      108.2068795025  LPSA24    31             23.0000000000
     26520       859  BMANNA    C6            -40.3703998776      -18.9107949343      105.0074585666  LPSA24    31             23.0000000000
     26521       859  BMANNA    H61           -40.6226250713      -19.8898807354      105.3393323088  LPSA24    31             23.0000000000
     26522       859  BMANNA    H62           -41.2937200286      -18.3115111830      104.8670556274  LPSA24    31             23.0000000000
     26523       859  BMANNA    O6            -39.7114827158      -19.1525719324      103.7721511606  LPSA24    31             23.0000000000
     26524       859  BMANNA    HO6           -39.1320176288      -19.9201983782      103.8266014857  LPSA24    31             23.0000000000
     26525       860  BGLCNA    C1            -35.0239107503      -15.0736997851      108.6170369170  LPSA24    32             23.0000000000
     26526       860  BGLCNA    H1            -36.1042429805      -15.1650892629      108.4110789978  LPSA24    32             23.0000000000
     26527       860  BGLCNA    C5            -35.6007519480      -13.1769057303      109.9274631873  LPSA24    32             23.0000000000
     26528       860  BGLCNA    H5            -36.6585327568      -13.3245420370      109.5865258846  LPSA24    32             23.0000000000
     26529       860  BGLCNA    O5            -34.7447496247      -13.7051827245      108.9085862222  LPSA24    32             23.0000000000
     26530       860  BGLCNA    C2            -34.7402822384      -15.8910325400      109.8545911202  LPSA24    32             23.0000000000
     26531       860  BGLCNA    H2            -33.6869156994      -15.6528142527      110.1527007710  LPSA24    32             23.0000000000
     26532       860  BGLCNA    N             -34.8672105204      -17.2977336212      109.5675401565  LPSA24    32             23.0000000000
     26533       860  BGLCNA    HN            -35.5328697813      -17.5066800055      108.8799695298  LPSA24    32             23.0000000000
     26534       860  BGLCNA    C             -34.1279750060      -18.2814496498      110.0796139582  LPSA24    32             23.0000000000
     26535       860  BGLCNA    O             -33.2405253846      -18.1080171868      110.8844423850  LPSA24    32             23.0000000000
     26536       860  BGLCNA    CT            -34.4426962785      -19.6477614683      109.5467950183  LPSA24    32             23.0000000000
     26537       860  BGLCNA    HT1           -34.9984883483      -19.5215712853      108.5979785096  LPSA24    32             23.0000000000
     26538       860  BGLCNA    HT2           -35.0436075130      -20.2668312607      110.2415660036  LPSA24    32             23.0000000000
     26539       860  BGLCNA    HT3           -33.4912223391      -20.1774856981      109.3558594961  LPSA24    32             23.0000000000
     26540       860  BGLCNA    C3            -35.6952827482      -15.4239853692      110.9256515336  LPSA24    32             23.0000000000
     26541       860  BGLCNA    H3            -36.7145689621      -15.4668495829      110.4750268896  LPSA24    32             23.0000000000
     26542       860  BGLCNA    O3            -35.7094873486      -16.2704906569      112.0884798013  LPSA24    32             23.0000000000
     26543       860  BGLCNA    C4            -35.3827828680      -13.9734457560      111.2025707910  LPSA24    32             23.0000000000
     26544       860  BGLCNA    H4            -34.3116717711      -13.9007178510      111.5175301783  LPSA24    32             23.0000000000
     26545       860  BGLCNA    O4            -36.1976045210      -13.4494036669      112.2331150021  LPSA24    32             23.0000000000
     26546       860  BGLCNA    HO4           -35.7025634831      -13.5117850570      113.0663525685  LPSA24    32             23.0000000000
     26547       860  BGLCNA    C6            -35.4029610138      -11.6732212147      110.0595162768  LPSA24    32             23.0000000000
     26548       860  BGLCNA    H61           -36.1689925361      -11.2251545394      110.7311602174  LPSA24    32             23.0000000000
     26549       860  BGLCNA    H62           -34.4085571643      -11.4724374508      110.5146690695  LPSA24    32             23.0000000000
     26550       860  BGLCNA    O6            -35.4935662509      -10.9954433071      108.8037011087  LPSA24    32             23.0000000000
     26551       860  BGLCNA    HO6           -36.1728415901      -11.4198292039      108.2613916380  LPSA24    32             23.0000000000
     26552       861  AGAL      C1            -36.9892458950      -16.4137610558      112.6800530288  LPSA24    33             24.0000000000
     26553       861  AGAL      H1            -37.5579305564      -15.4609125220      112.6088518252  LPSA24    33             24.0000000000
     26554       861  AGAL      C5            -37.1563595175      -18.7560154231      112.2071173367  LPSA24    33             24.0000000000
     26555       861  AGAL      H5            -36.1144954685      -18.6150589787      111.8446517079  LPSA24    33             24.0000000000
     26556       861  AGAL      O5            -37.7695965469      -17.4588756618      112.0562715045  LPSA24    33             24.0000000000
     26557       861  AGAL      C2            -36.8319039290      -16.7797912550      114.1407822285  LPSA24    33             24.0000000000
     26558       861  AGAL      H2            -37.8577853108      -16.9601322911      114.5296338241  LPSA24    33             24.0000000000
     26559       861  AGAL      O2            -36.3353758660      -15.6413221507      114.8693281885  LPSA24    33             24.0000000000
     26560       861  AGAL      C3            -36.1191508943      -18.1198835210      114.2996863783  LPSA24    33             24.0000000000
     26561       861  AGAL      H3            -35.1549594993      -18.1020352101      113.7250650374  LPSA24    33             24.0000000000
     26562       861  AGAL      O3            -35.7158903521      -18.3673508155      115.6407477453  LPSA24    33             24.0000000000
     26563       861  AGAL      HO3           -36.4533312963      -18.4031135366      116.2513385999  LPSA24    33             24.0000000000
     26564       861  AGAL      C4            -36.9981382405      -19.2070729266      113.6537876096  LPSA24    33             24.0000000000
     26565       861  AGAL      H4            -36.4459901692      -20.1747975806      113.6672844818  LPSA24    33             24.0000000000
     26566       861  AGAL      O4            -38.2787590197      -19.4446854924      114.2620018150  LPSA24    33             24.0000000000
     26567       861  AGAL      HO4           -38.4749816117      -18.7845959603      114.9296177699  LPSA24    33             24.0000000000
     26568       861  AGAL      C6            -37.7687328408      -19.7838156748      111.2598542097  LPSA24    33             24.0000000000
     26569       861  AGAL      H61           -37.5798463018      -19.4111447973      110.2347900480  LPSA24    33             24.0000000000
     26570       861  AGAL      H62           -37.2583298652      -20.7657389695      111.3713661777  LPSA24    33             24.0000000000
     26571       861  AGAL      O6            -39.1654257238      -20.0400575829      111.4043268616  LPSA24    33             24.0000000000
     26572       861  AGAL      HO6           -39.7110286866      -19.4225070865      110.8873288479  LPSA24    33             24.0000000000
     26573       862  ARHM      C1            -37.0390600337      -15.3367473218      116.0549171141  LPSA24    34             25.0000000000
     26574       862  ARHM      H1            -37.1483751624      -16.2668225833      116.6518192788  LPSA24    34             25.0000000000
     26575       862  ARHM      C5            -38.3929779737      -13.6215938797      115.0564310948  LPSA24    34             25.0000000000
     26576       862  ARHM      H5            -37.9738961210      -13.8195097017      114.0517105070  LPSA24    34             25.0000000000
     26577       862  ARHM      O5            -38.3764087842      -14.8460035415      115.8189434973  LPSA24    34             25.0000000000
     26578       862  ARHM      C2            -36.2175323057      -14.3056426453      116.8131823411  LPSA24    34             25.0000000000
     26579       862  ARHM      H2            -35.1633489508      -14.6777787498      116.8339511414  LPSA24    34             25.0000000000
     26580       862  ARHM      O2            -36.6545814105      -14.0768920013      118.1821096530  LPSA24    34             25.0000000000
     26581       862  ARHM      C3            -36.2068060063      -13.0059940219      116.0146796953  LPSA24    34             25.0000000000
     26582       862  ARHM      H3            -35.7834420462      -13.2060384289      114.9972301669  LPSA24    34             25.0000000000
     26583       862  ARHM      O3            -35.4113652996      -11.9805835137      116.6253501309  LPSA24    34             25.0000000000
     26584       862  ARHM      HO3           -34.9438846744      -11.5081666913      115.9189483766  LPSA24    34             25.0000000000
     26585       862  ARHM      C4            -37.6216632055      -12.5481631561      115.7956735017  LPSA24    34             25.0000000000
     26586       862  ARHM      H4            -38.1392882993      -12.3827343139      116.7740431151  LPSA24    34             25.0000000000
     26587       862  ARHM      O4            -37.6544509357      -11.3363190220      115.0598654162  LPSA24    34             25.0000000000
     26588       862  ARHM      HO4           -37.4362240119      -10.6070344967      115.6462133932  LPSA24    34             25.0000000000
     26589       862  ARHM      C6            -39.8026273684      -13.1202750518      114.7810985667  LPSA24    34             25.0000000000
     26590       862  ARHM      H61           -40.3155158754      -12.9752416549      115.7390022352  LPSA24    34             25.0000000000
     26591       862  ARHM      H62           -39.8310257863      -12.1162207417      114.3152413715  LPSA24    34             25.0000000000
     26592       862  ARHM      H63           -40.4317244100      -13.7997293575      114.1681614538  LPSA24    34             25.0000000000
     26593       863  ARHM      C1            -36.6876930250      -15.1761449333      119.0699441189  LPSA24    35             26.0000000000
     26594       863  ARHM      H1            -35.8708256644      -15.8937199263      118.8616382531  LPSA24    35             26.0000000000
     26595       863  ARHM      C5            -38.9576317773      -14.9256868595      119.2411717046  LPSA24    35             26.0000000000
     26596       863  ARHM      H5            -39.0519978922      -14.0942261023      118.5017183858  LPSA24    35             26.0000000000
     26597       863  ARHM      O5            -37.9197292159      -15.8321663384      118.9253086993  LPSA24    35             26.0000000000
     26598       863  ARHM      C2            -36.6121168685      -14.7062472002      120.5190294352  LPSA24    35             26.0000000000
     26599       863  ARHM      H2            -35.6566018341      -14.1591731721      120.6807002486  LPSA24    35             26.0000000000
     26600       863  ARHM      O2            -36.7025109796      -15.8193722343      121.4228893702  LPSA24    35             26.0000000000
     26601       863  ARHM      C3            -37.7190849061      -13.7384151576      120.8249361250  LPSA24    35             26.0000000000
     26602       863  ARHM      H3            -37.7442606221      -12.9166340456      120.1025638198  LPSA24    35             26.0000000000
     26603       863  ARHM      O3            -37.6142644559      -13.1593093381      122.1086498435  LPSA24    35             26.0000000000
     26604       863  ARHM      HO3           -37.2502047831      -13.7947912574      122.7431834006  LPSA24    35             26.0000000000
     26605       863  ARHM      C4            -38.9940957924      -14.4071902558      120.6590796673  LPSA24    35             26.0000000000
     26606       863  ARHM      H4            -39.0357995368      -15.3137108441      121.3272605908  LPSA24    35             26.0000000000
     26607       863  ARHM      O4            -40.0875681012      -13.4747407839      120.9010272316  LPSA24    35             26.0000000000
     26608       863  ARHM      HO4           -39.9590628210      -12.6171037987      120.4925028108  LPSA24    35             26.0000000000
     26609       863  ARHM      C6            -40.1014506815      -15.7290069531      118.9782749560  LPSA24    35             26.0000000000
     26610       863  ARHM      H61           -40.1654987624      -16.0243767529      117.9256768152  LPSA24    35             26.0000000000
     26611       863  ARHM      H62           -40.2639286489      -16.6025302958      119.6481771408  LPSA24    35             26.0000000000
     26612       863  ARHM      H63           -40.8169755138      -14.9262927860      119.1650354625  LPSA24    35             26.0000000000
     26613       864  BMANNA    C1            -35.5394641334      -16.5985702301      121.4788639757  LPSA24    36             27.0000000000
     26614       864  BMANNA    H1            -34.6634175917      -16.0089178426      121.1358092553  LPSA24    36             27.0000000000
     26615       864  BMANNA    C5            -34.3766223339      -18.5139633087      120.7166876715  LPSA24    36             27.0000000000
     26616       864  BMANNA    H5            -33.5434062178      -17.8271514996      120.4352744306  LPSA24    36             27.0000000000
     26617       864  BMANNA    O5            -35.6113122676      -17.7669181372      120.6530582884  LPSA24    36             27.0000000000
     26618       864  BMANNA    C2            -35.3605982021      -17.0230150931      122.9213498638  LPSA24    36             27.0000000000
     26619       864  BMANNA    H2            -35.2384552659      -16.0651321069      123.4782251334  LPSA24    36             27.0000000000
     26620       864  BMANNA    N             -36.4991348159      -17.7405655755      123.4973690460  LPSA24    36             27.0000000000
     26621       864  BMANNA    HN            -36.9828710046      -18.3594103988      122.8859478262  LPSA24    36             27.0000000000
     26622       864  BMANNA    C             -36.7908032008      -17.6965284440      124.8156239387  LPSA24    36             27.0000000000
     26623       864  BMANNA    O             -36.2322357536      -16.9479450963      125.6114431277  LPSA24    36             27.0000000000
     26624       864  BMANNA    CT            -37.8272305608      -18.6557749192      125.3379313518  LPSA24    36             27.0000000000
     26625       864  BMANNA    HT1           -37.6897047004      -19.6479250477      124.8708386356  LPSA24    36             27.0000000000
     26626       864  BMANNA    HT2           -38.8449670458      -18.2829192933      125.1254311588  LPSA24    36             27.0000000000
     26627       864  BMANNA    HT3           -37.7079226052      -18.7473031723      126.4418438255  LPSA24    36             27.0000000000
     26628       864  BMANNA    C3            -34.0524209925      -17.7862222976      123.0222206082  LPSA24    36             27.0000000000
     26629       864  BMANNA    H3            -33.2168144762      -17.1330276874      122.6609233922  LPSA24    36             27.0000000000
     26630       864  BMANNA    O3            -33.7323448917      -18.1903580615      124.3532575560  LPSA24    36             27.0000000000
     26631       864  BMANNA    HO3           -32.9658118666      -17.7155291904      124.6864512449  LPSA24    36             27.0000000000
     26632       864  BMANNA    C4            -34.1015774867      -18.9855500107      122.1287768889  LPSA24    36             27.0000000000
     26633       864  BMANNA    H4            -34.9193957524      -19.6663252429      122.4571673666  LPSA24    36             27.0000000000
     26634       864  BMANNA    O4            -32.8818715721      -19.7077988140      122.2394081916  LPSA24    36             27.0000000000
     26635       864  BMANNA    HO4           -32.8713845508      -19.8967420294      123.1916687344  LPSA24    36             27.0000000000
     26636       864  BMANNA    C6            -34.3519563012      -19.6395030040      119.7173914637  LPSA24    36             27.0000000000
     26637       864  BMANNA    H61           -34.5622253093      -19.2577041288      118.6929900127  LPSA24    36             27.0000000000
     26638       864  BMANNA    H62           -33.3217461295      -20.0603359360      119.7019462734  LPSA24    36             27.0000000000
     26639       864  BMANNA    O6            -35.2610234408      -20.6809498867      120.0669266316  LPSA24    36             27.0000000000
     26640       864  BMANNA    HO6           -34.7956812303      -21.3434449759      120.5827012679  LPSA24    36             27.0000000000
     26641       865  ECLIPA    HB6S           38.0019211909       -1.4760623106       20.4278827362  LPSA25    1               0.0000000000
     26642       865  ECLIPA    OB6            38.6062527057       -0.0250599642       21.7832848440  LPSA25    1               0.0000000000
     26643       865  ECLIPA    CB6            37.7420864492       -0.4337926034       20.7021874066  LPSA25    1               0.0000000000
     26644       865  ECLIPA    HB6R           36.6950391166       -0.4321245782       21.0695093975  LPSA25    1               0.0000000000
     26645       865  ECLIPA    CB5            37.7575946091        0.4215975133       19.4382137188  LPSA25    1               0.0000000000
     26646       865  ECLIPA    OB5            39.1184750430        0.4018690504       18.9633076288  LPSA25    1               0.0000000000
     26647       865  ECLIPA    HB5            37.4506821132        1.4477337311       19.7422895585  LPSA25    1               0.0000000000
     26648       865  ECLIPA    CB1            39.3003232380        1.2047631112       17.7912274275  LPSA25    1               0.0000000000
     26649       865  ECLIPA    HB1            38.9728383427        2.2583990117       17.9695570426  LPSA25    1               0.0000000000
     26650       865  ECLIPA    OA6            40.6404015500        1.2514350965       17.3438226894  LPSA25    1               0.0000000000
     26651       865  ECLIPA    CA6            41.3921145810        0.0507314333       17.5607083972  LPSA25    1               0.0000000000
     26652       865  ECLIPA    HA6R           40.7440320368       -0.8361968716       17.7533012543  LPSA25    1               0.0000000000
     26653       865  ECLIPA    HA6S           42.0391762038        0.2260009560       18.4442835596  LPSA25    1               0.0000000000
     26654       865  ECLIPA    CB4            36.8018168306       -0.0907563130       18.3411538469  LPSA25    1               0.0000000000
     26655       865  ECLIPA    HB4            37.0253938326       -1.1525788348       18.0596418038  LPSA25    1               0.0000000000
     26656       865  ECLIPA    OB4            35.4561451396        0.0926351652       18.8364609149  LPSA25    1               0.0000000000
     26657       865  ECLIPA    PB             34.5243023604       -1.2208343245       19.3067181554  LPSA25    1               0.0000000000
     26658       865  ECLIPA    OPB4           33.6328738681       -0.8605781582       20.4936599520  LPSA25    1               0.0000000000
     26659       865  ECLIPA    OPB3           35.5231018910       -2.2967357270       19.6942432150  LPSA25    1               0.0000000000
     26660       865  ECLIPA    OPB2           33.6630550411       -1.6219971959       18.1200277956  LPSA25    1               0.0000000000
     26661       865  ECLIPA    CB3            37.0153247003        0.7594629818       17.1090286154  LPSA25    1               0.0000000000
     26662       865  ECLIPA    OB3            36.3108674566        0.3102522665       15.9634760420  LPSA25    1               0.0000000000
     26663       865  ECLIPA    HB3            36.8131031046        1.8336929165       17.3436611829  LPSA25    1               0.0000000000
     26664       865  ECLIPA    C71            35.0833971312        0.6959590410       15.8386491523  LPSA25    1               0.0000000000
     26665       865  ECLIPA    O71            34.6019776080        1.6599906848       16.4248212745  LPSA25    1               0.0000000000
     26666       865  ECLIPA    C72            34.6822634443        0.2169972231       14.4370791119  LPSA25    1               0.0000000000
     26667       865  ECLIPA    H72R           35.3032367273        0.5811314843       13.5978419847  LPSA25    1               0.0000000000
     26668       865  ECLIPA    H72S           33.6457975841        0.4391989112       14.3194118145  LPSA25    1               0.0000000000
     26669       865  ECLIPA    CB2            38.4558593383        0.6748648576       16.6715377818  LPSA25    1               0.0000000000
     26670       865  ECLIPA    HB2            38.7060024814       -0.4131250164       16.5158558646  LPSA25    1               0.0000000000
     26671       865  ECLIPA    NB2            38.6713450269        1.4547880851       15.4529285867  LPSA25    1               0.0000000000
     26672       865  ECLIPA    HNB2           38.9200530338        2.4084055606       15.5708268884  LPSA25    1               0.0000000000
     26673       865  ECLIPA    CA4            42.9049907461        1.0185958524       15.7999688694  LPSA25    1               0.0000000000
     26674       865  ECLIPA    HA4            42.0851245404        1.7332181414       15.5317892956  LPSA25    1               0.0000000000
     26675       865  ECLIPA    OA4            43.7214555596        1.5266340707       16.8529423841  LPSA25    1               0.0000000000
     26676       865  ECLIPA    HOA4           43.0953621884        1.7563393673       17.5416875918  LPSA25    1               0.0000000000
     26677       865  ECLIPA    CA5            42.2446111817       -0.2236979735       16.3356204602  LPSA25    1               0.0000000000
     26678       865  ECLIPA    HA5            42.9708992351       -1.0411276057       16.5546640681  LPSA25    1               0.0000000000
     26679       865  ECLIPA    OA5            41.3638633947       -0.6982893327       15.3456894268  LPSA25    1               0.0000000000
     26680       865  ECLIPA    CA1            42.0088553408       -1.0403327527       14.1055198607  LPSA25    1               0.0000000000
     26681       865  ECLIPA    HA1            41.1354855341       -1.1996616142       13.4347905017  LPSA25    1               0.0000000000
     26682       865  ECLIPA    OA1            42.7901659393       -2.2147877963       14.1163897079  LPSA25    1               0.0000000000
     26683       865  ECLIPA    OPA2           42.8515258967       -3.8738732529       16.0242348262  LPSA25    1               0.0000000000
     26684       865  ECLIPA    OPA3           40.6504679725       -3.5274075831       14.8706794056  LPSA25    1               0.0000000000
     26685       865  ECLIPA    OPA4           42.6337078564       -4.6614794663       13.6524422614  LPSA25    1               0.0000000000
     26686       865  ECLIPA    PA             42.1538689381       -3.6267567271       14.6872046053  LPSA25    1               0.0000000000
     26687       865  ECLIPA    CA3            43.6741400717        0.7434366506       14.5243234608  LPSA25    1               0.0000000000
     26688       865  ECLIPA    HA3            44.5087785994        0.0345030196       14.7329310283  LPSA25    1               0.0000000000
     26689       865  ECLIPA    OA3            44.2563961610        2.0094434013       14.1703500347  LPSA25    1               0.0000000000
     26690       865  ECLIPA    C31            43.4936164014        2.9074420886       13.4994493817  LPSA25    1               0.0000000000
     26691       865  ECLIPA    O31            43.4709872134        2.8484607250       12.2688007444  LPSA25    1               0.0000000000
     26692       865  ECLIPA    C32            43.3843605372        4.2114895054       14.2814890439  LPSA25    1               0.0000000000
     26693       865  ECLIPA    H32R           43.9636516217        4.9526926447       13.7068408051  LPSA25    1               0.0000000000
     26694       865  ECLIPA    H32S           43.8722937115        4.1185705393       15.2708196954  LPSA25    1               0.0000000000
     26695       865  ECLIPA    CA2            42.6890626554        0.1740367294       13.4981841255  LPSA25    1               0.0000000000
     26696       865  ECLIPA    HA2            41.8736621917        0.9202445176       13.3452262539  LPSA25    1               0.0000000000
     26697       865  ECLIPA    NA2            43.3495300687       -0.1392504744       12.2023989521  LPSA25    1               0.0000000000
     26698       865  ECLIPA    HNA2           44.2776435533        0.1595076362       12.3193513456  LPSA25    1               0.0000000000
     26699       865  ECLIPA    C73            34.5536921567       -1.2810834012       14.3687105356  LPSA25    1               0.0000000000
     26700       865  ECLIPA    H73R           33.9504114021       -1.5859397588       15.2729009213  LPSA25    1               0.0000000000
     26701       865  ECLIPA    O73            35.8473073067       -1.7880411973       14.3060033525  LPSA25    1               0.0000000000
     26702       865  ECLIPA    C81            36.0720537056       -2.9022897855       14.9643847365  LPSA25    1               0.0000000000
     26703       865  ECLIPA    O81            35.2138133837       -3.5723467151       15.5168906097  LPSA25    1               0.0000000000
     26704       865  ECLIPA    C82            37.3479490036       -3.4702341281       14.3432621569  LPSA25    1               0.0000000000
     26705       865  ECLIPA    H82R           37.6048370846       -4.4050782416       14.8681789777  LPSA25    1               0.0000000000
     26706       865  ECLIPA    H82S           38.1627761790       -2.7447329649       14.5587870911  LPSA25    1               0.0000000000
     26707       865  ECLIPA    C83            37.2712262176       -3.6947114533       12.8101657524  LPSA25    1               0.0000000000
     26708       865  ECLIPA    H83R           37.4434933189       -2.7219764124       12.2920286051  LPSA25    1               0.0000000000
     26709       865  ECLIPA    H83S           36.2598699022       -4.0557721249       12.5382778578  LPSA25    1               0.0000000000
     26710       865  ECLIPA    C84            38.3568875055       -4.6523420606       12.2903111690  LPSA25    1               0.0000000000
     26711       865  ECLIPA    H84R           38.1518821644       -5.6975499439       12.5999722585  LPSA25    1               0.0000000000
     26712       865  ECLIPA    H84S           39.3191273141       -4.3228675314       12.7643435469  LPSA25    1               0.0000000000
     26713       865  ECLIPA    C85            38.5529746505       -4.5553765405       10.7695082552  LPSA25    1               0.0000000000
     26714       865  ECLIPA    H85R           38.5213762310       -3.4647193337       10.5444084494  LPSA25    1               0.0000000000
     26715       865  ECLIPA    H85S           37.6981169237       -5.0190523639       10.2346356111  LPSA25    1               0.0000000000
     26716       865  ECLIPA    C86            39.9303629783       -5.0592839640       10.2861468945  LPSA25    1               0.0000000000
     26717       865  ECLIPA    H86R           39.8941510112       -6.1308293902        9.9937378329  LPSA25    1               0.0000000000
     26718       865  ECLIPA    H86S           40.6569485496       -4.9868046560       11.1296342028  LPSA25    1               0.0000000000
     26719       865  ECLIPA    C87            40.5202676307       -4.1863943905        9.1622033890  LPSA25    1               0.0000000000
     26720       865  ECLIPA    H87R           41.4703882069       -4.6337117673        8.7972683622  LPSA25    1               0.0000000000
     26721       865  ECLIPA    H87S           40.7825491181       -3.1878726117        9.5788236027  LPSA25    1               0.0000000000
     26722       865  ECLIPA    C88            39.5259076695       -3.9422987312        8.0298872982  LPSA25    1               0.0000000000
     26723       865  ECLIPA    H88R           38.7760869153       -3.1931962850        8.3551569481  LPSA25    1               0.0000000000
     26724       865  ECLIPA    H88S           38.9440816682       -4.8795519640        7.8811706884  LPSA25    1               0.0000000000
     26725       865  ECLIPA    C89            40.1876855907       -3.4526542023        6.7381834856  LPSA25    1               0.0000000000
     26726       865  ECLIPA    H89R           41.1954667429       -3.0160727276        6.9007928987  LPSA25    1               0.0000000000
     26727       865  ECLIPA    H89S           39.5811083177       -2.6481545409        6.2671078264  LPSA25    1               0.0000000000
     26728       865  ECLIPA    C810           40.2516915759       -4.5891967163        5.7405333401  LPSA25    1               0.0000000000
     26729       865  ECLIPA    H810R          39.4028445680       -5.2769872357        5.9420650898  LPSA25    1               0.0000000000
     26730       865  ECLIPA    H810S          41.2020363352       -5.1549247944        5.8804563071  LPSA25    1               0.0000000000
     26731       865  ECLIPA    C811           40.1799614103       -4.0829504850        4.3114339343  LPSA25    1               0.0000000000
     26732       865  ECLIPA    H811R          40.7582008398       -4.8400763525        3.7594691224  LPSA25    1               0.0000000000
     26733       865  ECLIPA    H811S          40.7737235328       -3.1550464851        4.1980392177  LPSA25    1               0.0000000000
     26734       865  ECLIPA    C812           38.7626322079       -3.7679047249        3.7692499964  LPSA25    1               0.0000000000
     26735       865  ECLIPA    H812R          38.8944347719       -3.3339015886        2.7459504033  LPSA25    1               0.0000000000
     26736       865  ECLIPA    H812S          38.3104753147       -2.9909158977        4.4168455540  LPSA25    1               0.0000000000
     26737       865  ECLIPA    C813           37.7248906216       -4.9064042435        3.7059016107  LPSA25    1               0.0000000000
     26738       865  ECLIPA    H813R          38.0831518159       -5.7100846318        3.0427916327  LPSA25    1               0.0000000000
     26739       865  ECLIPA    H813S          37.5888397780       -5.4092856307        4.6804235722  LPSA25    1               0.0000000000
     26740       865  ECLIPA    C814           36.3610581585       -4.4428426267        3.1702343914  LPSA25    1               0.0000000000
     26741       865  ECLIPA    H814R          36.4504764998       -3.8056744386        2.2581707004  LPSA25    1               0.0000000000
     26742       865  ECLIPA    H814S          35.8458164784       -3.8486824350        3.9439168983  LPSA25    1               0.0000000000
     26743       865  ECLIPA    H814T          35.7439400757       -5.3242544077        2.9001696028  LPSA25    1               0.0000000000
     26744       865  ECLIPA    C74            33.8371186501       -1.7875078427       13.1202361886  LPSA25    1               0.0000000000
     26745       865  ECLIPA    H74R           32.8994184418       -1.2585107345       13.0825890017  LPSA25    1               0.0000000000
     26746       865  ECLIPA    H74S           33.7300700541       -2.8741415985       13.2678541224  LPSA25    1               0.0000000000
     26747       865  ECLIPA    C75            34.4467481050       -1.6338670173       11.7418034359  LPSA25    1               0.0000000000
     26748       865  ECLIPA    H75R           34.2085505511       -2.5724111919       11.1835898492  LPSA25    1               0.0000000000
     26749       865  ECLIPA    H75S           35.5319220449       -1.5848023618       11.9253568557  LPSA25    1               0.0000000000
     26750       865  ECLIPA    C76            33.9631503816       -0.4206655276       10.9430134302  LPSA25    1               0.0000000000
     26751       865  ECLIPA    H76R           34.4309020556        0.4918858715       11.3746545796  LPSA25    1               0.0000000000
     26752       865  ECLIPA    H76S           32.8563064763       -0.2785834254       10.9921609894  LPSA25    1               0.0000000000
     26753       865  ECLIPA    C77            34.3389677396       -0.5164267450        9.4592877995  LPSA25    1               0.0000000000
     26754       865  ECLIPA    H77R           33.7687979269       -1.3468495260        8.9960371769  LPSA25    1               0.0000000000
     26755       865  ECLIPA    H77S           35.4028503839       -0.7611670937        9.3147162395  LPSA25    1               0.0000000000
     26756       865  ECLIPA    C78            34.1110698194        0.8367658636        8.7936137566  LPSA25    1               0.0000000000
     26757       865  ECLIPA    H78R           33.0755501728        1.1567401312        9.0464342111  LPSA25    1               0.0000000000
     26758       865  ECLIPA    H78S           34.7846575204        1.5568253712        9.3185681621  LPSA25    1               0.0000000000
     26759       865  ECLIPA    C79            34.4952815450        0.9223209282        7.2968607315  LPSA25    1               0.0000000000
     26760       865  ECLIPA    H79R           35.4977501903        1.3752861416        7.1854411720  LPSA25    1               0.0000000000
     26761       865  ECLIPA    H79S           33.8739054545        1.5776175737        6.6856756401  LPSA25    1               0.0000000000
     26762       865  ECLIPA    C710           34.2647346908       -0.2979702699        6.4514937508  LPSA25    1               0.0000000000
     26763       865  ECLIPA    H710R          34.8454425078       -1.1335039929        6.8648599880  LPSA25    1               0.0000000000
     26764       865  ECLIPA    H710S          33.1870242430       -0.5393942173        6.5250500311  LPSA25    1               0.0000000000
     26765       865  ECLIPA    C711           34.6544676183       -0.0729976263        4.9886522296  LPSA25    1               0.0000000000
     26766       865  ECLIPA    H711R          34.0255427312        0.7098532871        4.5246924507  LPSA25    1               0.0000000000
     26767       865  ECLIPA    H711S          35.7194296461        0.2270085921        4.9206779473  LPSA25    1               0.0000000000
     26768       865  ECLIPA    C712           34.4739966528       -1.3745948704        4.2348566104  LPSA25    1               0.0000000000
     26769       865  ECLIPA    H712R          33.4182133231       -1.5943386118        4.2983434755  LPSA25    1               0.0000000000
     26770       865  ECLIPA    H712S          34.9677031129       -2.1687690784        4.8252348419  LPSA25    1               0.0000000000
     26771       865  ECLIPA    C713           34.9504023069       -1.3670526542        2.7840716872  LPSA25    1               0.0000000000
     26772       865  ECLIPA    H713R          36.0494821960       -1.1782405590        2.8216139637  LPSA25    1               0.0000000000
     26773       865  ECLIPA    H713S          34.7762919261       -2.3633894962        2.3191780194  LPSA25    1               0.0000000000
     26774       865  ECLIPA    C714           34.2653232106       -0.3553533322        1.8722793208  LPSA25    1               0.0000000000
     26775       865  ECLIPA    H714R          33.1745374804       -0.5519279386        1.7918962902  LPSA25    1               0.0000000000
     26776       865  ECLIPA    H714S          34.4178668917        0.6666126458        2.2535785830  LPSA25    1               0.0000000000
     26777       865  ECLIPA    H714T          34.7020047830       -0.4241730092        0.8551328123  LPSA25    1               0.0000000000
     26778       865  ECLIPA    C51            38.5046880437        0.9225367025       14.2327419250  LPSA25    1               0.0000000000
     26779       865  ECLIPA    O51            38.4198914934       -0.2812693571       14.0717441459  LPSA25    1               0.0000000000
     26780       865  ECLIPA    C52            38.3664376419        1.8644845797       13.0590603357  LPSA25    1               0.0000000000
     26781       865  ECLIPA    H52R           37.2984508636        2.1541513496       12.9453276737  LPSA25    1               0.0000000000
     26782       865  ECLIPA    H52S           38.9527685139        2.7759713381       13.2482039171  LPSA25    1               0.0000000000
     26783       865  ECLIPA    C53            38.8677394709        1.1818498147       11.7664787178  LPSA25    1               0.0000000000
     26784       865  ECLIPA    H53R           39.7169805885        0.4979348697       11.9916464052  LPSA25    1               0.0000000000
     26785       865  ECLIPA    O53            39.2306397096        2.2338530422       10.8570478215  LPSA25    1               0.0000000000
     26786       865  ECLIPA    C61            40.4923789473        2.4243267349       10.5414740413  LPSA25    1               0.0000000000
     26787       865  ECLIPA    O61            41.4408975153        1.6999170179       10.8037034388  LPSA25    1               0.0000000000
     26788       865  ECLIPA    C62            40.6255343823        3.6239742187        9.5951341920  LPSA25    1               0.0000000000
     26789       865  ECLIPA    H62R           40.6549165020        4.5444114065       10.2093199322  LPSA25    1               0.0000000000
     26790       865  ECLIPA    H62S           39.6891406066        3.6652791217        9.0070535026  LPSA25    1               0.0000000000
     26791       865  ECLIPA    C63            41.9058492243        3.5216282776        8.7083669209  LPSA25    1               0.0000000000
     26792       865  ECLIPA    H63R           41.9337697214        2.5026822272        8.2674199017  LPSA25    1               0.0000000000
     26793       865  ECLIPA    H63S           42.8124637590        3.6911896814        9.3331720611  LPSA25    1               0.0000000000
     26794       865  ECLIPA    C64            41.9710134748        4.4903789313        7.5108255062  LPSA25    1               0.0000000000
     26795       865  ECLIPA    H64R           42.9474777476        4.3956281178        6.9823659644  LPSA25    1               0.0000000000
     26796       865  ECLIPA    H64S           41.8891018609        5.5203958764        7.9234601704  LPSA25    1               0.0000000000
     26797       865  ECLIPA    C65            40.8217575456        4.2241244368        6.5291543406  LPSA25    1               0.0000000000
     26798       865  ECLIPA    H65R           39.9086638838        4.4107349895        7.1375941610  LPSA25    1               0.0000000000
     26799       865  ECLIPA    H65S           40.8200061560        3.1580245135        6.2173776731  LPSA25    1               0.0000000000
     26800       865  ECLIPA    C66            40.7122822222        5.0933212691        5.2598430697  LPSA25    1               0.0000000000
     26801       865  ECLIPA    H66R           40.6513699338        6.1644172949        5.5499978942  LPSA25    1               0.0000000000
     26802       865  ECLIPA    H66S           39.7415351624        4.8007436059        4.7929939656  LPSA25    1               0.0000000000
     26803       865  ECLIPA    C67            41.7876203355        4.9335396115        4.1663038448  LPSA25    1               0.0000000000
     26804       865  ECLIPA    H67R           42.8143163380        5.0637358021        4.5740760172  LPSA25    1               0.0000000000
     26805       865  ECLIPA    H67S           41.6372702968        5.7039823922        3.3728018850  LPSA25    1               0.0000000000
     26806       865  ECLIPA    C68            41.8179639252        3.5648108632        3.4931870211  LPSA25    1               0.0000000000
     26807       865  ECLIPA    H68R           40.8291289100        3.2471256776        3.0878851184  LPSA25    1               0.0000000000
     26808       865  ECLIPA    H68S           42.1229783373        2.8521752359        4.2901234778  LPSA25    1               0.0000000000
     26809       865  ECLIPA    C69            42.8242125494        3.5655365466        2.3334655048  LPSA25    1               0.0000000000
     26810       865  ECLIPA    H69R           43.6246419038        4.3195415423        2.4311929719  LPSA25    1               0.0000000000
     26811       865  ECLIPA    H69S           42.3239508621        3.9255120378        1.4501914812  LPSA25    1               0.0000000000
     26812       865  ECLIPA    C610           43.3595212739        2.1780014939        1.9792628065  LPSA25    1               0.0000000000
     26813       865  ECLIPA    H610R          42.5017668721        1.4638305112        2.0076079973  LPSA25    1               0.0000000000
     26814       865  ECLIPA    H610S          44.0803201221        1.9245679117        2.7678977815  LPSA25    1               0.0000000000
     26815       865  ECLIPA    C611           44.1836024435        2.1062674672        0.6842891079  LPSA25    1               0.0000000000
     26816       865  ECLIPA    H611R          44.8605969302        2.9966634926        0.6241151609  LPSA25    1               0.0000000000
     26817       865  ECLIPA    H611S          44.7142100230        1.1701682094        0.4949752920  LPSA25    1               0.0000000000
     26818       865  ECLIPA    C612           43.3430616030        2.1813522168       -0.4902158993  LPSA25    1               0.0000000000
     26819       865  ECLIPA    H612R          42.4907404059        1.4583886400       -0.5808145744  LPSA25    1               0.0000000000
     26820       865  ECLIPA    H612S          43.0753596785        3.2202207970       -0.2319461674  LPSA25    1               0.0000000000
     26821       865  ECLIPA    H612T          43.6980768766        2.4682401204       -1.4358143019  LPSA25    1               0.0000000000
     26822       865  ECLIPA    C54            37.6857527665        0.3673771041       11.1691311574  LPSA25    1               0.0000000000
     26823       865  ECLIPA    H54R           36.8930588747        1.0890259859       10.8782805880  LPSA25    1               0.0000000000
     26824       865  ECLIPA    H54S           37.2780670150       -0.2777819700       11.9756279671  LPSA25    1               0.0000000000
     26825       865  ECLIPA    C55            38.0060283322       -0.5383892807        9.9637288293  LPSA25    1               0.0000000000
     26826       865  ECLIPA    H55R           37.1919844089       -1.2809955122        9.8240213912  LPSA25    1               0.0000000000
     26827       865  ECLIPA    H55S           38.9158194295       -1.1313143086       10.2014650412  LPSA25    1               0.0000000000
     26828       865  ECLIPA    C56            38.1175436143        0.3091194008        8.6900946182  LPSA25    1               0.0000000000
     26829       865  ECLIPA    H56R           38.8822161064        1.0899509966        8.8603769019  LPSA25    1               0.0000000000
     26830       865  ECLIPA    H56S           37.1508661025        0.8303711951        8.5057834682  LPSA25    1               0.0000000000
     26831       865  ECLIPA    C57            38.5510830184       -0.3870862080        7.4030160137  LPSA25    1               0.0000000000
     26832       865  ECLIPA    H57R           37.9131789954       -1.2684676000        7.1802937785  LPSA25    1               0.0000000000
     26833       865  ECLIPA    H57S           39.5877665143       -0.7674491087        7.5394440919  LPSA25    1               0.0000000000
     26834       865  ECLIPA    C58            38.5457305767        0.6295471263        6.2411272230  LPSA25    1               0.0000000000
     26835       865  ECLIPA    H58R           37.6041622570        1.2159116128        6.2169506665  LPSA25    1               0.0000000000
     26836       865  ECLIPA    H58S           39.3497354645        1.3702960863        6.4605957228  LPSA25    1               0.0000000000
     26837       865  ECLIPA    C59            38.7409646345       -0.0477476370        4.8741298231  LPSA25    1               0.0000000000
     26838       865  ECLIPA    H59R           37.9559386521       -0.8236434690        4.7189523439  LPSA25    1               0.0000000000
     26839       865  ECLIPA    H59S           39.7165575598       -0.5749979376        4.9607893032  LPSA25    1               0.0000000000
     26840       865  ECLIPA    C510           38.6280514049        0.8895253243        3.6474646444  LPSA25    1               0.0000000000
     26841       865  ECLIPA    H510R          39.2094973935        1.8222281447        3.8186228329  LPSA25    1               0.0000000000
     26842       865  ECLIPA    H510S          37.5612511797        1.1842395994        3.5191561136  LPSA25    1               0.0000000000
     26843       865  ECLIPA    C511           39.0739845691        0.2454734146        2.3150815873  LPSA25    1               0.0000000000
     26844       865  ECLIPA    H511R          40.1845361860        0.3352123806        2.2631292111  LPSA25    1               0.0000000000
     26845       865  ECLIPA    H511S          38.8048030245       -0.8252063473        2.2641932990  LPSA25    1               0.0000000000
     26846       865  ECLIPA    C512           38.4213617500        0.8228285850        1.0558179417  LPSA25    1               0.0000000000
     26847       865  ECLIPA    H512R          38.6444773243        0.2634862196        0.1161531160  LPSA25    1               0.0000000000
     26848       865  ECLIPA    H512S          37.3685285957        1.1553331020        1.1521583012  LPSA25    1               0.0000000000
     26849       865  ECLIPA    C513           39.0779133031        2.0478047775        0.6701167671  LPSA25    1               0.0000000000
     26850       865  ECLIPA    H513R          40.1501071018        1.7586746571        0.6944349086  LPSA25    1               0.0000000000
     26851       865  ECLIPA    H513S          39.0359143316        2.6697020739        1.6032999435  LPSA25    1               0.0000000000
     26852       865  ECLIPA    C514           38.5063962455        2.5603855780       -0.7324205245  LPSA25    1               0.0000000000
     26853       865  ECLIPA    H514R          37.5888988500        3.0732738380       -0.8312725332  LPSA25    1               0.0000000000
     26854       865  ECLIPA    H514S          38.8076138681        3.5486175009       -1.1109131525  LPSA25    1               0.0000000000
     26855       865  ECLIPA    H514T          38.8572147974        2.0194947947       -1.6203229937  LPSA25    1               0.0000000000
     26856       865  ECLIPA    C33            41.9635485453        4.8156657741       14.4647899649  LPSA25    1               0.0000000000
     26857       865  ECLIPA    H33R           42.0846312465        5.8581449189       14.8589916562  LPSA25    1               0.0000000000
     26858       865  ECLIPA    O33            41.2665188489        4.0628463298       15.4435901438  LPSA25    1               0.0000000000
     26859       865  ECLIPA    HO33           41.6174241684        4.2507486931       16.3185139020  LPSA25    1               0.0000000000
     26860       865  ECLIPA    C34            41.0892503711        4.8948076869       13.2036794368  LPSA25    1               0.0000000000
     26861       865  ECLIPA    H34R           40.9321234687        3.8679072012       12.8165621865  LPSA25    1               0.0000000000
     26862       865  ECLIPA    H34S           41.6181266455        5.4742163889       12.4154732604  LPSA25    1               0.0000000000
     26863       865  ECLIPA    C35            39.7180384400        5.5446275214       13.4342342678  LPSA25    1               0.0000000000
     26864       865  ECLIPA    H35R           39.8030167523        6.6049908494       13.7464598821  LPSA25    1               0.0000000000
     26865       865  ECLIPA    H35S           39.2026925295        4.9951768071       14.2596325595  LPSA25    1               0.0000000000
     26866       865  ECLIPA    C36            38.8953944838        5.4626636816       12.1605190929  LPSA25    1               0.0000000000
     26867       865  ECLIPA    H36R           39.1956301166        4.5674548925       11.6097470589  LPSA25    1               0.0000000000
     26868       865  ECLIPA    H36S           38.9533382608        6.3772521773       11.5148435042  LPSA25    1               0.0000000000
     26869       865  ECLIPA    C37            37.4938266440        5.0677491006       12.4806764904  LPSA25    1               0.0000000000
     26870       865  ECLIPA    H37R           37.1603486061        6.0628847586       12.7312873128  LPSA25    1               0.0000000000
     26871       865  ECLIPA    H37S           37.4146461580        4.6550020858       13.4945399040  LPSA25    1               0.0000000000
     26872       865  ECLIPA    C38            36.6979591211        4.3064079785       11.3601733390  LPSA25    1               0.0000000000
     26873       865  ECLIPA    H38R           36.7808874886        3.2266538843       11.3621387552  LPSA25    1               0.0000000000
     26874       865  ECLIPA    H38S           35.5990796936        4.2938669950       11.4714250951  LPSA25    1               0.0000000000
     26875       865  ECLIPA    C39            36.9026502347        4.9733894287       10.0057882682  LPSA25    1               0.0000000000
     26876       865  ECLIPA    H39R           37.9677811778        5.0106983921        9.7635614222  LPSA25    1               0.0000000000
     26877       865  ECLIPA    H39S           36.6154651631        6.0238041972        9.9755858370  LPSA25    1               0.0000000000
     26878       865  ECLIPA    C310           36.1131744855        4.4072236028        8.8713249999  LPSA25    1               0.0000000000
     26879       865  ECLIPA    H310R          35.0662921344        4.7702785940        8.9361095441  LPSA25    1               0.0000000000
     26880       865  ECLIPA    H310S          36.1006577675        3.3037903101        8.9270530030  LPSA25    1               0.0000000000
     26881       865  ECLIPA    C311           36.8544093232        4.8286493637        7.6097203108  LPSA25    1               0.0000000000
     26882       865  ECLIPA    H311R          37.1618580065        5.8875818781        7.6065763783  LPSA25    1               0.0000000000
     26883       865  ECLIPA    H311S          37.6911223173        4.1320439682        7.4200447246  LPSA25    1               0.0000000000
     26884       865  ECLIPA    C312           36.0558449933        4.6274397094        6.4062373647  LPSA25    1               0.0000000000
     26885       865  ECLIPA    H312R          35.5007935287        3.7131223668        6.7451181603  LPSA25    1               0.0000000000
     26886       865  ECLIPA    H312S          35.4102451238        5.5311702053        6.3004818627  LPSA25    1               0.0000000000
     26887       865  ECLIPA    C313           36.7957425885        4.4019059752        5.0708090454  LPSA25    1               0.0000000000
     26888       865  ECLIPA    H313R          37.1266013770        5.4158427162        4.7723073564  LPSA25    1               0.0000000000
     26889       865  ECLIPA    H313S          37.5953248268        3.6559063436        5.2299530948  LPSA25    1               0.0000000000
     26890       865  ECLIPA    C314           36.0922536703        3.8630071792        3.8444754835  LPSA25    1               0.0000000000
     26891       865  ECLIPA    H314R          35.3253739970        4.5929047261        3.4679348846  LPSA25    1               0.0000000000
     26892       865  ECLIPA    H314S          36.6953011791        3.5685623147        3.0077663245  LPSA25    1               0.0000000000
     26893       865  ECLIPA    H314T          35.6459544393        2.8730032596        4.0857432427  LPSA25    1               0.0000000000
     26894       865  ECLIPA    C11            42.8695937561       -1.0500357585       11.2901925449  LPSA25    1               0.0000000000
     26895       865  ECLIPA    O11            41.7023527410       -1.2715560426       11.0858339685  LPSA25    1               0.0000000000
     26896       865  ECLIPA    C12            43.8980921634       -1.6558427256       10.3352206682  LPSA25    1               0.0000000000
     26897       865  ECLIPA    H12R           44.0205359398       -2.7268915567       10.5166561370  LPSA25    1               0.0000000000
     26898       865  ECLIPA    H12S           44.9173092417       -1.3892932012       10.6583235438  LPSA25    1               0.0000000000
     26899       865  ECLIPA    C13            43.5453849343       -1.3612000765        8.8225822362  LPSA25    1               0.0000000000
     26900       865  ECLIPA    H13R           42.4968663363       -1.6765164367        8.6066750186  LPSA25    1               0.0000000000
     26901       865  ECLIPA    O13            44.4608225615       -2.1388220346        8.1094301217  LPSA25    1               0.0000000000
     26902       865  ECLIPA    HO13           44.0963857947       -2.5594204487        7.3081575857  LPSA25    1               0.0000000000
     26903       865  ECLIPA    C14            43.6897732361        0.1075708642        8.2715304372  LPSA25    1               0.0000000000
     26904       865  ECLIPA    H14R           44.6992924806        0.5919200742        8.3532925118  LPSA25    1               0.0000000000
     26905       865  ECLIPA    H14S           42.8597210772        0.7177583903        8.6942608281  LPSA25    1               0.0000000000
     26906       865  ECLIPA    C15            43.9157374530        0.3915223868        6.8360007798  LPSA25    1               0.0000000000
     26907       865  ECLIPA    H15R           44.7887036431       -0.2228734193        6.4990170891  LPSA25    1               0.0000000000
     26908       865  ECLIPA    H15S           44.2184536432        1.4730435285        6.7245244200  LPSA25    1               0.0000000000
     26909       865  ECLIPA    C16            42.6318819627        0.1080119132        6.1415668435  LPSA25    1               0.0000000000
     26910       865  ECLIPA    H16R           41.9420729670        0.9702719760        6.2548147017  LPSA25    1               0.0000000000
     26911       865  ECLIPA    H16S           42.1312323559       -0.7596463595        6.6232110711  LPSA25    1               0.0000000000
     26912       865  ECLIPA    C17            42.9493878433       -0.1418784421        4.6930771902  LPSA25    1               0.0000000000
     26913       865  ECLIPA    H17R           43.6818753338        0.6362025274        4.3770037519  LPSA25    1               0.0000000000
     26914       865  ECLIPA    H17S           42.0435976194       -0.0293127050        4.0705886389  LPSA25    1               0.0000000000
     26915       865  ECLIPA    C18            43.5613383209       -1.5188789850        4.4718162321  LPSA25    1               0.0000000000
     26916       865  ECLIPA    H18R           44.4775347733       -1.6016685554        5.0884594656  LPSA25    1               0.0000000000
     26917       865  ECLIPA    H18S           42.8429500153       -2.3126706110        4.7841959381  LPSA25    1               0.0000000000
     26918       865  ECLIPA    C19            43.9376633151       -1.7037904257        3.0162261622  LPSA25    1               0.0000000000
     26919       865  ECLIPA    H19R           44.4987525429       -2.6617537019        2.9217673713  LPSA25    1               0.0000000000
     26920       865  ECLIPA    H19S           44.6218363278       -0.9007293057        2.6678066531  LPSA25    1               0.0000000000
     26921       865  ECLIPA    C110           42.6996138409       -1.6125610648        2.1219956962  LPSA25    1               0.0000000000
     26922       865  ECLIPA    H110R          41.9707067054       -2.4182120362        2.4279708934  LPSA25    1               0.0000000000
     26923       865  ECLIPA    H110S          42.1613242422       -0.6660097277        2.2083491003  LPSA25    1               0.0000000000
     26924       865  ECLIPA    C111           43.1216675628       -1.6878194453        0.6496201225  LPSA25    1               0.0000000000
     26925       865  ECLIPA    H111R          44.0307419609       -1.1825559494        0.3254349709  LPSA25    1               0.0000000000
     26926       865  ECLIPA    H111S          43.7739176162       -2.5352961179        0.5798811312  LPSA25    1               0.0000000000
     26927       865  ECLIPA    C112           41.9117115432       -1.8191201881       -0.2958044964  LPSA25    1               0.0000000000
     26928       865  ECLIPA    H112R          41.2894147081       -2.6448138219        0.1391761705  LPSA25    1               0.0000000000
     26929       865  ECLIPA    H112S          41.2524547142       -0.9556905077       -0.1904948786  LPSA25    1               0.0000000000
     26930       865  ECLIPA    C113           42.2668791297       -1.8933680883       -1.8135913249  LPSA25    1               0.0000000000
     26931       865  ECLIPA    H113R          42.9419644115       -1.0935745124       -2.0552633211  LPSA25    1               0.0000000000
     26932       865  ECLIPA    H113S          43.0946393419       -2.5024551820       -2.1668484321  LPSA25    1               0.0000000000
     26933       865  ECLIPA    C114           41.1921607207       -2.3961664288       -2.7750780036  LPSA25    1               0.0000000000
     26934       865  ECLIPA    H114R          40.6258295605       -3.2954930042       -2.4909184923  LPSA25    1               0.0000000000
     26935       865  ECLIPA    H114S          40.5991728308       -1.5685405437       -3.1382567330  LPSA25    1               0.0000000000
     26936       865  ECLIPA    H114T          41.6171762905       -2.9202744374       -3.6354694214  LPSA25    1               0.0000000000
     26937       866  AKDO      C1             37.3471741765        1.8751892889       22.3803948025  LPSA25    2               0.0000000000
     26938       866  AKDO      O11            36.1057837216        1.9958828768       22.3935785623  LPSA25    2               0.0000000000
     26939       866  AKDO      O12            38.2234762207        2.7434296443       22.0778142364  LPSA25    2               0.0000000000
     26940       866  AKDO      C2             37.8784992747        0.5066885167       22.9005449972  LPSA25    2               0.0000000000
     26941       866  AKDO      C6             37.4887469932       -1.6575072855       23.8270251187  LPSA25    2               0.0000000000
     26942       866  AKDO      H6             38.0372358754       -2.0687947380       22.9409041769  LPSA25    2               0.0000000000
     26943       866  AKDO      O6             36.9118657434       -0.4207844233       23.3771043013  LPSA25    2               0.0000000000
     26944       866  AKDO      C3             38.7722759894        0.6892298035       24.1103417619  LPSA25    2               0.0000000000
     26945       866  AKDO      H31            38.5069731385        1.3376962992       24.9409668029  LPSA25    2               0.0000000000
     26946       866  AKDO      H32            39.3551642321        1.4959775175       23.6230226470  LPSA25    2               0.0000000000
     26947       866  AKDO      C4             39.4515944884       -0.6479212029       24.5957993685  LPSA25    2               0.0000000000
     26948       866  AKDO      H4             39.7729567366       -1.3294161176       23.7283630816  LPSA25    2               0.0000000000
     26949       866  AKDO      O4             40.6672990899       -0.3129548432       25.4366509896  LPSA25    2               0.0000000000
     26950       866  AKDO      C5             38.4353125940       -1.5470280164       25.0346368923  LPSA25    2               0.0000000000
     26951       866  AKDO      H5             38.8569978802       -2.5831934027       25.1002595259  LPSA25    2               0.0000000000
     26952       866  AKDO      O5             38.1683400182       -0.9170048247       26.2937963537  LPSA25    2               0.0000000000
     26953       866  AKDO      C7             36.4002436931       -2.6000884906       24.1283181589  LPSA25    2               0.0000000000
     26954       866  AKDO      H7             35.9716497607       -2.1468565181       25.0294856389  LPSA25    2               0.0000000000
     26955       866  AKDO      O7             36.9410399117       -3.9045320819       24.3789539527  LPSA25    2               0.0000000000
     26956       866  AKDO      HO7            36.9765837614       -4.3165799071       23.5171276543  LPSA25    2               0.0000000000
     26957       866  AKDO      C8             35.4038130872       -2.6329428442       23.0055818076  LPSA25    2               0.0000000000
     26958       866  AKDO      H81            35.0524839953       -1.5783869136       22.8485245183  LPSA25    2               0.0000000000
     26959       866  AKDO      H82            35.9325565336       -2.9426833208       22.0743465030  LPSA25    2               0.0000000000
     26960       866  AKDO      O8             34.2670236003       -3.4894311453       23.2758233370  LPSA25    2               0.0000000000
     26961       866  AKDO      HO8            33.5639359486       -2.9344293078       22.9321049502  LPSA25    2               0.0000000000
     26962       867  AKDO      C1             42.9641420508       -1.0787795114       24.1811429708  LPSA25    3               1.0000000000
     26963       867  AKDO      O11            43.2754481634       -0.5827062497       23.1104712331  LPSA25    3               1.0000000000
     26964       867  AKDO      O12            43.1361624361       -2.2873055105       24.4588157436  LPSA25    3               1.0000000000
     26965       867  AKDO      C2             42.1298394749       -0.1265217724       25.1310731886  LPSA25    3               1.0000000000
     26966       867  AKDO      C6             41.8846805951        2.1348013882       25.8193790745  LPSA25    3               1.0000000000
     26967       867  AKDO      H6             40.7794031396        2.0202389648       25.7804970032  LPSA25    3               1.0000000000
     26968       867  AKDO      O6             42.4460509153        1.2595067265       24.8837022563  LPSA25    3               1.0000000000
     26969       867  AKDO      C3             42.7322920486       -0.3704922149       26.3177854834  LPSA25    3               1.0000000000
     26970       867  AKDO      H31            43.7829073390       -0.4285580721       26.2249430323  LPSA25    3               1.0000000000
     26971       867  AKDO      H32            42.3646173764       -1.3383960998       26.4307559182  LPSA25    3               1.0000000000
     26972       867  AKDO      C4             42.3162911397        0.2861108908       27.3938623383  LPSA25    3               1.0000000000
     26973       867  AKDO      H4             41.4750402117       -0.3073583150       27.6541488867  LPSA25    3               1.0000000000
     26974       867  AKDO      O4             42.8312096234       -0.2881821015       28.4595264881  LPSA25    3               1.0000000000
     26975       867  AKDO      HO4            42.1287064766       -0.1999312997       29.1307857694  LPSA25    3               1.0000000000
     26976       867  AKDO      C5             42.5663555046        1.6909890941       27.1684161066  LPSA25    3               1.0000000000
     26977       867  AKDO      H5             42.1089362168        2.3038636509       27.9526953375  LPSA25    3               1.0000000000
     26978       867  AKDO      O5             43.9641122525        1.6776807454       27.3156039336  LPSA25    3               1.0000000000
     26979       867  AKDO      HO5            44.3639340997        1.2009710676       26.5507565403  LPSA25    3               1.0000000000
     26980       867  AKDO      C7             41.9720121063        3.5369645888       25.2421551072  LPSA25    3               1.0000000000
     26981       867  AKDO      H7             42.8086804475        3.8773010735       24.6307186334  LPSA25    3               1.0000000000
     26982       867  AKDO      O7             42.1212690199        4.3721715858       26.4673640857  LPSA25    3               1.0000000000
     26983       867  AKDO      HO7            41.7800043180        5.2998605952       26.4916759233  LPSA25    3               1.0000000000
     26984       867  AKDO      C8             41.0867931256        3.7608211679       23.9257666850  LPSA25    3               1.0000000000
     26985       867  AKDO      H81            41.1791614710        3.2616356752       23.0341367065  LPSA25    3               1.0000000000
     26986       867  AKDO      H82            40.0136028125        3.4919411575       24.0118693589  LPSA25    3               1.0000000000
     26987       867  AKDO      O8             41.3318398395        5.0688849694       23.4316925404  LPSA25    3               1.0000000000
     26988       867  AKDO      HO8            42.2195741151        5.1067340387       23.0997411976  LPSA25    3               1.0000000000
     26989       868  AHEP      C1             37.7722262504       -1.8007565208       27.2910627668  LPSA25    4               2.0000000000
     26990       868  AHEP      H1             36.7815747576       -2.1089385098       26.9291004787  LPSA25    4               2.0000000000
     26991       868  AHEP      C5             39.6799644304       -2.8888691406       28.0624875761  LPSA25    4               2.0000000000
     26992       868  AHEP      H5             40.2305715130       -1.9639143429       27.7485311529  LPSA25    4               2.0000000000
     26993       868  AHEP      O5             38.4832330450       -3.0202348390       27.3398789911  LPSA25    4               2.0000000000
     26994       868  AHEP      C2             37.5564611366       -1.3372758137       28.7383098342  LPSA25    4               2.0000000000
     26995       868  AHEP      H2             37.0666596301       -0.3498266954       28.6907807875  LPSA25    4               2.0000000000
     26996       868  AHEP      O2             36.6754539132       -2.2432790488       29.3935434750  LPSA25    4               2.0000000000
     26997       868  AHEP      HO2            36.0828382097       -1.7412796383       29.9413815922  LPSA25    4               2.0000000000
     26998       868  AHEP      C3             38.8325150844       -1.1772109796       29.5618050341  LPSA25    4               2.0000000000
     26999       868  AHEP      H3             39.5071524367       -0.4104283904       29.1802884155  LPSA25    4               2.0000000000
     27000       868  AHEP      O3             38.5915406048       -0.8529151181       30.9430765044  LPSA25    4               2.0000000000
     27001       868  AHEP      C4             39.4847988297       -2.5284938495       29.5019662371  LPSA25    4               2.0000000000
     27002       868  AHEP      H4             38.8855228291       -3.3176504291       29.9859828053  LPSA25    4               2.0000000000
     27003       868  AHEP      O4             40.7948105065       -2.5223023977       29.9931260431  LPSA25    4               2.0000000000
     27004       868  AHEP      P4             41.1044560904       -3.3811307852       31.3637844806  LPSA25    4               2.0000000000
     27005       868  AHEP      OP42           42.3965262161       -2.6695830419       31.6382607354  LPSA25    4               2.0000000000
     27006       868  AHEP      OP43           41.3618801775       -4.9128007639       31.3073339742  LPSA25    4               2.0000000000
     27007       868  AHEP      OP44           39.9490169184       -3.3043689914       32.3466713027  LPSA25    4               2.0000000000
     27008       868  AHEP      C6             40.3682117366       -4.2256971011       27.8243124672  LPSA25    4               2.0000000000
     27009       868  AHEP      H6             41.4049445800       -3.8070884955       28.0542843685  LPSA25    4               2.0000000000
     27010       868  AHEP      O6             39.8754094149       -5.2057472039       28.7779909882  LPSA25    4               2.0000000000
     27011       868  AHEP      HO6            40.6267608418       -5.5212820466       29.2937137842  LPSA25    4               2.0000000000
     27012       868  AHEP      C7             40.4561274153       -5.0294154352       26.4417331670  LPSA25    4               2.0000000000
     27013       868  AHEP      H71            41.2905899800       -5.6845689052       26.4360844827  LPSA25    4               2.0000000000
     27014       868  AHEP      H72            40.8112689055       -4.6882844651       25.4730503067  LPSA25    4               2.0000000000
     27015       868  AHEP      O7             39.3139491296       -5.5648902662       25.8857542169  LPSA25    4               2.0000000000
     27016       868  AHEP      HO7            39.2090570349       -6.3294647214       26.4510404787  LPSA25    4               2.0000000000
     27017       869  AHEP      C1             38.9837060681        0.4137332441       31.4352756946  LPSA25    5               3.0000000000
     27018       869  AHEP      H1             39.9799655396        0.6786764121       31.0024039982  LPSA25    5               3.0000000000
     27019       869  AHEP      C5             36.7750010656        1.0371950636       31.9382992280  LPSA25    5               3.0000000000
     27020       869  AHEP      H5             36.4898845195        0.0174484818       31.5879378541  LPSA25    5               3.0000000000
     27021       869  AHEP      O5             37.9922837893        1.3926845435       31.2565994513  LPSA25    5               3.0000000000
     27022       869  AHEP      C2             39.0456240661        0.3505079584       32.9562654533  LPSA25    5               3.0000000000
     27023       869  AHEP      H2             39.2811387049       -0.6355305060       33.2177066601  LPSA25    5               3.0000000000
     27024       869  AHEP      O2             39.9169090342        1.3418875857       33.5416273268  LPSA25    5               3.0000000000
     27025       869  AHEP      HO2            40.8148573131        0.9825432624       33.5150238552  LPSA25    5               3.0000000000
     27026       869  AHEP      C3             37.8627096995       -0.1030422100       33.7673120629  LPSA25    5               3.0000000000
     27027       869  AHEP      H3             37.5018772983       -1.0959405663       33.3370105965  LPSA25    5               3.0000000000
     27028       869  AHEP      O3             38.1064115199       -0.3215890565       35.1902583170  LPSA25    5               3.0000000000
     27029       869  AHEP      C4             36.9462556020        0.9441256645       33.4470681434  LPSA25    5               3.0000000000
     27030       869  AHEP      H4             37.4033446377        1.8924712536       33.8370364433  LPSA25    5               3.0000000000
     27031       869  AHEP      O4             35.7255873159        0.5508808176       34.0648531670  LPSA25    5               3.0000000000
     27032       869  AHEP      P4             35.1480527343        1.4783562629       35.3097298832  LPSA25    5               3.0000000000
     27033       869  AHEP      OP42           33.9165187880        0.7600291005       35.8361843594  LPSA25    5               3.0000000000
     27034       869  AHEP      OP43           34.6727012042        2.7797671700       34.6692094547  LPSA25    5               3.0000000000
     27035       869  AHEP      OP44           36.2846527321        1.6348133922       36.3203938178  LPSA25    5               3.0000000000
     27036       869  AHEP      C6             35.7335287645        2.0564854302       31.5670257829  LPSA25    5               3.0000000000
     27037       869  AHEP      H6             34.7876829168        1.7392784090       32.0544418603  LPSA25    5               3.0000000000
     27038       869  AHEP      O6             36.0903416940        3.3901101564       32.0225047841  LPSA25    5               3.0000000000
     27039       869  AHEP      HO6            36.7634642001        3.7090967182       31.4385350422  LPSA25    5               3.0000000000
     27040       869  AHEP      C7             35.4913491396        2.0100339123       30.0788594137  LPSA25    5               3.0000000000
     27041       869  AHEP      H71            34.4107839777        2.1777144365       29.9049271378  LPSA25    5               3.0000000000
     27042       869  AHEP      H72            35.7194658710        1.0257714643       29.6211988884  LPSA25    5               3.0000000000
     27043       869  AHEP      O7             36.1577545365        3.0896020123       29.4524797299  LPSA25    5               3.0000000000
     27044       870  AHEP      C1             37.3053589149        2.7005566695       28.7865963817  LPSA25    6               4.0000000000
     27045       870  AHEP      H1             37.6254622157        1.6700567558       29.0296279574  LPSA25    6               4.0000000000
     27046       870  AHEP      C5             36.8126130369        4.1235121591       26.9895861116  LPSA25    6               4.0000000000
     27047       870  AHEP      H5             35.8565052733        4.3832415887       27.4502905927  LPSA25    6               4.0000000000
     27048       870  AHEP      O5             37.1382336133        2.7787400393       27.3747899356  LPSA25    6               4.0000000000
     27049       870  AHEP      C2             38.4102436742        3.6110360653       29.2070687548  LPSA25    6               4.0000000000
     27050       870  AHEP      H2             38.5654236170        3.4921169535       30.2985677915  LPSA25    6               4.0000000000
     27051       870  AHEP      O2             39.5381824392        3.1954828679       28.5145079362  LPSA25    6               4.0000000000
     27052       870  AHEP      HO2            40.0953732072        2.9300548897       29.2382311864  LPSA25    6               4.0000000000
     27053       870  AHEP      C3             38.1912229523        5.0445823521       28.9607341711  LPSA25    6               4.0000000000
     27054       870  AHEP      H3             37.3851252118        5.4082601799       29.5378776572  LPSA25    6               4.0000000000
     27055       870  AHEP      O3             39.2846753647        5.9154336157       29.3550987793  LPSA25    6               4.0000000000
     27056       870  AHEP      HO3            38.9753550692        6.5757972029       29.9720870169  LPSA25    6               4.0000000000
     27057       870  AHEP      C4             37.9350317187        5.0010412104       27.5325995701  LPSA25    6               4.0000000000
     27058       870  AHEP      H4             38.7380998012        4.5971181471       27.1408397685  LPSA25    6               4.0000000000
     27059       870  AHEP      O4             38.1114792510        6.2287516933       27.0472253812  LPSA25    6               4.0000000000
     27060       870  AHEP      HO4            37.1488952035        6.3378571893       27.1099939655  LPSA25    6               4.0000000000
     27061       870  AHEP      C6             36.5316930114        4.2032661237       25.5018296413  LPSA25    6               4.0000000000
     27062       870  AHEP      H6             36.0141349181        5.1794763517       25.2906825480  LPSA25    6               4.0000000000
     27063       870  AHEP      O6             37.6037048141        4.0755947318       24.6001622640  LPSA25    6               4.0000000000
     27064       870  AHEP      HO6            37.3387759890        3.3735041978       23.9752340917  LPSA25    6               4.0000000000
     27065       870  AHEP      C7             35.5615403933        3.1424189449       25.1481156412  LPSA25    6               4.0000000000
     27066       870  AHEP      H71            35.3734847930        3.2772949113       24.1073695140  LPSA25    6               4.0000000000
     27067       870  AHEP      H72            34.8063101398        3.4303795180       25.7768385478  LPSA25    6               4.0000000000
     27068       870  AHEP      O7             35.6127438141        1.7499369974       25.3664634117  LPSA25    6               4.0000000000
     27069       870  AHEP      HO7            35.5053807837        1.6593320972       26.3050970714  LPSA25    6               4.0000000000
     27070       871  AGLC      C1             38.2998786065       -1.6276412696       35.6836853044  LPSA25    7               4.0000000000
     27071       871  AGLC      H1             37.7095652874       -2.3880476426       35.1552908831  LPSA25    7               4.0000000000
     27072       871  AGLC      C5             40.4429109066       -1.0917428072       36.1007686337  LPSA25    7               4.0000000000
     27073       871  AGLC      H5             40.3308971266       -0.0158414971       35.8627476288  LPSA25    7               4.0000000000
     27074       871  AGLC      O5             39.5783183414       -1.9272922313       35.3912877469  LPSA25    7               4.0000000000
     27075       871  AGLC      C2             38.1763480050       -1.8057465620       37.1876958686  LPSA25    7               4.0000000000
     27076       871  AGLC      H2             38.5791388886       -2.8215583804       37.4396679466  LPSA25    7               4.0000000000
     27077       871  AGLC      O2             36.8215671120       -1.8134111349       37.5564383085  LPSA25    7               4.0000000000
     27078       871  AGLC      HO2            36.5677541615       -0.8641547101       37.5915146280  LPSA25    7               4.0000000000
     27079       871  AGLC      C3             39.0323984263       -0.8707624568       37.9957109978  LPSA25    7               4.0000000000
     27080       871  AGLC      H3             38.8807027471        0.1670952927       37.6220357490  LPSA25    7               4.0000000000
     27081       871  AGLC      O3             38.7681851688       -0.9258334848       39.4072780591  LPSA25    7               4.0000000000
     27082       871  AGLC      C4             40.4067036689       -1.2258514962       37.6519189352  LPSA25    7               4.0000000000
     27083       871  AGLC      H4             40.6384459503       -2.2972718264       37.9434507675  LPSA25    7               4.0000000000
     27084       871  AGLC      O4             41.3029975622       -0.3052910439       38.3369720860  LPSA25    7               4.0000000000
     27085       871  AGLC      HO4            42.0050375295       -0.8615379907       38.7072963079  LPSA25    7               4.0000000000
     27086       871  AGLC      C6             41.3999890124       -1.6190245201       35.1230465969  LPSA25    7               4.0000000000
     27087       871  AGLC      H61            42.3311417478       -1.2759881054       34.6405023690  LPSA25    7               4.0000000000
     27088       871  AGLC      H62            42.0379971415       -0.6798954317       35.3184787332  LPSA25    7               4.0000000000
     27089       871  AGLC      O6             41.7438381398       -3.0375257563       35.1303012445  LPSA25    7               4.0000000000
     27090       871  AGLC      HO6            42.3144276056       -3.2044648567       35.8933728159  LPSA25    7               4.0000000000
     27091       872  AGLC      C1             38.3888301642        0.3279342611       39.9276695823  LPSA25    8               5.0000000000
     27092       872  AGLC      H1             39.0308939903        1.1355499812       39.5099271021  LPSA25    8               5.0000000000
     27093       872  AGLC      C5             36.0156887711       -0.1957167473       40.2129799455  LPSA25    8               5.0000000000
     27094       872  AGLC      H5             36.2322086809       -1.2274858791       39.8768819223  LPSA25    8               5.0000000000
     27095       872  AGLC      O5             37.0229289188        0.6443358933       39.5954045142  LPSA25    8               5.0000000000
     27096       872  AGLC      C2             38.4716809653        0.4201744350       41.4468153144  LPSA25    8               5.0000000000
     27097       872  AGLC      H2             38.2159569415        1.4660607652       41.6939557362  LPSA25    8               5.0000000000
     27098       872  AGLC      O2             39.7051332818        0.2081389059       42.1056132677  LPSA25    8               5.0000000000
     27099       872  AGLC      C3             37.5505639953       -0.5212585319       42.1291676483  LPSA25    8               5.0000000000
     27100       872  AGLC      H3             37.8000991911       -1.5373556651       41.7180018222  LPSA25    8               5.0000000000
     27101       872  AGLC      O3             37.8541021515       -0.5076649158       43.5472653133  LPSA25    8               5.0000000000
     27102       872  AGLC      C4             36.1642588978       -0.1135684226       41.7297511340  LPSA25    8               5.0000000000
     27103       872  AGLC      H4             36.0310346694        0.9546442955       42.0308275349  LPSA25    8               5.0000000000
     27104       872  AGLC      O4             35.1861886617       -0.9095867266       42.3883032238  LPSA25    8               5.0000000000
     27105       872  AGLC      HO4            35.5412004786       -1.7936854688       42.4028793854  LPSA25    8               5.0000000000
     27106       872  AGLC      C6             34.5738705064        0.0841385337       39.7355094674  LPSA25    8               5.0000000000
     27107       872  AGLC      H61            34.5171538269        0.1756020229       38.6253588080  LPSA25    8               5.0000000000
     27108       872  AGLC      H62            33.9027465991       -0.7621766651       40.0163269988  LPSA25    8               5.0000000000
     27109       872  AGLC      O6             34.0098158775        1.2535144700       40.3243630406  LPSA25    8               5.0000000000
     27110       872  AGLC      HO6            33.6300704344        1.0321541120       41.1760850965  LPSA25    8               5.0000000000
     27111       873  AGAL      C1             40.7459064381        0.9498713205       41.5950042531  LPSA25    9               6.0000000000
     27112       873  AGAL      H1             40.7569025860        0.9546962093       40.4728495539  LPSA25    9               6.0000000000
     27113       873  AGAL      C5             40.9440543361        2.3914952779       43.3947325902  LPSA25    9               6.0000000000
     27114       873  AGAL      H5             40.2403340588        1.6926372060       43.8849918594  LPSA25    9               6.0000000000
     27115       873  AGAL      O5             40.5548115803        2.2944342084       42.0112167489  LPSA25    9               6.0000000000
     27116       873  AGAL      C2             42.2489581396        0.3248808085       41.8976091320  LPSA25    9               6.0000000000
     27117       873  AGAL      H2             43.0409709645        0.8780841397       41.4131173082  LPSA25    9               6.0000000000
     27118       873  AGAL      O2             43.0376944296       -0.8576011531       41.4687742287  LPSA25    9               6.0000000000
     27119       873  AGAL      C3             42.4120685983        0.4801384571       43.2816642567  LPSA25    9               6.0000000000
     27120       873  AGAL      H3             41.4757659008        0.0720318728       43.7580845077  LPSA25    9               6.0000000000
     27121       873  AGAL      O3             43.0475672658       -0.4772566359       43.9630098319  LPSA25    9               6.0000000000
     27122       873  AGAL      HO3            43.5441570201       -0.8658949148       43.2352433317  LPSA25    9               6.0000000000
     27123       873  AGAL      C4             42.4748714368        1.8686146645       43.7151624284  LPSA25    9               6.0000000000
     27124       873  AGAL      H4             43.0209108018        1.6388936077       44.6200807970  LPSA25    9               6.0000000000
     27125       873  AGAL      O4             43.6841454560        2.5832797693       43.4433629920  LPSA25    9               6.0000000000
     27126       873  AGAL      HO4            43.6437261338        3.5205108012       43.6905760425  LPSA25    9               6.0000000000
     27127       873  AGAL      C6             40.6287800960        3.8138893913       43.8693001653  LPSA25    9               6.0000000000
     27128       873  AGAL      H61            39.5914877097        4.1045179189       43.6126441359  LPSA25    9               6.0000000000
     27129       873  AGAL      H62            40.7098402551        3.8969073429       44.9640694715  LPSA25    9               6.0000000000
     27130       873  AGAL      O6             41.5150891744        4.8077333040       43.3843313860  LPSA25    9               6.0000000000
     27131       873  AGAL      HO6            41.0940071932        5.3138629392       42.6725330935  LPSA25    9               6.0000000000
     27132       874  AGAL      C1             43.0040788652       -2.2599420099       41.8289620855  LPSA25    10              7.0000000000
     27133       874  AGAL      H1             44.1483421929       -2.3284542858       41.9140317436  LPSA25    10              7.0000000000
     27134       874  AGAL      C5             40.8412738444       -2.9175746318       43.0847313767  LPSA25    10              7.0000000000
     27135       874  AGAL      H5             40.2643170932       -1.9888507837       42.8873931918  LPSA25    10              7.0000000000
     27136       874  AGAL      O5             42.3260858305       -2.7040543209       43.0624584408  LPSA25    10              7.0000000000
     27137       874  AGAL      C2             42.4761836436       -3.4162234252       40.8468497978  LPSA25    10              7.0000000000
     27138       874  AGAL      H2             43.0019059275       -4.3554499048       41.0865958185  LPSA25    10              7.0000000000
     27139       874  AGAL      O2             42.7927834809       -2.8129262597       39.5911069666  LPSA25    10              7.0000000000
     27140       874  AGAL      HO2            43.1279439337       -3.6233396719       39.1566169203  LPSA25    10              7.0000000000
     27141       874  AGAL      C3             40.9303169801       -3.7920473556       40.6494245421  LPSA25    10              7.0000000000
     27142       874  AGAL      H3             40.2017809869       -3.1432435642       40.1390381605  LPSA25    10              7.0000000000
     27143       874  AGAL      O3             40.5737170734       -4.7570982718       39.6569147508  LPSA25    10              7.0000000000
     27144       874  AGAL      HO3            40.1736166875       -4.1674953581       38.9957503242  LPSA25    10              7.0000000000
     27145       874  AGAL      C4             40.5241800744       -4.0744661331       42.0833096246  LPSA25    10              7.0000000000
     27146       874  AGAL      H4             39.4135138439       -4.1482311190       42.0994489881  LPSA25    10              7.0000000000
     27147       874  AGAL      O4             41.0951991811       -5.2870619078       42.5134518825  LPSA25    10              7.0000000000
     27148       874  AGAL      HO4            42.0350804769       -5.0720603164       42.6181224891  LPSA25    10              7.0000000000
     27149       874  AGAL      C6             40.0889273815       -3.0548116238       44.4204007021  LPSA25    10              7.0000000000
     27150       874  AGAL      H61            40.3350648005       -2.2325269295       45.1143654346  LPSA25    10              7.0000000000
     27151       874  AGAL      H62            39.0069654591       -2.9227359251       44.2435049485  LPSA25    10              7.0000000000
     27152       874  AGAL      O6             40.1821249021       -4.2914363741       45.0779135478  LPSA25    10              7.0000000000
     27153       874  AGAL      HO6            40.7515175890       -4.1382416153       45.8501393245  LPSA25    10              7.0000000000
     27154       875  BGLC      C1             37.1792582966        0.3166829752       44.4870908564  LPSA25    11              6.0000000000
     27155       875  BGLC      H1             36.1565975394       -0.0852672619       44.6286475132  LPSA25    11              6.0000000000
     27156       875  BGLC      C5             36.5826662678        2.6130950241       45.1142265611  LPSA25    11              6.0000000000
     27157       875  BGLC      H5             35.5255053250        2.3325492053       45.3460004903  LPSA25    11              6.0000000000
     27158       875  BGLC      O5             37.1914551764        1.7211378410       44.1284174929  LPSA25    11              6.0000000000
     27159       875  BGLC      C2             37.9695799951        0.1646754281       45.7906043870  LPSA25    11              6.0000000000
     27160       875  BGLC      H2             39.0216177435        0.4940149481       45.6257210684  LPSA25    11              6.0000000000
     27161       875  BGLC      O2             38.0110714284       -1.1999723839       46.1980556219  LPSA25    11              6.0000000000
     27162       875  BGLC      HO2            38.9186843221       -1.4987904763       46.2939748597  LPSA25    11              6.0000000000
     27163       875  BGLC      C3             37.4080813075        1.0255580513       46.9038827124  LPSA25    11              6.0000000000
     27164       875  BGLC      H3             36.3868662981        0.6701438499       47.1721598767  LPSA25    11              6.0000000000
     27165       875  BGLC      O3             38.2774624237        1.0140724157       48.0594822241  LPSA25    11              6.0000000000
     27166       875  BGLC      C4             37.4019548137        2.4613700640       46.4169438568  LPSA25    11              6.0000000000
     27167       875  BGLC      H4             38.4537030593        2.7367063001       46.1734366557  LPSA25    11              6.0000000000
     27168       875  BGLC      O4             36.9916213087        3.3562957177       47.4502679028  LPSA25    11              6.0000000000
     27169       875  BGLC      HO4            37.6472652159        3.3436256721       48.1616368944  LPSA25    11              6.0000000000
     27170       875  BGLC      C6             36.6019808020        4.0582738486       44.5508359008  LPSA25    11              6.0000000000
     27171       875  BGLC      H61            36.4169282239        4.8221892540       45.3330145206  LPSA25    11              6.0000000000
     27172       875  BGLC      H62            37.5346617111        4.2233693460       44.0041258071  LPSA25    11              6.0000000000
     27173       875  BGLC      O6             35.7068536531        4.4170114311       43.5303006454  LPSA25    11              6.0000000000
     27174       875  BGLC      HO6            34.8683734002        4.6491013960       43.9633104007  LPSA25    11              6.0000000000
     27175       876  BGLCNA    C1             37.7321430037        0.6452815625       49.3179892718  LPSA25    12              7.0000000000
     27176       876  BGLCNA    H1             37.6959520292       -0.4758228259       49.3706180268  LPSA25    12              7.0000000000
     27177       876  BGLCNA    C5             35.9595956458        0.7327767298       50.8780051125  LPSA25    12              7.0000000000
     27178       876  BGLCNA    H5             35.8979091875       -0.3808967097       50.9576683767  LPSA25    12              7.0000000000
     27179       876  BGLCNA    O5             36.4315010635        1.1126402378       49.5749347272  LPSA25    12              7.0000000000
     27180       876  BGLCNA    C2             38.6029190113        1.2619529860       50.4175590242  LPSA25    12              7.0000000000
     27181       876  BGLCNA    H2             38.5065701134        2.3565743135       50.3474013480  LPSA25    12              7.0000000000
     27182       876  BGLCNA    N              39.9230698106        1.0504920826       50.1625088433  LPSA25    12              7.0000000000
     27183       876  BGLCNA    HN             39.8578883969        0.0391150398       50.1686826446  LPSA25    12              7.0000000000
     27184       876  BGLCNA    C              41.0710778893        1.7687188843       49.8804441554  LPSA25    12              7.0000000000
     27185       876  BGLCNA    O              40.9218996351        2.9438694538       50.1383253216  LPSA25    12              7.0000000000
     27186       876  BGLCNA    CT             42.4773349504        1.1380741212       49.2756484639  LPSA25    12              7.0000000000
     27187       876  BGLCNA    HT1            43.4344789726        1.1542967060       49.8458742961  LPSA25    12              7.0000000000
     27188       876  BGLCNA    HT2            42.7458432898        1.4412789591       48.2850558527  LPSA25    12              7.0000000000
     27189       876  BGLCNA    HT3            42.7056510113        0.1076036604       49.0570956707  LPSA25    12              7.0000000000
     27190       876  BGLCNA    C3             38.2566919888        0.7780264770       51.8051067204  LPSA25    12              7.0000000000
     27191       876  BGLCNA    H3             38.2785481769       -0.3463271761       51.8108827517  LPSA25    12              7.0000000000
     27192       876  BGLCNA    O3             39.2193276550        1.1946711380       52.8054140832  LPSA25    12              7.0000000000
     27193       876  BGLCNA    C4             36.8710187284        1.2709654014       51.9820870051  LPSA25    12              7.0000000000
     27194       876  BGLCNA    H4             36.9179603601        2.3866806591       51.9064259339  LPSA25    12              7.0000000000
     27195       876  BGLCNA    O4             36.3822737444        0.9367987680       53.2592688055  LPSA25    12              7.0000000000
     27196       876  BGLCNA    HO4            36.2484913992       -0.0161118912       53.2932733547  LPSA25    12              7.0000000000
     27197       876  BGLCNA    C6             34.5759848846        1.3107202461       50.9330750412  LPSA25    12              7.0000000000
     27198       876  BGLCNA    H61            34.0809729454        1.0996384160       51.8868202357  LPSA25    12              7.0000000000
     27199       876  BGLCNA    H62            34.6284227706        2.4118127714       50.8051781598  LPSA25    12              7.0000000000
     27200       876  BGLCNA    O6             33.7453123450        0.8010440952       49.9077416443  LPSA25    12              7.0000000000
     27201       876  BGLCNA    HO6            33.3580289949       -0.0364419733       50.1569919836  LPSA25    12              7.0000000000
     27202       877  AGAL      C1             39.4313889619        0.2847807117       53.9028571443  LPSA25    13              8.0000000000
     27203       877  AGAL      H1             38.4878858711       -0.1939914123       54.1891474304  LPSA25    13              8.0000000000
     27204       877  AGAL      C5             41.6378392880       -0.2638430052       53.4445829482  LPSA25    13              8.0000000000
     27205       877  AGAL      H5             41.2412700271        0.4929574181       52.7849399511  LPSA25    13              8.0000000000
     27206       877  AGAL      O5             40.3512011977       -0.7959464806       53.6271002257  LPSA25    13              8.0000000000
     27207       877  AGAL      C2             40.0239287612        0.9923078225       55.1365184133  LPSA25    13              8.0000000000
     27208       877  AGAL      H2             40.2990923539        0.2963296219       55.9240375072  LPSA25    13              8.0000000000
     27209       877  AGAL      O2             39.0526262147        1.7916268906       55.7607156311  LPSA25    13              8.0000000000
     27210       877  AGAL      C3             41.3709762123        1.5912695609       54.8849725289  LPSA25    13              8.0000000000
     27211       877  AGAL      H3             41.4810373343        2.1588821849       53.9884179373  LPSA25    13              8.0000000000
     27212       877  AGAL      O3             41.7291915572        2.4753444902       55.9212999295  LPSA25    13              8.0000000000
     27213       877  AGAL      HO3            42.2734612449        3.2183394142       55.6118711174  LPSA25    13              8.0000000000
     27214       877  AGAL      C4             42.3036489041        0.4784130739       54.5708473402  LPSA25    13              8.0000000000
     27215       877  AGAL      H4             43.1905784766        0.9965772034       54.1809564337  LPSA25    13              8.0000000000
     27216       877  AGAL      O4             42.8335196240       -0.3304300096       55.5642408331  LPSA25    13              8.0000000000
     27217       877  AGAL      HO4            42.1079526956       -0.8234797301       55.9985365198  LPSA25    13              8.0000000000
     27218       877  AGAL      C6             42.5961714344       -1.1746833790       52.8190125155  LPSA25    13              8.0000000000
     27219       877  AGAL      H61            42.2654964927       -1.5252191929       51.8155806559  LPSA25    13              8.0000000000
     27220       877  AGAL      H62            43.5905347723       -0.6801448095       52.6860602054  LPSA25    13              8.0000000000
     27221       877  AGAL      O6             43.0509727968       -2.1479156933       53.6879733691  LPSA25    13              8.0000000000
     27222       877  AGAL      HO6            43.9344310818       -1.8670354847       54.0092741763  LPSA25    13              8.0000000000
     27223       878  ARHM      C1             38.5790590647        1.2850910366       56.9903212153  LPSA25    14              9.0000000000
     27224       878  ARHM      H1             38.6536385053        0.1659665490       57.0303682046  LPSA25    14              9.0000000000
     27225       878  ARHM      C5             37.0530639891        3.0532855375       57.1736911464  LPSA25    14              9.0000000000
     27226       878  ARHM      H5             37.4517092180        3.4372183962       56.2052705398  LPSA25    14              9.0000000000
     27227       878  ARHM      O5             37.2313835219        1.6298521083       57.1899997344  LPSA25    14              9.0000000000
     27228       878  ARHM      C2             39.4088123929        1.9052532075       58.0736949035  LPSA25    14              9.0000000000
     27229       878  ARHM      H2             40.4341700954        1.5716463648       57.8028261487  LPSA25    14              9.0000000000
     27230       878  ARHM      O2             39.0666610858        1.5097187462       59.4209558649  LPSA25    14              9.0000000000
     27231       878  ARHM      C3             39.2653960530        3.4341525752       58.0339292162  LPSA25    14              9.0000000000
     27232       878  ARHM      H3             39.5063794449        3.7528795582       57.0000875868  LPSA25    14              9.0000000000
     27233       878  ARHM      O3             40.1083497813        4.2638990962       58.8456392418  LPSA25    14              9.0000000000
     27234       878  ARHM      HO3            40.0834123047        3.9345961985       59.7544699972  LPSA25    14              9.0000000000
     27235       878  ARHM      C4             37.8216441332        3.7232756190       58.3032558240  LPSA25    14              9.0000000000
     27236       878  ARHM      H4             37.4922352150        3.2656131150       59.2712398254  LPSA25    14              9.0000000000
     27237       878  ARHM      O4             37.5509537348        5.1213054720       58.3746141157  LPSA25    14              9.0000000000
     27238       878  ARHM      HO4            37.4530456400        5.3850519645       59.2950310417  LPSA25    14              9.0000000000
     27239       878  ARHM      C6             35.5539961610        3.3195058340       57.2450381578  LPSA25    14              9.0000000000
     27240       878  ARHM      H61            34.9853584405        2.6474223888       56.5739165345  LPSA25    14              9.0000000000
     27241       878  ARHM      H62            35.2397559785        3.1729229009       58.3001418231  LPSA25    14              9.0000000000
     27242       878  ARHM      H63            35.2980081585        4.3569223052       56.9558536185  LPSA25    14              9.0000000000
     27243       879  ARHM      C1             39.0191749373        0.1479670954       59.7403894434  LPSA25    15             10.0000000000
     27244       879  ARHM      H1             39.6668986698       -0.4249005953       59.0384456303  LPSA25    15             10.0000000000
     27245       879  ARHM      C5             36.7600963917        0.2125623043       60.6341611469  LPSA25    15             10.0000000000
     27246       879  ARHM      H5             36.5984800264        1.3013236964       60.4398874912  LPSA25    15             10.0000000000
     27247       879  ARHM      O5             37.6694764442       -0.3617036843       59.6724953525  LPSA25    15             10.0000000000
     27248       879  ARHM      C2             39.5770507678       -0.0698465687       61.1358556490  LPSA25    15             10.0000000000
     27249       879  ARHM      H2             40.5973329417        0.3789813916       61.2112206252  LPSA25    15             10.0000000000
     27250       879  ARHM      O2             39.6644504970       -1.5038809990       61.2839987260  LPSA25    15             10.0000000000
     27251       879  ARHM      C3             38.6872919253        0.6175600359       62.1296005513  LPSA25    15             10.0000000000
     27252       879  ARHM      H3             38.5927304581        1.6790376227       61.8184728141  LPSA25    15             10.0000000000
     27253       879  ARHM      O3             39.3170699217        0.6012221994       63.4101050194  LPSA25    15             10.0000000000
     27254       879  ARHM      C4             37.3193527916       -0.0233461459       62.0264968700  LPSA25    15             10.0000000000
     27255       879  ARHM      H4             37.4503736324       -1.1235401820       62.1291902143  LPSA25    15             10.0000000000
     27256       879  ARHM      O4             36.3929097340        0.3853317906       63.0278749415  LPSA25    15             10.0000000000
     27257       879  ARHM      HO4            35.6094984979       -0.1682085184       62.9096082039  LPSA25    15             10.0000000000
     27258       879  ARHM      C6             35.3953272109       -0.4825672828       60.4650893830  LPSA25    15             10.0000000000
     27259       879  ARHM      H61            34.5923306040        0.0233437229       61.0395062496  LPSA25    15             10.0000000000
     27260       879  ARHM      H62            35.1296173002       -0.4897137883       59.3849652109  LPSA25    15             10.0000000000
     27261       879  ARHM      H63            35.4313214950       -1.5323146244       60.8158132647  LPSA25    15             10.0000000000
     27262       880  BMANNA    C1             40.0283513817       -2.0941406168       62.5173518652  LPSA25    16             11.0000000000
     27263       880  BMANNA    H1             39.2335561066       -1.9090418912       63.2556897108  LPSA25    16             11.0000000000
     27264       880  BMANNA    C5             41.5145041706       -2.0392336083       64.4524979972  LPSA25    16             11.0000000000
     27265       880  BMANNA    H5             40.7604685270       -1.8030202524       65.2364987083  LPSA25    16             11.0000000000
     27266       880  BMANNA    O5             41.1611811348       -1.4658902953       63.1326793577  LPSA25    16             11.0000000000
     27267       880  BMANNA    C2             40.2187574929       -3.6521315315       62.2859111979  LPSA25    16             11.0000000000
     27268       880  BMANNA    H2             39.1912864370       -3.9564995924       62.0466492419  LPSA25    16             11.0000000000
     27269       880  BMANNA    N              40.9786476287       -4.3228967227       61.1996492404  LPSA25    16             11.0000000000
     27270       880  BMANNA    HN             41.9155669634       -4.2589448594       61.5335825765  LPSA25    16             11.0000000000
     27271       880  BMANNA    C              40.6993571545       -4.5305173517       59.8450384150  LPSA25    16             11.0000000000
     27272       880  BMANNA    O              39.6095362645       -4.1617400987       59.4348616756  LPSA25    16             11.0000000000
     27273       880  BMANNA    CT             41.8610188525       -4.9529452604       58.7889233779  LPSA25    16             11.0000000000
     27274       880  BMANNA    HT1            41.7461168028       -6.0092104373       58.6041939527  LPSA25    16             11.0000000000
     27275       880  BMANNA    HT2            42.9774079871       -4.9106369605       59.0063534444  LPSA25    16             11.0000000000
     27276       880  BMANNA    HT3            41.8215039886       -4.1903252267       57.9577693056  LPSA25    16             11.0000000000
     27277       880  BMANNA    C3             40.5542862783       -4.2231438829       63.6544343175  LPSA25    16             11.0000000000
     27278       880  BMANNA    H3             39.8023414235       -3.9560520795       64.3825072977  LPSA25    16             11.0000000000
     27279       880  BMANNA    O3             40.7512763359       -5.6282031433       63.5818245129  LPSA25    16             11.0000000000
     27280       880  BMANNA    HO3            40.3066998956       -6.0062896395       64.3382713868  LPSA25    16             11.0000000000
     27281       880  BMANNA    C4             41.7454838740       -3.5706420824       64.2538043662  LPSA25    16             11.0000000000
     27282       880  BMANNA    H4             42.5538095454       -4.0130456279       63.6427515492  LPSA25    16             11.0000000000
     27283       880  BMANNA    O4             42.1501627742       -4.0463272581       65.4890632554  LPSA25    16             11.0000000000
     27284       880  BMANNA    HO4            43.1016256687       -3.8369732857       65.3805290430  LPSA25    16             11.0000000000
     27285       880  BMANNA    C6             42.8226032142       -1.3832790676       65.0381817036  LPSA25    16             11.0000000000
     27286       880  BMANNA    H61            42.8708353793       -1.3084799779       66.0748218488  LPSA25    16             11.0000000000
     27287       880  BMANNA    H62            43.8315424431       -1.7907255755       64.8745048266  LPSA25    16             11.0000000000
     27288       880  BMANNA    O6             43.1159062147       -0.1865761492       64.4342629046  LPSA25    16             11.0000000000
     27289       880  BMANNA    HO6            43.9443277106       -0.0085257072       63.9660925228  LPSA25    16             11.0000000000
     27290       881  BGLCNA    C1             39.1374621791        1.7876300670       64.1281335236  LPSA25    17             11.0000000000
     27291       881  BGLCNA    H1             38.1185709438        2.1586743092       63.9967437922  LPSA25    17             11.0000000000
     27292       881  BGLCNA    C5             39.9918122600        3.9944319509       64.5739934021  LPSA25    17             11.0000000000
     27293       881  BGLCNA    H5             39.0298201815        4.4973071678       64.3839281010  LPSA25    17             11.0000000000
     27294       881  BGLCNA    O5             40.0329585708        2.8296983112       63.7252439599  LPSA25    17             11.0000000000
     27295       881  BGLCNA    C2             39.4019870579        1.3195832722       65.5651509145  LPSA25    17             11.0000000000
     27296       881  BGLCNA    H2             40.4377202692        0.9296182246       65.7336937477  LPSA25    17             11.0000000000
     27297       881  BGLCNA    N              38.5223764529        0.2097371031       65.8760448036  LPSA25    17             11.0000000000
     27298       881  BGLCNA    HN             37.6775569123        0.2000525645       65.3663925176  LPSA25    17             11.0000000000
     27299       881  BGLCNA    C              38.7008342558       -0.7176785965       66.8190245439  LPSA25    17             11.0000000000
     27300       881  BGLCNA    O              39.7320406473       -0.8814116448       67.4440360034  LPSA25    17             11.0000000000
     27301       881  BGLCNA    CT             37.4786436988       -1.5469107306       67.0859765016  LPSA25    17             11.0000000000
     27302       881  BGLCNA    HT1            37.5318584670       -2.4950228802       66.5811774572  LPSA25    17             11.0000000000
     27303       881  BGLCNA    HT2            36.5826438035       -1.0310174114       66.6995414094  LPSA25    17             11.0000000000
     27304       881  BGLCNA    HT3            37.3732347244       -1.7667471374       68.1623915356  LPSA25    17             11.0000000000
     27305       881  BGLCNA    C3             39.2063922158        2.5410418495       66.4447673821  LPSA25    17             11.0000000000
     27306       881  BGLCNA    H3             38.2236868457        2.9496442217       66.1090735766  LPSA25    17             11.0000000000
     27307       881  BGLCNA    O3             39.1035056987        2.1727585752       67.8507206601  LPSA25    17             11.0000000000
     27308       881  BGLCNA    C4             40.2498131124        3.5862088656       66.0440436488  LPSA25    17             11.0000000000
     27309       881  BGLCNA    H4             41.2686674457        3.1539379112       66.1184918777  LPSA25    17             11.0000000000
     27310       881  BGLCNA    O4             40.2275086691        4.7014848071       66.9271337506  LPSA25    17             11.0000000000
     27311       881  BGLCNA    HO4            40.9729732086        5.2843181058       66.7138877042  LPSA25    17             11.0000000000
     27312       881  BGLCNA    C6             41.0944660799        4.9735495311       64.1566597326  LPSA25    17             11.0000000000
     27313       881  BGLCNA    H61            40.7544165029        6.0108050401       64.2721635779  LPSA25    17             11.0000000000
     27314       881  BGLCNA    H62            42.0306746816        4.8146444801       64.7467627708  LPSA25    17             11.0000000000
     27315       881  BGLCNA    O6             41.4920037896        4.9563361384       62.8090837882  LPSA25    17             11.0000000000
     27316       881  BGLCNA    HO6            40.8166959799        4.7444328021       62.1658893553  LPSA25    17             11.0000000000
     27317       882  AGAL      C1             38.1778211951        2.9235083327       68.6189239380  LPSA25    18             12.0000000000
     27318       882  AGAL      H1             38.6166882047        3.9295974034       68.8060165957  LPSA25    18             12.0000000000
     27319       882  AGAL      C5             36.2104415754        1.8365320156       67.8555135461  LPSA25    18             12.0000000000
     27320       882  AGAL      H5             36.9072634813        1.1124669123       67.4160663778  LPSA25    18             12.0000000000
     27321       882  AGAL      O5             36.9096156113        3.0838279284       67.9672092944  LPSA25    18             12.0000000000
     27322       882  AGAL      C2             37.8652617206        2.2949857234       69.9671456942  LPSA25    18             12.0000000000
     27323       882  AGAL      H2             37.1074122080        2.9992534070       70.3814992255  LPSA25    18             12.0000000000
     27324       882  AGAL      O2             38.9428794137        2.3271836556       70.8960972945  LPSA25    18             12.0000000000
     27325       882  AGAL      C3             37.1536226696        0.9457173041       69.8515347031  LPSA25    18             12.0000000000
     27326       882  AGAL      H3             37.7515053521        0.2880430772       69.1780042742  LPSA25    18             12.0000000000
     27327       882  AGAL      O3             37.0177286864        0.2564150587       71.0890159211  LPSA25    18             12.0000000000
     27328       882  AGAL      HO3            37.2446528861       -0.6789359324       71.0074537440  LPSA25    18             12.0000000000
     27329       882  AGAL      C4             35.8208868506        1.1895059195       69.1804328784  LPSA25    18             12.0000000000
     27330       882  AGAL      H4             35.3024894108        0.2344853348       68.9407951486  LPSA25    18             12.0000000000
     27331       882  AGAL      O4             34.9175713995        1.9589362221       69.9823364394  LPSA25    18             12.0000000000
     27332       882  AGAL      HO4            34.6650542717        1.4467433487       70.7616204923  LPSA25    18             12.0000000000
     27333       882  AGAL      C6             35.2073851274        1.9038817205       66.7748784844  LPSA25    18             12.0000000000
     27334       882  AGAL      H61            35.7078517793        2.2669393065       65.8392017785  LPSA25    18             12.0000000000
     27335       882  AGAL      H62            34.7258953827        0.9306516560       66.5981251409  LPSA25    18             12.0000000000
     27336       882  AGAL      O6             34.1585154708        2.7185199660       67.1865105591  LPSA25    18             12.0000000000
     27337       882  AGAL      HO6            34.5421076363        3.4627467247       67.6933192730  LPSA25    18             12.0000000000
     27338       883  ARHM      C1             38.4290697318        2.6808284522       72.1798980165  LPSA25    19             13.0000000000
     27339       883  ARHM      H1             37.4064450132        2.3273530808       72.3443689750  LPSA25    19             13.0000000000
     27340       883  ARHM      C5             39.6117485238        4.6795426430       72.1632658915  LPSA25    19             13.0000000000
     27341       883  ARHM      H5             39.7328719462        4.4141303933       71.1300548163  LPSA25    19             13.0000000000
     27342       883  ARHM      O5             38.3727125863        4.0946396657       72.4052235327  LPSA25    19             13.0000000000
     27343       883  ARHM      C2             39.3535106575        2.0530185908       73.1406922342  LPSA25    19             13.0000000000
     27344       883  ARHM      H2             39.3087597909        0.9748510163       72.9606988250  LPSA25    19             13.0000000000
     27345       883  ARHM      O2             38.9266435444        2.1687341684       74.4882102215  LPSA25    19             13.0000000000
     27346       883  ARHM      C3             40.6673747332        2.6632841339       72.8566264363  LPSA25    19             13.0000000000
     27347       883  ARHM      H3             41.0504917288        2.4697301695       71.8375294557  LPSA25    19             13.0000000000
     27348       883  ARHM      O3             41.7066040654        2.1238697179       73.5640769222  LPSA25    19             13.0000000000
     27349       883  ARHM      HO3            41.4116736041        1.8611159206       74.4708007118  LPSA25    19             13.0000000000
     27350       883  ARHM      C4             40.5798242896        4.1049759696       73.0403012081  LPSA25    19             13.0000000000
     27351       883  ARHM      H4             40.2456922320        4.4833599212       74.0300710353  LPSA25    19             13.0000000000
     27352       883  ARHM      O4             41.7843152982        4.6936261651       72.7194415643  LPSA25    19             13.0000000000
     27353       883  ARHM      HO4            42.2858687562        4.4276947947       71.9323477816  LPSA25    19             13.0000000000
     27354       883  ARHM      C6             39.6668820426        6.1898192257       72.1882417490  LPSA25    19             13.0000000000
     27355       883  ARHM      H61            38.9217430065        6.5042755211       71.4538706055  LPSA25    19             13.0000000000
     27356       883  ARHM      H62            39.4526591642        6.5085387721       73.1993624495  LPSA25    19             13.0000000000
     27357       883  ARHM      H63            40.6320507571        6.6586550461       71.9131343022  LPSA25    19             13.0000000000
     27358       884  ARHM      C1             37.8596141657        1.2736347213       74.7321236170  LPSA25    20             14.0000000000
     27359       884  ARHM      H1             37.6860194287        0.5432066510       73.9084512733  LPSA25    20             14.0000000000
     27360       884  ARHM      C5             36.6629481509        2.8551805287       75.9624227210  LPSA25    20             14.0000000000
     27361       884  ARHM      H5             37.5028443830        3.5737704609       75.8115920989  LPSA25    20             14.0000000000
     27362       884  ARHM      O5             36.6226635959        1.9585255602       74.8641108881  LPSA25    20             14.0000000000
     27363       884  ARHM      C2             38.1974523065        0.4794493314       75.9542542278  LPSA25    20             14.0000000000
     27364       884  ARHM      H2             39.2328271650        0.0485717539       75.8352474894  LPSA25    20             14.0000000000
     27365       884  ARHM      O2             37.2277145773       -0.5448277870       76.1708539119  LPSA25    20             14.0000000000
     27366       884  ARHM      C3             38.2249817890        1.3721796924       77.1198240366  LPSA25    20             14.0000000000
     27367       884  ARHM      H3             39.0044207912        2.1227064780       76.9138588460  LPSA25    20             14.0000000000
     27368       884  ARHM      O3             38.5954869622        0.5907805662       78.2505864926  LPSA25    20             14.0000000000
     27369       884  ARHM      C4             36.9000231631        2.0610427996       77.2380711456  LPSA25    20             14.0000000000
     27370       884  ARHM      H4             36.0591289054        1.3381670248       77.3334628079  LPSA25    20             14.0000000000
     27371       884  ARHM      O4             36.9114733717        2.9289695930       78.3510386823  LPSA25    20             14.0000000000
     27372       884  ARHM      HO4            36.2483352294        3.5844153307       78.1219049322  LPSA25    20             14.0000000000
     27373       884  ARHM      C6             35.3598422021        3.6578225867       75.9503375985  LPSA25    20             14.0000000000
     27374       884  ARHM      H61            34.4434258806        3.0489476675       76.0802958271  LPSA25    20             14.0000000000
     27375       884  ARHM      H62            35.4254597981        4.4098873187       76.7565856648  LPSA25    20             14.0000000000
     27376       884  ARHM      H63            35.2596388535        4.2036766193       74.9952066182  LPSA25    20             14.0000000000
     27377       885  BMANNA    C1             37.5500198680       -1.6573076605       75.4020783187  LPSA25    21             15.0000000000
     27378       885  BMANNA    H1             38.3977107131       -1.4164260658       74.7116168436  LPSA25    21             15.0000000000
     27379       885  BMANNA    C5             36.9701565068       -3.1086369582       73.6527321900  LPSA25    21             15.0000000000
     27380       885  BMANNA    H5             37.8901390627       -2.7829447320       73.0906502908  LPSA25    21             15.0000000000
     27381       885  BMANNA    O5             36.5024638051       -2.0474512462       74.5195475468  LPSA25    21             15.0000000000
     27382       885  BMANNA    C2             37.9557230812       -2.7840518206       76.3386981639  LPSA25    21             15.0000000000
     27383       885  BMANNA    H2             38.8330602306       -2.3871072582       76.9105796343  LPSA25    21             15.0000000000
     27384       885  BMANNA    N              36.9231630059       -3.1908405484       77.2993007378  LPSA25    21             15.0000000000
     27385       885  BMANNA    HN             36.0089179789       -3.2438281172       76.9318113570  LPSA25    21             15.0000000000
     27386       885  BMANNA    C              37.1260685119       -3.5416415260       78.5926730708  LPSA25    21             15.0000000000
     27387       885  BMANNA    O              38.2474378143       -3.7286696587       79.0453918705  LPSA25    21             15.0000000000
     27388       885  BMANNA    CT             35.9010725320       -3.7068723561       79.4762078043  LPSA25    21             15.0000000000
     27389       885  BMANNA    HT1            35.4041153805       -4.6803351502       79.2926415708  LPSA25    21             15.0000000000
     27390       885  BMANNA    HT2            35.1980210548       -2.8650226668       79.3142827599  LPSA25    21             15.0000000000
     27391       885  BMANNA    HT3            36.1984321873       -3.6830262864       80.5485881965  LPSA25    21             15.0000000000
     27392       885  BMANNA    C3             38.4395864642       -3.9036606124       75.4647862480  LPSA25    21             15.0000000000
     27393       885  BMANNA    H3             39.3233916745       -3.4955546219       74.9173710770  LPSA25    21             15.0000000000
     27394       885  BMANNA    O3             38.9001632913       -4.9958778690       76.2413996567  LPSA25    21             15.0000000000
     27395       885  BMANNA    HO3            38.1650208367       -5.3294624131       76.7734087082  LPSA25    21             15.0000000000
     27396       885  BMANNA    C4             37.3590422344       -4.3122771832       74.4801151467  LPSA25    21             15.0000000000
     27397       885  BMANNA    H4             36.4603461482       -4.7022222187       75.0066142896  LPSA25    21             15.0000000000
     27398       885  BMANNA    O4             37.7748601858       -5.3394974966       73.6052879563  LPSA25    21             15.0000000000
     27399       885  BMANNA    HO4            37.2729509463       -6.1531005404       73.7451441798  LPSA25    21             15.0000000000
     27400       885  BMANNA    C6             35.9382214012       -3.4588550323       72.6107990447  LPSA25    21             15.0000000000
     27401       885  BMANNA    H61            36.4162561495       -4.0632507605       71.8066822064  LPSA25    21             15.0000000000
     27402       885  BMANNA    H62            35.1594413666       -4.0981641718       73.0754306287  LPSA25    21             15.0000000000
     27403       885  BMANNA    O6             35.3289156270       -2.3010106468       72.0437100677  LPSA25    21             15.0000000000
     27404       885  BMANNA    HO6            34.8790013191       -1.8352416783       72.7631966399  LPSA25    21             15.0000000000
     27405       886  BGLCNA    C1             39.3363295261        1.2312051543       79.2447353906  LPSA25    22             15.0000000000
     27406       886  BGLCNA    H1             39.1870963916        2.3263517144       79.2674961904  LPSA25    22             15.0000000000
     27407       886  BGLCNA    C5             41.3954913901        1.4463953068       80.2723889919  LPSA25    22             15.0000000000
     27408       886  BGLCNA    H5             41.1128306336        2.5237054975       80.1136566307  LPSA25    22             15.0000000000
     27409       886  BGLCNA    O5             40.7183375616        0.9760790546       79.1100660589  LPSA25    22             15.0000000000
     27410       886  BGLCNA    C2             38.8328333862        0.5844850551       80.5015590385  LPSA25    22             15.0000000000
     27411       886  BGLCNA    H2             39.0175926142       -0.5176596035       80.4478027595  LPSA25    22             15.0000000000
     27412       886  BGLCNA    N              37.4619405847        0.9171587617       80.6881012297  LPSA25    22             15.0000000000
     27413       886  BGLCNA    HN             37.1622846468        1.8100685974       80.3705175083  LPSA25    22             15.0000000000
     27414       886  BGLCNA    C              36.6180767139        0.1316205067       81.3352160688  LPSA25    22             15.0000000000
     27415       886  BGLCNA    O              36.8973954737       -0.9402593307       81.8403413699  LPSA25    22             15.0000000000
     27416       886  BGLCNA    CT             35.2235954523        0.6610060185       81.4073193786  LPSA25    22             15.0000000000
     27417       886  BGLCNA    HT1            34.7003286879        0.1812984167       80.5512332836  LPSA25    22             15.0000000000
     27418       886  BGLCNA    HT2            35.2288645374        1.7592855358       81.2833416191  LPSA25    22             15.0000000000
     27419       886  BGLCNA    HT3            34.7433442426        0.3973129404       82.3706093079  LPSA25    22             15.0000000000
     27420       886  BGLCNA    C3             39.5553776769        1.0836052458       81.6839568761  LPSA25    22             15.0000000000
     27421       886  BGLCNA    H3             39.3964818001        2.1902379781       81.5981931476  LPSA25    22             15.0000000000
     27422       886  BGLCNA    O3             39.0002564563        0.7247581166       82.9432722199  LPSA25    22             15.0000000000
     27423       886  BGLCNA    C4             40.9607969383        0.7008265075       81.5280104497  LPSA25    22             15.0000000000
     27424       886  BGLCNA    H4             41.1056844974       -0.3886556676       81.3327603978  LPSA25    22             15.0000000000
     27425       886  BGLCNA    O4             41.7256807627        0.8311507822       82.7212216806  LPSA25    22             15.0000000000
     27426       886  BGLCNA    HO4            42.6737192617        0.6448665867       82.6765275602  LPSA25    22             15.0000000000
     27427       886  BGLCNA    C6             42.7822165772        1.3037954362       80.2487030350  LPSA25    22             15.0000000000
     27428       886  BGLCNA    H61            43.5682944341        1.4872761799       80.9038505621  LPSA25    22             15.0000000000
     27429       886  BGLCNA    H62            42.7501820162        0.1802219957       80.1272285809  LPSA25    22             15.0000000000
     27430       886  BGLCNA    O6             43.2399162730        2.2767868756       79.3565447270  LPSA25    22             15.0000000000
     27431       886  BGLCNA    HO6            43.0640287585        2.1373184158       78.4141465164  LPSA25    22             15.0000000000
     27432       887  AGAL      C1             39.3477264918        1.4282884978       84.1152152484  LPSA25    23             16.0000000000
     27433       887  AGAL      H1             40.3680131297        1.1981005272       84.4874730908  LPSA25    23             16.0000000000
     27434       887  AGAL      C5             37.8878224682        3.2785362150       83.7242326104  LPSA25    23             16.0000000000
     27435       887  AGAL      H5             37.5275469438        2.7412674934       82.8195689219  LPSA25    23             16.0000000000
     27436       887  AGAL      O5             39.2365338072        2.8555925716       83.9914897574  LPSA25    23             16.0000000000
     27437       887  AGAL      C2             38.4306776574        0.9381261981       85.1931084493  LPSA25    23             16.0000000000
     27438       887  AGAL      H2             38.7345835115        1.4852898414       86.1109534602  LPSA25    23             16.0000000000
     27439       887  AGAL      O2             38.5602717834       -0.4781287285       85.4220357874  LPSA25    23             16.0000000000
     27440       887  AGAL      C3             37.0050817011        1.3484031847       84.8852588852  LPSA25    23             16.0000000000
     27441       887  AGAL      H3             36.7485852572        0.9873088839       83.8649783472  LPSA25    23             16.0000000000
     27442       887  AGAL      O3             36.0640548214        0.7403109534       85.7613473113  LPSA25    23             16.0000000000
     27443       887  AGAL      HO3            36.4115888486        0.7874326392       86.6470493397  LPSA25    23             16.0000000000
     27444       887  AGAL      C4             36.9378988241        2.8666499850       84.8593542448  LPSA25    23             16.0000000000
     27445       887  AGAL      H4             35.9082382110        3.2180976267       84.6262118384  LPSA25    23             16.0000000000
     27446       887  AGAL      O4             37.3112661310        3.4509321870       86.1014794839  LPSA25    23             16.0000000000
     27447       887  AGAL      HO4            37.6633063471        4.3242144509       85.8524509750  LPSA25    23             16.0000000000
     27448       887  AGAL      C6             37.9153450407        4.7378363900       83.3132225684  LPSA25    23             16.0000000000
     27449       887  AGAL      H61            38.7261378266        4.8973368350       82.5666462344  LPSA25    23             16.0000000000
     27450       887  AGAL      H62            36.9656515222        5.0178172418       82.8035798638  LPSA25    23             16.0000000000
     27451       887  AGAL      O6             38.1363101034        5.5987419369       84.4252637210  LPSA25    23             16.0000000000
     27452       887  AGAL      HO6            38.2544402319        6.5197859190       84.1527879127  LPSA25    23             16.0000000000
     27453       888  ARHM      C1             39.6124362255       -0.9059361606       86.2465034128  LPSA25    24             17.0000000000
     27454       888  ARHM      H1             40.3688386811       -0.1026019599       86.3427353854  LPSA25    24             17.0000000000
     27455       888  ARHM      C5             39.5632839968       -3.2226457421       85.6347468474  LPSA25    24             17.0000000000
     27456       888  ARHM      H5             38.7194887949       -2.9653058101       84.9679992652  LPSA25    24             17.0000000000
     27457       888  ARHM      O5             40.3402500734       -2.0367394125       85.7589546096  LPSA25    24             17.0000000000
     27458       888  ARHM      C2             38.9979005477       -1.2296021377       87.5727811231  LPSA25    24             17.0000000000
     27459       888  ARHM      H2             38.3740229335       -0.3700042419       87.9197947197  LPSA25    24             17.0000000000
     27460       888  ARHM      O2             39.9860303520       -1.5414509995       88.5319719718  LPSA25    24             17.0000000000
     27461       888  ARHM      C3             38.1199946040       -2.4265069995       87.4279993869  LPSA25    24             17.0000000000
     27462       888  ARHM      H3             37.3773102945       -2.1707647714       86.6342792859  LPSA25    24             17.0000000000
     27463       888  ARHM      O3             37.3900418771       -2.6823716888       88.6280670679  LPSA25    24             17.0000000000
     27464       888  ARHM      HO3            37.8653466203       -3.3165350542       89.1716924482  LPSA25    24             17.0000000000
     27465       888  ARHM      C4             38.9705197588       -3.6004173361       86.9678464912  LPSA25    24             17.0000000000
     27466       888  ARHM      H4             39.7957474112       -3.7928516817       87.6952067685  LPSA25    24             17.0000000000
     27467       888  ARHM      O4             38.1929341458       -4.7754336250       86.8211420536  LPSA25    24             17.0000000000
     27468       888  ARHM      HO4            38.7005647087       -5.5704600808       87.0222026618  LPSA25    24             17.0000000000
     27469       888  ARHM      C6             40.3857602268       -4.3483761321       84.9655192488  LPSA25    24             17.0000000000
     27470       888  ARHM      H61            39.7026365098       -5.0246385040       84.4091061699  LPSA25    24             17.0000000000
     27471       888  ARHM      H62            41.0909031825       -3.9089568501       84.2387621212  LPSA25    24             17.0000000000
     27472       888  ARHM      H63            41.0035153258       -4.9269813865       85.6837002744  LPSA25    24             17.0000000000
     27473       889  ARHM      C1             40.5233083430       -0.3729267417       89.0200578769  LPSA25    25             18.0000000000
     27474       889  ARHM      H1             40.3847769609        0.4949197131       88.3579252175  LPSA25    25             18.0000000000
     27475       889  ARHM      C5             42.4819417748       -1.4063370658       89.8721844045  LPSA25    25             18.0000000000
     27476       889  ARHM      H5             41.9803710994       -2.2620979080       89.3736489664  LPSA25    25             18.0000000000
     27477       889  ARHM      O5             41.9566160755       -0.3626196829       89.0763521159  LPSA25    25             18.0000000000
     27478       889  ARHM      C2             39.8188471190       -0.1546442542       90.3036595149  LPSA25    25             18.0000000000
     27479       889  ARHM      H2             38.7125789729       -0.2097144889       90.2424591158  LPSA25    25             18.0000000000
     27480       889  ARHM      O2             40.0952336293        1.1460738400       90.6983854066  LPSA25    25             18.0000000000
     27481       889  ARHM      C3             40.2432854849       -1.2138479040       91.2630951495  LPSA25    25             18.0000000000
     27482       889  ARHM      H3             39.9396563390       -2.2543917002       90.9851415426  LPSA25    25             18.0000000000
     27483       889  ARHM      O3             39.5465720291       -0.8120949540       92.5001769233  LPSA25    25             18.0000000000
     27484       889  ARHM      C4             41.7733590855       -1.1953061384       91.3203919980  LPSA25    25             18.0000000000
     27485       889  ARHM      H4             42.5687423815       -0.4986838273       91.5785371211  LPSA25    25             18.0000000000
     27486       889  ARHM      O4             41.9193150123       -1.8505897144       92.5712356749  LPSA25    25             18.0000000000
     27487       889  ARHM      HO4            42.8503430758       -1.9462880323       92.8273799895  LPSA25    25             18.0000000000
     27488       889  ARHM      C6             44.1522904366       -1.6087472743       89.8654076442  LPSA25    25             18.0000000000
     27489       889  ARHM      H61            44.4803512412       -1.8403350578       88.8305203108  LPSA25    25             18.0000000000
     27490       889  ARHM      H62            44.5725259640       -0.8095923243       90.4924653778  LPSA25    25             18.0000000000
     27491       889  ARHM      H63            44.7265573530       -2.4812151188       90.3145644219  LPSA25    25             18.0000000000
     27492       890  BMANNA    C1             39.6176991979        2.2780504969       90.1601704070  LPSA25    26             19.0000000000
     27493       890  BMANNA    H1             38.6392285727        2.0273384125       89.7354010862  LPSA25    26             19.0000000000
     27494       890  BMANNA    C5             39.7761642627        3.9888835284       88.5716259998  LPSA25    26             19.0000000000
     27495       890  BMANNA    H5             38.8244274928        3.5641288241       88.1864956399  LPSA25    26             19.0000000000
     27496       890  BMANNA    O5             40.4260500805        2.8522416700       89.1163086560  LPSA25    26             19.0000000000
     27497       890  BMANNA    C2             39.4671675975        3.1988531944       91.3387851779  LPSA25    26             19.0000000000
     27498       890  BMANNA    H2             38.8393913384        2.6996137518       92.1204093905  LPSA25    26             19.0000000000
     27499       890  BMANNA    N              40.8123354887        3.4555154838       91.9410999793  LPSA25    26             19.0000000000
     27500       890  BMANNA    HN             41.4766026481        3.8275601901       91.3012678817  LPSA25    26             19.0000000000
     27501       890  BMANNA    C              41.1265611802        3.5851856489       93.2786438831  LPSA25    26             19.0000000000
     27502       890  BMANNA    O              40.2698850438        3.5896016043       94.1298662735  LPSA25    26             19.0000000000
     27503       890  BMANNA    CT             42.4218879496        4.3711667920       93.5843865709  LPSA25    26             19.0000000000
     27504       890  BMANNA    HT1            43.1435191569        4.3965815542       92.7717627696  LPSA25    26             19.0000000000
     27505       890  BMANNA    HT2            42.8828900694        4.2089090075       94.5415362262  LPSA25    26             19.0000000000
     27506       890  BMANNA    HT3            42.3056608388        5.4381284318       93.7450383209  LPSA25    26             19.0000000000
     27507       890  BMANNA    C3             38.6925272536        4.3714834182       90.7377528824  LPSA25    26             19.0000000000
     27508       890  BMANNA    H3             37.7643894019        3.9393930911       90.2970415953  LPSA25    26             19.0000000000
     27509       890  BMANNA    O3             38.1672817455        5.2662571225       91.6976100984  LPSA25    26             19.0000000000
     27510       890  BMANNA    HO3            37.5685265919        4.8330874765       92.3090179400  LPSA25    26             19.0000000000
     27511       890  BMANNA    C4             39.4926751325        5.0306041382       89.6275789901  LPSA25    26             19.0000000000
     27512       890  BMANNA    H4             40.4324346955        5.4695612109       89.9970376372  LPSA25    26             19.0000000000
     27513       890  BMANNA    O4             38.7552414166        6.0739564193       89.0250560464  LPSA25    26             19.0000000000
     27514       890  BMANNA    HO4            38.7907595950        6.8540839676       89.5982988674  LPSA25    26             19.0000000000
     27515       890  BMANNA    C6             40.5285451917        4.4259017509       87.3081207988  LPSA25    26             19.0000000000
     27516       890  BMANNA    H61            41.0526462247        3.5804422401       86.8692103352  LPSA25    26             19.0000000000
     27517       890  BMANNA    H62            39.8386331128        4.8459785229       86.5686225811  LPSA25    26             19.0000000000
     27518       890  BMANNA    O6             41.4981294060        5.4377808814       87.3956851149  LPSA25    26             19.0000000000
     27519       890  BMANNA    HO6            41.2050761589        6.0388419521       88.0679206299  LPSA25    26             19.0000000000
     27520       891  BGLCNA    C1             39.0567823723       -1.7413267487       93.4256163551  LPSA25    27             19.0000000000
     27521       891  BGLCNA    H1             39.3049195616       -2.7074203454       93.0259679067  LPSA25    27             19.0000000000
     27522       891  BGLCNA    C5             37.2241677400       -3.0913446769       93.9296003654  LPSA25    27             19.0000000000
     27523       891  BGLCNA    H5             37.9348550046       -3.9817973167       93.9390930399  LPSA25    27             19.0000000000
     27524       891  BGLCNA    O5             37.7305534843       -2.0301324447       93.0986449923  LPSA25    27             19.0000000000
     27525       891  BGLCNA    C2             39.1772704461       -1.2561339370       94.9518986346  LPSA25    27             19.0000000000
     27526       891  BGLCNA    H2             38.5523913391       -0.3342922882       94.9623345469  LPSA25    27             19.0000000000
     27527       891  BGLCNA    N              40.5726499174       -1.0062863405       95.5826275134  LPSA25    27             19.0000000000
     27528       891  BGLCNA    HN             41.2902004007       -1.5152959008       95.1194342671  LPSA25    27             19.0000000000
     27529       891  BGLCNA    C              40.8630297249        0.0818211824       96.4155778828  LPSA25    27             19.0000000000
     27530       891  BGLCNA    O              39.9604754947        0.6682321325       97.0117039084  LPSA25    27             19.0000000000
     27531       891  BGLCNA    CT             42.1802571776        0.8908766896       96.0275555113  LPSA25    27             19.0000000000
     27532       891  BGLCNA    HT1            42.8708537477        0.3203931051       95.3864636604  LPSA25    27             19.0000000000
     27533       891  BGLCNA    HT2            42.6972083945        1.4556241228       96.8018390762  LPSA25    27             19.0000000000
     27534       891  BGLCNA    HT3            41.9680941257        1.8592476111       95.5425105681  LPSA25    27             19.0000000000
     27535       891  BGLCNA    C3             38.5814138952       -2.2837867273       95.8205714161  LPSA25    27             19.0000000000
     27536       891  BGLCNA    H3             39.1543165937       -3.2214596408       95.8378389418  LPSA25    27             19.0000000000
     27537       891  BGLCNA    O3             38.6157411778       -1.6468468272       97.1171915716  LPSA25    27             19.0000000000
     27538       891  BGLCNA    C4             37.1906996484       -2.5793820546       95.3637828696  LPSA25    27             19.0000000000
     27539       891  BGLCNA    H4             36.5735877364       -1.6514707591       95.3495906046  LPSA25    27             19.0000000000
     27540       891  BGLCNA    O4             36.5828593186       -3.5529617447       96.1743923013  LPSA25    27             19.0000000000
     27541       891  BGLCNA    HO4            37.1052211070       -4.3575776072       96.0748349916  LPSA25    27             19.0000000000
     27542       891  BGLCNA    C6             35.9598201315       -3.5994204876       93.3187879338  LPSA25    27             19.0000000000
     27543       891  BGLCNA    H61            35.6295266793       -4.5023675958       93.8702836696  LPSA25    27             19.0000000000
     27544       891  BGLCNA    H62            35.1894134093       -2.8110911096       93.4301545458  LPSA25    27             19.0000000000
     27545       891  BGLCNA    O6             36.1517496221       -3.9638783142       91.9414848211  LPSA25    27             19.0000000000
     27546       891  BGLCNA    HO6            35.3109796722       -4.1364873674       91.4956947825  LPSA25    27             19.0000000000
     27547       892  AGAL      C1             38.4947605907       -2.4771351768       98.2185570799  LPSA25    28             20.0000000000
     27548       892  AGAL      H1             37.4517314099       -2.8064339319       98.3061409125  LPSA25    28             20.0000000000
     27549       892  AGAL      C5             40.7269346324       -3.2911814635       98.0992691092  LPSA25    28             20.0000000000
     27550       892  AGAL      H5             41.0589570640       -2.5328106255       97.3683047511  LPSA25    28             20.0000000000
     27551       892  AGAL      O5             39.3183494136       -3.6082074712       98.0487335906  LPSA25    28             20.0000000000
     27552       892  AGAL      C2             38.8195768903       -1.8075551573       99.5222991802  LPSA25    28             20.0000000000
     27553       892  AGAL      H2             38.7248138142       -2.6579404278      100.2491369678  LPSA25    28             20.0000000000
     27554       892  AGAL      O2             38.0093325882       -0.7647244815      100.0549520183  LPSA25    28             20.0000000000
     27555       892  AGAL      C3             40.2145540213       -1.3642928528       99.5312511939  LPSA25    28             20.0000000000
     27556       892  AGAL      H3             40.5402655050       -0.9069679086       98.6191587524  LPSA25    28             20.0000000000
     27557       892  AGAL      O3             40.4008721205       -0.1252477806      100.2876468106  LPSA25    28             20.0000000000
     27558       892  AGAL      HO3            41.2959829406        0.0939308222      100.5894760724  LPSA25    28             20.0000000000
     27559       892  AGAL      C4             41.0621138026       -2.7179748335       99.4241464682  LPSA25    28             20.0000000000
     27560       892  AGAL      H4             42.1363978734       -2.5332240441       99.3443088521  LPSA25    28             20.0000000000
     27561       892  AGAL      O4             40.8023433426       -3.7104812098      100.4437107032  LPSA25    28             20.0000000000
     27562       892  AGAL      HO4            41.6131378942       -3.8569687628      100.9588226109  LPSA25    28             20.0000000000
     27563       892  AGAL      C6             41.3472606326       -4.5502829741       97.6839168248  LPSA25    28             20.0000000000
     27564       892  AGAL      H61            40.6899614587       -4.7608949621       96.8556122134  LPSA25    28             20.0000000000
     27565       892  AGAL      H62            42.3436089140       -4.8245538593       97.2998838031  LPSA25    28             20.0000000000
     27566       892  AGAL      O6             41.0440150198       -5.5303062854       98.5587741533  LPSA25    28             20.0000000000
     27567       892  AGAL      HO6            40.5261342925       -6.1195767721       98.0077229938  LPSA25    28             20.0000000000
     27568       893  ARHM      C1             37.9149664085       -0.9144231777      101.4679989379  LPSA25    29             21.0000000000
     27569       893  ARHM      H1             38.7373115251       -1.5219622591      101.9164964996  LPSA25    29             21.0000000000
     27570       893  ARHM      C5             35.6085186783       -0.7818780263      101.1497027749  LPSA25    29             21.0000000000
     27571       893  ARHM      H5             35.7990776568       -0.6220162907      100.0600964700  LPSA25    29             21.0000000000
     27572       893  ARHM      O5             36.6791933355       -1.5508228028      101.7130353245  LPSA25    29             21.0000000000
     27573       893  ARHM      C2             37.9290891542        0.4129132598      102.1694233643  LPSA25    29             21.0000000000
     27574       893  ARHM      H2             38.8932004133        0.9394996103      101.9640806476  LPSA25    29             21.0000000000
     27575       893  ARHM      O2             37.7370727563        0.2194336166      103.5954932912  LPSA25    29             21.0000000000
     27576       893  ARHM      C3             36.8532845837        1.2704500426      101.5977671781  LPSA25    29             21.0000000000
     27577       893  ARHM      H3             37.0028100586        1.4045220052      100.5031149975  LPSA25    29             21.0000000000
     27578       893  ARHM      O3             36.9282805362        2.5501021883      102.1962861113  LPSA25    29             21.0000000000
     27579       893  ARHM      HO3            36.0193760900        2.8521856041      102.1930586768  LPSA25    29             21.0000000000
     27580       893  ARHM      C4             35.5163593880        0.5866151808      101.8031921738  LPSA25    29             21.0000000000
     27581       893  ARHM      H4             35.3622524672        0.4608897034      102.8908100918  LPSA25    29             21.0000000000
     27582       893  ARHM      O4             34.4123104777        1.3512305162      101.3189724106  LPSA25    29             21.0000000000
     27583       893  ARHM      HO4            34.5211050090        1.7391639252      100.4405713689  LPSA25    29             21.0000000000
     27584       893  ARHM      C6             34.4089398243       -1.7061418700      101.2247737737  LPSA25    29             21.0000000000
     27585       893  ARHM      H61            34.7315855340       -2.6654190984      100.7616109602  LPSA25    29             21.0000000000
     27586       893  ARHM      H62            34.1006730856       -1.9244013670      102.2665692220  LPSA25    29             21.0000000000
     27587       893  ARHM      H63            33.5478610115       -1.3262493128      100.6398739367  LPSA25    29             21.0000000000
     27588       894  ARHM      C1             38.9080245382        0.2443046903      104.3622058783  LPSA25    30             22.0000000000
     27589       894  ARHM      H1             39.3675660043        1.2126309787      104.1727436136  LPSA25    30             22.0000000000
     27590       894  ARHM      C5             39.1407623306       -2.0821051769      104.4782812399  LPSA25    30             22.0000000000
     27591       894  ARHM      H5             38.1956483135       -2.1319967549      103.9033079817  LPSA25    30             22.0000000000
     27592       894  ARHM      O5             39.7836949587       -0.8612269033      104.1103827759  LPSA25    30             22.0000000000
     27593       894  ARHM      C2             38.5490237685        0.2450967173      105.8155935521  LPSA25    30             22.0000000000
     27594       894  ARHM      H2             37.8871914697        1.1150228585      106.0271949338  LPSA25    30             22.0000000000
     27595       894  ARHM      O2             39.7518771606        0.3136991170      106.5559308492  LPSA25    30             22.0000000000
     27596       894  ARHM      C3             37.8855712138       -1.0255500097      106.2294061365  LPSA25    30             22.0000000000
     27597       894  ARHM      H3             37.0326597198       -1.1467510438      105.5238340226  LPSA25    30             22.0000000000
     27598       894  ARHM      O3             37.3256827841       -0.9265875440      107.5460947315  LPSA25    30             22.0000000000
     27599       894  ARHM      C4             38.8296268253       -2.1594998939      105.9607124209  LPSA25    30             22.0000000000
     27600       894  ARHM      H4             39.7794945359       -2.0716342446      106.5402132260  LPSA25    30             22.0000000000
     27601       894  ARHM      O4             38.2980887328       -3.4281446040      106.3053546664  LPSA25    30             22.0000000000
     27602       894  ARHM      HO4            37.7007572474       -3.7264186054      105.6206062447  LPSA25    30             22.0000000000
     27603       894  ARHM      C6             39.9819967242       -3.2379861886      104.0435735484  LPSA25    30             22.0000000000
     27604       894  ARHM      H61            39.4784356556       -4.1982077952      104.2586575439  LPSA25    30             22.0000000000
     27605       894  ARHM      H62            40.2704298521       -3.2110324373      102.9787560776  LPSA25    30             22.0000000000
     27606       894  ARHM      H63            40.8567936598       -3.0928831535      104.6965645468  LPSA25    30             22.0000000000
     27607       895  BMANNA    C1             40.0862716434        1.5877619286      106.9298967066  LPSA25    31             23.0000000000
     27608       895  BMANNA    H1             39.2098812062        2.2341126854      107.1380871190  LPSA25    31             23.0000000000
     27609       895  BMANNA    C5             41.1846511490        3.5361043940      106.3141181911  LPSA25    31             23.0000000000
     27610       895  BMANNA    H5             40.2832641509        4.1422076806      106.5045979588  LPSA25    31             23.0000000000
     27611       895  BMANNA    O5             40.8568322664        2.2327313421      105.9763269155  LPSA25    31             23.0000000000
     27612       895  BMANNA    C2             40.8942667204        1.4547098086      108.1544759947  LPSA25    31             23.0000000000
     27613       895  BMANNA    H2             40.2649711814        1.0367702516      108.9303866303  LPSA25    31             23.0000000000
     27614       895  BMANNA    N              41.9923264365        0.3761159638      107.7448370954  LPSA25    31             23.0000000000
     27615       895  BMANNA    HN             42.2602631957        0.2884997794      106.7704758334  LPSA25    31             23.0000000000
     27616       895  BMANNA    C              42.6120622020       -0.5251782283      108.5988398730  LPSA25    31             23.0000000000
     27617       895  BMANNA    O              42.0989514146       -0.6525401947      109.7001961090  LPSA25    31             23.0000000000
     27618       895  BMANNA    CT             43.8607283314       -1.4352718916      108.3575553725  LPSA25    31             23.0000000000
     27619       895  BMANNA    HT1            44.6760424876       -1.3907958864      107.6642155689  LPSA25    31             23.0000000000
     27620       895  BMANNA    HT2            43.4218454322       -2.2301726248      107.7769894083  LPSA25    31             23.0000000000
     27621       895  BMANNA    HT3            44.3542897379       -1.7353795012      109.3138708742  LPSA25    31             23.0000000000
     27622       895  BMANNA    C3             41.1358432278        3.0295269917      108.6234993565  LPSA25    31             23.0000000000
     27623       895  BMANNA    H3             40.2326014969        3.6446108387      108.5986814192  LPSA25    31             23.0000000000
     27624       895  BMANNA    O3             41.5540726008        3.5254129648      109.8856132256  LPSA25    31             23.0000000000
     27625       895  BMANNA    HO3            42.0740807658        2.8736228860      110.4069511107  LPSA25    31             23.0000000000
     27626       895  BMANNA    C4             41.8960862889        3.5716835201      107.6124856778  LPSA25    31             23.0000000000
     27627       895  BMANNA    H4             42.5867821500        2.6497080349      107.5154609012  LPSA25    31             23.0000000000
     27628       895  BMANNA    O4             42.4380768940        4.9050814692      107.9256454883  LPSA25    31             23.0000000000
     27629       895  BMANNA    HO4            41.8509196985        5.5458472845      108.3411022229  LPSA25    31             23.0000000000
     27630       895  BMANNA    C6             41.9040848768        4.1381207335      105.1480402484  LPSA25    31             23.0000000000
     27631       895  BMANNA    H61            41.7929502468        5.1265289128      105.5983035355  LPSA25    31             23.0000000000
     27632       895  BMANNA    H62            42.9436538160        3.8061122737      104.9004319668  LPSA25    31             23.0000000000
     27633       895  BMANNA    O6             41.3359572214        4.3350401831      103.8722828151  LPSA25    31             23.0000000000
     27634       895  BMANNA    HO6            40.4514411048        4.7014687279      103.8510947032  LPSA25    31             23.0000000000
     27635       896  BGLCNA    C1             38.1955750849       -1.2074607991      108.6045444510  LPSA25    32             23.0000000000
     27636       896  BGLCNA    H1             39.1970098528       -0.7795825675      108.3977365937  LPSA25    32             23.0000000000
     27637       896  BGLCNA    C5             39.2719312636       -2.8232617493      109.9439228683  LPSA25    32             23.0000000000
     27638       896  BGLCNA    H5             40.0653687971       -2.1885265374      109.5984638601  LPSA25    32             23.0000000000
     27639       896  BGLCNA    O5             38.3119689954       -2.5980859213      108.9184237780  LPSA25    32             23.0000000000
     27640       896  BGLCNA    C2             37.6856149282       -0.5090397441      109.8361313438  LPSA25    32             23.0000000000
     27641       896  BGLCNA    H2             36.7569975335       -1.0600714011      110.1316553020  LPSA25    32             23.0000000000
     27642       896  BGLCNA    N              37.3691473704        0.8700409417      109.5772058155  LPSA25    32             23.0000000000
     27643       896  BGLCNA    HN             37.9258596508        1.2791974645      108.8783365635  LPSA25    32             23.0000000000
     27644       896  BGLCNA    C              36.3282841872        1.5606492529      110.0910597013  LPSA25    32             23.0000000000
     27645       896  BGLCNA    O              35.5645129986        1.0960604960      110.9270618063  LPSA25    32             23.0000000000
     27646       896  BGLCNA    CT             36.1890709682        2.9644633299      109.5461404915  LPSA25    32             23.0000000000
     27647       896  BGLCNA    HT1            36.7842489126        3.0203725355      108.6128986002  LPSA25    32             23.0000000000
     27648       896  BGLCNA    HT2            36.5754276579        3.7384488661      110.2420408670  LPSA25    32             23.0000000000
     27649       896  BGLCNA    HT3            35.1348082733        3.2233744011      109.3255345950  LPSA25    32             23.0000000000
     27650       896  BGLCNA    C3             38.7154629478       -0.6579291827      110.9092086343  LPSA25    32             23.0000000000
     27651       896  BGLCNA    H3             39.6829726488       -0.2808465796      110.4792814840  LPSA25    32             23.0000000000
     27652       896  BGLCNA    O3             38.3431094263        0.1594709932      112.0330682267  LPSA25    32             23.0000000000
     27653       896  BGLCNA    C4             38.8789409285       -2.1285814061      111.2053922187  LPSA25    32             23.0000000000
     27654       896  BGLCNA    H4             37.9423207599       -2.6065710026      111.4561118863  LPSA25    32             23.0000000000
     27655       896  BGLCNA    O4             39.7758379284       -2.3618854640      112.2673336043  LPSA25    32             23.0000000000
     27656       896  BGLCNA    HO4            39.2860602648       -2.4040616954      113.0885512877  LPSA25    32             23.0000000000
     27657       896  BGLCNA    C6             39.6317021576       -4.3037007145      110.0666679984  LPSA25    32             23.0000000000
     27658       896  BGLCNA    H61            40.5248951781       -4.4769037257      110.7113829944  LPSA25    32             23.0000000000
     27659       896  BGLCNA    H62            38.7805586974       -4.8401218037      110.5298795814  LPSA25    32             23.0000000000
     27660       896  BGLCNA    O6             39.9066175502       -4.8895728187      108.7940066303  LPSA25    32             23.0000000000
     27661       896  BGLCNA    HO6            40.4741190551       -4.2820344527      108.2893978195  LPSA25    32             23.0000000000
     27662       897  AGAL      C1             39.4650853995        0.7220125978      112.6458406589  LPSA25    33             24.0000000000
     27663       897  AGAL      H1             40.2939978938        0.0099895231      112.4541923247  LPSA25    33             24.0000000000
     27664       897  AGAL      C5             38.9713099434        2.9879644429      112.1828734513  LPSA25    33             24.0000000000
     27665       897  AGAL      H5             38.0525914290        2.5274079784      111.8019212110  LPSA25    33             24.0000000000
     27666       897  AGAL      O5             39.9321729818        1.9382481420      112.0413300741  LPSA25    33             24.0000000000
     27667       897  AGAL      C2             39.1515569598        1.0159153746      114.1462101732  LPSA25    33             24.0000000000
     27668       897  AGAL      H2             39.9313087517        1.6827063244      114.5903113137  LPSA25    33             24.0000000000
     27669       897  AGAL      O2             39.1984937155       -0.2511064002      114.9181113737  LPSA25    33             24.0000000000
     27670       897  AGAL      C3             38.1207628489        2.0775529463      114.2852999565  LPSA25    33             24.0000000000
     27671       897  AGAL      H3             37.2353415330        1.7540168184      113.7122858525  LPSA25    33             24.0000000000
     27672       897  AGAL      O3             37.7555986478        2.1899906425      115.6549520866  LPSA25    33             24.0000000000
     27673       897  AGAL      HO3            38.5023568667        2.4102207701      116.2358521889  LPSA25    33             24.0000000000
     27674       897  AGAL      C4             38.6566364926        3.3620055290      113.6045182270  LPSA25    33             24.0000000000
     27675       897  AGAL      H4             37.8793255228        4.1404459635      113.6341489828  LPSA25    33             24.0000000000
     27676       897  AGAL      O4             39.7635952659        3.9964641735      114.1755567809  LPSA25    33             24.0000000000
     27677       897  AGAL      HO4            40.1608201297        3.3891283211      114.7820593869  LPSA25    33             24.0000000000
     27678       897  AGAL      C6             39.2687813536        4.1569306478      111.2921453899  LPSA25    33             24.0000000000
     27679       897  AGAL      H61            39.2496166606        3.7576183509      110.2618268453  LPSA25    33             24.0000000000
     27680       897  AGAL      H62            38.5111700947        4.9155276646      111.3554276309  LPSA25    33             24.0000000000
     27681       897  AGAL      O6             40.4354364153        4.9061675878      111.6015556359  LPSA25    33             24.0000000000
     27682       897  AGAL      HO6            41.1647473705        4.5732659800      111.0147720964  LPSA25    33             24.0000000000
     27683       898  ARHM      C1             39.8793387204       -0.4014069366      116.1863122622  LPSA25    34             25.0000000000
     27684       898  ARHM      H1             39.4402026912        0.4853042156      116.6614984861  LPSA25    34             25.0000000000
     27685       898  ARHM      C5             41.9528429365       -1.7123007181      115.2449848593  LPSA25    34             25.0000000000
     27686       898  ARHM      H5             41.4082056553       -1.7725706866      114.2796330250  LPSA25    34             25.0000000000
     27687       898  ARHM      O5             41.3928856305       -0.6764944324      116.1939649576  LPSA25    34             25.0000000000
     27688       898  ARHM      C2             39.3218214289       -1.5936680098      116.7073803496  LPSA25    34             25.0000000000
     27689       898  ARHM      H2             38.2250992022       -1.5070747591      116.8596620126  LPSA25    34             25.0000000000
     27690       898  ARHM      O2             39.9235300179       -1.5929027819      118.0758669494  LPSA25    34             25.0000000000
     27691       898  ARHM      C3             39.7052109034       -2.7010705245      115.6936190760  LPSA25    34             25.0000000000
     27692       898  ARHM      H3             39.4364061590       -2.5080563750      114.6483238770  LPSA25    34             25.0000000000
     27693       898  ARHM      O3             38.8171363665       -3.8173257842      115.8719574069  LPSA25    34             25.0000000000
     27694       898  ARHM      HO3            39.2123771722       -4.6958852104      115.9582951906  LPSA25    34             25.0000000000
     27695       898  ARHM      C4             41.3163272837       -2.8367412596      115.6865915503  LPSA25    34             25.0000000000
     27696       898  ARHM      H4             41.8737663136       -2.7652595080      116.6084723578  LPSA25    34             25.0000000000
     27697       898  ARHM      O4             41.8840797211       -3.9679693600      115.1961909464  LPSA25    34             25.0000000000
     27698       898  ARHM      HO4            41.8752961020       -4.7226145261      115.7812270273  LPSA25    34             25.0000000000
     27699       898  ARHM      C6             43.4847574611       -1.5975185098      114.6580942513  LPSA25    34             25.0000000000
     27700       898  ARHM      H61            44.3696852826       -1.5872110349      115.2439644033  LPSA25    34             25.0000000000
     27701       898  ARHM      H62            43.7840286165       -2.5428122798      114.1905667211  LPSA25    34             25.0000000000
     27702       898  ARHM      H63            43.7302835809       -0.6866044187      114.0592389772  LPSA25    34             25.0000000000
     27703       899  ARHM      C1             39.7072710033       -0.5885100535      119.0802248974  LPSA25    35             26.0000000000
     27704       899  ARHM      H1             38.7126046565       -0.1095085772      118.9255451336  LPSA25    35             26.0000000000
     27705       899  ARHM      C5             42.1018521144       -0.1784424773      119.2148715398  LPSA25    35             26.0000000000
     27706       899  ARHM      H5             42.2386513640       -0.9520928283      118.4656684399  LPSA25    35             26.0000000000
     27707       899  ARHM      O5             40.7762858692        0.3654101450      119.0615569092  LPSA25    35             26.0000000000
     27708       899  ARHM      C2             39.7654390900       -1.1906569179      120.4748262368  LPSA25    35             26.0000000000
     27709       899  ARHM      H2             38.9912345811       -1.9462966463      120.6551054901  LPSA25    35             26.0000000000
     27710       899  ARHM      O2             39.5421582888       -0.0992473816      121.4225919532  LPSA25    35             26.0000000000
     27711       899  ARHM      C3             41.0780635016       -1.8988232854      120.7322917890  LPSA25    35             26.0000000000
     27712       899  ARHM      H3             41.3894484870       -2.5524316674      119.9123038532  LPSA25    35             26.0000000000
     27713       899  ARHM      O3             41.0178720214       -2.7479005721      121.8639685839  LPSA25    35             26.0000000000
     27714       899  ARHM      HO3            40.6902740106       -2.1193126657      122.5284219274  LPSA25    35             26.0000000000
     27715       899  ARHM      C4             42.0953581465       -0.8620720276      120.6986426571  LPSA25    35             26.0000000000
     27716       899  ARHM      H4             41.6933407761       -0.2605001912      121.5380883055  LPSA25    35             26.0000000000
     27717       899  ARHM      O4             43.2748451404       -1.1716561706      121.4010395333  LPSA25    35             26.0000000000
     27718       899  ARHM      HO4            43.8420975035       -1.7339430100      120.8403948506  LPSA25    35             26.0000000000
     27719       899  ARHM      C6             43.1666653158        0.8584360045      118.5900148860  LPSA25    35             26.0000000000
     27720       899  ARHM      H61            43.2226694783        1.0704107443      117.5080120367  LPSA25    35             26.0000000000
     27721       899  ARHM      H62            42.9047095768        1.8918352034      118.8583764428  LPSA25    35             26.0000000000
     27722       899  ARHM      H63            44.1812526405        0.6558705094      118.9069956586  LPSA25    35             26.0000000000
     27723       900  BMANNA    C1             38.2239099753        0.3980659600      121.4804075707  LPSA25    36             27.0000000000
     27724       900  BMANNA    H1             37.5559853099       -0.4106968887      121.1286537447  LPSA25    36             27.0000000000
     27725       900  BMANNA    C5             36.5326135650        1.8808245264      120.7121978341  LPSA25    36             27.0000000000
     27726       900  BMANNA    H5             35.9445323533        0.9690883559      120.4269431904  LPSA25    36             27.0000000000
     27727       900  BMANNA    O5             37.9446758277        1.5464368284      120.6570926214  LPSA25    36             27.0000000000
     27728       900  BMANNA    C2             37.9147139569        0.7330413224      122.9283263970  LPSA25    36             27.0000000000
     27729       900  BMANNA    H2             38.0924585372       -0.2054559373      123.5000589705  LPSA25    36             27.0000000000
     27730       900  BMANNA    N              38.7359382273        1.7536493341      123.5021750400  LPSA25    36             27.0000000000
     27731       900  BMANNA    HN             39.0305558451        2.4569406988      122.8882454564  LPSA25    36             27.0000000000
     27732       900  BMANNA    C              39.0168830588        1.8666926042      124.8003683125  LPSA25    36             27.0000000000
     27733       900  BMANNA    O              38.8015012569        0.9800029954      125.6102458854  LPSA25    36             27.0000000000
     27734       900  BMANNA    CT             39.6444298571        3.1557014733      125.2532347364  LPSA25    36             27.0000000000
     27735       900  BMANNA    HT1            39.2274945361        4.0540543040      124.7842341568  LPSA25    36             27.0000000000
     27736       900  BMANNA    HT2            40.7333810954        3.1255146059      125.0334028676  LPSA25    36             27.0000000000
     27737       900  BMANNA    HT3            39.4892265259        3.2273150503      126.3517664505  LPSA25    36             27.0000000000
     27738       900  BMANNA    C3             36.4630849020        1.1104379993      123.0190930251  LPSA25    36             27.0000000000
     27739       900  BMANNA    H3             35.8932206124        0.2971738851      122.5792379255  LPSA25    36             27.0000000000
     27740       900  BMANNA    O3             36.0009000315        1.3524916745      124.3498808920  LPSA25    36             27.0000000000
     27741       900  BMANNA    HO3            35.4678372560        0.6416362536      124.7249068020  LPSA25    36             27.0000000000
     27742       900  BMANNA    C4             36.1450515280        2.2608858003      122.1276485733  LPSA25    36             27.0000000000
     27743       900  BMANNA    H4             36.6912819644        3.1696258158      122.4466352161  LPSA25    36             27.0000000000
     27744       900  BMANNA    O4             34.7723130194        2.5750865100      122.2332175127  LPSA25    36             27.0000000000
     27745       900  BMANNA    HO4            34.6556311598        2.6711716098      123.1985871105  LPSA25    36             27.0000000000
     27746       900  BMANNA    C6             36.1467875319        2.9399943638      119.7115411957  LPSA25    36             27.0000000000
     27747       900  BMANNA    H61            36.4572380972        2.6313827652      118.6894350272  LPSA25    36             27.0000000000
     27748       900  BMANNA    H62            35.0356418812        3.0114102294      119.6916173003  LPSA25    36             27.0000000000
     27749       900  BMANNA    O6             36.6982150737        4.2191732765      120.0429222944  LPSA25    36             27.0000000000
     27750       900  BMANNA    HO6            36.0995415536        4.6954867741      120.6262027569  LPSA25    36             27.0000000000
     27751       901  ECLIPA    HB6S          -38.2423127518       12.2487069772       20.3925407553  LPSA26    1               0.0000000000
     27752       901  ECLIPA    OB6           -36.8293661643       12.8967604511       21.7146305722  LPSA26    1               0.0000000000
     27753       901  ECLIPA    CB6           -37.7857611184       13.2074263775       20.6932560067  LPSA26    1               0.0000000000
     27754       901  ECLIPA    HB6R          -38.5748202098       13.8746853200       21.0978414196  LPSA26    1               0.0000000000
     27755       901  ECLIPA    CB5           -37.2394071762       13.8581978646       19.4324379619  LPSA26    1               0.0000000000
     27756       901  ECLIPA    OB5           -36.2003466179       12.9916107540       18.9550631314  LPSA26    1               0.0000000000
     27757       901  ECLIPA    HB5           -36.8258408839       14.8487798423       19.7339520099  LPSA26    1               0.0000000000
     27758       901  ECLIPA    CB1           -35.5638007087       13.5107513447       17.7860502058  LPSA26    1               0.0000000000
     27759       901  ECLIPA    HB1           -35.1418796369       14.5274823951       17.9664642381  LPSA26    1               0.0000000000
     27760       901  ECLIPA    OA6           -34.5173728543       12.6982867312       17.3311035235  LPSA26    1               0.0000000000
     27761       901  ECLIPA    CA6           -34.7226678496       11.2918118200       17.5494311966  LPSA26    1               0.0000000000
     27762       901  ECLIPA    HA6R          -35.7692367909       11.0129948473       17.7637461879  LPSA26    1               0.0000000000
     27763       901  ECLIPA    HA6S          -34.0986419878       10.9879087662       18.4063119980  LPSA26    1               0.0000000000
     27764       901  ECLIPA    CB4           -38.3064745903       14.0569999623       18.3385460970  LPSA26    1               0.0000000000
     27765       901  ECLIPA    HB4           -38.7988140307       13.0915192487       18.0512588376  LPSA26    1               0.0000000000
     27766       901  ECLIPA    OB4           -39.2236435190       15.0053078659       18.9005607462  LPSA26    1               0.0000000000
     27767       901  ECLIPA    PB            -40.7429880061       14.5476484474       19.3643501515  LPSA26    1               0.0000000000
     27768       901  ECLIPA    OPB4          -41.1401760555       15.1742218380       20.7005312500  LPSA26    1               0.0000000000
     27769       901  ECLIPA    OPB3          -40.6654243233       13.1261368150       19.9265238036  LPSA26    1               0.0000000000
     27770       901  ECLIPA    OPB2          -41.6042757090       14.7262389507       18.1444668742  LPSA26    1               0.0000000000
     27771       901  ECLIPA    CB3           -37.6351484280       14.6007508791       17.0879139460  LPSA26    1               0.0000000000
     27772       901  ECLIPA    OB3           -38.5025257733       14.7332212811       15.9544430448  LPSA26    1               0.0000000000
     27773       901  ECLIPA    HB3           -37.1060530787       15.5533543416       17.3353474522  LPSA26    1               0.0000000000
     27774       901  ECLIPA    C71           -39.1807537366       15.8642857976       15.7869402396  LPSA26    1               0.0000000000
     27775       901  ECLIPA    O71           -38.7700296583       16.9395852858       16.2078098281  LPSA26    1               0.0000000000
     27776       901  ECLIPA    C72           -39.8488424728       15.7779615376       14.3862643427  LPSA26    1               0.0000000000
     27777       901  ECLIPA    H72R          -39.0957693029       15.5384681299       13.6061028581  LPSA26    1               0.0000000000
     27778       901  ECLIPA    H72S          -40.3083468407       16.7624931112       14.1736482048  LPSA26    1               0.0000000000
     27779       901  ECLIPA    CB2           -36.5532175189       13.6279296648       16.6646048026  LPSA26    1               0.0000000000
     27780       901  ECLIPA    HB2           -37.0319751461       12.6187921387       16.5124101494  LPSA26    1               0.0000000000
     27781       901  ECLIPA    NB2           -35.8843070730       14.0903528279       15.4517029170  LPSA26    1               0.0000000000
     27782       901  ECLIPA    HNB2          -35.0839517769       14.6708519537       15.5730576328  LPSA26    1               0.0000000000
     27783       901  ECLIPA    CA4           -33.0557547115       11.0365864013       15.8246839447  LPSA26    1               0.0000000000
     27784       901  ECLIPA    HA4           -33.1546326490       12.1272090699       15.6019895434  LPSA26    1               0.0000000000
     27785       901  ECLIPA    OA4           -32.1688712589       10.8004339632       16.9003529685  LPSA26    1               0.0000000000
     27786       901  ECLIPA    HOA4          -32.2956463896       11.4602116788       17.5966335898  LPSA26    1               0.0000000000
     27787       901  ECLIPA    CA5           -34.3015845510       10.5219586440       16.3345005207  LPSA26    1               0.0000000000
     27788       901  ECLIPA    HA5           -34.1962490985        9.4267784677       16.5704974047  LPSA26    1               0.0000000000
     27789       901  ECLIPA    OA5           -35.2616269227       10.7372516818       15.3186329043  LPSA26    1               0.0000000000
     27790       901  ECLIPA    CA1           -34.9807732601       10.0236011527       14.1000021936  LPSA26    1               0.0000000000
     27791       901  ECLIPA    HA1           -35.7253532475       10.4428144602       13.3976969830  LPSA26    1               0.0000000000
     27792       901  ECLIPA    OA1           -35.0310195044        8.6292881945       14.1744666470  LPSA26    1               0.0000000000
     27793       901  ECLIPA    OPA2          -36.0133809062        7.3355451312       16.0266276631  LPSA26    1               0.0000000000
     27794       901  ECLIPA    OPA3          -37.4734420168        9.0933152931       14.8685880187  LPSA26    1               0.0000000000
     27795       901  ECLIPA    OPA4          -36.8096580311        7.0188322693       13.6138712510  LPSA26    1               0.0000000000
     27796       901  ECLIPA    PA            -36.4351326871        7.9925168182       14.7145859192  LPSA26    1               0.0000000000
     27797       901  ECLIPA    CA3           -32.7363362291       10.3391865265       14.5511274898  LPSA26    1               0.0000000000
     27798       901  ECLIPA    HA3           -32.2705838797        9.3316390876       14.7053233463  LPSA26    1               0.0000000000
     27799       901  ECLIPA    OA3           -31.8537132415       11.2154282553       13.9970845102  LPSA26    1               0.0000000000
     27800       901  ECLIPA    C31           -31.9255604912       12.4111871943       13.3086855208  LPSA26    1               0.0000000000
     27801       901  ECLIPA    O31           -31.7120344591       12.2641546454       12.1107024492  LPSA26    1               0.0000000000
     27802       901  ECLIPA    C32           -31.3010923139       13.7079345756       14.1268837640  LPSA26    1               0.0000000000
     27803       901  ECLIPA    H32R          -30.5417978481       14.0853716462       13.5387094397  LPSA26    1               0.0000000000
     27804       901  ECLIPA    H32S          -30.6487560318       13.7376989473       15.0145741900  LPSA26    1               0.0000000000
     27805       901  ECLIPA    CA2           -33.7375119607       10.4880686369       13.5117989556  LPSA26    1               0.0000000000
     27806       901  ECLIPA    HA2           -34.0004320218       11.5549068405       13.3212610970  LPSA26    1               0.0000000000
     27807       901  ECLIPA    NA2           -33.3220889403        9.8524135105       12.2442739475  LPSA26    1               0.0000000000
     27808       901  ECLIPA    HNA2          -32.3579701460        9.6143095738       12.1450090008  LPSA26    1               0.0000000000
     27809       901  ECLIPA    C73           -40.9167522736       14.6681000680       14.3515637449  LPSA26    1               0.0000000000
     27810       901  ECLIPA    H73R          -41.5416571005       14.7719459135       15.2790794266  LPSA26    1               0.0000000000
     27811       901  ECLIPA    O73           -40.1989083895       13.4411969548       14.2772457682  LPSA26    1               0.0000000000
     27812       901  ECLIPA    C81           -40.6726134428       12.3860471318       14.9323103519  LPSA26    1               0.0000000000
     27813       901  ECLIPA    O81           -41.7263139869       12.3740980872       15.5448983341  LPSA26    1               0.0000000000
     27814       901  ECLIPA    C82           -40.0207460481       11.1200128749       14.3400090265  LPSA26    1               0.0000000000
     27815       901  ECLIPA    H82R          -40.4070722928       10.2262560050       14.8698832278  LPSA26    1               0.0000000000
     27816       901  ECLIPA    H82S          -38.9314144308       11.1595543655       14.5556852001  LPSA26    1               0.0000000000
     27817       901  ECLIPA    C83           -40.2188658139       10.9712888683       12.8092210751  LPSA26    1               0.0000000000
     27818       901  ECLIPA    H83R          -39.4718748423       11.6170862382       12.2900725994  LPSA26    1               0.0000000000
     27819       901  ECLIPA    H83S          -41.2313865603       11.3284970184       12.5377302913  LPSA26    1               0.0000000000
     27820       901  ECLIPA    C84           -39.9788899951        9.5410891132       12.2926062655  LPSA26    1               0.0000000000
     27821       901  ECLIPA    H84R          -40.7963300241        8.8587630250       12.6021310929  LPSA26    1               0.0000000000
     27822       901  ECLIPA    H84S          -39.0233050743        9.1917111442       12.7659272529  LPSA26    1               0.0000000000
     27823       901  ECLIPA    C85           -39.7654076837        9.4930527834       10.7713955307  LPSA26    1               0.0000000000
     27824       901  ECLIPA    H85R          -39.1034387413       10.3609365637       10.5456552118  LPSA26    1               0.0000000000
     27825       901  ECLIPA    H85S          -40.7194842298        9.6742798005       10.2358243402  LPSA26    1               0.0000000000
     27826       901  ECLIPA    C86           -39.0104454215        8.2361350041       10.2854830692  LPSA26    1               0.0000000000
     27827       901  ECLIPA    H86R          -39.7142788396        7.4270950872        9.9914787330  LPSA26    1               0.0000000000
     27828       901  ECLIPA    H86S          -38.4000781275        7.8287162043       11.1288583956  LPSA26    1               0.0000000000
     27829       901  ECLIPA    C87           -38.0012147061        8.5432073442        9.1601597761  LPSA26    1               0.0000000000
     27830       901  ECLIPA    H87R          -37.5495808452        7.5933835124        8.7985174051  LPSA26    1               0.0000000000
     27831       901  ECLIPA    H87S          -37.1641584549        9.1509695882        9.5767836306  LPSA26    1               0.0000000000
     27832       901  ECLIPA    C88           -38.6209661304        9.3543795065        8.0209979275  LPSA26    1               0.0000000000
     27833       901  ECLIPA    H88R          -38.7308370323       10.4088313632        8.3507611495  LPSA26    1               0.0000000000
     27834       901  ECLIPA    H88S          -39.6642486000        8.9943941271        7.8782923477  LPSA26    1               0.0000000000
     27835       901  ECLIPA    C89           -37.8039997606        9.3127145267        6.7156238513  LPSA26    1               0.0000000000
     27836       901  ECLIPA    H89R          -36.7449570411        9.0233639568        6.8953109312  LPSA26    1               0.0000000000
     27837       901  ECLIPA    H89S          -37.7656214726       10.3249201835        6.2587189063  LPSA26    1               0.0000000000
     27838       901  ECLIPA    C810          -38.4705494313        8.3836473770        5.6971654602  LPSA26    1               0.0000000000
     27839       901  ECLIPA    H810R         -39.5563279637        8.3939262253        5.9306252712  LPSA26    1               0.0000000000
     27840       901  ECLIPA    H810S         -38.0880369572        7.3519053986        5.8639555580  LPSA26    1               0.0000000000
     27841       901  ECLIPA    C811          -38.2528482765        8.7998850391        4.2341337299  LPSA26    1               0.0000000000
     27842       901  ECLIPA    H811R         -38.4186964256        7.9419417955        3.5408803221  LPSA26    1               0.0000000000
     27843       901  ECLIPA    H811S         -37.1943835104        9.1328562159        4.1545259063  LPSA26    1               0.0000000000
     27844       901  ECLIPA    C812          -39.1128165050        9.9725596699        3.7359298073  LPSA26    1               0.0000000000
     27845       901  ECLIPA    H812R         -38.7369880401       10.2291183789        2.7142916506  LPSA26    1               0.0000000000
     27846       901  ECLIPA    H812S         -38.9685375493       10.8434727154        4.4079817645  LPSA26    1               0.0000000000
     27847       901  ECLIPA    C813          -40.6186999598        9.7159335813        3.6369287992  LPSA26    1               0.0000000000
     27848       901  ECLIPA    H813R         -40.7757589851        8.8761358208        2.9286710549  LPSA26    1               0.0000000000
     27849       901  ECLIPA    H813S         -41.0443056858        9.4195773303        4.6240525813  LPSA26    1               0.0000000000
     27850       901  ECLIPA    C814          -41.3806646441       10.9410243569        3.1305728047  LPSA26    1               0.0000000000
     27851       901  ECLIPA    H814R         -40.9139385139       11.3774634359        2.2192803881  LPSA26    1               0.0000000000
     27852       901  ECLIPA    H814S         -41.4059457936       11.7222869405        3.9185845707  LPSA26    1               0.0000000000
     27853       901  ECLIPA    H814T         -42.4257083292       10.6621759019        2.8882733636  LPSA26    1               0.0000000000
     27854       901  ECLIPA    C74           -41.8650841678       14.6692918419       13.1258418605  LPSA26    1               0.0000000000
     27855       901  ECLIPA    H74R          -42.5332639240       15.5218260003       13.0329905717  LPSA26    1               0.0000000000
     27856       901  ECLIPA    H74S          -42.5863061009       13.8454356021       13.3247487253  LPSA26    1               0.0000000000
     27857       901  ECLIPA    C75           -41.1765700394       14.3797326447       11.7731728790  LPSA26    1               0.0000000000
     27858       901  ECLIPA    H75R          -41.8995425179       13.7768272861       11.1820395389  LPSA26    1               0.0000000000
     27859       901  ECLIPA    H75S          -40.2925051382       13.7364001313       11.9677911736  LPSA26    1               0.0000000000
     27860       901  ECLIPA    C76           -40.6909621871       15.5888856732       10.9503420248  LPSA26    1               0.0000000000
     27861       901  ECLIPA    H76R          -39.7500396758       15.9820517706       11.3804622731  LPSA26    1               0.0000000000
     27862       901  ECLIPA    H76S          -41.3686385700       16.4556274589       10.9958541777  LPSA26    1               0.0000000000
     27863       901  ECLIPA    C77           -40.4813703541       15.2965400602        9.4521573213  LPSA26    1               0.0000000000
     27864       901  ECLIPA    H77R          -41.4536804461       15.0137661390        8.9956495218  LPSA26    1               0.0000000000
     27865       901  ECLIPA    H77S          -39.8177365086       14.4320635895        9.3027997832  LPSA26    1               0.0000000000
     27866       901  ECLIPA    C78           -39.8091318933       16.5172801033        8.7993631143  LPSA26    1               0.0000000000
     27867       901  ECLIPA    H78R          -40.4097798751       17.4152676554        9.0646897841  LPSA26    1               0.0000000000
     27868       901  ECLIPA    H78S          -38.8296636445       16.6290814124        9.3191360366  LPSA26    1               0.0000000000
     27869       901  ECLIPA    C79           -39.4748863296       16.4432616739        7.2921033042  LPSA26    1               0.0000000000
     27870       901  ECLIPA    H79R          -38.4257399125       16.0875253133        7.1730887473  LPSA26    1               0.0000000000
     27871       901  ECLIPA    H79S          -39.5336344611       17.4558730629        6.8320959626  LPSA26    1               0.0000000000
     27872       901  ECLIPA    C710          -40.3994661157       15.5731316945        6.4486658473  LPSA26    1               0.0000000000
     27873       901  ECLIPA    H710R         -40.4646980018       14.5481876717        6.8652565362  LPSA26    1               0.0000000000
     27874       901  ECLIPA    H710S         -41.4045323694       16.0269869301        6.4866052228  LPSA26    1               0.0000000000
     27875       901  ECLIPA    C711          -39.9822221993       15.4668944834        4.9814280204  LPSA26    1               0.0000000000
     27876       901  ECLIPA    H711R         -39.9480514744       16.4840035123        4.5301429186  LPSA26    1               0.0000000000
     27877       901  ECLIPA    H711S         -38.9735488501       14.9991191454        4.9178946942  LPSA26    1               0.0000000000
     27878       901  ECLIPA    C712          -40.9770551635       14.5785762816        4.2329732357  LPSA26    1               0.0000000000
     27879       901  ECLIPA    H712R         -41.9743099631       15.0726660845        4.2544134139  LPSA26    1               0.0000000000
     27880       901  ECLIPA    H712S         -41.0651968313       13.6399321977        4.8234823693  LPSA26    1               0.0000000000
     27881       901  ECLIPA    C713          -40.5386084189       14.2309451060        2.8052026223  LPSA26    1               0.0000000000
     27882       901  ECLIPA    H713R         -39.5738193708       13.6797859251        2.8476645004  LPSA26    1               0.0000000000
     27883       901  ECLIPA    H713S         -41.3054860384       13.5779511609        2.3234754339  LPSA26    1               0.0000000000
     27884       901  ECLIPA    C714          -40.3949306741       15.4271936363        1.8901852051  LPSA26    1               0.0000000000
     27885       901  ECLIPA    H714R         -41.4000700984       15.8730130477        1.8393464705  LPSA26    1               0.0000000000
     27886       901  ECLIPA    H714S         -39.6465375731       16.1761477365        2.2309638577  LPSA26    1               0.0000000000
     27887       901  ECLIPA    H714T         -40.1438501933       15.1049183382        0.8626951257  LPSA26    1               0.0000000000
     27888       901  ECLIPA    C51           -36.3589624820       13.7891524359       14.2373574975  LPSA26    1               0.0000000000
     27889       901  ECLIPA    O51           -37.1865679262       12.9120452126       14.0785141165  LPSA26    1               0.0000000000
     27890       901  ECLIPA    C52           -35.8746802505       14.6034664706       13.0671642051  LPSA26    1               0.0000000000
     27891       901  ECLIPA    H52R          -36.5093811316       15.5082180181       12.9354690954  LPSA26    1               0.0000000000
     27892       901  ECLIPA    H52S          -34.8412293599       14.9353902037       13.2509004361  LPSA26    1               0.0000000000
     27893       901  ECLIPA    C53           -35.9445946061       13.7652784309       11.7837925961  LPSA26    1               0.0000000000
     27894       901  ECLIPA    H53R          -35.6969185777       12.6925888717       11.9988760111  LPSA26    1               0.0000000000
     27895       901  ECLIPA    O53           -35.0312554276       14.3854179699       10.8961156363  LPSA26    1               0.0000000000
     27896       901  ECLIPA    C61           -34.0144986417       13.6923264227       10.5114949133  LPSA26    1               0.0000000000
     27897       901  ECLIPA    O61           -33.7557222592       12.5448332975       10.7916252142  LPSA26    1               0.0000000000
     27898       901  ECLIPA    C62           -33.2720003131       14.5811517728        9.5250165420  LPSA26    1               0.0000000000
     27899       901  ECLIPA    H62R          -32.6408162972       15.2172070971       10.1794161089  LPSA26    1               0.0000000000
     27900       901  ECLIPA    H62S          -33.9305001673       15.2655739954        9.0168382925  LPSA26    1               0.0000000000
     27901       901  ECLIPA    C63           -32.5301413795       13.7531343786        8.4603245034  LPSA26    1               0.0000000000
     27902       901  ECLIPA    H63R          -32.9167311074       12.7801881891        8.1419049486  LPSA26    1               0.0000000000
     27903       901  ECLIPA    H63S          -31.9864581687       13.3035876039        9.2794198484  LPSA26    1               0.0000000000
     27904       901  ECLIPA    C64           -31.8616049297       14.4302399888        7.1905201916  LPSA26    1               0.0000000000
     27905       901  ECLIPA    H64R          -30.8433257114       14.2947947816        6.9068089898  LPSA26    1               0.0000000000
     27906       901  ECLIPA    H64S          -30.9577353140       15.0773779886        6.9610142416  LPSA26    1               0.0000000000
     27907       901  ECLIPA    C65           -32.8682505629       14.9811410622        6.4729569491  LPSA26    1               0.0000000000
     27908       901  ECLIPA    H65R          -33.2925490984       15.6615393266        7.2139880616  LPSA26    1               0.0000000000
     27909       901  ECLIPA    H65S          -33.3688596704       14.0494091791        6.1503687521  LPSA26    1               0.0000000000
     27910       901  ECLIPA    C66           -32.4359083075       15.7797921261        5.4327165257  LPSA26    1               0.0000000000
     27911       901  ECLIPA    H66R          -31.5679457089       16.5064542227        5.7255402726  LPSA26    1               0.0000000000
     27912       901  ECLIPA    H66S          -33.2768004259       16.2904337114        4.9306354051  LPSA26    1               0.0000000000
     27913       901  ECLIPA    C67           -32.1958621732       14.8549291940        4.3325953534  LPSA26    1               0.0000000000
     27914       901  ECLIPA    H67R          -31.4788058644       14.0670706008        4.5024177483  LPSA26    1               0.0000000000
     27915       901  ECLIPA    H67S          -31.7668591890       15.8042695889        4.0982497230  LPSA26    1               0.0000000000
     27916       901  ECLIPA    C68           -32.6582466711       13.6235676989        3.6301182627  LPSA26    1               0.0000000000
     27917       901  ECLIPA    H68R          -33.4447025098       14.0042935364        3.0050196808  LPSA26    1               0.0000000000
     27918       901  ECLIPA    H68S          -32.7984545247       12.7742623690        4.3436261486  LPSA26    1               0.0000000000
     27919       901  ECLIPA    C69           -31.7591286152       13.0022957948        2.5945163938  LPSA26    1               0.0000000000
     27920       901  ECLIPA    H69R          -30.6364407807       12.8787343336        2.7072053165  LPSA26    1               0.0000000000
     27921       901  ECLIPA    H69S          -31.9209009424       13.7378356397        1.7661205034  LPSA26    1               0.0000000000
     27922       901  ECLIPA    C610          -32.1850662334       11.7249306263        2.3118728888  LPSA26    1               0.0000000000
     27923       901  ECLIPA    H610R         -33.2593822443       11.8067809979        2.3378999776  LPSA26    1               0.0000000000
     27924       901  ECLIPA    H610S         -31.7789315643       10.8908086411        2.8982117101  LPSA26    1               0.0000000000
     27925       901  ECLIPA    C611          -31.5980059121       11.6205593385        1.0660791582  LPSA26    1               0.0000000000
     27926       901  ECLIPA    H611R         -30.6075822279       12.1534712021        1.1275201621  LPSA26    1               0.0000000000
     27927       901  ECLIPA    H611S         -31.7550964687       10.5691772599        0.6235208747  LPSA26    1               0.0000000000
     27928       901  ECLIPA    C612          -31.5447278129       12.5007754568       -0.0357027512  LPSA26    1               0.0000000000
     27929       901  ECLIPA    H612R         -32.3333906455       12.0497251527       -0.2594735909  LPSA26    1               0.0000000000
     27930       901  ECLIPA    H612S         -32.0942209991       13.4221867595       -0.1639099022  LPSA26    1               0.0000000000
     27931       901  ECLIPA    H612T         -31.2067258810       11.8180056508       -0.8640560058  LPSA26    1               0.0000000000
     27932       901  ECLIPA    C54           -37.3581477208       13.8577191034       11.1771053740  LPSA26    1               0.0000000000
     27933       901  ECLIPA    H54R          -37.5019644213       14.9214340102       10.8829352226  LPSA26    1               0.0000000000
     27934       901  ECLIPA    H54S          -38.0761225110       13.6176869259       11.9825768662  LPSA26    1               0.0000000000
     27935       901  ECLIPA    C55           -37.6584631202       12.9546378550        9.9649490422  LPSA26    1               0.0000000000
     27936       901  ECLIPA    H55R          -38.7583984891       12.8928989076        9.8221048277  LPSA26    1               0.0000000000
     27937       901  ECLIPA    H55S          -37.3232995931       11.9206383094       10.2035122685  LPSA26    1               0.0000000000
     27938       901  ECLIPA    C56           -37.0384479305       13.5454317101        8.6906418439  LPSA26    1               0.0000000000
     27939       901  ECLIPA    H56R          -35.9540314503       13.6720463341        8.8572162096  LPSA26    1               0.0000000000
     27940       901  ECLIPA    H56S          -37.4609017046       14.5595394556        8.5049146916  LPSA26    1               0.0000000000
     27941       901  ECLIPA    C57           -37.1367812455       12.7294196373        7.4038583939  LPSA26    1               0.0000000000
     27942       901  ECLIPA    H57R          -38.1876675759       12.4490095506        7.1808750093  LPSA26    1               0.0000000000
     27943       901  ECLIPA    H57S          -36.5686932106       11.7815381174        7.5428983421  LPSA26    1               0.0000000000
     27944       901  ECLIPA    C58           -36.5018218446       13.5224727141        6.2405810150  LPSA26    1               0.0000000000
     27945       901  ECLIPA    H58R          -36.8643174718       14.5708984677        6.2179492498  LPSA26    1               0.0000000000
     27946       901  ECLIPA    H58S          -35.4129143981       13.5941807411        6.4619052026  LPSA26    1               0.0000000000
     27947       901  ECLIPA    C59           -36.7771390207       12.8745875641        4.8708922530  LPSA26    1               0.0000000000
     27948       901  ECLIPA    H59R          -37.8757555627       12.7698782115        4.7169467989  LPSA26    1               0.0000000000
     27949       901  ECLIPA    H59S          -36.3530665354       11.8504120112        4.9586115544  LPSA26    1               0.0000000000
     27950       901  ECLIPA    C510          -36.2726302313       13.6797665474        3.6474272750  LPSA26    1               0.0000000000
     27951       901  ECLIPA    H510R         -35.2434822288       14.0437917552        3.8283297770  LPSA26    1               0.0000000000
     27952       901  ECLIPA    H510S         -36.9185834814       14.5774317987        3.5180171033  LPSA26    1               0.0000000000
     27953       901  ECLIPA    C511          -36.2926317124       12.9231601633        2.3049122247  LPSA26    1               0.0000000000
     27954       901  ECLIPA    H511R         -35.4040394830       12.2617285153        2.2932279866  LPSA26    1               0.0000000000
     27955       901  ECLIPA    H511S         -37.1965353679       12.2866780373        2.2154638913  LPSA26    1               0.0000000000
     27956       901  ECLIPA    C512          -36.1925233587       13.8296043435        1.0760847044  LPSA26    1               0.0000000000
     27957       901  ECLIPA    H512R         -36.4650050622       13.2614599429        0.1459104635  LPSA26    1               0.0000000000
     27958       901  ECLIPA    H512S         -36.9132183176       14.6681683829        1.1388382612  LPSA26    1               0.0000000000
     27959       901  ECLIPA    C513          -34.7764133947       14.3739727299        0.9289211260  LPSA26    1               0.0000000000
     27960       901  ECLIPA    H513R         -34.0346133467       13.5535769508        0.8925346550  LPSA26    1               0.0000000000
     27961       901  ECLIPA    H513S         -34.3951459804       15.0740962348        1.6722588995  LPSA26    1               0.0000000000
     27962       901  ECLIPA    C514          -34.6542812805       15.0894747578       -0.3210078281  LPSA26    1               0.0000000000
     27963       901  ECLIPA    H514R         -35.3975876461       15.8783400896       -0.4982575958  LPSA26    1               0.0000000000
     27964       901  ECLIPA    H514S         -33.6541015315       15.4947805725       -0.5525912109  LPSA26    1               0.0000000000
     27965       901  ECLIPA    H514T         -34.8587303445       14.2972536798       -1.0527591728  LPSA26    1               0.0000000000
     27966       901  ECLIPA    C33           -31.7242997582       14.9594031348       14.5602115162  LPSA26    1               0.0000000000
     27967       901  ECLIPA    H33R          -30.9088294830       15.5345217673       15.0475759606  LPSA26    1               0.0000000000
     27968       901  ECLIPA    O33           -32.6154900639       14.5649885053       15.5400003233  LPSA26    1               0.0000000000
     27969       901  ECLIPA    HO33          -32.0059860715       14.4645688563       16.3042404664  LPSA26    1               0.0000000000
     27970       901  ECLIPA    C34           -32.1185685824       15.3977458755       13.2195696339  LPSA26    1               0.0000000000
     27971       901  ECLIPA    H34R          -32.7402221094       14.6258144613       12.7385050644  LPSA26    1               0.0000000000
     27972       901  ECLIPA    H34S          -31.1858387746       15.5003117816       12.6075498568  LPSA26    1               0.0000000000
     27973       901  ECLIPA    C35           -32.6216448650       16.7329942923       13.4225998009  LPSA26    1               0.0000000000
     27974       901  ECLIPA    H35R          -31.7818067999       17.4038219560       13.7325117248  LPSA26    1               0.0000000000
     27975       901  ECLIPA    H35S          -33.3225512356       16.5904207350       14.2744870936  LPSA26    1               0.0000000000
     27976       901  ECLIPA    C36           -33.2838599247       17.0947338467       12.1512609508  LPSA26    1               0.0000000000
     27977       901  ECLIPA    H36R          -33.5395319905       16.1827995249       11.6114777165  LPSA26    1               0.0000000000
     27978       901  ECLIPA    H36S          -32.6013206212       17.7297886907       11.5233764448  LPSA26    1               0.0000000000
     27979       901  ECLIPA    C37           -34.6673138090       17.6046575903       12.4628227740  LPSA26    1               0.0000000000
     27980       901  ECLIPA    H37R          -34.3125536826       18.5548626418       12.4255385664  LPSA26    1               0.0000000000
     27981       901  ECLIPA    H37S          -35.0027468069       17.5486216556       13.5117328773  LPSA26    1               0.0000000000
     27982       901  ECLIPA    C38           -35.6801230496       17.8010558977       11.3587741250  LPSA26    1               0.0000000000
     27983       901  ECLIPA    H38R          -36.2678411722       16.8859196431       11.3323330471  LPSA26    1               0.0000000000
     27984       901  ECLIPA    H38S          -36.4305371587       18.5700733492       11.5919882647  LPSA26    1               0.0000000000
     27985       901  ECLIPA    C39           -35.0346030743       18.1243377858       10.0155011605  LPSA26    1               0.0000000000
     27986       901  ECLIPA    H39R          -34.2147261208       17.4104388222        9.8060108032  LPSA26    1               0.0000000000
     27987       901  ECLIPA    H39S          -34.6355735290       19.1689198348        9.9719251743  LPSA26    1               0.0000000000
     27988       901  ECLIPA    C310          -36.0454007927       17.9952859652        8.9037601428  LPSA26    1               0.0000000000
     27989       901  ECLIPA    H310R         -36.7416126755       18.8265334447        9.1378563448  LPSA26    1               0.0000000000
     27990       901  ECLIPA    H310S         -36.6764376758       17.0957495077        8.9678941309  LPSA26    1               0.0000000000
     27991       901  ECLIPA    C311          -35.3453575021       17.8802512017        7.5407500880  LPSA26    1               0.0000000000
     27992       901  ECLIPA    H311R         -34.4324524788       18.5269144233        7.5089916229  LPSA26    1               0.0000000000
     27993       901  ECLIPA    H311S         -35.0090877604       16.8345086620        7.3949843814  LPSA26    1               0.0000000000
     27994       901  ECLIPA    C312          -36.2841151296       18.0563178175        6.3459695581  LPSA26    1               0.0000000000
     27995       901  ECLIPA    H312R         -37.3396040640       17.8434806726        6.5269754797  LPSA26    1               0.0000000000
     27996       901  ECLIPA    H312S         -36.4543142702       19.0977441153        6.2860621578  LPSA26    1               0.0000000000
     27997       901  ECLIPA    C313          -35.7305422615       17.5209963785        5.0083027249  LPSA26    1               0.0000000000
     27998       901  ECLIPA    H313R         -34.7713349440       18.0139674670        4.7229925512  LPSA26    1               0.0000000000
     27999       901  ECLIPA    H313S         -35.4609542209       16.4657062204        5.1790801883  LPSA26    1               0.0000000000
     28000       901  ECLIPA    C314          -36.7034098797       17.5766965838        3.8247565606  LPSA26    1               0.0000000000
     28001       901  ECLIPA    H314R         -37.0915975365       18.5486249017        3.5799977031  LPSA26    1               0.0000000000
     28002       901  ECLIPA    H314S         -36.2446218239       17.2272916166        2.8781350072  LPSA26    1               0.0000000000
     28003       901  ECLIPA    H314T         -37.6704809072       17.1194947049        4.0657740007  LPSA26    1               0.0000000000
     28004       901  ECLIPA    C11           -34.1553989117        9.5285503621       11.2473883705  LPSA26    1               0.0000000000
     28005       901  ECLIPA    O11           -35.2610881792       10.0253452295       11.0766168632  LPSA26    1               0.0000000000
     28006       901  ECLIPA    C12           -33.6266799493        8.4688845377       10.3278788298  LPSA26    1               0.0000000000
     28007       901  ECLIPA    H12R          -34.1420374573        7.5161132356       10.5521138282  LPSA26    1               0.0000000000
     28008       901  ECLIPA    H12S          -32.5350014188        8.3607328455       10.5126935706  LPSA26    1               0.0000000000
     28009       901  ECLIPA    C13           -33.8332495359        8.8223237706        8.8698922240  LPSA26    1               0.0000000000
     28010       901  ECLIPA    H13R          -34.8319252084        9.2688595611        8.6502732208  LPSA26    1               0.0000000000
     28011       901  ECLIPA    O13           -33.7167570170        7.6133422355        8.1270968372  LPSA26    1               0.0000000000
     28012       901  ECLIPA    HO13          -34.1950700029        7.6011087318        7.2930361889  LPSA26    1               0.0000000000
     28013       901  ECLIPA    C14           -32.7551488085        9.8134236034        8.4483007613  LPSA26    1               0.0000000000
     28014       901  ECLIPA    H14R          -31.7815255929        9.5911131231        8.9496287381  LPSA26    1               0.0000000000
     28015       901  ECLIPA    H14S          -33.0807148029       10.8247309695        8.7747294191  LPSA26    1               0.0000000000
     28016       901  ECLIPA    C15           -32.5503956287        9.8278566224        6.9516857760  LPSA26    1               0.0000000000
     28017       901  ECLIPA    H15R          -32.2345596173        8.8433055738        6.5645542520  LPSA26    1               0.0000000000
     28018       901  ECLIPA    H15S          -31.6647487935       10.3852032963        6.7861080359  LPSA26    1               0.0000000000
     28019       901  ECLIPA    C16           -33.6721886521       10.5115661278        6.1800730108  LPSA26    1               0.0000000000
     28020       901  ECLIPA    H16R          -33.6334117028       11.6195511385        6.2835878516  LPSA26    1               0.0000000000
     28021       901  ECLIPA    H16S          -34.6202681920       10.1873178774        6.6430756507  LPSA26    1               0.0000000000
     28022       901  ECLIPA    C17           -33.5861222291       10.1347322741        4.7097235999  LPSA26    1               0.0000000000
     28023       901  ECLIPA    H17R          -32.5206323426       10.2669494131        4.4416094795  LPSA26    1               0.0000000000
     28024       901  ECLIPA    H17S          -34.2010633604       10.7962671304        4.0649808905  LPSA26    1               0.0000000000
     28025       901  ECLIPA    C18           -33.9706271993        8.6787014328        4.4742433317  LPSA26    1               0.0000000000
     28026       901  ECLIPA    H18R          -33.3024230320        8.0536851424        5.0962255363  LPSA26    1               0.0000000000
     28027       901  ECLIPA    H18S          -35.0266908586        8.5276186421        4.7915367718  LPSA26    1               0.0000000000
     28028       901  ECLIPA    C19           -33.8283925426        8.2325055041        3.0295080181  LPSA26    1               0.0000000000
     28029       901  ECLIPA    H19R          -33.9569100496        7.1329286304        2.9437272407  LPSA26    1               0.0000000000
     28030       901  ECLIPA    H19S          -32.8096282831        8.4971083483        2.6463168823  LPSA26    1               0.0000000000
     28031       901  ECLIPA    C110          -34.9002890963        8.8902480219        2.1720786998  LPSA26    1               0.0000000000
     28032       901  ECLIPA    H110R         -35.9378947876        8.7867662131        2.5200344301  LPSA26    1               0.0000000000
     28033       901  ECLIPA    H110S         -34.6399162364        9.9591158784        2.2413878378  LPSA26    1               0.0000000000
     28034       901  ECLIPA    C111          -34.8606817903        8.3078745730        0.7727736113  LPSA26    1               0.0000000000
     28035       901  ECLIPA    H111R         -33.7665113850        8.3597596399        0.5829687190  LPSA26    1               0.0000000000
     28036       901  ECLIPA    H111S         -35.0961265927        7.2316177258        0.8110606273  LPSA26    1               0.0000000000
     28037       901  ECLIPA    C112          -35.8323204451        8.9230856322       -0.2914151707  LPSA26    1               0.0000000000
     28038       901  ECLIPA    H112R         -36.8186351492        8.7881336495        0.1133147371  LPSA26    1               0.0000000000
     28039       901  ECLIPA    H112S         -36.0447418012        9.9985660794       -0.3606407806  LPSA26    1               0.0000000000
     28040       901  ECLIPA    C113          -35.3977220208        8.6770507283       -1.7464973823  LPSA26    1               0.0000000000
     28041       901  ECLIPA    H113R         -34.3907039301        9.1271589240       -1.9657609532  LPSA26    1               0.0000000000
     28042       901  ECLIPA    H113S         -35.2671055111        7.5876067462       -1.8196737832  LPSA26    1               0.0000000000
     28043       901  ECLIPA    C114          -36.3031258258        9.1408021269       -2.8718325239  LPSA26    1               0.0000000000
     28044       901  ECLIPA    H114R         -37.3479557714        8.8469982610       -2.6920763236  LPSA26    1               0.0000000000
     28045       901  ECLIPA    H114S         -36.2239406104       10.2363084188       -3.0326467481  LPSA26    1               0.0000000000
     28046       901  ECLIPA    H114T         -35.9941496719        8.6120360652       -3.7939327395  LPSA26    1               0.0000000000
     28047       902  AKDO      C1            -36.5906214632       15.1940280017       22.4365936627  LPSA26    2               0.0000000000
     28048       902  AKDO      O11           -37.5619619362       15.9991893031       22.4188160222  LPSA26    2               0.0000000000
     28049       902  AKDO      O12           -35.4025872706       15.4116018703       22.0653767594  LPSA26    2               0.0000000000
     28050       902  AKDO      C2            -36.9223451854       13.7244051508       22.8634077736  LPSA26    2               0.0000000000
     28051       902  AKDO      C6            -38.5775845458       12.3157588845       23.9609497599  LPSA26    2               0.0000000000
     28052       902  AKDO      H6            -38.5102736804       11.7243321499       23.0212430813  LPSA26    2               0.0000000000
     28053       902  AKDO      O6            -38.2297618018       13.6526124866       23.5009599166  LPSA26    2               0.0000000000
     28054       902  AKDO      C3            -35.9641139650       13.1863887090       23.9192265330  LPSA26    2               0.0000000000
     28055       902  AKDO      H31           -35.9092304529       13.8880073967       24.7837839152  LPSA26    2               0.0000000000
     28056       902  AKDO      H32           -34.9626324857       13.1129929909       23.4463297403  LPSA26    2               0.0000000000
     28057       902  AKDO      C4            -36.3321151212       11.8101940113       24.3713543724  LPSA26    2               0.0000000000
     28058       902  AKDO      H4            -36.4168605889       11.1396892733       23.4843724744  LPSA26    2               0.0000000000
     28059       902  AKDO      O4            -35.4598903680       11.2988509344       25.3644351525  LPSA26    2               0.0000000000
     28060       902  AKDO      C5            -37.6683287472       11.7910773752       24.9967165078  LPSA26    2               0.0000000000
     28061       902  AKDO      H5            -38.0130011237       10.7307061664       25.1184994444  LPSA26    2               0.0000000000
     28062       902  AKDO      O5            -37.6959914823       12.5294055356       26.2558338967  LPSA26    2               0.0000000000
     28063       902  AKDO      C7            -39.9450531499       12.0871035947       24.6386170344  LPSA26    2               0.0000000000
     28064       902  AKDO      H7            -40.2574772041       12.8681152928       25.3864168041  LPSA26    2               0.0000000000
     28065       902  AKDO      O7            -40.5224381171       10.7881651653       24.5604525926  LPSA26    2               0.0000000000
     28066       902  AKDO      HO7           -40.6958574731       10.5770044936       23.6214280769  LPSA26    2               0.0000000000
     28067       902  AKDO      C8            -40.7712396196       12.5340732110       23.7981456193  LPSA26    2               0.0000000000
     28068       902  AKDO      H81           -40.3109327375       13.6070974225       23.6750285866  LPSA26    2               0.0000000000
     28069       902  AKDO      H82           -40.5167165275       12.0339619478       22.7479642472  LPSA26    2               0.0000000000
     28070       902  AKDO      O8            -42.2772066102       12.7797295432       23.9517485349  LPSA26    2               0.0000000000
     28071       902  AKDO      HO8           -42.8028866125       13.4902140388       23.4810238958  LPSA26    2               0.0000000000
     28072       903  AKDO      C1            -34.4711605344        9.7826756524       23.7656710344  LPSA26    3               1.0000000000
     28073       903  AKDO      O11           -34.0100453677       10.1597752752       22.6531128571  LPSA26    3               1.0000000000
     28074       903  AKDO      O12           -34.8519359348        8.6177082110       24.0431996935  LPSA26    3               1.0000000000
     28075       903  AKDO      C2            -34.2436089139       10.7185293750       24.9918840892  LPSA26    3               1.0000000000
     28076       903  AKDO      C6            -33.2190121185       12.7476506722       25.7463305171  LPSA26    3               1.0000000000
     28077       903  AKDO      H6            -34.1626206347       13.2878602790       25.9157243405  LPSA26    3               1.0000000000
     28078       903  AKDO      O6            -33.2506950818       11.7160058216       24.7079931848  LPSA26    3               1.0000000000
     28079       903  AKDO      C3            -33.8423550363       10.0377297132       26.3143197475  LPSA26    3               1.0000000000
     28080       903  AKDO      H31           -32.8784212152        9.4883719535       26.1920366225  LPSA26    3               1.0000000000
     28081       903  AKDO      H32           -34.5826055522        9.2803995145       26.5709602098  LPSA26    3               1.0000000000
     28082       903  AKDO      C4            -33.8537408508       11.0656075343       27.4326514483  LPSA26    3               1.0000000000
     28083       903  AKDO      H4            -34.8018972719       11.6047742389       27.5087253137  LPSA26    3               1.0000000000
     28084       903  AKDO      O4            -33.5362446462       10.4865188175       28.6915152853  LPSA26    3               1.0000000000
     28085       903  AKDO      HO4           -34.1607404294       10.7432438401       29.3802048476  LPSA26    3               1.0000000000
     28086       903  AKDO      C5            -32.9227311968       12.1202193791       27.0591478689  LPSA26    3               1.0000000000
     28087       903  AKDO      H5            -32.6273889055       12.7848006218       27.8900177636  LPSA26    3               1.0000000000
     28088       903  AKDO      O5            -31.7937356186       11.5514719865       26.8733261243  LPSA26    3               1.0000000000
     28089       903  AKDO      HO5           -31.8021352981       10.7781986881       26.2976104752  LPSA26    3               1.0000000000
     28090       903  AKDO      C7            -32.1859858763       13.7485519741       25.2798987878  LPSA26    3               1.0000000000
     28091       903  AKDO      H7            -31.2862194930       13.1878824309       24.8969930899  LPSA26    3               1.0000000000
     28092       903  AKDO      O7            -31.9452896366       14.7157458451       26.3319221173  LPSA26    3               1.0000000000
     28093       903  AKDO      HO7           -31.1347180250       15.1971811447       26.1213573318  LPSA26    3               1.0000000000
     28094       903  AKDO      C8            -32.6763979855       14.4263872130       24.0574207484  LPSA26    3               1.0000000000
     28095       903  AKDO      H81           -32.8485304017       13.6453153080       23.2867752966  LPSA26    3               1.0000000000
     28096       903  AKDO      H82           -33.5943580077       14.9776808098       24.2999675685  LPSA26    3               1.0000000000
     28097       903  AKDO      O8            -31.7339003196       15.3324026429       23.5158699916  LPSA26    3               1.0000000000
     28098       903  AKDO      HO8           -30.9823471595       14.7700053623       23.2439406823  LPSA26    3               1.0000000000
     28099       904  AHEP      C1            -38.5703530169       12.0597594135       27.2787222622  LPSA26    4               2.0000000000
     28100       904  AHEP      H1            -39.5467230816       12.4710013175       26.9975877125  LPSA26    4               2.0000000000
     28101       904  AHEP      C5            -37.7374642966        9.9372521778       28.0046185361  LPSA26    4               2.0000000000
     28102       904  AHEP      H5            -36.7773396793       10.2312153562       27.5184417047  LPSA26    4               2.0000000000
     28103       904  AHEP      O5            -38.7790522084       10.6459803956       27.3093292224  LPSA26    4               2.0000000000
     28104       904  AHEP      C2            -38.4664315262       12.5813219906       28.7156773001  LPSA26    4               2.0000000000
     28105       904  AHEP      H2            -38.2577060755       13.6694294350       28.6804655315  LPSA26    4               2.0000000000
     28106       904  AHEP      O2            -39.7303996317       12.4624262261       29.3666702313  LPSA26    4               2.0000000000
     28107       904  AHEP      HO2           -39.8426095065       13.2113616009       29.9428128703  LPSA26    4               2.0000000000
     28108       904  AHEP      C3            -37.3654193691       11.8972381244       29.4999548392  LPSA26    4               2.0000000000
     28109       904  AHEP      H3            -36.3571095349       12.1317700104       29.0930617188  LPSA26    4               2.0000000000
     28110       904  AHEP      O3            -37.4313279218       12.3212926624       30.8790832541  LPSA26    4               2.0000000000
     28111       904  AHEP      C4            -37.6387421449       10.4077777245       29.4630038840  LPSA26    4               2.0000000000
     28112       904  AHEP      H4            -38.5910693590       10.1391563565       29.9711247061  LPSA26    4               2.0000000000
     28113       904  AHEP      O4            -36.5091105684        9.7953188902       30.0788695138  LPSA26    4               2.0000000000
     28114       904  AHEP      P4            -36.5967458035        8.9281117091       31.4978198814  LPSA26    4               2.0000000000
     28115       904  AHEP      OP42          -35.2396362904        9.1888103546       32.1805504641  LPSA26    4               2.0000000000
     28116       904  AHEP      OP43          -36.9005180421        7.4951795497       31.0610174159  LPSA26    4               2.0000000000
     28117       904  AHEP      OP44          -37.7918343993        9.4709897930       32.2940164956  LPSA26    4               2.0000000000
     28118       904  AHEP      C6            -37.9831798028        8.4186692127       27.8140954168  LPSA26    4               2.0000000000
     28119       904  AHEP      H6            -37.0348988190        7.9555368179       28.1419737129  LPSA26    4               2.0000000000
     28120       904  AHEP      O6            -38.9920914359        7.8252539853       28.6649160948  LPSA26    4               2.0000000000
     28121       904  AHEP      HO6           -38.5342518963        7.2207242484       29.2751050281  LPSA26    4               2.0000000000
     28122       904  AHEP      C7            -38.2634507654        8.0007111377       26.3556822041  LPSA26    4               2.0000000000
     28123       904  AHEP      H71           -38.1308816521        6.9092398376       26.2197889334  LPSA26    4               2.0000000000
     28124       904  AHEP      H72           -37.5611223942        8.5270302191       25.6722394765  LPSA26    4               2.0000000000
     28125       904  AHEP      O7            -39.5840054528        8.2813652583       25.8869891808  LPSA26    4               2.0000000000
     28126       904  AHEP      HO7           -40.1669764796        7.6994574061       26.3934109864  LPSA26    4               2.0000000000
     28127       905  AHEP      C1            -36.3059648703       12.9306586461       31.4629333464  LPSA26    5               3.0000000000
     28128       905  AHEP      H1            -35.3678371314       12.5593731082       30.9846835015  LPSA26    5               3.0000000000
     28129       905  AHEP      C5            -37.5577529029       14.8983741946       31.9597242791  LPSA26    5               3.0000000000
     28130       905  AHEP      H5            -38.4594875821       14.3429441796       31.5988251344  LPSA26    5               3.0000000000
     28131       905  AHEP      O5            -36.3959466572       14.3545376271       31.2847220690  LPSA26    5               3.0000000000
     28132       905  AHEP      C2            -36.2230389587       12.6249757617       32.9655148993  LPSA26    5               3.0000000000
     28133       905  AHEP      H2            -36.2300276275       11.5140747001       33.0831277364  LPSA26    5               3.0000000000
     28134       905  AHEP      O2            -34.9741600840       13.1047749595       33.4937195080  LPSA26    5               3.0000000000
     28135       905  AHEP      HO2           -34.4050136715       12.3543175284       33.6062592704  LPSA26    5               3.0000000000
     28136       905  AHEP      C3            -37.4308102756       13.1747562097       33.7298859063  LPSA26    5               3.0000000000
     28137       905  AHEP      H3            -38.3500567715       12.6963345342       33.3145060949  LPSA26    5               3.0000000000
     28138       905  AHEP      O3            -37.3971562886       12.9686572058       35.1640543908  LPSA26    5               3.0000000000
     28139       905  AHEP      C4            -37.4799773174       14.6617118291       33.4639979303  LPSA26    5               3.0000000000
     28140       905  AHEP      H4            -36.5537911803       15.1568321818       33.8426853117  LPSA26    5               3.0000000000
     28141       905  AHEP      O4            -38.6656552990       15.1810098070       34.0668411611  LPSA26    5               3.0000000000
     28142       905  AHEP      P4            -38.5379433742       16.2801550050       35.3298714009  LPSA26    5               3.0000000000
     28143       905  AHEP      OP42          -39.9404524088       16.3519506864       35.9285748880  LPSA26    5               3.0000000000
     28144       905  AHEP      OP43          -38.0622724832       17.5933309571       34.7182808146  LPSA26    5               3.0000000000
     28145       905  AHEP      OP44          -37.5388394710       15.7104178994       36.3203632451  LPSA26    5               3.0000000000
     28146       905  AHEP      C6            -37.7481923383       16.3618713014       31.5619679918  LPSA26    5               3.0000000000
     28147       905  AHEP      H6            -38.6807018121       16.7066988412       32.0228387398  LPSA26    5               3.0000000000
     28148       905  AHEP      O6            -36.6820860886       17.2289300276       31.9974442732  LPSA26    5               3.0000000000
     28149       905  AHEP      HO6           -35.9004767938       17.0372475241       31.4999786067  LPSA26    5               3.0000000000
     28150       905  AHEP      C7            -37.9659258671       16.4846370497       30.0747284966  LPSA26    5               3.0000000000
     28151       905  AHEP      H71           -38.7404280267       17.2492792339       29.9192662368  LPSA26    5               3.0000000000
     28152       905  AHEP      H72           -38.4257881818       15.5889206173       29.6159866940  LPSA26    5               3.0000000000
     28153       905  AHEP      O7            -36.7819770881       16.9379369140       29.4231493915  LPSA26    5               3.0000000000
     28154       906  AHEP      C1            -36.1057362196       15.8892870803       28.7957613354  LPSA26    6               4.0000000000
     28155       906  AHEP      H1            -36.5391361597       14.9031447979       29.0382088736  LPSA26    6               4.0000000000
     28156       906  AHEP      C5            -35.6970029681       17.2757594486       26.9556995971  LPSA26    6               4.0000000000
     28157       906  AHEP      H5            -36.1958672922       18.1161144124       27.5128573373  LPSA26    6               4.0000000000
     28158       906  AHEP      O5            -36.2480737397       16.0271157345       27.3907275469  LPSA26    6               4.0000000000
     28159       906  AHEP      C2            -34.6482634902       15.8649251341       29.2213278726  LPSA26    6               4.0000000000
     28160       906  AHEP      H2            -34.6397089494       15.7754741730       30.3340598044  LPSA26    6               4.0000000000
     28161       906  AHEP      O2            -33.9795400765       14.7170636818       28.7367752649  LPSA26    6               4.0000000000
     28162       906  AHEP      HO2           -33.7355004901       14.1692652844       29.4852853248  LPSA26    6               4.0000000000
     28163       906  AHEP      C3            -34.0107949176       17.1732655800       28.8320401785  LPSA26    6               4.0000000000
     28164       906  AHEP      H3            -34.6133419542       17.8919100996       29.4160661623  LPSA26    6               4.0000000000
     28165       906  AHEP      O3            -32.6121226828       17.2996571106       29.1811945919  LPSA26    6               4.0000000000
     28166       906  AHEP      HO3           -32.3897719105       17.7481757491       30.0024127152  LPSA26    6               4.0000000000
     28167       906  AHEP      C4            -34.2464211102       17.3112315185       27.3258383802  LPSA26    6               4.0000000000
     28168       906  AHEP      H4            -33.6166260874       16.5741852773       26.7856479337  LPSA26    6               4.0000000000
     28169       906  AHEP      O4            -33.9027208650       18.5142371047       26.7570342024  LPSA26    6               4.0000000000
     28170       906  AHEP      HO4           -34.2700995667       19.2773600348       27.2080670535  LPSA26    6               4.0000000000
     28171       906  AHEP      C6            -35.9598687589       17.6232975796       25.4831444111  LPSA26    6               4.0000000000
     28172       906  AHEP      H6            -35.6521228455       18.6779844533       25.2985136700  LPSA26    6               4.0000000000
     28173       906  AHEP      O6            -35.1547700793       16.8549279137       24.5817251301  LPSA26    6               4.0000000000
     28174       906  AHEP      HO6           -35.7549311577       16.3707460290       23.9916226623  LPSA26    6               4.0000000000
     28175       906  AHEP      C7            -37.4403065275       17.6509418776       25.1635537958  LPSA26    6               4.0000000000
     28176       906  AHEP      H71           -37.5942802314       18.0554102805       24.1355854106  LPSA26    6               4.0000000000
     28177       906  AHEP      H72           -37.9373552786       18.3457497983       25.8844268384  LPSA26    6               4.0000000000
     28178       906  AHEP      O7            -38.0589004498       16.3690240709       25.2744771610  LPSA26    6               4.0000000000
     28179       906  AHEP      HO7           -38.2856844073       16.2623941776       26.1972200047  LPSA26    6               4.0000000000
     28180       907  AGLC      C1            -38.0411804816       11.8221204982       35.6589867338  LPSA26    7               4.0000000000
     28181       907  AGLC      H1            -39.0288759920       11.6695852604       35.1706574788  LPSA26    7               4.0000000000
     28182       907  AGLC      C5            -35.9574936665       10.7491597826       36.0909141812  LPSA26    7               4.0000000000
     28183       907  AGLC      H5            -35.4339215818       11.6990323271       35.8238169861  LPSA26    7               4.0000000000
     28184       907  AGLC      O5            -37.2191238455       10.6887865396       35.4199888929  LPSA26    7               4.0000000000
     28185       907  AGLC      C2            -38.2677830320       11.8247131430       37.1789494641  LPSA26    7               4.0000000000
     28186       907  AGLC      H2            -38.6587977474       10.8138908299       37.4306476770  LPSA26    7               4.0000000000
     28187       907  AGLC      O2            -39.2707714663       12.7137503137       37.6308071490  LPSA26    7               4.0000000000
     28188       907  AGLC      HO2           -38.9502598188       13.6319833396       37.5682242762  LPSA26    7               4.0000000000
     28189       907  AGLC      C3            -36.9990392965       11.9861959425       37.9736700726  LPSA26    7               4.0000000000
     28190       907  AGLC      H3            -36.4991763033       12.9109737631       37.6067105647  LPSA26    7               4.0000000000
     28191       907  AGLC      O3            -37.2374248890       12.1354463294       39.4031417045  LPSA26    7               4.0000000000
     28192       907  AGLC      C4            -36.1521311278       10.7726375805       37.5994918368  LPSA26    7               4.0000000000
     28193       907  AGLC      H4            -36.6847846798        9.8398344134       37.9216313676  LPSA26    7               4.0000000000
     28194       907  AGLC      O4            -34.8577318265       10.8446250740       38.1873301369  LPSA26    7               4.0000000000
     28195       907  AGLC      HO4           -34.6588436595       10.0579841844       38.7143114714  LPSA26    7               4.0000000000
     28196       907  AGLC      C6            -35.0955796457        9.6396838700       35.4969234455  LPSA26    7               4.0000000000
     28197       907  AGLC      H61           -35.0454674231        9.8002022308       34.3982524645  LPSA26    7               4.0000000000
     28198       907  AGLC      H62           -34.0591832834        9.6840835430       35.8620556814  LPSA26    7               4.0000000000
     28199       907  AGLC      O6            -35.5780649880        8.3159040310       35.7076630003  LPSA26    7               4.0000000000
     28200       907  AGLC      HO6           -35.3175966650        7.9617586636       36.5520009457  LPSA26    7               4.0000000000
     28201       908  AGLC      C1            -36.7981776998       13.3842922629       39.9195570937  LPSA26    8               5.0000000000
     28202       908  AGLC      H1            -35.7928890009       13.6167064250       39.5073424109  LPSA26    8               5.0000000000
     28203       908  AGLC      C5            -38.9846507386       14.4723355972       40.2237720665  LPSA26    8               5.0000000000
     28204       908  AGLC      H5            -39.4759098303       13.5387219494       39.8855761538  LPSA26    8               5.0000000000
     28205       908  AGLC      O5            -37.6741980731       14.4978344726       39.6100045269  LPSA26    8               5.0000000000
     28206       908  AGLC      C2            -36.6323358222       13.3570423104       41.4325542667  LPSA26    8               5.0000000000
     28207       908  AGLC      H2            -36.1850333053       14.3368350123       41.7020459424  LPSA26    8               5.0000000000
     28208       908  AGLC      O2            -35.7547418647       12.3430147923       41.9416898800  LPSA26    8               5.0000000000
     28209       908  AGLC      C3            -37.9582189745       13.2390769914       42.1235506417  LPSA26    8               5.0000000000
     28210       908  AGLC      H3            -38.4394436854       12.3080192152       41.7197831551  LPSA26    8               5.0000000000
     28211       908  AGLC      O3            -37.7261903273       13.0574097834       43.5392115720  LPSA26    8               5.0000000000
     28212       908  AGLC      C4            -38.7909780770       14.4352510809       41.7334126844  LPSA26    8               5.0000000000
     28213       908  AGLC      H4            -38.2405756012       15.3586203277       42.0352130205  LPSA26    8               5.0000000000
     28214       908  AGLC      O4            -40.0335579549       14.4249601563       42.4138775566  LPSA26    8               5.0000000000
     28215       908  AGLC      HO4           -40.3896746438       13.5436885987       42.3652588253  LPSA26    8               5.0000000000
     28216       908  AGLC      C6            -39.9239552441       15.5917134912       39.7500141414  LPSA26    8               5.0000000000
     28217       908  AGLC      H61           -39.8951376413       15.7004389021       38.6388328050  LPSA26    8               5.0000000000
     28218       908  AGLC      H62           -40.9837780616       15.3566245200       40.0192702651  LPSA26    8               5.0000000000
     28219       908  AGLC      O6            -39.6302312962       16.8452134884       40.3567165442  LPSA26    8               5.0000000000
     28220       908  AGLC      HO6           -40.0999634116       16.8967494233       41.1932780142  LPSA26    8               5.0000000000
     28221       909  AGAL      C1            -34.4512576445       12.2892907812       41.4216884060  LPSA26    9               6.0000000000
     28222       909  AGAL      H1            -34.4596266437       12.3192603165       40.3171954087  LPSA26    9               6.0000000000
     28223       909  AGAL      C5            -33.4619285321       13.3666898167       43.2965322295  LPSA26    9               6.0000000000
     28224       909  AGAL      H5            -34.4650574559       13.2746740655       43.7530612736  LPSA26    9               6.0000000000
     28225       909  AGAL      O5            -33.6391069305       13.3942618854       41.8632723814  LPSA26    9               6.0000000000
     28226       909  AGAL      C2            -33.8638259887       10.9488162764       41.8343062539  LPSA26    9               6.0000000000
     28227       909  AGAL      H2            -32.8651658543       10.8912839618       41.3483779187  LPSA26    9               6.0000000000
     28228       909  AGAL      O2            -34.6578730571        9.9181130819       41.1965323781  LPSA26    9               6.0000000000
     28229       909  AGAL      C3            -33.6802007286       10.9006232750       43.3411061610  LPSA26    9               6.0000000000
     28230       909  AGAL      H3            -34.6342371443       10.9804223852       43.8960945192  LPSA26    9               6.0000000000
     28231       909  AGAL      O3            -33.1009160086        9.6645781671       43.7139680536  LPSA26    9               6.0000000000
     28232       909  AGAL      HO3           -33.5316452892        8.9704934176       43.2039895017  LPSA26    9               6.0000000000
     28233       909  AGAL      C4            -32.7986165197       12.0732418088       43.7064554064  LPSA26    9               6.0000000000
     28234       909  AGAL      H4            -32.5286032996       12.0869178520       44.7877604045  LPSA26    9               6.0000000000
     28235       909  AGAL      O4            -31.6511358171       11.9847411153       42.9449882132  LPSA26    9               6.0000000000
     28236       909  AGAL      HO4           -30.9120658255       12.2686465056       43.5153985926  LPSA26    9               6.0000000000
     28237       909  AGAL      C6            -32.9385026347       14.6809238143       43.8983633738  LPSA26    9               6.0000000000
     28238       909  AGAL      H61           -33.6116285158       15.5126851287       43.6466169966  LPSA26    9               6.0000000000
     28239       909  AGAL      H62           -32.8459221083       14.5830337192       44.9958208332  LPSA26    9               6.0000000000
     28240       909  AGAL      O6            -31.6800703019       15.1557318955       43.5167005598  LPSA26    9               6.0000000000
     28241       909  AGAL      HO6           -31.6936027717       15.6262091612       42.6790673352  LPSA26    9               6.0000000000
     28242       910  AGAL      C1            -34.9809405108        8.6504642788       41.7495106679  LPSA26    10              7.0000000000
     28243       910  AGAL      H1            -34.0575066566        8.0288404382       41.8297369382  LPSA26    10              7.0000000000
     28244       910  AGAL      C5            -36.9017510802        9.3648338698       43.0413379000  LPSA26    10              7.0000000000
     28245       910  AGAL      H5            -36.6840955479       10.3777758618       42.6413351045  LPSA26    10              7.0000000000
     28246       910  AGAL      O5            -35.6263808652        8.6869413682       43.0505199588  LPSA26    10              7.0000000000
     28247       910  AGAL      C2            -35.9241157409        7.9728655387       40.7545025296  LPSA26    10              7.0000000000
     28248       910  AGAL      H2            -36.1062158973        6.9405605173       41.1215130042  LPSA26    10              7.0000000000
     28249       910  AGAL      O2            -35.3540687129        7.7626422637       39.4683406598  LPSA26    10              7.0000000000
     28250       910  AGAL      HO2           -35.4297664522        6.8096646101       39.3234772072  LPSA26    10              7.0000000000
     28251       910  AGAL      C3            -37.2420207573        8.7440737323       40.7030447989  LPSA26    10              7.0000000000
     28252       910  AGAL      H3            -37.0051686119        9.8027029898       40.4503110849  LPSA26    10              7.0000000000
     28253       910  AGAL      O3            -38.1610327709        8.2897786821       39.7129659115  LPSA26    10              7.0000000000
     28254       910  AGAL      HO3           -38.2201936321        8.9017068359       38.9777476833  LPSA26    10              7.0000000000
     28255       910  AGAL      C4            -37.8702980266        8.7093228829       42.0717711768  LPSA26    10              7.0000000000
     28256       910  AGAL      H4            -38.8149617613        9.3024072995       42.0801818044  LPSA26    10              7.0000000000
     28257       910  AGAL      O4            -38.1871545489        7.3772447730       42.4511066097  LPSA26    10              7.0000000000
     28258       910  AGAL      HO4           -37.3509217810        6.9266661613       42.6066723814  LPSA26    10              7.0000000000
     28259       910  AGAL      C6            -37.5149199918        9.6445201929       44.4177730189  LPSA26    10              7.0000000000
     28260       910  AGAL      H61           -36.7471718338       10.0627843829       45.0970372686  LPSA26    10              7.0000000000
     28261       910  AGAL      H62           -38.3100574292       10.4146675064       44.2773991857  LPSA26    10              7.0000000000
     28262       910  AGAL      O6            -38.1182127617        8.5298103024       45.0714209637  LPSA26    10              7.0000000000
     28263       910  AGAL      HO6           -37.6934884199        8.3601286689       45.9142172795  LPSA26    10              7.0000000000
     28264       911  BGLC      C1            -37.7447412720       14.1325750355       44.4806409554  LPSA26    11              6.0000000000
     28265       911  BGLC      H1            -38.7936734755       14.4730270662       44.6234360888  LPSA26    11              6.0000000000
     28266       911  BGLC      C5            -36.7766941963       16.2721578450       45.1314206709  LPSA26    11              6.0000000000
     28267       911  BGLC      H5            -37.7764182956       16.7163790820       45.3744245487  LPSA26    11              6.0000000000
     28268       911  BGLC      O5            -36.8602422642       15.2172331321       44.1206158271  LPSA26    11              6.0000000000
     28269       911  BGLC      C2            -37.2362459352       13.5254929337       45.7871464434  LPSA26    11              6.0000000000
     28270       911  BGLC      H2            -36.2085897810       13.1134661579       45.6433118996  LPSA26    11              6.0000000000
     28271       911  BGLC      O2            -38.0667050047       12.4381392536       46.1796670687  LPSA26    11              6.0000000000
     28272       911  BGLC      HO2           -37.5310819285       11.6523374871       46.2962056386  LPSA26    11              6.0000000000
     28273       911  BGLC      C3            -37.1381104619       14.5339266423       46.9044926357  LPSA26    11              6.0000000000
     28274       911  BGLC      H3            -38.1491830962       14.9206079309       47.1728570397  LPSA26    11              6.0000000000
     28275       911  BGLC      O3            -36.4971059087       13.9245598294       48.0488591964  LPSA26    11              6.0000000000
     28276       911  BGLC      C4            -36.2338537613       15.6480779828       46.4235516001  LPSA26    11              6.0000000000
     28277       911  BGLC      H4            -35.2328630449       15.2174145684       46.1892461729  LPSA26    11              6.0000000000
     28278       911  BGLC      O4            -36.0518264696       16.5960135572       47.4608256427  LPSA26    11              6.0000000000
     28279       911  BGLC      HO4           -35.4417036643       16.2267133054       48.1222664051  LPSA26    11              6.0000000000
     28280       911  BGLC      C6            -35.9616572704       17.4122876583       44.5313222935  LPSA26    11              6.0000000000
     28281       911  BGLC      H61           -35.5671902562       18.1322007140       45.2881057907  LPSA26    11              6.0000000000
     28282       911  BGLC      H62           -35.1114168972       17.0273118320       43.9361083000  LPSA26    11              6.0000000000
     28283       911  BGLC      O6            -36.7785400574       18.1395720131       43.6299790304  LPSA26    11              6.0000000000
     28284       911  BGLC      HO6           -36.8412705914       19.0725780644       43.9211578835  LPSA26    11              6.0000000000
     28285       912  BGLCNA    C1            -37.1369606586       13.9651185538       49.3089267905  LPSA26    12              7.0000000000
     28286       912  BGLCNA    H1            -37.8897172070       13.1513466996       49.3677408889  LPSA26    12              7.0000000000
     28287       912  BGLCNA    C5            -38.4086949323       15.2141271439       50.8601095993  LPSA26    12              7.0000000000
     28288       912  BGLCNA    H5            -39.1748229278       14.4078689089       50.9479398879  LPSA26    12              7.0000000000
     28289       912  BGLCNA    O5            -37.7716161318       15.2052750686       49.5767688445  LPSA26    12              7.0000000000
     28290       912  BGLCNA    C2            -36.0372836321       13.7547029420       50.3463071208  LPSA26    12              7.0000000000
     28291       912  BGLCNA    H2            -35.3830469154       14.6681395706       50.2948491551  LPSA26    12              7.0000000000
     28292       912  BGLCNA    N             -35.3034854770       12.5514884279       50.0381098398  LPSA26    12              7.0000000000
     28293       912  BGLCNA    HN            -35.8735525883       11.7450240813       49.9556959299  LPSA26    12              7.0000000000
     28294       912  BGLCNA    C             -33.9737217706       12.5243991113       49.8982894592  LPSA26    12              7.0000000000
     28295       912  BGLCNA    O             -33.2755479089       13.5100404737       50.0738632613  LPSA26    12              7.0000000000
     28296       912  BGLCNA    CT            -33.3383974540       11.2035333137       49.5367540058  LPSA26    12              7.0000000000
     28297       912  BGLCNA    HT1           -32.7659416471       10.8204007483       50.4053232043  LPSA26    12              7.0000000000
     28298       912  BGLCNA    HT2           -32.6182074711       11.3510423229       48.7055374352  LPSA26    12              7.0000000000
     28299       912  BGLCNA    HT3           -34.1320583781       10.4887889359       49.2381949856  LPSA26    12              7.0000000000
     28300       912  BGLCNA    C3            -36.5992504446       13.7009987914       51.7552873728  LPSA26    12              7.0000000000
     28301       912  BGLCNA    H3            -37.3152874632       12.8497086882       51.8029989606  LPSA26    12              7.0000000000
     28302       912  BGLCNA    O3            -35.5533968922       13.4591153349       52.7486121028  LPSA26    12              7.0000000000
     28303       912  BGLCNA    C4            -37.3387345088       15.0190496644       51.9429417848  LPSA26    12              7.0000000000
     28304       912  BGLCNA    H4            -36.6269847315       15.8663006924       51.8638671259  LPSA26    12              7.0000000000
     28305       912  BGLCNA    O4            -37.9096244228       15.1142102791       53.2309621983  LPSA26    12              7.0000000000
     28306       912  BGLCNA    HO4           -38.6600242592       14.5130010548       53.3210770392  LPSA26    12              7.0000000000
     28307       912  BGLCNA    C6            -39.1255028849       16.5421864269       50.9106815277  LPSA26    12              7.0000000000
     28308       912  BGLCNA    H61           -39.5835418297       16.6359722423       51.9000763984  LPSA26    12              7.0000000000
     28309       912  BGLCNA    H62           -38.3948910177       17.3659534244       50.8074304250  LPSA26    12              7.0000000000
     28310       912  BGLCNA    O6            -40.1394248347       16.7185187837       49.9112710680  LPSA26    12              7.0000000000
     28311       912  BGLCNA    HO6           -40.9287661974       16.2421378549       50.1832898207  LPSA26    12              7.0000000000
     28312       913  AGAL      C1            -35.9101074415       12.5926023637       53.8185325109  LPSA26    13              8.0000000000
     28313       913  AGAL      H1            -36.9318351748       12.8530826753       54.0785380564  LPSA26    13              8.0000000000
     28314       913  AGAL      C5            -34.4285085866       10.8068811248       53.2625826315  LPSA26    13              8.0000000000
     28315       913  AGAL      H5            -34.0302072909       11.5543253767       52.5373790987  LPSA26    13              8.0000000000
     28316       913  AGAL      O5            -35.8057302805       11.1998246866       53.4664439156  LPSA26    13              8.0000000000
     28317       913  AGAL      C2            -35.0943978554       12.7438457244       55.1054835549  LPSA26    13              8.0000000000
     28318       913  AGAL      H2            -35.4706383215       11.9465712162       55.7927384639  LPSA26    13              8.0000000000
     28319       913  AGAL      O2            -35.3659196279       13.9956983256       55.7467551453  LPSA26    13              8.0000000000
     28320       913  AGAL      C3            -33.6337164835       12.3978471114       54.8937881480  LPSA26    13              8.0000000000
     28321       913  AGAL      H3            -33.2616587868       12.9864086452       54.0235913166  LPSA26    13              8.0000000000
     28322       913  AGAL      O3            -32.8013310825       12.7091871362       55.9987971462  LPSA26    13              8.0000000000
     28323       913  AGAL      HO3           -31.9848478780       13.1294627098       55.7023000857  LPSA26    13              8.0000000000
     28324       913  AGAL      C4            -33.5600335839       10.9425750187       54.5111583644  LPSA26    13              8.0000000000
     28325       913  AGAL      H4            -32.5054845177       10.7089801941       54.2279167016  LPSA26    13              8.0000000000
     28326       913  AGAL      O4            -33.9159658911       10.0432131973       55.5752478538  LPSA26    13              8.0000000000
     28327       913  AGAL      HO4           -34.7221883894       10.3295905089       56.0215531051  LPSA26    13              8.0000000000
     28328       913  AGAL      C6            -34.2178284714        9.4941741865       52.5432839900  LPSA26    13              8.0000000000
     28329       913  AGAL      H61           -34.8032375457        9.4935048125       51.5989054889  LPSA26    13              8.0000000000
     28330       913  AGAL      H62           -33.1298102423        9.4080062076       52.3068930154  LPSA26    13              8.0000000000
     28331       913  AGAL      O6            -34.5738884042        8.3561254577       53.3122914998  LPSA26    13              8.0000000000
     28332       913  AGAL      HO6           -33.8533458479        8.1917369099       53.9300359350  LPSA26    13              8.0000000000
     28333       914  ARHM      C1            -36.0074701541       13.9679662093       57.0077057639  LPSA26    14              9.0000000000
     28334       914  ARHM      H1            -36.6744971324       13.0771620559       57.0517585532  LPSA26    14              9.0000000000
     28335       914  ARHM      C5            -36.1142011893       16.3288171549       57.1802686542  LPSA26    14              9.0000000000
     28336       914  ARHM      H5            -35.5735377799       16.3961245889       56.2073228068  LPSA26    14              9.0000000000
     28337       914  ARHM      O5            -36.8597754080       15.0994970775       57.1906521545  LPSA26    14              9.0000000000
     28338       914  ARHM      C2            -34.9697354835       13.9114246253       58.1147935200  LPSA26    14              9.0000000000
     28339       914  ARHM      H2            -34.3189486019       13.0275980606       57.9375904187  LPSA26    14              9.0000000000
     28340       914  ARHM      O2            -35.4830325321       13.8600921938       59.4582332914  LPSA26    14              9.0000000000
     28341       914  ARHM      C3            -34.1533306000       15.1754167073       58.0599107402  LPSA26    14              9.0000000000
     28342       914  ARHM      H3            -33.7728167725       15.3117812761       57.0211782151  LPSA26    14              9.0000000000
     28343       914  ARHM      O3            -32.9960380528       15.1519797919       58.9023951410  LPSA26    14              9.0000000000
     28344       914  ARHM      HO3           -33.2915979206       15.1468430370       59.8136006023  LPSA26    14              9.0000000000
     28345       914  ARHM      C4            -35.0923098227       16.3380977614       58.3210503820  LPSA26    14              9.0000000000
     28346       914  ARHM      H4            -35.6535143241       16.2155562660       59.2775278691  LPSA26    14              9.0000000000
     28347       914  ARHM      O4            -34.3897043298       17.5719648559       58.4058226904  LPSA26    14              9.0000000000
     28348       914  ARHM      HO4           -34.3880403044       17.9342340528       59.2921107182  LPSA26    14              9.0000000000
     28349       914  ARHM      C6            -37.1276304218       17.4797185981       57.2750988232  LPSA26    14              9.0000000000
     28350       914  ARHM      H61           -37.9854660857       17.3293270323       56.5859936673  LPSA26    14              9.0000000000
     28351       914  ARHM      H62           -37.4704683822       17.5615780470       58.3202060913  LPSA26    14              9.0000000000
     28352       914  ARHM      H63           -36.6676164324       18.4486784457       57.0116079941  LPSA26    14              9.0000000000
     28353       915  ARHM      C1            -36.4152287405       12.8519014673       59.7458009336  LPSA26    15             10.0000000000
     28354       915  ARHM      H1            -36.2862987733       11.9974197851       59.0411874357  LPSA26    15             10.0000000000
     28355       915  ARHM      C5            -38.1420665252       14.3194334334       60.6353665779  LPSA26    15             10.0000000000
     28356       915  ARHM      H5            -37.5833618494       15.2657906424       60.4418905720  LPSA26    15             10.0000000000
     28357       915  ARHM      O5            -37.7876319665       13.3084658806       59.6705087371  LPSA26    15             10.0000000000
     28358       915  ARHM      C2            -36.1371718478       12.3307170999       61.1382438208  LPSA26    15             10.0000000000
     28359       915  ARHM      H2            -35.0627544837       12.0548790647       61.2048235471  LPSA26    15             10.0000000000
     28360       915  ARHM      O2            -36.9431556211       11.1476496052       61.3024356860  LPSA26    15             10.0000000000
     28361       915  ARHM      C3            -36.4052134936       13.4231295827       62.1309212410  LPSA26    15             10.0000000000
     28362       915  ARHM      H3            -35.8095317117       14.3225097905       61.8410371902  LPSA26    15             10.0000000000
     28363       915  ARHM      O3            -35.9447137045       12.9603851336       63.3980052634  LPSA26    15             10.0000000000
     28364       915  ARHM      C4            -37.8697286796       13.7903119378       62.0318018506  LPSA26    15             10.0000000000
     28365       915  ARHM      H4            -38.4740363512       12.8605929360       62.1626576949  LPSA26    15             10.0000000000
     28366       915  ARHM      O4            -38.3090645586       14.7392904188       62.9998015663  LPSA26    15             10.0000000000
     28367       915  ARHM      HO4           -39.2751760962       14.7254162330       62.9545584351  LPSA26    15             10.0000000000
     28368       915  ARHM      C6            -39.6409564046       14.6440282180       60.4674612570  LPSA26    15             10.0000000000
     28369       915  ARHM      H61           -39.9420893801       15.5336175624       61.0549843457  LPSA26    15             10.0000000000
     28370       915  ARHM      H62           -39.8509792388       14.7999445804       59.3861410041  LPSA26    15             10.0000000000
     28371       915  ARHM      H63           -40.2738418171       13.8049841269       60.8187968148  LPSA26    15             10.0000000000
     28372       916  BMANNA    C1            -36.8851770539       10.4229956434       62.5091531659  LPSA26    16             11.0000000000
     28373       916  BMANNA    H1            -37.3603107522       11.0273437374       63.3160156038  LPSA26    16             11.0000000000
     28374       916  BMANNA    C5            -35.5637688831        9.3671546642       64.1911419534  LPSA26    16             11.0000000000
     28375       916  BMANNA    H5            -36.0820687639       10.0146269398       64.9465839637  LPSA26    16             11.0000000000
     28376       916  BMANNA    O5            -35.5585658826       10.0493878372       62.9134778503  LPSA26    16             11.0000000000
     28377       916  BMANNA    C2            -37.7153485127        9.1612262423       62.3105629586  LPSA26    16             11.0000000000
     28378       916  BMANNA    H2            -38.7454862987        9.4944203868       62.0357807646  LPSA26    16             11.0000000000
     28379       916  BMANNA    N             -37.2604108032        8.2562346118       61.2603861917  LPSA26    16             11.0000000000
     28380       916  BMANNA    HN            -36.6503653720        7.5334349844       61.5547048548  LPSA26    16             11.0000000000
     28381       916  BMANNA    C             -37.6573666599        8.2577605197       59.9868889734  LPSA26    16             11.0000000000
     28382       916  BMANNA    O             -38.4889013882        9.0366813938       59.5572912711  LPSA26    16             11.0000000000
     28383       916  BMANNA    CT            -36.9961603141        7.2525182048       59.0714183729  LPSA26    16             11.0000000000
     28384       916  BMANNA    HT1           -37.6831479208        6.4106545181       58.8645511300  LPSA26    16             11.0000000000
     28385       916  BMANNA    HT2           -36.0768486368        6.8458665314       59.5393556905  LPSA26    16             11.0000000000
     28386       916  BMANNA    HT3           -36.7385623749        7.7431882320       58.1099686050  LPSA26    16             11.0000000000
     28387       916  BMANNA    C3            -37.7621343077        8.4476455034       63.6390309662  LPSA26    16             11.0000000000
     28388       916  BMANNA    H3            -38.2079436632        9.1250977305       64.3982084837  LPSA26    16             11.0000000000
     28389       916  BMANNA    O3            -38.6531845848        7.3632133224       63.5419204656  LPSA26    16             11.0000000000
     28390       916  BMANNA    HO3           -39.2016255219        7.2968526344       64.3277080176  LPSA26    16             11.0000000000
     28391       916  BMANNA    C4            -36.3512180333        8.0733524128       64.0909290713  LPSA26    16             11.0000000000
     28392       916  BMANNA    H4            -35.8663394296        7.3941906413       63.3583466203  LPSA26    16             11.0000000000
     28393       916  BMANNA    O4            -36.3079284754        7.3836855773       65.3325270697  LPSA26    16             11.0000000000
     28394       916  BMANNA    HO4           -35.4971672312        6.8588553015       65.4256645591  LPSA26    16             11.0000000000
     28395       916  BMANNA    C6            -34.1754237646        9.1283008045       64.7491945304  LPSA26    16             11.0000000000
     28396       916  BMANNA    H61           -34.2474767885        9.1019689954       65.8612193972  LPSA26    16             11.0000000000
     28397       916  BMANNA    H62           -33.8078896050        8.1328411293       64.4236336610  LPSA26    16             11.0000000000
     28398       916  BMANNA    O6            -33.2142382061       10.0992228474       64.3434784213  LPSA26    16             11.0000000000
     28399       916  BMANNA    HO6           -32.5013638765        9.6397596711       63.8883930116  LPSA26    16             11.0000000000
     28400       917  BGLCNA    C1            -35.3233944629       13.9496007080       64.1500965804  LPSA26    17             11.0000000000
     28401       917  BGLCNA    H1            -35.8192568851       14.9221638847       63.9797406136  LPSA26    17             11.0000000000
     28402       917  BGLCNA    C5            -33.3844642711       15.1454213164       64.5772177777  LPSA26    17             11.0000000000
     28403       917  BGLCNA    H5            -33.7868214300       16.1611877572       64.3649631191  LPSA26    17             11.0000000000
     28404       917  BGLCNA    O5            -33.9856889047       14.1305552483       63.7860696814  LPSA26    17             11.0000000000
     28405       917  BGLCNA    C2            -35.4110623754       13.4867699035       65.5852248255  LPSA26    17             11.0000000000
     28406       917  BGLCNA    H2            -34.8295927841       12.5430283604       65.7416478104  LPSA26    17             11.0000000000
     28407       917  BGLCNA    N             -36.7902477644       13.2013920113       65.8843852111  LPSA26    17             11.0000000000
     28408       917  BGLCNA    HN            -37.4290556227       13.7428587001       65.3591764131  LPSA26    17             11.0000000000
     28409       917  BGLCNA    C             -37.2560490152       12.3711386192       66.8179204169  LPSA26    17             11.0000000000
     28410       917  BGLCNA    O             -36.5853816883       11.6182728228       67.5010745587  LPSA26    17             11.0000000000
     28411       917  BGLCNA    CT            -38.7418586459       12.4351374725       67.0324104043  LPSA26    17             11.0000000000
     28412       917  BGLCNA    HT1           -39.2779872017       11.6137414189       66.5191650252  LPSA26    17             11.0000000000
     28413       917  BGLCNA    HT2           -39.0909281828       13.4241435021       66.6755039598  LPSA26    17             11.0000000000
     28414       917  BGLCNA    HT3           -38.9466812879       12.3871074349       68.1215312851  LPSA26    17             11.0000000000
     28415       917  BGLCNA    C3            -34.8231258485       14.5845520349       66.4512244218  LPSA26    17             11.0000000000
     28416       917  BGLCNA    H3            -35.3273207891       15.5203812807       66.1108868649  LPSA26    17             11.0000000000
     28417       917  BGLCNA    O3            -35.1096833710       14.3610803403       67.8482844060  LPSA26    17             11.0000000000
     28418       917  BGLCNA    C4            -33.3775278055       14.7263079185       66.0638892979  LPSA26    17             11.0000000000
     28419       917  BGLCNA    H4            -32.8952252393       13.7106915331       66.1538858467  LPSA26    17             11.0000000000
     28420       917  BGLCNA    O4            -32.6295311386       15.6317605478       66.8925509196  LPSA26    17             11.0000000000
     28421       917  BGLCNA    HO4           -31.6877333643       15.6801712278       66.6887985582  LPSA26    17             11.0000000000
     28422       917  BGLCNA    C6            -32.0406161810       15.2203157453       64.1022159854  LPSA26    17             11.0000000000
     28423       917  BGLCNA    H61           -31.5582404695       16.2144966434       64.2077398542  LPSA26    17             11.0000000000
     28424       917  BGLCNA    H62           -31.6108319459       14.5214944828       64.8564884631  LPSA26    17             11.0000000000
     28425       917  BGLCNA    O6            -31.7120938183       14.6890637509       62.8167520829  LPSA26    17             11.0000000000
     28426       917  BGLCNA    HO6           -32.0606879747       15.2301817622       62.1119720626  LPSA26    17             11.0000000000
     28427       918  AGAL      C1            -35.3392409342       15.5244352453       68.6238068310  LPSA26    18             12.0000000000
     28428       918  AGAL      H1            -34.3644470652       16.0287152650       68.8096535526  LPSA26    18             12.0000000000
     28429       918  AGAL      C5            -37.5458230638       15.9683964597       67.8507346528  LPSA26    18             12.0000000000
     28430       918  AGAL      H5            -37.4836497351       14.9610310924       67.4060089209  LPSA26    18             12.0000000000
     28431       918  AGAL      O5            -36.2004960047       16.4666061420       67.9775299953  LPSA26    18             12.0000000000
     28432       918  AGAL      C2            -35.9796643493       15.2384260410       69.9703644739  LPSA26    18             12.0000000000
     28433       918  AGAL      H2            -36.1193708071       16.2628545057       70.3958991238  LPSA26    18             12.0000000000
     28434       918  AGAL      O2            -35.1122202835       14.5498224261       70.8717557190  LPSA26    18             12.0000000000
     28435       918  AGAL      C3            -37.3856748294       14.6518500844       69.8478577919  LPSA26    18             12.0000000000
     28436       918  AGAL      H3            -37.3361949446       13.7640799296       69.1746288697  LPSA26    18             12.0000000000
     28437       918  AGAL      O3            -37.9100275489       14.2010834289       71.0974028516  LPSA26    18             12.0000000000
     28438       918  AGAL      HO3           -38.3254730070       13.3357631141       71.0081064795  LPSA26    18             12.0000000000
     28439       918  AGAL      C4            -38.2612935937       15.6976176188       69.1694200196  LPSA26    18             12.0000000000
     28440       918  AGAL      H4            -39.2679396830       15.2791279978       68.9362430568  LPSA26    18             12.0000000000
     28441       918  AGAL      O4            -38.4623158769       16.8697167048       69.9564290956  LPSA26    18             12.0000000000
     28442       918  AGAL      HO4           -39.0105424679       16.6121913973       70.7107442586  LPSA26    18             12.0000000000
     28443       918  AGAL      C6            -38.2652870224       16.7211720154       66.7697402334  LPSA26    18             12.0000000000
     28444       918  AGAL      H61           -37.6856309631       16.5484642601       65.8344421738  LPSA26    18             12.0000000000
     28445       918  AGAL      H62           -39.2851049865       16.2981237081       66.6348979837  LPSA26    18             12.0000000000
     28446       918  AGAL      O6            -38.3444265590       18.1227592947       66.9860676893  LPSA26    18             12.0000000000
     28447       918  AGAL      HO6           -37.7393766434       18.3798472811       67.6956067691  LPSA26    18             12.0000000000
     28448       919  ARHM      C1            -35.2155771288       15.0986015298       72.1672645957  LPSA26    19             13.0000000000
     28449       919  ARHM      H1            -36.2287230856       15.5159585107       72.3507911359  LPSA26    19             13.0000000000
     28450       919  ARHM      C5            -32.9460995196       15.8097036376       72.2533095568  LPSA26    19             13.0000000000
     28451       919  ARHM      H5            -32.8511140969       15.3978675718       71.2211609437  LPSA26    19             13.0000000000
     28452       919  ARHM      O5            -34.3137468979       16.1847521837       72.4230986407  LPSA26    19             13.0000000000
     28453       919  ARHM      C2            -34.9083736411       13.9770010185       73.1162525660  LPSA26    19             13.0000000000
     28454       919  ARHM      H2            -35.5304291407       13.0791311665       72.8765336109  LPSA26    19             13.0000000000
     28455       919  ARHM      O2            -35.2173979901       14.3727072973       74.4576956902  LPSA26    19             13.0000000000
     28456       919  ARHM      C3            -33.4655268367       13.5533471130       72.9661350108  LPSA26    19             13.0000000000
     28457       919  ARHM      H3            -33.2799784602       13.2495264125       71.9080300575  LPSA26    19             13.0000000000
     28458       919  ARHM      O3            -33.1967523188       12.4272571734       73.7837295217  LPSA26    19             13.0000000000
     28459       919  ARHM      HO3           -33.4630169482       12.6581470245       74.6759351374  LPSA26    19             13.0000000000
     28460       919  ARHM      C4            -32.5679144489       14.7323499905       73.2462552143  LPSA26    19             13.0000000000
     28461       919  ARHM      H4            -32.7508522694       15.0785730806       74.2903790206  LPSA26    19             13.0000000000
     28462       919  ARHM      O4            -31.1850431419       14.4339808315       73.1412015742  LPSA26    19             13.0000000000
     28463       919  ARHM      HO4           -30.9945020855       14.1367582063       72.2479838346  LPSA26    19             13.0000000000
     28464       919  ARHM      C6            -32.0575322484       17.0626684118       72.2821602402  LPSA26    19             13.0000000000
     28465       919  ARHM      H61           -32.4344093419       17.7217193771       71.4797469052  LPSA26    19             13.0000000000
     28466       919  ARHM      H62           -32.0927690785       17.6045404402       73.2469048253  LPSA26    19             13.0000000000
     28467       919  ARHM      H63           -30.9979032337       16.8019881602       72.0771113458  LPSA26    19             13.0000000000
     28468       920  ARHM      C1            -36.6028832442       14.4360861819       74.7040324706  LPSA26    20             14.0000000000
     28469       920  ARHM      H1            -37.1809632338       13.9712448933       73.8736073855  LPSA26    20             14.0000000000
     28470       920  ARHM      C5            -36.5373035786       16.4336127573       75.9607346226  LPSA26    20             14.0000000000
     28471       920  ARHM      H5            -35.4370540762       16.4564339600       75.8139085810  LPSA26    20             14.0000000000
     28472       920  ARHM      O5            -37.1137197121       15.7666949288       74.8409887038  LPSA26    20             14.0000000000
     28473       920  ARHM      C2            -36.8440460246       13.6356235179       75.9525179269  LPSA26    20             14.0000000000
     28474       920  ARHM      H2            -36.3278888482       12.6424172818       75.8489462790  LPSA26    20             14.0000000000
     28475       920  ARHM      O2            -38.2412561178       13.4504680673       76.1600453263  LPSA26    20             14.0000000000
     28476       920  ARHM      C3            -36.2475082398       14.3098721170       77.1297559857  LPSA26    20             14.0000000000
     28477       920  ARHM      H3            -35.1473122144       14.4274601635       76.9614698739  LPSA26    20             14.0000000000
     28478       920  ARHM      O3            -36.4848952279       13.4828447581       78.2718794220  LPSA26    20             14.0000000000
     28479       920  ARHM      C4            -36.8654194998       15.6713420940       77.2364453856  LPSA26    20             14.0000000000
     28480       920  ARHM      H4            -37.9818029680       15.6443391727       77.3269145766  LPSA26    20             14.0000000000
     28481       920  ARHM      O4            -36.3235663040       16.3456027309       78.3533882640  LPSA26    20             14.0000000000
     28482       920  ARHM      HO4           -36.4736872561       17.2685391344       78.1422707981  LPSA26    20             14.0000000000
     28483       920  ARHM      C6            -37.0259894847       17.8889456832       75.9698393803  LPSA26    20             14.0000000000
     28484       920  ARHM      H61           -38.1243549120       17.9334120975       76.1442517706  LPSA26    20             14.0000000000
     28485       920  ARHM      H62           -36.5404651268       18.4607952337       76.7788628966  LPSA26    20             14.0000000000
     28486       920  ARHM      H63           -36.7839100833       18.3740472927       74.9969835806  LPSA26    20             14.0000000000
     28487       921  BMANNA    C1            -38.6614232644       12.3618041661       75.3936360387  LPSA26    21             15.0000000000
     28488       921  BMANNA    H1            -37.8650541837       12.0341330611       74.6988758750  LPSA26    21             15.0000000000
     28489       921  BMANNA    C5            -39.9637592054       11.5923404600       73.5705375061  LPSA26    21             15.0000000000
     28490       921  BMANNA    H5            -39.0481143352       11.2797087758       73.0291318702  LPSA26    21             15.0000000000
     28491       921  BMANNA    O5            -39.7119874982       12.7050489189       74.4763832676  LPSA26    21             15.0000000000
     28492       921  BMANNA    C2            -39.0252554531       11.1987271603       76.3009794753  LPSA26    21             15.0000000000
     28493       921  BMANNA    H2            -38.0918350112       10.9644425788       76.8628669213  LPSA26    21             15.0000000000
     28494       921  BMANNA    N             -39.9672696435       11.4594917690       77.3302214111  LPSA26    21             15.0000000000
     28495       921  BMANNA    HN            -40.7482380732       11.9783620100       76.9518011100  LPSA26    21             15.0000000000
     28496       921  BMANNA    C             -39.9280106665       11.1441742155       78.6575791264  LPSA26    21             15.0000000000
     28497       921  BMANNA    O             -39.1651014446       10.3272484500       79.1124935872  LPSA26    21             15.0000000000
     28498       921  BMANNA    CT            -41.0101514914       11.6882991038       79.5671572179  LPSA26    21             15.0000000000
     28499       921  BMANNA    HT1           -42.0604255727       11.4457773761       79.2974761047  LPSA26    21             15.0000000000
     28500       921  BMANNA    HT2           -41.0146794438       12.7930841892       79.6245625676  LPSA26    21             15.0000000000
     28501       921  BMANNA    HT3           -40.8330470502       11.2699158965       80.5684089398  LPSA26    21             15.0000000000
     28502       921  BMANNA    C3            -39.3422905072       10.0497673157       75.4014824287  LPSA26    21             15.0000000000
     28503       921  BMANNA    H3            -38.3991908240        9.7670712631       74.8932109429  LPSA26    21             15.0000000000
     28504       921  BMANNA    O3            -39.8203151315        8.9580757286       76.1783607548  LPSA26    21             15.0000000000
     28505       921  BMANNA    HO3           -40.5310101035        9.1575368291       76.8102733799  LPSA26    21             15.0000000000
     28506       921  BMANNA    C4            -40.3907232301       10.4347437382       74.3893592185  LPSA26    21             15.0000000000
     28507       921  BMANNA    H4            -41.2002178742       10.9667724671       74.8527129846  LPSA26    21             15.0000000000
     28508       921  BMANNA    O4            -40.8557501819        9.3983992497       73.5324421820  LPSA26    21             15.0000000000
     28509       921  BMANNA    HO4           -41.7532547417        9.1500627145       73.7763686659  LPSA26    21             15.0000000000
     28510       921  BMANNA    C6            -41.0052022459       11.9127854459       72.5312573319  LPSA26    21             15.0000000000
     28511       921  BMANNA    H61           -41.0328625095       11.1670801680       71.7227490989  LPSA26    21             15.0000000000
     28512       921  BMANNA    H62           -42.0411793411       11.8057907440       72.9194062013  LPSA26    21             15.0000000000
     28513       921  BMANNA    O6            -40.7370095542       13.2010644319       71.9985610081  LPSA26    21             15.0000000000
     28514       921  BMANNA    HO6           -40.8923478790       13.8675448328       72.6907050636  LPSA26    21             15.0000000000
     28515       922  BGLCNA    C1            -35.4754209979       13.4710145508       79.2467314379  LPSA26    22             15.0000000000
     28516       922  BGLCNA    H1            -34.8781933808       14.4068661137       79.2464276444  LPSA26    22             15.0000000000
     28517       922  BGLCNA    C5            -33.6342286399       12.3113788482       80.1277134916  LPSA26    22             15.0000000000
     28518       922  BGLCNA    H5            -33.0678059453       13.2829131823       80.1283138195  LPSA26    22             15.0000000000
     28519       922  BGLCNA    O5            -34.6090564211       12.3606619588       79.0734749684  LPSA26    22             15.0000000000
     28520       922  BGLCNA    C2            -36.1920387907       13.3197954435       80.5542048374  LPSA26    22             15.0000000000
     28521       922  BGLCNA    H2            -36.7633787010       12.3543776650       80.5020793676  LPSA26    22             15.0000000000
     28522       922  BGLCNA    N             -37.1027607854       14.4181263577       80.7325241289  LPSA26    22             15.0000000000
     28523       922  BGLCNA    HN            -36.8093486826       15.3023707411       80.3910744316  LPSA26    22             15.0000000000
     28524       922  BGLCNA    C             -38.2784970643       14.3350169441       81.3506528137  LPSA26    22             15.0000000000
     28525       922  BGLCNA    O             -38.7088831657       13.3038963886       81.8526261496  LPSA26    22             15.0000000000
     28526       922  BGLCNA    CT            -39.0509348986       15.6305017985       81.3974167074  LPSA26    22             15.0000000000
     28527       922  BGLCNA    HT1           -39.7571822656       15.6109783738       80.5397347841  LPSA26    22             15.0000000000
     28528       922  BGLCNA    HT2           -38.3636924558       16.4910946121       81.2747073683  LPSA26    22             15.0000000000
     28529       922  BGLCNA    HT3           -39.5940671724       15.7340034070       82.3596093643  LPSA26    22             15.0000000000
     28530       922  BGLCNA    C3            -35.2040865312       13.2709697539       81.6952436265  LPSA26    22             15.0000000000
     28531       922  BGLCNA    H3            -34.5826104631       14.1989347236       81.6560172391  LPSA26    22             15.0000000000
     28532       922  BGLCNA    O3            -35.9743411712       13.2612404383       82.9057598618  LPSA26    22             15.0000000000
     28533       922  BGLCNA    C4            -34.2857340449       12.1063271289       81.4801958595  LPSA26    22             15.0000000000
     28534       922  BGLCNA    H4            -34.8882152161       11.1729648736       81.4228131482  LPSA26    22             15.0000000000
     28535       922  BGLCNA    O4            -33.3267092473       11.9385517032       82.5270165916  LPSA26    22             15.0000000000
     28536       922  BGLCNA    HO4           -33.1939060967       10.9988040768       82.7277518420  LPSA26    22             15.0000000000
     28537       922  BGLCNA    C6            -32.7276961270       11.2018012801       79.7742427338  LPSA26    22             15.0000000000
     28538       922  BGLCNA    H61           -32.0808058844       10.9491482815       80.6519116383  LPSA26    22             15.0000000000
     28539       922  BGLCNA    H62           -33.2480834918       10.2689659844       79.4689696688  LPSA26    22             15.0000000000
     28540       922  BGLCNA    O6            -31.9071788283       11.6731984370       78.7218550234  LPSA26    22             15.0000000000
     28541       922  BGLCNA    HO6           -32.2911697405       11.9137499037       77.8834820281  LPSA26    22             15.0000000000
     28542       923  AGAL      C1            -35.3475195428       13.6284598374       84.1004998956  LPSA26    23             16.0000000000
     28543       923  AGAL      H1            -34.6929560693       12.8009034322       84.4448505393  LPSA26    23             16.0000000000
     28544       923  AGAL      C5            -35.3466733287       15.9968341295       83.7208548200  LPSA26    23             16.0000000000
     28545       923  AGAL      H5            -35.9587853683       15.8113373952       82.8107223927  LPSA26    23             16.0000000000
     28546       923  AGAL      O5            -34.5580479089       14.8232794533       83.9959490778  LPSA26    23             16.0000000000
     28547       923  AGAL      C2            -36.3870161918       13.8211910289       85.1827146205  LPSA26    23             16.0000000000
     28548       923  AGAL      H2            -35.8158140074       14.0708655060       86.1031242513  LPSA26    23             16.0000000000
     28549       923  AGAL      O2            -37.1639676018       12.6234879518       85.4260349723  LPSA26    23             16.0000000000
     28550       923  AGAL      C3            -37.2439525151       15.0404505810       84.8795615529  LPSA26    23             16.0000000000
     28551       923  AGAL      H3            -37.6761932769       14.9267603711       83.8624459072  LPSA26    23             16.0000000000
     28552       923  AGAL      O3            -38.3572852860       15.1579669108       85.7574412182  LPSA26    23             16.0000000000
     28553       923  AGAL      HO3           -38.0627725800       15.0084757306       86.6547385447  LPSA26    23             16.0000000000
     28554       923  AGAL      C4            -36.3402706309       16.2681290636       84.8556822193  LPSA26    23             16.0000000000
     28555       923  AGAL      H4            -36.9178331121       17.1921781229       84.6268228153  LPSA26    23             16.0000000000
     28556       923  AGAL      O4            -35.6623173875       16.4703136162       86.0898909838  LPSA26    23             16.0000000000
     28557       923  AGAL      HO4           -34.8387241958       16.9283686908       85.8332864779  LPSA26    23             16.0000000000
     28558       923  AGAL      C6            -34.4060830815       17.1139262321       83.3274796888  LPSA26    23             16.0000000000
     28559       923  AGAL      H61           -33.6746643755       16.7295933301       82.5772779378  LPSA26    23             16.0000000000
     28560       923  AGAL      H62           -34.9634009805       17.9397989445       82.8231252579  LPSA26    23             16.0000000000
     28561       923  AGAL      O6            -33.6857243917       17.6137027360       84.4516557476  LPSA26    23             16.0000000000
     28562       923  AGAL      HO6           -33.0081501228       18.2057959512       84.1451658296  LPSA26    23             16.0000000000
     28563       924  ARHM      C1            -36.6305785190       11.6447782373       86.2892204514  LPSA26    24             17.0000000000
     28564       924  ARHM      H1            -35.5703090647       11.8806894779       86.3975894224  LPSA26    24             17.0000000000
     28565       924  ARHM      C5            -38.1033030120        9.8778270620       85.6454374623  LPSA26    24             17.0000000000
     28566       924  ARHM      H5            -38.5659440719       10.6022370767       84.9364826420  LPSA26    24             17.0000000000
     28567       924  ARHM      O5            -36.7416959504       10.2824686437       85.8239506322  LPSA26    24             17.0000000000
     28568       924  ARHM      C2            -37.3172061984       11.7864773317       87.6198480465  LPSA26    24             17.0000000000
     28569       924  ARHM      H2            -37.2546910979       12.8535509989       87.9381676567  LPSA26    24             17.0000000000
     28570       924  ARHM      O2            -36.7383989566       10.9211852995       88.6105697089  LPSA26    24             17.0000000000
     28571       924  ARHM      C3            -38.7658463217       11.4202422548       87.4344002290  LPSA26    24             17.0000000000
     28572       924  ARHM      H3            -39.1671311120       12.0855581057       86.6314531652  LPSA26    24             17.0000000000
     28573       924  ARHM      O3            -39.5594662415       11.6704187464       88.5926001154  LPSA26    24             17.0000000000
     28574       924  ARHM      HO3           -39.4615399132       10.9163949669       89.1790547078  LPSA26    24             17.0000000000
     28575       924  ARHM      C4            -38.8426139021        9.9746122926       86.9701534792  LPSA26    24             17.0000000000
     28576       924  ARHM      H4            -38.3175186055        9.3167829791       87.7081185375  LPSA26    24             17.0000000000
     28577       924  ARHM      O4            -40.1927601054        9.5282311732       86.8523756143  LPSA26    24             17.0000000000
     28578       924  ARHM      HO4           -40.2573264242        8.5806245556       87.0168841840  LPSA26    24             17.0000000000
     28579       924  ARHM      C6            -38.1563214370        8.4832502662       84.9809289765  LPSA26    24             17.0000000000
     28580       924  ARHM      H61           -39.0894275254        8.3809495919       84.4113244360  LPSA26    24             17.0000000000
     28581       924  ARHM      H62           -37.3365898105        8.3732940661       84.2480184482  LPSA26    24             17.0000000000
     28582       924  ARHM      H63           -38.0791057347        7.6469511979       85.7025508063  LPSA26    24             17.0000000000
     28583       925  ARHM      C1            -35.5268982623       11.3688182714       89.1512985030  LPSA26    25             18.0000000000
     28584       925  ARHM      H1            -35.0880103613       12.1301086336       88.4706759823  LPSA26    25             18.0000000000
     28585       925  ARHM      C5            -34.8782692392        9.3233698215       90.1965300177  LPSA26    25             18.0000000000
     28586       925  ARHM      H5            -35.8240479265        8.8469517543       89.8485762699  LPSA26    25             18.0000000000
     28587       925  ARHM      O5            -34.5097768929       10.3565767474       89.2626104162  LPSA26    25             18.0000000000
     28588       925  ARHM      C2            -35.8086106316       12.0269217355       90.4675075383  LPSA26    25             18.0000000000
     28589       925  ARHM      H2            -36.6814717512       12.7227730382       90.3690081299  LPSA26    25             18.0000000000
     28590       925  ARHM      O2            -34.6487411317       12.7531579687       90.8953297234  LPSA26    25             18.0000000000
     28591       925  ARHM      C3            -36.2033099959       10.9650838212       91.4552940196  LPSA26    25             18.0000000000
     28592       925  ARHM      H3            -37.1186231099       10.4378047500       91.0834280161  LPSA26    25             18.0000000000
     28593       925  ARHM      O3            -36.4424343449       11.5895128689       92.7192525091  LPSA26    25             18.0000000000
     28594       925  ARHM      C4            -35.1254017693        9.9369899171       91.5675650598  LPSA26    25             18.0000000000
     28595       925  ARHM      H4            -34.1632787563       10.4006717552       91.9026732703  LPSA26    25             18.0000000000
     28596       925  ARHM      O4            -35.5243771029        8.9601660388       92.5191544536  LPSA26    25             18.0000000000
     28597       925  ARHM      HO4           -34.7203039641        8.6960671391       92.9799679657  LPSA26    25             18.0000000000
     28598       925  ARHM      C6            -33.8029207392        8.2158844279       90.2138757406  LPSA26    25             18.0000000000
     28599       925  ARHM      H61           -33.5909178494        7.8723007528       89.1785423775  LPSA26    25             18.0000000000
     28600       925  ARHM      H62           -32.8600900018        8.5796074045       90.6670324373  LPSA26    25             18.0000000000
     28601       925  ARHM      H63           -34.1692650703        7.3453095791       90.8020707554  LPSA26    25             18.0000000000
     28602       926  BMANNA    C1            -34.4958451511       14.0004886366       90.2716619756  LPSA26    26             19.0000000000
     28603       926  BMANNA    H1            -35.4608147220       14.3607964572       89.8513663900  LPSA26    26             19.0000000000
     28604       926  BMANNA    C5            -33.4404814133       15.2926162344       88.5645923301  LPSA26    26             19.0000000000
     28605       926  BMANNA    H5            -34.4541510918       15.5424809486       88.1712934138  LPSA26    26             19.0000000000
     28606       926  BMANNA    O5            -33.5135359813       14.0051112747       89.2062203113  LPSA26    26             19.0000000000
     28607       926  BMANNA    C2            -34.0992510000       14.9557086957       91.3604515281  LPSA26    26             19.0000000000
     28608       926  BMANNA    H2            -34.9047203353       14.9257041420       92.1351579278  LPSA26    26             19.0000000000
     28609       926  BMANNA    N             -32.8433919896       14.5544798807       91.9717385464  LPSA26    26             19.0000000000
     28610       926  BMANNA    HN            -32.0925686524       14.4209379208       91.3323263374  LPSA26    26             19.0000000000
     28611       926  BMANNA    C             -32.5946770983       14.3695005522       93.2676889191  LPSA26    26             19.0000000000
     28612       926  BMANNA    O             -33.4918065128       14.3746185675       94.0840913135  LPSA26    26             19.0000000000
     28613       926  BMANNA    CT            -31.1551121696       14.1793306467       93.6850916949  LPSA26    26             19.0000000000
     28614       926  BMANNA    HT1           -30.5865807208       13.6919387186       92.8745375118  LPSA26    26             19.0000000000
     28615       926  BMANNA    HT2           -31.0198627739       13.5967378817       94.6141473069  LPSA26    26             19.0000000000
     28616       926  BMANNA    HT3           -30.7563456842       15.1932030449       93.8900900668  LPSA26    26             19.0000000000
     28617       926  BMANNA    C3            -34.0877169509       16.3373339796       90.7457526991  LPSA26    26             19.0000000000
     28618       926  BMANNA    H3            -35.0910164674       16.5827744782       90.3371935225  LPSA26    26             19.0000000000
     28619       926  BMANNA    O3            -33.8053327131       17.3119336798       91.7327026015  LPSA26    26             19.0000000000
     28620       926  BMANNA    HO3           -34.5740663600       17.4003816372       92.3084438564  LPSA26    26             19.0000000000
     28621       926  BMANNA    C4            -33.1087589310       16.3307089228       89.5953739607  LPSA26    26             19.0000000000
     28622       926  BMANNA    H4            -32.1192967205       16.2911574400       89.9327240365  LPSA26    26             19.0000000000
     28623       926  BMANNA    O4            -32.9901285880       17.5453590460       88.9744481356  LPSA26    26             19.0000000000
     28624       926  BMANNA    HO4           -32.3849854126       18.0727130187       89.5284539969  LPSA26    26             19.0000000000
     28625       926  BMANNA    C6            -32.5324063904       15.2012415337       87.3090048726  LPSA26    26             19.0000000000
     28626       926  BMANNA    H61           -32.7183253599       14.2068323331       86.8622780328  LPSA26    26             19.0000000000
     28627       926  BMANNA    H62           -32.8134155839       15.9680059498       86.5782789603  LPSA26    26             19.0000000000
     28628       926  BMANNA    O6            -31.1221825402       15.4035048564       87.3955255853  LPSA26    26             19.0000000000
     28629       926  BMANNA    HO6           -30.9374868180       16.0804653314       88.0663339160  LPSA26    26             19.0000000000
     28630       927  BGLCNA    C1            -37.5128076957       11.1138766533       93.4787374046  LPSA26    27             19.0000000000
     28631       927  BGLCNA    H1            -37.6496579697       10.0187471739       93.4042726837  LPSA26    27             19.0000000000
     28632       927  BGLCNA    C5            -39.8261775685       11.3772790152       93.9258800053  LPSA26    27             19.0000000000
     28633       927  BGLCNA    H5            -39.8748785992       10.2619149835       93.9307970611  LPSA26    27             19.0000000000
     28634       927  BGLCNA    O5            -38.7238364470       11.7555343336       93.0985960814  LPSA26    27             19.0000000000
     28635       927  BGLCNA    C2            -37.1543668317       11.5286081184       94.8856000196  LPSA26    27             19.0000000000
     28636       927  BGLCNA    H2            -37.1174763760       12.5984928849       94.9435794558  LPSA26    27             19.0000000000
     28637       927  BGLCNA    N             -35.8472566434       11.0754921236       95.3276822988  LPSA26    27             19.0000000000
     28638       927  BGLCNA    HN            -35.6274864888       10.1457055093       95.0723038147  LPSA26    27             19.0000000000
     28639       927  BGLCNA    C             -34.9889361540       11.9003734649       95.9810344264  LPSA26    27             19.0000000000
     28640       927  BGLCNA    O             -35.3741276049       12.9405980204       96.5077311729  LPSA26    27             19.0000000000
     28641       927  BGLCNA    CT            -33.5385425291       11.4884198554       96.0441718047  LPSA26    27             19.0000000000
     28642       927  BGLCNA    HT1           -33.3679154170       10.6112611196       95.4144321203  LPSA26    27             19.0000000000
     28643       927  BGLCNA    HT2           -33.2109846858       11.2550954059       97.0719499402  LPSA26    27             19.0000000000
     28644       927  BGLCNA    HT3           -32.9100341670       12.3297142242       95.6790303246  LPSA26    27             19.0000000000
     28645       927  BGLCNA    C3            -38.2465611549       11.1945427163       95.8212646519  LPSA26    27             19.0000000000
     28646       927  BGLCNA    H3            -38.3766238704       10.0908201416       95.7730386912  LPSA26    27             19.0000000000
     28647       927  BGLCNA    O3            -37.7752770868       11.6395207106       97.1211594305  LPSA26    27             19.0000000000
     28648       927  BGLCNA    C4            -39.5218075407       11.8480750267       95.3520942504  LPSA26    27             19.0000000000
     28649       927  BGLCNA    H4            -39.4539189097       12.9664825741       95.3437604470  LPSA26    27             19.0000000000
     28650       927  BGLCNA    O4            -40.5489624541       11.4231985467       96.2241742985  LPSA26    27             19.0000000000
     28651       927  BGLCNA    HO4           -40.7983932275       10.5819960262       95.8471334672  LPSA26    27             19.0000000000
     28652       927  BGLCNA    C6            -41.1379717676       11.8414286916       93.3202357416  LPSA26    27             19.0000000000
     28653       927  BGLCNA    H61           -41.9865758567       11.3606238890       93.8556200408  LPSA26    27             19.0000000000
     28654       927  BGLCNA    H62           -41.2362965608       12.9401609543       93.4312911078  LPSA26    27             19.0000000000
     28655       927  BGLCNA    O6            -41.2395987653       11.4954659681       91.9352024316  LPSA26    27             19.0000000000
     28656       927  BGLCNA    HO6           -42.0449363287       11.8529650590       91.5597727200  LPSA26    27             19.0000000000
     28657       928  AGAL      C1            -38.3873566013       11.0949081805       98.2503893461  LPSA26    28             20.0000000000
     28658       928  AGAL      H1            -39.3921948846       11.5532915715       98.3427284795  LPSA26    28             20.0000000000
     28659       928  AGAL      C5            -37.2879923996        8.9908390382       98.1257818485  LPSA26    28             20.0000000000
     28660       928  AGAL      H5            -36.5454958986        9.4595949315       97.4289601117  LPSA26    28             20.0000000000
     28661       928  AGAL      O5            -38.5481856632        9.6879494019       98.0462551878  LPSA26    28             20.0000000000
     28662       928  AGAL      C2            -37.7176410928       11.3281564613       99.6168111052  LPSA26    28             20.0000000000
     28663       928  AGAL      H2            -38.4293732381       10.8067399333      100.3038777690  LPSA26    28             20.0000000000
     28664       928  AGAL      O2            -37.6324652247       12.6764163407      100.0853609178  LPSA26    28             20.0000000000
     28665       928  AGAL      C3            -36.3891578440       10.6143244041       99.6912611088  LPSA26    28             20.0000000000
     28666       928  AGAL      H3            -35.7518490604       10.9679719342       98.8482274600  LPSA26    28             20.0000000000
     28667       928  AGAL      O3            -35.6065119877       10.8220267438      100.8661316549  LPSA26    28             20.0000000000
     28668       928  AGAL      HO3           -34.7834029818       11.2776625416      100.6251954228  LPSA26    28             20.0000000000
     28669       928  AGAL      C4            -36.6797912872        9.1624415484       99.4830353508  LPSA26    28             20.0000000000
     28670       928  AGAL      H4            -35.7466384917        8.6255953502       99.4221161872  LPSA26    28             20.0000000000
     28671       928  AGAL      O4            -37.4646998627        8.5794239404      100.5120872066  LPSA26    28             20.0000000000
     28672       928  AGAL      HO4           -36.9028204769        8.0585013227      101.0970407559  LPSA26    28             20.0000000000
     28673       928  AGAL      C6            -37.3945988104        7.5605995071       97.6659744494  LPSA26    28             20.0000000000
     28674       928  AGAL      H61           -37.5616374390        7.5993709208       96.5782350584  LPSA26    28             20.0000000000
     28675       928  AGAL      H62           -36.4644139766        7.0005672169       97.7444614866  LPSA26    28             20.0000000000
     28676       928  AGAL      O6            -38.3831608879        6.7964821047       98.3489307487  LPSA26    28             20.0000000000
     28677       928  AGAL      HO6           -39.2283210413        6.8916276171       97.9143289988  LPSA26    28             20.0000000000
     28678       929  ARHM      C1            -37.9033802080       12.7046593061      101.4791211678  LPSA26    29             21.0000000000
     28679       929  ARHM      H1            -37.7064195746       11.7206797145      101.9614912490  LPSA26    29             21.0000000000
     28680       929  ARHM      C5            -39.5804291474       14.3662418206      101.2436251399  LPSA26    29             21.0000000000
     28681       929  ARHM      H5            -39.3923275923       14.3435411380      100.1381122403  LPSA26    29             21.0000000000
     28682       929  ARHM      O5            -39.2638278363       13.0538427514      101.7147878631  LPSA26    29             21.0000000000
     28683       929  ARHM      C2            -37.0689577308       13.7310510308      102.1707995842  LPSA26    29             21.0000000000
     28684       929  ARHM      H2            -36.0044251988       13.5055507246      101.9278413868  LPSA26    29             21.0000000000
     28685       929  ARHM      O2            -37.3044449754       13.6848338842      103.6002209406  LPSA26    29             21.0000000000
     28686       929  ARHM      C3            -37.3813652560       15.0959374842      101.6169386109  LPSA26    29             21.0000000000
     28687       929  ARHM      H3            -37.2034096928       15.1079007898      100.5129248915  LPSA26    29             21.0000000000
     28688       929  ARHM      O3            -36.5419635358       16.0560479901      102.2036939744  LPSA26    29             21.0000000000
     28689       929  ARHM      HO3           -37.0781238740       16.8534306712      102.2243566755  LPSA26    29             21.0000000000
     28690       929  ARHM      C4            -38.8132554561       15.4534459569      101.8744316294  LPSA26    29             21.0000000000
     28691       929  ARHM      H4            -39.0865028434       15.4300524483      102.9536719651  LPSA26    29             21.0000000000
     28692       929  ARHM      O4            -39.2002527757       16.7506628598      101.3928889898  LPSA26    29             21.0000000000
     28693       929  ARHM      HO4           -38.9937156020       16.8770176101      100.4559876843  LPSA26    29             21.0000000000
     28694       929  ARHM      C6            -41.0321028854       14.5022863202      101.6504162152  LPSA26    29             21.0000000000
     28695       929  ARHM      H61           -41.2252416699       14.0724034121      100.6463608628  LPSA26    29             21.0000000000
     28696       929  ARHM      H62           -41.4520013155       14.1384685866      102.5613146666  LPSA26    29             21.0000000000
     28697       929  ARHM      H63           -41.9452374190       14.9714697364      101.3306795420  LPSA26    29             21.0000000000
     28698       930  ARHM      C1            -36.3752617760       12.9547162353      104.3646542360  LPSA26    30             22.0000000000
     28699       930  ARHM      H1            -35.3469683629       13.3218947377      104.1487574813  LPSA26    30             22.0000000000
     28700       930  ARHM      C5            -37.7076633672       10.9762096975      104.4910954792  LPSA26    30             22.0000000000
     28701       930  ARHM      H5            -38.4716225077       11.5377339762      103.9070161733  LPSA26    30             22.0000000000
     28702       930  ARHM      O5            -36.4275565102       11.5331511447      104.1581959653  LPSA26    30             22.0000000000
     28703       930  ARHM      C2            -36.7005192757       13.2110916765      105.8174732920  LPSA26    30             22.0000000000
     28704       930  ARHM      H2            -36.6915756210       14.3018944256      106.0242829915  LPSA26    30             22.0000000000
     28705       930  ARHM      O2            -35.7519974235       12.5425024019      106.6192198998  LPSA26    30             22.0000000000
     28706       930  ARHM      C3            -38.0383265909       12.6514865250      106.2204327028  LPSA26    30             22.0000000000
     28707       930  ARHM      H3            -38.7817971578       13.0917613696      105.5146854125  LPSA26    30             22.0000000000
     28708       930  ARHM      O3            -38.4283417945       13.0689057986      107.5463913716  LPSA26    30             22.0000000000
     28709       930  ARHM      C4            -38.0214365184       11.1678653154      105.9566230721  LPSA26    30             22.0000000000
     28710       930  ARHM      H4            -37.2379739263       10.6460791987      106.5505821468  LPSA26    30             22.0000000000
     28711       930  ARHM      O4            -39.2434962578       10.5422499247      106.3007109217  LPSA26    30             22.0000000000
     28712       930  ARHM      HO4           -39.9451649040       10.6808994838      105.6517739068  LPSA26    30             22.0000000000
     28713       930  ARHM      C6            -37.7932652580        9.5049859603      104.0597825133  LPSA26    30             22.0000000000
     28714       930  ARHM      H61           -38.8240566725        9.1273054973      104.2252824081  LPSA26    30             22.0000000000
     28715       930  ARHM      H62           -37.5889932839        9.4319662037      102.9763431339  LPSA26    30             22.0000000000
     28716       930  ARHM      H63           -37.0699599303        8.8735890601      104.6215190552  LPSA26    30             22.0000000000
     28717       931  BMANNA    C1            -34.6444216373       13.2924325024      106.9059304393  LPSA26    31             23.0000000000
     28718       931  BMANNA    H1            -34.8948752888       14.3376610202      107.1732663809  LPSA26    31             23.0000000000
     28719       931  BMANNA    C5            -32.5455537652       13.8176878383      106.0274759585  LPSA26    31             23.0000000000
     28720       931  BMANNA    H5            -32.7577438485       14.8549654140      106.4475463046  LPSA26    31             23.0000000000
     28721       931  BMANNA    O5            -33.7876186338       13.2280122565      105.7827058383  LPSA26    31             23.0000000000
     28722       931  BMANNA    C2            -34.0997725390       12.5692380223      108.0880847320  LPSA26    31             23.0000000000
     28723       931  BMANNA    H2            -34.8021511196       12.6938963661      108.9431117703  LPSA26    31             23.0000000000
     28724       931  BMANNA    N             -33.9094399623       11.1452866734      107.8192266918  LPSA26    31             23.0000000000
     28725       931  BMANNA    HN            -33.7779460409       10.8646971810      106.8652508973  LPSA26    31             23.0000000000
     28726       931  BMANNA    C             -33.9004958576       10.2216253420      108.7817884788  LPSA26    31             23.0000000000
     28727       931  BMANNA    O             -34.1102304962       10.5288385188      109.9510829352  LPSA26    31             23.0000000000
     28728       931  BMANNA    CT            -33.6641221568        8.8044150465      108.3382979282  LPSA26    31             23.0000000000
     28729       931  BMANNA    HT1           -32.8594241568        8.7927729365      107.5727240231  LPSA26    31             23.0000000000
     28730       931  BMANNA    HT2           -34.5987869900        8.4004171561      107.9004847037  LPSA26    31             23.0000000000
     28731       931  BMANNA    HT3           -33.3740967783        8.1673322022      109.1978196343  LPSA26    31             23.0000000000
     28732       931  BMANNA    C3            -32.8321697451       13.2078499507      108.4558723553  LPSA26    31             23.0000000000
     28733       931  BMANNA    H3            -33.0088261797       14.3045918866      108.6336509985  LPSA26    31             23.0000000000
     28734       931  BMANNA    O3            -32.2907193626       12.7861846220      109.6816749839  LPSA26    31             23.0000000000
     28735       931  BMANNA    HO3           -32.9940979893       12.3117693393      110.1520001876  LPSA26    31             23.0000000000
     28736       931  BMANNA    C4            -32.0478672746       13.0539510788      107.1725041638  LPSA26    31             23.0000000000
     28737       931  BMANNA    H4            -31.8083273664       11.9882808904      107.0678642957  LPSA26    31             23.0000000000
     28738       931  BMANNA    O4            -30.8019410399       13.2002864825      107.0064432165  LPSA26    31             23.0000000000
     28739       931  BMANNA    HO4           -30.8206094187       13.9924847075      107.5409577335  LPSA26    31             23.0000000000
     28740       931  BMANNA    C6            -31.4844240666       14.1132330993      104.9163083577  LPSA26    31             23.0000000000
     28741       931  BMANNA    H61           -30.7138423937       14.8632065592      105.2705986145  LPSA26    31             23.0000000000
     28742       931  BMANNA    H62           -30.8831820723       13.2093287818      104.6804011464  LPSA26    31             23.0000000000
     28743       931  BMANNA    O6            -32.0680912337       14.5192655866      103.7042539428  LPSA26    31             23.0000000000
     28744       931  BMANNA    HO6           -32.3753334605       15.4281970864      103.7668517382  LPSA26    31             23.0000000000
     28745       932  BGLCNA    C1            -37.8986623000       12.3185272376      108.6124025192  LPSA26    32             23.0000000000
     28746       932  BGLCNA    H1            -36.8578266183       12.0179754158      108.4095393474  LPSA26    32             23.0000000000
     28747       932  BGLCNA    C5            -38.0305587511       10.3404383992      109.9210597943  LPSA26    32             23.0000000000
     28748       932  BGLCNA    H5            -36.9866522574       10.1062501029      109.5857067542  LPSA26    32             23.0000000000
     28749       932  BGLCNA    O5            -38.6478513249       11.1387626813      108.9053478887  LPSA26    32             23.0000000000
     28750       932  BGLCNA    C2            -37.8748200539       13.1829162405      109.8536160947  LPSA26    32             23.0000000000
     28751       932  BGLCNA    H2            -38.9438040562       13.3285661728      110.1479447448  LPSA26    32             23.0000000000
     28752       932  BGLCNA    N             -37.2802433193       14.4679509212      109.5715078000  LPSA26    32             23.0000000000
     28753       932  BGLCNA    HN            -36.5796311733       14.4152052996      108.8784124171  LPSA26    32             23.0000000000
     28754       932  BGLCNA    C             -37.6389323938       15.6537759235      110.0929911344  LPSA26    32             23.0000000000
     28755       932  BGLCNA    O             -38.5317112667       15.7994002958      110.9181564004  LPSA26    32             23.0000000000
     28756       932  BGLCNA    CT            -36.8518392259       16.8175304253      109.5456498018  LPSA26    32             23.0000000000
     28757       932  BGLCNA    HT1           -36.3591072502       16.4828558334      108.6113324368  LPSA26    32             23.0000000000
     28758       932  BGLCNA    HT2           -36.0706315606       17.1685531390      110.2456588896  LPSA26    32             23.0000000000
     28759       932  BGLCNA    HT3           -37.5081747548       17.6827145645      109.3119509825  LPSA26    32             23.0000000000
     28760       932  BGLCNA    C3            -37.1480087870       12.4030712207      110.9264990739  LPSA26    32             23.0000000000
     28761       932  BGLCNA    H3            -36.1793259297       12.0848289325      110.4780462491  LPSA26    32             23.0000000000
     28762       932  BGLCNA    O3            -36.8494719596       13.1843712128      112.0940946531  LPSA26    32             23.0000000000
     28763       932  BGLCNA    C4            -37.9566280273       11.1541599849      111.2019458591  LPSA26    32             23.0000000000
     28764       932  BGLCNA    H4            -38.9828204208       11.4660207011      111.5095717859  LPSA26    32             23.0000000000
     28765       932  BGLCNA    O4            -37.4195168221       10.3585045495      112.2412441116  LPSA26    32             23.0000000000
     28766       932  BGLCNA    HO4           -37.7409038951       10.6776727930      113.0922776124  LPSA26    32             23.0000000000
     28767       932  BGLCNA    C6            -38.7562306879        9.0100715834      110.0356371802  LPSA26    32             23.0000000000
     28768       932  BGLCNA    H61           -38.1696417737        8.3390639872      110.6941182856  LPSA26    32             23.0000000000
     28769       932  BGLCNA    H62           -39.7472574695        9.1526785737      110.5147857891  LPSA26    32             23.0000000000
     28770       932  BGLCNA    O6            -38.9299812530        8.3627572884      108.7673146385  LPSA26    32             23.0000000000
     28771       932  BGLCNA    HO6           -38.1085191592        8.4811439047      108.2675477491  LPSA26    32             23.0000000000
     28772       933  AGAL      C1            -35.5969269189       12.8702437180      112.6763237119  LPSA26    33             24.0000000000
     28773       933  AGAL      H1            -35.4016664592       11.7782562511      112.6070934157  LPSA26    33             24.0000000000
     28774       933  AGAL      C5            -34.6149760302       15.0004556812      112.1974389766  LPSA26    33             24.0000000000
     28775       933  AGAL      H5            -35.6343841160       15.2445478672      111.8365698160  LPSA26    33             24.0000000000
     28776       933  AGAL      O5            -34.5029395328       13.5677129546      112.0412276361  LPSA26    33             24.0000000000
     28777       933  AGAL      C2            -35.6098641331       13.2676328922      114.1427063197  LPSA26    33             24.0000000000
     28778       933  AGAL      H2            -34.5866216994       13.0724987275      114.5283199733  LPSA26    33             24.0000000000
     28779       933  AGAL      O2            -36.4727264125       12.3754906302      114.8739769756  LPSA26    33             24.0000000000
     28780       933  AGAL      C3            -35.8119845545       14.7761530086      114.2992198278  LPSA26    33             24.0000000000
     28781       933  AGAL      H3            -36.7147414905       15.0986561343      113.7248338662  LPSA26    33             24.0000000000
     28782       933  AGAL      O3            -36.1056144435       15.1753411299      115.6343587735  LPSA26    33             24.0000000000
     28783       933  AGAL      HO3           -35.3966098476       14.9276829582      116.2313418893  LPSA26    33             24.0000000000
     28784       933  AGAL      C4            -34.6143140984       15.4787302244      113.6424157152  LPSA26    33             24.0000000000
     28785       933  AGAL      H4            -34.7684750153       16.5833838998      113.6667031153  LPSA26    33             24.0000000000
     28786       933  AGAL      O4            -33.3389725579       15.2341314435      114.2215228133  LPSA26    33             24.0000000000
     28787       933  AGAL      HO4           -33.3402353081       14.5684867931      114.9044864163  LPSA26    33             24.0000000000
     28788       933  AGAL      C6            -33.6716180827       15.7466375040      111.2601879877  LPSA26    33             24.0000000000
     28789       933  AGAL      H61           -33.9767812115       15.4697548215      110.2322162292  LPSA26    33             24.0000000000
     28790       933  AGAL      H62           -33.7968879395       16.8473135145      111.3765956350  LPSA26    33             24.0000000000
     28791       933  AGAL      O6            -32.2778399787       15.4804167430      111.4160988654  LPSA26    33             24.0000000000
     28792       933  AGAL      HO6           -31.9790670044       14.7317716099      110.8836551349  LPSA26    33             24.0000000000
     28793       934  ARHM      C1            -35.9039187606       11.8373950275      116.0552290918  LPSA26    34             25.0000000000
     28794       934  ARHM      H1            -35.4845973945       12.6732872306      116.6502211349  LPSA26    34             25.0000000000
     28795       934  ARHM      C5            -35.2095243000        9.7367649766      115.0764632320  LPSA26    34             25.0000000000
     28796       934  ARHM      H5            -35.5361058890       10.0703995151      114.0679117601  LPSA26    34             25.0000000000
     28797       934  ARHM      O5            -34.8184195625       10.8950405356      115.8369240814  LPSA26    34             25.0000000000
     28798       934  ARHM      C2            -37.0507862766       11.1802764730      116.8129952722  LPSA26    34             25.0000000000
     28799       934  ARHM      H2            -37.9163804784       11.8923176909      116.8471055439  LPSA26    34             25.0000000000
     28800       934  ARHM      O2            -36.7240189611       10.8107699918      118.1850748248  LPSA26    34             25.0000000000
     28801       934  ARHM      C3            -37.5111823540        9.9714545534      116.0046414045  LPSA26    34             25.0000000000
     28802       934  ARHM      H3            -37.8368165307       10.3048138024      114.9910908038  LPSA26    34             25.0000000000
     28803       934  ARHM      O3            -38.6266120292        9.3201878224      116.6143107352  LPSA26    34             25.0000000000
     28804       934  ARHM      HO3           -39.2488949317        8.9686612669      115.9672972963  LPSA26    34             25.0000000000
     28805       934  ARHM      C4            -36.3537212616        9.0234644256      115.7952986148  LPSA26    34             25.0000000000
     28806       934  ARHM      H4            -35.9405199579        8.6995977951      116.7814496297  LPSA26    34             25.0000000000
     28807       934  ARHM      O4            -36.7890842147        7.8703629236      115.0671541274  LPSA26    34             25.0000000000
     28808       934  ARHM      HO4           -37.2348203583        7.2663320021      115.6721243987  LPSA26    34             25.0000000000
     28809       934  ARHM      C6            -34.0115887157        8.7681886427      114.8702774989  LPSA26    34             25.0000000000
     28810       934  ARHM      H61           -33.5631298794        8.3812818711      115.8011168529  LPSA26    34             25.0000000000
     28811       934  ARHM      H62           -34.4283178515        7.8661815581      114.4002766502  LPSA26    34             25.0000000000
     28812       934  ARHM      H63           -33.2282038603        9.1678264003      114.1914170537  LPSA26    34             25.0000000000
     28813       935  ARHM      C1            -36.2485589637       11.8091187619      119.0691752857  LPSA26    35             26.0000000000
     28814       935  ARHM      H1            -36.7864540033       12.7661721307      118.8680800150  LPSA26    35             26.0000000000
     28815       935  ARHM      C5            -34.0758121933       10.7887106900      119.2092470820  LPSA26    35             26.0000000000
     28816       935  ARHM      H5            -34.3777357953        9.9778862219      118.5154636267  LPSA26    35             26.0000000000
     28817       935  ARHM      O5            -34.8268359230       11.9894441658      118.9360615524  LPSA26    35             26.0000000000
     28818       935  ARHM      C2            -36.5139502108       11.4103965086      120.5209431114  LPSA26    35             26.0000000000
     28819       935  ARHM      H2            -37.6025514310       11.2199651552      120.6703422722  LPSA26    35             26.0000000000
     28820       935  ARHM      O2            -36.0865244166       12.4157867639      121.4413299173  LPSA26    35             26.0000000000
     28821       935  ARHM      C3            -35.7663883722       10.1558748099      120.8601939063  LPSA26    35             26.0000000000
     28822       935  ARHM      H3            -36.0854987631        9.4109504628      120.1357681306  LPSA26    35             26.0000000000
     28823       935  ARHM      O3            -36.1080914434        9.6299106348      122.1401151856  LPSA26    35             26.0000000000
     28824       935  ARHM      HO3           -36.3392420737       10.3443170613      122.7540714174  LPSA26    35             26.0000000000
     28825       935  ARHM      C4            -34.2827504089       10.3461531651      120.6650708400  LPSA26    35             26.0000000000
     28826       935  ARHM      H4            -33.9091991100       11.1463234011      121.3474771523  LPSA26    35             26.0000000000
     28827       935  ARHM      O4            -33.5765349211        9.1339862494      120.9591293656  LPSA26    35             26.0000000000
     28828       935  ARHM      HO4           -34.0396756276        8.3990291215      120.5696840239  LPSA26    35             26.0000000000
     28829       935  ARHM      C6            -32.6231079756       11.0756489136      118.8516830646  LPSA26    35             26.0000000000
     28830       935  ARHM      H61           -32.4533717131       11.2824051588      117.7746411874  LPSA26    35             26.0000000000
     28831       935  ARHM      H62           -32.3243754676       11.9621221576      119.4496599372  LPSA26    35             26.0000000000
     28832       935  ARHM      H63           -31.9815298053       10.1996907198      119.1079786135  LPSA26    35             26.0000000000
     28833       936  BMANNA    C1            -36.8850121461       13.5632393296      121.4731893205  LPSA26    36             27.0000000000
     28834       936  BMANNA    H1            -37.9117995882       13.3228100024      121.1266535718  LPSA26    36             27.0000000000
     28835       936  BMANNA    C5            -37.2852324950       15.7548417264      120.7205381247  LPSA26    36             27.0000000000
     28836       936  BMANNA    H5            -38.3192177207       15.4286631269      120.4338789378  LPSA26    36             27.0000000000
     28837       936  BMANNA    O5            -36.3945069614       14.6223707818      120.6485994742  LPSA26    36             27.0000000000
     28838       936  BMANNA    C2            -36.9123751076       14.0116027987      122.9233764192  LPSA26    36             27.0000000000
     28839       936  BMANNA    H2            -37.3628159348       13.1558631857      123.4894549894  LPSA26    36             27.0000000000
     28840       936  BMANNA    N             -35.6025728649       14.2949832002      123.5017239985  LPSA26    36             27.0000000000
     28841       936  BMANNA    HN            -34.9120980215       14.6645571385      122.8872471050  LPSA26    36             27.0000000000
     28842       936  BMANNA    C             -35.3266390507       14.1693537959      124.8223048404  LPSA26    36             27.0000000000
     28843       936  BMANNA    O             -36.0947086639       13.6722212068      125.6285188640  LPSA26    36             27.0000000000
     28844       936  BMANNA    CT            -34.0106409646       14.6859837596      125.3336729198  LPSA26    36             27.0000000000
     28845       936  BMANNA    HT1           -33.7812574382       15.6572941742      124.8664898712  LPSA26    36             27.0000000000
     28846       936  BMANNA    HT2           -33.1979232146       13.9654620302      125.1349491810  LPSA26    36             27.0000000000
     28847       936  BMANNA    HT3           -34.0758708820       14.8068233827      126.4362459483  LPSA26    36             27.0000000000
     28848       936  BMANNA    C3            -37.8570411404       15.1909204446      123.0195938076  LPSA26    36             27.0000000000
     28849       936  BMANNA    H3            -38.8684473983       14.8840928134      122.6568570614  LPSA26    36             27.0000000000
     28850       936  BMANNA    O3            -38.0020673583       15.6829915940      124.3451732158  LPSA26    36             27.0000000000
     28851       936  BMANNA    HO3           -38.8913164694       15.5334247761      124.6987688453  LPSA26    36             27.0000000000
     28852       936  BMANNA    C4            -37.3630535740       16.2884404171      122.1264567664  LPSA26    36             27.0000000000
     28853       936  BMANNA    H4            -36.3648692029       16.6456968547      122.4562859066  LPSA26    36             27.0000000000
     28854       936  BMANNA    O4            -38.2098450295       17.4121710824      122.1911387494  LPSA26    36             27.0000000000
     28855       936  BMANNA    HO4           -38.2546058642       17.5975445593      123.1448331994  LPSA26    36             27.0000000000
     28856       936  BMANNA    C6            -36.8730625381       16.8100780645      119.7441600801  LPSA26    36             27.0000000000
     28857       936  BMANNA    H61           -36.8020642490       16.3629208648      118.7415254017  LPSA26    36             27.0000000000
     28858       936  BMANNA    H62           -37.6945718823       17.5508512297      119.6899376224  LPSA26    36             27.0000000000
     28859       936  BMANNA    O6            -35.6345117834       17.4386614633      120.1070133447  LPSA26    36             27.0000000000
     28860       936  BMANNA    HO6           -35.8568734507       18.2386569739      120.6000807281  LPSA26    36             27.0000000000
     28861       937  ECLIPA    HB6S          -14.0508755504      -36.1175268413       20.4146001132  LPSA27    1               0.0000000000
     28862       937  ECLIPA    OB6           -12.6327378733      -35.4284682704       21.7274489569  LPSA27    1               0.0000000000
     28863       937  ECLIPA    CB6           -13.6062701141      -35.1463595424       20.6997143060  LPSA27    1               0.0000000000
     28864       937  ECLIPA    HB6R          -14.4273464760      -34.5093523619       21.1008095498  LPSA27    1               0.0000000000
     28865       937  ECLIPA    CB5           -13.0803615601      -34.4666860056       19.4366044481  LPSA27    1               0.0000000000
     28866       937  ECLIPA    OB5           -12.0041285626      -35.3000397922       18.9586583185  LPSA27    1               0.0000000000
     28867       937  ECLIPA    HB5           -12.7055023373      -33.4630830930       19.7424578384  LPSA27    1               0.0000000000
     28868       937  ECLIPA    CB1           -11.3886921824      -34.7568865179       17.7847424534  LPSA27    1               0.0000000000
     28869       937  ECLIPA    HB1           -11.0096736658      -33.7216779567       17.9660516596  LPSA27    1               0.0000000000
     28870       937  ECLIPA    OA6           -10.2920379407      -35.5147918572       17.3307267795  LPSA27    1               0.0000000000
     28871       937  ECLIPA    CA6           -10.4007349612      -36.9290971343       17.5592168524  LPSA27    1               0.0000000000
     28872       937  ECLIPA    HA6R          -11.4493146393      -37.2501593487       17.7466658965  LPSA27    1               0.0000000000
     28873       937  ECLIPA    HA6S           -9.7676991014      -37.1785285368       18.4426529573  LPSA27    1               0.0000000000
     28874       937  ECLIPA    CB4           -14.1534475965      -34.2953022126       18.3325803767  LPSA27    1               0.0000000000
     28875       937  ECLIPA    HB4           -14.6139506223      -35.2774753221       18.0565385095  LPSA27    1               0.0000000000
     28876       937  ECLIPA    OB4           -15.1161930316      -33.3430937516       18.8214957528  LPSA27    1               0.0000000000
     28877       937  ECLIPA    PB            -16.6471465261      -33.8075923548       19.3073365187  LPSA27    1               0.0000000000
     28878       937  ECLIPA    OPB4          -17.0941254150      -32.9374509658       20.4886072634  LPSA27    1               0.0000000000
     28879       937  ECLIPA    OPB3          -16.4788070808      -35.2844875050       19.6735750468  LPSA27    1               0.0000000000
     28880       937  ECLIPA    OPB2          -17.6055706667      -33.5991655913       18.1344591860  LPSA27    1               0.0000000000
     28881       937  ECLIPA    CB3           -13.4911463194      -33.7335729469       17.0866049958  LPSA27    1               0.0000000000
     28882       937  ECLIPA    OB3           -14.3468573815      -33.6296655970       15.9420377281  LPSA27    1               0.0000000000
     28883       937  ECLIPA    HB3           -12.9953506532      -32.7627903851       17.3333820217  LPSA27    1               0.0000000000
     28884       937  ECLIPA    C71           -15.0689532821      -32.5301248565       15.7773507518  LPSA27    1               0.0000000000
     28885       937  ECLIPA    O71           -14.7596302855      -31.4488581098       16.2588054415  LPSA27    1               0.0000000000
     28886       937  ECLIPA    C72           -15.7465585095      -32.6323415559       14.3854466555  LPSA27    1               0.0000000000
     28887       937  ECLIPA    H72R          -14.9904235634      -32.8494129073       13.6018835203  LPSA27    1               0.0000000000
     28888       937  ECLIPA    H72S          -16.2505934488      -31.6677586336       14.1733895454  LPSA27    1               0.0000000000
     28889       937  ECLIPA    CB2           -12.3826862675      -34.6751522602       16.6639999518  LPSA27    1               0.0000000000
     28890       937  ECLIPA    HB2           -12.8287646981      -35.6981485827       16.5125484787  LPSA27    1               0.0000000000
     28891       937  ECLIPA    NB2           -11.7338451004      -34.1945004523       15.4483451554  LPSA27    1               0.0000000000
     28892       937  ECLIPA    HNB2          -10.9615325211      -33.5829752767       15.5688391626  LPSA27    1               0.0000000000
     28893       937  ECLIPA    CA4            -8.6334821162      -37.0719324452       15.8030770182  LPSA27    1               0.0000000000
     28894       937  ECLIPA    HA4            -8.8327478701      -36.0047331235       15.5388691152  LPSA27    1               0.0000000000
     28895       937  ECLIPA    OA4            -7.7024614112      -37.1949443995       16.8652381928  LPSA27    1               0.0000000000
     28896       937  ECLIPA    HOA4           -7.9637913070      -36.6471011748       17.6116860673  LPSA27    1               0.0000000000
     28897       937  ECLIPA    CA5            -9.8944965747      -37.6671912163       16.3348957247  LPSA27    1               0.0000000000
     28898       937  ECLIPA    HA5            -9.7870809627      -38.7485743481       16.5797346319  LPSA27    1               0.0000000000
     28899       937  ECLIPA    OA5           -10.8768700348      -37.5466967320       15.3299568712  LPSA27    1               0.0000000000
     28900       937  ECLIPA    CA1           -10.5605080870      -38.2123863804       14.1020203589  LPSA27    1               0.0000000000
     28901       937  ECLIPA    HA1           -11.3544222097      -37.8092965340       13.4257422024  LPSA27    1               0.0000000000
     28902       937  ECLIPA    OA1           -10.6038804582      -39.6395173050       14.1529952125  LPSA27    1               0.0000000000
     28903       937  ECLIPA    OPA2          -11.3954563703      -40.9665713816       15.9898594081  LPSA27    1               0.0000000000
     28904       937  ECLIPA    OPA3          -13.0928959712      -39.3247811359       14.9156050022  LPSA27    1               0.0000000000
     28905       937  ECLIPA    OPA4          -12.2501013515      -41.4523848054       13.7447958672  LPSA27    1               0.0000000000
     28906       937  ECLIPA    PA            -11.9947427460      -40.3326628162       14.7258541201  LPSA27    1               0.0000000000
     28907       937  ECLIPA    CA3            -8.1842558339      -37.7530429187       14.5284079679  LPSA27    1               0.0000000000
     28908       937  ECLIPA    HA3            -7.8969454089      -38.8037362700       14.7381822034  LPSA27    1               0.0000000000
     28909       937  ECLIPA    OA3            -6.9984742645      -37.0825453083       14.1900917458  LPSA27    1               0.0000000000
     28910       937  ECLIPA    C31            -6.9130139623      -35.9655394423       13.4832729741  LPSA27    1               0.0000000000
     28911       937  ECLIPA    O31            -7.1639522046      -35.8626673309       12.2935757000  LPSA27    1               0.0000000000
     28912       937  ECLIPA    C32            -6.2779531024      -34.8150408366       14.2876737559  LPSA27    1               0.0000000000
     28913       937  ECLIPA    H32R           -5.3518455400      -34.5679701811       13.7233167804  LPSA27    1               0.0000000000
     28914       937  ECLIPA    H32S           -5.9716506128      -35.2169844171       15.2717766626  LPSA27    1               0.0000000000
     28915       937  ECLIPA    CA2            -9.2933959307      -37.6376583821       13.5066668697  LPSA27    1               0.0000000000
     28916       937  ECLIPA    HA2            -9.4837229492      -36.5498303724       13.3292985514  LPSA27    1               0.0000000000
     28917       937  ECLIPA    NA2            -8.9535089906      -38.3038084731       12.2369819413  LPSA27    1               0.0000000000
     28918       937  ECLIPA    HNA2           -7.9867139924      -38.4808084467       12.0921333462  LPSA27    1               0.0000000000
     28919       937  ECLIPA    C73           -16.7781912426      -33.7765484639       14.3543199479  LPSA27    1               0.0000000000
     28920       937  ECLIPA    H73R          -17.4020727401      -33.7043552695       15.2804209255  LPSA27    1               0.0000000000
     28921       937  ECLIPA    O73           -16.0276739065      -34.9868305794       14.2706307474  LPSA27    1               0.0000000000
     28922       937  ECLIPA    C81           -16.4440678456      -36.0541932682       14.9563103234  LPSA27    1               0.0000000000
     28923       937  ECLIPA    O81           -17.5035897255      -36.1147756651       15.5595401206  LPSA27    1               0.0000000000
     28924       937  ECLIPA    C82           -15.7579704601      -37.2978341165       14.3425275827  LPSA27    1               0.0000000000
     28925       937  ECLIPA    H82R          -16.1108264022      -38.2064011360       14.8697315191  LPSA27    1               0.0000000000
     28926       937  ECLIPA    H82S          -14.6693448148      -37.2266845844       14.5565295885  LPSA27    1               0.0000000000
     28927       937  ECLIPA    C83           -15.9507972301      -37.4536340624       12.8101314049  LPSA27    1               0.0000000000
     28928       937  ECLIPA    H83R          -15.2259879554      -36.7838502747       12.2900653414  LPSA27    1               0.0000000000
     28929       937  ECLIPA    H83S          -16.9752496809      -37.1334587489       12.5370515052  LPSA27    1               0.0000000000
     28930       937  ECLIPA    C84           -15.6595849853      -38.8754031843       12.2937074938  LPSA27    1               0.0000000000
     28931       937  ECLIPA    H84R          -16.4538692571      -39.5871121435       12.6004639513  LPSA27    1               0.0000000000
     28932       937  ECLIPA    H84S          -14.6910646268      -39.1888916179       12.7650582496  LPSA27    1               0.0000000000
     28933       937  ECLIPA    C85           -15.4413187689      -38.9167560761       10.7705760083  LPSA27    1               0.0000000000
     28934       937  ECLIPA    H85R          -14.8097795554      -38.0269856966       10.5449442981  LPSA27    1               0.0000000000
     28935       937  ECLIPA    H85S          -16.4017459791      -38.7705639809       10.2327761555  LPSA27    1               0.0000000000
     28936       937  ECLIPA    C86           -14.6431508679      -40.1491420800       10.2870450558  LPSA27    1               0.0000000000
     28937       937  ECLIPA    H86R          -15.3183587599      -40.9831371835        9.9942464387  LPSA27    1               0.0000000000
     28938       937  ECLIPA    H86S          -14.0177318474      -40.5317915105       11.1303488202  LPSA27    1               0.0000000000
     28939       937  ECLIPA    C87           -13.6472085117      -39.8052681201        9.1598045655  LPSA27    1               0.0000000000
     28940       937  ECLIPA    H87R          -13.1597710508      -40.7355630795        8.7962852944  LPSA27    1               0.0000000000
     28941       937  ECLIPA    H87S          -12.8321472671      -39.1681920962        9.5765828651  LPSA27    1               0.0000000000
     28942       937  ECLIPA    C88           -14.2955730399      -39.0163140502        8.0203870929  LPSA27    1               0.0000000000
     28943       937  ECLIPA    H88R          -14.4419947228      -37.9668357023        8.3499834301  LPSA27    1               0.0000000000
     28944       937  ECLIPA    H88S          -15.3258893207      -39.4118366337        7.8795139371  LPSA27    1               0.0000000000
     28945       937  ECLIPA    C89           -13.4772846219      -39.0291950748        6.7152301500  LPSA27    1               0.0000000000
     28946       937  ECLIPA    H89R          -12.4082491034      -39.2795664702        6.8949411764  LPSA27    1               0.0000000000
     28947       937  ECLIPA    H89S          -13.4745676006      -38.0162554408        6.2585842818  LPSA27    1               0.0000000000
     28948       937  ECLIPA    C810          -14.1107306325      -39.9811853776        5.6965924411  LPSA27    1               0.0000000000
     28949       937  ECLIPA    H810R         -15.1961946884      -40.0091395292        5.9322063087  LPSA27    1               0.0000000000
     28950       937  ECLIPA    H810S         -13.6896104166      -40.9977276395        5.8623269488  LPSA27    1               0.0000000000
     28951       937  ECLIPA    C811          -13.9068539377      -39.5575450112        4.2341240330  LPSA27    1               0.0000000000
     28952       937  ECLIPA    H811R         -14.0410106301      -40.4198124402        3.5395269323  LPSA27    1               0.0000000000
     28953       937  ECLIPA    H811S         -12.8610283207      -39.1874086317        4.1557565067  LPSA27    1               0.0000000000
     28954       937  ECLIPA    C812          -14.8042158716      -38.4152536448        3.7364757517  LPSA27    1               0.0000000000
     28955       937  ECLIPA    H812R         -14.4383860639      -38.1463861879        2.7142423024  LPSA27    1               0.0000000000
     28956       937  ECLIPA    H812S         -14.6924138135      -37.5395062110        4.4087543542  LPSA27    1               0.0000000000
     28957       937  ECLIPA    C813          -16.2957914751      -38.7255797881        3.6363139436  LPSA27    1               0.0000000000
     28958       937  ECLIPA    H813R         -16.4315938701      -39.5702823741        2.9287145449  LPSA27    1               0.0000000000
     28959       937  ECLIPA    H813S         -16.7165121968      -39.0330934507        4.6232686526  LPSA27    1               0.0000000000
     28960       937  ECLIPA    C814          -17.0874617469      -37.5260647493        3.1261783221  LPSA27    1               0.0000000000
     28961       937  ECLIPA    H814R         -16.6469266276      -37.0695496328        2.2153209087  LPSA27    1               0.0000000000
     28962       937  ECLIPA    H814S         -17.1598416898      -36.7494055140        3.9171160430  LPSA27    1               0.0000000000
     28963       937  ECLIPA    H814T         -18.1092942147      -37.8485151116        2.8713190293  LPSA27    1               0.0000000000
     28964       937  ECLIPA    C74           -17.7240259754      -33.7658455577       13.1241703150  LPSA27    1               0.0000000000
     28965       937  ECLIPA    H74R          -18.3746937310      -32.8710622139       13.0434517656  LPSA27    1               0.0000000000
     28966       937  ECLIPA    H74S          -18.3976894114      -34.6306617684       13.3124434273  LPSA27    1               0.0000000000
     28967       937  ECLIPA    C75           -17.0360154743      -34.0752702223       11.7800030938  LPSA27    1               0.0000000000
     28968       937  ECLIPA    H75R          -17.7334140630      -34.7132063838       11.1923905108  LPSA27    1               0.0000000000
     28969       937  ECLIPA    H75S          -16.1247715072      -34.6833048240       11.9702609847  LPSA27    1               0.0000000000
     28970       937  ECLIPA    C76           -16.6352120745      -32.8555714958       10.9448566886  LPSA27    1               0.0000000000
     28971       937  ECLIPA    H76R          -15.6997841213      -32.4208041108       11.3655599950  LPSA27    1               0.0000000000
     28972       937  ECLIPA    H76S          -17.4124659162      -32.0585858183       10.9908355523  LPSA27    1               0.0000000000
     28973       937  ECLIPA    C77           -16.4291186887      -33.1966900271        9.4573976103  LPSA27    1               0.0000000000
     28974       937  ECLIPA    H77R          -17.3781383945      -33.5156964481        8.9977837378  LPSA27    1               0.0000000000
     28975       937  ECLIPA    H77S          -15.6939765916      -34.0074511623        9.3160280469  LPSA27    1               0.0000000000
     28976       937  ECLIPA    C78           -15.8389526894      -32.0046869273        8.7387261227  LPSA27    1               0.0000000000
     28977       937  ECLIPA    H78R          -16.3642876837      -31.0663416095        9.0489410958  LPSA27    1               0.0000000000
     28978       937  ECLIPA    H78S          -14.8028997186      -32.0466733847        9.1627206420  LPSA27    1               0.0000000000
     28979       937  ECLIPA    C79           -15.4891822061      -32.0766219421        7.2638075665  LPSA27    1               0.0000000000
     28980       937  ECLIPA    H79R          -14.4116354425      -32.3536885711        7.1793824740  LPSA27    1               0.0000000000
     28981       937  ECLIPA    H79S          -15.6989269207      -31.1245731933        6.7434597848  LPSA27    1               0.0000000000
     28982       937  ECLIPA    C710          -16.3612523098      -32.9307657888        6.4258878991  LPSA27    1               0.0000000000
     28983       937  ECLIPA    H710R         -16.3602113535      -33.9461988973        6.8552712193  LPSA27    1               0.0000000000
     28984       937  ECLIPA    H710S         -17.3742020636      -32.4680485887        6.4713253809  LPSA27    1               0.0000000000
     28985       937  ECLIPA    C711          -15.8939958449      -32.9754387483        4.9843973304  LPSA27    1               0.0000000000
     28986       937  ECLIPA    H711R         -15.8980176992      -31.9476420432        4.5463368183  LPSA27    1               0.0000000000
     28987       937  ECLIPA    H711S         -14.8591772113      -33.3916061820        4.9250761217  LPSA27    1               0.0000000000
     28988       937  ECLIPA    C712          -16.8450261370      -33.9010320367        4.2539433458  LPSA27    1               0.0000000000
     28989       937  ECLIPA    H712R         -17.8537900260      -33.4288773013        4.2551907561  LPSA27    1               0.0000000000
     28990       937  ECLIPA    H712S         -16.9001095735      -34.8358244160        4.8468962976  LPSA27    1               0.0000000000
     28991       937  ECLIPA    C713          -16.3812408645      -34.2606509176        2.8653040641  LPSA27    1               0.0000000000
     28992       937  ECLIPA    H713R         -15.3860101535      -34.7558800842        2.8735898504  LPSA27    1               0.0000000000
     28993       937  ECLIPA    H713S         -17.1265450453      -34.9152558894        2.3471814088  LPSA27    1               0.0000000000
     28994       937  ECLIPA    C714          -16.3075634362      -33.0712240970        1.9964987787  LPSA27    1               0.0000000000
     28995       937  ECLIPA    H714R         -17.3425918689      -32.6814735036        1.9311904619  LPSA27    1               0.0000000000
     28996       937  ECLIPA    H714S         -15.5766945543      -32.2736567333        2.2657310079  LPSA27    1               0.0000000000
     28997       937  ECLIPA    H714T         -16.0389444094      -33.4963023444        1.0187143719  LPSA27    1               0.0000000000
     28998       937  ECLIPA    C51           -12.1875823642      -34.5107679574       14.2286795331  LPSA27    1               0.0000000000
     28999       937  ECLIPA    O51           -12.9760525892      -35.4252312428       14.0687150743  LPSA27    1               0.0000000000
     29000       937  ECLIPA    C52           -11.7281316496      -33.6685331641       13.0561014429  LPSA27    1               0.0000000000
     29001       937  ECLIPA    H52R          -12.3991937218      -32.7891477581       12.9321605499  LPSA27    1               0.0000000000
     29002       937  ECLIPA    H52S          -10.7099625804      -33.2974717455       13.2507705974  LPSA27    1               0.0000000000
     29003       937  ECLIPA    C53           -11.7392013425      -34.5096663015       11.7615578636  LPSA27    1               0.0000000000
     29004       937  ECLIPA    H53R          -11.4656823703      -35.5716081327       11.9846993303  LPSA27    1               0.0000000000
     29005       937  ECLIPA    O53           -10.8279681444      -33.8641691131       10.8521803687  LPSA27    1               0.0000000000
     29006       937  ECLIPA    C61            -9.7048138589      -34.5053358721       10.5337670082  LPSA27    1               0.0000000000
     29007       937  ECLIPA    O61            -9.4279555552      -35.6410894244       10.8332047248  LPSA27    1               0.0000000000
     29008       937  ECLIPA    C62            -8.8629774997      -33.6289642152        9.5940066960  LPSA27    1               0.0000000000
     29009       937  ECLIPA    H62R           -8.2888309109      -32.9158829568       10.2145394209  LPSA27    1               0.0000000000
     29010       937  ECLIPA    H62S           -9.5839354834      -33.0314755244        9.0058764973  LPSA27    1               0.0000000000
     29011       937  ECLIPA    C63            -7.9012386631      -34.4796657972        8.7056186063  LPSA27    1               0.0000000000
     29012       937  ECLIPA    H63R           -8.4863755706      -35.3226671193        8.2760154564  LPSA27    1               0.0000000000
     29013       937  ECLIPA    H63S           -7.0833246638      -34.9094119194        9.3316866496  LPSA27    1               0.0000000000
     29014       937  ECLIPA    C64            -7.2617400001      -33.7477251863        7.5077866280  LPSA27    1               0.0000000000
     29015       937  ECLIPA    H64R           -6.5450780379      -34.4226050612        6.9874034292  LPSA27    1               0.0000000000
     29016       937  ECLIPA    H64S           -6.7067898042      -32.8772994465        7.9214305050  LPSA27    1               0.0000000000
     29017       937  ECLIPA    C65            -8.3348079217      -33.2773153319        6.5228644402  LPSA27    1               0.0000000000
     29018       937  ECLIPA    H65R           -8.9297370662      -32.5805871306        7.1398989969  LPSA27    1               0.0000000000
     29019       937  ECLIPA    H65S           -8.9865746392      -34.1224884368        6.2157159016  LPSA27    1               0.0000000000
     29020       937  ECLIPA    C66            -7.9060013534      -32.5102369218        5.2575666144  LPSA27    1               0.0000000000
     29021       937  ECLIPA    H66R           -7.3130408420      -31.6174297665        5.5504155502  LPSA27    1               0.0000000000
     29022       937  ECLIPA    H66S           -8.8602031179      -32.1595009434        4.7938067603  LPSA27    1               0.0000000000
     29023       937  ECLIPA    C67            -7.1450432581      -33.2849572152        4.1654652614  LPSA27    1               0.0000000000
     29024       937  ECLIPA    H67R           -6.2485473470      -33.8041065193        4.5718962997  LPSA27    1               0.0000000000
     29025       937  ECLIPA    H67S           -6.8003963256      -32.5812148425        3.3712815744  LPSA27    1               0.0000000000
     29026       937  ECLIPA    C68            -7.9534849575      -34.3863990000        3.4898311144  LPSA27    1               0.0000000000
     29027       937  ECLIPA    H68R           -8.9395207847      -34.0464208070        3.1008429659  LPSA27    1               0.0000000000
     29028       937  ECLIPA    H68S           -8.1242594335      -35.1534140438        4.2757001859  LPSA27    1               0.0000000000
     29029       937  ECLIPA    C69            -7.1932796734      -34.9235572074        2.2787015465  LPSA27    1               0.0000000000
     29030       937  ECLIPA    H69R           -6.0894789688      -34.8491425566        2.3866344940  LPSA27    1               0.0000000000
     29031       937  ECLIPA    H69S           -7.4542856502      -34.2298533972        1.4514180759  LPSA27    1               0.0000000000
     29032       937  ECLIPA    C610           -7.5592036194      -36.3703877283        1.9452320064  LPSA27    1               0.0000000000
     29033       937  ECLIPA    H610R          -8.6678937225      -36.4766947061        2.0090495819  LPSA27    1               0.0000000000
     29034       937  ECLIPA    H610S          -7.1132379906      -37.0392420776        2.7094171947  LPSA27    1               0.0000000000
     29035       937  ECLIPA    C611           -7.0124023794      -36.7696491502        0.5740607921  LPSA27    1               0.0000000000
     29036       937  ECLIPA    H611R          -5.9221699277      -36.5882000599        0.5544762708  LPSA27    1               0.0000000000
     29037       937  ECLIPA    H611S          -7.1488594609      -37.8587012760        0.3834104702  LPSA27    1               0.0000000000
     29038       937  ECLIPA    C612           -7.6940061479      -35.9803595743       -0.5227905705  LPSA27    1               0.0000000000
     29039       937  ECLIPA    H612R          -8.7440183877      -36.3006243967       -0.4379345796  LPSA27    1               0.0000000000
     29040       937  ECLIPA    H612S          -7.7589664021      -34.8943778793       -0.3608772068  LPSA27    1               0.0000000000
     29041       937  ECLIPA    H612T          -7.2932942331      -36.1835145229       -1.5417345763  LPSA27    1               0.0000000000
     29042       937  ECLIPA    C54           -13.1739861316      -34.4632666434       11.1703847128  LPSA27    1               0.0000000000
     29043       937  ECLIPA    H54R          -13.3706932886      -33.4076938211       10.8821169900  LPSA27    1               0.0000000000
     29044       937  ECLIPA    H54S          -13.8871725080      -34.7321437992       11.9773334139  LPSA27    1               0.0000000000
     29045       937  ECLIPA    C55           -13.4601961845      -35.3802930769        9.9645114431  LPSA27    1               0.0000000000
     29046       937  ECLIPA    H55R          -14.5573925618      -35.4838893944        9.8241383150  LPSA27    1               0.0000000000
     29047       937  ECLIPA    H55S          -13.0907134364      -36.4020740604       10.2018041515  LPSA27    1               0.0000000000
     29048       937  ECLIPA    C56           -12.8607776743      -34.7713726492        8.6905900602  LPSA27    1               0.0000000000
     29049       937  ECLIPA    H56R          -11.7801572350      -34.6068175017        8.8601166959  LPSA27    1               0.0000000000
     29050       937  ECLIPA    H56S          -13.3192674291      -33.7735127926        8.5037318212  LPSA27    1               0.0000000000
     29051       937  ECLIPA    C57           -12.9315069304      -35.5899952801        7.4051051406  LPSA27    1               0.0000000000
     29052       937  ECLIPA    H57R          -13.9720549031      -35.9060622701        7.1794508083  LPSA27    1               0.0000000000
     29053       937  ECLIPA    H57S          -12.3295701065      -36.5168558099        7.5433278096  LPSA27    1               0.0000000000
     29054       937  ECLIPA    C58           -12.3250926621      -34.7753400901        6.2437540794  LPSA27    1               0.0000000000
     29055       937  ECLIPA    H58R          -12.7273098012      -33.7415957079        6.2167915379  LPSA27    1               0.0000000000
     29056       937  ECLIPA    H58S          -11.2372764046      -34.6644313375        6.4605559955  LPSA27    1               0.0000000000
     29057       937  ECLIPA    C59           -12.5769408550      -35.4338262730        4.8782543529  LPSA27    1               0.0000000000
     29058       937  ECLIPA    H59R          -13.6711027760      -35.5755176278        4.7178235682  LPSA27    1               0.0000000000
     29059       937  ECLIPA    H59S          -12.1171153743      -36.4424084124        4.9607300749  LPSA27    1               0.0000000000
     29060       937  ECLIPA    C510          -12.0939005274      -34.6207632943        3.6571572538  LPSA27    1               0.0000000000
     29061       937  ECLIPA    H510R         -11.0724649792      -34.2157664099        3.8209831500  LPSA27    1               0.0000000000
     29062       937  ECLIPA    H510S         -12.7756934525      -33.7543047104        3.5158774282  LPSA27    1               0.0000000000
     29063       937  ECLIPA    C511          -12.1021114833      -35.4030314324        2.3408022646  LPSA27    1               0.0000000000
     29064       937  ECLIPA    H511R         -11.1776424088      -36.0185126336        2.2854898750  LPSA27    1               0.0000000000
     29065       937  ECLIPA    H511S         -12.9860815926      -36.0603232294        2.2393711064  LPSA27    1               0.0000000000
     29066       937  ECLIPA    C512          -12.1054522921      -34.5329882950        1.1219264339  LPSA27    1               0.0000000000
     29067       937  ECLIPA    H512R         -12.4066753260      -35.1247651217        0.2139657467  LPSA27    1               0.0000000000
     29068       937  ECLIPA    H512S         -12.7798130783      -33.6433785482        1.1554466651  LPSA27    1               0.0000000000
     29069       937  ECLIPA    C513          -10.7381483848      -34.1186557467        0.7934187441  LPSA27    1               0.0000000000
     29070       937  ECLIPA    H513R          -9.9376903441      -34.8965050493        0.7082075265  LPSA27    1               0.0000000000
     29071       937  ECLIPA    H513S         -10.3046374707      -33.2955714534        1.4282774103  LPSA27    1               0.0000000000
     29072       937  ECLIPA    C514          -11.0816257276      -33.6791288335       -0.5744234261  LPSA27    1               0.0000000000
     29073       937  ECLIPA    H514R         -11.7095167819      -32.7512644909       -0.5676090365  LPSA27    1               0.0000000000
     29074       937  ECLIPA    H514S         -10.0022713103      -33.6509306185       -0.6880991097  LPSA27    1               0.0000000000
     29075       937  ECLIPA    H514T         -11.1696800538      -34.1939981635       -1.5301098562  LPSA27    1               0.0000000000
     29076       937  ECLIPA    C33            -7.0632064223      -33.4789222218       14.4606340055  LPSA27    1               0.0000000000
     29077       937  ECLIPA    H33R           -6.3537008106      -32.7180922658       14.8465935713  LPSA27    1               0.0000000000
     29078       937  ECLIPA    O33            -8.0689856221      -33.6038147481       15.4519129290  LPSA27    1               0.0000000000
     29079       937  ECLIPA    HO33           -7.7294523266      -33.8342475348       16.3155561576  LPSA27    1               0.0000000000
     29080       937  ECLIPA    C34            -7.7306072237      -32.9011296546       13.2022201837  LPSA27    1               0.0000000000
     29081       937  ECLIPA    H34R           -8.4728691264      -33.6312116636       12.8167247720  LPSA27    1               0.0000000000
     29082       937  ECLIPA    H34S           -6.9687824290      -32.7568993556       12.4065847404  LPSA27    1               0.0000000000
     29083       937  ECLIPA    C35            -8.4198780665      -31.5530285598       13.4629508936  LPSA27    1               0.0000000000
     29084       937  ECLIPA    H35R           -7.7172519608      -30.7543675724       13.7627166661  LPSA27    1               0.0000000000
     29085       937  ECLIPA    H35S           -9.1963391766      -31.6771541024       14.2589224749  LPSA27    1               0.0000000000
     29086       937  ECLIPA    C36            -9.1080487189      -31.0480062947       12.2453950980  LPSA27    1               0.0000000000
     29087       937  ECLIPA    H36R           -9.4745983911      -31.9473852198       11.6977859125  LPSA27    1               0.0000000000
     29088       937  ECLIPA    H36S           -8.4862986221      -30.4366201745       11.5452607707  LPSA27    1               0.0000000000
     29089       937  ECLIPA    C37           -10.3227131112      -30.2933507350       12.6316635395  LPSA27    1               0.0000000000
     29090       937  ECLIPA    H37R          -10.1205645449      -29.1968895882       12.7024692356  LPSA27    1               0.0000000000
     29091       937  ECLIPA    H37S          -10.8704137765      -30.6030620271       13.5458642138  LPSA27    1               0.0000000000
     29092       937  ECLIPA    C38           -11.2246795522      -30.5082028606       11.4897789914  LPSA27    1               0.0000000000
     29093       937  ECLIPA    H38R          -11.8526838854      -31.4183185929       11.4193718475  LPSA27    1               0.0000000000
     29094       937  ECLIPA    H38S          -11.7377865215      -29.5993690697       11.8549692492  LPSA27    1               0.0000000000
     29095       937  ECLIPA    C39           -10.5532653608      -30.2790216936       10.1688890822  LPSA27    1               0.0000000000
     29096       937  ECLIPA    H39R           -9.7509195463      -30.9390630263        9.9280799715  LPSA27    1               0.0000000000
     29097       937  ECLIPA    H39S          -10.3361158649      -29.1955068763       10.4708421266  LPSA27    1               0.0000000000
     29098       937  ECLIPA    C310          -11.3376915591      -30.5856964773        8.8665122241  LPSA27    1               0.0000000000
     29099       937  ECLIPA    H310R         -11.6836834384      -29.6586512192        9.3686037034  LPSA27    1               0.0000000000
     29100       937  ECLIPA    H310S         -11.9676975553      -31.4574147362        8.9614486003  LPSA27    1               0.0000000000
     29101       937  ECLIPA    C311          -11.0221683998      -30.9776308466        7.2740385446  LPSA27    1               0.0000000000
     29102       937  ECLIPA    H311R         -10.2791523156      -30.3010522410        7.5937848919  LPSA27    1               0.0000000000
     29103       937  ECLIPA    H311S         -10.6946512481      -31.9881565810        7.2152465287  LPSA27    1               0.0000000000
     29104       937  ECLIPA    C312          -11.8256163773      -30.7672482850        5.7894221913  LPSA27    1               0.0000000000
     29105       937  ECLIPA    H312R         -13.0610933950      -30.9580408572        5.7182002873  LPSA27    1               0.0000000000
     29106       937  ECLIPA    H312S         -11.4763919572      -29.6115841538        5.6039923140  LPSA27    1               0.0000000000
     29107       937  ECLIPA    C313          -11.7169469534      -31.3923623248        4.5755034151  LPSA27    1               0.0000000000
     29108       937  ECLIPA    H313R         -10.8208424410      -30.7193604785        4.5266209430  LPSA27    1               0.0000000000
     29109       937  ECLIPA    H313S         -11.4332448743      -32.2652326012        5.1310205503  LPSA27    1               0.0000000000
     29110       937  ECLIPA    C314          -13.0817507067      -31.2786182453        3.6702967371  LPSA27    1               0.0000000000
     29111       937  ECLIPA    H314R         -13.6759375341      -30.3555981812        3.4309994346  LPSA27    1               0.0000000000
     29112       937  ECLIPA    H314S         -12.6809725866      -31.3140574757        2.6732929456  LPSA27    1               0.0000000000
     29113       937  ECLIPA    H314T         -14.0030028913      -31.8128490484        3.8678778988  LPSA27    1               0.0000000000
     29114       937  ECLIPA    C11            -9.8108628411      -38.6575237565       11.2466217624  LPSA27    1               0.0000000000
     29115       937  ECLIPA    O11           -10.9558218820      -38.2606861959       11.1283354560  LPSA27    1               0.0000000000
     29116       937  ECLIPA    C12            -9.2679953686      -39.7116664103       10.3220927805  LPSA27    1               0.0000000000
     29117       937  ECLIPA    H12R           -9.7548013512      -40.6820022391       10.5373484941  LPSA27    1               0.0000000000
     29118       937  ECLIPA    H12S           -8.1749802964      -39.7895765299       10.5003846854  LPSA27    1               0.0000000000
     29119       937  ECLIPA    C13            -9.4754205474      -39.3654429329        8.8521989155  LPSA27    1               0.0000000000
     29120       937  ECLIPA    H13R          -10.4942374269      -38.9608801418        8.6429454201  LPSA27    1               0.0000000000
     29121       937  ECLIPA    O13            -9.3234964048      -40.5771608434        8.1205429711  LPSA27    1               0.0000000000
     29122       937  ECLIPA    HO13           -9.7966011178      -40.6114429395        7.2856158120  LPSA27    1               0.0000000000
     29123       937  ECLIPA    C14            -8.4166203544      -38.3246543107        8.4406009623  LPSA27    1               0.0000000000
     29124       937  ECLIPA    H14R           -7.4540295256      -38.5278891782        8.9626499745  LPSA27    1               0.0000000000
     29125       937  ECLIPA    H14S           -8.8042514792      -37.3398219969        8.7785949863  LPSA27    1               0.0000000000
     29126       937  ECLIPA    C15            -8.1323710117      -38.2089598034        6.9508944032  LPSA27    1               0.0000000000
     29127       937  ECLIPA    H15R           -7.8367773372      -39.2122308924        6.5718156116  LPSA27    1               0.0000000000
     29128       937  ECLIPA    H15S           -7.2513471038      -37.5404320593        6.8261845642  LPSA27    1               0.0000000000
     29129       937  ECLIPA    C16            -9.3426725703      -37.6496269586        6.1965081877  LPSA27    1               0.0000000000
     29130       937  ECLIPA    H16R           -9.3942374699      -36.5482582565        6.2867666183  LPSA27    1               0.0000000000
     29131       937  ECLIPA    H16S          -10.2763520941      -38.0442057408        6.6521769166  LPSA27    1               0.0000000000
     29132       937  ECLIPA    C17            -9.2621450672      -38.0184201834        4.7304637917  LPSA27    1               0.0000000000
     29133       937  ECLIPA    H17R           -8.2130116191      -37.8522428718        4.3960795124  LPSA27    1               0.0000000000
     29134       937  ECLIPA    H17S           -9.9237803760      -37.4066233098        4.0780553411  LPSA27    1               0.0000000000
     29135       937  ECLIPA    C18            -9.5964429239      -39.4815562596        4.5504142218  LPSA27    1               0.0000000000
     29136       937  ECLIPA    H18R           -8.9214786879      -40.1139757609        5.1502603204  LPSA27    1               0.0000000000
     29137       937  ECLIPA    H18S          -10.6644008900      -39.7006640536        4.8041387635  LPSA27    1               0.0000000000
     29138       937  ECLIPA    C19            -9.3268995171      -39.8827706525        3.1524737459  LPSA27    1               0.0000000000
     29139       937  ECLIPA    H19R           -9.3933216499      -40.9803945288        3.0540161506  LPSA27    1               0.0000000000
     29140       937  ECLIPA    H19S           -8.3584863618      -39.5656838725        2.6988982224  LPSA27    1               0.0000000000
     29141       937  ECLIPA    C110          -10.3707549927      -39.3422484497        2.3056858038  LPSA27    1               0.0000000000
     29142       937  ECLIPA    H110R         -11.4437493459      -39.4556821268        2.6232911969  LPSA27    1               0.0000000000
     29143       937  ECLIPA    H110S         -10.2197293515      -38.2346711642        2.1688622579  LPSA27    1               0.0000000000
     29144       937  ECLIPA    C111          -10.1307642973      -40.1529368292        1.0230886445  LPSA27    1               0.0000000000
     29145       937  ECLIPA    H111R          -9.1985406465      -39.8679987069        0.4754253489  LPSA27    1               0.0000000000
     29146       937  ECLIPA    H111S         -10.4117878313      -41.2160269018        0.9340536917  LPSA27    1               0.0000000000
     29147       937  ECLIPA    C112          -11.3062172846      -39.9408652121        0.1919302529  LPSA27    1               0.0000000000
     29148       937  ECLIPA    H112R         -12.2677615166      -40.0357129474        0.7154667185  LPSA27    1               0.0000000000
     29149       937  ECLIPA    H112S         -11.3038705491      -38.9290879514        0.6267853136  LPSA27    1               0.0000000000
     29150       937  ECLIPA    C113          -11.0099279078      -40.2036407819       -1.3964885950  LPSA27    1               0.0000000000
     29151       937  ECLIPA    H113R          -9.9770964861      -39.7600556071       -1.5172684891  LPSA27    1               0.0000000000
     29152       937  ECLIPA    H113S         -10.7305601219      -41.1935704022       -1.7217892556  LPSA27    1               0.0000000000
     29153       937  ECLIPA    C114          -12.0277844142      -39.9846167300       -2.6422730974  LPSA27    1               0.0000000000
     29154       937  ECLIPA    H114R         -12.9601374688      -39.5985264794       -2.2850375769  LPSA27    1               0.0000000000
     29155       937  ECLIPA    H114S         -12.2444691196      -39.0213117212       -3.1641834255  LPSA27    1               0.0000000000
     29156       937  ECLIPA    H114T         -11.6824667934      -40.0986441671       -3.6875508227  LPSA27    1               0.0000000000
     29157       938  AKDO      C1            -12.4508873380      -33.1361717604       22.4126609042  LPSA27    2               0.0000000000
     29158       938  AKDO      O11           -13.4219086401      -32.3445101910       22.3342032069  LPSA27    2               0.0000000000
     29159       938  AKDO      O12           -11.2540250699      -32.8950678695       22.0957280294  LPSA27    2               0.0000000000
     29160       938  AKDO      C2            -12.7627614938      -34.5885935341       22.8730952674  LPSA27    2               0.0000000000
     29161       938  AKDO      C6            -14.4475115241      -35.9820100348       23.8630724007  LPSA27    2               0.0000000000
     29162       938  AKDO      H6            -14.3130108259      -36.6119655321       22.9497382699  LPSA27    2               0.0000000000
     29163       938  AKDO      O6            -14.0860087321      -34.6580800008       23.4598269038  LPSA27    2               0.0000000000
     29164       938  AKDO      C3            -11.7781066906      -35.0980556614       23.9298369336  LPSA27    2               0.0000000000
     29165       938  AKDO      H31           -11.7402911643      -34.3904802776       24.7868718362  LPSA27    2               0.0000000000
     29166       938  AKDO      H32           -10.7719739070      -35.1359331804       23.4542900659  LPSA27    2               0.0000000000
     29167       938  AKDO      C4            -12.1314897474      -36.4744011832       24.3824754075  LPSA27    2               0.0000000000
     29168       938  AKDO      H4            -12.1779331955      -37.1320677317       23.4881826521  LPSA27    2               0.0000000000
     29169       938  AKDO      O4            -11.2241443184      -36.9713492595       25.3738594758  LPSA27    2               0.0000000000
     29170       938  AKDO      C5            -13.5165125888      -36.5113965684       24.9684713599  LPSA27    2               0.0000000000
     29171       938  AKDO      H5            -13.7876492253      -37.5858330252       25.0975681140  LPSA27    2               0.0000000000
     29172       938  AKDO      O5            -13.4785954678      -35.8282064182       26.2583757727  LPSA27    2               0.0000000000
     29173       938  AKDO      C7            -15.9285296515      -36.0918363003       24.1468574630  LPSA27    2               0.0000000000
     29174       938  AKDO      H7            -16.1515828271      -35.5292952559       25.0538877971  LPSA27    2               0.0000000000
     29175       938  AKDO      O7            -16.2878175720      -37.4721611895       24.3398857084  LPSA27    2               0.0000000000
     29176       938  AKDO      HO7           -16.5570379577      -37.7481849816       23.4738789818  LPSA27    2               0.0000000000
     29177       938  AKDO      C8            -16.7300050634      -35.4814835900       23.0140127933  LPSA27    2               0.0000000000
     29178       938  AKDO      H81           -16.3976843166      -34.4249326339       22.8568377206  LPSA27    2               0.0000000000
     29179       938  AKDO      H82           -16.5410175426      -36.0377539981       22.0713734417  LPSA27    2               0.0000000000
     29180       938  AKDO      O8            -18.1281371680      -35.4979096525       23.3292888869  LPSA27    2               0.0000000000
     29181       938  AKDO      HO8           -18.5166775529      -34.7245618204       22.8890297273  LPSA27    2               0.0000000000
     29182       939  AKDO      C1            -10.2016367900      -38.4563056751       23.7447642031  LPSA27    3               1.0000000000
     29183       939  AKDO      O11            -9.8216933782      -38.0985330146       22.5933840348  LPSA27    3               1.0000000000
     29184       939  AKDO      O12           -10.6249626425      -39.6220620038       23.9820943141  LPSA27    3               1.0000000000
     29185       939  AKDO      C2             -9.9797167885      -37.5095908338       24.9911128286  LPSA27    3               1.0000000000
     29186       939  AKDO      C6             -8.8465152945      -35.5062198697       25.7721794121  LPSA27    3               1.0000000000
     29187       939  AKDO      H6             -9.8235931249      -34.9966219686       25.9735130799  LPSA27    3               1.0000000000
     29188       939  AKDO      O6             -9.0032832258      -36.4844867044       24.7013999425  LPSA27    3               1.0000000000
     29189       939  AKDO      C3             -9.5266993152      -38.1922348774       26.3122424954  LPSA27    3               1.0000000000
     29190       939  AKDO      H31            -8.5379727669      -38.6838832216       26.1607633481  LPSA27    3               1.0000000000
     29191       939  AKDO      H32           -10.2286933350      -39.0000071002       26.5994778422  LPSA27    3               1.0000000000
     29192       939  AKDO      C4             -9.4241191389      -37.1668852546       27.4204957968  LPSA27    3               1.0000000000
     29193       939  AKDO      H4            -10.3877962256      -36.6094643418       27.4783396258  LPSA27    3               1.0000000000
     29194       939  AKDO      O4             -9.1863634574      -37.7064963192       28.7080120516  LPSA27    3               1.0000000000
     29195       939  AKDO      HO4            -9.8619373134      -37.4437650620       29.3519987979  LPSA27    3               1.0000000000
     29196       939  AKDO      C5             -8.3717501798      -36.1748390757       27.0465423137  LPSA27    3               1.0000000000
     29197       939  AKDO      H5             -8.2890685554      -35.4409357167       27.8818083366  LPSA27    3               1.0000000000
     29198       939  AKDO      O5             -7.0828697213      -36.7653617382       26.8706180061  LPSA27    3               1.0000000000
     29199       939  AKDO      HO5            -7.1676644032      -37.4546574912       26.2011782907  LPSA27    3               1.0000000000
     29200       939  AKDO      C7             -7.8785906176      -34.4375108657       25.3396553588  LPSA27    3               1.0000000000
     29201       939  AKDO      H7             -6.8903501863      -34.9131016791       25.1211741920  LPSA27    3               1.0000000000
     29202       939  AKDO      O7             -7.6925360793      -33.4934103629       26.3964232547  LPSA27    3               1.0000000000
     29203       939  AKDO      HO7            -6.9974496346      -32.9053548705       26.0998397484  LPSA27    3               1.0000000000
     29204       939  AKDO      C8             -8.4079677705      -33.7542982331       24.1057076520  LPSA27    3               1.0000000000
     29205       939  AKDO      H81            -8.6238833340      -34.5118719191       23.3187266517  LPSA27    3               1.0000000000
     29206       939  AKDO      H82            -9.3597161865      -33.2363190705       24.3117231666  LPSA27    3               1.0000000000
     29207       939  AKDO      O8             -7.4259774736      -32.8432634970       23.6068984339  LPSA27    3               1.0000000000
     29208       939  AKDO      HO8            -6.8253601219      -33.4644806419       23.1922363681  LPSA27    3               1.0000000000
     29209       940  AHEP      C1            -14.3544069001      -36.3097144431       27.2673510699  LPSA27    4               2.0000000000
     29210       940  AHEP      H1            -15.3476097025      -36.0028028569       26.9160397531  LPSA27    4               2.0000000000
     29211       940  AHEP      C5            -13.4063950337      -38.3663057897       28.0177840719  LPSA27    4               2.0000000000
     29212       940  AHEP      H5            -12.4704724977      -38.0434478768       27.5144717744  LPSA27    4               2.0000000000
     29213       940  AHEP      O5            -14.4781692777      -37.7241568295       27.3163258168  LPSA27    4               2.0000000000
     29214       940  AHEP      C2            -14.2776026337      -35.7868692155       28.7103490938  LPSA27    4               2.0000000000
     29215       940  AHEP      H2            -14.1060196572      -34.6942751340       28.6714671183  LPSA27    4               2.0000000000
     29216       940  AHEP      O2            -15.5379421324      -35.9663654516       29.3549554352  LPSA27    4               2.0000000000
     29217       940  AHEP      HO2           -15.7319545081      -35.2322076516       29.9483142191  LPSA27    4               2.0000000000
     29218       940  AHEP      C3            -13.1432903362      -36.4055384667       29.4975596207  LPSA27    4               2.0000000000
     29219       940  AHEP      H3            -12.1450195117      -36.1327593899       29.0894270096  LPSA27    4               2.0000000000
     29220       940  AHEP      O3            -13.2191367671      -36.0212066706       30.8878472166  LPSA27    4               2.0000000000
     29221       940  AHEP      C4            -13.3368740409      -37.8886264346       29.4537212192  LPSA27    4               2.0000000000
     29222       940  AHEP      H4            -14.2617176674      -38.2184562239       29.9780652493  LPSA27    4               2.0000000000
     29223       940  AHEP      O4            -12.1306318687      -38.3669340220       30.0314801839  LPSA27    4               2.0000000000
     29224       940  AHEP      P4            -12.1758009285      -39.2601492241       31.4003139488  LPSA27    4               2.0000000000
     29225       940  AHEP      OP42          -10.8823465197      -38.9584293992       32.1382517870  LPSA27    4               2.0000000000
     29226       940  AHEP      OP43          -12.2499807278      -40.6315921910       30.7604632215  LPSA27    4               2.0000000000
     29227       940  AHEP      OP44          -13.3946995350      -38.9016509416       32.2473103092  LPSA27    4               2.0000000000
     29228       940  AHEP      C6            -13.5740868530      -39.8706693440       27.8386559482  LPSA27    4               2.0000000000
     29229       940  AHEP      H6            -12.5932018039      -40.3551766378       28.0843928979  LPSA27    4               2.0000000000
     29230       940  AHEP      O6            -14.5657831676      -40.4809523867       28.6597511593  LPSA27    4               2.0000000000
     29231       940  AHEP      HO6           -14.1660766368      -41.0505649479       29.3402143307  LPSA27    4               2.0000000000
     29232       940  AHEP      C7            -13.9938321137      -40.2082959241       26.4233017391  LPSA27    4               2.0000000000
     29233       940  AHEP      H71           -14.0336803878      -41.2954239714       26.2908910240  LPSA27    4               2.0000000000
     29234       940  AHEP      H72           -13.2833801460      -39.7270935910       25.7156751685  LPSA27    4               2.0000000000
     29235       940  AHEP      O7            -15.3119253882      -39.9197533877       25.9887953968  LPSA27    4               2.0000000000
     29236       940  AHEP      HO7           -15.8065705778      -40.6523664784       26.3869041989  LPSA27    4               2.0000000000
     29237       941  AHEP      C1            -12.1157151257      -35.3719187889       31.4665971777  LPSA27    5               3.0000000000
     29238       941  AHEP      H1            -11.1670209858      -35.6993424385       30.9805557852  LPSA27    5               3.0000000000
     29239       941  AHEP      C5            -13.4197453583      -33.4636755456       31.9699617346  LPSA27    5               3.0000000000
     29240       941  AHEP      H5            -14.2142479153      -34.0931128297       31.5761462353  LPSA27    5               3.0000000000
     29241       941  AHEP      O5            -12.2440097269      -33.9580932576       31.3000845958  LPSA27    5               3.0000000000
     29242       941  AHEP      C2            -12.0261396674      -35.6675922821       32.9625715088  LPSA27    5               3.0000000000
     29243       941  AHEP      H2            -11.9894987080      -36.7726104541       33.0867869843  LPSA27    5               3.0000000000
     29244       941  AHEP      O2            -10.7916435814      -35.1431786052       33.4580815994  LPSA27    5               3.0000000000
     29245       941  AHEP      HO2           -10.1778664262      -35.8698275363       33.6017251175  LPSA27    5               3.0000000000
     29246       941  AHEP      C3            -13.2489682529      -35.1567173046       33.7294612647  LPSA27    5               3.0000000000
     29247       941  AHEP      H3            -14.1538610506      -35.6614133310       33.3099981989  LPSA27    5               3.0000000000
     29248       941  AHEP      O3            -13.2094144026      -35.3488489833       35.1645487805  LPSA27    5               3.0000000000
     29249       941  AHEP      C4            -13.3477598216      -33.6773903841       33.4749656089  LPSA27    5               3.0000000000
     29250       941  AHEP      H4            -12.4428674833      -33.1390644321       33.8605688391  LPSA27    5               3.0000000000
     29251       941  AHEP      O4            -14.5755221129      -33.2090596431       34.0481789307  LPSA27    5               3.0000000000
     29252       941  AHEP      P4            -14.5358566053      -32.1074241205       35.2957445514  LPSA27    5               3.0000000000
     29253       941  AHEP      OP42          -15.9821841241      -32.0532939050       35.8006041280  LPSA27    5               3.0000000000
     29254       941  AHEP      OP43          -14.1425288421      -30.8085601025       34.6209173933  LPSA27    5               3.0000000000
     29255       941  AHEP      OP44          -13.5476259653      -32.6722835922       36.3223039833  LPSA27    5               3.0000000000
     29256       941  AHEP      C6            -13.7142505207      -32.0580012124       31.5629473244  LPSA27    5               3.0000000000
     29257       941  AHEP      H6            -14.6383258034      -31.6707423269       32.0564471652  LPSA27    5               3.0000000000
     29258       941  AHEP      O6            -12.6267530438      -31.3214924686       32.0617442647  LPSA27    5               3.0000000000
     29259       941  AHEP      HO6           -11.8805984721      -31.1707410599       31.5047361625  LPSA27    5               3.0000000000
     29260       941  AHEP      C7            -13.9139346526      -31.9331759782       30.0791432943  LPSA27    5               3.0000000000
     29261       941  AHEP      H71           -14.7411055058      -31.2200180963       29.9611211111  LPSA27    5               3.0000000000
     29262       941  AHEP      H72           -14.3523000970      -32.8286581969       29.6107873387  LPSA27    5               3.0000000000
     29263       941  AHEP      O7            -12.7482954356      -31.4679775206       29.4026296279  LPSA27    5               3.0000000000
     29264       942  AHEP      C1            -11.9807345784      -32.5335939316       28.9269822332  LPSA27    6               4.0000000000
     29265       942  AHEP      H1            -12.4171640049      -33.5294343285       29.1559235352  LPSA27    6               4.0000000000
     29266       942  AHEP      C5            -11.4114119593      -31.1675287930       27.1053164504  LPSA27    6               4.0000000000
     29267       942  AHEP      H5            -11.5535901036      -30.0970919242       27.6445905084  LPSA27    6               4.0000000000
     29268       942  AHEP      O5            -12.0361529963      -32.4111432622       27.5661821819  LPSA27    6               4.0000000000
     29269       942  AHEP      C2            -10.5070061004      -32.4384743631       29.2735974611  LPSA27    6               4.0000000000
     29270       942  AHEP      H2            -10.4932201728      -32.4777429616       30.3819321209  LPSA27    6               4.0000000000
     29271       942  AHEP      O2             -9.8031984245      -33.5323510256       28.7552326122  LPSA27    6               4.0000000000
     29272       942  AHEP      HO2            -9.6107992125      -34.0901190908       29.4989197167  LPSA27    6               4.0000000000
     29273       942  AHEP      C3             -9.8896891130      -31.1282219430       28.8325636506  LPSA27    6               4.0000000000
     29274       942  AHEP      H3            -10.6235673035      -30.4673014560       29.2965540298  LPSA27    6               4.0000000000
     29275       942  AHEP      O3             -8.5406827084      -30.8737277014       29.2904760584  LPSA27    6               4.0000000000
     29276       942  AHEP      HO3            -8.4760038068      -30.3685709321       30.0939496959  LPSA27    6               4.0000000000
     29277       942  AHEP      C4             -9.9373512066      -30.9697823614       27.3473847243  LPSA27    6               4.0000000000
     29278       942  AHEP      H4             -9.3546850081      -31.6718897525       26.7552322391  LPSA27    6               4.0000000000
     29279       942  AHEP      O4             -9.4726766677      -29.6274368276       27.0465584049  LPSA27    6               4.0000000000
     29280       942  AHEP      HO4           -10.1744854755      -28.9832746789       27.1583267611  LPSA27    6               4.0000000000
     29281       942  AHEP      C6            -11.9765132368      -31.5450959659       25.6838418694  LPSA27    6               4.0000000000
     29282       942  AHEP      H6            -12.3017990765      -30.7427040600       26.2428461630  LPSA27    6               4.0000000000
     29283       942  AHEP      O6            -10.9497604252      -31.6081306506       24.7312951168  LPSA27    6               4.0000000000
     29284       942  AHEP      HO6           -11.4809641730      -31.8956957444       23.9656528185  LPSA27    6               4.0000000000
     29285       942  AHEP      C7            -13.3274929148      -31.3264817182       24.9918332563  LPSA27    6               4.0000000000
     29286       942  AHEP      H71           -13.4788952891      -30.7021354714       24.0600324368  LPSA27    6               4.0000000000
     29287       942  AHEP      H72           -13.9568800145      -30.8227298958       25.6876323715  LPSA27    6               4.0000000000
     29288       942  AHEP      O7            -14.1369215981      -32.3974173720       25.2401515620  LPSA27    6               4.0000000000
     29289       942  AHEP      HO7           -14.2641705568      -32.2539526222       26.1800086343  LPSA27    6               4.0000000000
     29290       943  AGLC      C1            -13.7953239443      -36.5312834416       35.6506710730  LPSA27    7               4.0000000000
     29291       943  AGLC      H1            -14.7797816745      -36.7223830104       35.1579266901  LPSA27    7               4.0000000000
     29292       943  AGLC      C5            -11.6430696791      -37.4823196589       36.1044889896  LPSA27    7               4.0000000000
     29293       943  AGLC      H5            -11.1798279551      -36.5189185438       35.8254299317  LPSA27    7               4.0000000000
     29294       943  AGLC      O5            -12.9023725716      -37.6210494699       35.4112602253  LPSA27    7               4.0000000000
     29295       943  AGLC      C2            -14.0417887855      -36.5360587454       37.1653907841  LPSA27    7               4.0000000000
     29296       943  AGLC      H2            -14.3841851264      -37.5615316246       37.4295443298  LPSA27    7               4.0000000000
     29297       943  AGLC      O2            -15.1011580870      -35.6858802316       37.5751415231  LPSA27    7               4.0000000000
     29298       943  AGLC      HO2           -14.7767688822      -34.7667837448       37.5509301686  LPSA27    7               4.0000000000
     29299       943  AGLC      C3            -12.7882286935      -36.3195652031       37.9777179985  LPSA27    7               4.0000000000
     29300       943  AGLC      H3            -12.3145778981      -35.3801636313       37.6112909758  LPSA27    7               4.0000000000
     29301       943  AGLC      O3            -13.0311769271      -36.1789680255       39.4051785291  LPSA27    7               4.0000000000
     29302       943  AGLC      C4            -11.8771421192      -37.4790053371       37.6174518597  LPSA27    7               4.0000000000
     29303       943  AGLC      H4            -12.3789410626      -38.4397573569       37.9220955156  LPSA27    7               4.0000000000
     29304       943  AGLC      O4            -10.6203314993      -37.3577459853       38.2797174139  LPSA27    7               4.0000000000
     29305       943  AGLC      HO4           -10.3637359686      -38.2060599754       38.6587936704  LPSA27    7               4.0000000000
     29306       943  AGLC      C6            -10.6921499302      -38.5350506643       35.5813873552  LPSA27    7               4.0000000000
     29307       943  AGLC      H61           -10.7126243809      -38.4986883858       34.4559442266  LPSA27    7               4.0000000000
     29308       943  AGLC      H62            -9.6365675571      -38.4585359830       35.8970768874  LPSA27    7               4.0000000000
     29309       943  AGLC      O6            -11.1618483027      -39.7666298292       36.0834374695  LPSA27    7               4.0000000000
     29310       943  AGLC      HO6           -10.6267155696      -40.3020806062       36.6771489725  LPSA27    7               4.0000000000
     29311       944  AGLC      C1            -12.6191918364      -34.9214132641       39.9250787588  LPSA27    8               5.0000000000
     29312       944  AGLC      H1            -11.6232435177      -34.6551866864       39.5076438766  LPSA27    8               5.0000000000
     29313       944  AGLC      C5            -14.8433784039      -33.9031803596       40.2154317329  LPSA27    8               5.0000000000
     29314       944  AGLC      H5            -15.3058368749      -34.8595090040       39.8843046013  LPSA27    8               5.0000000000
     29315       944  AGLC      O5            -13.5285571757      -33.8365545999       39.6079661798  LPSA27    8               5.0000000000
     29316       944  AGLC      C2            -12.4445558034      -34.9443215938       41.4365216589  LPSA27    8               5.0000000000
     29317       944  AGLC      H2            -12.0310088433      -33.9461217458       41.6992361071  LPSA27    8               5.0000000000
     29318       944  AGLC      O2            -11.5277738407      -35.9293158908       41.9463726378  LPSA27    8               5.0000000000
     29319       944  AGLC      C3            -13.7699888925      -35.1054987950       42.1263662134  LPSA27    8               5.0000000000
     29320       944  AGLC      H3            -14.1950679059      -36.0434873741       41.7056829102  LPSA27    8               5.0000000000
     29321       944  AGLC      O3            -13.5481478130      -35.3320521548       43.5386634993  LPSA27    8               5.0000000000
     29322       944  AGLC      C4            -14.6472017544      -33.9392380636       41.7254314970  LPSA27    8               5.0000000000
     29323       944  AGLC      H4            -14.1241107959      -33.0020353017       42.0277590745  LPSA27    8               5.0000000000
     29324       944  AGLC      O4            -15.8968988385      -33.9614396388       42.3899300251  LPSA27    8               5.0000000000
     29325       944  AGLC      HO4           -16.2802934050      -34.8386689322       42.3798732855  LPSA27    8               5.0000000000
     29326       944  AGLC      C6            -15.8284869320      -32.7982474872       39.7442579872  LPSA27    8               5.0000000000
     29327       944  AGLC      H61           -15.8097930212      -32.6997772566       38.6321487360  LPSA27    8               5.0000000000
     29328       944  AGLC      H62           -16.8693040430      -33.0972413552       40.0184923328  LPSA27    8               5.0000000000
     29329       944  AGLC      O6            -15.6330376321      -31.5110604514       40.3523563981  LPSA27    8               5.0000000000
     29330       944  AGLC      HO6           -16.0210331821      -31.5647954581       41.2290990879  LPSA27    8               5.0000000000
     29331       945  AGAL      C1            -10.2223894751      -35.9199854685       41.4332683177  LPSA27    9               6.0000000000
     29332       945  AGAL      H1            -10.2386820354      -35.8948032383       40.3255060037  LPSA27    9               6.0000000000
     29333       945  AGAL      C5             -9.2092594443      -34.8326854608       43.2853216393  LPSA27    9               6.0000000000
     29334       945  AGAL      H5            -10.2189629772      -34.9411842560       43.7440000101  LPSA27    9               6.0000000000
     29335       945  AGAL      O5             -9.4270289854      -34.8054742872       41.8670811505  LPSA27    9               6.0000000000
     29336       945  AGAL      C2             -9.5717726428      -37.2361271218       41.8537522911  LPSA27    9               6.0000000000
     29337       945  AGAL      H2             -8.5665037879      -37.2252637137       41.3750480678  LPSA27    9               6.0000000000
     29338       945  AGAL      O2            -10.3040056551      -38.2962581347       41.2103109105  LPSA27    9               6.0000000000
     29339       945  AGAL      C3             -9.3578490438      -37.3111441321       43.3677459667  LPSA27    9               6.0000000000
     29340       945  AGAL      H3            -10.3326587481      -37.1971739944       43.8860930415  LPSA27    9               6.0000000000
     29341       945  AGAL      O3             -8.9078479216      -38.6176044435       43.7803211767  LPSA27    9               6.0000000000
     29342       945  AGAL      HO3            -9.1526485969      -39.0700953561       42.9692345769  LPSA27    9               6.0000000000
     29343       945  AGAL      C4             -8.4689254934      -36.1142303136       43.7095329004  LPSA27    9               6.0000000000
     29344       945  AGAL      H4             -8.2950315726      -36.0439524144       44.8003741376  LPSA27    9               6.0000000000
     29345       945  AGAL      O4             -7.1985322886      -36.2534903858       43.1070644929  LPSA27    9               6.0000000000
     29346       945  AGAL      HO4            -6.5943896948      -35.6820654454       43.5982734641  LPSA27    9               6.0000000000
     29347       945  AGAL      C6             -8.6654569938      -33.5121013973       43.8508459283  LPSA27    9               6.0000000000
     29348       945  AGAL      H61            -9.3851019419      -32.6981320806       43.6113020081  LPSA27    9               6.0000000000
     29349       945  AGAL      H62            -8.6258786319      -33.5682756508       44.9580023863  LPSA27    9               6.0000000000
     29350       945  AGAL      O6             -7.3750189688      -33.1041361893       43.3847320291  LPSA27    9               6.0000000000
     29351       945  AGAL      HO6            -7.5660022171      -32.5667823276       42.6230646794  LPSA27    9               6.0000000000
     29352       946  AGAL      C1            -10.6378782133      -39.5562261735       41.7386274593  LPSA27    10              7.0000000000
     29353       946  AGAL      H1             -9.7041278975      -40.1496130256       41.8010549989  LPSA27    10              7.0000000000
     29354       946  AGAL      C5            -12.5237848720      -38.9058093865       43.0426916808  LPSA27    10              7.0000000000
     29355       946  AGAL      H5            -12.3725201039      -37.8886314742       42.6356677539  LPSA27    10              7.0000000000
     29356       946  AGAL      O5            -11.2264337207      -39.5783262040       43.0661640903  LPSA27    10              7.0000000000
     29357       946  AGAL      C2            -11.5476534070      -40.2324633661       40.7528380655  LPSA27    10              7.0000000000
     29358       946  AGAL      H2            -11.6944360152      -41.2176011506       41.2108555101  LPSA27    10              7.0000000000
     29359       946  AGAL      O2            -10.9090710446      -40.4710318500       39.5062739108  LPSA27    10              7.0000000000
     29360       946  AGAL      HO2           -11.1370434426      -41.3920912796       39.2540549696  LPSA27    10              7.0000000000
     29361       946  AGAL      C3            -12.8890380024      -39.5309314636       40.6778293057  LPSA27    10              7.0000000000
     29362       946  AGAL      H3            -12.7010009900      -38.4717523113       40.4115569661  LPSA27    10              7.0000000000
     29363       946  AGAL      O3            -13.7975410927      -40.0649018174       39.7166704376  LPSA27    10              7.0000000000
     29364       946  AGAL      HO3           -13.8810442305      -39.4692253919       38.9669399884  LPSA27    10              7.0000000000
     29365       946  AGAL      C4            -13.4686980918      -39.5644631372       42.0645402886  LPSA27    10              7.0000000000
     29366       946  AGAL      H4            -14.4596953255      -39.0677934552       42.0786744808  LPSA27    10              7.0000000000
     29367       946  AGAL      O4            -13.7133759131      -40.8696548698       42.4854054202  LPSA27    10              7.0000000000
     29368       946  AGAL      HO4           -12.9295943734      -41.4064738460       42.5890627326  LPSA27    10              7.0000000000
     29369       946  AGAL      C6            -13.1567363900      -38.6526418137       44.4031569333  LPSA27    10              7.0000000000
     29370       946  AGAL      H61           -12.4418398590      -38.1980351905       45.1043678444  LPSA27    10              7.0000000000
     29371       946  AGAL      H62           -14.0119272976      -37.9494867896       44.2549342524  LPSA27    10              7.0000000000
     29372       946  AGAL      O6            -13.6194751381      -39.8303904775       45.0287282031  LPSA27    10              7.0000000000
     29373       946  AGAL      HO6           -13.3038783845      -39.9424550417       45.9275962429  LPSA27    10              7.0000000000
     29374       947  BGLC      C1            -13.6149673158      -34.3111893579       44.5164492394  LPSA27    11              6.0000000000
     29375       947  BGLC      H1            -14.6570343161      -33.9337383593       44.6232656883  LPSA27    11              6.0000000000
     29376       947  BGLC      C5            -12.7729204425      -32.2669406334       45.2483581810  LPSA27    11              6.0000000000
     29377       947  BGLC      H5            -13.7804660682      -31.8124094628       45.5520326198  LPSA27    11              6.0000000000
     29378       947  BGLC      O5            -12.8049324333      -33.2562075978       44.1939857815  LPSA27    11              6.0000000000
     29379       947  BGLC      C2            -13.0677972472      -34.8433977775       45.8105646062  LPSA27    11              6.0000000000
     29380       947  BGLC      H2            -12.0163061351      -35.1908835802       45.6475397555  LPSA27    11              6.0000000000
     29381       947  BGLC      O2            -13.8556307229      -35.9443338765       46.1982079116  LPSA27    11              6.0000000000
     29382       947  BGLC      HO2           -13.2713550468      -36.6823842033       46.3205322751  LPSA27    11              6.0000000000
     29383       947  BGLC      C3            -13.0025052805      -33.8410564858       46.9413630229  LPSA27    11              6.0000000000
     29384       947  BGLC      H3            -14.0260884045      -33.4637878151       47.1917828978  LPSA27    11              6.0000000000
     29385       947  BGLC      O3            -12.3186037709      -34.3979487823       48.0733163699  LPSA27    11              6.0000000000
     29386       947  BGLC      C4            -12.1384694829      -32.7389649237       46.4930856227  LPSA27    11              6.0000000000
     29387       947  BGLC      H4            -11.1152606314      -33.0795559751       46.2124936985  LPSA27    11              6.0000000000
     29388       947  BGLC      O4            -11.9565392168      -31.7256404589       47.4657608230  LPSA27    11              6.0000000000
     29389       947  BGLC      HO4           -11.3582269170      -32.0485111395       48.1464733748  LPSA27    11              6.0000000000
     29390       947  BGLC      C6            -12.1493689366      -31.3281277954       44.4940257183  LPSA27    11              6.0000000000
     29391       947  BGLC      H61           -11.7351111572      -30.5604530502       45.2514211928  LPSA27    11              6.0000000000
     29392       947  BGLC      H62           -11.1801285204      -31.5437970703       44.0192212440  LPSA27    11              6.0000000000
     29393       947  BGLC      O6            -13.2388258280      -31.0132635131       43.5055530424  LPSA27    11              6.0000000000
     29394       947  BGLC      HO6           -13.2694605765      -30.0364868299       43.3506261600  LPSA27    11              6.0000000000
     29395       948  BGLCNA    C1            -12.9752540779      -34.3575882679       49.3200929599  LPSA27    12              7.0000000000
     29396       948  BGLCNA    H1            -13.7032898885      -35.1934938019       49.3745547155  LPSA27    12              7.0000000000
     29397       948  BGLCNA    C5            -14.3065609473      -33.1476536549       50.8720953812  LPSA27    12              7.0000000000
     29398       948  BGLCNA    H5            -15.0355541353      -33.9834424128       50.9513716696  LPSA27    12              7.0000000000
     29399       948  BGLCNA    O5            -13.6549360992      -33.1377399488       49.5828619815  LPSA27    12              7.0000000000
     29400       948  BGLCNA    C2            -11.8731459244      -34.5250466581       50.3537255247  LPSA27    12              7.0000000000
     29401       948  BGLCNA    H2            -11.2530270510      -33.5877191513       50.3011678042  LPSA27    12              7.0000000000
     29402       948  BGLCNA    N             -11.0884008663      -35.6923023016       50.0406721542  LPSA27    12              7.0000000000
     29403       948  BGLCNA    HN            -11.6309812568      -36.5148906169       49.9928520139  LPSA27    12              7.0000000000
     29404       948  BGLCNA    C              -9.7589387444      -35.6658360041       49.9110835608  LPSA27    12              7.0000000000
     29405       948  BGLCNA    O              -9.1095500588      -34.6494944789       50.0884589667  LPSA27    12              7.0000000000
     29406       948  BGLCNA    CT             -9.0582364335      -36.9512436729       49.5720637820  LPSA27    12              7.0000000000
     29407       948  BGLCNA    HT1            -8.4713357248      -37.3229469011       50.4294731105  LPSA27    12              7.0000000000
     29408       948  BGLCNA    HT2            -8.3322338090      -36.7831573984       48.7495589556  LPSA27    12              7.0000000000
     29409       948  BGLCNA    HT3            -9.7956167076      -37.7151061401       49.2865328029  LPSA27    12              7.0000000000
     29410       948  BGLCNA    C3            -12.4402063206      -34.6080624666       51.7563698533  LPSA27    12              7.0000000000
     29411       948  BGLCNA    H3            -13.1191421578      -35.4886216607       51.8032864505  LPSA27    12              7.0000000000
     29412       948  BGLCNA    O3            -11.4053311816      -34.7908751751       52.7714120452  LPSA27    12              7.0000000000
     29413       948  BGLCNA    C4            -13.2333499892      -33.3289660497       51.9380863700  LPSA27    12              7.0000000000
     29414       948  BGLCNA    H4            -12.5901772285      -32.4480338936       51.8162378836  LPSA27    12              7.0000000000
     29415       948  BGLCNA    O4            -13.7670640640      -33.2476217265       53.2371372202  LPSA27    12              7.0000000000
     29416       948  BGLCNA    HO4           -14.5122732641      -33.8627451313       53.3404818267  LPSA27    12              7.0000000000
     29417       948  BGLCNA    C6            -15.0739880102      -31.8439558537       50.9686348430  LPSA27    12              7.0000000000
     29418       948  BGLCNA    H61           -15.5959846426      -31.7344914673       51.9437850083  LPSA27    12              7.0000000000
     29419       948  BGLCNA    H62           -14.3661979972      -30.9950067243       50.8421046670  LPSA27    12              7.0000000000
     29420       948  BGLCNA    O6            -16.0456033477      -31.7219991808       49.9396770545  LPSA27    12              7.0000000000
     29421       948  BGLCNA    HO6           -16.8517114298      -32.2052954896       50.1255870612  LPSA27    12              7.0000000000
     29422       949  AGAL      C1            -11.7441849598      -35.6845275159       53.8371638947  LPSA27    13              8.0000000000
     29423       949  AGAL      H1            -12.7960999465      -35.4892381717       54.1538316197  LPSA27    13              8.0000000000
     29424       949  AGAL      C5            -10.1834577499      -37.4094281790       53.2630135718  LPSA27    13              8.0000000000
     29425       949  AGAL      H5             -9.7996959788      -36.6544495294       52.5386786715  LPSA27    13              8.0000000000
     29426       949  AGAL      O5            -11.5655481352      -37.0698084905       53.4633851338  LPSA27    13              8.0000000000
     29427       949  AGAL      C2            -10.9073595876      -35.5010200637       55.1098235310  LPSA27    13              8.0000000000
     29428       949  AGAL      H2            -11.2424178157      -36.3140286112       55.7997042095  LPSA27    13              8.0000000000
     29429       949  AGAL      O2            -11.1856254991      -34.2596117383       55.7586963313  LPSA27    13              8.0000000000
     29430       949  AGAL      C3             -9.4374646189      -35.7758070790       54.8941686477  LPSA27    13              8.0000000000
     29431       949  AGAL      H3             -9.0780561030      -35.1897468832       54.0185849325  LPSA27    13              8.0000000000
     29432       949  AGAL      O3             -8.5970007903      -35.4302882196       55.9957695635  LPSA27    13              8.0000000000
     29433       949  AGAL      HO3            -7.7830233833      -35.0198468782       55.6810406723  LPSA27    13              8.0000000000
     29434       949  AGAL      C4             -9.3504381025      -37.2207340814       54.5115326347  LPSA27    13              8.0000000000
     29435       949  AGAL      H4             -8.3369501861      -37.3937399959       54.1284663133  LPSA27    13              8.0000000000
     29436       949  AGAL      O4             -9.6150088691      -38.1212852584       55.5997562261  LPSA27    13              8.0000000000
     29437       949  AGAL      HO4           -10.4708430897      -37.9401405763       56.0195550252  LPSA27    13              8.0000000000
     29438       949  AGAL      C6             -9.8951925697      -38.7168272090       52.5494860774  LPSA27    13              8.0000000000
     29439       949  AGAL      H61           -10.4886250418      -38.7477748972       51.6110925715  LPSA27    13              8.0000000000
     29440       949  AGAL      H62            -8.8053874055      -38.7577646899       52.3111536824  LPSA27    13              8.0000000000
     29441       949  AGAL      O6            -10.1996598789      -39.8751518361       53.3060169922  LPSA27    13              8.0000000000
     29442       949  AGAL      HO6            -9.5348430801      -40.0246222037       53.9946019536  LPSA27    13              8.0000000000
     29443       950  ARHM      C1            -11.8517857559      -34.3450803942       57.0059707594  LPSA27    14              9.0000000000
     29444       950  ARHM      H1            -12.4854980136      -35.2584548345       57.0386845013  LPSA27    14              9.0000000000
     29445       950  ARHM      C5            -12.0877317846      -32.0178643067       57.1923638553  LPSA27    14              9.0000000000
     29446       950  ARHM      H5            -11.5750781579      -31.8896277281       56.2171214468  LPSA27    14              9.0000000000
     29447       950  ARHM      O5            -12.7488828887      -33.2732961927       57.1859626424  LPSA27    14              9.0000000000
     29448       950  ARHM      C2            -10.8168347262      -34.3628942980       58.1083195992  LPSA27    14              9.0000000000
     29449       950  ARHM      H2            -10.1267188961      -35.2131758769       57.9360333340  LPSA27    14              9.0000000000
     29450       950  ARHM      O2            -11.3198954632      -34.4087162924       59.4588790605  LPSA27    14              9.0000000000
     29451       950  ARHM      C3            -10.0513740169      -33.0916728556       58.0645746230  LPSA27    14              9.0000000000
     29452       950  ARHM      H3             -9.6792932631      -32.8988486680       57.0275834504  LPSA27    14              9.0000000000
     29453       950  ARHM      O3             -8.8684829692      -33.1525153259       58.8671870428  LPSA27    14              9.0000000000
     29454       950  ARHM      HO3            -9.1198403711      -33.0051372197       59.7828385288  LPSA27    14              9.0000000000
     29455       950  ARHM      C4            -11.0140951252      -31.9653488705       58.3503041725  LPSA27    14              9.0000000000
     29456       950  ARHM      H4            -11.5765796822      -32.0823721228       59.3022459259  LPSA27    14              9.0000000000
     29457       950  ARHM      O4            -10.1684374217      -30.8299007573       58.5138294318  LPSA27    14              9.0000000000
     29458       950  ARHM      HO4           -10.3319456752      -30.3021450638       59.3019335432  LPSA27    14              9.0000000000
     29459       950  ARHM      C6            -13.3687805284      -31.1791273298       57.3102306958  LPSA27    14              9.0000000000
     29460       950  ARHM      H61           -14.1803668871      -31.3177846691       56.5877798129  LPSA27    14              9.0000000000
     29461       950  ARHM      H62           -13.5005491843      -30.8966580561       58.3706545259  LPSA27    14              9.0000000000
     29462       950  ARHM      H63           -13.4134652163      -30.1904733846       56.8622673223  LPSA27    14              9.0000000000
     29463       951  ARHM      C1            -12.2193015529      -35.4391439698       59.7436645484  LPSA27    15             10.0000000000
     29464       951  ARHM      H1            -12.0538758276      -36.2887640038       59.0402026596  LPSA27    15             10.0000000000
     29465       951  ARHM      C5            -13.9945876385      -34.0303778688       60.6436928905  LPSA27    15             10.0000000000
     29466       951  ARHM      H5            -13.4713234711      -33.0645892105       60.4441224258  LPSA27    15             10.0000000000
     29467       951  ARHM      O5            -13.6070479828      -35.0258518678       59.6769919645  LPSA27    15             10.0000000000
     29468       951  ARHM      C2            -11.9120581182      -35.9503806136       61.1366265298  LPSA27    15             10.0000000000
     29469       951  ARHM      H2            -10.8235942375      -36.1849099414       61.2015887160  LPSA27    15             10.0000000000
     29470       951  ARHM      O2            -12.6672825192      -37.1602667677       61.3061130500  LPSA27    15             10.0000000000
     29471       951  ARHM      C3            -12.2234417169      -34.8662181590       62.1319226105  LPSA27    15             10.0000000000
     29472       951  ARHM      H3            -11.6638598395      -33.9459319951       61.8351841270  LPSA27    15             10.0000000000
     29473       951  ARHM      O3            -11.7439818705      -35.2875303106       63.4076597209  LPSA27    15             10.0000000000
     29474       951  ARHM      C4            -13.7042357591      -34.5546072105       62.0353686695  LPSA27    15             10.0000000000
     29475       951  ARHM      H4            -14.2752425849      -35.5071709187       62.1537121391  LPSA27    15             10.0000000000
     29476       951  ARHM      O4            -14.2014715991      -33.6433979325       63.0172046326  LPSA27    15             10.0000000000
     29477       951  ARHM      HO4           -15.1678772255      -33.6915804311       62.9343927567  LPSA27    15             10.0000000000
     29478       951  ARHM      C6            -15.5074905928      -33.7724167718       60.5035997465  LPSA27    15             10.0000000000
     29479       951  ARHM      H61           -15.8537006480      -32.8795267442       61.0578601097  LPSA27    15             10.0000000000
     29480       951  ARHM      H62           -15.7185861078      -33.6356947626       59.4352548601  LPSA27    15             10.0000000000
     29481       951  ARHM      H63           -16.1162464153      -34.6376193454       60.8325147120  LPSA27    15             10.0000000000
     29482       952  BMANNA    C1            -12.5997504204      -37.8604491530       62.5176681814  LPSA27    16             11.0000000000
     29483       952  BMANNA    H1            -13.0993383766      -37.2765486109       63.3209964974  LPSA27    16             11.0000000000
     29484       952  BMANNA    C5            -11.2352321443      -38.8701144694       64.1882136621  LPSA27    16             11.0000000000
     29485       952  BMANNA    H5            -11.7834990630      -38.2491673952       64.9433186481  LPSA27    16             11.0000000000
     29486       952  BMANNA    O5            -11.2603908761      -38.1958326111       62.9190211918  LPSA27    16             11.0000000000
     29487       952  BMANNA    C2            -13.3864988569      -39.1298039972       62.3141732169  LPSA27    16             11.0000000000
     29488       952  BMANNA    H2            -14.4428594595      -38.8665714863       62.0468116260  LPSA27    16             11.0000000000
     29489       952  BMANNA    N             -12.8721381322      -39.9392899108       61.2321202014  LPSA27    16             11.0000000000
     29490       952  BMANNA    HN            -12.2531878613      -40.6659577331       61.5224510923  LPSA27    16             11.0000000000
     29491       952  BMANNA    C             -13.2866948116      -39.8468913879       59.9575795646  LPSA27    16             11.0000000000
     29492       952  BMANNA    O             -14.2014821944      -39.1441518186       59.5640053335  LPSA27    16             11.0000000000
     29493       952  BMANNA    CT            -12.5466667613      -40.7116295044       59.0023716249  LPSA27    16             11.0000000000
     29494       952  BMANNA    HT1           -13.0961198606      -41.5599820680       58.5138767613  LPSA27    16             11.0000000000
     29495       952  BMANNA    HT2           -11.7030602568      -41.1445202620       59.5632626015  LPSA27    16             11.0000000000
     29496       952  BMANNA    HT3           -12.2223962586      -40.0903496384       58.2529627367  LPSA27    16             11.0000000000
     29497       952  BMANNA    C3            -13.3792550375      -39.8531853483       63.6344397518  LPSA27    16             11.0000000000
     29498       952  BMANNA    H3            -13.8809418047      -39.2260146832       64.3996357982  LPSA27    16             11.0000000000
     29499       952  BMANNA    O3            -14.1504657613      -41.0017079187       63.5369282301  LPSA27    16             11.0000000000
     29500       952  BMANNA    HO3           -14.7437052752      -41.0963404344       64.2954245156  LPSA27    16             11.0000000000
     29501       952  BMANNA    C4            -11.9700267128      -40.1577867759       64.0845085772  LPSA27    16             11.0000000000
     29502       952  BMANNA    H4            -11.4618405864      -40.8313654348       63.3684487180  LPSA27    16             11.0000000000
     29503       952  BMANNA    O4            -11.8863277821      -40.7430260477       65.3636491352  LPSA27    16             11.0000000000
     29504       952  BMANNA    HO4           -11.1649372268      -41.3873820401       65.4001662036  LPSA27    16             11.0000000000
     29505       952  BMANNA    C6             -9.8464964181      -39.0761417272       64.7629129971  LPSA27    16             11.0000000000
     29506       952  BMANNA    H61            -9.9179599403      -39.0791583118       65.8760958733  LPSA27    16             11.0000000000
     29507       952  BMANNA    H62            -9.4417551536      -40.0573040798       64.4487093271  LPSA27    16             11.0000000000
     29508       952  BMANNA    O6             -8.9137011528      -38.0894770969       64.3592624144  LPSA27    16             11.0000000000
     29509       952  BMANNA    HO6            -8.2021358711      -38.5113516859       63.8783359782  LPSA27    16             11.0000000000
     29510       953  BGLCNA    C1            -11.1245466401      -34.2612016241       64.1250878858  LPSA27    17             11.0000000000
     29511       953  BGLCNA    H1            -11.6700921353      -33.3125101639       63.9638353699  LPSA27    17             11.0000000000
     29512       953  BGLCNA    C5             -9.0853312265      -33.0557322295       64.5554367873  LPSA27    17             11.0000000000
     29513       953  BGLCNA    H5             -9.5745037269      -32.0730215345       64.3524089980  LPSA27    17             11.0000000000
     29514       953  BGLCNA    O5             -9.7442119321      -34.0830633003       63.7783148861  LPSA27    17             11.0000000000
     29515       953  BGLCNA    C2            -11.2497810421      -34.7267638641       65.5522052410  LPSA27    17             11.0000000000
     29516       953  BGLCNA    H2            -10.7007028611      -35.6749145152       65.6199024416  LPSA27    17             11.0000000000
     29517       953  BGLCNA    N             -12.6076174642      -35.0954455127       65.8766077973  LPSA27    17             11.0000000000
     29518       953  BGLCNA    HN            -13.2835561080      -34.5900741754       65.3670185983  LPSA27    17             11.0000000000
     29519       953  BGLCNA    C             -13.0013014666      -35.9705647842       66.8118722876  LPSA27    17             11.0000000000
     29520       953  BGLCNA    O             -12.2500070844      -36.6825631082       67.4510015965  LPSA27    17             11.0000000000
     29521       953  BGLCNA    CT            -14.4808235976      -35.9806163857       67.0431678213  LPSA27    17             11.0000000000
     29522       953  BGLCNA    HT1           -15.0179255053      -36.7991121828       66.5326339928  LPSA27    17             11.0000000000
     29523       953  BGLCNA    HT2           -14.8123126178      -35.0109885726       66.6639392186  LPSA27    17             11.0000000000
     29524       953  BGLCNA    HT3           -14.7213989864      -36.0094268865       68.1260475751  LPSA27    17             11.0000000000
     29525       953  BGLCNA    C3            -10.6552132057      -33.6397779291       66.4272365134  LPSA27    17             11.0000000000
     29526       953  BGLCNA    H3            -11.1955241867      -32.7165882999       66.1068344317  LPSA27    17             11.0000000000
     29527       953  BGLCNA    O3            -10.9467313749      -33.8891192306       67.8288797969  LPSA27    17             11.0000000000
     29528       953  BGLCNA    C4             -9.1880410009      -33.4522844348       66.0349466253  LPSA27    17             11.0000000000
     29529       953  BGLCNA    H4             -8.6283749545      -34.4057965471       66.0972333664  LPSA27    17             11.0000000000
     29530       953  BGLCNA    O4             -8.5324627288      -32.5399864056       66.9111103205  LPSA27    17             11.0000000000
     29531       953  BGLCNA    HO4            -7.5887148040      -32.4580181296       66.7264595714  LPSA27    17             11.0000000000
     29532       953  BGLCNA    C6             -7.6284621309      -32.9131157669       64.1119825340  LPSA27    17             11.0000000000
     29533       953  BGLCNA    H61            -7.2921172676      -31.8585040311       64.1592596819  LPSA27    17             11.0000000000
     29534       953  BGLCNA    H62            -6.9939554434      -33.5042202090       64.7916575102  LPSA27    17             11.0000000000
     29535       953  BGLCNA    O6             -7.3475333004      -33.3835599056       62.8034477386  LPSA27    17             11.0000000000
     29536       953  BGLCNA    HO6            -7.8873145810      -32.9322619007       62.1523991501  LPSA27    17             11.0000000000
     29537       954  AGAL      C1            -11.2304868203      -32.7393394661       68.6227334733  LPSA27    18             12.0000000000
     29538       954  AGAL      H1            -10.2783653537      -32.1915033955       68.8070888269  LPSA27    18             12.0000000000
     29539       954  AGAL      C5            -13.4650583257      -32.3696693746       67.8630069081  LPSA27    18             12.0000000000
     29540       954  AGAL      H5            -13.3661111457      -33.3692637651       67.4079098245  LPSA27    18             12.0000000000
     29541       954  AGAL      O5            -12.1473474664      -31.8388912163       67.9960563779  LPSA27    18             12.0000000000
     29542       954  AGAL      C2            -11.8599558072      -33.0481373666       69.9688249860  LPSA27    18             12.0000000000
     29543       954  AGAL      H2            -12.0330900065      -32.0276105007       70.3956258719  LPSA27    18             12.0000000000
     29544       954  AGAL      O2            -10.9636127373      -33.6961461986       70.8727775379  LPSA27    18             12.0000000000
     29545       954  AGAL      C3            -13.2456558654      -33.6804869747       69.8438836330  LPSA27    18             12.0000000000
     29546       954  AGAL      H3            -13.1657566463      -34.5641248345       69.1712455503  LPSA27    18             12.0000000000
     29547       954  AGAL      O3            -13.7497169660      -34.1632726805       71.0843933772  LPSA27    18             12.0000000000
     29548       954  AGAL      HO3           -14.1514574711      -35.0341110401       70.9759968529  LPSA27    18             12.0000000000
     29549       954  AGAL      C4            -14.1611936624      -32.6727958520       69.1766984318  LPSA27    18             12.0000000000
     29550       954  AGAL      H4            -15.1592939935      -33.1140558086       68.9443294893  LPSA27    18             12.0000000000
     29551       954  AGAL      O4            -14.3637181929      -31.5239642799       69.9868567133  LPSA27    18             12.0000000000
     29552       954  AGAL      HO4           -14.9894763710      -31.7500381143       70.6861731450  LPSA27    18             12.0000000000
     29553       954  AGAL      C6            -14.1701596065      -31.6125275423       66.7787978384  LPSA27    18             12.0000000000
     29554       954  AGAL      H61           -13.5932879249      -31.7709031765       65.8396569624  LPSA27    18             12.0000000000
     29555       954  AGAL      H62           -15.1729467990      -32.0165162911       66.6362583063  LPSA27    18             12.0000000000
     29556       954  AGAL      O6            -14.3144464549      -30.2224769972       66.9915195556  LPSA27    18             12.0000000000
     29557       954  AGAL      HO6           -13.7195087990      -29.9368372391       67.6997432730  LPSA27    18             12.0000000000
     29558       955  ARHM      C1            -11.0954453656      -33.1644737936       72.1703467988  LPSA27    19             13.0000000000
     29559       955  ARHM      H1            -12.1239262148      -32.7814020208       72.3481302545  LPSA27    19             13.0000000000
     29560       955  ARHM      C5             -8.8636687379      -32.3629489708       72.2501706707  LPSA27    19             13.0000000000
     29561       955  ARHM      H5             -8.7487584508      -32.7753777101       71.2184974977  LPSA27    19             13.0000000000
     29562       955  ARHM      O5            -10.2406319102      -32.0419616402       72.4278599139  LPSA27    19             13.0000000000
     29563       955  ARHM      C2            -10.7470454444      -34.2705107193       73.1108714471  LPSA27    19             13.0000000000
     29564       955  ARHM      H2            -11.3327550731      -35.1926309259       72.8686897950  LPSA27    19             13.0000000000
     29565       955  ARHM      O2            -11.0815571481      -33.8532499998       74.4412912995  LPSA27    19             13.0000000000
     29566       955  ARHM      C3             -9.2941297498      -34.6327935342       72.9569714776  LPSA27    19             13.0000000000
     29567       955  ARHM      H3             -9.0997995169      -34.9280572574       71.8983043201  LPSA27    19             13.0000000000
     29568       955  ARHM      O3             -8.9824547230      -35.7497943754       73.7631491201  LPSA27    19             13.0000000000
     29569       955  ARHM      HO3            -9.2599750710      -35.5590353832       74.6645833712  LPSA27    19             13.0000000000
     29570       955  ARHM      C4             -8.4529332490      -33.4155078547       73.2426190830  LPSA27    19             13.0000000000
     29571       955  ARHM      H4             -8.6471253905      -33.0907461817       74.2895260315  LPSA27    19             13.0000000000
     29572       955  ARHM      O4             -7.0603990436      -33.6057769706       73.1315124502  LPSA27    19             13.0000000000
     29573       955  ARHM      HO4            -6.8573512636      -33.9705433013       72.2623552660  LPSA27    19             13.0000000000
     29574       955  ARHM      C6             -8.0140979430      -31.0905266856       72.2614249282  LPSA27    19             13.0000000000
     29575       955  ARHM      H61            -8.4232747649      -30.4290345210       71.4737229971  LPSA27    19             13.0000000000
     29576       955  ARHM      H62            -8.0737843785      -30.5592000187       73.2242578028  LPSA27    19             13.0000000000
     29577       955  ARHM      H63            -6.9433927642      -31.3041010626       72.0590429175  LPSA27    19             13.0000000000
     29578       956  ARHM      C1            -12.4748343834      -33.9056531310       74.6810665988  LPSA27    20             14.0000000000
     29579       956  ARHM      H1            -13.0086336297      -34.4064616946       73.8474327236  LPSA27    20             14.0000000000
     29580       956  ARHM      C5            -12.7302520497      -31.9085748875       75.9388268762  LPSA27    20             14.0000000000
     29581       956  ARHM      H5            -11.6197343760      -31.8399725461       75.7770662072  LPSA27    20             14.0000000000
     29582       956  ARHM      O5            -13.1674920160      -32.6497638278       74.8202241710  LPSA27    20             14.0000000000
     29583       956  ARHM      C2            -12.6562813600      -34.7074788806       75.9397799573  LPSA27    20             14.0000000000
     29584       956  ARHM      H2            -12.1088467734      -35.6792898628       75.8433494741  LPSA27    20             14.0000000000
     29585       956  ARHM      O2            -14.0536383947      -34.9172943457       76.1540794760  LPSA27    20             14.0000000000
     29586       956  ARHM      C3            -12.1067012575      -33.9845278830       77.1153833036  LPSA27    20             14.0000000000
     29587       956  ARHM      H3            -11.0126084049      -33.8167745593       76.9542045674  LPSA27    20             14.0000000000
     29588       956  ARHM      O3            -12.2958595673      -34.8086247777       78.2689141555  LPSA27    20             14.0000000000
     29589       956  ARHM      C4            -12.8637695488      -32.6887310065       77.2336514844  LPSA27    20             14.0000000000
     29590       956  ARHM      H4            -13.9560256190      -32.7829035750       77.3651992489  LPSA27    20             14.0000000000
     29591       956  ARHM      O4            -12.3240924227      -32.0036080303       78.3557305321  LPSA27    20             14.0000000000
     29592       956  ARHM      HO4           -12.3889424698      -31.0658039647       78.2061985062  LPSA27    20             14.0000000000
     29593       956  ARHM      C6            -13.6648223776      -30.5950003910       75.8899864089  LPSA27    20             14.0000000000
     29594       956  ARHM      H61           -14.6359979190      -30.3739019063       76.2414249371  LPSA27    20             14.0000000000
     29595       956  ARHM      H62           -13.4504431734      -29.9327336285       76.7564422772  LPSA27    20             14.0000000000
     29596       956  ARHM      H63           -13.5277475544      -30.0034599640       74.9474167735  LPSA27    20             14.0000000000
     29597       957  BMANNA    C1            -14.4921222320      -36.0047553529       75.4061655345  LPSA27    21             15.0000000000
     29598       957  BMANNA    H1            -13.6743237482      -36.3292400864       74.7203928657  LPSA27    21             15.0000000000
     29599       957  BMANNA    C5            -15.8305642236      -36.8142213237       73.6490751285  LPSA27    21             15.0000000000
     29600       957  BMANNA    H5            -14.9050814152      -37.1104927107       73.0883707952  LPSA27    21             15.0000000000
     29601       957  BMANNA    O5            -15.5548169100      -35.6882931777       74.5083207130  LPSA27    21             15.0000000000
     29602       957  BMANNA    C2            -14.8570277896      -37.1410974138       76.3490873332  LPSA27    21             15.0000000000
     29603       957  BMANNA    H2            -13.9146080014      -37.3457240409       76.9265646800  LPSA27    21             15.0000000000
     29604       957  BMANNA    N             -15.9446641045      -36.8465000689       77.2903774069  LPSA27    21             15.0000000000
     29605       957  BMANNA    HN            -16.6991824207      -36.3232573450       76.9023454830  LPSA27    21             15.0000000000
     29606       957  BMANNA    C             -15.9789468108      -37.2625538300       78.5850198996  LPSA27    21             15.0000000000
     29607       957  BMANNA    O             -15.2126418580      -38.1202829638       79.0109919969  LPSA27    21             15.0000000000
     29608       957  BMANNA    CT            -17.0412690898      -36.6615432305       79.4801864581  LPSA27    21             15.0000000000
     29609       957  BMANNA    HT1           -18.0284701950      -37.1289576849       79.2870564037  LPSA27    21             15.0000000000
     29610       957  BMANNA    HT2           -17.0742019852      -35.5661118662       79.3223699652  LPSA27    21             15.0000000000
     29611       957  BMANNA    HT3           -16.8013559622      -36.8034278874       80.5557253144  LPSA27    21             15.0000000000
     29612       957  BMANNA    C3            -15.1501136528      -38.3251355740       75.4687526196  LPSA27    21             15.0000000000
     29613       957  BMANNA    H3            -14.1957007791      -38.5317650009       74.9246403702  LPSA27    21             15.0000000000
     29614       957  BMANNA    O3            -15.4650018073      -39.4840713593       76.2210633603  LPSA27    21             15.0000000000
     29615       957  BMANNA    HO3           -16.2064384630      -39.2576436481       76.7951227332  LPSA27    21             15.0000000000
     29616       957  BMANNA    C4            -16.2546014289      -37.9989037515       74.4829508629  LPSA27    21             15.0000000000
     29617       957  BMANNA    H4            -17.2045731325      -37.7471141160       75.0148720931  LPSA27    21             15.0000000000
     29618       957  BMANNA    O4            -16.5554138288      -39.0939319421       73.6341342245  LPSA27    21             15.0000000000
     29619       957  BMANNA    HO4           -17.4716332649      -39.3789666491       73.7476883392  LPSA27    21             15.0000000000
     29620       957  BMANNA    C6            -16.8693986337      -36.4794463893       72.6141344786  LPSA27    21             15.0000000000
     29621       957  BMANNA    H61           -16.8475711239      -37.2459701537       71.8062406418  LPSA27    21             15.0000000000
     29622       957  BMANNA    H62           -17.8701648676      -36.5228125385       73.0870673462  LPSA27    21             15.0000000000
     29623       957  BMANNA    O6            -16.6778237009      -35.1905977787       72.0461909678  LPSA27    21             15.0000000000
     29624       957  BMANNA    HO6           -16.7125981193      -34.5442923980       72.7671574776  LPSA27    21             15.0000000000
     29625       958  BGLCNA    C1            -11.2809953704      -34.7921974223       79.2404456022  LPSA27    22             15.0000000000
     29626       958  BGLCNA    H1            -10.7289546339      -33.8310654396       79.2493036182  LPSA27    22             15.0000000000
     29627       958  BGLCNA    C5             -9.3786208867      -35.8936820018       80.1027752851  LPSA27    22             15.0000000000
     29628       958  BGLCNA    H5             -8.8689914578      -34.9048552467       80.1252367398  LPSA27    22             15.0000000000
     29629       958  BGLCNA    O5            -10.3656232288      -35.8749111666       79.0611439246  LPSA27    22             15.0000000000
     29630       958  BGLCNA    C2            -12.0103957775      -34.9625977761       80.5462667732  LPSA27    22             15.0000000000
     29631       958  BGLCNA    H2            -12.5483970258      -35.9463404924       80.4966088656  LPSA27    22             15.0000000000
     29632       958  BGLCNA    N             -12.9657063266      -33.8907036771       80.7238695184  LPSA27    22             15.0000000000
     29633       958  BGLCNA    HN            -12.6852755445      -33.0047421637       80.3784556449  LPSA27    22             15.0000000000
     29634       958  BGLCNA    C             -14.1347378213      -34.0139407911       81.3525086727  LPSA27    22             15.0000000000
     29635       958  BGLCNA    O             -14.5345244032      -35.0440352088       81.8755221236  LPSA27    22             15.0000000000
     29636       958  BGLCNA    CT            -14.9542190992      -32.7541429804       81.3922024231  LPSA27    22             15.0000000000
     29637       958  BGLCNA    HT1           -15.6624271682      -32.8040185058       80.5387602327  LPSA27    22             15.0000000000
     29638       958  BGLCNA    HT2           -14.2988176866      -31.8723834200       81.2709552541  LPSA27    22             15.0000000000
     29639       958  BGLCNA    HT3           -15.4993836412      -32.6717008334       82.3578950831  LPSA27    22             15.0000000000
     29640       958  BGLCNA    C3            -11.0180638498      -34.9833886012       81.6817342536  LPSA27    22             15.0000000000
     29641       958  BGLCNA    H3            -10.4312862126      -34.0347518565       81.6491328634  LPSA27    22             15.0000000000
     29642       958  BGLCNA    O3            -11.7928964797      -35.0205018833       82.8878212121  LPSA27    22             15.0000000000
     29643       958  BGLCNA    C4            -10.0553050451      -36.1174366534       81.4511410210  LPSA27    22             15.0000000000
     29644       958  BGLCNA    H4            -10.6290380513      -37.0691072407       81.4089688542  LPSA27    22             15.0000000000
     29645       958  BGLCNA    O4             -9.0924090367      -36.2424615570       82.4890269969  LPSA27    22             15.0000000000
     29646       958  BGLCNA    HO4            -8.9557380529      -37.1663113362       82.7159735286  LPSA27    22             15.0000000000
     29647       958  BGLCNA    C6             -8.3811853694      -36.9742839888       79.7718962357  LPSA27    22             15.0000000000
     29648       958  BGLCNA    H61            -7.8027687525      -37.2133726497       80.6895917587  LPSA27    22             15.0000000000
     29649       958  BGLCNA    H62            -8.9141234792      -37.8972637773       79.4510155707  LPSA27    22             15.0000000000
     29650       958  BGLCNA    O6             -7.4320760355      -36.5756164560       78.7801401490  LPSA27    22             15.0000000000
     29651       958  BGLCNA    HO6            -7.8712098115      -36.3127166812       77.9617342798  LPSA27    22             15.0000000000
     29652       959  AGAL      C1            -11.2016807048      -34.6039554538       84.0787740134  LPSA27    23             16.0000000000
     29653       959  AGAL      H1            -10.5281000590      -35.3985893462       84.3726856039  LPSA27    23             16.0000000000
     29654       959  AGAL      C5            -11.2748243288      -32.2503930618       83.7361794371  LPSA27    23             16.0000000000
     29655       959  AGAL      H5            -11.8697993516      -32.4684091122       82.8213609931  LPSA27    23             16.0000000000
     29656       959  AGAL      O5            -10.4433236926      -33.3942647989       83.9763817637  LPSA27    23             16.0000000000
     29657       959  AGAL      C2            -12.2277648317      -34.4725499389       85.1765715528  LPSA27    23             16.0000000000
     29658       959  AGAL      H2            -11.6626384679      -34.2012189137       86.0973439793  LPSA27    23             16.0000000000
     29659       959  AGAL      O2            -12.9389818860      -35.7061209043       85.4224637306  LPSA27    23             16.0000000000
     29660       959  AGAL      C3            -13.1190455071      -33.2859127299       84.8771287873  LPSA27    23             16.0000000000
     29661       959  AGAL      H3            -13.5463742679      -33.4078823239       83.8586469227  LPSA27    23             16.0000000000
     29662       959  AGAL      O3            -14.2285452916      -33.2275230723       85.7511869486  LPSA27    23             16.0000000000
     29663       959  AGAL      HO3           -13.9258391645      -33.3193183679       86.6518194249  LPSA27    23             16.0000000000
     29664       959  AGAL      C4            -12.2711886138      -32.0244168290       84.8664685506  LPSA27    23             16.0000000000
     29665       959  AGAL      H4            -12.8814985075      -31.1260252895       84.6257124165  LPSA27    23             16.0000000000
     29666       959  AGAL      O4            -11.6196219288      -31.7884658402       86.1118660625  LPSA27    23             16.0000000000
     29667       959  AGAL      HO4           -10.8064167459      -31.2971505768       85.8777839500  LPSA27    23             16.0000000000
     29668       959  AGAL      C6            -10.3993087150      -31.0860992381       83.3563873798  LPSA27    23             16.0000000000
     29669       959  AGAL      H61            -9.6979033959      -31.4906933512       82.6152925394  LPSA27    23             16.0000000000
     29670       959  AGAL      H62           -10.9669632540      -30.2968538107       82.8186531229  LPSA27    23             16.0000000000
     29671       959  AGAL      O6             -9.6981581131      -30.5186514308       84.4646490354  LPSA27    23             16.0000000000
     29672       959  AGAL      HO6            -9.0030042215      -29.9218842527       84.1484557459  LPSA27    23             16.0000000000
     29673       960  ARHM      C1            -12.3790279433      -36.6664092705       86.2943414422  LPSA27    24             17.0000000000
     29674       960  ARHM      H1            -11.3166217106      -36.4470632633       86.4291493231  LPSA27    24             17.0000000000
     29675       960  ARHM      C5            -13.7865743732      -38.4718572707       85.6386353090  LPSA27    24             17.0000000000
     29676       960  ARHM      H5            -14.2773037311      -37.7616875433       84.9360747813  LPSA27    24             17.0000000000
     29677       960  ARHM      O5            -12.4367445182      -38.0218432385       85.8204093400  LPSA27    24             17.0000000000
     29678       960  ARHM      C2            -13.0699329003      -36.5442217374       87.6161749563  LPSA27    24             17.0000000000
     29679       960  ARHM      H2            -13.0521372504      -35.4748213808       87.9368440526  LPSA27    24             17.0000000000
     29680       960  ARHM      O2            -12.4502910142      -37.3858216700       88.6020424226  LPSA27    24             17.0000000000
     29681       960  ARHM      C3            -14.5002722906      -36.9640742151       87.4289095622  LPSA27    24             17.0000000000
     29682       960  ARHM      H3            -14.9324815179      -36.3103231823       86.6305909081  LPSA27    24             17.0000000000
     29683       960  ARHM      O3            -15.2702266159      -36.7298736154       88.6024076814  LPSA27    24             17.0000000000
     29684       960  ARHM      HO3           -15.2128592965      -37.4965244681       89.1804139485  LPSA27    24             17.0000000000
     29685       960  ARHM      C4            -14.5356302201      -38.4087249596       86.9537520293  LPSA27    24             17.0000000000
     29686       960  ARHM      H4            -13.9986007625      -39.0542157031       87.6953830109  LPSA27    24             17.0000000000
     29687       960  ARHM      O4            -15.8673134496      -38.8975909008       86.7927112509  LPSA27    24             17.0000000000
     29688       960  ARHM      HO4           -15.9148942563      -39.8351245934       87.0181291116  LPSA27    24             17.0000000000
     29689       960  ARHM      C6            -13.8321662130      -39.8564716517       84.9611378311  LPSA27    24             17.0000000000
     29690       960  ARHM      H61           -14.7959573276      -39.9646266695       84.4158165966  LPSA27    24             17.0000000000
     29691       960  ARHM      H62           -13.0126009892      -39.9284482956       84.2188406337  LPSA27    24             17.0000000000
     29692       960  ARHM      H63           -13.7111124717      -40.6917953056       85.6802867443  LPSA27    24             17.0000000000
     29693       961  ARHM      C1            -11.2631020499      -36.8861252896       89.1436140679  LPSA27    25             18.0000000000
     29694       961  ARHM      H1            -10.8467626831      -36.1129891613       88.4638713937  LPSA27    25             18.0000000000
     29695       961  ARHM      C5            -10.5671076915      -38.8938961162       90.2141362243  LPSA27    25             18.0000000000
     29696       961  ARHM      H5            -11.4842514959      -39.4183125751       89.8531394794  LPSA27    25             18.0000000000
     29697       961  ARHM      O5            -10.2264214750      -37.8670619047       89.2692635066  LPSA27    25             18.0000000000
     29698       961  ARHM      C2            -11.5726976988      -36.2464484753       90.4601956307  LPSA27    25             18.0000000000
     29699       961  ARHM      H2            -12.4691394520      -35.5820383332       90.3607986948  LPSA27    25             18.0000000000
     29700       961  ARHM      O2            -10.4564594369      -35.4710263412       90.8969267087  LPSA27    25             18.0000000000
     29701       961  ARHM      C3            -11.9374004721      -37.3164103966       91.4540255300  LPSA27    25             18.0000000000
     29702       961  ARHM      H3            -12.8342372484      -37.8780267500       91.0835476414  LPSA27    25             18.0000000000
     29703       961  ARHM      O3            -12.1918468922      -36.6664979246       92.6974759668  LPSA27    25             18.0000000000
     29704       961  ARHM      C4            -10.8189683606      -38.3049062470       91.5879526731  LPSA27    25             18.0000000000
     29705       961  ARHM      H4             -9.8742293625      -37.7976451851       91.9054103721  LPSA27    25             18.0000000000
     29706       961  ARHM      O4            -11.1398105109      -39.3001873713       92.5650428358  LPSA27    25             18.0000000000
     29707       961  ARHM      HO4           -10.3385755359      -39.5228452389       93.0403169360  LPSA27    25             18.0000000000
     29708       961  ARHM      C6             -9.4436037150      -39.9231276239       90.2426841015  LPSA27    25             18.0000000000
     29709       961  ARHM      H61            -9.2214080276      -40.2114153569       89.1898217039  LPSA27    25             18.0000000000
     29710       961  ARHM      H62            -8.5034872960      -39.5465781523       90.6826919444  LPSA27    25             18.0000000000
     29711       961  ARHM      H63            -9.7879139219      -40.7993635186       90.8387579378  LPSA27    25             18.0000000000
     29712       962  BMANNA    C1            -10.3374615684      -34.2192505383       90.2747117028  LPSA27    26             19.0000000000
     29713       962  BMANNA    H1            -11.3109026205      -33.8875328024       89.8529990867  LPSA27    26             19.0000000000
     29714       962  BMANNA    C5             -9.3102590013      -32.8841026627       88.5877992509  LPSA27    26             19.0000000000
     29715       962  BMANNA    H5            -10.3196135215      -32.6511041776       88.1782833681  LPSA27    26             19.0000000000
     29716       962  BMANNA    O5             -9.3668358548      -34.1781347498       89.2166352802  LPSA27    26             19.0000000000
     29717       962  BMANNA    C2             -9.9321601603      -33.2614619259       91.3511437517  LPSA27    26             19.0000000000
     29718       962  BMANNA    H2            -10.7392631005      -33.3090523988       92.1304974260  LPSA27    26             19.0000000000
     29719       962  BMANNA    N              -8.6380965351      -33.6258121109       91.9301564595  LPSA27    26             19.0000000000
     29720       962  BMANNA    HN             -7.8858967578      -33.7452535476       91.2953965715  LPSA27    26             19.0000000000
     29721       962  BMANNA    C              -8.4076981038      -33.7945422442       93.2378368620  LPSA27    26             19.0000000000
     29722       962  BMANNA    O              -9.2999401737      -33.7850702392       94.0673434213  LPSA27    26             19.0000000000
     29723       962  BMANNA    CT             -6.9579438719      -33.9215085916       93.6553160955  LPSA27    26             19.0000000000
     29724       962  BMANNA    HT1            -6.3596484950      -34.3722698272       92.8369313023  LPSA27    26             19.0000000000
     29725       962  BMANNA    HT2            -6.8117306493      -34.5055693714       94.5895023723  LPSA27    26             19.0000000000
     29726       962  BMANNA    HT3            -6.5846849975      -32.8988312504       93.8531158313  LPSA27    26             19.0000000000
     29727       962  BMANNA    C3             -9.9522962212      -31.8766010601       90.7477317394  LPSA27    26             19.0000000000
     29728       962  BMANNA    H3            -10.9696932823      -31.6680486205       90.3274052443  LPSA27    26             19.0000000000
     29729       962  BMANNA    O3             -9.7270776180      -30.9003905087       91.7520191400  LPSA27    26             19.0000000000
     29730       962  BMANNA    HO3           -10.5076073171      -30.8450278589       92.3124763678  LPSA27    26             19.0000000000
     29731       962  BMANNA    C4             -8.9422552092      -31.8230737643       89.6176548226  LPSA27    26             19.0000000000
     29732       962  BMANNA    H4             -7.9170904641      -32.0275665992       89.9858897018  LPSA27    26             19.0000000000
     29733       962  BMANNA    O4             -8.9060107051      -30.5471715489       89.0098911179  LPSA27    26             19.0000000000
     29734       962  BMANNA    HO4            -8.3871391222      -29.9426635811       89.5576830998  LPSA27    26             19.0000000000
     29735       962  BMANNA    C6             -8.3625669153      -32.9988627442       87.3992612370  LPSA27    26             19.0000000000
     29736       962  BMANNA    H61            -8.5039111078      -33.9855766027       86.9086315728  LPSA27    26             19.0000000000
     29737       962  BMANNA    H62            -8.5945711331      -32.2237877226       86.6347819198  LPSA27    26             19.0000000000
     29738       962  BMANNA    O6             -6.9908232124      -32.8804615600       87.7738329907  LPSA27    26             19.0000000000
     29739       962  BMANNA    HO6            -6.8733896972      -32.0021987368       88.1440510729  LPSA27    26             19.0000000000
     29740       963  BGLCNA    C1            -13.2505342916      -37.1420743263       93.4622071073  LPSA27    27             19.0000000000
     29741       963  BGLCNA    H1            -13.3051824908      -38.2266523700       93.3651966261  LPSA27    27             19.0000000000
     29742       963  BGLCNA    C5            -15.5779942607      -36.9949208324       93.9115402264  LPSA27    27             19.0000000000
     29743       963  BGLCNA    H5            -15.6331340992      -38.0967710439       93.9092233175  LPSA27    27             19.0000000000
     29744       963  BGLCNA    O5            -14.4951956168      -36.5553167508       93.0754840730  LPSA27    27             19.0000000000
     29745       963  BGLCNA    C2            -12.9067772520      -36.6931845667       94.8704889257  LPSA27    27             19.0000000000
     29746       963  BGLCNA    H2            -12.8972989066      -35.5739822076       94.8419704859  LPSA27    27             19.0000000000
     29747       963  BGLCNA    N             -11.5853229532      -37.1523360038       95.2955289880  LPSA27    27             19.0000000000
     29748       963  BGLCNA    HN            -11.3552537939      -38.0918760905       95.0712551522  LPSA27    27             19.0000000000
     29749       963  BGLCNA    C             -10.7438272533      -36.3318028448       95.9700447730  LPSA27    27             19.0000000000
     29750       963  BGLCNA    O             -11.1352838162      -35.3192959646       96.5311171216  LPSA27    27             19.0000000000
     29751       963  BGLCNA    CT             -9.2827751772      -36.6880511621       96.0230292275  LPSA27    27             19.0000000000
     29752       963  BGLCNA    HT1            -9.0857191000      -37.5255921073       95.3384988632  LPSA27    27             19.0000000000
     29753       963  BGLCNA    HT2            -8.9621097609      -36.9405549740       97.0513352240  LPSA27    27             19.0000000000
     29754       963  BGLCNA    HT3            -8.6791164204      -35.8266692978       95.6744686206  LPSA27    27             19.0000000000
     29755       963  BGLCNA    C3            -13.9870659967      -37.1178554416       95.8237744005  LPSA27    27             19.0000000000
     29756       963  BGLCNA    H3            -14.0683436127      -38.2165646215       95.8062505262  LPSA27    27             19.0000000000
     29757       963  BGLCNA    O3            -13.5272278426      -36.6905382776       97.1262162611  LPSA27    27             19.0000000000
     29758       963  BGLCNA    C4            -15.3069521993      -36.5403442467       95.3446857168  LPSA27    27             19.0000000000
     29759       963  BGLCNA    H4            -15.2217508119      -35.4443142212       95.3920898085  LPSA27    27             19.0000000000
     29760       963  BGLCNA    O4            -16.3974388000      -36.9260545863       96.1578116412  LPSA27    27             19.0000000000
     29761       963  BGLCNA    HO4           -16.4994236539      -37.8782131935       96.0843471924  LPSA27    27             19.0000000000
     29762       963  BGLCNA    C6            -16.9205643634      -36.6550317279       93.3011346742  LPSA27    27             19.0000000000
     29763       963  BGLCNA    H61           -17.7057297792      -37.1921186620       93.8554296132  LPSA27    27             19.0000000000
     29764       963  BGLCNA    H62           -17.2035177672      -35.6129995273       93.3829340867  LPSA27    27             19.0000000000
     29765       963  BGLCNA    O6            -16.9775344373      -37.0116910100       91.9225806695  LPSA27    27             19.0000000000
     29766       963  BGLCNA    HO6           -17.7534120560      -36.6229073494       91.4987304765  LPSA27    27             19.0000000000
     29767       964  AGAL      C1            -14.1440802908      -37.2723110118       98.2419574944  LPSA27    28             20.0000000000
     29768       964  AGAL      H1            -15.1688360342      -36.8552955608       98.3252431698  LPSA27    28             20.0000000000
     29769       964  AGAL      C5            -12.9579765934      -39.3526607386       98.0917240087  LPSA27    28             20.0000000000
     29770       964  AGAL      H5            -12.2401311907      -38.8273794753       97.4095824185  LPSA27    28             20.0000000000
     29771       964  AGAL      O5            -14.2518138985      -38.7065558553       98.0408995393  LPSA27    28             20.0000000000
     29772       964  AGAL      C2            -13.4636160859      -36.9696175689       99.5921562935  LPSA27    28             20.0000000000
     29773       964  AGAL      H2            -14.2012155985      -37.4620618816      100.2706407744  LPSA27    28             20.0000000000
     29774       964  AGAL      O2            -13.4152057699      -35.6346350867      100.1015652284  LPSA27    28             20.0000000000
     29775       964  AGAL      C3            -12.0852678366      -37.6276352552       99.6458542328  LPSA27    28             20.0000000000
     29776       964  AGAL      H3            -11.4605983702      -37.2581914473       98.8136866242  LPSA27    28             20.0000000000
     29777       964  AGAL      O3            -11.3425402924      -37.3981413132      100.8492059641  LPSA27    28             20.0000000000
     29778       964  AGAL      HO3           -10.5138659717      -36.9755418229      100.6139153837  LPSA27    28             20.0000000000
     29779       964  AGAL      C4            -12.2949772996      -39.0753366346       99.4268350273  LPSA27    28             20.0000000000
     29780       964  AGAL      H4            -11.3274903848      -39.6337072925       99.5116192092  LPSA27    28             20.0000000000
     29781       964  AGAL      O4            -13.1721536497      -39.4133005558      100.4404140956  LPSA27    28             20.0000000000
     29782       964  AGAL      HO4           -12.6608134635      -40.0056354611      101.0234172263  LPSA27    28             20.0000000000
     29783       964  AGAL      C6            -12.9633536097      -40.8017502696       97.5177756211  LPSA27    28             20.0000000000
     29784       964  AGAL      H61           -13.0314428113      -40.6296175685       96.4419266288  LPSA27    28             20.0000000000
     29785       964  AGAL      H62           -12.0128907179      -41.3476043147       97.7506029358  LPSA27    28             20.0000000000
     29786       964  AGAL      O6            -14.0902603692      -41.6955027663       97.5806747001  LPSA27    28             20.0000000000
     29787       964  AGAL      HO6           -14.8938832894      -41.3261581605       97.9480289715  LPSA27    28             20.0000000000
     29788       965  ARHM      C1            -13.7301259380      -35.6416841813      101.4882624408  LPSA27    29             21.0000000000
     29789       965  ARHM      H1            -13.4742111485      -36.6163260910      101.9600543023  LPSA27    29             21.0000000000
     29790       965  ARHM      C5            -15.5257547967      -34.1377311625      101.1487448193  LPSA27    29             21.0000000000
     29791       965  ARHM      H5            -15.2541985640      -34.1368265751      100.0669916090  LPSA27    29             21.0000000000
     29792       965  ARHM      O5            -15.1209775050      -35.3891564228      101.7138511685  LPSA27    29             21.0000000000
     29793       965  ARHM      C2            -12.9218387149      -34.5879180422      102.1734695779  LPSA27    29             21.0000000000
     29794       965  ARHM      H2            -11.8482547135      -34.7703555843      101.9231095425  LPSA27    29             21.0000000000
     29795       965  ARHM      O2            -13.1338810363      -34.6453197131      103.6054949576  LPSA27    29             21.0000000000
     29796       965  ARHM      C3            -13.2964325699      -33.2434664677      101.6164432873  LPSA27    29             21.0000000000
     29797       965  ARHM      H3            -13.1033066895      -33.2292079590      100.5142319507  LPSA27    29             21.0000000000
     29798       965  ARHM      O3            -12.4728003120      -32.2404714196      102.1897118414  LPSA27    29             21.0000000000
     29799       965  ARHM      HO3           -13.0242546091      -31.4564637198      102.2352882000  LPSA27    29             21.0000000000
     29800       965  ARHM      C4            -14.7808787243      -32.9796522570      101.8261999351  LPSA27    29             21.0000000000
     29801       965  ARHM      H4            -15.0200247508      -32.9888118242      102.9144024720  LPSA27    29             21.0000000000
     29802       965  ARHM      O4            -15.1635714263      -31.6775029392      101.3713121341  LPSA27    29             21.0000000000
     29803       965  ARHM      HO4           -14.9267720004      -31.5279577420      100.4583719525  LPSA27    29             21.0000000000
     29804       965  ARHM      C6            -17.0524277476      -34.1696233685      101.2305786768  LPSA27    29             21.0000000000
     29805       965  ARHM      H61           -17.3925507153      -35.1291606214      100.7820902506  LPSA27    29             21.0000000000
     29806       965  ARHM      H62           -17.4040880786      -34.1252625130      102.2806110014  LPSA27    29             21.0000000000
     29807       965  ARHM      H63           -17.4813612946      -33.3363059299      100.6446137360  LPSA27    29             21.0000000000
     29808       966  ARHM      C1            -12.1715937861      -35.3381915926      104.3678427366  LPSA27    30             22.0000000000
     29809       966  ARHM      H1            -11.1548799648      -34.9323038049      104.1594264990  LPSA27    30             22.0000000000
     29810       966  ARHM      C5            -13.4405533151      -37.3470007146      104.4907149651  LPSA27    30             22.0000000000
     29811       966  ARHM      H5            -14.2218420549      -36.8093816376      103.9108196622  LPSA27    30             22.0000000000
     29812       966  ARHM      O5            -12.1776906406      -36.7576585829      104.1467503283  LPSA27    30             22.0000000000
     29813       966  ARHM      C2            -12.4941737772      -35.0995283917      105.8241914383  LPSA27    30             22.0000000000
     29814       966  ARHM      H2            -12.5238598570      -34.0035653219      106.0265650701  LPSA27    30             22.0000000000
     29815       966  ARHM      O2            -11.4883193361      -35.7441702810      106.6005230219  LPSA27    30             22.0000000000
     29816       966  ARHM      C3            -13.8214003561      -35.7067641625      106.2246526988  LPSA27    30             22.0000000000
     29817       966  ARHM      H3            -14.5784715195      -35.2912711957      105.5218419238  LPSA27    30             22.0000000000
     29818       966  ARHM      O3            -14.2165543121      -35.2895484012      107.5435231008  LPSA27    30             22.0000000000
     29819       966  ARHM      C4            -13.7623591484      -37.1896963352      105.9573649632  LPSA27    30             22.0000000000
     29820       966  ARHM      H4            -12.9562103181      -37.6782465528      106.5462010058  LPSA27    30             22.0000000000
     29821       966  ARHM      O4            -14.9413093029      -37.8960593829      106.3127049415  LPSA27    30             22.0000000000
     29822       966  ARHM      HO4           -15.6731528577      -37.7979627345      105.6917803829  LPSA27    30             22.0000000000
     29823       966  ARHM      C6            -13.4688787034      -38.8018984739      104.0478275782  LPSA27    30             22.0000000000
     29824       966  ARHM      H61           -14.4705252680      -39.2443167160      104.2361534959  LPSA27    30             22.0000000000
     29825       966  ARHM      H62           -13.2702637450      -38.8712849163      102.9670277190  LPSA27    30             22.0000000000
     29826       966  ARHM      H63           -12.6978076153      -39.3652870646      104.6130398285  LPSA27    30             22.0000000000
     29827       967  BMANNA    C1            -10.3809358521      -34.9601367353      106.8954896471  LPSA27    31             23.0000000000
     29828       967  BMANNA    H1            -10.7032837545      -33.9338493049      107.1605552128  LPSA27    31             23.0000000000
     29829       967  BMANNA    C5             -8.2192073722      -34.2117215715      106.2046590812  LPSA27    31             23.0000000000
     29830       967  BMANNA    H5             -8.6000949546      -33.2093121869      106.5055471801  LPSA27    31             23.0000000000
     29831       967  BMANNA    O5             -9.3953160292      -34.9676286075      105.8539190840  LPSA27    31             23.0000000000
     29832       967  BMANNA    C2             -9.7826154439      -35.6311908158      108.0825626907  LPSA27    31             23.0000000000
     29833       967  BMANNA    H2            -10.5323797150      -35.5375343302      108.9108140654  LPSA27    31             23.0000000000
     29834       967  BMANNA    N              -9.5646897576      -37.0418061161      107.8176061316  LPSA27    31             23.0000000000
     29835       967  BMANNA    HN             -9.5045276573      -37.3050050617      106.8541958541  LPSA27    31             23.0000000000
     29836       967  BMANNA    C              -9.5929444374      -37.9606606413      108.7769053514  LPSA27    31             23.0000000000
     29837       967  BMANNA    O              -9.8069841525      -37.6686819587      109.9438477993  LPSA27    31             23.0000000000
     29838       967  BMANNA    CT             -9.3216175118      -39.3658764898      108.3568788952  LPSA27    31             23.0000000000
     29839       967  BMANNA    HT1            -8.5008781016      -39.3320726323      107.6107004521  LPSA27    31             23.0000000000
     29840       967  BMANNA    HT2           -10.2384598052      -39.8004337067      107.9043177345  LPSA27    31             23.0000000000
     29841       967  BMANNA    HT3            -9.0091191282      -39.9911248185      109.2165270458  LPSA27    31             23.0000000000
     29842       967  BMANNA    C3             -8.5676894652      -34.8418182647      108.5010616227  LPSA27    31             23.0000000000
     29843       967  BMANNA    H3             -8.8648329450      -33.7800625204      108.6729538546  LPSA27    31             23.0000000000
     29844       967  BMANNA    O3             -8.0887799193      -35.2932150697      109.7430238698  LPSA27    31             23.0000000000
     29845       967  BMANNA    HO3            -8.8035593810      -35.8200457682      110.1264679942  LPSA27    31             23.0000000000
     29846       967  BMANNA    C4             -7.5351579447      -34.8314355959      107.4114724881  LPSA27    31             23.0000000000
     29847       967  BMANNA    H4             -7.2257330727      -35.8704409946      107.1319445689  LPSA27    31             23.0000000000
     29848       967  BMANNA    O4             -6.3661257960      -34.0994525384      107.7912119896  LPSA27    31             23.0000000000
     29849       967  BMANNA    HO4            -6.6107432000      -33.2694408381      108.2129023681  LPSA27    31             23.0000000000
     29850       967  BMANNA    C6             -7.2535420534      -34.0219550895      105.0463893326  LPSA27    31             23.0000000000
     29851       967  BMANNA    H61            -6.5043494718      -33.2419756438      105.3175180713  LPSA27    31             23.0000000000
     29852       967  BMANNA    H62            -6.6929641902      -34.9703658088      104.8773046684  LPSA27    31             23.0000000000
     29853       967  BMANNA    O6             -7.8863186498      -33.6732440718      103.8129087459  LPSA27    31             23.0000000000
     29854       967  BMANNA    HO6            -8.2232566466      -32.7695678290      103.7989457208  LPSA27    31             23.0000000000
     29855       968  BGLCNA    C1            -13.6772027319      -36.0269073593      108.6139681000  LPSA27    32             23.0000000000
     29856       968  BGLCNA    H1            -12.6269314625      -36.2885722428      108.4071812022  LPSA27    32             23.0000000000
     29857       968  BGLCNA    C5            -13.7194725822      -38.0213380666      109.9144797416  LPSA27    32             23.0000000000
     29858       968  BGLCNA    H5            -12.6760045721      -38.2202437072      109.5718149358  LPSA27    32             23.0000000000
     29859       968  BGLCNA    O5            -14.3687815773      -37.2415493529      108.9026741266  LPSA27    32             23.0000000000
     29860       968  BGLCNA    C2            -13.6839283733      -35.1648718888      109.8538411481  LPSA27    32             23.0000000000
     29861       968  BGLCNA    H2            -14.7608112383      -35.0515674764      110.1426937643  LPSA27    32             23.0000000000
     29862       968  BGLCNA    N             -13.1272283319      -33.8689465939      109.5765699799  LPSA27    32             23.0000000000
     29863       968  BGLCNA    HN            -12.4389563408      -33.8931337745      108.8706681992  LPSA27    32             23.0000000000
     29864       968  BGLCNA    C             -13.5344643411      -32.7035463024      110.0900172575  LPSA27    32             23.0000000000
     29865       968  BGLCNA    O             -14.4116322033      -32.5723608299      110.9264499887  LPSA27    32             23.0000000000
     29866       968  BGLCNA    CT            -12.7988538513      -31.5323625161      109.5426147970  LPSA27    32             23.0000000000
     29867       968  BGLCNA    HT1           -12.2915274363      -31.8307783195      108.6059339301  LPSA27    32             23.0000000000
     29868       968  BGLCNA    HT2           -12.0276862857      -31.1599244015      110.2492051070  LPSA27    32             23.0000000000
     29869       968  BGLCNA    HT3           -13.5094381062      -30.7078338124      109.3110470903  LPSA27    32             23.0000000000
     29870       968  BGLCNA    C3            -12.9117717821      -35.9135729970      110.9149388701  LPSA27    32             23.0000000000
     29871       968  BGLCNA    H3            -11.9317801151      -36.1938149644      110.4702765287  LPSA27    32             23.0000000000
     29872       968  BGLCNA    O3            -12.6623919996      -35.1319384453      112.0976317408  LPSA27    32             23.0000000000
     29873       968  BGLCNA    C4            -13.6628329338      -37.1878087951      111.1756695865  LPSA27    32             23.0000000000
     29874       968  BGLCNA    H4            -14.6881089137      -36.8626955654      111.4154708292  LPSA27    32             23.0000000000
     29875       968  BGLCNA    O4            -13.1333065374      -37.9485870612      112.2482912680  LPSA27    32             23.0000000000
     29876       968  BGLCNA    HO4           -13.4514481042      -37.6407087565      113.0963107236  LPSA27    32             23.0000000000
     29877       968  BGLCNA    C6            -14.4005869409      -39.3726358909      110.0553600992  LPSA27    32             23.0000000000
     29878       968  BGLCNA    H61           -13.8229852300      -40.0543035073      110.7182003542  LPSA27    32             23.0000000000
     29879       968  BGLCNA    H62           -15.4076131440      -39.2498562076      110.5073867121  LPSA27    32             23.0000000000
     29880       968  BGLCNA    O6            -14.5364614348      -40.0278323160      108.7968164352  LPSA27    32             23.0000000000
     29881       968  BGLCNA    HO6           -13.7614452353      -39.8441572166      108.2470117636  LPSA27    32             23.0000000000
     29882       969  AGAL      C1            -11.3920639465      -35.3932161662      112.6784460176  LPSA27    33             24.0000000000
     29883       969  AGAL      H1            -11.1522520600      -36.4744921687      112.6055707003  LPSA27    33             24.0000000000
     29884       969  AGAL      C5            -10.4807442794      -33.2265356304      112.2056624411  LPSA27    33             24.0000000000
     29885       969  AGAL      H5            -11.5110333686      -33.0246925816      111.8385948736  LPSA27    33             24.0000000000
     29886       969  AGAL      O5            -10.3251494117      -34.6513167077      112.0573183160  LPSA27    33             24.0000000000
     29887       969  AGAL      C2            -11.4183571867      -34.9903470444      114.1390553814  LPSA27    33             24.0000000000
     29888       969  AGAL      H2            -10.3881696552      -35.1513335541      114.5271622099  LPSA27    33             24.0000000000
     29889       969  AGAL      O2            -12.2654962179      -35.8954509399      114.8664202533  LPSA27    33             24.0000000000
     29890       969  AGAL      C3            -11.6666534220      -33.4921324591      114.2957945033  LPSA27    33             24.0000000000
     29891       969  AGAL      H3            -12.5864543558      -33.2023055951      113.7257600148  LPSA27    33             24.0000000000
     29892       969  AGAL      O3            -11.9560734009      -33.1019044670      115.6296209549  LPSA27    33             24.0000000000
     29893       969  AGAL      HO3           -11.2585134009      -33.3633769686      116.2328876269  LPSA27    33             24.0000000000
     29894       969  AGAL      C4            -10.5024924881      -32.7448317379      113.6491137839  LPSA27    33             24.0000000000
     29895       969  AGAL      H4            -10.7128389036      -31.6530238423      113.6572270694  LPSA27    33             24.0000000000
     29896       969  AGAL      O4             -9.2365163647      -32.8730956852      114.2882967457  LPSA27    33             24.0000000000
     29897       969  AGAL      HO4            -9.1243086697      -33.6341939296      114.8603729895  LPSA27    33             24.0000000000
     29898       969  AGAL      C6             -9.5725236775      -32.4508633244      111.2575693660  LPSA27    33             24.0000000000
     29899       969  AGAL      H61            -9.8763511945      -32.7440429404      110.2362753006  LPSA27    33             24.0000000000
     29900       969  AGAL      H62            -9.7359764951      -31.3553603272      111.3705774165  LPSA27    33             24.0000000000
     29901       969  AGAL      O6             -8.1672756161      -32.6648257542      111.3822916655  LPSA27    33             24.0000000000
     29902       969  AGAL      HO6            -7.8545820791      -33.4443408062      110.8971367217  LPSA27    33             24.0000000000
     29903       970  ARHM      C1            -11.6801538773      -36.3989351107      116.0564057142  LPSA27    34             25.0000000000
     29904       970  ARHM      H1            -11.2824252514      -35.5609428935      116.6538014729  LPSA27    34             25.0000000000
     29905       970  ARHM      C5            -10.8600179305      -38.4361922108      115.0938887311  LPSA27    34             25.0000000000
     29906       970  ARHM      H5            -11.2007442001      -38.1353622669      114.0770309366  LPSA27    34             25.0000000000
     29907       970  ARHM      O5            -10.5406442046      -37.2782418290      115.8608676883  LPSA27    34             25.0000000000
     29908       970  ARHM      C2            -12.7939879761      -37.0829546827      116.8438872884  LPSA27    34             25.0000000000
     29909       970  ARHM      H2            -13.6918148000      -36.4169623442      116.8862186708  LPSA27    34             25.0000000000
     29910       970  ARHM      O2            -12.4273361170      -37.4822513088      118.1837509631  LPSA27    34             25.0000000000
     29911       970  ARHM      C3            -13.2197116499      -38.2615454094      116.0466989855  LPSA27    34             25.0000000000
     29912       970  ARHM      H3            -13.5713171917      -37.9307852487      115.0347536195  LPSA27    34             25.0000000000
     29913       970  ARHM      O3            -14.3198585926      -39.0008464768      116.6297752499  LPSA27    34             25.0000000000
     29914       970  ARHM      HO3           -14.8852061435      -39.4241421672      115.9687454140  LPSA27    34             25.0000000000
     29915       970  ARHM      C4            -11.9884885192      -39.0794469337      115.8429384419  LPSA27    34             25.0000000000
     29916       970  ARHM      H4            -11.5998460222      -39.5708522307      116.7827393108  LPSA27    34             25.0000000000
     29917       970  ARHM      O4            -12.4700912704      -39.9699419068      114.9253638631  LPSA27    34             25.0000000000
     29918       970  ARHM      HO4           -12.8476948155      -40.6224872768      115.5399067206  LPSA27    34             25.0000000000
     29919       970  ARHM      C6             -9.6705501893      -39.4395017036      114.8508061138  LPSA27    34             25.0000000000
     29920       970  ARHM      H61            -9.2130129811      -39.7989014601      115.7918359568  LPSA27    34             25.0000000000
     29921       970  ARHM      H62           -10.0348313126      -40.3645365650      114.3492432745  LPSA27    34             25.0000000000
     29922       970  ARHM      H63            -8.8839172069      -39.0085694926      114.1954609153  LPSA27    34             25.0000000000
     29923       971  ARHM      C1            -12.0038166112      -36.4681987146      119.0679354044  LPSA27    35             26.0000000000
     29924       971  ARHM      H1            -12.5948874050      -35.5438636114      118.8731221781  LPSA27    35             26.0000000000
     29925       971  ARHM      C5             -9.7835111561      -37.3990262418      119.2100548371  LPSA27    35             26.0000000000
     29926       971  ARHM      H5            -10.0635338568      -38.2210150453      118.5105499604  LPSA27    35             26.0000000000
     29927       971  ARHM      O5            -10.5805906637      -36.2160302728      118.9631319455  LPSA27    35             26.0000000000
     29928       971  ARHM      C2            -12.2720642482      -36.9045836638      120.5007038753  LPSA27    35             26.0000000000
     29929       971  ARHM      H2            -13.3603834050      -37.1155287053      120.6455811588  LPSA27    35             26.0000000000
     29930       971  ARHM      O2            -11.8758207981      -35.8879282282      121.4319912337  LPSA27    35             26.0000000000
     29931       971  ARHM      C3            -11.4940215426      -38.1502823247      120.8236983806  LPSA27    35             26.0000000000
     29932       971  ARHM      H3            -11.7397939676      -38.9541407905      120.1065916106  LPSA27    35             26.0000000000
     29933       971  ARHM      O3            -11.8493847881      -38.6354310896      122.1150553972  LPSA27    35             26.0000000000
     29934       971  ARHM      HO3           -11.9812366798      -37.8969197955      122.7178330934  LPSA27    35             26.0000000000
     29935       971  ARHM      C4            -10.0126710277      -37.8874775056      120.6482682941  LPSA27    35             26.0000000000
     29936       971  ARHM      H4             -9.6830452736      -37.0866817554      121.3481946192  LPSA27    35             26.0000000000
     29937       971  ARHM      O4             -9.2351854862      -39.0556032504      120.9262165024  LPSA27    35             26.0000000000
     29938       971  ARHM      HO4            -9.7008196755      -39.8403696382      120.6027068164  LPSA27    35             26.0000000000
     29939       971  ARHM      C6             -8.3156989762      -37.0646120401      118.8647200195  LPSA27    35             26.0000000000
     29940       971  ARHM      H61            -8.1862909727      -36.8794249851      117.7753633917  LPSA27    35             26.0000000000
     29941       971  ARHM      H62            -7.9853551794      -36.1660433850      119.4231687362  LPSA27    35             26.0000000000
     29942       971  ARHM      H63            -7.6736245895      -37.9363364585      119.1075775816  LPSA27    35             26.0000000000
     29943       972  BMANNA    C1            -12.7276578547      -34.7803992035      121.4919856782  LPSA27    36             27.0000000000
     29944       972  BMANNA    H1            -13.7391239555      -35.0452423462      121.1393961192  LPSA27    36             27.0000000000
     29945       972  BMANNA    C5            -13.2358372402      -32.6339328365      120.7270953091  LPSA27    36             27.0000000000
     29946       972  BMANNA    H5            -14.2505025434      -32.9846411430      120.4425780815  LPSA27    36             27.0000000000
     29947       972  BMANNA    O5            -12.3081952701      -33.7262544250      120.6473609177  LPSA27    36             27.0000000000
     29948       972  BMANNA    C2            -12.7291089355      -34.3059142388      122.9367558214  LPSA27    36             27.0000000000
     29949       972  BMANNA    H2            -13.1628633495      -35.1690022948      123.4982441028  LPSA27    36             27.0000000000
     29950       972  BMANNA    N             -11.4196132704      -33.9958580471      123.4846984407  LPSA27    36             27.0000000000
     29951       972  BMANNA    HN            -10.7907982032      -33.5426509445      122.8579426267  LPSA27    36             27.0000000000
     29952       972  BMANNA    C             -11.1575602483      -34.1014559355      124.8071326876  LPSA27    36             27.0000000000
     29953       972  BMANNA    O             -11.9360489007      -34.6315789593      125.5840606968  LPSA27    36             27.0000000000
     29954       972  BMANNA    CT             -9.8768119345      -33.5322658454      125.3347208441  LPSA27    36             27.0000000000
     29955       972  BMANNA    HT1            -9.6904739080      -32.5430820694      124.8738470121  LPSA27    36             27.0000000000
     29956       972  BMANNA    HT2            -9.0319173731      -34.2146301345      125.1432861577  LPSA27    36             27.0000000000
     29957       972  BMANNA    HT3            -9.9665552591      -33.4112793945      126.4366513586  LPSA27    36             27.0000000000
     29958       972  BMANNA    C3            -13.6854978234      -33.1444779627      123.0681561636  LPSA27    36             27.0000000000
     29959       972  BMANNA    H3            -14.6600935503      -33.4565400698      122.7431642977  LPSA27    36             27.0000000000
     29960       972  BMANNA    O3            -13.8926536814      -32.7111131322      124.4137524399  LPSA27    36             27.0000000000
     29961       972  BMANNA    HO3           -14.8058120768      -32.8151570511      124.6873155184  LPSA27    36             27.0000000000
     29962       972  BMANNA    C4            -13.2796011974      -32.0446192515      122.1436030900  LPSA27    36             27.0000000000
     29963       972  BMANNA    H4            -12.2966549671      -31.6362712602      122.4596811543  LPSA27    36             27.0000000000
     29964       972  BMANNA    O4            -14.2033478062      -30.9768813735      122.2327850792  LPSA27    36             27.0000000000
     29965       972  BMANNA    HO4           -14.2337728105      -30.7690734092      123.1791845093  LPSA27    36             27.0000000000
     29966       972  BMANNA    C6            -12.8511435370      -31.6606718457      119.7100863261  LPSA27    36             27.0000000000
     29967       972  BMANNA    H61           -12.7656222230      -32.0079218092      118.6641370315  LPSA27    36             27.0000000000
     29968       972  BMANNA    H62           -13.7247840473      -30.9780138876      119.6448256538  LPSA27    36             27.0000000000
     29969       972  BMANNA    O6            -11.6112627592      -31.1402539730      120.1817879168  LPSA27    36             27.0000000000
     29970       972  BMANNA    HO6           -11.7225344256      -30.2612998770      120.5921567648  LPSA27    36             27.0000000000
     29971       973  ECLIPA    HB6S           34.7568188167       20.1766070383       20.4214100148  LPSA28    1               0.0000000000
     29972       973  ECLIPA    OB6            33.3759948927       19.3639951461       21.7178206713  LPSA28    1               0.0000000000
     29973       973  ECLIPA    CB6            34.3763157427       19.1710958722       20.6983962199  LPSA28    1               0.0000000000
     29974       973  ECLIPA    HB6R           35.2314968195       18.5805720193       21.0994127051  LPSA28    1               0.0000000000
     29975       973  ECLIPA    CB5            33.8929057114       18.4641092162       19.4347041918  LPSA28    1               0.0000000000
     29976       973  ECLIPA    OB5            32.7720535200       19.2291765035       18.9579613922  LPSA28    1               0.0000000000
     29977       973  ECLIPA    HB5            33.5749697501       17.4390114286       19.7412702370  LPSA28    1               0.0000000000
     29978       973  ECLIPA    CB1            32.1875651227       18.6534456467       17.7876448941  LPSA28    1               0.0000000000
     29979       973  ECLIPA    HB1            31.8629309318       17.6018617531       17.9667562208  LPSA28    1               0.0000000000
     29980       973  ECLIPA    OA6            31.0574777630       19.3522327549       17.3582818419  LPSA28    1               0.0000000000
     29981       973  ECLIPA    CA6            31.0983294536       20.7621793298       17.6079610974  LPSA28    1               0.0000000000
     29982       973  ECLIPA    HA6R           32.1218342726       21.1681719973       17.7759486222  LPSA28    1               0.0000000000
     29983       973  ECLIPA    HA6S           30.4259883259       21.0011676620       18.4641709461  LPSA28    1               0.0000000000
     29984       973  ECLIPA    CB4            34.9629834043       18.3596652947       18.3272114180  LPSA28    1               0.0000000000
     29985       973  ECLIPA    HB4            35.3673422165       19.3659478790       18.0480768588  LPSA28    1               0.0000000000
     29986       973  ECLIPA    OB4            35.9677035955       17.4702449171       18.8291460483  LPSA28    1               0.0000000000
     29987       973  ECLIPA    PB             37.4464383806       18.0630988405       19.3036446736  LPSA28    1               0.0000000000
     29988       973  ECLIPA    OPB4           37.8877913067       17.2354268045       20.5237123066  LPSA28    1               0.0000000000
     29989       973  ECLIPA    OPB3           37.1449074738       19.5153185844       19.6796531751  LPSA28    1               0.0000000000
     29990       973  ECLIPA    OPB2           38.2858295814       17.9537030683       18.0370043472  LPSA28    1               0.0000000000
     29991       973  ECLIPA    CB3            34.3413588505       17.7587210141       17.0822364796  LPSA28    1               0.0000000000
     29992       973  ECLIPA    OB3            35.2034178787       17.6997426551       15.9392009734  LPSA28    1               0.0000000000
     29993       973  ECLIPA    HB3            33.9028470328       16.7603485861       17.3346860342  LPSA28    1               0.0000000000
     29994       973  ECLIPA    C71            36.0073344242       16.6390206280       15.7980539096  LPSA28    1               0.0000000000
     29995       973  ECLIPA    O71            35.7123604143       15.5401226739       16.2496500373  LPSA28    1               0.0000000000
     29996       973  ECLIPA    C72            36.6581698937       16.7876403989       14.3883433870  LPSA28    1               0.0000000000
     29997       973  ECLIPA    H72R           35.8868553865       16.9596472842       13.6080150894  LPSA28    1               0.0000000000
     29998       973  ECLIPA    H72S           37.1995390799       15.8474464857       14.1773731170  LPSA28    1               0.0000000000
     29999       973  ECLIPA    CB2            33.1823177738       18.6399032540       16.6638650944  LPSA28    1               0.0000000000
     30000       973  ECLIPA    HB2            33.5712922143       19.6873954260       16.5127801511  LPSA28    1               0.0000000000
     30001       973  ECLIPA    NB2            32.5549035092       18.1413569789       15.4479178376  LPSA28    1               0.0000000000
     30002       973  ECLIPA    HNB2           31.8302724488       17.4753135754       15.5732815248  LPSA28    1               0.0000000000
     30003       973  ECLIPA    CA4            29.4341634763       20.7183401122       15.8277344267  LPSA28    1               0.0000000000
     30004       973  ECLIPA    HA4            29.6931093215       19.6607923945       15.6178422192  LPSA28    1               0.0000000000
     30005       973  ECLIPA    OA4            28.4115584085       20.8190225325       16.8191688133  LPSA28    1               0.0000000000
     30006       973  ECLIPA    HOA4           28.7019517425       20.4261102815       17.6452304303  LPSA28    1               0.0000000000
     30007       973  ECLIPA    CA5            30.6025730399       21.3840186624       16.3679739712  LPSA28    1               0.0000000000
     30008       973  ECLIPA    HA5            30.4145144252       22.4968184625       16.5547143472  LPSA28    1               0.0000000000
     30009       973  ECLIPA    OA5            31.6090224578       21.1595704805       15.3867858809  LPSA28    1               0.0000000000
     30010       973  ECLIPA    CA1            31.3107770652       21.7846370104       14.1523829887  LPSA28    1               0.0000000000
     30011       973  ECLIPA    HA1            32.0275715364       21.4522656120       13.3974901979  LPSA28    1               0.0000000000
     30012       973  ECLIPA    OA1            31.7546481940       23.0218305944       14.3011066569  LPSA28    1               0.0000000000
     30013       973  ECLIPA    OPA2           32.6864584576       24.2165329314       16.3272719271  LPSA28    1               0.0000000000
     30014       973  ECLIPA    OPA3           34.2076610618       22.5269642104       15.3239984297  LPSA28    1               0.0000000000
     30015       973  ECLIPA    OPA4           33.4893449054       24.2111492103       13.7914020119  LPSA28    1               0.0000000000
     30016       973  ECLIPA    PA             33.1475293881       23.4846222465       15.0401013624  LPSA28    1               0.0000000000
     30017       973  ECLIPA    CA3            29.1498994474       21.3507922495       14.5188548531  LPSA28    1               0.0000000000
     30018       973  ECLIPA    HA3            29.0759838626       22.3796644494       14.9174442868  LPSA28    1               0.0000000000
     30019       973  ECLIPA    OA3            28.1343670765       20.4023558152       14.3287665992  LPSA28    1               0.0000000000
     30020       973  ECLIPA    C31            27.9116296876       19.4495296502       13.4710014082  LPSA28    1               0.0000000000
     30021       973  ECLIPA    O31            27.8269274966       19.5513372027       12.2592171663  LPSA28    1               0.0000000000
     30022       973  ECLIPA    C32            27.1391213228       18.3903346624       14.2601412272  LPSA28    1               0.0000000000
     30023       973  ECLIPA    H32R           26.2290298533       18.1071998530       13.6900722697  LPSA28    1               0.0000000000
     30024       973  ECLIPA    H32S           26.8745142892       18.7712936201       15.2725910612  LPSA28    1               0.0000000000
     30025       973  ECLIPA    CA2            30.0927165743       21.2512650105       13.4705646080  LPSA28    1               0.0000000000
     30026       973  ECLIPA    HA2            30.2813193085       20.1930800157       13.2493952293  LPSA28    1               0.0000000000
     30027       973  ECLIPA    NA2            29.6213520126       21.9776153143       12.2478352426  LPSA28    1               0.0000000000
     30028       973  ECLIPA    HNA2           28.6427978323       22.1966644784       12.1206724538  LPSA28    1               0.0000000000
     30029       973  ECLIPA    C73            37.6231169551       17.9940983698       14.3539002876  LPSA28    1               0.0000000000
     30030       973  ECLIPA    H73R           38.2524837900       17.9491744818       15.2813993847  LPSA28    1               0.0000000000
     30031       973  ECLIPA    O73            36.8025225753       19.1551867477       14.2803031008  LPSA28    1               0.0000000000
     30032       973  ECLIPA    C81            37.2017091837       20.2487722475       14.9281354778  LPSA28    1               0.0000000000
     30033       973  ECLIPA    O81            38.2422088567       20.3573842951       15.5410004970  LPSA28    1               0.0000000000
     30034       973  ECLIPA    C82            36.4695549862       21.4268177856       14.3126382384  LPSA28    1               0.0000000000
     30035       973  ECLIPA    H82R           36.6978404302       22.3637601544       14.8657600805  LPSA28    1               0.0000000000
     30036       973  ECLIPA    H82S           35.4216750592       21.1431923878       14.4887281479  LPSA28    1               0.0000000000
     30037       973  ECLIPA    C83            36.6067745755       21.6062129038       12.7890891275  LPSA28    1               0.0000000000
     30038       973  ECLIPA    H83R           35.9061303286       20.8984187488       12.2868989649  LPSA28    1               0.0000000000
     30039       973  ECLIPA    H83S           37.6425211789       21.3445848707       12.5203489767  LPSA28    1               0.0000000000
     30040       973  ECLIPA    C84            36.2314579231       23.0097042168       12.2849472845  LPSA28    1               0.0000000000
     30041       973  ECLIPA    H84R           36.9709824274       23.7689491241       12.6052194445  LPSA28    1               0.0000000000
     30042       973  ECLIPA    H84S           35.2510613594       23.2602550449       12.7572335821  LPSA28    1               0.0000000000
     30043       973  ECLIPA    C85            36.0077824501       23.0390378721       10.7675246883  LPSA28    1               0.0000000000
     30044       973  ECLIPA    H85R           35.4238482184       22.1158721346       10.5471491491  LPSA28    1               0.0000000000
     30045       973  ECLIPA    H85S           36.9726142615       22.9474585095       10.2311231626  LPSA28    1               0.0000000000
     30046       973  ECLIPA    C86            35.1388217230       24.2175386032       10.2908183028  LPSA28    1               0.0000000000
     30047       973  ECLIPA    H86R           35.7617177598       25.0918970153        9.9935890862  LPSA28    1               0.0000000000
     30048       973  ECLIPA    H86S           34.4855230690       24.5441405719       11.1345505190  LPSA28    1               0.0000000000
     30049       973  ECLIPA    C87            34.1661227290       23.8171381226        9.1758704273  LPSA28    1               0.0000000000
     30050       973  ECLIPA    H87R           33.6743137870       24.7433866979        8.8290506919  LPSA28    1               0.0000000000
     30051       973  ECLIPA    H87S           33.3754791569       23.1448800220        9.5815736738  LPSA28    1               0.0000000000
     30052       973  ECLIPA    C88            34.8532479806       23.0566152517        8.0490748221  LPSA28    1               0.0000000000
     30053       973  ECLIPA    H88R           35.0674683219       22.0209237911        8.3657071121  LPSA28    1               0.0000000000
     30054       973  ECLIPA    H88S           35.8545947867       23.5243813295        7.8961829172  LPSA28    1               0.0000000000
     30055       973  ECLIPA    C89            34.0508611159       23.0040380113        6.7551286860  LPSA28    1               0.0000000000
     30056       973  ECLIPA    H89R           32.9686058089       23.2390374845        6.8857750860  LPSA28    1               0.0000000000
     30057       973  ECLIPA    H89S           34.0778879948       22.0017226520        6.2773892001  LPSA28    1               0.0000000000
     30058       973  ECLIPA    C810           34.7776252688       23.9260761320        5.8129626728  LPSA28    1               0.0000000000
     30059       973  ECLIPA    H810R          35.8545230307       23.9619797958        5.9699151740  LPSA28    1               0.0000000000
     30060       973  ECLIPA    H810S          34.5973367188       24.9554704826        6.1243690936  LPSA28    1               0.0000000000
     30061       973  ECLIPA    C811           34.5386347483       23.5728189447        4.3815806081  LPSA28    1               0.0000000000
     30062       973  ECLIPA    H811R          34.6913322094       24.5099848742        3.7804146490  LPSA28    1               0.0000000000
     30063       973  ECLIPA    H811S          33.4845914938       23.1935136779        4.2503976037  LPSA28    1               0.0000000000
     30064       973  ECLIPA    C812           35.4719761897       22.4735290675        3.8546008756  LPSA28    1               0.0000000000
     30065       973  ECLIPA    H812R          35.2533717061       22.0962546950        2.8445348760  LPSA28    1               0.0000000000
     30066       973  ECLIPA    H812S          35.3652352522       21.5857481966        4.4877179512  LPSA28    1               0.0000000000
     30067       973  ECLIPA    C813           36.9155812757       22.8770045815        3.7159793544  LPSA28    1               0.0000000000
     30068       973  ECLIPA    H813R          36.9600467504       23.7151589940        2.9767593084  LPSA28    1               0.0000000000
     30069       973  ECLIPA    H813S          37.3085996278       23.2526044860        4.6747743362  LPSA28    1               0.0000000000
     30070       973  ECLIPA    C814           37.7448217625       21.6731217621        3.2683516774  LPSA28    1               0.0000000000
     30071       973  ECLIPA    H814R          37.3242040864       21.2140853488        2.3364237511  LPSA28    1               0.0000000000
     30072       973  ECLIPA    H814S          37.8413907989       20.8990038762        4.0279498639  LPSA28    1               0.0000000000
     30073       973  ECLIPA    H814T          38.7613154914       22.0417845553        3.0066901270  LPSA28    1               0.0000000000
     30074       973  ECLIPA    C74            38.5739294103       18.0818700811       13.1278528898  LPSA28    1               0.0000000000
     30075       973  ECLIPA    H74R           39.3297276497       17.2983216893       13.0403146045  LPSA28    1               0.0000000000
     30076       973  ECLIPA    H74S           39.2102538517       18.9731698079       13.3242326416  LPSA28    1               0.0000000000
     30077       973  ECLIPA    C75            37.8576647264       18.3087374833       11.7757968792  LPSA28    1               0.0000000000
     30078       973  ECLIPA    H75R           38.5207586471       18.9747372351       11.1820944146  LPSA28    1               0.0000000000
     30079       973  ECLIPA    H75S           36.9165575145       18.8680659347       11.9714587243  LPSA28    1               0.0000000000
     30080       973  ECLIPA    C76            37.4817353674       17.0636001494       10.9510188560  LPSA28    1               0.0000000000
     30081       973  ECLIPA    H76R           36.5818849069       16.5823258146       11.3801122043  LPSA28    1               0.0000000000
     30082       973  ECLIPA    H76S           38.2357861779       16.2666009087       10.9942285093  LPSA28    1               0.0000000000
     30083       973  ECLIPA    C77            37.2491796495       17.3335287587        9.4521106258  LPSA28    1               0.0000000000
     30084       973  ECLIPA    H77R           38.1910074039       17.7030010864        8.9957895078  LPSA28    1               0.0000000000
     30085       973  ECLIPA    H77S           36.5045484409       18.1298450499        9.3030249324  LPSA28    1               0.0000000000
     30086       973  ECLIPA    C78            36.6975461467       16.0549811911        8.7991096977  LPSA28    1               0.0000000000
     30087       973  ECLIPA    H78R           37.3729163234       15.2143184857        9.0656065779  LPSA28    1               0.0000000000
     30088       973  ECLIPA    H78S           35.7434963068       15.8582173208        9.3283203182  LPSA28    1               0.0000000000
     30089       973  ECLIPA    C79            36.3522029567       16.0968692338        7.2945036423  LPSA28    1               0.0000000000
     30090       973  ECLIPA    H79R           35.2743919770       16.3540600548        7.1739107499  LPSA28    1               0.0000000000
     30091       973  ECLIPA    H79S           36.5039700933       15.0952158115        6.8328196166  LPSA28    1               0.0000000000
     30092       973  ECLIPA    C710           37.1926964836       17.0490684090        6.4570572802  LPSA28    1               0.0000000000
     30093       973  ECLIPA    H710R          37.1621503346       18.0761530788        6.8696904937  LPSA28    1               0.0000000000
     30094       973  ECLIPA    H710S          38.2359076611       16.6915915746        6.4880692850  LPSA28    1               0.0000000000
     30095       973  ECLIPA    C711           36.7669249860       17.1184755491        4.9984281261  LPSA28    1               0.0000000000
     30096       973  ECLIPA    H711R          36.8277643508       16.0985509618        4.5532657808  LPSA28    1               0.0000000000
     30097       973  ECLIPA    H711S          35.7187793543       17.4878600751        4.9235770402  LPSA28    1               0.0000000000
     30098       973  ECLIPA    C712           37.6730845086       18.1058610951        4.2686963762  LPSA28    1               0.0000000000
     30099       973  ECLIPA    H712R          38.7093633546       17.6940606307        4.2630544894  LPSA28    1               0.0000000000
     30100       973  ECLIPA    H712S          37.6812912109       19.0490093831        4.8484090596  LPSA28    1               0.0000000000
     30101       973  ECLIPA    C713           37.1693723941       18.3596970520        2.8679189393  LPSA28    1               0.0000000000
     30102       973  ECLIPA    H713R          36.1827259338       18.8717741164        2.8780789679  LPSA28    1               0.0000000000
     30103       973  ECLIPA    H713S          37.8815543276       19.0368879181        2.3179041828  LPSA28    1               0.0000000000
     30104       973  ECLIPA    C714           37.0088270203       17.0198211503        2.1698491562  LPSA28    1               0.0000000000
     30105       973  ECLIPA    H714R          38.0361436769       16.6007499759        2.0209392082  LPSA28    1               0.0000000000
     30106       973  ECLIPA    H714S          36.3603704193       16.2260207697        2.5130841110  LPSA28    1               0.0000000000
     30107       973  ECLIPA    H714T          36.4736745463       17.2080706651        1.2222819894  LPSA28    1               0.0000000000
     30108       973  ECLIPA    C51            32.9857361690       18.4924705940       14.2311748251  LPSA28    1               0.0000000000
     30109       973  ECLIPA    O51            33.7465623497       19.4168991319       14.0617695847  LPSA28    1               0.0000000000
     30110       973  ECLIPA    C52            32.5721548998       17.6493794716       13.0585965849  LPSA28    1               0.0000000000
     30111       973  ECLIPA    H52R           33.3564535325       16.8882826777       12.9295488510  LPSA28    1               0.0000000000
     30112       973  ECLIPA    H52S           31.6032303588       17.1781296129       13.2542429281  LPSA28    1               0.0000000000
     30113       973  ECLIPA    C53            32.5513405241       18.4637894398       11.7534464287  LPSA28    1               0.0000000000
     30114       973  ECLIPA    H53R           32.2200270787       19.5051350983       11.9755124582  LPSA28    1               0.0000000000
     30115       973  ECLIPA    O53            31.6896799273       17.7850942333       10.8293343901  LPSA28    1               0.0000000000
     30116       973  ECLIPA    C61            30.5299403780       18.3470985801       10.5060765419  LPSA28    1               0.0000000000
     30117       973  ECLIPA    O61            30.1510721566       19.4418284335       10.8398861454  LPSA28    1               0.0000000000
     30118       973  ECLIPA    C62            29.7329373995       17.4032477363        9.5841601102  LPSA28    1               0.0000000000
     30119       973  ECLIPA    H62R           29.1905981487       16.6633473907       10.2032544113  LPSA28    1               0.0000000000
     30120       973  ECLIPA    H62S           30.4857356525       16.8372809955        9.0042406883  LPSA28    1               0.0000000000
     30121       973  ECLIPA    C63            28.7217529357       18.1875758567        8.7007026438  LPSA28    1               0.0000000000
     30122       973  ECLIPA    H63R           29.2544399692       19.0606658477        8.2697542150  LPSA28    1               0.0000000000
     30123       973  ECLIPA    H63S           27.8847367561       18.5749855993        9.3284897712  LPSA28    1               0.0000000000
     30124       973  ECLIPA    C64            28.1292071298       17.4164301223        7.5082134786  LPSA28    1               0.0000000000
     30125       973  ECLIPA    H64R           27.3760013195       18.0505117573        6.9862170446  LPSA28    1               0.0000000000
     30126       973  ECLIPA    H64S           27.6163354196       16.5220684415        7.9222960991  LPSA28    1               0.0000000000
     30127       973  ECLIPA    C65            29.2339922603       17.0039645644        6.5306434749  LPSA28    1               0.0000000000
     30128       973  ECLIPA    H65R           29.8920987807       16.3430658767        7.1368722558  LPSA28    1               0.0000000000
     30129       973  ECLIPA    H65S           29.8257732411       17.8915635638        6.2169473505  LPSA28    1               0.0000000000
     30130       973  ECLIPA    C66            28.8386534603       16.2115852763        5.2716846509  LPSA28    1               0.0000000000
     30131       973  ECLIPA    H66R           28.2944211832       15.2899529053        5.5563446844  LPSA28    1               0.0000000000
     30132       973  ECLIPA    H66S           29.8089896662       15.9253952596        4.7953478400  LPSA28    1               0.0000000000
     30133       973  ECLIPA    C67            28.0312773853       16.9309680624        4.1930077106  LPSA28    1               0.0000000000
     30134       973  ECLIPA    H67R           27.1053262140       17.4146769014        4.5805739480  LPSA28    1               0.0000000000
     30135       973  ECLIPA    H67S           27.7322838702       16.2255242281        3.3783413982  LPSA28    1               0.0000000000
     30136       973  ECLIPA    C68            28.7952371202       18.0600286131        3.5780116164  LPSA28    1               0.0000000000
     30137       973  ECLIPA    H68R           29.7866759180       17.8241664784        3.1427720335  LPSA28    1               0.0000000000
     30138       973  ECLIPA    H68S           28.9105684824       18.8708753491        4.3221341919  LPSA28    1               0.0000000000
     30139       973  ECLIPA    C69            28.0252052563       18.5184633625        2.4204830325  LPSA28    1               0.0000000000
     30140       973  ECLIPA    H69R           26.9159447091       18.4568248393        2.4404768261  LPSA28    1               0.0000000000
     30141       973  ECLIPA    H69S           28.2818816922       17.7719718748        1.6549195978  LPSA28    1               0.0000000000
     30142       973  ECLIPA    C610           28.4958874987       19.8921232760        2.1379107739  LPSA28    1               0.0000000000
     30143       973  ECLIPA    H610R          29.5615504603       20.1604168395        2.1687984489  LPSA28    1               0.0000000000
     30144       973  ECLIPA    H610S          27.9593322106       20.6570040719        2.7445641980  LPSA28    1               0.0000000000
     30145       973  ECLIPA    C611           28.1715776219       19.9197630286        0.7390984278  LPSA28    1               0.0000000000
     30146       973  ECLIPA    H611R          27.1198646286       19.6269731761        0.7442848597  LPSA28    1               0.0000000000
     30147       973  ECLIPA    H611S          28.3038518126       21.0541520351        0.5908546719  LPSA28    1               0.0000000000
     30148       973  ECLIPA    C612           28.6144225447       18.8333649907       -0.2946521067  LPSA28    1               0.0000000000
     30149       973  ECLIPA    H612R          29.6093907684       18.8849300689       -0.7147352381  LPSA28    1               0.0000000000
     30150       973  ECLIPA    H612S          28.4298798350       17.8000943692       -0.1914770071  LPSA28    1               0.0000000000
     30151       973  ECLIPA    H612T          28.1852523033       19.0997205691       -1.2295074251  LPSA28    1               0.0000000000
     30152       973  ECLIPA    C54            33.9877646191       18.4714869569       11.1714123333  LPSA28    1               0.0000000000
     30153       973  ECLIPA    H54R           34.2372528966       17.4263481457       10.8825141345  LPSA28    1               0.0000000000
     30154       973  ECLIPA    H54S           34.6834281566       18.7783993130       11.9783522216  LPSA28    1               0.0000000000
     30155       973  ECLIPA    C55            34.2261876704       19.3997121985        9.9740811911  LPSA28    1               0.0000000000
     30156       973  ECLIPA    H55R           35.3138157762       19.5632858986        9.8258998634  LPSA28    1               0.0000000000
     30157       973  ECLIPA    H55S           33.7979980605       20.3992034180       10.2054424604  LPSA28    1               0.0000000000
     30158       973  ECLIPA    C56            33.6621331327       18.7742254898        8.7038225059  LPSA28    1               0.0000000000
     30159       973  ECLIPA    H56R           32.5918102727       18.5374830494        8.8582071716  LPSA28    1               0.0000000000
     30160       973  ECLIPA    H56S           34.1704524976       17.8010860300        8.4968653434  LPSA28    1               0.0000000000
     30161       973  ECLIPA    C57            33.6879811721       19.6711253793        7.4785948200  LPSA28    1               0.0000000000
     30162       973  ECLIPA    H57R           34.7174752070       19.9959753642        7.2066216634  LPSA28    1               0.0000000000
     30163       973  ECLIPA    H57S           33.0221170882       20.5473573276        7.6038926950  LPSA28    1               0.0000000000
     30164       973  ECLIPA    C58            33.1285286409       18.8835043424        6.3381723674  LPSA28    1               0.0000000000
     30165       973  ECLIPA    H58R           33.8064344290       18.0122174850        6.2460069533  LPSA28    1               0.0000000000
     30166       973  ECLIPA    H58S           32.0740744280       18.5421765568        6.5105314536  LPSA28    1               0.0000000000
     30167       973  ECLIPA    C59            33.2923019646       19.5178454324        4.9961669745  LPSA28    1               0.0000000000
     30168       973  ECLIPA    H59R           34.3749043310       19.6181454927        4.7241391213  LPSA28    1               0.0000000000
     30169       973  ECLIPA    H59S           32.7829670017       20.4898156639        4.9707008785  LPSA28    1               0.0000000000
     30170       973  ECLIPA    C510           32.7122095802       18.4935853286        4.1512614236  LPSA28    1               0.0000000000
     30171       973  ECLIPA    H510R          31.5368856227       18.1959979020        4.0136638588  LPSA28    1               0.0000000000
     30172       973  ECLIPA    H510S          33.8910034619       18.1892810890        3.5319406849  LPSA28    1               0.0000000000
     30173       973  ECLIPA    C511           33.0452039822       18.0272910434        3.0762727175  LPSA28    1               0.0000000000
     30174       973  ECLIPA    H511R          32.5316367274       19.1510246806        2.9127712203  LPSA28    1               0.0000000000
     30175       973  ECLIPA    H511S          32.8539664716       17.1894620657        4.1626167555  LPSA28    1               0.0000000000
     30176       973  ECLIPA    C512           32.9378509147       18.2946039321        1.5299350755  LPSA28    1               0.0000000000
     30177       973  ECLIPA    H512R          33.3281190560       19.0574464907        0.8086846017  LPSA28    1               0.0000000000
     30178       973  ECLIPA    H512S          33.6122975382       17.4950498082        1.1845643980  LPSA28    1               0.0000000000
     30179       973  ECLIPA    C513           31.6135451953       18.5039765197        0.8238990637  LPSA28    1               0.0000000000
     30180       973  ECLIPA    H513R          30.6506179140       18.9374926056        0.8817550481  LPSA28    1               0.0000000000
     30181       973  ECLIPA    H513S          31.1798996005       17.8774248764        1.5884879916  LPSA28    1               0.0000000000
     30182       973  ECLIPA    C514           31.6819973678       17.9576778964       -0.5144425428  LPSA28    1               0.0000000000
     30183       973  ECLIPA    H514R          32.5892287667       17.3065581600       -0.4005959418  LPSA28    1               0.0000000000
     30184       973  ECLIPA    H514S          30.7071641514       17.3666748935       -0.5816845449  LPSA28    1               0.0000000000
     30185       973  ECLIPA    H514T          31.8309948926       18.3127775984       -1.5361906320  LPSA28    1               0.0000000000
     30186       973  ECLIPA    C33            27.9477634238       17.1601619539       14.4581008927  LPSA28    1               0.0000000000
     30187       973  ECLIPA    H33R           27.2973251640       16.3412296125       14.8588514486  LPSA28    1               0.0000000000
     30188       973  ECLIPA    O33            28.9327831606       17.4186834867       15.4350439882  LPSA28    1               0.0000000000
     30189       973  ECLIPA    HO33           28.6049723062       17.4032861219       16.3418180804  LPSA28    1               0.0000000000
     30190       973  ECLIPA    C34            28.5982378709       16.7772056938       13.1386216702  LPSA28    1               0.0000000000
     30191       973  ECLIPA    H34R           29.3162469762       17.5214290890       12.7580371570  LPSA28    1               0.0000000000
     30192       973  ECLIPA    H34S           27.8439064932       16.4842677256       12.3682090788  LPSA28    1               0.0000000000
     30193       973  ECLIPA    C35            29.4751928179       15.6379925354       13.3791480342  LPSA28    1               0.0000000000
     30194       973  ECLIPA    H35R           28.6776357831       14.9678599825       13.7972901569  LPSA28    1               0.0000000000
     30195       973  ECLIPA    H35S           30.1333488040       15.7290284468       14.2612590322  LPSA28    1               0.0000000000
     30196       973  ECLIPA    C36            30.4085997332       15.2269416750       12.1636849063  LPSA28    1               0.0000000000
     30197       973  ECLIPA    H36R           30.6022538589       16.0906142839       11.5772066238  LPSA28    1               0.0000000000
     30198       973  ECLIPA    H36S           29.7220790619       14.6834836759       11.4737129340  LPSA28    1               0.0000000000
     30199       973  ECLIPA    C37            31.8541281069       14.5643673697       12.5340200743  LPSA28    1               0.0000000000
     30200       973  ECLIPA    H37R           31.9562338382       13.4637633552       12.6420049943  LPSA28    1               0.0000000000
     30201       973  ECLIPA    H37S           32.0732003178       14.5976468729       13.6185280067  LPSA28    1               0.0000000000
     30202       973  ECLIPA    C38            33.0201251337       14.5590659966       11.5891128254  LPSA28    1               0.0000000000
     30203       973  ECLIPA    H38R           33.5207186828       15.1675466029       12.3534826190  LPSA28    1               0.0000000000
     30204       973  ECLIPA    H38S           33.5771924442       13.5791632735       11.6465819151  LPSA28    1               0.0000000000
     30205       973  ECLIPA    C39            32.4791757835       14.7429729831       10.1304186491  LPSA28    1               0.0000000000
     30206       973  ECLIPA    H39R           31.3830062805       14.8431991243        9.9270506065  LPSA28    1               0.0000000000
     30207       973  ECLIPA    H39S           32.4245257645       13.7064485450        9.9104345817  LPSA28    1               0.0000000000
     30208       973  ECLIPA    C310           33.3500036121       14.5741510419        8.8830555665  LPSA28    1               0.0000000000
     30209       973  ECLIPA    H310R          34.1168975943       13.7578722619        8.9333529736  LPSA28    1               0.0000000000
     30210       973  ECLIPA    H310S          33.9156004961       15.4570656760        8.9744894964  LPSA28    1               0.0000000000
     30211       973  ECLIPA    C311           32.5356730204       14.5076003127        7.5808804410  LPSA28    1               0.0000000000
     30212       973  ECLIPA    H311R          31.6375133074       13.8992660061        7.8010705926  LPSA28    1               0.0000000000
     30213       973  ECLIPA    H311S          31.9912865508       15.4298204780        7.3492805320  LPSA28    1               0.0000000000
     30214       973  ECLIPA    C312           33.3971990768       14.2044053698        6.3156442353  LPSA28    1               0.0000000000
     30215       973  ECLIPA    H312R          34.4490561789       14.4133437830        6.5114820453  LPSA28    1               0.0000000000
     30216       973  ECLIPA    H312S          33.4729245102       13.1809144896        5.9348415155  LPSA28    1               0.0000000000
     30217       973  ECLIPA    C313           32.8314990114       14.7274310449        5.0081953176  LPSA28    1               0.0000000000
     30218       973  ECLIPA    H313R          31.9965636913       14.1164899295        4.7330806881  LPSA28    1               0.0000000000
     30219       973  ECLIPA    H313S          32.3191635183       15.6770238003        5.1318635978  LPSA28    1               0.0000000000
     30220       973  ECLIPA    C314           33.7499116534       14.5350916497        3.8170222119  LPSA28    1               0.0000000000
     30221       973  ECLIPA    H314R          33.9553327216       13.4569333540        3.6179692329  LPSA28    1               0.0000000000
     30222       973  ECLIPA    H314S          33.2900529076       14.9365338258        2.9130112080  LPSA28    1               0.0000000000
     30223       973  ECLIPA    H314T          34.6818650800       15.0814999610        4.0148927474  LPSA28    1               0.0000000000
     30224       973  ECLIPA    C11            30.4153790984       22.4233043781       11.2677696706  LPSA28    1               0.0000000000
     30225       973  ECLIPA    O11            31.5782440631       22.1026916518       11.1003601920  LPSA28    1               0.0000000000
     30226       973  ECLIPA    C12            29.7842736080       23.4010598849       10.3504233274  LPSA28    1               0.0000000000
     30227       973  ECLIPA    H12R           30.2734996994       24.3634599690       10.5694215853  LPSA28    1               0.0000000000
     30228       973  ECLIPA    H12S           28.6974619649       23.4882495177       10.5579888827  LPSA28    1               0.0000000000
     30229       973  ECLIPA    C13            29.9045789036       23.0040129007        8.8989487307  LPSA28    1               0.0000000000
     30230       973  ECLIPA    H13R           30.9809361445       22.8109556594        8.6343303137  LPSA28    1               0.0000000000
     30231       973  ECLIPA    O13            29.4495538579       24.0418967946        8.1306448343  LPSA28    1               0.0000000000
     30232       973  ECLIPA    HO13           30.1127253587       24.2761962813        7.4757285385  LPSA28    1               0.0000000000
     30233       973  ECLIPA    C14            29.0495705781       21.8749220181        8.4704020640  LPSA28    1               0.0000000000
     30234       973  ECLIPA    H14R           28.0815844131       22.0603605413        8.9680411183  LPSA28    1               0.0000000000
     30235       973  ECLIPA    H14S           29.5101822358       20.9559450904        8.8228210574  LPSA28    1               0.0000000000
     30236       973  ECLIPA    C15            28.8054243843       21.8011721483        6.9664661712  LPSA28    1               0.0000000000
     30237       973  ECLIPA    H15R           28.5742379946       22.7711526124        6.5063068492  LPSA28    1               0.0000000000
     30238       973  ECLIPA    H15S           27.9134264340       21.1824494326        6.8082895458  LPSA28    1               0.0000000000
     30239       973  ECLIPA    C16            30.0197796614       21.3304865926        6.2200425675  LPSA28    1               0.0000000000
     30240       973  ECLIPA    H16R           30.1377767783       20.2519677996        6.3178176237  LPSA28    1               0.0000000000
     30241       973  ECLIPA    H16S           30.9102028796       21.8524964992        6.6488169279  LPSA28    1               0.0000000000
     30242       973  ECLIPA    C17            29.8370633305       21.6258628351        4.7739787230  LPSA28    1               0.0000000000
     30243       973  ECLIPA    H17R           28.7927183482       21.4945881768        4.4148645124  LPSA28    1               0.0000000000
     30244       973  ECLIPA    H17S           30.5635003925       21.1360739231        4.0881994017  LPSA28    1               0.0000000000
     30245       973  ECLIPA    C18            30.1134415815       23.0279841186        4.6508513103  LPSA28    1               0.0000000000
     30246       973  ECLIPA    H18R           29.4935192116       23.7460558341        5.2528180315  LPSA28    1               0.0000000000
     30247       973  ECLIPA    H18S           31.1960576163       23.1843908469        4.8943499802  LPSA28    1               0.0000000000
     30248       973  ECLIPA    C19            29.8286322962       23.3270855762        3.2589405547  LPSA28    1               0.0000000000
     30249       973  ECLIPA    H19R           29.7274970434       24.3635760012        3.5594133816  LPSA28    1               0.0000000000
     30250       973  ECLIPA    H19S           28.9638858888       23.3330570180        2.7067263550  LPSA28    1               0.0000000000
     30251       973  ECLIPA    C110           30.8278274946       22.8247602667        2.2797488226  LPSA28    1               0.0000000000
     30252       973  ECLIPA    H110R          31.6665805831       23.2517117439        2.8728490292  LPSA28    1               0.0000000000
     30253       973  ECLIPA    H110S          30.8879149583       21.7582944488        2.2083680670  LPSA28    1               0.0000000000
     30254       973  ECLIPA    C111           30.7371193812       23.2068200791        0.7750565867  LPSA28    1               0.0000000000
     30255       973  ECLIPA    H111R          29.8213437239       23.2501653959        0.3360389167  LPSA28    1               0.0000000000
     30256       973  ECLIPA    H111S          31.1354527077       24.2124805987        0.9343820075  LPSA28    1               0.0000000000
     30257       973  ECLIPA    C112           31.4959945092       22.5183676565       -0.4240362776  LPSA28    1               0.0000000000
     30258       973  ECLIPA    H112R          32.4400648545       22.7724336978       -0.3839278292  LPSA28    1               0.0000000000
     30259       973  ECLIPA    H112S          31.7530990117       21.5011203558       -0.1741012452  LPSA28    1               0.0000000000
     30260       973  ECLIPA    C113           31.2494355594       22.9066810262       -2.0006075592  LPSA28    1               0.0000000000
     30261       973  ECLIPA    H113R          30.2480523686       22.8622953898       -2.3846339987  LPSA28    1               0.0000000000
     30262       973  ECLIPA    H113S          30.9009025163       23.8914825901       -2.1060238403  LPSA28    1               0.0000000000
     30263       973  ECLIPA    C114           32.3606479022       22.8286047998       -3.0800370142  LPSA28    1               0.0000000000
     30264       973  ECLIPA    H114R          33.3714682056       23.2498948472       -2.8562494835  LPSA28    1               0.0000000000
     30265       973  ECLIPA    H114S          32.5504258453       21.7798279894       -3.2248542603  LPSA28    1               0.0000000000
     30266       973  ECLIPA    H114T          32.0719892239       23.5061379941       -3.9190521879  LPSA28    1               0.0000000000
     30267       974  AKDO      C1             33.3533986497       17.0838316807       22.4247745842  LPSA28    2               0.0000000000
     30268       974  AKDO      O11            34.3473267939       16.3117015081       22.4710985213  LPSA28    2               0.0000000000
     30269       974  AKDO      O12            32.1626159836       16.7919397077       22.1145894173  LPSA28    2               0.0000000000
     30270       974  AKDO      C2             33.5808258761       18.5593064225       22.8754674577  LPSA28    2               0.0000000000
     30271       974  AKDO      C6             35.1817708132       20.0638589519       23.8590525952  LPSA28    2               0.0000000000
     30272       974  AKDO      H6             35.0140753075       20.6906748764       22.9449637461  LPSA28    2               0.0000000000
     30273       974  AKDO      O6             34.8975597837       18.7145131490       23.4652659076  LPSA28    2               0.0000000000
     30274       974  AKDO      C3             32.5684456120       19.0246589117       23.9256840413  LPSA28    2               0.0000000000
     30275       974  AKDO      H31            32.5658273770       18.3170648431       24.7853104442  LPSA28    2               0.0000000000
     30276       974  AKDO      H32            31.5608055184       19.0067590261       23.4515905770  LPSA28    2               0.0000000000
     30277       974  AKDO      C4             32.8324378432       20.4266268376       24.3712549197  LPSA28    2               0.0000000000
     30278       974  AKDO      H4             32.8348012600       21.0995518758       23.4832006383  LPSA28    2               0.0000000000
     30279       974  AKDO      O4             31.8965159739       20.8576908208       25.3680431411  LPSA28    2               0.0000000000
     30280       974  AKDO      C5             34.2150572190       20.5413694554       24.9591399133  LPSA28    2               0.0000000000
     30281       974  AKDO      H5             34.4261008511       21.6324464871       25.0856972353  LPSA28    2               0.0000000000
     30282       974  AKDO      O5             34.2078813010       19.8503842871       26.2493041051  LPSA28    2               0.0000000000
     30283       974  AKDO      C7             36.6600401433       20.2280559655       24.1692484850  LPSA28    2               0.0000000000
     30284       974  AKDO      H7             36.8980426389       19.6397478340       25.0803952137  LPSA28    2               0.0000000000
     30285       974  AKDO      O7             36.9771799973       21.6195177290       24.3624321240  LPSA28    2               0.0000000000
     30286       974  AKDO      HO7            37.1281749427       21.9591327744       23.4698544398  LPSA28    2               0.0000000000
     30287       974  AKDO      C8             37.4999068809       19.6788585460       23.0382837465  LPSA28    2               0.0000000000
     30288       974  AKDO      H81            37.2147000307       18.6125115895       22.8635675729  LPSA28    2               0.0000000000
     30289       974  AKDO      H82            37.2687022283       20.2185082638       22.0973206242  LPSA28    2               0.0000000000
     30290       974  AKDO      O8             38.9028782623       19.7670079121       23.3586681085  LPSA28    2               0.0000000000
     30291       974  AKDO      HO8            39.2953396023       19.0408637792       22.8446817091  LPSA28    2               0.0000000000
     30292       975  AKDO      C1             30.7027305120       22.2679924921       23.7996039354  LPSA28    3               1.0000000000
     30293       975  AKDO      O11            30.4119726752       21.7972320758       22.6715210212  LPSA28    3               1.0000000000
     30294       975  AKDO      O12            31.1671120199       23.3977137930       24.0803778038  LPSA28    3               1.0000000000
     30295       975  AKDO      C2             30.6099858499       21.3111543002       25.0093730373  LPSA28    3               1.0000000000
     30296       975  AKDO      C6             29.7329553210       19.2101626812       25.7728178463  LPSA28    3               1.0000000000
     30297       975  AKDO      H6             30.7229057356       18.7645326082       25.9457795780  LPSA28    3               1.0000000000
     30298       975  AKDO      O6             29.7291865122       20.2098446619       24.7199427382  LPSA28    3               1.0000000000
     30299       975  AKDO      C3             30.1384759969       21.9774668520       26.3214482016  LPSA28    3               1.0000000000
     30300       975  AKDO      H31            29.1202172669       22.4117858541       26.1659808444  LPSA28    3               1.0000000000
     30301       975  AKDO      H32            30.7922574800       22.8377697805       26.5828334166  LPSA28    3               1.0000000000
     30302       975  AKDO      C4             30.1640037805       20.9561145663       27.4221810380  LPSA28    3               1.0000000000
     30303       975  AKDO      H4             31.1661890541       20.4897360429       27.4972723182  LPSA28    3               1.0000000000
     30304       975  AKDO      O4             29.8324146518       21.5050669561       28.6834580645  LPSA28    3               1.0000000000
     30305       975  AKDO      HO4            30.5006303775       21.2782280629       29.3508693333  LPSA28    3               1.0000000000
     30306       975  AKDO      C5             29.3064934283       19.8124357199       27.0519337152  LPSA28    3               1.0000000000
     30307       975  AKDO      H5             29.1551413529       19.1269067137       27.9037628136  LPSA28    3               1.0000000000
     30308       975  AKDO      O5             28.0556882487       20.1545799184       26.7546635557  LPSA28    3               1.0000000000
     30309       975  AKDO      HO5            28.0022126566       21.0284892298       26.3170412489  LPSA28    3               1.0000000000
     30310       975  AKDO      C7             28.7850166096       18.1258083927       25.3351807921  LPSA28    3               1.0000000000
     30311       975  AKDO      H7             27.8172000093       18.5988101017       25.0379479926  LPSA28    3               1.0000000000
     30312       975  AKDO      O7             28.6070349332       17.1768909585       26.4042667513  LPSA28    3               1.0000000000
     30313       975  AKDO      HO7            27.9355047543       16.5390993945       26.1361645533  LPSA28    3               1.0000000000
     30314       975  AKDO      C8             29.3098718965       17.4862340149       24.0978907631  LPSA28    3               1.0000000000
     30315       975  AKDO      H81            29.4689503329       18.2663647226       23.3183836658  LPSA28    3               1.0000000000
     30316       975  AKDO      H82            30.2795046108       16.9880080288       24.3009814755  LPSA28    3               1.0000000000
     30317       975  AKDO      O8             28.3183718959       16.5843293604       23.6114452836  LPSA28    3               1.0000000000
     30318       975  AKDO      HO8            27.6845681157       17.1611465506       23.1892554562  LPSA28    3               1.0000000000
     30319       976  AHEP      C1             35.0770746922       20.3576544419       27.2491887454  LPSA28    4               2.0000000000
     30320       976  AHEP      H1             36.0837976708       20.0389446740       26.9101409962  LPSA28    4               2.0000000000
     30321       976  AHEP      C5             34.0121412100       22.3825694721       27.9837206452  LPSA28    4               2.0000000000
     30322       976  AHEP      H5             33.0872527816       22.0064441618       27.5021751998  LPSA28    4               2.0000000000
     30323       976  AHEP      O5             35.1383758968       21.7822371823       27.3037037353  LPSA28    4               2.0000000000
     30324       976  AHEP      C2             34.9977922825       19.8455962928       28.7077115297  LPSA28    4               2.0000000000
     30325       976  AHEP      H2             34.8829049239       18.7445629979       28.6783267213  LPSA28    4               2.0000000000
     30326       976  AHEP      O2             36.2277070008       20.0794670122       29.3822180729  LPSA28    4               2.0000000000
     30327       976  AHEP      HO2            36.5381964214       19.3317465837       29.8853141134  LPSA28    4               2.0000000000
     30328       976  AHEP      C3             33.8348711154       20.4194113895       29.4971756480  LPSA28    4               2.0000000000
     30329       976  AHEP      H3             32.8553254118       20.0917549009       29.0934061698  LPSA28    4               2.0000000000
     30330       976  AHEP      O3             33.9417995448       20.0231735423       30.8836890483  LPSA28    4               2.0000000000
     30331       976  AHEP      C4             33.9651694806       21.9267915004       29.4553438382  LPSA28    4               2.0000000000
     30332       976  AHEP      H4             34.8957984853       22.2786884074       29.9677516548  LPSA28    4               2.0000000000
     30333       976  AHEP      O4             32.7869735572       22.4513912850       30.0634100136  LPSA28    4               2.0000000000
     30334       976  AHEP      P4             32.8621192661       23.2899718811       31.4993363631  LPSA28    4               2.0000000000
     30335       976  AHEP      OP42           31.5174147591       22.9604327674       32.1243062694  LPSA28    4               2.0000000000
     30336       976  AHEP      OP43           33.0021758591       24.7583639400       31.1069939813  LPSA28    4               2.0000000000
     30337       976  AHEP      OP44           34.0511334420       22.7439822029       32.3032159966  LPSA28    4               2.0000000000
     30338       976  AHEP      C6             34.1010059228       23.8953538648       27.7846606214  LPSA28    4               2.0000000000
     30339       976  AHEP      H6             33.1108631628       24.3330325599       28.0955063376  LPSA28    4               2.0000000000
     30340       976  AHEP      O6             35.1088054736       24.4189129395       28.6457477011  LPSA28    4               2.0000000000
     30341       976  AHEP      HO6            34.6387518974       25.0877587875       29.1751160607  LPSA28    4               2.0000000000
     30342       976  AHEP      C7             34.3797777469       24.3743580784       26.3396222357  LPSA28    4               2.0000000000
     30343       976  AHEP      H71            34.1515231697       25.4558001486       26.2005977633  LPSA28    4               2.0000000000
     30344       976  AHEP      H72            33.7255715088       23.8010777550       25.6494467451  LPSA28    4               2.0000000000
     30345       976  AHEP      O7             35.7290276056       24.2116082683       25.8863032358  LPSA28    4               2.0000000000
     30346       976  AHEP      HO7            36.1792146914       24.8866481004       26.4144835081  LPSA28    4               2.0000000000
     30347       977  AHEP      C1             32.8783748832       19.3050168798       31.4585401492  LPSA28    5               3.0000000000
     30348       977  AHEP      H1             31.9107999908       19.5868184011       30.9786918528  LPSA28    5               3.0000000000
     30349       977  AHEP      C5             34.3157331910       17.4548042985       31.9543301840  LPSA28    5               3.0000000000
     30350       977  AHEP      H5             35.1487083277       18.1031395112       31.5920458927  LPSA28    5               3.0000000000
     30351       977  AHEP      O5             33.1009823922       17.8882872731       31.2941946062  LPSA28    5               3.0000000000
     30352       977  AHEP      C2             32.7613774530       19.6008414841       32.9590186933  LPSA28    5               3.0000000000
     30353       977  AHEP      H2             32.6635374739       20.7059736214       33.0839822962  LPSA28    5               3.0000000000
     30354       977  AHEP      O2             31.5662743867       19.0013492330       33.4757518349  LPSA28    5               3.0000000000
     30355       977  AHEP      HO2            30.9112141226       19.6971925716       33.6124278111  LPSA28    5               3.0000000000
     30356       977  AHEP      C3             34.0117051096       19.1651305342       33.7254127227  LPSA28    5               3.0000000000
     30357       977  AHEP      H3             34.8728276981       19.7253259918       33.2953983835  LPSA28    5               3.0000000000
     30358       977  AHEP      O3             33.9769687794       19.3715253000       35.1622890386  LPSA28    5               3.0000000000
     30359       977  AHEP      C4             34.2045522543       17.6891916362       33.4583585805  LPSA28    5               3.0000000000
     30360       977  AHEP      H4             33.3260878407       17.1039854002       33.8332224497  LPSA28    5               3.0000000000
     30361       977  AHEP      O4             35.4397427275       17.2856915192       34.0509105792  LPSA28    5               3.0000000000
     30362       977  AHEP      P4             35.3921863222       16.1929894959       35.3006050041  LPSA28    5               3.0000000000
     30363       977  AHEP      OP42           36.8043737014       16.2602890061       35.8364183369  LPSA28    5               3.0000000000
     30364       977  AHEP      OP43           35.1007397222       14.8829680597       34.6041864469  LPSA28    5               3.0000000000
     30365       977  AHEP      OP44           34.3637007746       16.7311702658       36.2938837414  LPSA28    5               3.0000000000
     30366       977  AHEP      C6             34.6710021514       16.0160830237       31.5554483163  LPSA28    5               3.0000000000
     30367       977  AHEP      H6             35.6363137242       15.7387633400       32.0432696862  LPSA28    5               3.0000000000
     30368       977  AHEP      O6             33.6880081238       15.0742815867       31.9907810648  LPSA28    5               3.0000000000
     30369       977  AHEP      HO6            32.8699605594       15.1557435440       31.5306193585  LPSA28    5               3.0000000000
     30370       977  AHEP      C7             34.8656183453       15.8784563531       30.0640207123  LPSA28    5               3.0000000000
     30371       977  AHEP      H71            35.6825700588       15.1313826796       29.9193241783  LPSA28    5               3.0000000000
     30372       977  AHEP      H72            35.2293007223       16.8262809609       29.6115106799  LPSA28    5               3.0000000000
     30373       977  AHEP      O7             33.6923336393       15.3417907194       29.4334183958  LPSA28    5               3.0000000000
     30374       978  AHEP      C1             32.9309823918       16.3212591489       28.7870691634  LPSA28    6               4.0000000000
     30375       978  AHEP      H1             33.2760518220       17.3483910268       29.0297817552  LPSA28    6               4.0000000000
     30376       978  AHEP      C5             32.6207155389       14.8464257121       26.9577652816  LPSA28    6               4.0000000000
     30377       978  AHEP      H5             33.2142511494       14.0858165014       27.5137646432  LPSA28    6               4.0000000000
     30378       978  AHEP      O5             33.0777100455       16.1460187867       27.3812819338  LPSA28    6               4.0000000000
     30379       978  AHEP      C2             31.4859588607       16.1889984109       29.2223198575  LPSA28    6               4.0000000000
     30380       978  AHEP      H2             31.4730890568       16.3040507708       30.3301810164  LPSA28    6               4.0000000000
     30381       978  AHEP      O2             30.7144778208       17.2754421059       28.7358245777  LPSA28    6               4.0000000000
     30382       978  AHEP      HO2            30.4605660564       17.8417597775       29.4705791857  LPSA28    6               4.0000000000
     30383       978  AHEP      C3             30.9638387582       14.8062047688       28.8435978226  LPSA28    6               4.0000000000
     30384       978  AHEP      H3             31.5760208653       14.0469570265       29.3820765873  LPSA28    6               4.0000000000
     30385       978  AHEP      O3             29.5938711521       14.5982827182       29.2310793146  LPSA28    6               4.0000000000
     30386       978  AHEP      HO3            29.4368308937       14.0625557353       30.0126821866  LPSA28    6               4.0000000000
     30387       978  AHEP      C4             31.1511136557       14.6396678317       27.3341321403  LPSA28    6               4.0000000000
     30388       978  AHEP      H4             30.5010903864       15.3690032672       26.7925243876  LPSA28    6               4.0000000000
     30389       978  AHEP      O4             30.7829079813       13.3317216133       26.9147939434  LPSA28    6               4.0000000000
     30390       978  AHEP      HO4            31.4718643348       12.7078030054       27.1052207797  LPSA28    6               4.0000000000
     30391       978  AHEP      C6             32.9427508415       14.5636455184       25.4954493638  LPSA28    6               4.0000000000
     30392       978  AHEP      H6             32.7014115956       13.4904005190       25.3028657107  LPSA28    6               4.0000000000
     30393       978  AHEP      O6             32.0954430054       15.3115016797       24.6342046714  LPSA28    6               4.0000000000
     30394       978  AHEP      HO6            32.6171843338       15.8017040950       23.9714806089  LPSA28    6               4.0000000000
     30395       978  AHEP      C7             34.4286610612       14.6821994517       25.1695125861  LPSA28    6               4.0000000000
     30396       978  AHEP      H71            34.6033586012       14.3093714539       24.1308248236  LPSA28    6               4.0000000000
     30397       978  AHEP      H72            34.9819490317       14.0387496243       25.8827437238  LPSA28    6               4.0000000000
     30398       978  AHEP      O7             35.0029149405       15.9812294759       25.3097556465  LPSA28    6               4.0000000000
     30399       978  AHEP      HO7            35.0513772434       16.1782573000       26.2404740537  LPSA28    6               4.0000000000
     30400       979  AGLC      C1             34.4743780061       20.5813893862       35.6729857682  LPSA28    7               4.0000000000
     30401       979  AGLC      H1             35.4122085377       20.8801006129       35.1902154108  LPSA28    7               4.0000000000
     30402       979  AGLC      C5             32.3042402449       21.4414383554       36.0939762579  LPSA28    7               4.0000000000
     30403       979  AGLC      H5             31.8730577894       20.4505605298       35.8204451059  LPSA28    7               4.0000000000
     30404       979  AGLC      O5             33.5649824052       21.6312438052       35.4351647578  LPSA28    7               4.0000000000
     30405       979  AGLC      C2             34.7352393952       20.5851092740       37.1714358820  LPSA28    7               4.0000000000
     30406       979  AGLC      H2             35.0147387454       21.6321680664       37.4323341392  LPSA28    7               4.0000000000
     30407       979  AGLC      O2             35.8557025675       19.7993201515       37.5534316623  LPSA28    7               4.0000000000
     30408       979  AGLC      HO2            35.5732018699       18.8581982859       37.5849184593  LPSA28    7               4.0000000000
     30409       979  AGLC      C3             33.4970535825       20.3034428168       37.9716355301  LPSA28    7               4.0000000000
     30410       979  AGLC      H3             33.0705925104       19.3400685195       37.6074465606  LPSA28    7               4.0000000000
     30411       979  AGLC      O3             33.7703550001       20.1748354196       39.3918196158  LPSA28    7               4.0000000000
     30412       979  AGLC      C4             32.5316550185       21.4276059032       37.6069827804  LPSA28    7               4.0000000000
     30413       979  AGLC      H4             32.9680046395       22.4131211926       37.9218664763  LPSA28    7               4.0000000000
     30414       979  AGLC      O4             31.2971276382       21.2113511307       38.2663414350  LPSA28    7               4.0000000000
     30415       979  AGLC      HO4            30.9546179770       22.0129222268       38.6612703096  LPSA28    7               4.0000000000
     30416       979  AGLC      C6             31.3578655032       22.4763626167       35.5101781553  LPSA28    7               4.0000000000
     30417       979  AGLC      H61            31.2986537066       22.3174352539       34.4068591395  LPSA28    7               4.0000000000
     30418       979  AGLC      H62            30.3120931780       22.3765690886       35.8872508736  LPSA28    7               4.0000000000
     30419       979  AGLC      O6             31.8379510136       23.7985309609       35.7497429329  LPSA28    7               4.0000000000
     30420       979  AGLC      HO6            31.3606596704       24.1562129536       36.4903030333  LPSA28    7               4.0000000000
     30421       980  AGLC      C1             33.4153919635       18.9006143001       39.9166682172  LPSA28    8               5.0000000000
     30422       980  AGLC      H1             32.4302548904       18.5867721388       39.5077831214  LPSA28    8               5.0000000000
     30423       980  AGLC      C5             35.6829063329       18.0067918948       40.2192764267  LPSA28    8               5.0000000000
     30424       980  AGLC      H5             36.0900141179       18.9841892264       39.8864574215  LPSA28    8               5.0000000000
     30425       980  AGLC      O5             34.3781505243       17.8684039345       39.5939718965  LPSA28    8               5.0000000000
     30426       980  AGLC      C2             33.2391448714       18.9140989531       41.4340458707  LPSA28    8               5.0000000000
     30427       980  AGLC      H2             32.8811242826       17.8946843150       41.6996297162  LPSA28    8               5.0000000000
     30428       980  AGLC      O2             32.2588533831       19.8323354127       41.9493619097  LPSA28    8               5.0000000000
     30429       980  AGLC      C3             34.5498057094       19.1519570137       42.1273408818  LPSA28    8               5.0000000000
     30430       980  AGLC      H3             34.9462235463       20.1217564218       41.7240165638  LPSA28    8               5.0000000000
     30431       980  AGLC      O3             34.2930113725       19.3095713315       43.5449001076  LPSA28    8               5.0000000000
     30432       980  AGLC      C4             35.4868748409       18.0372720401       41.7340327605  LPSA28    8               5.0000000000
     30433       980  AGLC      H4             35.0261563599       17.0659324558       42.0306463855  LPSA28    8               5.0000000000
     30434       980  AGLC      O4             36.7145712466       18.1666556843       42.4305590071  LPSA28    8               5.0000000000
     30435       980  AGLC      HO4            37.0380653122       19.0688740196       42.3563682392  LPSA28    8               5.0000000000
     30436       980  AGLC      C6             36.7350343615       16.9666959579       39.7492979277  LPSA28    8               5.0000000000
     30437       980  AGLC      H61            36.7315356588       16.8634040745       38.6348434907  LPSA28    8               5.0000000000
     30438       980  AGLC      H62            37.7579401756       17.3193992033       40.0239780423  LPSA28    8               5.0000000000
     30439       980  AGLC      O6             36.6100185032       15.6706283477       40.3479843622  LPSA28    8               5.0000000000
     30440       980  AGLC      HO6            36.9997847923       15.6864036737       41.2275957443  LPSA28    8               5.0000000000
     30441       981  AGAL      C1             30.9598288958       19.7676580831       41.4198224879  LPSA28    9               6.0000000000
     30442       981  AGAL      H1             30.9801669591       19.7404091302       40.3171135231  LPSA28    9               6.0000000000
     30443       981  AGAL      C5             30.0368560854       18.6109710618       43.2572320270  LPSA28    9               6.0000000000
     30444       981  AGAL      H5             31.0249069152       18.7771863516       43.7446129808  LPSA28    9               6.0000000000
     30445       981  AGAL      O5             30.2474271032       18.6004326995       41.8412962069  LPSA28    9               6.0000000000
     30446       981  AGAL      C2             30.2343876253       21.0399404279       41.8297256046  LPSA28    9               6.0000000000
     30447       981  AGAL      H2             29.2225148416       20.9834793645       41.3734401286  LPSA28    9               6.0000000000
     30448       981  AGAL      O2             30.9243607026       22.1160627977       41.1520831036  LPSA28    9               6.0000000000
     30449       981  AGAL      C3             30.0087244694       21.0767346235       43.3339159694  LPSA28    9               6.0000000000
     30450       981  AGAL      H3             30.9782842902       21.0700985160       43.8842766851  LPSA28    9               6.0000000000
     30451       981  AGAL      O3             29.3722520660       22.2701990838       43.7642660974  LPSA28    9               6.0000000000
     30452       981  AGAL      HO3            29.7460132695       22.9714551689       43.2120571358  LPSA28    9               6.0000000000
     30453       981  AGAL      C4             29.2144960381       19.8120102667       43.6800311831  LPSA28    9               6.0000000000
     30454       981  AGAL      H4             29.0592279267       19.7830332734       44.7707558072  LPSA28    9               6.0000000000
     30455       981  AGAL      O4             27.9406647744       19.7268458511       43.0618664458  LPSA28    9               6.0000000000
     30456       981  AGAL      HO4            27.2977490010       19.3002517813       43.6354380994  LPSA28    9               6.0000000000
     30457       981  AGAL      C6             29.5600488304       17.2629703302       43.7746353215  LPSA28    9               6.0000000000
     30458       981  AGAL      H61            30.3259405200       16.4761404112       43.6094194897  LPSA28    9               6.0000000000
     30459       981  AGAL      H62            29.4352681272       17.3856599115       44.8416626665  LPSA28    9               6.0000000000
     30460       981  AGAL      O6             28.2874850245       16.7934296126       43.3529043819  LPSA28    9               6.0000000000
     30461       981  AGAL      HO6            28.4353345704       16.2189016435       42.6025964996  LPSA28    9               6.0000000000
     30462       982  AGAL      C1             31.1709753457       23.3742282287       41.7284477259  LPSA28    10              7.0000000000
     30463       982  AGAL      H1             30.2078294898       23.9314475246       41.8327215946  LPSA28    10              7.0000000000
     30464       982  AGAL      C5             33.1519711509       22.8446486858       43.0233179084  LPSA28    10              7.0000000000
     30465       982  AGAL      H5             33.0475717964       21.8269517340       42.6256609395  LPSA28    10              7.0000000000
     30466       982  AGAL      O5             31.8101429092       23.3474779293       43.0291251408  LPSA28    10              7.0000000000
     30467       982  AGAL      C2             32.0230316685       24.1906069803       40.7492346398  LPSA28    10              7.0000000000
     30468       982  AGAL      H2             32.1205686474       25.2365442091       41.0995687525  LPSA28    10              7.0000000000
     30469       982  AGAL      O2             31.3977180621       24.3444550145       39.4735052233  LPSA28    10              7.0000000000
     30470       982  AGAL      HO2            31.4919075987       25.2933291001       39.2805364052  LPSA28    10              7.0000000000
     30471       982  AGAL      C3             33.4199104616       23.5603913331       40.6985397900  LPSA28    10              7.0000000000
     30472       982  AGAL      H3             33.2848458377       22.4832040768       40.4446798521  LPSA28    10              7.0000000000
     30473       982  AGAL      O3             34.2955799230       24.1232160318       39.7241009647  LPSA28    10              7.0000000000
     30474       982  AGAL      HO3            34.4006387501       23.5350394010       38.9809968691  LPSA28    10              7.0000000000
     30475       982  AGAL      C4             34.0480356628       23.6295692031       42.0721788987  LPSA28    10              7.0000000000
     30476       982  AGAL      H4             35.0428015103       23.1371261763       42.0632042126  LPSA28    10              7.0000000000
     30477       982  AGAL      O4             34.3029821548       24.9607760751       42.4698779064  LPSA28    10              7.0000000000
     30478       982  AGAL      HO4            33.4715594454       25.3432029130       42.7141853729  LPSA28    10              7.0000000000
     30479       982  AGAL      C6             33.7709092526       22.6729343966       44.4181948097  LPSA28    10              7.0000000000
     30480       982  AGAL      H61            33.0478734476       22.1963370386       45.1001572635  LPSA28    10              7.0000000000
     30481       982  AGAL      H62            34.6382548582       21.9867678661       44.2950062218  LPSA28    10              7.0000000000
     30482       982  AGAL      O6             34.2603722921       23.8473380828       45.0669995673  LPSA28    10              7.0000000000
     30483       982  AGAL      HO6            33.7833088059       24.0237708835       45.8850781706  LPSA28    10              7.0000000000
     30484       983  BGLC      C1             34.4239120584       18.2386751268       44.4757575083  LPSA28    11              6.0000000000
     30485       983  BGLC      H1             35.4981529140       17.9991598831       44.6132988723  LPSA28    11              6.0000000000
     30486       983  BGLC      C5             33.6754305274       16.0091088072       45.1065810022  LPSA28    11              6.0000000000
     30487       983  BGLC      H5             34.7033623647       15.6693729716       45.3522945792  LPSA28    11              6.0000000000
     30488       983  BGLC      O5             33.6507943092       17.0731433401       44.1095165765  LPSA28    11              6.0000000000
     30489       983  BGLC      C2             33.8627354300       18.7885441539       45.7889492278  LPSA28    11              6.0000000000
     30490       983  BGLC      H2             32.7992637791       19.1111090728       45.6457176142  LPSA28    11              6.0000000000
     30491       983  BGLC      O2             34.6009101478       19.9330611795       46.1953626990  LPSA28    11              6.0000000000
     30492       983  BGLC      HO2            33.9983928528       20.6655817399       46.2728681851  LPSA28    11              6.0000000000
     30493       983  BGLC      C3             33.8726167525       17.7742078038       46.9041528956  LPSA28    11              6.0000000000
     30494       983  BGLC      H3             34.9137969628       17.4976735032       47.1767889012  LPSA28    11              6.0000000000
     30495       983  BGLC      O3             33.1663994287       18.3261287882       48.0437756724  LPSA28    11              6.0000000000
     30496       983  BGLC      C4             33.0885901225       16.5790434628       46.4107016545  LPSA28    11              6.0000000000
     30497       983  BGLC      H4             32.0931674498       16.9532506821       46.1326106167  LPSA28    11              6.0000000000
     30498       983  BGLC      O4             32.9391889408       15.6097240207       47.4428828533  LPSA28    11              6.0000000000
     30499       983  BGLC      HO4            32.3366729482       15.9830326356       48.1032814114  LPSA28    11              6.0000000000
     30500       983  BGLC      C6             32.9520308488       14.8062900803       44.4905712096  LPSA28    11              6.0000000000
     30501       983  BGLC      H61            32.5943718266       14.1361997660       45.2738192269  LPSA28    11              6.0000000000
     30502       983  BGLC      H62            32.0648464339       15.1270394080       43.9127126771  LPSA28    11              6.0000000000
     30503       983  BGLC      O6             33.7694227871       14.0254219567       43.6153505878  LPSA28    11              6.0000000000
     30504       983  BGLC      HO6            33.9964002610       13.1530820558       43.9622474196  LPSA28    11              6.0000000000
     30505       984  BGLCNA    C1             33.7971035118       18.3444955312       49.3151424173  LPSA28    12              7.0000000000
     30506       984  BGLCNA    H1             34.4735231522       19.2248496553       49.3821917844  LPSA28    12              7.0000000000
     30507       984  BGLCNA    C5             35.1526389896       17.1579057506       50.8527801133  LPSA28    12              7.0000000000
     30508       984  BGLCNA    H5             35.8377368952       18.0016161368       50.7934754875  LPSA28    12              7.0000000000
     30509       984  BGLCNA    O5             34.5248771864       17.1465470683       49.5689903147  LPSA28    12              7.0000000000
     30510       984  BGLCNA    C2             32.6808258012       18.4542194611       50.3511720079  LPSA28    12              7.0000000000
     30511       984  BGLCNA    H2             32.1144749762       17.4845300416       50.2991047566  LPSA28    12              7.0000000000
     30512       984  BGLCNA    N              31.8466354379       19.5878655285       50.0367457175  LPSA28    12              7.0000000000
     30513       984  BGLCNA    HN             32.3494945400       20.4346124859       49.9743479756  LPSA28    12              7.0000000000
     30514       984  BGLCNA    C              30.5229823200       19.4877784165       49.9038107895  LPSA28    12              7.0000000000
     30515       984  BGLCNA    O              29.9326183862       18.4384002188       50.0746796647  LPSA28    12              7.0000000000
     30516       984  BGLCNA    CT             29.7698614213       20.7389894186       49.5458648493  LPSA28    12              7.0000000000
     30517       984  BGLCNA    HT1            29.1560205325       21.0691655044       50.4078166920  LPSA28    12              7.0000000000
     30518       984  BGLCNA    HT2            29.0572379664       20.5400935358       48.7247304918  LPSA28    12              7.0000000000
     30519       984  BGLCNA    HT3            30.4827364400       21.5208415744       49.2372671796  LPSA28    12              7.0000000000
     30520       984  BGLCNA    C3             33.2450213285       18.5596608255       51.7588102300  LPSA28    12              7.0000000000
     30521       984  BGLCNA    H3             33.8727278169       19.4774989503       51.8017481573  LPSA28    12              7.0000000000
     30522       984  BGLCNA    O3             32.1955363690       18.7063610732       52.7650032147  LPSA28    12              7.0000000000
     30523       984  BGLCNA    C4             34.0795721433       17.2969745983       51.9514993383  LPSA28    12              7.0000000000
     30524       984  BGLCNA    H4             33.4410159526       16.3862188652       51.8956103062  LPSA28    12              7.0000000000
     30525       984  BGLCNA    O4             34.6697832717       17.2877771115       53.2390305294  LPSA28    12              7.0000000000
     30526       984  BGLCNA    HO4            35.3067381677       18.0104211008       53.2770200008  LPSA28    12              7.0000000000
     30527       984  BGLCNA    C6             36.0323511305       15.9334504722       50.9493703173  LPSA28    12              7.0000000000
     30528       984  BGLCNA    H61            36.5577240791       15.8710943939       51.9275235870  LPSA28    12              7.0000000000
     30529       984  BGLCNA    H62            35.3867824076       15.0385442304       50.8311385547  LPSA28    12              7.0000000000
     30530       984  BGLCNA    O6             37.0185455580       15.9278401106       49.9163153245  LPSA28    12              7.0000000000
     30531       984  BGLCNA    HO6            37.7979553125       16.4148217804       50.1817775936  LPSA28    12              7.0000000000
     30532       985  AGAL      C1             32.4892721166       19.6097071978       53.8355993076  LPSA28    13              8.0000000000
     30533       985  AGAL      H1             33.5547860296       19.4790038018       54.1446690676  LPSA28    13              8.0000000000
     30534       985  AGAL      C5             30.8023996616       21.2420565414       53.2737772671  LPSA28    13              8.0000000000
     30535       985  AGAL      H5             30.4834796663       20.4637286883       52.5443105523  LPSA28    13              8.0000000000
     30536       985  AGAL      O5             32.2094862279       20.9848002515       53.4791588164  LPSA28    13              8.0000000000
     30537       985  AGAL      C2             31.6587372508       19.3663779733       55.1035756385  LPSA28    13              8.0000000000
     30538       985  AGAL      H2             31.9267191059       20.1902853783       55.8021940008  LPSA28    13              8.0000000000
     30539       985  AGAL      O2             32.0042026960       18.1259907798       55.7516984539  LPSA28    13              8.0000000000
     30540       985  AGAL      C3             30.1749401450       19.5780974041       54.8888631053  LPSA28    13              8.0000000000
     30541       985  AGAL      H3             29.8483288519       18.9650805261       54.0188691246  LPSA28    13              8.0000000000
     30542       985  AGAL      O3             29.4010749289       19.1712251069       56.0071350418  LPSA28    13              8.0000000000
     30543       985  AGAL      HO3            28.5742942992       18.7639630635       55.7203463872  LPSA28    13              8.0000000000
     30544       985  AGAL      C4             29.9545834643       21.0216178339       54.5206599707  LPSA28    13              8.0000000000
     30545       985  AGAL      H4             28.8826149349       21.1573152111       54.2374369365  LPSA28    13              8.0000000000
     30546       985  AGAL      O4             30.2357452380       21.9471752994       55.5820925949  LPSA28    13              8.0000000000
     30547       985  AGAL      HO4            31.0720833798       21.7414343984       56.0093240556  LPSA28    13              8.0000000000
     30548       985  AGAL      C6             30.4637462379       22.5344671065       52.5509304553  LPSA28    13              8.0000000000
     30549       985  AGAL      H61            31.0641832213       22.5833148274       51.6166298776  LPSA28    13              8.0000000000
     30550       985  AGAL      H62            29.3763745766       22.5037480392       52.3020542085  LPSA28    13              8.0000000000
     30551       985  AGAL      O6             30.6672218913       23.7266569956       53.3002299057  LPSA28    13              8.0000000000
     30552       985  AGAL      HO6            30.0088458116       23.7821224555       53.9999401505  LPSA28    13              8.0000000000
     30553       986  ARHM      C1             32.6437987668       18.2015779631       57.0138989929  LPSA28    14              9.0000000000
     30554       986  ARHM      H1             33.2130520322       19.1224608559       57.0879783948  LPSA28    14              9.0000000000
     30555       986  ARHM      C5             32.9840889000       15.8934920730       57.1669544963  LPSA28    14              9.0000000000
     30556       986  ARHM      H5             32.4494683444       15.7952953586       56.1985708529  LPSA28    14              9.0000000000
     30557       986  ARHM      O5             33.6181243327       17.1789281807       57.1838141658  LPSA28    14              9.0000000000
     30558       986  ARHM      C2             31.6210580845       18.1903091559       58.1255720816  LPSA28    14              9.0000000000
     30559       986  ARHM      H2             30.9010363378       19.0187619506       57.9370103471  LPSA28    14              9.0000000000
     30560       986  ARHM      O2             32.1359219177       18.3086633745       59.4670358699  LPSA28    14              9.0000000000
     30561       986  ARHM      C3             30.9277523947       16.8626799396       58.0678867359  LPSA28    14              9.0000000000
     30562       986  ARHM      H3             30.5607277468       16.6956229293       57.0273662474  LPSA28    14              9.0000000000
     30563       986  ARHM      O3             29.7747983085       16.8060150030       58.9143639494  LPSA28    14              9.0000000000
     30564       986  ARHM      HO3            30.0818098449       16.7952446114       59.8203072325  LPSA28    14              9.0000000000
     30565       986  ARHM      C4             31.9665171870       15.7813718232       58.3188918049  LPSA28    14              9.0000000000
     30566       986  ARHM      H4             32.5204700816       15.9604498302       59.2757310835  LPSA28    14              9.0000000000
     30567       986  ARHM      O4             31.3616515390       14.4869817930       58.3851221863  LPSA28    14              9.0000000000
     30568       986  ARHM      HO4            31.3820031015       14.1248726244       59.2725307345  LPSA28    14              9.0000000000
     30569       986  ARHM      C6             34.0864105070       14.8345945212       57.2187866377  LPSA28    14              9.0000000000
     30570       986  ARHM      H61            34.9557874021       15.0739373308       56.5737498687  LPSA28    14              9.0000000000
     30571       986  ARHM      H62            34.3711168739       14.7783641457       58.2740539037  LPSA28    14              9.0000000000
     30572       986  ARHM      H63            33.7333084710       13.8272015076       56.9333921212  LPSA28    14              9.0000000000
     30573       987  ARHM      C1             32.9779252044       19.3928477561       59.7422017160  LPSA28    15             10.0000000000
     30574       987  ARHM      H1             32.7575280446       20.2313318558       59.0420845825  LPSA28    15             10.0000000000
     30575       987  ARHM      C5             34.8198646236       18.0867236720       60.6214956921  LPSA28    15             10.0000000000
     30576       987  ARHM      H5             34.3558814470       17.0877944446       60.4381805644  LPSA28    15             10.0000000000
     30577       987  ARHM      O5             34.3825237954       19.0703339338       59.6556864150  LPSA28    15             10.0000000000
     30578       987  ARHM      C2             32.6445986142       19.8782247187       61.1306278657  LPSA28    15             10.0000000000
     30579       987  ARHM      H2             31.5446157276       20.0621793580       61.2028662836  LPSA28    15             10.0000000000
     30580       987  ARHM      O2             33.3427522933       21.1268410555       61.2568270522  LPSA28    15             10.0000000000
     30581       987  ARHM      C3             33.0146142176       18.8174741017       62.1325172915  LPSA28    15             10.0000000000
     30582       987  ARHM      H3             32.5153689137       17.8640485469       61.8395204167  LPSA28    15             10.0000000000
     30583       987  ARHM      O3             32.4889899720       19.2213763553       63.3992977047  LPSA28    15             10.0000000000
     30584       987  ARHM      C4             34.5063182359       18.5779507962       62.0275442618  LPSA28    15             10.0000000000
     30585       987  ARHM      H4             35.0308438759       19.5517812123       62.1486180295  LPSA28    15             10.0000000000
     30586       987  ARHM      O4             35.0242447605       17.6719669770       62.9952707930  LPSA28    15             10.0000000000
     30587       987  ARHM      HO4            35.9910081176       17.8257946734       62.9917513452  LPSA28    15             10.0000000000
     30588       987  ARHM      C6             36.3297618116       17.9031494325       60.4278947128  LPSA28    15             10.0000000000
     30589       987  ARHM      H61            36.7358583055       17.0590917973       61.0319858951  LPSA28    15             10.0000000000
     30590       987  ARHM      H62            36.5704936045       17.7541157960       59.3626580647  LPSA28    15             10.0000000000
     30591       987  ARHM      H63            36.8566959858       18.8160364599       60.7561503043  LPSA28    15             10.0000000000
     30592       988  BMANNA    C1             33.2212014482       21.8157469450       62.4676496883  LPSA28    16             11.0000000000
     30593       988  BMANNA    H1             33.7553868114       21.2667049879       63.2698962085  LPSA28    16             11.0000000000
     30594       988  BMANNA    C5             31.8657319549       22.5257929703       64.2956030350  LPSA28    16             11.0000000000
     30595       988  BMANNA    H5             32.4075220764       21.9291148613       65.0495634009  LPSA28    16             11.0000000000
     30596       988  BMANNA    O5             31.8775595529       21.9807070110       62.9570874662  LPSA28    16             11.0000000000
     30597       988  BMANNA    C2             33.9256228862       23.1523346252       62.3247270276  LPSA28    16             11.0000000000
     30598       988  BMANNA    H2             34.9545200006       22.9472930519       61.9992228489  LPSA28    16             11.0000000000
     30599       988  BMANNA    N              33.4055459708       24.0346005326       61.2810266771  LPSA28    16             11.0000000000
     30600       988  BMANNA    HN             32.6941442442       24.6766178554       61.5492301157  LPSA28    16             11.0000000000
     30601       988  BMANNA    C              33.8283904070       24.0017196961       60.0024657991  LPSA28    16             11.0000000000
     30602       988  BMANNA    O              34.7250216445       23.2907437054       59.5800478021  LPSA28    16             11.0000000000
     30603       988  BMANNA    CT             33.1078704594       24.8895654799       59.0786867034  LPSA28    16             11.0000000000
     30604       988  BMANNA    HT1            33.7102839071       25.8036004939       58.8672621855  LPSA28    16             11.0000000000
     30605       988  BMANNA    HT2            32.1749101753       25.1726232911       59.5975151060  LPSA28    16             11.0000000000
     30606       988  BMANNA    HT3            32.8277277008       24.4549649950       58.1022329287  LPSA28    16             11.0000000000
     30607       988  BMANNA    C3             34.0273931174       23.7376770379       63.6998381549  LPSA28    16             11.0000000000
     30608       988  BMANNA    H3             34.5848931954       23.1348775154       64.4287181666  LPSA28    16             11.0000000000
     30609       988  BMANNA    O3             34.7619025330       24.9633150177       63.5654004552  LPSA28    16             11.0000000000
     30610       988  BMANNA    HO3            35.3336854349       25.1059725074       64.3393188632  LPSA28    16             11.0000000000
     30611       988  BMANNA    C4             32.6033301593       23.7751523757       64.2329142927  LPSA28    16             11.0000000000
     30612       988  BMANNA    H4             31.9450066645       24.1453861629       63.4161996488  LPSA28    16             11.0000000000
     30613       988  BMANNA    O4             32.5197621241       24.3259311557       65.5734979561  LPSA28    16             11.0000000000
     30614       988  BMANNA    HO4            31.7817094576       24.9597300293       65.5811724091  LPSA28    16             11.0000000000
     30615       988  BMANNA    C6             30.4289818653       22.8375458740       64.7753347966  LPSA28    16             11.0000000000
     30616       988  BMANNA    H61            30.4518756886       22.8903643280       65.8855031577  LPSA28    16             11.0000000000
     30617       988  BMANNA    H62            30.0068546031       23.8071986816       64.4105663192  LPSA28    16             11.0000000000
     30618       988  BMANNA    O6             29.4903866652       21.8545721353       64.3916948101  LPSA28    16             11.0000000000
     30619       988  BMANNA    HO6            28.8060875256       22.2384474177       63.8234942407  LPSA28    16             11.0000000000
     30620       989  BGLCNA    C1             31.9290176482       18.1835947735       64.1455365181  LPSA28    17             11.0000000000
     30621       989  BGLCNA    H1             32.5392020156       17.2698342863       63.9866349839  LPSA28    17             11.0000000000
     30622       989  BGLCNA    C5             29.9784507038       16.8558076049       64.5637334087  LPSA28    17             11.0000000000
     30623       989  BGLCNA    H5             30.5190795485       15.8981399270       64.3595533418  LPSA28    17             11.0000000000
     30624       989  BGLCNA    O5             30.5664065766       17.9116423844       63.7806590058  LPSA28    17             11.0000000000
     30625       989  BGLCNA    C2             32.0166507677       18.6646102774       65.5813915741  LPSA28    17             11.0000000000
     30626       989  BGLCNA    H2             31.3522825733       19.5495104212       65.7532141014  LPSA28    17             11.0000000000
     30627       989  BGLCNA    N              33.3698016521       19.0899835576       65.8902388473  LPSA28    17             11.0000000000
     30628       989  BGLCNA    HN             34.0918599171       18.6390191291       65.3694602962  LPSA28    17             11.0000000000
     30629       989  BGLCNA    C              33.7364724844       19.9628517351       66.8380766081  LPSA28    17             11.0000000000
     30630       989  BGLCNA    O              32.9717180421       20.6669340950       67.4950628842  LPSA28    17             11.0000000000
     30631       989  BGLCNA    CT             35.2221195821       20.0195510571       67.0603996096  LPSA28    17             11.0000000000
     30632       989  BGLCNA    HT1            35.7089037181       20.8737618850       66.5511414849  LPSA28    17             11.0000000000
     30633       989  BGLCNA    HT2            35.6796867845       19.0775421958       66.6844201640  LPSA28    17             11.0000000000
     30634       989  BGLCNA    HT3            35.4510040236       20.0933684893       68.1363623901  LPSA28    17             11.0000000000
     30635       989  BGLCNA    C3             31.5210745539       17.5174977369       66.4315360387  LPSA28    17             11.0000000000
     30636       989  BGLCNA    H3             32.1122280054       16.6322669590       66.0966526853  LPSA28    17             11.0000000000
     30637       989  BGLCNA    O3             31.8180818172       17.7694170732       67.8310830294  LPSA28    17             11.0000000000
     30638       989  BGLCNA    C4             30.0738020770       17.2529327078       66.0425905683  LPSA28    17             11.0000000000
     30639       989  BGLCNA    H4             29.4814655156       18.1868844427       66.1353003545  LPSA28    17             11.0000000000
     30640       989  BGLCNA    O4             29.5040570815       16.2720351154       66.8955890766  LPSA28    17             11.0000000000
     30641       989  BGLCNA    HO4            28.5625326499       16.2042793033       66.7432199174  LPSA28    17             11.0000000000
     30642       989  BGLCNA    C6             28.5303869618       16.6396040549       64.1281502045  LPSA28    17             11.0000000000
     30643       989  BGLCNA    H61            28.3125034388       15.5556595531       64.2020344391  LPSA28    17             11.0000000000
     30644       989  BGLCNA    H62            27.8286443441       17.1748166289       64.8081526269  LPSA28    17             11.0000000000
     30645       989  BGLCNA    O6             28.2255762935       17.0313330485       62.7894571456  LPSA28    17             11.0000000000
     30646       989  BGLCNA    HO6            28.8732984504       16.6442700789       62.1956327098  LPSA28    17             11.0000000000
     30647       990  AGAL      C1             32.1460301380       16.6367124977       68.6212696124  LPSA28    18             12.0000000000
     30648       990  AGAL      H1             31.2197515829       16.0446822376       68.8067138256  LPSA28    18             12.0000000000
     30649       990  AGAL      C5             34.3917617434       16.3972976264       67.8524456925  LPSA28    18             12.0000000000
     30650       990  AGAL      H5             34.2377423986       17.3920382369       67.4009692691  LPSA28    18             12.0000000000
     30651       990  AGAL      O5             33.0985050212       15.7797218991       67.9818712150  LPSA28    18             12.0000000000
     30652       990  AGAL      C2             32.7610036505       16.9804524050       69.9699057176  LPSA28    18             12.0000000000
     30653       990  AGAL      H2             32.9903688349       15.9719531131       70.3955667186  LPSA28    18             12.0000000000
     30654       990  AGAL      O2             31.8387213341       17.5915747191       70.8755646392  LPSA28    18             12.0000000000
     30655       990  AGAL      C3             34.1107925811       17.6916302575       69.8445096954  LPSA28    18             12.0000000000
     30656       990  AGAL      H3             33.9774081387       18.5682157593       69.1690203135  LPSA28    18             12.0000000000
     30657       990  AGAL      O3             34.5998525910       18.1986041046       71.0878275446  LPSA28    18             12.0000000000
     30658       990  AGAL      HO3            34.9604336344       19.0850885063       70.9778747652  LPSA28    18             12.0000000000
     30659       990  AGAL      C4             35.0785782813       16.7339083803       69.1675233394  LPSA28    18             12.0000000000
     30660       990  AGAL      H4             36.0445518065       17.2402751730       68.9326532630  LPSA28    18             12.0000000000
     30661       990  AGAL      O4             35.3792768415       15.5852538506       69.9567872691  LPSA28    18             12.0000000000
     30662       990  AGAL      HO4            35.9205668040       15.8699383406       70.7071597466  LPSA28    18             12.0000000000
     30663       990  AGAL      C6             35.1716860754       15.7121845894       66.7748486281  LPSA28    18             12.0000000000
     30664       990  AGAL      H61            34.5790519722       15.8188591646       65.8360777952  LPSA28    18             12.0000000000
     30665       990  AGAL      H62            36.1418919116       16.2380106412       66.6325704940  LPSA28    18             12.0000000000
     30666       990  AGAL      O6             35.3981709852       14.3323156290       67.0271621486  LPSA28    18             12.0000000000
     30667       990  AGAL      HO6            34.7765801934       14.0053688880       67.6923250763  LPSA28    18             12.0000000000
     30668       991  ARHM      C1             31.9902668708       17.0519190920       72.1723844309  LPSA28    19             13.0000000000
     30669       991  ARHM      H1             33.0377153879       16.7259118877       72.3544594429  LPSA28    19             13.0000000000
     30670       991  ARHM      C5             29.7968764637       16.1503515958       72.2513451759  LPSA28    19             13.0000000000
     30671       991  ARHM      H5             29.6608947521       16.5410605982       71.2139160150  LPSA28    19             13.0000000000
     30672       991  ARHM      O5             31.1921094932       15.8862345289       72.4239049755  LPSA28    19             13.0000000000
     30673       991  ARHM      C2             31.5777680570       18.1346214315       73.1193435441  LPSA28    19             13.0000000000
     30674       991  ARHM      H2             32.1107295122       19.0874168177       72.8773672104  LPSA28    19             13.0000000000
     30675       991  ARHM      O2             31.9130688360       17.7681701835       74.4623982115  LPSA28    19             13.0000000000
     30676       991  ARHM      C3             30.1067270126       18.4171325925       72.9606722735  LPSA28    19             13.0000000000
     30677       991  ARHM      H3             29.8934494181       18.7063401189       71.9030592331  LPSA28    19             13.0000000000
     30678       991  ARHM      O3             29.7052035132       19.4916317126       73.7815619520  LPSA28    19             13.0000000000
     30679       991  ARHM      HO3            30.0819039856       19.3389624287       74.6507299901  LPSA28    19             13.0000000000
     30680       991  ARHM      C4             29.3196651849       17.1794353509       73.2444574832  LPSA28    19             13.0000000000
     30681       991  ARHM      H4             29.5307311070       16.8384774554       74.2871612056  LPSA28    19             13.0000000000
     30682       991  ARHM      O4             27.9177341453       17.3912638497       73.1413181279  LPSA28    19             13.0000000000
     30683       991  ARHM      HO4            27.6821190228       17.5915342165       72.2246942770  LPSA28    19             13.0000000000
     30684       991  ARHM      C6             29.0285057192       14.8463328232       72.2813056516  LPSA28    19             13.0000000000
     30685       991  ARHM      H61            29.4674364202       14.2318303628       71.4683495679  LPSA28    19             13.0000000000
     30686       991  ARHM      H62            29.1192049086       14.3067635547       73.2468631767  LPSA28    19             13.0000000000
     30687       991  ARHM      H63            27.9446612736       14.9793582618       72.0646272621  LPSA28    19             13.0000000000
     30688       992  ARHM      C1             33.2982064221       17.8425450006       74.7001891727  LPSA28    20             14.0000000000
     30689       992  ARHM      H1             33.8268460993       18.3606049270       73.8665740580  LPSA28    20             14.0000000000
     30690       992  ARHM      C5             33.4149287444       15.8378404167       75.9554631642  LPSA28    20             14.0000000000
     30691       992  ARHM      H5             32.3207634039       15.7246419259       75.8130230030  LPSA28    20             14.0000000000
     30692       992  ARHM      O5             33.9320947409       16.5675437062       74.8409083733  LPSA28    20             14.0000000000
     30693       992  ARHM      C2             33.4731423571       18.6506685530       75.9541777634  LPSA28    20             14.0000000000
     30694       992  ARHM      H2             32.8671565973       19.5872393866       75.8525007479  LPSA28    20             14.0000000000
     30695       992  ARHM      O2             34.8548108051       18.9616633134       76.1752454473  LPSA28    20             14.0000000000
     30696       992  ARHM      C3             32.9396109267       17.9194586486       77.1322329749  LPSA28    20             14.0000000000
     30697       992  ARHM      H3             31.8555369808       17.7054454042       76.9627198854  LPSA28    20             14.0000000000
     30698       992  ARHM      O3             33.0966924857       18.7680463593       78.2719183265  LPSA28    20             14.0000000000
     30699       992  ARHM      C4             33.6831190893       16.6194644992       77.2336192244  LPSA28    20             14.0000000000
     30700       992  ARHM      H4             34.7851609886       16.7594941451       77.3136262256  LPSA28    20             14.0000000000
     30701       992  ARHM      O4             33.2643880785       15.8920868612       78.3691891239  LPSA28    20             14.0000000000
     30702       992  ARHM      HO4            33.3454529076       14.9705233500       78.1083322835  LPSA28    20             14.0000000000
     30703       992  ARHM      C6             33.9876549323       14.4135377016       75.9605780353  LPSA28    20             14.0000000000
     30704       992  ARHM      H61            35.0503677735       14.4146194093       76.1782174596  LPSA28    20             14.0000000000
     30705       992  ARHM      H62            33.5566823055       13.8042256877       76.7706513732  LPSA28    20             14.0000000000
     30706       992  ARHM      H63            33.8427216955       13.9105134568       74.9852118912  LPSA28    20             14.0000000000
     30707       993  BMANNA    C1             35.2130992603       20.0730418362       75.4177694417  LPSA28    21             15.0000000000
     30708       993  BMANNA    H1             34.3780189803       20.3494945766       74.7317496643  LPSA28    21             15.0000000000
     30709       993  BMANNA    C5             36.4396889306       20.9578110034       73.6434789187  LPSA28    21             15.0000000000
     30710       993  BMANNA    H5             35.4961880935       21.2221657407       73.1139343719  LPSA28    21             15.0000000000
     30711       993  BMANNA    O5             36.2670567136       19.8110840508       74.5019898324  LPSA28    21             15.0000000000
     30712       993  BMANNA    C2             35.5213758023       21.2391786357       76.3498257069  LPSA28    21             15.0000000000
     30713       993  BMANNA    H2             34.5680787179       21.3962571698       76.9258636637  LPSA28    21             15.0000000000
     30714       993  BMANNA    N              36.6160845944       21.0004508743       77.2924939724  LPSA28    21             15.0000000000
     30715       993  BMANNA    HN             37.3832926036       20.5393949716       76.8858530942  LPSA28    21             15.0000000000
     30716       993  BMANNA    C              36.6378223441       21.3969881441       78.5859413737  LPSA28    21             15.0000000000
     30717       993  BMANNA    O              35.8219965900       22.1829599021       79.0425540815  LPSA28    21             15.0000000000
     30718       993  BMANNA    CT             37.7323011783       20.8625992343       79.4852197130  LPSA28    21             15.0000000000
     30719       993  BMANNA    HT1            38.6898424033       21.3897664196       79.2916425722  LPSA28    21             15.0000000000
     30720       993  BMANNA    HT2            37.8391464135       19.7717267597       79.3578826779  LPSA28    21             15.0000000000
     30721       993  BMANNA    HT3            37.4769918884       21.0168515390       80.5554435249  LPSA28    21             15.0000000000
     30722       993  BMANNA    C3             35.7450718016       22.4425989566       75.4654985628  LPSA28    21             15.0000000000
     30723       993  BMANNA    H3             34.7817266506       22.5975282856       74.9226134002  LPSA28    21             15.0000000000
     30724       993  BMANNA    O3             36.0015642870       23.6234346484       76.2153664039  LPSA28    21             15.0000000000
     30725       993  BMANNA    HO3            36.7283260440       23.4394517198       76.8155068694  LPSA28    21             15.0000000000
     30726       993  BMANNA    C4             36.8521077745       22.1719825855       74.4664308272  LPSA28    21             15.0000000000
     30727       993  BMANNA    H4             37.8208459782       21.9814667115       74.9970708403  LPSA28    21             15.0000000000
     30728       993  BMANNA    O4             37.0823352591       23.2649099952       73.5854604793  LPSA28    21             15.0000000000
     30729       993  BMANNA    HO4            37.9657717713       23.6168033125       73.7528091801  LPSA28    21             15.0000000000
     30730       993  BMANNA    C6             37.3662162698       20.6981610056       72.5025861707  LPSA28    21             15.0000000000
     30731       993  BMANNA    H61            37.3769790406       21.4643075969       71.7130875467  LPSA28    21             15.0000000000
     30732       993  BMANNA    H62            38.2773159713       20.9567839304       72.9369927508  LPSA28    21             15.0000000000
     30733       993  BMANNA    O6             37.4076100405       19.3656742558       71.9950244698  LPSA28    21             15.0000000000
     30734       993  BMANNA    HO6            37.5149844394       18.7755823442       72.7559114922  LPSA28    21             15.0000000000
     30735       994  BGLCNA    C1             32.0900818464       18.6833321926       79.2448167781  LPSA28    22             15.0000000000
     30736       994  BGLCNA    H1             31.5888041203       17.6925198282       79.2442528969  LPSA28    22             15.0000000000
     30737       994  BGLCNA    C5             30.1286375191       19.6675379739       80.1235806934  LPSA28    22             15.0000000000
     30738       994  BGLCNA    H5             29.6645296073       18.6466617564       80.1286376895  LPSA28    22             15.0000000000
     30739       994  BGLCNA    O5             31.1117127188       19.7041032790       79.0760218417  LPSA28    22             15.0000000000
     30740       994  BGLCNA    C2             32.8028743075       18.9013430623       80.5479807754  LPSA28    22             15.0000000000
     30741       994  BGLCNA    H2             33.2771337491       19.9190414933       80.4941174751  LPSA28    22             15.0000000000
     30742       994  BGLCNA    N              33.8197644124       17.8885778833       80.7278762147  LPSA28    22             15.0000000000
     30743       994  BGLCNA    HN             33.5917713495       16.9811647680       80.3944381437  LPSA28    22             15.0000000000
     30744       994  BGLCNA    C              34.9765259622       18.0844445889       81.3565883271  LPSA28    22             15.0000000000
     30745       994  BGLCNA    O              35.3184069849       19.1572713345       81.8405466310  LPSA28    22             15.0000000000
     30746       994  BGLCNA    CT             35.8565777009       16.8652956375       81.4064523951  LPSA28    22             15.0000000000
     30747       994  BGLCNA    HT1            36.5597271016       16.9618643345       80.5571638910  LPSA28    22             15.0000000000
     30748       994  BGLCNA    HT2            35.2464569662       15.9475729415       81.2878002069  LPSA28    22             15.0000000000
     30749       994  BGLCNA    HT3            36.4076495887       16.8078805414       82.3709746319  LPSA28    22             15.0000000000
     30750       994  BGLCNA    C3             31.8081737922       18.8629381220       81.6856459430  LPSA28    22             15.0000000000
     30751       994  BGLCNA    H3             31.2761136560       17.8830740657       81.6528596317  LPSA28    22             15.0000000000
     30752       994  BGLCNA    O3             32.5588126895       18.9526640594       82.9038566620  LPSA28    22             15.0000000000
     30753       994  BGLCNA    C4             30.7841651823       19.9346593168       81.4665249414  LPSA28    22             15.0000000000
     30754       994  BGLCNA    H4             31.2942581835       20.9223975226       81.4094164316  LPSA28    22             15.0000000000
     30755       994  BGLCNA    O4             29.8421188429       20.0057166542       82.5288396793  LPSA28    22             15.0000000000
     30756       994  BGLCNA    HO4            29.6129598242       20.9333993339       82.6503703942  LPSA28    22             15.0000000000
     30757       994  BGLCNA    C6             29.0860827862       20.6763619102       79.7821316309  LPSA28    22             15.0000000000
     30758       994  BGLCNA    H61            28.4591807103       20.8960895169       80.6753130476  LPSA28    22             15.0000000000
     30759       994  BGLCNA    H62            29.5255518809       21.6447871639       79.4384226541  LPSA28    22             15.0000000000
     30760       994  BGLCNA    O6             28.2406881315       20.0815585752       78.8078974947  LPSA28    22             15.0000000000
     30761       994  BGLCNA    HO6            28.6536251203       19.9976613055       77.9472852463  LPSA28    22             15.0000000000
     30762       995  AGAL      C1             31.9819293592       18.5180357521       84.1036152051  LPSA28    23             16.0000000000
     30763       995  AGAL      H1             31.2507751223       19.2784853209       84.4570230322  LPSA28    23             16.0000000000
     30764       995  AGAL      C5             32.1946316371       16.1592464139       83.7244871627  LPSA28    23             16.0000000000
     30765       995  AGAL      H5             32.7928953139       16.4079566718       82.8197854149  LPSA28    23             16.0000000000
     30766       995  AGAL      O5             31.3020054404       17.2576647031       83.9929269222  LPSA28    23             16.0000000000
     30767       995  AGAL      C2             33.0308910946       18.4221785196       85.1886619170  LPSA28    23             16.0000000000
     30768       995  AGAL      H2             32.4872131513       18.1195996525       86.1083413508  LPSA28    23             16.0000000000
     30769       995  AGAL      O2             33.6684109858       19.6982406117       85.4302897279  LPSA28    23             16.0000000000
     30770       995  AGAL      C3             33.9958284809       17.2810664821       84.8831172009  LPSA28    23             16.0000000000
     30771       995  AGAL      H3             34.4217742681       17.4353703652       83.8669876091  LPSA28    23             16.0000000000
     30772       995  AGAL      O3             35.1035212145       17.2229664673       85.7669399422  LPSA28    23             16.0000000000
     30773       995  AGAL      HO3            34.8355543373       17.4380229610       86.6523669725  LPSA28    23             16.0000000000
     30774       995  AGAL      C4             33.2070325882       15.9799522780       84.8647392325  LPSA28    23             16.0000000000
     30775       995  AGAL      H4             33.8743438737       15.1184763055       84.6270336426  LPSA28    23             16.0000000000
     30776       995  AGAL      O4             32.5613490254       15.7053246054       86.1107535570  LPSA28    23             16.0000000000
     30777       995  AGAL      HO4            31.7769297140       15.1905309795       85.8506239610  LPSA28    23             16.0000000000
     30778       995  AGAL      C6             31.3624109448       14.9511227816       83.3269951273  LPSA28    23             16.0000000000
     30779       995  AGAL      H61            30.6069533384       15.2673278935       82.5724430256  LPSA28    23             16.0000000000
     30780       995  AGAL      H62            32.0015223318       14.1882837681       82.8210696050  LPSA28    23             16.0000000000
     30781       995  AGAL      O6             30.6792039876       14.3754095070       84.4431769956  LPSA28    23             16.0000000000
     30782       995  AGAL      HO6            30.1134605441       13.6380097759       84.1820945388  LPSA28    23             16.0000000000
     30783       996  ARHM      C1             33.0304055526       20.6276938401       86.2869302036  LPSA28    24             17.0000000000
     30784       996  ARHM      H1             31.9547007545       20.3521697121       86.3872083760  LPSA28    24             17.0000000000
     30785       996  ARHM      C5             34.3779944398       22.5079170899       85.6446590508  LPSA28    24             17.0000000000
     30786       996  ARHM      H5             34.9111885901       21.8239392573       84.9450754367  LPSA28    24             17.0000000000
     30787       996  ARHM      O5             33.0453786229       21.9909566112       85.8157925575  LPSA28    24             17.0000000000
     30788       996  ARHM      C2             33.7533563370       20.5452559699       87.6090762693  LPSA28    24             17.0000000000
     30789       996  ARHM      H2             33.8015956018       19.4762963721       87.9292256234  LPSA28    24             17.0000000000
     30790       996  ARHM      O2             33.1059970686       21.3526432953       88.6083505485  LPSA28    24             17.0000000000
     30791       996  ARHM      C3             35.1756267662       21.0330022636       87.4379147404  LPSA28    24             17.0000000000
     30792       996  ARHM      H3             35.6496497988       20.4084904284       86.6400965682  LPSA28    24             17.0000000000
     30793       996  ARHM      O3             35.9510147594       20.8464872838       88.6251164694  LPSA28    24             17.0000000000
     30794       996  ARHM      HO3            35.8614302956       21.6310390220       89.1709430081  LPSA28    24             17.0000000000
     30795       996  ARHM      C4             35.1315374362       22.4805054332       86.9643255103  LPSA28    24             17.0000000000
     30796       996  ARHM      H4             34.5559216210       23.0925515356       87.7015389241  LPSA28    24             17.0000000000
     30797       996  ARHM      O4             36.4297299125       23.0532655352       86.8275095922  LPSA28    24             17.0000000000
     30798       996  ARHM      HO4            36.4045826787       24.0006717729       86.9974973716  LPSA28    24             17.0000000000
     30799       996  ARHM      C6             34.3344791965       23.9011522813       84.9721813102  LPSA28    24             17.0000000000
     30800       996  ARHM      H61            35.2898284923       24.0631113544       84.4294156076  LPSA28    24             17.0000000000
     30801       996  ARHM      H62            33.5118267250       23.9356665352       84.2325148114  LPSA28    24             17.0000000000
     30802       996  ARHM      H63            34.1652282302       24.7272654991       85.6918737076  LPSA28    24             17.0000000000
     30803       997  ARHM      C1             31.9393660196       20.7920733335       89.1409411071  LPSA28    25             18.0000000000
     30804       997  ARHM      H1             31.5653486775       19.9947769050       88.4622560361  LPSA28    25             18.0000000000
     30805       997  ARHM      C5             31.1227045549       22.7602087111       90.1956664313  LPSA28    25             18.0000000000
     30806       997  ARHM      H5             32.0208511634       23.3253446055       89.8554885768  LPSA28    25             18.0000000000
     30807       997  ARHM      O5             30.8471003573       21.7185572062       89.2494975065  LPSA28    25             18.0000000000
     30808       997  ARHM      C2             32.2879279227       20.1508535342       90.4528175406  LPSA28    25             18.0000000000
     30809       997  ARHM      H2             33.2224285411       19.5436720006       90.3566768228  LPSA28    25             18.0000000000
     30810       997  ARHM      O2             31.2113258565       19.3253110861       90.9020701161  LPSA28    25             18.0000000000
     30811       997  ARHM      C3             32.5911452726       21.2240384932       91.4381701705  LPSA28    25             18.0000000000
     30812       997  ARHM      H3             33.4469059264       21.8557592962       91.0755411837  LPSA28    25             18.0000000000
     30813       997  ARHM      O3             32.8947486041       20.6181115209       92.7012576781  LPSA28    25             18.0000000000
     30814       997  ARHM      C4             31.4124005113       22.1156709250       91.5455082908  LPSA28    25             18.0000000000
     30815       997  ARHM      H4             30.4935683770       21.5897487639       91.8936848433  LPSA28    25             18.0000000000
     30816       997  ARHM      O4             31.7807219346       23.0403644312       92.5239983392  LPSA28    25             18.0000000000
     30817       997  ARHM      HO4            31.0057858995       23.3455218266       92.9960894025  LPSA28    25             18.0000000000
     30818       997  ARHM      C6             29.9470234732       23.7619111788       90.2164917250  LPSA28    25             18.0000000000
     30819       997  ARHM      H61            29.7008668763       24.0780212066       89.1766331968  LPSA28    25             18.0000000000
     30820       997  ARHM      H62            29.0389281845       23.3166096402       90.6645180395  LPSA28    25             18.0000000000
     30821       997  ARHM      H63            30.2324809502       24.6697323908       90.7829449078  LPSA28    25             18.0000000000
     30822       998  BMANNA    C1             31.1722981304       18.0682682072       90.2786871819  LPSA28    26             19.0000000000
     30823       998  BMANNA    H1             32.1629112605       17.7948704414       89.8578789516  LPSA28    26             19.0000000000
     30824       998  BMANNA    C5             30.2267473949       16.6752337128       88.5901332154  LPSA28    26             19.0000000000
     30825       998  BMANNA    H5             31.2418554337       16.5052411914       88.1730090603  LPSA28    26             19.0000000000
     30826       998  BMANNA    O5             30.2128822092       17.9657623750       89.2217167243  LPSA28    26             19.0000000000
     30827       998  BMANNA    C2             30.8165540628       17.0929815540       91.3493062777  LPSA28    26             19.0000000000
     30828       998  BMANNA    H2             31.6203716535       17.1901219490       92.1300654166  LPSA28    26             19.0000000000
     30829       998  BMANNA    N              29.5018624661       17.3824247666       91.9193872908  LPSA28    26             19.0000000000
     30830       998  BMANNA    HN             28.7487137248       17.4795302222       91.2760154781  LPSA28    26             19.0000000000
     30831       998  BMANNA    C              29.2691598479       17.5271799866       93.2321792097  LPSA28    26             19.0000000000
     30832       998  BMANNA    O              30.1677904081       17.5617560281       94.0599082823  LPSA28    26             19.0000000000
     30833       998  BMANNA    CT             27.8144745176       17.5780364350       93.6537102392  LPSA28    26             19.0000000000
     30834       998  BMANNA    HT1            27.1940464823       17.9989027077       92.8399942442  LPSA28    26             19.0000000000
     30835       998  BMANNA    HT2            27.6523140291       18.1579109692       94.5805893537  LPSA28    26             19.0000000000
     30836       998  BMANNA    HT3            27.5065111778       16.5349719874       93.8644477518  LPSA28    26             19.0000000000
     30837       998  BMANNA    C3             30.9167765781       15.7119381869       90.7498800485  LPSA28    26             19.0000000000
     30838       998  BMANNA    H3             31.9371750912       15.5569997898       90.3314702873  LPSA28    26             19.0000000000
     30839       998  BMANNA    O3             30.7513777466       14.7411404517       91.7645731896  LPSA28    26             19.0000000000
     30840       998  BMANNA    HO3            31.5718209753       14.6550698077       92.2623635670  LPSA28    26             19.0000000000
     30841       998  BMANNA    C4             29.9124621091       15.5948159903       89.6185464904  LPSA28    26             19.0000000000
     30842       998  BMANNA    H4             28.8820205176       15.7472921968       89.9912534291  LPSA28    26             19.0000000000
     30843       998  BMANNA    O4             29.9454896404       14.3151571538       89.0114848535  LPSA28    26             19.0000000000
     30844       998  BMANNA    HO4            29.4883777080       13.6738705397       89.5702582726  LPSA28    26             19.0000000000
     30845       998  BMANNA    C6             29.2705665815       16.7471274668       87.4071611071  LPSA28    26             19.0000000000
     30846       998  BMANNA    H61            29.3544013019       17.7474180067       86.9203392618  LPSA28    26             19.0000000000
     30847       998  BMANNA    H62            29.5484046679       15.9861082034       86.6419710900  LPSA28    26             19.0000000000
     30848       998  BMANNA    O6             27.9151286072       16.5284090098       87.8030725433  LPSA28    26             19.0000000000
     30849       998  BMANNA    HO6            27.8561269480       15.6105046031       88.0646473642  LPSA28    26             19.0000000000
     30850       999  BGLCNA    C1             33.9233725149       21.1788884015       93.4657442904  LPSA28    27             19.0000000000
     30851       999  BGLCNA    H1             33.9498799603       22.2904417939       93.4259315305  LPSA28    27             19.0000000000
     30852       999  BGLCNA    C5             36.2210831873       21.1514459253       93.9122639538  LPSA28    27             19.0000000000
     30853       999  BGLCNA    H5             36.1765164627       22.2724893365       93.9333716086  LPSA28    27             19.0000000000
     30854       999  BGLCNA    O5             35.1912604461       20.6620130603       93.0627822192  LPSA28    27             19.0000000000
     30855       999  BGLCNA    C2             33.5966930995       20.6923930678       94.8642759899  LPSA28    27             19.0000000000
     30856       999  BGLCNA    H2             33.6523546732       19.5723081763       94.8331961980  LPSA28    27             19.0000000000
     30857       999  BGLCNA    N              32.2573193810       21.0832195559       95.2961132170  LPSA28    27             19.0000000000
     30858       999  BGLCNA    HN             31.9762356381       22.0056623426       95.0516025217  LPSA28    27             19.0000000000
     30859       999  BGLCNA    C              31.4638036510       20.2004288146       95.9425014860  LPSA28    27             19.0000000000
     30860       999  BGLCNA    O              31.9066492128       19.2011829254       96.4972390357  LPSA28    27             19.0000000000
     30861       999  BGLCNA    CT             29.9859577765       20.5106853799       96.0003777207  LPSA28    27             19.0000000000
     30862       999  BGLCNA    HT1            29.7369984673       21.3632390651       95.3477009430  LPSA28    27             19.0000000000
     30863       999  BGLCNA    HT2            29.6765421567       20.7203250573       97.0369646609  LPSA28    27             19.0000000000
     30864       999  BGLCNA    HT3            29.4294264331       19.6065557044       95.6647642575  LPSA28    27             19.0000000000
     30865       999  BGLCNA    C3             34.6397979858       21.1618577813       95.8206264240  LPSA28    27             19.0000000000
     30866       999  BGLCNA    H3             34.6711212916       22.2793626474       95.7727510299  LPSA28    27             19.0000000000
     30867       999  BGLCNA    O3             34.1964170720       20.7186230340       97.1329174234  LPSA28    27             19.0000000000
     30868       999  BGLCNA    C4             35.9728925675       20.6583821726       95.3269443036  LPSA28    27             19.0000000000
     30869       999  BGLCNA    H4             36.0130152904       19.5422097879       95.3336437781  LPSA28    27             19.0000000000
     30870       999  BGLCNA    O4             36.9890743425       21.1480658001       96.1528608626  LPSA28    27             19.0000000000
     30871       999  BGLCNA    HO4            37.1144815313       22.0909913795       96.0840876128  LPSA28    27             19.0000000000
     30872       999  BGLCNA    C6             37.5528615923       20.7710706321       93.3076605620  LPSA28    27             19.0000000000
     30873       999  BGLCNA    H61            38.2910859854       21.3285628357       93.8664193386  LPSA28    27             19.0000000000
     30874       999  BGLCNA    H62            37.7998539729       19.7042108615       93.4589814942  LPSA28    27             19.0000000000
     30875       999  BGLCNA    O6             37.6688751246       21.1425383120       91.9304128211  LPSA28    27             19.0000000000
     30876       999  BGLCNA    HO6            38.4680110017       20.8553630960       91.4971189409  LPSA28    27             19.0000000000
     30877      1000  AGAL      C1             34.7900843353       21.3401916271       98.2469820918  LPSA28    28             20.0000000000
     30878      1000  AGAL      H1             35.8418172507       20.9822206425       98.3230068072  LPSA28    28             20.0000000000
     30879      1000  AGAL      C5             33.4610768216       23.3412434689       98.1329026835  LPSA28    28             20.0000000000
     30880      1000  AGAL      H5             32.8011434821       22.7773571530       97.4313063384  LPSA28    28             20.0000000000
     30881      1000  AGAL      O5             34.7889272394       22.7721566643       98.0628723382  LPSA28    28             20.0000000000
     30882      1000  AGAL      C2             34.1390935827       21.0462616932       99.6122448834  LPSA28    28             20.0000000000
     30883      1000  AGAL      H2             34.7912549020       21.6299772618      100.3023918432  LPSA28    28             20.0000000000
     30884      1000  AGAL      O2             34.1787920063       19.6925492276      100.0943283592  LPSA28    28             20.0000000000
     30885      1000  AGAL      C3             32.7403045947       21.6261766719       99.6837614563  LPSA28    28             20.0000000000
     30886      1000  AGAL      H3             32.1429063823       21.2077875588       98.8447944156  LPSA28    28             20.0000000000
     30887      1000  AGAL      O3             32.0187226772       21.3105803055      100.8667776958  LPSA28    28             20.0000000000
     30888      1000  AGAL      HO3            31.1786245933       20.8753383317      100.6710754779  LPSA28    28             20.0000000000
     30889      1000  AGAL      C4             32.8532381271       23.1122287799       99.4972956874  LPSA28    28             20.0000000000
     30890      1000  AGAL      H4             31.8243893665       23.5374867458       99.5029882722  LPSA28    28             20.0000000000
     30891      1000  AGAL      O4             33.5937243491       23.7491476948      100.5290836379  LPSA28    28             20.0000000000
     30892      1000  AGAL      HO4            32.9359050895       24.2173801629      101.0534781711  LPSA28    28             20.0000000000
     30893      1000  AGAL      C6             33.4345169340       24.7899915342       97.6560154484  LPSA28    28             20.0000000000
     30894      1000  AGAL      H61            33.6866425480       24.8018917597       96.5729034653  LPSA28    28             20.0000000000
     30895      1000  AGAL      H62            32.4262900801       25.2468261405       97.7611894991  LPSA28    28             20.0000000000
     30896      1000  AGAL      O6             34.3373302878       25.6413680625       98.3520024276  LPSA28    28             20.0000000000
     30897      1000  AGAL      HO6            35.2066063268       25.5542467984       97.9426490542  LPSA28    28             20.0000000000
     30898      1001  ARHM      C1             34.4722805952       19.6813743567      101.4793750700  LPSA28    29             21.0000000000
     30899      1001  ARHM      H1             34.1589972863       20.6321275280      101.9622209503  LPSA28    29             21.0000000000
     30900      1001  ARHM      C5             36.3552895257       18.2874493626      101.1446914184  LPSA28    29             21.0000000000
     30901      1001  ARHM      H5             36.0859519313       18.2614383597      100.0640981875  LPSA28    29             21.0000000000
     30902      1001  ARHM      O5             35.8765634359       19.5168551395      101.7015524398  LPSA28    29             21.0000000000
     30903      1001  ARHM      C2             33.7283614726       18.5788915580      102.1702362507  LPSA28    29             21.0000000000
     30904      1001  ARHM      H2             32.6426248597       18.6998441404      101.9253592856  LPSA28    29             21.0000000000
     30905      1001  ARHM      O2             33.9406840379       18.6472740291      103.6011375383  LPSA28    29             21.0000000000
     30906      1001  ARHM      C3             34.1880180362       17.2554605057      101.6186708265  LPSA28    29             21.0000000000
     30907      1001  ARHM      H3             33.9687650406       17.2196711740      100.5217816579  LPSA28    29             21.0000000000
     30908      1001  ARHM      O3             33.4536986770       16.2328805481      102.2719124323  LPSA28    29             21.0000000000
     30909      1001  ARHM      HO3            33.9883807167       15.4378746506      102.2288478945  LPSA28    29             21.0000000000
     30910      1001  ARHM      C4             35.6919903066       17.0884612638      101.8209568113  LPSA28    29             21.0000000000
     30911      1001  ARHM      H4             35.9140048382       17.0906891301      102.9154386365  LPSA28    29             21.0000000000
     30912      1001  ARHM      O4             36.2166398840       15.8547570176      101.3020210896  LPSA28    29             21.0000000000
     30913      1001  ARHM      HO4            35.8471089169       15.6176277324      100.4480541210  LPSA28    29             21.0000000000
     30914      1001  ARHM      C6             37.8799237919       18.4005729415      101.2303667606  LPSA28    29             21.0000000000
     30915      1001  ARHM      H61            38.1704985023       19.3761569914      100.7776365347  LPSA28    29             21.0000000000
     30916      1001  ARHM      H62            38.2368143726       18.3718652549      102.2784863736  LPSA28    29             21.0000000000
     30917      1001  ARHM      H63            38.3625181383       17.5979932169      100.6372743468  LPSA28    29             21.0000000000
     30918      1002  ARHM      C1             32.9413558628       19.2861470894      104.3633689975  LPSA28    30             22.0000000000
     30919      1002  ARHM      H1             31.9460622496       18.8285123745      104.1547396244  LPSA28    30             22.0000000000
     30920      1002  ARHM      C5             34.0905765112       21.3747482773      104.4950118939  LPSA28    30             22.0000000000
     30921      1002  ARHM      H5             34.8977503671       20.8773700593      103.9144320042  LPSA28    30             22.0000000000
     30922      1002  ARHM      O5             32.8699809002       20.7053681071      104.1524352470  LPSA28    30             22.0000000000
     30923      1002  ARHM      C2             33.2724285780       19.0674232342      105.8228242258  LPSA28    30             22.0000000000
     30924      1002  ARHM      H2             33.3701271716       17.9770264734      106.0312345824  LPSA28    30             22.0000000000
     30925      1002  ARHM      O2             32.2313874168       19.6464471388      106.6023493805  LPSA28    30             22.0000000000
     30926      1002  ARHM      C3             34.5610031824       19.7496469255      106.2209720223  LPSA28    30             22.0000000000
     30927      1002  ARHM      H3             35.3375390327       19.3613481474      105.5215064117  LPSA28    30             22.0000000000
     30928      1002  ARHM      O3             34.9757247193       19.3735676087      107.5451775755  LPSA28    30             22.0000000000
     30929      1002  ARHM      C4             34.4270983151       21.2279689942      105.9622867006  LPSA28    30             22.0000000000
     30930      1002  ARHM      H4             33.5965557390       21.6680459253      106.5570243360  LPSA28    30             22.0000000000
     30931      1002  ARHM      O4             35.5924673885       21.9800035664      106.2954106921  LPSA28    30             22.0000000000
     30932      1002  ARHM      HO4            36.3100221488       21.8569350277      105.6672418458  LPSA28    30             22.0000000000
     30933      1002  ARHM      C6             34.0221947527       22.8419631402      104.0556175409  LPSA28    30             22.0000000000
     30934      1002  ARHM      H61            35.0065285007       23.3099308830      104.2260797510  LPSA28    30             22.0000000000
     30935      1002  ARHM      H62            33.8096150178       22.8980438705      102.9730480527  LPSA28    30             22.0000000000
     30936      1002  ARHM      H63            33.2471555754       23.4016391114      104.6210109413  LPSA28    30             22.0000000000
     30937      1003  BMANNA    C1             31.1710530581       18.7972721240      106.8918150310  LPSA28    31             23.0000000000
     30938      1003  BMANNA    H1             31.5503103801       17.7901491014      107.1555324144  LPSA28    31             23.0000000000
     30939      1003  BMANNA    C5             29.0557218451       17.9433151441      106.2002218436  LPSA28    31             23.0000000000
     30940      1003  BMANNA    H5             29.4900222638       16.9580774622      106.5022228187  LPSA28    31             23.0000000000
     30941      1003  BMANNA    O5             30.1871160730       18.7660549808      105.8492940428  LPSA28    31             23.0000000000
     30942      1003  BMANNA    C2             30.5461782656       19.4118869628      108.0878551348  LPSA28    31             23.0000000000
     30943      1003  BMANNA    H2             31.3040891013       19.3749597323      108.9108124122  LPSA28    31             23.0000000000
     30944      1003  BMANNA    N              30.2325693958       20.7785078586      107.8545225624  LPSA28    31             23.0000000000
     30945      1003  BMANNA    HN             30.1693016694       21.0890729610      106.9000893829  LPSA28    31             23.0000000000
     30946      1003  BMANNA    C              30.1350887863       21.6111770607      108.8733495931  LPSA28    31             23.0000000000
     30947      1003  BMANNA    O              30.4298837968       21.3787140478      110.0317301598  LPSA28    31             23.0000000000
     30948      1003  BMANNA    CT             29.8231622756       22.9106259684      108.4178954669  LPSA28    31             23.0000000000
     30949      1003  BMANNA    HT1            29.2314198277       22.9403551403      107.4916125973  LPSA28    31             23.0000000000
     30950      1003  BMANNA    HT2            30.8255156905       23.0575982719      107.9921209886  LPSA28    31             23.0000000000
     30951      1003  BMANNA    HT3            29.5605049340       23.6935086175      109.1726421153  LPSA28    31             23.0000000000
     30952      1003  BMANNA    C3             29.3728611097       18.5703636462      108.5037659188  LPSA28    31             23.0000000000
     30953      1003  BMANNA    H3             29.7297931897       17.5312438136      108.6603468893  LPSA28    31             23.0000000000
     30954      1003  BMANNA    O3             28.8877793807       18.9501502132      109.7680918069  LPSA28    31             23.0000000000
     30955      1003  BMANNA    HO3            29.5198473427       19.5943092840      110.1223086567  LPSA28    31             23.0000000000
     30956      1003  BMANNA    C4             28.3430630791       18.5282902233      107.4079759802  LPSA28    31             23.0000000000
     30957      1003  BMANNA    H4             27.9768928664       19.5476720097      107.1363950064  LPSA28    31             23.0000000000
     30958      1003  BMANNA    O4             27.2015615427       17.7491502917      107.7532849065  LPSA28    31             23.0000000000
     30959      1003  BMANNA    HO4            27.4941041924       16.9468030633      108.2033548550  LPSA28    31             23.0000000000
     30960      1003  BMANNA    C6             28.1023660988       17.6902462942      105.0476477727  LPSA28    31             23.0000000000
     30961      1003  BMANNA    H61            27.3984486014       16.8712418288      105.3197723582  LPSA28    31             23.0000000000
     30962      1003  BMANNA    H62            27.4813041780       18.5975176058      104.8815721820  LPSA28    31             23.0000000000
     30963      1003  BMANNA    O6             28.7644826346       17.3651997509      103.8230204206  LPSA28    31             23.0000000000
     30964      1003  BMANNA    HO6            29.1847758365       16.4954186781      103.8585064317  LPSA28    31             23.0000000000
     30965      1004  BGLCNA    C1             34.3954383830       20.0575201911      108.6247134549  LPSA28    32             23.0000000000
     30966      1004  BGLCNA    H1             33.3336121918       20.2568391508      108.4137039975  LPSA28    32             23.0000000000
     30967      1004  BGLCNA    C5             34.3450151959       22.0487335561      109.9272347253  LPSA28    32             23.0000000000
     30968      1004  BGLCNA    H5             33.2871369374       22.1818424432      109.5898317087  LPSA28    32             23.0000000000
     30969      1004  BGLCNA    O5             35.0219529346       21.3070254728      108.9082480091  LPSA28    32             23.0000000000
     30970      1004  BGLCNA    C2             34.4640638561       19.1898536255      109.8616913687  LPSA28    32             23.0000000000
     30971      1004  BGLCNA    H2             35.5450982371       19.1416858952      110.1467401884  LPSA28    32             23.0000000000
     30972      1004  BGLCNA    N              33.9762081032       17.8568804129      109.5856057957  LPSA28    32             23.0000000000
     30973      1004  BGLCNA    HN             33.2766972375       17.8568037318      108.8946298744  LPSA28    32             23.0000000000
     30974      1004  BGLCNA    C              34.4299739930       16.7050228500      110.1017947242  LPSA28    32             23.0000000000
     30975      1004  BGLCNA    O              35.2991691219       16.6099141018      110.9505881486  LPSA28    32             23.0000000000
     30976      1004  BGLCNA    CT             33.7574902006       15.4755615689      109.5415003914  LPSA28    32             23.0000000000
     30977      1004  BGLCNA    HT1            33.2494993547       15.7748249880      108.6034309938  LPSA28    32             23.0000000000
     30978      1004  BGLCNA    HT2            33.0126696368       15.0538780061      110.2450023583  LPSA28    32             23.0000000000
     30979      1004  BGLCNA    HT3            34.5093849705       14.6848369258      109.3230351677  LPSA28    32             23.0000000000
     30980      1004  BGLCNA    C3             33.6691858187       19.9009196925      110.9314465532  LPSA28    32             23.0000000000
     30981      1004  BGLCNA    H3             32.6763559058       20.1302313984      110.4778080390  LPSA28    32             23.0000000000
     30982      1004  BGLCNA    O3             33.4375102931       19.0979889697      112.1069380694  LPSA28    32             23.0000000000
     30983      1004  BGLCNA    C4             34.3572514715       21.2227560672      111.1986009674  LPSA28    32             23.0000000000
     30984      1004  BGLCNA    H4             35.4113064101       21.0066671796      111.5027918776  LPSA28    32             23.0000000000
     30985      1004  BGLCNA    O4             33.7275769136       21.9566467660      112.2301115972  LPSA28    32             23.0000000000
     30986      1004  BGLCNA    HO4            34.1050751105       21.6868460717      113.0716670143  LPSA28    32             23.0000000000
     30987      1004  BGLCNA    C6             34.9425710348       23.4477388367      110.0372155178  LPSA28    32             23.0000000000
     30988      1004  BGLCNA    H61            34.3280390179       24.0869826402      110.7147231144  LPSA28    32             23.0000000000
     30989      1004  BGLCNA    H62            35.9532354934       23.3821993895      110.4997633311  LPSA28    32             23.0000000000
     30990      1004  BGLCNA    O6             35.0145803345       24.0948993031      108.7526492599  LPSA28    32             23.0000000000
     30991      1004  BGLCNA    HO6            34.2225643833       23.8485866090      108.2643677368  LPSA28    32             23.0000000000
     30992      1005  AGAL      C1             32.1569946311       19.2987036430      112.6850961232  LPSA28    33             24.0000000000
     30993      1005  AGAL      H1             31.8654717520       20.3677669926      112.6084394124  LPSA28    33             24.0000000000
     30994      1005  AGAL      C5             31.3591542728       17.0890635490      112.2068762754  LPSA28    33             24.0000000000
     30995      1005  AGAL      H5             32.4000783765       16.9427722208      111.8391975834  LPSA28    33             24.0000000000
     30996      1005  AGAL      O5             31.1233065474       18.5056023787      112.0654868265  LPSA28    33             24.0000000000
     30997      1005  AGAL      C2             32.2110819646       18.8974613066      114.1477431336  LPSA28    33             24.0000000000
     30998      1005  AGAL      H2             31.1736106976       18.9976907320      114.5320251031  LPSA28    33             24.0000000000
     30999      1005  AGAL      O2             32.9882397841       19.8696564116      114.8718355339  LPSA28    33             24.0000000000
     31000      1005  AGAL      C3             32.5462222595       17.4064478406      114.2974090043  LPSA28    33             24.0000000000
     31001      1005  AGAL      H3             33.4749647637       17.1786006695      113.7169058938  LPSA28    33             24.0000000000
     31002      1005  AGAL      O3             32.8871267545       16.9941584208      115.6154776895  LPSA28    33             24.0000000000
     31003      1005  AGAL      HO3            32.2100818722       17.2610920366      116.2406697371  LPSA28    33             24.0000000000
     31004      1005  AGAL      C4             31.4129022695       16.6024489073      113.6480517362  LPSA28    33             24.0000000000
     31005      1005  AGAL      H4             31.6782793324       15.5210462410      113.6573866896  LPSA28    33             24.0000000000
     31006      1005  AGAL      O4             30.1332438223       16.6815370886      114.2703456213  LPSA28    33             24.0000000000
     31007      1005  AGAL      HO4            30.0346716175       17.3983929550      114.8935850333  LPSA28    33             24.0000000000
     31008      1005  AGAL      C6             30.4890824672       16.2622621412      111.2587077270  LPSA28    33             24.0000000000
     31009      1005  AGAL      H61            30.7865348541       16.5634467404      110.2367276605  LPSA28    33             24.0000000000
     31010      1005  AGAL      H62            30.7209795980       15.1845713411      111.3850544218  LPSA28    33             24.0000000000
     31011      1005  AGAL      O6             29.0665451307       16.3979024596      111.3571360429  LPSA28    33             24.0000000000
     31012      1005  AGAL      HO6            28.7601558522       17.1681561431      110.8588640898  LPSA28    33             24.0000000000
     31013      1006  ARHM      C1             32.3785713463       20.3536961945      116.0562971578  LPSA28    34             25.0000000000
     31014      1006  ARHM      H1             32.0347595304       19.4836344596      116.6544190267  LPSA28    34             25.0000000000
     31015      1006  ARHM      C5             31.4973247792       22.3914478251      115.0773740253  LPSA28    34             25.0000000000
     31016      1006  ARHM      H5             31.8494703417       22.0880627579      114.0677591843  LPSA28    34             25.0000000000
     31017      1006  ARHM      O5             31.2174445538       21.1976460136      115.8310015537  LPSA28    34             25.0000000000
     31018      1006  ARHM      C2             33.4528820944       21.1142453397      116.8101215738  LPSA28    34             25.0000000000
     31019      1006  ARHM      H2             34.3783898975       20.4836211582      116.8642448989  LPSA28    34             25.0000000000
     31020      1006  ARHM      O2             33.0656757485       21.4593627994      118.1635538187  LPSA28    34             25.0000000000
     31021      1006  ARHM      C3             33.8045446576       22.3606541429      116.0023797762  LPSA28    34             25.0000000000
     31022      1006  ARHM      H3             34.1544035613       22.0576643234      114.9879091497  LPSA28    34             25.0000000000
     31023      1006  ARHM      O3             34.8697039936       23.0984213329      116.6015031681  LPSA28    34             25.0000000000
     31024      1006  ARHM      HO3            35.4052960320       23.5573286652      115.9468821315  LPSA28    34             25.0000000000
     31025      1006  ARHM      C4             32.5658995549       23.2041443265      115.8046493105  LPSA28    34             25.0000000000
     31026      1006  ARHM      H4             32.1261641385       23.4822801070      116.7916664321  LPSA28    34             25.0000000000
     31027      1006  ARHM      O4             32.8746662753       24.4046648162      115.0948301227  LPSA28    34             25.0000000000
     31028      1006  ARHM      HO4            33.3187525180       25.0300323636      115.6797874356  LPSA28    34             25.0000000000
     31029      1006  ARHM      C6             30.2233864118       23.2446541052      114.8616125348  LPSA28    34             25.0000000000
     31030      1006  ARHM      H61            29.7391031392       23.5864486434      115.7960266131  LPSA28    34             25.0000000000
     31031      1006  ARHM      H62            30.5378702224       24.1800023152      114.3530576709  LPSA28    34             25.0000000000
     31032      1006  ARHM      H63            29.4816834877       22.7490970979      114.1985131066  LPSA28    34             25.0000000000
     31033      1007  ARHM      C1             32.7137181346       20.4231854205      119.0646625107  LPSA28    35             26.0000000000
     31034      1007  ARHM      H1             33.3476231407       19.5215272262      118.8748660982  LPSA28    35             26.0000000000
     31035      1007  ARHM      C5             30.4387259212       21.2165054455      119.2114532484  LPSA28    35             26.0000000000
     31036      1007  ARHM      H5             30.6690051582       22.0469109492      118.5114034869  LPSA28    35             26.0000000000
     31037      1007  ARHM      O5             31.3111922314       20.0954308687      118.9522533679  LPSA28    35             26.0000000000
     31038      1007  ARHM      C2             32.9527905420       20.8672492943      120.5077837636  LPSA28    35             26.0000000000
     31039      1007  ARHM      H2             34.0288611623       21.1340809633      120.6506805210  LPSA28    35             26.0000000000
     31040      1007  ARHM      O2             32.6242419882       19.8298446353      121.4478992786  LPSA28    35             26.0000000000
     31041      1007  ARHM      C3             32.1063478822       22.0797564476      120.8277417632  LPSA28    35             26.0000000000
     31042      1007  ARHM      H3             32.3736321165       22.8962774175      120.1169221632  LPSA28    35             26.0000000000
     31043      1007  ARHM      O3             32.3889912288       22.5973237040      122.1267512721  LPSA28    35             26.0000000000
     31044      1007  ARHM      HO3            32.5478625688       21.8617337763      122.7279845286  LPSA28    35             26.0000000000
     31045      1007  ARHM      C4             30.6375419039       21.7168844070      120.6459618767  LPSA28    35             26.0000000000
     31046      1007  ARHM      H4             30.3507985510       20.8884631420      121.3412367341  LPSA28    35             26.0000000000
     31047      1007  ARHM      O4             29.7948102494       22.8409747647      120.9291646169  LPSA28    35             26.0000000000
     31048      1007  ARHM      HO4            30.2181344060       23.6374926798      120.5894318925  LPSA28    35             26.0000000000
     31049      1007  ARHM      C6             28.9910582072       20.8011286642      118.8631046810  LPSA28    35             26.0000000000
     31050      1007  ARHM      H61            28.8668768456       20.6008403150      117.7796645590  LPSA28    35             26.0000000000
     31051      1007  ARHM      H62            28.7123884314       19.8815735477      119.4248394808  LPSA28    35             26.0000000000
     31052      1007  ARHM      H63            28.2923765886       21.6294606839      119.1143208752  LPSA28    35             26.0000000000
     31053      1008  BMANNA    C1             33.4999923687       18.7404488152      121.4754938708  LPSA28    36             27.0000000000
     31054      1008  BMANNA    H1             34.4997822778       19.0610282302      121.1323163206  LPSA28    36             27.0000000000
     31055      1008  BMANNA    C5             34.0914742865       16.5872057964      120.7284011037  LPSA28    36             27.0000000000
     31056      1008  BMANNA    H5             35.0861969964       17.0160314471      120.4343372974  LPSA28    36             27.0000000000
     31057      1008  BMANNA    O5             33.1001008949       17.6302710533      120.6658592146  LPSA28    36             27.0000000000
     31058      1008  BMANNA    C2             33.5657244961       18.2804747944      122.9202265298  LPSA28    36             27.0000000000
     31059      1008  BMANNA    H2             33.9421233702       19.1727368097      123.4838704066  LPSA28    36             27.0000000000
     31060      1008  BMANNA    N              32.2745230175       17.8763692380      123.4870675946  LPSA28    36             27.0000000000
     31061      1008  BMANNA    HN             31.6414506571       17.4224590070      122.8602747160  LPSA28    36             27.0000000000
     31062      1008  BMANNA    C              32.0109575200       17.9973649592      124.8112855246  LPSA28    36             27.0000000000
     31063      1008  BMANNA    O              32.7685192241       18.5746974193      125.5858558554  LPSA28    36             27.0000000000
     31064      1008  BMANNA    CT             30.7505640351       17.3617865197      125.3412550231  LPSA28    36             27.0000000000
     31065      1008  BMANNA    HT1            30.6131144122       16.3697642852      124.8726192836  LPSA28    36             27.0000000000
     31066      1008  BMANNA    HT2            29.8670985173       17.9979625632      125.1358753353  LPSA28    36             27.0000000000
     31067      1008  BMANNA    HT3            30.8371705095       17.2497746954      126.4430965705  LPSA28    36             27.0000000000
     31068      1008  BMANNA    C3             34.6204235523       17.1995624767      123.0286083362  LPSA28    36             27.0000000000
     31069      1008  BMANNA    H3             35.5913236036       17.6088498710      122.6470994032  LPSA28    36             27.0000000000
     31070      1008  BMANNA    O3             34.8205375935       16.7467955251      124.3709900978  LPSA28    36             27.0000000000
     31071      1008  BMANNA    HO3            35.6908582413       16.9521122281      124.7273746016  LPSA28    36             27.0000000000
     31072      1008  BMANNA    C4             34.2331506017       16.0549481435      122.1390969951  LPSA28    36             27.0000000000
     31073      1008  BMANNA    H4             33.2696494824       15.6041099668      122.4569465022  LPSA28    36             27.0000000000
     31074      1008  BMANNA    O4             35.1869971576       15.0178783616      122.2286001325  LPSA28    36             27.0000000000
     31075      1008  BMANNA    HO4            35.2135206970       14.8016885317      123.1716379346  LPSA28    36             27.0000000000
     31076      1008  BMANNA    C6             33.8132866104       15.5045890643      119.7342240111  LPSA28    36             27.0000000000
     31077      1008  BMANNA    H61            33.7620980488       15.9072751747      118.6957143997  LPSA28    36             27.0000000000
     31078      1008  BMANNA    H62            34.6864334530       14.8424011805      119.8106224735  LPSA28    36             27.0000000000
     31079      1008  BMANNA    O6             32.6695258302       14.7171290454      120.0489420508  LPSA28    36             27.0000000000
     31080      1008  BMANNA    HO6            32.9039476665       14.0070291211      120.6565169949  LPSA28    36             27.0000000000
     31081      1009  ECLIPA    HB6S           26.6986096842      -30.4551998231       20.4267103725  LPSA29    1               0.0000000000
     31082      1009  ECLIPA    OB6            25.3740949767      -29.5368159792       21.7127267961  LPSA29    1               0.0000000000
     31083      1009  ECLIPA    CB6            25.6245118129      -30.5322271782       20.6982870786  LPSA29    1               0.0000000000
     31084      1009  ECLIPA    HB6R           25.4500859515      -31.5579308394       21.0995180942  LPSA29    1               0.0000000000
     31085      1009  ECLIPA    CB5            24.7782686485      -30.3901709724       19.4350368431  LPSA29    1               0.0000000000
     31086      1009  ECLIPA    OB5            24.9935884479      -29.0435133897       18.9633441354  LPSA29    1               0.0000000000
     31087      1009  ECLIPA    HB5            23.7166283376      -30.5343896060       19.7412445118  LPSA29    1               0.0000000000
     31088      1009  ECLIPA    CB1            24.2400400869      -28.7600668870       17.7801196944  LPSA29    1               0.0000000000
     31089      1009  ECLIPA    HB1            23.1474982804      -28.9069121298       17.9582475339  LPSA29    1               0.0000000000
     31090      1009  ECLIPA    OA6            24.4059355141      -27.4368174852       17.3323340169  LPSA29    1               0.0000000000
     31091      1009  ECLIPA    CA6            25.7137479028      -26.8745393858       17.5343451038  LPSA29    1               0.0000000000
     31092      1009  ECLIPA    HA6R           26.4956062596      -27.6374716315       17.7443428776  LPSA29    1               0.0000000000
     31093      1009  ECLIPA    HA6S           25.6502018365      -26.1943944764       18.3947849071  LPSA29    1               0.0000000000
     31094      1009  ECLIPA    CB4            25.1398508303      -31.4120043416       18.3315190574  LPSA29    1               0.0000000000
     31095      1009  ECLIPA    HB4            26.2211634090      -31.3536939290       18.0528531578  LPSA29    1               0.0000000000
     31096      1009  ECLIPA    OB4            24.7720824048      -32.7080624144       18.8327613024  LPSA29    1               0.0000000000
     31097      1009  ECLIPA    PB             25.9193139003      -33.8397252506       19.3073753791  LPSA29    1               0.0000000000
     31098      1009  ECLIPA    OPB4           25.4024590885      -34.5946140803       20.5349113326  LPSA29    1               0.0000000000
     31099      1009  ECLIPA    OPB3           27.1463701297      -32.9964127760       19.6425710466  LPSA29    1               0.0000000000
     31100      1009  ECLIPA    OPB2           26.2153516634      -34.7732944740       18.1215617169  LPSA29    1               0.0000000000
     31101      1009  ECLIPA    CB3            24.3290521252      -31.0939270394       17.0866672128  LPSA29    1               0.0000000000
     31102      1009  ECLIPA    OB3            24.6522789294      -31.8876415869       15.9413509395  LPSA29    1               0.0000000000
     31103      1009  ECLIPA    HB3            23.2381789303      -31.1188544151       17.3325871077  LPSA29    1               0.0000000000
     31104      1009  ECLIPA    C71            24.0052474724      -33.0350686259       15.7615003298  LPSA29    1               0.0000000000
     31105      1009  ECLIPA    O71            22.8922860000      -33.2462996789       16.2198047490  LPSA29    1               0.0000000000
     31106      1009  ECLIPA    C72            24.4160025590      -33.5991051769       14.3771529577  LPSA29    1               0.0000000000
     31107      1009  ECLIPA    H72R           24.2533552229      -32.8313632136       13.5941521372  LPSA29    1               0.0000000000
     31108      1009  ECLIPA    H72S           23.7953295465      -34.4965219701       14.1712835494  LPSA29    1               0.0000000000
     31109      1009  ECLIPA    CB2            24.6346207010      -29.6750680210       16.6619753438  LPSA29    1               0.0000000000
     31110      1009  ECLIPA    HB2            25.7472139318      -29.5890156518       16.5074275769  LPSA29    1               0.0000000000
     31111      1009  ECLIPA    NB2            23.9006070052      -29.3285663030       15.4487746825  LPSA29    1               0.0000000000
     31112      1009  ECLIPA    HNB2           22.9969555189      -28.9347077667       15.5683917731  LPSA29    1               0.0000000000
     31113      1009  ECLIPA    CA4            24.9823099585      -25.2270585119       15.7898852605  LPSA29    1               0.0000000000
     31114      1009  ECLIPA    HA4            24.1594348011      -25.9276620991       15.5196448436  LPSA29    1               0.0000000000
     31115      1009  ECLIPA    OA4            24.5339213088      -24.3502342167       16.8113182291  LPSA29    1               0.0000000000
     31116      1009  ECLIPA    HOA4           24.4080645623      -24.8335522269       17.6347302529  LPSA29    1               0.0000000000
     31117      1009  ECLIPA    CA5            26.1177706594      -26.0608592911       16.3266849742  LPSA29    1               0.0000000000
     31118      1009  ECLIPA    HA5            27.0286958654      -25.4590682059       16.5646889809  LPSA29    1               0.0000000000
     31119      1009  ECLIPA    OA5            26.4428671370      -27.0102951032       15.3307251923  LPSA29    1               0.0000000000
     31120      1009  ECLIPA    CA1            26.8931530444      -26.4189033686       14.1016668910  LPSA29    1               0.0000000000
     31121      1009  ECLIPA    HA1            26.9088628386      -27.2979431727       13.4206862080  LPSA29    1               0.0000000000
     31122      1009  ECLIPA    OA1            28.1877156799      -25.8416310464       14.1458033362  LPSA29    1               0.0000000000
     31123      1009  ECLIPA    OPA2           29.8622389247      -26.0567956164       16.0039554935  LPSA29    1               0.0000000000
     31124      1009  ECLIPA    OPA3           29.0133403093      -28.1717473177       14.8626917052  LPSA29    1               0.0000000000
     31125      1009  ECLIPA    OPA4           30.5924861416      -26.5754890719       13.6567106775  LPSA29    1               0.0000000000
     31126      1009  ECLIPA    PA             29.4814683905      -26.7333507677       14.6908517740  LPSA29    1               0.0000000000
     31127      1009  ECLIPA    CA3            25.3734335871      -24.4933118705       14.5242684837  LPSA29    1               0.0000000000
     31128      1009  ECLIPA    HA3            26.2058542994      -23.7829944459       14.7367356514  LPSA29    1               0.0000000000
     31129      1009  ECLIPA    OA3            24.2027768716      -23.7207726009       14.1867562248  LPSA29    1               0.0000000000
     31130      1009  ECLIPA    C31            23.1971099095      -24.2994399632       13.5039454263  LPSA29    1               0.0000000000
     31131      1009  ECLIPA    O31            23.2206119948      -24.4389126954       12.2939242152  LPSA29    1               0.0000000000
     31132      1009  ECLIPA    C32            21.8803103830      -24.2240076641       14.2872575359  LPSA29    1               0.0000000000
     31133      1009  ECLIPA    H32R           21.2386459080      -23.5160709320       13.7155054320  LPSA29    1               0.0000000000
     31134      1009  ECLIPA    H32S           22.0888206348      -23.7661603270       15.2751878192  LPSA29    1               0.0000000000
     31135      1009  ECLIPA    CA2            25.7940334019      -25.5495829952       13.5082405612  LPSA29    1               0.0000000000
     31136      1009  ECLIPA    HA2            24.9300839588      -26.2345191675       13.3382082355  LPSA29    1               0.0000000000
     31137      1009  ECLIPA    NA2            26.1969005760      -24.9599837818       12.2220784780  LPSA29    1               0.0000000000
     31138      1009  ECLIPA    HNA2           25.9930660013      -23.9989580120       12.1198151271  LPSA29    1               0.0000000000
     31139      1009  ECLIPA    C73            25.9138920429      -33.9782158406       14.3540081715  LPSA29    1               0.0000000000
     31140      1009  ECLIPA    H73R           26.1332097687      -34.5594743109       15.2828718356  LPSA29    1               0.0000000000
     31141      1009  ECLIPA    O73            26.6551295698      -32.7605553832       14.2750523351  LPSA29    1               0.0000000000
     31142      1009  ECLIPA    C81            27.7731253962      -32.6131787243       14.9768315420  LPSA29    1               0.0000000000
     31143      1009  ECLIPA    O81            28.4125057385      -33.5492919955       15.4824389669  LPSA29    1               0.0000000000
     31144      1009  ECLIPA    C82            28.5361238029      -31.4199333902       14.3442671110  LPSA29    1               0.0000000000
     31145      1009  ECLIPA    H82R           29.4940830018      -31.2845376690       14.8771809248  LPSA29    1               0.0000000000
     31146      1009  ECLIPA    H82S           27.9552842320      -30.4938219913       14.5508941700  LPSA29    1               0.0000000000
     31147      1009  ECLIPA    C83            28.7718433977      -31.5246597066       12.8130159344  LPSA29    1               0.0000000000
     31148      1009  ECLIPA    H83R           27.8373015547      -31.1904395366       12.2947919719  LPSA29    1               0.0000000000
     31149      1009  ECLIPA    H83S           28.9456652608      -32.5778543638       12.5325086985  LPSA29    1               0.0000000000
     31150      1009  ECLIPA    C84            29.8864046448      -30.5982978178       12.2955946518  LPSA29    1               0.0000000000
     31151      1009  ECLIPA    H84R           30.8891173811      -30.9370924349       12.6010926138  LPSA29    1               0.0000000000
     31152      1009  ECLIPA    H84S           29.7013445012      -29.5895696745       12.7603362780  LPSA29    1               0.0000000000
     31153      1009  ECLIPA    C85            29.8216673811      -30.3879319774       10.7746783081  LPSA29    1               0.0000000000
     31154      1009  ECLIPA    H85R           28.7385520813      -30.2406392546       10.5467310663  LPSA29    1               0.0000000000
     31155      1009  ECLIPA    H85S           30.1355095404      -31.2961323806       10.2241263278  LPSA29    1               0.0000000000
     31156      1009  ECLIPA    C86            30.5299218994      -29.1023043139       10.2896932272  LPSA29    1               0.0000000000
     31157      1009  ECLIPA    H86R           31.5818443743      -29.2981059035        9.9884191598  LPSA29    1               0.0000000000
     31158      1009  ECLIPA    H86S           30.5746483995      -28.3684824518       11.1316893011  LPSA29    1               0.0000000000
     31159      1009  ECLIPA    C87            29.7582094944      -28.3816432073        9.1619576406  LPSA29    1               0.0000000000
     31160      1009  ECLIPA    H87R           30.3502430513      -27.5138979427        8.7980791726  LPSA29    1               0.0000000000
     31161      1009  ECLIPA    H87S           28.8135458476      -27.9601072633        9.5776860441  LPSA29    1               0.0000000000
     31162      1009  ECLIPA    C88            29.3667762654      -29.3226648798        8.0209041627  LPSA29    1               0.0000000000
     31163      1009  ECLIPA    H88R           28.5099501901      -29.9462792165        8.3498661490  LPSA29    1               0.0000000000
     31164      1009  ECLIPA    H88S           30.2005903507      -30.0461300482        7.8791118636  LPSA29    1               0.0000000000
     31165      1009  ECLIPA    C89            28.9943647691      -28.5932321622        6.7166033570  LPSA29    1               0.0000000000
     31166      1009  ECLIPA    H89R           28.7121778500      -27.5322207569        6.8956670410  LPSA29    1               0.0000000000
     31167      1009  ECLIPA    H89S           28.0993901064      -29.0664661913        6.2582358896  LPSA29    1               0.0000000000
     31168      1009  ECLIPA    C810           30.1349506875      -28.7014108970        5.7016407663  LPSA29    1               0.0000000000
     31169      1009  ECLIPA    H810R          30.6661886907      -29.6492880624        5.9332965243  LPSA29    1               0.0000000000
     31170      1009  ECLIPA    H810S          30.8325198313      -27.8520433509        5.8648362051  LPSA29    1               0.0000000000
     31171      1009  ECLIPA    C811           29.6613686439      -28.7312383160        4.2454199957  LPSA29    1               0.0000000000
     31172      1009  ECLIPA    H811R          30.4794214944      -28.4462525495        3.5413903273  LPSA29    1               0.0000000000
     31173      1009  ECLIPA    H811S          28.8441090589      -27.9839885440        4.1702405606  LPSA29    1               0.0000000000
     31174      1009  ECLIPA    C812           29.0586789639      -30.0724707664        3.7991608763  LPSA29    1               0.0000000000
     31175      1009  ECLIPA    H812R          28.5473566972      -29.8920678994        2.8351581439  LPSA29    1               0.0000000000
     31176      1009  ECLIPA    H812S          28.2485659401      -30.3847121429        4.4738372096  LPSA29    1               0.0000000000
     31177      1009  ECLIPA    C813           30.0478718175      -31.2366118678        3.6510231011  LPSA29    1               0.0000000000
     31178      1009  ECLIPA    H813R          30.8586158663      -30.9536005384        2.9463375175  LPSA29    1               0.0000000000
     31179      1009  ECLIPA    H813S          30.5271378105      -31.4599770931        4.6309825079  LPSA29    1               0.0000000000
     31180      1009  ECLIPA    C814           29.3744152498      -32.5071258975        3.1322774630  LPSA29    1               0.0000000000
     31181      1009  ECLIPA    H814R          28.7633540451      -32.3205719905        2.2207781474  LPSA29    1               0.0000000000
     31182      1009  ECLIPA    H814S          28.7111424623      -32.9218002445        3.9187750560  LPSA29    1               0.0000000000
     31183      1009  ECLIPA    H814T          30.1408231416      -33.2694439991        2.8875040577  LPSA29    1               0.0000000000
     31184      1009  ECLIPA    C74            26.3496779812      -34.8237711862       13.1267817769  LPSA29    1               0.0000000000
     31185      1009  ECLIPA    H74R           25.8504915797      -35.8093568361       13.0376879134  LPSA29    1               0.0000000000
     31186      1009  ECLIPA    H74S           27.4259105802      -35.0396534290       13.3139193815  LPSA29    1               0.0000000000
     31187      1009  ECLIPA    C75            26.2928818948      -34.0639105024       11.7817222225  LPSA29    1               0.0000000000
     31188      1009  ECLIPA    H75R           27.1774563673      -34.3817109182       11.1883345862  LPSA29    1               0.0000000000
     31189      1009  ECLIPA    H75S           26.4062363816      -32.9743990247       11.9727659690  LPSA29    1               0.0000000000
     31190      1009  ECLIPA    C76            25.0277929635      -34.2717673126       10.9425986220  LPSA29    1               0.0000000000
     31191      1009  ECLIPA    H76R           24.1993641309      -33.6650820182       11.3729047703  LPSA29    1               0.0000000000
     31192      1009  ECLIPA    H76S           24.6980782521      -35.3374792609       10.9814355221  LPSA29    1               0.0000000000
     31193      1009  ECLIPA    C77            25.2080801491      -33.8714693433        9.4599853065  LPSA29    1               0.0000000000
     31194      1009  ECLIPA    H77R           25.9102832224      -34.5939348912        8.9902109658  LPSA29    1               0.0000000000
     31195      1009  ECLIPA    H77S           25.6167405470      -32.8705799265        9.3174240991  LPSA29    1               0.0000000000
     31196      1009  ECLIPA    C78            23.8367406464      -33.8569912430        8.7960302285  LPSA29    1               0.0000000000
     31197      1009  ECLIPA    H78R           23.5980170076      -34.8848340699        9.0825915165  LPSA29    1               0.0000000000
     31198      1009  ECLIPA    H78S           23.1739505964      -33.1431657384        9.3343827993  LPSA29    1               0.0000000000
     31199      1009  ECLIPA    C79            23.6853438729      -33.5850869222        7.2866105336  LPSA29    1               0.0000000000
     31200      1009  ECLIPA    H79R           23.4501232754      -32.5074347834        7.1546655005  LPSA29    1               0.0000000000
     31201      1009  ECLIPA    H79S           22.8200863124      -34.1241787235        6.8419064367  LPSA29    1               0.0000000000
     31202      1009  ECLIPA    C710           24.8843337866      -33.9889839662        6.4455833744  LPSA29    1               0.0000000000
     31203      1009  ECLIPA    H710R          25.8023807457      -33.5260431956        6.8609826775  LPSA29    1               0.0000000000
     31204      1009  ECLIPA    H710S          24.9909865433      -35.0964012523        6.4866669582  LPSA29    1               0.0000000000
     31205      1009  ECLIPA    C711           24.7655801501      -33.5659367998        4.9862942035  LPSA29    1               0.0000000000
     31206      1009  ECLIPA    H711R          23.8633701897      -34.0442907361        4.5392166829  LPSA29    1               0.0000000000
     31207      1009  ECLIPA    H711S          24.6595644106      -32.4584675494        4.9201725445  LPSA29    1               0.0000000000
     31208      1009  ECLIPA    C712           26.0425244843      -33.9785511158        4.2547321743  LPSA29    1               0.0000000000
     31209      1009  ECLIPA    H712R          26.1033257510      -35.0906594132        4.2682004425  LPSA29    1               0.0000000000
     31210      1009  ECLIPA    H712S          26.8987667766      -33.5797319419        4.8361437872  LPSA29    1               0.0000000000
     31211      1009  ECLIPA    C713           26.0843048359      -33.4677798506        2.8250126622  LPSA29    1               0.0000000000
     31212      1009  ECLIPA    H713R          26.0722041913      -32.3484720971        2.8394510876  LPSA29    1               0.0000000000
     31213      1009  ECLIPA    H713S          27.0284127215      -33.7779713530        2.3127216895  LPSA29    1               0.0000000000
     31214      1009  ECLIPA    C714           24.8977692287      -34.0406542872        2.0628778467  LPSA29    1               0.0000000000
     31215      1009  ECLIPA    H714R          24.9929029861      -35.1287585317        1.8663752759  LPSA29    1               0.0000000000
     31216      1009  ECLIPA    H714S          23.9050445510      -33.6786660766        2.3776009758  LPSA29    1               0.0000000000
     31217      1009  ECLIPA    H714T          24.8186071084      -33.6398730039        1.0927038844  LPSA29    1               0.0000000000
     31218      1009  ECLIPA    C51            24.3967632915      -29.5815168640       14.2278170660  LPSA29    1               0.0000000000
     31219      1009  ECLIPA    O51            25.5745959029      -29.8514816741       14.0706304921  LPSA29    1               0.0000000000
     31220      1009  ECLIPA    C52            23.4409953183      -29.5684750599       13.0546018313  LPSA29    1               0.0000000000
     31221      1009  ECLIPA    H52R           22.9812609478      -30.5742799526       12.9295797115  LPSA29    1               0.0000000000
     31222      1009  ECLIPA    H52S           22.6362906100      -28.8436998842       13.2479416482  LPSA29    1               0.0000000000
     31223      1009  ECLIPA    C53            24.1896594146      -29.1833473114       11.7617882477  LPSA29    1               0.0000000000
     31224      1009  ECLIPA    H53R           24.9974834462      -28.4426562752       11.9852584287  LPSA29    1               0.0000000000
     31225      1009  ECLIPA    O53            23.1930218713      -28.6819717036       10.8524818625  LPSA29    1               0.0000000000
     31226      1009  ECLIPA    C61            23.2276374480      -27.3923882112       10.5298845030  LPSA29    1               0.0000000000
     31227      1009  ECLIPA    O61            24.0779127169      -26.5983985420       10.8542754381  LPSA29    1               0.0000000000
     31228      1009  ECLIPA    C62            22.0583416741      -27.0621978853        9.5925741582  LPSA29    1               0.0000000000
     31229      1009  ECLIPA    H62R           21.1607647052      -26.8886926276       10.2149850745  LPSA29    1               0.0000000000
     31230      1009  ECLIPA    H62S           21.8690325233      -27.9798688693        9.0050035082  LPSA29    1               0.0000000000
     31231      1009  ECLIPA    C63            22.3580905376      -25.8134627344        8.7052334666  LPSA29    1               0.0000000000
     31232      1009  ECLIPA    H63R           23.3775703153      -25.9296751777        8.2754832115  LPSA29    1               0.0000000000
     31233      1009  ECLIPA    H63S           22.3531482324      -24.8886099349        9.3294033398  LPSA29    1               0.0000000000
     31234      1009  ECLIPA    C64            21.4103125940      -25.5959446747        7.5081114201  LPSA29    1               0.0000000000
     31235      1009  ECLIPA    H64R           21.6706241636      -24.6444769175        6.9883463008  LPSA29    1               0.0000000000
     31236      1009  ECLIPA    H64S           20.3817349846      -25.5127738681        7.9221488001  LPSA29    1               0.0000000000
     31237      1009  ECLIPA    C65            21.4979722303      -26.7707250301        6.5281644520  LPSA29    1               0.0000000000
     31238      1009  ECLIPA    H65R           21.1734082184      -27.6452273448        7.1355428922  LPSA29    1               0.0000000000
     31239      1009  ECLIPA    H65S           22.5512709759      -26.9370170229        6.2166252887  LPSA29    1               0.0000000000
     31240      1009  ECLIPA    C66            20.6223507416      -26.7432626781        5.2599074770  LPSA29    1               0.0000000000
     31241      1009  ECLIPA    H66R           19.5558242862      -26.6381801007        5.5502585984  LPSA29    1               0.0000000000
     31242      1009  ECLIPA    H66S           20.7623978660      -27.7484957431        4.7936777597  LPSA29    1               0.0000000000
     31243      1009  ECLIPA    C67            20.9470516114      -25.7066423153        4.1680152360  LPSA29    1               0.0000000000
     31244      1009  ECLIPA    H67R           20.9834972834      -24.6713342682        4.5724898728  LPSA29    1               0.0000000000
     31245      1009  ECLIPA    H67S           20.1647734118      -25.7333226016        3.3720870519  LPSA29    1               0.0000000000
     31246      1009  ECLIPA    C68            22.2966847885      -25.9034193033        3.4934600303  LPSA29    1               0.0000000000
     31247      1009  ECLIPA    H68R           22.4649741597      -26.9312155895        3.1012324102  LPSA29    1               0.0000000000
     31248      1009  ECLIPA    H68S           23.0574122438      -25.6910741962        4.2757988765  LPSA29    1               0.0000000000
     31249      1009  ECLIPA    C69            22.4048963867      -24.9836903537        2.2839791617  LPSA29    1               0.0000000000
     31250      1009  ECLIPA    H69R           21.8279278525      -24.0387805485        2.3875975289  LPSA29    1               0.0000000000
     31251      1009  ECLIPA    H69S           21.9229046036      -25.5360092730        1.4498718246  LPSA29    1               0.0000000000
     31252      1009  ECLIPA    C610           23.8455371417      -24.6427009507        1.9542434799  LPSA29    1               0.0000000000
     31253      1009  ECLIPA    H610R          24.4766122639      -25.5586563754        2.0149682387  LPSA29    1               0.0000000000
     31254      1009  ECLIPA    H610S          24.2397657169      -23.9184525583        2.7020028279  LPSA29    1               0.0000000000
     31255      1009  ECLIPA    C611           23.9235753409      -24.0110282072        0.5737514679  LPSA29    1               0.0000000000
     31256      1009  ECLIPA    H611R          23.2887566615      -23.0972072506        0.5383838803  LPSA29    1               0.0000000000
     31257      1009  ECLIPA    H611S          24.9597407911      -23.6971994022        0.4842809407  LPSA29    1               0.0000000000
     31258      1009  ECLIPA    C612           23.6382295463      -24.9788563070       -0.5713432280  LPSA29    1               0.0000000000
     31259      1009  ECLIPA    H612R          24.4474138974      -25.7406325471       -0.6180494531  LPSA29    1               0.0000000000
     31260      1009  ECLIPA    H612S          22.6939428449      -25.5207364545       -0.3852823941  LPSA29    1               0.0000000000
     31261      1009  ECLIPA    H612T          23.5804809894      -24.4709322433       -1.5556643178  LPSA29    1               0.0000000000
     31262      1009  ECLIPA    C54            24.8230777010      -30.4715132925       11.1704061929  LPSA29    1               0.0000000000
     31263      1009  ECLIPA    H54R           23.9838589278      -31.1409003099       10.8816476772  LPSA29    1               0.0000000000
     31264      1009  ECLIPA    H54S           25.3947612004      -30.9753311739       11.9773245685  LPSA29    1               0.0000000000
     31265      1009  ECLIPA    C55            25.7658612367      -30.2916337586        9.9641260855  LPSA29    1               0.0000000000
     31266      1009  ECLIPA    H55R           26.3753394890      -31.2089308753        9.8256914539  LPSA29    1               0.0000000000
     31267      1009  ECLIPA    H55S           26.4938098717      -29.4860412554       10.2014703447  LPSA29    1               0.0000000000
     31268      1009  ECLIPA    C56            24.9463510362      -30.0512402683        8.6895135821  LPSA29    1               0.0000000000
     31269      1009  ECLIPA    H56R           24.2931133290      -29.1752171211        8.8596560873  LPSA29    1               0.0000000000
     31270      1009  ECLIPA    H56S           24.2807293804      -30.9253861816        8.5046501373  LPSA29    1               0.0000000000
     31271      1009  ECLIPA    C57            25.7020056095      -29.7293413667        7.4025059190  LPSA29    1               0.0000000000
     31272      1009  ECLIPA    H57R           26.4720243412      -30.4985849347        7.1804463937  LPSA29    1               0.0000000000
     31273      1009  ECLIPA    H57S           26.2370159211      -28.7622460601        7.5422857176  LPSA29    1               0.0000000000
     31274      1009  ECLIPA    C58            24.6970438917      -29.5775264610        6.2390010087  LPSA29    1               0.0000000000
     31275      1009  ECLIPA    H58R           23.9712207394      -30.4166870910        6.2157599935  LPSA29    1               0.0000000000
     31276      1009  ECLIPA    H58S           24.0885456946      -28.6697768827        6.4599344356  LPSA29    1               0.0000000000
     31277      1009  ECLIPA    C59            25.3942815288      -29.4892603256        4.8667245866  LPSA29    1               0.0000000000
     31278      1009  ECLIPA    H59R           26.0358747608      -30.3881853598        4.7150112181  LPSA29    1               0.0000000000
     31279      1009  ECLIPA    H59S           26.0698613724      -28.6103152462        4.9580186534  LPSA29    1               0.0000000000
     31280      1009  ECLIPA    C510           24.4398451160      -29.4487883204        3.6401312702  LPSA29    1               0.0000000000
     31281      1009  ECLIPA    H510R          23.6108334521      -28.7340221208        3.8229478811  LPSA29    1               0.0000000000
     31282      1009  ECLIPA    H510S          23.9909516739      -30.4618042113        3.5162411527  LPSA29    1               0.0000000000
     31283      1009  ECLIPA    C511           25.0912256362      -29.0732646034        2.2872318309  LPSA29    1               0.0000000000
     31284      1009  ECLIPA    H511R          25.2389371367      -27.9757456497        2.2695775198  LPSA29    1               0.0000000000
     31285      1009  ECLIPA    H511S          26.0954019928      -29.5508216796        2.2087826032  LPSA29    1               0.0000000000
     31286      1009  ECLIPA    C512           24.2688815072      -29.4478513150        1.0320247658  LPSA29    1               0.0000000000
     31287      1009  ECLIPA    H512R          24.9391695071      -29.4200529939        0.1397950602  LPSA29    1               0.0000000000
     31288      1009  ECLIPA    H512S          23.8809332454      -30.4877080691        1.1291017292  LPSA29    1               0.0000000000
     31289      1009  ECLIPA    C513           23.1357276907      -28.4820093635        0.6602716870  LPSA29    1               0.0000000000
     31290      1009  ECLIPA    H513R          23.5336743527      -27.4513060332        0.5383853101  LPSA29    1               0.0000000000
     31291      1009  ECLIPA    H513S          22.3768733487      -28.4402621734        1.4680987581  LPSA29    1               0.0000000000
     31292      1009  ECLIPA    C514           22.4392369405      -28.8583325894       -0.6463299915  LPSA29    1               0.0000000000
     31293      1009  ECLIPA    H514R          22.1088496466      -29.9182463768       -0.6310324372  LPSA29    1               0.0000000000
     31294      1009  ECLIPA    H514S          21.5359468094      -28.2209498761       -0.7567778435  LPSA29    1               0.0000000000
     31295      1009  ECLIPA    H514T          23.1151360374      -28.7065655945       -1.5192174617  LPSA29    1               0.0000000000
     31296      1009  ECLIPA    C33            21.0760348914      -25.5463064907       14.4618143431  LPSA29    1               0.0000000000
     31297      1009  ECLIPA    H33R           20.0821838500      -25.2805920010       14.8631540166  LPSA29    1               0.0000000000
     31298      1009  ECLIPA    O33            21.6689720341      -26.3660804864       15.4501124772  LPSA29    1               0.0000000000
     31299      1009  ECLIPA    HO33           21.6782672824      -25.9772881696       16.3346458700  LPSA29    1               0.0000000000
     31300      1009  ECLIPA    C34            20.8714270272      -26.4202032355       13.2009498645  LPSA29    1               0.0000000000
     31301      1009  ECLIPA    H34R           21.8714301709      -26.7206711463       12.8173811825  LPSA29    1               0.0000000000
     31302      1009  ECLIPA    H34S           20.4031456326      -25.8078795095       12.4004756247  LPSA29    1               0.0000000000
     31303      1009  ECLIPA    C35            20.0133784631      -27.6957861314       13.4362504425  LPSA29    1               0.0000000000
     31304      1009  ECLIPA    H35R           18.9881857081      -27.4313595859       13.7499719694  LPSA29    1               0.0000000000
     31305      1009  ECLIPA    H35S           20.4841315625      -28.2873665731       14.2578952785  LPSA29    1               0.0000000000
     31306      1009  ECLIPA    C36            19.9185193488      -28.6156350994       12.2015706976  LPSA29    1               0.0000000000
     31307      1009  ECLIPA    H36R           20.8663452718      -28.4319058885       11.6631306600  LPSA29    1               0.0000000000
     31308      1009  ECLIPA    H36S           19.0831217053      -28.3173354972       11.5229145897  LPSA29    1               0.0000000000
     31309      1009  ECLIPA    C37            19.9194358168      -30.1377155542       12.5112333444  LPSA29    1               0.0000000000
     31310      1009  ECLIPA    H37R           18.9281111910      -30.6003265620       12.5943692537  LPSA29    1               0.0000000000
     31311      1009  ECLIPA    H37S           20.3772553863      -30.3127766520       13.5034948511  LPSA29    1               0.0000000000
     31312      1009  ECLIPA    C38            20.4627511918      -31.0534430191       11.4080425123  LPSA29    1               0.0000000000
     31313      1009  ECLIPA    H38R           21.5652250373      -31.0582783837       11.4121442669  LPSA29    1               0.0000000000
     31314      1009  ECLIPA    H38S           20.1217971605      -32.0873071983       11.6639399925  LPSA29    1               0.0000000000
     31315      1009  ECLIPA    C39            19.9829347877      -30.6460253924       10.0075790885  LPSA29    1               0.0000000000
     31316      1009  ECLIPA    H39R           20.2081441090      -29.5763024227        9.8148299298  LPSA29    1               0.0000000000
     31317      1009  ECLIPA    H39S           18.8970117649      -30.7859877999        9.8998002866  LPSA29    1               0.0000000000
     31318      1009  ECLIPA    C310           20.5417159841      -31.4770423971        8.8606852681  LPSA29    1               0.0000000000
     31319      1009  ECLIPA    H310R          20.0754012674      -32.4856391291        8.9631307511  LPSA29    1               0.0000000000
     31320      1009  ECLIPA    H310S          21.6409153883      -31.5727126652        8.9486100832  LPSA29    1               0.0000000000
     31321      1009  ECLIPA    C311           20.2839199684      -30.7863777268        7.5112502229  LPSA29    1               0.0000000000
     31322      1009  ECLIPA    H311R          19.3010325520      -30.2644103357        7.5302371665  LPSA29    1               0.0000000000
     31323      1009  ECLIPA    H311S          21.0644798225      -30.0042941002        7.3623026849  LPSA29    1               0.0000000000
     31324      1009  ECLIPA    C312           20.3770100999      -31.7184016731        6.2996951891  LPSA29    1               0.0000000000
     31325      1009  ECLIPA    H312R          21.1500398351      -32.4951443885        6.4877548113  LPSA29    1               0.0000000000
     31326      1009  ECLIPA    H312S          19.3919982560      -32.2215705394        6.1800753731  LPSA29    1               0.0000000000
     31327      1009  ECLIPA    C313           20.7147937459      -30.9584908211        5.0053023381  LPSA29    1               0.0000000000
     31328      1009  ECLIPA    H313R          19.8006250635      -30.3781026310        4.7499111981  LPSA29    1               0.0000000000
     31329      1009  ECLIPA    H313S          21.5411435709      -30.2289099738        5.1759137858  LPSA29    1               0.0000000000
     31330      1009  ECLIPA    C314           21.0822525339      -31.8548740441        3.8181306810  LPSA29    1               0.0000000000
     31331      1009  ECLIPA    H314R          20.2394954901      -32.5431015399        3.5978751965  LPSA29    1               0.0000000000
     31332      1009  ECLIPA    H314S          21.2898314746      -31.2549414469        2.9043861417  LPSA29    1               0.0000000000
     31333      1009  ECLIPA    H314T          21.9865553135      -32.4599216989        4.0462949164  LPSA29    1               0.0000000000
     31334      1009  ECLIPA    C11            26.9470619889      -25.5377935820       11.2530015241  LPSA29    1               0.0000000000
     31335      1009  ECLIPA    O11            27.1014036532      -26.7415450279       11.0942331170  LPSA29    1               0.0000000000
     31336      1009  ECLIPA    C12            27.6217873378      -24.5591768105       10.3254523401  LPSA29    1               0.0000000000
     31337      1009  ECLIPA    H12R           28.7050765061      -24.5296155151       10.5521977753  LPSA29    1               0.0000000000
     31338      1009  ECLIPA    H12S           27.1792941832      -23.5573717201       10.5106616005  LPSA29    1               0.0000000000
     31339      1009  ECLIPA    C13            27.4113527003      -24.9048446874        8.8550238645  LPSA29    1               0.0000000000
     31340      1009  ECLIPA    H13R           27.5324948499      -25.9939306701        8.6436062425  LPSA29    1               0.0000000000
     31341      1009  ECLIPA    O13            28.4093086348      -24.2027374897        8.1233210520  LPSA29    1               0.0000000000
     31342      1009  ECLIPA    HO13           28.6612594249      -24.6093690286        7.2895677160  LPSA29    1               0.0000000000
     31343      1009  ECLIPA    C14            25.9947621945      -24.4606494942        8.4409150642  LPSA29    1               0.0000000000
     31344      1009  ECLIPA    H14R           25.7212603679      -23.5135415793        8.9591361301  LPSA29    1               0.0000000000
     31345      1009  ECLIPA    H14S           25.3056552744      -25.2636717977        8.7789196675  LPSA29    1               0.0000000000
     31346      1009  ECLIPA    C15            25.7582323150      -24.2632022344        6.9511283611  LPSA29    1               0.0000000000
     31347      1009  ECLIPA    H15R           26.5018634508      -23.5269014569        6.5746153402  LPSA29    1               0.0000000000
     31348      1009  ECLIPA    H15S           24.7540608435      -23.7999006801        6.8262360257  LPSA29    1               0.0000000000
     31349      1009  ECLIPA    C16            25.8349450535      -25.5897407524        6.1953239055  LPSA29    1               0.0000000000
     31350      1009  ECLIPA    H16R           24.8879119877      -26.1541261983        6.2805730173  LPSA29    1               0.0000000000
     31351      1009  ECLIPA    H16S           26.6202506044      -26.2310626601        6.6507953722  LPSA29    1               0.0000000000
     31352      1009  ECLIPA    C17            26.1352629165      -25.3370327019        4.7373211148  LPSA29    1               0.0000000000
     31353      1009  ECLIPA    H17R           25.4905924364      -24.4990267203        4.3904272464  LPSA29    1               0.0000000000
     31354      1009  ECLIPA    H17S           25.8722580425      -26.2180832132        4.1123068434  LPSA29    1               0.0000000000
     31355      1009  ECLIPA    C18            27.5976388267      -24.9384809569        4.6067336414  LPSA29    1               0.0000000000
     31356      1009  ECLIPA    H18R           27.8253308115      -24.0337889519        5.1832630733  LPSA29    1               0.0000000000
     31357      1009  ECLIPA    H18S           28.2762330814      -25.7932728577        4.8511746223  LPSA29    1               0.0000000000
     31358      1009  ECLIPA    C19            27.8860026780      -24.6206149623        3.2277206745  LPSA29    1               0.0000000000
     31359      1009  ECLIPA    H19R           28.9056558505      -24.1888115334        3.0483716087  LPSA29    1               0.0000000000
     31360      1009  ECLIPA    H19S           27.1708182254      -23.8519336781        2.7972444528  LPSA29    1               0.0000000000
     31361      1009  ECLIPA    C110           27.6695129741      -26.0150777734        2.5764747159  LPSA29    1               0.0000000000
     31362      1009  ECLIPA    H110R          28.4351901683      -26.8182917851        2.6881332430  LPSA29    1               0.0000000000
     31363      1009  ECLIPA    H110S          26.6173593858      -26.2744144966        2.3312571687  LPSA29    1               0.0000000000
     31364      1009  ECLIPA    C111           27.9821097264      -25.7457314701        1.2512469045  LPSA29    1               0.0000000000
     31365      1009  ECLIPA    H111R          27.5070971608      -24.8294266561        1.3117623880  LPSA29    1               0.0000000000
     31366      1009  ECLIPA    H111S          29.0490630099      -25.3400431665        1.4267367138  LPSA29    1               0.0000000000
     31367      1009  ECLIPA    C112           27.1108003408      -26.2829630605       -0.1095134500  LPSA29    1               0.0000000000
     31368      1009  ECLIPA    H112R          28.0100808485      -26.9994310252        0.1025021308  LPSA29    1               0.0000000000
     31369      1009  ECLIPA    H112S          26.5416833152      -27.1546039958        0.0196822487  LPSA29    1               0.0000000000
     31370      1009  ECLIPA    C113           26.7925433103      -25.7467394913       -1.9860630976  LPSA29    1               0.0000000000
     31371      1009  ECLIPA    H113R          26.0633629613      -25.0154780251       -2.0797136063  LPSA29    1               0.0000000000
     31372      1009  ECLIPA    H113S          27.5616609870      -24.9158303085       -2.2355966208  LPSA29    1               0.0000000000
     31373      1009  ECLIPA    C114           27.0864069485      -26.7973482901       -3.5393839366  LPSA29    1               0.0000000000
     31374      1009  ECLIPA    H114R          27.9506270297      -27.5396297145       -3.8112422878  LPSA29    1               0.0000000000
     31375      1009  ECLIPA    H114S          26.7538923013      -27.7916163087       -3.2493122182  LPSA29    1               0.0000000000
     31376      1009  ECLIPA    H114T          28.0938183534      -26.7581784389       -4.0876408254  LPSA29    1               0.0000000000
     31377      1010  AKDO      C1             23.3025048772      -30.4677842528       22.4343172455  LPSA29    2               0.0000000000
     31378      1010  AKDO      O11            23.0533502756      -31.6964996820       22.4361642372  LPSA29    2               0.0000000000
     31379      1010  AKDO      O12            22.5347125662      -29.5315014122       22.0682462484  LPSA29    2               0.0000000000
     31380      1010  AKDO      C2             24.7327408677      -30.0565162599       22.8744073258  LPSA29    2               0.0000000000
     31381      1010  AKDO      C6             26.7688049756      -30.8869415156       23.8563159567  LPSA29    2               0.0000000000
     31382      1010  AKDO      H6             27.2731533731      -30.4764089713       22.9449520794  LPSA29    2               0.0000000000
     31383      1010  AKDO      O6             25.4252590073      -31.1845345148       23.4610998640  LPSA29    2               0.0000000000
     31384      1010  AKDO      C3             24.7265079381      -28.9500863441       23.9270923746  LPSA29    2               0.0000000000
     31385      1010  AKDO      H31            24.0835317756      -29.2445016950       24.7879067071  LPSA29    2               0.0000000000
     31386      1010  AKDO      H32            24.2859643611      -28.0423963411       23.4555786314  LPSA29    2               0.0000000000
     31387      1010  AKDO      C4             26.1116622541      -28.6094207209       24.3717928829  LPSA29    2               0.0000000000
     31388      1010  AKDO      H4             26.7211307449      -28.3268759203       23.4837633267  LPSA29    2               0.0000000000
     31389      1010  AKDO      O4             26.1100288338      -27.5840104616       25.3687896060  LPSA29    2               0.0000000000
     31390      1010  AKDO      C5             26.8005696911      -29.8131905242       24.9578165865  LPSA29    2               0.0000000000
     31391      1010  AKDO      H5             27.8790320687      -29.5445242504       25.0842767694  LPSA29    2               0.0000000000
     31392      1010  AKDO      O5             26.1752632739      -30.1011276567       26.2488521689  LPSA29    2               0.0000000000
     31393      1010  AKDO      C7             27.5246167606      -32.1631366401       24.1646550596  LPSA29    2               0.0000000000
     31394      1010  AKDO      H7             27.0948325666      -32.6227074155       25.0748933138  LPSA29    2               0.0000000000
     31395      1010  AKDO      O7             28.9060310711      -31.8672270811       24.3831187839  LPSA29    2               0.0000000000
     31396      1010  AKDO      HO7            29.3223660556      -31.8691503423       23.5136598033  LPSA29    2               0.0000000000
     31397      1010  AKDO      C8             27.4024636414      -33.1574017483       23.0337455089  LPSA29    2               0.0000000000
     31398      1010  AKDO      H81            26.3139112027      -33.3387290805       22.8537792358  LPSA29    2               0.0000000000
     31399      1010  AKDO      H82            27.8242950986      -32.7123265911       22.0972567511  LPSA29    2               0.0000000000
     31400      1010  AKDO      O8             28.0299319760      -34.4150323803       23.3746297195  LPSA29    2               0.0000000000
     31401      1010  AKDO      HO8            27.5057805992      -35.0363893165       22.8520646964  LPSA29    2               0.0000000000
     31402      1011  AKDO      C1             26.9247431259      -25.9217580407       23.8000460823  LPSA29    3               1.0000000000
     31403      1011  AKDO      O11            26.3853889585      -25.7668629497       22.6738685557  LPSA29    3               1.0000000000
     31404      1011  AKDO      O12            28.1381840326      -25.7460729873       24.0945969821  LPSA29    3               1.0000000000
     31405      1011  AKDO      C2             25.9847667304      -26.2265074593       25.0048971960  LPSA29    3               1.0000000000
     31406      1011  AKDO      C6             23.6980060570      -26.1633976852       25.7747715449  LPSA29    3               1.0000000000
     31407      1011  AKDO      H6             23.7173859405      -27.2651638114       25.9743084228  LPSA29    3               1.0000000000
     31408      1011  AKDO      O6             24.6268858641      -25.8398461366       24.7033585714  LPSA29    3               1.0000000000
     31409      1011  AKDO      C3             26.3728672267      -25.5141343335       26.3192446304  LPSA29    3               1.0000000000
     31410      1011  AKDO      H31            26.3743383026      -24.4151052506       26.1802845102  LPSA29    3               1.0000000000
     31411      1011  AKDO      H32            27.4036420040      -25.8036612356       26.5742443379  LPSA29    3               1.0000000000
     31412      1011  AKDO      C4             25.4302857123      -25.8971435539       27.4311809369  LPSA29    3               1.0000000000
     31413      1011  AKDO      H4             25.4101138279      -27.0090043671       27.4793290781  LPSA29    3               1.0000000000
     31414      1011  AKDO      O4             25.7813951464      -25.4263761359       28.7250057025  LPSA29    3               1.0000000000
     31415      1011  AKDO      HO4            25.9206493063      -26.1627979594       29.3430508933  LPSA29    3               1.0000000000
     31416      1011  AKDO      C5             24.0658829665      -25.4348668877       27.0504241777  LPSA29    3               1.0000000000
     31417      1011  AKDO      H5             23.3794299370      -25.7112680646       27.8763823625  LPSA29    3               1.0000000000
     31418      1011  AKDO      O5             23.9723679308      -24.0248868048       26.8818279724  LPSA29    3               1.0000000000
     31419      1011  AKDO      HO5            24.6360057863      -23.7709688386       26.2406805868  LPSA29    3               1.0000000000
     31420      1011  AKDO      C7             22.2966385975      -25.8234598121       25.3536427920  LPSA29    3               1.0000000000
     31421      1011  AKDO      H7             22.2397368499      -24.7259385356       25.1361246487  LPSA29    3               1.0000000000
     31422      1011  AKDO      O7             21.3854588919      -26.1390064902       26.4194016726  LPSA29    3               1.0000000000
     31423      1011  AKDO      HO7            20.5349036766      -25.7678833153       26.1560509720  LPSA29    3               1.0000000000
     31424      1011  AKDO      C8             21.9596513514      -26.6200919517       24.1168064243  LPSA29    3               1.0000000000
     31425      1011  AKDO      H81            22.7261907085      -26.4418451264       23.3305518993  LPSA29    3               1.0000000000
     31426      1011  AKDO      H82            21.9373801826      -27.7100615331       24.3258044966  LPSA29    3               1.0000000000
     31427      1011  AKDO      O8             20.7069914142      -26.1940253293       23.5957178958  LPSA29    3               1.0000000000
     31428      1011  AKDO      HO8            20.9579885793      -25.3606662297       23.2131223894  LPSA29    3               1.0000000000
     31429      1012  AHEP      C1             27.0008590516      -30.6742258506       27.2472414449  LPSA29    4               2.0000000000
     31430      1012  AHEP      H1             27.1315747882      -31.7199524971       26.9033260441  LPSA29    4               2.0000000000
     31431      1012  AHEP      C5             28.4093847142      -28.8592953750       27.9939336983  LPSA29    4               2.0000000000
     31432      1012  AHEP      H5             27.6671702715      -28.1793833974       27.5154257695  LPSA29    4               2.0000000000
     31433      1012  AHEP      O5             28.3250352655      -30.1339796106       27.3092234270  LPSA29    4               2.0000000000
     31434      1012  AHEP      C2             26.4997225893      -30.8237282765       28.7024509998  LPSA29    4               2.0000000000
     31435      1012  AHEP      H2             25.4484607608      -31.1674725102       28.6776069566  LPSA29    4               2.0000000000
     31436      1012  AHEP      O2             27.2158071445      -31.8782681137       29.3450097572  LPSA29    4               2.0000000000
     31437      1012  AHEP      HO2            26.6431766103      -32.3716113541       29.9311602097  LPSA29    4               2.0000000000
     31438      1012  AHEP      C3             26.5338218976      -29.5197978727       29.4935496911  LPSA29    4               2.0000000000
     31439      1012  AHEP      H3             25.8242829192      -28.7629561723       29.0925514235  LPSA29    4               2.0000000000
     31440      1012  AHEP      O3             26.2097483376      -29.7754151311       30.8791470196  LPSA29    4               2.0000000000
     31441      1012  AHEP      C4             27.9588871592      -29.0072239410       29.4513637096  LPSA29    4               2.0000000000
     31442      1012  AHEP      H4             28.6708131183      -29.6958650631       29.9642713787  LPSA29    4               2.0000000000
     31443      1012  AHEP      O4             27.9250903213      -27.7056012071       30.0348929658  LPSA29    4               2.0000000000
     31444      1012  AHEP      P4             28.6985309329      -27.4186383313       31.4681665449  LPSA29    4               2.0000000000
     31445      1012  AHEP      OP42           27.8104036669      -26.3516788057       32.0895077138  LPSA29    4               2.0000000000
     31446      1012  AHEP      OP43           30.1060375424      -26.9636195439       31.0841197548  LPSA29    4               2.0000000000
     31447      1012  AHEP      OP44           28.7402578901      -28.7294429683       32.2598881002  LPSA29    4               2.0000000000
     31448      1012  AHEP      C6             29.8359619758      -28.2773962097       27.7986511599  LPSA29    4               2.0000000000
     31449      1012  AHEP      H6             29.7686130224      -27.2008122513       28.1006528380  LPSA29    4               2.0000000000
     31450      1012  AHEP      O6             30.8450616128      -28.8800530408       28.6332278921  LPSA29    4               2.0000000000
     31451      1012  AHEP      HO6            31.1766376762      -28.2441177256       29.2890204827  LPSA29    4               2.0000000000
     31452      1012  AHEP      C7             30.3493259115      -28.3301127043       26.3390121466  LPSA29    4               2.0000000000
     31453      1012  AHEP      H71            31.2322662777      -27.6685169976       26.2154617059  LPSA29    4               2.0000000000
     31454      1012  AHEP      H72            29.5338813860      -27.9941913862       25.6647424916  LPSA29    4               2.0000000000
     31455      1012  AHEP      O7             30.7823904942      -29.5984702327       25.8320657720  LPSA29    4               2.0000000000
     31456      1012  AHEP      HO7            31.4986837313      -29.8398808150       26.4324071798  LPSA29    4               2.0000000000
     31457      1013  AHEP      C1             25.1123633994      -29.1156121676       31.4617182636  LPSA29    5               3.0000000000
     31458      1013  AHEP      H1             24.9627082288      -28.1190098296       30.9850366064  LPSA29    5               3.0000000000
     31459      1013  AHEP      C5             24.0364021767      -31.1924861549       31.9604774635  LPSA29    5               3.0000000000
     31460      1013  AHEP      H5             24.9748873611      -31.6815161375       31.6061565434  LPSA29    5               3.0000000000
     31461      1013  AHEP      O5             23.9335408399      -29.9183326941       31.2753316307  LPSA29    5               3.0000000000
     31462      1013  AHEP      C2             25.3215867705      -28.8792724135       32.9673113102  LPSA29    5               3.0000000000
     31463      1013  AHEP      H2             26.2935330190      -28.3423135690       33.0886636909  LPSA29    5               3.0000000000
     31464      1013  AHEP      O2             24.2943405931      -28.0386384668       33.4949728192  LPSA29    5               3.0000000000
     31465      1013  AHEP      HO2            24.6272699233      -27.1548770091       33.5966701040  LPSA29    5               3.0000000000
     31466      1013  AHEP      C3             25.4420968677      -30.1885594314       33.7329853862  LPSA29    5               3.0000000000
     31467      1013  AHEP      H3             26.3245223488      -30.6884155539       33.3100351069  LPSA29    5               3.0000000000
     31468      1013  AHEP      O3             25.6206350923      -30.0671280182       35.1642330882  LPSA29    5               3.0000000000
     31469      1013  AHEP      C4             24.1925318597      -30.9956734699       33.4688948692  LPSA29    5               3.0000000000
     31470      1013  AHEP      H4             23.2897283238      -30.4524522116       33.8415556231  LPSA29    5               3.0000000000
     31471      1013  AHEP      O4             24.3678727178      -32.2890270371       34.0672206706  LPSA29    5               3.0000000000
     31472      1013  AHEP      P4             23.3616038079      -32.7056061491       35.3363337199  LPSA29    5               3.0000000000
     31473      1013  AHEP      OP42           24.0120604870      -33.9592523405       35.8816738543  LPSA29    5               3.0000000000
     31474      1013  AHEP      OP43           22.0116814365      -32.8972140148       34.6752267719  LPSA29    5               3.0000000000
     31475      1013  AHEP      OP44           23.3963612118      -31.5422558207       36.3353097651  LPSA29    5               3.0000000000
     31476      1013  AHEP      C6             22.8736172459      -32.1097741325       31.5534328858  LPSA29    5               3.0000000000
     31477      1013  AHEP      H6             23.0217055591      -33.0862835103       32.0543495097  LPSA29    5               3.0000000000
     31478      1013  AHEP      O6             21.5893595851      -31.6369043709       31.9676322701  LPSA29    5               3.0000000000
     31479      1013  AHEP      HO6            21.3476759150      -30.8074488030       31.5769194343  LPSA29    5               3.0000000000
     31480      1013  AHEP      C7             22.8509995688      -32.3626527952       30.0629022692  LPSA29    5               3.0000000000
     31481      1013  AHEP      H71            22.5259626492      -33.4187242814       29.9173774757  LPSA29    5               3.0000000000
     31482      1013  AHEP      H72            23.8630724509      -32.2969803360       29.6150233671  LPSA29    5               3.0000000000
     31483      1013  AHEP      O7             21.8744291060      -31.5427684218       29.4080630828  LPSA29    5               3.0000000000
     31484      1014  AHEP      C1             22.4279596397      -30.4251215741       28.7886815500  LPSA29    6               4.0000000000
     31485      1014  AHEP      H1             23.5050823103      -30.3024388935       29.0299886758  LPSA29    6               4.0000000000
     31486      1014  AHEP      C5             20.9555469168      -30.7457198441       26.9589092780  LPSA29    6               4.0000000000
     31487      1014  AHEP      H5             20.5208080498      -31.6094354286       27.5151749585  LPSA29    6               4.0000000000
     31488      1014  AHEP      O5             22.3291257331      -30.5901919524       27.3791237174  LPSA29    6               4.0000000000
     31489      1014  AHEP      C2             21.6976132183      -29.1726399032       29.2251182953  LPSA29    6               4.0000000000
     31490      1014  AHEP      H2             21.7965687801      -29.1087888689       30.3365505067  LPSA29    6               4.0000000000
     31491      1014  AHEP      O2             22.3669236780      -28.0237624808       28.7368843236  LPSA29    6               4.0000000000
     31492      1014  AHEP      HO2            22.7994603086      -27.6041041988       29.4795951633  LPSA29    6               4.0000000000
     31493      1014  AHEP      C3             20.2236121066      -29.2619560309       28.8430527050  LPSA29    6               4.0000000000
     31494      1014  AHEP      H3             19.7875986335      -30.1359609806       29.3843215357  LPSA29    6               4.0000000000
     31495      1014  AHEP      O3             19.5009753275      -28.0720646355       29.2387261927  LPSA29    6               4.0000000000
     31496      1014  AHEP      HO3            18.9010198298      -28.2398948647       29.9709600281  LPSA29    6               4.0000000000
     31497      1014  AHEP      C4             20.1501089431      -29.4964226687       27.3300241162  LPSA29    6               4.0000000000
     31498      1014  AHEP      H4             20.5500160188      -28.6093128644       26.7874589471  LPSA29    6               4.0000000000
     31499      1014  AHEP      O4             18.8073238068      -29.7004602697       26.8977509162  LPSA29    6               4.0000000000
     31500      1014  AHEP      HO4            18.5358834752      -30.5796901310       27.1491593996  LPSA29    6               4.0000000000
     31501      1014  AHEP      C6             20.8351794412      -31.1570775569       25.4942187486  LPSA29    6               4.0000000000
     31502      1014  AHEP      H6             19.7633568484      -31.4021485169       25.3146143755  LPSA29    6               4.0000000000
     31503      1014  AHEP      O6             21.1245851483      -30.0945075161       24.5837092482  LPSA29    6               4.0000000000
     31504      1014  AHEP      HO6            21.8640050332      -30.3494814584       24.0035746150  LPSA29    6               4.0000000000
     31505      1014  AHEP      C7             21.5692643020      -32.4430010160       25.1815446660  LPSA29    6               4.0000000000
     31506      1014  AHEP      H71            21.3047974946      -32.7698659347       24.1473216963  LPSA29    6               4.0000000000
     31507      1014  AHEP      H72            21.2265663473      -33.2365679917       25.8850092090  LPSA29    6               4.0000000000
     31508      1014  AHEP      O7             22.9901554112      -32.3346658222       25.2897979017  LPSA29    6               4.0000000000
     31509      1014  AHEP      HO7            23.2241217682      -32.4285679826       26.2056642877  LPSA29    6               4.0000000000
     31510      1015  AGLC      C1             26.9391119520      -30.0441584126       35.6546163383  LPSA29    7               4.0000000000
     31511      1015  AGLC      H1             27.5621697726      -30.8283293471       35.1645631724  LPSA29    7               4.0000000000
     31512      1015  AGLC      C5             26.8146729423      -27.6986712715       36.0910065501  LPSA29    7               4.0000000000
     31513      1015  AGLC      H5             25.7367726016      -27.7250726426       35.8130361377  LPSA29    7               4.0000000000
     31514      1015  AGLC      O5             27.5113913669      -28.7587173010       35.4236435264  LPSA29    7               4.0000000000
     31515      1015  AGLC      C2             27.0346526150      -30.2653679865       37.1730828082  LPSA29    7               4.0000000000
     31516      1015  AGLC      H2             28.0873015153      -30.0700306952       37.4571666876  LPSA29    7               4.0000000000
     31517      1015  AGLC      O2             26.7589438494      -31.5996169007       37.5888162938  LPSA29    7               4.0000000000
     31518      1015  AGLC      HO2            25.7940915464      -31.7544243799       37.5707554770  LPSA29    7               4.0000000000
     31519      1015  AGLC      C3             26.2692414253      -29.2458265823       37.9709928525  LPSA29    7               4.0000000000
     31520      1015  AGLC      H3             25.2198032914      -29.2772208678       37.6074765296  LPSA29    7               4.0000000000
     31521      1015  AGLC      O3             26.2835893864      -29.5246186207       39.3987633544  LPSA29    7               4.0000000000
     31522      1015  AGLC      C4             26.8916100640      -27.8995852306       37.6017769197  LPSA29    7               4.0000000000
     31523      1015  AGLC      H4             27.9687860436      -27.8952297010       37.9234488284  LPSA29    7               4.0000000000
     31524      1015  AGLC      O4             26.1955154104      -26.8204438421       38.2230768664  LPSA29    7               4.0000000000
     31525      1015  AGLC      HO4            26.8088596898      -26.2831586265       38.7207938735  LPSA29    7               4.0000000000
     31526      1015  AGLC      C6             27.3467248575      -26.4021010738       35.5041938950  LPSA29    7               4.0000000000
     31527      1015  AGLC      H61            27.1848584031      -26.4258200719       34.4010082511  LPSA29    7               4.0000000000
     31528      1015  AGLC      H62            26.8126176923      -25.5088973276       35.8744351849  LPSA29    7               4.0000000000
     31529      1015  AGLC      O6             28.7401184228      -26.2256804246       35.7207705661  LPSA29    7               4.0000000000
     31530      1015  AGLC      HO6            28.9484013317      -25.7611846986       36.5180504817  LPSA29    7               4.0000000000
     31531      1016  AGLC      C1             24.9878756547      -29.7651645888       39.9228100460  LPSA29    8               5.0000000000
     31532      1016  AGLC      H1             24.2756482372      -29.0165017136       39.5118302350  LPSA29    8               5.0000000000
     31533      1016  AGLC      C5             25.1497358784      -32.1905263199       40.2068326753  LPSA29    8               5.0000000000
     31534      1016  AGLC      H5             26.2062697007      -32.1532625740       39.8849953922  LPSA29    8               5.0000000000
     31535      1016  AGLC      O5             24.4701016058      -31.0668829078       39.5885616839  LPSA29    8               5.0000000000
     31536      1016  AGLC      C2             24.9040499114      -29.6088841787       41.4353184935  LPSA29    8               5.0000000000
     31537      1016  AGLC      H2             23.8309974624      -29.7137731240       41.7009249094  LPSA29    8               5.0000000000
     31538      1016  AGLC      O2             25.3379749611      -28.3468608657       41.9575424328  LPSA29    8               5.0000000000
     31539      1016  AGLC      C3             25.6633400277      -30.6914336526       42.1298254184  LPSA29    8               5.0000000000
     31540      1016  AGLC      H3             26.7044126836      -30.6255201102       41.7217768430  LPSA29    8               5.0000000000
     31541      1016  AGLC      O3             25.6908785540      -30.3923427479       43.5477194685  LPSA29    8               5.0000000000
     31542      1016  AGLC      C4             25.0613958588      -32.0102439587       41.7243335563  LPSA29    8               5.0000000000
     31543      1016  AGLC      H4             23.9848835155      -31.9977309680       42.0250717032  LPSA29    8               5.0000000000
     31544      1016  AGLC      O4             25.6855167678      -33.0773577413       42.4103789919  LPSA29    8               5.0000000000
     31545      1016  AGLC      HO4            26.6359482516      -32.9664657674       42.3240821719  LPSA29    8               5.0000000000
     31546      1016  AGLC      C6             24.6478668523      -33.5537864579       39.7366139622  LPSA29    8               5.0000000000
     31547      1016  AGLC      H61            24.5061984046      -33.6302704227       38.6289152185  LPSA29    8               5.0000000000
     31548      1016  AGLC      H62            25.3547434226      -34.3729466341       40.0127930618  LPSA29    8               5.0000000000
     31549      1016  AGLC      O6             23.4352812493      -33.8215301653       40.4139709392  LPSA29    8               5.0000000000
     31550      1016  AGLC      HO6            23.6300603053      -34.3761073056       41.1656273766  LPSA29    8               5.0000000000
     31551      1017  AGAL      C1             24.7266021988      -27.1956974273       41.4446976480  LPSA29    9               6.0000000000
     31552      1017  AGAL      H1             24.7135916804      -27.2176054031       40.3356503285  LPSA29    9               6.0000000000
     31553      1017  AGAL      C5             23.2827911478      -26.8094472592       43.2799175335  LPSA29    9               6.0000000000
     31554      1017  AGAL      H5             23.8567996181      -27.6410896870       43.7520677311  LPSA29    9               6.0000000000
     31555      1017  AGAL      O5             23.3582400520      -27.0255826376       41.8583819506  LPSA29    9               6.0000000000
     31556      1017  AGAL      C2             25.5886201023      -25.9999250550       41.8487541516  LPSA29    9               6.0000000000
     31557      1017  AGAL      H2             25.0979906772      -25.1226533653       41.3822206016  LPSA29    9               6.0000000000
     31558      1017  AGAL      O2             26.8747389686      -26.1316908476       41.1873554586  LPSA29    9               6.0000000000
     31559      1017  AGAL      C3             25.5288400166      -25.7546000111       43.3513802551  LPSA29    9               6.0000000000
     31560      1017  AGAL      H3             25.9193172444      -26.6449357355       43.8932968331  LPSA29    9               6.0000000000
     31561      1017  AGAL      O3             26.3522430633      -24.6577667487       43.7490294717  LPSA29    9               6.0000000000
     31562      1017  AGAL      HO3            27.1199059591      -24.7680764215       43.1867427626  LPSA29    9               6.0000000000
     31563      1017  AGAL      C4             24.0544201847      -25.5450140568       43.6859160949  LPSA29    9               6.0000000000
     31564      1017  AGAL      H4             23.9397249011      -25.4133847122       44.7854508111  LPSA29    9               6.0000000000
     31565      1017  AGAL      O4             23.5396464429      -24.3802523204       43.0358436426  LPSA29    9               6.0000000000
     31566      1017  AGAL      HO4            22.8187593933      -24.0679052327       43.5968685779  LPSA29    9               6.0000000000
     31567      1017  AGAL      C6             21.8676474791      -26.9509832547       43.8424697724  LPSA29    9               6.0000000000
     31568      1017  AGAL      H61            21.4804419869      -27.9698837549       43.6125273713  LPSA29    9               6.0000000000
     31569      1017  AGAL      H62            21.8926383670      -26.8715037577       44.9541818042  LPSA29    9               6.0000000000
     31570      1017  AGAL      O6             20.9307246047      -25.9983092843       43.3363420049  LPSA29    9               6.0000000000
     31571      1017  AGAL      HO6            20.4033627778      -26.4373368914       42.6752341825  LPSA29    9               6.0000000000
     31572      1018  AGAL      C1             28.1460191814      -25.8547818955       41.7590693806  LPSA29    10              7.0000000000
     31573      1018  AGAL      H1             28.2043530170      -24.7713694076       41.9010431464  LPSA29    10              7.0000000000
     31574      1018  AGAL      C5             28.5085627434      -27.8449062286       43.0498839266  LPSA29    10              7.0000000000
     31575      1018  AGAL      H5             27.5208097569      -28.1630819190       42.6429276330  LPSA29    10              7.0000000000
     31576      1018  AGAL      O5             28.4359466910      -26.4059839901       43.0632788373  LPSA29    10              7.0000000000
     31577      1018  AGAL      C2             29.2021678879      -26.2901169481       40.7513489800  LPSA29    10              7.0000000000
     31578      1018  AGAL      H2             30.1899043533      -25.9435351613       41.1285987654  LPSA29    10              7.0000000000
     31579      1018  AGAL      O2             29.0821486058      -25.6230245027       39.4873572358  LPSA29    10              7.0000000000
     31580      1018  AGAL      HO2            30.0079609784      -25.4267944832       39.2654294849  LPSA29    10              7.0000000000
     31581      1018  AGAL      C3             29.2198379789      -27.8185785954       40.6942262579  LPSA29    10              7.0000000000
     31582      1018  AGAL      H3             28.1852541738      -28.1518926135       40.4395643269  LPSA29    10              7.0000000000
     31583      1018  AGAL      O3             30.1037327537      -28.3687193383       39.7161918081  LPSA29    10              7.0000000000
     31584      1018  AGAL      HO3            29.5619844877      -28.7216386875       39.0005046797  LPSA29    10              7.0000000000
     31585      1018  AGAL      C4             29.5585209667      -28.3435293345       42.0733851107  LPSA29    10              7.0000000000
     31586      1018  AGAL      H4             29.5046155343      -29.4557839597       42.0809313188  LPSA29    10              7.0000000000
     31587      1018  AGAL      O4             30.8795361450      -27.9626311412       42.4553253637  LPSA29    10              7.0000000000
     31588      1018  AGAL      HO4            30.8550154386      -27.0138996075       42.6304740651  LPSA29    10              7.0000000000
     31589      1018  AGAL      C6             28.5560768962      -28.5228503558       44.4253815561  LPSA29    10              7.0000000000
     31590      1018  AGAL      H61            27.8116298495      -28.0589515071       45.0958907044  LPSA29    10              7.0000000000
     31591      1018  AGAL      H62            28.2682870990      -29.5844194707       44.2630431366  LPSA29    10              7.0000000000
     31592      1018  AGAL      O6             29.7997100919      -28.5692634595       45.1214035499  LPSA29    10              7.0000000000
     31593      1018  AGAL      HO6            29.8005715272      -27.9383193251       45.8509625711  LPSA29    10              7.0000000000
     31594      1019  BGLC      C1             24.7938217729      -30.9745177726       44.4909559710  LPSA29    11              6.0000000000
     31595      1019  BGLC      H1             25.0363751536      -32.0485428931       44.6179722718  LPSA29    11              6.0000000000
     31596      1019  BGLC      C5             22.4424384524      -31.2118425094       45.1301249737  LPSA29    11              6.0000000000
     31597      1019  BGLC      H5             22.5658921074      -32.2971251714       45.3649480348  LPSA29    11              6.0000000000
     31598      1019  BGLC      O5             23.4063733288      -30.7449775175       44.1410555240  LPSA29    11              6.0000000000
     31599      1019  BGLC      C2             25.0707225606      -30.2254354299       45.7939169940  LPSA29    11              6.0000000000
     31600      1019  BGLC      H2             24.9057159637      -29.1272795636       45.6413732668  LPSA29    11              6.0000000000
     31601      1019  BGLC      O2             26.4307598088      -30.3953314378       46.2121158409  LPSA29    11              6.0000000000
     31602      1019  BGLC      HO2            26.8118221634      -29.5221831840       46.2380750870  LPSA29    11              6.0000000000
     31603      1019  BGLC      C3             24.1380155231      -30.6434290948       46.9029879831  LPSA29    11              6.0000000000
     31604      1019  BGLC      H3             24.3179841613      -31.7087257406       47.1735521322  LPSA29    11              6.0000000000
     31605      1019  BGLC      O3             24.3426723821      -29.7769141278       48.0414332949  LPSA29    11              6.0000000000
     31606      1019  BGLC      C4             22.7176005547      -30.4169746373       46.4184574938  LPSA29    11              6.0000000000
     31607      1019  BGLC      H4             22.5955199585      -29.3336984591       46.1790261362  LPSA29    11              6.0000000000
     31608      1019  BGLC      O4             21.7944333679      -30.7226181124       47.4499975857  LPSA29    11              6.0000000000
     31609      1019  BGLC      HO4            21.8089235342      -30.0306737237       48.1266420055  LPSA29    11              6.0000000000
     31610      1019  BGLC      C6             21.0340377596      -31.0690488038       44.5335314123  LPSA29    11              6.0000000000
     31611      1019  BGLC      H61            20.2341708313      -31.0706633477       45.3040232563  LPSA29    11              6.0000000000
     31612      1019  BGLC      H62            20.9666315250      -30.1410843577       43.9325290096  LPSA29    11              6.0000000000
     31613      1019  BGLC      O6             20.7117118261      -32.1242627230       43.6420039828  LPSA29    11              6.0000000000
     31614      1019  BGLC      HO6            20.0039282112      -32.7019870673       43.9680699981  LPSA29    11              6.0000000000
     31615      1020  BGLCNA    C1             24.5748646195      -30.3373968353       49.3193548587  LPSA29    12              7.0000000000
     31616      1020  BGLCNA    H1             25.6226554744      -30.6133234322       49.3949649991  LPSA29    12              7.0000000000
     31617      1020  BGLCNA    C5             24.1790955958      -32.0595614028       50.8912921056  LPSA29    12              7.0000000000
     31618      1020  BGLCNA    H5             25.2682527180      -32.3189536254       50.9565662631  LPSA29    12              7.0000000000
     31619      1020  BGLCNA    O5             23.8517099354      -31.5157585196       49.5899523067  LPSA29    12              7.0000000000
     31620      1020  BGLCNA    C2             24.2423409778      -29.2903257918       50.3612223545  LPSA29    12              7.0000000000
     31621      1020  BGLCNA    H2             23.1282806770      -29.1715381585       50.3107837965  LPSA29    12              7.0000000000
     31622      1020  BGLCNA    N              24.9378980622      -28.0674746551       50.0492270632  LPSA29    12              7.0000000000
     31623      1020  BGLCNA    HN             25.9245636277      -28.1455995336       49.9576982536  LPSA29    12              7.0000000000
     31624      1020  BGLCNA    C              24.2966382148      -26.9048776824       49.9114631028  LPSA29    12              7.0000000000
     31625      1020  BGLCNA    O              23.0981874361      -26.8270727965       50.1045594447  LPSA29    12              7.0000000000
     31626      1020  BGLCNA    CT             25.1021473909      -25.6821156816       49.5404946075  LPSA29    12              7.0000000000
     31627      1020  BGLCNA    HT1            25.1443359710      -24.9887276474       50.4040333545  LPSA29    12              7.0000000000
     31628      1020  BGLCNA    HT2            24.6073721981      -25.1336402924       48.7126144260  LPSA29    12              7.0000000000
     31629      1020  BGLCNA    HT3            26.1216553494      -25.9923414150       49.2493643538  LPSA29    12              7.0000000000
     31630      1020  BGLCNA    C3             24.5887902062      -29.7557947364       51.7649891229  LPSA29    12              7.0000000000
     31631      1020  BGLCNA    H3             25.6865609298      -29.9474469245       51.8012426119  LPSA29    12              7.0000000000
     31632      1020  BGLCNA    O3             24.2754365356      -28.7451990096       52.7690825625  LPSA29    12              7.0000000000
     31633      1020  BGLCNA    C4             23.8201687063      -31.0480372339       51.9711397602  LPSA29    12              7.0000000000
     31634      1020  BGLCNA    H4             22.7239944341      -30.8600610671       51.8882889248  LPSA29    12              7.0000000000
     31635      1020  BGLCNA    O4             24.0413467699      -31.5991129323       53.2585218641  LPSA29    12              7.0000000000
     31636      1020  BGLCNA    HO4            24.9500888933      -31.9305342137       53.3122278174  LPSA29    12              7.0000000000
     31637      1020  BGLCNA    C6             23.4155824095      -33.3425891132       50.9806574137  LPSA29    12              7.0000000000
     31638      1020  BGLCNA    H61            23.5557510546      -33.8900508049       51.9398458834  LPSA29    12              7.0000000000
     31639      1020  BGLCNA    H62            22.3292786872      -33.1597474710       50.8270032579  LPSA29    12              7.0000000000
     31640      1020  BGLCNA    O6             23.8773828026      -34.1465988936       49.9227014489  LPSA29    12              7.0000000000
     31641      1020  BGLCNA    HO6            24.5268069070      -34.7819626941       50.2118391351  LPSA29    12              7.0000000000
     31642      1021  AGAL      C1             25.2254335957      -28.6365700213       53.8357471781  LPSA29    13              8.0000000000
     31643      1021  AGAL      H1             25.5469995628      -29.6597510935       54.1528345468  LPSA29    13              8.0000000000
     31644      1021  AGAL      C5             26.0054960531      -26.4312053134       53.2678328143  LPSA29    13              8.0000000000
     31645      1021  AGAL      H5             25.1642487614      -26.4551063623       52.5377973845  LPSA29    13              8.0000000000
     31646      1021  AGAL      O5             26.3693163857      -27.8234620343       53.4715300016  LPSA29    13              8.0000000000
     31647      1021  AGAL      C2             24.6679197284      -27.9815987044       55.1054011582  LPSA29    13              8.0000000000
     31648      1021  AGAL      H2             25.5413680548      -27.8921586328       55.7960600116  LPSA29    13              8.0000000000
     31649      1021  AGAL      O2             23.7066240563      -28.8236170570       55.7612906477  LPSA29    13              8.0000000000
     31650      1021  AGAL      C3             24.2307362383      -26.5443836091       54.8920522551  LPSA29    13              8.0000000000
     31651      1021  AGAL      H3             23.5395182183      -26.5093926902       54.0206669658  LPSA29    13              8.0000000000
     31652      1021  AGAL      O3             23.5263131484      -26.0110455188       56.0034013377  LPSA29    13              8.0000000000
     31653      1021  AGAL      HO3            22.7984248543      -25.4455345415       55.7215426295  LPSA29    13              8.0000000000
     31654      1021  AGAL      C4             25.4528145579      -25.7479375833       54.5177166001  LPSA29    13              8.0000000000
     31655      1021  AGAL      H4             25.1302253465      -24.7172414641       54.2367949602  LPSA29    13              8.0000000000
     31656      1021  AGAL      O4             26.4012844544      -25.6343959959       55.5889200989  LPSA29    13              8.0000000000
     31657      1021  AGAL      HO4            26.5480697476      -26.4790612264       56.0224716631  LPSA29    13              8.0000000000
     31658      1021  AGAL      C6             27.0407278881      -25.5861548687       52.5572246837  LPSA29    13              8.0000000000
     31659      1021  AGAL      H61            27.3352378017      -26.0861877984       51.6084704064  LPSA29    13              8.0000000000
     31660      1021  AGAL      H62            26.5736944348      -24.5980584494       52.3117414661  LPSA29    13              8.0000000000
     31661      1021  AGAL      O6             28.1929672468      -25.3271917793       53.3520897359  LPSA29    13              8.0000000000
     31662      1021  AGAL      HO6            27.9555562647      -24.6001072328       53.9497094685  LPSA29    13              8.0000000000
     31663      1022  ARHM      C1             24.0781430919      -29.3749281400       57.0108983847  LPSA29    14              9.0000000000
     31664      1022  ARHM      H1             25.1826666107      -29.5007561703       57.0430963692  LPSA29    14              9.0000000000
     31665      1022  ARHM      C5             22.0838759668      -30.6504125636       57.1760002561  LPSA29    14              9.0000000000
     31666      1022  ARHM      H5             21.7557458117      -30.2093460348       56.2062905659  LPSA29    14              9.0000000000
     31667      1022  ARHM      O5             23.5208271414      -30.6796033615       57.1889114517  LPSA29    14              9.0000000000
     31668      1022  ARHM      C2             23.5994488430      -28.4562127666       58.1233696107  LPSA29    14              9.0000000000
     31669      1022  ARHM      H2             24.0321492192      -27.4455159674       57.9394617738  LPSA29    14              9.0000000000
     31670      1022  ARHM      O2             23.9048262244      -28.8677701999       59.4782558438  LPSA29    14              9.0000000000
     31671      1022  ARHM      C3             22.0954206114      -28.3859971707       58.0594872840  LPSA29    14              9.0000000000
     31672      1022  ARHM      H3             21.7805002640      -28.1127072847       57.0248274388  LPSA29    14              9.0000000000
     31673      1022  ARHM      O3             21.5814420319      -27.3549090922       58.8935468230  LPSA29    14              9.0000000000
     31674      1022  ARHM      HO3            21.6155961228      -27.5881226815       59.8239700201  LPSA29    14              9.0000000000
     31675      1022  ARHM      C4             21.5427315783      -29.7790890405       58.3111601400  LPSA29    14              9.0000000000
     31676      1022  ARHM      H4             21.9285902316      -30.2040654011       59.2679485537  LPSA29    14              9.0000000000
     31677      1022  ARHM      O4             20.1170032681      -29.8244565065       58.3621896929  LPSA29    14              9.0000000000
     31678      1022  ARHM      HO4            19.7944359831      -29.9062703130       59.2715995808  LPSA29    14              9.0000000000
     31679      1022  ARHM      C6             21.5889191919      -32.1009100839       57.2590118226  LPSA29    14              9.0000000000
     31680      1022  ARHM      H61            22.1509506901      -32.7747055491       56.5795563411  LPSA29    14              9.0000000000
     31681      1022  ARHM      H62            21.6672434014      -32.4369359848       58.3137401032  LPSA29    14              9.0000000000
     31682      1022  ARHM      H63            20.5275227181      -32.1635791361       56.9638080454  LPSA29    14              9.0000000000
     31683      1023  ARHM      C1             25.2491399051      -29.1858136825       59.7348997305  LPSA29    15             10.0000000000
     31684      1023  ARHM      H1             25.9138562139      -28.6310399054       59.0320539626  LPSA29    15             10.0000000000
     31685      1023  ARHM      C5             24.8239172447      -31.4102036652       60.6355621192  LPSA29    15             10.0000000000
     31686      1023  ARHM      H5             23.7235980121      -31.4018738504       60.4499947949  LPSA29    15             10.0000000000
     31687      1023  ARHM      O5             25.5182535072      -30.6026137825       59.6633816001  LPSA29    15             10.0000000000
     31688      1023  ARHM      C2             25.5962516767      -28.7136077030       61.1316262926  LPSA29    15             10.0000000000
     31689      1023  ARHM      H2             25.4248218003      -27.6456809689       61.2019736728  LPSA29    15             10.0000000000
     31690      1023  ARHM      O2             27.0094399166      -28.8186281920       61.3003658094  LPSA29    15             10.0000000000
     31691      1023  ARHM      C3             24.7674091170      -29.4587409579       62.1435249869  LPSA29    15             10.0000000000
     31692      1023  ARHM      H3             23.7010402246      -29.3953622418       61.8448112394  LPSA29    15             10.0000000000
     31693      1023  ARHM      O3             24.8935267827      -28.8042207827       63.4046422078  LPSA29    15             10.0000000000
     31694      1023  ARHM      C4             25.1595492911      -30.9160206213       62.0308925755  LPSA29    15             10.0000000000
     31695      1023  ARHM      H4             26.2654240633      -30.9718580855       62.1648663263  LPSA29    15             10.0000000000
     31696      1023  ARHM      O4             24.5737171123      -31.7687791187       63.0044667622  LPSA29    15             10.0000000000
     31697      1023  ARHM      HO4            25.0579274754      -32.6081823343       62.9842394079  LPSA29    15             10.0000000000
     31698      1023  ARHM      C6             25.2989064678      -32.8683473142       60.4583666570  LPSA29    15             10.0000000000
     31699      1023  ARHM      H61            24.6856949492      -33.5830631619       61.0481623057  LPSA29    15             10.0000000000
     31700      1023  ARHM      H62            25.2672835946      -33.1286468111       59.3819070769  LPSA29    15             10.0000000000
     31701      1023  ARHM      H63            26.3407687780      -32.9900926434       60.8187018213  LPSA29    15             10.0000000000
     31702      1024  BMANNA    C1             27.5901729440      -28.3710065973       62.5043392496  LPSA29    16             11.0000000000
     31703      1024  BMANNA    H1             27.3006347066      -29.0798468229       63.3161684468  LPSA29    16             11.0000000000
     31704      1024  BMANNA    C5             27.8090629945      -26.7024306779       64.2008757919  LPSA29    16             11.0000000000
     31705      1024  BMANNA    H5             27.5121837650      -27.4771362828       64.9515683023  LPSA29    16             11.0000000000
     31706      1024  BMANNA    O5             27.2288703951      -27.0332275986       62.9097833556  LPSA29    16             11.0000000000
     31707      1024  BMANNA    C2             29.0976728707      -28.4425336782       62.3140907612  LPSA29    16             11.0000000000
     31708      1024  BMANNA    H2             29.3374645658      -29.5019539784       62.0336801517  LPSA29    16             11.0000000000
     31709      1024  BMANNA    N              29.6250639149      -27.5828085493       61.2556861090  LPSA29    16             11.0000000000
     31710      1024  BMANNA    HN             29.9578113997      -26.6873608532       61.5226149371  LPSA29    16             11.0000000000
     31711      1024  BMANNA    C              29.8175299410      -27.9486330133       59.9861472492  LPSA29    16             11.0000000000
     31712      1024  BMANNA    O              29.5278331328      -29.0502570577       59.5480960651  LPSA29    16             11.0000000000
     31713      1024  BMANNA    CT             30.3472335520      -26.8676360309       59.0893136557  LPSA29    16             11.0000000000
     31714      1024  BMANNA    HT1            31.4295620422      -27.0104204289       58.9157761186  LPSA29    16             11.0000000000
     31715      1024  BMANNA    HT2            30.2115240828      -25.8715166048       59.5378955865  LPSA29    16             11.0000000000
     31716      1024  BMANNA    HT3            29.8200277209      -26.8775489155       58.1155934275  LPSA29    16             11.0000000000
     31717      1024  BMANNA    C3             29.7343470187      -28.1215318732       63.6536528328  LPSA29    16             11.0000000000
     31718      1024  BMANNA    H3             29.3685098077      -28.8586333905       64.3998611786  LPSA29    16             11.0000000000
     31719      1024  BMANNA    O3             31.1377229096      -28.2843368712       63.5959413450  LPSA29    16             11.0000000000
     31720      1024  BMANNA    HO3            31.4545164269      -28.8215902990       64.3274247473  LPSA29    16             11.0000000000
     31721      1024  BMANNA    C4             29.3242772100      -26.7360158338       64.1251924904  LPSA29    16             11.0000000000
     31722      1024  BMANNA    H4             29.6669493649      -25.9770053899       63.4057168619  LPSA29    16             11.0000000000
     31723      1024  BMANNA    O4             29.8962805541      -26.3569511678       65.3747817015  LPSA29    16             11.0000000000
     31724      1024  BMANNA    HO4            29.9779462409      -25.4023364558       65.4422457253  LPSA29    16             11.0000000000
     31725      1024  BMANNA    C6             27.3236630765      -25.3880513819       64.7929022059  LPSA29    16             11.0000000000
     31726      1024  BMANNA    H61            27.3838628238      -25.4514794201       65.8982798596  LPSA29    16             11.0000000000
     31727      1024  BMANNA    H62            27.9839703748      -24.5811291325       64.4697044489  LPSA29    16             11.0000000000
     31728      1024  BMANNA    O6             26.0051278550      -24.9906481599       64.4693624293  LPSA29    16             11.0000000000
     31729      1024  BMANNA    HO6            26.0309480334      -24.2663637968       63.8279094393  LPSA29    16             11.0000000000
     31730      1025  BGLCNA    C1             23.7074494809      -28.7306440397       64.1459627721  LPSA29    17             11.0000000000
     31731      1025  BGLCNA    H1             23.1233106205      -29.6640923755       63.9863757004  LPSA29    17             11.0000000000
     31732      1025  BGLCNA    C5             21.6951617036      -27.4918951490       64.5669044241  LPSA29    17             11.0000000000
     31733      1025  BGLCNA    H5             21.1080242357      -28.3952148556       64.3518338247  LPSA29    17             11.0000000000
     31734      1025  BGLCNA    O5             22.9017912107      -27.5980504433       63.7841722926  LPSA29    17             11.0000000000
     31735      1025  BGLCNA    C2             24.1647300721      -28.6085284740       65.5825196438  LPSA29    17             11.0000000000
     31736      1025  BGLCNA    H2             24.6994575349      -27.6368632925       65.7545422748  LPSA29    17             11.0000000000
     31737      1025  BGLCNA    N              25.1038089661      -29.6735489274       65.8768197927  LPSA29    17             11.0000000000
     31738      1025  BGLCNA    HN             24.9893495389      -30.5122156783       65.3576061547  LPSA29    17             11.0000000000
     31739      1025  BGLCNA    C              26.0668374442      -29.6426131413       66.8106895726  LPSA29    17             11.0000000000
     31740      1025  BGLCNA    O              26.3920221832      -28.6597575522       67.4584701521  LPSA29    17             11.0000000000
     31741      1025  BGLCNA    CT             26.7522738243      -30.9609049827       67.0369728400  LPSA29    17             11.0000000000
     31742      1025  BGLCNA    HT1            27.7320807847      -31.0176956294       66.5280429626  LPSA29    17             11.0000000000
     31743      1025  BGLCNA    HT2            26.0801959358      -31.7676903370       66.6812494841  LPSA29    17             11.0000000000
     31744      1025  BGLCNA    HT3            26.9119846592      -31.1173876562       68.1216226564  LPSA29    17             11.0000000000
     31745      1025  BGLCNA    C3             22.9069190974      -28.6307451136       66.4340162644  LPSA29    17             11.0000000000
     31746      1025  BGLCNA    H3             22.3580179856      -29.5390767135       66.0930884716  LPSA29    17             11.0000000000
     31747      1025  BGLCNA    O3             23.2563210366      -28.7969435980       67.8325689171  LPSA29    17             11.0000000000
     31748      1025  BGLCNA    C4             22.0661245114      -27.4104671347       66.0541874499  LPSA29    17             11.0000000000
     31749      1025  BGLCNA    H4             22.6832649672      -26.4819096015       66.1645414406  LPSA29    17             11.0000000000
     31750      1025  BGLCNA    O4             20.8795474462      -27.3178750136       66.8566240580  LPSA29    17             11.0000000000
     31751      1025  BGLCNA    HO4            20.4794949780      -26.4486380464       66.7428917318  LPSA29    17             11.0000000000
     31752      1025  BGLCNA    C6             20.8430066801      -26.2998780648       64.1151031227  LPSA29    17             11.0000000000
     31753      1025  BGLCNA    H61            19.7588454214      -26.5127683077       64.1735422382  LPSA29    17             11.0000000000
     31754      1025  BGLCNA    H62            21.0218089421      -25.4433484948       64.8002014480  LPSA29    17             11.0000000000
     31755      1025  BGLCNA    O6             21.0950770059      -25.8716643274       62.7814459580  LPSA29    17             11.0000000000
     31756      1025  BGLCNA    HO6            21.0235377211      -26.5823012174       62.1422029104  LPSA29    17             11.0000000000
     31757      1026  AGAL      C1             22.3845488705      -29.5786106252       68.6237379886  LPSA29    18             12.0000000000
     31758      1026  AGAL      H1             21.4720324801      -28.9773122475       68.8196902380  LPSA29    18             12.0000000000
     31759      1026  AGAL      C5             23.1021448899      -31.7106564998       67.8517635783  LPSA29    18             12.0000000000
     31760      1026  AGAL      H5             23.9415035576      -31.1520131270       67.4023004724  LPSA29    18             12.0000000000
     31761      1026  AGAL      O5             21.9965208176      -30.7962652961       67.9824588034  LPSA29    18             12.0000000000
     31762      1026  AGAL      C2             22.9568354022      -29.9896741101       69.9707276779  LPSA29    18             12.0000000000
     31763      1026  AGAL      H2             22.1358101113      -30.6187152307       70.3915725459  LPSA29    18             12.0000000000
     31764      1026  AGAL      O2             23.0973084913      -28.8976023834       70.8772239690  LPSA29    18             12.0000000000
     31765      1026  AGAL      C3             24.1707467093      -30.9103963464       69.8446664630  LPSA29    18             12.0000000000
     31766      1026  AGAL      H3             24.9077415331      -30.4169854888       69.1690908813  LPSA29    18             12.0000000000
     31767      1026  AGAL      O3             24.8457996826      -31.1400716403       71.0814556229  LPSA29    18             12.0000000000
     31768      1026  AGAL      HO3            25.7931373400      -31.0226910670       70.9730125385  LPSA29    18             12.0000000000
     31769      1026  AGAL      C4             23.7018334777      -32.1890898241       69.1697193877  LPSA29    18             12.0000000000
     31770      1026  AGAL      H4             24.5661361217      -32.8536629259       68.9320583646  LPSA29    18             12.0000000000
     31771      1026  AGAL      O4             22.7906056898      -32.9282443073       69.9763945672  LPSA29    18             12.0000000000
     31772      1026  AGAL      HO4            23.3054504711      -33.3343421332       70.6862332067  LPSA29    18             12.0000000000
     31773      1026  AGAL      C6             22.8137250444      -32.7128142199       66.7710241090  LPSA29    18             12.0000000000
     31774      1026  AGAL      H61            22.6602632119      -32.1255900871       65.8353384296  LPSA29    18             12.0000000000
     31775      1026  AGAL      H62            23.6971597685      -33.3759375109       66.6283468500  LPSA29    18             12.0000000000
     31776      1026  AGAL      O6             21.6494323606      -33.4934734487       67.0017671786  LPSA29    18             12.0000000000
     31777      1026  AGAL      HO6            21.1040711716      -33.0557519631       67.6692945285  LPSA29    18             12.0000000000
     31778      1027  ARHM      C1             22.6909030453      -29.2585790988       72.1749746871  LPSA29    19             13.0000000000
     31779      1027  ARHM      H1             22.8390352616      -30.3431716358       72.3520694140  LPSA29    19             13.0000000000
     31780      1027  ARHM      C5             20.9534272693      -27.6617695736       72.2430197394  LPSA29    19             13.0000000000
     31781      1027  ARHM      H5             21.2445166773      -27.3676064753       71.2032822142  LPSA29    19             13.0000000000
     31782      1027  ARHM      O5             21.3036939812      -29.0252969341       72.4420775727  LPSA29    19             13.0000000000
     31783      1027  ARHM      C2             23.5111617743      -28.4209673543       73.1079658642  LPSA29    19             13.0000000000
     31784      1027  ARHM      H2             24.5977802813      -28.5106124533       72.8660612174  LPSA29    19             13.0000000000
     31785      1027  ARHM      O2             23.3083640700      -28.8830778921       74.4511212042  LPSA29    19             13.0000000000
     31786      1027  ARHM      C3             23.1633005741      -26.9594754988       72.9410144305  LPSA29    19             13.0000000000
     31787      1027  ARHM      H3             23.3418199568      -26.6453730379       71.8856064762  LPSA29    19             13.0000000000
     31788      1027  ARHM      O3             23.9580513449      -26.1603831758       73.8039474654  LPSA29    19             13.0000000000
     31789      1027  ARHM      HO3            23.9539682406      -26.5522985212       74.6786027248  LPSA29    19             13.0000000000
     31790      1027  ARHM      C4             21.7035842289      -26.7736705396       73.2009270881  LPSA29    19             13.0000000000
     31791      1027  ARHM      H4             21.5891918473      -27.1097216426       74.2407460850  LPSA29    19             13.0000000000
     31792      1027  ARHM      O4             21.2396783265      -25.4306856967       73.1015414547  LPSA29    19             13.0000000000
     31793      1027  ARHM      HO4            21.4639976282      -25.1308081192       72.2039875178  LPSA29    19             13.0000000000
     31794      1027  ARHM      C6             19.4368819644      -27.5484792820       72.3133252305  LPSA29    19             13.0000000000
     31795      1027  ARHM      H61            19.0222411302      -28.1555516250       71.4800776156  LPSA29    19             13.0000000000
     31796      1027  ARHM      H62            18.9573869407      -27.8413368397       73.2588398715  LPSA29    19             13.0000000000
     31797      1027  ARHM      H63            19.1835746170      -26.4875866295       72.1800703204  LPSA29    19             13.0000000000
     31798      1028  ARHM      C1             23.9562956736      -30.1086357158       74.6985223923  LPSA29    20             14.0000000000
     31799      1028  ARHM      H1             24.6527115682      -30.3789919506       73.8699707516  LPSA29    20             14.0000000000
     31800      1028  ARHM      C5             22.2000544214      -31.0832701461       75.9506990440  LPSA29    20             14.0000000000
     31801      1028  ARHM      H5             21.6228381451      -30.1411969906       75.8187982660  LPSA29    20             14.0000000000
     31802      1028  ARHM      O5             23.0706944675      -31.2249017143       74.8269211243  LPSA29    20             14.0000000000
     31803      1028  ARHM      C2             24.7698731303      -29.9224754229       75.9479012762  LPSA29    20             14.0000000000
     31804      1028  ARHM      H2             25.3723142713      -28.9809314175       75.8455661427  LPSA29    20             14.0000000000
     31805      1028  ARHM      O2             25.6238627363      -31.0478188390       76.1579879362  LPSA29    20             14.0000000000
     31806      1028  ARHM      C3             23.8861017016      -29.7551920865       77.1278331694  LPSA29    20             14.0000000000
     31807      1028  ARHM      H3             23.2291282607      -28.8667731404       76.9614065850  LPSA29    20             14.0000000000
     31808      1028  ARHM      O3             24.7230218942      -29.5322731548       78.2674635449  LPSA29    20             14.0000000000
     31809      1028  ARHM      C4             23.0202000258      -30.9800993557       77.2277325729  LPSA29    20             14.0000000000
     31810      1028  ARHM      H4             23.6119060756      -31.9211984966       77.3226902718  LPSA29    20             14.0000000000
     31811      1028  ARHM      O4             22.1823943658      -30.8732939900       78.3547520356  LPSA29    20             14.0000000000
     31812      1028  ARHM      HO4            21.3728158060      -31.3612565441       78.1669186758  LPSA29    20             14.0000000000
     31813      1028  ARHM      C6             21.1902335607      -32.2454776145       75.9477736525  LPSA29    20             14.0000000000
     31814      1028  ARHM      H61            21.6693386255      -33.2380052623       76.0840865543  LPSA29    20             14.0000000000
     31815      1028  ARHM      H62            20.4516339770      -32.0965598752       76.7641005952  LPSA29    20             14.0000000000
     31816      1028  ARHM      H63            20.6400294485      -32.2714657666       74.9852851189  LPSA29    20             14.0000000000
     31817      1029  BMANNA    C1             26.7898010310      -30.9130990023       75.4086236544  LPSA29    21             15.0000000000
     31818      1029  BMANNA    H1             26.6935145025      -30.0396858012       74.7208950957  LPSA29    21             15.0000000000
     31819      1029  BMANNA    C5             28.1343630496      -31.7139760298       73.6551085155  LPSA29    21             15.0000000000
     31820      1029  BMANNA    H5             27.9640122937      -30.7553501416       73.0924204664  LPSA29    21             15.0000000000
     31821      1029  BMANNA    O5             27.0117381693      -31.9970944775       74.5111363332  LPSA29    21             15.0000000000
     31822      1029  BMANNA    C2             27.9642931372      -30.7029096762       76.3504087041  LPSA29    21             15.0000000000
     31823      1029  BMANNA    H2             27.7130673345      -29.7707021294       76.9247007200  LPSA29    21             15.0000000000
     31824      1029  BMANNA    N              28.1954673469      -31.7973275647       77.2865057273  LPSA29    21             15.0000000000
     31825      1029  BMANNA    HN             28.1015908115      -32.7193657699       76.8937812618  LPSA29    21             15.0000000000
     31826      1029  BMANNA    C              28.5608615079      -31.6464769442       78.5806082618  LPSA29    21             15.0000000000
     31827      1029  BMANNA    O              28.9520874439      -30.5827367428       79.0280477000  LPSA29    21             15.0000000000
     31828      1029  BMANNA    CT             28.5581710559      -32.8621654378       79.4702896736  LPSA29    21             15.0000000000
     31829      1029  BMANNA    HT1            29.4600645304      -33.4581457523       79.2665037367  LPSA29    21             15.0000000000
     31830      1029  BMANNA    HT2            27.6365692496      -33.4340269893       79.2945869325  LPSA29    21             15.0000000000
     31831      1029  BMANNA    HT3            28.5558298047      -32.5887513022       80.5467723649  LPSA29    21             15.0000000000
     31832      1029  BMANNA    C3             29.1430301592      -30.4150711918       75.4663956774  LPSA29    21             15.0000000000
     31833      1029  BMANNA    H3             28.8457831198      -29.4780570996       74.9521054929  LPSA29    21             15.0000000000
     31834      1029  BMANNA    O3             30.3136498093      -30.1320757020       76.1939700437  LPSA29    21             15.0000000000
     31835      1029  BMANNA    HO3            30.4853198464      -30.8726234989       76.7826495018  LPSA29    21             15.0000000000
     31836      1029  BMANNA    C4             29.3816743919      -31.5377467918       74.4749563025  LPSA29    21             15.0000000000
     31837      1029  BMANNA    H4             29.6243196736      -32.4839660338       75.0142545039  LPSA29    21             15.0000000000
     31838      1029  BMANNA    O4             30.4575156069      -31.3229739757       73.5738236964  LPSA29    21             15.0000000000
     31839      1029  BMANNA    HO4            31.2131173710      -31.8454064159       73.8605066174  LPSA29    21             15.0000000000
     31840      1029  BMANNA    C6             28.3136367437      -32.7989680568       72.6329477051  LPSA29    21             15.0000000000
     31841      1029  BMANNA    H61            28.9821187547      -32.4485013836       71.8342575317  LPSA29    21             15.0000000000
     31842      1029  BMANNA    H62            28.8249505536      -33.6692183993       73.0883254425  LPSA29    21             15.0000000000
     31843      1029  BMANNA    O6             27.0844506552      -33.1880969615       72.0403257848  LPSA29    21             15.0000000000
     31844      1029  BMANNA    HO6            26.5420193533      -33.6138381064       72.7237842044  LPSA29    21             15.0000000000
     31845      1030  BGLCNA    C1             24.2250914992      -28.6499481151       79.2391986592  LPSA29    22             15.0000000000
     31846      1030  BGLCNA    H1             23.1224795458      -28.6356422268       79.2559046107  LPSA29    22             15.0000000000
     31847      1030  BGLCNA    C5             24.2847223811      -26.4477007483       80.1066990114  LPSA29    22             15.0000000000
     31848      1030  BGLCNA    H5             23.1650787429      -26.4646577835       80.1117938272  LPSA29    22             15.0000000000
     31849      1030  BGLCNA    O5             24.7437467390      -27.3290787978       79.0678895629  LPSA29    22             15.0000000000
     31850      1030  BGLCNA    C2             24.7142664549      -29.2027101485       80.5480652644  LPSA29    22             15.0000000000
     31851      1030  BGLCNA    H2             25.8366842722      -29.2243644358       80.4982494267  LPSA29    22             15.0000000000
     31852      1030  BGLCNA    N              24.2057620938      -30.5370796530       80.7279903310  LPSA29    22             15.0000000000
     31853      1030  BGLCNA    HN             23.2945706292      -30.7318659237       80.3793825003  LPSA29    22             15.0000000000
     31854      1030  BGLCNA    C              24.8664549685      -31.4974985418       81.3565713881  LPSA29    22             15.0000000000
     31855      1030  BGLCNA    O              25.9810910863      -31.3840636132       81.8426577540  LPSA29    22             15.0000000000
     31856      1030  BGLCNA    CT             24.1204357870      -32.7709010806       81.4309795084  LPSA29    22             15.0000000000
     31857      1030  BGLCNA    HT1            24.4462373885      -33.3808356821       80.5913832652  LPSA29    22             15.0000000000
     31858      1030  BGLCNA    HT2            23.0339769308      -32.6521247961       81.2953315585  LPSA29    22             15.0000000000
     31859      1030  BGLCNA    HT3            24.3150456080      -33.2921081865       82.3869606252  LPSA29    22             15.0000000000
     31860      1030  BGLCNA    C3             24.2630268873      -28.3204119572       81.6904327610  LPSA29    22             15.0000000000
     31861      1030  BGLCNA    H3             23.1498051572      -28.2550855500       81.6536580309  LPSA29    22             15.0000000000
     31862      1030  BGLCNA    O3             24.6656708737      -28.9789483012       82.9060058152  LPSA29    22             15.0000000000
     31863      1030  BGLCNA    C4             24.7996250291      -26.9306134658       81.4634471640  LPSA29    22             15.0000000000
     31864      1030  BGLCNA    H4             25.9102655001      -26.9951241902       81.4091415528  LPSA29    22             15.0000000000
     31865      1030  BGLCNA    O4             24.4780858120      -26.0125192861       82.5117689205  LPSA29    22             15.0000000000
     31866      1030  BGLCNA    HO4            25.2517532402      -25.4747577742       82.7283443768  LPSA29    22             15.0000000000
     31867      1030  BGLCNA    C6             24.7778893673      -25.0649763857       79.7780060368  LPSA29    22             15.0000000000
     31868      1030  BGLCNA    H61            24.7202378627      -24.4349481281       80.6882729600  LPSA29    22             15.0000000000
     31869      1030  BGLCNA    H62            25.8409365023      -25.0858929640       79.4555842244  LPSA29    22             15.0000000000
     31870      1030  BGLCNA    O6             23.9669751972      -24.4195924509       78.8014544672  LPSA29    22             15.0000000000
     31871      1030  BGLCNA    HO6            23.9382616028      -24.9041176364       77.9674288552  LPSA29    22             15.0000000000
     31872      1031  AGAL      C1             24.0357520548      -28.6252082407       84.1070075030  LPSA29    23             16.0000000000
     31873      1031  AGAL      H1             24.4140745291      -27.6422066202       84.4549045916  LPSA29    23             16.0000000000
     31874      1031  AGAL      C5             21.9787134135      -29.7989658024       83.7251510618  LPSA29    23             16.0000000000
     31875      1031  AGAL      H5             22.4430623428      -30.2443692315       82.8140487365  LPSA29    23             16.0000000000
     31876      1031  AGAL      O5             22.6120760672      -28.5297147066       83.9992018490  LPSA29    23             16.0000000000
     31877      1031  AGAL      C2             24.3829347312      -29.6239333997       85.1855042378  LPSA29    23             16.0000000000
     31878      1031  AGAL      H2             23.8778846560      -29.2576300143       86.1060782254  LPSA29    23             16.0000000000
     31879      1031  AGAL      O2             25.8023421871      -29.6753513705       85.4369418350  LPSA29    23             16.0000000000
     31880      1031  AGAL      C3             23.7532975436      -30.9757745487       84.8702652823  LPSA29    23             16.0000000000
     31881      1031  AGAL      H3             24.0713912330      -31.2973641926       83.8572074682  LPSA29    23             16.0000000000
     31882      1031  AGAL      O3             24.1857409082      -32.0118666192       85.7343074059  LPSA29    23             16.0000000000
     31883      1031  AGAL      HO3            24.2369602419      -31.6927611698       86.6311078958  LPSA29    23             16.0000000000
     31884      1031  AGAL      C4             22.2451361695      -30.8028428866       84.8495696957  LPSA29    23             16.0000000000
     31885      1031  AGAL      H4             21.7316066512      -31.7509294919       84.5908835283  LPSA29    23             16.0000000000
     31886      1031  AGAL      O4             21.7317907384      -30.3495578291       86.1005504551  LPSA29    23             16.0000000000
     31887      1031  AGAL      HO4            20.9122076613      -29.8875855672       85.8531226128  LPSA29    23             16.0000000000
     31888      1031  AGAL      C6             20.5281231938      -29.5533519149       83.3395337362  LPSA29    23             16.0000000000
     31889      1031  AGAL      H61            20.5006778520      -28.7364624272       82.5823282821  LPSA29    23             16.0000000000
     31890      1031  AGAL      H62            20.1114786419      -30.4550687531       82.8274170061  LPSA29    23             16.0000000000
     31891      1031  AGAL      O6             19.6967612563      -29.1710670331       84.4439552296  LPSA29    23             16.0000000000
     31892      1031  AGAL      HO6            18.7970791891      -28.9941217236       84.1089933124  LPSA29    23             16.0000000000
     31893      1032  ARHM      C1             26.3760747832      -28.6981373420       86.2857164865  LPSA29    24             17.0000000000
     31894      1032  ARHM      H1             25.6730075529      -27.8394683491       86.3887553225  LPSA29    24             17.0000000000
     31895      1032  ARHM      C5             28.6455834705      -29.1394760410       85.6236237772  LPSA29    24             17.0000000000
     31896      1032  ARHM      H5             28.2473286211      -29.9026850610       84.9210763206  LPSA29    24             17.0000000000
     31897      1032  ARHM      O5             27.6239016004      -28.1418760499       85.8058431988  LPSA29    24             17.0000000000
     31898      1032  ARHM      C2             26.6090786371      -29.3874662701       87.6076522147  LPSA29    24             17.0000000000
     31899      1032  ARHM      H2             25.6610154425      -29.8817858313       87.9331276121  LPSA29    24             17.0000000000
     31900      1032  ARHM      O2             27.0733235148      -28.4541067547       88.6037323469  LPSA29    24             17.0000000000
     31901      1032  ARHM      C3             27.6394269574      -30.4783226709       87.4231618560  LPSA29    24             17.0000000000
     31902      1032  ARHM      H3             27.2664491710      -31.1675920044       86.6288205963  LPSA29    24             17.0000000000
     31903      1032  ARHM      O3             27.7998292066      -31.2491836000       88.6136371463  LPSA29    24             17.0000000000
     31904      1032  ARHM      HO3            28.4673095746      -30.8458938808       89.1765251897  LPSA29    24             17.0000000000
     31905      1032  ARHM      C4             28.9282906916      -29.8591582336       86.9244997182  LPSA29    24             17.0000000000
     31906      1032  ARHM      H4             29.2365103614      -29.1084755252       87.6497034687  LPSA29    24             17.0000000000
     31907      1032  ARHM      O4             30.0120410441      -30.7727721877       86.8051467570  LPSA29    24             17.0000000000
     31908      1032  ARHM      HO4            30.8314984731      -30.3196152179       87.0168853257  LPSA29    24             17.0000000000
     31909      1032  ARHM      C6             29.8966996716      -28.5202438671       84.9572689156  LPSA29    24             17.0000000000
     31910      1032  ARHM      H61            30.4493062613      -29.3234649360       84.4149428605  LPSA29    24             17.0000000000
     31911      1032  ARHM      H62            29.5839172505      -27.7674123436       84.2081368648  LPSA29    24             17.0000000000
     31912      1032  ARHM      H63            30.5755645244      -28.0215080844       85.6812935024  LPSA29    24             17.0000000000
     31913      1033  ARHM      C1             26.0647950895      -27.6402048701       89.1441940153  LPSA29    25             18.0000000000
     31914      1033  ARHM      H1             25.1853843384      -27.6498256583       88.4639052524  LPSA29    25             18.0000000000
     31915      1033  ARHM      C5             27.4396463076      -26.0228329449       90.2358633696  LPSA29    25             18.0000000000
     31916      1033  ARHM      H5             28.2941347013      -26.5791823273       89.9362436273  LPSA29    25             18.0000000000
     31917      1033  ARHM      O5             26.4000962863      -26.2463057982       89.2731436302  LPSA29    25             18.0000000000
     31918      1033  ARHM      C2             25.6523893942      -28.2239543293       90.4619304844  LPSA29    25             18.0000000000
     31919      1033  ARHM      H2             25.4901560518      -29.3244578234       90.3624558670  LPSA29    25             18.0000000000
     31920      1033  ARHM      O2             24.4415335503      -27.5993376781       90.8996558754  LPSA29    25             18.0000000000
     31921      1033  ARHM      C3             26.7667206736      -28.0219361095       91.4578716961  LPSA29    25             18.0000000000
     31922      1033  ARHM      H3             27.6872480197      -28.5448657052       91.0877949087  LPSA29    25             18.0000000000
     31923      1033  ARHM      O3             26.3414339676      -28.5608880317       92.7056588052  LPSA29    25             18.0000000000
     31924      1033  ARHM      C4             27.0753873398      -26.5607505533       91.6037152114  LPSA29    25             18.0000000000
     31925      1033  ARHM      H4             26.1898502917      -25.9780678616       91.9418880487  LPSA29    25             18.0000000000
     31926      1033  ARHM      O4             28.1410073427      -26.4061006913       92.5437212169  LPSA29    25             18.0000000000
     31927      1033  ARHM      HO4            27.9612827036      -25.5982193475       93.0340177103  LPSA29    25             18.0000000000
     31928      1033  ARHM      C6             27.9218241894      -24.5640848586       90.2262947287  LPSA29    25             18.0000000000
     31929      1033  ARHM      H61            28.1221025763      -24.2349103770       89.1844193922  LPSA29    25             18.0000000000
     31930      1033  ARHM      H62            27.1478515856      -23.9229842467       90.6778358986  LPSA29    25             18.0000000000
     31931      1033  ARHM      H63            28.8707734826      -24.4717418064       90.7991351179  LPSA29    25             18.0000000000
     31932      1034  BMANNA    C1             23.2757421689      -28.0779094178       90.2784831498  LPSA29    26             19.0000000000
     31933      1034  BMANNA    H1             23.4388334399      -29.0926416227       89.8537541579  LPSA29    26             19.0000000000
     31934      1034  BMANNA    C5             21.6103205628      -27.8079895437       88.5893720726  LPSA29    26             19.0000000000
     31935      1034  BMANNA    H5             21.8868468151      -28.8048930727       88.1777336487  LPSA29    26             19.0000000000
     31936      1034  BMANNA    O5             22.7751011966      -27.2418266185       89.2204959733  LPSA29    26             19.0000000000
     31937      1034  BMANNA    C2             22.2403548387      -28.1743007178       91.3538169740  LPSA29    26             19.0000000000
     31938      1034  BMANNA    H2             22.6623998069      -28.8642241191       92.1341692621  LPSA29    26             19.0000000000
     31939      1034  BMANNA    N              21.9520587904      -26.8627788974       91.9342092089  LPSA29    26             19.0000000000
     31940      1034  BMANNA    HN             21.7371043330      -26.1419610533       91.2864207717  LPSA29    26             19.0000000000
     31941      1034  BMANNA    C              21.9795409878      -26.5747060467       93.2388789337  LPSA29    26             19.0000000000
     31942      1034  BMANNA    O              22.4158112879      -27.3643454425       94.0607730880  LPSA29    26             19.0000000000
     31943      1034  BMANNA    CT             21.4141889241      -25.2342240300       93.6574512612  LPSA29    26             19.0000000000
     31944      1034  BMANNA    HT1            21.5223833914      -24.5005048635       92.8414437829  LPSA29    26             19.0000000000
     31945      1034  BMANNA    HT2            21.8665495755      -24.8393451214       94.5894414417  LPSA29    26             19.0000000000
     31946      1034  BMANNA    HT3            20.3401579171      -25.3930430305       93.8598070734  LPSA29    26             19.0000000000
     31947      1034  BMANNA    C3             21.0309791974      -28.8481198952       90.7461694634  LPSA29    26             19.0000000000
     31948      1034  BMANNA    H3             21.3265514243      -29.8404524506       90.3286150111  LPSA29    26             19.0000000000
     31949      1034  BMANNA    O3             20.0724985966      -29.1172345251       91.7513362423  LPSA29    26             19.0000000000
     31950      1034  BMANNA    HO3            20.3562269125      -29.8623348946       92.2808104814  LPSA29    26             19.0000000000
     31951      1034  BMANNA    C4             20.4975249168      -27.9893067576       89.6136808841  LPSA29    26             19.0000000000
     31952      1034  BMANNA    H4             20.2035945702      -26.9855376729       89.9839508812  LPSA29    26             19.0000000000
     31953      1034  BMANNA    O4             19.3409971170      -28.5710199893       89.0157586400  LPSA29    26             19.0000000000
     31954      1034  BMANNA    HO4            18.5933721437      -28.3766489132       89.5897736295  LPSA29    26             19.0000000000
     31955      1034  BMANNA    C6             21.2612120252      -26.9130549765       87.4043337508  LPSA29    26             19.0000000000
     31956      1034  BMANNA    H61            22.2083645579      -26.5755104251       86.9192426601  LPSA29    26             19.0000000000
     31957      1034  BMANNA    H62            20.6994778020      -27.4861360323       86.6332590626  LPSA29    26             19.0000000000
     31958      1034  BMANNA    O6             20.4850664266      -25.7654025724       87.7771598292  LPSA29    26             19.0000000000
     31959      1034  BMANNA    HO6            19.6424161456      -26.0496853760       88.1332582196  LPSA29    26             19.0000000000
     31960      1035  BGLCNA    C1             27.2653387473      -29.2715041603       93.4746344566  LPSA29    27             19.0000000000
     31961      1035  BGLCNA    H1             28.2833801819      -28.8302629740       93.4278734409  LPSA29    27             19.0000000000
     31962      1035  BGLCNA    C5             28.2075368381      -31.3895088343       93.9213200558  LPSA29    27             19.0000000000
     31963      1035  BGLCNA    H5             29.1986926400      -30.8702938151       93.9387911764  LPSA29    27             19.0000000000
     31964      1035  BGLCNA    O5             27.3314047166      -30.6367371361       93.0726149896  LPSA29    27             19.0000000000
     31965      1035  BGLCNA    C2             26.6804086997      -29.1860458157       94.8702900650  LPSA29    27             19.0000000000
     31966      1035  BGLCNA    H2             25.6828272184      -29.7016195805       94.8368340660  LPSA29    27             19.0000000000
     31967      1035  BGLCNA    N              26.4685756281      -27.8048263686       95.2996557019  LPSA29    27             19.0000000000
     31968      1035  BGLCNA    HN             27.1757200781      -27.1482179438       95.0516046280  LPSA29    27             19.0000000000
     31969      1035  BGLCNA    C              25.3377574809      -27.4437541537       95.9572877668  LPSA29    27             19.0000000000
     31970      1035  BGLCNA    O              24.6085093697      -28.2499774855       96.5213047959  LPSA29    27             19.0000000000
     31971      1035  BGLCNA    CT             24.9897395946      -25.9725503175       96.0144769536  LPSA29    27             19.0000000000
     31972      1035  BGLCNA    HT1            25.6718005426      -25.3923464432       95.3632125671  LPSA29    27             19.0000000000
     31973      1035  BGLCNA    HT2            25.0243864998      -25.5945442209       97.0533625066  LPSA29    27             19.0000000000
     31974      1035  BGLCNA    HT3            23.9427483033      -25.8584095856       95.6557767118  LPSA29    27             19.0000000000
     31975      1035  BGLCNA    C3             27.5483739415      -29.9517245966       95.8253170599  LPSA29    27             19.0000000000
     31976      1035  BGLCNA    H3             28.5689513095      -29.5011239401       95.7785393706  LPSA29    27             19.0000000000
     31977      1035  BGLCNA    O3             26.9561068863      -29.7474351008       97.1299096748  LPSA29    27             19.0000000000
     31978      1035  BGLCNA    C4             27.6561203533      -31.3882850433       95.3402127928  LPSA29    27             19.0000000000
     31979      1035  BGLCNA    H4             26.6443169260      -31.8586340526       95.3323303821  LPSA29    27             19.0000000000
     31980      1035  BGLCNA    O4             28.5108059930      -32.1772136872       96.1579498526  LPSA29    27             19.0000000000
     31981      1035  BGLCNA    HO4            29.3918123365      -31.7959668405       96.1031760534  LPSA29    27             19.0000000000
     31982      1035  BGLCNA    C6             28.4511867356      -32.7610146358       93.3217317332  LPSA29    27             19.0000000000
     31983      1035  BGLCNA    H61            29.3050580962      -33.2386365062       93.8459314083  LPSA29    27             19.0000000000
     31984      1035  BGLCNA    H62            27.5661709401      -33.4143904738       93.4584512774  LPSA29    27             19.0000000000
     31985      1035  BGLCNA    O6             28.7530880485      -32.6718144094       91.9276305299  LPSA29    27             19.0000000000
     31986      1035  BGLCNA    HO6            28.9259759432      -33.5273662270       91.5234212870  LPSA29    27             19.0000000000
     31987      1036  AGAL      C1             27.7658312113      -29.9956237882       98.2448923960  LPSA29    28             20.0000000000
     31988      1036  AGAL      H1             27.8813500875      -31.0986839441       98.3211727631  LPSA29    28             20.0000000000
     31989      1036  AGAL      C5             29.0210728703      -27.9481102825       98.1250521751  LPSA29    28             20.0000000000
     31990      1036  AGAL      H5             28.2327302767      -27.5789169664       97.4243064127  LPSA29    28             20.0000000000
     31991      1036  AGAL      O5             29.0701941366      -29.3976136397       98.0638515478  LPSA29    28             20.0000000000
     31992      1036  AGAL      C2             27.2207479946      -29.5283162319       99.6088864836  LPSA29    28             20.0000000000
     31993      1036  AGAL      H2             28.0239784093      -29.8803296081      100.2965627589  LPSA29    28             20.0000000000
     31994      1036  AGAL      O2             26.0042082367      -30.1217336775      100.0900880562  LPSA29    28             20.0000000000
     31995      1036  AGAL      C3             27.1689998663      -28.0138333532       99.6791616595  LPSA29    28             20.0000000000
     31996      1036  AGAL      H3             26.5350169636      -27.6507122212       98.8401094579  LPSA29    28             20.0000000000
     31997      1036  AGAL      O3             26.5970660735      -27.4670792270      100.8567800105  LPSA29    28             20.0000000000
     31998      1036  AGAL      HO3            25.8128938575      -26.9530851302      100.6320300477  LPSA29    28             20.0000000000
     31999      1036  AGAL      C4             28.5548719050      -27.4794839594       99.4791206239  LPSA29    28             20.0000000000
     32000      1036  AGAL      H4             28.5012252635      -26.3722623709       99.4822511319  LPSA29    28             20.0000000000
     32001      1036  AGAL      O4             29.4635665643      -27.8640210977      100.4942393436  LPSA29    28             20.0000000000
     32002      1036  AGAL      HO4            29.5675888168      -27.1571158423      101.1253591040  LPSA29    28             20.0000000000
     32003      1036  AGAL      C6             30.3255722431      -27.3168565601       97.6514312181  LPSA29    28             20.0000000000
     32004      1036  AGAL      H61            30.4243652953      -27.5395114780       96.5679127166  LPSA29    28             20.0000000000
     32005      1036  AGAL      H62            30.3153416175      -26.2077323768       97.7641112330  LPSA29    28             20.0000000000
     32006      1036  AGAL      O6             31.4909201736      -27.8046761824       98.3147394473  LPSA29    28             20.0000000000
     32007      1036  AGAL      HO6            31.7553495181      -28.6179508813       97.8807471857  LPSA29    28             20.0000000000
     32008      1037  ARHM      C1             26.1251152456      -30.4038205674      101.4721798676  LPSA29    29             21.0000000000
     32009      1037  ARHM      H1             26.8584984051      -29.7259049686      101.9585550391  LPSA29    29             21.0000000000
     32010      1037  ARHM      C5             25.6435379051      -32.6991099831      101.1460325608  LPSA29    29             21.0000000000
     32011      1037  ARHM      H5             25.5063532801      -32.4626132685      100.0655243451  LPSA29    29             21.0000000000
     32012      1037  ARHM      O5             26.5606241294      -31.7444853270      101.6954319812  LPSA29    29             21.0000000000
     32013      1037  ARHM      C2             24.8157108718      -30.1885044403      102.1644220298  LPSA29    29             21.0000000000
     32014      1037  ARHM      H2             24.4640957057      -29.1549741822      101.9180432029  LPSA29    29             21.0000000000
     32015      1037  ARHM      O2             24.9584986780      -30.3416769831      103.5981437003  LPSA29    29             21.0000000000
     32016      1037  ARHM      C3             23.8150989412      -31.1621414897      101.6080064245  LPSA29    29             21.0000000000
     32017      1037  ARHM      H3             23.7091123156      -30.9931362760      100.5109970117  LPSA29    29             21.0000000000
     32018      1037  ARHM      O3             22.5605834744      -30.8826181769      102.1783392195  LPSA29    29             21.0000000000
     32019      1037  ARHM      HO3            22.0819032940      -31.7095567046      102.2459803683  LPSA29    29             21.0000000000
     32020      1037  ARHM      C4             24.2720015544      -32.5999052850      101.8244685883  LPSA29    29             21.0000000000
     32021      1037  ARHM      H4             24.3779141964      -32.7873836460      102.9143726724  LPSA29    29             21.0000000000
     32022      1037  ARHM      O4             23.3316862628      -33.5846166707      101.3650476611  LPSA29    29             21.0000000000
     32023      1037  ARHM      HO4            23.0185732428      -33.3696516159      100.4716252848  LPSA29    29             21.0000000000
     32024      1037  ARHM      C6             26.3842185750      -34.0328184936      101.2224430458  LPSA29    29             21.0000000000
     32025      1037  ARHM      H61            27.3961968962      -33.8921895602      100.7832664968  LPSA29    29             21.0000000000
     32026      1037  ARHM      H62            26.5172658937      -34.3784407253      102.2640070388  LPSA29    29             21.0000000000
     32027      1037  ARHM      H63            25.8508366797      -34.8070982476      100.6336504807  LPSA29    29             21.0000000000
     32028      1038  ARHM      C1             25.1223083451      -29.1711470633      104.3688645922  LPSA29    30             22.0000000000
     32029      1038  ARHM      H1             24.2849826711      -28.4658322752      104.1544405899  LPSA29    30             22.0000000000
     32030      1038  ARHM      C5             27.5065267582      -29.3451256702      104.4946299922  LPSA29    30             22.0000000000
     32031      1038  ARHM      H5             27.3866762594      -30.2868642923      103.9130416075  LPSA29    30             22.0000000000
     32032      1038  ARHM      O5             26.3872219625      -28.5072230396      104.1620084530  LPSA29    30             22.0000000000
     32033      1038  ARHM      C2             25.0595790849      -29.5706184623      105.8261500703  LPSA29    30             22.0000000000
     32034      1038  ARHM      H2             24.1071391312      -30.1188282498      106.0254955447  LPSA29    30             22.0000000000
     32035      1038  ARHM      O2             25.1588382578      -28.3860228418      106.6092630298  LPSA29    30             22.0000000000
     32036      1038  ARHM      C3             26.2203878200      -30.4522424696      106.2254472310  LPSA29    30             22.0000000000
     32037      1038  ARHM      H3             26.2043240465      -31.3022669716      105.5196830319  LPSA29    30             22.0000000000
     32038      1038  ARHM      O3             26.0572042531      -31.0074953646      107.5441528642  LPSA29    30             22.0000000000
     32039      1038  ARHM      C4             27.5063267767      -29.7125012310      105.9620658759  LPSA29    30             22.0000000000
     32040      1038  ARHM      H4             27.5517374026      -28.7755469382      106.5554913531  LPSA29    30             22.0000000000
     32041      1038  ARHM      O4             28.6794128191      -30.4337056691      106.3214445749  LPSA29    30             22.0000000000
     32042      1038  ARHM      HO4            28.9107631940      -31.1173078544      105.6858542778  LPSA29    30             22.0000000000
     32043      1038  ARHM      C6             28.8225275485      -28.6922654662      104.0478928827  LPSA29    30             22.0000000000
     32044      1038  ARHM      H61            29.6611609873      -29.3949492524      104.2208836724  LPSA29    30             22.0000000000
     32045      1038  ARHM      H62            28.7745495666      -28.4633729706      102.9670717195  LPSA29    30             22.0000000000
     32046      1038  ARHM      H63            29.0316388121      -27.7838684635      104.6269058245  LPSA29    30             22.0000000000
     32047      1039  BMANNA    C1             23.9508131299      -27.7796342681      106.9038974488  LPSA29    31             23.0000000000
     32048      1039  BMANNA    H1             23.1971091646      -28.5504837658      107.1663427415  LPSA29    31             23.0000000000
     32049      1039  BMANNA    C5             22.2859535803      -26.2175495019      106.2024278219  LPSA29    31             23.0000000000
     32050      1039  BMANNA    H5             21.5880627144      -27.0324678231      106.4768889468  LPSA29    31             23.0000000000
     32051      1039  BMANNA    O5             23.5028890875      -26.9109177009      105.8619811982  LPSA29    31             23.0000000000
     32052      1039  BMANNA    C2             24.2676128543      -26.9281503611      108.0865257835  LPSA29    31             23.0000000000
     32053      1039  BMANNA    H2             24.5357817918      -27.6341089886      108.9156454646  LPSA29    31             23.0000000000
     32054      1039  BMANNA    N              25.4064062477      -26.0633331782      107.8173595747  LPSA29    31             23.0000000000
     32055      1039  BMANNA    HN             25.6140920893      -25.8957891005      106.8530885331  LPSA29    31             23.0000000000
     32056      1039  BMANNA    C              26.2274034579      -25.6363394315      108.7751076381  LPSA29    31             23.0000000000
     32057      1039  BMANNA    O              26.0689992739      -25.9603187129      109.9435024795  LPSA29    31             23.0000000000
     32058      1039  BMANNA    CT             27.3554634546      -24.7524743687      108.3293990021  LPSA29    31             23.0000000000
     32059      1039  BMANNA    HT1            26.9594079718      -24.0472099546      107.5657766882  LPSA29    31             23.0000000000
     32060      1039  BMANNA    HT2            28.1626395997      -25.3759376530      107.9040925900  LPSA29    31             23.0000000000
     32061      1039  BMANNA    HT3            27.7660258814      -24.1899704694      109.1944873978  LPSA29    31             23.0000000000
     32062      1039  BMANNA    C3             23.0004510939      -26.2280397852      108.4995762859  LPSA29    31             23.0000000000
     32063      1039  BMANNA    H3             22.2252324479      -27.0016903403      108.6714475024  LPSA29    31             23.0000000000
     32064      1039  BMANNA    O3             23.1355261223      -25.6241184108      109.7556486889  LPSA29    31             23.0000000000
     32065      1039  BMANNA    HO3            23.9629502791      -25.9502690503      110.1464177032  LPSA29    31             23.0000000000
     32066      1039  BMANNA    C4             22.5051558454      -25.3189647942      107.4050030883  LPSA29    31             23.0000000000
     32067      1039  BMANNA    H4             23.2740787251      -24.5564041569      107.1240076886  LPSA29    31             23.0000000000
     32068      1039  BMANNA    O4             21.3039161937      -24.6145778729      107.7446155352  LPSA29    31             23.0000000000
     32069      1039  BMANNA    HO4            20.6753315324      -25.1528565981      108.2163438673  LPSA29    31             23.0000000000
     32070      1039  BMANNA    C6             21.6597541586      -25.4569194106      105.0489360024  LPSA29    31             23.0000000000
     32071      1039  BMANNA    H61            20.6182317732      -25.1561080088      105.3080897340  LPSA29    31             23.0000000000
     32072      1039  BMANNA    H62            22.2193381933      -24.5130892232      104.8695693227  LPSA29    31             23.0000000000
     32073      1039  BMANNA    O6             21.6744770372      -26.2053343302      103.8369624908  LPSA29    31             23.0000000000
     32074      1039  BMANNA    HO6            20.9814648079      -26.8728424546      103.7864243973  LPSA29    31             23.0000000000
     32075      1040  BGLCNA    C1             26.4382741281      -30.1830933276      108.6202665684  LPSA29    32             23.0000000000
     32076      1040  BGLCNA    H1             26.1686238022      -29.1348491808      108.4121710948  LPSA29    32             23.0000000000
     32077      1040  BGLCNA    C5             28.2227574884      -29.2813265974      109.9181346275  LPSA29    32             23.0000000000
     32078      1040  BGLCNA    H5             27.8997087333      -28.2689376962      109.5779652815  LPSA29    32             23.0000000000
     32079      1040  BGLCNA    O5             27.8403385827      -30.2178977745      108.9047618005  LPSA29    32             23.0000000000
     32080      1040  BGLCNA    C2             25.6776275418      -30.6007376803      109.8592862036  LPSA29    32             23.0000000000
     32081      1040  BGLCNA    H2             26.0860722293      -31.6026178402      110.1477235557  LPSA29    32             23.0000000000
     32082      1040  BGLCNA    N              24.2651151940      -30.7210415133      109.5848450665  LPSA29    32             23.0000000000
     32083      1040  BGLCNA    HN             23.9734133792      -30.1189421010      108.8619844882  LPSA29    32             23.0000000000
     32084      1040  BGLCNA    C              23.4111405957      -31.6275251065      110.0988531521  LPSA29    32             23.0000000000
     32085      1040  BGLCNA    O              23.7213484470      -32.4752144116      110.9230666181  LPSA29    32             23.0000000000
     32086      1040  BGLCNA    CT             22.0087006144      -31.5230590018      109.5450326176  LPSA29    32             23.0000000000
     32087      1040  BGLCNA    HT1            22.0631682514      -30.9382255248      108.6060154950  LPSA29    32             23.0000000000
     32088      1040  BGLCNA    HT2            21.3106695882      -31.0299675280      110.2473844976  LPSA29    32             23.0000000000
     32089      1040  BGLCNA    HT3            21.5996867090      -32.5292377284      109.3079610086  LPSA29    32             23.0000000000
     32090      1040  BGLCNA    C3             25.9817289335      -29.5661699127      110.9181127235  LPSA29    32             23.0000000000
     32091      1040  BGLCNA    H3             25.7643710973      -28.5708844397      110.4718822820  LPSA29    32             23.0000000000
     32092      1040  BGLCNA    O3             25.1751661125      -29.7095764137      112.1000599100  LPSA29    32             23.0000000000
     32093      1040  BGLCNA    C4             27.4628653553      -29.6256533272      111.1820015805  LPSA29    32             23.0000000000
     32094      1040  BGLCNA    H4             27.6717696604      -30.6742939303      111.4479467160  LPSA29    32             23.0000000000
     32095      1040  BGLCNA    O4             27.8753829127      -28.7786201117      112.2370589333  LPSA29    32             23.0000000000
     32096      1040  BGLCNA    HO4            27.8089833736      -29.2460279404      113.0781049108  LPSA29    32             23.0000000000
     32097      1040  BGLCNA    C6             29.7412329573      -29.2338318364      110.0543579142  LPSA29    32             23.0000000000
     32098      1040  BGLCNA    H61            30.0563832639      -28.4189952992      110.7371140732  LPSA29    32             23.0000000000
     32099      1040  BGLCNA    H62            30.1084922580      -30.1924824481      110.4881569052  LPSA29    32             23.0000000000
     32100      1040  BGLCNA    O6             30.3940590974      -28.9469440078      108.8137238132  LPSA29    32             23.0000000000
     32101      1040  BGLCNA    HO6            29.7883405507      -28.4609076084      108.2522706655  LPSA29    32             23.0000000000
     32102      1041  AGAL      C1             24.8049654768      -28.4677569663      112.6802122374  LPSA29    33             24.0000000000
     32103      1041  AGAL      H1             25.6462536287      -27.7451141938      112.6086855907  LPSA29    33             24.0000000000
     32104      1041  AGAL      C5             22.4771371908      -28.6683801908      112.1970252007  LPSA29    33             24.0000000000
     32105      1041  AGAL      H5             22.7718825531      -29.6823146067      111.8403232937  LPSA29    33             24.0000000000
     32106      1041  AGAL      O5             23.6563053476      -27.8714332019      112.0398810713  LPSA29    33             24.0000000000
     32107      1041  AGAL      C2             24.4805650716      -28.6731991159      114.1483183351  LPSA29    33             24.0000000000
     32108      1041  AGAL      H2             24.1256663682      -27.6914092857      114.5350630545  LPSA29    33             24.0000000000
     32109      1041  AGAL      O2             25.6891683714      -28.9826097737      114.8746717539  LPSA29    33             24.0000000000
     32110      1041  AGAL      C3             23.2811074417      -29.5949006231      114.3017095771  LPSA29    33             24.0000000000
     32111      1041  AGAL      H3             23.4404261169      -30.5485941688      113.7331345805  LPSA29    33             24.0000000000
     32112      1041  AGAL      O3             23.0534082309      -30.0280748814      115.6323487235  LPSA29    33             24.0000000000
     32113      1041  AGAL      HO3            22.9621012709      -29.3068113810      116.2564823376  LPSA29    33             24.0000000000
     32114      1041  AGAL      C4             22.0913278942      -28.8962351777      113.6494811613  LPSA29    33             24.0000000000
     32115      1041  AGAL      H4             21.2704572893      -29.6093357899      113.6655529395  LPSA29    33             24.0000000000
     32116      1041  AGAL      O4             21.5755942436      -27.7297429738      114.2862831622  LPSA29    33             24.0000000000
     32117      1041  AGAL      HO4            22.2060969088      -27.3352602333      114.9033748950  LPSA29    33             24.0000000000
     32118      1041  AGAL      C6             21.3775038371      -28.2270819218      111.2279367185  LPSA29    33             24.0000000000
     32119      1041  AGAL      H61            21.7866599369      -28.3661277876      110.2177975782  LPSA29    33             24.0000000000
     32120      1041  AGAL      H62            20.5243957738      -28.9062389935      111.2773449547  LPSA29    33             24.0000000000
     32121      1041  AGAL      O6             20.8294473386      -26.9095809503      111.3140530965  LPSA29    33             24.0000000000
     32122      1041  AGAL      HO6            21.4220709826      -26.2575699326      110.8941661638  LPSA29    33             24.0000000000
     32123      1042  ARHM      C1             25.8561948140      -28.2155886192      116.0537546082  LPSA29    34             25.0000000000
     32124      1042  ARHM      H1             24.9189786114      -28.2703420906      116.6476728141  LPSA29    34             25.0000000000
     32125      1042  ARHM      C5             27.3379529215      -26.5620972557      115.0644285726  LPSA29    34             25.0000000000
     32126      1042  ARHM      H5             27.1986733561      -27.0148915019      114.0616379612  LPSA29    34             25.0000000000
     32127      1042  ARHM      O5             26.1454116310      -26.8094274366      115.8305295581  LPSA29    34             25.0000000000
     32128      1042  ARHM      C2             26.9982352605      -28.8759631743      116.8098988717  LPSA29    34             25.0000000000
     32129      1042  ARHM      H2             26.8122227713      -29.9779294282      116.8596072504  LPSA29    34             25.0000000000
     32130      1042  ARHM      O2             27.1621302327      -28.3891706461      118.1707692893  LPSA29    34             25.0000000000
     32131      1042  ARHM      C3             28.2785215760      -28.6833520573      116.0008412658  LPSA29    34             25.0000000000
     32132      1042  ARHM      H3             28.1554744355      -29.1254314749      114.9846580883  LPSA29    34             25.0000000000
     32133      1042  ARHM      O3             29.3868073533      -29.3323117643      116.6300911819  LPSA29    34             25.0000000000
     32134      1042  ARHM      HO3            30.0160747468      -29.6464168498      115.9676533930  LPSA29    34             25.0000000000
     32135      1042  ARHM      C4             28.5168667204      -27.2055239590      115.7936607107  LPSA29    34             25.0000000000
     32136      1042  ARHM      H4             28.5576692880      -26.7344727006      116.7943354007  LPSA29    34             25.0000000000
     32137      1042  ARHM      O4             29.7515966988      -26.9521098818      115.1163682501  LPSA29    34             25.0000000000
     32138      1042  ARHM      HO4            30.4935099342      -27.1476126411      115.6987266989  LPSA29    34             25.0000000000
     32139      1042  ARHM      C6             27.5892540281      -25.0438173677      114.8286502058  LPSA29    34             25.0000000000
     32140      1042  ARHM      H61            27.6553418958      -24.4627150693      115.7663307086  LPSA29    34             25.0000000000
     32141      1042  ARHM      H62            28.5682739658      -24.9111150525      114.3286683215  LPSA29    34             25.0000000000
     32142      1042  ARHM      H63            26.8149830320      -24.5733400950      114.1869064166  LPSA29    34             25.0000000000
     32143      1043  ARHM      C1             26.0625643916      -28.4923308987      119.0652565632  LPSA29    35             26.0000000000
     32144      1043  ARHM      H1             25.5073451139      -29.4456001044      118.8746736438  LPSA29    35             26.0000000000
     32145      1043  ARHM      C5             25.8314417509      -26.0979744360      119.2042214627  LPSA29    35             26.0000000000
     32146      1043  ARHM      H5             26.6839879985      -25.9560589045      118.5061645278  LPSA29    35             26.0000000000
     32147      1043  ARHM      O5             25.1743042465      -27.3597510190      118.9506243379  LPSA29    35             26.0000000000
     32148      1043  ARHM      C2             26.5597857316      -28.5276083964      120.5091950478  LPSA29    35             26.0000000000
     32149      1043  ARHM      H2             27.2473671058      -29.3915450276      120.6600097715  LPSA29    35             26.0000000000
     32150      1043  ARHM      O2             25.4710475211      -28.6595754201      121.4369352380  LPSA29    35             26.0000000000
     32151      1043  ARHM      C3             27.3134666141      -27.2638815011      120.8326029277  LPSA29    35             26.0000000000
     32152      1043  ARHM      H3             28.1582199546      -27.1609198898      120.1115159890  LPSA29    35             26.0000000000
     32153      1043  ARHM      O3             27.9254538576      -27.3062752952      122.1281467092  LPSA29    35             26.0000000000
     32154      1043  ARHM      HO3            27.3349166506      -27.7842967879      122.7296540601  LPSA29    35             26.0000000000
     32155      1043  ARHM      C4             26.3738039020      -26.0842801917      120.6459871140  LPSA29    35             26.0000000000
     32156      1043  ARHM      H4             25.4902853006      -26.1676408784      121.3281988487  LPSA29    35             26.0000000000
     32157      1043  ARHM      O4             27.0656703413      -24.8750010653      120.9688284238  LPSA29    35             26.0000000000
     32158      1043  ARHM      HO4            27.8948997687      -24.8322070842      120.4930507077  LPSA29    35             26.0000000000
     32159      1043  ARHM      C6             24.8458844633      -24.9564426262      118.8580896999  LPSA29    35             26.0000000000
     32160      1043  ARHM      H61            24.6092794194      -24.9296120642      117.7719695856  LPSA29    35             26.0000000000
     32161      1043  ARHM      H62            23.9021292757      -25.1054050110      119.4240881078  LPSA29    35             26.0000000000
     32162      1043  ARHM      H63            25.3099601223      -23.9780755987      119.1096314183  LPSA29    35             26.0000000000
     32163      1044  BMANNA    C1             24.8712029919      -29.9299797712      121.4769304543  LPSA29    36             27.0000000000
     32164      1044  BMANNA    H1             25.5828805051      -30.7079159705      121.1261297513  LPSA29    36             27.0000000000
     32165      1044  BMANNA    C5             23.1471482889      -31.3816383886      120.7225712341  LPSA29    36             27.0000000000
     32166      1044  BMANNA    H5             23.9561532511      -32.0896821763      120.4346711581  LPSA29    36             27.0000000000
     32167      1044  BMANNA    O5             23.6917578369      -30.0417596973      120.6665074838  LPSA29    36             27.0000000000
     32168      1044  BMANNA    C2             24.4843231392      -30.1807423238      122.9203881579  LPSA29    36             27.0000000000
     32169      1044  BMANNA    H2             25.4486464239      -30.1482656402      123.4861388835  LPSA29    36             27.0000000000
     32170      1044  BMANNA    N              23.5916720331      -29.1745280781      123.4906659615  LPSA29    36             27.0000000000
     32171      1044  BMANNA    HN             22.8893194256      -28.8220761201      122.8786183241  LPSA29    36             27.0000000000
     32172      1044  BMANNA    C              23.5702708736      -28.8932603205      124.8133676107  LPSA29    36             27.0000000000
     32173      1044  BMANNA    O              24.3904878143      -29.3236793555      125.6185420002  LPSA29    36             27.0000000000
     32174      1044  BMANNA    CT             22.4582744051      -28.0101904716      125.3321913143  LPSA29    36             27.0000000000
     32175      1044  BMANNA    HT1            21.4970854072      -28.3023271159      124.8672372788  LPSA29    36             27.0000000000
     32176      1044  BMANNA    HT2            22.6519846637      -26.9432505466      125.1211666362  LPSA29    36             27.0000000000
     32177      1044  BMANNA    HT3            22.3797479361      -28.1239858344      126.4342438314  LPSA29    36             27.0000000000
     32178      1044  BMANNA    C3             23.9329682811      -31.5897398616      123.0223657048  LPSA29    36             27.0000000000
     32179      1044  BMANNA    H3             24.7023521750      -32.3074909415      122.6455372234  LPSA29    36             27.0000000000
     32180      1044  BMANNA    O3             23.6208609838      -31.9558398089      124.3654654718  LPSA29    36             27.0000000000
     32181      1044  BMANNA    HO3            24.2072881698      -32.6552321567      124.6582045861  LPSA29    36             27.0000000000
     32182      1044  BMANNA    C4             22.7301943223      -31.7338598418      122.1359843745  LPSA29    36             27.0000000000
     32183      1044  BMANNA    H4             21.9178718035      -31.0455104718      122.4598802764  LPSA29    36             27.0000000000
     32184      1044  BMANNA    O4             22.2098482639      -33.0527456880      122.2400778176  LPSA29    36             27.0000000000
     32185      1044  BMANNA    HO4            21.9978531714      -33.0915195216      123.1841072568  LPSA29    36             27.0000000000
     32186      1044  BMANNA    C6             22.0347108561      -31.5701442021      119.7194942680  LPSA29    36             27.0000000000
     32187      1044  BMANNA    H61            22.3934356793      -31.3300776340      118.6929293490  LPSA29    36             27.0000000000
     32188      1044  BMANNA    H62            21.7894296489      -32.6589480242      119.7021822651  LPSA29    36             27.0000000000
     32189      1044  BMANNA    O6             20.8637443937      -30.8082078924      120.0684986169  LPSA29    36             27.0000000000
     32190      1044  BMANNA    HO6            20.3369205588      -31.3875394114      120.6268342357  LPSA29    36             27.0000000000
     32191      1045  ECLIPA    HB6S           29.6109576866       32.5495807041       20.4303336799  LPSA30    1               0.0000000000
     32192      1045  ECLIPA    OB6            30.1908581528       31.0574026362       21.7180086840  LPSA30    1               0.0000000000
     32193      1045  ECLIPA    CB6            30.5423416841       32.0145546326       20.7058495980  LPSA30    1               0.0000000000
     32194      1045  ECLIPA    HB6R           31.2677227090       32.7602154939       21.1015930900  LPSA30    1               0.0000000000
     32195      1045  ECLIPA    CB5            31.1541775593       31.4142409346       19.4551634934  LPSA30    1               0.0000000000
     32196      1045  ECLIPA    OB5            30.2053557630       30.4416410544       18.9724032502  LPSA30    1               0.0000000000
     32197      1045  ECLIPA    HB5            32.1196156973       30.9380166299       19.7479035099  LPSA30    1               0.0000000000
     32198      1045  ECLIPA    CB1            30.6737662203       29.7589556367       17.8027418491  LPSA30    1               0.0000000000
     32199      1045  ECLIPA    HB1            31.6682248220       29.2719771936       17.9693250820  LPSA30    1               0.0000000000
     32200      1045  ECLIPA    OA6            29.7984556022       28.7678998922       17.3558130889  LPSA30    1               0.0000000000
     32201      1045  ECLIPA    CA6            28.4131058220       29.0400731214       17.6009587144  LPSA30    1               0.0000000000
     32202      1045  ECLIPA    HA6R           28.2004482408       30.1148096232       17.7705714816  LPSA30    1               0.0000000000
     32203      1045  ECLIPA    HA6S           28.0871384062       28.4172248459       18.4639108598  LPSA30    1               0.0000000000
     32204      1045  ECLIPA    CB4            31.4269048376       32.4513248189       18.3700064681  LPSA30    1               0.0000000000
     32205      1045  ECLIPA    HB4            30.5081602496       33.0179495625       18.0615965105  LPSA30    1               0.0000000000
     32206      1045  ECLIPA    OB4            32.4728591463       33.3229711215       18.8428489532  LPSA30    1               0.0000000000
     32207      1045  ECLIPA    PB             32.1548075958       34.8988876961       19.3013843691  LPSA30    1               0.0000000000
     32208      1045  ECLIPA    OPB4           32.9437888557       35.3067479303       20.5435452824  LPSA30    1               0.0000000000
     32209      1045  ECLIPA    OPB3           30.6666803279       34.9101076216       19.6442517222  LPSA30    1               0.0000000000
     32210      1045  ECLIPA    OPB2           32.4602279678       35.7848404598       18.0979512427  LPSA30    1               0.0000000000
     32211      1045  ECLIPA    CB3            31.8903198693       31.6780831515       17.1778792518  LPSA30    1               0.0000000000
     32212      1045  ECLIPA    OB3            31.9766017369       32.5012372899       16.0788815009  LPSA30    1               0.0000000000
     32213      1045  ECLIPA    HB3            32.8224119534       31.0971157527       17.3894652144  LPSA30    1               0.0000000000
     32214      1045  ECLIPA    C71            33.0523720557       33.0628118699       15.8948237455  LPSA30    1               0.0000000000
     32215      1045  ECLIPA    O71            34.1377201529       32.6880779753       16.3713805501  LPSA30    1               0.0000000000
     32216      1045  ECLIPA    C72            32.6755727264       33.4294317450       14.4128683520  LPSA30    1               0.0000000000
     32217      1045  ECLIPA    H72R           32.4837967286       32.7269635893       13.6358265351  LPSA30    1               0.0000000000
     32218      1045  ECLIPA    H72S           33.6158537978       33.1945279512       13.9256176549  LPSA30    1               0.0000000000
     32219      1045  ECLIPA    CB2            30.8624206941       30.7168606364       16.6834906356  LPSA30    1               0.0000000000
     32220      1045  ECLIPA    HB2            29.9045063907       31.2906046782       16.5154686682  LPSA30    1               0.0000000000
     32221      1045  ECLIPA    NB2            31.2997498245       30.0380785794       15.4588242144  LPSA30    1               0.0000000000
     32222      1045  ECLIPA    HNB2           31.8165286160       29.1978228668       15.5601293940  LPSA30    1               0.0000000000
     32223      1045  ECLIPA    CA4            28.2366304274       27.3640938923       15.9014314776  LPSA30    1               0.0000000000
     32224      1045  ECLIPA    HA4            29.2499351240       27.5036524837       15.6274141909  LPSA30    1               0.0000000000
     32225      1045  ECLIPA    OA4            28.0414354086       26.2973690346       16.8470851983  LPSA30    1               0.0000000000
     32226      1045  ECLIPA    HOA4           28.4249305265       26.5942877992       17.6744777031  LPSA30    1               0.0000000000
     32227      1045  ECLIPA    CA5            27.6635258603       28.6369574256       16.3828527384  LPSA30    1               0.0000000000
     32228      1045  ECLIPA    HA5            26.5587593841       28.6004054654       16.5775400280  LPSA30    1               0.0000000000
     32229      1045  ECLIPA    OA5            27.9204613150       29.6568527365       15.4126327162  LPSA30    1               0.0000000000
     32230      1045  ECLIPA    CA1            27.2811916777       29.4150396474       14.1488765314  LPSA30    1               0.0000000000
     32231      1045  ECLIPA    HA1            27.6948290067       30.1499889901       13.4371251859  LPSA30    1               0.0000000000
     32232      1045  ECLIPA    OA1            25.8778990985       29.5763572658       14.1960364926  LPSA30    1               0.0000000000
     32233      1045  ECLIPA    OPA2           24.5975631056       30.6309015423       16.0646068483  LPSA30    1               0.0000000000
     32234      1045  ECLIPA    OPA3           26.3986301354       31.9869076509       14.8877819600  LPSA30    1               0.0000000000
     32235      1045  ECLIPA    OPA4           24.2637446664       31.4612169379       13.6453789217  LPSA30    1               0.0000000000
     32236      1045  ECLIPA    PA             25.2432120245       31.0097117090       14.7293419624  LPSA30    1               0.0000000000
     32237      1045  ECLIPA    CA3            27.6566084589       27.1268993516       14.6295649618  LPSA30    1               0.0000000000
     32238      1045  ECLIPA    HA3            26.6764453147       26.8576906078       15.1052890569  LPSA30    1               0.0000000000
     32239      1045  ECLIPA    OA3            28.2003952431       26.0926740047       13.9371081055  LPSA30    1               0.0000000000
     32240      1045  ECLIPA    C31            29.2320947372       25.8867125828       13.2857242386  LPSA30    1               0.0000000000
     32241      1045  ECLIPA    O31            29.2185753537       25.5368667251       12.1097938360  LPSA30    1               0.0000000000
     32242      1045  ECLIPA    C32            29.8836278674       25.0276003472       14.1894849360  LPSA30    1               0.0000000000
     32243      1045  ECLIPA    H32R           29.9399236171       24.0859652253       13.5993150025  LPSA30    1               0.0000000000
     32244      1045  ECLIPA    H32S           29.5446929832       24.6357177036       15.1859312912  LPSA30    1               0.0000000000
     32245      1045  ECLIPA    CA2            27.8406572139       28.1799523880       13.5613323765  LPSA30    1               0.0000000000
     32246      1045  ECLIPA    HA2            28.9338735209       28.2759309071       13.4260527214  LPSA30    1               0.0000000000
     32247      1045  ECLIPA    NA2            27.3937963556       27.8860056878       12.1636479309  LPSA30    1               0.0000000000
     32248      1045  ECLIPA    HNA2           26.8945894215       27.0252789861       12.0737359529  LPSA30    1               0.0000000000
     32249      1045  ECLIPA    C73            31.8241240145       34.8237559627       14.2706611697  LPSA30    1               0.0000000000
     32250      1045  ECLIPA    H73R           32.0323799780       35.4894725768       15.1638564618  LPSA30    1               0.0000000000
     32251      1045  ECLIPA    O73            30.5919725484       34.2804926239       14.3341757771  LPSA30    1               0.0000000000
     32252      1045  ECLIPA    C81            29.7518652091       34.9539737040       15.0186330188  LPSA30    1               0.0000000000
     32253      1045  ECLIPA    O81            29.9185408569       36.0593920985       15.5371915048  LPSA30    1               0.0000000000
     32254      1045  ECLIPA    C82            28.5080430160       34.3964413157       14.3565410580  LPSA30    1               0.0000000000
     32255      1045  ECLIPA    H82R           27.6521711588       34.8312741670       14.8785883833  LPSA30    1               0.0000000000
     32256      1045  ECLIPA    H82S           28.5314976662       33.2924051844       14.5549361462  LPSA30    1               0.0000000000
     32257      1045  ECLIPA    C83            28.4760022573       34.5900486848       12.8136675712  LPSA30    1               0.0000000000
     32258      1045  ECLIPA    H83R           29.0829708506       33.8006832016       12.3054836725  LPSA30    1               0.0000000000
     32259      1045  ECLIPA    H83S           28.9134520937       35.5724653832       12.5447188000  LPSA30    1               0.0000000000
     32260      1045  ECLIPA    C84            27.0585051128       34.4387387561       12.2747075299  LPSA30    1               0.0000000000
     32261      1045  ECLIPA    H84R           26.4612130898       35.3162661545       12.5673774836  LPSA30    1               0.0000000000
     32262      1045  ECLIPA    H84S           26.6338838589       33.5199981377       12.7602201475  LPSA30    1               0.0000000000
     32263      1045  ECLIPA    C85            26.9892495284       34.2353452991       10.7614488274  LPSA30    1               0.0000000000
     32264      1045  ECLIPA    H85R           27.8064965346       33.5140112946       10.5387678794  LPSA30    1               0.0000000000
     32265      1045  ECLIPA    H85S           27.2332070410       35.1783816934       10.2303025015  LPSA30    1               0.0000000000
     32266      1045  ECLIPA    C86            25.6762752726       33.5756706551       10.2856774015  LPSA30    1               0.0000000000
     32267      1045  ECLIPA    H86R           24.9198285032       34.3365500572        9.9961449355  LPSA30    1               0.0000000000
     32268      1045  ECLIPA    H86S           25.2265192618       32.9989219815       11.1304386673  LPSA30    1               0.0000000000
     32269      1045  ECLIPA    C87            25.9109250906       32.5509072926        9.1579338549  LPSA30    1               0.0000000000
     32270      1045  ECLIPA    H87R           24.9327298616       32.1664138569        8.7983250172  LPSA30    1               0.0000000000
     32271      1045  ECLIPA    H87S           26.4569320054       31.6739121393        9.5757314614  LPSA30    1               0.0000000000
     32272      1045  ECLIPA    C88            26.7651175532       33.1113343460        8.0202442138  LPSA30    1               0.0000000000
     32273      1045  ECLIPA    H88R           27.8253499101       33.1454670368        8.3492872846  LPSA30    1               0.0000000000
     32274      1045  ECLIPA    H88S           26.4799786887       34.1785412378        7.8805790091  LPSA30    1               0.0000000000
     32275      1045  ECLIPA    C89            26.6662373484       32.2998465944        6.7150329915  LPSA30    1               0.0000000000
     32276      1045  ECLIPA    H89R           26.3041303547       31.2635271237        6.8951984820  LPSA30    1               0.0000000000
     32277      1045  ECLIPA    H89S           27.6736454634       32.1895959547        6.2593003798  LPSA30    1               0.0000000000
     32278      1045  ECLIPA    C810           25.7854343300       33.0281521344        5.6970449250  LPSA30    1               0.0000000000
     32279      1045  ECLIPA    H810R          25.8744895145       34.1111696594        5.9300035807  LPSA30    1               0.0000000000
     32280      1045  ECLIPA    H810S          24.7296705442       32.7201281460        5.8638623098  LPSA30    1               0.0000000000
     32281      1045  ECLIPA    C811           26.1811154866       32.7734323598        4.2356927781  LPSA30    1               0.0000000000
     32282      1045  ECLIPA    H811R          25.3420830069       33.0078589148        3.5393852826  LPSA30    1               0.0000000000
     32283      1045  ECLIPA    H811S          26.4388028541       31.6958928440        4.1587471256  LPSA30    1               0.0000000000
     32284      1045  ECLIPA    C812           27.4203752586       33.5233022584        3.7391621515  LPSA30    1               0.0000000000
     32285      1045  ECLIPA    H812R          27.6467982123       33.1498715483        2.7108768221  LPSA30    1               0.0000000000
     32286      1045  ECLIPA    H812S          28.2788531389       33.3308322106        4.4128120966  LPSA30    1               0.0000000000
     32287      1045  ECLIPA    C813           27.3011212282       35.0257514433        3.6605930566  LPSA30    1               0.0000000000
     32288      1045  ECLIPA    H813R          26.5016154848       35.2639222378        2.9226891907  LPSA30    1               0.0000000000
     32289      1045  ECLIPA    H813S          27.0386218273       35.4779072346        4.6445197748  LPSA30    1               0.0000000000
     32290      1045  ECLIPA    C814           28.6120783075       35.6554819517        3.2467906009  LPSA30    1               0.0000000000
     32291      1045  ECLIPA    H814R          28.9567615729       35.2887694929        2.2459297749  LPSA30    1               0.0000000000
     32292      1045  ECLIPA    H814S          29.3971687088       35.5798440493        3.9976266748  LPSA30    1               0.0000000000
     32293      1045  ECLIPA    H814T          28.4911850345       36.7475327092        3.2790067453  LPSA30    1               0.0000000000
     32294      1045  ECLIPA    C74            31.7814371430       35.8713547267       13.0304424491  LPSA30    1               0.0000000000
     32295      1045  ECLIPA    H74R           32.4256685697       36.6847414359       12.6699542336  LPSA30    1               0.0000000000
     32296      1045  ECLIPA    H74S           31.1461397484       36.7281436785       13.3406525931  LPSA30    1               0.0000000000
     32297      1045  ECLIPA    C75            31.7603600609       35.2464400578       11.6591714680  LPSA30    1               0.0000000000
     32298      1045  ECLIPA    H75R           31.2904151409       36.0354311162       11.0305828369  LPSA30    1               0.0000000000
     32299      1045  ECLIPA    H75S           31.1344061457       34.3692292893       11.8692846610  LPSA30    1               0.0000000000
     32300      1045  ECLIPA    C76            33.0128071832       34.6998323038       10.9309493434  LPSA30    1               0.0000000000
     32301      1045  ECLIPA    H76R           33.4133411424       33.7737061984       11.3885530867  LPSA30    1               0.0000000000
     32302      1045  ECLIPA    H76S           33.9020632667       35.3453820021       10.8615765026  LPSA30    1               0.0000000000
     32303      1045  ECLIPA    C77            32.6648209491       34.4518240638        9.4614161577  LPSA30    1               0.0000000000
     32304      1045  ECLIPA    H77R           32.5707439732       35.4595890065        8.9839830889  LPSA30    1               0.0000000000
     32305      1045  ECLIPA    H77S           31.7251380026       33.9508703967        9.3039965617  LPSA30    1               0.0000000000
     32306      1045  ECLIPA    C78            33.6478918191       33.4718542844        8.8434910964  LPSA30    1               0.0000000000
     32307      1045  ECLIPA    H78R           34.5762008641       33.7957310553        9.3382106105  LPSA30    1               0.0000000000
     32308      1045  ECLIPA    H78S           33.7987224721       32.5269550237        9.3642824636  LPSA30    1               0.0000000000
     32309      1045  ECLIPA    C79            33.5068682068       33.2300584791        7.2774567241  LPSA30    1               0.0000000000
     32310      1045  ECLIPA    H79R           33.2324269500       32.1860137786        7.1357469318  LPSA30    1               0.0000000000
     32311      1045  ECLIPA    H79S           34.4329826069       33.0965031115        6.6785765645  LPSA30    1               0.0000000000
     32312      1045  ECLIPA    C710           32.8015267968       34.3377683660        6.4270263562  LPSA30    1               0.0000000000
     32313      1045  ECLIPA    H710R          31.8620978421       34.5920075005        6.9140044812  LPSA30    1               0.0000000000
     32314      1045  ECLIPA    H710S          33.2671940633       35.3591326639        6.2994091309  LPSA30    1               0.0000000000
     32315      1045  ECLIPA    C711           32.5991605338       33.8872978215        4.9974468496  LPSA30    1               0.0000000000
     32316      1045  ECLIPA    H711R          33.4417681364       33.3736926083        4.5501717712  LPSA30    1               0.0000000000
     32317      1045  ECLIPA    H711S          32.0399460276       32.9684081266        4.9638245529  LPSA30    1               0.0000000000
     32318      1045  ECLIPA    C712           32.0564794125       35.0478059776        4.1810284313  LPSA30    1               0.0000000000
     32319      1045  ECLIPA    H712R          32.6854269150       35.9750967226        4.2447295589  LPSA30    1               0.0000000000
     32320      1045  ECLIPA    H712S          31.1645791194       35.3043341099        4.7900209834  LPSA30    1               0.0000000000
     32321      1045  ECLIPA    C713           31.6213997497       34.5989722081        2.7575749828  LPSA30    1               0.0000000000
     32322      1045  ECLIPA    H713R          30.9566693270       33.7394740848        2.9206191289  LPSA30    1               0.0000000000
     32323      1045  ECLIPA    H713S          31.1216383466       35.4818299105        2.2903438964  LPSA30    1               0.0000000000
     32324      1045  ECLIPA    C714           32.5801249496       34.0088905731        1.7151773822  LPSA30    1               0.0000000000
     32325      1045  ECLIPA    H714R          32.9976767922       34.9357004533        1.5030929104  LPSA30    1               0.0000000000
     32326      1045  ECLIPA    H714S          33.4786486374       33.4774783168        2.0960063869  LPSA30    1               0.0000000000
     32327      1045  ECLIPA    H714T          32.4102442694       34.0180319182        0.6282239705  LPSA30    1               0.0000000000
     32328      1045  ECLIPA    C51            31.0265098057       30.5234239565       14.2353572257  LPSA30    1               0.0000000000
     32329      1045  ECLIPA    O51            30.2032844306       31.3998168702       14.0663490112  LPSA30    1               0.0000000000
     32330      1045  ECLIPA    C52            31.8111239271       29.9933628752       13.0571238153  LPSA30    1               0.0000000000
     32331      1045  ECLIPA    H52R           32.7570045782       30.5651378014       12.9305617566  LPSA30    1               0.0000000000
     32332      1045  ECLIPA    H52S           32.0706421243       28.9470472410       13.2508081964  LPSA30    1               0.0000000000
     32333      1045  ECLIPA    C53            30.9828007478       30.0982481503       11.7591992288  LPSA30    1               0.0000000000
     32334      1045  ECLIPA    H53R           29.8961288637       29.9288792283       11.9757513197  LPSA30    1               0.0000000000
     32335      1045  ECLIPA    O53            31.5455202950       29.1395504754       10.8497810795  LPSA30    1               0.0000000000
     32336      1045  ECLIPA    C61            30.8270578906       28.0972258429       10.5000447769  LPSA30    1               0.0000000000
     32337      1045  ECLIPA    O61            29.6925450290       27.8552898591       10.8151865513  LPSA30    1               0.0000000000
     32338      1045  ECLIPA    C62            31.6171467862       27.1974627326        9.5784451825  LPSA30    1               0.0000000000
     32339      1045  ECLIPA    H62R           32.2120076773       26.4976937501       10.2047982687  LPSA30    1               0.0000000000
     32340      1045  ECLIPA    H62S           32.2919055512       27.8427779218        9.0064873590  LPSA30    1               0.0000000000
     32341      1045  ECLIPA    C63            30.6717572946       26.4175701891        8.6504599247  LPSA30    1               0.0000000000
     32342      1045  ECLIPA    H63R           29.8569751407       27.0276986241        8.2314492635  LPSA30    1               0.0000000000
     32343      1045  ECLIPA    H63S           30.1265789658       25.7640821547        9.3474685799  LPSA30    1               0.0000000000
     32344      1045  ECLIPA    C64            31.3548138152       25.7119944398        7.4490791141  LPSA30    1               0.0000000000
     32345      1045  ECLIPA    H64R           30.6855648585       25.1895575620        6.7335747927  LPSA30    1               0.0000000000
     32346      1045  ECLIPA    H64S           32.0506673945       24.9619503340        7.8619784878  LPSA30    1               0.0000000000
     32347      1045  ECLIPA    C65            31.8854035809       26.7467422905        6.5086959655  LPSA30    1               0.0000000000
     32348      1045  ECLIPA    H65R           32.6585677734       27.2207749191        7.1393456963  LPSA30    1               0.0000000000
     32349      1045  ECLIPA    H65S           31.0452396378       27.4144356553        6.2354720988  LPSA30    1               0.0000000000
     32350      1045  ECLIPA    C66            32.5275209804       26.3153671292        5.2044706892  LPSA30    1               0.0000000000
     32351      1045  ECLIPA    H66R           33.0908763512       25.4557062052        5.4444175136  LPSA30    1               0.0000000000
     32352      1045  ECLIPA    H66S           33.1027076209       27.1335004929        4.7654290382  LPSA30    1               0.0000000000
     32353      1045  ECLIPA    C67            31.7640456569       25.6677421973        4.1124418525  LPSA30    1               0.0000000000
     32354      1045  ECLIPA    H67R           31.1605903354       25.0067571253        4.7021436246  LPSA30    1               0.0000000000
     32355      1045  ECLIPA    H67S           32.3730237150       25.0872660382        3.3841623503  LPSA30    1               0.0000000000
     32356      1045  ECLIPA    C68            30.7678693946       26.5610734222        3.5210721127  LPSA30    1               0.0000000000
     32357      1045  ECLIPA    H68R           31.1969062582       27.5023622279        3.1655641324  LPSA30    1               0.0000000000
     32358      1045  ECLIPA    H68S           29.9413826101       26.6464882248        4.2604918686  LPSA30    1               0.0000000000
     32359      1045  ECLIPA    C69            30.3921423206       26.0728907558        2.2268879025  LPSA30    1               0.0000000000
     32360      1045  ECLIPA    H69R           30.1707086614       25.0822142105        2.0662865697  LPSA30    1               0.0000000000
     32361      1045  ECLIPA    H69S           31.2136391201       26.1676970335        1.5264975323  LPSA30    1               0.0000000000
     32362      1045  ECLIPA    C610           28.9734459386       26.1384550697        1.9525598119  LPSA30    1               0.0000000000
     32363      1045  ECLIPA    H610R          28.8674734442       27.2419294967        2.0142421164  LPSA30    1               0.0000000000
     32364      1045  ECLIPA    H610S          28.4072200334       25.8727825432        2.7891651002  LPSA30    1               0.0000000000
     32365      1045  ECLIPA    C611           28.7541889177       25.2415465402        0.7130142065  LPSA30    1               0.0000000000
     32366      1045  ECLIPA    H611R          28.4849957492       24.2226905730        0.5054108534  LPSA30    1               0.0000000000
     32367      1045  ECLIPA    H611S          27.8173293858       24.8668302213        0.2295816000  LPSA30    1               0.0000000000
     32368      1045  ECLIPA    C612           29.4239451630       26.1406501859       -0.1218326158  LPSA30    1               0.0000000000
     32369      1045  ECLIPA    H612R          29.0001965640       27.1576414104       -0.4202992962  LPSA30    1               0.0000000000
     32370      1045  ECLIPA    H612S          30.3869271196       26.3303057490        0.0429896027  LPSA30    1               0.0000000000
     32371      1045  ECLIPA    H612T          29.5563861732       25.3931434623       -0.8939954071  LPSA30    1               0.0000000000
     32372      1045  ECLIPA    C54            31.1706433324       31.5172569281       11.1717542950  LPSA30    1               0.0000000000
     32373      1045  ECLIPA    H54R           32.2415668389       31.6006676683       10.8815351240  LPSA30    1               0.0000000000
     32374      1045  ECLIPA    H54S           30.9757177566       32.2500750530       11.9792597695  LPSA30    1               0.0000000000
     32375      1045  ECLIPA    C55            30.2853750541       31.8866989391        9.9678151118  LPSA30    1               0.0000000000
     32376      1045  ECLIPA    H55R           30.2716298251       32.9833936442        9.8343029219  LPSA30    1               0.0000000000
     32377      1045  ECLIPA    H55S           29.2330615240       31.6287389220       10.2035145802  LPSA30    1               0.0000000000
     32378      1045  ECLIPA    C56            30.8291064184       31.2311139669        8.6925013684  LPSA30    1               0.0000000000
     32379      1045  ECLIPA    H56R           30.8810478604       30.1406966651        8.8594980954  LPSA30    1               0.0000000000
     32380      1045  ECLIPA    H56S           31.8670367005       31.5732760004        8.5120565335  LPSA30    1               0.0000000000
     32381      1045  ECLIPA    C57            30.0280976090       31.3915991579        7.4049726704  LPSA30    1               0.0000000000
     32382      1045  ECLIPA    H57R           29.8221179818       32.4599801206        7.1812848673  LPSA30    1               0.0000000000
     32383      1045  ECLIPA    H57S           29.0428064852       30.8908197532        7.5449039112  LPSA30    1               0.0000000000
     32384      1045  ECLIPA    C58            30.7733470691       30.7003598371        6.2456446368  LPSA30    1               0.0000000000
     32385      1045  ECLIPA    H58R           31.8438999719       30.9830173575        6.2160695420  LPSA30    1               0.0000000000
     32386      1045  ECLIPA    H58S           30.7697059471       29.6080834359        6.4628848219  LPSA30    1               0.0000000000
     32387      1045  ECLIPA    C59            30.1429640293       31.0213558999        4.8833383318  LPSA30    1               0.0000000000
     32388      1045  ECLIPA    H59R           30.1144303745       32.1230238643        4.7183002391  LPSA30    1               0.0000000000
     32389      1045  ECLIPA    H59S           29.0919771886       30.6726785114        4.9643818971  LPSA30    1               0.0000000000
     32390      1045  ECLIPA    C510           30.9053661119       30.4478119419        3.6759510401  LPSA30    1               0.0000000000
     32391      1045  ECLIPA    H510R          31.2055628804       29.3970031035        3.8427878160  LPSA30    1               0.0000000000
     32392      1045  ECLIPA    H510S          31.8444310792       31.0364198115        3.5255194833  LPSA30    1               0.0000000000
     32393      1045  ECLIPA    C511           30.1268136207       30.4770956840        2.3583976271  LPSA30    1               0.0000000000
     32394      1045  ECLIPA    H511R          29.3898002959       29.6574831020        2.3071797931  LPSA30    1               0.0000000000
     32395      1045  ECLIPA    H511S          29.5942846148       31.4546284796        2.2681538076  LPSA30    1               0.0000000000
     32396      1045  ECLIPA    C512           31.0988249537       30.3017764119        1.1982692069  LPSA30    1               0.0000000000
     32397      1045  ECLIPA    H512R          30.9453757578       30.6131065461        0.1523169201  LPSA30    1               0.0000000000
     32398      1045  ECLIPA    H512S          31.7793484948       31.1279754109        1.4161409650  LPSA30    1               0.0000000000
     32399      1045  ECLIPA    C513           31.3700571324       28.8689694579        0.7705165022  LPSA30    1               0.0000000000
     32400      1045  ECLIPA    H513R          30.4452955496       28.2828646769        0.6546384601  LPSA30    1               0.0000000000
     32401      1045  ECLIPA    H513S          32.0598795242       28.4028442721        1.4954503960  LPSA30    1               0.0000000000
     32402      1045  ECLIPA    C514           31.9532231452       28.7317206274       -0.5993651013  LPSA30    1               0.0000000000
     32403      1045  ECLIPA    H514R          32.7818404632       29.2411899057       -0.6169979693  LPSA30    1               0.0000000000
     32404      1045  ECLIPA    H514S          32.6461494151       27.8717141046       -0.6488199026  LPSA30    1               0.0000000000
     32405      1045  ECLIPA    H514T          31.4504591388       29.0626324419       -1.5343382688  LPSA30    1               0.0000000000
     32406      1045  ECLIPA    C33            31.1953843091       25.7343719627       14.3195609395  LPSA30    1               0.0000000000
     32407      1045  ECLIPA    H33R           31.6225131376       25.2328851203       15.0140520832  LPSA30    1               0.0000000000
     32408      1045  ECLIPA    O33            31.1731388687       26.7270015835       15.2765705503  LPSA30    1               0.0000000000
     32409      1045  ECLIPA    HO33           31.4043096016       26.1969497415       16.0803835396  LPSA30    1               0.0000000000
     32410      1045  ECLIPA    C34            31.9888288592       26.3302290089       13.1271051163  LPSA30    1               0.0000000000
     32411      1045  ECLIPA    H34R           31.3640808041       27.0619485737       12.6334132868  LPSA30    1               0.0000000000
     32412      1045  ECLIPA    H34S           32.0825931130       25.4591528999       12.4182523448  LPSA30    1               0.0000000000
     32413      1045  ECLIPA    C35            33.4969288310       26.7772709177       13.3976642838  LPSA30    1               0.0000000000
     32414      1045  ECLIPA    H35R           34.3169674219       26.0741766515       13.6825418970  LPSA30    1               0.0000000000
     32415      1045  ECLIPA    H35S           33.5066022870       27.4086906602       14.2895360159  LPSA30    1               0.0000000000
     32416      1045  ECLIPA    C36            34.1847535546       27.3101443121       12.1613628082  LPSA30    1               0.0000000000
     32417      1045  ECLIPA    H36R           33.3145965162       27.6629506515       11.5984095078  LPSA30    1               0.0000000000
     32418      1045  ECLIPA    H36S           34.7034769660       26.5242217305       11.5547333054  LPSA30    1               0.0000000000
     32419      1045  ECLIPA    C37            35.1364830743       28.4400407954       12.5096586410  LPSA30    1               0.0000000000
     32420      1045  ECLIPA    H37R           36.1528542450       28.0099301743       12.6662180690  LPSA30    1               0.0000000000
     32421      1045  ECLIPA    H37S           34.8159534192       28.8717830029       13.4845338486  LPSA30    1               0.0000000000
     32422      1045  ECLIPA    C38            35.1646006351       29.5255512547       11.4253781571  LPSA30    1               0.0000000000
     32423      1045  ECLIPA    H38R           34.2311173899       30.1303804187       11.4282219498  LPSA30    1               0.0000000000
     32424      1045  ECLIPA    H38S           35.9982223532       30.2151444466       11.6772833165  LPSA30    1               0.0000000000
     32425      1045  ECLIPA    C39            35.3261376045       28.9236795633       10.0211532981  LPSA30    1               0.0000000000
     32426      1045  ECLIPA    H39R           34.5184146473       28.1816732578        9.8218106044  LPSA30    1               0.0000000000
     32427      1045  ECLIPA    H39S           36.3147995791       28.4114535087        9.9802966800  LPSA30    1               0.0000000000
     32428      1045  ECLIPA    C310           35.2977060912       29.9294990864        8.8708483718  LPSA30    1               0.0000000000
     32429      1045  ECLIPA    H310R          36.2391945628       30.5169233885        8.9637681159  LPSA30    1               0.0000000000
     32430      1045  ECLIPA    H310S          34.4331224307       30.6186759904        8.9561451659  LPSA30    1               0.0000000000
     32431      1045  ECLIPA    C311           35.1090089981       29.2221181225        7.5160998074  LPSA30    1               0.0000000000
     32432      1045  ECLIPA    H311R          35.6282217571       28.2382869446        7.5284863513  LPSA30    1               0.0000000000
     32433      1045  ECLIPA    H311S          34.0219504724       29.0207162721        7.3662164492  LPSA30    1               0.0000000000
     32434      1045  ECLIPA    C312           35.5510893996       30.0458240753        6.3033193890  LPSA30    1               0.0000000000
     32435      1045  ECLIPA    H312R          35.3407890183       31.1185087904        6.4946014954  LPSA30    1               0.0000000000
     32436      1045  ECLIPA    H312S          36.6487764979       29.9147488204        6.1811628661  LPSA30    1               0.0000000000
     32437      1045  ECLIPA    C313           34.8476122930       29.6047066938        5.0085635998  LPSA30    1               0.0000000000
     32438      1045  ECLIPA    H313R          35.2790748640       28.6147242150        4.7485303193  LPSA30    1               0.0000000000
     32439      1045  ECLIPA    H313S          33.7530014096       29.4683614290        5.1764716536  LPSA30    1               0.0000000000
     32440      1045  ECLIPA    C314           35.0459345844       30.5511177211        3.8241232345  LPSA30    1               0.0000000000
     32441      1045  ECLIPA    H314R          36.1278526105       30.6556665344        3.5983420887  LPSA30    1               0.0000000000
     32442      1045  ECLIPA    H314S          34.5284031099       30.1787518678        2.9150265517  LPSA30    1               0.0000000000
     32443      1045  ECLIPA    H314T          34.6256283365       31.5497155229        4.0543991426  LPSA30    1               0.0000000000
     32444      1045  ECLIPA    C11            27.0684496540       28.7661657758       11.1797331395  LPSA30    1               0.0000000000
     32445      1045  ECLIPA    O11            27.4017418774       29.9274926749       11.0944454149  LPSA30    1               0.0000000000
     32446      1045  ECLIPA    C12            26.0309460842       28.3283728614       10.2341231209  LPSA30    1               0.0000000000
     32447      1045  ECLIPA    H12R           25.2283407037       28.9608216998       10.6281482904  LPSA30    1               0.0000000000
     32448      1045  ECLIPA    H12S           25.6677813453       27.2645278175       10.2761508447  LPSA30    1               0.0000000000
     32449      1045  ECLIPA    C13            26.3182142362       28.4357839665        8.8625729484  LPSA30    1               0.0000000000
     32450      1045  ECLIPA    H13R           26.6178166645       29.4428808096        8.5530493541  LPSA30    1               0.0000000000
     32451      1045  ECLIPA    O13            25.1479410851       28.2972686020        8.2772417618  LPSA30    1               0.0000000000
     32452      1045  ECLIPA    HO13           24.9676610636       28.7762610745        7.4677914580  LPSA30    1               0.0000000000
     32453      1045  ECLIPA    C14            27.1145406312       27.3007279853        8.4954372175  LPSA30    1               0.0000000000
     32454      1045  ECLIPA    H14R           26.6568644714       26.3735385446        8.9445542852  LPSA30    1               0.0000000000
     32455      1045  ECLIPA    H14S           28.1024146934       27.4739386004        8.8721791857  LPSA30    1               0.0000000000
     32456      1045  ECLIPA    C15            27.0788718146       27.1528659574        7.0390694518  LPSA30    1               0.0000000000
     32457      1045  ECLIPA    H15R           26.0179301710       27.0653522347        6.7096305380  LPSA30    1               0.0000000000
     32458      1045  ECLIPA    H15S           27.6720650088       26.2343073686        6.8698016346  LPSA30    1               0.0000000000
     32459      1045  ECLIPA    C16            27.6841085417       28.1991140974        6.1634748734  LPSA30    1               0.0000000000
     32460      1045  ECLIPA    H16R           28.7671858700       28.0444977180        6.2706948550  LPSA30    1               0.0000000000
     32461      1045  ECLIPA    H16S           27.3571768527       29.1421962028        6.6292331891  LPSA30    1               0.0000000000
     32462      1045  ECLIPA    C17            27.2823204366       28.1435757530        4.6796274410  LPSA30    1               0.0000000000
     32463      1045  ECLIPA    H17R           27.4350734565       27.1738461040        4.1817279539  LPSA30    1               0.0000000000
     32464      1045  ECLIPA    H17S           27.9518142240       28.7472799165        4.0637561550  LPSA30    1               0.0000000000
     32465      1045  ECLIPA    C18            25.8371580831       28.5558757683        4.5018521446  LPSA30    1               0.0000000000
     32466      1045  ECLIPA    H18R           25.2376847799       27.8923480818        5.1425974171  LPSA30    1               0.0000000000
     32467      1045  ECLIPA    H18S           25.6889698942       29.6108662374        4.8118527608  LPSA30    1               0.0000000000
     32468      1045  ECLIPA    C19            25.3701060244       28.4301443679        3.0857604463  LPSA30    1               0.0000000000
     32469      1045  ECLIPA    H19R           24.2867554869       28.6511727871        2.9337879483  LPSA30    1               0.0000000000
     32470      1045  ECLIPA    H19S           25.4718978490       27.3858760187        2.7485292442  LPSA30    1               0.0000000000
     32471      1045  ECLIPA    C110           26.2432783213       29.3734876210        2.2861415853  LPSA30    1               0.0000000000
     32472      1045  ECLIPA    H110R          26.1168883263       30.4531503389        2.5580582415  LPSA30    1               0.0000000000
     32473      1045  ECLIPA    H110S          27.2882472712       29.0467601231        2.2328946020  LPSA30    1               0.0000000000
     32474      1045  ECLIPA    C111           25.7258167988       29.2669763848        0.9344590486  LPSA30    1               0.0000000000
     32475      1045  ECLIPA    H111R          25.2987561747       28.3246452597        0.6812988451  LPSA30    1               0.0000000000
     32476      1045  ECLIPA    H111S          24.7973973666       29.7783176031        1.2322905720  LPSA30    1               0.0000000000
     32477      1045  ECLIPA    C112           26.5518379448       29.7773989414       -0.2893507581  LPSA30    1               0.0000000000
     32478      1045  ECLIPA    H112R          26.4076716987       30.8583304139       -0.0216179713  LPSA30    1               0.0000000000
     32479      1045  ECLIPA    H112S          27.5123912664       29.3296483234       -0.0955573705  LPSA30    1               0.0000000000
     32480      1045  ECLIPA    C113           26.4202282389       29.4602185248       -1.8960099115  LPSA30    1               0.0000000000
     32481      1045  ECLIPA    H113R          26.6511553913       28.5357375038       -2.3029103815  LPSA30    1               0.0000000000
     32482      1045  ECLIPA    H113S          25.5419816182       29.1102250799       -2.3793975158  LPSA30    1               0.0000000000
     32483      1045  ECLIPA    C114           26.6675710199       30.3988760195       -2.9778283184  LPSA30    1               0.0000000000
     32484      1045  ECLIPA    H114R          26.5703184454       31.4205324949       -2.6784048516  LPSA30    1               0.0000000000
     32485      1045  ECLIPA    H114S          27.6676796264       30.4170559077       -3.2757120535  LPSA30    1               0.0000000000
     32486      1045  ECLIPA    H114T          25.9774151896       30.7436599572       -3.6370800766  LPSA30    1               0.0000000000
     32487      1046  AKDO      C1             32.4359694304       30.6513367402       22.4271009136  LPSA30    2               0.0000000000
     32488      1046  AKDO      O11            33.3297328581       31.5344106671       22.4356088012  LPSA30    2               0.0000000000
     32489      1046  AKDO      O12            32.5555851030       29.4420460231       22.0730057689  LPSA30    2               0.0000000000
     32490      1046  AKDO      C2             31.0204438949       31.1161209064       22.8722019068  LPSA30    2               0.0000000000
     32491      1046  AKDO      C6             29.8002318826       32.9505877437       23.8601400122  LPSA30    2               0.0000000000
     32492      1046  AKDO      H6             29.1494247918       32.8851684872       22.9500323749  LPSA30    2               0.0000000000
     32493      1046  AKDO      O6             31.0863736272       32.4454593389       23.4648868168  LPSA30    2               0.0000000000
     32494      1046  AKDO      C3             30.3965346524       30.1977863461       23.9202873867  LPSA30    2               0.0000000000
     32495      1046  AKDO      H31            31.0902668645       30.0824947248       24.7856813845  LPSA30    2               0.0000000000
     32496      1046  AKDO      H32            30.2526132227       29.1951889775       23.4555703775  LPSA30    2               0.0000000000
     32497      1046  AKDO      C4             29.0606903871       30.6928868220       24.3640917897  LPSA30    2               0.0000000000
     32498      1046  AKDO      H4             28.3854492258       30.7950903011       23.4844687649  LPSA30    2               0.0000000000
     32499      1046  AKDO      O4             28.5082682738       29.8309599634       25.3515131128  LPSA30    2               0.0000000000
     32500      1046  AKDO      C5             29.1670732619       32.0741705345       24.9593037008  LPSA30    2               0.0000000000
     32501      1046  AKDO      H5             28.1228241784       32.4531383564       25.0875413986  LPSA30    2               0.0000000000
     32502      1046  AKDO      O5             29.8481460162       31.9571942145       26.2491760363  LPSA30    2               0.0000000000
     32503      1046  AKDO      C7             29.8856552346       34.4413665487       24.1705410414  LPSA30    2               0.0000000000
     32504      1046  AKDO      H7             30.4998090908       34.5751556366       25.0814085580  LPSA30    2               0.0000000000
     32505      1046  AKDO      O7             28.5762087786       34.9776763164       24.3964362104  LPSA30    2               0.0000000000
     32506      1046  AKDO      HO7            28.2090178714       35.1434218133       23.5269459950  LPSA30    2               0.0000000000
     32507      1046  AKDO      C8             30.5408263302       35.2017442073       23.0272301432  LPSA30    2               0.0000000000
     32508      1046  AKDO      H81            31.5421164738       34.7287223167       22.8559434294  LPSA30    2               0.0000000000
     32509      1046  AKDO      H82            29.9459018221       35.0301754558       22.0970000179  LPSA30    2               0.0000000000
     32510      1046  AKDO      O8             30.7069091659       36.6270713077       23.2858786617  LPSA30    2               0.0000000000
     32511      1046  AKDO      HO8            31.5682440398       36.8093176530       22.8909923459  LPSA30    2               0.0000000000
     32512      1047  AKDO      C1             26.8617112143       28.8861042453       23.7757979624  LPSA30    3               1.0000000000
     32513      1047  AKDO      O11            27.3381846946       28.6030374962       22.6407761476  LPSA30    3               1.0000000000
     32514      1047  AKDO      O12            25.8407607757       29.6046368631       24.0225208507  LPSA30    3               1.0000000000
     32515      1047  AKDO      C2             27.8601911498       28.6333929644       24.9728619308  LPSA30    3               1.0000000000
     32516      1047  AKDO      C6             29.7337089197       27.3250317790       25.7624572203  LPSA30    3               1.0000000000
     32517      1047  AKDO      H6             30.3158673061       28.2560947752       25.9557963613  LPSA30    3               1.0000000000
     32518      1047  AKDO      O6             28.7695278904       27.5445467815       24.7063814117  LPSA30    3               1.0000000000
     32519      1047  AKDO      C3             27.2086549328       28.2761363710       26.3046659689  LPSA30    3               1.0000000000
     32520      1047  AKDO      H31            26.5317526993       27.3986430523       26.1521472723  LPSA30    3               1.0000000000
     32521      1047  AKDO      H32            26.6620796024       29.1883022666       26.5736049603  LPSA30    3               1.0000000000
     32522      1047  AKDO      C4             28.2231643019       28.0765523829       27.3981767503  LPSA30    3               1.0000000000
     32523      1047  AKDO      H4             28.8240208695       29.0003404867       27.4284627745  LPSA30    3               1.0000000000
     32524      1047  AKDO      O4             27.8258658498       27.9161134843       28.7327034885  LPSA30    3               1.0000000000
     32525      1047  AKDO      HO4            27.9518370186       28.6642093800       29.3238863938  LPSA30    3               1.0000000000
     32526      1047  AKDO      C5             29.0635436056       26.9354024906       27.0352574354  LPSA30    3               1.0000000000
     32527      1047  AKDO      H5             29.7589368659       26.7501881600       27.8783213829  LPSA30    3               1.0000000000
     32528      1047  AKDO      O5             28.3389721521       25.7417142696       26.8377200931  LPSA30    3               1.0000000000
     32529      1047  AKDO      HO5            27.6463722694       26.0276941061       26.2215913852  LPSA30    3               1.0000000000
     32530      1047  AKDO      C7             30.6674686256       26.2472484990       25.3359255307  LPSA30    3               1.0000000000
     32531      1047  AKDO      H7             30.0776528378       25.3187514210       25.1193706328  LPSA30    3               1.0000000000
     32532      1047  AKDO      O7             31.5928800280       25.9855011881       26.3989499348  LPSA30    3               1.0000000000
     32533      1047  AKDO      HO7            32.0668476596       25.2048354622       26.1034793505  LPSA30    3               1.0000000000
     32534      1047  AKDO      C8             31.3796171756       26.7285928460       24.0999667520  LPSA30    3               1.0000000000
     32535      1047  AKDO      H81            30.6328622090       27.0016113336       23.3212888838  LPSA30    3               1.0000000000
     32536      1047  AKDO      H82            31.9956347484       27.6236807087       24.3209264033  LPSA30    3               1.0000000000
     32537      1047  AKDO      O8             32.2095841596       25.7123825654       23.5550905653  LPSA30    3               1.0000000000
     32538      1047  AKDO      HO8            31.5584473372       25.0479162898       23.2509123456  LPSA30    3               1.0000000000
     32539      1048  AHEP      C1             29.4810603187       32.8932055949       27.2513587812  LPSA30    4               2.0000000000
     32540      1048  AHEP      H1             29.9639474134       33.8334679483       26.9122594642  LPSA30    4               2.0000000000
     32541      1048  AHEP      C5             27.2921266630       32.1876457035       27.9959170733  LPSA30    4               2.0000000000
     32542      1048  AHEP      H5             27.5266364292       31.2113007088       27.5120657876  LPSA30    4               2.0000000000
     32543      1048  AHEP      O5             28.0811871256       33.1947439963       27.3203718601  LPSA30    4               2.0000000000
     32544      1048  AHEP      C2             29.9759624692       32.7364915758       28.7081084324  LPSA30    4               2.0000000000
     32545      1048  AHEP      H2             31.0464008987       32.4473742575       28.6796254792  LPSA30    4               2.0000000000
     32546      1048  AHEP      O2             29.9264521508       33.9944341922       29.3773028242  LPSA30    4               2.0000000000
     32547      1048  AHEP      HO2            30.7281243618       34.1357616240       29.8752467712  LPSA30    4               2.0000000000
     32548      1048  AHEP      C3             29.2167196119       31.6820585886       29.4950349592  LPSA30    4               2.0000000000
     32549      1048  AHEP      H3             29.3851184428       30.6600724995       29.0937027004  LPSA30    4               2.0000000000
     32550      1048  AHEP      O3             29.6216041066       31.7235946692       30.8798179755  LPSA30    4               2.0000000000
     32551      1048  AHEP      C4             27.7457801240       32.0576417615       29.4560644041  LPSA30    4               2.0000000000
     32552      1048  AHEP      H4             27.5488095246       33.0292345169       29.9696946533  LPSA30    4               2.0000000000
     32553      1048  AHEP      O4             27.0261898353       30.9778174814       30.0530638540  LPSA30    4               2.0000000000
     32554      1048  AHEP      P4             26.2049717348       31.1809168408       31.4917437993  LPSA30    4               2.0000000000
     32555      1048  AHEP      OP42           26.2862796186       29.8132734951       32.1436128703  LPSA30    4               2.0000000000
     32556      1048  AHEP      OP43           24.7569187470       31.5470890303       31.1247915665  LPSA30    4               2.0000000000
     32557      1048  AHEP      OP44           26.8804662600       32.2612012566       32.3187062792  LPSA30    4               2.0000000000
     32558      1048  AHEP      C6             25.7837217201       32.5036568187       27.7920816100  LPSA30    4               2.0000000000
     32559      1048  AHEP      H6             25.2446369497       31.5661229164       28.0834155455  LPSA30    4               2.0000000000
     32560      1048  AHEP      O6             25.2612993980       33.5592389797       28.6236911799  LPSA30    4               2.0000000000
     32561      1048  AHEP      HO6            24.6564332861       33.1985882276       29.2925050844  LPSA30    4               2.0000000000
     32562      1048  AHEP      C7             25.3949048613       32.8551724621       26.3385251845  LPSA30    4               2.0000000000
     32563      1048  AHEP      H71            24.2916257043       32.8040244763       26.2083929026  LPSA30    4               2.0000000000
     32564      1048  AHEP      H72            25.8763220759       32.1197432932       25.6563955166  LPSA30    4               2.0000000000
     32565      1048  AHEP      O7             25.7660608687       34.1690030014       25.8836112593  LPSA30    4               2.0000000000
     32566      1048  AHEP      HO7            25.2076082091       34.7651248712       26.4065304967  LPSA30    4               2.0000000000
     32567      1049  AHEP      C1             30.1645520624       30.5643319204       31.4598429765  LPSA30    5               3.0000000000
     32568      1049  AHEP      H1             29.7381070371       29.6475333617       30.9825112714  LPSA30    5               3.0000000000
     32569      1049  AHEP      C5             32.2297153046       31.6737477873       31.9581902414  LPSA30    5               3.0000000000
     32570      1049  AHEP      H5             31.7341005782       32.6023484164       31.5959171589  LPSA30    5               3.0000000000
     32571      1049  AHEP      O5             31.5911595824       30.5666493017       31.2787561885  LPSA30    5               3.0000000000
     32572      1049  AHEP      C2             29.8587280884       30.4886715621       32.9640888144  LPSA30    5               3.0000000000
     32573      1049  AHEP      H2             28.7512490793       30.5677282404       33.0863589779  LPSA30    5               3.0000000000
     32574      1049  AHEP      O2             30.2708824714       29.2172296579       33.4806174503  LPSA30    5               3.0000000000
     32575      1049  AHEP      HO2            29.5103906388       28.6512033067       33.6312896757  LPSA30    5               3.0000000000
     32576      1049  AHEP      C3             30.4973393215       31.6430174033       33.7329394678  LPSA30    5               3.0000000000
     32577      1049  AHEP      H3             30.0555937047       32.5678455030       33.3198931094  LPSA30    5               3.0000000000
     32578      1049  AHEP      O3             30.2878536460       31.6250589611       35.1662948077  LPSA30    5               3.0000000000
     32579      1049  AHEP      C4             31.9902654157       31.6001932905       33.4649023404  LPSA30    5               3.0000000000
     32580      1049  AHEP      H4             32.4201474824       30.6413650152       33.8418161903  LPSA30    5               3.0000000000
     32581      1049  AHEP      O4             32.6116926581       32.7548622257       34.0469217572  LPSA30    5               3.0000000000
     32582      1049  AHEP      P4             33.7203851548       32.5829538571       35.2767403194  LPSA30    5               3.0000000000
     32583      1049  AHEP      OP42           34.0091402615       33.9668550414       35.8546979439  LPSA30    5               3.0000000000
     32584      1049  AHEP      OP43           35.0085267594       32.0344864069       34.6786386740  LPSA30    5               3.0000000000
     32585      1049  AHEP      OP44           33.0953557518       31.6796044013       36.3200052503  LPSA30    5               3.0000000000
     32586      1049  AHEP      C6             33.7099389161       31.7619124989       31.5619857659  LPSA30    5               3.0000000000
     32587      1049  AHEP      H6             34.1306917865       32.6825969513       32.0424855385  LPSA30    5               3.0000000000
     32588      1049  AHEP      O6             34.4632050171       30.6032295887       31.9981085878  LPSA30    5               3.0000000000
     32589      1049  AHEP      HO6            34.2654104377       29.8272339804       31.4892574827  LPSA30    5               3.0000000000
     32590      1049  AHEP      C7             33.8541331075       31.9632857833       30.0668137802  LPSA30    5               3.0000000000
     32591      1049  AHEP      H71            34.6901295154       32.6632212077       29.8935062108  LPSA30    5               3.0000000000
     32592      1049  AHEP      H72            32.9819355289       32.4758491566       29.6159640108  LPSA30    5               3.0000000000
     32593      1049  AHEP      O7             34.2152257566       30.7507433810       29.4084899235  LPSA30    5               3.0000000000
     32594      1050  AHEP      C1             33.1216965781       30.1460983405       28.7809830028  LPSA30    6               4.0000000000
     32595      1050  AHEP      H1             32.1595031433       30.6426840707       29.0263623631  LPSA30    6               4.0000000000
     32596      1050  AHEP      C5             34.5245110969       29.5791915709       26.9508082354  LPSA30    6               4.0000000000
     32597      1050  AHEP      H5             35.3693753327       30.0444043045       27.5109009954  LPSA30    6               4.0000000000
     32598      1050  AHEP      O5             33.2973095003       30.2150220798       27.3679617931  LPSA30    6               4.0000000000
     32599      1050  AHEP      C2             33.0271297813       28.7255497581       29.2365104641  LPSA30    6               4.0000000000
     32600      1050  AHEP      H2             32.9081186553       28.7036148686       30.3451730592  LPSA30    6               4.0000000000
     32601      1050  AHEP      O2             31.8322842433       28.1257523137       28.7406396540  LPSA30    6               4.0000000000
     32602      1050  AHEP      HO2            31.2625827941       27.8853155110       29.4838279594  LPSA30    6               4.0000000000
     32603      1050  AHEP      C3             34.2959364325       28.0086788818       28.8444306918  LPSA30    6               4.0000000000
     32604      1050  AHEP      H3             35.1646994676       28.4448599757       29.3845379506  LPSA30    6               4.0000000000
     32605      1050  AHEP      O3             34.1673767117       26.6813752394       29.2720800368  LPSA30    6               4.0000000000
     32606      1050  AHEP      HO3            34.7205862921       26.3859113433       30.0097386312  LPSA30    6               4.0000000000
     32607      1050  AHEP      C4             34.5041709263       28.1073609073       27.3293966343  LPSA30    6               4.0000000000
     32608      1050  AHEP      H4             33.6669907281       27.5842449909       26.8068757108  LPSA30    6               4.0000000000
     32609      1050  AHEP      O4             35.7229445828       27.5174200178       26.8703818176  LPSA30    6               4.0000000000
     32610      1050  AHEP      HO4            36.4578129092       28.0609924951       27.1625033427  LPSA30    6               4.0000000000
     32611      1050  AHEP      C6             34.8532840281       29.8310961364       25.4876396796  LPSA30    6               4.0000000000
     32612      1050  AHEP      H6             35.8888903628       29.4517373264       25.3160017476  LPSA30    6               4.0000000000
     32613      1050  AHEP      O6             34.0068733356       29.1013837445       24.6105152455  LPSA30    6               4.0000000000
     32614      1050  AHEP      HO6            33.5997445258       29.7381728360       23.9893046029  LPSA30    6               4.0000000000
     32615      1050  AHEP      C7             34.9245450139       31.2941930806       25.1446297253  LPSA30    6               4.0000000000
     32616      1050  AHEP      H71            35.3870195608       31.4386477888       24.1375686118  LPSA30    6               4.0000000000
     32617      1050  AHEP      H72            35.5376144109       31.7428450039       25.9108779656  LPSA30    6               4.0000000000
     32618      1050  AHEP      O7             33.7150255123       32.0211846543       25.2472810445  LPSA30    6               4.0000000000
     32619      1050  AHEP      HO7            33.5361538224       32.1988290737       26.1834043233  LPSA30    6               4.0000000000
     32620      1051  AGLC      C1             29.1877827633       32.3533312756       35.6538698048  LPSA30    7               4.0000000000
     32621      1051  AGLC      H1             29.1064500387       33.3471482492       35.1570058098  LPSA30    7               4.0000000000
     32622      1051  AGLC      C5             27.9665734914       30.3413105889       36.0940157774  LPSA30    7               4.0000000000
     32623      1051  AGLC      H5             28.8737435125       29.7548158293       35.8167264939  LPSA30    7               4.0000000000
     32624      1051  AGLC      O5             27.9926472077       31.6131796407       35.4309226357  LPSA30    7               4.0000000000
     32625      1051  AGLC      C2             29.2049272958       32.5939735049       37.1705719231  LPSA30    7               4.0000000000
     32626      1051  AGLC      H2             28.2170542928       33.0355992428       37.4281925550  LPSA30    7               4.0000000000
     32627      1051  AGLC      O2             30.1411520586       33.5684169103       37.5988635572  LPSA30    7               4.0000000000
     32628      1051  AGLC      HO2            31.0365999469       33.1719624717       37.5651719707  LPSA30    7               4.0000000000
     32629      1051  AGLC      C3             29.2837864247       31.3205354464       37.9731017776  LPSA30    7               4.0000000000
     32630      1051  AGLC      H3             30.1720281800       30.7525130448       37.6125445587  LPSA30    7               4.0000000000
     32631      1051  AGLC      O3             29.4188000522       31.5876374918       39.4038457743  LPSA30    7               4.0000000000
     32632      1051  AGLC      C4             28.0211257849       30.5448442785       37.6063685175  LPSA30    7               4.0000000000
     32633      1051  AGLC      H4             27.1245284755       31.1409596686       37.9270723422  LPSA30    7               4.0000000000
     32634      1051  AGLC      O4             28.0147596195       29.2548072224       38.2213469850  LPSA30    7               4.0000000000
     32635      1051  AGLC      HO4            27.1957176050       29.1458722252       38.7131320231  LPSA30    7               4.0000000000
     32636      1051  AGLC      C6             26.7862959503       29.5721807411       35.5037879726  LPSA30    7               4.0000000000
     32637      1051  AGLC      H61            26.9614785374       29.4912460469       34.4024938638  LPSA30    7               4.0000000000
     32638      1051  AGLC      H62            26.7441993240       28.5287288541       35.8797028141  LPSA30    7               4.0000000000
     32639      1051  AGLC      O6             25.5120277796       30.1946030702       35.7266149730  LPSA30    7               4.0000000000
     32640      1051  AGLC      HO6            25.1642759330       29.8904263212       36.5552938705  LPSA30    7               4.0000000000
     32641      1052  AGLC      C1             30.6116650215       31.0565229283       39.9460413600  LPSA30    8               5.0000000000
     32642      1052  AGLC      H1             30.6907112662       30.0464411050       39.5573705927  LPSA30    8               5.0000000000
     32643      1052  AGLC      C5             31.8878144803       33.1071490373       40.2130365412  LPSA30    8               5.0000000000
     32644      1052  AGLC      H5             30.9969887811       33.6718052672       39.8847990098  LPSA30    8               5.0000000000
     32645      1052  AGLC      O5             31.8013620127       31.7969967053       39.5966173137  LPSA30    8               5.0000000000
     32646      1052  AGLC      C2             30.6096004885       30.8586392769       41.4470850514  LPSA30    8               5.0000000000
     32647      1052  AGLC      H2             31.5595585355       30.3354123469       41.7005336466  LPSA30    8               5.0000000000
     32648      1052  AGLC      O2             29.5356179703       30.0434115133       41.9418481611  LPSA30    8               5.0000000000
     32649      1052  AGLC      C3             30.5929315285       32.1869564669       42.1318492187  LPSA30    8               5.0000000000
     32650      1052  AGLC      H3             29.6974946629       32.7267089664       41.7239500632  LPSA30    8               5.0000000000
     32651      1052  AGLC      O3             30.3836085957       31.9390238048       43.5376277095  LPSA30    8               5.0000000000
     32652      1052  AGLC      C4             31.8500630015       32.9312978295       41.7360316479  LPSA30    8               5.0000000000
     32653      1052  AGLC      H4             32.7310087529       32.3151835744       42.0413028958  LPSA30    8               5.0000000000
     32654      1052  AGLC      O4             31.9217699894       34.1938627568       42.3979383012  LPSA30    8               5.0000000000
     32655      1052  AGLC      HO4            31.0545348881       34.6038353793       42.3578952580  LPSA30    8               5.0000000000
     32656      1052  AGLC      C6             33.0656148119       33.9587366926       39.7335795758  LPSA30    8               5.0000000000
     32657      1052  AGLC      H61            33.1942990061       33.9520518839       38.6269170627  LPSA30    8               5.0000000000
     32658      1052  AGLC      H62            32.9198755174       35.0263966702       40.0268922370  LPSA30    8               5.0000000000
     32659      1052  AGLC      O6             34.2543315032       33.5195993907       40.3556007287  LPSA30    8               5.0000000000
     32660      1052  AGLC      HO6            34.3302058551       34.0078878918       41.1854952675  LPSA30    8               5.0000000000
     32661      1053  AGAL      C1             29.3874809935       28.7462762781       41.4325827716  LPSA30    9               6.0000000000
     32662      1053  AGAL      H1             29.4123013550       28.7469626965       40.3270321277  LPSA30    9               6.0000000000
     32663      1053  AGAL      C5             30.3904371061       27.6708408392       43.2947311343  LPSA30    9               6.0000000000
     32664      1053  AGAL      H5             30.3651485557       28.6752058796       43.7582080438  LPSA30    9               6.0000000000
     32665      1053  AGAL      O5             30.4317904846       27.8633333107       41.8619178818  LPSA30    9               6.0000000000
     32666      1053  AGAL      C2             28.0170239508       28.2313062222       41.8431803124  LPSA30    9               6.0000000000
     32667      1053  AGAL      H2             27.9234181555       27.2258792993       41.3783158573  LPSA30    9               6.0000000000
     32668      1053  AGAL      O2             27.0345228449       29.0800996300       41.1913189971  LPSA30    9               6.0000000000
     32669      1053  AGAL      C3             27.9515649133       28.0189651479       43.3447509705  LPSA30    9               6.0000000000
     32670      1053  AGAL      H3             28.1233342250       28.9748590588       43.8902148781  LPSA30    9               6.0000000000
     32671      1053  AGAL      O3             26.6587471835       27.5964847573       43.7547807539  LPSA30    9               6.0000000000
     32672      1053  AGAL      HO3            26.0354472396       28.1015874763       43.2157736545  LPSA30    9               6.0000000000
     32673      1053  AGAL      C4             29.0753651309       27.0329960635       43.7058472514  LPSA30    9               6.0000000000
     32674      1053  AGAL      H4             29.0801859248       26.8366438112       44.8001992373  LPSA30    9               6.0000000000
     32675      1053  AGAL      O4             28.9666358072       25.7854471906       43.0398718300  LPSA30    9               6.0000000000
     32676      1053  AGAL      HO4            29.2468516896       25.0937341388       43.6532559867  LPSA30    9               6.0000000000
     32677      1053  AGAL      C6             31.6382939331       27.0544109634       43.8870711145  LPSA30    9               6.0000000000
     32678      1053  AGAL      H61            32.5566551265       27.6151054496       43.6314452656  LPSA30    9               6.0000000000
     32679      1053  AGAL      H62            31.5654920733       26.9520951599       44.9866444672  LPSA30    9               6.0000000000
     32680      1053  AGAL      O6             31.8384917118       25.7613683345       43.4458116174  LPSA30    9               6.0000000000
     32681      1053  AGAL      HO6            32.3914571303       25.7836649191       42.6706975435  LPSA30    9               6.0000000000
     32682      1054  AGAL      C1             25.8032050899       29.5299675642       41.7451988612  LPSA30    10              7.0000000000
     32683      1054  AGAL      H1             25.1107436386       28.6640220660       41.8386281986  LPSA30    10              7.0000000000
     32684      1054  AGAL      C5             26.6461328367       31.3982040404       43.0455524918  LPSA30    10              7.0000000000
     32685      1054  AGAL      H5             27.6427107605       31.1138035381       42.6453703912  LPSA30    10              7.0000000000
     32686      1054  AGAL      O5             25.8802521510       30.1684116596       43.0476048682  LPSA30    10              7.0000000000
     32687      1054  AGAL      C2             25.2001006285       30.5024624626       40.7483953115  LPSA30    10              7.0000000000
     32688      1054  AGAL      H2             24.1852504758       30.7699016200       41.1204119245  LPSA30    10              7.0000000000
     32689      1054  AGAL      O2             24.9370084743       29.8937739657       39.4802932808  LPSA30    10              7.0000000000
     32690      1054  AGAL      HO2            24.0161059233       30.1522474607       39.3318756880  LPSA30    10              7.0000000000
     32691      1054  AGAL      C3             26.0485926017       31.7768148030       40.6923339657  LPSA30    10              7.0000000000
     32692      1054  AGAL      H3             27.0909681418       31.4677567379       40.4456057962  LPSA30    10              7.0000000000
     32693      1054  AGAL      O3             25.6325573651       32.7153374092       39.6969216307  LPSA30    10              7.0000000000
     32694      1054  AGAL      HO3            26.2805154708       32.7748502660       38.9949750746  LPSA30    10              7.0000000000
     32695      1054  AGAL      C4             26.0655357708       32.4063713936       42.0703486293  LPSA30    10              7.0000000000
     32696      1054  AGAL      H4             26.7226627758       33.3074396807       42.0781026604  LPSA30    10              7.0000000000
     32697      1054  AGAL      O4             24.7659820739       32.8174670638       42.4637830011  LPSA30    10              7.0000000000
     32698      1054  AGAL      HO4            24.2493155586       32.0288990273       42.6405390460  LPSA30    10              7.0000000000
     32699      1054  AGAL      C6             26.9752769873       31.9941142243       44.4256863487  LPSA30    10              7.0000000000
     32700      1054  AGAL      H61            27.3455669480       31.1999531956       45.0999739137  LPSA30    10              7.0000000000
     32701      1054  AGAL      H62            27.8012121890       32.7313762371       44.2749026893  LPSA30    10              7.0000000000
     32702      1054  AGAL      O6             25.9201100577       32.6785205797       45.1040440562  LPSA30    10              7.0000000000
     32703      1054  AGAL      HO6            25.6576343136       32.2174706970       45.9054119140  LPSA30    10              7.0000000000
     32704      1055  BGLC      C1             31.4505097164       31.8815439416       44.4786196751  LPSA30    11              6.0000000000
     32705      1055  BGLC      H1             31.8138252822       32.9057545947       44.6196694921  LPSA30    11              6.0000000000
     32706      1055  BGLC      C5             33.5192713110       30.7249816256       45.1119634150  LPSA30    11              6.0000000000
     32707      1055  BGLC      H5             34.0767406638       31.5824980845       45.4980843390  LPSA30    11              6.0000000000
     32708      1055  BGLC      O5             32.4690517471       30.9244090199       44.1129971235  LPSA30    11              6.0000000000
     32709      1055  BGLC      C2             30.8189942477       31.4287554195       45.7882807387  LPSA30    11              6.0000000000
     32710      1055  BGLC      H2             30.3348352076       30.4351840530       45.6454965943  LPSA30    11              6.0000000000
     32711      1055  BGLC      O2             29.7993029562       32.3446986488       46.1748887685  LPSA30    11              6.0000000000
     32712      1055  BGLC      HO2            28.9893193808       31.8462624541       46.2941007699  LPSA30    11              6.0000000000
     32713      1055  BGLC      C3             31.8250892203       31.2561986147       46.9032647699  LPSA30    11              6.0000000000
     32714      1055  BGLC      H3             32.2874725362       32.2404190986       47.1607812645  LPSA30    11              6.0000000000
     32715      1055  BGLC      O3             31.1636518885       30.6659911132       48.0512035152  LPSA30    11              6.0000000000
     32716      1055  BGLC      C4             32.8625226000       30.2517254016       46.4204833748  LPSA30    11              6.0000000000
     32717      1055  BGLC      H4             32.3425057923       29.3024752561       46.1893658525  LPSA30    11              6.0000000000
     32718      1055  BGLC      O4             33.7995838123       29.9988422686       47.4633857882  LPSA30    11              6.0000000000
     32719      1055  BGLC      HO4            33.3430485499       29.4832906421       48.1433706844  LPSA30    11              6.0000000000
     32720      1055  BGLC      C6             34.6150227054       29.9039220934       44.4248829834  LPSA30    11              6.0000000000
     32721      1055  BGLC      H61            35.2797320160       29.5206646867       45.1741512826  LPSA30    11              6.0000000000
     32722      1055  BGLC      H62            34.1796889189       29.0576274724       43.8706284238  LPSA30    11              6.0000000000
     32723      1055  BGLC      O6             35.5311445365       30.6176742366       43.5814139344  LPSA30    11              6.0000000000
     32724      1055  BGLC      HO6            36.3928070155       30.6069835564       44.0135844556  LPSA30    11              6.0000000000
     32725      1056  BGLCNA    C1             31.2652490783       31.2950621167       49.3160225065  LPSA30    12              7.0000000000
     32726      1056  BGLCNA    H1             30.5097891044       32.1082481901       49.3746792954  LPSA30    12              7.0000000000
     32727      1056  BGLCNA    C5             32.6215213324       32.4536538986       50.8774738909  LPSA30    12              7.0000000000
     32728      1056  BGLCNA    H5             31.8441641163       33.2307543278       50.9230907244  LPSA30    12              7.0000000000
     32729      1056  BGLCNA    O5             32.5507171156       31.8279790092       49.5823660604  LPSA30    12              7.0000000000
     32730      1056  BGLCNA    C2             30.9774013635       30.2228308487       50.3563660342  LPSA30    12              7.0000000000
     32731      1056  BGLCNA    H2             31.8421878074       29.5050256775       50.3058615543  LPSA30    12              7.0000000000
     32732      1056  BGLCNA    N              29.7235996036       29.5879322856       50.0503772448  LPSA30    12              7.0000000000
     32733      1056  BGLCNA    HN             28.9498874164       30.1965853945       49.9505718407  LPSA30    12              7.0000000000
     32734      1056  BGLCNA    C              29.6116018373       28.2622245115       49.9123436816  LPSA30    12              7.0000000000
     32735      1056  BGLCNA    O              30.5551445172       27.5040507026       50.0847892247  LPSA30    12              7.0000000000
     32736      1056  BGLCNA    CT             28.2483267223       27.7260417771       49.5502564956  LPSA30    12              7.0000000000
     32737      1056  BGLCNA    HT1            27.8248930637       27.1672751970       50.4098030185  LPSA30    12              7.0000000000
     32738      1056  BGLCNA    HT2            28.3152336396       27.0095374669       48.7159240592  LPSA30    12              7.0000000000
     32739      1056  BGLCNA    HT3            27.5803944095       28.5559179603       49.2440461975  LPSA30    12              7.0000000000
     32740      1056  BGLCNA    C3             30.9614779540       30.7932206437       51.7628887928  LPSA30    12              7.0000000000
     32741      1056  BGLCNA    H3             30.1653425062       31.5650387052       51.8090184183  LPSA30    12              7.0000000000
     32742      1056  BGLCNA    O3             30.6408513798       29.7831783440       52.7647583494  LPSA30    12              7.0000000000
     32743      1056  BGLCNA    C4             32.3317496086       31.4183967281       51.9618936376  LPSA30    12              7.0000000000
     32744      1056  BGLCNA    H4             33.1072406701       30.6317823906       51.8744856973  LPSA30    12              7.0000000000
     32745      1056  BGLCNA    O4             32.4410366700       31.9993050181       53.2511116403  LPSA30    12              7.0000000000
     32746      1056  BGLCNA    HO4            31.9145231816       32.8022257610       53.2846396423  LPSA30    12              7.0000000000
     32747      1056  BGLCNA    C6             33.9819317982       33.1163706825       50.9468663731  LPSA30    12              7.0000000000
     32748      1056  BGLCNA    H61            34.1434663926       33.6448271280       51.9178872958  LPSA30    12              7.0000000000
     32749      1056  BGLCNA    H62            34.7636576599       32.3322040447       50.8473515663  LPSA30    12              7.0000000000
     32750      1056  BGLCNA    O6             34.1452604779       34.0288815256       49.8582825272  LPSA30    12              7.0000000000
     32751      1056  BGLCNA    HO6            33.8800792956       34.9029533443       50.1377530961  LPSA30    12              7.0000000000
     32752      1057  AGAL      C1             29.8025184557       30.2180330326       53.8369665205  LPSA30    13              8.0000000000
     32753      1057  AGAL      H1             30.1176890354       31.2416475274       54.1533303367  LPSA30    13              8.0000000000
     32754      1057  AGAL      C5             27.9216519187       28.8319584886       53.2683216014  LPSA30    13              8.0000000000
     32755      1057  AGAL      H5             28.6385772167       28.3783141361       52.5438791531  LPSA30    13              8.0000000000
     32756      1057  AGAL      O5             28.3974193863       30.1899775027       53.4653994330  LPSA30    13              8.0000000000
     32757      1057  AGAL      C2             29.9024944535       29.3654212171       55.1089685254  LPSA30    13              8.0000000000
     32758      1057  AGAL      H2             29.1285021510       29.7833465537       55.7978969411  LPSA30    13              8.0000000000
     32759      1057  AGAL      O2             31.1782926822       29.5233963973       55.7551615347  LPSA30    13              8.0000000000
     32760      1057  AGAL      C3             29.4584606687       27.9301854207       54.8976714014  LPSA30    13              8.0000000000
     32761      1057  AGAL      H3             30.0155132389       27.5096274634       54.0253731070  LPSA30    13              8.0000000000
     32762      1057  AGAL      O3             29.7271035907       27.0841340856       56.0108867566  LPSA30    13              8.0000000000
     32763      1057  AGAL      HO3            30.0449452710       26.2349621427       55.6912737684  LPSA30    13              8.0000000000
     32764      1057  AGAL      C4             27.9977966830       27.9591246098       54.5178852022  LPSA30    13              8.0000000000
     32765      1057  AGAL      H4             27.6947818516       26.9229512877       54.2472857277  LPSA30    13              8.0000000000
     32766      1057  AGAL      O4             27.1141143446       28.3872129798       55.5602029891  LPSA30    13              8.0000000000
     32767      1057  AGAL      HO4            27.4651641772       29.1622334388       56.0148752673  LPSA30    13              8.0000000000
     32768      1057  AGAL      C6             26.5919987718       28.7085799248       52.5436726866  LPSA30    13              8.0000000000
     32769      1057  AGAL      H61            26.6435949439       29.2940467569       51.6026145525  LPSA30    13              8.0000000000
     32770      1057  AGAL      H62            26.4434594760       27.6360023307       52.2924473238  LPSA30    13              8.0000000000
     32771      1057  AGAL      O6             25.4418589747       29.1124225646       53.2799920221  LPSA30    13              8.0000000000
     32772      1057  AGAL      HO6            25.2836275962       28.4725710629       53.9937170514  LPSA30    13              8.0000000000
     32773      1058  ARHM      C1             31.1778664709       30.2178936266       56.9891420919  LPSA30    14              9.0000000000
     32774      1058  ARHM      H1             30.3287095632       30.9337764493       57.0263497891  LPSA30    14              9.0000000000
     32775      1058  ARHM      C5             33.5493929998       30.1289103856       57.1739212078  LPSA30    14              9.0000000000
     32776      1058  ARHM      H5             33.5611737115       29.5819930421       56.2007284225  LPSA30    14              9.0000000000
     32777      1058  ARHM      O5             32.3830753807       30.9650407358       57.1910974166  LPSA30    14              9.0000000000
     32778      1058  ARHM      C2             31.0341099809       29.2074060781       58.0823257480  LPSA30    14              9.0000000000
     32779      1058  ARHM      H2             30.1139228324       28.5997801946       57.9101244724  LPSA30    14              9.0000000000
     32780      1058  ARHM      O2             31.0250286302       29.6930014850       59.4412153011  LPSA30    14              9.0000000000
     32781      1058  ARHM      C3             32.2253722135       28.3302920962       58.0402158014  LPSA30    14              9.0000000000
     32782      1058  ARHM      H3             32.3555083591       27.8675168309       57.0299855481  LPSA30    14              9.0000000000
     32783      1058  ARHM      O3             31.9320175089       27.2966507139       58.9284845300  LPSA30    14              9.0000000000
     32784      1058  ARHM      HO3            32.2015202919       27.4948436589       59.8228110088  LPSA30    14              9.0000000000
     32785      1058  ARHM      C4             33.4886586922       29.1210862885       58.3213911751  LPSA30    14              9.0000000000
     32786      1058  ARHM      H4             33.4003414472       29.6852965675       59.2802034850  LPSA30    14              9.0000000000
     32787      1058  ARHM      O4             34.6761102395       28.3196643654       58.4113410935  LPSA30    14              9.0000000000
     32788      1058  ARHM      HO4            35.0020870725       28.2280595685       59.3116181387  LPSA30    14              9.0000000000
     32789      1058  ARHM      C6             34.7679196849       31.0510646516       57.2651902374  LPSA30    14              9.0000000000
     32790      1058  ARHM      H61            34.6702726820       31.9228864396       56.5836515595  LPSA30    14              9.0000000000
     32791      1058  ARHM      H62            34.8684904336       31.3793396069       58.3134029254  LPSA30    14              9.0000000000
     32792      1058  ARHM      H63            35.6900656718       30.5154409514       56.9723942973  LPSA30    14              9.0000000000
     32793      1059  ARHM      C1             30.0800182992       30.6708822309       59.7413593818  LPSA30    15             10.0000000000
     32794      1059  ARHM      H1             29.2260464452       30.5964952881       59.0352545292  LPSA30    15             10.0000000000
     32795      1059  ARHM      C5             31.6691578312       32.2669468455       60.6256405849  LPSA30    15             10.0000000000
     32796      1059  ARHM      H5             32.5913227928       31.6557010044       60.4456827263  LPSA30    15             10.0000000000
     32797      1059  ARHM      O5             30.6305950382       32.0006739586       59.6659918912  LPSA30    15             10.0000000000
     32798      1059  ARHM      C2             29.5521791866       30.4218441612       61.1382708740  LPSA30    15             10.0000000000
     32799      1059  ARHM      H2             29.2034038714       29.3626601280       61.2089242934  LPSA30    15             10.0000000000
     32800      1059  ARHM      O2             28.4282591939       31.3146919034       61.2992212359  LPSA30    15             10.0000000000
     32801      1059  ARHM      C3             30.6676480238       30.6172377419       62.1294254810  LPSA30    15             10.0000000000
     32802      1059  ARHM      H3             31.5254444563       29.9600767602       61.8445654953  LPSA30    15             10.0000000000
     32803      1059  ARHM      O3             30.1637438610       30.2136515316       63.3994946263  LPSA30    15             10.0000000000
     32804      1059  ARHM      C4             31.1392043109       32.0469052856       62.0290581960  LPSA30    15             10.0000000000
     32805      1059  ARHM      H4             30.2561778923       32.7107748377       62.1621291425  LPSA30    15             10.0000000000
     32806      1059  ARHM      O4             32.1129419479       32.4252196815       63.0020112802  LPSA30    15             10.0000000000
     32807      1059  ARHM      HO4            32.2453051023       33.3927111487       62.9788900809  LPSA30    15             10.0000000000
     32808      1059  ARHM      C6             32.0775315491       33.7245283843       60.4443654585  LPSA30    15             10.0000000000
     32809      1059  ARHM      H61            32.9685475052       33.8878336416       61.0713783463  LPSA30    15             10.0000000000
     32810      1059  ARHM      H62            32.2929714938       33.9534988739       59.3807094842  LPSA30    15             10.0000000000
     32811      1059  ARHM      H63            31.3377027994       34.4465844279       60.8291989799  LPSA30    15             10.0000000000
     32812      1060  BMANNA    C1             27.6988668205       31.3260536344       62.5025714302  LPSA30    16             11.0000000000
     32813      1060  BMANNA    H1             28.3411480045       31.7408579541       63.3150124221  LPSA30    16             11.0000000000
     32814      1060  BMANNA    C5             26.5435977909       30.1095128459       64.1877463641  LPSA30    16             11.0000000000
     32815      1060  BMANNA    H5             27.2429787873       30.5498896517       64.9500009693  LPSA30    16             11.0000000000
     32816      1060  BMANNA    O5             27.2218041278       30.0444252469       62.9112594192  LPSA30    16             11.0000000000
     32817      1060  BMANNA    C2             26.4934442959       32.2373879903       62.3072122164  LPSA30    16             11.0000000000
     32818      1060  BMANNA    H2             26.8963539454       33.2405614349       62.0276394087  LPSA30    16             11.0000000000
     32819      1060  BMANNA    N              25.5729577398       31.8252406987       61.2572435907  LPSA30    16             11.0000000000
     32820      1060  BMANNA    HN             24.8308981639       31.2498486693       61.5567380269  LPSA30    16             11.0000000000
     32821      1060  BMANNA    C              25.6049801330       32.2227696993       59.9842683311  LPSA30    16             11.0000000000
     32822      1060  BMANNA    O              26.4434828055       32.9949424333       59.5366824635  LPSA30    16             11.0000000000
     32823      1060  BMANNA    CT             24.5494721783       31.6306747769       59.0803476782  LPSA30    16             11.0000000000
     32824      1060  BMANNA    HT1            23.7544996464       32.3670046647       58.8566427421  LPSA30    16             11.0000000000
     32825      1060  BMANNA    HT2            24.0829828276       30.7361243887       59.5361606555  LPSA30    16             11.0000000000
     32826      1060  BMANNA    HT3            25.0242248387       31.3295357048       58.1238551270  LPSA30    16             11.0000000000
     32827      1060  BMANNA    C3             25.7693186308       32.3337143843       63.6397776574  LPSA30    16             11.0000000000
     32828      1060  BMANNA    H3             26.4918185236       32.7239637330       64.3914854278  LPSA30    16             11.0000000000
     32829      1060  BMANNA    O3             24.6830626795       33.2442786929       63.5835469459  LPSA30    16             11.0000000000
     32830      1060  BMANNA    HO3            24.7548997973       33.9117335380       64.2690696804  LPSA30    16             11.0000000000
     32831      1060  BMANNA    C4             25.3193042192       30.9674292948       64.1043068015  LPSA30    16             11.0000000000
     32832      1060  BMANNA    H4             24.6113295103       30.5119142099       63.3728395303  LPSA30    16             11.0000000000
     32833      1060  BMANNA    O4             24.6536327859       30.9902220584       65.3634034560  LPSA30    16             11.0000000000
     32834      1060  BMANNA    HO4            24.0688200805       30.2157562415       65.4678923462  LPSA30    16             11.0000000000
     32835      1060  BMANNA    C6             26.2063870881       28.7683269523       64.7125981959  LPSA30    16             11.0000000000
     32836      1060  BMANNA    H61            26.1620720814       28.7973940052       65.7966796921  LPSA30    16             11.0000000000
     32837      1060  BMANNA    H62            25.2118865083       28.3990110881       64.3875426202  LPSA30    16             11.0000000000
     32838      1060  BMANNA    O6             27.2204366477       27.8752579119       64.3585164455  LPSA30    16             11.0000000000
     32839      1060  BMANNA    HO6            26.7555959225       27.1748437618       63.8927288631  LPSA30    16             11.0000000000
     32840      1061  BGLCNA    C1             31.1026564421       29.5493266257       64.1722371314  LPSA30    17             11.0000000000
     32841      1061  BGLCNA    H1             32.1212353090       29.9443271592       63.9857751276  LPSA30    17             11.0000000000
     32842      1061  BGLCNA    C5             32.0833967057       27.5427004621       64.5726526179  LPSA30    17             11.0000000000
     32843      1061  BGLCNA    H5             33.1562174496       27.8410492163       64.3775385051  LPSA30    17             11.0000000000
     32844      1061  BGLCNA    O5             31.1496393373       28.2395042145       63.8062910727  LPSA30    17             11.0000000000
     32845      1061  BGLCNA    C2             30.6617892322       29.6340868394       65.5968305423  LPSA30    17             11.0000000000
     32846      1061  BGLCNA    H2             29.6822762822       29.1048670264       65.7548141536  LPSA30    17             11.0000000000
     32847      1061  BGLCNA    N              30.4687408993       31.0209091272       65.8805485169  LPSA30    17             11.0000000000
     32848      1061  BGLCNA    HN             31.0647502708       31.6324186679       65.3776466265  LPSA30    17             11.0000000000
     32849      1061  BGLCNA    C              29.6683246106       31.5299411478       66.8007614018  LPSA30    17             11.0000000000
     32850      1061  BGLCNA    O              28.8604781768       30.8995342772       67.4677537044  LPSA30    17             11.0000000000
     32851      1061  BGLCNA    CT             29.8709972008       33.0021784936       66.9668059129  LPSA30    17             11.0000000000
     32852      1061  BGLCNA    HT1            29.0703227167       33.6141706712       66.5174534759  LPSA30    17             11.0000000000
     32853      1061  BGLCNA    HT2            30.8830747637       33.2902187930       66.6217068535  LPSA30    17             11.0000000000
     32854      1061  BGLCNA    HT3            29.9297055095       33.2094550322       68.0382040901  LPSA30    17             11.0000000000
     32855      1061  BGLCNA    C3             31.7034492828       28.9467457822       66.4608841336  LPSA30    17             11.0000000000
     32856      1061  BGLCNA    H3             32.6776070157       29.3756421758       66.1122592106  LPSA30    17             11.0000000000
     32857      1061  BGLCNA    O3             31.5145358499       29.2604575756       67.8557266159  LPSA30    17             11.0000000000
     32858      1061  BGLCNA    C4             31.7358628439       27.4976987893       66.0681253416  LPSA30    17             11.0000000000
     32859      1061  BGLCNA    H4             30.7074446425       27.0551899446       66.1473762038  LPSA30    17             11.0000000000
     32860      1061  BGLCNA    O4             32.6088060941       26.7126072269       66.9034464568  LPSA30    17             11.0000000000
     32861      1061  BGLCNA    HO4            32.6048168797       25.7582624428       66.7311086506  LPSA30    17             11.0000000000
     32862      1061  BGLCNA    C6             31.8238802051       26.3107014062       63.9183864253  LPSA30    17             11.0000000000
     32863      1061  BGLCNA    H61            32.8606213550       25.9636279216       64.0347889170  LPSA30    17             11.0000000000
     32864      1061  BGLCNA    H62            31.0635933006       25.7251532076       64.4836237455  LPSA30    17             11.0000000000
     32865      1061  BGLCNA    O6             31.4569414883       26.1564738404       62.5415770084  LPSA30    17             11.0000000000
     32866      1061  BGLCNA    HO6            32.2395864972       26.2159403932       62.0114757336  LPSA30    17             11.0000000000
     32867      1062  AGAL      C1             32.6866350792       29.3968616105       68.6357221602  LPSA30    18             12.0000000000
     32868      1062  AGAL      H1             33.1188339745       28.3879977284       68.8128412050  LPSA30    18             12.0000000000
     32869      1062  AGAL      C5             33.2701778047       31.5581146127       67.8619276923  LPSA30    18             12.0000000000
     32870      1062  AGAL      H5             32.2650875923       31.5743552059       67.4129039907  LPSA30    18             12.0000000000
     32871      1062  AGAL      O5             33.6782176805       30.1882042151       67.9962205411  LPSA30    18             12.0000000000
     32872      1062  AGAL      C2             32.4400547407       30.0554036401       69.9743475256  LPSA30    18             12.0000000000
     32873      1062  AGAL      H2             33.4696902821       30.1197696482       70.3983352560  LPSA30    18             12.0000000000
     32874      1062  AGAL      O2             31.7005768993       29.2314680005       70.8755453866  LPSA30    18             12.0000000000
     32875      1062  AGAL      C3             31.9546943016       31.4985583332       69.8502021466  LPSA30    18             12.0000000000
     32876      1062  AGAL      H3             31.0687660712       31.5114064072       69.1703404449  LPSA30    18             12.0000000000
     32877      1062  AGAL      O3             31.5369228232       32.0686426482       71.0903362349  LPSA30    18             12.0000000000
     32878      1062  AGAL      HO3            30.7144397652       32.5617960819       70.9915577778  LPSA30    18             12.0000000000
     32879      1062  AGAL      C4             33.0613451770       32.2886860671       69.1801541688  LPSA30    18             12.0000000000
     32880      1062  AGAL      H4             32.7182923988       33.3159818102       68.9578741322  LPSA30    18             12.0000000000
     32881      1062  AGAL      O4             34.2383837417       32.4033577615       69.9896351631  LPSA30    18             12.0000000000
     32882      1062  AGAL      HO4            33.9856439786       32.9951634701       70.7089738096  LPSA30    18             12.0000000000
     32883      1062  AGAL      C6             34.0352328424       32.1924768693       66.7729027341  LPSA30    18             12.0000000000
     32884      1062  AGAL      H61            33.8137375797       31.6633120673       65.8235198472  LPSA30    18             12.0000000000
     32885      1062  AGAL      H62            33.7615621113       33.2711832931       66.6486956566  LPSA30    18             12.0000000000
     32886      1062  AGAL      O6             35.4043841510       31.9526746923       66.9363908654  LPSA30    18             12.0000000000
     32887      1062  AGAL      HO6            35.6392264497       31.4512848808       67.7200864481  LPSA30    18             12.0000000000
     32888      1063  ARHM      C1             32.2567113923       29.3035815833       72.1712325500  LPSA30    19             13.0000000000
     32889      1063  ARHM      H1             32.7412838469       30.2886532660       72.3490067171  LPSA30    19             13.0000000000
     32890      1063  ARHM      C5             32.8103971318       26.9944303877       72.2502501895  LPSA30    19             13.0000000000
     32891      1063  ARHM      H5             32.3883923489       26.9275487271       71.2174845076  LPSA30    19             13.0000000000
     32892      1063  ARHM      O5             33.2771695761       28.3302869418       72.4287374600  LPSA30    19             13.0000000000
     32893      1063  ARHM      C2             31.1134374004       29.0774853635       73.1157376908  LPSA30    19             13.0000000000
     32894      1063  ARHM      H2             30.2657951092       29.7643407710       72.8698987866  LPSA30    19             13.0000000000
     32895      1063  ARHM      O2             31.5212666499       29.3425745432       74.4607683524  LPSA30    19             13.0000000000
     32896      1063  ARHM      C3             30.5971895477       27.6704211343       72.9581587557  LPSA30    19             13.0000000000
     32897      1063  ARHM      H3             30.2802604145       27.5199699267       71.9001467100  LPSA30    19             13.0000000000
     32898      1063  ARHM      O3             29.4613258271       27.4455485397       73.7716235551  LPSA30    19             13.0000000000
     32899      1063  ARHM      HO3            29.6844840044       27.7599130065       74.6510340590  LPSA30    19             13.0000000000
     32900      1063  ARHM      C4             31.7073116800       26.6944399080       73.2398437347  LPSA30    19             13.0000000000
     32901      1063  ARHM      H4             32.0645589426       26.8532967636       74.2843342737  LPSA30    19             13.0000000000
     32902      1063  ARHM      O4             31.3015399422       25.3369380621       73.1425463110  LPSA30    19             13.0000000000
     32903      1063  ARHM      HO4            31.0150345205       25.1660380674       72.2479504662  LPSA30    19             13.0000000000
     32904      1063  ARHM      C6             34.0016191950       26.0263975676       72.2805994257  LPSA30    19             13.0000000000
     32905      1063  ARHM      H61            34.6918512142       26.3568534820       71.4780231466  LPSA30    19             13.0000000000
     32906      1063  ARHM      H62            34.5458100899       26.0234524932       73.2455483536  LPSA30    19             13.0000000000
     32907      1063  ARHM      H63            33.6627394711       24.9870042551       72.0800660346  LPSA30    19             13.0000000000
     32908      1064  ARHM      C1             31.6842415043       30.7194666402       74.6981327465  LPSA30    20             14.0000000000
     32909      1064  ARHM      H1             31.2695349354       31.3445898276       73.8669396946  LPSA30    20             14.0000000000
     32910      1064  ARHM      C5             33.6752613568       30.5079086875       75.9851129563  LPSA30    20             14.0000000000
     32911      1064  ARHM      H5             33.6255762439       29.4158749866       75.8260114968  LPSA30    20             14.0000000000
     32912      1064  ARHM      O5             33.0172876223       31.1037748076       74.8764911284  LPSA30    20             14.0000000000
     32913      1064  ARHM      C2             30.9485470366       31.0443619230       75.9419337289  LPSA30    20             14.0000000000
     32914      1064  ARHM      H2             29.9648870186       30.5828931754       75.7709917081  LPSA30    20             14.0000000000
     32915      1064  ARHM      O2             30.8276506970       32.4506390212       76.1647714985  LPSA30    20             14.0000000000
     32916      1064  ARHM      C3             31.5507545333       30.3982007296       77.1311828296  LPSA30    20             14.0000000000
     32917      1064  ARHM      H3             31.5871580023       29.2962390752       76.9605550136  LPSA30    20             14.0000000000
     32918      1064  ARHM      O3             30.7355416240       30.6830482749       78.2689235235  LPSA30    20             14.0000000000
     32919      1064  ARHM      C4             32.9460448115       30.9167721038       77.2447839759  LPSA30    20             14.0000000000
     32920      1064  ARHM      H4             32.9954686758       32.0319654784       77.3206023321  LPSA30    20             14.0000000000
     32921      1064  ARHM      O4             33.5751383075       30.3608784425       78.3772895353  LPSA30    20             14.0000000000
     32922      1064  ARHM      HO4            34.5033612198       30.3396824403       78.1346874040  LPSA30    20             14.0000000000
     32923      1064  ARHM      C6             35.1661985327       30.8829077276       76.0144616861  LPSA30    20             14.0000000000
     32924      1064  ARHM      H61            35.2614711098       31.9807503838       76.1426355365  LPSA30    20             14.0000000000
     32925      1064  ARHM      H62            35.7214187442       30.3724513344       76.8059472102  LPSA30    20             14.0000000000
     32926      1064  ARHM      H63            35.6568972605       30.6281701600       75.0483007073  LPSA30    20             14.0000000000
     32927      1065  BMANNA    C1             29.7894095259       32.9872832820       75.4069351522  LPSA30    21             15.0000000000
     32928      1065  BMANNA    H1             29.3850094864       32.2061864330       74.7226251169  LPSA30    21             15.0000000000
     32929      1065  BMANNA    C5             29.1296076711       34.3959249975       73.6537094368  LPSA30    21             15.0000000000
     32930      1065  BMANNA    H5             28.7344129656       33.5114224436       73.0880560375  LPSA30    21             15.0000000000
     32931      1065  BMANNA    O5             30.2157838533       34.0043700926       74.5148899763  LPSA30    21             15.0000000000
     32932      1065  BMANNA    C2             28.6948750114       33.4870600365       76.3413554656  LPSA30    21             15.0000000000
     32933      1065  BMANNA    H2             28.3927111336       32.6056379863       76.9437656917  LPSA30    21             15.0000000000
     32934      1065  BMANNA    N              29.1080084785       34.5276448860       77.2856947376  LPSA30    21             15.0000000000
     32935      1065  BMANNA    HN             29.7115756063       35.2307826902       76.9084784123  LPSA30    21             15.0000000000
     32936      1065  BMANNA    C              28.7013427458       34.6027884485       78.5852260132  LPSA30    21             15.0000000000
     32937      1065  BMANNA    O              27.7921173444       33.9173521628       79.0349603940  LPSA30    21             15.0000000000
     32938      1065  BMANNA    CT             29.3887564434       35.5976921579       79.4823476255  LPSA30    21             15.0000000000
     32939      1065  BMANNA    HT1            29.0403245369       36.6277097083       79.2890225519  LPSA30    21             15.0000000000
     32940      1065  BMANNA    HT2            30.4715750608       35.5382852390       79.3022996948  LPSA30    21             15.0000000000
     32941      1065  BMANNA    HT3            29.2289335142       35.3708490098       80.5565687547  LPSA30    21             15.0000000000
     32942      1065  BMANNA    C3             27.5343615283       33.8814403456       75.4683042717  LPSA30    21             15.0000000000
     32943      1065  BMANNA    H3             27.2281543494       32.9512449302       74.9283531882  LPSA30    21             15.0000000000
     32944      1065  BMANNA    O3             26.4112777806       34.3070549858       76.2256544173  LPSA30    21             15.0000000000
     32945      1065  BMANNA    HO3            26.6969847043       35.0226196600       76.7995962609  LPSA30    21             15.0000000000
     32946      1065  BMANNA    C4             27.9928185856       34.9303946758       74.4784440788  LPSA30    21             15.0000000000
     32947      1065  BMANNA    H4             28.3281991797       35.8429831879       75.0123054809  LPSA30    21             15.0000000000
     32948      1065  BMANNA    O4             26.9911177686       35.3209758221       73.5716596542  LPSA30    21             15.0000000000
     32949      1065  BMANNA    HO4            26.6773993412       36.2236066517       73.7545036415  LPSA30    21             15.0000000000
     32950      1065  BMANNA    C6             29.5843809030       35.3894741676       72.6123768119  LPSA30    21             15.0000000000
     32951      1065  BMANNA    H61            28.8165594574       35.4547246799       71.8030045244  LPSA30    21             15.0000000000
     32952      1065  BMANNA    H62            29.6403307375       36.3928018378       73.0797993736  LPSA30    21             15.0000000000
     32953      1065  BMANNA    O6             30.8588633335       35.0422103869       72.0616244248  LPSA30    21             15.0000000000
     32954      1065  BMANNA    HO6            31.5103693032       35.0843079998       72.7788978382  LPSA30    21             15.0000000000
     32955      1066  BGLCNA    C1             30.6486954121       29.6703371773       79.2381228342  LPSA30    22             15.0000000000
     32956      1066  BGLCNA    H1             31.5474931410       29.0178974269       79.2432742874  LPSA30    22             15.0000000000
     32957      1066  BGLCNA    C5             29.3592571166       27.8831119726       80.1002300810  LPSA30    22             15.0000000000
     32958      1066  BGLCNA    H5             30.2941414488       27.2659896398       80.1111103497  LPSA30    22             15.0000000000
     32959      1066  BGLCNA    O5             29.4766842110       28.8708712251       79.0586362842  LPSA30    22             15.0000000000
     32960      1066  BGLCNA    C2             30.5486072004       30.4071341229       80.5435288455  LPSA30    22             15.0000000000
     32961      1066  BGLCNA    H2             29.6283244852       31.0477608108       80.4963075883  LPSA30    22             15.0000000000
     32962      1066  BGLCNA    N              31.7060384614       31.2425037688       80.7261092494  LPSA30    22             15.0000000000
     32963      1066  BGLCNA    HN             32.5727218800       30.8749993624       80.4054446488  LPSA30    22             15.0000000000
     32964      1066  BGLCNA    C              31.7046738962       32.3961697711       81.3728292971  LPSA30    22             15.0000000000
     32965      1066  BGLCNA    O              30.7153342760       32.9424381828       81.8448825413  LPSA30    22             15.0000000000
     32966      1066  BGLCNA    CT             33.0538186940       33.0057823343       81.4556391870  LPSA30    22             15.0000000000
     32967      1066  BGLCNA    HT1            33.1563616346       33.5863713618       80.5551727760  LPSA30    22             15.0000000000
     32968      1066  BGLCNA    HT2            33.8704397766       32.2887405887       81.3220915790  LPSA30    22             15.0000000000
     32969      1066  BGLCNA    HT3            33.1924452096       33.6299079313       82.3640569334  LPSA30    22             15.0000000000
     32970      1066  BGLCNA    C3             30.4279279244       29.4254168848       81.6840953108  LPSA30    22             15.0000000000
     32971      1066  BGLCNA    H3             31.3081709256       28.7380224959       81.6538712054  LPSA30    22             15.0000000000
     32972      1066  BGLCNA    O3             30.4679647279       30.1913926887       82.9023123562  LPSA30    22             15.0000000000
     32973      1066  BGLCNA    C4             29.2029492703       28.5843460532       81.4515543060  LPSA30    22             15.0000000000
     32974      1066  BGLCNA    H4             28.3143294663       29.2510881123       81.4034680421  LPSA30    22             15.0000000000
     32975      1066  BGLCNA    O4             28.9851499739       27.6630294013       82.5113680429  LPSA30    22             15.0000000000
     32976      1066  BGLCNA    HO4            28.0476127404       27.5601691557       82.7115688204  LPSA30    22             15.0000000000
     32977      1066  BGLCNA    C6             28.1701681187       27.0114269958       79.7744593249  LPSA30    22             15.0000000000
     32978      1066  BGLCNA    H61            27.8680470777       26.4594496252       80.6889805849  LPSA30    22             15.0000000000
     32979      1066  BGLCNA    H62            27.3063138312       27.6397107053       79.4581226586  LPSA30    22             15.0000000000
     32980      1066  BGLCNA    O6             28.4606933085       26.0285406035       78.7797289874  LPSA30    22             15.0000000000
     32981      1066  BGLCNA    HO6            28.7885157656       26.4355000591       77.9775439123  LPSA30    22             15.0000000000
     32982      1067  AGAL      C1             30.8018183827       29.5449833947       84.1000253330  LPSA30    23             16.0000000000
     32983      1067  AGAL      H1             29.9340535495       28.9422710395       84.4484875806  LPSA30    23             16.0000000000
     32984      1067  AGAL      C5             33.1659987675       29.3762417558       83.7236693716  LPSA30    23             16.0000000000
     32985      1067  AGAL      H5             33.0175925764       30.0017609676       82.8154410554  LPSA30    23             16.0000000000
     32986      1067  AGAL      O5             31.9388676675       28.6709953825       83.9918844422  LPSA30    23             16.0000000000
     32987      1067  AGAL      C2             31.0585754842       30.5666466885       85.1854666467  LPSA30    23             16.0000000000
     32988      1067  AGAL      H2             31.2771794577       29.9824386009       86.1067348617  LPSA30    23             16.0000000000
     32989      1067  AGAL      O2             29.9000201654       31.4084658254       85.4266458960  LPSA30    23             16.0000000000
     32990      1067  AGAL      C3             32.3396547179       31.3305576355       84.8780432896  LPSA30    23             16.0000000000
     32991      1067  AGAL      H3             32.2656051483       31.7788295272       83.8652738668  LPSA30    23             16.0000000000
     32992      1067  AGAL      O3             32.5516283272       32.4261714540       85.7467531662  LPSA30    23             16.0000000000
     32993      1067  AGAL      HO3            32.3989551054       32.2052475712       86.6633097489  LPSA30    23             16.0000000000
     32994      1067  AGAL      C4             33.5054886914       30.3540865336       84.8533517271  LPSA30    23             16.0000000000
     32995      1067  AGAL      H4             34.4595637929       30.8767368223       84.6222708524  LPSA30    23             16.0000000000
     32996      1067  AGAL      O4             33.6966561381       29.6878236736       86.0954042912  LPSA30    23             16.0000000000
     32997      1067  AGAL      HO4            34.0738327155       28.8223181264       85.8738632509  LPSA30    23             16.0000000000
     32998      1067  AGAL      C6             34.2173147986       28.3553733481       83.3310865216  LPSA30    23             16.0000000000
     32999      1067  AGAL      H61            33.7797800561       27.6570821316       82.5819825495  LPSA30    23             16.0000000000
     33000      1067  AGAL      H62            35.0727630086       28.8520975978       82.8184814891  LPSA30    23             16.0000000000
     33001      1067  AGAL      O6             34.6855656804       27.5997820055       84.4488603765  LPSA30    23             16.0000000000
     33002      1067  AGAL      HO6            35.2849763208       26.9022703407       84.1537314095  LPSA30    23             16.0000000000
     33003      1068  ARHM      C1             28.8868463267       30.9139098178       86.2797972686  LPSA30    24             17.0000000000
     33004      1068  ARHM      H1             28.9888615836       29.8077457498       86.3815283972  LPSA30    24             17.0000000000
     33005      1068  ARHM      C5             27.2580699254       32.5485373055       85.6171764777  LPSA30    24             17.0000000000
     33006      1068  ARHM      H5             28.0221104819       32.9642589035       84.9283296269  LPSA30    24             17.0000000000
     33007      1068  ARHM      O5             27.5399029041       31.1526335975       85.8077042702  LPSA30    24             17.0000000000
     33008      1068  ARHM      C2             29.1047926537       31.6155309815       87.5958171471  LPSA30    24             17.0000000000
     33009      1068  ARHM      H2             30.1633397409       31.4959714638       87.9258984225  LPSA30    24             17.0000000000
     33010      1068  ARHM      O2             28.2161563237       31.1286861155       88.5975548539  LPSA30    24             17.0000000000
     33011      1068  ARHM      C3             28.8333553636       33.0851725721       87.4139932763  LPSA30    24             17.0000000000
     33012      1068  ARHM      H3             29.5303755341       33.4517711328       86.6251965258  LPSA30    24             17.0000000000
     33013      1068  ARHM      O3             29.1555594085       33.8459091752       88.5713442052  LPSA30    24             17.0000000000
     33014      1068  ARHM      HO3            28.4570979796       33.7703417401       89.2236483887  LPSA30    24             17.0000000000
     33015      1068  ARHM      C4             27.4021961341       33.2722468879       86.9342592299  LPSA30    24             17.0000000000
     33016      1068  ARHM      H4             26.7090695155       32.7507264593       87.6320143752  LPSA30    24             17.0000000000
     33017      1068  ARHM      O4             27.0349322993       34.6486819647       86.8212457667  LPSA30    24             17.0000000000
     33018      1068  ARHM      HO4            26.0989340486       34.8117328461       87.0027172785  LPSA30    24             17.0000000000
     33019      1068  ARHM      C6             25.8816359451       32.7362165986       84.9431875456  LPSA30    24             17.0000000000
     33020      1068  ARHM      H61            25.8644229093       33.7140059982       84.4101973391  LPSA30    24             17.0000000000
     33021      1068  ARHM      H62            25.7082354145       31.9306928785       84.2060369405  LPSA30    24             17.0000000000
     33022      1068  ARHM      H63            25.0539325873       32.6910015500       85.6802531157  LPSA30    24             17.0000000000
     33023      1069  ARHM      C1             28.5716564477       29.9000674669       89.1473627914  LPSA30    25             18.0000000000
     33024      1069  ARHM      H1             29.2796766246       29.3750575104       88.4649782668  LPSA30    25             18.0000000000
     33025      1069  ARHM      C5             26.5156716408       29.5976967717       90.2311711739  LPSA30    25             18.0000000000
     33026      1069  ARHM      H5             26.1538326334       30.5633732491       89.8457572600  LPSA30    25             18.0000000000
     33027      1069  ARHM      O5             27.4482870206       29.0460019818       89.2723573399  LPSA30    25             18.0000000000
     33028      1069  ARHM      C2             29.2340472309       30.0998508890       90.4689884816  LPSA30    25             18.0000000000
     33029      1069  ARHM      H2             29.9804127161       30.9272349464       90.3644424365  LPSA30    25             18.0000000000
     33030      1069  ARHM      O2             29.8808501531       28.8976322341       90.8942344826  LPSA30    25             18.0000000000
     33031      1069  ARHM      C3             28.2332449995       30.6103867835       91.4624625853  LPSA30    25             18.0000000000
     33032      1069  ARHM      H3             27.7542355445       31.5547199976       91.0915017361  LPSA30    25             18.0000000000
     33033      1069  ARHM      O3             28.8827798146       30.7909574771       92.7076694868  LPSA30    25             18.0000000000
     33034      1069  ARHM      C4             27.1233724112       29.6601439623       91.6059987591  LPSA30    25             18.0000000000
     33035      1069  ARHM      H4             27.4906799573       28.6269346553       91.8923741355  LPSA30    25             18.0000000000
     33036      1069  ARHM      O4             26.1706190273       30.0730161512       92.5821676190  LPSA30    25             18.0000000000
     33037      1069  ARHM      HO4            25.8361358022       29.2854741928       93.0218938946  LPSA30    25             18.0000000000
     33038      1069  ARHM      C6             25.2402485167       28.9271202606       90.3498042791  LPSA30    25             18.0000000000
     33039      1069  ARHM      H61            24.6695032385       28.7700716341       89.4058525789  LPSA30    25             18.0000000000
     33040      1069  ARHM      H62            25.7829290239       28.0154169116       90.7250507326  LPSA30    25             18.0000000000
     33041      1069  ARHM      H63            24.4740842148       29.1480668499       91.0824442398  LPSA30    25             18.0000000000
     33042      1070  BMANNA    C1             31.1090160137       28.6428447312       90.2688747532  LPSA30    26             19.0000000000
     33043      1070  BMANNA    H1             31.5104846689       29.5465365005       89.7799944881  LPSA30    26             19.0000000000
     33044      1070  BMANNA    C5             32.3273355370       27.5001122023       88.5875055878  LPSA30    26             19.0000000000
     33045      1070  BMANNA    H5             32.6596857648       28.4802224759       88.1708763357  LPSA30    26             19.0000000000
     33046      1070  BMANNA    O5             31.0448575582       27.6813186537       89.2190348539  LPSA30    26             19.0000000000
     33047      1070  BMANNA    C2             32.0283934975       28.1510125057       91.3464243180  LPSA30    26             19.0000000000
     33048      1070  BMANNA    H2             32.0617130570       28.9261125505       92.1496155558  LPSA30    26             19.0000000000
     33049      1070  BMANNA    N              31.5173162377       26.9241265431       91.9289917048  LPSA30    26             19.0000000000
     33050      1070  BMANNA    HN             31.3438024417       26.1858549269       91.2883223253  LPSA30    26             19.0000000000
     33051      1070  BMANNA    C              31.3232758862       26.7542716320       93.2523864372  LPSA30    26             19.0000000000
     33052      1070  BMANNA    O              31.4616288504       27.6569337080       94.0597296586  LPSA30    26             19.0000000000
     33053      1070  BMANNA    CT             30.9513978770       25.3696210196       93.7072576294  LPSA30    26             19.0000000000
     33054      1070  BMANNA    HT1            30.4377728615       24.8582956118       92.8756305963  LPSA30    26             19.0000000000
     33055      1070  BMANNA    HT2            30.4014894987       25.2534742274       94.6501081585  LPSA30    26             19.0000000000
     33056      1070  BMANNA    HT3            31.8819048684       24.8390978319       93.9300335658  LPSA30    26             19.0000000000
     33057      1070  BMANNA    C3             33.4124966352       28.0327805208       90.7429261689  LPSA30    26             19.0000000000
     33058      1070  BMANNA    H3             33.7247943901       29.0177407557       90.3226409853  LPSA30    26             19.0000000000
     33059      1070  BMANNA    O3             34.3877433720       27.7361117262       91.7280065207  LPSA30    26             19.0000000000
     33060      1070  BMANNA    HO3            34.4996054200       28.5003060784       92.3094751186  LPSA30    26             19.0000000000
     33061      1070  BMANNA    C4             33.3584754254       27.0272935310       89.6094341501  LPSA30    26             19.0000000000
     33062      1070  BMANNA    H4             33.0431662350       26.0297114815       89.9849605281  LPSA30    26             19.0000000000
     33063      1070  BMANNA    O4             34.6294305988       26.8710337946       89.0000710510  LPSA30    26             19.0000000000
     33064      1070  BMANNA    HO4            35.1339358760       26.2748017035       89.5661198627  LPSA30    26             19.0000000000
     33065      1070  BMANNA    C6             32.1159672474       26.5707630098       87.4002932584  LPSA30    26             19.0000000000
     33066      1070  BMANNA    H61            31.1425997722       26.8109230530       86.9113918602  LPSA30    26             19.0000000000
     33067      1070  BMANNA    H62            32.9139196904       26.7255483109       86.6388396143  LPSA30    26             19.0000000000
     33068      1070  BMANNA    O6             32.1170741286       25.1933535398       87.7748727960  LPSA30    26             19.0000000000
     33069      1070  BMANNA    HO6            32.9742876483       24.9997783058       88.1626885518  LPSA30    26             19.0000000000
     33070      1071  BGLCNA    C1             28.4870207701       31.8884540593       93.4739669167  LPSA30    27             19.0000000000
     33071      1071  BGLCNA    H1             27.3943505139       32.0904347172       93.4255335937  LPSA30    27             19.0000000000
     33072      1071  BGLCNA    C5             28.8862498117       34.1718244001       93.9201178875  LPSA30    27             19.0000000000
     33073      1071  BGLCNA    H5             27.7788121167       34.2927526486       93.9479112902  LPSA30    27             19.0000000000
     33074      1071  BGLCNA    O5             29.1964837443       33.0561268816       93.0711521004  LPSA30    27             19.0000000000
     33075      1071  BGLCNA    C2             28.9172468513       31.4907253766       94.8697906694  LPSA30    27             19.0000000000
     33076      1071  BGLCNA    H2             30.0308011643       31.3636178679       94.8335780605  LPSA30    27             19.0000000000
     33077      1071  BGLCNA    N              28.3157888092       30.2292821121       95.3055815568  LPSA30    27             19.0000000000
     33078      1071  BGLCNA    HN             27.3594874088       30.0911402331       95.0706864962  LPSA30    27             19.0000000000
     33079      1071  BGLCNA    C              29.0510983577       29.3007430129       95.9616175759  LPSA30    27             19.0000000000
     33080      1071  BGLCNA    O              30.1076422189       29.5890821776       96.5108608484  LPSA30    27             19.0000000000
     33081      1071  BGLCNA    CT             28.5122922715       27.8888574919       96.0131944513  LPSA30    27             19.0000000000
     33082      1071  BGLCNA    HT1            27.6252487485       27.7844799339       95.3605042580  LPSA30    27             19.0000000000
     33083      1071  BGLCNA    HT2            28.2603217160       27.6010023926       97.0502018606  LPSA30    27             19.0000000000
     33084      1071  BGLCNA    HT3            29.3175672792       27.1981493855       95.6770981625  LPSA30    27             19.0000000000
     33085      1071  BGLCNA    C3             28.6271034969       32.6095244363       95.8206588169  LPSA30    27             19.0000000000
     33086      1071  BGLCNA    H3             27.5283772152       32.8070073122       95.7731765588  LPSA30    27             19.0000000000
     33087      1071  BGLCNA    O3             29.0028738650       32.1128869983       97.1283493181  LPSA30    27             19.0000000000
     33088      1071  BGLCNA    C4             29.3403484879       33.8619624065       95.3440833674  LPSA30    27             19.0000000000
     33089      1071  BGLCNA    H4             30.4437789842       33.6972426977       95.3296938831  LPSA30    27             19.0000000000
     33090      1071  BGLCNA    O4             29.0455733049       34.9654144505       96.1920057366  LPSA30    27             19.0000000000
     33091      1071  BGLCNA    HO4            28.1174491567       35.1577855049       96.0989780036  LPSA30    27             19.0000000000
     33092      1071  BGLCNA    C6             29.4403572255       35.4435755186       93.3093902270  LPSA30    27             19.0000000000
     33093      1071  BGLCNA    H61            29.0031496456       36.3208801893       93.8433007842  LPSA30    27             19.0000000000
     33094      1071  BGLCNA    H62            30.5407354415       35.4820755493       93.4602180325  LPSA30    27             19.0000000000
     33095      1071  BGLCNA    O6             29.1390568348       35.5342057541       91.9042755304  LPSA30    27             19.0000000000
     33096      1071  BGLCNA    HO6            29.4662016645       36.3636581718       91.5371689218  LPSA30    27             19.0000000000
     33097      1072  AGAL      C1             28.4781717942       32.7727076115       98.2449488659  LPSA30    28             20.0000000000
     33098      1072  AGAL      H1             28.9997728484       33.7498140789       98.3297624644  LPSA30    28             20.0000000000
     33099      1072  AGAL      C5             26.2931539866       31.7942515715       98.1265855827  LPSA30    28             20.0000000000
     33100      1072  AGAL      H5             26.7261457095       31.0287351042       97.4300743904  LPSA30    28             20.0000000000
     33101      1072  AGAL      O5             27.0706649532       33.0158102231       98.0529471959  LPSA30    28             20.0000000000
     33102      1072  AGAL      C2             28.6617373765       32.0783241259       99.6108103924  LPSA30    28             20.0000000000
     33103      1072  AGAL      H2             28.1933347178       32.8252158096      100.2961526763  LPSA30    28             20.0000000000
     33104      1072  AGAL      O2             29.9956465131       31.8722451591      100.1036069638  LPSA30    28             20.0000000000
     33105      1072  AGAL      C3             27.8579006810       30.7965233756       99.6841242863  LPSA30    28             20.0000000000
     33106      1072  AGAL      H3             28.1755135724       30.1395301911       98.8438273911  LPSA30    28             20.0000000000
     33107      1072  AGAL      O3             28.0405417614       30.0270808781      100.8679029317  LPSA30    28             20.0000000000
     33108      1072  AGAL      HO3            28.4053981558       29.1661374886      100.6247358848  LPSA30    28             20.0000000000
     33109      1072  AGAL      C4             26.4122559058       31.1515306554       99.4882490487  LPSA30    28             20.0000000000
     33110      1072  AGAL      H4             25.8305052316       30.2023247491       99.4893187771  LPSA30    28             20.0000000000
     33111      1072  AGAL      O4             25.9009026696       32.0033098104      100.5024260598  LPSA30    28             20.0000000000
     33112      1072  AGAL      HO4            25.3804031480       31.4709878387      101.1073735312  LPSA30    28             20.0000000000
     33113      1072  AGAL      C6             24.8605802926       32.0201224847       97.6505621522  LPSA30    28             20.0000000000
     33114      1072  AGAL      H61            24.8877117805       32.2379789565       96.5614976744  LPSA30    28             20.0000000000
     33115      1072  AGAL      H62            24.2714044531       31.1004467119       97.7889026357  LPSA30    28             20.0000000000
     33116      1072  AGAL      O6             24.1306627598       33.0559922473       98.3119095934  LPSA30    28             20.0000000000
     33117      1072  AGAL      HO6            24.4466724879       33.9023846482       97.9840490346  LPSA30    28             20.0000000000
     33118      1073  ARHM      C1             30.0488804299       32.1987083108      101.4830472291  LPSA30    29             21.0000000000
     33119      1073  ARHM      H1             29.0615142876       32.0454763728      101.9653784565  LPSA30    29             21.0000000000
     33120      1073  ARHM      C5             31.7406722634       33.8231024670      101.1370066851  LPSA30    29             21.0000000000
     33121      1073  ARHM      H5             31.7172539008       33.5473849930      100.0567571177  LPSA30    29             21.0000000000
     33122      1073  ARHM      O5             30.4537869819       33.5570663014      101.6977502782  LPSA30    29             21.0000000000
     33123      1073  ARHM      C2             31.0169568204       31.2772976683      102.1675820238  LPSA30    29             21.0000000000
     33124      1073  ARHM      H2             30.7248734473       30.2277478553      101.9147139089  LPSA30    29             21.0000000000
     33125      1073  ARHM      O2             30.9957656304       31.4766641790      103.6013841268  LPSA30    29             21.0000000000
     33126      1073  ARHM      C3             32.3961667088       31.5183294693      101.6138178826  LPSA30    29             21.0000000000
     33127      1073  ARHM      H3             32.3944708737       31.3069032572      100.5142764814  LPSA30    29             21.0000000000
     33128      1073  ARHM      O3             33.3089127002       30.6278557944      102.2300009486  LPSA30    29             21.0000000000
     33129      1073  ARHM      HO3            34.1603558317       31.0601151583      102.2077497211  LPSA30    29             21.0000000000
     33130      1073  ARHM      C4             32.8073477374       32.9690450271      101.8159872065  LPSA30    29             21.0000000000
     33131      1073  ARHM      H4             32.8272868220       33.1952491859      102.9104151786  LPSA30    29             21.0000000000
     33132      1073  ARHM      O4             34.1246628525       33.2511595112      101.3438717236  LPSA30    29             21.0000000000
     33133      1073  ARHM      HO4            34.3269511309       32.9303392807      100.4532571380  LPSA30    29             21.0000000000
     33134      1073  ARHM      C6             31.8722559600       35.3458245066      101.2203965307  LPSA30    29             21.0000000000
     33135      1073  ARHM      H61            30.9509303565       35.7870882914      100.7766244486  LPSA30    29             21.0000000000
     33136      1073  ARHM      H62            31.9564687097       35.7060916938      102.2591488916  LPSA30    29             21.0000000000
     33137      1073  ARHM      H63            32.7265476893       35.6885812684      100.6134732507  LPSA30    29             21.0000000000
     33138      1074  ARHM      C1             30.1936697977       30.6139951098      104.3713851031  LPSA30    30             22.0000000000
     33139      1074  ARHM      H1             30.4863805988       29.5581516313      104.1641553963  LPSA30    30             22.0000000000
     33140      1074  ARHM      C5             28.3206900172       32.0893544876      104.4971300917  LPSA30    30             22.0000000000
     33141      1074  ARHM      H5             28.9462203615       32.8053531138      103.9160035995  LPSA30    30             22.0000000000
     33142      1074  ARHM      O5             28.7782298711       30.7736228180      104.1560238953  LPSA30    30             22.0000000000
     33143      1074  ARHM      C2             30.4669033496       30.9085181662      105.8279660910  LPSA30    30             22.0000000000
     33144      1074  ARHM      H2             31.5624807239       30.8190970698      106.0316700355  LPSA30    30             22.0000000000
     33145      1074  ARHM      O2             29.7061890571       29.9900917185      106.6026110682  LPSA30    30             22.0000000000
     33146      1074  ARHM      C3             30.0035377617       32.2866292352      106.2309456566  LPSA30    30             22.0000000000
     33147      1074  ARHM      H3             30.4967483898       32.9806449127      105.5253655659  LPSA30    30             22.0000000000
     33148      1074  ARHM      O3             30.4562015918       32.6556539313      107.5459815391  LPSA30    30             22.0000000000
     33149      1074  ARHM      C4             28.5221299913       32.3884213949      105.9690205294  LPSA30    30             22.0000000000
     33150      1074  ARHM      H4             27.9520205241       31.6376120560      106.5563985042  LPSA30    30             22.0000000000
     33151      1074  ARHM      O4             27.9566680784       33.6387930950      106.3293939362  LPSA30    30             22.0000000000
     33152      1074  ARHM      HO4            28.1770916384       34.3161242781      105.6850632945  LPSA30    30             22.0000000000
     33153      1074  ARHM      C6             26.8630734422       32.2637457109      104.0558465957  LPSA30    30             22.0000000000
     33154      1074  ARHM      H61            26.5521113092       33.3151691210      104.2312386390  LPSA30    30             22.0000000000
     33155      1074  ARHM      H62            26.7727088053       32.0622075750      102.9729620565  LPSA30    30             22.0000000000
     33156      1074  ARHM      H63            26.1828163491       31.5930196626      104.6273742216  LPSA30    30             22.0000000000
     33157      1075  BMANNA    C1             30.3769802735       28.8240343570      106.8943836927  LPSA30    31             23.0000000000
     33158      1075  BMANNA    H1             31.4400657245       29.0200794626      107.1536541667  LPSA30    31             23.0000000000
     33159      1075  BMANNA    C5             30.8860697125       26.6566464380      106.1682578883  LPSA30    31             23.0000000000
     33160      1075  BMANNA    H5             31.9448492727       26.9089211020      106.4553720715  LPSA30    31             23.0000000000
     33161      1075  BMANNA    O5             30.2563262228       27.8847659513      105.8300399412  LPSA30    31             23.0000000000
     33162      1075  BMANNA    C2             29.6499928490       28.3083028593      108.0973307371  LPSA30    31             23.0000000000
     33163      1075  BMANNA    H2             29.8162271748       29.0385581869      108.9239215120  LPSA30    31             23.0000000000
     33164      1075  BMANNA    N              28.2240151875       28.2025109617      107.8398534990  LPSA30    31             23.0000000000
     33165      1075  BMANNA    HN             27.9679407770       28.1903381031      106.8739957173  LPSA30    31             23.0000000000
     33166      1075  BMANNA    C              27.2990101094       28.3113761968      108.7935621943  LPSA30    31             23.0000000000
     33167      1075  BMANNA    O              27.6079106009       28.5077122017      109.9588989487  LPSA30    31             23.0000000000
     33168      1075  BMANNA    CT             25.8670970081       28.1942036896      108.3409967998  LPSA30    31             23.0000000000
     33169      1075  BMANNA    HT1            25.8007185840       27.4029421619      107.5646446082  LPSA30    31             23.0000000000
     33170      1075  BMANNA    HT2            25.5500686884       29.1674158460      107.9138044241  LPSA30    31             23.0000000000
     33171      1075  BMANNA    HT3            25.2082055608       27.9595405917      109.2015117669  LPSA30    31             23.0000000000
     33172      1075  BMANNA    C3             30.3146246320       27.0495126259      108.5103015452  LPSA30    31             23.0000000000
     33173      1075  BMANNA    H3             31.4007653922       27.2240920576      108.6905740521  LPSA30    31             23.0000000000
     33174      1075  BMANNA    O3             29.8099682102       26.5707651610      109.7387697933  LPSA30    31             23.0000000000
     33175      1075  BMANNA    HO3            29.3136164786       27.3044112876      110.1389807809  LPSA30    31             23.0000000000
     33176      1075  BMANNA    C4             30.2153905762       26.1145320802      107.3706148509  LPSA30    31             23.0000000000
     33177      1075  BMANNA    H4             29.1703085105       25.7695274232      107.1338187173  LPSA30    31             23.0000000000
     33178      1075  BMANNA    O4             31.0905563173       25.0685018957      107.5631668066  LPSA30    31             23.0000000000
     33179      1075  BMANNA    HO4            31.6731298052       25.0859980511      108.3228723351  LPSA30    31             23.0000000000
     33180      1075  BMANNA    C6             30.9837178094       25.6150698259      105.0441042258  LPSA30    31             23.0000000000
     33181      1075  BMANNA    H61            31.6718272393       24.7742339292      105.3086116699  LPSA30    31             23.0000000000
     33182      1075  BMANNA    H62            29.9939320581       25.1350854589      104.8698718582  LPSA30    31             23.0000000000
     33183      1075  BMANNA    O6             31.4321056671       26.2034929569      103.8318625493  LPSA30    31             23.0000000000
     33184      1075  BMANNA    HO6            32.3726162538       26.4139573434      103.8345498276  LPSA30    31             23.0000000000
     33185      1076  BGLCNA    C1             29.6774837819       32.1866158843      108.6164157820  LPSA30    32             23.0000000000
     33186      1076  BGLCNA    H1             29.3027009243       31.1702461215      108.4056185219  LPSA30    32             23.0000000000
     33187      1076  BGLCNA    C5             27.7051443794       32.4492420394      109.9255686954  LPSA30    32             23.0000000000
     33188      1076  BGLCNA    H5             27.3967758180       31.4272227674      109.5850673765  LPSA30    32             23.0000000000
     33189      1076  BGLCNA    O5             28.5526856432       33.0144090729      108.9144804395  LPSA30    32             23.0000000000
     33190      1076  BGLCNA    C2             30.5323433208       32.0967456023      109.8587569161  LPSA30    32             23.0000000000
     33191      1076  BGLCNA    H2             30.7658838734       33.1537628553      110.1442340283  LPSA30    32             23.0000000000
     33192      1076  BGLCNA    N              31.7590502100       31.3853907758      109.5931674641  LPSA30    32             23.0000000000
     33193      1076  BGLCNA    HN             31.6885233041       30.7218689502      108.8634937959  LPSA30    32             23.0000000000
     33194      1076  BGLCNA    C              32.9593372283       31.6262746950      110.1476812084  LPSA30    32             23.0000000000
     33195      1076  BGLCNA    O              33.1798107185       32.5066384702      110.9685031787  LPSA30    32             23.0000000000
     33196      1076  BGLCNA    CT             34.0515915906       30.7326080870      109.6092694895  LPSA30    32             23.0000000000
     33197      1076  BGLCNA    HT1            33.7122203028       30.3425383209      108.6238636259  LPSA30    32             23.0000000000
     33198      1076  BGLCNA    HT2            34.2791354138       29.9145846782      110.2590522083  LPSA30    32             23.0000000000
     33199      1076  BGLCNA    HT3            35.0006917366       31.2993077063      109.4344872144  LPSA30    32             23.0000000000
     33200      1076  BGLCNA    C3             29.7005178144       31.4269540408      110.9263957857  LPSA30    32             23.0000000000
     33201      1076  BGLCNA    H3             29.3178329415       30.4826864797      110.4728785345  LPSA30    32             23.0000000000
     33202      1076  BGLCNA    O3             30.4478348894       31.0761092764      112.1050717833  LPSA30    32             23.0000000000
     33203      1076  BGLCNA    C4             28.5124830136       32.3214955881      111.1991506758  LPSA30    32             23.0000000000
     33204      1076  BGLCNA    H4             28.8960721123       33.3242358927      111.5091615734  LPSA30    32             23.0000000000
     33205      1076  BGLCNA    O4             27.6810526609       31.8260328298      112.2311771771  LPSA30    32             23.0000000000
     33206      1076  BGLCNA    HO4            28.0118589720       32.1377408009      113.0803832288  LPSA30    32             23.0000000000
     33207      1076  BGLCNA    C6             26.4247619595       33.2555214765      110.0517464055  LPSA30    32             23.0000000000
     33208      1076  BGLCNA    H61            25.6862053167       32.7489929005      110.7119227614  LPSA30    32             23.0000000000
     33209      1076  BGLCNA    H62            26.6504995340       34.2469486777      110.5042079617  LPSA30    32             23.0000000000
     33210      1076  BGLCNA    O6             25.8032231108       33.4411001428      108.7808884064  LPSA30    32             23.0000000000
     33211      1076  BGLCNA    HO6            25.8738242010       32.6306014017      108.2612924379  LPSA30    32             23.0000000000
     33212      1077  AGAL      C1             30.0552520162       29.8437049016      112.6838719978  LPSA30    33             24.0000000000
     33213      1077  AGAL      H1             28.9528851240       29.7201914563      112.6089503246  LPSA30    33             24.0000000000
     33214      1077  AGAL      C5             32.1117374999       28.7048520026      112.2063499105  LPSA30    33             24.0000000000
     33215      1077  AGAL      H5             32.4277126693       29.7052940241      111.8380724024  LPSA30    33             24.0000000000
     33216      1077  AGAL      O5             30.6761518825       28.7005609867      112.0568867180  LPSA30    33             24.0000000000
     33217      1077  AGAL      C2             30.4566296011       29.8354318281      114.1476263835  LPSA30    33             24.0000000000
     33218      1077  AGAL      H2             30.1935419306       28.8263842190      114.5342526729  LPSA30    33             24.0000000000
     33219      1077  AGAL      O2             29.6309373706       30.7649718869      114.8780168588  LPSA30    33             24.0000000000
     33220      1077  AGAL      C3             31.9794417209       29.9283665926      114.3048002266  LPSA30    33             24.0000000000
     33221      1077  AGAL      H3             32.3677700458       30.7992432599      113.7209314885  LPSA30    33             24.0000000000
     33222      1077  AGAL      O3             32.4017895826       30.2113723749      115.6365432487  LPSA30    33             24.0000000000
     33223      1077  AGAL      HO3            32.0949044595       29.5344353967      116.2456237782  LPSA30    33             24.0000000000
     33224      1077  AGAL      C4             32.5907159263       28.6777156660      113.6566798643  LPSA30    33             24.0000000000
     33225      1077  AGAL      H4             33.6972972841       28.7633913387      113.6572021641  LPSA30    33             24.0000000000
     33226      1077  AGAL      O4             32.3034427848       27.4351451155      114.2952463232  LPSA30    33             24.0000000000
     33227      1077  AGAL      HO4            31.5543908299       27.4451698599      114.8858595696  LPSA30    33             24.0000000000
     33228      1077  AGAL      C6             32.7884985354       27.7116564949      111.2629862715  LPSA30    33             24.0000000000
     33229      1077  AGAL      H61            32.5424846519       28.0495583098      110.2363815553  LPSA30    33             24.0000000000
     33230      1077  AGAL      H62            33.8935870168       27.7546542320      111.3782123523  LPSA30    33             24.0000000000
     33231      1077  AGAL      O6             32.4146289477       26.3393052718      111.4033379309  LPSA30    33             24.0000000000
     33232      1077  AGAL      HO6            31.6309204827       26.1219316782      110.8811897133  LPSA30    33             24.0000000000
     33233      1078  ARHM      C1             29.0478381817       30.2266401003      116.0544656276  LPSA30    34             25.0000000000
     33234      1078  ARHM      H1             29.8515789794       29.7502047856      116.6540985100  LPSA30    34             25.0000000000
     33235      1078  ARHM      C5             26.9037039672       29.6898409100      115.0580471516  LPSA30    34             25.0000000000
     33236      1078  ARHM      H5             27.2677032317       29.9921137099      114.0575895700  LPSA30    34             25.0000000000
     33237      1078  ARHM      O5             28.0285987087       29.2181659178      115.8211741799  LPSA30    34             25.0000000000
     33238      1078  ARHM      C2             28.4567638304       31.3997260560      116.8111004418  LPSA30    34             25.0000000000
     33239      1078  ARHM      H2             29.2127663609       32.2028867502      116.8611622963  LPSA30    34             25.0000000000
     33240      1078  ARHM      O2             28.0707804193       31.1047687388      118.1749174491  LPSA30    34             25.0000000000
     33241      1078  ARHM      C3             27.2894006988       31.9579849642      116.0097925257  LPSA30    34             25.0000000000
     33242      1078  ARHM      H3             27.6502935056       32.2656699297      114.9977364127  LPSA30    34             25.0000000000
     33243      1078  ARHM      O3             26.7333766963       33.1225772162      116.6334412373  LPSA30    34             25.0000000000
     33244      1078  ARHM      HO3            26.3879126137       33.7451625842      115.9764061472  LPSA30    34             25.0000000000
     33245      1078  ARHM      C4             26.2643986366       30.8660705313      115.7921124590  LPSA30    34             25.0000000000
     33246      1078  ARHM      H4             25.9226857668       30.4700555263      116.7789232582  LPSA30    34             25.0000000000
     33247      1078  ARHM      O4             25.1357949782       31.3655163479      115.0756227082  LPSA30    34             25.0000000000
     33248      1078  ARHM      HO4            24.5840278049       31.8946990087      115.6676739571  LPSA30    34             25.0000000000
     33249      1078  ARHM      C6             25.8707493692       28.5683184069      114.8107291596  LPSA30    34             25.0000000000
     33250      1078  ARHM      H61            25.5447895737       28.1394458091      115.7680810840  LPSA30    34             25.0000000000
     33251      1078  ARHM      H62            24.9635180074       28.9976553649      114.3395482630  LPSA30    34             25.0000000000
     33252      1078  ARHM      H63            26.2192157321       27.7389133630      114.1677642743  LPSA30    34             25.0000000000
     33253      1079  ARHM      C1             29.0444984025       30.5700834439      119.0579545587  LPSA30    35             26.0000000000
     33254      1079  ARHM      H1             30.0336932637       31.0558501305      118.8706407949  LPSA30    35             26.0000000000
     33255      1079  ARHM      C5             27.8883637089       28.4572738934      119.2034207174  LPSA30    35             26.0000000000
     33256      1079  ARHM      H5             27.0987922981       28.8174316770      118.5074201538  LPSA30    35             26.0000000000
     33257      1079  ARHM      O5             29.1405545611       29.1298412645      118.9388973499  LPSA30    35             26.0000000000
     33258      1079  ARHM      C2             28.6482804379       30.8656931150      120.4975338915  LPSA30    35             26.0000000000
     33259      1079  ARHM      H2             28.5614307148       31.9684646952      120.6370577876  LPSA30    35             26.0000000000
     33260      1079  ARHM      O2             29.6236608946       30.3593206967      121.4239045555  LPSA30    35             26.0000000000
     33261      1079  ARHM      C3             27.3136548614       30.2386803345      120.8179678010  LPSA30    35             26.0000000000
     33262      1079  ARHM      H3             26.5459774523       30.6350608464      120.1142961023  LPSA30    35             26.0000000000
     33263      1079  ARHM      O3             26.8602558231       30.6094943358      122.1138127125  LPSA30    35             26.0000000000
     33264      1079  ARHM      HO3            27.5970725791       30.6768339259      122.7418697305  LPSA30    35             26.0000000000
     33265      1079  ARHM      C4             27.4257662670       28.7383411702      120.6386101686  LPSA30    35             26.0000000000
     33266      1079  ARHM      H4             28.1926645807       28.3216120493      121.3371593289  LPSA30    35             26.0000000000
     33267      1079  ARHM      O4             26.1815242772       28.0874879962      120.9145325172  LPSA30    35             26.0000000000
     33268      1079  ARHM      HO4            25.4362246655       28.6055505270      120.5977717094  LPSA30    35             26.0000000000
     33269      1079  ARHM      C6             28.0702432274       26.9577201788      118.8615822560  LPSA30    35             26.0000000000
     33270      1079  ARHM      H61            28.2442566322       26.8047923679      117.7757178824  LPSA30    35             26.0000000000
     33271      1079  ARHM      H62            28.9262507175       26.5395356437      119.4299541627  LPSA30    35             26.0000000000
     33272      1079  ARHM      H63            27.1336690883       26.4077248841      119.1084657569  LPSA30    35             26.0000000000
     33273      1080  BMANNA    C1             30.8206265617       31.0876108888      121.4752942187  LPSA30    36             27.0000000000
     33274      1080  BMANNA    H1             30.6618338162       32.1278337054      121.1283087714  LPSA30    36             27.0000000000
     33275      1080  BMANNA    C5             33.0462504350       31.3287040888      120.7252954918  LPSA30    36             27.0000000000
     33276      1080  BMANNA    H5             32.7881786788       32.3814240213      120.4324043512  LPSA30    36             27.0000000000
     33277      1080  BMANNA    O5             31.8503579145       30.5268206294      120.6569349845  LPSA30    36             27.0000000000
     33278      1080  BMANNA    C2             31.2884396825       31.0760503814      122.9263716222  LPSA30    36             27.0000000000
     33279      1080  BMANNA    H2             30.4695032524       31.5947552680      123.4866366276  LPSA30    36             27.0000000000
     33280      1080  BMANNA    N              31.4756155928       29.7526044563      123.5141014795  LPSA30    36             27.0000000000
     33281      1080  BMANNA    HN             31.8370363140       29.0473172643      122.9092305445  LPSA30    36             27.0000000000
     33282      1080  BMANNA    C              31.3163443775       29.5151160596      124.8343960190  LPSA30    36             27.0000000000
     33283      1080  BMANNA    O              30.9023444833       30.3409592393      125.6384169934  LPSA30    36             27.0000000000
     33284      1080  BMANNA    CT             31.7435898560       28.1516727861      125.3281454565  LPSA30    36             27.0000000000
     33285      1080  BMANNA    HT1            32.7046233133       27.8562283703      124.8618655215  LPSA30    36             27.0000000000
     33286      1080  BMANNA    HT2            30.9789882257       27.3837010026      125.1177257465  LPSA30    36             27.0000000000
     33287      1080  BMANNA    HT3            31.8597734689       28.2013207330      126.4275371761  LPSA30    36             27.0000000000
     33288      1080  BMANNA    C3             32.5413673280       31.9271866594      123.0344918894  LPSA30    36             27.0000000000
     33289      1080  BMANNA    H3             32.3235388355       32.9470065547      122.6491495271  LPSA30    36             27.0000000000
     33290      1080  BMANNA    O3             33.0353735692       32.0607808220      124.3702110639  LPSA30    36             27.0000000000
     33291      1080  BMANNA    HO3            32.8871136526       32.9451736679      124.7091001662  LPSA30    36             27.0000000000
     33292      1080  BMANNA    C4             33.5985168758       31.3621913310      122.1367598457  LPSA30    36             27.0000000000
     33293      1080  BMANNA    H4             33.8826947737       30.3368782459      122.4546689583  LPSA30    36             27.0000000000
     33294      1080  BMANNA    O4             34.7825574050       32.1306783853      122.2197463353  LPSA30    36             27.0000000000
     33295      1080  BMANNA    HO4            35.0081487267       32.1194398010      123.1584714604  LPSA30    36             27.0000000000
     33296      1080  BMANNA    C6             34.0750104090       30.8621255350      119.7360402573  LPSA30    36             27.0000000000
     33297      1080  BMANNA    H61            33.6659286541       30.8738260184      118.6973073472  LPSA30    36             27.0000000000
     33298      1080  BMANNA    H62            34.8939432577       31.5942771299      119.8144448166  LPSA30    36             27.0000000000
     33299      1080  BMANNA    O6             34.6590701440       29.6004311219      120.0436941179  LPSA30    36             27.0000000000
     33300      1080  BMANNA    HO6            35.4136209988       29.7169594530      120.6415698693  LPSA30    36             27.0000000000
     33301      1081  ECLIPA    HB6S           19.1993029443       41.3081254027       20.3978030156  LPSA31    1               0.0000000000
     33302      1081  ECLIPA    OB6            20.5706564958       40.3450125488       21.7566604710  LPSA31    1               0.0000000000
     33303      1081  ECLIPA    CB6            20.3118724941       41.1546523325       20.5765883798  LPSA31    1               0.0000000000
     33304      1081  ECLIPA    HB6R           20.8465760206       42.0347931751       20.8173547670  LPSA31    1               0.0000000000
     33305      1081  ECLIPA    CB5            21.0807120454       41.3867189011       19.3289617887  LPSA31    1               0.0000000000
     33306      1081  ECLIPA    OB5            20.9303927885       40.0787053518       18.9088978104  LPSA31    1               0.0000000000
     33307      1081  ECLIPA    HB5            22.1445168999       41.6336430763       19.6002700023  LPSA31    1               0.0000000000
     33308      1081  ECLIPA    CB1            21.6673010333       39.8713170383       17.7390152785  LPSA31    1               0.0000000000
     33309      1081  ECLIPA    HB1            22.7371204055       40.1026594381       17.9327958825  LPSA31    1               0.0000000000
     33310      1081  ECLIPA    OA6            21.5812845449       38.5419560549       17.3168404029  LPSA31    1               0.0000000000
     33311      1081  ECLIPA    CA6            20.3123544936       37.9082972947       17.5603988184  LPSA31    1               0.0000000000
     33312      1081  ECLIPA    HA6R           19.4832763588       38.6284435697       17.7578156793  LPSA31    1               0.0000000000
     33313      1081  ECLIPA    HA6S           20.4260791181       37.2443711111       18.4467964303  LPSA31    1               0.0000000000
     33314      1081  ECLIPA    CB4            20.5786902116       42.4541348857       18.3098162164  LPSA31    1               0.0000000000
     33315      1081  ECLIPA    HB4            19.5093576095       42.3131470230       18.0237144318  LPSA31    1               0.0000000000
     33316      1081  ECLIPA    OB4            20.8067375173       43.7745027689       18.7891336113  LPSA31    1               0.0000000000
     33317      1081  ECLIPA    PB             19.6378323136       44.8925169791       19.0646069712  LPSA31    1               0.0000000000
     33318      1081  ECLIPA    OPB4           20.1692783099       45.4679343454       20.3801650670  LPSA31    1               0.0000000000
     33319      1081  ECLIPA    OPB3           18.4728660793       43.9638184675       19.3177565994  LPSA31    1               0.0000000000
     33320      1081  ECLIPA    OPB2           19.5225456931       45.8432057339       17.9144485696  LPSA31    1               0.0000000000
     33321      1081  ECLIPA    CB3            21.4081482151       42.2166383609       17.0655728161  LPSA31    1               0.0000000000
     33322      1081  ECLIPA    OB3            21.0423292474       43.0032634952       15.9301121322  LPSA31    1               0.0000000000
     33323      1081  ECLIPA    HB3            22.4933863794       42.3198418135       17.3147568939  LPSA31    1               0.0000000000
     33324      1081  ECLIPA    C71            21.6095032251       44.1982014513       15.7702965207  LPSA31    1               0.0000000000
     33325      1081  ECLIPA    O71            22.6937323239       44.4893249888       16.2486312350  LPSA31    1               0.0000000000
     33326      1081  ECLIPA    C72            21.1687801282       44.7272818003       14.3802719641  LPSA31    1               0.0000000000
     33327      1081  ECLIPA    H72R           21.3786010094       43.9682229894       13.5967201857  LPSA31    1               0.0000000000
     33328      1081  ECLIPA    H72S           21.7262761259       45.6604874949       14.1663375787  LPSA31    1               0.0000000000
     33329      1081  ECLIPA    CB2            21.1955153632       40.7809372346       16.6480003402  LPSA31    1               0.0000000000
     33330      1081  ECLIPA    HB2            20.0886765092       40.6260164191       16.5060233920  LPSA31    1               0.0000000000
     33331      1081  ECLIPA    NB2            21.9535112366       40.4889904494       15.4434563372  LPSA31    1               0.0000000000
     33332      1081  ECLIPA    HNB2           22.8804987870       40.1569209381       15.5685273512  LPSA31    1               0.0000000000
     33333      1081  ECLIPA    CA4            21.1319430282       36.3100536342       15.8084854900  LPSA31    1               0.0000000000
     33334      1081  ECLIPA    HA4            21.9140883994       37.0609258501       15.5360269886  LPSA31    1               0.0000000000
     33335      1081  ECLIPA    OA4            21.5737304459       35.4584400678       16.8714471775  LPSA31    1               0.0000000000
     33336      1081  ECLIPA    HOA4           21.7599348872       36.0707432507       17.5903214107  LPSA31    1               0.0000000000
     33337      1081  ECLIPA    CA5            19.9547226902       37.0897200284       16.3374940787  LPSA31    1               0.0000000000
     33338      1081  ECLIPA    HA5            19.0771617532       36.4431446015       16.5687804326  LPSA31    1               0.0000000000
     33339      1081  ECLIPA    OA5            19.5773463509       38.0140013275       15.3352345347  LPSA31    1               0.0000000000
     33340      1081  ECLIPA    CA1            19.1668317408       37.3959004595       14.1021400970  LPSA31    1               0.0000000000
     33341      1081  ECLIPA    HA1            19.0825026475       38.2712829855       13.4215186571  LPSA31    1               0.0000000000
     33342      1081  ECLIPA    OA1            17.9293698048       36.7152247816       14.1423059043  LPSA31    1               0.0000000000
     33343      1081  ECLIPA    OPA2           16.3850980178       36.7444154343       16.0045841284  LPSA31    1               0.0000000000
     33344      1081  ECLIPA    OPA3           16.9401521312       38.9854348275       14.8663883434  LPSA31    1               0.0000000000
     33345      1081  ECLIPA    OPA4           15.5266798594       37.2893718423       13.6310339829  LPSA31    1               0.0000000000
     33346      1081  ECLIPA    PA             16.5981093427       37.5110996474       14.6967120955  LPSA31    1               0.0000000000
     33347      1081  ECLIPA    CA3            20.7929529232       35.5750733024       14.5275976041  LPSA31    1               0.0000000000
     33348      1081  ECLIPA    HA3            20.0092152395       34.8144321970       14.7243764070  LPSA31    1               0.0000000000
     33349      1081  ECLIPA    OA3            22.0019823562       34.8719275684       14.2091593420  LPSA31    1               0.0000000000
     33350      1081  ECLIPA    C31            22.9786956382       35.4800192825       13.5105169333  LPSA31    1               0.0000000000
     33351      1081  ECLIPA    O31            22.9423010687       35.6472251964       12.3059925044  LPSA31    1               0.0000000000
     33352      1081  ECLIPA    C32            24.2887298714       35.5203291856       14.2978135541  LPSA31    1               0.0000000000
     33353      1081  ECLIPA    H32R           24.9660129945       34.8446506065       13.7488771420  LPSA31    1               0.0000000000
     33354      1081  ECLIPA    H32S           24.1216268718       35.0575402925       15.2875263931  LPSA31    1               0.0000000000
     33355      1081  ECLIPA    CA2            20.3154514533       36.6019729788       13.5083557713  LPSA31    1               0.0000000000
     33356      1081  ECLIPA    HA2            21.1307217804       37.3403946782       13.3378349324  LPSA31    1               0.0000000000
     33357      1081  ECLIPA    NA2            19.9487195335       35.9827017704       12.2231058795  LPSA31    1               0.0000000000
     33358      1081  ECLIPA    HNA2           20.2159181139       35.0348009293       12.1248312864  LPSA31    1               0.0000000000
     33359      1081  ECLIPA    C73            19.6477855589       45.0030509602       14.3528973698  LPSA31    1               0.0000000000
     33360      1081  ECLIPA    H73R           19.3810561366       45.5716289418       15.2805298160  LPSA31    1               0.0000000000
     33361      1081  ECLIPA    O73            19.0116318227       43.7276349446       14.2678611839  LPSA31    1               0.0000000000
     33362      1081  ECLIPA    C81            17.8678956977       43.5391358078       14.9284698319  LPSA31    1               0.0000000000
     33363      1081  ECLIPA    O81            17.2783145452       44.3960260005       15.5616512642  LPSA31    1               0.0000000000
     33364      1081  ECLIPA    C82            17.1887536236       42.2841973591       14.3412211086  LPSA31    1               0.0000000000
     33365      1081  ECLIPA    H82R           16.2317898164       42.1037772613       14.8701898108  LPSA31    1               0.0000000000
     33366      1081  ECLIPA    H82S           17.8270985739       41.3997638769       14.5584283239  LPSA31    1               0.0000000000
     33367      1081  ECLIPA    C83            16.9575462114       42.3622707220       12.8094367115  LPSA31    1               0.0000000000
     33368      1081  ECLIPA    H83R           17.9088442977       42.1003795900       12.2899394164  LPSA31    1               0.0000000000
     33369      1081  ECLIPA    H83S           16.6903717123       43.4019277008       12.5361387757  LPSA31    1               0.0000000000
     33370      1081  ECLIPA    C84            15.9032029844       41.3671681430       12.2922984133  LPSA31    1               0.0000000000
     33371      1081  ECLIPA    H84R           14.8807036670       41.6672211456       12.6003602157  LPSA31    1               0.0000000000
     33372      1081  ECLIPA    H84S           16.1433639723       40.3788885926       12.7655955995  LPSA31    1               0.0000000000
     33373      1081  ECLIPA    C85            15.9807751394       41.1611321085       10.7708529344  LPSA31    1               0.0000000000
     33374      1081  ECLIPA    H85R           17.0692842043       41.0938236478       10.5450342968  LPSA31    1               0.0000000000
     33375      1081  ECLIPA    H85S           15.5989155975       42.0544624396       10.2351760802  LPSA31    1               0.0000000000
     33376      1081  ECLIPA    C86            15.3531053713       39.8349434664       10.2862300014  LPSA31    1               0.0000000000
     33377      1081  ECLIPA    H86R           14.2895656476       39.9748278822        9.9935932231  LPSA31    1               0.0000000000
     33378      1081  ECLIPA    H86S           15.3546933118       39.1010546324       11.1296493034  LPSA31    1               0.0000000000
     33379      1081  ECLIPA    C87            16.1687172340       39.1684482682        9.1595962832  LPSA31    1               0.0000000000
     33380      1081  ECLIPA    H87R           15.6332480735       38.2640464982        8.7972921669  LPSA31    1               0.0000000000
     33381      1081  ECLIPA    H87S           17.1384955281       38.8093815557        9.5768438866  LPSA31    1               0.0000000000
     33382      1081  ECLIPA    C88            16.4987357602       40.1342773241        8.0202616895  LPSA31    1               0.0000000000
     33383      1081  ECLIPA    H88R           17.3130556374       40.8129819919        8.3494305394  LPSA31    1               0.0000000000
     33384      1081  ECLIPA    H88S           15.6201764956       40.8028287839        7.8785158134  LPSA31    1               0.0000000000
     33385      1081  ECLIPA    C89            16.9171524510       39.4310119942        6.7157201051  LPSA31    1               0.0000000000
     33386      1081  ECLIPA    H89R           17.2653875251       38.3896471502        6.8959098023  LPSA31    1               0.0000000000
     33387      1081  ECLIPA    H89S           17.7806928197       39.9606488571        6.2587565279  LPSA31    1               0.0000000000
     33388      1081  ECLIPA    C810           15.7733764838       39.4679538565        5.6997382494  LPSA31    1               0.0000000000
     33389      1081  ECLIPA    H810R          15.1800872150       40.3786845592        5.9310028851  LPSA31    1               0.0000000000
     33390      1081  ECLIPA    H810S          15.1300931521       38.5762371186        5.8652714129  LPSA31    1               0.0000000000
     33391      1081  ECLIPA    C811           16.2432355641       39.5189350668        4.2409420142  LPSA31    1               0.0000000000
     33392      1081  ECLIPA    H811R          15.4396027205       39.1864672174        3.5417673018  LPSA31    1               0.0000000000
     33393      1081  ECLIPA    H811S          17.1070844110       38.8233677317        4.1559532981  LPSA31    1               0.0000000000
     33394      1081  ECLIPA    C812           16.7509415505       40.8893040798        3.7760513143  LPSA31    1               0.0000000000
     33395      1081  ECLIPA    H812R          17.2430148530       40.7373193361        2.7959754246  LPSA31    1               0.0000000000
     33396      1081  ECLIPA    H812S          17.5425491880       41.2598240782        4.4503211393  LPSA31    1               0.0000000000
     33397      1081  ECLIPA    C813           15.6947294494       41.9845277293        3.6445135028  LPSA31    1               0.0000000000
     33398      1081  ECLIPA    H813R          14.9091485210       41.6548880527        2.9310884966  LPSA31    1               0.0000000000
     33399      1081  ECLIPA    H813S          15.2049040963       42.1869365911        4.6261559762  LPSA31    1               0.0000000000
     33400      1081  ECLIPA    C814           16.2942924948       43.2829238152        3.1287524463  LPSA31    1               0.0000000000
     33401      1081  ECLIPA    H814R          16.9164391858       43.1397615279        2.2200532905  LPSA31    1               0.0000000000
     33402      1081  ECLIPA    H814S          16.9144820838       43.7633935403        3.9167647675  LPSA31    1               0.0000000000
     33403      1081  ECLIPA    H814T          15.4648564223       43.9595010347        2.8534123782  LPSA31    1               0.0000000000
     33404      1081  ECLIPA    C74            19.1494458534       45.8163675592       13.1245592878  LPSA31    1               0.0000000000
     33405      1081  ECLIPA    H74R           19.5832103315       46.8333242371       13.0443774730  LPSA31    1               0.0000000000
     33406      1081  ECLIPA    H74S           18.0591452106       45.9600383334       13.3212611649  LPSA31    1               0.0000000000
     33407      1081  ECLIPA    C75            19.2574209115       45.0650681702       11.7800251699  LPSA31    1               0.0000000000
     33408      1081  ECLIPA    H75R           18.3504930157       45.3202558368       11.1898638330  LPSA31    1               0.0000000000
     33409      1081  ECLIPA    H75S           19.2185492995       43.9699515376       11.9713987148  LPSA31    1               0.0000000000
     33410      1081  ECLIPA    C76            20.5083426678       45.3540491741       10.9433132072  LPSA31    1               0.0000000000
     33411      1081  ECLIPA    H76R           21.3743560979       44.8000440151       11.3725446197  LPSA31    1               0.0000000000
     33412      1081  ECLIPA    H76S           20.7742521809       46.4371775155       10.9833058928  LPSA31    1               0.0000000000
     33413      1081  ECLIPA    C77            20.3548444067       44.9436058949        9.4606548096  LPSA31    1               0.0000000000
     33414      1081  ECLIPA    H77R           19.6069278120       45.6172238906        8.9898864339  LPSA31    1               0.0000000000
     33415      1081  ECLIPA    H77S           20.0159373266       43.9165001400        9.3172574395  LPSA31    1               0.0000000000
     33416      1081  ECLIPA    C78            21.7236001033       45.0244882985        8.7986513029  LPSA31    1               0.0000000000
     33417      1081  ECLIPA    H78R           21.8904615610       46.0729780368        9.0752110377  LPSA31    1               0.0000000000
     33418      1081  ECLIPA    H78S           22.4330533574       44.3545126880        9.3361827509  LPSA31    1               0.0000000000
     33419      1081  ECLIPA    C79            21.8957292963       44.7562106841        7.2938516310  LPSA31    1               0.0000000000
     33420      1081  ECLIPA    H79R           22.1983989501       43.6951422514        7.1586210186  LPSA31    1               0.0000000000
     33421      1081  ECLIPA    H79S           22.7220232554       45.3472206630        6.8423391615  LPSA31    1               0.0000000000
     33422      1081  ECLIPA    C710           20.6758085322       45.0825322640        6.4610727839  LPSA31    1               0.0000000000
     33423      1081  ECLIPA    H710R          19.7860378172       44.5564688817        6.8658667146  LPSA31    1               0.0000000000
     33424      1081  ECLIPA    H710S          20.4972555395       46.1811914554        6.4934417408  LPSA31    1               0.0000000000
     33425      1081  ECLIPA    C711           20.8459971774       44.6668565248        5.0175814427  LPSA31    1               0.0000000000
     33426      1081  ECLIPA    H711R          21.7025979152       45.2021911959        4.5475371346  LPSA31    1               0.0000000000
     33427      1081  ECLIPA    H711S          21.0070985458       43.5651052136        4.9334616121  LPSA31    1               0.0000000000
     33428      1081  ECLIPA    C712           19.5737944084       44.9885945645        4.2915210917  LPSA31    1               0.0000000000
     33429      1081  ECLIPA    H712R          19.4026819403       46.0911026873        4.2598314335  LPSA31    1               0.0000000000
     33430      1081  ECLIPA    H712S          18.7135715270       44.5451136015        4.8457751742  LPSA31    1               0.0000000000
     33431      1081  ECLIPA    C713           19.6466347275       44.3701861539        2.9199433822  LPSA31    1               0.0000000000
     33432      1081  ECLIPA    H713R          19.6735372142       43.2654611471        2.9065575189  LPSA31    1               0.0000000000
     33433      1081  ECLIPA    H713S          18.6090842475       44.5417891767        2.6147092923  LPSA31    1               0.0000000000
     33434      1081  ECLIPA    C714           20.7476431745       44.9665739106        1.9999742417  LPSA31    1               0.0000000000
     33435      1081  ECLIPA    H714R          20.5917921625       46.0710195046        1.8748128112  LPSA31    1               0.0000000000
     33436      1081  ECLIPA    H714S          21.7792693327       44.7464062032        2.2958749747  LPSA31    1               0.0000000000
     33437      1081  ECLIPA    H714T          20.6053803619       44.5544242886        0.9740641928  LPSA31    1               0.0000000000
     33438      1081  ECLIPA    C51            21.4455157327       40.7118968311       14.2271668991  LPSA31    1               0.0000000000
     33439      1081  ECLIPA    O51            20.2564330472       40.9150753616       14.0703789968  LPSA31    1               0.0000000000
     33440      1081  ECLIPA    C52            22.3984877900       40.7605551024       13.0545318166  LPSA31    1               0.0000000000
     33441      1081  ECLIPA    H52R           22.7926720229       41.7939792282       12.9294352489  LPSA31    1               0.0000000000
     33442      1081  ECLIPA    H52S           23.2478335672       40.0890334633       13.2477143845  LPSA31    1               0.0000000000
     33443      1081  ECLIPA    C53            21.6747630072       40.3283118880       11.7620398415  LPSA31    1               0.0000000000
     33444      1081  ECLIPA    H53R           20.9159864041       39.5372823170       11.9856665169  LPSA31    1               0.0000000000
     33445      1081  ECLIPA    O53            22.7005370420       39.8915430924       10.8524202146  LPSA31    1               0.0000000000
     33446      1081  ECLIPA    C61            22.7477258244       38.6036849032       10.5266689235  LPSA31    1               0.0000000000
     33447      1081  ECLIPA    O61            21.9574990834       37.7523165477       10.8564828703  LPSA31    1               0.0000000000
     33448      1081  ECLIPA    C62            23.9379338290       38.3491547375        9.5917094567  LPSA31    1               0.0000000000
     33449      1081  ECLIPA    H62R           24.8445360100       38.2323982732       10.2150862905  LPSA31    1               0.0000000000
     33450      1081  ECLIPA    H62S           24.0683348941       39.2778975385        9.0050805917  LPSA31    1               0.0000000000
     33451      1081  ECLIPA    C63            23.7178287952       37.0837632386        8.7045044261  LPSA31    1               0.0000000000
     33452      1081  ECLIPA    H63R           22.6930306019       37.1343674444        8.2746450854  LPSA31    1               0.0000000000
     33453      1081  ECLIPA    H63S           23.7815131722       36.1628741171        9.3294255653  LPSA31    1               0.0000000000
     33454      1081  ECLIPA    C64            24.6773028405       36.9259445735        7.5083690395  LPSA31    1               0.0000000000
     33455      1081  ECLIPA    H64R           24.4796915031       35.9596054115        6.9871813484  LPSA31    1               0.0000000000
     33456      1081  ECLIPA    H64S           25.7096144366       36.9053731308        7.9207575632  LPSA31    1               0.0000000000
     33457      1081  ECLIPA    C65            24.5131127374       38.0968989578        6.5337649503  LPSA31    1               0.0000000000
     33458      1081  ECLIPA    H65R           24.7822738233       38.9904514842        7.1389889433  LPSA31    1               0.0000000000
     33459      1081  ECLIPA    H65S           23.4520294709       38.1933702632        6.2184868455  LPSA31    1               0.0000000000
     33460      1081  ECLIPA    C66            25.3871360883       38.1373636583        5.2711083523  LPSA31    1               0.0000000000
     33461      1081  ECLIPA    H66R           26.4614205931       38.0853849988        5.5511890573  LPSA31    1               0.0000000000
     33462      1081  ECLIPA    H66S           25.1878584115       39.1283476868        4.7985823021  LPSA31    1               0.0000000000
     33463      1081  ECLIPA    C67            25.1092813543       37.1006884336        4.1877210243  LPSA31    1               0.0000000000
     33464      1081  ECLIPA    H67R           25.1201802882       36.0584441582        4.5844069546  LPSA31    1               0.0000000000
     33465      1081  ECLIPA    H67S           25.8843011620       37.1863183351        3.3839726273  LPSA31    1               0.0000000000
     33466      1081  ECLIPA    C68            23.7614205653       37.1826886877        3.5128323210  LPSA31    1               0.0000000000
     33467      1081  ECLIPA    H68R           23.5295113984       38.1910222126        3.0988494623  LPSA31    1               0.0000000000
     33468      1081  ECLIPA    H68S           23.0140504028       36.9123932634        4.2877074692  LPSA31    1               0.0000000000
     33469      1081  ECLIPA    C69            23.8608030162       36.2246800401        2.3349382708  LPSA31    1               0.0000000000
     33470      1081  ECLIPA    H69R           24.4879787160       35.3265559293        2.4525745994  LPSA31    1               0.0000000000
     33471      1081  ECLIPA    H69S           24.2908617071       36.8339454265        1.5111709353  LPSA31    1               0.0000000000
     33472      1081  ECLIPA    C610           22.6105962819       35.5939656820        1.8436518114  LPSA31    1               0.0000000000
     33473      1081  ECLIPA    H610R          21.8599077808       36.4099671779        2.0174760879  LPSA31    1               0.0000000000
     33474      1081  ECLIPA    H610S          22.1085149988       34.9286129074        2.5520674098  LPSA31    1               0.0000000000
     33475      1081  ECLIPA    C611           22.9878172956       34.8993229549        0.4552464301  LPSA31    1               0.0000000000
     33476      1081  ECLIPA    H611R          23.3220921443       33.9183693763        0.5244182037  LPSA31    1               0.0000000000
     33477      1081  ECLIPA    H611S          21.9935819362       34.5697699464       -0.0037805037  LPSA31    1               0.0000000000
     33478      1081  ECLIPA    C612           23.8866577025       35.3665139228       -0.7374520901  LPSA31    1               0.0000000000
     33479      1081  ECLIPA    H612R          22.8547876521       35.5394327722       -1.0695820103  LPSA31    1               0.0000000000
     33480      1081  ECLIPA    H612S          24.5412827886       36.3272378207       -0.6667387193  LPSA31    1               0.0000000000
     33481      1081  ECLIPA    H612T          23.0558488065       35.4537580168       -1.4180542770  LPSA31    1               0.0000000000
     33482      1081  ECLIPA    C54            20.9601587597       41.5732368048       11.1705220195  LPSA31    1               0.0000000000
     33483      1081  ECLIPA    H54R           21.7545392982       42.2953255675       10.8817523351  LPSA31    1               0.0000000000
     33484      1081  ECLIPA    H54S           20.3569281800       42.0391216173       11.9772644818  LPSA31    1               0.0000000000
     33485      1081  ECLIPA    C55            20.0308776839       41.3326525776        9.9643888447  LPSA31    1               0.0000000000
     33486      1081  ECLIPA    H55R           19.3644096052       42.2089717092        9.8256889647  LPSA31    1               0.0000000000
     33487      1081  ECLIPA    H55S           19.3557184654       40.4824728364       10.2019128943  LPSA31    1               0.0000000000
     33488      1081  ECLIPA    C56            20.8637930263       41.1451998449        8.6898578837  LPSA31    1               0.0000000000
     33489      1081  ECLIPA    H56R           21.5719857968       40.3131533932        8.8595656406  LPSA31    1               0.0000000000
     33490      1081  ECLIPA    H56S           21.4711198133       42.0606890779        8.5044361319  LPSA31    1               0.0000000000
     33491      1081  ECLIPA    C57            20.1302586462       40.7756318486        7.4029956687  LPSA31    1               0.0000000000
     33492      1081  ECLIPA    H57R           19.3127105818       41.4937289577        7.1804145086  LPSA31    1               0.0000000000
     33493      1081  ECLIPA    H57S           19.6583095577       39.7764196426        7.5428588597  LPSA31    1               0.0000000000
     33494      1081  ECLIPA    C58            21.1425158609       40.6885263538        6.2397700177  LPSA31    1               0.0000000000
     33495      1081  ECLIPA    H58R           21.8130509003       41.5726324878        6.2158703387  LPSA31    1               0.0000000000
     33496      1081  ECLIPA    H58S           21.8085375539       39.8221390523        6.4607177403  LPSA31    1               0.0000000000
     33497      1081  ECLIPA    C59            20.4511482372       40.5542625622        4.8694754930  LPSA31    1               0.0000000000
     33498      1081  ECLIPA    H59R           19.7543442755       41.4106269071        4.7158777396  LPSA31    1               0.0000000000
     33499      1081  ECLIPA    H59S           19.8334653494       39.6341621274        4.9587825587  LPSA31    1               0.0000000000
     33500      1081  ECLIPA    C510           21.4047474906       40.5788965940        3.6471567591  LPSA31    1               0.0000000000
     33501      1081  ECLIPA    H510R          22.2797935892       39.9191531573        3.8236268630  LPSA31    1               0.0000000000
     33502      1081  ECLIPA    H510S          21.7911419063       41.6175025600        3.5216622881  LPSA31    1               0.0000000000
     33503      1081  ECLIPA    C511           20.7720400958       40.1904944403        2.2953482055  LPSA31    1               0.0000000000
     33504      1081  ECLIPA    H511R          20.7146813185       39.0785397938        2.2559233077  LPSA31    1               0.0000000000
     33505      1081  ECLIPA    H511S          19.7301595220       40.5721677099        2.2237106801  LPSA31    1               0.0000000000
     33506      1081  ECLIPA    C512           21.5376402226       40.7457765376        1.0690895916  LPSA31    1               0.0000000000
     33507      1081  ECLIPA    H512R          20.9239289052       40.5589010419        0.1419296957  LPSA31    1               0.0000000000
     33508      1081  ECLIPA    H512S          21.8174339443       41.8027752080        1.1412082920  LPSA31    1               0.0000000000
     33509      1081  ECLIPA    C513           22.8674647261       40.0872102767        0.8056785903  LPSA31    1               0.0000000000
     33510      1081  ECLIPA    H513R          22.3684375239       39.1891881481        0.7975254360  LPSA31    1               0.0000000000
     33511      1081  ECLIPA    H513S          23.6048012427       39.8155516589        1.5713364747  LPSA31    1               0.0000000000
     33512      1081  ECLIPA    C514           23.4828846919       40.3951430017       -0.5410533188  LPSA31    1               0.0000000000
     33513      1081  ECLIPA    H514R          23.7590835873       41.4570303916       -0.6117312306  LPSA31    1               0.0000000000
     33514      1081  ECLIPA    H514S          24.4141721848       39.7925061333       -0.6038678471  LPSA31    1               0.0000000000
     33515      1081  ECLIPA    H514T          22.7821904845       40.1572546856       -1.3808861480  LPSA31    1               0.0000000000
     33516      1081  ECLIPA    C33            24.9995485557       36.8985031347       14.4607986440  LPSA31    1               0.0000000000
     33517      1081  ECLIPA    H33R           26.0220211091       36.7016341790       14.8658456671  LPSA31    1               0.0000000000
     33518      1081  ECLIPA    O33            24.3015409828       37.6471381732       15.4367077022  LPSA31    1               0.0000000000
     33519      1081  ECLIPA    HO33           24.4677564129       37.3194167335       16.3251257485  LPSA31    1               0.0000000000
     33520      1081  ECLIPA    C34            25.1568166351       37.7831170804       13.1991612406  LPSA31    1               0.0000000000
     33521      1081  ECLIPA    H34R           24.1439982134       38.0195062779       12.8144569310  LPSA31    1               0.0000000000
     33522      1081  ECLIPA    H34S           25.6734649900       37.2105560851       12.4031486578  LPSA31    1               0.0000000000
     33523      1081  ECLIPA    C35            25.9346869620       39.1085127202       13.4359250033  LPSA31    1               0.0000000000
     33524      1081  ECLIPA    H35R           26.9765799335       38.8976573904       13.7509261442  LPSA31    1               0.0000000000
     33525      1081  ECLIPA    H35S           25.4281746374       39.6637944426       14.2596700680  LPSA31    1               0.0000000000
     33526      1081  ECLIPA    C36            25.9826188890       40.0228350361       12.2010736607  LPSA31    1               0.0000000000
     33527      1081  ECLIPA    H36R           25.0396875117       39.8084753538       11.6662653883  LPSA31    1               0.0000000000
     33528      1081  ECLIPA    H36S           26.8332037840       39.7664183248       11.5250925381  LPSA31    1               0.0000000000
     33529      1081  ECLIPA    C37            25.9816925678       41.5310422270       12.5208480479  LPSA31    1               0.0000000000
     33530      1081  ECLIPA    H37R           27.0382925345       41.8478695985       12.6641602330  LPSA31    1               0.0000000000
     33531      1081  ECLIPA    H37S           25.4517837001       41.6973046333       13.4840180752  LPSA31    1               0.0000000000
     33532      1081  ECLIPA    C38            25.3358365910       42.4252228161       11.4344538680  LPSA31    1               0.0000000000
     33533      1081  ECLIPA    H38R           24.2269550251       42.3499635930       11.4304875333  LPSA31    1               0.0000000000
     33534      1081  ECLIPA    H38S           25.5716455233       43.4855292699       11.6823743520  LPSA31    1               0.0000000000
     33535      1081  ECLIPA    C39            25.8285608949       42.0682673833       10.0230135528  LPSA31    1               0.0000000000
     33536      1081  ECLIPA    H39R           25.6449925173       40.9881605053        9.8220050968  LPSA31    1               0.0000000000
     33537      1081  ECLIPA    H39S           26.9221884785       42.2770335115        9.9810977865  LPSA31    1               0.0000000000
     33538      1081  ECLIPA    C310           25.1863432591       42.8487354760        8.8720797398  LPSA31    1               0.0000000000
     33539      1081  ECLIPA    H310R          25.5723160640       43.8898886592        8.9638093538  LPSA31    1               0.0000000000
     33540      1081  ECLIPA    H310S          24.0796043335       42.8700446024        8.9576118967  LPSA31    1               0.0000000000
     33541      1081  ECLIPA    C311           25.4708836254       42.1769741702        7.5145352363  LPSA31    1               0.0000000000
     33542      1081  ECLIPA    H311R          26.4847299171       41.7183212402        7.5270942618  LPSA31    1               0.0000000000
     33543      1081  ECLIPA    H311S          24.7393921896       41.3480395550        7.3644223364  LPSA31    1               0.0000000000
     33544      1081  ECLIPA    C312           25.3142840477       43.1017911774        6.3016826487  LPSA31    1               0.0000000000
     33545      1081  ECLIPA    H312R          24.4930510651       43.8279757699        6.4865728632  LPSA31    1               0.0000000000
     33546      1081  ECLIPA    H312S          26.2639826951       43.6683021695        6.1792945367  LPSA31    1               0.0000000000
     33547      1081  ECLIPA    C313           25.0287794612       42.3219662273        5.0055478130  LPSA31    1               0.0000000000
     33548      1081  ECLIPA    H313R          25.9782581456       41.8022299620        4.7503969408  LPSA31    1               0.0000000000
     33549      1081  ECLIPA    H313S          24.2499677593       41.5412170321        5.1742700809  LPSA31    1               0.0000000000
     33550      1081  ECLIPA    C314           24.6046946394       43.1930814256        3.8188082648  LPSA31    1               0.0000000000
     33551      1081  ECLIPA    H314R          25.3992846423       43.9353083480        3.5975867115  LPSA31    1               0.0000000000
     33552      1081  ECLIPA    H314S          24.4335058712       42.5828629397        2.9045329611  LPSA31    1               0.0000000000
     33553      1081  ECLIPA    H314T          23.6640804802       43.7390994916        4.0457198670  LPSA31    1               0.0000000000
     33554      1081  ECLIPA    C11            19.1621766841       36.5124224878       11.2541611916  LPSA31    1               0.0000000000
     33555      1081  ECLIPA    O11            18.9280683002       37.7035393210       11.0945740630  LPSA31    1               0.0000000000
     33556      1081  ECLIPA    C12            18.5529036284       35.4938342947       10.3253821503  LPSA31    1               0.0000000000
     33557      1081  ECLIPA    H12R           17.4803614107       35.3992385808       10.5617435922  LPSA31    1               0.0000000000
     33558      1081  ECLIPA    H12S           19.0512872953       34.5209249318       10.5126161455  LPSA31    1               0.0000000000
     33559      1081  ECLIPA    C13            18.7339855232       35.8503334304        8.8531938960  LPSA31    1               0.0000000000
     33560      1081  ECLIPA    H13R           18.5421981546       36.9297099546        8.6429374135  LPSA31    1               0.0000000000
     33561      1081  ECLIPA    O13            17.7859782370       35.0845688970        8.1167512935  LPSA31    1               0.0000000000
     33562      1081  ECLIPA    HO13           17.5044531078       35.4810716054        7.2865225676  LPSA31    1               0.0000000000
     33563      1081  ECLIPA    C14            20.1763645854       35.4994480267        8.4389081621  LPSA31    1               0.0000000000
     33564      1081  ECLIPA    H14R           20.5102674466       34.5728369227        8.9589795894  LPSA31    1               0.0000000000
     33565      1081  ECLIPA    H14S           20.8118862033       36.3455871671        8.7780285954  LPSA31    1               0.0000000000
     33566      1081  ECLIPA    C15            20.4224900871       35.3172141786        6.9474340042  LPSA31    1               0.0000000000
     33567      1081  ECLIPA    H15R           19.7266128181       34.5362142245        6.5695962556  LPSA31    1               0.0000000000
     33568      1081  ECLIPA    H15S           21.4562970516       34.9211771993        6.8247095741  LPSA31    1               0.0000000000
     33569      1081  ECLIPA    C16            20.2524875275       36.6339463871        6.1820470354  LPSA31    1               0.0000000000
     33570      1081  ECLIPA    H16R           21.1646908517       37.2563818881        6.2772336004  LPSA31    1               0.0000000000
     33571      1081  ECLIPA    H16S           19.4354003404       37.2248457268        6.6472018627  LPSA31    1               0.0000000000
     33572      1081  ECLIPA    C17            19.9695279827       36.3676232356        4.7084975279  LPSA31    1               0.0000000000
     33573      1081  ECLIPA    H17R           20.6768503426       35.5705286341        4.3841767551  LPSA31    1               0.0000000000
     33574      1081  ECLIPA    H17S           20.1598585217       37.2591406884        4.0739150781  LPSA31    1               0.0000000000
     33575      1081  ECLIPA    C18            18.5348636032       35.8882570777        4.5078112714  LPSA31    1               0.0000000000
     33576      1081  ECLIPA    H18R           18.3780764986       34.9826748276        5.1205828398  LPSA31    1               0.0000000000
     33577      1081  ECLIPA    H18S           17.8138708715       36.6859210390        4.8038983759  LPSA31    1               0.0000000000
     33578      1081  ECLIPA    C19            18.2652895381       35.5334496986        3.0819064265  LPSA31    1               0.0000000000
     33579      1081  ECLIPA    H19R           17.2637996178       35.0525188492        2.9527514861  LPSA31    1               0.0000000000
     33580      1081  ECLIPA    H19S           19.0291280053       34.8126684707        2.6920201924  LPSA31    1               0.0000000000
     33581      1081  ECLIPA    C110           18.3577595668       36.7975254043        2.2634022382  LPSA31    1               0.0000000000
     33582      1081  ECLIPA    H110R          17.5896130055       37.5763133437        2.5074918150  LPSA31    1               0.0000000000
     33583      1081  ECLIPA    H110S          19.3767245466       37.2140578422        2.2142930694  LPSA31    1               0.0000000000
     33584      1081  ECLIPA    C111           18.1691545258       36.2765956928        0.9072922223  LPSA31    1               0.0000000000
     33585      1081  ECLIPA    H111R          18.6990997108       35.3355713024        0.7881465585  LPSA31    1               0.0000000000
     33586      1081  ECLIPA    H111S          17.1533079484       35.9438464800        1.0742088032  LPSA31    1               0.0000000000
     33587      1081  ECLIPA    C112           18.3274457278       37.3266129258       -0.1790577543  LPSA31    1               0.0000000000
     33588      1081  ECLIPA    H112R          17.4950718021       37.7581794381        0.3837947475  LPSA31    1               0.0000000000
     33589      1081  ECLIPA    H112S          19.2163066685       37.9579917272       -0.1246676719  LPSA31    1               0.0000000000
     33590      1081  ECLIPA    C113           17.9884506646       37.0707528496       -1.6780271069  LPSA31    1               0.0000000000
     33591      1081  ECLIPA    H113R          18.8596781502       36.4742124548       -2.0554257248  LPSA31    1               0.0000000000
     33592      1081  ECLIPA    H113S          16.9363323585       36.7007935938       -1.5846732993  LPSA31    1               0.0000000000
     33593      1081  ECLIPA    C114           17.5780343318       37.6692154373       -2.9632414470  LPSA31    1               0.0000000000
     33594      1081  ECLIPA    H114R          16.7543265726       38.4073491120       -2.8247413627  LPSA31    1               0.0000000000
     33595      1081  ECLIPA    H114S          18.5990310070       38.0173993132       -3.2349506637  LPSA31    1               0.0000000000
     33596      1081  ECLIPA    H114T          17.2527363908       37.1475837134       -3.8628894460  LPSA31    1               0.0000000000
     33597      1082  AKDO      C1             22.9671743842       40.9705036571       22.5404462542  LPSA31    2               0.0000000000
     33598      1082  AKDO      O11            23.5857109992       42.0817049416       22.5342975999  LPSA31    2               0.0000000000
     33599      1082  AKDO      O12            23.3076476217       40.1161557147       21.7462397349  LPSA31    2               0.0000000000
     33600      1082  AKDO      C2             21.2894822305       40.8130585703       22.9235992683  LPSA31    2               0.0000000000
     33601      1082  AKDO      C6             19.1964362412       41.7751661241       23.9265286707  LPSA31    2               0.0000000000
     33602      1082  AKDO      H6             18.8656968395       41.3109783809       22.9744584273  LPSA31    2               0.0000000000
     33603      1082  AKDO      O6             20.5617119247       41.9613716697       23.6406216742  LPSA31    2               0.0000000000
     33604      1082  AKDO      C3             21.1575053526       39.8183727806       23.8860376907  LPSA31    2               0.0000000000
     33605      1082  AKDO      H31            21.7469825555       40.0783475421       24.6746843927  LPSA31    2               0.0000000000
     33606      1082  AKDO      H32            21.6625606280       38.9637332789       23.4440759871  LPSA31    2               0.0000000000
     33607      1082  AKDO      C4             19.8144728496       39.5107187441       24.3257341131  LPSA31    2               0.0000000000
     33608      1082  AKDO      H4             19.2271245616       39.2218037891       23.4564154767  LPSA31    2               0.0000000000
     33609      1082  AKDO      O4             19.8512039315       38.5578149627       25.3655375363  LPSA31    2               0.0000000000
     33610      1082  AKDO      C5             19.1586461726       40.6535944702       24.9466215802  LPSA31    2               0.0000000000
     33611      1082  AKDO      H5             18.0969217321       40.3205296005       25.0707166352  LPSA31    2               0.0000000000
     33612      1082  AKDO      O5             19.8862644007       40.8991571563       26.1784507346  LPSA31    2               0.0000000000
     33613      1082  AKDO      C7             18.2488196664       42.9584112337       24.0918656835  LPSA31    2               0.0000000000
     33614      1082  AKDO      H7             18.5083227109       43.4987744089       25.0227887596  LPSA31    2               0.0000000000
     33615      1082  AKDO      O7             16.9619302604       42.3114093670       23.9140778008  LPSA31    2               0.0000000000
     33616      1082  AKDO      HO7            16.2684324164       42.8406869271       23.4865765946  LPSA31    2               0.0000000000
     33617      1082  AKDO      C8             18.2221972197       44.2260073242       23.3496225247  LPSA31    2               0.0000000000
     33618      1082  AKDO      H81            19.2651227206       44.4774368747       23.1843574548  LPSA31    2               0.0000000000
     33619      1082  AKDO      H82            17.5892053222       43.9649280534       22.4348985878  LPSA31    2               0.0000000000
     33620      1082  AKDO      O8             17.9854203336       45.4764477623       23.9418314777  LPSA31    2               0.0000000000
     33621      1082  AKDO      HO8            18.0089429074       46.0767115723       23.1719751682  LPSA31    2               0.0000000000
     33622      1083  AKDO      C1             19.1734059241       36.8525026250       23.7923740836  LPSA31    3               1.0000000000
     33623      1083  AKDO      O11            19.7333319105       36.8079563414       22.6581664731  LPSA31    3               1.0000000000
     33624      1083  AKDO      O12            17.9551785823       36.6607597254       24.0838530311  LPSA31    3               1.0000000000
     33625      1083  AKDO      C2             20.0764992255       37.2271567185       25.0095607122  LPSA31    3               1.0000000000
     33626      1083  AKDO      C6             22.3689920235       37.3443349005       25.7845155076  LPSA31    3               1.0000000000
     33627      1083  AKDO      H6             22.2714442818       38.4383548650       25.9847003125  LPSA31    3               1.0000000000
     33628      1083  AKDO      O6             21.4716313936       36.9479133622       24.7255370996  LPSA31    3               1.0000000000
     33629      1083  AKDO      C3             19.7190122502       36.5071512488       26.3239027617  LPSA31    3               1.0000000000
     33630      1083  AKDO      H31            19.8107751088       35.4220699519       26.1366920801  LPSA31    3               1.0000000000
     33631      1083  AKDO      H32            18.6579525808       36.6840486514       26.5924410733  LPSA31    3               1.0000000000
     33632      1083  AKDO      C4             20.6347856884       36.9511685611       27.4337153558  LPSA31    3               1.0000000000
     33633      1083  AKDO      H4             20.5983021304       38.0669796839       27.4748702252  LPSA31    3               1.0000000000
     33634      1083  AKDO      O4             20.3007711155       36.4456515757       28.7243695976  LPSA31    3               1.0000000000
     33635      1083  AKDO      HO4            20.1427175470       37.1683995767       29.3490255995  LPSA31    3               1.0000000000
     33636      1083  AKDO      C5             22.0345679016       36.5759436601       27.0478936243  LPSA31    3               1.0000000000
     33637      1083  AKDO      H5             22.7006080890       36.8803665156       27.8796834384  LPSA31    3               1.0000000000
     33638      1083  AKDO      O5             22.2035172280       35.1727523130       26.8508475390  LPSA31    3               1.0000000000
     33639      1083  AKDO      HO5            21.4937372950       34.9221440266       26.2473033970  LPSA31    3               1.0000000000
     33640      1083  AKDO      C7             23.7864226868       37.0901755727       25.3374052541  LPSA31    3               1.0000000000
     33641      1083  AKDO      H7             23.8956542605       36.0002331179       25.1300958010  LPSA31    3               1.0000000000
     33642      1083  AKDO      O7             24.6832125937       37.4566584727       26.3886390550  LPSA31    3               1.0000000000
     33643      1083  AKDO      HO7            25.5657320468       37.1628661920       26.1315180837  LPSA31    3               1.0000000000
     33644      1083  AKDO      C8             24.0920067283       37.9069032469       24.0970228566  LPSA31    3               1.0000000000
     33645      1083  AKDO      H81            23.3197530453       37.6792952456       23.3271135760  LPSA31    3               1.0000000000
     33646      1083  AKDO      H82            24.0150939870       38.9842268174       24.3293567343  LPSA31    3               1.0000000000
     33647      1083  AKDO      O8             25.3887236659       37.6369992036       23.5318491665  LPSA31    3               1.0000000000
     33648      1083  AKDO      HO8            25.2396450663       36.7465931075       23.2190439763  LPSA31    3               1.0000000000
     33649      1084  AHEP      C1             19.1644958652       41.1792782192       27.2846557052  LPSA31    4               2.0000000000
     33650      1084  AHEP      H1             19.2812364927       42.1737230002       26.7788502396  LPSA31    4               2.0000000000
     33651      1084  AHEP      C5             17.6161972765       39.4602749060       28.1460750362  LPSA31    4               2.0000000000
     33652      1084  AHEP      H5             18.3256870936       38.8747317563       27.5881347232  LPSA31    4               2.0000000000
     33653      1084  AHEP      O5             17.8674958333       40.5497953294       27.4012580125  LPSA31    4               2.0000000000
     33654      1084  AHEP      C2             19.4952297907       41.6628710688       28.4649980036  LPSA31    4               2.0000000000
     33655      1084  AHEP      H2             20.4670447846       42.1613126933       28.1534396415  LPSA31    4               2.0000000000
     33656      1084  AHEP      O2             18.8168999638       42.9707030329       28.6649469464  LPSA31    4               2.0000000000
     33657      1084  AHEP      HO2            18.9085286731       43.3506121390       29.5628436944  LPSA31    4               2.0000000000
     33658      1084  AHEP      C3             19.4453220278       40.3296450935       29.4840734555  LPSA31    4               2.0000000000
     33659      1084  AHEP      H3             20.1495361639       39.5896852513       29.0501463916  LPSA31    4               2.0000000000
     33660      1084  AHEP      O3             19.7476530517       40.3840408589       30.9323826102  LPSA31    4               2.0000000000
     33661      1084  AHEP      C4             17.9918852395       39.8157849270       29.5002134484  LPSA31    4               2.0000000000
     33662      1084  AHEP      H4             17.1613788802       40.4265635416       29.9325873521  LPSA31    4               2.0000000000
     33663      1084  AHEP      O4             18.0336601313       38.5440325818       30.0900586977  LPSA31    4               2.0000000000
     33664      1084  AHEP      P4             17.2788084410       38.2281678062       31.5181882279  LPSA31    4               2.0000000000
     33665      1084  AHEP      OP42           18.2239125004       37.2031800292       32.1394559978  LPSA31    4               2.0000000000
     33666      1084  AHEP      OP43           15.9817671516       37.6750789491       30.9608730243  LPSA31    4               2.0000000000
     33667      1084  AHEP      OP44           17.1189839716       39.5363807358       32.2880722077  LPSA31    4               2.0000000000
     33668      1084  AHEP      C6             16.1280047209       39.0125057171       27.8345061780  LPSA31    4               2.0000000000
     33669      1084  AHEP      H6             16.1906055864       37.9353738031       28.0914210514  LPSA31    4               2.0000000000
     33670      1084  AHEP      O6             15.0813857267       39.5695533694       28.6526243289  LPSA31    4               2.0000000000
     33671      1084  AHEP      HO6            14.7719365646       38.9061897771       29.2939684147  LPSA31    4               2.0000000000
     33672      1084  AHEP      C7             15.6070881011       39.0907521712       26.3662646638  LPSA31    4               2.0000000000
     33673      1084  AHEP      H71            14.7491003087       38.3910198626       26.2078784834  LPSA31    4               2.0000000000
     33674      1084  AHEP      H72            16.4124927487       38.7924852752       25.6605993662  LPSA31    4               2.0000000000
     33675      1084  AHEP      O7             15.1399150541       40.3816924587       25.9398284932  LPSA31    4               2.0000000000
     33676      1084  AHEP      HO7            14.2634710644       40.4800879603       26.3368507176  LPSA31    4               2.0000000000
     33677      1085  AHEP      C1             20.9212225673       39.9861494723       31.6307598874  LPSA31    5               3.0000000000
     33678      1085  AHEP      H1             21.1858496302       39.0396649521       31.1140215539  LPSA31    5               3.0000000000
     33679      1085  AHEP      C5             21.8538981217       42.2438441317       32.3109950877  LPSA31    5               3.0000000000
     33680      1085  AHEP      H5             20.8076467227       42.4594769639       32.0736328482  LPSA31    5               3.0000000000
     33681      1085  AHEP      O5             22.0897023268       40.9012091568       31.7473179534  LPSA31    5               3.0000000000
     33682      1085  AHEP      C2             20.5191147258       39.8981337190       33.0860141579  LPSA31    5               3.0000000000
     33683      1085  AHEP      H2             19.6002893827       39.2783420627       33.1212423050  LPSA31    5               3.0000000000
     33684      1085  AHEP      O2             21.5714390164       39.1950233286       33.7545558344  LPSA31    5               3.0000000000
     33685      1085  AHEP      HO2            21.3925592360       38.2551371001       33.5996083808  LPSA31    5               3.0000000000
     33686      1085  AHEP      C3             20.1665143345       41.2866793442       33.7744239931  LPSA31    5               3.0000000000
     33687      1085  AHEP      H3             19.2889661087       41.7740682041       33.2910942220  LPSA31    5               3.0000000000
     33688      1085  AHEP      O3             20.0801227864       41.1190907280       35.2392903458  LPSA31    5               3.0000000000
     33689      1085  AHEP      C4             21.4132548547       42.1910810601       33.7805672484  LPSA31    5               3.0000000000
     33690      1085  AHEP      H4             21.9045947059       41.4137432498       34.2722492040  LPSA31    5               3.0000000000
     33691      1085  AHEP      O4             21.4968064483       43.3809721509       34.6123166280  LPSA31    5               3.0000000000
     33692      1085  AHEP      P4             22.6776243431       44.3938491214       35.4611851795  LPSA31    5               3.0000000000
     33693      1085  AHEP      OP42           21.5672175826       45.1105643241       36.2193843442  LPSA31    5               3.0000000000
     33694      1085  AHEP      OP43           23.8640882990       44.6236155013       34.6018687497  LPSA31    5               3.0000000000
     33695      1085  AHEP      OP44           23.5153232577       43.6090236603       36.4416158271  LPSA31    5               3.0000000000
     33696      1085  AHEP      C6             22.8449327888       43.2629834060       31.4916723569  LPSA31    5               3.0000000000
     33697      1085  AHEP      H6             22.2222740781       44.1035610380       31.3220515535  LPSA31    5               3.0000000000
     33698      1085  AHEP      O6             24.0843021266       43.4856655956       32.0893118835  LPSA31    5               3.0000000000
     33699      1085  AHEP      HO6            24.5501980280       42.6326408724       31.8583039772  LPSA31    5               3.0000000000
     33700      1085  AHEP      C7             23.0206362047       43.7334706338       30.0135907720  LPSA31    5               3.0000000000
     33701      1085  AHEP      H71            23.2931121066       44.8227757683       29.9295825299  LPSA31    5               3.0000000000
     33702      1085  AHEP      H72            22.0968393600       43.8526909358       29.4677299141  LPSA31    5               3.0000000000
     33703      1085  AHEP      O7             23.8834798576       42.8868104369       29.2980776205  LPSA31    5               3.0000000000
     33704      1086  AHEP      C1             23.4731334753       41.6241918574       28.7956758141  LPSA31    6               4.0000000000
     33705      1086  AHEP      H1             22.4158505206       41.4007543091       28.6386172588  LPSA31    6               4.0000000000
     33706      1086  AHEP      C5             25.0011073669       42.0419366676       27.0558915028  LPSA31    6               4.0000000000
     33707      1086  AHEP      H5             25.1588172610       42.9448238973       27.6064605628  LPSA31    6               4.0000000000
     33708      1086  AHEP      O5             23.7673088808       41.9767964474       27.5532312646  LPSA31    6               4.0000000000
     33709      1086  AHEP      C2             24.1330445867       40.1913256695       28.9628520140  LPSA31    6               4.0000000000
     33710      1086  AHEP      H2             23.9373433357       39.7031501732       29.9360442777  LPSA31    6               4.0000000000
     33711      1086  AHEP      O2             23.3619947288       39.1216978271       28.5148798251  LPSA31    6               4.0000000000
     33712      1086  AHEP      HO2            23.1429747870       38.6841855210       29.3585990946  LPSA31    6               4.0000000000
     33713      1086  AHEP      C3             25.6663665785       40.3377773158       28.6728456434  LPSA31    6               4.0000000000
     33714      1086  AHEP      H3             26.0641910540       41.1777427874       29.2549564998  LPSA31    6               4.0000000000
     33715      1086  AHEP      O3             26.6327251932       39.3949689558       29.1151975435  LPSA31    6               4.0000000000
     33716      1086  AHEP      HO3            26.9213260023       39.5927929351       30.0310688832  LPSA31    6               4.0000000000
     33717      1086  AHEP      C4             25.6692326657       40.7515944740       27.2309309197  LPSA31    6               4.0000000000
     33718      1086  AHEP      H4             25.2248887669       39.9147836586       26.6830255946  LPSA31    6               4.0000000000
     33719      1086  AHEP      O4             26.8626250558       40.9574328356       26.5725273120  LPSA31    6               4.0000000000
     33720      1086  AHEP      HO4            27.0854987146       41.8661267921       26.8718228628  LPSA31    6               4.0000000000
     33721      1086  AHEP      C6             24.8834752087       42.3851504047       25.5548168350  LPSA31    6               4.0000000000
     33722      1086  AHEP      H6             25.8113064434       42.6526107245       25.0230262001  LPSA31    6               4.0000000000
     33723      1086  AHEP      O6             24.6655285441       41.3183032878       24.6850103890  LPSA31    6               4.0000000000
     33724      1086  AHEP      HO6            23.9958525733       41.5373346098       24.0235699394  LPSA31    6               4.0000000000
     33725      1086  AHEP      C7             24.0204500543       43.5896289533       25.4421436288  LPSA31    6               4.0000000000
     33726      1086  AHEP      H71            24.1849621253       44.3914732234       24.8382773160  LPSA31    6               4.0000000000
     33727      1086  AHEP      H72            24.3572992339       44.3221037882       26.0977667046  LPSA31    6               4.0000000000
     33728      1086  AHEP      O7             22.6975719341       43.5819067083       25.1816815739  LPSA31    6               4.0000000000
     33729      1086  AHEP      HO7            22.3828988851       43.6954378057       26.1002131374  LPSA31    6               4.0000000000
     33730      1087  AGLC      C1             18.8213840854       40.7763319731       35.7239848818  LPSA31    7               4.0000000000
     33731      1087  AGLC      H1             18.1147706843       41.2222568786       34.9960879923  LPSA31    7               4.0000000000
     33732      1087  AGLC      C5             19.1562312521       38.5449010081       36.1239110317  LPSA31    7               4.0000000000
     33733      1087  AGLC      H5             20.2233675147       38.6860395958       35.8454114689  LPSA31    7               4.0000000000
     33734      1087  AGLC      O5             18.4427051370       39.5091239577       35.4160120933  LPSA31    7               4.0000000000
     33735      1087  AGLC      C2             18.5964322646       40.9458794065       37.3514327894  LPSA31    7               4.0000000000
     33736      1087  AGLC      H2             17.5564327873       40.7024915845       37.4768774457  LPSA31    7               4.0000000000
     33737      1087  AGLC      O2             18.5514281985       42.2038436413       38.1432595077  LPSA31    7               4.0000000000
     33738      1087  AGLC      HO2            19.4428307352       42.6318279298       38.0083125928  LPSA31    7               4.0000000000
     33739      1087  AGLC      C3             19.4666006236       39.9415814593       38.0793087391  LPSA31    7               4.0000000000
     33740      1087  AGLC      H3             20.4822868115       39.8428944955       37.5752954513  LPSA31    7               4.0000000000
     33741      1087  AGLC      O3             19.7238815166       40.3643154059       39.5061568968  LPSA31    7               4.0000000000
     33742      1087  AGLC      C4             18.9618143935       38.6709418258       37.6364669456  LPSA31    7               4.0000000000
     33743      1087  AGLC      H4             17.8878703386       38.6379675874       37.9521433655  LPSA31    7               4.0000000000
     33744      1087  AGLC      O4             19.8438705095       37.7954255569       38.2738237623  LPSA31    7               4.0000000000
     33745      1087  AGLC      HO4            19.3159008478       37.1119897915       38.6856721191  LPSA31    7               4.0000000000
     33746      1087  AGLC      C6             18.7011153016       37.2803810685       35.4967075568  LPSA31    7               4.0000000000
     33747      1087  AGLC      H61            18.8678548106       37.3517325008       34.3955390255  LPSA31    7               4.0000000000
     33748      1087  AGLC      H62            19.2884207827       36.4286779984       35.8885281293  LPSA31    7               4.0000000000
     33749      1087  AGLC      O6             17.3171143535       37.0612673384       35.7345668582  LPSA31    7               4.0000000000
     33750      1087  AGLC      HO6            17.1947215598       36.5186719292       36.5062836090  LPSA31    7               4.0000000000
     33751      1088  AGLC      C1             21.0662240123       40.6503780778       40.1076369144  LPSA31    8               5.0000000000
     33752      1088  AGLC      H1             21.7607431737       39.9726489462       39.5921208752  LPSA31    8               5.0000000000
     33753      1088  AGLC      C5             20.9166315504       43.1631056513       40.4015643182  LPSA31    8               5.0000000000
     33754      1088  AGLC      H5             20.0954897737       42.6702212433       39.9032920600  LPSA31    8               5.0000000000
     33755      1088  AGLC      O5             21.7141589706       42.0300050537       40.0020967120  LPSA31    8               5.0000000000
     33756      1088  AGLC      C2             20.9576178920       40.5772261834       41.5527140329  LPSA31    8               5.0000000000
     33757      1088  AGLC      H2             22.0210285298       40.7405158122       41.8425374041  LPSA31    8               5.0000000000
     33758      1088  AGLC      O2             20.5617304307       39.3058671224       42.0055801325  LPSA31    8               5.0000000000
     33759      1088  AGLC      C3             20.0928320026       41.6208138606       42.1385986840  LPSA31    8               5.0000000000
     33760      1088  AGLC      H3             19.1509894010       41.4719973690       41.6680366932  LPSA31    8               5.0000000000
     33761      1088  AGLC      O3             20.0591866896       41.2735543332       43.5357331626  LPSA31    8               5.0000000000
     33762      1088  AGLC      C4             20.7083610217       42.9229212879       41.7984516067  LPSA31    8               5.0000000000
     33763      1088  AGLC      H4             21.6663801976       42.7468940583       42.2913493542  LPSA31    8               5.0000000000
     33764      1088  AGLC      O4             20.0617334386       44.1287020916       42.1283061396  LPSA31    8               5.0000000000
     33765      1088  AGLC      HO4            19.1395106961       44.0464649174       42.4537331127  LPSA31    8               5.0000000000
     33766      1088  AGLC      C6             20.8069603571       44.7073934652       39.7949008324  LPSA31    8               5.0000000000
     33767      1088  AGLC      H61            20.8768030924       44.7268504026       38.6928978456  LPSA31    8               5.0000000000
     33768      1088  AGLC      H62            19.9582858232       45.3737617577       40.0226394042  LPSA31    8               5.0000000000
     33769      1088  AGLC      O6             21.4794391135       45.8158059647       40.2993450365  LPSA31    8               5.0000000000
     33770      1088  AGLC      HO6            22.0113023537       45.7293787287       41.1057544790  LPSA31    8               5.0000000000
     33771      1089  AGAL      C1             21.2673200631       38.2435883886       41.4488577057  LPSA31    9               6.0000000000
     33772      1089  AGAL      H1             21.2685935806       38.2522373249       40.3428372926  LPSA31    9               6.0000000000
     33773      1089  AGAL      C5             22.7267747064       38.0169776387       43.2903241456  LPSA31    9               6.0000000000
     33774      1089  AGAL      H5             22.0966777812       38.8107097614       43.7529198618  LPSA31    9               6.0000000000
     33775      1089  AGAL      O5             22.6386583846       38.1990873306       41.8670225699  LPSA31    9               6.0000000000
     33776      1089  AGAL      C2             20.4855294223       37.0216549494       41.8474854592  LPSA31    9               6.0000000000
     33777      1089  AGAL      H2             21.0190034631       36.1729863260       41.3699010427  LPSA31    9               6.0000000000
     33778      1089  AGAL      O2             19.1846066883       37.1448196393       41.2121339819  LPSA31    9               6.0000000000
     33779      1089  AGAL      C3             20.5596936129       36.8290041220       43.3483375166  LPSA31    9               6.0000000000
     33780      1089  AGAL      H3             20.1084533752       37.6970596769       43.8853266390  LPSA31    9               6.0000000000
     33781      1089  AGAL      O3             19.8003450380       35.7018960812       43.7538814335  LPSA31    9               6.0000000000
     33782      1089  AGAL      HO3            19.0177110119       35.7141370234       43.1970817587  LPSA31    9               6.0000000000
     33783      1089  AGAL      C4             22.0438560478       36.7158046198       43.7065312599  LPSA31    9               6.0000000000
     33784      1089  AGAL      H4             22.1595110697       36.5925035958       44.8009417620  LPSA31    9               6.0000000000
     33785      1089  AGAL      O4             22.6509236342       35.5847870442       43.1012929159  LPSA31    9               6.0000000000
     33786      1089  AGAL      HO4            23.4258846615       35.3099760424       43.6065827677  LPSA31    9               6.0000000000
     33787      1089  AGAL      C6             24.1279669537       38.2542135569       43.8528866435  LPSA31    9               6.0000000000
     33788      1089  AGAL      H61            24.4492484461       39.2841440789       43.6133426209  LPSA31    9               6.0000000000
     33789      1089  AGAL      H62            24.0994701393       38.1759073175       44.9612380725  LPSA31    9               6.0000000000
     33790      1089  AGAL      O6             25.1338788127       37.3484637860       43.4093307972  LPSA31    9               6.0000000000
     33791      1089  AGAL      HO6            25.5998955366       37.6877764363       42.6523718453  LPSA31    9               6.0000000000
     33792      1090  AGAL      C1             17.9492792230       36.6956747788       41.7352573273  LPSA31    10              7.0000000000
     33793      1090  AGAL      H1             17.9523604449       35.5928715690       41.8217564036  LPSA31    10              7.0000000000
     33794      1090  AGAL      C5             17.4491417932       38.6181939841       43.0237259654  LPSA31    10              7.0000000000
     33795      1090  AGAL      H5             18.3987352029       39.0554582213       42.6185025412  LPSA31    10              7.0000000000
     33796      1090  AGAL      O5             17.6144599040       37.2018944243       43.0385115195  LPSA31    10              7.0000000000
     33797      1090  AGAL      C2             16.8663207696       37.0968102539       40.7500815696  LPSA31    10              7.0000000000
     33798      1090  AGAL      H2             15.8985227068       36.7021184762       41.1267309979  LPSA31    10              7.0000000000
     33799      1090  AGAL      O2             16.9974691870       36.4395944561       39.4866294564  LPSA31    10              7.0000000000
     33800      1090  AGAL      HO2            16.0994386127       36.1672370764       39.2518332295  LPSA31    10              7.0000000000
     33801      1090  AGAL      C3             16.7481542954       38.6140590706       40.7047955434  LPSA31    10              7.0000000000
     33802      1090  AGAL      H3             17.7488925675       39.0493013970       40.4595868777  LPSA31    10              7.0000000000
     33803      1090  AGAL      O3             15.8322384794       39.0378493837       39.7101377819  LPSA31    10              7.0000000000
     33804      1090  AGAL      HO3            16.2991292070       39.5487987228       39.0579783106  LPSA31    10              7.0000000000
     33805      1090  AGAL      C4             16.3401274140       39.0579164012       42.0894593142  LPSA31    10              7.0000000000
     33806      1090  AGAL      H4             16.1764183793       40.1241531816       42.2023290331  LPSA31    10              7.0000000000
     33807      1090  AGAL      O4             15.0737835255       38.5733477857       42.4616201033  LPSA31    10              7.0000000000
     33808      1090  AGAL      HO4            15.1776087006       37.6490880913       42.6171828212  LPSA31    10              7.0000000000
     33809      1090  AGAL      C6             17.3599162510       39.2352703183       44.3819289649  LPSA31    10              7.0000000000
     33810      1090  AGAL      H61            18.1480911845       38.9473518658       45.0950424932  LPSA31    10              7.0000000000
     33811      1090  AGAL      H62            17.5893617521       40.2525002855       44.0085579320  LPSA31    10              7.0000000000
     33812      1090  AGAL      O6             16.0943042395       39.2056289504       45.0471532164  LPSA31    10              7.0000000000
     33813      1090  AGAL      HO6            16.1616522903       38.8214564836       45.9187905699  LPSA31    10              7.0000000000
     33814      1091  BGLC      C1             20.9976200479       41.7620740813       44.4651226828  LPSA31    11              6.0000000000
     33815      1091  BGLC      H1             20.7482379562       42.7608926916       44.5390391695  LPSA31    11              6.0000000000
     33816      1091  BGLC      C5             23.2756582611       42.1855769000       45.0042711638  LPSA31    11              6.0000000000
     33817      1091  BGLC      H5             23.1486681596       43.2691577826       45.1501032787  LPSA31    11              6.0000000000
     33818      1091  BGLC      O5             22.3568001778       41.6193322486       44.0599656392  LPSA31    11              6.0000000000
     33819      1091  BGLC      C2             20.8234719644       41.1354459734       45.8193856893  LPSA31    11              6.0000000000
     33820      1091  BGLC      H2             20.9918891863       40.0549503841       45.6940153152  LPSA31    11              6.0000000000
     33821      1091  BGLC      O2             19.5606067058       41.3197308343       46.3628192849  LPSA31    11              6.0000000000
     33822      1091  BGLC      HO2            19.0097777370       40.5467850040       46.1947870141  LPSA31    11              6.0000000000
     33823      1091  BGLC      C3             21.7043671198       41.6867848935       46.8709527718  LPSA31    11              6.0000000000
     33824      1091  BGLC      H3             21.5045566275       42.7580865018       47.0639222777  LPSA31    11              6.0000000000
     33825      1091  BGLC      O3             21.5210360727       40.8645109547       48.0562309063  LPSA31    11              6.0000000000
     33826      1091  BGLC      C4             23.0574780055       41.4855875589       46.2978574439  LPSA31    11              6.0000000000
     33827      1091  BGLC      H4             23.2221675625       40.4133827517       46.1407038170  LPSA31    11              6.0000000000
     33828      1091  BGLC      O4             24.0490918143       41.8724610026       47.1508832040  LPSA31    11              6.0000000000
     33829      1091  BGLC      HO4            23.9793900104       41.3304538613       47.9656839208  LPSA31    11              6.0000000000
     33830      1091  BGLC      C6             24.6522917696       42.0774773409       44.4415448066  LPSA31    11              6.0000000000
     33831      1091  BGLC      H61            25.5090701200       42.3045702251       45.1329348325  LPSA31    11              6.0000000000
     33832      1091  BGLC      H62            24.8599663072       41.2022532949       43.8769930083  LPSA31    11              6.0000000000
     33833      1091  BGLC      O6             24.7131888042       43.0108321765       43.4385486508  LPSA31    11              6.0000000000
     33834      1091  BGLC      HO6            25.0681538755       43.7184718230       44.0135092251  LPSA31    11              6.0000000000
     33835      1092  BGLCNA    C1             21.2636451920       41.3891049427       49.3311734887  LPSA31    12              7.0000000000
     33836      1092  BGLCNA    H1             20.2411602090       41.6257273420       49.3869696915  LPSA31    12              7.0000000000
     33837      1092  BGLCNA    C5             21.6024798885       43.2408361296       50.7671891271  LPSA31    12              7.0000000000
     33838      1092  BGLCNA    H5             20.4968730082       43.3112689130       50.9651387754  LPSA31    12              7.0000000000
     33839      1092  BGLCNA    O5             21.8701903613       42.6454668309       49.5075267926  LPSA31    12              7.0000000000
     33840      1092  BGLCNA    C2             21.6523791544       40.3631821117       50.3914803719  LPSA31    12              7.0000000000
     33841      1092  BGLCNA    H2             22.6934337168       40.1237004383       50.5531600139  LPSA31    12              7.0000000000
     33842      1092  BGLCNA    N              20.9759454514       39.1344651523       50.0615725689  LPSA31    12              7.0000000000
     33843      1092  BGLCNA    HN             19.9927827053       39.1606003251       49.9456338438  LPSA31    12              7.0000000000
     33844      1092  BGLCNA    C              21.6960668302       38.0132244832       49.9037949352  LPSA31    12              7.0000000000
     33845      1092  BGLCNA    O              22.9012792344       37.9937277520       50.0956481284  LPSA31    12              7.0000000000
     33846      1092  BGLCNA    CT             20.9662255799       36.7681844707       49.5308698479  LPSA31    12              7.0000000000
     33847      1092  BGLCNA    HT1            20.9690170988       36.0769797503       50.3991377381  LPSA31    12              7.0000000000
     33848      1092  BGLCNA    HT2            21.5009334575       36.2557218426       48.7048293431  LPSA31    12              7.0000000000
     33849      1092  BGLCNA    HT3            19.9302296929       37.0212836044       49.2316362276  LPSA31    12              7.0000000000
     33850      1092  BGLCNA    C3             21.3243740809       40.8902624127       51.7553575540  LPSA31    12              7.0000000000
     33851      1092  BGLCNA    H3             20.2533978528       40.8261179322       51.6889264075  LPSA31    12              7.0000000000
     33852      1092  BGLCNA    O3             21.6215200153       39.9355499309       52.8320400860  LPSA31    12              7.0000000000
     33853      1092  BGLCNA    C4             22.0864039635       42.3366984883       51.7802894147  LPSA31    12              7.0000000000
     33854      1092  BGLCNA    H4             23.1078130559       42.3128731032       51.4803946608  LPSA31    12              7.0000000000
     33855      1092  BGLCNA    O4             22.2363426912       43.2335887105       52.8563633735  LPSA31    12              7.0000000000
     33856      1092  BGLCNA    HO4            21.3403959383       43.4661035885       53.1465372122  LPSA31    12              7.0000000000
     33857      1092  BGLCNA    C6             22.4750133480       44.5292435862       50.7696288029  LPSA31    12              7.0000000000
     33858      1092  BGLCNA    H61            22.2818498366       45.1624105636       51.6907297025  LPSA31    12              7.0000000000
     33859      1092  BGLCNA    H62            23.5562017846       44.3097126337       50.8104793397  LPSA31    12              7.0000000000
     33860      1092  BGLCNA    O6             22.2505613840       45.2643573263       49.5635782219  LPSA31    12              7.0000000000
     33861      1092  BGLCNA    HO6            21.4143743525       45.7853906146       49.5607185347  LPSA31    12              7.0000000000
     33862      1093  AGAL      C1             20.6656956125       39.5293527185       53.8803331187  LPSA31    13              8.0000000000
     33863      1093  AGAL      H1             20.0867342197       40.2500813480       54.4596361783  LPSA31    13              8.0000000000
     33864      1093  AGAL      C5             20.0465903055       37.4056774386       53.2529679168  LPSA31    13              8.0000000000
     33865      1093  AGAL      H5             20.8874047658       37.5239337304       52.5363327133  LPSA31    13              8.0000000000
     33866      1093  AGAL      O5             19.5789552104       38.7335542608       53.4241160361  LPSA31    13              8.0000000000
     33867      1093  AGAL      C2             21.2766866185       38.9863491017       55.1659248179  LPSA31    13              8.0000000000
     33868      1093  AGAL      H2             20.3934765520       38.8685011644       55.8446041349  LPSA31    13              8.0000000000
     33869      1093  AGAL      O2             22.1952395830       39.8852246770       55.8336457426  LPSA31    13              8.0000000000
     33870      1093  AGAL      C3             21.8158354356       37.6268442492       54.9010981270  LPSA31    13              8.0000000000
     33871      1093  AGAL      H3             22.5027414963       37.6833487857       54.0254625324  LPSA31    13              8.0000000000
     33872      1093  AGAL      O3             22.5492042308       37.0991578332       55.9970984282  LPSA31    13              8.0000000000
     33873      1093  AGAL      HO3            23.3274200095       36.6783300433       55.6512481088  LPSA31    13              8.0000000000
     33874      1093  AGAL      C4             20.6432341701       36.7774520711       54.5195934080  LPSA31    13              8.0000000000
     33875      1093  AGAL      H4             21.0244199171       35.7734815465       54.2333449777  LPSA31    13              8.0000000000
     33876      1093  AGAL      O4             19.7290961375       36.5977042562       55.6046288804  LPSA31    13              8.0000000000
     33877      1093  AGAL      HO4            19.4431052000       37.4388942844       56.0041352184  LPSA31    13              8.0000000000
     33878      1093  AGAL      C6             19.0795648556       36.5289462695       52.5295725165  LPSA31    13              8.0000000000
     33879      1093  AGAL      H61            18.7484894553       37.0355687970       51.5983730227  LPSA31    13              8.0000000000
     33880      1093  AGAL      H62            19.6058620832       35.5796908458       52.2911798561  LPSA31    13              8.0000000000
     33881      1093  AGAL      O6             17.9346452366       36.2091671004       53.2878812869  LPSA31    13              8.0000000000
     33882      1093  AGAL      HO6            18.1431627052       35.5378047297       53.9561115624  LPSA31    13              8.0000000000
     33883      1094  ARHM      C1             21.8240847313       40.4938200546       57.0543007924  LPSA31    14              9.0000000000
     33884      1094  ARHM      H1             20.6943427055       40.5843614521       57.0424593714  LPSA31    14              9.0000000000
     33885      1094  ARHM      C5             23.9076382393       41.9295012130       57.2366605463  LPSA31    14              9.0000000000
     33886      1094  ARHM      H5             24.3009295823       41.3959691757       56.3509503773  LPSA31    14              9.0000000000
     33887      1094  ARHM      O5             22.4287325982       41.8118324786       57.3993038190  LPSA31    14              9.0000000000
     33888      1094  ARHM      C2             22.4107032910       39.5170696093       57.9672860259  LPSA31    14              9.0000000000
     33889      1094  ARHM      H2             22.0274939533       38.5202323899       57.6859721798  LPSA31    14              9.0000000000
     33890      1094  ARHM      O2             21.9039399459       39.3351560524       59.2160032815  LPSA31    14              9.0000000000
     33891      1094  ARHM      C3             23.9634600918       39.6161342132       57.8508121146  LPSA31    14              9.0000000000
     33892      1094  ARHM      H3             24.2448033035       39.3290589616       56.8172516696  LPSA31    14              9.0000000000
     33893      1094  ARHM      O3             24.4977457259       38.6400885114       58.7336917011  LPSA31    14              9.0000000000
     33894      1094  ARHM      HO3            24.2869220124       38.8273005450       59.6642715491  LPSA31    14              9.0000000000
     33895      1094  ARHM      C4             24.5962290118       41.0537278430       58.1508104686  LPSA31    14              9.0000000000
     33896      1094  ARHM      H4             24.4326190263       41.8774516358       58.8840636496  LPSA31    14              9.0000000000
     33897      1094  ARHM      O4             25.9776649931       41.0647190535       58.4939039889  LPSA31    14              9.0000000000
     33898      1094  ARHM      HO4            26.0855848407       41.3941279876       59.4059895792  LPSA31    14              9.0000000000
     33899      1094  ARHM      C6             24.3017556984       43.4207116361       57.4350852584  LPSA31    14              9.0000000000
     33900      1094  ARHM      H61            23.9700318681       44.1457006092       56.7575105116  LPSA31    14              9.0000000000
     33901      1094  ARHM      H62            24.0318148703       43.8302441908       58.4264053037  LPSA31    14              9.0000000000
     33902      1094  ARHM      H63            25.3081297271       43.6590344163       57.1119592316  LPSA31    14              9.0000000000
     33903      1095  ARHM      C1             20.8754806921       40.0816508824       59.5995850833  LPSA31    15             10.0000000000
     33904      1095  ARHM      H1             20.0372113330       39.6330082092       58.9547126752  LPSA31    15             10.0000000000
     33905      1095  ARHM      C5             21.3504186481       42.3684262835       60.4488992916  LPSA31    15             10.0000000000
     33906      1095  ARHM      H5             22.3408228482       42.6890457408       60.2565214456  LPSA31    15             10.0000000000
     33907      1095  ARHM      O5             20.7096764505       41.5865430309       59.3432136286  LPSA31    15             10.0000000000
     33908      1095  ARHM      C2             20.4160902915       39.4603199343       61.0392958011  LPSA31    15             10.0000000000
     33909      1095  ARHM      H2             20.8104879401       38.4247854833       61.1637456641  LPSA31    15             10.0000000000
     33910      1095  ARHM      O2             18.9803157323       39.2411711040       61.2540890399  LPSA31    15             10.0000000000
     33911      1095  ARHM      C3             21.2061391655       40.3374722814       62.1061562949  LPSA31    15             10.0000000000
     33912      1095  ARHM      H3             22.2613809031       40.3728612362       61.9379425360  LPSA31    15             10.0000000000
     33913      1095  ARHM      O3             21.0298972139       39.8140692612       63.4220554971  LPSA31    15             10.0000000000
     33914      1095  ARHM      C4             20.9126719525       41.8578290013       61.9572395476  LPSA31    15             10.0000000000
     33915      1095  ARHM      H4             19.9298213759       41.8407364896       62.5221966256  LPSA31    15             10.0000000000
     33916      1095  ARHM      O4             21.5889178299       42.6803445070       62.7624646592  LPSA31    15             10.0000000000
     33917      1095  ARHM      HO4            20.9826710603       43.4471515122       62.9545689337  LPSA31    15             10.0000000000
     33918      1095  ARHM      C6             20.6402835353       43.7986190611       60.3183833493  LPSA31    15             10.0000000000
     33919      1095  ARHM      H61            20.7712474935       44.6739954428       60.9991214748  LPSA31    15             10.0000000000
     33920      1095  ARHM      H62            20.4858813173       44.1810229752       59.2907557423  LPSA31    15             10.0000000000
     33921      1095  ARHM      H63            19.6364069662       43.5956505615       60.6643356813  LPSA31    15             10.0000000000
     33922      1096  BMANNA    C1             18.3700218217       39.1600762022       62.5157628422  LPSA31    16             11.0000000000
     33923      1096  BMANNA    H1             18.6885474520       39.9360767265       63.2479098600  LPSA31    16             11.0000000000
     33924      1096  BMANNA    C5             18.1931298452       37.5965981369       64.2321082683  LPSA31    16             11.0000000000
     33925      1096  BMANNA    H5             18.4533871435       38.4091241475       64.9544979390  LPSA31    16             11.0000000000
     33926      1096  BMANNA    O5             18.7588092434       37.9030624545       62.9742360873  LPSA31    16             11.0000000000
     33927      1096  BMANNA    C2             16.8530548458       39.1911324720       62.3338333707  LPSA31    16             11.0000000000
     33928      1096  BMANNA    H2             16.6454799312       40.2466556903       62.1166103033  LPSA31    16             11.0000000000
     33929      1096  BMANNA    N              16.3315559712       38.3680466723       61.2532050490  LPSA31    16             11.0000000000
     33930      1096  BMANNA    HN             16.0622040554       37.4699826145       61.5667616148  LPSA31    16             11.0000000000
     33931      1096  BMANNA    C              16.1533716758       38.7222245974       59.9677540595  LPSA31    16             11.0000000000
     33932      1096  BMANNA    O              16.3948594403       39.8340053146       59.5146198581  LPSA31    16             11.0000000000
     33933      1096  BMANNA    CT             15.6660347045       37.6433799986       59.0416835219  LPSA31    16             11.0000000000
     33934      1096  BMANNA    HT1            14.5800335207       37.7079824968       58.8731785049  LPSA31    16             11.0000000000
     33935      1096  BMANNA    HT2            15.8916578321       36.6485274582       59.4050237504  LPSA31    16             11.0000000000
     33936      1096  BMANNA    HT3            16.2121363562       37.6972026832       58.0824224489  LPSA31    16             11.0000000000
     33937      1096  BMANNA    C3             16.1873483479       38.8623330035       63.6600199754  LPSA31    16             11.0000000000
     33938      1096  BMANNA    H3             16.4773370027       39.6081609011       64.4247815735  LPSA31    16             11.0000000000
     33939      1096  BMANNA    O3             14.7665518429       38.8752668397       63.5832739185  LPSA31    16             11.0000000000
     33940      1096  BMANNA    HO3            14.4260401908       39.5613453244       64.1927380750  LPSA31    16             11.0000000000
     33941      1096  BMANNA    C4             16.6913128382       37.5262038618       64.1236234690  LPSA31    16             11.0000000000
     33942      1096  BMANNA    H4             16.4017415657       36.7464953927       63.3809058019  LPSA31    16             11.0000000000
     33943      1096  BMANNA    O4             16.1634406491       37.1359031641       65.3824856530  LPSA31    16             11.0000000000
     33944      1096  BMANNA    HO4            16.1686645632       36.1772395883       65.4285083656  LPSA31    16             11.0000000000
     33945      1096  BMANNA    C6             18.7845451734       36.3253897180       64.7585743955  LPSA31    16             11.0000000000
     33946      1096  BMANNA    H61            18.7561729197       36.3876527555       65.8592686863  LPSA31    16             11.0000000000
     33947      1096  BMANNA    H62            18.1625135466       35.4678688151       64.4258219796  LPSA31    16             11.0000000000
     33948      1096  BMANNA    O6             20.1298420643       36.0702267944       64.3728574015  LPSA31    16             11.0000000000
     33949      1096  BMANNA    HO6            20.1456592853       35.2401225360       63.8871781047  LPSA31    16             11.0000000000
     33950      1097  BGLCNA    C1             22.2139311084       39.8710702192       64.1541061744  LPSA31    17             11.0000000000
     33951      1097  BGLCNA    H1             22.7026317466       40.8616341685       63.9922753787  LPSA31    17             11.0000000000
     33952      1097  BGLCNA    C5             24.3209013566       38.8132670126       64.5691008687  LPSA31    17             11.0000000000
     33953      1097  BGLCNA    H5             24.8865284189       39.7536987586       64.3572728206  LPSA31    17             11.0000000000
     33954      1097  BGLCNA    O5             23.1145534781       38.8303032734       63.7910989154  LPSA31    17             11.0000000000
     33955      1097  BGLCNA    C2             21.7610573606       39.7009200313       65.5612967648  LPSA31    17             11.0000000000
     33956      1097  BGLCNA    H2             21.2861523851       38.7074937841       65.7388102842  LPSA31    17             11.0000000000
     33957      1097  BGLCNA    N              20.7592706979       40.6610086003       65.8629545246  LPSA31    17             11.0000000000
     33958      1097  BGLCNA    HN             20.7928123585       41.5230054395       65.3735212450  LPSA31    17             11.0000000000
     33959      1097  BGLCNA    C              19.8495968312       40.5021973838       66.8118222394  LPSA31    17             11.0000000000
     33960      1097  BGLCNA    O              19.5753015100       39.5144618907       67.4650388442  LPSA31    17             11.0000000000
     33961      1097  BGLCNA    CT             19.2484725195       41.7785838627       67.0522928578  LPSA31    17             11.0000000000
     33962      1097  BGLCNA    HT1            18.4152245500       41.9471698002       66.3118313597  LPSA31    17             11.0000000000
     33963      1097  BGLCNA    HT2            20.0487471646       42.4987999757       66.9661449129  LPSA31    17             11.0000000000
     33964      1097  BGLCNA    HT3            18.9757748552       42.0067667720       68.0918624261  LPSA31    17             11.0000000000
     33965      1097  BGLCNA    C3             22.9911084002       39.8166715495       66.4001005841  LPSA31    17             11.0000000000
     33966      1097  BGLCNA    H3             23.4696498051       40.7675938568       66.0577177644  LPSA31    17             11.0000000000
     33967      1097  BGLCNA    O3             22.5937324910       39.8930213617       67.7721373414  LPSA31    17             11.0000000000
     33968      1097  BGLCNA    C4             23.9200826328       38.6814763680       66.0369178006  LPSA31    17             11.0000000000
     33969      1097  BGLCNA    H4             23.3493080784       37.7259190599       66.1385700451  LPSA31    17             11.0000000000
     33970      1097  BGLCNA    O4             25.0614347009       38.6166140990       66.8950890639  LPSA31    17             11.0000000000
     33971      1097  BGLCNA    HO4            25.5822466089       37.8315273995       66.7083074116  LPSA31    17             11.0000000000
     33972      1097  BGLCNA    C6             25.1955614450       37.6449325744       64.1262644649  LPSA31    17             11.0000000000
     33973      1097  BGLCNA    H61            26.2646514924       37.9303605732       64.1644646477  LPSA31    17             11.0000000000
     33974      1097  BGLCNA    H62            25.0474061302       36.7814102901       64.8104953329  LPSA31    17             11.0000000000
     33975      1097  BGLCNA    O6             24.9316838973       37.1734106132       62.8130872567  LPSA31    17             11.0000000000
     33976      1097  BGLCNA    HO6            25.0032753609       37.8906727029       62.1804588161  LPSA31    17             11.0000000000
     33977      1098  AGAL      C1             23.4533186350       40.6975115494       68.5159325985  LPSA31    18             12.0000000000
     33978      1098  AGAL      H1             24.4169212937       40.1913297567       68.7305711232  LPSA31    18             12.0000000000
     33979      1098  AGAL      C5             22.6777153980       42.7972713796       67.7796791371  LPSA31    18             12.0000000000
     33980      1098  AGAL      H5             21.8698311172       42.2129717965       67.3521666593  LPSA31    18             12.0000000000
     33981      1098  AGAL      O5             23.7826795157       41.9159354427       67.8675945958  LPSA31    18             12.0000000000
     33982      1098  AGAL      C2             22.9108194576       41.0069246983       69.8538969371  LPSA31    18             12.0000000000
     33983      1098  AGAL      H2             23.7426452468       41.6949027726       70.1465963040  LPSA31    18             12.0000000000
     33984      1098  AGAL      O2             22.7574511503       39.8811111955       70.7280634806  LPSA31    18             12.0000000000
     33985      1098  AGAL      C3             21.7030971891       41.8246140719       69.8240185633  LPSA31    18             12.0000000000
     33986      1098  AGAL      H3             20.9085674883       41.4368682882       69.1419216190  LPSA31    18             12.0000000000
     33987      1098  AGAL      O3             21.0699988025       41.8412206660       71.0739387315  LPSA31    18             12.0000000000
     33988      1098  AGAL      HO3            20.0982151938       41.8587846776       70.9795755331  LPSA31    18             12.0000000000
     33989      1098  AGAL      C4             22.1153792146       43.1429522481       69.2115130157  LPSA31    18             12.0000000000
     33990      1098  AGAL      H4             21.1145849651       43.5107662930       69.2441765113  LPSA31    18             12.0000000000
     33991      1098  AGAL      O4             22.7917817244       44.1581044928       69.9600006826  LPSA31    18             12.0000000000
     33992      1098  AGAL      HO4            22.3599052980       44.4980225356       70.7678639463  LPSA31    18             12.0000000000
     33993      1098  AGAL      C6             23.0759288110       43.7719670346       66.6420376614  LPSA31    18             12.0000000000
     33994      1098  AGAL      H61            23.2855593388       43.2387281526       65.6923325375  LPSA31    18             12.0000000000
     33995      1098  AGAL      H62            22.4009822133       44.4997689340       66.2843644079  LPSA31    18             12.0000000000
     33996      1098  AGAL      O6             23.7595417535       44.9385796076       66.9620215712  LPSA31    18             12.0000000000
     33997      1098  AGAL      HO6            24.4239956995       44.6173621384       67.5902542208  LPSA31    18             12.0000000000
     33998      1099  ARHM      C1             23.0532871483       40.1683279789       72.0536293216  LPSA31    19             13.0000000000
     33999      1099  ARHM      H1             22.5160212722       41.0165189478       72.4326596463  LPSA31    19             13.0000000000
     34000      1099  ARHM      C5             25.0016184509       38.9369934884       72.1733725372  LPSA31    19             13.0000000000
     34001      1099  ARHM      H5             24.7392143270       38.6010851570       71.1564442080  LPSA31    19             13.0000000000
     34002      1099  ARHM      O5             24.4566389980       40.2286168649       72.1972926277  LPSA31    19             13.0000000000
     34003      1099  ARHM      C2             22.3438006289       39.4082342405       73.1212098661  LPSA31    19             13.0000000000
     34004      1099  ARHM      H2             21.2473413874       39.4813740630       72.8952502955  LPSA31    19             13.0000000000
     34005      1099  ARHM      O2             22.5763007396       39.8580471491       74.4886379104  LPSA31    19             13.0000000000
     34006      1099  ARHM      C3             22.8570343541       38.0809447160       72.9792440005  LPSA31    19             13.0000000000
     34007      1099  ARHM      H3             22.7202519362       37.7924922884       71.9091323280  LPSA31    19             13.0000000000
     34008      1099  ARHM      O3             22.0888886457       37.2450820462       73.7987256207  LPSA31    19             13.0000000000
     34009      1099  ARHM      HO3            22.0803314024       37.6244647253       74.6772909605  LPSA31    19             13.0000000000
     34010      1099  ARHM      C4             24.3424588598       38.0851100336       73.2382596323  LPSA31    19             13.0000000000
     34011      1099  ARHM      H4             24.5355473166       38.4427501520       74.2763050252  LPSA31    19             13.0000000000
     34012      1099  ARHM      O4             24.8610995680       36.7997415025       73.1564847558  LPSA31    19             13.0000000000
     34013      1099  ARHM      HO4            24.7246914816       36.4528671217       72.2681425888  LPSA31    19             13.0000000000
     34014      1099  ARHM      C6             26.5424402324       38.9601994542       72.2639384413  LPSA31    19             13.0000000000
     34015      1099  ARHM      H61            26.8890575258       39.6546572794       71.4758546039  LPSA31    19             13.0000000000
     34016      1099  ARHM      H62            26.9572793599       39.2949459472       73.2388469340  LPSA31    19             13.0000000000
     34017      1099  ARHM      H63            26.9476831806       37.9438441995       72.0614710971  LPSA31    19             13.0000000000
     34018      1100  ARHM      C1             21.9829457255       41.0761166979       74.8098986307  LPSA31    20             14.0000000000
     34019      1100  ARHM      H1             21.4408318585       41.4565627482       73.9695094163  LPSA31    20             14.0000000000
     34020      1100  ARHM      C5             23.5645757352       42.3959136456       75.9250267485  LPSA31    20             14.0000000000
     34021      1100  ARHM      H5             24.1773646670       41.5059525583       76.2662358159  LPSA31    20             14.0000000000
     34022      1100  ARHM      O5             22.7698610141       42.2565897569       74.7909402741  LPSA31    20             14.0000000000
     34023      1100  ARHM      C2             21.0725833944       40.8584985051       76.0118096050  LPSA31    20             14.0000000000
     34024      1100  ARHM      H2             20.6542006966       39.8221788856       75.9059975136  LPSA31    20             14.0000000000
     34025      1100  ARHM      O2             20.0163335338       41.7228780270       76.4970202600  LPSA31    20             14.0000000000
     34026      1100  ARHM      C3             21.9990004291       40.9184432274       77.1641697328  LPSA31    20             14.0000000000
     34027      1100  ARHM      H3             22.7011130761       40.0653071430       76.9966562540  LPSA31    20             14.0000000000
     34028      1100  ARHM      O3             21.1953196838       40.6568989318       78.3182381112  LPSA31    20             14.0000000000
     34029      1100  ARHM      C4             22.7503425763       42.3540532414       77.0575542134  LPSA31    20             14.0000000000
     34030      1100  ARHM      H4             21.9569104933       43.0249945939       77.1852709615  LPSA31    20             14.0000000000
     34031      1100  ARHM      O4             23.6881838849       43.0655859447       77.8449478682  LPSA31    20             14.0000000000
     34032      1100  ARHM      HO4            24.4737070657       42.5147930021       78.0400658112  LPSA31    20             14.0000000000
     34033      1100  ARHM      C6             24.4996851481       43.6236786290       75.7859630920  LPSA31    20             14.0000000000
     34034      1100  ARHM      H61            23.8589521819       44.4851938739       75.9289010193  LPSA31    20             14.0000000000
     34035      1100  ARHM      H62            25.3704254960       43.5966529208       76.5110241310  LPSA31    20             14.0000000000
     34036      1100  ARHM      H63            24.8146310873       43.8626192292       74.8188204120  LPSA31    20             14.0000000000
     34037      1101  BMANNA    C1             18.8595158269       41.6620877523       75.7557974074  LPSA31    21             15.0000000000
     34038      1101  BMANNA    H1             18.9243818981       40.6320769305       75.3640140629  LPSA31    21             15.0000000000
     34039      1101  BMANNA    C5             17.4822496813       42.5136853511       73.8747473782  LPSA31    21             15.0000000000
     34040      1101  BMANNA    H5             17.4575115587       41.5774787656       73.2592940804  LPSA31    21             15.0000000000
     34041      1101  BMANNA    O5             18.5769929518       42.7519174954       74.8066584572  LPSA31    21             15.0000000000
     34042      1101  BMANNA    C2             17.7351176550       41.4972399788       76.5608373975  LPSA31    21             15.0000000000
     34043      1101  BMANNA    H2             17.9802982211       40.5525500660       77.1086479318  LPSA31    21             15.0000000000
     34044      1101  BMANNA    N              17.5933829306       42.6374760403       77.4165705430  LPSA31    21             15.0000000000
     34045      1101  BMANNA    HN             17.5412856282       43.5494742380       76.9852529826  LPSA31    21             15.0000000000
     34046      1101  BMANNA    C              17.2704995377       42.3532650505       78.7043396347  LPSA31    21             15.0000000000
     34047      1101  BMANNA    O              17.1732653436       41.2129473804       79.0735464146  LPSA31    21             15.0000000000
     34048      1101  BMANNA    CT             16.7071564937       43.4935203866       79.5217391977  LPSA31    21             15.0000000000
     34049      1101  BMANNA    HT1            15.9699141542       44.2416841358       79.2040944589  LPSA31    21             15.0000000000
     34050      1101  BMANNA    HT2            17.4621497126       43.9592945016       79.0045755330  LPSA31    21             15.0000000000
     34051      1101  BMANNA    HT3            16.9597153007       43.6061333758       80.5815712230  LPSA31    21             15.0000000000
     34052      1101  BMANNA    C3             16.6185014063       41.2159812357       75.6042740968  LPSA31    21             15.0000000000
     34053      1101  BMANNA    H3             16.9704130537       40.3914311800       74.9498369507  LPSA31    21             15.0000000000
     34054      1101  BMANNA    O3             15.5197039224       40.6376159577       76.1925701851  LPSA31    21             15.0000000000
     34055      1101  BMANNA    HO3            15.1464069574       41.3794217226       76.7029391482  LPSA31    21             15.0000000000
     34056      1101  BMANNA    C4             16.3005927099       42.3216240447       74.6857234425  LPSA31    21             15.0000000000
     34057      1101  BMANNA    H4             15.8232724228       43.2110414813       75.1221330286  LPSA31    21             15.0000000000
     34058      1101  BMANNA    O4             15.3603956508       41.8406505072       73.8438583735  LPSA31    21             15.0000000000
     34059      1101  BMANNA    HO4            14.6113362760       42.4519653630       73.8304424028  LPSA31    21             15.0000000000
     34060      1101  BMANNA    C6             17.3550291748       43.4117392863       72.7118980425  LPSA31    21             15.0000000000
     34061      1101  BMANNA    H61            16.7042327887       43.0599086115       71.8849524594  LPSA31    21             15.0000000000
     34062      1101  BMANNA    H62            17.1079507539       44.3179250067       73.1872053083  LPSA31    21             15.0000000000
     34063      1101  BMANNA    O6             18.2950243749       44.2169166001       72.1918381740  LPSA31    21             15.0000000000
     34064      1101  BMANNA    HO6            18.9826856886       44.5345340668       72.8001916957  LPSA31    21             15.0000000000
     34065      1102  BGLCNA    C1             21.5720319445       39.6862436235       79.2615307368  LPSA31    22             15.0000000000
     34066      1102  BGLCNA    H1             22.6316373949       39.4431119473       79.2333947839  LPSA31    22             15.0000000000
     34067      1102  BGLCNA    C5             21.7309273738       37.5425981745       80.0759762764  LPSA31    22             15.0000000000
     34068      1102  BGLCNA    H5             22.8546685180       37.6437804597       80.1028440216  LPSA31    22             15.0000000000
     34069      1102  BGLCNA    O5             21.1671592134       38.3782055840       79.0387655211  LPSA31    22             15.0000000000
     34070      1102  BGLCNA    C2             21.0949735448       40.2636899200       80.5704708743  LPSA31    22             15.0000000000
     34071      1102  BGLCNA    H2             19.9813333184       40.2462611787       80.5380098346  LPSA31    22             15.0000000000
     34072      1102  BGLCNA    N              21.5213106612       41.6509181863       80.7300948707  LPSA31    22             15.0000000000
     34073      1102  BGLCNA    HN             22.4457675630       41.8539729069       80.4543659991  LPSA31    22             15.0000000000
     34074      1102  BGLCNA    C              21.0022404422       42.7773842072       81.1380401726  LPSA31    22             15.0000000000
     34075      1102  BGLCNA    O              19.9488923721       43.1674890834       81.4344936924  LPSA31    22             15.0000000000
     34076      1102  BGLCNA    CT             21.6681017894       43.9170668349       81.3395918501  LPSA31    22             15.0000000000
     34077      1102  BGLCNA    HT1            21.1288011977       44.5164601214       80.5424469033  LPSA31    22             15.0000000000
     34078      1102  BGLCNA    HT2            22.7357565849       43.8737703043       81.2022786214  LPSA31    22             15.0000000000
     34079      1102  BGLCNA    HT3            21.3539364917       44.4176804936       82.3011722659  LPSA31    22             15.0000000000
     34080      1102  BGLCNA    C3             21.6670682687       39.3453032432       81.6431786051  LPSA31    22             15.0000000000
     34081      1102  BGLCNA    H3             22.7621448941       39.2579296225       81.6185969545  LPSA31    22             15.0000000000
     34082      1102  BGLCNA    O3             21.3133118340       39.7676964282       82.9319761242  LPSA31    22             15.0000000000
     34083      1102  BGLCNA    C4             21.1925723360       37.9861162983       81.4264212013  LPSA31    22             15.0000000000
     34084      1102  BGLCNA    H4             20.0856000136       38.0421496652       81.3902631738  LPSA31    22             15.0000000000
     34085      1102  BGLCNA    O4             21.5938815159       37.1819436352       82.5258970061  LPSA31    22             15.0000000000
     34086      1102  BGLCNA    HO4            20.9299688596       36.5263620824       82.7388204377  LPSA31    22             15.0000000000
     34087      1102  BGLCNA    C6             21.3619099875       36.1468145629       79.7697688834  LPSA31    22             15.0000000000
     34088      1102  BGLCNA    H61            21.4315607671       35.5492554629       80.6968806483  LPSA31    22             15.0000000000
     34089      1102  BGLCNA    H62            20.3029181878       36.1419693454       79.4446155482  LPSA31    22             15.0000000000
     34090      1102  BGLCNA    O6             22.2428712133       35.5556121227       78.8148401484  LPSA31    22             15.0000000000
     34091      1102  BGLCNA    HO6            22.2180884739       36.0586107343       77.9921114788  LPSA31    22             15.0000000000
     34092      1103  AGAL      C1             21.9637639316       39.6155737383       84.1642787640  LPSA31    23             16.0000000000
     34093      1103  AGAL      H1             21.6047160849       38.6559762366       84.5521670422  LPSA31    23             16.0000000000
     34094      1103  AGAL      C5             23.9135083191       40.9407221868       83.9878905249  LPSA31    23             16.0000000000
     34095      1103  AGAL      H5             23.1769295561       41.2836926259       83.2375034167  LPSA31    23             16.0000000000
     34096      1103  AGAL      O5             23.3877878526       39.6203149423       84.1720135405  LPSA31    23             16.0000000000
     34097      1103  AGAL      C2             21.5104668296       40.6013379522       85.2301929835  LPSA31    23             16.0000000000
     34098      1103  AGAL      H2             22.0167521108       40.3250087795       86.1738593026  LPSA31    23             16.0000000000
     34099      1103  AGAL      O2             20.0810660991       40.6094167735       85.5017639092  LPSA31    23             16.0000000000
     34100      1103  AGAL      C3             22.1082833443       41.9656599197       84.9582754768  LPSA31    23             16.0000000000
     34101      1103  AGAL      H3             21.9362549079       42.4925922166       83.9857056747  LPSA31    23             16.0000000000
     34102      1103  AGAL      O3             21.4634191992       42.9012988566       85.6556097981  LPSA31    23             16.0000000000
     34103      1103  AGAL      HO3            21.4959420190       42.7649932870       86.5994384244  LPSA31    23             16.0000000000
     34104      1103  AGAL      C4             23.5832665002       41.9548033123       85.0610635082  LPSA31    23             16.0000000000
     34105      1103  AGAL      H4             23.9235943406       43.0035322978       84.9814605385  LPSA31    23             16.0000000000
     34106      1103  AGAL      O4             24.1345167540       41.5497430635       86.2609749574  LPSA31    23             16.0000000000
     34107      1103  AGAL      HO4            24.9619016168       41.1561133550       85.9247748087  LPSA31    23             16.0000000000
     34108      1103  AGAL      C6             25.3816580368       40.8508561498       83.5414395292  LPSA31    23             16.0000000000
     34109      1103  AGAL      H61            25.4910215698       40.0339159342       82.7885582496  LPSA31    23             16.0000000000
     34110      1103  AGAL      H62            25.7635872322       41.7226926398       82.9334344586  LPSA31    23             16.0000000000
     34111      1103  AGAL      O6             26.2499932583       40.5437144638       84.5869114408  LPSA31    23             16.0000000000
     34112      1103  AGAL      HO6            27.1015217880       40.4575936961       84.1319939162  LPSA31    23             16.0000000000
     34113      1104  ARHM      C1             19.5427944123       39.6297743427       86.3313263796  LPSA31    24             17.0000000000
     34114      1104  ARHM      H1             20.3003034891       38.8356860238       86.4058671788  LPSA31    24             17.0000000000
     34115      1104  ARHM      C5             17.2164399264       39.8373758889       85.6828887858  LPSA31    24             17.0000000000
     34116      1104  ARHM      H5             17.5538250972       40.5817966503       84.9255784136  LPSA31    24             17.0000000000
     34117      1104  ARHM      O5             18.3617442962       38.9683976318       85.8174167715  LPSA31    24             17.0000000000
     34118      1104  ARHM      C2             19.3117107134       40.2746397343       87.6726193755  LPSA31    24             17.0000000000
     34119      1104  ARHM      H2             20.2114169176       40.8767673006       87.9871341749  LPSA31    24             17.0000000000
     34120      1104  ARHM      O2             18.8611034941       39.3793985852       88.6629571440  LPSA31    24             17.0000000000
     34121      1104  ARHM      C3             18.1921761620       41.1831620686       87.4693986490  LPSA31    24             17.0000000000
     34122      1104  ARHM      H3             18.7695426297       41.8883482872       86.8339964740  LPSA31    24             17.0000000000
     34123      1104  ARHM      O3             17.8504005898       42.1758863464       88.3274403658  LPSA31    24             17.0000000000
     34124      1104  ARHM      HO3            17.2310945149       41.6947852598       88.9153605465  LPSA31    24             17.0000000000
     34125      1104  ARHM      C4             16.9022860165       40.4536908286       87.0545819682  LPSA31    24             17.0000000000
     34126      1104  ARHM      H4             16.6921932794       39.6387339558       87.7790847869  LPSA31    24             17.0000000000
     34127      1104  ARHM      O4             15.7080958802       41.2336327524       87.2767235329  LPSA31    24             17.0000000000
     34128      1104  ARHM      HO4            14.8238773489       40.9179217898       86.9754398336  LPSA31    24             17.0000000000
     34129      1104  ARHM      C6             16.0238063324       39.1308397123       85.0269332082  LPSA31    24             17.0000000000
     34130      1104  ARHM      H61            15.3247185298       39.8312248200       84.5599289134  LPSA31    24             17.0000000000
     34131      1104  ARHM      H62            16.3752348420       38.4825212721       84.2030769338  LPSA31    24             17.0000000000
     34132      1104  ARHM      H63            15.3688569984       38.6269543376       85.7517185299  LPSA31    24             17.0000000000
     34133      1105  ARHM      C1             19.9147873775       38.6436946628       89.1741050988  LPSA31    25             18.0000000000
     34134      1105  ARHM      H1             20.7840571107       38.7133211237       88.4807494203  LPSA31    25             18.0000000000
     34135      1105  ARHM      C5             18.5564615990       36.9957051640       90.2014006973  LPSA31    25             18.0000000000
     34136      1105  ARHM      H5             17.6394992163       37.5232838454       89.8526578638  LPSA31    25             18.0000000000
     34137      1105  ARHM      O5             19.6266079589       37.2458695191       89.2717800079  LPSA31    25             18.0000000000
     34138      1105  ARHM      C2             20.2945789901       39.2562830615       90.4812854865  LPSA31    25             18.0000000000
     34139      1105  ARHM      H2             20.3845313472       40.3713133375       90.3796184649  LPSA31    25             18.0000000000
     34140      1105  ARHM      O2             21.5411842728       38.6994096508       90.9010160266  LPSA31    25             18.0000000000
     34141      1105  ARHM      C3             19.1716835458       38.9827594680       91.4490377948  LPSA31    25             18.0000000000
     34142      1105  ARHM      H3             18.2355929178       39.4244486563       91.0615478787  LPSA31    25             18.0000000000
     34143      1105  ARHM      O3             19.4413286637       39.4950438227       92.7392688270  LPSA31    25             18.0000000000
     34144      1105  ARHM      C4             18.9231940266       37.5201978607       91.5694281650  LPSA31    25             18.0000000000
     34145      1105  ARHM      H4             19.8532610714       37.0001400829       91.9084551341  LPSA31    25             18.0000000000
     34146      1105  ARHM      O4             17.8796191136       37.2684903804       92.5094916061  LPSA31    25             18.0000000000
     34147      1105  ARHM      HO4            18.1436228938       36.5133924152       93.0305939262  LPSA31    25             18.0000000000
     34148      1105  ARHM      C6             18.2206820666       35.4987322652       90.2285744728  LPSA31    25             18.0000000000
     34149      1105  ARHM      H61            18.0275150327       35.1695043448       89.1928553664  LPSA31    25             18.0000000000
     34150      1105  ARHM      H62            19.0512942097       34.9128863349       90.6717635649  LPSA31    25             18.0000000000
     34151      1105  ARHM      H63            17.2959866984       35.3207097696       90.8174644029  LPSA31    25             18.0000000000
     34152      1106  BMANNA    C1             22.6572519057       39.2770064871       90.2725781920  LPSA31    26             19.0000000000
     34153      1106  BMANNA    H1             22.4247266433       40.2859955908       89.8592294055  LPSA31    26             19.0000000000
     34154      1106  BMANNA    C5             24.3269397296       39.1047123892       88.5902552638  LPSA31    26             19.0000000000
     34155      1106  BMANNA    H5             23.9891186248       40.0869446540       88.1929215969  LPSA31    26             19.0000000000
     34156      1106  BMANNA    O5             23.2015402200       38.4638206950       89.2157590650  LPSA31    26             19.0000000000
     34157      1106  BMANNA    C2             23.6829433356       39.4462073426       91.3489239202  LPSA31    26             19.0000000000
     34158      1106  BMANNA    H2             23.2140656612       40.1092870994       92.1258340150  LPSA31    26             19.0000000000
     34159      1106  BMANNA    N              24.0405204353       38.1579874426       91.9302434370  LPSA31    26             19.0000000000
     34160      1106  BMANNA    HN             24.3480787536       37.4600987996       91.2949661817  LPSA31    26             19.0000000000
     34161      1106  BMANNA    C              24.0265012129       37.9037196147       93.2425635376  LPSA31    26             19.0000000000
     34162      1106  BMANNA    O              23.5267627612       38.6640336845       94.0518708957  LPSA31    26             19.0000000000
     34163      1106  BMANNA    CT             24.6802776853       36.6169322472       93.6796715214  LPSA31    26             19.0000000000
     34164      1106  BMANNA    HT1            24.5206528984       35.9048139125       92.8573758931  LPSA31    26             19.0000000000
     34165      1106  BMANNA    HT2            24.2779268431       36.1687447756       94.6089431284  LPSA31    26             19.0000000000
     34166      1106  BMANNA    HT3            25.7599630586       36.8043775830       93.8403072860  LPSA31    26             19.0000000000
     34167      1106  BMANNA    C3             24.8560741284       40.1911016806       90.7472043725  LPSA31    26             19.0000000000
     34168      1106  BMANNA    H3             24.4949988589       41.1658740743       90.3349179352  LPSA31    26             19.0000000000
     34169      1106  BMANNA    O3             25.8148701008       40.5148254069       91.7417828104  LPSA31    26             19.0000000000
     34170      1106  BMANNA    HO3            25.4600697428       41.2333451425       92.2870616200  LPSA31    26             19.0000000000
     34171      1106  BMANNA    C4             25.4241140516       39.3590336658       89.6079237732  LPSA31    26             19.0000000000
     34172      1106  BMANNA    H4             25.7923981476       38.3840723996       89.9873276304  LPSA31    26             19.0000000000
     34173      1106  BMANNA    O4             26.5204047322       39.9801473856       88.9631057411  LPSA31    26             19.0000000000
     34174      1106  BMANNA    HO4            27.2610590640       39.9181769175       89.5696509059  LPSA31    26             19.0000000000
     34175      1106  BMANNA    C6             24.7301220358       38.2442301810       87.3987503635  LPSA31    26             19.0000000000
     34176      1106  BMANNA    H61            23.8088031432       37.8548727771       86.9121161472  LPSA31    26             19.0000000000
     34177      1106  BMANNA    H62            25.2688716551       38.8556208950       86.6404391028  LPSA31    26             19.0000000000
     34178      1106  BMANNA    O6             25.5561956610       37.1343290158       87.7642528078  LPSA31    26             19.0000000000
     34179      1106  BMANNA    HO6            26.3623125595       37.5096460688       88.1459013411  LPSA31    26             19.0000000000
     34180      1107  BGLCNA    C1             18.3421342570       39.9725012261       93.4619593144  LPSA31    27             19.0000000000
     34181      1107  BGLCNA    H1             17.4039473732       39.4285917018       93.3984025239  LPSA31    27             19.0000000000
     34182      1107  BGLCNA    C5             17.2358856942       42.0602297882       93.8517773941  LPSA31    27             19.0000000000
     34183      1107  BGLCNA    H5             16.2323058104       41.6469255522       93.8364083274  LPSA31    27             19.0000000000
     34184      1107  BGLCNA    O5             18.0559361711       41.2954550644       92.9626711721  LPSA31    27             19.0000000000
     34185      1107  BGLCNA    C2             19.0411934535       39.9105557823       94.8923973456  LPSA31    27             19.0000000000
     34186      1107  BGLCNA    H2             20.0949934646       40.2755872977       94.9570942703  LPSA31    27             19.0000000000
     34187      1107  BGLCNA    N              19.4527669469       38.6260042464       95.3685329554  LPSA31    27             19.0000000000
     34188      1107  BGLCNA    HN             18.8087540710       37.9451913802       95.0794945773  LPSA31    27             19.0000000000
     34189      1107  BGLCNA    C              20.6394973507       38.3890966401       96.0303213288  LPSA31    27             19.0000000000
     34190      1107  BGLCNA    O              21.3067723193       39.2648643102       96.5758152130  LPSA31    27             19.0000000000
     34191      1107  BGLCNA    CT             21.1154948908       36.9937909456       96.0358375112  LPSA31    27             19.0000000000
     34192      1107  BGLCNA    HT1            20.4589808287       36.4058186424       95.3653355655  LPSA31    27             19.0000000000
     34193      1107  BGLCNA    HT2            21.0982572293       36.6329266316       97.0785038892  LPSA31    27             19.0000000000
     34194      1107  BGLCNA    HT3            22.1674076410       36.9987615249       95.6686472878  LPSA31    27             19.0000000000
     34195      1107  BGLCNA    C3             18.0909263753       40.6798802098       95.7990925646  LPSA31    27             19.0000000000
     34196      1107  BGLCNA    H3             17.1060278834       40.2048749208       95.7167524163  LPSA31    27             19.0000000000
     34197      1107  BGLCNA    O3             18.6213567569       40.3520371476       97.1351171520  LPSA31    27             19.0000000000
     34198      1107  BGLCNA    C4             17.7971548691       42.1616285847       95.2771466854  LPSA31    27             19.0000000000
     34199      1107  BGLCNA    H4             18.4918854845       43.0622961539       95.3284800652  LPSA31    27             19.0000000000
     34200      1107  BGLCNA    O4             16.8293372562       42.5711672305       96.1830787305  LPSA31    27             19.0000000000
     34201      1107  BGLCNA    HO4            15.8990144415       42.4880097282       95.9364104733  LPSA31    27             19.0000000000
     34202      1107  BGLCNA    C6             17.4599070422       43.5022994634       93.2419428054  LPSA31    27             19.0000000000
     34203      1107  BGLCNA    H61            16.5237504565       43.9473219151       93.4297961235  LPSA31    27             19.0000000000
     34204      1107  BGLCNA    H62            18.1370802870       44.2594307915       93.6717823838  LPSA31    27             19.0000000000
     34205      1107  BGLCNA    O6             17.7115652525       43.6109314989       91.8573213578  LPSA31    27             19.0000000000
     34206      1107  BGLCNA    HO6            17.2188467926       44.3321183561       91.3871174454  LPSA31    27             19.0000000000
     34207      1108  AGAL      C1             17.9096806390       40.7216595669       98.3174831384  LPSA31    28             20.0000000000
     34208      1108  AGAL      H1             17.6660725200       41.8005880506       98.4329091213  LPSA31    28             20.0000000000
     34209      1108  AGAL      C5             16.8692088182       38.7082198276       98.1681750793  LPSA31    28             20.0000000000
     34210      1108  AGAL      H5             17.6800445954       38.3863048284       97.4595852210  LPSA31    28             20.0000000000
     34211      1108  AGAL      O5             16.6816705324       40.1110078642       98.1354876200  LPSA31    28             20.0000000000
     34212      1108  AGAL      C2             18.5756092872       40.3835486630       99.6492094165  LPSA31    28             20.0000000000
     34213      1108  AGAL      H2             17.7891332087       40.7083064266      100.3586463147  LPSA31    28             20.0000000000
     34214      1108  AGAL      O2             19.7814332591       41.0454240185      100.0651807756  LPSA31    28             20.0000000000
     34215      1108  AGAL      C3             18.7598245310       38.9275276315       99.6987489901  LPSA31    28             20.0000000000
     34216      1108  AGAL      H3             19.4276610903       38.6352590541       98.8543081005  LPSA31    28             20.0000000000
     34217      1108  AGAL      O3             19.3953418871       38.4814940662      100.8789709392  LPSA31    28             20.0000000000
     34218      1108  AGAL      HO3            20.1560471796       37.9539159825      100.6430782096  LPSA31    28             20.0000000000
     34219      1108  AGAL      C4             17.4038504738       38.3050925677       99.5168819882  LPSA31    28             20.0000000000
     34220      1108  AGAL      H4             17.5399581643       37.2127159229       99.5098569160  LPSA31    28             20.0000000000
     34221      1108  AGAL      O4             16.4767921671       38.6564555820      100.5401871183  LPSA31    28             20.0000000000
     34222      1108  AGAL      HO4            16.4371013185       37.9248417952      101.1453165561  LPSA31    28             20.0000000000
     34223      1108  AGAL      C6             15.6399504957       38.0403996929       97.6482356838  LPSA31    28             20.0000000000
     34224      1108  AGAL      H61            15.5539587521       38.2882161005       96.5668162103  LPSA31    28             20.0000000000
     34225      1108  AGAL      H62            15.7305756595       36.9421336555       97.7530440827  LPSA31    28             20.0000000000
     34226      1108  AGAL      O6             14.4446784395       38.4368684728       98.3034557985  LPSA31    28             20.0000000000
     34227      1108  AGAL      HO6            14.1417205474       39.2951075053       97.9728989926  LPSA31    28             20.0000000000
     34228      1109  ARHM      C1             19.6405351382       41.3206528236      101.4543218171  LPSA31    29             21.0000000000
     34229      1109  ARHM      H1             18.9548561612       40.6044651239      101.9159100347  LPSA31    29             21.0000000000
     34230      1109  ARHM      C5             19.8781933792       43.6670936431      101.4063629716  LPSA31    29             21.0000000000
     34231      1109  ARHM      H5             20.0746988552       43.1224916522      100.5143138721  LPSA31    29             21.0000000000
     34232      1109  ARHM      O5             19.0418271539       42.6011452579      101.7576249814  LPSA31    29             21.0000000000
     34233      1109  ARHM      C2             20.9248413371       41.2275217738      102.2052832102  LPSA31    29             21.0000000000
     34234      1109  ARHM      H2             21.4274198412       40.2871707844      101.8614332246  LPSA31    29             21.0000000000
     34235      1109  ARHM      O2             20.6565279937       41.1434417869      103.5846940213  LPSA31    29             21.0000000000
     34236      1109  ARHM      C3             21.7216398335       42.4640923479      101.8078548397  LPSA31    29             21.0000000000
     34237      1109  ARHM      H3             21.8474723075       42.2228744825      100.7004062957  LPSA31    29             21.0000000000
     34238      1109  ARHM      O3             22.8054863190       42.6700596968      102.7188676231  LPSA31    29             21.0000000000
     34239      1109  ARHM      HO3            23.5937668267       43.0280830699      102.2920526601  LPSA31    29             21.0000000000
     34240      1109  ARHM      C4             21.1163124286       43.7874061458      102.0727718026  LPSA31    29             21.0000000000
     34241      1109  ARHM      H4             21.0191637025       44.0047832939      103.1524502590  LPSA31    29             21.0000000000
     34242      1109  ARHM      O4             21.7322631139       44.9813711087      101.5194136420  LPSA31    29             21.0000000000
     34243      1109  ARHM      HO4            22.1887956053       45.0007784287      100.6641470154  LPSA31    29             21.0000000000
     34244      1109  ARHM      C6             19.2839025058       45.0708257187      101.2453986721  LPSA31    29             21.0000000000
     34245      1109  ARHM      H61            18.3598328561       44.9425798475      100.6591920979  LPSA31    29             21.0000000000
     34246      1109  ARHM      H62            19.2121309304       45.5426376953      102.2650553581  LPSA31    29             21.0000000000
     34247      1109  ARHM      H63            19.8331969818       45.7741621064      100.6054035251  LPSA31    29             21.0000000000
     34248      1110  ARHM      C1             20.7322820107       39.9986450335      104.4039818871  LPSA31    30             22.0000000000
     34249      1110  ARHM      H1             21.6506030703       39.4291507369      104.1463808134  LPSA31    30             22.0000000000
     34250      1110  ARHM      C5             18.3650599978       40.0093333051      104.5469870697  LPSA31    30             22.0000000000
     34251      1110  ARHM      H5             18.4607373120       40.7162271158      103.7607740006  LPSA31    30             22.0000000000
     34252      1110  ARHM      O5             19.5292141420       39.2458268795      104.2227345918  LPSA31    30             22.0000000000
     34253      1110  ARHM      C2             20.7426413339       40.3557951424      105.9134448471  LPSA31    30             22.0000000000
     34254      1110  ARHM      H2             21.6743470963       40.8893260542      106.2291687491  LPSA31    30             22.0000000000
     34255      1110  ARHM      O2             20.7277167801       39.2046772638      106.6585344090  LPSA31    30             22.0000000000
     34256      1110  ARHM      C3             19.5406029720       41.1526528346      106.3546170176  LPSA31    30             22.0000000000
     34257      1110  ARHM      H3             19.2803138558       42.1477917932      105.9953872878  LPSA31    30             22.0000000000
     34258      1110  ARHM      O3             19.9059180065       41.6039794354      107.6277706288  LPSA31    30             22.0000000000
     34259      1110  ARHM      C4             18.3595534219       40.3906939904      106.0294982851  LPSA31    30             22.0000000000
     34260      1110  ARHM      H4             18.2632129678       39.4923710121      106.6433770979  LPSA31    30             22.0000000000
     34261      1110  ARHM      O4             17.3031856042       41.2306362372      106.4009427192  LPSA31    30             22.0000000000
     34262      1110  ARHM      HO4            16.9468552818       41.8543351096      105.7423266335  LPSA31    30             22.0000000000
     34263      1110  ARHM      C6             17.0595047178       39.4590578778      104.0682351759  LPSA31    30             22.0000000000
     34264      1110  ARHM      H61            16.2115262596       40.1587793913      104.2289082862  LPSA31    30             22.0000000000
     34265      1110  ARHM      H62            17.1308979731       39.2739882451      102.9783389390  LPSA31    30             22.0000000000
     34266      1110  ARHM      H63            16.9517324485       38.5228815729      104.6352262836  LPSA31    30             22.0000000000
     34267      1111  BMANNA    C1             22.0281299817       38.8355331466      106.9321675081  LPSA31    31             23.0000000000
     34268      1111  BMANNA    H1             22.7354580246       39.6609537956      107.2228423530  LPSA31    31             23.0000000000
     34269      1111  BMANNA    C5             23.7951445002       37.4836829130      106.2110966136  LPSA31    31             23.0000000000
     34270      1111  BMANNA    H5             24.4414050577       38.3430633520      106.5029448408  LPSA31    31             23.0000000000
     34271      1111  BMANNA    O5             22.5403928950       38.0536592126      105.8661416736  LPSA31    31             23.0000000000
     34272      1111  BMANNA    C2             21.7631246383       38.0272328529      108.1215317695  LPSA31    31             23.0000000000
     34273      1111  BMANNA    H2             21.4565344035       38.7362509885      108.9338991942  LPSA31    31             23.0000000000
     34274      1111  BMANNA    N              20.6682899081       37.1180779555      107.8540695563  LPSA31    31             23.0000000000
     34275      1111  BMANNA    HN             20.4739725274       36.9581528291      106.8746916299  LPSA31    31             23.0000000000
     34276      1111  BMANNA    C              19.8596084666       36.6514607003      108.7875374979  LPSA31    31             23.0000000000
     34277      1111  BMANNA    O              19.9866692172       36.9908317150      109.9538455401  LPSA31    31             23.0000000000
     34278      1111  BMANNA    CT             18.7942058628       35.7081444739      108.3254963181  LPSA31    31             23.0000000000
     34279      1111  BMANNA    HT1            19.2256236894       35.0211410805      107.5704211410  LPSA31    31             23.0000000000
     34280      1111  BMANNA    HT2            17.9515943948       36.2769280717      107.8917303664  LPSA31    31             23.0000000000
     34281      1111  BMANNA    HT3            18.4045796505       35.1304007708      109.1789445171  LPSA31    31             23.0000000000
     34282      1111  BMANNA    C3             23.0711983237       37.4434928351      108.5240054706  LPSA31    31             23.0000000000
     34283      1111  BMANNA    H3             23.8116138886       38.2653388744      108.6694768201  LPSA31    31             23.0000000000
     34284      1111  BMANNA    O3             22.9602134625       36.8485686971      109.7955835018  LPSA31    31             23.0000000000
     34285      1111  BMANNA    HO3            22.0817865586       37.1167115914      110.1115441515  LPSA31    31             23.0000000000
     34286      1111  BMANNA    C4             23.5989231820       36.5826813981      107.4105102132  LPSA31    31             23.0000000000
     34287      1111  BMANNA    H4             22.8837517947       35.7698774222      107.1276015330  LPSA31    31             23.0000000000
     34288      1111  BMANNA    O4             24.8297515284       35.9814374211      107.7498561735  LPSA31    31             23.0000000000
     34289      1111  BMANNA    HO4            25.4035464837       36.5727874327      108.2408898524  LPSA31    31             23.0000000000
     34290      1111  BMANNA    C6             24.4577642853       36.7717598376      105.0528904627  LPSA31    31             23.0000000000
     34291      1111  BMANNA    H61            25.5131300810       36.5367348116      105.3174733794  LPSA31    31             23.0000000000
     34292      1111  BMANNA    H62            23.9435627395       35.7987918518      104.8723603716  LPSA31    31             23.0000000000
     34293      1111  BMANNA    O6             24.4234296507       37.5292126365      103.8430963267  LPSA31    31             23.0000000000
     34294      1111  BMANNA    HO6            25.0263884063       38.2644164371      103.8239189566  LPSA31    31             23.0000000000
     34295      1112  BGLCNA    C1             19.5568013046       40.8221843235      108.6614824003  LPSA31    32             23.0000000000
     34296      1112  BGLCNA    H1             19.8571056081       39.8191737254      108.4856843885  LPSA31    32             23.0000000000
     34297      1112  BGLCNA    C5             17.7617413284       39.9327684455      109.8896137495  LPSA31    32             23.0000000000
     34298      1112  BGLCNA    H5             18.0852918619       38.9227021824      109.6000886959  LPSA31    32             23.0000000000
     34299      1112  BGLCNA    O5             18.1778379718       40.7491887343      108.8325841717  LPSA31    32             23.0000000000
     34300      1112  BGLCNA    C2             20.2092848604       41.4470502337      109.8208209891  LPSA31    32             23.0000000000
     34301      1112  BGLCNA    H2             19.6523454674       42.4071396629      109.7435390612  LPSA31    32             23.0000000000
     34302      1112  BGLCNA    N              21.6144676717       41.6604640617      109.6153835701  LPSA31    32             23.0000000000
     34303      1112  BGLCNA    HN             21.9240264014       41.1859291689      108.8215535084  LPSA31    32             23.0000000000
     34304      1112  BGLCNA    C              22.4325546507       42.5374056470      110.1946683524  LPSA31    32             23.0000000000
     34305      1112  BGLCNA    O              22.0974459757       43.3870013548      110.9683335596  LPSA31    32             23.0000000000
     34306      1112  BGLCNA    CT             23.7709168718       42.6876005702      109.5669189165  LPSA31    32             23.0000000000
     34307      1112  BGLCNA    HT1            23.7118017338       42.1694716033      108.5926327964  LPSA31    32             23.0000000000
     34308      1112  BGLCNA    HT2            24.5494253759       42.2823709068      110.2333416437  LPSA31    32             23.0000000000
     34309      1112  BGLCNA    HT3            23.9937365291       43.7684344717      109.3730420256  LPSA31    32             23.0000000000
     34310      1112  BGLCNA    C3             19.9090900277       40.5103403557      110.9209404322  LPSA31    32             23.0000000000
     34311      1112  BGLCNA    H3             20.1958525659       39.5210890226      110.5203180963  LPSA31    32             23.0000000000
     34312      1112  BGLCNA    O3             20.6844961946       40.7393622388      112.0885258030  LPSA31    32             23.0000000000
     34313      1112  BGLCNA    C4             18.4374933303       40.4601875935      111.0912828265  LPSA31    32             23.0000000000
     34314      1112  BGLCNA    H4             18.1421033194       41.5378151991      111.1633968411  LPSA31    32             23.0000000000
     34315      1112  BGLCNA    O4             18.0986716765       39.5720052142      112.1584117348  LPSA31    32             23.0000000000
     34316      1112  BGLCNA    HO4            18.0209538750       40.1289576351      112.9610506626  LPSA31    32             23.0000000000
     34317      1112  BGLCNA    C6             16.2322519891       39.9797028216      110.0137167262  LPSA31    32             23.0000000000
     34318      1112  BGLCNA    H61            15.8980409152       39.2356131740      110.7212015071  LPSA31    32             23.0000000000
     34319      1112  BGLCNA    H62            15.7925192096       40.9052817670      110.4671900127  LPSA31    32             23.0000000000
     34320      1112  BGLCNA    O6             15.5789860835       39.6487543392      108.7925521228  LPSA31    32             23.0000000000
     34321      1112  BGLCNA    HO6            16.1474934113       39.2044677277      108.1740176261  LPSA31    32             23.0000000000
     34322      1113  AGAL      C1             21.1197055974       39.5058396345      112.6339279053  LPSA31    33             24.0000000000
     34323      1113  AGAL      H1             20.3138710230       38.7497783548      112.5846106057  LPSA31    33             24.0000000000
     34324      1113  AGAL      C5             23.4495862696       39.8974364560      112.1788335851  LPSA31    33             24.0000000000
     34325      1113  AGAL      H5             23.0689996870       40.8791593104      111.8470766937  LPSA31    33             24.0000000000
     34326      1113  AGAL      O5             22.3335232588       38.9986451291      112.0280279101  LPSA31    33             24.0000000000
     34327      1113  AGAL      C2             21.3688736278       39.7558513920      114.0593584605  LPSA31    33             24.0000000000
     34328      1113  AGAL      H2             21.8128343209       38.8278484086      114.4951582832  LPSA31    33             24.0000000000
     34329      1113  AGAL      O2             20.1524137501       39.9680145227      114.8471586132  LPSA31    33             24.0000000000
     34330      1113  AGAL      C3             22.5080045302       40.7019532234      114.1210519256  LPSA31    33             24.0000000000
     34331      1113  AGAL      H3             22.3313303119       41.6815606615      113.6235563023  LPSA31    33             24.0000000000
     34332      1113  AGAL      O3             22.4271646069       41.1116045874      115.3696141232  LPSA31    33             24.0000000000
     34333      1113  AGAL      HO3            22.9367874605       40.5900679975      115.9931729087  LPSA31    33             24.0000000000
     34334      1113  AGAL      C4             23.8340359941       40.1681277848      113.5990820266  LPSA31    33             24.0000000000
     34335      1113  AGAL      H4             24.6248058343       40.9566056294      113.6527471758  LPSA31    33             24.0000000000
     34336      1113  AGAL      O4             24.3976683867       39.0329130962      114.2532485938  LPSA31    33             24.0000000000
     34337      1113  AGAL      HO4            23.8208251380       38.6118695403      114.8974399973  LPSA31    33             24.0000000000
     34338      1113  AGAL      C6             24.5888490196       39.5607865233      111.2440117409  LPSA31    33             24.0000000000
     34339      1113  AGAL      H61            24.1670165667       39.6662582673      110.2262751761  LPSA31    33             24.0000000000
     34340      1113  AGAL      H62            25.4149307410       40.2929208610      111.3659403416  LPSA31    33             24.0000000000
     34341      1113  AGAL      O6             25.1672070149       38.2625310998      111.3813960116  LPSA31    33             24.0000000000
     34342      1113  AGAL      HO6            24.6358103009       37.6083555725      110.9004929457  LPSA31    33             24.0000000000
     34343      1114  ARHM      C1             20.0751394370       39.1500765352      116.0270994638  LPSA31    34             25.0000000000
     34344      1114  ARHM      H1             20.9870249426       39.3398840398      116.6446639849  LPSA31    34             25.0000000000
     34345      1114  ARHM      C5             18.6873128248       37.4688594064      115.0354963664  LPSA31    34             25.0000000000
     34346      1114  ARHM      H5             18.7971129474       37.9583807534      114.0482005141  LPSA31    34             25.0000000000
     34347      1114  ARHM      O5             19.8833236488       37.7542927392      115.7750179039  LPSA31    34             25.0000000000
     34348      1114  ARHM      C2             18.8079728644       39.5273671948      116.7628145257  LPSA31    34             25.0000000000
     34349      1114  ARHM      H2             18.6281166132       40.4676122043      116.4998234318  LPSA31    34             25.0000000000
     34350      1114  ARHM      O2             18.7312955735       39.3632504972      118.2160518230  LPSA31    34             25.0000000000
     34351      1114  ARHM      C3             17.5105400068       39.3833934368      115.9765664350  LPSA31    34             25.0000000000
     34352      1114  ARHM      H3             17.6349974304       39.8869227193      114.9619474335  LPSA31    34             25.0000000000
     34353      1114  ARHM      O3             16.3550361496       40.0142496365      116.5933460593  LPSA31    34             25.0000000000
     34354      1114  ARHM      HO3            15.7969932493       40.4131184470      115.9051493681  LPSA31    34             25.0000000000
     34355      1114  ARHM      C4             17.4410466509       37.9658848056      115.7534320814  LPSA31    34             25.0000000000
     34356      1114  ARHM      H4             17.4185316198       37.4819122190      116.7626208564  LPSA31    34             25.0000000000
     34357      1114  ARHM      O4             16.2576983559       37.7052025126      115.0314033793  LPSA31    34             25.0000000000
     34358      1114  ARHM      HO4            15.5149434442       37.8185845444      115.6400550153  LPSA31    34             25.0000000000
     34359      1114  ARHM      C6             18.5545675741       35.9533115399      114.8228705680  LPSA31    34             25.0000000000
     34360      1114  ARHM      H61            18.4901908022       35.3973428400      115.7794920514  LPSA31    34             25.0000000000
     34361      1114  ARHM      H62            17.5818706321       35.7725513626      114.3256872152  LPSA31    34             25.0000000000
     34362      1114  ARHM      H63            19.3568789194       35.5375039025      114.1866599488  LPSA31    34             25.0000000000
     34363      1115  ARHM      C1             19.8603685700       39.4988049812      119.0720998087  LPSA31    35             26.0000000000
     34364      1115  ARHM      H1             20.3818011582       40.4585769058      118.8619167539  LPSA31    35             26.0000000000
     34365      1115  ARHM      C5             20.2172199561       37.1417708872      119.2207338670  LPSA31    35             26.0000000000
     34366      1115  ARHM      H5             19.3842140237       36.9457680497      118.5148147676  LPSA31    35             26.0000000000
     34367      1115  ARHM      O5             20.8010300200       38.4255866073      118.9344299829  LPSA31    35             26.0000000000
     34368      1115  ARHM      C2             19.3863054209       39.4490828454      120.5326783629  LPSA31    35             26.0000000000
     34369      1115  ARHM      H2             18.5961580070       40.1709966653      120.8128400116  LPSA31    35             26.0000000000
     34370      1115  ARHM      O2             20.4894423134       39.6117445437      121.4500789429  LPSA31    35             26.0000000000
     34371      1115  ARHM      C3             18.6892477154       38.1674968342      120.8296802575  LPSA31    35             26.0000000000
     34372      1115  ARHM      H3             17.8378338112       38.0259025756      120.1171311494  LPSA31    35             26.0000000000
     34373      1115  ARHM      O3             18.0838691935       38.2215300904      122.1092827456  LPSA31    35             26.0000000000
     34374      1115  ARHM      HO3            18.6143783729       38.7116445631      122.7457250397  LPSA31    35             26.0000000000
     34375      1115  ARHM      C4             19.6901057654       37.0629387768      120.6469344720  LPSA31    35             26.0000000000
     34376      1115  ARHM      H4             20.5574516490       37.2202609767      121.3358041837  LPSA31    35             26.0000000000
     34377      1115  ARHM      O4             19.1239686726       35.7866579537      120.9242468176  LPSA31    35             26.0000000000
     34378      1115  ARHM      HO4            18.1924777736       35.7726470191      120.6571855076  LPSA31    35             26.0000000000
     34379      1115  ARHM      C6             21.2530128615       36.0724829046      118.8897638427  LPSA31    35             26.0000000000
     34380      1115  ARHM      H61            21.4106539298       36.0808347148      117.7963616685  LPSA31    35             26.0000000000
     34381      1115  ARHM      H62            22.1902799147       36.3171160824      119.4158832684  LPSA31    35             26.0000000000
     34382      1115  ARHM      H63            20.8829104434       35.0525964819      119.1318574786  LPSA31    35             26.0000000000
     34383      1116  BMANNA    C1             20.9240860969       40.9467640895      121.6096806582  LPSA31    36             27.0000000000
     34384      1116  BMANNA    H1             20.0228930522       41.5642184855      121.4773212597  LPSA31    36             27.0000000000
     34385      1116  BMANNA    C5             22.7331904191       42.7004800775      120.9185590481  LPSA31    36             27.0000000000
     34386      1116  BMANNA    H5             22.1833291468       43.6885220592      120.6988435638  LPSA31    36             27.0000000000
     34387      1116  BMANNA    O5             22.1413060256       41.3025150091      120.8501270683  LPSA31    36             27.0000000000
     34388      1116  BMANNA    C2             21.2876664956       41.1033810996      122.9848159305  LPSA31    36             27.0000000000
     34389      1116  BMANNA    H2             20.2950360284       41.1071295835      123.5332667839  LPSA31    36             27.0000000000
     34390      1116  BMANNA    N              22.1331352631       40.0445561206      123.4706506336  LPSA31    36             27.0000000000
     34391      1116  BMANNA    HN             22.9374715786       39.8572473405      122.8886352274  LPSA31    36             27.0000000000
     34392      1116  BMANNA    C              22.1453837156       39.7437559791      124.7822157714  LPSA31    36             27.0000000000
     34393      1116  BMANNA    O              21.3565134726       40.2530389423      125.5679463213  LPSA31    36             27.0000000000
     34394      1116  BMANNA    CT             23.3266821269       38.9627117110      125.2721686741  LPSA31    36             27.0000000000
     34395      1116  BMANNA    HT1            24.2215437822       39.3559401292      124.7666967657  LPSA31    36             27.0000000000
     34396      1116  BMANNA    HT2            23.2915319425       37.9092165982      125.0824288997  LPSA31    36             27.0000000000
     34397      1116  BMANNA    HT3            23.4638447257       39.0808308367      126.3669114180  LPSA31    36             27.0000000000
     34398      1116  BMANNA    C3             21.8146876158       42.5100587912      123.1280530619  LPSA31    36             27.0000000000
     34399      1116  BMANNA    H3             21.2237915419       43.1816075151      122.6292498354  LPSA31    36             27.0000000000
     34400      1116  BMANNA    O3             21.6656551613       42.8650990050      124.5065634961  LPSA31    36             27.0000000000
     34401      1116  BMANNA    HO3            21.4644897248       43.7830729710      124.7085073921  LPSA31    36             27.0000000000
     34402      1116  BMANNA    C4             23.1065248187       42.8102369263      122.2168509967  LPSA31    36             27.0000000000
     34403      1116  BMANNA    H4             23.9309635873       42.1489273043      122.2711201115  LPSA31    36             27.0000000000
     34404      1116  BMANNA    O4             23.8700159807       43.9730344165      122.2268250936  LPSA31    36             27.0000000000
     34405      1116  BMANNA    HO4            24.0203521376       44.2617614877      123.1074010844  LPSA31    36             27.0000000000
     34406      1116  BMANNA    C6             23.8073869983       43.0887380945      119.9705175961  LPSA31    36             27.0000000000
     34407      1116  BMANNA    H61            23.3147512918       42.8156704566      119.0983448073  LPSA31    36             27.0000000000
     34408      1116  BMANNA    H62            23.9621822676       44.1715401817      119.8023358008  LPSA31    36             27.0000000000
     34409      1116  BMANNA    O6             24.9875046847       42.4037285206      120.3405011500  LPSA31    36             27.0000000000
     34410      1116  BMANNA    HO6            25.5900157940       42.9917994066      120.8200161011  LPSA31    36             27.0000000000
     34411      1117  ECLIPA    HB6S          -33.8226191666       27.3995218930       20.4163285931  LPSA32    1               0.0000000000
     34412      1117  ECLIPA    OB6           -34.2952204269       25.9005572517       21.7206223031  LPSA32    1               0.0000000000
     34413      1117  ECLIPA    CB6           -33.4232398351       26.4087893002       20.6973589911  LPSA32    1               0.0000000000
     34414      1117  ECLIPA    HB6R          -32.3943306429       26.5442515811       21.0997865593  LPSA32    1               0.0000000000
     34415      1117  ECLIPA    CB5           -33.3029707326       25.5625412593       19.4350247864  LPSA32    1               0.0000000000
     34416      1117  ECLIPA    OB5           -34.6473767579       25.3692732203       18.9526323739  LPSA32    1               0.0000000000
     34417      1117  ECLIPA    HB5           -32.8355629843       24.5957331882       19.7402809096  LPSA32    1               0.0000000000
     34418      1117  ECLIPA    CB1           -34.6901053853       24.5449036528       17.7830469341  LPSA32    1               0.0000000000
     34419      1117  ECLIPA    HB1           -34.2089343957       23.5540766192       17.9665853943  LPSA32    1               0.0000000000
     34420      1117  ECLIPA    OA6           -36.0026616339       24.2956140872       17.3279900304  LPSA32    1               0.0000000000
     34421      1117  ECLIPA    CA6           -36.9480908909       25.3530830042       17.5616682442  LPSA32    1               0.0000000000
     34422      1117  ECLIPA    HA6R          -36.4549985276       26.3339214967       17.7519167584  LPSA32    1               0.0000000000
     34423      1117  ECLIPA    HA6S          -37.5700381492       25.0765491489       18.4445596980  LPSA32    1               0.0000000000
     34424      1117  ECLIPA    CB4           -32.4429243263       26.2137105009       18.3317116331  LPSA32    1               0.0000000000
     34425      1117  ECLIPA    HB4           -32.8250899064       27.2249443820       18.0474247470  LPSA32    1               0.0000000000
     34426      1117  ECLIPA    OB4           -31.1043531501       26.2406751900       18.8431911668  LPSA32    1               0.0000000000
     34427      1117  ECLIPA    PB            -30.4083839763       27.6653855651       19.3347061747  LPSA32    1               0.0000000000
     34428      1117  ECLIPA    OPB4          -29.4913667238       27.4014529208       20.5362440275  LPSA32    1               0.0000000000
     34429      1117  ECLIPA    OPB3          -31.5912946464       28.5934093114       19.7125702540  LPSA32    1               0.0000000000
     34430      1117  ECLIPA    OPB2          -29.6571181454       28.1119976626       18.0987296232  LPSA32    1               0.0000000000
     34431      1117  ECLIPA    CB3           -32.4915619989       25.3487332851       17.0864812291  LPSA32    1               0.0000000000
     34432      1117  ECLIPA    OB3           -31.8231938539       25.8940784956       15.9429564800  LPSA32    1               0.0000000000
     34433      1117  ECLIPA    HB3           -32.1338747009       24.3191478287       17.3355944319  LPSA32    1               0.0000000000
     34434      1117  ECLIPA    C71           -30.5367777299       25.6383668861       15.7667273119  LPSA32    1               0.0000000000
     34435      1117  ECLIPA    O71           -29.9713330895       24.6632316191       16.2453569903  LPSA32    1               0.0000000000
     34436      1117  ECLIPA    C72           -30.1317573080       26.2095300078       14.3827204077  LPSA32    1               0.0000000000
     34437      1117  ECLIPA    H72R          -30.8112474262       25.8167085134       13.5981242719  LPSA32    1               0.0000000000
     34438      1117  ECLIPA    H72S          -29.0898123907       25.8955197521       14.1669381178  LPSA32    1               0.0000000000
     34439      1117  ECLIPA    CB2           -33.9370024531       25.2010906738       16.6640600613  LPSA32    1               0.0000000000
     34440      1117  ECLIPA    HB2           -34.3618142443       26.2334340285       16.5098971289  LPSA32    1               0.0000000000
     34441      1117  ECLIPA    NB2           -34.0394221833       24.3938086072       15.4531515369  LPSA32    1               0.0000000000
     34442      1117  ECLIPA    HNB2          -34.1313012731       23.4132844464       15.5759423121  LPSA32    1               0.0000000000
     34443      1117  ECLIPA    CA4           -38.2807532781       24.1542158769       15.7949056435  LPSA32    1               0.0000000000
     34444      1117  ECLIPA    HA4           -37.3562233693       23.5971128476       15.5204261261  LPSA32    1               0.0000000000
     34445      1117  ECLIPA    OA4           -38.9681142161       23.4531537595       16.8242493540  LPSA32    1               0.0000000000
     34446      1117  ECLIPA    HOA4          -38.4321401686       23.5059553536       17.6163492087  LPSA32    1               0.0000000000
     34447      1117  ECLIPA    CA5           -37.8344182869       25.4920844673       16.3378651399  LPSA32    1               0.0000000000
     34448      1117  ECLIPA    HA5           -38.6845959263       26.1788077701       16.5660886853  LPSA32    1               0.0000000000
     34449      1117  ECLIPA    OA5           -37.0295858853       26.0980305758       15.3421174325  LPSA32    1               0.0000000000
     34450      1117  ECLIPA    CA1           -37.7258521457       26.3383379202       14.1073198627  LPSA32    1               0.0000000000
     34451      1117  ECLIPA    HA1           -36.8960599896       26.6262053336       13.4242381176  LPSA32    1               0.0000000000
     34452      1117  ECLIPA    OA1           -38.6586828458       27.3947710835       14.1417878199  LPSA32    1               0.0000000000
     34453      1117  ECLIPA    OPA2          -38.9649219460       28.9735792547       16.0154298064  LPSA32    1               0.0000000000
     34454      1117  ECLIPA    OPA3          -36.6970130407       28.9699816373       14.8588366015  LPSA32    1               0.0000000000
     34455      1117  ECLIPA    OPA4          -38.7247712465       29.8606504959       13.6309910500  LPSA32    1               0.0000000000
     34456      1117  ECLIPA    PA            -38.2107170731       28.8927602916       14.6911323425  LPSA32    1               0.0000000000
     34457      1117  ECLIPA    CA3           -39.0984977769       24.2985323421       14.5277906868  LPSA32    1               0.0000000000
     34458      1117  ECLIPA    HA3           -40.0280285436       24.8748587010       14.7359399808  LPSA32    1               0.0000000000
     34459      1117  ECLIPA    OA3           -39.4762647383       22.9417385779       14.1935053267  LPSA32    1               0.0000000000
     34460      1117  ECLIPA    C31           -38.5949830318       22.1853161443       13.5169106024  LPSA32    1               0.0000000000
     34461      1117  ECLIPA    O31           -38.5156503305       22.2060664658       12.3011547252  LPSA32    1               0.0000000000
     34462      1117  ECLIPA    C32           -38.2744771107       20.9017346255       14.2905445990  LPSA32    1               0.0000000000
     34463      1117  ECLIPA    H32R          -38.7225338325       20.0657988520       13.7142284280  LPSA32    1               0.0000000000
     34464      1117  ECLIPA    H32S          -38.7595296675       20.9540806861       15.2846897065  LPSA32    1               0.0000000000
     34465      1117  ECLIPA    CA2           -38.2161881491       25.0261883385       13.5115270407  LPSA32    1               0.0000000000
     34466      1117  ECLIPA    HA2           -37.2972070023       24.4201852250       13.3391795088  LPSA32    1               0.0000000000
     34467      1117  ECLIPA    NA2           -38.9007690153       25.2315817180       12.2234223496  LPSA32    1               0.0000000000
     34468      1117  ECLIPA    HNA2          -39.7526106824       24.7429243268       12.1198738263  LPSA32    1               0.0000000000
     34469      1117  ECLIPA    C73           -30.2350119447       27.7520421156       14.3578915239  LPSA32    1               0.0000000000
     34470      1117  ECLIPA    H73R          -29.7500519917       28.1473142342       15.2853543424  LPSA32    1               0.0000000000
     34471      1117  ECLIPA    O73           -31.6234377308       28.0661740694       14.2772045759  LPSA32    1               0.0000000000
     34472      1117  ECLIPA    C81           -32.1226780819       29.1145632475       14.9320520594  LPSA32    1               0.0000000000
     34473      1117  ECLIPA    O81           -31.4881503745       29.9234716764       15.5887254398  LPSA32    1               0.0000000000
     34474      1117  ECLIPA    C82           -33.4922129140       29.4565183166       14.3342706798  LPSA32    1               0.0000000000
     34475      1117  ECLIPA    H82R          -33.8989759782       30.3354492626       14.8632339318  LPSA32    1               0.0000000000
     34476      1117  ECLIPA    H82S          -34.1821980303       28.6130937604       14.5533632610  LPSA32    1               0.0000000000
     34477      1117  ECLIPA    C83           -33.4608215694       29.7075084474       12.8090430751  LPSA32    1               0.0000000000
     34478      1117  ECLIPA    H83R          -33.4809352812       28.7190079794       12.2918559823  LPSA32    1               0.0000000000
     34479      1117  ECLIPA    H83S          -32.5140636764       30.2117024676       12.5325100403  LPSA32    1               0.0000000000
     34480      1117  ECLIPA    C84           -34.6852550687       30.4802861627       12.2927998348  LPSA32    1               0.0000000000
     34481      1117  ECLIPA    H84R          -34.6468607335       31.5431452693       12.5933695851  LPSA32    1               0.0000000000
     34482      1117  ECLIPA    H84S          -35.5833525653       29.9948605304       12.7601997643  LPSA32    1               0.0000000000
     34483      1117  ECLIPA    C85           -34.8642980624       30.3517166094       10.7710141717  LPSA32    1               0.0000000000
     34484      1117  ECLIPA    H85R          -34.6602741660       29.2802108594       10.5458860175  LPSA32    1               0.0000000000
     34485      1117  ECLIPA    H85S          -34.0930230495       30.9427218413       10.2354894461  LPSA32    1               0.0000000000
     34486      1117  ECLIPA    C86           -36.3048490914       30.6308588381       10.2864874516  LPSA32    1               0.0000000000
     34487      1117  ECLIPA    H86R          -36.4332078129       31.6954824930        9.9929475607  LPSA32    1               0.0000000000
     34488      1117  ECLIPA    H86S          -37.0155332349       30.4506667351       11.1300930595  LPSA32    1               0.0000000000
     34489      1117  ECLIPA    C87           -36.7494605965       29.6763766648        9.1595089632  LPSA32    1               0.0000000000
     34490      1117  ECLIPA    H87R          -37.7573298623       29.9728580987        8.7966284121  LPSA32    1               0.0000000000
     34491      1117  ECLIPA    H87S          -36.8564022876       28.6474857304        9.5764079803  LPSA32    1               0.0000000000
     34492      1117  ECLIPA    C88           -35.7316860151       29.5961257067        8.0203643136  LPSA32    1               0.0000000000
     34493      1117  ECLIPA    H88R          -34.8740176060       28.9732631819        8.3496833338  LPSA32    1               0.0000000000
     34494      1117  ECLIPA    H88S          -35.2995834786       30.6119843124        7.8793542287  LPSA32    1               0.0000000000
     34495      1117  ECLIPA    C89           -36.3094327962       29.0160078380        6.7157997955  LPSA32    1               0.0000000000
     34496      1117  ECLIPA    H89R          -37.2310882235       28.4196119888        6.8954378190  LPSA32    1               0.0000000000
     34497      1117  ECLIPA    H89S          -35.5817484521       28.3113701057        6.2588594717  LPSA32    1               0.0000000000
     34498      1117  ECLIPA    C810          -36.5561798387       30.1315293311        5.6970983258  LPSA32    1               0.0000000000
     34499      1117  ECLIPA    H810R         -35.8220083240       30.9316414482        5.9316547375  LPSA32    1               0.0000000000
     34500      1117  ECLIPA    H810S         -37.5786514735       30.5366108478        5.8637149945  LPSA32    1               0.0000000000
     34501      1117  ECLIPA    C811          -36.3939146035       29.6875144446        4.2356086255  LPSA32    1               0.0000000000
     34502      1117  ECLIPA    H811R         -36.9167237382       30.3862377547        3.5403450246  LPSA32    1               0.0000000000
     34503      1117  ECLIPA    H811S         -36.8516948686       28.6778098216        4.1552187808  LPSA32    1               0.0000000000
     34504      1117  ECLIPA    C812          -34.9459546185       29.5512158269        3.7453543354  LPSA32    1               0.0000000000
     34505      1117  ECLIPA    H812R         -34.9961459438       29.1074333522        2.7179474045  LPSA32    1               0.0000000000
     34506      1117  ECLIPA    H812S         -34.3940055519       28.8562758985        4.4106554717  LPSA32    1               0.0000000000
     34507      1117  ECLIPA    C813          -34.1499086990       30.8594436329        3.7063887579  LPSA32    1               0.0000000000
     34508      1117  ECLIPA    H813R         -34.6252829680       31.5150097412        2.9398774787  LPSA32    1               0.0000000000
     34509      1117  ECLIPA    H813S         -34.1372507234       31.3880873238        4.6799096263  LPSA32    1               0.0000000000
     34510      1117  ECLIPA    C814          -32.6871390818       30.6343546091        3.3919178294  LPSA32    1               0.0000000000
     34511      1117  ECLIPA    H814R         -32.6108935515       29.7533490689        2.7547522221  LPSA32    1               0.0000000000
     34512      1117  ECLIPA    H814S         -32.0685054169       30.1910048025        4.1724356140  LPSA32    1               0.0000000000
     34513      1117  ECLIPA    H814T         -32.2187266689       31.5402253064        2.9326313737  LPSA32    1               0.0000000000
     34514      1117  ECLIPA    C74           -29.5684040845       28.4293233583       13.1266374589  LPSA32    1               0.0000000000
     34515      1117  ECLIPA    H74R          -28.4745793493       28.2616288532       13.0445498231  LPSA32    1               0.0000000000
     34516      1117  ECLIPA    H74S          -29.6980646015       29.5223774793       13.3190620708  LPSA32    1               0.0000000000
     34517      1117  ECLIPA    C75           -30.2706455860       28.1373605319       11.7782457157  LPSA32    1               0.0000000000
     34518      1117  ECLIPA    H75R          -30.2474402753       29.0803379640       11.1898393094  LPSA32    1               0.0000000000
     34519      1117  ECLIPA    H75S          -31.3412597113       27.9050792368       11.9712403233  LPSA32    1               0.0000000000
     34520      1117  ECLIPA    C76           -29.6717970916       26.9917120570       10.9461600509  LPSA32    1               0.0000000000
     34521      1117  ECLIPA    H76R          -30.0036530836       26.0202806502       11.3763537486  LPSA32    1               0.0000000000
     34522      1117  ECLIPA    H76S          -28.5589028609       27.0091632086       10.9892708977  LPSA32    1               0.0000000000
     34523      1117  ECLIPA    C77           -30.0611471907       27.0094505874        9.4542472339  LPSA32    1               0.0000000000
     34524      1117  ECLIPA    H77R          -29.6313598591       27.9207471584        8.9902793757  LPSA32    1               0.0000000000
     34525      1117  ECLIPA    H77S          -31.1507078800       27.0883600583        9.3123952390  LPSA32    1               0.0000000000
     34526      1117  ECLIPA    C78           -29.6089197881       25.6907606152        8.8006836840  LPSA32    1               0.0000000000
     34527      1117  ECLIPA    H78R          -28.5402306059       25.5347172733        9.0659947015  LPSA32    1               0.0000000000
     34528      1117  ECLIPA    H78S          -30.1806702176       24.8873822150        9.3203429732  LPSA32    1               0.0000000000
     34529      1117  ECLIPA    C79           -29.8845045878       25.4943078178        7.2918268667  LPSA32    1               0.0000000000
     34530      1117  ECLIPA    H79R          -30.8493372382       24.9497190953        7.1708088594  LPSA32    1               0.0000000000
     34531      1117  ECLIPA    H79S          -29.0947388360       24.8586523133        6.8318222061  LPSA32    1               0.0000000000
     34532      1117  ECLIPA    C710          -29.9034303148       26.7667611425        6.4504333357  LPSA32    1               0.0000000000
     34533      1117  ECLIPA    H710R         -30.6309088722       27.4953201225        6.8648012698  LPSA32    1               0.0000000000
     34534      1117  ECLIPA    H710S         -28.8868588745       27.2164761207        6.4862853964  LPSA32    1               0.0000000000
     34535      1117  ECLIPA    C711          -30.2718080242       26.5233978530        4.9854899922  LPSA32    1               0.0000000000
     34536      1117  ECLIPA    H711R         -29.5405094333       25.8159022041        4.5337294189  LPSA32    1               0.0000000000
     34537      1117  ECLIPA    H711S         -31.2942014120       26.0847843213        4.9216316313  LPSA32    1               0.0000000000
     34538      1117  ECLIPA    C712          -30.2683987545       27.8582048103        4.2435289722  LPSA32    1               0.0000000000
     34539      1117  ECLIPA    H712R         -29.2350773061       28.2686160395        4.2598018437  LPSA32    1               0.0000000000
     34540      1117  ECLIPA    H712S         -30.9116493254       28.5497681019        4.8293722980  LPSA32    1               0.0000000000
     34541      1117  ECLIPA    C713          -30.8018824864       27.7663674640        2.8192885810  LPSA32    1               0.0000000000
     34542      1117  ECLIPA    H713R         -31.8598860876       27.4111523583        2.8461817415  LPSA32    1               0.0000000000
     34543      1117  ECLIPA    H713S         -30.7767715784       28.7700960093        2.3419559474  LPSA32    1               0.0000000000
     34544      1117  ECLIPA    C714          -29.9854433346       26.8689696408        1.9263504597  LPSA32    1               0.0000000000
     34545      1117  ECLIPA    H714R         -28.9468578425       27.2317690169        1.8333112886  LPSA32    1               0.0000000000
     34546      1117  ECLIPA    H714S         -29.9793913694       25.8136925878        2.2704584641  LPSA32    1               0.0000000000
     34547      1117  ECLIPA    H714T         -30.4092365537       26.8770089564        0.9037627156  LPSA32    1               0.0000000000
     34548      1117  ECLIPA    C51           -33.9479270203       24.9436734376       14.2326616320  LPSA32    1               0.0000000000
     34549      1117  ECLIPA    O51           -34.0404971412       26.1465238938       14.0732559719  LPSA32    1               0.0000000000
     34550      1117  ECLIPA    C52           -33.6661755944       24.0365927848       13.0555952045  LPSA32    1               0.0000000000
     34551      1117  ECLIPA    H52R          -32.5675305284       23.9076323692       12.9300088946  LPSA32    1               0.0000000000
     34552      1117  ECLIPA    H52S          -34.1087675421       23.0512912804       13.2481230912  LPSA32    1               0.0000000000
     34553      1117  ECLIPA    C53           -34.2634116143       24.6304452713       11.7623821315  LPSA32    1               0.0000000000
     34554      1117  ECLIPA    H53R          -35.2178242154       25.1689520170       11.9859922602  LPSA32    1               0.0000000000
     34555      1117  ECLIPA    O53           -34.4339672903       23.5302247410       10.8516990291  LPSA32    1               0.0000000000
     34556      1117  ECLIPA    C61           -35.6697233931       23.1636322307       10.5343442329  LPSA32    1               0.0000000000
     34557      1117  ECLIPA    O61           -36.6898227658       23.7197095962       10.8632557502  LPSA32    1               0.0000000000
     34558      1117  ECLIPA    C62           -35.6268371344       21.9584498004        9.5939118354  LPSA32    1               0.0000000000
     34559      1117  ECLIPA    H62R          -35.5223084484       21.0519311483       10.2179813226  LPSA32    1               0.0000000000
     34560      1117  ECLIPA    H62S          -34.6934280929       22.0517505952        9.0081846461  LPSA32    1               0.0000000000
     34561      1117  ECLIPA    C63           -36.9177783721       21.9010359788        8.7200153106  LPSA32    1               0.0000000000
     34562      1117  ECLIPA    H63R          -37.1196979612       22.9049917498        8.3028284431  LPSA32    1               0.0000000000
     34563      1117  ECLIPA    H63S          -37.7874779520       21.5642468765        9.3351720411  LPSA32    1               0.0000000000
     34564      1117  ECLIPA    C64           -36.8410938518       21.0425252642        7.4610160241  LPSA32    1               0.0000000000
     34565      1117  ECLIPA    H64R          -37.8224303434       20.8900539794        6.9636318883  LPSA32    1               0.0000000000
     34566      1117  ECLIPA    H64S          -36.5692188934       20.0926559505        7.8800348342  LPSA32    1               0.0000000000
     34567      1117  ECLIPA    C65           -35.6822523444       21.4476302358        6.5295022103  LPSA32    1               0.0000000000
     34568      1117  ECLIPA    H65R          -34.7755893988       21.3229837264        7.1561727187  LPSA32    1               0.0000000000
     34569      1117  ECLIPA    H65S          -35.8676381503       22.4891073131        6.2339238916  LPSA32    1               0.0000000000
     34570      1117  ECLIPA    C66           -35.3411047504       20.7346840720        5.2130233244  LPSA32    1               0.0000000000
     34571      1117  ECLIPA    H66R          -34.9001151108       19.7638719949        5.4163851798  LPSA32    1               0.0000000000
     34572      1117  ECLIPA    H66S          -34.4693275162       21.1673546216        4.7091113836  LPSA32    1               0.0000000000
     34573      1117  ECLIPA    C67           -36.4706892732       20.6393322881        4.2319120022  LPSA32    1               0.0000000000
     34574      1117  ECLIPA    H67R          -37.4572466408       20.2245608854        4.5880149453  LPSA32    1               0.0000000000
     34575      1117  ECLIPA    H67S          -36.0827449595       20.0530047222        3.3510533304  LPSA32    1               0.0000000000
     34576      1117  ECLIPA    C68           -36.8299732314       21.9751828778        3.6873718621  LPSA32    1               0.0000000000
     34577      1117  ECLIPA    H68R          -35.9033541474       22.4162373989        3.1919317709  LPSA32    1               0.0000000000
     34578      1117  ECLIPA    H68S          -37.2109683093       22.6091883360        4.4790961681  LPSA32    1               0.0000000000
     34579      1117  ECLIPA    C69           -38.0135767621       21.7128586246        2.7759167726  LPSA32    1               0.0000000000
     34580      1117  ECLIPA    H69R          -38.5008105986       20.7643704973        2.4815122579  LPSA32    1               0.0000000000
     34581      1117  ECLIPA    H69S          -37.1105760827       21.2990556108        2.3503660914  LPSA32    1               0.0000000000
     34582      1117  ECLIPA    C610          -38.6567664115       23.0043953792        2.1745421160  LPSA32    1               0.0000000000
     34583      1117  ECLIPA    H610R         -37.8695298476       23.7977822662        2.1141213258  LPSA32    1               0.0000000000
     34584      1117  ECLIPA    H610S         -39.4405534127       23.1937291471        2.9043528550  LPSA32    1               0.0000000000
     34585      1117  ECLIPA    C611          -39.5148577000       22.9994525680        0.8973588612  LPSA32    1               0.0000000000
     34586      1117  ECLIPA    H611R         -39.8908760991       21.9723547600        0.6507360922  LPSA32    1               0.0000000000
     34587      1117  ECLIPA    H611S         -40.2943502630       23.7457243380        0.7290691370  LPSA32    1               0.0000000000
     34588      1117  ECLIPA    C612          -39.0154265576       23.6383236055       -0.3132367314  LPSA32    1               0.0000000000
     34589      1117  ECLIPA    H612R         -38.0185180428       24.1883741160       -0.3150817938  LPSA32    1               0.0000000000
     34590      1117  ECLIPA    H612S         -38.3498134053       23.0059204937       -0.5523174151  LPSA32    1               0.0000000000
     34591      1117  ECLIPA    H612T         -39.1987363290       22.7172865047       -0.9728553234  LPSA32    1               0.0000000000
     34592      1117  ECLIPA    C54           -33.2336627116       25.6291765263       11.1701490117  LPSA32    1               0.0000000000
     34593      1117  ECLIPA    H54R          -32.3380517168       25.0366075292       10.8819214267  LPSA32    1               0.0000000000
     34594      1117  ECLIPA    H54S          -32.9316800369       26.3281959214       11.9772603952  LPSA32    1               0.0000000000
     34595      1117  ECLIPA    C55           -33.6947830077       26.4699776161        9.9634295967  LPSA32    1               0.0000000000
     34596      1117  ECLIPA    H55R          -33.0053868445       27.3302778750        9.8233282796  LPSA32    1               0.0000000000
     34597      1117  ECLIPA    H55S          -34.6863554666       26.9136303841       10.2011926679  LPSA32    1               0.0000000000
     34598      1117  ECLIPA    C56           -33.6717945420       25.6157681585        8.6893716839  LPSA32    1               0.0000000000
     34599      1117  ECLIPA    H56R          -34.3041070518       24.7244130189        8.8593814362  LPSA32    1               0.0000000000
     34600      1117  ECLIPA    H56S          -32.6344150089       25.2530438564        8.5042774971  LPSA32    1               0.0000000000
     34601      1117  ECLIPA    C57           -34.2119573222       26.2352056489        7.4029051035  LPSA32    1               0.0000000000
     34602      1117  ECLIPA    H57R          -33.7184308596       27.2052636671        7.1804971378  LPSA32    1               0.0000000000
     34603      1117  ECLIPA    H57S          -35.2970435299       26.4452117969        7.5430674298  LPSA32    1               0.0000000000
     34604      1117  ECLIPA    C58           -34.0457754218       25.2330353398        6.2399267599  LPSA32    1               0.0000000000
     34605      1117  ECLIPA    H58R          -33.0234898971       24.8011737958        6.2160567976  LPSA32    1               0.0000000000
     34606      1117  ECLIPA    H58S          -34.7214346253       24.3748260102        6.4607664359  LPSA32    1               0.0000000000
     34607      1117  ECLIPA    C59           -34.3456525499       25.8703836789        4.8707786949  LPSA32    1               0.0000000000
     34608      1117  ECLIPA    H59R          -33.6892581347       26.7577552607        4.7156420139  LPSA32    1               0.0000000000
     34609      1117  ECLIPA    H59S          -35.3912322367       26.2396894193        4.9593140386  LPSA32    1               0.0000000000
     34610      1117  ECLIPA    C510          -34.0850177699       24.9546188300        3.6473573888  LPSA32    1               0.0000000000
     34611      1117  ECLIPA    H510R         -34.5086134534       23.9439976993        3.8237404914  LPSA32    1               0.0000000000
     34612      1117  ECLIPA    H510S         -32.9837691789       24.8357112445        3.5205695033  LPSA32    1               0.0000000000
     34613      1117  ECLIPA    C511          -34.6256562126       25.4798426591        2.3018959603  LPSA32    1               0.0000000000
     34614      1117  ECLIPA    H511R         -35.7167323093       25.2590665478        2.2663071252  LPSA32    1               0.0000000000
     34615      1117  ECLIPA    H511S         -34.5077233047       26.5820780683        2.2285896652  LPSA32    1               0.0000000000
     34616      1117  ECLIPA    C512          -33.9254077323       24.8742241477        1.0721298593  LPSA32    1               0.0000000000
     34617      1117  ECLIPA    H512R         -34.2300515862       25.4305895771        0.1449093080  LPSA32    1               0.0000000000
     34618      1117  ECLIPA    H512S         -32.8260627827       24.8315467645        1.1388115960  LPSA32    1               0.0000000000
     34619      1117  ECLIPA    C513          -34.3358008023       23.4746262186        0.7796406164  LPSA32    1               0.0000000000
     34620      1117  ECLIPA    H513R         -35.4269858785       23.6521512742        0.9386430450  LPSA32    1               0.0000000000
     34621      1117  ECLIPA    H513S         -34.2559402545       22.6621875853        1.5170043905  LPSA32    1               0.0000000000
     34622      1117  ECLIPA    C514          -33.7780208552       23.0429783996       -0.6300815594  LPSA32    1               0.0000000000
     34623      1117  ECLIPA    H514R         -32.7457197699       23.1216811849       -0.8128554743  LPSA32    1               0.0000000000
     34624      1117  ECLIPA    H514S         -33.8761967214       21.9469958244       -0.8166970609  LPSA32    1               0.0000000000
     34625      1117  ECLIPA    H514T         -34.2590534044       23.5663113360       -1.4789444105  LPSA32    1               0.0000000000
     34626      1117  ECLIPA    C33           -36.7614444212       20.5887484274       14.4772584739  LPSA32    1               0.0000000000
     34627      1117  ECLIPA    H33R          -36.6939105054       19.5368364132       14.8585650092  LPSA32    1               0.0000000000
     34628      1117  ECLIPA    O33           -36.2116064913       21.4339174509       15.4582859209  LPSA32    1               0.0000000000
     34629      1117  ECLIPA    HO33          -36.4859733695       21.1965113536       16.3490632411  LPSA32    1               0.0000000000
     34630      1117  ECLIPA    C34           -35.8501291153       20.7380585478       13.2546512710  LPSA32    1               0.0000000000
     34631      1117  ECLIPA    H34R          -35.9080186687       21.7511654243       12.8344534773  LPSA32    1               0.0000000000
     34632      1117  ECLIPA    H34S          -36.2948009154       20.1415347175       12.4611355923  LPSA32    1               0.0000000000
     34633      1117  ECLIPA    C35           -34.3512558175       20.4359097424       13.5310934824  LPSA32    1               0.0000000000
     34634      1117  ECLIPA    H35R          -34.2945909904       19.4521475824       14.0454113646  LPSA32    1               0.0000000000
     34635      1117  ECLIPA    H35S          -33.9325628954       21.0440018005       14.3393580563  LPSA32    1               0.0000000000
     34636      1117  ECLIPA    C36           -33.4563235855       20.5744998595       12.2442533445  LPSA32    1               0.0000000000
     34637      1117  ECLIPA    H36R          -33.9300243962       21.3722533530       11.6674680111  LPSA32    1               0.0000000000
     34638      1117  ECLIPA    H36S          -33.4033421586       19.7637006706       11.4744797644  LPSA32    1               0.0000000000
     34639      1117  ECLIPA    C37           -31.9877227553       20.8069131053       12.5407904359  LPSA32    1               0.0000000000
     34640      1117  ECLIPA    H37R          -31.4665219063       19.8198711678       12.6696542658  LPSA32    1               0.0000000000
     34641      1117  ECLIPA    H37S          -31.9460173599       21.3253736106       13.5174177242  LPSA32    1               0.0000000000
     34642      1117  ECLIPA    C38           -31.3036497366       21.6188763998       11.4285562863  LPSA32    1               0.0000000000
     34643      1117  ECLIPA    H38R          -31.6637650202       22.6682197699       11.4266402838  LPSA32    1               0.0000000000
     34644      1117  ECLIPA    H38S          -30.2201215167       21.6418814378       11.6746047427  LPSA32    1               0.0000000000
     34645      1117  ECLIPA    C39           -31.5468710308       21.0386343022       10.0223401809  LPSA32    1               0.0000000000
     34646      1117  ECLIPA    H39R          -32.6383347013       20.9483713893        9.8210271177  LPSA32    1               0.0000000000
     34647      1117  ECLIPA    H39S          -31.0784035784       20.0265316968        9.9879846068  LPSA32    1               0.0000000000
     34648      1117  ECLIPA    C310          -30.9537656520       21.8484504214        8.8690660685  LPSA32    1               0.0000000000
     34649      1117  ECLIPA    H310R         -29.8499847598       21.7290907075        8.9618943355  LPSA32    1               0.0000000000
     34650      1117  ECLIPA    H310S         -31.2065352452       22.9269035706        8.9561520331  LPSA32    1               0.0000000000
     34651      1117  ECLIPA    C311          -31.5356045441       21.4058043849        7.5136720564  LPSA32    1               0.0000000000
     34652      1117  ECLIPA    H311R         -31.7282083820       20.3101386032        7.5283551500  LPSA32    1               0.0000000000
     34653      1117  ECLIPA    H311S         -32.5189973354       21.9110482726        7.3639995614  LPSA32    1               0.0000000000
     34654      1117  ECLIPA    C312          -30.6775415070       21.7834640214        6.3012336636  LPSA32    1               0.0000000000
     34655      1117  ECLIPA    H312R         -30.1790117027       22.7600364934        6.4877855961  LPSA32    1               0.0000000000
     34656      1117  ECLIPA    H312S         -29.8928864832       21.0038770009        6.1829932916  LPSA32    1               0.0000000000
     34657      1117  ECLIPA    C313          -31.5033270770       21.8690912253        5.0050442763  LPSA32    1               0.0000000000
     34658      1117  ECLIPA    H313R         -31.7741365697       20.8221408370        4.7469541411  LPSA32    1               0.0000000000
     34659      1117  ECLIPA    H313S         -32.4522266761       22.4305104120        5.1753330295  LPSA32    1               0.0000000000
     34660      1117  ECLIPA    C314          -30.7643824816       22.4961901068        3.8190130585  LPSA32    1               0.0000000000
     34661      1117  ECLIPA    H314R         -29.8495557115       21.9094289827        3.5957692442  LPSA32    1               0.0000000000
     34662      1117  ECLIPA    H314S         -31.3999906627       22.5116870977        2.9060413524  LPSA32    1               0.0000000000
     34663      1117  ECLIPA    H314T         -30.4688172453       23.5429311065        4.0447704520  LPSA32    1               0.0000000000
     34664      1117  ECLIPA    C11           -38.5834495981       26.1247860964       11.2538396642  LPSA32    1               0.0000000000
     34665      1117  ECLIPA    O11           -37.4857109672       26.6421963204       11.0944703105  LPSA32    1               0.0000000000
     34666      1117  ECLIPA    C12           -39.7234446862       26.4652261349       10.3258164044  LPSA32    1               0.0000000000
     34667      1117  ECLIPA    H12R          -40.0847906021       27.4862833800       10.5525841846  LPSA32    1               0.0000000000
     34668      1117  ECLIPA    H12S          -40.5391525841       25.7358146712       10.5122980777  LPSA32    1               0.0000000000
     34669      1117  ECLIPA    C13           -39.3320072538       26.3732418384        8.8543028055  LPSA32    1               0.0000000000
     34670      1117  ECLIPA    H13R          -38.3320932060       26.8229515769        8.6439707235  LPSA32    1               0.0000000000
     34671      1117  ECLIPA    O13           -40.3063219471       27.1089244551        8.1210392140  LPSA32    1               0.0000000000
     34672      1117  ECLIPA    HO13          -39.9915347407       27.4619819599        7.2846733200  LPSA32    1               0.0000000000
     34673      1117  ECLIPA    C14           -39.3157505272       24.8882447220        8.4391188923  LPSA32    1               0.0000000000
     34674      1117  ECLIPA    H14R          -40.1297373645       24.3347396748        8.9591648159  LPSA32    1               0.0000000000
     34675      1117  ECLIPA    H14S          -38.3385508536       24.4826392553        8.7777594047  LPSA32    1               0.0000000000
     34676      1117  ECLIPA    C15           -39.4292697131       24.6032035349        6.9479264709  LPSA32    1               0.0000000000
     34677      1117  ECLIPA    H15R          -40.3572143907       25.0844678055        6.5683200247  LPSA32    1               0.0000000000
     34678      1117  ECLIPA    H15S          -39.5589570311       23.5042921977        6.8238931152  LPSA32    1               0.0000000000
     34679      1117  ECLIPA    C16           -38.1907509597       25.0907007149        6.1893961552  LPSA32    1               0.0000000000
     34680      1117  ECLIPA    H16R          -37.3640742073       24.3595873610        6.2807098644  LPSA32    1               0.0000000000
     34681      1117  ECLIPA    H16S          -37.8224365348       26.0301955776        6.6510521664  LPSA32    1               0.0000000000
     34682      1117  ECLIPA    C17           -38.5104242160       25.3000256297        4.7198205155  LPSA32    1               0.0000000000
     34683      1117  ECLIPA    H17R          -39.1217458367       24.4289719843        4.4010934453  LPSA32    1               0.0000000000
     34684      1117  ECLIPA    H17S          -37.6090026812       25.3353403607        4.0733653078  LPSA32    1               0.0000000000
     34685      1117  ECLIPA    C18           -39.3041073849       26.5742004653        4.5171945673  LPSA32    1               0.0000000000
     34686      1117  ECLIPA    H18R          -40.2415605123       26.5022483940        5.1102131958  LPSA32    1               0.0000000000
     34687      1117  ECLIPA    H18S          -38.7296850290       27.4761492465        4.8214701251  LPSA32    1               0.0000000000
     34688      1117  ECLIPA    C19           -39.6682415257       26.7406838802        3.0732758656  LPSA32    1               0.0000000000
     34689      1117  ECLIPA    H19R          -40.3866821607       27.5895447252        3.0764535717  LPSA32    1               0.0000000000
     34690      1117  ECLIPA    H19S          -40.2088803943       25.8196601276        2.7405530076  LPSA32    1               0.0000000000
     34691      1117  ECLIPA    C110          -38.4385831868       26.9922972481        2.1689758068  LPSA32    1               0.0000000000
     34692      1117  ECLIPA    H110R         -37.8931662157       27.9036928083        2.5122604633  LPSA32    1               0.0000000000
     34693      1117  ECLIPA    H110S         -37.8309687345       26.0787935607        2.1891168248  LPSA32    1               0.0000000000
     34694      1117  ECLIPA    C111          -38.7446602229       27.2155278238        0.7090717813  LPSA32    1               0.0000000000
     34695      1117  ECLIPA    H111R         -39.2646253681       26.4102527099        0.1440377099  LPSA32    1               0.0000000000
     34696      1117  ECLIPA    H111S         -39.1512964930       28.2715822804        0.7317116366  LPSA32    1               0.0000000000
     34697      1117  ECLIPA    C112          -37.8149699195       27.2905697686       -0.3208939005  LPSA32    1               0.0000000000
     34698      1117  ECLIPA    H112R         -37.5826993773       28.3558233478       -0.0199832234  LPSA32    1               0.0000000000
     34699      1117  ECLIPA    H112S         -37.1461589812       26.4557067033       -0.0654598812  LPSA32    1               0.0000000000
     34700      1117  ECLIPA    C113          -37.9829070652       26.9750830567       -1.8035429543  LPSA32    1               0.0000000000
     34701      1117  ECLIPA    H113R         -38.4831345834       26.0562338981       -2.0921553579  LPSA32    1               0.0000000000
     34702      1117  ECLIPA    H113S         -38.3876727070       27.9372886743       -1.9969542273  LPSA32    1               0.0000000000
     34703      1117  ECLIPA    C114          -37.6145060290       27.5428166677       -3.0538449695  LPSA32    1               0.0000000000
     34704      1117  ECLIPA    H114R         -37.3014525819       28.6074538258       -3.0971838023  LPSA32    1               0.0000000000
     34705      1117  ECLIPA    H114S         -36.8298032700       26.8058018651       -3.1272894151  LPSA32    1               0.0000000000
     34706      1117  ECLIPA    H114T         -38.0122895380       27.9030735571       -4.0124341088  LPSA32    1               0.0000000000
     34707      1118  AKDO      C1            -32.7727819681       24.1813211913       22.4212117829  LPSA32    2               0.0000000000
     34708      1118  AKDO      O11           -31.5236872147       24.2992075309       22.4526717431  LPSA32    2               0.0000000000
     34709      1118  AKDO      O12           -33.4455737979       23.1613254415       22.0939491442  LPSA32    2               0.0000000000
     34710      1118  AKDO      C2            -33.5964362418       25.4227489539       22.8715330318  LPSA32    2               0.0000000000
     34711      1118  AKDO      C6            -33.4362588130       27.6002246226       23.8696769949  LPSA32    2               0.0000000000
     34712      1118  AKDO      H6            -33.9870492387       27.9425609534       22.9580106771  LPSA32    2               0.0000000000
     34713      1118  AKDO      O6            -32.7283833400       26.4250472037       23.4661297099  LPSA32    2               0.0000000000
     34714      1118  AKDO      C3            -34.6526151703       25.0701761193       23.9249430898  LPSA32    2               0.0000000000
     34715      1118  AKDO      H31           -34.1714008465       24.5514258050       24.7846950934  LPSA32    2               0.0000000000
     34716      1118  AKDO      H32           -35.3792292647       24.3714875534       23.4526354030  LPSA32    2               0.0000000000
     34717      1118  AKDO      C4            -35.4055976262       26.2787002846       24.3729011309  LPSA32    2               0.0000000000
     34718      1118  AKDO      H4            -35.8681709074       26.7683002035       23.4867265596  LPSA32    2               0.0000000000
     34719      1118  AKDO      O4            -36.3823306333       25.9548168095       25.3644866753  LPSA32    2               0.0000000000
     34720      1118  AKDO      C5            -34.4727963281       27.3000009643       24.9672671501  LPSA32    2               0.0000000000
     34721      1118  AKDO      H5            -35.0686170984       28.2385294017       25.0916304586  LPSA32    2               0.0000000000
     34722      1118  AKDO      O5            -34.0053192672       26.7989964546       26.2583419938  LPSA32    2               0.0000000000
     34723      1118  AKDO      C7            -32.4572032311       28.7157942844       24.1746513319  LPSA32    2               0.0000000000
     34724      1118  AKDO      H7            -31.8915486406       28.4532667678       25.0887772319  LPSA32    2               0.0000000000
     34725      1118  AKDO      O7            -33.1808848495       29.9370491687       24.3798803403  LPSA32    2               0.0000000000
     34726      1118  AKDO      HO7           -33.2604687978       30.3346325670       23.5279133348  LPSA32    2               0.0000000000
     34727      1118  AKDO      C8            -31.4706172594       28.8889754921       23.0273117822  LPSA32    2               0.0000000000
     34728      1118  AKDO      H81           -30.9551214270       27.9100374509       22.8615915915  LPSA32    2               0.0000000000
     34729      1118  AKDO      H82           -32.0301567275       29.1378493612       22.0977822441  LPSA32    2               0.0000000000
     34730      1118  AKDO      O8            -30.4813208247       29.9042944657       23.2988958982  LPSA32    2               0.0000000000
     34731      1118  AKDO      HO8           -29.6441359390       29.6149229531       22.8979294170  LPSA32    2               0.0000000000
     34732      1119  AKDO      C1            -38.2364076378       26.1941213917       23.7893932061  LPSA32    3               1.0000000000
     34733      1119  AKDO      O11           -38.0923074846       25.6854092379       22.6389055143  LPSA32    3               1.0000000000
     34734      1119  AKDO      O12           -38.6379198137       27.3551137742       24.0840930254  LPSA32    3               1.0000000000
     34735      1119  AKDO      C2            -37.6336604642       25.4122210626       24.9967970979  LPSA32    3               1.0000000000
     34736      1119  AKDO      C6            -36.9375658373       23.2370245398       25.7825561253  LPSA32    3               1.0000000000
     34737      1119  AKDO      H6            -35.8976633878       23.5946645208       25.9506760310  LPSA32    3               1.0000000000
     34738      1119  AKDO      O6            -37.5658853979       23.9916905910       24.7201779310  LPSA32    3               1.0000000000
     34739      1119  AKDO      C3            -38.4211691961       25.5727367350       26.3112672546  LPSA32    3               1.0000000000
     34740      1119  AKDO      H31           -39.4362215233       25.1690816472       26.1059415977  LPSA32    3               1.0000000000
     34741      1119  AKDO      H32           -38.5410655016       26.6469367639       26.5771287766  LPSA32    3               1.0000000000
     34742      1119  AKDO      C4            -37.7500151136       24.8318980556       27.4322793818  LPSA32    3               1.0000000000
     34743      1119  AKDO      H4            -36.6908036228       25.1583117025       27.4891739091  LPSA32    3               1.0000000000
     34744      1119  AKDO      O4            -38.3382719506       25.0574787970       28.7092500525  LPSA32    3               1.0000000000
     34745      1119  AKDO      HO4           -37.6706206259       25.3426009594       29.3517942011  LPSA32    3               1.0000000000
     34746      1119  AKDO      C5            -37.6809780379       23.3926041202       27.0720188766  LPSA32    3               1.0000000000
     34747      1119  AKDO      H5            -37.2506321061       22.8123114749       27.9064888128  LPSA32    3               1.0000000000
     34748      1119  AKDO      O5            -38.9269821950       22.8285229852       26.9058218366  LPSA32    3               1.0000000000
     34749      1119  AKDO      HO5           -39.4526313750       23.3709363569       26.2889521659  LPSA32    3               1.0000000000
     34750      1119  AKDO      C7            -36.8685328923       21.7977269269       25.3548994031  LPSA32    3               1.0000000000
     34751      1119  AKDO      H7            -37.9027617928       21.4197859227       25.1346617332  LPSA32    3               1.0000000000
     34752      1119  AKDO      O7            -36.3043995848       20.9982698109       26.4095121823  LPSA32    3               1.0000000000
     34753      1119  AKDO      HO7           -36.3919148526       20.1007273663       26.0910326440  LPSA32    3               1.0000000000
     34754      1119  AKDO      C8            -36.0255907645       21.7241908391       24.1083029310  LPSA32    3               1.0000000000
     34755      1119  AKDO      H81           -36.4272946936       22.4035084185       23.3261758249  LPSA32    3               1.0000000000
     34756      1119  AKDO      H82           -34.9732697514       22.0295678106       24.3107175002  LPSA32    3               1.0000000000
     34757      1119  AKDO      O8            -36.0892703604       20.4051875861       23.5827651881  LPSA32    3               1.0000000000
     34758      1119  AKDO      HO8           -36.9643342060       20.3662882223       23.1830061606  LPSA32    3               1.0000000000
     34759      1120  AHEP      C1            -33.7205790352       27.7684265340       27.2530979828  LPSA32    4               2.0000000000
     34760      1120  AHEP      H1            -32.7643505986       28.2116599664       26.9104400512  LPSA32    4               2.0000000000
     34761      1120  AHEP      C5            -35.8845545065       28.5480702677       27.9927457775  LPSA32    4               2.0000000000
     34762      1120  AHEP      H5            -36.3028025169       27.6325219938       27.5119801546  LPSA32    4               2.0000000000
     34763      1120  AHEP      O5            -34.6490693535       28.8593400918       27.3083263685  LPSA32    4               2.0000000000
     34764      1120  AHEP      C2            -33.4220786138       27.3393021124       28.7085548653  LPSA32    4               2.0000000000
     34765      1120  AHEP      H2            -32.7643455841       26.4448063830       28.6776587397  LPSA32    4               2.0000000000
     34766      1120  AHEP      O2            -32.6661592620       28.3544289868       29.3733951969  LPSA32    4               2.0000000000
     34767      1120  AHEP      HO2           -31.9909523993       27.9476368010       29.9087486585  LPSA32    4               2.0000000000
     34768      1120  AHEP      C3            -34.6705727061       26.9641756212       29.4929345251  LPSA32    4               2.0000000000
     34769      1120  AHEP      H3            -35.1648084301       26.0526749230       29.0920363244  LPSA32    4               2.0000000000
     34770      1120  AHEP      O3            -34.3273051475       26.7391552953       30.8768834876  LPSA32    4               2.0000000000
     34771      1120  AHEP      C4            -35.6013192601       28.1589609840       29.4502026002  LPSA32    4               2.0000000000
     34772      1120  AHEP      H4            -35.1667739263       29.0504340667       29.9645695532  LPSA32    4               2.0000000000
     34773      1120  AHEP      O4            -36.8206213890       27.7211241056       30.0466851469  LPSA32    4               2.0000000000
     34774      1120  AHEP      P4            -37.3242638854       28.3815954164       31.4855084840  LPSA32    4               2.0000000000
     34775      1120  AHEP      OP42          -38.0279885850       27.2260133612       32.1650148109  LPSA32    4               2.0000000000
     34776      1120  AHEP      OP43          -38.2167211951       29.5558941969       31.1033999260  LPSA32    4               2.0000000000
     34777      1120  AHEP      OP44          -36.0859419455       28.8049971939       32.2518148935  LPSA32    4               2.0000000000
     34778      1120  AHEP      C6            -36.8720477576       29.7341454521       27.7875846592  LPSA32    4               2.0000000000
     34779      1120  AHEP      H6            -37.8792534368       29.3241422244       28.0782101570  LPSA32    4               2.0000000000
     34780      1120  AHEP      O6            -36.6321675239       30.8916381184       28.6275118514  LPSA32    4               2.0000000000
     34781      1120  AHEP      HO6           -37.3551023971       30.9513592978       29.2803203807  LPSA32    4               2.0000000000
     34782      1120  AHEP      C7            -36.9722342843       30.2363493657       26.3153267074  LPSA32    4               2.0000000000
     34783      1120  AHEP      H71           -37.8863634034       30.8582560367       26.1986142416  LPSA32    4               2.0000000000
     34784      1120  AHEP      H72           -37.0582795770       29.3513407144       25.6495924726  LPSA32    4               2.0000000000
     34785      1120  AHEP      O7            -35.9090332936       31.0590797170       25.7814253508  LPSA32    4               2.0000000000
     34786      1120  AHEP      HO7           -35.9287814866       31.7862474062       26.4092052532  LPSA32    4               2.0000000000
     34787      1121  AHEP      C1            -34.6153799976       25.4917727291       31.4562068361  LPSA32    5               3.0000000000
     34788      1121  AHEP      H1            -35.5171930018       25.0421416184       30.9780662560  LPSA32    5               3.0000000000
     34789      1121  AHEP      C5            -32.3063745135       25.1082653905       31.9502117769  LPSA32    5               3.0000000000
     34790      1121  AHEP      H5            -32.1309164964       26.1480515827       31.5899304794  LPSA32    5               3.0000000000
     34791      1121  AHEP      O5            -33.4896127710       24.6098781314       31.2794792407  LPSA32    5               3.0000000000
     34792      1121  AHEP      C2            -34.9031033098       25.6168383109       32.9600197100  LPSA32    5               3.0000000000
     34793      1121  AHEP      H2            -35.7226710693       26.3648007678       33.0877455726  LPSA32    5               3.0000000000
     34794      1121  AHEP      O2            -35.3751106423       24.3499473580       33.4654475163  LPSA32    5               3.0000000000
     34795      1121  AHEP      HO2           -36.3190602354       24.4160733210       33.6492107173  LPSA32    5               3.0000000000
     34796      1121  AHEP      C3            -33.6866713854       26.1532143525       33.7276110077  LPSA32    5               3.0000000000
     34797      1121  AHEP      H3            -33.4302818458       27.1577285492       33.3112455386  LPSA32    5               3.0000000000
     34798      1121  AHEP      O3            -33.8663756663       26.2691062271       35.1621115967  LPSA32    5               3.0000000000
     34799      1121  AHEP      C4            -32.5383330446       25.2049489817       33.4537860987  LPSA32    5               3.0000000000
     34800      1121  AHEP      H4            -32.7847254279       24.1839676924       33.8411834745  LPSA32    5               3.0000000000
     34801      1121  AHEP      O4            -31.3475194341       25.7629216066       34.0176768046  LPSA32    5               3.0000000000
     34802      1121  AHEP      P4            -30.5822583610       24.9429606641       35.2423422710  LPSA32    5               3.0000000000
     34803      1121  AHEP      OP42          -29.5701521127       25.9663126772       35.7748908941  LPSA32    5               3.0000000000
     34804      1121  AHEP      OP43          -29.8415057448       23.7619591679       34.6114408991  LPSA32    5               3.0000000000
     34805      1121  AHEP      OP44          -31.6811573715       24.5932015998       36.2412363208  LPSA32    5               3.0000000000
     34806      1121  AHEP      C6            -31.0780623044       24.2768076155       31.5590822590  LPSA32    5               3.0000000000
     34807      1121  AHEP      H6            -30.1795295446       24.7278094204       32.0467371331  LPSA32    5               3.0000000000
     34808      1121  AHEP      O6            -31.1981949691       22.9126638312       32.0015945722  LPSA32    5               3.0000000000
     34809      1121  AHEP      HO6           -31.8114623851       22.4146841476       31.4792214666  LPSA32    5               3.0000000000
     34810      1121  AHEP      C7            -30.8248291588       24.3341426241       30.0679253284  LPSA32    5               3.0000000000
     34811      1121  AHEP      H71           -29.7212485475       24.3418161852       29.9149644065  LPSA32    5               3.0000000000
     34812      1121  AHEP      H72           -31.1990520027       25.2752838316       29.6138243085  LPSA32    5               3.0000000000
     34813      1121  AHEP      O7            -31.3110132452       23.1579070308       29.4212620689  LPSA32    5               3.0000000000
     34814      1122  AHEP      C1            -32.5336003332       23.3687132499       28.7810694349  LPSA32    6               4.0000000000
     34815      1122  AHEP      H1            -32.9885894091       24.3440435285       29.0333460361  LPSA32    6               4.0000000000
     34816      1122  AHEP      C5            -31.7595029974       22.1060188413       26.9533601796  LPSA32    6               4.0000000000
     34817      1122  AHEP      H5            -30.8165918133       21.9365751377       27.5191789789  LPSA32    6               4.0000000000
     34818      1122  AHEP      O5            -32.3199788665       23.3575580753       27.3724774498  LPSA32    6               4.0000000000
     34819      1122  AHEP      C2            -33.4858145797       22.2944354174       29.2214407128  LPSA32    6               4.0000000000
     34820      1122  AHEP      H2            -33.5821054382       22.3508809930       30.3347972864  LPSA32    6               4.0000000000
     34821      1122  AHEP      O2            -34.7995126116       22.5323403051       28.7253726928  LPSA32    6               4.0000000000
     34822      1122  AHEP      HO2           -35.3650478766       22.8287368086       29.4411712789  LPSA32    6               4.0000000000
     34823      1122  AHEP      C3            -32.9064906341       20.9535684971       28.8492336397  LPSA32    6               4.0000000000
     34824      1122  AHEP      H3            -31.9625459246       20.7596297873       29.4027535191  LPSA32    6               4.0000000000
     34825      1122  AHEP      O3            -33.8724284336       19.9970384054       29.2703329249  LPSA32    6               4.0000000000
     34826      1122  AHEP      HO3           -33.5363154896       19.3510198005       29.9055624411  LPSA32    6               4.0000000000
     34827      1122  AHEP      C4            -32.6473205223       20.9686114520       27.3329691819  LPSA32    6               4.0000000000
     34828      1122  AHEP      H4            -33.6279880575       21.0098833535       26.7874977561  LPSA32    6               4.0000000000
     34829      1122  AHEP      O4            -31.8431858207       19.8951680384       26.8437873696  LPSA32    6               4.0000000000
     34830      1122  AHEP      HO4           -31.0372369924       19.6772176877       27.2910052533  LPSA32    6               4.0000000000
     34831      1122  AHEP      C6            -31.3417841283       22.0781759301       25.4793526122  LPSA32    6               4.0000000000
     34832      1122  AHEP      H6            -30.7514418126       21.1525910358       25.2768418139  LPSA32    6               4.0000000000
     34833      1122  AHEP      O6            -32.4662954138       21.9862452388       24.5992948601  LPSA32    6               4.0000000000
     34834      1122  AHEP      HO6           -32.4295826101       22.7431708656       23.9847307553  LPSA32    6               4.0000000000
     34835      1122  AHEP      C7            -30.3306921320       23.1645345887       25.1584000560  LPSA32    6               4.0000000000
     34836      1122  AHEP      H71           -29.9445024091       23.0203489317       24.1236201024  LPSA32    6               4.0000000000
     34837      1122  AHEP      H72           -29.4808121946       23.0567344061       25.8614755018  LPSA32    6               4.0000000000
     34838      1122  AHEP      O7            -30.8026561333       24.4972351651       25.3103598854  LPSA32    6               4.0000000000
     34839      1122  AHEP      HO7           -30.9266265601       24.6643482477       26.2413552072  LPSA32    6               4.0000000000
     34840      1123  AGLC      C1            -34.2951506150       27.5172957382       35.6568225692  LPSA32    7               4.0000000000
     34841      1123  AGLC      H1            -33.7448664324       28.3458370625       35.1591019196  LPSA32    7               4.0000000000
     34842      1123  AGLC      C5            -36.4855247232       26.6710897396       36.0966435159  LPSA32    7               4.0000000000
     34843      1123  AGLC      H5            -36.1319041241       25.6517636417       35.8184129340  LPSA32    7               4.0000000000
     34844      1123  AGLC      O5            -35.6930397056       27.6686976860       35.4333437392  LPSA32    7               4.0000000000
     34845      1123  AGLC      C2            -34.1019708426       27.6828248452       37.1687619611  LPSA32    7               4.0000000000
     34846      1123  AGLC      H2            -34.6082432578       28.6384759908       37.4410046393  LPSA32    7               4.0000000000
     34847      1123  AGLC      O2            -32.7307176470       27.8428708889       37.5424274072  LPSA32    7               4.0000000000
     34848      1123  AGLC      HO2           -32.3136561275       26.9549802499       37.5491716024  LPSA32    7               4.0000000000
     34849      1123  AGLC      C3            -34.8345562981       26.6356507832       37.9747647041  LPSA32    7               4.0000000000
     34850      1123  AGLC      H3            -34.4948742869       25.6389752361       37.6128899238  LPSA32    7               4.0000000000
     34851      1123  AGLC      O3            -34.5668683709       26.7279155854       39.4057667056  LPSA32    7               4.0000000000
     34852      1123  AGLC      C4            -36.3075749349       26.8072854462       37.6086159462  LPSA32    7               4.0000000000
     34853      1123  AGLC      H4            -36.6537153734       27.8240055470       37.9260574250  LPSA32    7               4.0000000000
     34854      1123  AGLC      O4            -37.0824355146       25.7974900500       38.2436482942  LPSA32    7               4.0000000000
     34855      1123  AGLC      HO4           -37.8617444849       26.1496773822       38.6747416393  LPSA32    7               4.0000000000
     34856      1123  AGLC      C6            -37.8827497100       26.7992046993       35.5193542999  LPSA32    7               4.0000000000
     34857      1123  AGLC      H61           -37.8159812938       26.6379434832       34.4160609002  LPSA32    7               4.0000000000
     34858      1123  AGLC      H62           -38.5776790976       26.0039105371       35.8889052395  LPSA32    7               4.0000000000
     34859      1123  AGLC      O6            -38.4140476673       28.1055715470       35.7849936203  LPSA32    7               4.0000000000
     34860      1123  AGLC      HO6           -39.0742856261       28.0105080213       36.4553498128  LPSA32    7               4.0000000000
     34861      1124  AGLC      C1            -33.9532452003       25.5561140426       39.9222149661  LPSA32    8               5.0000000000
     34862      1124  AGLC      H1            -34.4535100643       24.6515704644       39.5036929675  LPSA32    8               5.0000000000
     34863      1124  AGLC      C5            -31.6789412239       26.4501516935       40.2198475480  LPSA32    8               5.0000000000
     34864      1124  AGLC      H5            -32.0487347120       27.4435623750       39.8899454313  LPSA32    8               5.0000000000
     34865      1124  AGLC      O5            -32.5429612980       25.4650782842       39.5981220484  LPSA32    8               5.0000000000
     34866      1124  AGLC      C2            -34.0830235160       25.4340390177       41.4342298809  LPSA32    8               5.0000000000
     34867      1124  AGLC      H2            -33.6566138647       24.4436668878       41.6963200018  LPSA32    8               5.0000000000
     34868      1124  AGLC      O2            -35.4224913191       25.4712892348       41.9501155766  LPSA32    8               5.0000000000
     34869      1124  AGLC      C3            -33.2793174414       26.4889615841       42.1309740216  LPSA32    8               5.0000000000
     34870      1124  AGLC      H3            -33.6661606824       27.4447086096       41.7196105932  LPSA32    8               5.0000000000
     34871      1124  AGLC      O3            -33.5811480005       26.4432010410       43.5443312194  LPSA32    8               5.0000000000
     34872      1124  AGLC      C4            -31.8304027872       26.3179429707       41.7341124775  LPSA32    8               5.0000000000
     34873      1124  AGLC      H4            -31.5130451272       25.2901799641       42.0260838970  LPSA32    8               5.0000000000
     34874      1124  AGLC      O4            -30.9952624760       27.2340266633       42.4284561332  LPSA32    8               5.0000000000
     34875      1124  AGLC      HO4           -31.4008171777       28.1047761594       42.4069719712  LPSA32    8               5.0000000000
     34876      1124  AGLC      C6            -30.2080467227       26.4072034377       39.7378757487  LPSA32    8               5.0000000000
     34877      1124  AGLC      H61           -30.1448297193       26.3098700779       38.6282743138  LPSA32    8               5.0000000000
     34878      1124  AGLC      H62           -29.6856553874       27.3508875913       40.0067334443  LPSA32    8               5.0000000000
     34879      1124  AGLC      O6            -29.4217881200       25.3856623487       40.3396579548  LPSA32    8               5.0000000000
     34880      1124  AGLC      HO6           -29.1613427148       25.6338238357       41.2237599703  LPSA32    8               5.0000000000
     34881      1125  AGAL      C1            -36.3279419366       24.5359527450       41.4353679704  LPSA32    9               6.0000000000
     34882      1125  AGAL      H1            -36.2957327587       24.5129993717       40.3265895005  LPSA32    9               6.0000000000
     34883      1125  AGAL      C5            -36.2309382761       23.0677512522       43.2935189344  LPSA32    9               6.0000000000
     34884      1125  AGAL      H5            -35.6231281255       23.8685319869       43.7602265679  LPSA32    9               6.0000000000
     34885      1125  AGAL      O5            -36.0624571154       23.1943388616       41.8721001489  LPSA32    9               6.0000000000
     34886      1125  AGAL      C2            -37.7318841327       24.9747498683       41.8438187890  LPSA32    9               6.0000000000
     34887      1125  AGAL      H2            -38.4325891327       24.2514500306       41.3799997190  LPSA32    9               6.0000000000
     34888      1125  AGAL      O2            -37.9805054595       26.2552981829       41.2060146786  LPSA32    9               6.0000000000
     34889      1125  AGAL      C3            -37.9267044399       24.8503834308       43.3466936097  LPSA32    9               6.0000000000
     34890      1125  AGAL      H3            -37.2103016285       25.5009221486       43.8955614089  LPSA32    9               6.0000000000
     34891      1125  AGAL      O3            -39.2256383614       25.2657173691       43.7341357217  LPSA32    9               6.0000000000
     34892      1125  AGAL      HO3           -39.4096467666       26.0480418308       43.2091867322  LPSA32    9               6.0000000000
     34893      1125  AGAL      C4            -37.6716859662       23.3931740274       43.7061070697  LPSA32    9               6.0000000000
     34894      1125  AGAL      H4            -37.7605436975       23.2456896587       44.8039114007  LPSA32    9               6.0000000000
     34895      1125  AGAL      O4            -38.6377053719       22.5420389282       43.0910404218  LPSA32    9               6.0000000000
     34896      1125  AGAL      HO4           -38.6479940049       21.7051495971       43.5425281751  LPSA32    9               6.0000000000
     34897      1125  AGAL      C6            -35.6433736504       21.7906874480       43.8522386585  LPSA32    9               6.0000000000
     34898      1125  AGAL      H61           -34.5652552618       21.6895241072       43.6040789265  LPSA32    9               6.0000000000
     34899      1125  AGAL      H62           -35.7369077359       21.7559168752       44.9598977174  LPSA32    9               6.0000000000
     34900      1125  AGAL      O6            -36.3153285237       20.6685567661       43.3421138146  LPSA32    9               6.0000000000
     34901      1125  AGAL      HO6           -35.7694727259       20.2294033094       42.6703146842  LPSA32    9               6.0000000000
     34902      1126  AGAL      C1            -38.6794342114       27.3550995890       41.7548680052  LPSA32    10              7.0000000000
     34903      1126  AGAL      H1            -39.7597876348       27.0914685520       41.8335785840  LPSA32    10              7.0000000000
     34904      1126  AGAL      C5            -36.8771541962       28.3177262744       43.0519669541  LPSA32    10              7.0000000000
     34905      1126  AGAL      H5            -36.2584356288       27.4860493239       42.6489245296  LPSA32    10              7.0000000000
     34906      1126  AGAL      O5            -38.2393896727       27.8215453284       43.0553090848  LPSA32    10              7.0000000000
     34907      1126  AGAL      C2            -38.5210729986       28.5195086199       40.7742865660  LPSA32    10              7.0000000000
     34908      1126  AGAL      H2            -39.1825717870       29.3372149869       41.1295827959  LPSA32    10              7.0000000000
     34909      1126  AGAL      O2            -38.9954741802       28.2453057038       39.4740331029  LPSA32    10              7.0000000000
     34910      1126  AGAL      HO2           -39.6495643411       28.9312606022       39.3036181627  LPSA32    10              7.0000000000
     34911      1126  AGAL      C3            -37.0876559017       29.0078638114       40.7148534223  LPSA32    10              7.0000000000
     34912      1126  AGAL      H3            -36.4567231093       28.1228140834       40.4553104740  LPSA32    10              7.0000000000
     34913      1126  AGAL      O3            -36.8425404489       30.0014482610       39.7086671537  LPSA32    10              7.0000000000
     34914      1126  AGAL      HO3           -36.3487567388       29.5707965018       39.0083287555  LPSA32    10              7.0000000000
     34915      1126  AGAL      C4            -36.7343257295       29.4920823019       42.0929772765  LPSA32    10              7.0000000000
     34916      1126  AGAL      H4            -35.6848753048       29.8087547681       42.1261401468  LPSA32    10              7.0000000000
     34917      1126  AGAL      O4            -37.5405384649       30.6095685407       42.4775972164  LPSA32    10              7.0000000000
     34918      1126  AGAL      HO4           -38.3789267265       30.1854794888       42.6191623730  LPSA32    10              7.0000000000
     34919      1126  AGAL      C6            -36.2698608171       28.6123322692       44.4277097540  LPSA32    10              7.0000000000
     34920      1126  AGAL      H61           -36.4553948654       27.7492708052       45.1014753451  LPSA32    10              7.0000000000
     34921      1126  AGAL      H62           -35.1600721273       28.6867578209       44.2893110848  LPSA32    10              7.0000000000
     34922      1126  AGAL      O6            -36.7567542221       29.8006132034       45.0816826573  LPSA32    10              7.0000000000
     34923      1126  AGAL      HO6           -37.1252911941       29.5081599267       45.9249757891  LPSA32    10              7.0000000000
     34924      1127  BGLC      C1            -32.7622994312       25.7447715576       44.4795271136  LPSA32    11              6.0000000000
     34925      1127  BGLC      H1            -31.8101731287       26.3025812081       44.6136394877  LPSA32    11              6.0000000000
     34926      1127  BGLC      C5            -31.7972702701       23.5911172595       45.1096587970  LPSA32    11              6.0000000000
     34927      1127  BGLC      H5            -30.8035890222       24.0432231756       45.3541566631  LPSA32    11              6.0000000000
     34928      1127  BGLC      O5            -32.5435988545       24.3636001355       44.1149399338  LPSA32    11              6.0000000000
     34929      1127  BGLC      C2            -33.5488867208       25.7700262084       45.7893245553  LPSA32    11              6.0000000000
     34930      1127  BGLC      H2            -34.5476139613       25.2899534526       45.6455600811  LPSA32    11              6.0000000000
     34931      1127  BGLC      O2            -33.7895682418       27.1112836926       46.1945001906  LPSA32    11              6.0000000000
     34932      1127  BGLC      HO2           -34.7347506289       27.2569564398       46.2903890665  LPSA32    11              6.0000000000
     34933      1127  BGLC      C3            -32.8592960939       25.0231293660       46.9015601184  LPSA32    11              6.0000000000
     34934      1127  BGLC      H3            -31.9027345377       25.5258795252       47.1704982168  LPSA32    11              6.0000000000
     34935      1127  BGLC      O3            -33.7376184440       24.9514143354       48.0480995624  LPSA32    11              6.0000000000
     34936      1127  BGLC      C4            -32.6333942134       23.6028906708       46.4089467434  LPSA32    11              6.0000000000
     34937      1127  BGLC      H4            -33.6286894752       23.1606001536       46.1778677300  LPSA32    11              6.0000000000
     34938      1127  BGLC      O4            -32.0613259171       22.7992923737       47.4313535238  LPSA32    11              6.0000000000
     34939      1127  BGLC      HO4           -32.7021154411       22.6747674278       48.1418454053  LPSA32    11              6.0000000000
     34940      1127  BGLC      C6            -31.4893609685       22.2009205157       44.5154074531  LPSA32    11              6.0000000000
     34941      1127  BGLC      H61           -31.2427414709       21.4442665126       45.2887093313  LPSA32    11              6.0000000000
     34942      1127  BGLC      H62           -32.3607227981       21.8516010131       43.9308847839  LPSA32    11              6.0000000000
     34943      1127  BGLC      O6            -30.3938515870       22.1816050391       43.6055005354  LPSA32    11              6.0000000000
     34944      1127  BGLC      HO6           -29.6048086037       21.7611801293       43.9890305412  LPSA32    11              6.0000000000
     34945      1128  BGLCNA    C1            -33.2794494319       25.3961301625       49.3152479822  LPSA32    12              7.0000000000
     34946      1128  BGLCNA    H1            -33.3883318569       26.5043071484       49.3709885435  LPSA32    12              7.0000000000
     34947      1128  BGLCNA    C5            -31.5024089575       25.5218941137       50.8801312546  LPSA32    12              7.0000000000
     34948      1128  BGLCNA    H5            -31.6023249286       26.6300801295       50.9494117507  LPSA32    12              7.0000000000
     34949      1128  BGLCNA    O5            -31.9271972873       25.0414593048       49.5919117236  LPSA32    12              7.0000000000
     34950      1128  BGLCNA    C2            -34.1668929727       24.7288043989       50.3564478860  LPSA32    12              7.0000000000
     34951      1128  BGLCNA    H2            -33.9297235762       23.6323585652       50.3054651895  LPSA32    12              7.0000000000
     34952      1128  BGLCNA    N             -35.5438636172       24.9908611029       50.0608931025  LPSA32    12              7.0000000000
     34953      1128  BGLCNA    HN            -35.7939111204       25.9434402543       49.9516020521  LPSA32    12              7.0000000000
     34954      1128  BGLCNA    C             -36.4377434575       24.0199367641       49.9387807372  LPSA32    12              7.0000000000
     34955      1128  BGLCNA    O             -36.1509648364       22.8390882066       50.0857859176  LPSA32    12              7.0000000000
     34956      1128  BGLCNA    CT            -37.8243428101       24.4605310188       49.5965046176  LPSA32    12              7.0000000000
     34957      1128  BGLCNA    HT1           -38.5476919470       24.2494197746       50.4082799342  LPSA32    12              7.0000000000
     34958      1128  BGLCNA    HT2           -38.0851974107       23.8165286556       48.7479570962  LPSA32    12              7.0000000000
     34959      1128  BGLCNA    HT3           -37.8651840123       25.5167044046       49.2545224807  LPSA32    12              7.0000000000
     34960      1128  BGLCNA    C3            -33.8417984836       25.1773066400       51.7674029339  LPSA32    12              7.0000000000
     34961      1128  BGLCNA    H3            -33.9991234889       26.2782447137       51.8075884795  LPSA32    12              7.0000000000
     34962      1128  BGLCNA    O3            -34.7214981662       24.5745503859       52.7711718046  LPSA32    12              7.0000000000
     34963      1128  BGLCNA    C4            -32.3678359023       24.8439380495       51.9564126946  LPSA32    12              7.0000000000
     34964      1128  BGLCNA    H4            -32.2130072119       23.7392712448       51.8806509508  LPSA32    12              7.0000000000
     34965      1128  BGLCNA    O4            -31.9253942101       25.2128421443       53.2459443186  LPSA32    12              7.0000000000
     34966      1128  BGLCNA    HO4           -31.8595063943       26.1687294004       53.3109019032  LPSA32    12              7.0000000000
     34967      1128  BGLCNA    C6            -30.0292847137       25.2024247307       50.9605147153  LPSA32    12              7.0000000000
     34968      1128  BGLCNA    H61           -29.5875873910       25.4800340452       51.9398761133  LPSA32    12              7.0000000000
     34969      1128  BGLCNA    H62           -29.9525441536       24.1113586388       50.8392713718  LPSA32    12              7.0000000000
     34970      1128  BGLCNA    O6            -29.2587230978       25.8136144436       49.9224740108  LPSA32    12              7.0000000000
     34971      1128  BGLCNA    HO6           -29.0488248616       26.7356036590       50.1297095142  LPSA32    12              7.0000000000
     34972      1129  AGAL      C1            -35.1121356016       25.4477890275       53.8383615221  LPSA32    13              8.0000000000
     34973      1129  AGAL      H1            -34.2366752622       26.0677182679       54.1507719078  LPSA32    13              8.0000000000
     34974      1129  AGAL      C5            -37.4543475247       25.5019382995       53.2688697523  LPSA32    13              8.0000000000
     34975      1129  AGAL      H5            -37.1599102239       24.7088046406       52.5437603056  LPSA32    13              8.0000000000
     34976      1129  AGAL      O5            -36.2462631184       26.2731327444       53.4679680909  LPSA32    13              8.0000000000
     34977      1129  AGAL      C2            -35.5577561225       24.7167624844       55.1124836702  LPSA32    13              8.0000000000
     34978      1129  AGAL      H2            -35.9087140189       25.5191126573       55.8051139933  LPSA32    13              8.0000000000
     34979      1129  AGAL      O2            -34.4562476034       24.0479187693       55.7524091645  LPSA32    13              8.0000000000
     34980      1129  AGAL      C3            -36.7946449055       23.8611484032       54.9007809800  LPSA32    13              8.0000000000
     34981      1129  AGAL      H3            -36.6106090560       23.2038048261       54.0267886842  LPSA32    13              8.0000000000
     34982      1129  AGAL      O3            -37.0955069912       23.0092773291       55.9999682816  LPSA32    13              8.0000000000
     34983      1129  AGAL      HO3           -37.4107721018       22.1517356191       55.6955622402  LPSA32    13              8.0000000000
     34984      1129  AGAL      C4            -37.9323318854       24.7758158864       54.5230704703  LPSA32    13              8.0000000000
     34985      1129  AGAL      H4            -38.8116102889       24.1476262296       54.2422150198  LPSA32    13              8.0000000000
     34986      1129  AGAL      O4            -38.3489804768       25.6539503066       55.5774653810  LPSA32    13              8.0000000000
     34987      1129  AGAL      HO4           -37.6006467224       26.0779395223       56.0125130059  LPSA32    13              8.0000000000
     34988      1129  AGAL      C6            -38.5740164277       26.2170576436       52.5406453803  LPSA32    13              8.0000000000
     34989      1129  AGAL      H61           -38.1785176789       26.6485606205       51.5950148275  LPSA32    13              8.0000000000
     34990      1129  AGAL      H62           -39.3614805981       25.4641054793       52.3029305334  LPSA32    13              8.0000000000
     34991      1129  AGAL      O6            -39.1917060168       27.2536786484       53.2870717987  LPSA32    13              8.0000000000
     34992      1129  AGAL      HO6           -39.7473028464       26.8675468261       53.9866728441  LPSA32    13              8.0000000000
     34993      1130  ARHM      C1            -34.0421702961       24.5759238996       57.0062070435  LPSA32    14              9.0000000000
     34994      1130  ARHM      H1            -34.2677699091       25.6659165487       57.0427837118  LPSA32    14              9.0000000000
     34995      1130  ARHM      C5            -32.2064738884       23.0860763958       57.2011307886  LPSA32    14              9.0000000000
     34996      1130  ARHM      H5            -32.5405198132       22.6698420325       56.2367708769  LPSA32    14              9.0000000000
     34997      1130  ARHM      O5            -32.6263397474       24.4592851802       57.2034187979  LPSA32    14              9.0000000000
     34998      1130  ARHM      C2            -34.7758533075       23.8380607347       58.1119876546  LPSA32    14              9.0000000000
     34999      1130  ARHM      H2            -35.8698321895       23.9428880581       57.9330949133  LPSA32    14              9.0000000000
     35000      1130  ARHM      O2            -34.4783847713       24.2465529652       59.4618308485  LPSA32    14              9.0000000000
     35001      1130  ARHM      C3            -34.3810388170       22.3839226374       58.0577771865  LPSA32    14              9.0000000000
     35002      1130  ARHM      H3            -34.5361829744       22.0053589418       57.0226460620  LPSA32    14              9.0000000000
     35003      1130  ARHM      O3            -35.1988911626       21.5729239864       58.8984124957  LPSA32    14              9.0000000000
     35004      1130  ARHM      HO3           -34.9536200431       21.7648087671       59.7976085246  LPSA32    14              9.0000000000
     35005      1130  ARHM      C4            -32.8831311116       22.2966401255       58.3277105938  LPSA32    14              9.0000000000
     35006      1130  ARHM      H4            -32.6087152394       22.7987164955       59.2861590650  LPSA32    14              9.0000000000
     35007      1130  ARHM      O4            -32.4052929848       20.9532361906       58.3990306669  LPSA32    14              9.0000000000
     35008      1130  ARHM      HO4           -32.2113078818       20.6953426678       59.3046185971  LPSA32    14              9.0000000000
     35009      1130  ARHM      C6            -30.6693803689       23.0488329064       57.2572701451  LPSA32    14              9.0000000000
     35010      1130  ARHM      H61           -30.2155734089       23.7987274254       56.5781696604  LPSA32    14              9.0000000000
     35011      1130  ARHM      H62           -30.3820263895       23.2324868496       58.3125984607  LPSA32    14              9.0000000000
     35012      1130  ARHM      H63           -30.2598911584       22.0633612451       56.9562601626  LPSA32    14              9.0000000000
     35013      1131  ARHM      C1            -34.6011693746       25.6175852763       59.7480998743  LPSA32    15             10.0000000000
     35014      1131  ARHM      H1            -35.3262426877       26.0900430265       59.0432212197  LPSA32    15             10.0000000000
     35015      1131  ARHM      C5            -32.3564411204       25.9177227994       60.6483043921  LPSA32    15             10.0000000000
     35016      1131  ARHM      H5            -32.0148506217       24.8677442062       60.4579729036  LPSA32    15             10.0000000000
     35017      1131  ARHM      O5            -33.3414264013       26.3354719497       59.6797048822  LPSA32    15             10.0000000000
     35018      1131  ARHM      C2            -35.1786830533       25.7525259329       61.1408173518  LPSA32    15             10.0000000000
     35019      1131  ARHM      H2            -36.1096848500       25.1426460712       61.2054835475  LPSA32    15             10.0000000000
     35020      1131  ARHM      O2            -35.5008637741       27.1465044942       61.3092384102  LPSA32    15             10.0000000000
     35021      1131  ARHM      C3            -34.1896912980       25.2201331393       62.1360233259  LPSA32    15             10.0000000000
     35022      1131  ARHM      H3            -33.9110921979       24.1781390790       61.8408237879  LPSA32    15             10.0000000000
     35023      1131  ARHM      O3            -34.8380895906       25.1641050932       63.4063351225  LPSA32    15             10.0000000000
     35024      1131  ARHM      C4            -32.9426268398       26.0707389321       62.0364742231  LPSA32    15             10.0000000000
     35025      1131  ARHM      H4            -33.2322461287       27.1409275856       62.1660602403  LPSA32    15             10.0000000000
     35026      1131  ARHM      O4            -31.9589619320       25.7862716621       63.0161851873  LPSA32    15             10.0000000000
     35027      1131  ARHM      HO4           -31.2764820575       26.4679320836       62.9457622998  LPSA32    15             10.0000000000
     35028      1131  ARHM      C6            -31.1168873951       26.8230135436       60.4964421838  LPSA32    15             10.0000000000
     35029      1131  ARHM      H61           -30.2426309301       26.4471128579       61.0668411294  LPSA32    15             10.0000000000
     35030      1131  ARHM      H62           -30.8471938922       26.8291214432       59.4408135400  LPSA32    15             10.0000000000
     35031      1131  ARHM      H63           -31.3035337790       27.8558459066       60.8361109981  LPSA32    15             10.0000000000
     35032      1132  BMANNA    C1            -36.0973013600       27.6025859153       62.5061889238  LPSA32    16             11.0000000000
     35033      1132  BMANNA    H1            -35.3307208479       27.5478435414       63.3142175854  LPSA32    16             11.0000000000
     35034      1132  BMANNA    C5            -37.7580573334       27.3119097120       64.2033757305  LPSA32    16             11.0000000000
     35035      1132  BMANNA    H5            -36.9261858009       27.2666540761       64.9528896795  LPSA32    16             11.0000000000
     35036      1132  BMANNA    O5            -37.2595930578       26.8572466172       62.9215160605  LPSA32    16             11.0000000000
     35037      1132  BMANNA    C2            -36.4870489878       29.0678301562       62.3109194889  LPSA32    16             11.0000000000
     35038      1132  BMANNA    H2            -35.5548015449       29.6184085285       62.0360959289  LPSA32    16             11.0000000000
     35039      1132  BMANNA    N             -37.4533212120       29.3291559520       61.2544215173  LPSA32    16             11.0000000000
     35040      1132  BMANNA    HN            -38.3992982079       29.3209863892       61.5405720334  LPSA32    16             11.0000000000
     35041      1132  BMANNA    C             -37.1598425205       29.6151182148       59.9817676703  LPSA32    16             11.0000000000
     35042      1132  BMANNA    O             -36.0040567320       29.7074270823       59.5697048323  LPSA32    16             11.0000000000
     35043      1132  BMANNA    CT            -38.3535005066       29.8181205006       59.0647297757  LPSA32    16             11.0000000000
     35044      1132  BMANNA    HT1           -38.5312329042       30.8812988648       58.8442926090  LPSA32    16             11.0000000000
     35045      1132  BMANNA    HT2           -39.2884995678       29.4374284080       59.5129956190  LPSA32    16             11.0000000000
     35046      1132  BMANNA    HT3           -38.1944200777       29.2703044154       58.1156788054  LPSA32    16             11.0000000000
     35047      1132  BMANNA    C3            -37.0041199654       29.5754012425       63.6443402502  LPSA32    16             11.0000000000
     35048      1132  BMANNA    H3            -36.1937491781       29.4631412247       64.3990441599  LPSA32    16             11.0000000000
     35049      1132  BMANNA    O3            -37.3233117641       30.9514769782       63.5801429074  LPSA32    16             11.0000000000
     35050      1132  BMANNA    HO3           -36.8415871305       31.4178746587       64.2796191568  LPSA32    16             11.0000000000
     35051      1132  BMANNA    C4            -38.1954726087       28.7619178566       64.1116776627  LPSA32    16             11.0000000000
     35052      1132  BMANNA    H4            -39.0200550973       28.8510214290       63.3660059971  LPSA32    16             11.0000000000
     35053      1132  BMANNA    O4            -38.7309359183       29.2026054534       65.3628004111  LPSA32    16             11.0000000000
     35054      1132  BMANNA    HO4           -39.6398980708       28.9069189684       65.4357430589  LPSA32    16             11.0000000000
     35055      1132  BMANNA    C6            -38.8670152291       26.4387484417       64.7699859304  LPSA32    16             11.0000000000
     35056      1132  BMANNA    H61           -38.8191196131       26.4944002990       65.8849365469  LPSA32    16             11.0000000000
     35057      1132  BMANNA    H62           -39.8492712814       26.8340698049       64.4409654459  LPSA32    16             11.0000000000
     35058      1132  BMANNA    O6            -38.8234388981       25.0755872282       64.3649481035  LPSA32    16             11.0000000000
     35059      1132  BMANNA    HO6           -39.6380808187       24.8678726997       63.9078234100  LPSA32    16             11.0000000000
     35060      1133  BGLCNA    C1            -34.5475213720       24.0131387514       64.1439368887  LPSA32    17             11.0000000000
     35061      1133  BGLCNA    H1            -33.4776126340       23.7560540769       63.9825241781  LPSA32    17             11.0000000000
     35062      1133  BGLCNA    C5            -35.0870758241       21.7050445747       64.5678706745  LPSA32    17             11.0000000000
     35063      1133  BGLCNA    H5            -34.0360971370       21.3835291587       64.3571045050  LPSA32    17             11.0000000000
     35064      1133  BGLCNA    O5            -35.3664910262       22.8874144473       63.7862015423  LPSA32    17             11.0000000000
     35065      1133  BGLCNA    C2            -34.8071681010       24.4292602614       65.5782436611  LPSA32    17             11.0000000000
     35066      1133  BGLCNA    H2            -35.8933951106       24.6370987192       65.7580135721  LPSA32    17             11.0000000000
     35067      1133  BGLCNA    N             -34.0862320684       25.6579534760       65.8710116612  LPSA32    17             11.0000000000
     35068      1133  BGLCNA    HN            -33.2460892907       25.7843861289       65.3606982990  LPSA32    17             11.0000000000
     35069      1133  BGLCNA    C             -34.4045543447       26.5573558179       66.8133806816  LPSA32    17             11.0000000000
     35070      1133  BGLCNA    O             -35.4309141383       26.5626745798       67.4615737969  LPSA32    17             11.0000000000
     35071      1133  BGLCNA    CT            -33.3568936334       27.6168713768       67.0366120392  LPSA32    17             11.0000000000
     35072      1133  BGLCNA    HT1           -33.6082144537       28.5710275486       66.5330382028  LPSA32    17             11.0000000000
     35073      1133  BGLCNA    HT2           -32.3833802849       27.2273295201       66.6780027397  LPSA32    17             11.0000000000
     35074      1133  BGLCNA    HT3           -33.2703330292       27.8249562808       68.1218229546  LPSA32    17             11.0000000000
     35075      1133  BGLCNA    C3            -34.3957251113       23.2459134015       66.4296226580  LPSA32    17             11.0000000000
     35076      1133  BGLCNA    H3            -33.3620342133       22.9976316431       66.0905362423  LPSA32    17             11.0000000000
     35077      1133  BGLCNA    O3            -34.3344295586       23.6484402602       67.8212678117  LPSA32    17             11.0000000000
     35078      1133  BGLCNA    C4            -35.2951823045       22.0644556618       66.0521516689  LPSA32    17             11.0000000000
     35079      1133  BGLCNA    H4            -36.3630610082       22.3761675220       66.1481246696  LPSA32    17             11.0000000000
     35080      1133  BGLCNA    O4            -35.0832250763       20.9506978866       66.9164424006  LPSA32    17             11.0000000000
     35081      1133  BGLCNA    HO4           -35.6585800270       20.2001551030       66.7293261085  LPSA32    17             11.0000000000
     35082      1133  BGLCNA    C6            -36.0029219608       20.5589881174       64.1196568861  LPSA32    17             11.0000000000
     35083      1133  BGLCNA    H61           -35.4624284953       19.5910675417       64.1757842095  LPSA32    17             11.0000000000
     35084      1133  BGLCNA    H62           -36.8616374179       20.4806954413       64.8208971399  LPSA32    17             11.0000000000
     35085      1133  BGLCNA    O6            -36.5287411686       20.6937378411       62.7933194805  LPSA32    17             11.0000000000
     35086      1133  BGLCNA    HO6           -35.8071560698       20.8577381136       62.1866707751  LPSA32    17             11.0000000000
     35087      1134  AGAL      C1            -33.3410483580       23.0333806658       68.6187450593  LPSA32    18             12.0000000000
     35088      1134  AGAL      H1            -33.6252375472       21.9733851591       68.8050683221  LPSA32    18             12.0000000000
     35089      1134  AGAL      C5            -31.5288702002       24.3797371425       67.8453482253  LPSA32    18             12.0000000000
     35090      1134  AGAL      H5            -32.3178990613       25.0013476756       67.3953340955  LPSA32    18             12.0000000000
     35091      1134  AGAL      O5            -32.0561869193       23.0491989800       67.9835487222  LPSA32    18             12.0000000000
     35092      1134  AGAL      C2            -33.1251195490       23.7106529093       69.9651820030  LPSA32    18             12.0000000000
     35093      1134  AGAL      H2            -32.2746038433       23.1463478172       70.3990403024  LPSA32    18             12.0000000000
     35094      1134  AGAL      O2            -34.1948659889       23.5063963803       70.8784785700  LPSA32    18             12.0000000000
     35095      1134  AGAL      C3            -32.6253156741       25.1487622928       69.8379976531  LPSA32    18             12.0000000000
     35096      1134  AGAL      H3            -33.3231054415       25.6940181009       69.1653859743  LPSA32    18             12.0000000000
     35097      1134  AGAL      O3            -32.6001669628       25.8657376286       71.0752963781  LPSA32    18             12.0000000000
     35098      1134  AGAL      HO3           -33.0102454071       26.7402657317       70.9746298613  LPSA32    18             12.0000000000
     35099      1134  AGAL      C4            -31.2664283944       25.0946753315       69.1589109577  LPSA32    18             12.0000000000
     35100      1134  AGAL      H4            -30.8887821527       26.1190508886       68.9319002108  LPSA32    18             12.0000000000
     35101      1134  AGAL      O4            -30.2844783889       24.4225290421       69.9359308466  LPSA32    18             12.0000000000
     35102      1134  AGAL      HO4           -30.1041106760       24.9464351837       70.7155404471  LPSA32    18             12.0000000000
     35103      1134  AGAL      C6            -30.4816221703       24.4068817681       66.7663168067  LPSA32    18             12.0000000000
     35104      1134  AGAL      H61           -30.9912386868       24.0788060139       65.8283309855  LPSA32    18             12.0000000000
     35105      1134  AGAL      H62           -30.1167447832       25.4467008102       66.6289215742  LPSA32    18             12.0000000000
     35106      1134  AGAL      O6            -29.3792720623       23.5435766606       67.0052440205  LPSA32    18             12.0000000000
     35107      1134  AGAL      HO6           -29.6426144203       22.9055867539       67.6847498693  LPSA32    18             12.0000000000
     35108      1135  ARHM      C1            -33.7359452302       23.2264038635       72.1740443199  LPSA32    19             13.0000000000
     35109      1135  ARHM      H1            -32.7509444459       23.7026803430       72.3561751284  LPSA32    19             13.0000000000
     35110      1135  ARHM      C5            -34.7213390950       21.0641436045       72.2471361626  LPSA32    19             13.0000000000
     35111      1135  ARHM      H5            -35.0980667990       21.2673063380       71.2149844740  LPSA32    19             13.0000000000
     35112      1135  ARHM      O5            -33.5275407668       21.8303637423       72.4258635235  LPSA32    19             13.0000000000
     35113      1135  ARHM      C2            -34.7800166470       23.7463094084       73.1141820772  LPSA32    19             13.0000000000
     35114      1135  ARHM      H2            -35.0317507999       24.8049309771       72.8597552420  LPSA32    19             13.0000000000
     35115      1135  ARHM      O2            -34.2898192258       23.7117158520       74.4623267185  LPSA32    19             13.0000000000
     35116      1135  ARHM      C3            -36.0546201990       22.9562171149       72.9572373931  LPSA32    19             13.0000000000
     35117      1135  ARHM      H3            -36.4054218958       23.0284424091       71.8965925428  LPSA32    19             13.0000000000
     35118      1135  ARHM      O3            -37.0766851771       23.4789274608       73.7917059012  LPSA32    19             13.0000000000
     35119      1135  ARHM      HO3           -36.7220622759       23.5574935879       74.6717563497  LPSA32    19             13.0000000000
     35120      1135  ARHM      C4            -35.7631239447       21.5090571900       73.2447850461  LPSA32    19             13.0000000000
     35121      1135  ARHM      H4            -35.3750887299       21.4076833766       74.2849151335  LPSA32    19             13.0000000000
     35122      1135  ARHM      O4            -36.9058799639       20.6859767053       73.1706407520  LPSA32    19             13.0000000000
     35123      1135  ARHM      HO4           -37.2521414450       20.7247218883       72.2684478978  LPSA32    19             13.0000000000
     35124      1135  ARHM      C6            -34.3854882754       19.5687677572       72.2806699320  LPSA32    19             13.0000000000
     35125      1135  ARHM      H61           -33.6432702532       19.4071400804       71.4764208002  LPSA32    19             13.0000000000
     35126      1135  ARHM      H62           -33.9605263286       19.2287696944       73.2443220242  LPSA32    19             13.0000000000
     35127      1135  ARHM      H63           -35.2861619512       18.9493840475       72.0653721007  LPSA32    19             13.0000000000
     35128      1136  ARHM      C1            -33.3090696021       24.6962545537       74.7043751480  LPSA32    20             14.0000000000
     35129      1136  ARHM      H1            -33.2703974928       25.4388607485       73.8733256212  LPSA32    20             14.0000000000
     35130      1136  ARHM      C5            -31.8437522365       23.3161761984       75.9595703958  LPSA32    20             14.0000000000
     35131      1136  ARHM      H5            -32.5636626470       22.4786551000       75.8140572402  LPSA32    20             14.0000000000
     35132      1136  ARHM      O5            -31.9743727685       24.1911897068       74.8420830133  LPSA32    20             14.0000000000
     35133      1136  ARHM      C2            -33.7380879345       25.4116092851       75.9526395764  LPSA32    20             14.0000000000
     35134      1136  ARHM      H2            -34.8180388463       25.6980252617       75.8563724829  LPSA32    20             14.0000000000
     35135      1136  ARHM      O2            -32.9405629488       26.5749346494       76.1651479739  LPSA32    20             14.0000000000
     35136      1136  ARHM      C3            -33.6259078502       24.5099452157       77.1274113117  LPSA32    20             14.0000000000
     35137      1136  ARHM      H3            -34.2720337946       23.6146164381       76.9626649412  LPSA32    20             14.0000000000
     35138      1136  ARHM      O3            -34.0815713081       25.2335816395       78.2673853697  LPSA32    20             14.0000000000
     35139      1136  ARHM      C4            -32.1955476041       24.0624895851       77.2371628437  LPSA32    20             14.0000000000
     35140      1136  ARHM      H4            -31.4815102386       24.9167345823       77.3259603133  LPSA32    20             14.0000000000
     35141      1136  ARHM      O4            -32.0323713898       23.2189903092       78.3609892826  LPSA32    20             14.0000000000
     35142      1136  ARHM      HO4           -31.3078243257       22.6379882616       78.1084420556  LPSA32    20             14.0000000000
     35143      1136  ARHM      C6            -30.4258072768       22.7154884253       75.9623784871  LPSA32    20             14.0000000000
     35144      1136  ARHM      H61           -29.6244074742       23.4755774518       76.0814235465  LPSA32    20             14.0000000000
     35145      1136  ARHM      H62           -30.3369273837       21.9615630456       76.7710022708  LPSA32    20             14.0000000000
     35146      1136  ARHM      H63           -30.2352005294       22.1985855214       75.0012232464  LPSA32    20             14.0000000000
     35147      1137  BMANNA    C1            -33.4234716562       27.6462666374       75.4151332560  LPSA32    21             15.0000000000
     35148      1137  BMANNA    H1            -34.2172779683       27.2827788231       74.7243751106  LPSA32    21             15.0000000000
     35149      1137  BMANNA    C5            -33.0982615168       29.1574235283       73.6584105434  LPSA32    21             15.0000000000
     35150      1137  BMANNA    H5            -33.9504625046       28.7020971143       73.0927132041  LPSA32    21             15.0000000000
     35151      1137  BMANNA    O5            -32.4590251609       28.1858255381       74.5171846419  LPSA32    21             15.0000000000
     35152      1137  BMANNA    C2            -33.9955893652       28.6947550681       76.3492992769  LPSA32    21             15.0000000000
     35153      1137  BMANNA    H2            -34.8002345395       28.1682259007       76.9281319022  LPSA32    21             15.0000000000
     35154      1137  BMANNA    N             -33.0258514809       29.2572017990       77.2916393453  LPSA32    21             15.0000000000
     35155      1137  BMANNA    HN            -32.1399094424       29.4782268239       76.9073919795  LPSA32    21             15.0000000000
     35156      1137  BMANNA    C             -33.2770225538       29.5825448890       78.5853300256  LPSA32    21             15.0000000000
     35157      1137  BMANNA    O             -34.4015046820       29.6544777711       79.0518780148  LPSA32    21             15.0000000000
     35158      1137  BMANNA    CT            -32.0973437377       29.9230303763       79.4772729597  LPSA32    21             15.0000000000
     35159      1137  BMANNA    HT1           -31.7719243758       30.9672097699       79.2924795586  LPSA32    21             15.0000000000
     35160      1137  BMANNA    HT2           -31.2747676721       29.2061094219       79.3074592244  LPSA32    21             15.0000000000
     35161      1137  BMANNA    HT3           -32.3972566583       29.8592631262       80.5484932015  LPSA32    21             15.0000000000
     35162      1137  BMANNA    C3            -34.6474556308       29.7242699353       75.4699700074  LPSA32    21             15.0000000000
     35163      1137  BMANNA    H3            -35.4620062183       29.1915916319       74.9197198056  LPSA32    21             15.0000000000
     35164      1137  BMANNA    O3            -35.2863054446       30.7247893368       76.2329552682  LPSA32    21             15.0000000000
     35165      1137  BMANNA    HO3           -34.6288073693       31.1499463517       76.7861672016  LPSA32    21             15.0000000000
     35166      1137  BMANNA    C4            -33.6477820763       30.2978296396       74.4860320178  LPSA32    21             15.0000000000
     35167      1137  BMANNA    H4            -32.8109922334       30.8229081243       75.0064011857  LPSA32    21             15.0000000000
     35168      1137  BMANNA    O4            -34.2567491043       31.2343960533       73.6185592609  LPSA32    21             15.0000000000
     35169      1137  BMANNA    HO4           -33.8657458411       32.1115815674       73.6947934285  LPSA32    21             15.0000000000
     35170      1137  BMANNA    C6            -32.1538117380       29.6352149480       72.6127041208  LPSA32    21             15.0000000000
     35171      1137  BMANNA    H61           -32.6794008443       30.1967307497       71.8043358101  LPSA32    21             15.0000000000
     35172      1137  BMANNA    H62           -31.5125109278       30.3691674304       73.1411013182  LPSA32    21             15.0000000000
     35173      1137  BMANNA    O6            -31.3953796205       28.5547801889       72.0584106442  LPSA32    21             15.0000000000
     35174      1137  BMANNA    HO6           -30.7952180896       28.2785814595       72.7639379333  LPSA32    21             15.0000000000
     35175      1138  BGLCNA    C1            -34.7770129059       24.4988842726       79.2390185713  LPSA32    22             15.0000000000
     35176      1138  BGLCNA    H1            -34.4717861275       23.4339746073       79.2453335344  LPSA32    22             15.0000000000
     35177      1138  BGLCNA    C5            -36.8819200504       23.8442882707       80.0945960341  LPSA32    22             15.0000000000
     35178      1138  BGLCNA    H5            -36.5326645862       22.7847217974       80.0978004340  LPSA32    22             15.0000000000
     35179      1138  BGLCNA    O5            -36.1892160648       24.5819607940       79.0603687337  LPSA32    22             15.0000000000
     35180      1138  BGLCNA    C2            -34.4016327775       25.1363770484       80.5512264165  LPSA32    22             15.0000000000
     35181      1138  BGLCNA    H2            -34.7426022484       26.2081597583       80.5049229699  LPSA32    22             15.0000000000
     35182      1138  BGLCNA    N             -32.9682812805       25.0685791890       80.7297710746  LPSA32    22             15.0000000000
     35183      1138  BGLCNA    HN            -32.5259948210       24.2432628231       80.3955249772  LPSA32    22             15.0000000000
     35184      1138  BGLCNA    C             -32.2427090563       25.9967602186       81.3611137049  LPSA32    22             15.0000000000
     35185      1138  BGLCNA    O             -32.7066101340       27.0082835576       81.8793180297  LPSA32    22             15.0000000000
     35186      1138  BGLCNA    CT            -30.7684159744       25.7146246479       81.4012574260  LPSA32    22             15.0000000000
     35187      1138  BGLCNA    HT1           -30.3161846712       26.2627511547       80.5497578435  LPSA32    22             15.0000000000
     35188      1138  BGLCNA    HT2           -30.5849143496       24.6303669916       81.2765287983  LPSA32    22             15.0000000000
     35189      1138  BGLCNA    HT3           -30.3200955701       26.0454139745       82.3627356711  LPSA32    22             15.0000000000
     35190      1138  BGLCNA    C3            -35.0934136025       24.4163684147       81.6841005690  LPSA32    22             15.0000000000
     35191      1138  BGLCNA    H3            -34.8099898923       23.3424486063       81.6634662917  LPSA32    22             15.0000000000
     35192      1138  BGLCNA    O3            -34.6053930359       25.0197228426       82.8968292106  LPSA32    22             15.0000000000
     35193      1138  BGLCNA    C4            -36.5726326266       24.4588184100       81.4475290836  LPSA32    22             15.0000000000
     35194      1138  BGLCNA    H4            -36.8793530064       25.4872163370       81.3520975225  LPSA32    22             15.0000000000
     35195      1138  BGLCNA    O4            -37.3337231092       23.9008261151       82.5153352236  LPSA32    22             15.0000000000
     35196      1138  BGLCNA    HO4           -38.1104449126       24.4371310282       82.6959947431  LPSA32    22             15.0000000000
     35197      1138  BGLCNA    C6            -38.3487120913       23.9192326896       79.7808470880  LPSA32    22             15.0000000000
     35198      1138  BGLCNA    H61           -38.9362343941       23.6634584923       80.6864411040  LPSA32    22             15.0000000000
     35199      1138  BGLCNA    H62           -38.6531979360       24.9408954851       79.4588259399  LPSA32    22             15.0000000000
     35200      1138  BGLCNA    O6            -38.7069542748       22.9570932901       78.8050796528  LPSA32    22             15.0000000000
     35201      1138  BGLCNA    HO6           -38.2350808165       23.0503189196       77.9766209199  LPSA32    22             15.0000000000
     35202      1139  AGAL      C1            -34.7397570901       24.2966528067       84.0948318266  LPSA32    23             16.0000000000
     35203      1139  AGAL      H1            -35.7913583688       24.3522737649       84.4457657174  LPSA32    23             16.0000000000
     35204      1139  AGAL      C5            -32.9660527431       22.7267279248       83.7432733443  LPSA32    23             16.0000000000
     35205      1139  AGAL      H5            -32.7082946626       23.2962020901       82.8211749518  LPSA32    23             16.0000000000
     35206      1139  AGAL      O5            -34.3717228285       22.9099080807       83.9999497794  LPSA32    23             16.0000000000
     35207      1139  AGAL      C2            -33.9087824697       24.9500029639       85.1814895441  LPSA32    23             16.0000000000
     35208      1139  AGAL      H2            -34.0986627449       24.3525963698       86.1029542232  LPSA32    23             16.0000000000
     35209      1139  AGAL      O2            -34.2974827812       26.3267651255       85.4261978065  LPSA32    23             16.0000000000
     35210      1139  AGAL      C3            -32.4235904423       24.7783858932       84.8825582992  LPSA32    23             16.0000000000
     35211      1139  AGAL      H3            -32.2117142444       25.1639866266       83.8633499905  LPSA32    23             16.0000000000
     35212      1139  AGAL      O3            -31.6034258645       25.5414182681       85.7581635291  LPSA32    23             16.0000000000
     35213      1139  AGAL      HO3           -31.8485749138       25.3472058822       86.6619525722  LPSA32    23             16.0000000000
     35214      1139  AGAL      C4            -32.0988294104       23.2937930494       84.8658504851  LPSA32    23             16.0000000000
     35215      1139  AGAL      H4            -31.0282783000       23.1075676538       84.6186239543  LPSA32    23             16.0000000000
     35216      1139  AGAL      O4            -32.3683987530       22.6628295835       86.1117937913  LPSA32    23             16.0000000000
     35217      1139  AGAL      HO4           -32.5907942197       21.7458716244       85.8620956744  LPSA32    23             16.0000000000
     35218      1139  AGAL      C6            -32.7173147026       21.2836505013       83.3926218093  LPSA32    23             16.0000000000
     35219      1139  AGAL      H61           -33.5186877154       20.9571512743       82.7363410726  LPSA32    23             16.0000000000
     35220      1139  AGAL      H62           -31.7711855158       21.1501137639       82.8215145285  LPSA32    23             16.0000000000
     35221      1139  AGAL      O6            -32.7622070272       20.4078952029       84.5073762099  LPSA32    23             16.0000000000
     35222      1139  AGAL      HO6           -32.8314308395       19.5184445909       84.1676111670  LPSA32    23             16.0000000000
     35223      1140  ARHM      C1            -35.4003789700       26.5647054883       86.2819191584  LPSA32    24             17.0000000000
     35224      1140  ARHM      H1            -35.9892258226       25.6237997538       86.3864332939  LPSA32    24             17.0000000000
     35225      1140  ARHM      C5            -35.6893608792       28.8558669522       85.6441421649  LPSA32    24             17.0000000000
     35226      1140  ARHM      H5            -34.8361974210       28.7117598362       84.9434846971  LPSA32    24             17.0000000000
     35227      1140  ARHM      O5            -36.3238859763       27.5771840284       85.8060443691  LPSA32    24             17.0000000000
     35228      1140  ARHM      C2            -34.8078774688       26.9886959973       87.6066640104  LPSA32    24             17.0000000000
     35229      1140  ARHM      H2            -34.0469218426       26.2371868279       87.9294199944  LPSA32    24             17.0000000000
     35230      1140  ARHM      O2            -35.8265942668       27.1459437446       88.6030264633  LPSA32    24             17.0000000000
     35231      1140  ARHM      C3            -34.1147644728       28.3188637400       87.4287264094  LPSA32    24             17.0000000000
     35232      1140  ARHM      H3            -33.3404114893       28.1780440494       86.6364745961  LPSA32    24             17.0000000000
     35233      1140  ARHM      O3            -33.3992748273       28.7314111281       88.5882683518  LPSA32    24             17.0000000000
     35234      1140  ARHM      HO3           -33.9785314932       29.2351455437       89.1705725682  LPSA32    24             17.0000000000
     35235      1140  ARHM      C4            -35.1336610186       29.3444557878       86.9653926905  LPSA32    24             17.0000000000
     35236      1140  ARHM      H4            -35.9678800841       29.4051554370       87.7082161357  LPSA32    24             17.0000000000
     35237      1140  ARHM      O4            -34.5619138767       30.6392729386       86.8172434124  LPSA32    24             17.0000000000
     35238      1140  ARHM      HO4           -35.1947585613       31.3393744319       87.0098461761  LPSA32    24             17.0000000000
     35239      1140  ARHM      C6            -36.6410613330       29.8556269213       84.9639364455  LPSA32    24             17.0000000000
     35240      1140  ARHM      H61           -36.0576402360       30.6210257877       84.4140283597  LPSA32    24             17.0000000000
     35241      1140  ARHM      H62           -37.2415674552       29.3251137277       84.1989821275  LPSA32    24             17.0000000000
     35242      1140  ARHM      H63           -37.3189738179       30.3650845408       85.6827613399  LPSA32    24             17.0000000000
     35243      1141  ARHM      C1            -36.3055217110       25.9495561442       89.1509144342  LPSA32    25             18.0000000000
     35244      1141  ARHM      H1            -36.0352021761       25.1054895380       88.4746980697  LPSA32    25             18.0000000000
     35245      1141  ARHM      C5            -38.2571047080       26.8222998190       90.2106368650  LPSA32    25             18.0000000000
     35246      1141  ARHM      H5            -37.9585807827       27.8386265790       89.8845245547  LPSA32    25             18.0000000000
     35247      1141  ARHM      O5            -37.7377536635       25.8823163906       89.2537485023  LPSA32    25             18.0000000000
     35248      1141  ARHM      C2            -35.6334690236       25.7190627011       90.4663260536  LPSA32    25             18.0000000000
     35249      1141  ARHM      H2            -34.5324068866       25.8989822593       90.3683293819  LPSA32    25             18.0000000000
     35250      1141  ARHM      O2            -35.8644632379       24.3752922403       90.8919729486  LPSA32    25             18.0000000000
     35251      1141  ARHM      C3            -36.1583896948       26.7232406096       91.4557336101  LPSA32    25             18.0000000000
     35252      1141  ARHM      H3            -35.9426273889       27.7593351260       91.0867760274  LPSA32    25             18.0000000000
     35253      1141  ARHM      O3            -35.5044900113       26.4762369452       92.6965947095  LPSA32    25             18.0000000000
     35254      1141  ARHM      C4            -37.6473058485       26.5981881412       91.5884507787  LPSA32    25             18.0000000000
     35255      1141  ARHM      H4            -37.9389798532       25.5678959594       91.9115930108  LPSA32    25             18.0000000000
     35256      1141  ARHM      O4            -38.1206134777       27.5389422256       92.5558147175  LPSA32    25             18.0000000000
     35257      1141  ARHM      HO4           -38.8431780136       27.1291073762       93.0385405453  LPSA32    25             18.0000000000
     35258      1141  ARHM      C6            -39.7971793074       26.7596423417       90.2185435442  LPSA32    25             18.0000000000
     35259      1141  ARHM      H61           -40.1996156926       26.8236185891       89.1872602348  LPSA32    25             18.0000000000
     35260      1141  ARHM      H62           -40.1562915947       25.8189686973       90.6767985472  LPSA32    25             18.0000000000
     35261      1141  ARHM      H63           -40.1960334078       27.6177138389       90.8038494433  LPSA32    25             18.0000000000
     35262      1142  BMANNA    C1            -35.0366562556       23.4268739445       90.2793903735  LPSA32    26             19.0000000000
     35263      1142  BMANNA    H1            -34.1152790822       23.8907612053       89.8566321641  LPSA32    26             19.0000000000
     35264      1142  BMANNA    C5            -34.7998008474       21.7754939288       88.5928314860  LPSA32    26             19.0000000000
     35265      1142  BMANNA    H5            -33.9293652949       22.3351025658       88.1765159561  LPSA32    26             19.0000000000
     35266      1142  BMANNA    O5            -35.6878391440       22.7090076821       89.2195729992  LPSA32    26             19.0000000000
     35267      1142  BMANNA    C2            -34.6284372707       22.4779500739       91.3596357371  LPSA32    26             19.0000000000
     35268      1142  BMANNA    H2            -34.1006036474       23.0875058633       92.1388639702  LPSA32    26             19.0000000000
     35269      1142  BMANNA    N             -35.7995686191       21.8013864551       91.9227696833  LPSA32    26             19.0000000000
     35270      1142  BMANNA    HN            -36.3995846626       21.3348226668       91.2830606054  LPSA32    26             19.0000000000
     35271      1142  BMANNA    C             -36.0688702837       21.7373627915       93.2276546885  LPSA32    26             19.0000000000
     35272      1142  BMANNA    O             -35.4200431941       22.3453865232       94.0719205769  LPSA32    26             19.0000000000
     35273      1142  BMANNA    CT            -37.1692509694       20.7829576126       93.6436924496  LPSA32    26             19.0000000000
     35274      1142  BMANNA    HT1           -37.9076316586       20.6652226376       92.8346630715  LPSA32    26             19.0000000000
     35275      1142  BMANNA    HT2           -37.6785344959       21.0708484008       94.5916879022  LPSA32    26             19.0000000000
     35276      1142  BMANNA    HT3           -36.7082079163       19.7934810685       93.8190397939  LPSA32    26             19.0000000000
     35277      1142  BMANNA    C3            -33.6223775480       21.5363645804       90.7694089605  LPSA32    26             19.0000000000
     35278      1142  BMANNA    H3            -32.7546424498       22.1091636387       90.3455804634  LPSA32    26             19.0000000000
     35279      1142  BMANNA    O3            -33.0811045606       20.6870717648       91.7760205957  LPSA32    26             19.0000000000
     35280      1142  BMANNA    HO3           -32.4354133021       21.1789196684       92.3002320490  LPSA32    26             19.0000000000
     35281      1142  BMANNA    C4            -34.2919202047       20.8105789457       89.6343729076  LPSA32    26             19.0000000000
     35282      1142  BMANNA    H4            -35.1189291622       20.1522716923       89.9811484307  LPSA32    26             19.0000000000
     35283      1142  BMANNA    O4            -33.3266465367       20.0320227454       89.0174973037  LPSA32    26             19.0000000000
     35284      1142  BMANNA    HO4           -33.3572218636       19.1756782769       89.4765373420  LPSA32    26             19.0000000000
     35285      1142  BMANNA    C6            -35.5237509333       21.1560838550       87.4023526905  LPSA32    26             19.0000000000
     35286      1142  BMANNA    H61           -36.1378514763       21.9418018963       86.9092340998  LPSA32    26             19.0000000000
     35287      1142  BMANNA    H62           -34.7993129750       20.7836794339       86.6410734944  LPSA32    26             19.0000000000
     35288      1142  BMANNA    O6            -36.3863501013       20.0850465569       87.7832746928  LPSA32    26             19.0000000000
     35289      1142  BMANNA    HO6           -35.8321417990       19.3696404977       88.1056171581  LPSA32    26             19.0000000000
     35290      1143  BGLCNA    C1            -35.1275179228       27.5765069719       93.4694142294  LPSA32    27             19.0000000000
     35291      1143  BGLCNA    H1            -35.8641979993       28.4101012620       93.4239791663  LPSA32    27             19.0000000000
     35292      1143  BGLCNA    C5            -33.4168383831       29.1332210098       93.9173199814  LPSA32    27             19.0000000000
     35293      1143  BGLCNA    H5            -34.2156023328       29.9167585928       93.9307997232  LPSA32    27             19.0000000000
     35294      1143  BGLCNA    O5            -33.8494820077       28.0618553616       93.0675905004  LPSA32    27             19.0000000000
     35295      1143  BGLCNA    C2            -35.0299404143       26.9985851342       94.8668280567  LPSA32    27             19.0000000000
     35296      1143  BGLCNA    H2            -34.2265165649       26.2157999931       94.8359125041  LPSA32    27             19.0000000000
     35297      1143  BGLCNA    N             -36.2720215504       26.3641609437       95.2988762635  LPSA32    27             19.0000000000
     35298      1143  BGLCNA    HN            -37.1076358756       26.8340945433       95.0352347566  LPSA32    27             19.0000000000
     35299      1143  BGLCNA    C             -36.2660710291       25.1853430373       95.9658028719  LPSA32    27             19.0000000000
     35300      1143  BGLCNA    O             -35.2749109371       24.7423007666       96.5282039108  LPSA32    27             19.0000000000
     35301      1143  BGLCNA    CT            -37.5525441396       24.4006354588       96.0180895518  LPSA32    27             19.0000000000
     35302      1143  BGLCNA    HT1           -38.3200759450       24.8541131765       95.3633379601  LPSA32    27             19.0000000000
     35303      1143  BGLCNA    HT2           -37.9308483499       24.3033742378       97.0517235990  LPSA32    27             19.0000000000
     35304      1143  BGLCNA    HT3           -37.3449815886       23.3628887573       95.6707114784  LPSA32    27             19.0000000000
     35305      1143  BGLCNA    C3            -34.5811871167       28.0584433376       95.8216831754  LPSA32    27             19.0000000000
     35306      1143  BGLCNA    H3            -35.3232900772       28.8895990838       95.7728529723  LPSA32    27             19.0000000000
     35307      1143  BGLCNA    O3            -34.6117532999       27.4346339973       97.1288717439  LPSA32    27             19.0000000000
     35308      1143  BGLCNA    C4            -33.2546655190       28.6063190496       95.3372569170  LPSA32    27             19.0000000000
     35309      1143  BGLCNA    H4            -32.4805627805       27.8028997260       95.3381170006  LPSA32    27             19.0000000000
     35310      1143  BGLCNA    O4            -32.8255698479       29.6829365718       96.1461249168  LPSA32    27             19.0000000000
     35311      1143  BGLCNA    HO4           -33.4241324892       30.4093795011       96.0113945264  LPSA32    27             19.0000000000
     35312      1143  BGLCNA    C6            -32.1913859027       29.8007302378       93.3268069835  LPSA32    27             19.0000000000
     35313      1143  BGLCNA    H61           -32.0045610063       30.7725293820       93.8411699388  LPSA32    27             19.0000000000
     35314      1143  BGLCNA    H62           -31.3185297168       29.1542673127       93.4875084603  LPSA32    27             19.0000000000
     35315      1143  BGLCNA    O6            -32.3271895218       29.9918664261       91.9180185159  LPSA32    27             19.0000000000
     35316      1143  BGLCNA    HO6           -31.6285203833       30.5218667487       91.5325716716  LPSA32    27             19.0000000000
     35317      1144  AGAL      C1            -34.6073465570       28.2888125026       98.2483357050  LPSA32    28             20.0000000000
     35318      1144  AGAL      H1            -33.6136557375       28.7600042245       98.3274239653  LPSA32    28             20.0000000000
     35319      1144  AGAL      C5            -36.9197789070       28.8603655419       98.1272783745  LPSA32    28             20.0000000000
     35320      1144  AGAL      H5            -37.0381108982       27.9894096181       97.4299454783  LPSA32    28             20.0000000000
     35321      1144  AGAL      O5            -35.5632339735       29.3520802853       98.0588852670  LPSA32    28             20.0000000000
     35322      1144  AGAL      C2            -34.8674650317       27.6118932333       99.6125197451  LPSA32    28             20.0000000000
     35323      1144  AGAL      H2            -34.7826839631       28.4925656857      100.2973638137  LPSA32    28             20.0000000000
     35324      1144  AGAL      O2            -33.9352812564       26.6283857772      100.1007418608  LPSA32    28             20.0000000000
     35325      1144  AGAL      C3            -36.2841616299       27.0909947411       99.6877390861  LPSA32    28             20.0000000000
     35326      1144  AGAL      H3            -36.4370222893       26.3923442647       98.8392620747  LPSA32    28             20.0000000000
     35327      1144  AGAL      O3            -36.5969548316       26.3257977539      100.8501930928  LPSA32    28             20.0000000000
     35328      1144  AGAL      HO3           -36.9478790546       25.4607539789      100.6212744226  LPSA32    28             20.0000000000
     35329      1144  AGAL      C4            -37.1978604567       28.2662670265       99.4797572745  LPSA32    28             20.0000000000
     35330      1144  AGAL      H4            -38.2191382947       27.8862672753       99.4140772287  LPSA32    28             20.0000000000
     35331      1144  AGAL      O4            -37.1200937922       29.2414579518      100.4980648042  LPSA32    28             20.0000000000
     35332      1144  AGAL      HO4           -37.8792737828       29.1423755093      101.0782115564  LPSA32    28             20.0000000000
     35333      1144  AGAL      C6            -37.9479538016       29.8884041592       97.6421848074  LPSA32    28             20.0000000000
     35334      1144  AGAL      H61           -37.7567931420       30.0383198866       96.5591242209  LPSA32    28             20.0000000000
     35335      1144  AGAL      H62           -38.9874182900       29.5166925070       97.7635396722  LPSA32    28             20.0000000000
     35336      1144  AGAL      O6            -37.9108674726       31.1731378105       98.2578007961  LPSA32    28             20.0000000000
     35337      1144  AGAL      HO6           -37.0871237217       31.5709857731       97.9977984410  LPSA32    28             20.0000000000
     35338      1145  ARHM      C1            -33.7054168430       26.8494939788      101.4836145738  LPSA32    29             21.0000000000
     35339      1145  ARHM      H1            -34.5816026672       27.3373185405      101.9612026529  LPSA32    29             21.0000000000
     35340      1145  ARHM      C5            -31.3751708363       27.0785626754      101.1726548144  LPSA32    29             21.0000000000
     35341      1145  ARHM      H5            -31.5790588952       26.8245673129      100.1235475720  LPSA32    29             21.0000000000
     35342      1145  ARHM      O5            -32.5585715860       27.6708784776      101.7099985435  LPSA32    29             21.0000000000
     35343      1145  ARHM      C2            -33.5023244816       25.5339007502      102.1693077921  LPSA32    29             21.0000000000
     35344      1145  ARHM      H2            -34.3814836884       24.8884107151      101.9265761741  LPSA32    29             21.0000000000
     35345      1145  ARHM      O2            -33.3876690883       25.7132660733      103.6015668430  LPSA32    29             21.0000000000
     35346      1145  ARHM      C3            -32.2712330528       24.8715467224      101.6068077573  LPSA32    29             21.0000000000
     35347      1145  ARHM      H3            -32.3955895649       24.7281782035      100.5071358981  LPSA32    29             21.0000000000
     35348      1145  ARHM      O3            -32.1458033193       23.5715141213      102.1417745278  LPSA32    29             21.0000000000
     35349      1145  ARHM      HO3           -31.2048919007       23.4402933678      102.3307556381  LPSA32    29             21.0000000000
     35350      1145  ARHM      C4            -31.0425207386       25.7517252868      101.8392676531  LPSA32    29             21.0000000000
     35351      1145  ARHM      H4            -30.8879988872       25.9248784664      102.9307669925  LPSA32    29             21.0000000000
     35352      1145  ARHM      O4            -29.8200432445       25.1922334568      101.3373291939  LPSA32    29             21.0000000000
     35353      1145  ARHM      HO4           -29.9129722368       24.8293731696      100.4558817351  LPSA32    29             21.0000000000
     35354      1145  ARHM      C6            -30.3305474244       28.1854530240      101.2016851415  LPSA32    29             21.0000000000
     35355      1145  ARHM      H61           -30.7823134715       29.0967651050      100.7457145959  LPSA32    29             21.0000000000
     35356      1145  ARHM      H62           -30.0637102955       28.4051062252      102.2580907670  LPSA32    29             21.0000000000
     35357      1145  ARHM      H63           -29.4157133063       27.9295641428      100.6330683775  LPSA32    29             21.0000000000
     35358      1146  ARHM      C1            -34.5550787038       25.5170470746      104.3711885341  LPSA32    30             22.0000000000
     35359      1146  ARHM      H1            -34.9729155855       24.5054164691      104.1633662380  LPSA32    30             22.0000000000
     35360      1146  ARHM      C5            -35.1318585137       27.8362495185      104.4974203054  LPSA32    30             22.0000000000
     35361      1146  ARHM      H5            -34.2046444580       28.0165524665      103.9110394701  LPSA32    30             22.0000000000
     35362      1146  ARHM      O5            -35.5725975510       26.5116871255      104.1657115448  LPSA32    30             22.0000000000
     35363      1146  ARHM      C2            -34.1650755558       25.5793184094      105.8267100138  LPSA32    30             22.0000000000
     35364      1146  ARHM      H2            -33.3511297347       24.8397516427      106.0254303031  LPSA32    30             22.0000000000
     35365      1146  ARHM      O2            -35.3426946424       25.3040593309      106.5929020006  LPSA32    30             22.0000000000
     35366      1146  ARHM      C3            -33.6756798652       26.9548100401      106.2230181002  LPSA32    30             22.0000000000
     35367      1146  ARHM      H3            -32.8490950649       27.2057445692      105.5149165398  LPSA32    30             22.0000000000
     35368      1146  ARHM      O3            -33.1009879450       26.9655741832      107.5433867887  LPSA32    30             22.0000000000
     35369      1146  ARHM      C4            -34.7812475685       27.9469925786      105.9670330396  LPSA32    30             22.0000000000
     35370      1146  ARHM      H4            -35.6953110492       27.7011967829      106.5504261897  LPSA32    30             22.0000000000
     35371      1146  ARHM      O4            -34.4470545492       29.2764160060      106.3350349742  LPSA32    30             22.0000000000
     35372      1146  ARHM      HO4           -33.8984817749       29.6843553551      105.6673519714  LPSA32    30             22.0000000000
     35373      1146  ARHM      C6            -36.1686567089       28.8776107123      104.0558966417  LPSA32    30             22.0000000000
     35374      1146  ARHM      H61           -35.7649300057       29.8971054432      104.2239871659  LPSA32    30             22.0000000000
     35375      1146  ARHM      H62           -36.3669690482       28.7690692671      102.9714236765  LPSA32    30             22.0000000000
     35376      1146  ARHM      H63           -37.1200946147       28.7539284296      104.6164573698  LPSA32    30             22.0000000000
     35377      1147  BMANNA    C1            -35.5240471996       23.9650737997      106.8980160666  LPSA32    31             23.0000000000
     35378      1147  BMANNA    H1            -34.5545238488       23.4884280783      107.1558614229  LPSA32    31             23.0000000000
     35379      1147  BMANNA    C5            -36.5128973079       21.9078289395      106.2093371575  LPSA32    31             23.0000000000
     35380      1147  BMANNA    H5            -35.5329280730       21.5360002548      106.5153895117  LPSA32    31             23.0000000000
     35381      1147  BMANNA    O5            -36.2354013235       23.2714649472      105.8612937230  LPSA32    31             23.0000000000
     35382      1147  BMANNA    C2            -36.4192947820       23.9950421374      108.0896664606  LPSA32    31             23.0000000000
     35383      1147  BMANNA    H2            -35.8327465061       24.4738300346      108.9132231828  LPSA32    31             23.0000000000
     35384      1147  BMANNA    N             -37.5854819832       24.8108213273      107.8311983531  LPSA32    31             23.0000000000
     35385      1147  BMANNA    HN            -37.7644689787       25.0017453027      106.8677531734  LPSA32    31             23.0000000000
     35386      1147  BMANNA    C             -38.2478117987       25.4494356773      108.7918980924  LPSA32    31             23.0000000000
     35387      1147  BMANNA    O             -37.8840507577       25.4279554961      109.9541970225  LPSA32    31             23.0000000000
     35388      1147  BMANNA    CT            -39.4480901970       26.2259550169      108.3535039145  LPSA32    31             23.0000000000
     35389      1147  BMANNA    HT1           -39.9910986606       25.6426115148      107.5812104103  LPSA32    31             23.0000000000
     35390      1147  BMANNA    HT2           -39.0730126698       27.1648689160      107.9264334975  LPSA32    31             23.0000000000
     35391      1147  BMANNA    HT3           -40.1125676160       26.4631209115      109.2101181647  LPSA32    31             23.0000000000
     35392      1147  BMANNA    C3            -36.7015501571       22.5742621086      108.5084214369  LPSA32    31             23.0000000000
     35393      1147  BMANNA    H3            -35.7289868347       22.0558749375      108.6736709935  LPSA32    31             23.0000000000
     35394      1147  BMANNA    O3            -37.3557154704       22.5458898334      109.7527841592  LPSA32    31             23.0000000000
     35395      1147  BMANNA    HO3           -37.2589102415       23.4315518604      110.1390061613  LPSA32    31             23.0000000000
     35396      1147  BMANNA    C4            -37.4197829843       21.8286554483      107.4163084493  LPSA32    31             23.0000000000
     35397      1147  BMANNA    H4            -38.3814180523       22.3227235813      107.1383186745  LPSA32    31             23.0000000000
     35398      1147  BMANNA    O4            -37.6978546970       20.4688407886      107.7525043858  LPSA32    31             23.0000000000
     35399      1147  BMANNA    HO4           -36.9526775390       20.0586134791      108.2125851822  LPSA32    31             23.0000000000
     35400      1147  BMANNA    C6            -36.9930775241       21.0566706854      105.0558106112  LPSA32    31             23.0000000000
     35401      1147  BMANNA    H61           -36.9732927035       19.9688062249      105.3107948569  LPSA32    31             23.0000000000
     35402      1147  BMANNA    H62           -38.0445464182       21.3269466024      104.8873124928  LPSA32    31             23.0000000000
     35403      1147  BMANNA    O6            -36.2823456237       21.3084174169      103.8444177527  LPSA32    31             23.0000000000
     35404      1147  BMANNA    HO6           -35.4270791505       20.8650529356      103.8123603231  LPSA32    31             23.0000000000
     35405      1148  BGLCNA    C1            -34.0135189454       27.0733034239      108.6094975530  LPSA32    32             23.0000000000
     35406      1148  BGLCNA    H1            -34.9273777263       26.4924668555      108.4013969506  LPSA32    32             23.0000000000
     35407      1148  BGLCNA    C5            -35.4019045734       28.4997613401      109.9211069383  LPSA32    32             23.0000000000
     35408      1148  BGLCNA    H5            -36.2671265883       27.8764823886      109.5891728808  LPSA32    32             23.0000000000
     35409      1148  BGLCNA    O5            -34.4034545034       28.4176268894      108.8956355769  LPSA32    32             23.0000000000
     35410      1148  BGLCNA    C2            -33.3731506253       26.4783355264      109.8463274638  LPSA32    32             23.0000000000
     35411      1148  BGLCNA    H2            -32.5542832407       27.1797495673      110.1419532091  LPSA32    32             23.0000000000
     35412      1148  BGLCNA    N             -32.8213851561       25.1656972529      109.5633001252  LPSA32    32             23.0000000000
     35413      1148  BGLCNA    HN            -33.3198309027       24.6745643605      108.8695837659  LPSA32    32             23.0000000000
     35414      1148  BGLCNA    C             -31.6957842028       24.6589661187      110.0851552907  LPSA32    32             23.0000000000
     35415      1148  BGLCNA    O             -31.0191896424       25.2478138730      110.9212712106  LPSA32    32             23.0000000000
     35416      1148  BGLCNA    CT            -31.3557072306       23.2817151940      109.5512243515  LPSA32    32             23.0000000000
     35417      1148  BGLCNA    HT1           -31.9329954087       23.1438084700      108.6134888765  LPSA32    32             23.0000000000
     35418      1148  BGLCNA    HT2           -31.6151864516       22.4623754394      110.2509374610  LPSA32    32             23.0000000000
     35419      1148  BGLCNA    HT3           -30.2692758796       23.2045321581      109.3191383207  LPSA32    32             23.0000000000
     35420      1148  BGLCNA    C3            -34.4377192443       26.4587353793      110.9225745639  LPSA32    32             23.0000000000
     35421      1148  BGLCNA    H3            -35.3265674174       25.9494749550      110.4789624095  LPSA32    32             23.0000000000
     35422      1148  BGLCNA    O3            -34.0624572064       25.7294274911      112.1084722143  LPSA32    32             23.0000000000
     35423      1148  BGLCNA    C4            -34.8260104766       27.8953838460      111.1939454671  LPSA32    32             23.0000000000
     35424      1148  BGLCNA    H4            -33.9129391077       28.4583332042      111.5054622404  LPSA32    32             23.0000000000
     35425      1148  BGLCNA    O4            -35.7764173736       27.9839364119      112.2355353764  LPSA32    32             23.0000000000
     35426      1148  BGLCNA    HO4           -35.3239377351       28.1207088677      113.0755694839  LPSA32    32             23.0000000000
     35427      1148  BGLCNA    C6            -35.9218717773       29.9273127805      110.0512641380  LPSA32    32             23.0000000000
     35428      1148  BGLCNA    H61           -36.7893399888       29.9753312702      110.7381890760  LPSA32    32             23.0000000000
     35429      1148  BGLCNA    H62           -35.1310496467       30.5710642202      110.4987556913  LPSA32    32             23.0000000000
     35430      1148  BGLCNA    O6            -36.3944375430       30.4557484078      108.8047497265  LPSA32    32             23.0000000000
     35431      1148  BGLCNA    HO6           -36.6254052487       29.7252307855      108.2285794928  LPSA32    32             23.0000000000
     35432      1149  AGAL      C1            -35.1359321973       24.9887223248      112.6837504740  LPSA32    33             24.0000000000
     35433      1149  AGAL      H1            -36.0812395365       25.5699582896      112.6131777068  LPSA32    33             24.0000000000
     35434      1149  AGAL      C5            -34.2288758042       22.8309554968      112.2052511142  LPSA32    33             24.0000000000
     35435      1149  AGAL      H5            -33.3580408594       23.4280196798      111.8429452483  LPSA32    33             24.0000000000
     35436      1149  AGAL      O5            -35.3590199482       23.7107233890      112.0482439637  LPSA32    33             24.0000000000
     35437      1149  AGAL      C2            -34.8285847704       24.7416034571      114.1473487283  LPSA32    33             24.0000000000
     35438      1149  AGAL      H2            -35.6595586045       24.1108706096      114.5357811139  LPSA32    33             24.0000000000
     35439      1149  AGAL      O2            -34.8834319801       25.9870374041      114.8748169671  LPSA32    33             24.0000000000
     35440      1149  AGAL      C3            -33.5774511989       23.8765622854      114.3022492593  LPSA32    33             24.0000000000
     35441      1149  AGAL      H3            -32.7330149112       24.3169682377      113.7169210851  LPSA32    33             24.0000000000
     35442      1149  AGAL      O3            -33.0692852692       23.8545353251      115.6321997274  LPSA32    33             24.0000000000
     35443      1149  AGAL      HO3           -33.7190717071       23.4859411921      116.2362029857  LPSA32    33             24.0000000000
     35444      1149  AGAL      C4            -33.8785862951       22.5159839356      113.6575360335  LPSA32    33             24.0000000000
     35445      1149  AGAL      H4            -32.9488813074       21.9148557330      113.6254051124  LPSA32    33             24.0000000000
     35446      1149  AGAL      O4            -34.8639480970       21.6980776271      114.3063573223  LPSA32    33             24.0000000000
     35447      1149  AGAL      HO4           -35.4543595353       22.1602083995      114.9088833527  LPSA32    33             24.0000000000
     35448      1149  AGAL      C6            -34.2973933314       21.6270457254      111.2627500185  LPSA32    33             24.0000000000
     35449      1149  AGAL      H61           -34.2842733048       22.0566258066      110.2414981988  LPSA32    33             24.0000000000
     35450      1149  AGAL      H62           -33.3867549135       20.9948257543      111.3813050684  LPSA32    33             24.0000000000
     35451      1149  AGAL      O6            -35.4319032084       20.7526683168      111.3733659935  LPSA32    33             24.0000000000
     35452      1149  AGAL      HO6           -36.1980423882       21.1071539541      110.9057030072  LPSA32    33             24.0000000000
     35453      1150  ARHM      C1            -35.6849840418       25.9264988730      116.0486950101  LPSA32    34             25.0000000000
     35454      1150  ARHM      H1            -35.3600710955       25.0481779295      116.6484480354  LPSA32    34             25.0000000000
     35455      1150  ARHM      C5            -37.7172820139       26.8193048301      115.0563293392  LPSA32    34             25.0000000000
     35456      1150  ARHM      H5            -37.2381871052       26.8281037407      114.0600504517  LPSA32    34             25.0000000000
     35457      1150  ARHM      O5            -37.1112002038       25.7649449361      115.8278320959  LPSA32    34             25.0000000000
     35458      1150  ARHM      C2            -35.4217200582       27.2128694277      116.8101744653  LPSA32    34             25.0000000000
     35459      1150  ARHM      H2            -34.3154293033       27.3786846908      116.8517448239  LPSA32    34             25.0000000000
     35460      1150  ARHM      O2            -35.9088880825       27.2111580213      118.1784342810  LPSA32    34             25.0000000000
     35461      1150  ARHM      C3            -36.0152391961       28.3695204202      116.0061371304  LPSA32    34             25.0000000000
     35462      1150  ARHM      H3            -35.5538267452       28.3921387771      114.9909777633  LPSA32    34             25.0000000000
     35463      1150  ARHM      O3            -35.7356362028       29.6301632988      116.6221387752  LPSA32    34             25.0000000000
     35464      1150  ARHM      HO3           -35.5659473926       30.3169747210      115.9560258964  LPSA32    34             25.0000000000
     35465      1150  ARHM      C4            -37.4975657346       28.1395707151      115.7918284630  LPSA32    34             25.0000000000
     35466      1150  ARHM      H4            -38.0166149913       28.0365097880      116.7757482675  LPSA32    34             25.0000000000
     35467      1150  ARHM      O4            -38.0865100323       29.2244789699      115.0733539295  LPSA32    34             25.0000000000
     35468      1150  ARHM      HO4           -38.1930071678       29.9812656380      115.6706523553  LPSA32    34             25.0000000000
     35469      1150  ARHM      C6            -39.2257429497       26.5881519384      114.7881710165  LPSA32    34             25.0000000000
     35470      1150  ARHM      H61           -39.7668341669       26.5179407201      115.7283697833  LPSA32    34             25.0000000000
     35471      1150  ARHM      H62           -39.6723199627       27.4749780937      114.3011675258  LPSA32    34             25.0000000000
     35472      1150  ARHM      H63           -39.4577988728       25.6965864086      114.1714760114  LPSA32    34             25.0000000000
     35473      1151  ARHM      C1            -35.4893656998       26.1797066829      119.0616022054  LPSA32    35             26.0000000000
     35474      1151  ARHM      H1            -34.4166759148       25.9434365537      118.8737973092  LPSA32    35             26.0000000000
     35475      1151  ARHM      C5            -37.6815746990       25.2393853738      119.2063398378  LPSA32    35             26.0000000000
     35476      1151  ARHM      H5            -38.0864389414       26.0080332511      118.5093222000  LPSA32    35             26.0000000000
     35477      1151  ARHM      O5            -36.2950600600       24.9916511421      118.9300174074  LPSA32    35             26.0000000000
     35478      1151  ARHM      C2            -35.6200096531       26.6629493859      120.5024023263  LPSA32    35             26.0000000000
     35479      1151  ARHM      H2            -35.0179874803       27.5878670745      120.6691007365  LPSA32    35             26.0000000000
     35480      1151  ARHM      O2            -35.1607425140       25.6410733292      121.4032326888  LPSA32    35             26.0000000000
     35481      1151  ARHM      C3            -37.0550984245       26.9962103259      120.8218458543  LPSA32    35             26.0000000000
     35482      1151  ARHM      H3            -37.4221085255       27.7706136646      120.1105059647  LPSA32    35             26.0000000000
     35483      1151  ARHM      O3            -37.1671404898       27.6222444490      122.0943597752  LPSA32    35             26.0000000000
     35484      1151  ARHM      HO3           -36.6115430104       27.1719428279      122.7515549423  LPSA32    35             26.0000000000
     35485      1151  ARHM      C4            -37.8919816863       25.7341087369      120.6463725517  LPSA32    35             26.0000000000
     35486      1151  ARHM      H4            -37.5401312329       24.9317010271      121.3431355790  LPSA32    35             26.0000000000
     35487      1151  ARHM      O4            -39.2806110840       25.9706629607      120.8974746785  LPSA32    35             26.0000000000
     35488      1151  ARHM      HO4           -39.5006904927       26.8672580768      120.6319538817  LPSA32    35             26.0000000000
     35489      1151  ARHM      C6            -38.4415654376       23.9640982410      118.8445596297  LPSA32    35             26.0000000000
     35490      1151  ARHM      H61           -38.4130010955       23.7120785150      117.7670634453  LPSA32    35             26.0000000000
     35491      1151  ARHM      H62           -38.0603685024       23.0954133673      119.4228360516  LPSA32    35             26.0000000000
     35492      1151  ARHM      H63           -39.5058825766       24.1781168559      119.0390869836  LPSA32    35             26.0000000000
     35493      1152  BMANNA    C1            -33.7711252952       25.4767380929      121.4715388114  LPSA32    36             27.0000000000
     35494      1152  BMANNA    H1            -33.2880785588       26.3973426754      121.1307538271  LPSA32    36             27.0000000000
     35495      1152  BMANNA    C5            -31.8412297749       24.3250950281      120.7104912650  LPSA32    36             27.0000000000
     35496      1152  BMANNA    H5            -31.4186427592       25.3077135639      120.4182470718  LPSA32    36             27.0000000000
     35497      1152  BMANNA    O5            -33.2795520509       24.4106929810      120.6452840426  LPSA32    36             27.0000000000
     35498      1152  BMANNA    C2            -33.4188580049       25.1985887908      122.9196900800  LPSA32    36             27.0000000000
     35499      1152  BMANNA    H2            -33.7467038151       26.1106349176      123.4805689277  LPSA32    36             27.0000000000
     35500      1152  BMANNA    N             -34.0908058757       24.0373003623      123.4990774180  LPSA32    36             27.0000000000
     35501      1152  BMANNA    HN            -34.2263656853       23.2559896018      122.8949933765  LPSA32    36             27.0000000000
     35502      1152  BMANNA    C             -34.3470515564       23.9406475586      124.8240967613  LPSA32    36             27.0000000000
     35503      1152  BMANNA    O             -34.1673071732       24.8665775737      125.6154410360  LPSA32    36             27.0000000000
     35504      1152  BMANNA    CT            -34.8130974653       22.6122370056      125.3608144002  LPSA32    36             27.0000000000
     35505      1152  BMANNA    HT1           -34.2550926213       21.7917074693      124.8729610502  LPSA32    36             27.0000000000
     35506      1152  BMANNA    HT2           -35.8860713421       22.4672960941      125.1848947711  LPSA32    36             27.0000000000
     35507      1152  BMANNA    HT3           -34.6930052114       22.5877045525      126.4600193355  LPSA32    36             27.0000000000
     35508      1152  BMANNA    C3            -31.9067939280       25.1288480773      123.0291844891  LPSA32    36             27.0000000000
     35509      1152  BMANNA    H3            -31.4641123767       26.0880230589      122.6689186232  LPSA32    36             27.0000000000
     35510      1152  BMANNA    O3            -31.4757712684       24.9377166914      124.3764617106  LPSA32    36             27.0000000000
     35511      1152  BMANNA    HO3           -30.9259492042       25.6684411197      124.6785826609  LPSA32    36             27.0000000000
     35512      1152  BMANNA    C4            -31.3875855962       24.0400526382      122.1259708461  LPSA32    36             27.0000000000
     35513      1152  BMANNA    H4            -31.8098958090       23.0558922455      122.4297865986  LPSA32    36             27.0000000000
     35514      1152  BMANNA    O4            -29.9736135297       23.9532308562      122.2345007825  LPSA32    36             27.0000000000
     35515      1152  BMANNA    HO4           -29.8946761092       23.7605857033      123.1820144480  LPSA32    36             27.0000000000
     35516      1152  BMANNA    C6            -31.3164084342       23.3196176838      119.7237642537  LPSA32    36             27.0000000000
     35517      1152  BMANNA    H61           -31.6576429066       23.5729888478      118.6947029938  LPSA32    36             27.0000000000
     35518      1152  BMANNA    H62           -30.2077036622       23.4184433225      119.7106852464  LPSA32    36             27.0000000000
     35519      1152  BMANNA    O6            -31.6808522678       21.9805132027      120.0939860451  LPSA32    36             27.0000000000
     35520      1152  BMANNA    HO6           -30.9576322205       21.6070085734      120.6164598423  LPSA32    36             27.0000000000
     35521      1153  ECLIPA    HB6S          -38.8373296554      -27.8929257497       20.3884336731  LPSA33    1               0.0000000000
     35522      1153  ECLIPA    OB6           -39.8549417979      -28.8593228072       21.8026312858  LPSA33    1               0.0000000000
     35523      1153  ECLIPA    CB6           -38.9526235484      -28.9526203196       20.6813771138  LPSA33    1               0.0000000000
     35524      1153  ECLIPA    HB6R          -37.9976340695      -29.3421374169       21.0790261872  LPSA33    1               0.0000000000
     35525      1153  ECLIPA    CB5           -39.2654299679      -29.7573035452       19.3577296050  LPSA33    1               0.0000000000
     35526      1153  ECLIPA    OB5           -40.4589259773      -29.2723631339       18.7359192157  LPSA33    1               0.0000000000
     35527      1153  ECLIPA    HB5           -39.4157987573      -30.8099532884       19.6904807368  LPSA33    1               0.0000000000
     35528      1153  ECLIPA    CB1           -41.0403361907      -29.9184429672       17.6281665346  LPSA33    1               0.0000000000
     35529      1153  ECLIPA    HB1           -41.1641403079      -30.9996563358       17.8873902448  LPSA33    1               0.0000000000
     35530      1153  ECLIPA    OA6           -42.3453984985      -29.4630331456       17.2802409757  LPSA33    1               0.0000000000
     35531      1153  ECLIPA    CA6           -42.6100393252      -28.0751676636       17.5575416845  LPSA33    1               0.0000000000
     35532      1153  ECLIPA    HA6R          -41.6843010512      -27.4861166394       17.7523368112  LPSA33    1               0.0000000000
     35533      1153  ECLIPA    HA6S          -43.2814278955      -28.0013564112       18.4511506978  LPSA33    1               0.0000000000
     35534      1153  ECLIPA    CB4           -38.2565678499      -29.6126743523       18.2685068883  LPSA33    1               0.0000000000
     35535      1153  ECLIPA    HB4           -38.1113349366      -28.5263580903       18.0197556341  LPSA33    1               0.0000000000
     35536      1153  ECLIPA    OB4           -37.1082174222      -30.2580675177       18.8297547628  LPSA33    1               0.0000000000
     35537      1153  ECLIPA    PB            -35.8074378918      -29.3652039263       19.3358746501  LPSA33    1               0.0000000000
     35538      1153  ECLIPA    OPB4          -35.1526710110      -30.0585756577       20.5317248524  LPSA33    1               0.0000000000
     35539      1153  ECLIPA    OPB3          -36.4362210897      -28.0086901571       19.6915454932  LPSA33    1               0.0000000000
     35540      1153  ECLIPA    OPB2          -34.9130813736      -29.3534746172       18.1109438661  LPSA33    1               0.0000000000
     35541      1153  ECLIPA    CB3           -38.7501563583      -30.3504186922       17.0506966689  LPSA33    1               0.0000000000
     35542      1153  ECLIPA    OB3           -37.9105316880      -30.2002110110       15.9183616135  LPSA33    1               0.0000000000
     35543      1153  ECLIPA    HB3           -38.9702777979      -31.4094655706       17.3225341997  LPSA33    1               0.0000000000
     35544      1153  ECLIPA    C71           -36.9370240275      -31.0649592832       15.7627088382  LPSA33    1               0.0000000000
     35545      1153  ECLIPA    O71           -36.9297410287      -32.1836908728       16.2666167232  LPSA33    1               0.0000000000
     35546      1153  ECLIPA    C72           -36.3129595608      -30.7729762640       14.3761587719  LPSA33    1               0.0000000000
     35547      1153  ECLIPA    H72R          -37.1032794654      -30.7616222610       13.5963487456  LPSA33    1               0.0000000000
     35548      1153  ECLIPA    H72S          -35.5734312611      -31.5670529412       14.1601770214  LPSA33    1               0.0000000000
     35549      1153  ECLIPA    CB2           -40.0527035257      -29.7544084928       16.5836132738  LPSA33    1               0.0000000000
     35550      1153  ECLIPA    HB2           -39.9273967013      -28.6354501555       16.4640251018  LPSA33    1               0.0000000000
     35551      1153  ECLIPA    NB2           -40.5812157252      -30.3782250737       15.4007317936  LPSA33    1               0.0000000000
     35552      1153  ECLIPA    HNB2          -41.1536359915      -31.1472103032       15.5830033188  LPSA33    1               0.0000000000
     35553      1153  ECLIPA    CA4           -44.3273346115      -28.4550092043       15.7678031697  LPSA33    1               0.0000000000
     35554      1153  ECLIPA    HA4           -43.7984951186      -29.3747668622       15.4708121841  LPSA33    1               0.0000000000
     35555      1153  ECLIPA    OA4           -45.2618762759      -28.8149126448       16.8014029744  LPSA33    1               0.0000000000
     35556      1153  ECLIPA    HOA4          -44.8081895833      -29.0452409042       17.6452397777  LPSA33    1               0.0000000000
     35557      1153  ECLIPA    CA5           -43.2934908972      -27.5072747671       16.3405892382  LPSA33    1               0.0000000000
     35558      1153  ECLIPA    HA5           -43.6268002975      -26.4715595233       16.5675480266  LPSA33    1               0.0000000000
     35559      1153  ECLIPA    OA5           -42.3349219547      -27.3555594414       15.3389001376  LPSA33    1               0.0000000000
     35560      1153  ECLIPA    CA1           -42.8090127287      -26.7804776698       14.1098198651  LPSA33    1               0.0000000000
     35561      1153  ECLIPA    HA1           -41.9375135949      -26.9422764528       13.4268791168  LPSA33    1               0.0000000000
     35562      1153  ECLIPA    OA1           -43.1517252546      -25.3923459917       14.2134991881  LPSA33    1               0.0000000000
     35563      1153  ECLIPA    OPA2          -42.6328722842      -23.8618992926       16.1822498387  LPSA33    1               0.0000000000
     35564      1153  ECLIPA    OPA3          -40.7340538536      -25.1046408482       14.9852837138  LPSA33    1               0.0000000000
     35565      1153  ECLIPA    OPA4          -41.8709195597      -23.2175914070       13.7572947285  LPSA33    1               0.0000000000
     35566      1153  ECLIPA    PA            -42.0021601108      -24.3168867957       14.7975454860  LPSA33    1               0.0000000000
     35567      1153  ECLIPA    CA3           -44.9724907808      -27.8923074731       14.4846160705  LPSA33    1               0.0000000000
     35568      1153  ECLIPA    HA3           -45.4989369230      -26.9212003490       14.5910167830  LPSA33    1               0.0000000000
     35569      1153  ECLIPA    OA3           -46.0054732353      -28.8334800296       14.2196679673  LPSA33    1               0.0000000000
     35570      1153  ECLIPA    C31           -45.6939518761      -29.8907270604       13.5015516280  LPSA33    1               0.0000000000
     35571      1153  ECLIPA    O31           -45.5837490490      -29.9634989333       12.3096821278  LPSA33    1               0.0000000000
     35572      1153  ECLIPA    C32           -46.1966676791      -31.0952903778       14.2385685619  LPSA33    1               0.0000000000
     35573      1153  ECLIPA    H32R          -46.9775504402      -31.6059502695       13.6635383236  LPSA33    1               0.0000000000
     35574      1153  ECLIPA    H32S          -46.4903414550      -30.8573839071       15.2912872993  LPSA33    1               0.0000000000
     35575      1153  ECLIPA    CA2           -43.8666325428      -27.6835682944       13.4833281506  LPSA33    1               0.0000000000
     35576      1153  ECLIPA    HA2           -43.3787161315      -28.6693881725       13.3054413466  LPSA33    1               0.0000000000
     35577      1153  ECLIPA    NA2           -44.3799460727      -27.1401893793       12.2234155874  LPSA33    1               0.0000000000
     35578      1153  ECLIPA    HNA2          -45.3582155600      -27.1981202147       12.0921796042  LPSA33    1               0.0000000000
     35579      1153  ECLIPA    C73           -35.6298136452      -29.3855622277       14.3510637323  LPSA33    1               0.0000000000
     35580      1153  ECLIPA    H73R          -35.0103328835      -29.2855023870       15.2814462360  LPSA33    1               0.0000000000
     35581      1153  ECLIPA    O73           -36.6801526300      -28.4223529347       14.2612277082  LPSA33    1               0.0000000000
     35582      1153  ECLIPA    C81           -36.5761271408      -27.2845124631       14.9502462301  LPSA33    1               0.0000000000
     35583      1153  ECLIPA    O81           -35.5743701658      -26.9358193602       15.5481201280  LPSA33    1               0.0000000000
     35584      1153  ECLIPA    C82           -37.5677981154      -26.2706431551       14.3399123621  LPSA33    1               0.0000000000
     35585      1153  ECLIPA    H82R          -37.4669659771      -25.2998685053       14.8679345389  LPSA33    1               0.0000000000
     35586      1153  ECLIPA    H82S          -38.5954203580      -26.6299429781       14.5570880428  LPSA33    1               0.0000000000
     35587      1153  ECLIPA    C83           -37.4205860682      -26.0758941735       12.8086963715  LPSA33    1               0.0000000000
     35588      1153  ECLIPA    H83R          -37.9341366627      -26.9164601134       12.2891102403  LPSA33    1               0.0000000000
     35589      1153  ECLIPA    H83S          -36.3462026281      -26.0999047901       12.5374571208  LPSA33    1               0.0000000000
     35590      1153  ECLIPA    C84           -38.1002229751      -24.7989049854       12.2900516463  LPSA33    1               0.0000000000
     35591      1153  ECLIPA    H84R          -37.5426252114      -23.9113744880       12.6143874492  LPSA33    1               0.0000000000
     35592      1153  ECLIPA    H84S          -39.1116803373      -24.7461402834       12.7647652227  LPSA33    1               0.0000000000
     35593      1153  ECLIPA    C85           -38.3036997856      -24.8006457946       10.7668848893  LPSA33    1               0.0000000000
     35594      1153  ECLIPA    H85R          -38.6681564274      -25.8273080027       10.5399387100  LPSA33    1               0.0000000000
     35595      1153  ECLIPA    H85S          -37.3361721589      -24.6769342719       10.2368191894  LPSA33    1               0.0000000000
     35596      1153  ECLIPA    C86           -39.4078297719      -23.8345601937       10.2810836870  LPSA33    1               0.0000000000
     35597      1153  ECLIPA    H86R          -38.9876776062      -22.8564203273        9.9609854923  LPSA33    1               0.0000000000
     35598      1153  ECLIPA    H86S          -40.1052273454      -23.6219593114       11.1279454735  LPSA33    1               0.0000000000
     35599      1153  ECLIPA    C87           -40.2716619152      -24.4297327288        9.1580919762  LPSA33    1               0.0000000000
     35600      1153  ECLIPA    H87R          -40.9809349570      -23.6558287229        8.7927757806  LPSA33    1               0.0000000000
     35601      1153  ECLIPA    H87S          -40.8873330969      -25.2596988648        9.5747619955  LPSA33    1               0.0000000000
     35602      1153  ECLIPA    C88           -39.4301353029      -25.0106538220        8.0234327766  LPSA33    1               0.0000000000
     35603      1153  ECLIPA    H88R          -39.0052136115      -25.9812590629        8.3508199650  LPSA33    1               0.0000000000
     35604      1153  ECLIPA    H88S          -38.5460244085      -24.3480202745        7.8809628315  LPSA33    1               0.0000000000
     35605      1153  ECLIPA    C89           -40.2230056542      -25.2214371290        6.7251508009  LPSA33    1               0.0000000000
     35606      1153  ECLIPA    H89R          -41.3212897843      -25.2632749535        6.8981931043  LPSA33    1               0.0000000000
     35607      1153  ECLIPA    H89S          -39.9539116297      -26.1942372191        6.2605575395  LPSA33    1               0.0000000000
     35608      1153  ECLIPA    C810          -39.8643380774      -24.1371334687        5.7215372666  LPSA33    1               0.0000000000
     35609      1153  ECLIPA    H810R         -38.8260527873      -23.8083627023        5.9389149417  LPSA33    1               0.0000000000
     35610      1153  ECLIPA    H810S         -40.5493297972      -23.2706879729        5.8716347206  LPSA33    1               0.0000000000
     35611      1153  ECLIPA    C811          -39.9469534354      -24.6068961265        4.2727834398  LPSA33    1               0.0000000000
     35612      1153  ECLIPA    H811R         -40.0445412571      -23.6845815133        3.6724299702  LPSA33    1               0.0000000000
     35613      1153  ECLIPA    H811S         -40.8629681913      -25.2280765895        4.1618934868  LPSA33    1               0.0000000000
     35614      1153  ECLIPA    C812          -38.7745784060      -25.4510752485        3.7438035202  LPSA33    1               0.0000000000
     35615      1153  ECLIPA    H812R         -39.0583886608      -25.8075270625        2.7217010800  LPSA33    1               0.0000000000
     35616      1153  ECLIPA    H812S         -38.6452477446      -26.3292350874        4.4079279678  LPSA33    1               0.0000000000
     35617      1153  ECLIPA    C813          -37.4177974894      -24.7506845410        3.6375653783  LPSA33    1               0.0000000000
     35618      1153  ECLIPA    H813R         -37.5221136925      -23.9010418417        2.9311614019  LPSA33    1               0.0000000000
     35619      1153  ECLIPA    H813S         -37.1017632043      -24.3371938895        4.6237766885  LPSA33    1               0.0000000000
     35620      1153  ECLIPA    C814          -36.3204496977      -25.6869428887        3.1286841694  LPSA33    1               0.0000000000
     35621      1153  ECLIPA    H814R         -36.6338484277      -26.2446172578        2.2180505653  LPSA33    1               0.0000000000
     35622      1153  ECLIPA    H814S         -36.0600143870      -26.4228310843        3.9180040021  LPSA33    1               0.0000000000
     35623      1153  ECLIPA    H814T         -35.4093412684      -25.1029216686        2.8879611966  LPSA33    1               0.0000000000
     35624      1153  ECLIPA    C74           -34.7090455274      -29.1335784658       13.1253669293  LPSA33    1               0.0000000000
     35625      1153  ECLIPA    H74R          -33.8521467504      -29.8321986235       13.0448049516  LPSA33    1               0.0000000000
     35626      1153  ECLIPA    H74S          -34.2643648257      -28.1270040034       13.3219388235  LPSA33    1               0.0000000000
     35627      1153  ECLIPA    C75           -35.4621797216      -29.0299556878       11.7771568709  LPSA33    1               0.0000000000
     35628      1153  ECLIPA    H75R          -34.9642677020      -28.2291058310       11.1893084034  LPSA33    1               0.0000000000
     35629      1153  ECLIPA    H75S          -36.5030749128      -28.6886817390       11.9697921635  LPSA33    1               0.0000000000
     35630      1153  ECLIPA    C76           -35.5275581283      -30.3217317193       10.9458759752  LPSA33    1               0.0000000000
     35631      1153  ECLIPA    H76R          -36.3052495022      -30.9912028005       11.3766650254  LPSA33    1               0.0000000000
     35632      1153  ECLIPA    H76S          -34.5594836506      -30.8703396331       10.9891775836  LPSA33    1               0.0000000000
     35633      1153  ECLIPA    C77           -35.8533707051      -30.1092231099        9.4540357435  LPSA33    1               0.0000000000
     35634      1153  ECLIPA    H77R          -35.0204194807      -29.5418867933        8.9906897809  LPSA33    1               0.0000000000
     35635      1153  ECLIPA    H77S          -36.7528686612      -29.4893475826        9.3120843092  LPSA33    1               0.0000000000
     35636      1153  ECLIPA    C78           -36.1315714964      -31.4752403183        8.8004993777  LPSA33    1               0.0000000000
     35637      1153  ECLIPA    H78R          -35.2892059299      -32.1509982001        9.0660225812  LPSA33    1               0.0000000000
     35638      1153  ECLIPA    H78S          -37.0314944675      -31.8785538599        9.3203776900  LPSA33    1               0.0000000000
     35639      1153  ECLIPA    C79           -36.4683285554      -31.5048887159        7.2912825319  LPSA33    1               0.0000000000
     35640      1153  ECLIPA    H79R          -37.5761267918      -31.4859141202        7.1706613521  LPSA33    1               0.0000000000
     35641      1153  ECLIPA    H79S          -36.1095819251      -32.4533305967        6.8318807092  LPSA33    1               0.0000000000
     35642      1153  ECLIPA    C710          -35.8398654501      -30.3982169839        6.4485145117  LPSA33    1               0.0000000000
     35643      1153  ECLIPA    H710R         -36.0989343665      -29.4023687553        6.8638991398  LPSA33    1               0.0000000000
     35644      1153  ECLIPA    H710S         -34.7356252733      -30.5263453882        6.4852322341  LPSA33    1               0.0000000000
     35645      1153  ECLIPA    C711          -36.2805287241      -30.4217865585        4.9819600577  LPSA33    1               0.0000000000
     35646      1153  ECLIPA    H711R         -36.0094658164      -31.4027033031        4.5314400185  LPSA33    1               0.0000000000
     35647      1153  ECLIPA    H711S         -37.3842012445      -30.2818189250        4.9196506035  LPSA33    1               0.0000000000
     35648      1153  ECLIPA    C712          -35.6020492529      -29.2763919326        4.2286710026  LPSA33    1               0.0000000000
     35649      1153  ECLIPA    H712R         -34.5035018606      -29.4431577412        4.2563916661  LPSA33    1               0.0000000000
     35650      1153  ECLIPA    H712S         -35.8076230193      -28.3530677144        4.8165222664  LPSA33    1               0.0000000000
     35651      1153  ECLIPA    C713          -36.1038090827      -29.0971638398        2.7903020319  LPSA33    1               0.0000000000
     35652      1153  ECLIPA    H713R         -37.1947237201      -28.8613192216        2.8375116618  LPSA33    1               0.0000000000
     35653      1153  ECLIPA    H713S         -35.5872452548      -28.2288868463        2.3183410612  LPSA33    1               0.0000000000
     35654      1153  ECLIPA    C714          -35.8606226680      -30.2944617462        1.8714614734  LPSA33    1               0.0000000000
     35655      1153  ECLIPA    H714R         -34.7705618082      -30.5014301913        1.7929204286  LPSA33    1               0.0000000000
     35656      1153  ECLIPA    H714S         -36.3904442519      -31.2057036629        2.2235532615  LPSA33    1               0.0000000000
     35657      1153  ECLIPA    H714T         -36.2273290904      -30.0459359145        0.8552533232  LPSA33    1               0.0000000000
     35658      1153  ECLIPA    C51           -40.2375925742      -29.9244832377       14.2014699806  LPSA33    1               0.0000000000
     35659      1153  ECLIPA    O51           -39.7491349687      -28.8279167375       14.0648997561  LPSA33    1               0.0000000000
     35660      1153  ECLIPA    C52           -40.4621532215      -30.8489893889       13.0422168250  LPSA33    1               0.0000000000
     35661      1153  ECLIPA    H52R          -39.5735019744      -31.5100318140       12.9179244597  LPSA33    1               0.0000000000
     35662      1153  ECLIPA    H52S          -41.3423137004      -31.4694401312       13.2396283508  LPSA33    1               0.0000000000
     35663      1153  ECLIPA    C53           -40.6850667984      -30.0316932056       11.7602494592  LPSA33    1               0.0000000000
     35664      1153  ECLIPA    H53R          -41.2299882046      -29.0779733809       11.9799977313  LPSA33    1               0.0000000000
     35665      1153  ECLIPA    O53           -41.4009534508      -30.9194443742       10.8787595969  LPSA33    1               0.0000000000
     35666      1153  ECLIPA    C61           -42.5999315883      -30.5233631724       10.4348201439  LPSA33    1               0.0000000000
     35667      1153  ECLIPA    O61           -43.2565198156      -29.6414395987       10.9342698608  LPSA33    1               0.0000000000
     35668      1153  ECLIPA    C62           -43.2092934540      -31.6449280497        9.5806399225  LPSA33    1               0.0000000000
     35669      1153  ECLIPA    H62R          -43.5699196619      -32.4818867318       10.1978633397  LPSA33    1               0.0000000000
     35670      1153  ECLIPA    H62S          -42.3619213699      -32.0426122435        8.9923408183  LPSA33    1               0.0000000000
     35671      1153  ECLIPA    C63           -44.3710387667      -31.0938261440        8.7003646853  LPSA33    1               0.0000000000
     35672      1153  ECLIPA    H63R          -44.0383887221      -30.1243200963        8.2695002954  LPSA33    1               0.0000000000
     35673      1153  ECLIPA    H63S          -45.2763912168      -30.8979411047        9.3218773673  LPSA33    1               0.0000000000
     35674      1153  ECLIPA    C64           -44.7864469320      -31.9742443470        7.5071318608  LPSA33    1               0.0000000000
     35675      1153  ECLIPA    H64R          -45.6590183098      -31.5149441721        6.9868703561  LPSA33    1               0.0000000000
     35676      1153  ECLIPA    H64S          -45.0920758244      -32.9593470837        7.9218725013  LPSA33    1               0.0000000000
     35677      1153  ECLIPA    C65           -43.6184523238      -32.1452775255        6.5327348457  LPSA33    1               0.0000000000
     35678      1153  ECLIPA    H65R          -42.8348108494      -32.6489211509        7.1398538269  LPSA33    1               0.0000000000
     35679      1153  ECLIPA    H65S          -43.2296531522      -31.1518617911        6.2192208497  LPSA33    1               0.0000000000
     35680      1153  ECLIPA    C66           -43.8371344912      -33.0024590435        5.2732609113  LPSA33    1               0.0000000000
     35681      1153  ECLIPA    H66R          -44.1662140602      -34.0221712279        5.5562864260  LPSA33    1               0.0000000000
     35682      1153  ECLIPA    H66S          -42.8283266785      -33.0725000843        4.7949879032  LPSA33    1               0.0000000000
     35683      1153  ECLIPA    C67           -44.7924316773      -32.4579708003        4.2076119441  LPSA33    1               0.0000000000
     35684      1153  ECLIPA    H67R          -45.8031051650      -32.2150796157        4.5979061533  LPSA33    1               0.0000000000
     35685      1153  ECLIPA    H67S          -44.9147058565      -33.1981235645        3.3750003618  LPSA33    1               0.0000000000
     35686      1153  ECLIPA    C68           -44.3469452400      -31.1221981146        3.6659951629  LPSA33    1               0.0000000000
     35687      1153  ECLIPA    H68R          -43.2929524377      -31.1970348694        3.3075758416  LPSA33    1               0.0000000000
     35688      1153  ECLIPA    H68S          -44.3356126196      -30.3548861731        4.4450244282  LPSA33    1               0.0000000000
     35689      1153  ECLIPA    C69           -45.3749463230      -30.6739411665        2.6380097059  LPSA33    1               0.0000000000
     35690      1153  ECLIPA    H69R          -46.3484333806      -31.1753933312        2.5036956317  LPSA33    1               0.0000000000
     35691      1153  ECLIPA    H69S          -45.0193744368      -31.2315634437        1.8620789605  LPSA33    1               0.0000000000
     35692      1153  ECLIPA    C610          -45.1654331774      -29.3175006329        2.0379073081  LPSA33    1               0.0000000000
     35693      1153  ECLIPA    H610R         -44.1178566373      -28.9610496033        2.0711060820  LPSA33    1               0.0000000000
     35694      1153  ECLIPA    H610S         -45.8206565380      -28.7079730483        2.6937946702  LPSA33    1               0.0000000000
     35695      1153  ECLIPA    C611          -45.6594917751      -29.2466667951        0.6084950235  LPSA33    1               0.0000000000
     35696      1153  ECLIPA    H611R         -46.6473696328      -29.7684136354        0.5664108864  LPSA33    1               0.0000000000
     35697      1153  ECLIPA    H611S         -45.6600616310      -28.1793383198        0.4614340726  LPSA33    1               0.0000000000
     35698      1153  ECLIPA    C612          -44.8726349198      -29.5572128433       -0.6289262560  LPSA33    1               0.0000000000
     35699      1153  ECLIPA    H612R         -43.9058117570      -29.0321144836       -0.6423248402  LPSA33    1               0.0000000000
     35700      1153  ECLIPA    H612S         -44.8396943453      -30.6041906799       -0.5677521114  LPSA33    1               0.0000000000
     35701      1153  ECLIPA    H612T         -45.3630660402      -29.5296780311       -1.6172388088  LPSA33    1               0.0000000000
     35702      1153  ECLIPA    C54           -39.2896952339      -29.6951671461       11.1663282005  LPSA33    1               0.0000000000
     35703      1153  ECLIPA    H54R          -38.8161741895      -30.6590774314       10.8806731393  LPSA33    1               0.0000000000
     35704      1153  ECLIPA    H54S          -38.6751650694      -29.2441339735       11.9746263624  LPSA33    1               0.0000000000
     35705      1153  ECLIPA    C55           -39.2596671532      -28.7341009646        9.9630655230  LPSA33    1               0.0000000000
     35706      1153  ECLIPA    H55R          -38.2292539907      -28.3415055026        9.8234272530  LPSA33    1               0.0000000000
     35707      1153  ECLIPA    H55S          -39.8889361193      -27.8491448140       10.2016199103  LPSA33    1               0.0000000000
     35708      1153  ECLIPA    C56           -39.6721769306      -29.4823364596        8.6905159876  LPSA33    1               0.0000000000
     35709      1153  ECLIPA    H56R          -40.6665494172      -29.9323437337        8.8593434208  LPSA33    1               0.0000000000
     35710      1153  ECLIPA    H56S          -38.9617407710      -30.3208182444        8.5048479340  LPSA33    1               0.0000000000
     35711      1153  ECLIPA    C57           -39.8245228896      -28.6747055237        7.4059906416  LPSA33    1               0.0000000000
     35712      1153  ECLIPA    H57R          -38.9076995175      -28.0885589804        7.1809110077  LPSA33    1               0.0000000000
     35713      1153  ECLIPA    H57S          -40.6533169067      -27.9431214890        7.5431234351  LPSA33    1               0.0000000000
     35714      1153  ECLIPA    C58           -40.1888523451      -29.6241128763        6.2475103835  LPSA33    1               0.0000000000
     35715      1153  ECLIPA    H58R          -39.5253923348      -30.5135684348        6.2178197338  LPSA33    1               0.0000000000
     35716      1153  ECLIPA    H58S          -41.2077448678      -30.0216337280        6.4622348965  LPSA33    1               0.0000000000
     35717      1153  ECLIPA    C59           -40.1201631513      -28.9183069793        4.8894037801  LPSA33    1               0.0000000000
     35718      1153  ECLIPA    H59R          -39.1059942467      -28.4864948878        4.7222857076  LPSA33    1               0.0000000000
     35719      1153  ECLIPA    H59S          -40.8373113910      -28.0706699699        4.9656412099  LPSA33    1               0.0000000000
     35720      1153  ECLIPA    C510          -40.3540917707      -29.8301377805        3.6768173082  LPSA33    1               0.0000000000
     35721      1153  ECLIPA    H510R         -41.2397694782      -30.4888851326        3.8244873543  LPSA33    1               0.0000000000
     35722      1153  ECLIPA    H510S         -39.4735739935      -30.4993536126        3.5286540443  LPSA33    1               0.0000000000
     35723      1153  ECLIPA    C511          -40.5207615914      -29.0367365390        2.3833422505  LPSA33    1               0.0000000000
     35724      1153  ECLIPA    H511R         -41.5906575711      -28.7103645790        2.3199428000  LPSA33    1               0.0000000000
     35725      1153  ECLIPA    H511S         -39.8766670008      -28.1522246949        2.2754467372  LPSA33    1               0.0000000000
     35726      1153  ECLIPA    C512          -40.2037016037      -29.8539326765        1.1793994548  LPSA33    1               0.0000000000
     35727      1153  ECLIPA    H512R         -40.2655393945      -29.3943048425        0.2267219526  LPSA33    1               0.0000000000
     35728      1153  ECLIPA    H512S         -39.3902597333      -30.6162509725        1.1752600885  LPSA33    1               0.0000000000
     35729      1153  ECLIPA    C513          -41.4901584207      -30.2701096276        0.7007098092  LPSA33    1               0.0000000000
     35730      1153  ECLIPA    H513R         -42.3824003395      -29.6464474953        0.7346143850  LPSA33    1               0.0000000000
     35731      1153  ECLIPA    H513S         -41.5821411018      -30.9423277657        1.6019961436  LPSA33    1               0.0000000000
     35732      1153  ECLIPA    C514          -41.3422041144      -30.7969291205       -0.7326517990  LPSA33    1               0.0000000000
     35733      1153  ECLIPA    H514R         -40.4620435060      -31.3869803724       -0.4593819032  LPSA33    1               0.0000000000
     35734      1153  ECLIPA    H514S         -42.2008533673      -31.3624817117       -1.0872342575  LPSA33    1               0.0000000000
     35735      1153  ECLIPA    H514T         -41.1767517810      -30.3708491966       -1.7024281587  LPSA33    1               0.0000000000
     35736      1153  ECLIPA    C33           -45.1937513582      -32.1299439058       14.1780271626  LPSA33    1               0.0000000000
     35737      1153  ECLIPA    H33R          -45.5195051744      -33.0663077197       14.6986412934  LPSA33    1               0.0000000000
     35738      1153  ECLIPA    O33           -44.2544609578      -31.6700239763       15.2495391277  LPSA33    1               0.0000000000
     35739      1153  ECLIPA    HO33          -44.3969867433      -31.7455419456       16.2471317848  LPSA33    1               0.0000000000
     35740      1153  ECLIPA    C34           -44.2793121725      -32.6117140392       12.6218183881  LPSA33    1               0.0000000000
     35741      1153  ECLIPA    H34R          -43.6517539147      -31.6950915668       12.5021196507  LPSA33    1               0.0000000000
     35742      1153  ECLIPA    H34S          -45.0335669544      -32.9716441169       11.9583695349  LPSA33    1               0.0000000000
     35743      1153  ECLIPA    C35           -43.0872097071      -34.0162988349       12.5068908557  LPSA33    1               0.0000000000
     35744      1153  ECLIPA    H35R          -43.3816582996      -34.9173526468       13.1294047571  LPSA33    1               0.0000000000
     35745      1153  ECLIPA    H35S          -42.1626140402      -33.7811482780       13.2705344035  LPSA33    1               0.0000000000
     35746      1153  ECLIPA    C36           -41.9542524031      -34.1465785201       11.7524285582  LPSA33    1               0.0000000000
     35747      1153  ECLIPA    H36R          -41.9957471959      -33.0780004521       11.4575740742  LPSA33    1               0.0000000000
     35748      1153  ECLIPA    H36S          -42.4972315832      -34.9574144421       11.1981844481  LPSA33    1               0.0000000000
     35749      1153  ECLIPA    C37           -40.5943271887      -34.5374973322       12.4157506218  LPSA33    1               0.0000000000
     35750      1153  ECLIPA    H37R          -40.6096429761      -35.6077984016       12.6492777978  LPSA33    1               0.0000000000
     35751      1153  ECLIPA    H37S          -40.2679317137      -34.0794684944       13.3893214110  LPSA33    1               0.0000000000
     35752      1153  ECLIPA    C38           -39.5982433961      -34.1371074071       11.3844710125  LPSA33    1               0.0000000000
     35753      1153  ECLIPA    H38R          -39.4141289129      -33.0393839232       11.4101504222  LPSA33    1               0.0000000000
     35754      1153  ECLIPA    H38S          -38.6642362273      -34.6619997362       11.6589086420  LPSA33    1               0.0000000000
     35755      1153  ECLIPA    C39           -40.1365348918      -34.5092170313        9.9974384988  LPSA33    1               0.0000000000
     35756      1153  ECLIPA    H39R          -41.1005584271      -34.0212287612        9.7178645600  LPSA33    1               0.0000000000
     35757      1153  ECLIPA    H39S          -40.2606616948      -35.6173164246        9.9695037899  LPSA33    1               0.0000000000
     35758      1153  ECLIPA    C310          -39.2251841232      -34.1085599356        8.8561870256  LPSA33    1               0.0000000000
     35759      1153  ECLIPA    H310R         -38.3388823587      -34.7696348251        8.9604188467  LPSA33    1               0.0000000000
     35760      1153  ECLIPA    H310S         -38.9078018424      -33.0489994156        8.9549059896  LPSA33    1               0.0000000000
     35761      1153  ECLIPA    C311          -39.9616583933      -34.1949874773        7.5094706665  LPSA33    1               0.0000000000
     35762      1153  ECLIPA    H311R         -40.6841635429      -35.0421223701        7.5269481489  LPSA33    1               0.0000000000
     35763      1153  ECLIPA    H311S         -40.5543357597      -33.2606260008        7.3649147482  LPSA33    1               0.0000000000
     35764      1153  ECLIPA    C312          -39.0317085396      -34.3016890050        6.2991258479  LPSA33    1               0.0000000000
     35765      1153  ECLIPA    H312R         -38.1068970287      -33.7136358134        6.4877160182  LPSA33    1               0.0000000000
     35766      1153  ECLIPA    H312S         -38.7514824901      -35.3713790753        6.1790396299  LPSA33    1               0.0000000000
     35767      1153  ECLIPA    C313          -39.7001206891      -33.8100174251        5.0042238746  LPSA33    1               0.0000000000
     35768      1153  ECLIPA    H313R         -40.4629986321      -34.5784972342        4.7481259683  LPSA33    1               0.0000000000
     35769      1153  ECLIPA    H313S         -40.2339570528      -32.8454500927        5.1753896445  LPSA33    1               0.0000000000
     35770      1153  ECLIPA    C314          -38.7446354885      -33.6447917024        3.8189567526  LPSA33    1               0.0000000000
     35771      1153  ECLIPA    H314R         -38.2537112000      -34.6153425727        3.5976504715  LPSA33    1               0.0000000000
     35772      1153  ECLIPA    H314S         -39.2861000706      -33.3112883269        2.9056609732  LPSA33    1               0.0000000000
     35773      1153  ECLIPA    H314T         -37.9589461317      -32.8918191076        4.0456520638  LPSA33    1               0.0000000000
     35774      1153  ECLIPA    C11           -43.6468827212      -26.5615945627       11.2382996925  LPSA33    1               0.0000000000
     35775      1153  ECLIPA    O11           -42.4429321955      -26.6465078151       11.0815123996  LPSA33    1               0.0000000000
     35776      1153  ECLIPA    C12           -44.4634243679      -25.6830965382       10.3237779746  LPSA33    1               0.0000000000
     35777      1153  ECLIPA    H12R          -44.2301743868      -24.6294635469       10.5650798057  LPSA33    1               0.0000000000
     35778      1153  ECLIPA    H12S          -45.5291751690      -25.9210008632       10.5173148304  LPSA33    1               0.0000000000
     35779      1153  ECLIPA    C13           -44.1791946104      -25.9468844769        8.8541771206  LPSA33    1               0.0000000000
     35780      1153  ECLIPA    H13R          -43.0855224899      -26.0752289948        8.6373191543  LPSA33    1               0.0000000000
     35781      1153  ECLIPA    O13           -44.6680525238      -24.7937141050        8.1576255344  LPSA33    1               0.0000000000
     35782      1153  ECLIPA    HO13          -44.2035047947      -24.7013188188        7.3037438934  LPSA33    1               0.0000000000
     35783      1153  ECLIPA    C14           -44.9113056993      -27.2398924581        8.4410074858  LPSA33    1               0.0000000000
     35784      1153  ECLIPA    H14R          -45.8918367839      -27.3262000538        8.9585400666  LPSA33    1               0.0000000000
     35785      1153  ECLIPA    H14S          -44.2704451581      -28.0912783579        8.7721262625  LPSA33    1               0.0000000000
     35786      1153  ECLIPA    C15           -45.1499858547      -27.4301370294        6.9495471858  LPSA33    1               0.0000000000
     35787      1153  ECLIPA    H15R          -45.7065406433      -26.5531443119        6.5596206925  LPSA33    1               0.0000000000
     35788      1153  ECLIPA    H15S          -45.8143061224      -28.3168256075        6.8268785168  LPSA33    1               0.0000000000
     35789      1153  ECLIPA    C16           -43.8374860893      -27.6371264993        6.1808939243  LPSA33    1               0.0000000000
     35790      1153  ECLIPA    H16R          -43.4957822054      -28.6882272185        6.2770363127  LPSA33    1               0.0000000000
     35791      1153  ECLIPA    H16S          -43.0421322876      -27.0197423966        6.6473698250  LPSA33    1               0.0000000000
     35792      1153  ECLIPA    C17           -44.0114732195      -27.2920581130        4.7019456221  LPSA33    1               0.0000000000
     35793      1153  ECLIPA    H17R          -44.9752219158      -27.7504740999        4.3879963438  LPSA33    1               0.0000000000
     35794      1153  ECLIPA    H17S          -43.2103921431      -27.7225174373        4.0643636719  LPSA33    1               0.0000000000
     35795      1153  ECLIPA    C18           -44.0685440776      -25.7820799386        4.4763190284  LPSA33    1               0.0000000000
     35796      1153  ECLIPA    H18R          -44.8963459395      -25.3880829541        5.0942679065  LPSA33    1               0.0000000000
     35797      1153  ECLIPA    H18S          -43.1085731285      -25.3134618202        4.7938718648  LPSA33    1               0.0000000000
     35798      1153  ECLIPA    C19           -44.3306443973      -25.4131699261        3.0318825893  LPSA33    1               0.0000000000
     35799      1153  ECLIPA    H19R          -44.5333993166      -24.3226340538        2.9353279163  LPSA33    1               0.0000000000
     35800      1153  ECLIPA    H19S          -45.2345977850      -25.9564327196        2.6553952783  LPSA33    1               0.0000000000
     35801      1153  ECLIPA    C110          -43.1198665744      -25.7719704165        2.1770820176  LPSA33    1               0.0000000000
     35802      1153  ECLIPA    H110R         -42.1646530499      -25.3294103385        2.5083217772  LPSA33    1               0.0000000000
     35803      1153  ECLIPA    H110S         -43.0587885208      -26.8807347727        2.1324390847  LPSA33    1               0.0000000000
     35804      1153  ECLIPA    C111          -43.3578776301      -25.2703582914        0.7977400501  LPSA33    1               0.0000000000
     35805      1153  ECLIPA    H111R         -44.3972504862      -25.6204079284        0.7516419174  LPSA33    1               0.0000000000
     35806      1153  ECLIPA    H111S         -43.3935820142      -24.1621165519        0.7993958513  LPSA33    1               0.0000000000
     35807      1153  ECLIPA    C112          -42.3886925402      -25.8664909928       -0.2744392858  LPSA33    1               0.0000000000
     35808      1153  ECLIPA    H112R         -41.5255278979      -25.3318764989        0.0440976425  LPSA33    1               0.0000000000
     35809      1153  ECLIPA    H112S         -42.2046303637      -26.9336411387       -0.1641487576  LPSA33    1               0.0000000000
     35810      1153  ECLIPA    C113          -42.6845646819      -25.6337199336       -1.7748382543  LPSA33    1               0.0000000000
     35811      1153  ECLIPA    H113R         -43.4698314482      -26.3282212077       -2.1230514615  LPSA33    1               0.0000000000
     35812      1153  ECLIPA    H113S         -43.0568353360      -24.6264279810       -1.7675815302  LPSA33    1               0.0000000000
     35813      1153  ECLIPA    C114          -41.9674555281      -25.9172087370       -3.0090406743  LPSA33    1               0.0000000000
     35814      1153  ECLIPA    H114R         -40.9708385044      -25.7303526966       -2.8290860844  LPSA33    1               0.0000000000
     35815      1153  ECLIPA    H114S         -41.6050642615      -26.9145790459       -3.1580948921  LPSA33    1               0.0000000000
     35816      1153  ECLIPA    H114T         -42.2400726934      -25.2029746124       -3.8362545100  LPSA33    1               0.0000000000
     35817      1154  AKDO      C1            -39.5841618899      -31.1284744272       22.4049409132  LPSA33    2               0.0000000000
     35818      1154  AKDO      O11           -38.4992055525      -31.7556916246       22.3537831319  LPSA33    2               0.0000000000
     35819      1154  AKDO      O12           -40.7115219142      -31.5182633485       21.9808450796  LPSA33    2               0.0000000000
     35820      1154  AKDO      C2            -39.5690287977      -29.6678548703       22.9079674408  LPSA33    2               0.0000000000
     35821      1154  AKDO      C6            -38.4142855547      -27.8761281146       23.8844280921  LPSA33    2               0.0000000000
     35822      1154  AKDO      H6            -38.7222002859      -27.3090995619       22.9676872853  LPSA33    2               0.0000000000
     35823      1154  AKDO      O6            -38.3497000456      -29.2553466868       23.5149547858  LPSA33    2               0.0000000000
     35824      1154  AKDO      C3            -40.6581714043      -29.3701036017       23.9139486335  LPSA33    2               0.0000000000
     35825      1154  AKDO      H31           -40.3152201678      -29.9112112450       24.8152241713  LPSA33    2               0.0000000000
     35826      1154  AKDO      H32           -41.6193368653      -29.7336417488       23.5138229050  LPSA33    2               0.0000000000
     35827      1154  AKDO      C4            -40.7682639370      -27.9776981824       24.3463890669  LPSA33    2               0.0000000000
     35828      1154  AKDO      H4            -40.9692095701      -27.3319798425       23.4719212898  LPSA33    2               0.0000000000
     35829      1154  AKDO      O4            -41.7233597797      -27.8342913944       25.3932041699  LPSA33    2               0.0000000000
     35830      1154  AKDO      C5            -39.4724150055      -27.6024010498       24.9563321135  LPSA33    2               0.0000000000
     35831      1154  AKDO      H5            -39.5146679849      -26.4995152355       25.0996571480  LPSA33    2               0.0000000000
     35832      1154  AKDO      O5            -39.3403684423      -28.2856621015       26.2332268748  LPSA33    2               0.0000000000
     35833      1154  AKDO      C7            -37.0384411050      -27.3946799146       24.1789562956  LPSA33    2               0.0000000000
     35834      1154  AKDO      H7            -36.6875808342      -27.9143354194       25.0930526564  LPSA33    2               0.0000000000
     35835      1154  AKDO      O7            -37.0833753363      -25.9619780561       24.3381752159  LPSA33    2               0.0000000000
     35836      1154  AKDO      HO7           -36.8410396696      -25.6361895890       23.4714527137  LPSA33    2               0.0000000000
     35837      1154  AKDO      C8            -36.1072669546      -27.7613425407       23.0406203618  LPSA33    2               0.0000000000
     35838      1154  AKDO      H81           -36.1664947235      -28.8615794871       22.8604764335  LPSA33    2               0.0000000000
     35839      1154  AKDO      H82           -36.4430387115      -27.2580158471       22.0980381539  LPSA33    2               0.0000000000
     35840      1154  AKDO      O8            -34.7542740534      -27.4190777895       23.4035605573  LPSA33    2               0.0000000000
     35841      1154  AKDO      HO8           -34.1861830457      -28.0175630756       22.8935065233  LPSA33    2               0.0000000000
     35842      1155  AKDO      C1            -43.2511208407      -26.6173779404       23.9580167431  LPSA33    3               1.0000000000
     35843      1155  AKDO      O11           -43.9783798167      -26.9905533705       23.0225775468  LPSA33    3               1.0000000000
     35844      1155  AKDO      O12           -42.8164263365      -25.4449276250       24.0867864063  LPSA33    3               1.0000000000
     35845      1155  AKDO      C2            -43.0633389047      -27.6652468492       25.0929707800  LPSA33    3               1.0000000000
     35846      1155  AKDO      C6            -43.7730600155      -29.8695053931       25.7680453898  LPSA33    3               1.0000000000
     35847      1155  AKDO      H6            -42.7708854772      -29.8884967998       26.0786315520  LPSA33    3               1.0000000000
     35848      1155  AKDO      O6            -43.7531134169      -28.8949856228       24.7682223343  LPSA33    3               1.0000000000
     35849      1155  AKDO      C3            -43.7103151452      -27.1741556438       26.3475133610  LPSA33    3               1.0000000000
     35850      1155  AKDO      H31           -44.8116544017      -27.0332371014       26.2279557253  LPSA33    3               1.0000000000
     35851      1155  AKDO      H32           -43.2180890885      -26.2392877730       26.6919849066  LPSA33    3               1.0000000000
     35852      1155  AKDO      C4            -43.6394486595      -28.1167947961       27.3910337680  LPSA33    3               1.0000000000
     35853      1155  AKDO      H4            -42.5556860740      -28.3524535860       27.5480814295  LPSA33    3               1.0000000000
     35854      1155  AKDO      O4            -44.1922926460      -27.5200655231       28.5048387242  LPSA33    3               1.0000000000
     35855      1155  AKDO      HO4           -43.4986123902      -27.5697532257       29.1742574707  LPSA33    3               1.0000000000
     35856      1155  AKDO      C5            -44.3978448230      -29.3108443188       26.9846338215  LPSA33    3               1.0000000000
     35857      1155  AKDO      H5            -44.1818461420      -29.9546275760       27.8085691800  LPSA33    3               1.0000000000
     35858      1155  AKDO      O5            -45.7988050339      -29.1444226294       26.8118016183  LPSA33    3               1.0000000000
     35859      1155  AKDO      HO5           -45.8629054486      -28.3827944779       26.2421864360  LPSA33    3               1.0000000000
     35860      1155  AKDO      C7            -44.3413728348      -31.2166355433       25.3028297955  LPSA33    3               1.0000000000
     35861      1155  AKDO      H7            -45.4296338683      -31.0049380313       25.1700088052  LPSA33    3               1.0000000000
     35862      1155  AKDO      O7            -44.0566427536      -32.1792419283       26.3002995509  LPSA33    3               1.0000000000
     35863      1155  AKDO      HO7           -44.7235893389      -32.8707382471       26.0710967948  LPSA33    3               1.0000000000
     35864      1155  AKDO      C8            -43.9181848967      -31.8885950191       23.9883161939  LPSA33    3               1.0000000000
     35865      1155  AKDO      H81           -43.9591898672      -31.1466456454       23.2822153251  LPSA33    3               1.0000000000
     35866      1155  AKDO      H82           -42.9380594515      -32.2276148790       23.6519838660  LPSA33    3               1.0000000000
     35867      1155  AKDO      O8            -44.6928603456      -32.9613495624       23.5864974366  LPSA33    3               1.0000000000
     35868      1155  AKDO      HO8           -45.2764728919      -32.4263451761       23.0636527417  LPSA33    3               1.0000000000
     35869      1156  AHEP      C1            -38.6024868599      -27.6147221092       27.2279405995  LPSA33    4               2.0000000000
     35870      1156  AHEP      H1            -37.5581815530      -27.7164011443       26.8973589374  LPSA33    4               2.0000000000
     35871      1156  AHEP      C5            -40.0323891603      -25.8615222192       27.9342830550  LPSA33    4               2.0000000000
     35872      1156  AHEP      H5            -40.8919422824      -26.4178632351       27.4907184090  LPSA33    4               2.0000000000
     35873      1156  AHEP      O5            -38.8265113457      -26.2151843500       27.2613418412  LPSA33    4               2.0000000000
     35874      1156  AHEP      C2            -38.5670723902      -28.1425403243       28.6620059690  LPSA33    4               2.0000000000
     35875      1156  AHEP      H2            -38.4476064124      -29.2437581900       28.6555427221  LPSA33    4               2.0000000000
     35876      1156  AHEP      O2            -37.4255597183      -27.6099929704       29.3565187101  LPSA33    4               2.0000000000
     35877      1156  AHEP      HO2           -37.0216135573      -28.3043932757       29.8750251958  LPSA33    4               2.0000000000
     35878      1156  AHEP      C3            -39.7974607307      -27.8327487247       29.4272814781  LPSA33    4               2.0000000000
     35879      1156  AHEP      H3            -40.7150592982      -28.3395369875       29.0617897860  LPSA33    4               2.0000000000
     35880      1156  AHEP      O3            -39.5287370948      -28.2981840017       30.7352520765  LPSA33    4               2.0000000000
     35881      1156  AHEP      C4            -39.9249365283      -26.3344906077       29.3700395758  LPSA33    4               2.0000000000
     35882      1156  AHEP      H4            -39.0792952512      -25.7943164366       29.8687540006  LPSA33    4               2.0000000000
     35883      1156  AHEP      O4            -41.1429747998      -26.0596752859       29.9621560804  LPSA33    4               2.0000000000
     35884      1156  AHEP      P4            -41.2022094304      -25.2200268937       31.3281652838  LPSA33    4               2.0000000000
     35885      1156  AHEP      OP42          -42.4489059216      -25.6373750672       32.0678669666  LPSA33    4               2.0000000000
     35886      1156  AHEP      OP43          -41.3956479792      -23.8176357168       30.8377143651  LPSA33    4               2.0000000000
     35887      1156  AHEP      OP44          -39.9400678741      -25.5836093548       32.0871477992  LPSA33    4               2.0000000000
     35888      1156  AHEP      C6            -40.2096023538      -24.3593536716       27.6973296277  LPSA33    4               2.0000000000
     35889      1156  AHEP      H6            -41.2144794570      -24.0643607039       27.8008598361  LPSA33    4               2.0000000000
     35890      1156  AHEP      O6            -39.5524010754      -23.5313248139       28.6292000126  LPSA33    4               2.0000000000
     35891      1156  AHEP      HO6           -40.1300055343      -23.0220088499       29.2418106947  LPSA33    4               2.0000000000
     35892      1156  AHEP      C7            -40.1357744679      -23.8298426736       26.2721993046  LPSA33    4               2.0000000000
     35893      1156  AHEP      H71           -40.6246661714      -22.8315300227       26.2476875299  LPSA33    4               2.0000000000
     35894      1156  AHEP      H72           -40.6905014830      -24.5622990778       25.6466439298  LPSA33    4               2.0000000000
     35895      1156  AHEP      O7            -38.8923257665      -23.5706599722       25.6692560004  LPSA33    4               2.0000000000
     35896      1156  AHEP      HO7           -38.3851481971      -23.1153216358       26.4116211266  LPSA33    4               2.0000000000
     35897      1157  AHEP      C1            -40.3547775601      -29.2660031933       31.3292695273  LPSA33    5               3.0000000000
     35898      1157  AHEP      H1            -41.3818150169      -29.1592901497       31.0019228462  LPSA33    5               3.0000000000
     35899      1157  AHEP      C5            -38.6612943316      -30.6903686075       31.9427482808  LPSA33    5               3.0000000000
     35900      1157  AHEP      H5            -38.0286336092      -29.8368700188       31.5963137436  LPSA33    5               3.0000000000
     35901      1157  AHEP      O5            -39.8816450192      -30.5609658747       31.2060816469  LPSA33    5               3.0000000000
     35902      1157  AHEP      C2            -40.4368734895      -29.0920754568       32.7694114020  LPSA33    5               3.0000000000
     35903      1157  AHEP      H2            -40.3446586837      -27.9855724583       32.5692861231  LPSA33    5               3.0000000000
     35904      1157  AHEP      O2            -41.6391172206      -29.8180212573       33.1865934650  LPSA33    5               3.0000000000
     35905      1157  AHEP      HO2           -42.2808640596      -29.2184038920       33.6325892663  LPSA33    5               3.0000000000
     35906      1157  AHEP      C3            -39.2684660960      -29.1102285900       33.6990924598  LPSA33    5               3.0000000000
     35907      1157  AHEP      H3            -38.5579730422      -28.3349252422       33.3224396175  LPSA33    5               3.0000000000
     35908      1157  AHEP      O3            -39.4763211247      -28.8350835604       35.1278286210  LPSA33    5               3.0000000000
     35909      1157  AHEP      C4            -38.8501119672      -30.4807793704       33.4496605001  LPSA33    5               3.0000000000
     35910      1157  AHEP      H4            -39.6187876685      -31.1925478264       33.8488432132  LPSA33    5               3.0000000000
     35911      1157  AHEP      O4            -37.5778797091      -30.5961529398       34.0593351700  LPSA33    5               3.0000000000
     35912      1157  AHEP      P4            -37.3694774448      -31.6698214017       35.3021449630  LPSA33    5               3.0000000000
     35913      1157  AHEP      OP42          -35.9532317947      -31.2853931420       35.7667595262  LPSA33    5               3.0000000000
     35914      1157  AHEP      OP43          -37.4266607629      -33.0959927757       34.7207491981  LPSA33    5               3.0000000000
     35915      1157  AHEP      OP44          -38.5000236751      -31.3883624368       36.3029684951  LPSA33    5               3.0000000000
     35916      1157  AHEP      C6            -38.0451432500      -31.9829472507       31.5555358647  LPSA33    5               3.0000000000
     35917      1157  AHEP      H6            -37.0572860269      -32.0193546987       32.0425568145  LPSA33    5               3.0000000000
     35918      1157  AHEP      O6            -38.7808667392      -33.1131376815       32.0204421521  LPSA33    5               3.0000000000
     35919      1157  AHEP      HO6           -39.5945497560      -33.2288423606       31.5485427215  LPSA33    5               3.0000000000
     35920      1157  AHEP      C7            -37.8388174237      -32.0448596009       30.0698608550  LPSA33    5               3.0000000000
     35921      1157  AHEP      H71           -36.8901889248      -32.5861076003       29.9123823996  LPSA33    5               3.0000000000
     35922      1157  AHEP      H72           -37.7000575987      -31.0401347193       29.6125254381  LPSA33    5               3.0000000000
     35923      1157  AHEP      O7            -38.8337561490      -32.8428907394       29.4439654007  LPSA33    5               3.0000000000
     35924      1158  AHEP      C1            -39.7816365617      -32.0559075270       28.8182405082  LPSA33    6               4.0000000000
     35925      1158  AHEP      H1            -39.6838805963      -30.9687877779       29.0493606899  LPSA33    6               4.0000000000
     35926      1158  AHEP      C5            -39.7925145759      -33.5697660732       27.0173144690  LPSA33    6               4.0000000000
     35927      1158  AHEP      H5            -39.0248963337      -34.1602174289       27.5579444234  LPSA33    6               4.0000000000
     35928      1158  AHEP      O5            -39.6777219577      -32.2150358197       27.4056161303  LPSA33    6               4.0000000000
     35929      1158  AHEP      C2            -41.1315711815      -32.5481326791       29.3302612929  LPSA33    6               4.0000000000
     35930      1158  AHEP      H2            -41.2201969892      -32.2875358190       30.3927242513  LPSA33    6               4.0000000000
     35931      1158  AHEP      O2            -42.2767934001      -31.9800397774       28.7750343586  LPSA33    6               4.0000000000
     35932      1158  AHEP      HO2           -42.4146394561      -31.1675776575       29.2282061845  LPSA33    6               4.0000000000
     35933      1158  AHEP      C3            -41.3080403352      -33.9757619734       29.0657928660  LPSA33    6               4.0000000000
     35934      1158  AHEP      H3            -40.5272345506      -34.6059464502       29.5268880285  LPSA33    6               4.0000000000
     35935      1158  AHEP      O3            -42.6020566822      -34.4285044956       29.5473232919  LPSA33    6               4.0000000000
     35936      1158  AHEP      HO3           -42.5333703976      -35.2513595473       30.0418462795  LPSA33    6               4.0000000000
     35937      1158  AHEP      C4            -41.1543050214      -34.1013529298       27.6075204971  LPSA33    6               4.0000000000
     35938      1158  AHEP      H4            -42.0514263078      -33.5412508794       27.2254542855  LPSA33    6               4.0000000000
     35939      1158  AHEP      O4            -41.2763341813      -35.5039808396       27.4595616317  LPSA33    6               4.0000000000
     35940      1158  AHEP      HO4           -40.5008355404      -35.9255244154       27.0821377826  LPSA33    6               4.0000000000
     35941      1158  AHEP      C6            -39.3126753284      -33.6968864817       25.4703803636  LPSA33    6               4.0000000000
     35942      1158  AHEP      H6            -39.3455309166      -34.7907937645       25.3329912301  LPSA33    6               4.0000000000
     35943      1158  AHEP      O6            -40.0025363773      -33.2778103894       24.2789706103  LPSA33    6               4.0000000000
     35944      1158  AHEP      HO6           -39.9126247106      -32.3472625643       23.9809624398  LPSA33    6               4.0000000000
     35945      1158  AHEP      C7            -37.9145265211      -33.2847608049       25.1905356125  LPSA33    6               4.0000000000
     35946      1158  AHEP      H71           -37.6715842346      -33.6103764050       24.1373181261  LPSA33    6               4.0000000000
     35947      1158  AHEP      H72           -37.2927198148      -33.8089881203       25.9171137341  LPSA33    6               4.0000000000
     35948      1158  AHEP      O7            -37.6904435402      -31.8796624659       25.3054673716  LPSA33    6               4.0000000000
     35949      1158  AHEP      HO7           -37.6918886704      -31.6667475657       26.2352962298  LPSA33    6               4.0000000000
     35950      1159  AGLC      C1            -39.1844100912      -27.5259359447       35.6376234528  LPSA33    7               4.0000000000
     35951      1159  AGLC      H1            -38.3150183488      -27.0823551138       35.1230088838  LPSA33    7               4.0000000000
     35952      1159  AGLC      C5            -41.5455423905      -27.0130185677       36.1042508891  LPSA33    7               4.0000000000
     35953      1159  AGLC      H5            -41.6937435655      -28.1076871176       35.8425558997  LPSA33    7               4.0000000000
     35954      1159  AGLC      O5            -40.3079393083      -26.6534192909       35.4646963576  LPSA33    7               4.0000000000
     35955      1159  AGLC      C2            -38.9092834706      -27.4424332346       37.1401899011  LPSA33    7               4.0000000000
     35956      1159  AGLC      H2            -38.8807155046      -26.3558577708       37.4132403084  LPSA33    7               4.0000000000
     35957      1159  AGLC      O2            -37.6777112620      -28.0233000507       37.5467418945  LPSA33    7               4.0000000000
     35958      1159  AGLC      HO2           -37.7724358731      -28.9979247362       37.5553984146  LPSA33    7               4.0000000000
     35959      1159  AGLC      C3            -40.0561214620      -27.9756699422       37.9024277285  LPSA33    7               4.0000000000
     35960      1159  AGLC      H3            -40.1316544723      -28.9559460108       37.3855652588  LPSA33    7               4.0000000000
     35961      1159  AGLC      O3            -39.8044408015      -28.1912177333       39.3487749555  LPSA33    7               4.0000000000
     35962      1159  AGLC      C4            -41.2626248337      -27.0213145204       37.5296873534  LPSA33    7               4.0000000000
     35963      1159  AGLC      H4            -41.0369616348      -26.1144534701       38.1158271467  LPSA33    7               4.0000000000
     35964      1159  AGLC      O4            -42.6395671579      -27.2690373513       37.7426402084  LPSA33    7               4.0000000000
     35965      1159  AGLC      HO4           -42.8905032342      -26.8968682441       38.6083646227  LPSA33    7               4.0000000000
     35966      1159  AGLC      C6            -42.9585133207      -26.1950276876       35.5811306168  LPSA33    7               4.0000000000
     35967      1159  AGLC      H61           -43.0834675231      -26.0526249033       34.5270821482  LPSA33    7               4.0000000000
     35968      1159  AGLC      H62           -43.8337398191      -26.7465346888       35.8771946094  LPSA33    7               4.0000000000
     35969      1159  AGLC      O6            -43.3198147687      -24.8260375688       35.5436449528  LPSA33    7               4.0000000000
     35970      1159  AGLC      HO6           -43.2581284207      -24.5581170582       36.4413467015  LPSA33    7               4.0000000000
     35971      1160  AGLC      C1            -39.6729193560      -29.4858676550       40.0266577292  LPSA33    8               5.0000000000
     35972      1160  AGLC      H1            -40.3008266640      -30.3521525803       39.7697503425  LPSA33    8               5.0000000000
     35973      1160  AGLC      C5            -37.4380185483      -29.8094064848       40.2390155624  LPSA33    8               5.0000000000
     35974      1160  AGLC      H5            -37.3540928660      -28.8120754439       39.8172814456  LPSA33    8               5.0000000000
     35975      1160  AGLC      O5            -38.6033218415      -30.2747834251       39.6435585821  LPSA33    8               5.0000000000
     35976      1160  AGLC      C2            -39.9504575815      -29.4535289853       41.5112420941  LPSA33    8               5.0000000000
     35977      1160  AGLC      H2            -40.1673444958      -30.5042867837       41.8112552246  LPSA33    8               5.0000000000
     35978      1160  AGLC      O2            -40.9738223388      -28.5976547387       42.0003954065  LPSA33    8               5.0000000000
     35979      1160  AGLC      C3            -38.7901021481      -28.9089606292       42.1651012017  LPSA33    8               5.0000000000
     35980      1160  AGLC      H3            -38.6752600128      -27.8697126972       41.7478891439  LPSA33    8               5.0000000000
     35981      1160  AGLC      O3            -39.1479775905      -28.8174633118       43.5578235154  LPSA33    8               5.0000000000
     35982      1160  AGLC      C4            -37.6628190523      -29.8086994120       41.7520511176  LPSA33    8               5.0000000000
     35983      1160  AGLC      H4            -37.9369032556      -30.8513435668       42.0509352982  LPSA33    8               5.0000000000
     35984      1160  AGLC      O4            -36.4995263347      -29.4099750816       42.4253642668  LPSA33    8               5.0000000000
     35985      1160  AGLC      HO4           -36.4513404386      -28.4510572088       42.3522043941  LPSA33    8               5.0000000000
     35986      1160  AGLC      C6            -36.2506478972      -30.5975978924       39.7430571513  LPSA33    8               5.0000000000
     35987      1160  AGLC      H61           -36.2496476490      -30.6875102286       38.6281858500  LPSA33    8               5.0000000000
     35988      1160  AGLC      H62           -35.3225989979      -30.0451717321       40.0194591048  LPSA33    8               5.0000000000
     35989      1160  AGLC      O6            -36.2139420154      -31.8925538404       40.3442160665  LPSA33    8               5.0000000000
     35990      1160  AGLC      HO6           -35.7662576634      -31.7690961629       41.1809641353  LPSA33    8               5.0000000000
     35991      1161  AGAL      C1            -42.2558549963      -28.9579249233       41.7730626100  LPSA33    9               6.0000000000
     35992      1161  AGAL      H1            -42.2979818196      -29.1594978501       40.7485379709  LPSA33    9               6.0000000000
     35993      1161  AGAL      C5            -43.0312105980      -30.3885793318       43.3259328071  LPSA33    9               6.0000000000
     35994      1161  AGAL      H5            -42.1045347881      -30.0796834764       43.8483410902  LPSA33    9               6.0000000000
     35995      1161  AGAL      O5            -42.6000593466      -30.3191013400       41.9921999885  LPSA33    9               6.0000000000
     35996      1161  AGAL      C2            -43.3674296015      -27.7617067937       42.0624331788  LPSA33    9               6.0000000000
     35997      1161  AGAL      H2            -44.3757187479      -27.7920608695       41.6995974208  LPSA33    9               6.0000000000
     35998      1161  AGAL      O2            -43.6795708406      -26.4830225034       41.5191355140  LPSA33    9               6.0000000000
     35999      1161  AGAL      C3            -43.7252225621      -27.9462824937       43.3165558767  LPSA33    9               6.0000000000
     36000      1161  AGAL      H3            -42.7343916636      -28.2261656606       43.6715626693  LPSA33    9               6.0000000000
     36001      1161  AGAL      O3            -44.2465392459      -26.6829789030       43.7796067167  LPSA33    9               6.0000000000
     36002      1161  AGAL      HO3           -44.4217717114      -26.0568284710       43.0315497142  LPSA33    9               6.0000000000
     36003      1161  AGAL      C4            -44.2828738731      -29.3559122932       43.5859187870  LPSA33    9               6.0000000000
     36004      1161  AGAL      H4            -44.6340129466      -29.2137052727       44.5995003450  LPSA33    9               6.0000000000
     36005      1161  AGAL      O4            -45.5580031473      -29.6885925160       43.0014963144  LPSA33    9               6.0000000000
     36006      1161  AGAL      HO4           -46.0006151327      -30.2159983583       43.6947136057  LPSA33    9               6.0000000000
     36007      1161  AGAL      C6            -43.1426168102      -31.8235400254       43.6662206886  LPSA33    9               6.0000000000
     36008      1161  AGAL      H61           -42.2350484503      -32.3526986069       43.3866173785  LPSA33    9               6.0000000000
     36009      1161  AGAL      H62           -43.2295894912      -31.9860451299       44.7820957710  LPSA33    9               6.0000000000
     36010      1161  AGAL      O6            -44.2222298710      -32.3082670889       42.8799971361  LPSA33    9               6.0000000000
     36011      1161  AGAL      HO6           -44.0766928874      -33.2405085412       42.5739226335  LPSA33    9               6.0000000000
     36012      1162  AGAL      C1            -43.0722523602      -25.3020130297       41.8380219229  LPSA33    10              7.0000000000
     36013      1162  AGAL      H1            -44.0766030056      -24.7938926487       41.9054992800  LPSA33    10              7.0000000000
     36014      1162  AGAL      C5            -40.9747642479      -25.4794982334       43.0593311974  LPSA33    10              7.0000000000
     36015      1162  AGAL      H5            -40.9333303091      -26.5130872090       42.6592276299  LPSA33    10              7.0000000000
     36016      1162  AGAL      O5            -42.3719927770      -25.1130378911       43.0913288105  LPSA33    10              7.0000000000
     36017      1162  AGAL      C2            -42.3444142419      -24.5239479332       40.8209848276  LPSA33    10              7.0000000000
     36018      1162  AGAL      H2            -42.4707893314      -23.5063624139       41.1783393847  LPSA33    10              7.0000000000
     36019      1162  AGAL      O2            -42.9899316730      -24.7590983752       39.5755474810  LPSA33    10              7.0000000000
     36020      1162  AGAL      HO2           -43.2976140263      -24.0240402179       39.0332626348  LPSA33    10              7.0000000000
     36021      1162  AGAL      C3            -40.8678743123      -24.8131978874       40.7063202007  LPSA33    10              7.0000000000
     36022      1162  AGAL      H3            -40.5533720508      -25.8338933319       40.4672906080  LPSA33    10              7.0000000000
     36023      1162  AGAL      O3            -40.3124678239      -23.9948533120       39.6908730169  LPSA33    10              7.0000000000
     36024      1162  AGAL      HO3           -39.9292841281      -24.6332970435       39.0537969150  LPSA33    10              7.0000000000
     36025      1162  AGAL      C4            -40.2830998353      -24.5657690618       42.0537694464  LPSA33    10              7.0000000000
     36026      1162  AGAL      H4            -39.2084355353      -24.8674369255       42.0708617503  LPSA33    10              7.0000000000
     36027      1162  AGAL      O4            -40.4365797457      -23.1765985704       42.3526898384  LPSA33    10              7.0000000000
     36028      1162  AGAL      HO4           -41.3217971848      -23.0715271128       42.7154219271  LPSA33    10              7.0000000000
     36029      1162  AGAL      C6            -40.1723242091      -25.4891291156       44.3814327464  LPSA33    10              7.0000000000
     36030      1162  AGAL      H61           -40.4122002343      -26.0944263161       45.2265228123  LPSA33    10              7.0000000000
     36031      1162  AGAL      H62           -39.2315889276      -26.0393478152       44.2080264813  LPSA33    10              7.0000000000
     36032      1162  AGAL      O6            -40.0874453115      -24.2556066558       45.0760904931  LPSA33    10              7.0000000000
     36033      1162  AGAL      HO6           -40.6313739399      -24.2980911094       45.8808909635  LPSA33    10              7.0000000000
     36034      1163  BGLC      C1            -38.7792077333      -29.7938226030       44.5102655565  LPSA33    11              6.0000000000
     36035      1163  BGLC      H1            -37.6835341655      -29.7936238371       44.6302815466  LPSA33    11              6.0000000000
     36036      1163  BGLC      C5            -38.8997534526      -32.1200872876       45.1483739388  LPSA33    11              6.0000000000
     36037      1163  BGLC      H5            -37.8336111540      -32.2173876779       45.4042745161  LPSA33    11              6.0000000000
     36038      1163  BGLC      O5            -39.2264052911      -31.1048579342       44.1431681855  LPSA33    11              6.0000000000
     36039      1163  BGLC      C2            -39.4638702978      -29.3894104877       45.7983920019  LPSA33    11              6.0000000000
     36040      1163  BGLC      H2            -40.5626742756      -29.3295492244       45.6526459491  LPSA33    11              6.0000000000
     36041      1163  BGLC      O2            -39.0332896279      -28.0873113199       46.1743496657  LPSA33    11              6.0000000000
     36042      1163  BGLC      HO2           -39.8064147149      -27.5581819422       46.3640988400  LPSA33    11              6.0000000000
     36043      1163  BGLC      C3            -39.2163616180      -30.3585735579       46.9238181844  LPSA33    11              6.0000000000
     36044      1163  BGLC      H3            -38.1380820048      -30.4280713053       47.1662268806  LPSA33    11              6.0000000000
     36045      1163  BGLC      O3            -39.9713794058      -29.8467334621       48.0742859520  LPSA33    11              6.0000000000
     36046      1163  BGLC      C4            -39.6730781697      -31.7164064490       46.3965622348  LPSA33    11              6.0000000000
     36047      1163  BGLC      H4            -40.6823848194      -31.6534629689       45.9609851175  LPSA33    11              6.0000000000
     36048      1163  BGLC      O4            -39.6469852173      -32.7297331250       47.3827458533  LPSA33    11              6.0000000000
     36049      1163  BGLC      HO4           -40.3408605050      -32.4985278873       48.0685587625  LPSA33    11              6.0000000000
     36050      1163  BGLC      C6            -39.2608631391      -33.4544920675       44.5581774343  LPSA33    11              6.0000000000
     36051      1163  BGLC      H61           -39.6167795994      -34.2418849089       45.2785897315  LPSA33    11              6.0000000000
     36052      1163  BGLC      H62           -40.0185256622      -33.0646238838       43.8735089213  LPSA33    11              6.0000000000
     36053      1163  BGLC      O6            -38.4275039283      -34.0621338530       43.5923793013  LPSA33    11              6.0000000000
     36054      1163  BGLC      HO6           -38.1229559236      -34.9161467032       43.9312726867  LPSA33    11              6.0000000000
     36055      1164  BGLCNA    C1            -39.4025809678      -29.7655874292       49.3875252700  LPSA33    12              7.0000000000
     36056      1164  BGLCNA    H1            -38.8861490572      -28.7895241636       49.4235870156  LPSA33    12              7.0000000000
     36057      1164  BGLCNA    C5            -37.8319767796      -30.6587854421       50.8762972056  LPSA33    12              7.0000000000
     36058      1164  BGLCNA    H5            -37.3524832521      -29.6590887328       50.9418705300  LPSA33    12              7.0000000000
     36059      1164  BGLCNA    O5            -38.4776297951      -30.8125887679       49.6145812152  LPSA33    12              7.0000000000
     36060      1164  BGLCNA    C2            -40.4734038662      -29.7915872469       50.5353755654  LPSA33    12              7.0000000000
     36061      1164  BGLCNA    H2            -40.8194467984      -30.7981334009       50.9215472855  LPSA33    12              7.0000000000
     36062      1164  BGLCNA    N             -41.6060392016      -28.9750307351       50.0907482375  LPSA33    12              7.0000000000
     36063      1164  BGLCNA    HN            -41.3168316064      -28.0246265940       49.9919732700  LPSA33    12              7.0000000000
     36064      1164  BGLCNA    C             -42.8731088616      -29.3182307754       49.7024342795  LPSA33    12              7.0000000000
     36065      1164  BGLCNA    O             -43.3152940814      -30.4386131162       49.5948009917  LPSA33    12              7.0000000000
     36066      1164  BGLCNA    CT            -43.8953017885      -28.2845902878       49.5137001188  LPSA33    12              7.0000000000
     36067      1164  BGLCNA    HT1           -44.5567610292      -28.1721162737       50.3963788259  LPSA33    12              7.0000000000
     36068      1164  BGLCNA    HT2           -44.5668554030      -28.6940085742       48.7288817720  LPSA33    12              7.0000000000
     36069      1164  BGLCNA    HT3           -43.3757884577      -27.3667850936       49.2012032546  LPSA33    12              7.0000000000
     36070      1164  BGLCNA    C3            -39.8850936884      -29.6179907462       51.8949023956  LPSA33    12              7.0000000000
     36071      1164  BGLCNA    H3            -39.4907163463      -28.5954548796       51.9287718109  LPSA33    12              7.0000000000
     36072      1164  BGLCNA    O3            -40.9136181271      -29.8169413704       52.8954544237  LPSA33    12              7.0000000000
     36073      1164  BGLCNA    C4            -38.8683699127      -30.7503516567       52.0040532471  LPSA33    12              7.0000000000
     36074      1164  BGLCNA    H4            -39.3379916225      -31.7642141903       51.9231938052  LPSA33    12              7.0000000000
     36075      1164  BGLCNA    O4            -38.3100681106      -30.6986005678       53.2858016238  LPSA33    12              7.0000000000
     36076      1164  BGLCNA    HO4           -37.8152495076      -29.8878329076       53.3359272503  LPSA33    12              7.0000000000
     36077      1164  BGLCNA    C6            -36.7352675449      -31.6797094690       50.8936987579  LPSA33    12              7.0000000000
     36078      1164  BGLCNA    H61           -36.2744049973      -31.6732248104       51.8816707623  LPSA33    12              7.0000000000
     36079      1164  BGLCNA    H62           -37.1125494125      -32.6774302197       50.7312907800  LPSA33    12              7.0000000000
     36080      1164  BGLCNA    O6            -35.7691938325      -31.5118476505       49.8636293859  LPSA33    12              7.0000000000
     36081      1164  BGLCNA    HO6           -35.0861076165      -30.9185473711       50.1729700486  LPSA33    12              7.0000000000
     36082      1165  AGAL      C1            -40.9769279621      -29.0275550808       54.0450454687  LPSA33    13              8.0000000000
     36083      1165  AGAL      H1            -39.9005933622      -28.8773719552       54.3375880771  LPSA33    13              8.0000000000
     36084      1165  AGAL      C5            -43.0524696964      -27.6441207464       53.4268537952  LPSA33    13              8.0000000000
     36085      1165  AGAL      H5            -43.2866760583      -28.3837471222       52.6778865908  LPSA33    13              8.0000000000
     36086      1165  AGAL      O5            -41.5693818608      -27.7248388263       53.8262368579  LPSA33    13              8.0000000000
     36087      1165  AGAL      C2            -41.8260948480      -29.5371366650       55.1362419963  LPSA33    13              8.0000000000
     36088      1165  AGAL      H2            -42.0375512975      -29.0189252059       55.9870453143  LPSA33    13              8.0000000000
     36089      1165  AGAL      O2            -41.1307427895      -30.6071718306       55.7881564543  LPSA33    13              8.0000000000
     36090      1165  AGAL      C3            -43.3098168915      -29.3899528820       54.7410877290  LPSA33    13              8.0000000000
     36091      1165  AGAL      H3            -43.6109941924      -29.9054168770       53.9408302689  LPSA33    13              8.0000000000
     36092      1165  AGAL      O3            -44.2913116821      -29.7016556049       55.5778105038  LPSA33    13              8.0000000000
     36093      1165  AGAL      HO3           -44.5555036073      -30.6371037710       55.5155636012  LPSA33    13              8.0000000000
     36094      1165  AGAL      C4            -43.8290829741      -28.0571535686       54.4695597781  LPSA33    13              8.0000000000
     36095      1165  AGAL      H4            -44.9329668044      -28.0719249444       54.1886201026  LPSA33    13              8.0000000000
     36096      1165  AGAL      O4            -43.5469541713      -26.9335227611       55.2304523989  LPSA33    13              8.0000000000
     36097      1165  AGAL      HO4           -43.0337278672      -27.0588873710       56.0398157883  LPSA33    13              8.0000000000
     36098      1165  AGAL      C6            -43.8061577958      -26.5949559148       52.5688310866  LPSA33    13              8.0000000000
     36099      1165  AGAL      H61           -43.5253586292      -26.3460381132       51.5368008912  LPSA33    13              8.0000000000
     36100      1165  AGAL      H62           -44.7753305973      -26.9709516363       52.2385464930  LPSA33    13              8.0000000000
     36101      1165  AGAL      O6            -43.7658203944      -25.3665793301       53.1692627475  LPSA33    13              8.0000000000
     36102      1165  AGAL      HO6           -44.2902936625      -25.2982629673       53.9887082254  LPSA33    13              8.0000000000
     36103      1166  ARHM      C1            -40.3956368497      -30.2572138223       56.9848025336  LPSA33    14              9.0000000000
     36104      1166  ARHM      H1            -40.1074024554      -29.1825318516       56.9831010889  LPSA33    14              9.0000000000
     36105      1166  ARHM      C5            -39.5645476085      -32.4029736061       57.1807946477  LPSA33    14              9.0000000000
     36106      1166  ARHM      H5            -40.1001140136      -32.5984453505       56.2296456456  LPSA33    14              9.0000000000
     36107      1166  ARHM      O5            -39.2247549826      -31.0164676874       57.1351709183  LPSA33    14              9.0000000000
     36108      1166  ARHM      C2            -41.2541930734      -30.5399431675       58.1833283939  LPSA33    14              9.0000000000
     36109      1166  ARHM      H2            -41.9958625120      -29.8003664660       57.8380805475  LPSA33    14              9.0000000000
     36110      1166  ARHM      O2            -40.8950210383      -30.1334257502       59.5138764503  LPSA33    14              9.0000000000
     36111      1166  ARHM      C3            -41.5851978910      -32.0639041523       58.2022657626  LPSA33    14              9.0000000000
     36112      1166  ARHM      H3            -41.8413624423      -32.4210327313       57.1648539507  LPSA33    14              9.0000000000
     36113      1166  ARHM      O3            -42.6239944872      -32.5477799961       59.0713463524  LPSA33    14              9.0000000000
     36114      1166  ARHM      HO3           -42.6512716166      -32.0916999687       59.9125663569  LPSA33    14              9.0000000000
     36115      1166  ARHM      C4            -40.4166876656      -32.8198874872       58.3384886847  LPSA33    14              9.0000000000
     36116      1166  ARHM      H4            -40.0104537954      -32.5366123965       59.3352242985  LPSA33    14              9.0000000000
     36117      1166  ARHM      O4            -40.6853609688      -34.2155043288       58.2506213759  LPSA33    14              9.0000000000
     36118      1166  ARHM      HO4           -40.7954323883      -34.4067195924       59.1626727761  LPSA33    14              9.0000000000
     36119      1166  ARHM      C6            -38.3137211691      -33.2199379742       57.2422444549  LPSA33    14              9.0000000000
     36120      1166  ARHM      H61           -37.5586677632      -32.7990567972       56.5648103065  LPSA33    14              9.0000000000
     36121      1166  ARHM      H62           -38.0108926449      -33.2095408068       58.3076988249  LPSA33    14              9.0000000000
     36122      1166  ARHM      H63           -38.5120437152      -34.2661880884       56.9422944508  LPSA33    14              9.0000000000
     36123      1167  ARHM      C1            -40.2829540756      -28.8693122000       59.6049169527  LPSA33    15             10.0000000000
     36124      1167  ARHM      H1            -40.7489345032      -28.1914411208       58.8381660913  LPSA33    15             10.0000000000
     36125      1167  ARHM      C5            -38.3084750046      -29.8732899201       60.5795854613  LPSA33    15             10.0000000000
     36126      1167  ARHM      H5            -38.5958496126      -30.9540978416       60.4425076852  LPSA33    15             10.0000000000
     36127      1167  ARHM      O5            -38.8650766937      -29.0289589080       59.5381775745  LPSA33    15             10.0000000000
     36128      1167  ARHM      C2            -40.5868981599      -28.2807480351       60.9757035046  LPSA33    15             10.0000000000
     36129      1167  ARHM      H2            -41.6714926052      -28.0487858174       60.7633742632  LPSA33    15             10.0000000000
     36130      1167  ARHM      O2            -40.1539481334      -26.9420711616       61.1897764611  LPSA33    15             10.0000000000
     36131      1167  ARHM      C3            -40.0266091294      -29.3329701336       62.1020383947  LPSA33    15             10.0000000000
     36132      1167  ARHM      H3            -40.1951871844      -30.4120246840       61.7993936761  LPSA33    15             10.0000000000
     36133      1167  ARHM      O3            -40.5886820388      -29.3283507166       63.4472034161  LPSA33    15             10.0000000000
     36134      1167  ARHM      C4            -38.5987013237      -29.4089747770       61.9827907880  LPSA33    15             10.0000000000
     36135      1167  ARHM      H4            -38.3338832056      -28.3497456819       62.1499369036  LPSA33    15             10.0000000000
     36136      1167  ARHM      O4            -37.9886877384      -30.2621750095       62.9531406545  LPSA33    15             10.0000000000
     36137      1167  ARHM      HO4           -37.0670732654      -29.9633117455       63.0186192441  LPSA33    15             10.0000000000
     36138      1167  ARHM      C6            -36.8113452889      -29.7420084462       60.4248839004  LPSA33    15             10.0000000000
     36139      1167  ARHM      H61           -36.2672934925      -30.4930907475       61.0336837962  LPSA33    15             10.0000000000
     36140      1167  ARHM      H62           -36.5692718550      -29.8378908969       59.3549814075  LPSA33    15             10.0000000000
     36141      1167  ARHM      H63           -36.4804973041      -28.7539356425       60.8078300399  LPSA33    15             10.0000000000
     36142      1168  BMANNA    C1            -40.4122079973      -26.3187007816       62.4352522775  LPSA33    16             11.0000000000
     36143      1168  BMANNA    H1            -39.9376710604      -26.8990714116       63.2505929041  LPSA33    16             11.0000000000
     36144      1168  BMANNA    C5            -42.1528033784      -25.8171631437       64.2041802233  LPSA33    16             11.0000000000
     36145      1168  BMANNA    H5            -41.5634600898      -26.3859400283       64.9529431231  LPSA33    16             11.0000000000
     36146      1168  BMANNA    O5            -41.7337170077      -26.2829796953       62.9013834343  LPSA33    16             11.0000000000
     36147      1168  BMANNA    C2            -40.1254072374      -24.9285757874       62.3312105384  LPSA33    16             11.0000000000
     36148      1168  BMANNA    H2            -39.0592481238      -24.9299284608       62.0251885799  LPSA33    16             11.0000000000
     36149      1168  BMANNA    N             -40.9394838844      -24.2755185347       61.2712146001  LPSA33    16             11.0000000000
     36150      1168  BMANNA    HN            -41.8060827017      -23.8797207524       61.4999435062  LPSA33    16             11.0000000000
     36151      1168  BMANNA    C             -40.5660782936      -24.1025327134       59.9982923215  LPSA33    16             11.0000000000
     36152      1168  BMANNA    O             -39.5554979877      -24.6319234305       59.5522990252  LPSA33    16             11.0000000000
     36153      1168  BMANNA    CT            -41.5480989098      -23.3325334912       59.1165401627  LPSA33    16             11.0000000000
     36154      1168  BMANNA    HT1           -41.1830264367      -22.3323191360       58.8650474123  LPSA33    16             11.0000000000
     36155      1168  BMANNA    HT2           -42.5755965139      -23.3304810319       59.5452474442  LPSA33    16             11.0000000000
     36156      1168  BMANNA    HT3           -41.6703254242      -23.7815675527       58.1228389785  LPSA33    16             11.0000000000
     36157      1168  BMANNA    C3            -40.3648651744      -24.3597559431       63.6717818753  LPSA33    16             11.0000000000
     36158      1168  BMANNA    H3            -39.7406225520      -24.8719072102       64.4327108024  LPSA33    16             11.0000000000
     36159      1168  BMANNA    O3            -40.0733103591      -23.0390393119       63.5696339376  LPSA33    16             11.0000000000
     36160      1168  BMANNA    HO3           -39.4136647231      -22.8827976413       64.2613725652  LPSA33    16             11.0000000000
     36161      1168  BMANNA    C4            -41.7636156639      -24.4910647594       64.0790155808  LPSA33    16             11.0000000000
     36162      1168  BMANNA    H4            -42.5446981463      -23.9812813657       63.5181405299  LPSA33    16             11.0000000000
     36163      1168  BMANNA    O4            -41.9069827952      -24.1049488084       65.3924098326  LPSA33    16             11.0000000000
     36164      1168  BMANNA    HO4           -42.8713468662      -23.9463702502       65.3376219347  LPSA33    16             11.0000000000
     36165      1168  BMANNA    C6            -43.7115582480      -25.8706808953       64.6903519669  LPSA33    16             11.0000000000
     36166      1168  BMANNA    H61           -43.8183638082      -25.6588005806       65.7597028839  LPSA33    16             11.0000000000
     36167      1168  BMANNA    H62           -44.4051094349      -25.1397474529       64.2870814510  LPSA33    16             11.0000000000
     36168      1168  BMANNA    O6            -44.4474841633      -27.0561761653       64.6454563286  LPSA33    16             11.0000000000
     36169      1168  BMANNA    HO6           -45.1514969665      -27.0706700036       63.9507296102  LPSA33    16             11.0000000000
     36170      1169  BGLCNA    C1            -41.0044502384      -30.5489709438       64.1341415989  LPSA33    17             11.0000000000
     36171      1169  BGLCNA    H1            -40.2669630536      -31.3392093213       64.0146301021  LPSA33    17             11.0000000000
     36172      1169  BGLCNA    C5            -42.6988526487      -32.2359378225       64.6313306142  LPSA33    17             11.0000000000
     36173      1169  BGLCNA    H5            -42.0548975208      -33.0767293158       64.6229515080  LPSA33    17             11.0000000000
     36174      1169  BGLCNA    O5            -42.2617892802      -31.1833805837       63.7710991825  LPSA33    17             11.0000000000
     36175      1169  BGLCNA    C2            -41.1032963611      -29.9804112776       65.5726632103  LPSA33    17             11.0000000000
     36176      1169  BGLCNA    H2            -41.9025414493      -29.2383597824       65.7945160284  LPSA33    17             11.0000000000
     36177      1169  BGLCNA    N             -39.9350514536      -29.2290039933       65.8868781526  LPSA33    17             11.0000000000
     36178      1169  BGLCNA    HN            -39.1611856383      -29.5313799131       65.3569909280  LPSA33    17             11.0000000000
     36179      1169  BGLCNA    C             -39.7349726989      -28.3171152856       66.8402270557  LPSA33    17             11.0000000000
     36180      1169  BGLCNA    O             -40.5540162355      -27.8667973669       67.6035312063  LPSA33    17             11.0000000000
     36181      1169  BGLCNA    CT            -38.3315393975      -27.9159377269       67.0243192274  LPSA33    17             11.0000000000
     36182      1169  BGLCNA    HT1           -38.0909301665      -26.9621476041       66.5147900490  LPSA33    17             11.0000000000
     36183      1169  BGLCNA    HT2           -37.6981894930      -28.7490841675       66.6723862694  LPSA33    17             11.0000000000
     36184      1169  BGLCNA    HT3           -38.1840865893      -27.7838405491       68.1166762213  LPSA33    17             11.0000000000
     36185      1169  BGLCNA    C3            -41.3735598955      -31.1480285824       66.4596423063  LPSA33    17             11.0000000000
     36186      1169  BGLCNA    H3            -40.6364808562      -31.8823879312       66.0989458697  LPSA33    17             11.0000000000
     36187      1169  BGLCNA    O3            -41.1161655701      -30.8782747734       67.8582390909  LPSA33    17             11.0000000000
     36188      1169  BGLCNA    C4            -42.7073920016      -31.7021355953       66.0535934062  LPSA33    17             11.0000000000
     36189      1169  BGLCNA    H4            -43.3256871151      -30.8310544963       66.0593239338  LPSA33    17             11.0000000000
     36190      1169  BGLCNA    O4            -43.0558919060      -32.6537913952       67.0467191175  LPSA33    17             11.0000000000
     36191      1169  BGLCNA    HO4           -43.9671145380      -33.0058761004       66.9774293372  LPSA33    17             11.0000000000
     36192      1169  BGLCNA    C6            -44.0975225173      -32.7355051417       64.1525397236  LPSA33    17             11.0000000000
     36193      1169  BGLCNA    H61           -44.1438835151      -33.8211233526       64.1537744767  LPSA33    17             11.0000000000
     36194      1169  BGLCNA    H62           -44.9938400496      -32.3435725497       64.6493690736  LPSA33    17             11.0000000000
     36195      1169  BGLCNA    O6            -44.4361932234      -32.6003977136       62.8176109029  LPSA33    17             11.0000000000
     36196      1169  BGLCNA    HO6           -43.6823877719      -32.4821171635       62.2490642128  LPSA33    17             11.0000000000
     36197      1170  AGAL      C1            -40.5610774371      -31.9520056988       68.6006307709  LPSA33    18             12.0000000000
     36198      1170  AGAL      H1            -41.3362599450      -32.7346448804       68.7513760068  LPSA33    18             12.0000000000
     36199      1170  AGAL      C5            -38.3907294024      -31.6289120688       67.8227201877  LPSA33    18             12.0000000000
     36200      1170  AGAL      H5            -38.7853107531      -30.6917159264       67.3977896629  LPSA33    18             12.0000000000
     36201      1170  AGAL      O5            -39.4678864584      -32.5504422274       67.9270504098  LPSA33    18             12.0000000000
     36202      1170  AGAL      C2            -40.0287818436      -31.5344782949       69.9710468347  LPSA33    18             12.0000000000
     36203      1170  AGAL      H2            -39.4852605886      -32.4161700555       70.3020877367  LPSA33    18             12.0000000000
     36204      1170  AGAL      O2            -41.0689205690      -31.5879319049       70.9573675688  LPSA33    18             12.0000000000
     36205      1170  AGAL      C3            -38.8953377137      -30.4646260752       69.8476055143  LPSA33    18             12.0000000000
     36206      1170  AGAL      H3            -39.2784430543      -29.6246193834       69.2017729830  LPSA33    18             12.0000000000
     36207      1170  AGAL      O3            -38.3666272700      -29.8638481201       71.0371811457  LPSA33    18             12.0000000000
     36208      1170  AGAL      HO3           -38.5578189062      -28.9058501594       70.9985968850  LPSA33    18             12.0000000000
     36209      1170  AGAL      C4            -37.7851686799      -31.1577015345       69.1265698382  LPSA33    18             12.0000000000
     36210      1170  AGAL      H4            -36.9738414763      -30.4336795522       68.9069481142  LPSA33    18             12.0000000000
     36211      1170  AGAL      O4            -37.2022301009      -32.2056860233       69.8985122230  LPSA33    18             12.0000000000
     36212      1170  AGAL      HO4           -36.8504675473      -31.8484958910       70.7320147579  LPSA33    18             12.0000000000
     36213      1170  AGAL      C6            -37.5055684164      -32.1483037349       66.7452162772  LPSA33    18             12.0000000000
     36214      1170  AGAL      H61           -38.1275407410      -32.1358084858       65.8220621120  LPSA33    18             12.0000000000
     36215      1170  AGAL      H62           -36.6675918994      -31.4293847536       66.6203239871  LPSA33    18             12.0000000000
     36216      1170  AGAL      O6            -37.0513773429      -33.4916720666       66.9373702904  LPSA33    18             12.0000000000
     36217      1170  AGAL      HO6           -37.5105287903      -33.8608513656       67.7101776746  LPSA33    18             12.0000000000
     36218      1171  ARHM      C1            -40.8569990991      -31.6992288241       72.3485700544  LPSA33    19             13.0000000000
     36219      1171  ARHM      H1            -39.7752055889      -31.8208726204       72.4922448589  LPSA33    19             13.0000000000
     36220      1171  ARHM      C5            -42.7847959871      -32.9395458650       72.4193572071  LPSA33    19             13.0000000000
     36221      1171  ARHM      H5            -42.9281871866      -32.6926892272       71.3243776309  LPSA33    19             13.0000000000
     36222      1171  ARHM      O5            -41.4627909707      -32.8839968503       72.7105581556  LPSA33    19             13.0000000000
     36223      1171  ARHM      C2            -41.5914595489      -30.7056996836       73.2412960844  LPSA33    19             13.0000000000
     36224      1171  ARHM      H2            -41.3750508087      -29.6419550207       73.3878746367  LPSA33    19             13.0000000000
     36225      1171  ARHM      O2            -40.9905948769      -31.1348931360       74.4437033206  LPSA33    19             13.0000000000
     36226      1171  ARHM      C3            -43.0998146918      -30.6119650242       72.9027675810  LPSA33    19             13.0000000000
     36227      1171  ARHM      H3            -43.2419290155      -30.3923201319       71.8321464099  LPSA33    19             13.0000000000
     36228      1171  ARHM      O3            -43.8862367852      -29.5234557569       73.4301848609  LPSA33    19             13.0000000000
     36229      1171  ARHM      HO3           -43.9129148648      -29.5002564618       74.4149635126  LPSA33    19             13.0000000000
     36230      1171  ARHM      C4            -43.4938199438      -31.9863762969       73.2054842325  LPSA33    19             13.0000000000
     36231      1171  ARHM      H4            -43.3337753150      -32.2099332079       74.2916025859  LPSA33    19             13.0000000000
     36232      1171  ARHM      O4            -44.6609759710      -32.5202701803       72.7703345743  LPSA33    19             13.0000000000
     36233      1171  ARHM      HO4           -45.1704046188      -32.0574244343       72.0893046825  LPSA33    19             13.0000000000
     36234      1171  ARHM      C6            -43.1374299348      -34.4011752665       72.4573174379  LPSA33    19             13.0000000000
     36235      1171  ARHM      H61           -42.6221245389      -34.8823660772       71.6371225077  LPSA33    19             13.0000000000
     36236      1171  ARHM      H62           -42.9465596848      -34.9417511877       73.3819642565  LPSA33    19             13.0000000000
     36237      1171  ARHM      H63           -44.2222979515      -34.5415039086       72.2520225532  LPSA33    19             13.0000000000
     36238      1172  ARHM      C1            -39.7380804436      -30.5088394975       74.7061400772  LPSA33    20             14.0000000000
     36239      1172  ARHM      H1            -39.3912445825      -29.8691470446       73.8578718899  LPSA33    20             14.0000000000
     36240      1172  ARHM      C5            -39.1587081407      -32.3648134304       75.9515727439  LPSA33    20             14.0000000000
     36241      1172  ARHM      H5            -40.1944022278      -32.6566330281       75.7337457360  LPSA33    20             14.0000000000
     36242      1172  ARHM      O5            -38.7860557353      -31.5434122196       74.8589502188  LPSA33    20             14.0000000000
     36243      1172  ARHM      C2            -39.7955367781      -29.6362431468       75.9492736393  LPSA33    20             14.0000000000
     36244      1172  ARHM      H2            -40.5535937841      -28.8246453623       75.8594906383  LPSA33    20             14.0000000000
     36245      1172  ARHM      O2            -38.5250598745      -29.0229027166       76.1559286520  LPSA33    20             14.0000000000
     36246      1172  ARHM      C3            -40.1544303715      -30.4720213169       77.1279794531  LPSA33    20             14.0000000000
     36247      1172  ARHM      H3            -41.1611031428      -30.9143270351       76.9727843571  LPSA33    20             14.0000000000
     36248      1172  ARHM      O3            -40.1767585296      -29.6589435892       78.2945983045  LPSA33    20             14.0000000000
     36249      1172  ARHM      C4            -39.1424480859      -31.5687288282       77.2465032336  LPSA33    20             14.0000000000
     36250      1172  ARHM      H4            -38.1089788663      -31.1770581843       77.3417976973  LPSA33    20             14.0000000000
     36251      1172  ARHM      O4            -39.3950017969      -32.3857749305       78.3781181541  LPSA33    20             14.0000000000
     36252      1172  ARHM      HO4           -39.1721855525      -33.2724701372       78.1006563325  LPSA33    20             14.0000000000
     36253      1172  ARHM      C6            -38.3029511912      -33.6288109460       75.9490805500  LPSA33    20             14.0000000000
     36254      1172  ARHM      H61           -37.2369133690      -33.3775662538       76.0718319247  LPSA33    20             14.0000000000
     36255      1172  ARHM      H62           -38.6402794932      -34.3089082503       76.7590524720  LPSA33    20             14.0000000000
     36256      1172  ARHM      H63           -38.4219498195      -34.1601617499       74.9796831289  LPSA33    20             14.0000000000
     36257      1173  BMANNA    C1            -38.4226833796      -27.8522906446       75.4059452136  LPSA33    21             15.0000000000
     36258      1173  BMANNA    H1            -39.2956521213      -27.7668355126       74.7173512200  LPSA33    21             15.0000000000
     36259      1173  BMANNA    C5            -37.3629909680      -26.7159944935       73.6481800505  LPSA33    21             15.0000000000
     36260      1173  BMANNA    H5            -38.3346214738      -26.6850097656       73.0902569761  LPSA33    21             15.0000000000
     36261      1173  BMANNA    O5            -37.3213024468      -27.8710811228       74.5060038330  LPSA33    21             15.0000000000
     36262      1173  BMANNA    C2            -38.3828491207      -26.6581527931       76.3464476207  LPSA33    21             15.0000000000
     36263      1173  BMANNA    H2            -39.3358328819      -26.7061988306       76.9208974581  LPSA33    21             15.0000000000
     36264      1173  BMANNA    N             -37.2684017931      -26.6467242994       77.2947252397  LPSA33    21             15.0000000000
     36265      1173  BMANNA    HN            -36.4068107540      -26.9316720424       76.9005561256  LPSA33    21             15.0000000000
     36266      1173  BMANNA    C             -37.3300373521      -26.2546484216       78.5875644367  LPSA33    21             15.0000000000
     36267      1173  BMANNA    O             -38.2872667565      -25.6532383494       79.0430091441  LPSA33    21             15.0000000000
     36268      1173  BMANNA    CT            -36.1272147635      -26.5627707368       79.4696890501  LPSA33    21             15.0000000000
     36269      1173  BMANNA    HT1           -35.3151327299      -25.8330347026       79.2840253614  LPSA33    21             15.0000000000
     36270      1173  BMANNA    HT2           -35.7900122443      -27.6064386227       79.3143383956  LPSA33    21             15.0000000000
     36271      1173  BMANNA    HT3           -36.4264810953      -26.4694833594       80.5409136592  LPSA33    21             15.0000000000
     36272      1173  BMANNA    C3            -38.4313930947      -25.4385631447       75.4736183982  LPSA33    21             15.0000000000
     36273      1173  BMANNA    H3            -39.3983319415      -25.5017812028       74.9193075447  LPSA33    21             15.0000000000
     36274      1173  BMANNA    O3            -38.4974307658      -24.2547951324       76.2534515123  LPSA33    21             15.0000000000
     36275      1173  BMANNA    HO3           -37.6990549321      -24.2002226240       76.7937136520  LPSA33    21             15.0000000000
     36276      1173  BMANNA    C4            -37.2754563112      -25.4570992006       74.4816756252  LPSA33    21             15.0000000000
     36277      1173  BMANNA    H4            -36.2893228476      -25.4359766673       75.0102506702  LPSA33    21             15.0000000000
     36278      1173  BMANNA    O4            -37.2826979747      -24.3641162945       73.5849841771  LPSA33    21             15.0000000000
     36279      1173  BMANNA    HO4           -36.5470769661      -23.7752339986       73.7844886884  LPSA33    21             15.0000000000
     36280      1173  BMANNA    C6            -36.2666697799      -26.7667350695       72.6110365461  LPSA33    21             15.0000000000
     36281      1173  BMANNA    H61           -36.4844919679      -26.0393352228       71.8023784854  LPSA33    21             15.0000000000
     36282      1173  BMANNA    H62           -35.3245769112      -26.4338797654       73.0758682153  LPSA33    21             15.0000000000
     36283      1173  BMANNA    O6            -36.0671605092      -28.0644255290       72.0591956568  LPSA33    21             15.0000000000
     36284      1173  BMANNA    HO6           -35.9274391578      -28.6656726455       72.8018734716  LPSA33    21             15.0000000000
     36285      1174  BGLCNA    C1            -41.1338229953      -29.9827043448       79.2733783204  LPSA33    22             15.0000000000
     36286      1174  BGLCNA    H1            -41.1247467071      -31.0640395899       79.2120043473  LPSA33    22             15.0000000000
     36287      1174  BGLCNA    C5            -43.3209890756      -29.1374921405       80.2694378210  LPSA33    22             15.0000000000
     36288      1174  BGLCNA    H5            -43.7642608491      -30.0912058686       80.5600124408  LPSA33    22             15.0000000000
     36289      1174  BGLCNA    O5            -42.3614476005      -29.2051710374       79.1574362689  LPSA33    22             15.0000000000
     36290      1174  BGLCNA    C2            -40.4384774443      -29.5113320877       80.4805161465  LPSA33    22             15.0000000000
     36291      1174  BGLCNA    H2            -40.2020764451      -28.4181393307       80.3910123144  LPSA33    22             15.0000000000
     36292      1174  BGLCNA    N             -39.2718421235      -30.3019869183       80.6908155290  LPSA33    22             15.0000000000
     36293      1174  BGLCNA    HN            -39.3300299198      -31.2505230741       80.3913252475  LPSA33    22             15.0000000000
     36294      1174  BGLCNA    C             -38.2088496198      -29.8615961980       81.3345559597  LPSA33    22             15.0000000000
     36295      1174  BGLCNA    O             -38.1343307894      -28.7528249761       81.8456818108  LPSA33    22             15.0000000000
     36296      1174  BGLCNA    CT            -37.1022689961      -30.8628918495       81.3854067753  LPSA33    22             15.0000000000
     36297      1174  BGLCNA    HT1           -36.4414585298      -30.6272502100       80.5293940314  LPSA33    22             15.0000000000
     36298      1174  BGLCNA    HT2           -37.5095989777      -31.8885237860       81.2741694800  LPSA33    22             15.0000000000
     36299      1174  BGLCNA    HT3           -36.5595820935      -30.8026899520       82.3545170780  LPSA33    22             15.0000000000
     36300      1174  BGLCNA    C3            -41.3316460161      -29.6050054211       81.6839527018  LPSA33    22             15.0000000000
     36301      1174  BGLCNA    H3            -41.7376330256      -30.6363297163       81.5084167351  LPSA33    22             15.0000000000
     36302      1174  BGLCNA    O3            -40.6557085695      -29.9538474608       82.8991675244  LPSA33    22             15.0000000000
     36303      1174  BGLCNA    C4            -42.5307617617      -28.5787665432       81.4955529647  LPSA33    22             15.0000000000
     36304      1174  BGLCNA    H4            -42.1267700219      -27.5826936914       81.2778759367  LPSA33    22             15.0000000000
     36305      1174  BGLCNA    O4            -43.1790320824      -28.1320820256       82.7019736963  LPSA33    22             15.0000000000
     36306      1174  BGLCNA    HO4           -44.1414467472      -28.1217480458       82.8175151151  LPSA33    22             15.0000000000
     36307      1174  BGLCNA    C6            -44.7217311432      -28.7404916672       79.8305954136  LPSA33    22             15.0000000000
     36308      1174  BGLCNA    H61           -45.3082082019      -28.8683756919       80.7642880521  LPSA33    22             15.0000000000
     36309      1174  BGLCNA    H62           -45.1788836350      -27.7535213508       79.5695928636  LPSA33    22             15.0000000000
     36310      1174  BGLCNA    O6            -44.7556411969      -29.5730062028       78.6502118364  LPSA33    22             15.0000000000
     36311      1174  BGLCNA    HO6           -44.9439041230      -29.1421454970       77.8118770521  LPSA33    22             15.0000000000
     36312      1175  AGAL      C1            -41.2603644059      -30.3423841346       84.1327457119  LPSA33    23             16.0000000000
     36313      1175  AGAL      H1            -42.1927923247      -29.8236526117       84.4208152272  LPSA33    23             16.0000000000
     36314      1175  AGAL      C5            -40.4341437268      -32.3972213307       83.8331142147  LPSA33    23             16.0000000000
     36315      1175  AGAL      H5            -39.9693737245      -31.9949110908       82.8843589046  LPSA33    23             16.0000000000
     36316      1175  AGAL      O5            -41.6182110163      -31.6844988850       84.0968136470  LPSA33    23             16.0000000000
     36317      1175  AGAL      C2            -40.1709086219      -30.0714578941       85.2190616969  LPSA33    23             16.0000000000
     36318      1175  AGAL      H2            -40.6690970831      -30.4503616955       86.1345050969  LPSA33    23             16.0000000000
     36319      1175  AGAL      O2            -39.6810634111      -28.7435471441       85.5681005034  LPSA33    23             16.0000000000
     36320      1175  AGAL      C3            -38.9311463380      -30.8473338528       84.8504337110  LPSA33    23             16.0000000000
     36321      1175  AGAL      H3            -38.5975987762      -30.5731274563       83.8349615193  LPSA33    23             16.0000000000
     36322      1175  AGAL      O3            -37.8450715274      -30.5615918813       85.7129636237  LPSA33    23             16.0000000000
     36323      1175  AGAL      HO3           -38.1886617676      -30.6004211822       86.6094684283  LPSA33    23             16.0000000000
     36324      1175  AGAL      C4            -39.3124685860      -32.2712767599       84.8547407937  LPSA33    23             16.0000000000
     36325      1175  AGAL      H4            -38.5434694963      -32.9997837044       84.5697172871  LPSA33    23             16.0000000000
     36326      1175  AGAL      O4            -39.6139390808      -32.5101222786       86.2020377806  LPSA33    23             16.0000000000
     36327      1175  AGAL      HO4           -40.3955132257      -33.0686138368       86.2333687487  LPSA33    23             16.0000000000
     36328      1175  AGAL      C6            -40.9140801744      -33.6359779600       83.2429586122  LPSA33    23             16.0000000000
     36329      1175  AGAL      H61           -41.7852497906      -33.2745279921       82.6062316732  LPSA33    23             16.0000000000
     36330      1175  AGAL      H62           -40.1232172909      -34.0489900300       82.6089705364  LPSA33    23             16.0000000000
     36331      1175  AGAL      O6            -41.1017275322      -34.8530187561       83.9503417697  LPSA33    23             16.0000000000
     36332      1175  AGAL      HO6           -42.0216211691      -35.1532515989       84.0896729888  LPSA33    23             16.0000000000
     36333      1176  ARHM      C1            -40.4758546914      -27.8677504673       86.3371134429  LPSA33    24             17.0000000000
     36334      1176  ARHM      H1            -41.4449948852      -28.3563127158       86.4340274411  LPSA33    24             17.0000000000
     36335      1176  ARHM      C5            -39.6818359130      -25.6458089642       85.6616374378  LPSA33    24             17.0000000000
     36336      1176  ARHM      H5            -39.0553127312      -26.2017270675       84.9315030857  LPSA33    24             17.0000000000
     36337      1176  ARHM      O5            -40.7813395285      -26.4904350218       85.9309486882  LPSA33    24             17.0000000000
     36338      1176  ARHM      C2            -39.7939399940      -27.8621073684       87.5573418768  LPSA33    24             17.0000000000
     36339      1176  ARHM      H2            -39.4707370690      -28.8925775493       87.7961864658  LPSA33    24             17.0000000000
     36340      1176  ARHM      O2            -40.5533281463      -27.6148205920       88.6691005659  LPSA33    24             17.0000000000
     36341      1176  ARHM      C3            -38.5914652706      -26.9780787429       87.4072905675  LPSA33    24             17.0000000000
     36342      1176  ARHM      H3            -37.9668060990      -27.4411936746       86.6103471510  LPSA33    24             17.0000000000
     36343      1176  ARHM      O3            -37.9071698838      -26.9939504477       88.6474389391  LPSA33    24             17.0000000000
     36344      1176  ARHM      HO3           -38.1026610588      -26.1943789875       89.1481757081  LPSA33    24             17.0000000000
     36345      1176  ARHM      C4            -38.9617835914      -25.5448104200       86.9618219493  LPSA33    24             17.0000000000
     36346      1176  ARHM      H4            -39.6319384278      -25.0430944398       87.6663875382  LPSA33    24             17.0000000000
     36347      1176  ARHM      O4            -37.8576022958      -24.6691447762       86.8261785218  LPSA33    24             17.0000000000
     36348      1176  ARHM      HO4           -38.0836319890      -23.7682035211       87.0727767289  LPSA33    24             17.0000000000
     36349      1176  ARHM      C6            -40.1033646053      -24.3084781257       84.9785580154  LPSA33    24             17.0000000000
     36350      1176  ARHM      H61           -39.2055384724      -23.9366434055       84.4365836934  LPSA33    24             17.0000000000
     36351      1176  ARHM      H62           -40.8963177075      -24.4729296598       84.2159405699  LPSA33    24             17.0000000000
     36352      1176  ARHM      H63           -40.4497546393      -23.5335686033       85.6910637295  LPSA33    24             17.0000000000
     36353      1177  ARHM      C1            -41.7522263209      -28.1125727342       89.0761059099  LPSA33    25             18.0000000000
     36354      1177  ARHM      H1            -41.9594177248      -29.0012256800       88.4372262354  LPSA33    25             18.0000000000
     36355      1177  ARHM      C5            -43.1912069569      -26.2881818334       90.2781735121  LPSA33    25             18.0000000000
     36356      1177  ARHM      H5            -42.7714813382      -25.2648150790       90.1646532884  LPSA33    25             18.0000000000
     36357      1177  ARHM      O5            -43.0872949958      -27.4555991372       89.3400155892  LPSA33    25             18.0000000000
     36358      1177  ARHM      C2            -41.2269701573      -28.4615017697       90.3972573621  LPSA33    25             18.0000000000
     36359      1177  ARHM      H2            -40.1495425748      -28.7685261613       90.3850542031  LPSA33    25             18.0000000000
     36360      1177  ARHM      O2            -41.8611790502      -29.6245196971       90.6602846944  LPSA33    25             18.0000000000
     36361      1177  ARHM      C3            -41.2077655891      -27.2761219647       91.4064598757  LPSA33    25             18.0000000000
     36362      1177  ARHM      H3            -40.4928071928      -26.4673999810       91.1362969550  LPSA33    25             18.0000000000
     36363      1177  ARHM      O3            -40.8171870245      -27.7959747835       92.6686624409  LPSA33    25             18.0000000000
     36364      1177  ARHM      C4            -42.6184269403      -26.7342507469       91.5956004950  LPSA33    25             18.0000000000
     36365      1177  ARHM      H4            -43.3214754481      -27.4473040772       92.0507903173  LPSA33    25             18.0000000000
     36366      1177  ARHM      O4            -42.4540725287      -25.6063040979       92.4395918846  LPSA33    25             18.0000000000
     36367      1177  ARHM      HO4           -43.1482142244      -25.6417506957       93.1203369159  LPSA33    25             18.0000000000
     36368      1177  ARHM      C6            -44.4583082720      -25.4519971597       90.2373056864  LPSA33    25             18.0000000000
     36369      1177  ARHM      H61           -44.7059575182      -25.1105406609       89.1932738524  LPSA33    25             18.0000000000
     36370      1177  ARHM      H62           -45.3035263357      -25.9717846271       90.6960352901  LPSA33    25             18.0000000000
     36371      1177  ARHM      H63           -44.2163639892      -24.5403284521       90.8397284799  LPSA33    25             18.0000000000
     36372      1178  BMANNA    C1            -41.7554606664      -30.8722830092       90.0902422650  LPSA33    26             19.0000000000
     36373      1178  BMANNA    H1            -40.7546188426      -30.8746593070       89.7148054087  LPSA33    26             19.0000000000
     36374      1178  BMANNA    C5            -42.5806633761      -32.3903917002       88.5117349593  LPSA33    26             19.0000000000
     36375      1178  BMANNA    H5            -41.5564640119      -32.2860931350       88.1063272549  LPSA33    26             19.0000000000
     36376      1178  BMANNA    O5            -42.6637780571      -31.0763760060       89.0611200175  LPSA33    26             19.0000000000
     36377      1178  BMANNA    C2            -42.0372250512      -31.9585719238       91.1530921494  LPSA33    26             19.0000000000
     36378      1178  BMANNA    H2            -41.0719065815      -31.8069987611       91.7590427855  LPSA33    26             19.0000000000
     36379      1178  BMANNA    N             -43.4518365121      -31.9486825231       91.8052989270  LPSA33    26             19.0000000000
     36380      1178  BMANNA    HN            -44.2568156217      -31.8583294128       91.1820640142  LPSA33    26             19.0000000000
     36381      1178  BMANNA    C             -43.8349734291      -31.9031011315       93.1262778352  LPSA33    26             19.0000000000
     36382      1178  BMANNA    O             -43.1903981215      -31.8764943601       94.1575862083  LPSA33    26             19.0000000000
     36383      1178  BMANNA    CT            -45.1764480483      -31.8249716579       93.3840265422  LPSA33    26             19.0000000000
     36384      1178  BMANNA    HT1           -45.7944814773      -31.7939330149       92.4887563178  LPSA33    26             19.0000000000
     36385      1178  BMANNA    HT2           -45.6215007334      -31.0759690362       94.0188977008  LPSA33    26             19.0000000000
     36386      1178  BMANNA    HT3           -45.0823860187      -32.7246583019       94.0744918080  LPSA33    26             19.0000000000
     36387      1178  BMANNA    C3            -41.7971288110      -33.2570442469       90.6401892721  LPSA33    26             19.0000000000
     36388      1178  BMANNA    H3            -40.7222692000      -33.1030058543       90.3506152499  LPSA33    26             19.0000000000
     36389      1178  BMANNA    O3            -41.6979777507      -34.1875162365       91.6649907806  LPSA33    26             19.0000000000
     36390      1178  BMANNA    HO3           -40.9607077423      -33.8654616862       92.2114013561  LPSA33    26             19.0000000000
     36391      1178  BMANNA    C4            -42.8167871525      -33.4762950034       89.5555845054  LPSA33    26             19.0000000000
     36392      1178  BMANNA    H4            -43.8331690605      -33.3775949835       89.9759514735  LPSA33    26             19.0000000000
     36393      1178  BMANNA    O4            -42.9363714925      -34.8003209916       89.0368456438  LPSA33    26             19.0000000000
     36394      1178  BMANNA    HO4           -42.7103635144      -35.4403395525       89.7257771888  LPSA33    26             19.0000000000
     36395      1178  BMANNA    C6            -43.5643343735      -32.5104269368       87.3747164889  LPSA33    26             19.0000000000
     36396      1178  BMANNA    H61           -43.7187590325      -31.5360919095       87.0129018734  LPSA33    26             19.0000000000
     36397      1178  BMANNA    H62           -43.2789179254      -32.9974360783       86.5138768428  LPSA33    26             19.0000000000
     36398      1178  BMANNA    O6            -44.7896505169      -33.2007482801       87.5036953574  LPSA33    26             19.0000000000
     36399      1178  BMANNA    HO6           -44.7044713715      -33.8654467209       88.1856647623  LPSA33    26             19.0000000000
     36400      1179  BGLCNA    C1            -39.9170771200      -27.0487128077       93.4475420326  LPSA33    27             19.0000000000
     36401      1179  BGLCNA    H1            -40.1312166132      -25.9582411241       93.4133616799  LPSA33    27             19.0000000000
     36402      1179  BGLCNA    C5            -37.6588904486      -26.6043250524       93.9085319204  LPSA33    27             19.0000000000
     36403      1179  BGLCNA    H5            -37.9829479839      -25.5413715178       93.9237340564  LPSA33    27             19.0000000000
     36404      1179  BGLCNA    O5            -38.5799476199      -27.3026172885       93.0574464020  LPSA33    27             19.0000000000
     36405      1179  BGLCNA    C2            -40.1086031972      -27.5604821689       94.8337030317  LPSA33    27             19.0000000000
     36406      1179  BGLCNA    H2            -39.7870082162      -28.6365365223       94.8263904649  LPSA33    27             19.0000000000
     36407      1179  BGLCNA    N             -41.5061219561      -27.4052504481       95.1494987866  LPSA33    27             19.0000000000
     36408      1179  BGLCNA    HN            -42.0160277634      -26.5839631132       94.9655669300  LPSA33    27             19.0000000000
     36409      1179  BGLCNA    C             -42.0945264055      -28.3387680248       95.8084623041  LPSA33    27             19.0000000000
     36410      1179  BGLCNA    O             -41.3883159420      -28.8661909647       96.6621715149  LPSA33    27             19.0000000000
     36411      1179  BGLCNA    CT            -43.6494631049      -28.4630278736       95.7098333083  LPSA33    27             19.0000000000
     36412      1179  BGLCNA    HT1           -44.1237797172      -27.6204804755       95.2001748464  LPSA33    27             19.0000000000
     36413      1179  BGLCNA    HT2           -44.1315194375      -28.4855715015       96.7247205140  LPSA33    27             19.0000000000
     36414      1179  BGLCNA    HT3           -43.9796565892      -29.4417325839       95.3843914029  LPSA33    27             19.0000000000
     36415      1179  BGLCNA    C3            -39.1983962791      -26.8930870859       95.8134523176  LPSA33    27             19.0000000000
     36416      1179  BGLCNA    H3            -39.4185849476      -25.8066805671       95.7466880496  LPSA33    27             19.0000000000
     36417      1179  BGLCNA    O3            -39.5316132727      -27.4017499158       97.1360788442  LPSA33    27             19.0000000000
     36418      1179  BGLCNA    C4            -37.7910398616      -27.1291234612       95.3276729480  LPSA33    27             19.0000000000
     36419      1179  BGLCNA    H4            -37.5455561904      -28.2143957037       95.3200412960  LPSA33    27             19.0000000000
     36420      1179  BGLCNA    O4            -36.8485166263      -26.4643922932       96.1387556255  LPSA33    27             19.0000000000
     36421      1179  BGLCNA    HO4           -37.0198010447      -25.5259000710       96.1028952482  LPSA33    27             19.0000000000
     36422      1179  BGLCNA    C6            -36.2641489947      -26.6403838969       93.3193671588  LPSA33    27             19.0000000000
     36423      1179  BGLCNA    H61           -35.6161923403      -25.9088896255       93.8521291388  LPSA33    27             19.0000000000
     36424      1179  BGLCNA    H62           -35.8185440162      -27.6473049342       93.4551417943  LPSA33    27             19.0000000000
     36425      1179  BGLCNA    O6            -36.2969905478      -26.3132406079       91.9253499794  LPSA33    27             19.0000000000
     36426      1179  BGLCNA    HO6           -35.4247913010      -26.3412890769       91.5035219491  LPSA33    27             19.0000000000
     36427      1180  AGAL      C1            -39.0702129333      -26.7143944101       98.2497208708  LPSA33    28             20.0000000000
     36428      1180  AGAL      H1            -37.9859364251      -26.8864380370       98.3240909450  LPSA33    28             20.0000000000
     36429      1180  AGAL      C5            -40.6297936652      -24.9496466225       97.9503767310  LPSA33    28             20.0000000000
     36430      1180  AGAL      H5            -41.1196265127      -25.7174064254       97.3459175100  LPSA33    28             20.0000000000
     36431      1180  AGAL      O5            -39.2404004399      -25.3245024320       97.9506906383  LPSA33    28             20.0000000000
     36432      1180  AGAL      C2            -39.6975947915      -27.0754359162       99.6467246621  LPSA33    28             20.0000000000
     36433      1180  AGAL      H2            -39.1716694675      -26.3815601631      100.3181672394  LPSA33    28             20.0000000000
     36434      1180  AGAL      O2            -39.3158903871      -28.3920332261      100.1039991966  LPSA33    28             20.0000000000
     36435      1180  AGAL      C3            -41.2062911228      -26.6249100964       99.5133929545  LPSA33    28             20.0000000000
     36436      1180  AGAL      H3            -41.3034848554      -27.5233798881       98.8837568682  LPSA33    28             20.0000000000
     36437      1180  AGAL      O3            -42.5464227578      -26.8318497286      100.0730785001  LPSA33    28             20.0000000000
     36438      1180  AGAL      HO3           -42.6940757540      -27.7289067760      100.4308620288  LPSA33    28             20.0000000000
     36439      1180  AGAL      C4            -41.2190476932      -25.1723899361       99.1768671121  LPSA33    28             20.0000000000
     36440      1180  AGAL      H4            -42.2950735046      -24.7986495288       99.2236094568  LPSA33    28             20.0000000000
     36441      1180  AGAL      O4            -40.3068687069      -24.3486722309       99.9338856445  LPSA33    28             20.0000000000
     36442      1180  AGAL      HO4           -40.8429755046      -23.8204989973      100.5677838806  LPSA33    28             20.0000000000
     36443      1180  AGAL      C6            -40.9779467508      -23.4981001326       97.6065647980  LPSA33    28             20.0000000000
     36444      1180  AGAL      H61           -40.8069631430      -23.4305511303       96.5374348821  LPSA33    28             20.0000000000
     36445      1180  AGAL      H62           -42.0455260515      -23.2358209946       97.8787818687  LPSA33    28             20.0000000000
     36446      1180  AGAL      O6            -40.1572750853      -22.5063573873       98.1350889562  LPSA33    28             20.0000000000
     36447      1180  AGAL      HO6           -39.2744967832      -22.5998702944       97.8468116539  LPSA33    28             20.0000000000
     36448      1181  ARHM      C1            -38.9679638051      -28.4240214989      101.4845353525  LPSA33    29             21.0000000000
     36449      1181  ARHM      H1            -39.4160420101      -27.5505257128      101.9891238629  LPSA33    29             21.0000000000
     36450      1181  ARHM      C5            -36.9009916623      -29.3869572737      101.1341328911  LPSA33    29             21.0000000000
     36451      1181  ARHM      H5            -37.1783663492      -29.4567198411      100.0578626146  LPSA33    29             21.0000000000
     36452      1181  ARHM      O5            -37.5815187107      -28.2747906073      101.6934002546  LPSA33    29             21.0000000000
     36453      1181  ARHM      C2            -39.4208538009      -29.7103645930      102.1815742241  LPSA33    29             21.0000000000
     36454      1181  ARHM      H2            -40.4702724465      -30.0489650108      102.0443032230  LPSA33    29             21.0000000000
     36455      1181  ARHM      O2            -39.1695427040      -29.5905926285      103.5857113002  LPSA33    29             21.0000000000
     36456      1181  ARHM      C3            -38.7591233940      -30.8711512599      101.5807592272  LPSA33    29             21.0000000000
     36457      1181  ARHM      H3            -39.0036084519      -30.9009669789      100.4924061836  LPSA33    29             21.0000000000
     36458      1181  ARHM      O3            -39.3175283454      -32.0431399469      102.1289130651  LPSA33    29             21.0000000000
     36459      1181  ARHM      HO3           -38.6063363254      -32.6678157961      102.2161661669  LPSA33    29             21.0000000000
     36460      1181  ARHM      C4            -37.2849987825      -30.7054767950      101.8096379870  LPSA33    29             21.0000000000
     36461      1181  ARHM      H4            -37.0939997407      -30.6366237702      102.9082080346  LPSA33    29             21.0000000000
     36462      1181  ARHM      O4            -36.5264789417      -31.8074893345      101.3138705884  LPSA33    29             21.0000000000
     36463      1181  ARHM      HO4           -36.8329091802      -32.0530448478      100.4396329392  LPSA33    29             21.0000000000
     36464      1181  ARHM      C6            -35.4577958956      -28.9406404780      101.2029838305  LPSA33    29             21.0000000000
     36465      1181  ARHM      H61           -35.3982258543      -27.9126714109      100.7676812678  LPSA33    29             21.0000000000
     36466      1181  ARHM      H62           -35.1454442962      -28.9341005670      102.2643255808  LPSA33    29             21.0000000000
     36467      1181  ARHM      H63           -34.8109583218      -29.6207656684      100.6215425950  LPSA33    29             21.0000000000
     36468      1182  ARHM      C1            -40.2684938986      -29.2584654298      104.3312586772  LPSA33    30             22.0000000000
     36469      1182  ARHM      H1            -41.1350280426      -29.8838378149      103.9466023940  LPSA33    30             22.0000000000
     36470      1182  ARHM      C5            -39.6455665549      -26.8815144805      104.5305192120  LPSA33    30             22.0000000000
     36471      1182  ARHM      H5            -38.8139912696      -27.1897805320      103.8898082594  LPSA33    30             22.0000000000
     36472      1182  ARHM      O5            -40.7062760479      -27.8423394313      104.1821037876  LPSA33    30             22.0000000000
     36473      1182  ARHM      C2            -39.9247965533      -29.6006240183      105.7881263240  LPSA33    30             22.0000000000
     36474      1182  ARHM      H2            -39.5278648981      -30.5561407948      106.0817843758  LPSA33    30             22.0000000000
     36475      1182  ARHM      O2            -41.2492284508      -30.0699593214      105.9625602845  LPSA33    30             22.0000000000
     36476      1182  ARHM      C3            -38.8518745330      -28.4410183174      106.1634426836  LPSA33    30             22.0000000000
     36477      1182  ARHM      H3            -37.9935902165      -28.5958832576      105.4743871542  LPSA33    30             22.0000000000
     36478      1182  ARHM      O3            -38.4360009230      -28.6441808277      107.5338371917  LPSA33    30             22.0000000000
     36479      1182  ARHM      C4            -39.2362413980      -26.9334167600      105.9705770276  LPSA33    30             22.0000000000
     36480      1182  ARHM      H4            -39.9789272302      -26.3701617700      106.5303988865  LPSA33    30             22.0000000000
     36481      1182  ARHM      O4            -38.2639512157      -25.9620560968      106.3085569187  LPSA33    30             22.0000000000
     36482      1182  ARHM      HO4           -37.6285306927      -25.7887354618      105.6266414093  LPSA33    30             22.0000000000
     36483      1182  ARHM      C6            -39.9130724420      -25.4166643348      104.2149451867  LPSA33    30             22.0000000000
     36484      1182  ARHM      H61           -39.0861148008      -24.7042373325      104.2846820964  LPSA33    30             22.0000000000
     36485      1182  ARHM      H62           -40.1206763634      -25.3949001108      103.1701581386  LPSA33    30             22.0000000000
     36486      1182  ARHM      H63           -40.6955630206      -25.0185628886      104.8950818675  LPSA33    30             22.0000000000
     36487      1183  BMANNA    C1            -42.1904635011      -30.3017726919      106.8631381145  LPSA33    31             23.0000000000
     36488      1183  BMANNA    H1            -41.6483993829      -31.1636724257      107.3068499437  LPSA33    31             23.0000000000
     36489      1183  BMANNA    C5            -44.2179043272      -31.1945497533      106.2374191711  LPSA33    31             23.0000000000
     36490      1183  BMANNA    H5            -43.5555525560      -32.0135195175      106.5765949037  LPSA33    31             23.0000000000
     36491      1183  BMANNA    O5            -43.1580735888      -30.4667692816      105.8795963120  LPSA33    31             23.0000000000
     36492      1183  BMANNA    C2            -42.8520467304      -29.4624220460      107.9836464951  LPSA33    31             23.0000000000
     36493      1183  BMANNA    H2            -41.8748379713      -29.3867924720      108.5648636641  LPSA33    31             23.0000000000
     36494      1183  BMANNA    N             -43.5662623803      -28.1607713666      107.8304508789  LPSA33    31             23.0000000000
     36495      1183  BMANNA    HN            -43.6166192874      -27.9632737056      106.8513731310  LPSA33    31             23.0000000000
     36496      1183  BMANNA    C             -43.8576151808      -27.1162862716      108.6939986886  LPSA33    31             23.0000000000
     36497      1183  BMANNA    O             -43.4427340809      -26.9495638460      109.7650717064  LPSA33    31             23.0000000000
     36498      1183  BMANNA    CT            -44.4511378985      -25.8094510727      108.3247567124  LPSA33    31             23.0000000000
     36499      1183  BMANNA    HT1           -45.0641090514      -25.7667068510      107.4511929713  LPSA33    31             23.0000000000
     36500      1183  BMANNA    HT2           -43.6688847344      -25.1222369836      108.0216268647  LPSA33    31             23.0000000000
     36501      1183  BMANNA    HT3           -44.8759319883      -25.3387020764      109.2450025608  LPSA33    31             23.0000000000
     36502      1183  BMANNA    C3            -43.9189677273      -30.3760546030      108.3835165216  LPSA33    31             23.0000000000
     36503      1183  BMANNA    H3            -43.1428426721      -31.0970571171      108.7619279840  LPSA33    31             23.0000000000
     36504      1183  BMANNA    O3            -44.8148940974      -30.0228545255      109.3703327493  LPSA33    31             23.0000000000
     36505      1183  BMANNA    HO3           -44.3846333521      -30.1626143697      110.2554219422  LPSA33    31             23.0000000000
     36506      1183  BMANNA    C4            -44.9446175469      -30.6353846288      107.2643281302  LPSA33    31             23.0000000000
     36507      1183  BMANNA    H4            -45.5786299078      -29.7779557404      107.1644127882  LPSA33    31             23.0000000000
     36508      1183  BMANNA    O4            -46.0426830413      -31.5628369233      107.3131650667  LPSA33    31             23.0000000000
     36509      1183  BMANNA    HO4           -45.9000943364      -32.4336554906      107.7470210248  LPSA33    31             23.0000000000
     36510      1183  BMANNA    C6            -45.1431147540      -31.4225265138      105.0400284261  LPSA33    31             23.0000000000
     36511      1183  BMANNA    H61           -45.6836371330      -32.3512605204      105.2575169079  LPSA33    31             23.0000000000
     36512      1183  BMANNA    H62           -45.9758796538      -30.7707446918      104.7558029203  LPSA33    31             23.0000000000
     36513      1183  BMANNA    O6            -44.3842031238      -31.5266593190      103.8822716185  LPSA33    31             23.0000000000
     36514      1183  BMANNA    HO6           -43.7075108556      -32.2330833692      103.8291255509  LPSA33    31             23.0000000000
     36515      1184  BGLCNA    C1            -39.1598787617      -28.0475518054      108.6073449542  LPSA33    32             23.0000000000
     36516      1184  BGLCNA    H1            -40.2401193748      -28.1046914954      108.4487448530  LPSA33    32             23.0000000000
     36517      1184  BGLCNA    C5            -39.6793544025      -26.1157914863      109.9298370677  LPSA33    32             23.0000000000
     36518      1184  BGLCNA    H5            -40.7342613891      -26.2213626779      109.7072008563  LPSA33    32             23.0000000000
     36519      1184  BGLCNA    O5            -38.8280328799      -26.6867836519      108.9110453338  LPSA33    32             23.0000000000
     36520      1184  BGLCNA    C2            -38.9337129252      -28.8745611615      109.8463179148  LPSA33    32             23.0000000000
     36521      1184  BGLCNA    H2            -37.8810084675      -28.6983869660      110.1530183134  LPSA33    32             23.0000000000
     36522      1184  BGLCNA    N             -39.1410266359      -30.2858262811      109.5800083615  LPSA33    32             23.0000000000
     36523      1184  BGLCNA    HN            -39.8285574623      -30.4605430576      108.8976410494  LPSA33    32             23.0000000000
     36524      1184  BGLCNA    C             -38.4292594015      -31.3006593393      110.1025797595  LPSA33    32             23.0000000000
     36525      1184  BGLCNA    O             -37.5380976134      -31.1778903173      110.9283590029  LPSA33    32             23.0000000000
     36526      1184  BGLCNA    CT            -38.8259914800      -32.6407633353      109.5565286377  LPSA33    32             23.0000000000
     36527      1184  BGLCNA    HT1           -39.3963463195      -32.4532675595      108.6269053096  LPSA33    32             23.0000000000
     36528      1184  BGLCNA    HT2           -39.4812982196      -33.2217271004      110.2219220067  LPSA33    32             23.0000000000
     36529      1184  BGLCNA    HT3           -37.9336733907      -33.2648844904      109.3469768800  LPSA33    32             23.0000000000
     36530      1184  BGLCNA    C3            -39.8570457628      -28.3491786298      110.9103945485  LPSA33    32             23.0000000000
     36531      1184  BGLCNA    H3            -40.8594344373      -28.3503076075      110.4812348396  LPSA33    32             23.0000000000
     36532      1184  BGLCNA    O3            -39.7470445268      -29.1814977871      112.0661592214  LPSA33    32             23.0000000000
     36533      1184  BGLCNA    C4            -39.5405840476      -26.9104663962      111.1887140833  LPSA33    32             23.0000000000
     36534      1184  BGLCNA    H4            -38.5396621654      -26.8755775122      111.5101931127  LPSA33    32             23.0000000000
     36535      1184  BGLCNA    O4            -40.2742196507      -26.3276344996      112.2440878019  LPSA33    32             23.0000000000
     36536      1184  BGLCNA    HO4           -39.7987235487      -26.4956695742      113.0710564628  LPSA33    32             23.0000000000
     36537      1184  BGLCNA    C6            -39.4191593418      -24.6276104301      110.0613640699  LPSA33    32             23.0000000000
     36538      1184  BGLCNA    H61           -40.1552889692      -24.1398987154      110.7330759584  LPSA33    32             23.0000000000
     36539      1184  BGLCNA    H62           -38.4096566257      -24.4788621601      110.5048724083  LPSA33    32             23.0000000000
     36540      1184  BGLCNA    O6            -39.5229813108      -23.9521685297      108.8079101606  LPSA33    32             23.0000000000
     36541      1184  BGLCNA    HO6           -40.1638634121      -24.4099621745      108.2376940407  LPSA33    32             23.0000000000
     36542      1185  AGAL      C1            -40.9692495001      -29.3647836354      112.6669038294  LPSA33    33             24.0000000000
     36543      1185  AGAL      H1            -41.5199791926      -28.4385510835      112.6209638112  LPSA33    33             24.0000000000
     36544      1185  AGAL      C5            -41.3221356022      -31.6898147090      112.1077654084  LPSA33    33             24.0000000000
     36545      1185  AGAL      H5            -40.2928165980      -31.5835868358      111.8020671154  LPSA33    33             24.0000000000
     36546      1185  AGAL      O5            -41.7404629645      -30.3731029695      112.0221561866  LPSA33    33             24.0000000000
     36547      1185  AGAL      C2            -40.9590824070      -29.6103106054      114.0989509145  LPSA33    33             24.0000000000
     36548      1185  AGAL      H2            -42.0042173149      -29.4240321091      114.3365301805  LPSA33    33             24.0000000000
     36549      1185  AGAL      O2            -40.4175042007      -28.5117958921      114.8322846939  LPSA33    33             24.0000000000
     36550      1185  AGAL      C3            -40.4281170951      -31.0529024217      114.2031210789  LPSA33    33             24.0000000000
     36551      1185  AGAL      H3            -39.4666230020      -31.0677699624      113.6282377696  LPSA33    33             24.0000000000
     36552      1185  AGAL      O3            -39.8851744288      -31.4001617007      115.4283645485  LPSA33    33             24.0000000000
     36553      1185  AGAL      HO3           -40.5818367681      -31.4007094076      116.0871603945  LPSA33    33             24.0000000000
     36554      1185  AGAL      C4            -41.3600407671      -32.1588896955      113.5204562187  LPSA33    33             24.0000000000
     36555      1185  AGAL      H4            -40.7956754868      -33.0873850280      113.6897987436  LPSA33    33             24.0000000000
     36556      1185  AGAL      O4            -42.6698729103      -32.6625757650      113.9201715601  LPSA33    33             24.0000000000
     36557      1185  AGAL      HO4           -43.3367596036      -32.0303401015      114.2847141744  LPSA33    33             24.0000000000
     36558      1185  AGAL      C6            -42.0835457116      -32.3584266028      111.0134809115  LPSA33    33             24.0000000000
     36559      1185  AGAL      H61           -41.9543939293      -32.0147128999      110.0020025440  LPSA33    33             24.0000000000
     36560      1185  AGAL      H62           -42.1474226823      -33.3973233569      110.7996328154  LPSA33    33             24.0000000000
     36561      1185  AGAL      O6            -43.2981442567      -32.7247875376      111.4058466836  LPSA33    33             24.0000000000
     36562      1185  AGAL      HO6           -43.9922852956      -32.2145237780      110.9556363782  LPSA33    33             24.0000000000
     36563      1186  ARHM      C1            -41.1844867374      -28.1257577948      115.9651946406  LPSA33    34             25.0000000000
     36564      1186  ARHM      H1            -41.5057007424      -28.9500785617      116.5307384377  LPSA33    34             25.0000000000
     36565      1186  ARHM      C5            -42.3441530148      -26.4328942083      114.9922097295  LPSA33    34             25.0000000000
     36566      1186  ARHM      H5            -41.8872831721      -26.7238221865      114.0652178064  LPSA33    34             25.0000000000
     36567      1186  ARHM      O5            -42.4884324813      -27.6023452528      115.7404196660  LPSA33    34             25.0000000000
     36568      1186  ARHM      C2            -40.2705576251      -27.2158248237      116.7255325323  LPSA33    34             25.0000000000
     36569      1186  ARHM      H2            -39.2661075774      -27.6656088325      116.7075059286  LPSA33    34             25.0000000000
     36570      1186  ARHM      O2            -40.2572404353      -27.1044403098      118.1139107704  LPSA33    34             25.0000000000
     36571      1186  ARHM      C3            -40.2021522887      -25.9384826429      115.9702034749  LPSA33    34             25.0000000000
     36572      1186  ARHM      H3            -39.8142331410      -26.1372152166      114.9492718419  LPSA33    34             25.0000000000
     36573      1186  ARHM      O3            -39.3967874921      -24.9586639433      116.6120381215  LPSA33    34             25.0000000000
     36574      1186  ARHM      HO3           -39.0128012212      -24.4824650334      115.8690072220  LPSA33    34             25.0000000000
     36575      1186  ARHM      C4            -41.5474843396      -25.4024367845      115.7649657943  LPSA33    34             25.0000000000
     36576      1186  ARHM      H4            -42.0688354788      -25.2701616464      116.7530484693  LPSA33    34             25.0000000000
     36577      1186  ARHM      O4            -41.4954289140      -24.1941659630      115.0079226498  LPSA33    34             25.0000000000
     36578      1186  ARHM      HO4           -41.4229767427      -23.4589228905      115.6409332315  LPSA33    34             25.0000000000
     36579      1186  ARHM      C6            -43.5827139679      -25.7891404057      114.5981759221  LPSA33    34             25.0000000000
     36580      1186  ARHM      H61           -43.6954001332      -25.3425667045      115.5812909027  LPSA33    34             25.0000000000
     36581      1186  ARHM      H62           -43.4963462548      -24.8756244252      114.0202876869  LPSA33    34             25.0000000000
     36582      1186  ARHM      H63           -44.4460247028      -26.3249105283      114.1867459394  LPSA33    34             25.0000000000
     36583      1187  ARHM      C1            -40.7344949795      -28.1349172320      118.9854722830  LPSA33    35             26.0000000000
     36584      1187  ARHM      H1            -39.9504060542      -28.9222657374      118.7951545540  LPSA33    35             26.0000000000
     36585      1187  ARHM      C5            -43.6488041388      -27.9757091783      119.0913671406  LPSA33    35             26.0000000000
     36586      1187  ARHM      H5            -43.9115898396      -27.1524513398      118.2846864936  LPSA33    35             26.0000000000
     36587      1187  ARHM      O5            -42.2325897752      -28.6889884113      118.8255340937  LPSA33    35             26.0000000000
     36588      1187  ARHM      C2            -40.6806770698      -27.6429439323      120.6283376719  LPSA33    35             26.0000000000
     36589      1187  ARHM      H2            -39.6454818243      -27.1591628828      120.7876876126  LPSA33    35             26.0000000000
     36590      1187  ARHM      O2            -40.8663013940      -28.7702180409      121.4104187221  LPSA33    35             26.0000000000
     36591      1187  ARHM      C3            -41.8783225204      -26.5750780553      121.2029321113  LPSA33    35             26.0000000000
     36592      1187  ARHM      H3            -41.5557775543      -25.5396094307      120.8500566028  LPSA33    35             26.0000000000
     36593      1187  ARHM      O3            -42.0174625284      -25.9848635676      122.4189653230  LPSA33    35             26.0000000000
     36594      1187  ARHM      HO3           -41.2243478492      -26.4117443770      122.7284989204  LPSA33    35             26.0000000000
     36595      1187  ARHM      C4            -43.3038533671      -27.4455805930      120.7672759838  LPSA33    35             26.0000000000
     36596      1187  ARHM      H4            -43.4368572187      -28.2277256122      121.5312154921  LPSA33    35             26.0000000000
     36597      1187  ARHM      O4            -44.2215290771      -26.3791833477      121.0110648692  LPSA33    35             26.0000000000
     36598      1187  ARHM      HO4           -44.0013173938      -25.5273026991      120.5643955983  LPSA33    35             26.0000000000
     36599      1187  ARHM      C6            -44.9732118526      -28.5754214902      118.7312237555  LPSA33    35             26.0000000000
     36600      1187  ARHM      H61           -44.9749070920      -28.8175501154      117.6278512854  LPSA33    35             26.0000000000
     36601      1187  ARHM      H62           -44.9563824704      -29.4235353756      119.3851400313  LPSA33    35             26.0000000000
     36602      1187  ARHM      H63           -45.7344894080      -27.8220588543      119.0202231272  LPSA33    35             26.0000000000
     36603      1188  BMANNA    C1            -39.7710626291      -29.6001893966      121.4942111061  LPSA33    36             27.0000000000
     36604      1188  BMANNA    H1            -38.8585039450      -29.0673120962      121.1432470926  LPSA33    36             27.0000000000
     36605      1188  BMANNA    C5            -38.7400177047      -31.5361397615      120.7137477339  LPSA33    36             27.0000000000
     36606      1188  BMANNA    H5            -37.8788156730      -30.8808848070      120.4368810799  LPSA33    36             27.0000000000
     36607      1188  BMANNA    O5            -39.9292581656      -30.7386699357      120.6640921062  LPSA33    36             27.0000000000
     36608      1188  BMANNA    C2            -39.6051059163      -30.0123348920      122.9408906976  LPSA33    36             27.0000000000
     36609      1188  BMANNA    H2            -39.4430364852      -29.0557738877      123.4770120629  LPSA33    36             27.0000000000
     36610      1188  BMANNA    N             -40.7235109642      -30.7034749775      123.5952233509  LPSA33    36             27.0000000000
     36611      1188  BMANNA    HN            -41.3007864557      -31.2145947932      122.9685253553  LPSA33    36             27.0000000000
     36612      1188  BMANNA    C             -40.9596187110      -30.6580868103      124.9679734031  LPSA33    36             27.0000000000
     36613      1188  BMANNA    O             -40.3890028117      -29.8418059675      125.6883666968  LPSA33    36             27.0000000000
     36614      1188  BMANNA    CT            -41.9605944404      -31.6419047867      125.6297502408  LPSA33    36             27.0000000000
     36615      1188  BMANNA    HT1           -42.0584812682      -32.5493947898      125.0245586538  LPSA33    36             27.0000000000
     36616      1188  BMANNA    HT2           -43.0018631735      -31.3158668381      125.7539096215  LPSA33    36             27.0000000000
     36617      1188  BMANNA    HT3           -41.8853550264      -31.7120221301      126.7276463590  LPSA33    36             27.0000000000
     36618      1188  BMANNA    C3            -38.3523917398      -30.8185573637      123.0165425103  LPSA33    36             27.0000000000
     36619      1188  BMANNA    H3            -37.4877052147      -30.2086766116      122.6567573199  LPSA33    36             27.0000000000
     36620      1188  BMANNA    O3            -38.1061909961      -31.2344418290      124.3477395512  LPSA33    36             27.0000000000
     36621      1188  BMANNA    HO3           -37.3106213896      -30.8517119940      124.7314819726  LPSA33    36             27.0000000000
     36622      1188  BMANNA    C4            -38.5075248687      -32.0177755126      122.1261186537  LPSA33    36             27.0000000000
     36623      1188  BMANNA    H4            -39.3649458935      -32.6277977991      122.4592987797  LPSA33    36             27.0000000000
     36624      1188  BMANNA    O4            -37.3928919863      -32.8784786537      122.2283551310  LPSA33    36             27.0000000000
     36625      1188  BMANNA    HO4           -37.2699789330      -32.9574617821      123.1888661952  LPSA33    36             27.0000000000
     36626      1188  BMANNA    C6            -38.7465592954      -32.6254927332      119.6741730530  LPSA33    36             27.0000000000
     36627      1188  BMANNA    H61           -38.9160104344      -32.2027459215      118.6649949712  LPSA33    36             27.0000000000
     36628      1188  BMANNA    H62           -37.7429203981      -33.1013158250      119.6778022598  LPSA33    36             27.0000000000
     36629      1188  BMANNA    O6            -39.7278937538      -33.6263575047      119.9075897324  LPSA33    36             27.0000000000
     36630      1188  BMANNA    HO6           -39.3783914306      -34.2460833925      120.5523545491  LPSA33    36             27.0000000000
     36631      1189  ECLIPA    HB6S          -27.6395073462      -38.5293498518       20.4228499626  LPSA34    1               0.0000000000
     36632      1189  ECLIPA    OB6           -26.0843192239      -38.1316058866       21.7246559167  LPSA34    1               0.0000000000
     36633      1189  ECLIPA    CB6           -26.9867439196      -37.6746284982       20.6978961242  LPSA34    1               0.0000000000
     36634      1189  ECLIPA    HB6R          -27.6370062002      -36.8616750147       21.0958902117  LPSA34    1               0.0000000000
     36635      1189  ECLIPA    CB5           -26.3220465378      -37.1341542283       19.4345835774  LPSA34    1               0.0000000000
     36636      1189  ECLIPA    OB5           -25.4600263610      -38.1882357093       18.9654947997  LPSA34    1               0.0000000000
     36637      1189  ECLIPA    HB5           -25.7359602317      -36.2444675463       19.7485699916  LPSA34    1               0.0000000000
     36638      1189  ECLIPA    CB1           -24.7510281572      -37.8300533801       17.7823378143  LPSA34    1               0.0000000000
     36639      1189  ECLIPA    HB1           -24.1511956971      -36.9117149148       17.9575394256  LPSA34    1               0.0000000000
     36640      1189  ECLIPA    OA6           -23.8414269505      -38.8105948826       17.3490353592  LPSA34    1               0.0000000000
     36641      1189  ECLIPA    CA6           -24.2809008235      -40.1698420260       17.5667975268  LPSA34    1               0.0000000000
     36642      1189  ECLIPA    HA6R          -25.3777662766      -40.2479178290       17.7579794000  LPSA34    1               0.0000000000
     36643      1189  ECLIPA    HA6S          -23.7372686549      -40.5772929612       18.4515949471  LPSA34    1               0.0000000000
     36644      1189  ECLIPA    CB4           -27.3233468163      -36.7310200491       18.3306735267  LPSA34    1               0.0000000000
     36645      1189  ECLIPA    HB4           -27.9992313077      -37.5768878693       18.0521655782  LPSA34    1               0.0000000000
     36646      1189  ECLIPA    OB4           -28.0299849694      -35.5822872347       18.8258841183  LPSA34    1               0.0000000000
     36647      1189  ECLIPA    PB            -29.6138229157      -35.6967940431       19.3081847381  LPSA34    1               0.0000000000
     36648      1189  ECLIPA    OPB4          -29.8278921510      -34.7474362700       20.4868166072  LPSA34    1               0.0000000000
     36649      1189  ECLIPA    OPB3          -29.7656833806      -37.1697679614       19.6898841307  LPSA34    1               0.0000000000
     36650      1189  ECLIPA    OPB2          -30.4064866031      -35.2707378625       18.0817421227  LPSA34    1               0.0000000000
     36651      1189  ECLIPA    CB3           -26.5588300683      -36.3383859639       17.0835269283  LPSA34    1               0.0000000000
     36652      1189  ECLIPA    OB3           -27.3648143272      -36.0420023783       15.9391278570  LPSA34    1               0.0000000000
     36653      1189  ECLIPA    HB3           -25.8562719715      -35.5065388781       17.3291243834  LPSA34    1               0.0000000000
     36654      1189  ECLIPA    C71           -27.8006284690      -34.8024411360       15.7755272131  LPSA34    1               0.0000000000
     36655      1189  ECLIPA    O71           -27.2353635764      -33.8293920935       16.2548905744  LPSA34    1               0.0000000000
     36656      1189  ECLIPA    C72           -28.4825953235      -34.7319646499       14.3821265766  LPSA34    1               0.0000000000
     36657      1189  ECLIPA    H72R          -27.7983295360      -35.1197100959       13.5993140609  LPSA34    1               0.0000000000
     36658      1189  ECLIPA    H72S          -28.7413951183      -33.6759454523       14.1673986232  LPSA34    1               0.0000000000
     36659      1189  ECLIPA    CB2           -25.6935911141      -37.5082259297       16.6632335024  LPSA34    1               0.0000000000
     36660      1189  ECLIPA    HB2           -26.3639121762      -38.4000072362       16.5098943513  LPSA34    1               0.0000000000
     36661      1189  ECLIPA    NB2           -24.9417177433      -37.1799290463       15.4552523088  LPSA34    1               0.0000000000
     36662      1189  ECLIPA    HNB2          -24.0445669747      -36.7827137294       15.5419038504  LPSA34    1               0.0000000000
     36663      1189  ECLIPA    CA4           -22.5753811288      -40.7216726748       15.8093846513  LPSA34    1               0.0000000000
     36664      1189  ECLIPA    HA4           -22.5707938574      -39.6423354403       15.5309225630  LPSA34    1               0.0000000000
     36665      1189  ECLIPA    OA4           -21.5953581846      -40.9507350321       16.8236970486  LPSA34    1               0.0000000000
     36666      1189  ECLIPA    HOA4          -21.9397549540      -40.5842061594       17.6417048388  LPSA34    1               0.0000000000
     36667      1189  ECLIPA    CA5           -23.9566128390      -41.0139430883       16.3493521275  LPSA34    1               0.0000000000
     36668      1189  ECLIPA    HA5           -24.1247553085      -42.0936715018       16.5790930899  LPSA34    1               0.0000000000
     36669      1189  ECLIPA    OA5           -24.8923784701      -40.6228103805       15.3606891454  LPSA34    1               0.0000000000
     36670      1189  ECLIPA    CA1           -24.7611586421      -41.3202980916       14.1158549302  LPSA34    1               0.0000000000
     36671      1189  ECLIPA    HA1           -25.4367622504      -40.7551222482       13.4421729023  LPSA34    1               0.0000000000
     36672      1189  ECLIPA    OA1           -25.1642267527      -42.6788086893       14.1188332171  LPSA34    1               0.0000000000
     36673      1189  ECLIPA    OPA2          -26.3758614200      -43.7775460743       15.9946494578  LPSA34    1               0.0000000000
     36674      1189  ECLIPA    OPA3          -27.4563208633      -41.7754629906       14.8401014428  LPSA34    1               0.0000000000
     36675      1189  ECLIPA    OPA4          -27.2763004135      -43.9766774384       13.6132547257  LPSA34    1               0.0000000000
     36676      1189  ECLIPA    PA            -26.6715369455      -43.0688187202       14.6805313920  LPSA34    1               0.0000000000
     36677      1189  ECLIPA    CA3           -22.2980469102      -41.4729375622       14.5278395972  LPSA34    1               0.0000000000
     36678      1189  ECLIPA    HA3           -22.3278783964      -42.5690531035       14.7448198038  LPSA34    1               0.0000000000
     36679      1189  ECLIPA    OA3           -20.9409229779      -41.1121086658       14.1885474812  LPSA34    1               0.0000000000
     36680      1189  ECLIPA    C31           -20.7538964774      -39.9644516034       13.5093582770  LPSA34    1               0.0000000000
     36681      1189  ECLIPA    O31           -20.7918064697      -39.9256413397       12.2928454122  LPSA34    1               0.0000000000
     36682      1189  ECLIPA    C32           -19.7940220586      -39.0578891839       14.2849759586  LPSA34    1               0.0000000000
     36683      1189  ECLIPA    H32R          -18.8407120588      -39.0300716834       13.7126051762  LPSA34    1               0.0000000000
     36684      1189  ECLIPA    H32S          -19.5893054910      -39.5054514795       15.2764118358  LPSA34    1               0.0000000000
     36685      1189  ECLIPA    CA2           -23.3984999406      -41.0543455614       13.5339698603  LPSA34    1               0.0000000000
     36686      1189  ECLIPA    HA2           -23.3256950777      -39.9587911793       13.3875623861  LPSA34    1               0.0000000000
     36687      1189  ECLIPA    NA2           -23.3032415807      -41.6004692372       12.1985852492  LPSA34    1               0.0000000000
     36688      1189  ECLIPA    HNA2          -22.4701414628      -42.1430792863       12.0784086290  LPSA34    1               0.0000000000
     36689      1189  ECLIPA    C73           -29.7557197843      -35.6040780338       14.3523229913  LPSA34    1               0.0000000000
     36690      1189  ECLIPA    H73R          -30.3447046289      -35.3884714517       15.2814752263  LPSA34    1               0.0000000000
     36691      1189  ECLIPA    O73           -29.3056401372      -36.9560115768       14.2658011230  LPSA34    1               0.0000000000
     36692      1189  ECLIPA    C81           -29.9694170362      -37.8996801176       14.9347893813  LPSA34    1               0.0000000000
     36693      1189  ECLIPA    O81           -31.0095183871      -37.7099703133       15.5386560800  LPSA34    1               0.0000000000
     36694      1189  ECLIPA    C82           -29.5830153528      -39.2676756093       14.3388461015  LPSA34    1               0.0000000000
     36695      1189  ECLIPA    H82R          -30.1402339694      -40.0669652289       14.8685481788  LPSA34    1               0.0000000000
     36696      1189  ECLIPA    H82S          -28.5094764988      -39.4477557092       14.5587428268  LPSA34    1               0.0000000000
     36697      1189  ECLIPA    C83           -29.8072496290      -39.3718211189       12.8085824864  LPSA34    1               0.0000000000
     36698      1189  ECLIPA    H83R          -28.9471454672      -38.8885778613       12.2894017965  LPSA34    1               0.0000000000
     36699      1189  ECLIPA    H83S          -30.7292662905      -38.8209812127       12.5371059169  LPSA34    1               0.0000000000
     36700      1189  ECLIPA    C84           -29.8558742399      -40.8206252148       12.2916888321  LPSA34    1               0.0000000000
     36701      1189  ECLIPA    H84R          -30.7928107290      -41.3274719529       12.6008115152  LPSA34    1               0.0000000000
     36702      1189  ECLIPA    H84S          -28.9895638187      -41.3541789180       12.7647831238  LPSA34    1               0.0000000000
     36703      1189  ECLIPA    C85           -29.6565165181      -40.9121588098       10.7703825521  LPSA34    1               0.0000000000
     36704      1189  ECLIPA    H85R          -28.8335517779      -40.1955900751       10.5447335901  LPSA34    1               0.0000000000
     36705      1189  ECLIPA    H85S          -30.5570702276      -40.5470424489       10.2349418578  LPSA34    1               0.0000000000
     36706      1189  ECLIPA    C86           -29.1675765139      -42.2959968974       10.2864499660  LPSA34    1               0.0000000000
     36707      1189  ECLIPA    H86R          -30.0187520493      -42.9478067313        9.9919711563  LPSA34    1               0.0000000000
     36708      1189  ECLIPA    H86S          -28.6514541974      -42.8160241984       11.1303722938  LPSA34    1               0.0000000000
     36709      1189  ECLIPA    C87           -28.1192868478      -42.1955654996        9.1594418693  LPSA34    1               0.0000000000
     36710      1189  ECLIPA    H87R          -27.8621085144      -43.2140312557        8.7968944537  LPSA34    1               0.0000000000
     36711      1189  ECLIPA    H87S          -27.1788686835      -41.7671356810        9.5759439738  LPSA34    1               0.0000000000
     36712      1189  ECLIPA    C88           -28.5645576259      -41.2771722163        8.0198919660  LPSA34    1               0.0000000000
     36713      1189  ECLIPA    H88R          -28.4625125461      -40.2226034951        8.3498598658  LPSA34    1               0.0000000000
     36714      1189  ECLIPA    H88S          -29.6583893225      -41.4227471369        7.8789960839  LPSA34    1               0.0000000000
     36715      1189  ECLIPA    C89           -27.7721184303      -41.4809534325        6.7146946837  LPSA34    1               0.0000000000
     36716      1189  ECLIPA    H89R          -26.7919549350      -41.9753885796        6.8958162890  LPSA34    1               0.0000000000
     36717      1189  ECLIPA    H89S          -27.5324308169      -40.4968493657        6.2587879966  LPSA34    1               0.0000000000
     36718      1189  ECLIPA    C810          -28.6096634404      -42.2591090700        5.6959127103  LPSA34    1               0.0000000000
     36719      1189  ECLIPA    H810R         -29.6706634989      -42.0322466796        5.9325161163  LPSA34    1               0.0000000000
     36720      1189  ECLIPA    H810S         -28.4389885444      -43.3450235224        5.8647983030  LPSA34    1               0.0000000000
     36721      1189  ECLIPA    C811          -28.3138113228      -41.8958159176        4.2323912604  LPSA34    1               0.0000000000
     36722      1189  ECLIPA    H811R         -28.6493873005      -42.7015508274        3.5382700855  LPSA34    1               0.0000000000
     36723      1189  ECLIPA    H811S         -27.2099289377      -41.7794709904        4.1528679720  LPSA34    1               0.0000000000
     36724      1189  ECLIPA    C812          -28.9206671077      -40.5754369777        3.7389743786  LPSA34    1               0.0000000000
     36725      1189  ECLIPA    H812R         -28.5057685709      -40.3971715854        2.7150799608  LPSA34    1               0.0000000000
     36726      1189  ECLIPA    H812S         -28.6060062546      -39.7490755106        4.4090464845  LPSA34    1               0.0000000000
     36727      1189  ECLIPA    C813          -30.4451269811      -40.5302213328        3.6568325635  LPSA34    1               0.0000000000
     36728      1189  ECLIPA    H813R         -30.7728059460      -41.3074785481        2.9315680078  LPSA34    1               0.0000000000
     36729      1189  ECLIPA    H813S         -30.9245360136      -40.7445348799        4.6378207983  LPSA34    1               0.0000000000
     36730      1189  ECLIPA    C814          -30.9341632667      -39.1670873327        3.1946768761  LPSA34    1               0.0000000000
     36731      1189  ECLIPA    H814R         -30.3178427577      -38.8153273721        2.3376818335  LPSA34    1               0.0000000000
     36732      1189  ECLIPA    H814S         -30.8281453722      -38.3950477306        3.9743015962  LPSA34    1               0.0000000000
     36733      1189  ECLIPA    H814T         -32.0063806143      -39.2308712767        2.8994312454  LPSA34    1               0.0000000000
     36734      1189  ECLIPA    C74           -30.6809712801      -35.3753710396       13.1248877088  LPSA34    1               0.0000000000
     36735      1189  ECLIPA    H74R          -31.0905241056      -34.3484233703       13.0428513065  LPSA34    1               0.0000000000
     36736      1189  ECLIPA    H74S          -31.5591476041      -36.0388856183       13.3196241346  LPSA34    1               0.0000000000
     36737      1189  ECLIPA    C75           -30.0747169346      -35.8316729112       11.7767531344  LPSA34    1               0.0000000000
     36738      1189  ECLIPA    H75R          -30.9005438355      -36.2884643744       11.1893460483  LPSA34    1               0.0000000000
     36739      1189  ECLIPA    H75S          -29.3324553659      -36.6368430870       11.9697681334  LPSA34    1               0.0000000000
     36740      1189  ECLIPA    C76           -29.3903075868      -34.7340510563       10.9458580394  LPSA34    1               0.0000000000
     36741      1189  ECLIPA    H76R          -28.3851258280      -34.5286784351       11.3766706322  LPSA34    1               0.0000000000
     36742      1189  ECLIPA    H76S          -29.9693434095      -33.7838817892       10.9896464663  LPSA34    1               0.0000000000
     36743      1189  ECLIPA    C77           -29.2095411989      -35.0778042969        9.4538817534  LPSA34    1               0.0000000000
     36744      1189  ECLIPA    H77R          -30.2136701948      -35.1691010600        8.9908197944  LPSA34    1               0.0000000000
     36745      1189  ECLIPA    H77S          -28.7254889571      -36.0573476600        9.3120894900  LPSA34    1               0.0000000000
     36746      1189  ECLIPA    C78           -28.3021921266      -34.0190958706        8.8005835875  LPSA34    1               0.0000000000
     36747      1189  ECLIPA    H78R          -28.7088122362      -33.0185573977        9.0667022037  LPSA34    1               0.0000000000
     36748      1189  ECLIPA    H78S          -27.3197284133      -34.1068499623        9.3200331506  LPSA34    1               0.0000000000
     36749      1189  ECLIPA    C79           -27.9934501212      -34.1571870428        7.2913293651  LPSA34    1               0.0000000000
     36750      1189  ECLIPA    H79R          -27.0352258945      -34.7142055549        7.1709170065  LPSA34    1               0.0000000000
     36751      1189  ECLIPA    H79S          -27.8453460323      -33.1542675483        6.8319760885  LPSA34    1               0.0000000000
     36752      1189  ECLIPA    C710          -29.0808728797      -34.8191111872        6.4486829296  LPSA34    1               0.0000000000
     36753      1189  ECLIPA    H710R         -29.3392251582      -35.8155821150        6.8637137388  LPSA34    1               0.0000000000
     36754      1189  ECLIPA    H710S         -29.9845977905      -34.1717327908        6.4855168673  LPSA34    1               0.0000000000
     36755      1189  ECLIPA    C711          -28.6840328085      -35.0129861551        4.9821838832  LPSA34    1               0.0000000000
     36756      1189  ECLIPA    H711R         -28.4436087969      -34.0248467903        4.5310124018  LPSA34    1               0.0000000000
     36757      1189  ECLIPA    H711S         -27.7879083189      -35.6725509578        4.9193222979  LPSA34    1               0.0000000000
     36758      1189  ECLIPA    C712          -29.8338775196      -35.6842182808        4.2302647936  LPSA34    1               0.0000000000
     36759      1189  ECLIPA    H712R         -30.7132331021      -35.0043214325        4.2559946378  LPSA34    1               0.0000000000
     36760      1189  ECLIPA    H712S         -30.1043779498      -36.5905463001        4.8175987317  LPSA34    1               0.0000000000
     36761      1189  ECLIPA    C713          -29.4822134861      -36.0860886622        2.7928279737  LPSA34    1               0.0000000000
     36762      1189  ECLIPA    H713R         -28.6446354274      -36.8235215178        2.8367068731  LPSA34    1               0.0000000000
     36763      1189  ECLIPA    H713S         -30.3561351765      -36.5919598046        2.3181587939  LPSA34    1               0.0000000000
     36764      1189  ECLIPA    C714          -29.1095335082      -34.9199782347        1.8786959059  LPSA34    1               0.0000000000
     36765      1189  ECLIPA    H714R         -29.9649125664      -34.2128281415        1.8006220406  LPSA34    1               0.0000000000
     36766      1189  ECLIPA    H714S         -28.2038096155      -34.3811268715        2.2277032971  LPSA34    1               0.0000000000
     36767      1189  ECLIPA    H714T         -28.9084985166      -35.3181401808        0.8634209864  LPSA34    1               0.0000000000
     36768      1189  ECLIPA    C51           -25.4597966618      -37.3827653774       14.2345895657  LPSA34    1               0.0000000000
     36769      1189  ECLIPA    O51           -26.4467411321      -38.0772085659       14.0751496676  LPSA34    1               0.0000000000
     36770      1189  ECLIPA    C52           -24.8167591644      -36.6790332285       13.0572767795  LPSA34    1               0.0000000000
     36771      1189  ECLIPA    H52R          -25.2645222146      -35.6677868243       12.9301288176  LPSA34    1               0.0000000000
     36772      1189  ECLIPA    H52S          -23.7409796680      -36.5561350196       13.2483828946  LPSA34    1               0.0000000000
     36773      1189  ECLIPA    C53           -25.0259995876      -37.4929462824       11.7619492711  LPSA34    1               0.0000000000
     36774      1189  ECLIPA    H53R          -25.0070438096      -38.5892137436       11.9846997301  LPSA34    1               0.0000000000
     36775      1189  ECLIPA    O53           -23.9907594787      -37.0756923634       10.8521899267  LPSA34    1               0.0000000000
     36776      1189  ECLIPA    C61           -23.0476333200      -37.9522869654       10.5258385130  LPSA34    1               0.0000000000
     36777      1189  ECLIPA    O61           -23.0094638340      -39.1141249013       10.8483943996  LPSA34    1               0.0000000000
     36778      1189  ECLIPA    C62           -22.0225918909      -37.3014878182        9.5916062011  LPSA34    1               0.0000000000
     36779      1189  ECLIPA    H62R          -21.2980390277      -36.7463751368       10.2150437027  LPSA34    1               0.0000000000
     36780      1189  ECLIPA    H62S          -22.5841318084      -36.5526290309        9.0029178172  LPSA34    1               0.0000000000
     36781      1189  ECLIPA    C63           -21.2875330364      -38.3582733782        8.7069189984  LPSA34    1               0.0000000000
     36782      1189  ECLIPA    H63R          -22.0523992825      -39.0386979735        8.2734971924  LPSA34    1               0.0000000000
     36783      1189  ECLIPA    H63S          -20.5942200034      -38.9694250228        9.3312810388  LPSA34    1               0.0000000000
     36784      1189  ECLIPA    C64           -20.4964141553      -37.7957446137        7.5089231281  LPSA34    1               0.0000000000
     36785      1189  ECLIPA    H64R          -19.9583193565      -38.6215379452        6.9877588782  LPSA34    1               0.0000000000
     36786      1189  ECLIPA    H64S          -19.7513433862      -37.0823974688        7.9217935973  LPSA34    1               0.0000000000
     36787      1189  ECLIPA    C65           -21.4355635530      -37.0819826871        6.5303514910  LPSA34    1               0.0000000000
     36788      1189  ECLIPA    H65R          -21.8761931634      -36.2591294556        7.1365446550  LPSA34    1               0.0000000000
     36789      1189  ECLIPA    H65S          -22.2591239579      -37.7594188453        6.2174367848  LPSA34    1               0.0000000000
     36790      1189  ECLIPA    C66           -20.8374800562      -36.4438982955        5.2632973557  LPSA34    1               0.0000000000
     36791      1189  ECLIPA    H66R          -20.0473753284      -35.7170001728        5.5499614862  LPSA34    1               0.0000000000
     36792      1189  ECLIPA    H66S          -21.6809053011      -35.8808899379        4.7954423408  LPSA34    1               0.0000000000
     36793      1189  ECLIPA    C67           -20.2844996190      -37.3753204466        4.1727587796  LPSA34    1               0.0000000000
     36794      1189  ECLIPA    H67R          -19.5314160441      -38.0890813780        4.5769013470  LPSA34    1               0.0000000000
     36795      1189  ECLIPA    H67S          -19.7949388091      -36.7618209158        3.3787096077  LPSA34    1               0.0000000000
     36796      1189  ECLIPA    C68           -21.3192866105      -38.2597088229        3.4933623075  LPSA34    1               0.0000000000
     36797      1189  ECLIPA    H68R          -22.1968182849      -37.6993645357        3.1059895869  LPSA34    1               0.0000000000
     36798      1189  ECLIPA    H68S          -21.6639771879      -38.9671091986        4.2767715430  LPSA34    1               0.0000000000
     36799      1189  ECLIPA    C69           -20.7077361393      -38.9607641309        2.2815304056  LPSA34    1               0.0000000000
     36800      1189  ECLIPA    H69R          -19.6210441169      -39.1559849465        2.3844855304  LPSA34    1               0.0000000000
     36801      1189  ECLIPA    H69S          -20.7934740105      -38.2226384653        1.4570420023  LPSA34    1               0.0000000000
     36802      1189  ECLIPA    C610          -21.3998596169      -40.2845450428        1.9552150009  LPSA34    1               0.0000000000
     36803      1189  ECLIPA    H610R         -22.5019741403      -40.1283236816        2.0150779031  LPSA34    1               0.0000000000
     36804      1189  ECLIPA    H610S         -21.1205564390      -41.0368095601        2.7184341946  LPSA34    1               0.0000000000
     36805      1189  ECLIPA    C611          -20.9718744061      -40.8055253678        0.5893253725  LPSA34    1               0.0000000000
     36806      1189  ECLIPA    H611R         -19.8629353124      -40.8721860654        0.5549628399  LPSA34    1               0.0000000000
     36807      1189  ECLIPA    H611S         -21.3519643264      -41.8311352654        0.3889382164  LPSA34    1               0.0000000000
     36808      1189  ECLIPA    C612          -21.4795172508      -39.8785758716       -0.4894938479  LPSA34    1               0.0000000000
     36809      1189  ECLIPA    H612R         -22.5850311587      -39.9299942214       -0.5020667213  LPSA34    1               0.0000000000
     36810      1189  ECLIPA    H612S         -21.2440221624      -38.8222379033       -0.3137830721  LPSA34    1               0.0000000000
     36811      1189  ECLIPA    H612T         -21.0451858610      -40.1394737737       -1.4593798800  LPSA34    1               0.0000000000
     36812      1189  ECLIPA    C54           -26.4108103528      -37.1141220327       11.1707373829  LPSA34    1               0.0000000000
     36813      1189  ECLIPA    H54R          -26.3552388977      -36.0418649846       10.8822787846  LPSA34    1               0.0000000000
     36814      1189  ECLIPA    H54S          -27.1656230537      -37.2099859681       11.9782630655  LPSA34    1               0.0000000000
     36815      1189  ECLIPA    C55           -26.9036157204      -37.9371827759        9.9638756051  LPSA34    1               0.0000000000
     36816      1189  ECLIPA    H55R          -27.9945435576      -37.7794761024        9.8236613118  LPSA34    1               0.0000000000
     36817      1189  ECLIPA    H55S          -26.7824515518      -39.0171826091       10.2005817655  LPSA34    1               0.0000000000
     36818      1189  ECLIPA    C56           -26.1783676951      -37.4843753774        8.6905646687  LPSA34    1               0.0000000000
     36819      1189  ECLIPA    H56R          -25.0893463639      -37.5781354448        8.8600058291  LPSA34    1               0.0000000000
     36820      1189  ECLIPA    H56S          -26.3909205894      -36.4065351209        8.5045670519  LPSA34    1               0.0000000000
     36821      1189  ECLIPA    C57           -26.4395244225      -38.2623633766        7.4049949875  LPSA34    1               0.0000000000
     36822      1189  ECLIPA    H57R          -27.5253306378      -38.3299358719        7.1806919940  LPSA34    1               0.0000000000
     36823      1189  ECLIPA    H57S          -26.0699023229      -39.3048324805        7.5443246437  LPSA34    1               0.0000000000
     36824      1189  ECLIPA    C58           -25.6579554202      -37.6115627123        6.2460453091  LPSA34    1               0.0000000000
     36825      1189  ECLIPA    H58R          -25.8043378462      -36.5117106218        6.2169807997  LPSA34    1               0.0000000000
     36826      1189  ECLIPA    H58S          -24.5743533336      -37.7586374823        6.4619013275  LPSA34    1               0.0000000000
     36827      1189  ECLIPA    C59           -26.0584721878      -38.1936414855        4.8852145825  LPSA34    1               0.0000000000
     36828      1189  ECLIPA    H59R          -27.1548759189      -38.0783534757        4.7194003789  LPSA34    1               0.0000000000
     36829      1189  ECLIPA    H59S          -25.8463157187      -39.2833265551        4.9626832442  LPSA34    1               0.0000000000
     36830      1189  ECLIPA    C510          -25.4041697311      -37.5120848826        3.6693546961  LPSA34    1               0.0000000000
     36831      1189  ECLIPA    H510R         -24.3127175732      -37.3658985191        3.8243532125  LPSA34    1               0.0000000000
     36832      1189  ECLIPA    H510S         -25.8542600147      -36.5008791109        3.5221616039  LPSA34    1               0.0000000000
     36833      1189  ECLIPA    C511          -25.6153835170      -38.3014286243        2.3802957919  LPSA34    1               0.0000000000
     36834      1189  ECLIPA    H511R         -24.8556997982      -39.1147907728        2.3187287739  LPSA34    1               0.0000000000
     36835      1189  ECLIPA    H511S         -26.6274627548      -38.7210221264        2.2531565994  LPSA34    1               0.0000000000
     36836      1189  ECLIPA    C512          -25.3823449439      -37.4994384559        1.1704371416  LPSA34    1               0.0000000000
     36837      1189  ECLIPA    H512R         -25.8335786503      -38.0228090041        0.2840816916  LPSA34    1               0.0000000000
     36838      1189  ECLIPA    H512S         -25.7880480162      -36.4483582309        1.1735472662  LPSA34    1               0.0000000000
     36839      1189  ECLIPA    C513          -23.9376021409      -37.5369227603        0.9517453004  LPSA34    1               0.0000000000
     36840      1189  ECLIPA    H513R         -23.3205427126      -38.4495828230        0.7365808365  LPSA34    1               0.0000000000
     36841      1189  ECLIPA    H513S         -23.3344758308      -36.7984653304        1.5654163659  LPSA34    1               0.0000000000
     36842      1189  ECLIPA    C514          -24.1164759113      -37.0236924689       -0.3243176073  LPSA34    1               0.0000000000
     36843      1189  ECLIPA    H514R         -24.6928383138      -36.0624540181       -0.4141909818  LPSA34    1               0.0000000000
     36844      1189  ECLIPA    H514S         -23.0092834026      -36.8811194116       -0.2413908615  LPSA34    1               0.0000000000
     36845      1189  ECLIPA    H514T         -24.3387655569      -37.4981264181       -1.2926770490  LPSA34    1               0.0000000000
     36846      1189  ECLIPA    C33           -20.2526361040      -37.5776373262       14.4658257045  LPSA34    1               0.0000000000
     36847      1189  ECLIPA    H33R          -19.3900777963      -37.0080342357       14.8579945687  LPSA34    1               0.0000000000
     36848      1189  ECLIPA    O33           -21.2634952182      -37.5048092518       15.4655113685  LPSA34    1               0.0000000000
     36849      1189  ECLIPA    HO33          -20.8850271024      -37.7114839322       16.3239095127  LPSA34    1               0.0000000000
     36850      1189  ECLIPA    C34           -20.7685722393      -36.8494187942       13.2004878882  LPSA34    1               0.0000000000
     36851      1189  ECLIPA    H34R          -21.6509288135      -37.3967803171       12.8137632752  LPSA34    1               0.0000000000
     36852      1189  ECLIPA    H34S          -19.9845675590      -36.8939559476       12.4119595279  LPSA34    1               0.0000000000
     36853      1189  ECLIPA    C35           -21.1571692524      -35.3637375159       13.4382914697  LPSA34    1               0.0000000000
     36854      1189  ECLIPA    H35R          -20.2843762946      -34.7746885270       13.7649231654  LPSA34    1               0.0000000000
     36855      1189  ECLIPA    H35S          -21.9097953176      -35.3278046895       14.2539588826  LPSA34    1               0.0000000000
     36856      1189  ECLIPA    C36           -21.7551866278      -34.6763693074       12.2007382171  LPSA34    1               0.0000000000
     36857      1189  ECLIPA    H36R          -22.2725787755      -35.4928911667       11.6652993178  LPSA34    1               0.0000000000
     36858      1189  ECLIPA    H36S          -20.9676724313      -34.2617814674       11.5264839985  LPSA34    1               0.0000000000
     36859      1189  ECLIPA    C37           -22.8143202220      -33.6026452490       12.5210749587  LPSA34    1               0.0000000000
     36860      1189  ECLIPA    H37R          -22.2894060622      -32.6326880770       12.6729546297  LPSA34    1               0.0000000000
     36861      1189  ECLIPA    H37S          -23.3111433154      -33.8524574986       13.4833510957  LPSA34    1               0.0000000000
     36862      1189  ECLIPA    C38           -23.9020237493      -33.4271822572       11.4343306328  LPSA34    1               0.0000000000
     36863      1189  ECLIPA    H38R          -24.6353893834      -34.2629766904       11.4312100884  LPSA34    1               0.0000000000
     36864      1189  ECLIPA    H38S          -24.4825736713      -32.5094071220       11.6824450365  LPSA34    1               0.0000000000
     36865      1189  ECLIPA    C39           -23.3020914422      -33.3336118946       10.0232567133  LPSA34    1               0.0000000000
     36866      1189  ECLIPA    H39R          -22.6730217253      -34.2303149879        9.8221103017  LPSA34    1               0.0000000000
     36867      1189  ECLIPA    H39S          -22.6725559890      -32.4160578443        9.9795117180  LPSA34    1               0.0000000000
     36868      1189  ECLIPA    C310          -24.3078263114      -33.2327973862        8.8727829962  LPSA34    1               0.0000000000
     36869      1189  ECLIPA    H310R         -24.7661985703      -32.2220197385        8.9646662771  LPSA34    1               0.0000000000
     36870      1189  ECLIPA    H310S         -25.1076162493      -33.9980851234        8.9582532185  LPSA34    1               0.0000000000
     36871      1189  ECLIPA    C311          -23.6335542093      -33.5089102544        7.5147014971  LPSA34    1               0.0000000000
     36872      1189  ECLIPA    H311R         -22.5915190700      -33.1197364779        7.5275249639  LPSA34    1               0.0000000000
     36873      1189  ECLIPA    H311S         -23.5692123933      -34.6122928982        7.3644355802  LPSA34    1               0.0000000000
     36874      1189  ECLIPA    C312          -24.3952170678      -32.9611669277        6.3015079760  LPSA34    1               0.0000000000
     36875      1189  ECLIPA    H312R         -25.4888468722      -33.0266353073        6.4877399652  LPSA34    1               0.0000000000
     36876      1189  ECLIPA    H312S         -24.1173776496      -31.8912000056        6.1802700693  LPSA34    1               0.0000000000
     36877      1189  ECLIPA    C313          -24.0492676186      -33.7144918455        5.0039079506  LPSA34    1               0.0000000000
     36878      1189  ECLIPA    H313R         -23.0085368697      -33.4165733470        4.7493571815  LPSA34    1               0.0000000000
     36879      1189  ECLIPA    H313S         -24.0513223833      -34.8171984024        5.1749304828  LPSA34    1               0.0000000000
     36880      1189  ECLIPA    C314          -24.9630698087      -33.3953671505        3.8166122864  LPSA34    1               0.0000000000
     36881      1189  ECLIPA    H314R         -24.9214144695      -32.3085061871        3.5963328592  LPSA34    1               0.0000000000
     36882      1189  ECLIPA    H314S         -24.6528870648      -33.9517442065        2.9042473247  LPSA34    1               0.0000000000
     36883      1189  ECLIPA    H314T         -26.0145401762      -33.6736086603        4.0444114256  LPSA34    1               0.0000000000
     36884      1189  ECLIPA    C11           -24.3208261413      -41.7817654053       11.2902678490  LPSA34    1               0.0000000000
     36885      1189  ECLIPA    O11           -25.3081170547      -41.0997664101       11.1490203266  LPSA34    1               0.0000000000
     36886      1189  ECLIPA    C12           -24.1568201184      -42.8980115494       10.3626297961  LPSA34    1               0.0000000000
     36887      1189  ECLIPA    H12R          -24.7161656557      -43.8342089385       10.5575286117  LPSA34    1               0.0000000000
     36888      1189  ECLIPA    H12S          -23.2045674961      -43.0871404510       10.8095199657  LPSA34    1               0.0000000000
     36889      1189  ECLIPA    C13           -24.1661657046      -42.4404407318        8.8905202077  LPSA34    1               0.0000000000
     36890      1189  ECLIPA    H13R          -24.9992449440      -41.7955547413        8.6392521478  LPSA34    1               0.0000000000
     36891      1189  ECLIPA    O13           -24.6217692451      -43.5685089786        8.1632093969  LPSA34    1               0.0000000000
     36892      1189  ECLIPA    HO13          -24.5775583676      -43.6313882966        7.2033281980  LPSA34    1               0.0000000000
     36893      1189  ECLIPA    C14           -22.7626865642      -41.8674134267        8.3973163042  LPSA34    1               0.0000000000
     36894      1189  ECLIPA    H14R          -21.7990055937      -42.1685216888        8.8631153178  LPSA34    1               0.0000000000
     36895      1189  ECLIPA    H14S          -22.8521278061      -40.8261998839        8.7529276972  LPSA34    1               0.0000000000
     36896      1189  ECLIPA    C15           -22.4241188610      -41.8090625992        6.9031434193  LPSA34    1               0.0000000000
     36897      1189  ECLIPA    H15R          -22.3905042878      -42.7814166761        6.3970298485  LPSA34    1               0.0000000000
     36898      1189  ECLIPA    H15S          -21.3794262807      -41.4310082821        6.8045273848  LPSA34    1               0.0000000000
     36899      1189  ECLIPA    C16           -23.4744854174      -41.0449036818        6.1433738938  LPSA34    1               0.0000000000
     36900      1189  ECLIPA    H16R          -23.2535883031      -39.9721808162        6.2647163553  LPSA34    1               0.0000000000
     36901      1189  ECLIPA    H16S          -24.4556025231      -41.2489181605        6.6209932111  LPSA34    1               0.0000000000
     36902      1189  ECLIPA    C17           -23.4692624009      -41.4261705448        4.6646454229  LPSA34    1               0.0000000000
     36903      1189  ECLIPA    H17R          -22.3975974547      -41.5593166492        4.3748827996  LPSA34    1               0.0000000000
     36904      1189  ECLIPA    H17S          -23.9393538110      -40.6661459539        4.0269269909  LPSA34    1               0.0000000000
     36905      1189  ECLIPA    C18           -24.2259758585      -42.7028073896        4.3551619375  LPSA34    1               0.0000000000
     36906      1189  ECLIPA    H18R          -23.5864701887      -43.3691074439        4.8694808655  LPSA34    1               0.0000000000
     36907      1189  ECLIPA    H18S          -25.2444850455      -42.7748662534        4.7824857094  LPSA34    1               0.0000000000
     36908      1189  ECLIPA    C19           -24.1179470024      -43.1746593841        2.9239529699  LPSA34    1               0.0000000000
     36909      1189  ECLIPA    H19R          -24.6177491175      -44.1440505303        2.7174942120  LPSA34    1               0.0000000000
     36910      1189  ECLIPA    H19S          -23.0449829240      -43.2437121363        2.6144012046  LPSA34    1               0.0000000000
     36911      1189  ECLIPA    C110          -24.9526281919      -42.3416362373        2.0486760900  LPSA34    1               0.0000000000
     36912      1189  ECLIPA    H110R         -25.9978879808      -42.3142336474        2.4440549436  LPSA34    1               0.0000000000
     36913      1189  ECLIPA    H110S         -24.4838475645      -41.3453038670        2.0809710484  LPSA34    1               0.0000000000
     36914      1189  ECLIPA    C111          -24.9343050741      -42.9837994340        0.6868950255  LPSA34    1               0.0000000000
     36915      1189  ECLIPA    H111R         -23.8888889099      -43.2268121626        0.3843847456  LPSA34    1               0.0000000000
     36916      1189  ECLIPA    H111S         -25.4825391229      -43.9520930220        0.7633225223  LPSA34    1               0.0000000000
     36917      1189  ECLIPA    C112          -25.6545557401      -42.0789700299       -0.2890823377  LPSA34    1               0.0000000000
     36918      1189  ECLIPA    H112R         -26.6978221973      -42.0368936641        0.0836236197  LPSA34    1               0.0000000000
     36919      1189  ECLIPA    H112S         -25.2484815309      -41.0418916362       -0.2191239682  LPSA34    1               0.0000000000
     36920      1189  ECLIPA    C113          -25.4740645040      -42.6156845337       -1.7069243546  LPSA34    1               0.0000000000
     36921      1189  ECLIPA    H113R         -24.3900161572      -42.4937141318       -1.8573722022  LPSA34    1               0.0000000000
     36922      1189  ECLIPA    H113S         -25.5815163745      -43.7114814309       -1.7780374581  LPSA34    1               0.0000000000
     36923      1189  ECLIPA    C114          -26.2975846872      -41.9883057169       -2.8392753932  LPSA34    1               0.0000000000
     36924      1189  ECLIPA    H114R         -27.3903597553      -42.0445454406       -2.6790058115  LPSA34    1               0.0000000000
     36925      1189  ECLIPA    H114S         -26.0260106522      -40.9270612140       -2.9945130647  LPSA34    1               0.0000000000
     36926      1189  ECLIPA    H114T         -26.1148368595      -42.5643032581       -3.7697512323  LPSA34    1               0.0000000000
     36927      1190  AKDO      C1            -25.3679320542      -35.9372377655       22.3976468916  LPSA34    2               0.0000000000
     36928      1190  AKDO      O11           -26.0847328443      -34.9128670202       22.3874026377  LPSA34    2               0.0000000000
     36929      1190  AKDO      O12           -24.1531499978      -35.9849756628       22.0037406850  LPSA34    2               0.0000000000
     36930      1190  AKDO      C2            -26.0472082358      -37.2627086685       22.8530565287  LPSA34    2               0.0000000000
     36931      1190  AKDO      C6            -28.0092797996      -38.2795898124       23.8490165789  LPSA34    2               0.0000000000
     36932      1190  AKDO      H6            -28.0242431920      -38.9447598722       22.9445992066  LPSA34    2               0.0000000000
     36933      1190  AKDO      O6            -27.3660292939      -37.0624526864       23.4480041485  LPSA34    2               0.0000000000
     36934      1190  AKDO      C3            -25.1838013861      -37.9323672841       23.8927056763  LPSA34    2               0.0000000000
     36935      1190  AKDO      H31           -24.9839247887      -37.2869297751       24.7749660701  LPSA34    2               0.0000000000
     36936      1190  AKDO      H32           -24.2254998104      -38.2596168292       23.4199645346  LPSA34    2               0.0000000000
     36937      1190  AKDO      C4            -25.7742809398      -39.1564768739       24.3395396091  LPSA34    2               0.0000000000
     36938      1190  AKDO      H4            -25.9581307070      -39.7750748979       23.4181467802  LPSA34    2               0.0000000000
     36939      1190  AKDO      O4            -24.7893373875      -39.7586072890       25.2296407140  LPSA34    2               0.0000000000
     36940      1190  AKDO      C5            -27.1799189381      -38.9600836895       24.9552542587  LPSA34    2               0.0000000000
     36941      1190  AKDO      H5            -27.7209962325      -39.9299468063       25.0747767249  LPSA34    2               0.0000000000
     36942      1190  AKDO      O5            -27.0177862823      -38.3506883746       26.2667192078  LPSA34    2               0.0000000000
     36943      1190  AKDO      C7            -29.4858513562      -38.0262551450       24.1661094540  LPSA34    2               0.0000000000
     36944      1190  AKDO      H7            -29.5375064787      -37.3923848227       25.0757983801  LPSA34    2               0.0000000000
     36945      1190  AKDO      O7            -30.1998052948      -39.2708603443       24.3432130908  LPSA34    2               0.0000000000
     36946      1190  AKDO      HO7           -30.3808914571      -39.5361489160       23.4437312504  LPSA34    2               0.0000000000
     36947      1190  AKDO      C8            -30.1526362268      -37.2733367017       23.0269012367  LPSA34    2               0.0000000000
     36948      1190  AKDO      H81           -29.5706884951      -36.3243675324       22.8672363007  LPSA34    2               0.0000000000
     36949      1190  AKDO      H82           -30.0461064156      -37.8664761733       22.0873757377  LPSA34    2               0.0000000000
     36950      1190  AKDO      O8            -31.5593008510      -36.9861425152       23.2841091780  LPSA34    2               0.0000000000
     36951      1190  AKDO      HO8           -31.6206828293      -36.0841124844       22.9154252762  LPSA34    2               0.0000000000
     36952      1191  AKDO      C1            -23.8707758751      -41.7564487248       23.6066756472  LPSA34    3               1.0000000000
     36953      1191  AKDO      O11           -23.8798319724      -41.0987964212       22.5453952163  LPSA34    3               1.0000000000
     36954      1191  AKDO      O12           -24.4142431037      -42.8888679130       23.7922135848  LPSA34    3               1.0000000000
     36955      1191  AKDO      C2            -23.7743664785      -40.7416687524       24.8925218313  LPSA34    3               1.0000000000
     36956      1191  AKDO      C6            -22.3724119994      -39.0685949531       25.7938740423  LPSA34    3               1.0000000000
     36957      1191  AKDO      H6            -23.2127980691      -38.3438305790       25.9759824950  LPSA34    3               1.0000000000
     36958      1191  AKDO      O6            -22.5945340621      -39.9874261553       24.6978915075  LPSA34    3               1.0000000000
     36959      1191  AKDO      C3            -23.6010541113      -41.4566279685       26.2205259221  LPSA34    3               1.0000000000
     36960      1191  AKDO      H31           -22.9141236453      -42.2311073468       25.9656728902  LPSA34    3               1.0000000000
     36961      1191  AKDO      H32           -24.2921054888      -42.1759856880       26.5757049323  LPSA34    3               1.0000000000
     36962      1191  AKDO      C4            -23.3429590977      -40.5665545731       27.3586983618  LPSA34    3               1.0000000000
     36963      1191  AKDO      H4            -24.2069855909      -39.8678708189       27.5116486308  LPSA34    3               1.0000000000
     36964      1191  AKDO      O4            -23.1424990302      -41.3186938756       28.5129172434  LPSA34    3               1.0000000000
     36965      1191  AKDO      HO4           -23.7649987096      -40.9010147830       29.1557866416  LPSA34    3               1.0000000000
     36966      1191  AKDO      C5            -22.1460294771      -39.8017471305       27.0592725631  LPSA34    3               1.0000000000
     36967      1191  AKDO      H5            -21.8951268794      -39.1517368737       27.9210069691  LPSA34    3               1.0000000000
     36968      1191  AKDO      O5            -21.0459878518      -40.6296641175       26.8402941723  LPSA34    3               1.0000000000
     36969      1191  AKDO      HO5           -21.3279406532      -41.4094745587       26.3078301130  LPSA34    3               1.0000000000
     36970      1191  AKDO      C7            -21.2204941402      -38.2869495669       25.3574948945  LPSA34    3               1.0000000000
     36971      1191  AKDO      H7            -20.3750874519      -38.9837114671       25.1357993648  LPSA34    3               1.0000000000
     36972      1191  AKDO      O7            -20.8510088194      -37.4200826767       26.4214593599  LPSA34    3               1.0000000000
     36973      1191  AKDO      HO7           -20.0298893338      -37.0235919876       26.1344057465  LPSA34    3               1.0000000000
     36974      1191  AKDO      C8            -21.6422373363      -37.5250800627       24.1259044641  LPSA34    3               1.0000000000
     36975      1191  AKDO      H81           -22.0411784942      -38.2036570008       23.3418364855  LPSA34    3               1.0000000000
     36976      1191  AKDO      H82           -22.4374127431      -36.7830489580       24.3409980367  LPSA34    3               1.0000000000
     36977      1191  AKDO      O8            -20.5116496776      -36.8769758211       23.5785740760  LPSA34    3               1.0000000000
     36978      1191  AKDO      HO8           -19.9700059455      -37.5884355162       23.2137549957  LPSA34    3               1.0000000000
     36979      1192  AHEP      C1            -28.0133222303      -38.5877027555       27.2556830301  LPSA34    4               2.0000000000
     36980      1192  AHEP      H1            -28.8774763143      -37.9943283537       26.9055816604  LPSA34    4               2.0000000000
     36981      1192  AHEP      C5            -27.6762415358      -40.7741950011       28.0640082631  LPSA34    4               2.0000000000
     36982      1192  AHEP      H5            -26.6521488013      -40.6260452768       27.6414305108  LPSA34    4               2.0000000000
     36983      1192  AHEP      O5            -28.5327521020      -39.9130757777       27.3323608544  LPSA34    4               2.0000000000
     36984      1192  AHEP      C2            -27.7850732887      -38.1094070107       28.7041167908  LPSA34    4               2.0000000000
     36985      1192  AHEP      H2            -27.3520414306      -37.0935207987       28.6754765242  LPSA34    4               2.0000000000
     36986      1192  AHEP      O2            -29.0465752802      -38.0118222484       29.3584516983  LPSA34    4               2.0000000000
     36987      1192  AHEP      HO2           -29.0342975593      -37.2521116287       29.9275070827  LPSA34    4               2.0000000000
     36988      1192  AHEP      C3            -26.8638762369      -38.9954717484       29.5241732917  LPSA34    4               2.0000000000
     36989      1192  AHEP      H3            -25.8269335365      -38.9997978005       29.1073514117  LPSA34    4               2.0000000000
     36990      1192  AHEP      O3            -26.8219542613      -38.6096337870       30.9096408713  LPSA34    4               2.0000000000
     36991      1192  AHEP      C4            -27.5019290407      -40.3537010977       29.4942653016  LPSA34    4               2.0000000000
     36992      1192  AHEP      H4            -28.4779580050      -40.4204150598       30.0190053855  LPSA34    4               2.0000000000
     36993      1192  AHEP      O4            -26.5906033999      -41.2658513882       30.0218739738  LPSA34    4               2.0000000000
     36994      1192  AHEP      P4            -26.6700371537      -41.9073358974       31.4876112987  LPSA34    4               2.0000000000
     36995      1192  AHEP      OP42          -25.3508207555      -41.7826699981       32.2955677173  LPSA34    4               2.0000000000
     36996      1192  AHEP      OP43          -26.8395492775      -43.2466712343       30.8067590460  LPSA34    4               2.0000000000
     36997      1192  AHEP      OP44          -27.8667306128      -41.2733873667       32.1129384209  LPSA34    4               2.0000000000
     36998      1192  AHEP      C6            -28.3037195411      -42.1648310487       27.9368054148  LPSA34    4               2.0000000000
     36999      1192  AHEP      H6            -27.6020926540      -42.8810877014       28.3957807120  LPSA34    4               2.0000000000
     37000      1192  AHEP      O6            -29.4231201897      -42.4077857337       28.7170368483  LPSA34    4               2.0000000000
     37001      1192  AHEP      HO6           -29.2660722554      -43.0042271169       29.4820571396  LPSA34    4               2.0000000000
     37002      1192  AHEP      C7            -28.6667135718      -42.6223525878       26.5298027064  LPSA34    4               2.0000000000
     37003      1192  AHEP      H71           -28.5801401511      -43.7120073225       26.2968429116  LPSA34    4               2.0000000000
     37004      1192  AHEP      H72           -28.0987289706      -42.1504511424       25.7168135027  LPSA34    4               2.0000000000
     37005      1192  AHEP      O7            -29.7651683699      -42.0329178674       26.1241258966  LPSA34    4               2.0000000000
     37006      1192  AHEP      HO7           -30.5095132625      -42.5616469918       26.4039232393  LPSA34    4               2.0000000000
     37007      1193  AHEP      C1            -25.6310729245      -38.1487037115       31.4956555361  LPSA34    5               3.0000000000
     37008      1193  AHEP      H1            -24.7384156674      -38.4843766700       30.9976608510  LPSA34    5               3.0000000000
     37009      1193  AHEP      C5            -26.4532874774      -36.0262001029       31.9703089488  LPSA34    5               3.0000000000
     37010      1193  AHEP      H5            -27.4246258845      -36.4213368759       31.5977965324  LPSA34    5               3.0000000000
     37011      1193  AHEP      O5            -25.4325034003      -36.7602251864       31.3135305807  LPSA34    5               3.0000000000
     37012      1193  AHEP      C2            -25.6156948685      -38.5127967886       32.9820093699  LPSA34    5               3.0000000000
     37013      1193  AHEP      H2            -25.8249064040      -39.6014336882       33.0819543489  LPSA34    5               3.0000000000
     37014      1193  AHEP      O2            -24.3647168879      -38.3012281450       33.6021549560  LPSA34    5               3.0000000000
     37015      1193  AHEP      HO2           -23.8091205735      -39.0830789863       33.4968711445  LPSA34    5               3.0000000000
     37016      1193  AHEP      C3            -26.6764499661      -37.7408446668       33.7325752640  LPSA34    5               3.0000000000
     37017      1193  AHEP      H3            -27.6675400973      -38.0406532135       33.3200078542  LPSA34    5               3.0000000000
     37018      1193  AHEP      O3            -26.6530793248      -37.8670619915       35.1809743863  LPSA34    5               3.0000000000
     37019      1193  AHEP      C4            -26.4082993519      -36.2810105447       33.4677947124  LPSA34    5               3.0000000000
     37020      1193  AHEP      H4            -25.3953732707      -35.9912713997       33.8375212311  LPSA34    5               3.0000000000
     37021      1193  AHEP      O4            -27.4519633500      -35.5112964600       34.0565252945  LPSA34    5               3.0000000000
     37022      1193  AHEP      P4            -27.0832339959      -34.4646533604       35.2977246121  LPSA34    5               3.0000000000
     37023      1193  AHEP      OP42          -28.4946172380      -34.0374049035       35.7331485138  LPSA34    5               3.0000000000
     37024      1193  AHEP      OP43          -26.3734054456      -33.2960306187       34.6434135625  LPSA34    5               3.0000000000
     37025      1193  AHEP      OP44          -26.2246622894      -35.2175583191       36.3156331368  LPSA34    5               3.0000000000
     37026      1193  AHEP      C6            -26.3382173937      -34.5638946747       31.5650202453  LPSA34    5               3.0000000000
     37027      1193  AHEP      H6            -27.1801626958      -34.0230088551       32.0467273438  LPSA34    5               3.0000000000
     37028      1193  AHEP      O6            -25.1044098779      -33.9796631047       32.0242458518  LPSA34    5               3.0000000000
     37029      1193  AHEP      HO6           -24.3716469416      -34.2594610403       31.4927906883  LPSA34    5               3.0000000000
     37030      1193  AHEP      C7            -26.5055377680      -34.3823087355       30.0673005205  LPSA34    5               3.0000000000
     37031      1193  AHEP      H71           -27.0759395358      -33.4368219586       29.9139398544  LPSA34    5               3.0000000000
     37032      1193  AHEP      H72           -27.1342681442      -35.1767060089       29.6085658321  LPSA34    5               3.0000000000
     37033      1193  AHEP      O7            -25.2347431384      -34.2053555680       29.4290697855  LPSA34    5               3.0000000000
     37034      1194  AHEP      C1            -24.7798539275      -35.3602349030       28.7833452610  LPSA34    6               4.0000000000
     37035      1194  AHEP      H1            -25.4002433301      -36.2484761074       29.0283723669  LPSA34    6               4.0000000000
     37036      1194  AHEP      C5            -24.0571778895      -34.0401256946       26.9511152456  LPSA34    6               4.0000000000
     37037      1194  AHEP      H5            -24.4114749047      -33.1405622237       27.5078972623  LPSA34    6               4.0000000000
     37038      1194  AHEP      O5            -24.8619508668      -35.1583893679       27.3737998034  LPSA34    6               4.0000000000
     37039      1194  AHEP      C2            -23.3583946747      -35.6436528549       29.2210137012  LPSA34    6               4.0000000000
     37040      1194  AHEP      H2            -23.3784891927      -35.7625309176       30.3325494667  LPSA34    6               4.0000000000
     37041      1194  AHEP      O2            -22.9315113715      -36.9024818615       28.7225361892  LPSA34    6               4.0000000000
     37042      1194  AHEP      HO2           -22.8596986236      -37.4925579989       29.4700951981  LPSA34    6               4.0000000000
     37043      1194  AHEP      C3            -22.4633538347      -34.4657962093       28.8405619596  LPSA34    6               4.0000000000
     37044      1194  AHEP      H3            -22.8325758628      -33.5663416137       29.3813543656  LPSA34    6               4.0000000000
     37045      1194  AHEP      O3            -21.0840690070      -34.6502978721       29.2019205269  LPSA34    6               4.0000000000
     37046      1194  AHEP      HO3           -20.7822152792      -34.2721401714       30.0237736474  LPSA34    6               4.0000000000
     37047      1194  AHEP      C4            -22.5938187985      -34.2589544381       27.3309933624  LPSA34    6               4.0000000000
     37048      1194  AHEP      H4            -22.1890797253      -35.1497099252       26.7951911793  LPSA34    6               4.0000000000
     37049      1194  AHEP      O4            -21.8576841315      -33.1220818210       26.8933010864  LPSA34    6               4.0000000000
     37050      1194  AHEP      HO4           -22.3621425605      -32.3449580015       27.1131725122  LPSA34    6               4.0000000000
     37051      1194  AHEP      C6            -24.2785649211      -33.6729067537       25.4855449876  LPSA34    6               4.0000000000
     37052      1194  AHEP      H6            -23.7537455258      -32.7057617168       25.3117817128  LPSA34    6               4.0000000000
     37053      1194  AHEP      O6            -23.6702678003      -34.5860590208       24.5649510799  LPSA34    6               4.0000000000
     37054      1194  AHEP      HO6           -24.3913189438      -34.9742769457       24.0365474722  LPSA34    6               4.0000000000
     37055      1194  AHEP      C7            -25.7379069507      -33.3570700392       25.1772625096  LPSA34    6               4.0000000000
     37056      1194  AHEP      H71           -25.8070215809      -32.9557077351       24.1399372839  LPSA34    6               4.0000000000
     37057      1194  AHEP      H72           -26.0933784940      -32.5798123333       25.8885114695  LPSA34    6               4.0000000000
     37058      1194  AHEP      O7            -26.6303334861      -34.4591854936       25.2927683819  LPSA34    6               4.0000000000
     37059      1194  AHEP      HO7           -26.8308706800      -34.5955988532       26.2161028888  LPSA34    6               4.0000000000
     37060      1195  AGLC      C1            -27.5003116985      -38.8347573947       35.7199442471  LPSA34    7               4.0000000000
     37061      1195  AGLC      H1            -28.4594589051      -38.8759854552       35.1966953358  LPSA34    7               4.0000000000
     37062      1195  AGLC      C5            -25.6565371190      -40.1689107194       36.2272933533  LPSA34    7               4.0000000000
     37063      1195  AGLC      H5            -24.9037068975      -39.4392223721       35.8796212737  LPSA34    7               4.0000000000
     37064      1195  AGLC      O5            -26.8453782257      -40.0224064522       35.4959753750  LPSA34    7               4.0000000000
     37065      1195  AGLC      C2            -27.7580934094      -38.8705969443       37.2084489794  LPSA34    7               4.0000000000
     37066      1195  AGLC      H2            -28.3068988452      -39.8214677788       37.4264544531  LPSA34    7               4.0000000000
     37067      1195  AGLC      O2            -28.6068815700      -37.8289470823       37.6095662912  LPSA34    7               4.0000000000
     37068      1195  AGLC      HO2           -28.0837398727      -37.0077099448       37.5700798963  LPSA34    7               4.0000000000
     37069      1195  AGLC      C3            -26.5035220674      -38.9244950662       38.0240671430  LPSA34    7               4.0000000000
     37070      1195  AGLC      H3            -25.8204422481      -38.1321775688       37.6413914378  LPSA34    7               4.0000000000
     37071      1195  AGLC      O3            -26.6943908008      -38.7903320706       39.4445052442  LPSA34    7               4.0000000000
     37072      1195  AGLC      C4            -25.8530125979      -40.1868889848       37.6770607777  LPSA34    7               4.0000000000
     37073      1195  AGLC      H4            -26.5037655477      -41.0516816455       37.9144619866  LPSA34    7               4.0000000000
     37074      1195  AGLC      O4            -24.5819972498      -40.3018532164       38.2812213963  LPSA34    7               4.0000000000
     37075      1195  AGLC      HO4           -24.5180187416      -41.2125184894       38.6451826237  LPSA34    7               4.0000000000
     37076      1195  AGLC      C6            -25.1735268554      -41.4265073213       35.7937578588  LPSA34    7               4.0000000000
     37077      1195  AGLC      H61           -25.1651397377      -41.3566653993       34.6592377126  LPSA34    7               4.0000000000
     37078      1195  AGLC      H62           -24.1419537632      -41.5620797051       36.1240928234  LPSA34    7               4.0000000000
     37079      1195  AGLC      O6            -25.9135383449      -42.5443390473       36.3393297608  LPSA34    7               4.0000000000
     37080      1195  AGLC      HO6           -25.5147342905      -43.4184171430       36.4705221912  LPSA34    7               4.0000000000
     37081      1196  AGLC      C1            -25.9787971454      -37.6812526260       39.9392332858  LPSA34    8               5.0000000000
     37082      1196  AGLC      H1            -24.9516931810      -37.6745531654       39.5131784609  LPSA34    8               5.0000000000
     37083      1196  AGLC      C5            -27.8873445646      -36.1714860528       40.2189161338  LPSA34    8               5.0000000000
     37084      1196  AGLC      H5            -28.5294146037      -37.0058529517       39.8813960036  LPSA34    8               5.0000000000
     37085      1196  AGLC      O5            -26.5954914053      -36.4150454325       39.6053953724  LPSA34    8               5.0000000000
     37086      1196  AGLC      C2            -25.8191998038      -37.7471162169       41.4413331125  LPSA34    8               5.0000000000
     37087      1196  AGLC      H2            -25.1831887744      -36.8781829264       41.7065538134  LPSA34    8               5.0000000000
     37088      1196  AGLC      O2            -25.1518733371      -38.9109982125       41.9477870551  LPSA34    8               5.0000000000
     37089      1196  AGLC      C3            -27.1439642559      -37.5935564479       42.1259528411  LPSA34    8               5.0000000000
     37090      1196  AGLC      H3            -27.8077160344      -38.4082666205       41.7234582049  LPSA34    8               5.0000000000
     37091      1196  AGLC      O3            -26.9331081795      -37.8206745598       43.5380764256  LPSA34    8               5.0000000000
     37092      1196  AGLC      C4            -27.7150228838      -36.2493446631       41.7377298209  LPSA34    8               5.0000000000
     37093      1196  AGLC      H4            -26.9840495432      -35.4635095964       42.0330488467  LPSA34    8               5.0000000000
     37094      1196  AGLC      O4            -28.9289717611      -35.9983675516       42.4322627000  LPSA34    8               5.0000000000
     37095      1196  AGLC      HO4           -29.4636838427      -36.7967446242       42.3830768220  LPSA34    8               5.0000000000
     37096      1196  AGLC      C6            -28.5970269332      -34.8808311093       39.7346748698  LPSA34    8               5.0000000000
     37097      1196  AGLC      H61           -28.5802883906      -34.7898900204       38.6249023544  LPSA34    8               5.0000000000
     37098      1196  AGLC      H62           -29.6740983006      -34.9013696930       40.0108305599  LPSA34    8               5.0000000000
     37099      1196  AGLC      O6            -28.0839674474      -33.6828240316       40.3179772398  LPSA34    8               5.0000000000
     37100      1196  AGLC      HO6           -28.4765235587      -33.5888743605       41.1833556870  LPSA34    8               5.0000000000
     37101      1197  AGAL      C1            -23.8833515668      -39.2073057733       41.4236818821  LPSA34    9               6.0000000000
     37102      1197  AGAL      H1            -23.8899204779      -39.1801253356       40.3239990705  LPSA34    9               6.0000000000
     37103      1197  AGAL      C5            -22.6739001717      -38.3546992545       43.2760970818  LPSA34    9               6.0000000000
     37104      1197  AGAL      H5            -23.6755793533      -38.2473649441       43.7468621266  LPSA34    9               6.0000000000
     37105      1197  AGAL      O5            -22.8684511562      -38.2957754429       41.8531428658  LPSA34    9               6.0000000000
     37106      1197  AGAL      C2            -23.5487604971      -40.6212511818       41.8216127905  LPSA34    9               6.0000000000
     37107      1197  AGAL      H2            -22.5834721865      -40.8593286741       41.3566304755  LPSA34    9               6.0000000000
     37108      1197  AGAL      O2            -24.4927949275      -41.4193119503       41.0710056225  LPSA34    9               6.0000000000
     37109      1197  AGAL      C3            -23.3314490173      -40.6837125089       43.3409374591  LPSA34    9               6.0000000000
     37110      1197  AGAL      H3            -24.2705163860      -40.4864440838       43.9044746455  LPSA34    9               6.0000000000
     37111      1197  AGAL      O3            -22.8109193279      -41.8989655253       43.7821906689  LPSA34    9               6.0000000000
     37112      1197  AGAL      HO3           -23.2384820932      -42.5547135962       43.2585808091  LPSA34    9               6.0000000000
     37113      1197  AGAL      C4            -22.2304560577      -39.7214470136       43.6916408324  LPSA34    9               6.0000000000
     37114      1197  AGAL      H4            -22.0586830801      -39.7498488815       44.7950278876  LPSA34    9               6.0000000000
     37115      1197  AGAL      O4            -21.0026677989      -40.0873635191       43.0727791735  LPSA34    9               6.0000000000
     37116      1197  AGAL      HO4           -20.2706311886      -39.7748327489       43.6087042601  LPSA34    9               6.0000000000
     37117      1197  AGAL      C6            -21.8376801186      -37.2177070393       43.8391411645  LPSA34    9               6.0000000000
     37118      1197  AGAL      H61           -22.3177794214      -36.2500283945       43.6051761618  LPSA34    9               6.0000000000
     37119      1197  AGAL      H62           -21.8038219546      -37.2878958621       44.9379802646  LPSA34    9               6.0000000000
     37120      1197  AGAL      O6            -20.4866476023      -37.1878105072       43.4074104737  LPSA34    9               6.0000000000
     37121      1197  AGAL      HO6           -20.4029032461      -36.5356804228       42.6910583051  LPSA34    9               6.0000000000
     37122      1198  AGAL      C1            -25.1542866383      -42.4959171121       41.6187999313  LPSA34    10              7.0000000000
     37123      1198  AGAL      H1            -24.4370978362      -43.3415980246       41.6984634720  LPSA34    10              7.0000000000
     37124      1198  AGAL      C5            -26.8826473613      -41.3807014806       43.0787505218  LPSA34    10              7.0000000000
     37125      1198  AGAL      H5            -26.4747849200      -40.4878756465       42.6055989280  LPSA34    10              7.0000000000
     37126      1198  AGAL      O5            -25.8530361494      -42.2139268010       42.8692121443  LPSA34    10              7.0000000000
     37127      1198  AGAL      C2            -26.0862467701      -43.0885854423       40.7161776863  LPSA34    10              7.0000000000
     37128      1198  AGAL      H2            -26.5680882118      -43.9469206375       41.2031784152  LPSA34    10              7.0000000000
     37129      1198  AGAL      O2            -25.7099454756      -44.2793028183       40.0069575197  LPSA34    10              7.0000000000
     37130      1198  AGAL      HO2           -26.2020468942      -44.4432455437       39.1824421410  LPSA34    10              7.0000000000
     37131      1198  AGAL      C3            -27.1923554836      -42.0532644535       40.5736776394  LPSA34    10              7.0000000000
     37132      1198  AGAL      H3            -26.7234923019      -41.0513867297       40.4743001845  LPSA34    10              7.0000000000
     37133      1198  AGAL      O3            -27.9234073977      -42.0601730413       39.3227421465  LPSA34    10              7.0000000000
     37134      1198  AGAL      HO3           -28.3437041261      -41.2545027712       38.9348010427  LPSA34    10              7.0000000000
     37135      1198  AGAL      C4            -27.7820379626      -41.9766059776       42.0914067135  LPSA34    10              7.0000000000
     37136      1198  AGAL      H4            -28.5576475091      -41.2010378377       42.2840436752  LPSA34    10              7.0000000000
     37137      1198  AGAL      O4            -28.2523816081      -43.3556737319       42.3217070189  LPSA34    10              7.0000000000
     37138      1198  AGAL      HO4           -27.5789436959      -43.9899148151       42.6907282042  LPSA34    10              7.0000000000
     37139      1198  AGAL      C6            -27.2838087532      -40.7341329173       44.5421577475  LPSA34    10              7.0000000000
     37140      1198  AGAL      H61           -26.3371520464      -40.6850079168       45.1009752603  LPSA34    10              7.0000000000
     37141      1198  AGAL      H62           -27.9653686541      -39.9057444086       44.2620517899  LPSA34    10              7.0000000000
     37142      1198  AGAL      O6            -28.0371516494      -41.0884804541       45.7230280171  LPSA34    10              7.0000000000
     37143      1198  AGAL      HO6           -27.8659375799      -42.0076353014       45.9865363847  LPSA34    10              7.0000000000
     37144      1199  BGLC      C1            -26.7543716069      -36.7670905159       44.4858520791  LPSA34    11              6.0000000000
     37145      1199  BGLC      H1            -27.7190197593      -36.2335486907       44.6212764672  LPSA34    11              6.0000000000
     37146      1199  BGLC      C5            -25.3927482628      -34.8447925237       45.1313123648  LPSA34    11              6.0000000000
     37147      1199  BGLC      H5            -26.2873070378      -34.2192019327       45.3670200622  LPSA34    11              6.0000000000
     37148      1199  BGLC      O5            -25.6676803660      -35.8758838750       44.1323869457  LPSA34    11              6.0000000000
     37149      1199  BGLC      C2            -26.3706276397      -37.4554056472       45.7968909669  LPSA34    11              6.0000000000
     37150      1199  BGLC      H2            -25.4571661639      -38.0783413519       45.6481053550  LPSA34    11              6.0000000000
     37151      1199  BGLC      O2            -27.3975961152      -38.3303690464       46.2339865314  LPSA34    11              6.0000000000
     37152      1199  BGLC      HO2           -27.0595866484      -39.2367654547       46.2849570880  LPSA34    11              6.0000000000
     37153      1199  BGLC      C3            -26.0753181484      -36.4802729758       46.9062244189  LPSA34    11              6.0000000000
     37154      1199  BGLC      H3            -27.0003349677      -35.9192052304       47.1690861032  LPSA34    11              6.0000000000
     37155      1199  BGLC      O3            -25.5698238001      -37.1905945722       48.0533196648  LPSA34    11              6.0000000000
     37156      1199  BGLC      C4            -24.9673645610      -35.5615590472       46.4303416812  LPSA34    11              6.0000000000
     37157      1199  BGLC      H4            -24.0875944485      -36.1996408652       46.1795110794  LPSA34    11              6.0000000000
     37158      1199  BGLC      O4            -24.5471778458      -34.6752337159       47.4735089673  LPSA34    11              6.0000000000
     37159      1199  BGLC      HO4           -24.1204434334      -35.1896829976       48.1768578584  LPSA34    11              6.0000000000
     37160      1199  BGLC      C6            -24.3672203134      -33.8799321981       44.5350319068  LPSA34    11              6.0000000000
     37161      1199  BGLC      H61           -23.8299951297      -33.2960538328       45.3075301114  LPSA34    11              6.0000000000
     37162      1199  BGLC      H62           -23.6203992147      -34.4608503101       43.9757449624  LPSA34    11              6.0000000000
     37163      1199  BGLC      O6            -24.9388560926      -32.9331951475       43.6349564506  LPSA34    11              6.0000000000
     37164      1199  BGLC      HO6           -24.8781450552      -32.0458257384       43.9961862278  LPSA34    11              6.0000000000
     37165      1200  BGLCNA    C1            -26.1898736823      -37.0415578268       49.3216614278  LPSA34    12              7.0000000000
     37166      1200  BGLCNA    H1            -27.0813093141      -37.6997274717       49.3743946775  LPSA34    12              7.0000000000
     37167      1200  BGLCNA    C5            -27.1897910997      -35.5712252361       50.8890634370  LPSA34    12              7.0000000000
     37168      1200  BGLCNA    H5            -28.0959824284      -36.2216185681       50.9622366156  LPSA34    12              7.0000000000
     37169      1200  BGLCNA    O5            -26.5717763084      -35.7027967657       49.5973913620  LPSA34    12              7.0000000000
     37170      1200  BGLCNA    C2            -25.1483506343      -37.4534931835       50.3522848734  LPSA34    12              7.0000000000
     37171      1200  BGLCNA    H2            -24.3264949135      -36.6952026605       50.3054060763  LPSA34    12              7.0000000000
     37172      1200  BGLCNA    N             -24.6734114934      -38.7378006326       49.9384640539  LPSA34    12              7.0000000000
     37173      1200  BGLCNA    HN            -25.3758507957      -39.4597103307       50.0022050952  LPSA34    12              7.0000000000
     37174      1200  BGLCNA    C             -23.4001154693      -39.0589305461       49.8600535463  LPSA34    12              7.0000000000
     37175      1200  BGLCNA    O             -22.5216413737      -38.2593154929       50.0631174120  LPSA34    12              7.0000000000
     37176      1200  BGLCNA    CT            -23.0285677731      -40.4569797332       49.5413598587  LPSA34    12              7.0000000000
     37177      1200  BGLCNA    HT1           -22.5462246048      -40.8830806087       50.4389364904  LPSA34    12              7.0000000000
     37178      1200  BGLCNA    HT2           -22.2844582354      -40.4952808895       48.7178818624  LPSA34    12              7.0000000000
     37179      1200  BGLCNA    HT3           -23.9232815790      -41.0552210664       49.3023983108  LPSA34    12              7.0000000000
     37180      1200  BGLCNA    C3            -25.6937886361      -37.4189519461       51.8021362597  LPSA34    12              7.0000000000
     37181      1200  BGLCNA    H3            -26.5731022253      -38.0847713429       51.8364325590  LPSA34    12              7.0000000000
     37182      1200  BGLCNA    O3            -24.7615923851      -37.8831269271       52.8658913335  LPSA34    12              7.0000000000
     37183      1200  BGLCNA    C4            -26.1660594643      -35.9757138449       51.9674657857  LPSA34    12              7.0000000000
     37184      1200  BGLCNA    H4            -25.2951391226      -35.2836974047       51.8951090720  LPSA34    12              7.0000000000
     37185      1200  BGLCNA    O4            -26.7412165639      -35.7876287360       53.2442612828  LPSA34    12              7.0000000000
     37186      1200  BGLCNA    HO4           -27.5980347970      -36.2267831032       53.2985212558  LPSA34    12              7.0000000000
     37187      1200  BGLCNA    C6            -27.6512938775      -34.1233057678       50.9490311271  LPSA34    12              7.0000000000
     37188      1200  BGLCNA    H61           -28.1325051776      -33.8951522017       51.9255783090  LPSA34    12              7.0000000000
     37189      1200  BGLCNA    H62           -26.7662367595      -33.4612625762       50.8387319438  LPSA34    12              7.0000000000
     37190      1200  BGLCNA    O6            -28.5550348057      -33.7904186881       49.8892112384  LPSA34    12              7.0000000000
     37191      1200  BGLCNA    HO6           -29.4487204428      -34.0269320143       50.1290297007  LPSA34    12              7.0000000000
     37192      1201  AGAL      C1            -25.2697078158      -38.5346787410       54.0539775655  LPSA34    13              8.0000000000
     37193      1201  AGAL      H1            -26.2950057021      -38.1216045837       54.2756587913  LPSA34    13              8.0000000000
     37194      1201  AGAL      C5            -23.9897532124      -40.6743682531       53.5308942248  LPSA34    13              8.0000000000
     37195      1201  AGAL      H5            -23.4338275440      -39.9822162447       52.8509079756  LPSA34    13              8.0000000000
     37196      1201  AGAL      O5            -25.2932478536      -39.9635093481       53.8576016947  LPSA34    13              8.0000000000
     37197      1201  AGAL      C2            -24.3763132793      -38.5495312373       55.2309857314  LPSA34    13              8.0000000000
     37198      1201  AGAL      H2            -24.8504262177      -39.2536679123       55.9604276270  LPSA34    13              8.0000000000
     37199      1201  AGAL      O2            -24.3895734057      -37.2821884435       55.8252878058  LPSA34    13              8.0000000000
     37200      1201  AGAL      C3            -23.0307129459      -39.1801624415       54.9786713176  LPSA34    13              8.0000000000
     37201      1201  AGAL      H3            -22.5336761015      -38.6942283115       54.1002825148  LPSA34    13              8.0000000000
     37202      1201  AGAL      O3            -22.1520506044      -39.0718128496       56.0587199790  LPSA34    13              8.0000000000
     37203      1201  AGAL      HO3           -21.2710551353      -38.9044360560       55.7023264773  LPSA34    13              8.0000000000
     37204      1201  AGAL      C4            -23.2009465695      -40.6133856343       54.6362108756  LPSA34    13              8.0000000000
     37205      1201  AGAL      H4            -22.2176936425      -41.0799127257       54.3309694498  LPSA34    13              8.0000000000
     37206      1201  AGAL      O4            -24.0647163008      -41.4620145128       55.4189405914  LPSA34    13              8.0000000000
     37207      1201  AGAL      HO4           -24.6210108542      -41.0145774077       56.0727305804  LPSA34    13              8.0000000000
     37208      1201  AGAL      C6            -23.8523960596      -41.9946522730       52.6547652321  LPSA34    13              8.0000000000
     37209      1201  AGAL      H61           -24.1088211705      -41.9591521492       51.5953772246  LPSA34    13              8.0000000000
     37210      1201  AGAL      H62           -22.8557236473      -42.3583124402       52.3769638817  LPSA34    13              8.0000000000
     37211      1201  AGAL      O6            -24.6567095074      -43.0085987201       53.1491876767  LPSA34    13              8.0000000000
     37212      1201  AGAL      HO6           -24.1048906177      -43.3655427289       53.8582366744  LPSA34    13              8.0000000000
     37213      1202  ARHM      C1            -25.0941466519      -37.2480809080       57.0358398480  LPSA34    14              9.0000000000
     37214      1202  ARHM      H1            -25.9214508391      -37.9989488834       57.0415882808  LPSA34    14              9.0000000000
     37215      1202  ARHM      C5            -24.7176433269      -34.9291509749       57.1760313711  LPSA34    14              9.0000000000
     37216      1202  ARHM      H5            -24.1825944069      -34.9872916042       56.1988904449  LPSA34    14              9.0000000000
     37217      1202  ARHM      O5            -25.6985927861      -35.9770455460       57.2221888991  LPSA34    14              9.0000000000
     37218      1202  ARHM      C2            -24.0886254778      -37.5279546142       58.1209973500  LPSA34    14              9.0000000000
     37219      1202  ARHM      H2            -23.6260019146      -38.5272885942       57.9475372566  LPSA34    14              9.0000000000
     37220      1202  ARHM      O2            -24.6003733210      -37.4589211814       59.4575351677  LPSA34    14              9.0000000000
     37221      1202  ARHM      C3            -23.0419603946      -36.4521994293       58.0589138693  LPSA34    14              9.0000000000
     37222      1202  ARHM      H3            -22.6284248178      -36.3993658852       57.0250473281  LPSA34    14              9.0000000000
     37223      1202  ARHM      O3            -21.9325842223      -36.7376647023       58.8985114264  LPSA34    14              9.0000000000
     37224      1202  ARHM      HO3           -22.1559110526      -36.6358812002       59.8249221891  LPSA34    14              9.0000000000
     37225      1202  ARHM      C4            -23.7137113287      -35.1176699012       58.3192746499  LPSA34    14              9.0000000000
     37226      1202  ARHM      H4            -24.2927505276      -35.1392918400       59.2731043361  LPSA34    14              9.0000000000
     37227      1202  ARHM      O4            -22.7870150254      -34.0342591090       58.4150117258  LPSA34    14              9.0000000000
     37228      1202  ARHM      HO4           -22.6617866734      -33.7560724454       59.3242365647  LPSA34    14              9.0000000000
     37229      1202  ARHM      C6            -25.4714951343      -33.5957548772       57.2440696544  LPSA34    14              9.0000000000
     37230      1202  ARHM      H61           -26.3525205240      -33.5819639075       56.5684177170  LPSA34    14              9.0000000000
     37231      1202  ARHM      H62           -25.7913288161      -33.4448684757       58.2934680977  LPSA34    14              9.0000000000
     37232      1202  ARHM      H63           -24.8348045028      -32.7392024825       56.9458707013  LPSA34    14              9.0000000000
     37233      1203  ARHM      C1            -25.6999791169      -38.2739524622       59.7383562097  LPSA34    15             10.0000000000
     37234      1203  ARHM      H1            -25.7340700735      -39.1498724178       59.0460089212  LPSA34    15             10.0000000000
     37235      1203  ARHM      C5            -27.1119562120      -36.5095554533       60.6315711132  LPSA34    15             10.0000000000
     37236      1203  ARHM      H5            -26.3756556387      -35.6901819274       60.4436937659  LPSA34    15             10.0000000000
     37237      1203  ARHM      O5            -26.9711835746      -37.5850259821       59.6715579032  LPSA34    15             10.0000000000
     37238      1203  ARHM      C2            -25.4984535690      -38.8028646726       61.1314573050  LPSA34    15             10.0000000000
     37239      1203  ARHM      H2            -24.5304367166      -39.3315772994       61.2028505280  LPSA34    15             10.0000000000
     37240      1203  ARHM      O2            -26.5038547405      -39.7457009108       61.3707071384  LPSA34    15             10.0000000000
     37241      1203  ARHM      C3            -25.5650268550      -37.7105231813       62.1412491652  LPSA34    15             10.0000000000
     37242      1203  ARHM      H3            -24.8146293385      -36.9499324294       61.8472271029  LPSA34    15             10.0000000000
     37243      1203  ARHM      O3            -25.1793057044      -38.2608631062       63.4079600547  LPSA34    15             10.0000000000
     37244      1203  ARHM      C4            -26.9451670868      -37.0742149831       62.0354544086  LPSA34    15             10.0000000000
     37245      1203  ARHM      H4            -27.7234951325      -37.8611222518       62.1703310374  LPSA34    15             10.0000000000
     37246      1203  ARHM      O4            -27.2174190187      -36.0704322042       63.0067259757  LPSA34    15             10.0000000000
     37247      1203  ARHM      HO4           -28.1729864236      -35.9084259107       62.9601620465  LPSA34    15             10.0000000000
     37248      1203  ARHM      C6            -28.5078464205      -35.8878714584       60.4543018106  LPSA34    15             10.0000000000
     37249      1203  ARHM      H61           -28.6394386784      -34.9617840479       61.0523753803  LPSA34    15             10.0000000000
     37250      1203  ARHM      H62           -28.6881122401      -35.6844296753       59.3813994584  LPSA34    15             10.0000000000
     37251      1203  ARHM      H63           -29.2931723469      -36.5823034729       60.8083659913  LPSA34    15             10.0000000000
     37252      1204  BMANNA    C1            -26.4869640418      -40.3753046825       62.6341683467  LPSA34    16             11.0000000000
     37253      1204  BMANNA    H1            -26.9147660836      -39.7215289829       63.4266001378  LPSA34    16             11.0000000000
     37254      1204  BMANNA    C5            -25.4871420433      -41.7886697484       64.2552632386  LPSA34    16             11.0000000000
     37255      1204  BMANNA    H5            -25.8954841562      -41.0698873666       64.9885265343  LPSA34    16             11.0000000000
     37256      1204  BMANNA    O5            -25.3225758847      -41.0734024931       63.0151987778  LPSA34    16             11.0000000000
     37257      1204  BMANNA    C2            -27.4660099756      -41.3650519849       62.4394147504  LPSA34    16             11.0000000000
     37258      1204  BMANNA    H2            -28.3519677728      -40.7312169166       62.1664278934  LPSA34    16             11.0000000000
     37259      1204  BMANNA    N             -27.0168816104      -42.1592067279       61.2437256692  LPSA34    16             11.0000000000
     37260      1204  BMANNA    HN            -26.7382415115      -43.0660567569       61.4920990594  LPSA34    16             11.0000000000
     37261      1204  BMANNA    C             -27.4286345851      -42.2066503603       59.9657836512  LPSA34    16             11.0000000000
     37262      1204  BMANNA    O             -28.0644130877      -41.2385137414       59.5576621227  LPSA34    16             11.0000000000
     37263      1204  BMANNA    CT            -27.2167777708      -43.5586219302       59.1418890952  LPSA34    16             11.0000000000
     37264      1204  BMANNA    HT1           -28.0888683287      -44.2381678632       59.0013667465  LPSA34    16             11.0000000000
     37265      1204  BMANNA    HT2           -26.4385056724      -44.2127606246       59.5392234002  LPSA34    16             11.0000000000
     37266      1204  BMANNA    HT3           -26.9337204786      -43.4517784712       58.0986760063  LPSA34    16             11.0000000000
     37267      1204  BMANNA    C3            -27.8182056902      -42.2215021057       63.8352799339  LPSA34    16             11.0000000000
     37268      1204  BMANNA    H3            -28.1044063863      -41.4527564733       64.5856443614  LPSA34    16             11.0000000000
     37269      1204  BMANNA    O3            -28.9266946150      -43.1932336753       64.0192204909  LPSA34    16             11.0000000000
     37270      1204  BMANNA    HO3           -29.7368689804      -43.0228343379       64.5196307323  LPSA34    16             11.0000000000
     37271      1204  BMANNA    C4            -26.5677235059      -42.9483306846       64.1700532404  LPSA34    16             11.0000000000
     37272      1204  BMANNA    H4            -26.2420704064      -43.6602564780       63.4054725175  LPSA34    16             11.0000000000
     37273      1204  BMANNA    O4            -26.9182973165      -43.9016250546       65.1993347999  LPSA34    16             11.0000000000
     37274      1204  BMANNA    HO4           -26.2231301012      -44.4800669670       65.5930992593  LPSA34    16             11.0000000000
     37275      1204  BMANNA    C6            -24.0772106929      -42.0470253034       64.6882642599  LPSA34    16             11.0000000000
     37276      1204  BMANNA    H61           -23.9822426566      -41.8762107873       65.7751608261  LPSA34    16             11.0000000000
     37277      1204  BMANNA    H62           -23.8895660351      -43.0852835743       64.3774101461  LPSA34    16             11.0000000000
     37278      1204  BMANNA    O6            -22.9783503468      -41.3644645564       64.1952938220  LPSA34    16             11.0000000000
     37279      1204  BMANNA    HO6           -22.5046380804      -42.1203027796       63.8270820536  LPSA34    16             11.0000000000
     37280      1205  BGLCNA    C1            -24.3610087609      -37.4204909889       64.1497305170  LPSA34    17             11.0000000000
     37281      1205  BGLCNA    H1            -24.6791531629      -36.3706014251       63.9843534756  LPSA34    17             11.0000000000
     37282      1205  BGLCNA    C5            -22.0974360468      -36.7113250536       64.5658951997  LPSA34    17             11.0000000000
     37283      1205  BGLCNA    H5            -22.3493059890      -35.6439609181       64.3581376213  LPSA34    17             11.0000000000
     37284      1205  BGLCNA    O5            -22.9820911591      -37.5481884725       63.7904993379  LPSA34    17             11.0000000000
     37285      1205  BGLCNA    C2            -24.5759108181      -37.8630140636       65.5804661970  LPSA34    17             11.0000000000
     37286      1205  BGLCNA    H2            -24.2001163480      -38.9037040482       65.7473476506  LPSA34    17             11.0000000000
     37287      1205  BGLCNA    N             -25.9937337129      -37.8815939508       65.8772337052  LPSA34    17             11.0000000000
     37288      1205  BGLCNA    HN            -26.5371528923      -37.2235204578       65.3675932319  LPSA34    17             11.0000000000
     37289      1205  BGLCNA    C             -26.6051966236      -38.6073137243       66.8132556541  LPSA34    17             11.0000000000
     37290      1205  BGLCNA    O             -26.0789831457      -39.4890022824       67.4748775983  LPSA34    17             11.0000000000
     37291      1205  BGLCNA    CT            -28.0425379693      -38.2397744669       67.0357519814  LPSA34    17             11.0000000000
     37292      1205  BGLCNA    HT1           -28.7456047888      -38.9239622554       66.5240588692  LPSA34    17             11.0000000000
     37293      1205  BGLCNA    HT2           -28.2054159632      -37.1988877884       66.6803891449  LPSA34    17             11.0000000000
     37294      1205  BGLCNA    HT3           -28.2717356844      -38.2552942804       68.1196055909  LPSA34    17             11.0000000000
     37295      1205  BGLCNA    C3            -23.7653806041      -36.9102346714       66.4360519535  LPSA34    17             11.0000000000
     37296      1205  BGLCNA    H3            -24.0830528238      -35.8946181028       66.0979180018  LPSA34    17             11.0000000000
     37297      1205  BGLCNA    O3            -24.1190537915      -37.0743631586       67.8370954622  LPSA34    17             11.0000000000
     37298      1205  BGLCNA    C4            -22.2922647735      -37.0848137027       66.0513437098  LPSA34    17             11.0000000000
     37299      1205  BGLCNA    H4            -22.0217543501      -38.1656489141       66.1264588308  LPSA34    17             11.0000000000
     37300      1205  BGLCNA    O4            -21.4272215203      -36.3782418100       66.9470069997  LPSA34    17             11.0000000000
     37301      1205  BGLCNA    HO4           -20.4941125161      -36.4507929247       66.6901021464  LPSA34    17             11.0000000000
     37302      1205  BGLCNA    C6            -20.6547068396      -36.9206147477       64.0986080441  LPSA34    17             11.0000000000
     37303      1205  BGLCNA    H61           -20.0765671225      -35.9774835027       64.1545660724  LPSA34    17             11.0000000000
     37304      1205  BGLCNA    H62           -20.1718173626      -37.6494299481       64.7724329785  LPSA34    17             11.0000000000
     37305      1205  BGLCNA    O6            -20.5129988714      -37.4264091407       62.7727755187  LPSA34    17             11.0000000000
     37306      1205  BGLCNA    HO6           -20.9256910126      -36.8250547432       62.1556143694  LPSA34    17             11.0000000000
     37307      1206  AGAL      C1            -24.1215774284      -35.8888066380       68.6226558081  LPSA34    18             12.0000000000
     37308      1206  AGAL      H1            -23.0647102792      -35.5801546191       68.8041181829  LPSA34    18             12.0000000000
     37309      1206  AGAL      C5            -26.2036973912      -35.0110984832       67.8535148744  LPSA34    18             12.0000000000
     37310      1206  AGAL      H5            -26.3364186959      -36.0055686779       67.3965257542  LPSA34    18             12.0000000000
     37311      1206  AGAL      O5            -24.7895592397      -34.7918229561       67.9921277780  LPSA34    18             12.0000000000
     37312      1206  AGAL      C2            -24.8125898946      -36.0465260733       69.9689447109  LPSA34    18             12.0000000000
     37313      1206  AGAL      H2            -24.7327334340      -35.0195474592       70.3861845749  LPSA34    18             12.0000000000
     37314      1206  AGAL      O2            -24.0913832505      -36.8878767289       70.8669286351  LPSA34    18             12.0000000000
     37315      1206  AGAL      C3            -26.3140192592      -36.3431784799       69.8441266762  LPSA34    18             12.0000000000
     37316      1206  AGAL      H3            -26.4318733231      -37.2228223733       69.1698810476  LPSA34    18             12.0000000000
     37317      1206  AGAL      O3            -26.9654987312      -36.6673852432       71.0808669428  LPSA34    18             12.0000000000
     37318      1206  AGAL      HO3           -27.4812169407      -37.4783740036       70.9629665676  LPSA34    18             12.0000000000
     37319      1206  AGAL      C4            -26.9565578117      -35.1486029362       69.1687881406  LPSA34    18             12.0000000000
     37320      1206  AGAL      H4            -28.0254029903      -35.3497201652       68.9287654995  LPSA34    18             12.0000000000
     37321      1206  AGAL      O4            -26.9027268897      -33.9786291761       69.9750787323  LPSA34    18             12.0000000000
     37322      1206  AGAL      HO4           -27.5153677550      -34.0534007678       70.7068229518  LPSA34    18             12.0000000000
     37323      1206  AGAL      C6            -26.7539271124      -34.1277327218       66.7697227073  LPSA34    18             12.0000000000
     37324      1206  AGAL      H61           -26.2085677277      -34.4017368478       65.8341369841  LPSA34    18             12.0000000000
     37325      1206  AGAL      H62           -27.8306669657      -34.3562680460       66.6229444190  LPSA34    18             12.0000000000
     37326      1206  AGAL      O6            -26.6012793441      -32.7367540132       67.0141646606  LPSA34    18             12.0000000000
     37327      1206  AGAL      HO6           -25.8798715879      -32.6112415229       67.6520572535  LPSA34    18             12.0000000000
     37328      1207  ARHM      C1            -24.0799787758      -36.3391346857       72.1692783961  LPSA34    19             13.0000000000
     37329      1207  ARHM      H1            -24.9912151597      -35.7318754842       72.3524422486  LPSA34    19             13.0000000000
     37330      1207  ARHM      C5            -21.7210179005      -36.0591830950       72.2824690570  LPSA34    19             13.0000000000
     37331      1207  ARHM      H5            -21.7150751991      -36.4485578005       71.2543016041  LPSA34    19             13.0000000000
     37332      1207  ARHM      O5            -22.9912823081      -35.4340048152       72.4327721227  LPSA34    19             13.0000000000
     37333      1207  ARHM      C2            -24.0004262287      -37.4996981692       73.1128301382  LPSA34    19             13.0000000000
     37334      1207  ARHM      H2            -24.7901750570      -38.2513242616       72.8668261727  LPSA34    19             13.0000000000
     37335      1207  ARHM      O2            -24.2218963225      -37.0568770566       74.4564895456  LPSA34    19             13.0000000000
     37336      1207  ARHM      C3            -22.6662153275      -38.1872386471       72.9617650939  LPSA34    19             13.0000000000
     37337      1207  ARHM      H3            -22.5538993705      -38.5216530546       71.9061416158  LPSA34    19             13.0000000000
     37338      1207  ARHM      O3            -22.6064526326      -39.3408609792       73.7761082163  LPSA34    19             13.0000000000
     37339      1207  ARHM      HO3           -22.8564752515      -39.0060272738       74.6408309606  LPSA34    19             13.0000000000
     37340      1207  ARHM      C4            -21.5553454089      -37.2059164905       73.2576958278  LPSA34    19             13.0000000000
     37341      1207  ARHM      H4            -21.6803468999      -36.8337600283       74.2995990104  LPSA34    19             13.0000000000
     37342      1207  ARHM      O4            -20.2497937279      -37.7661893865       73.1615995926  LPSA34    19             13.0000000000
     37343      1207  ARHM      HO4           -20.1232566609      -38.0693366981       72.2558013782  LPSA34    19             13.0000000000
     37344      1207  ARHM      C6            -20.6014882795      -35.0126442524       72.2913106955  LPSA34    19             13.0000000000
     37345      1207  ARHM      H61           -20.8451913405      -34.2959036902       71.4806927834  LPSA34    19             13.0000000000
     37346      1207  ARHM      H62           -20.5147451373      -34.4756149106       73.2515740880  LPSA34    19             13.0000000000
     37347      1207  ARHM      H63           -19.6203509221      -35.4869662033       72.0659219807  LPSA34    19             13.0000000000
     37348      1208  ARHM      C1            -25.5655778484      -36.7150369325       74.6951223702  LPSA34    20             14.0000000000
     37349      1208  ARHM      H1            -26.2236281295      -37.0640516692       73.8679731283  LPSA34    20             14.0000000000
     37350      1208  ARHM      C5            -25.1301631789      -34.7534437153       75.9486272244  LPSA34    20             14.0000000000
     37351      1208  ARHM      H5            -24.0508046569      -34.9598945624       75.8145232796  LPSA34    20             14.0000000000
     37352      1208  ARHM      O5            -25.8154645620      -35.3079422474       74.8208309767  LPSA34    20             14.0000000000
     37353      1208  ARHM      C2            -25.9672502892      -37.4379868097       75.9461215609  LPSA34    20             14.0000000000
     37354      1208  ARHM      H2            -25.6683515630      -38.5090004177       75.8444741056  LPSA34    20             14.0000000000
     37355      1208  ARHM      O2            -27.3783471544      -37.3329980812       76.1470079622  LPSA34    20             14.0000000000
     37356      1208  ARHM      C3            -25.2563968714      -36.8898740180       77.1269190697  LPSA34    20             14.0000000000
     37357      1208  ARHM      H3            -24.1536661434      -36.9912661005       76.9634071813  LPSA34    20             14.0000000000
     37358      1208  ARHM      O3            -25.6659545491      -37.6572981875       78.2605137050  LPSA34    20             14.0000000000
     37359      1208  ARHM      C4            -25.5790867728      -35.4341477897       77.2404215873  LPSA34    20             14.0000000000
     37360      1208  ARHM      H4            -26.6660085652      -35.2451089135       77.3629655219  LPSA34    20             14.0000000000
     37361      1208  ARHM      O4            -24.9120417352      -34.8929468090       78.3601117211  LPSA34    20             14.0000000000
     37362      1208  ARHM      HO4           -24.8246380447      -33.9558131754       78.1617889942  LPSA34    20             14.0000000000
     37363      1208  ARHM      C6            -25.3280153826      -33.2270335982       75.9380753086  LPSA34    20             14.0000000000
     37364      1208  ARHM      H61           -26.3887113993      -32.9584442864       76.0971508904  LPSA34    20             14.0000000000
     37365      1208  ARHM      H62           -24.7414915082      -32.7844702545       76.7645133626  LPSA34    20             14.0000000000
     37366      1208  ARHM      H63           -24.9767712780      -32.7938339740       74.9799635883  LPSA34    20             14.0000000000
     37367      1209  BMANNA    C1            -28.0483165354      -38.2954398966       75.3943472993  LPSA34    21             15.0000000000
     37368      1209  BMANNA    H1            -27.3293604388      -38.8095947426       74.7125002267  LPSA34    21             15.0000000000
     37369      1209  BMANNA    C5            -29.5402340924      -38.7603688826       73.6540928821  LPSA34    21             15.0000000000
     37370      1209  BMANNA    H5            -28.7099618921      -39.2805251218       73.0987580976  LPSA34    21             15.0000000000
     37371      1209  BMANNA    O5            -29.0116603062      -37.7290095771       74.5071629877  LPSA34    21             15.0000000000
     37372      1209  BMANNA    C2            -28.6635133624      -39.3064991374       76.3267013658  LPSA34    21             15.0000000000
     37373      1209  BMANNA    H2            -27.8048335299      -39.7571948056       76.8970448784  LPSA34    21             15.0000000000
     37374      1209  BMANNA    N             -29.6300707776      -38.7123271586       77.2581850339  LPSA34    21             15.0000000000
     37375      1209  BMANNA    HN            -30.2883327828      -38.0858015081       76.8713828423  LPSA34    21             15.0000000000
     37376      1209  BMANNA    C             -29.6490905041      -38.9968360455       78.5670584964  LPSA34    21             15.0000000000
     37377      1209  BMANNA    O             -28.9445082487      -39.8840499307       79.0167179282  LPSA34    21             15.0000000000
     37378      1209  BMANNA    CT            -30.5967492985      -38.2311946123       79.4765549288  LPSA34    21             15.0000000000
     37379      1209  BMANNA    HT1           -31.6490660993      -38.4598194713       79.2757356200  LPSA34    21             15.0000000000
     37380      1209  BMANNA    HT2           -30.4516295680      -37.1542811967       79.3324917244  LPSA34    21             15.0000000000
     37381      1209  BMANNA    HT3           -30.4402312521      -38.4936856600       80.5493555946  LPSA34    21             15.0000000000
     37382      1209  BMANNA    C3            -29.2345037416      -40.3776331440       75.4418112900  LPSA34    21             15.0000000000
     37383      1209  BMANNA    H3            -28.3563971232      -40.8378916064       74.9156743033  LPSA34    21             15.0000000000
     37384      1209  BMANNA    O3            -29.8424583474      -41.3927994806       76.1818416578  LPSA34    21             15.0000000000
     37385      1209  BMANNA    HO3           -30.5083335531      -41.0667357684       76.7911301641  LPSA34    21             15.0000000000
     37386      1209  BMANNA    C4            -30.2315152045      -39.7980714136       74.4758445202  LPSA34    21             15.0000000000
     37387      1209  BMANNA    H4            -31.1027337072      -39.3678611090       75.0222270473  LPSA34    21             15.0000000000
     37388      1209  BMANNA    O4            -30.7758608102      -40.7235729347       73.5660948500  LPSA34    21             15.0000000000
     37389      1209  BMANNA    HO4           -31.6652693652      -40.9868584321       73.8269538451  LPSA34    21             15.0000000000
     37390      1209  BMANNA    C6            -30.4652842826      -38.1904577213       72.6140960106  LPSA34    21             15.0000000000
     37391      1209  BMANNA    H61           -30.6215139384      -38.9468776130       71.8096515274  LPSA34    21             15.0000000000
     37392      1209  BMANNA    H62           -31.4533588607      -38.0053277175       73.0857472791  LPSA34    21             15.0000000000
     37393      1209  BMANNA    O6            -29.9620496561      -36.9777476063       72.0589020770  LPSA34    21             15.0000000000
     37394      1209  BMANNA    HO6           -29.9035437458      -36.3518377073       72.7946500326  LPSA34    21             15.0000000000
     37395      1210  BGLCNA    C1            -24.6870352303      -37.8260056817       79.2456715249  LPSA34    22             15.0000000000
     37396      1210  BGLCNA    H1            -23.9201177341      -37.0321763986       79.2425124262  LPSA34    22             15.0000000000
     37397      1210  BGLCNA    C5            -23.0677705632      -39.1759048908       80.1674126615  LPSA34    22             15.0000000000
     37398      1210  BGLCNA    H5            -22.3285381914      -38.3476608510       80.1761306896  LPSA34    22             15.0000000000
     37399      1210  BGLCNA    O5            -23.9679641599      -39.0101235414       79.0564173941  LPSA34    22             15.0000000000
     37400      1210  BGLCNA    C2            -25.4187424519      -37.8630664751       80.5487601506  LPSA34    22             15.0000000000
     37401      1210  BGLCNA    H2            -26.1589135586      -38.7053654526       80.5029842302  LPSA34    22             15.0000000000
     37402      1210  BGLCNA    N             -26.0825749089      -36.6037493719       80.7215349421  LPSA34    22             15.0000000000
     37403      1210  BGLCNA    HN            -25.6116151031      -35.7943800719       80.3810262228  LPSA34    22             15.0000000000
     37404      1210  BGLCNA    C             -27.2414923813      -36.4520228635       81.3464907419  LPSA34    22             15.0000000000
     37405      1210  BGLCNA    O             -27.8723733300      -37.3660690580       81.8513618924  LPSA34    22             15.0000000000
     37406      1210  BGLCNA    CT            -27.7467064866      -35.0449568731       81.4064788776  LPSA34    22             15.0000000000
     37407      1210  BGLCNA    HT1           -28.4321320257      -34.9142733218       80.5451396371  LPSA34    22             15.0000000000
     37408      1210  BGLCNA    HT2           -26.8975492663      -34.3428522813       81.2894210624  LPSA34    22             15.0000000000
     37409      1210  BGLCNA    HT3           -28.2468029258      -34.8323115305       82.3719192234  LPSA34    22             15.0000000000
     37410      1210  BGLCNA    C3            -24.4834130962      -38.0849045805       81.6969558529  LPSA34    22             15.0000000000
     37411      1210  BGLCNA    H3            -23.6735369963      -37.3105407322       81.6624831021  LPSA34    22             15.0000000000
     37412      1210  BGLCNA    O3            -25.2182711330      -37.9636016289       82.9196847035  LPSA34    22             15.0000000000
     37413      1210  BGLCNA    C4            -23.7916202532      -39.3557745893       81.4963347783  LPSA34    22             15.0000000000
     37414      1210  BGLCNA    H4            -24.5348568158      -40.1934427417       81.4159544955  LPSA34    22             15.0000000000
     37415      1210  BGLCNA    O4            -22.9397108015      -39.6858067519       82.5729350266  LPSA34    22             15.0000000000
     37416      1210  BGLCNA    HO4           -22.8838938122      -40.6459932298       82.7191859717  LPSA34    22             15.0000000000
     37417      1210  BGLCNA    C6            -22.3543311551      -40.3169345480       79.8718672985  LPSA34    22             15.0000000000
     37418      1210  BGLCNA    H61           -21.8243530744      -40.8207229831       80.6122647278  LPSA34    22             15.0000000000
     37419      1210  BGLCNA    H62           -23.2494249543      -40.9810638237       79.8524133557  LPSA34    22             15.0000000000
     37420      1210  BGLCNA    O6            -21.3326452556      -40.1972642230       78.8697119830  LPSA34    22             15.0000000000
     37421      1210  BGLCNA    HO6           -21.6268405847      -40.0645874857       77.9704882936  LPSA34    22             15.0000000000
     37422      1211  AGAL      C1            -24.5091849272      -37.7294057372       84.1046049570  LPSA34    23             16.0000000000
     37423      1211  AGAL      H1            -24.0275765938      -38.6704738954       84.4519660497  LPSA34    23             16.0000000000
     37424      1211  AGAL      C5            -24.0350360590      -35.4091060471       83.7185857981  LPSA34    23             16.0000000000
     37425      1211  AGAL      H5            -24.6729991212      -35.4819540337       82.8121318745  LPSA34    23             16.0000000000
     37426      1211  AGAL      O5            -23.4976056730      -36.7135017360       83.9884484037  LPSA34    23             16.0000000000
     37427      1211  AGAL      C2            -25.4755552373      -37.3285135164       85.1887576173  LPSA34    23             16.0000000000
     37428      1211  AGAL      H2            -24.8642607261      -37.2008712921       86.1066028187  LPSA34    23             16.0000000000
     37429      1211  AGAL      O2            -26.4732486925      -38.3293083241       85.4519702396  LPSA34    23             16.0000000000
     37430      1211  AGAL      C3            -26.0813201078      -35.9680392115       84.8825293272  LPSA34    23             16.0000000000
     37431      1211  AGAL      H3            -26.5310214617      -36.0006496430       83.8658203576  LPSA34    23             16.0000000000
     37432      1211  AGAL      O3            -27.1471859264      -35.6275435043       85.7639654084  LPSA34    23             16.0000000000
     37433      1211  AGAL      HO3           -26.9013111075      -35.8532590815       86.6606104165  LPSA34    23             16.0000000000
     37434      1211  AGAL      C4            -24.9596017823      -34.9418884743       84.8492206206  LPSA34    23             16.0000000000
     37435      1211  AGAL      H4            -25.3515278707      -33.9310735858       84.6085615509  LPSA34    23             16.0000000000
     37436      1211  AGAL      O4            -24.2762869505      -34.8355672578       86.0912320446  LPSA34    23             16.0000000000
     37437      1211  AGAL      HO4           -23.3665186539      -34.5598563831       85.8590665486  LPSA34    23             16.0000000000
     37438      1211  AGAL      C6            -22.8849137289      -34.5005557252       83.3256146967  LPSA34    23             16.0000000000
     37439      1211  AGAL      H61           -22.2469874369      -35.0266515582       82.5775982054  LPSA34    23             16.0000000000
     37440      1211  AGAL      H62           -23.2754138243      -33.5912265067       82.8173148969  LPSA34    23             16.0000000000
     37441      1211  AGAL      O6            -22.0916120596      -34.1270493401       84.4537471625  LPSA34    23             16.0000000000
     37442      1211  AGAL      HO6           -21.2930312950      -33.6361434619       84.2149227859  LPSA34    23             16.0000000000
     37443      1212  ARHM      C1            -26.1454809308      -39.4323455026       86.2563778264  LPSA34    24             17.0000000000
     37444      1212  ARHM      H1            -25.0316471588      -39.5104511525       86.3634371255  LPSA34    24             17.0000000000
     37445      1212  ARHM      C5            -28.0917072770      -40.6600144605       85.4842001893  LPSA34    24             17.0000000000
     37446      1212  ARHM      H5            -28.3326821828      -39.7982044348       84.8244294924  LPSA34    24             17.0000000000
     37447      1212  ARHM      O5            -26.6502877456      -40.6682845858       85.7012718751  LPSA34    24             17.0000000000
     37448      1212  ARHM      C2            -26.8020901317      -39.1601455018       87.5973435225  LPSA34    24             17.0000000000
     37449      1212  ARHM      H2            -26.5187299427      -38.1337246643       87.9306277804  LPSA34    24             17.0000000000
     37450      1212  ARHM      O2            -26.4024386407      -40.1102481341       88.6043020557  LPSA34    24             17.0000000000
     37451      1212  ARHM      C3            -28.3157701852      -39.1224197479       87.4044877198  LPSA34    24             17.0000000000
     37452      1212  ARHM      H3            -28.5528254104      -38.3765814734       86.6260383871  LPSA34    24             17.0000000000
     37453      1212  ARHM      O3            -29.0074047381      -38.7708699341       88.5998079918  LPSA34    24             17.0000000000
     37454      1212  ARHM      HO3           -29.1208887333      -39.5562031953       89.1438313367  LPSA34    24             17.0000000000
     37455      1212  ARHM      C4            -28.7599399394      -40.4469228683       86.8548970042  LPSA34    24             17.0000000000
     37456      1212  ARHM      H4            -28.3962294633      -41.0530342449       87.6981688507  LPSA34    24             17.0000000000
     37457      1212  ARHM      O4            -30.1501398378      -40.7164161008       86.8180703664  LPSA34    24             17.0000000000
     37458      1212  ARHM      HO4           -30.3115039187      -41.6426696689       87.0695770437  LPSA34    24             17.0000000000
     37459      1212  ARHM      C6            -28.4997384725      -41.9020225582       84.6099483715  LPSA34    24             17.0000000000
     37460      1212  ARHM      H61           -29.4063626338      -41.8258143237       83.9968012465  LPSA34    24             17.0000000000
     37461      1212  ARHM      H62           -27.5162984771      -42.0778559317       84.1463378977  LPSA34    24             17.0000000000
     37462      1212  ARHM      H63           -28.7175311579      -42.9300988328       84.9817877160  LPSA34    24             17.0000000000
     37463      1213  ARHM      C1            -25.1118114967      -39.8793310276       89.0989158539  LPSA34    25             18.0000000000
     37464      1213  ARHM      H1            -24.5300354348      -39.2257045537       88.4262966348  LPSA34    25             18.0000000000
     37465      1213  ARHM      C5            -24.9454355176      -42.0737192771       89.9912141612  LPSA34    25             18.0000000000
     37466      1213  ARHM      H5            -25.9319406133      -42.3893410914       89.6497399058  LPSA34    25             18.0000000000
     37467      1213  ARHM      O5            -24.3329144102      -41.0770666191       89.1811034871  LPSA34    25             18.0000000000
     37468      1213  ARHM      C2            -25.2599626979      -39.2292205858       90.4281538836  LPSA34    25             18.0000000000
     37469      1213  ARHM      H2            -25.9715648075      -38.3628833862       90.3444664779  LPSA34    25             18.0000000000
     37470      1213  ARHM      O2            -23.9884351874      -38.7562304175       90.9007694517  LPSA34    25             18.0000000000
     37471      1213  ARHM      C3            -25.9403444002      -40.2051749990       91.3121715881  LPSA34    25             18.0000000000
     37472      1213  ARHM      H3            -26.9600810933      -40.4893097234       90.9772069775  LPSA34    25             18.0000000000
     37473      1213  ARHM      O3            -26.0198518899      -39.4403893900       92.5462710196  LPSA34    25             18.0000000000
     37474      1213  ARHM      C4            -25.1342394423      -41.4855471740       91.2910501577  LPSA34    25             18.0000000000
     37475      1213  ARHM      H4            -24.0106873062      -41.3617695546       91.4627753900  LPSA34    25             18.0000000000
     37476      1213  ARHM      O4            -25.8717184024      -42.4134495165       92.1140789323  LPSA34    25             18.0000000000
     37477      1213  ARHM      HO4           -25.3003832685      -42.8814257672       92.7678264744  LPSA34    25             18.0000000000
     37478      1213  ARHM      C6            -24.0427495531      -43.3149899713       90.0960043126  LPSA34    25             18.0000000000
     37479      1213  ARHM      H61           -23.7980234677      -43.7901211776       89.1502756055  LPSA34    25             18.0000000000
     37480      1213  ARHM      H62           -23.0981167699      -43.1653220319       90.6671477463  LPSA34    25             18.0000000000
     37481      1213  ARHM      H63           -24.6712029947      -44.0604392101       90.6019599392  LPSA34    25             18.0000000000
     37482      1214  BMANNA    C1            -23.5860362704      -37.5631522720       90.2689755461  LPSA34    26             19.0000000000
     37483      1214  BMANNA    H1            -24.4566283671      -36.9947008697       89.8587489185  LPSA34    26             19.0000000000
     37484      1214  BMANNA    C5            -22.2880278285      -36.4843735637       88.5896884946  LPSA34    26             19.0000000000
     37485      1214  BMANNA    H5            -23.2156845686      -36.0254435027       88.1779449040  LPSA34    26             19.0000000000
     37486      1214  BMANNA    O5            -22.6359790411      -37.7339965835       89.2157616382  LPSA34    26             19.0000000000
     37487      1214  BMANNA    C2            -22.9529114473      -36.7316948661       91.3236562160  LPSA34    26             19.0000000000
     37488      1214  BMANNA    H2            -23.7032464463      -36.6764693166       92.1182932327  LPSA34    26             19.0000000000
     37489      1214  BMANNA    N             -21.7947594046      -37.3876694151       91.9088831079  LPSA34    26             19.0000000000
     37490      1214  BMANNA    HN            -21.0857506776      -37.6465004876       91.2780664490  LPSA34    26             19.0000000000
     37491      1214  BMANNA    C             -21.6182261588      -37.5726965699       93.2239233001  LPSA34    26             19.0000000000
     37492      1214  BMANNA    O             -22.5071002763      -37.3032175665       94.0161825779  LPSA34    26             19.0000000000
     37493      1214  BMANNA    CT            -20.2526521072      -38.0499218515       93.6640607139  LPSA34    26             19.0000000000
     37494      1214  BMANNA    HT1           -19.7607085870      -38.6190100800       92.8502583964  LPSA34    26             19.0000000000
     37495      1214  BMANNA    HT2           -20.2453895799      -38.6355708391       94.6058501405  LPSA34    26             19.0000000000
     37496      1214  BMANNA    HT3           -19.6678909290      -37.1345030047       93.8594325233  LPSA34    26             19.0000000000
     37497      1214  BMANNA    C3            -22.6638498609      -35.3643331686       90.7465532593  LPSA34    26             19.0000000000
     37498      1214  BMANNA    H3            -23.5978104085      -34.9104891698       90.3237540523  LPSA34    26             19.0000000000
     37499      1214  BMANNA    O3            -22.2242871462      -34.5071406994       91.7896901843  LPSA34    26             19.0000000000
     37500      1214  BMANNA    HO3           -22.9562337448      -34.1278742137       92.2872687110  LPSA34    26             19.0000000000
     37501      1214  BMANNA    C4            -21.6757133400      -35.5394552615       89.6133612396  LPSA34    26             19.0000000000
     37502      1214  BMANNA    H4            -20.7262340884      -35.9760150553       89.9794718307  LPSA34    26             19.0000000000
     37503      1214  BMANNA    O4            -21.3484272413      -34.3220382829       88.9828937941  LPSA34    26             19.0000000000
     37504      1214  BMANNA    HO4           -20.7261994908      -33.8098195535       89.5167462451  LPSA34    26             19.0000000000
     37505      1214  BMANNA    C6            -21.3995199677      -36.8157959699       87.4016742060  LPSA34    26             19.0000000000
     37506      1214  BMANNA    H61           -21.7835606664      -37.7333398465       86.9087018999  LPSA34    26             19.0000000000
     37507      1214  BMANNA    H62           -21.4344838185      -35.9996816430       86.6423668995  LPSA34    26             19.0000000000
     37508      1214  BMANNA    O6            -20.0468755964      -37.0436952160       87.7936417760  LPSA34    26             19.0000000000
     37509      1214  BMANNA    HO6           -19.7159052324      -36.1862606579       88.1009059295  LPSA34    26             19.0000000000
     37510      1215  BGLCNA    C1            -27.1028257971      -39.6188217033       93.4231238618  LPSA34    27             19.0000000000
     37511      1215  BGLCNA    H1            -27.5216941792      -40.5716569482       93.2280405306  LPSA34    27             19.0000000000
     37512      1215  BGLCNA    C5            -29.3333114658      -39.0543381834       93.9190402234  LPSA34    27             19.0000000000
     37513      1215  BGLCNA    H5            -29.5909584273      -40.1452084355       93.9379554092  LPSA34    27             19.0000000000
     37514      1215  BGLCNA    O5            -28.2045664422      -38.8160712161       93.0586056313  LPSA34    27             19.0000000000
     37515      1215  BGLCNA    C2            -26.6995584918      -39.2953432744       94.8823263865  LPSA34    27             19.0000000000
     37516      1215  BGLCNA    H2            -26.4033840265      -38.2261655804       94.8675010745  LPSA34    27             19.0000000000
     37517      1215  BGLCNA    N             -25.5778822892      -40.0519827073       95.4273944811  LPSA34    27             19.0000000000
     37518      1215  BGLCNA    HN            -25.4787683399      -41.0060506212       95.1311395456  LPSA34    27             19.0000000000
     37519      1215  BGLCNA    C             -24.4849289975      -39.4389328848       95.9494853043  LPSA34    27             19.0000000000
     37520      1215  BGLCNA    O             -24.5956987230      -38.3478574758       96.4765310399  LPSA34    27             19.0000000000
     37521      1215  BGLCNA    CT            -23.1057679695      -40.1107086651       95.9139231931  LPSA34    27             19.0000000000
     37522      1215  BGLCNA    HT1           -23.1468329891      -41.0687594853       95.3832802845  LPSA34    27             19.0000000000
     37523      1215  BGLCNA    HT2           -22.6749724779      -40.3837815027       96.8736359428  LPSA34    27             19.0000000000
     37524      1215  BGLCNA    HT3           -22.3231074432      -39.4360900971       95.5488111322  LPSA34    27             19.0000000000
     37525      1215  BGLCNA    C3            -27.8402652582      -39.4941691953       95.8152453439  LPSA34    27             19.0000000000
     37526      1215  BGLCNA    H3            -28.1726683719      -40.5585099161       95.7675031459  LPSA34    27             19.0000000000
     37527      1215  BGLCNA    O3            -27.3032642348      -39.1502033498       97.1223939007  LPSA34    27             19.0000000000
     37528      1215  BGLCNA    C4            -28.9827092253      -38.6530961163       95.3428328551  LPSA34    27             19.0000000000
     37529      1215  BGLCNA    H4            -28.7171574594      -37.5887893382       95.3856831447  LPSA34    27             19.0000000000
     37530      1215  BGLCNA    O4            -30.1106009707      -38.7972019350       96.1643536801  LPSA34    27             19.0000000000
     37531      1215  BGLCNA    HO4           -30.4652430354      -39.6926420185       96.0965397282  LPSA34    27             19.0000000000
     37532      1215  BGLCNA    C6            -30.5095933397      -38.3469830929       93.3204919783  LPSA34    27             19.0000000000
     37533      1215  BGLCNA    H61           -31.4268247322      -38.6096149855       93.8601225008  LPSA34    27             19.0000000000
     37534      1215  BGLCNA    H62           -30.3737349044      -37.2635239260       93.4610016366  LPSA34    27             19.0000000000
     37535      1215  BGLCNA    O6            -30.6853132397      -38.6960732816       91.9444719353  LPSA34    27             19.0000000000
     37536      1215  BGLCNA    HO6           -31.3497090671      -38.1319368816       91.5384642662  LPSA34    27             19.0000000000
     37537      1216  AGAL      C1            -28.0498668378      -39.5880049283       98.2200783232  LPSA34    28             20.0000000000
     37538      1216  AGAL      H1            -28.9446181323      -38.9546259750       98.3014357443  LPSA34    28             20.0000000000
     37539      1216  AGAL      C5            -27.3875421714      -41.8873639582       97.9425369997  LPSA34    28             20.0000000000
     37540      1216  AGAL      H5            -26.5573827528      -41.4951745628       97.3335866533  LPSA34    28             20.0000000000
     37541      1216  AGAL      O5            -28.4816992307      -40.9547003972       97.9567558531  LPSA34    28             20.0000000000
     37542      1216  AGAL      C2            -27.4088959855      -39.4403316114       99.6374975058  LPSA34    28             20.0000000000
     37543      1216  AGAL      H2            -28.2348573510      -39.7195736893      100.3213517517  LPSA34    28             20.0000000000
     37544      1216  AGAL      O2            -26.9548724944      -38.1776947694      100.0994217914  LPSA34    28             20.0000000000
     37545      1216  AGAL      C3            -26.2223070420      -40.3281083735       99.6602698024  LPSA34    28             20.0000000000
     37546      1216  AGAL      H3            -25.6895674024      -39.8143086659       98.8764912319  LPSA34    28             20.0000000000
     37547      1216  AGAL      O3            -25.3117831021      -40.3215543996      100.7890372350  LPSA34    28             20.0000000000
     37548      1216  AGAL      HO3           -24.3931925034      -40.1359827146      100.5566570900  LPSA34    28             20.0000000000
     37549      1216  AGAL      C4            -26.7161860515      -41.6914357018       99.3133339255  LPSA34    28             20.0000000000
     37550      1216  AGAL      H4            -25.8417438800      -42.3245039110       99.4529115846  LPSA34    28             20.0000000000
     37551      1216  AGAL      O4            -27.6763152503      -41.8360020004      100.2599200415  LPSA34    28             20.0000000000
     37552      1216  AGAL      HO4           -27.2949101876      -42.5239694771      100.8540852817  LPSA34    28             20.0000000000
     37553      1216  AGAL      C6            -27.8143684997      -43.2978635301       97.2677269241  LPSA34    28             20.0000000000
     37554      1216  AGAL      H61           -27.9961753052      -43.1929101746       96.2102575375  LPSA34    28             20.0000000000
     37555      1216  AGAL      H62           -26.9880329304      -44.0485913960       97.4346455450  LPSA34    28             20.0000000000
     37556      1216  AGAL      O6            -29.0056881735      -44.0351338944       97.5788805528  LPSA34    28             20.0000000000
     37557      1216  AGAL      HO6           -29.7848797803      -43.5501135909       97.8962677027  LPSA34    28             20.0000000000
     37558      1217  ARHM      C1            -27.2179529348      -38.1168856348      101.4882482124  LPSA34    29             21.0000000000
     37559      1217  ARHM      H1            -27.1937642149      -39.1223272915      101.9651636598  LPSA34    29             21.0000000000
     37560      1217  ARHM      C5            -28.6206048094      -36.2493284808      101.1532875950  LPSA34    29             21.0000000000
     37561      1217  ARHM      H5            -28.3515328109      -36.3280352365      100.0793036389  LPSA34    29             21.0000000000
     37562      1217  ARHM      O5            -28.5082962357      -37.5558966561      101.7154009393  LPSA34    29             21.0000000000
     37563      1217  ARHM      C2            -26.1804577804      -37.2853561664      102.1673212695  LPSA34    29             21.0000000000
     37564      1217  ARHM      H2            -25.1843492011      -37.7228503483      101.9172932837  LPSA34    29             21.0000000000
     37565      1217  ARHM      O2            -26.3871240615      -37.2702666728      103.5958590148  LPSA34    29             21.0000000000
     37566      1217  ARHM      C3            -26.2374057036      -35.8912899188      101.6162283473  LPSA34    29             21.0000000000
     37567      1217  ARHM      H3            -26.0493122969      -35.9230127309      100.5137700033  LPSA34    29             21.0000000000
     37568      1217  ARHM      O3            -25.2139064275      -35.0947479841      102.1990955689  LPSA34    29             21.0000000000
     37569      1217  ARHM      HO3           -25.5903755756      -34.2107124195      102.2079817570  LPSA34    29             21.0000000000
     37570      1217  ARHM      C4            -27.6250878454      -35.2988103111      101.8307233461  LPSA34    29             21.0000000000
     37571      1217  ARHM      H4            -27.8622503819      -35.2511975640      102.9189269903  LPSA34    29             21.0000000000
     37572      1217  ARHM      O4            -27.6872022232      -33.9439840607      101.3811666451  LPSA34    29             21.0000000000
     37573      1217  ARHM      HO4           -27.4789475465      -33.8444041804      100.4389346701  LPSA34    29             21.0000000000
     37574      1217  ARHM      C6            -30.1132927663      -35.9314341876      101.2323482102  LPSA34    29             21.0000000000
     37575      1217  ARHM      H61           -30.6712997353      -36.7840896596      100.7757201010  LPSA34    29             21.0000000000
     37576      1217  ARHM      H62           -30.4477824943      -35.8001825064      102.2819762481  LPSA34    29             21.0000000000
     37577      1217  ARHM      H63           -30.3278017032      -35.0088609247      100.6524977075  LPSA34    29             21.0000000000
     37578      1218  ARHM      C1            -25.6280747173      -38.1613914579      104.3769524084  LPSA34    30             22.0000000000
     37579      1218  ARHM      H1            -24.5435099881      -38.0339599735      104.1590235042  LPSA34    30             22.0000000000
     37580      1218  ARHM      C5            -27.3234524212      -39.7184957160      104.6283483586  LPSA34    30             22.0000000000
     37581      1218  ARHM      H5            -27.9481017073      -39.0427482771      103.9882007364  LPSA34    30             22.0000000000
     37582      1218  ARHM      O5            -25.9857024500      -39.5233933273      104.1862366094  LPSA34    30             22.0000000000
     37583      1218  ARHM      C2            -25.8720915968      -37.8722565239      105.8364729558  LPSA34    30             22.0000000000
     37584      1218  ARHM      H2            -25.6496357795      -36.8049673766      106.0359879538  LPSA34    30             22.0000000000
     37585      1218  ARHM      O2            -25.0636655406      -38.7439109920      106.6111910483  LPSA34    30             22.0000000000
     37586      1218  ARHM      C3            -27.3106357716      -38.1133442486      106.2475155734  LPSA34    30             22.0000000000
     37587      1218  ARHM      H3            -27.9690938566      -37.5574976121      105.5308676605  LPSA34    30             22.0000000000
     37588      1218  ARHM      O3            -27.6158587388      -37.6487300442      107.5569659652  LPSA34    30             22.0000000000
     37589      1218  ARHM      C4            -27.6170298526      -39.5249266388      106.0552529527  LPSA34    30             22.0000000000
     37590      1218  ARHM      H4            -26.9440695141      -40.2448540863      106.5895945902  LPSA34    30             22.0000000000
     37591      1218  ARHM      O4            -28.9515867284      -39.9135177868      106.4170527718  LPSA34    30             22.0000000000
     37592      1218  ARHM      HO4           -29.6028055977      -39.7931789920      105.7077166457  LPSA34    30             22.0000000000
     37593      1218  ARHM      C6            -27.8353028617      -41.0220374628      104.4267798936  LPSA34    30             22.0000000000
     37594      1218  ARHM      H61           -28.8966362465      -41.1192783473      104.5952527874  LPSA34    30             22.0000000000
     37595      1218  ARHM      H62           -28.1107360853      -40.8841057762      103.3878697674  LPSA34    30             22.0000000000
     37596      1218  ARHM      H63           -27.1602377915      -41.9001397243      104.6497199680  LPSA34    30             22.0000000000
     37597      1219  BMANNA    C1            -23.8150435411      -38.2262105646      106.9034713258  LPSA34    31             23.0000000000
     37598      1219  BMANNA    H1            -23.8894010851      -37.1542066966      107.1575718616  LPSA34    31             23.0000000000
     37599      1219  BMANNA    C5            -21.5385350810      -38.0220630697      106.2003255822  LPSA34    31             23.0000000000
     37600      1219  BMANNA    H5            -21.6610938352      -36.9559245861      106.5056124473  LPSA34    31             23.0000000000
     37601      1219  BMANNA    O5            -22.8683018189      -38.4788713444      105.8660364885  LPSA34    31             23.0000000000
     37602      1219  BMANNA    C2            -23.3875484006      -39.0008720550      108.0810688800  LPSA34    31             23.0000000000
     37603      1219  BMANNA    H2            -24.1008059614      -38.7384616810      108.9071437497  LPSA34    31             23.0000000000
     37604      1219  BMANNA    N             -23.5018509219      -40.4033283867      107.8111736117  LPSA34    31             23.0000000000
     37605      1219  BMANNA    HN            -23.5464577422      -40.6900954444      106.8507260616  LPSA34    31             23.0000000000
     37606      1219  BMANNA    C             -23.7117853786      -41.2194401593      108.8121324047  LPSA34    31             23.0000000000
     37607      1219  BMANNA    O             -23.7097378182      -40.8404224685      109.9630326951  LPSA34    31             23.0000000000
     37608      1219  BMANNA    CT            -23.8204298739      -42.6241220194      108.4149642788  LPSA34    31             23.0000000000
     37609      1219  BMANNA    HT1           -23.1722671244      -42.6598889207      107.5038774516  LPSA34    31             23.0000000000
     37610      1219  BMANNA    HT2           -24.8688695839      -42.9074492120      108.2175205254  LPSA34    31             23.0000000000
     37611      1219  BMANNA    HT3           -23.5342807468      -43.3639717560      109.1731127127  LPSA34    31             23.0000000000
     37612      1219  BMANNA    C3            -22.0214125049      -38.5456650890      108.5004091027  LPSA34    31             23.0000000000
     37613      1219  BMANNA    H3            -22.0556486457      -37.4471828799      108.6824557434  LPSA34    31             23.0000000000
     37614      1219  BMANNA    O3            -21.6546833738      -39.1384572782      109.7235763446  LPSA34    31             23.0000000000
     37615      1219  BMANNA    HO3           -22.4817679980      -39.4516484414      110.1328951688  LPSA34    31             23.0000000000
     37616      1219  BMANNA    C4            -21.0344348489      -38.7892080180      107.4048250544  LPSA34    31             23.0000000000
     37617      1219  BMANNA    H4            -20.9733387829      -39.8633746755      107.1198780772  LPSA34    31             23.0000000000
     37618      1219  BMANNA    O4            -19.7184661269      -38.4141848505      107.7833404214  LPSA34    31             23.0000000000
     37619      1219  BMANNA    HO4           -19.6971559060      -37.5478639465      108.2114506355  LPSA34    31             23.0000000000
     37620      1219  BMANNA    C6            -20.5573889078      -38.0545940028      105.0395456189  LPSA34    31             23.0000000000
     37621      1219  BMANNA    H61           -19.6396136238      -37.4828036976      105.3142823257  LPSA34    31             23.0000000000
     37622      1219  BMANNA    H62           -20.2210347611      -39.1000401688      104.8579516849  LPSA34    31             23.0000000000
     37623      1219  BMANNA    O6            -21.1145480244      -37.5259956622      103.8283953998  LPSA34    31             23.0000000000
     37624      1219  BMANNA    HO6           -21.1755114438      -36.5783315072      103.8446235896  LPSA34    31             23.0000000000
     37625      1220  BGLCNA    C1            -27.2494639235      -38.4972750213      108.6108884871  LPSA34    32             23.0000000000
     37626      1220  BGLCNA    H1            -26.2970928629      -39.0108461594      108.4048716481  LPSA34    32             23.0000000000
     37627      1220  BGLCNA    C5            -27.7682641610      -40.3704480376      109.9536282600  LPSA34    32             23.0000000000
     37628      1220  BGLCNA    H5            -26.8152905180      -40.8532637083      109.6126286463  LPSA34    32             23.0000000000
     37629      1220  BGLCNA    O5            -28.1996705766      -39.4889470099      108.9188766085  LPSA34    32             23.0000000000
     37630      1220  BGLCNA    C2            -27.0681818805      -37.6476003246      109.8337308459  LPSA34    32             23.0000000000
     37631      1220  BGLCNA    H2            -28.0930828994      -37.2980856071      110.1305544947  LPSA34    32             23.0000000000
     37632      1220  BGLCNA    N             -26.2206940154      -36.5274830283      109.5583151294  LPSA34    32             23.0000000000
     37633      1220  BGLCNA    HN            -25.5447361647      -36.7233347759      108.8724005232  LPSA34    32             23.0000000000
     37634      1220  BGLCNA    C             -26.3346833467      -35.2940975474      110.0816628620  LPSA34    32             23.0000000000
     37635      1220  BGLCNA    O             -27.1537784963      -34.9844052764      110.9355976687  LPSA34    32             23.0000000000
     37636      1220  BGLCNA    CT            -25.3263868794      -34.3086795154      109.5391594269  LPSA34    32             23.0000000000
     37637      1220  BGLCNA    HT1           -24.9214331347      -34.7386647899      108.6039199769  LPSA34    32             23.0000000000
     37638      1220  BGLCNA    HT2           -24.4888917881      -34.1212020141      110.2390753443  LPSA34    32             23.0000000000
     37639      1220  BGLCNA    HT3           -25.8126182130      -33.3372149249      109.3128537946  LPSA34    32             23.0000000000
     37640      1220  BGLCNA    C3            -26.5148075106      -38.5174994209      110.9082658675  LPSA34    32             23.0000000000
     37641      1220  BGLCNA    H3            -25.6287996834      -39.0548949981      110.4734481446  LPSA34    32             23.0000000000
     37642      1220  BGLCNA    O3            -26.0871080491      -37.7857893730      112.0719769852  LPSA34    32             23.0000000000
     37643      1220  BGLCNA    C4            -27.5306659919      -39.5533340578      111.2007362385  LPSA34    32             23.0000000000
     37644      1220  BGLCNA    H4            -28.4981896610      -39.0949236146      111.5157325344  LPSA34    32             23.0000000000
     37645      1220  BGLCNA    O4            -27.0423530094      -40.3222775675      112.2614210770  LPSA34    32             23.0000000000
     37646      1220  BGLCNA    HO4           -27.4599750377      -40.0558019798      113.0861248136  LPSA34    32             23.0000000000
     37647      1220  BGLCNA    C6            -28.8502685100      -41.4010909978      110.1023220286  LPSA34    32             23.0000000000
     37648      1220  BGLCNA    H61           -28.4424504696      -42.4378171452      110.2228074749  LPSA34    32             23.0000000000
     37649      1220  BGLCNA    H62           -29.6604261843      -41.0947831367      110.7721850929  LPSA34    32             23.0000000000
     37650      1220  BGLCNA    O6            -29.5969024910      -41.5585117213      108.9739094431  LPSA34    32             23.0000000000
     37651      1220  BGLCNA    HO6           -28.8924079727      -41.5669904541      108.3255520581  LPSA34    32             23.0000000000
     37652      1221  AGAL      C1            -24.9424173400      -38.3449247317      112.6844118856  LPSA34    33             24.0000000000
     37653      1221  AGAL      H1            -24.9587284640      -39.4230258176      112.4805344289  LPSA34    33             24.0000000000
     37654      1221  AGAL      C5            -23.5063575165      -36.5194436196      112.2083034539  LPSA34    33             24.0000000000
     37655      1221  AGAL      H5            -24.4552459659      -36.0856124719      111.8344543566  LPSA34    33             24.0000000000
     37656      1221  AGAL      O5            -23.7089994405      -37.9256231614      112.0725604671  LPSA34    33             24.0000000000
     37657      1221  AGAL      C2            -24.8983165542      -37.9520026235      114.1903108987  LPSA34    33             24.0000000000
     37658      1221  AGAL      H2            -23.9028559812      -38.2118177203      114.5901696340  LPSA34    33             24.0000000000
     37659      1221  AGAL      O2            -25.8614215919      -38.6818460161      115.0249597588  LPSA34    33             24.0000000000
     37660      1221  AGAL      C3            -24.7409645044      -36.4511447836      114.3192333786  LPSA34    33             24.0000000000
     37661      1221  AGAL      H3            -25.5522945072      -35.9734853808      113.7238245328  LPSA34    33             24.0000000000
     37662      1221  AGAL      O3            -24.9047180850      -35.9946412145      115.6654771885  LPSA34    33             24.0000000000
     37663      1221  AGAL      HO3           -24.2840421401      -36.4498095947      116.2551675508  LPSA34    33             24.0000000000
     37664      1221  AGAL      C4            -23.3996839939      -36.0598906875      113.6550112532  LPSA34    33             24.0000000000
     37665      1221  AGAL      H4            -23.3387968477      -34.9490651758      113.6543942908  LPSA34    33             24.0000000000
     37666      1221  AGAL      O4            -22.1938566013      -36.5352933744      114.2759345804  LPSA34    33             24.0000000000
     37667      1221  AGAL      HO4           -22.3443644412      -37.2429012868      114.9019160227  LPSA34    33             24.0000000000
     37668      1221  AGAL      C6            -22.4364648534      -36.0025415094      111.2605248090  LPSA34    33             24.0000000000
     37669      1221  AGAL      H61           -22.7966798053      -36.2126616513      110.2358952756  LPSA34    33             24.0000000000
     37670      1221  AGAL      H62           -22.3267053617      -34.8978256730      111.3642472471  LPSA34    33             24.0000000000
     37671      1221  AGAL      O6            -21.1423426381      -36.5807086840      111.4273225293  LPSA34    33             24.0000000000
     37672      1221  AGAL      HO6           -20.9720001507      -37.3402802620      110.8540059012  LPSA34    33             24.0000000000
     37673      1222  ARHM      C1            -25.4758078799      -39.3916050231      116.2113620688  LPSA34    34             25.0000000000
     37674      1222  ARHM      H1            -24.8418629123      -38.6521382726      116.7712725932  LPSA34    34             25.0000000000
     37675      1222  ARHM      C5            -25.2998623850      -41.7769251629      115.1276049384  LPSA34    34             25.0000000000
     37676      1222  ARHM      H5            -25.6552355429      -41.6171229868      114.0410634862  LPSA34    34             25.0000000000
     37677      1222  ARHM      O5            -24.7887374035      -40.7046885848      116.0656923171  LPSA34    34             25.0000000000
     37678      1222  ARHM      C2            -26.7604003217      -39.7538535727      116.7860808664  LPSA34    34             25.0000000000
     37679      1222  ARHM      H2            -27.4231037555      -38.8473538781      116.8660299504  LPSA34    34             25.0000000000
     37680      1222  ARHM      O2            -26.5635298578      -40.2509651540      118.1417911137  LPSA34    34             25.0000000000
     37681      1222  ARHM      C3            -27.4060080775      -40.7684029435      115.8335062053  LPSA34    34             25.0000000000
     37682      1222  ARHM      H3            -27.5254608758      -40.3742103741      114.8115185786  LPSA34    34             25.0000000000
     37683      1222  ARHM      O3            -28.7663166709      -40.8175413717      116.2386469126  LPSA34    34             25.0000000000
     37684      1222  ARHM      HO3           -29.2804501857      -41.5837771876      115.9599613738  LPSA34    34             25.0000000000
     37685      1222  ARHM      C4            -26.4733092972      -42.0823308848      115.6907467331  LPSA34    34             25.0000000000
     37686      1222  ARHM      H4            -25.9748447540      -42.4504956041      116.5906474734  LPSA34    34             25.0000000000
     37687      1222  ARHM      O4            -26.8784492653      -43.2736607280      115.1011348615  LPSA34    34             25.0000000000
     37688      1222  ARHM      HO4           -27.4714293150      -43.7099130606      115.7370605184  LPSA34    34             25.0000000000
     37689      1222  ARHM      C6            -24.1756282506      -42.7880830913      114.7043370529  LPSA34    34             25.0000000000
     37690      1222  ARHM      H61           -23.7068076065      -43.1400033949      115.6409434281  LPSA34    34             25.0000000000
     37691      1222  ARHM      H62           -24.6334462221      -43.5139701783      113.9848366842  LPSA34    34             25.0000000000
     37692      1222  ARHM      H63           -23.3247391257      -42.4337327633      114.0819903099  LPSA34    34             25.0000000000
     37693      1223  ARHM      C1            -25.8064778685      -39.4402308915      119.0378695606  LPSA34    35             26.0000000000
     37694      1223  ARHM      H1            -26.1111432365      -38.3652475893      118.8524120988  LPSA34    35             26.0000000000
     37695      1223  ARHM      C5            -23.8381218443      -40.9717128222      119.1380078615  LPSA34    35             26.0000000000
     37696      1223  ARHM      H5            -24.1490043146      -41.6274078383      118.3405364300  LPSA34    35             26.0000000000
     37697      1223  ARHM      O5            -24.3368188466      -39.6122055590      118.8288254042  LPSA34    35             26.0000000000
     37698      1223  ARHM      C2            -26.2239530841      -39.7643623333      120.5448010668  LPSA34    35             26.0000000000
     37699      1223  ARHM      H2            -27.3581701301      -39.7272291254      120.5842903841  LPSA34    35             26.0000000000
     37700      1223  ARHM      O2            -25.9609801550      -38.8547412655      121.6251053852  LPSA34    35             26.0000000000
     37701      1223  ARHM      C3            -25.6867068082      -41.2400789816      120.8510932705  LPSA34    35             26.0000000000
     37702      1223  ARHM      H3            -26.3205611349      -41.8613858263      120.2377568055  LPSA34    35             26.0000000000
     37703      1223  ARHM      O3            -26.0267946993      -41.5336714121      122.2061285174  LPSA34    35             26.0000000000
     37704      1223  ARHM      HO3           -26.1154625975      -40.7343755685      122.7425561104  LPSA34    35             26.0000000000
     37705      1223  ARHM      C4            -24.0972790575      -41.4964531926      120.6565953721  LPSA34    35             26.0000000000
     37706      1223  ARHM      H4            -23.3815459922      -41.1862304642      121.4627231826  LPSA34    35             26.0000000000
     37707      1223  ARHM      O4            -23.6773125933      -42.8393773230      120.8916082048  LPSA34    35             26.0000000000
     37708      1223  ARHM      HO4           -24.3148156044      -43.3993168897      120.4593417538  LPSA34    35             26.0000000000
     37709      1223  ARHM      C6            -22.3031693168      -40.7506246074      118.8654046665  LPSA34    35             26.0000000000
     37710      1223  ARHM      H61           -22.0607792075      -40.6008971890      117.7800952255  LPSA34    35             26.0000000000
     37711      1223  ARHM      H62           -21.8221905736      -39.9319010330      119.4332907583  LPSA34    35             26.0000000000
     37712      1223  ARHM      H63           -21.8281740172      -41.6899491093      119.1997407752  LPSA34    35             26.0000000000
     37713      1224  BMANNA    C1            -26.1592277085      -37.4688160734      121.5152667464  LPSA34    36             27.0000000000
     37714      1224  BMANNA    H1            -27.1881835944      -37.3817568124      121.1384781509  LPSA34    36             27.0000000000
     37715      1224  BMANNA    C5            -25.9823308367      -35.2597179986      120.7186692936  LPSA34    36             27.0000000000
     37716      1224  BMANNA    H5            -27.0593772757      -35.3722468032      120.4364508675  LPSA34    36             27.0000000000
     37717      1224  BMANNA    O5            -25.4036718593      -36.5925437323      120.6390039732  LPSA34    36             27.0000000000
     37718      1224  BMANNA    C2            -26.0125869062      -37.0207786880      122.9506367404  LPSA34    36             27.0000000000
     37719      1224  BMANNA    H2            -26.6193068036      -37.7531164547      123.5371711568  LPSA34    36             27.0000000000
     37720      1224  BMANNA    N             -24.6334719084      -37.0497234380      123.4835378146  LPSA34    36             27.0000000000
     37721      1224  BMANNA    HN            -23.9118821712      -36.7742390181      122.8484698682  LPSA34    36             27.0000000000
     37722      1224  BMANNA    C             -24.3809745886      -37.2437231826      124.8005229660  LPSA34    36             27.0000000000
     37723      1224  BMANNA    O             -25.2648415246      -37.5697623098      125.5735738653  LPSA34    36             27.0000000000
     37724      1224  BMANNA    CT            -22.9902843599      -36.9849333845      125.3347872455  LPSA34    36             27.0000000000
     37725      1224  BMANNA    HT1           -22.5803379293      -36.0688812448      124.8688809066  LPSA34    36             27.0000000000
     37726      1224  BMANNA    HT2           -22.3218136139      -37.8413627950      125.1395689034  LPSA34    36             27.0000000000
     37727      1224  BMANNA    HT3           -23.0391813069      -36.8527447222      126.4400471313  LPSA34    36             27.0000000000
     37728      1224  BMANNA    C3            -26.6352870393      -35.6642093441      123.0346308438  LPSA34    36             27.0000000000
     37729      1224  BMANNA    H3            -27.6635621858      -35.7425043059      122.6130277429  LPSA34    36             27.0000000000
     37730      1224  BMANNA    O3            -26.6988623614      -35.2016198278      124.3856486856  LPSA34    36             27.0000000000
     37731      1224  BMANNA    HO3           -27.6134889469      -35.1795248082      124.6944033777  LPSA34    36             27.0000000000
     37732      1224  BMANNA    C4            -25.9323505309      -34.7037728457      122.1322277919  LPSA34    36             27.0000000000
     37733      1224  BMANNA    H4            -24.8812358502      -34.5587648924      122.4538013198  LPSA34    36             27.0000000000
     37734      1224  BMANNA    O4            -26.5768726176      -33.4409609345      122.2137657924  LPSA34    36             27.0000000000
     37735      1224  BMANNA    HO4           -26.5445377158      -33.2421583638      123.1648579361  LPSA34    36             27.0000000000
     37736      1224  BMANNA    C6            -25.4084436626      -34.2879304624      119.7152368685  LPSA34    36             27.0000000000
     37737      1224  BMANNA    H61           -25.4499303997      -34.7328107719      118.6977977165  LPSA34    36             27.0000000000
     37738      1224  BMANNA    H62           -26.0592724202      -33.3866696362      119.6985780899  LPSA34    36             27.0000000000
     37739      1224  BMANNA    O6            -24.0746694530      -33.8829124405      120.0289981458  LPSA34    36             27.0000000000
     37740      1224  BMANNA    HO6           -24.0518957775      -33.1488337100      120.6572765570  LPSA34    36             27.0000000000
     37741      1225  ECLIPA    HB6S           39.5163769777      -41.0991003906       20.2133882314  LPSA35    1               0.0000000000
     37742      1225  ECLIPA    OB6            38.8006374849      -42.3302431016       21.7688833843  LPSA35    1               0.0000000000
     37743      1225  ECLIPA    CB6            39.6232178349      -42.1314772812       20.5298282828  LPSA35    1               0.0000000000
     37744      1225  ECLIPA    HB6R           40.6891086859      -41.9693962392       20.6710027133  LPSA35    1               0.0000000000
     37745      1225  ECLIPA    CB5            39.7216268368      -43.1596315260       19.3648949892  LPSA35    1               0.0000000000
     37746      1225  ECLIPA    OB5            38.4103350597      -43.0096646203       18.8367068852  LPSA35    1               0.0000000000
     37747      1225  ECLIPA    HB5            39.9390906712      -44.2046973620       19.7297136431  LPSA35    1               0.0000000000
     37748      1225  ECLIPA    CB1            38.1227655191      -43.8625796045       17.7432030073  LPSA35    1               0.0000000000
     37749      1225  ECLIPA    HB1            38.3236864274      -44.9443383178       17.9701633569  LPSA35    1               0.0000000000
     37750      1225  ECLIPA    OA6            36.8034287907      -43.7628421470       17.3076982331  LPSA35    1               0.0000000000
     37751      1225  ECLIPA    CA6            36.1590318728      -42.5213091780       17.5843183444  LPSA35    1               0.0000000000
     37752      1225  ECLIPA    HA6R           36.8748451489      -41.6992878940       17.7701380236  LPSA35    1               0.0000000000
     37753      1225  ECLIPA    HA6S           35.4739492890      -42.6715055612       18.4553172541  LPSA35    1               0.0000000000
     37754      1225  ECLIPA    CB4            40.7469130763      -42.7952670514       18.3041455022  LPSA35    1               0.0000000000
     37755      1225  ECLIPA    HB4            40.6094218219      -41.7271532239       18.0167459994  LPSA35    1               0.0000000000
     37756      1225  ECLIPA    OB4            42.0588898282      -43.0808017678       18.8650782088  LPSA35    1               0.0000000000
     37757      1225  ECLIPA    PB             43.1162352890      -41.8438417547       19.2866662814  LPSA35    1               0.0000000000
     37758      1225  ECLIPA    OPB4           44.0165299901      -42.1442534224       20.5080896211  LPSA35    1               0.0000000000
     37759      1225  ECLIPA    OPB3           42.2069417349      -40.6997376892       19.6880892562  LPSA35    1               0.0000000000
     37760      1225  ECLIPA    OPB2           43.9723448208      -41.6027343601       18.0679610481  LPSA35    1               0.0000000000
     37761      1225  ECLIPA    CB3            40.4684173270      -43.6648648702       17.0890571788  LPSA35    1               0.0000000000
     37762      1225  ECLIPA    OB3            41.2433648419      -43.3036147509       15.9466625406  LPSA35    1               0.0000000000
     37763      1225  ECLIPA    HB3            40.5527847517      -44.7467248942       17.3412777950  LPSA35    1               0.0000000000
     37764      1225  ECLIPA    C71            42.4169743418      -43.8487471279       15.7596306011  LPSA35    1               0.0000000000
     37765      1225  ECLIPA    O71            42.7939682656      -44.9162996826       16.2431372356  LPSA35    1               0.0000000000
     37766      1225  ECLIPA    C72            42.9516646149      -43.4046439817       14.3804452250  LPSA35    1               0.0000000000
     37767      1225  ECLIPA    H72R           42.1951823452      -43.6161620713       13.5960581252  LPSA35    1               0.0000000000
     37768      1225  ECLIPA    H72S           43.8811603645      -43.9628075347       14.1618587042  LPSA35    1               0.0000000000
     37769      1225  ECLIPA    CB2            39.0372984630      -43.4447879846       16.6487902590  LPSA35    1               0.0000000000
     37770      1225  ECLIPA    HB2            38.8747884722      -42.3357094217       16.5021940985  LPSA35    1               0.0000000000
     37771      1225  ECLIPA    NB2            38.7236405184      -44.1967911620       15.4448475748  LPSA35    1               0.0000000000
     37772      1225  ECLIPA    HNB2           38.3738037610      -45.1201080100       15.5845575395  LPSA35    1               0.0000000000
     37773      1225  ECLIPA    CA4            34.7181868671      -43.4084885088       15.8666577137  LPSA35    1               0.0000000000
     37774      1225  ECLIPA    HA4            35.4675550941      -44.1958621340       15.7026954418  LPSA35    1               0.0000000000
     37775      1225  ECLIPA    OA4            33.7356313175      -43.6461971813       16.8416252745  LPSA35    1               0.0000000000
     37776      1225  ECLIPA    HOA4           34.1333978246      -44.1107828741       17.6170323243  LPSA35    1               0.0000000000
     37777      1225  ECLIPA    CA5            35.3657479791      -42.1805150273       16.3618231902  LPSA35    1               0.0000000000
     37778      1225  ECLIPA    HA5            34.6822976968      -41.3297761382       16.6030079015  LPSA35    1               0.0000000000
     37779      1225  ECLIPA    OA5            36.2346891699      -41.7336953635       15.3314759651  LPSA35    1               0.0000000000
     37780      1225  ECLIPA    CA1            35.5899589692      -41.3615040127       14.1102472825  LPSA35    1               0.0000000000
     37781      1225  ECLIPA    HA1            36.4873418663      -41.2630726106       13.4369352786  LPSA35    1               0.0000000000
     37782      1225  ECLIPA    OA1            34.8691627534      -40.1501553142       14.1473664599  LPSA35    1               0.0000000000
     37783      1225  ECLIPA    OPA2           34.9052743070      -38.5819461064       16.0200936636  LPSA35    1               0.0000000000
     37784      1225  ECLIPA    OPA3           37.1591582262      -39.1113576354       14.9264859750  LPSA35    1               0.0000000000
     37785      1225  ECLIPA    OPA4           35.4222403726      -37.6218232112       13.7611605382  LPSA35    1               0.0000000000
     37786      1225  ECLIPA    PA             35.6933554314      -38.7940370332       14.7085344945  LPSA35    1               0.0000000000
     37787      1225  ECLIPA    CA3            34.0174076664      -43.1836677396       14.6355532151  LPSA35    1               0.0000000000
     37788      1225  ECLIPA    HA3            32.9005154677      -43.1463895001       14.7621030632  LPSA35    1               0.0000000000
     37789      1225  ECLIPA    OA3            33.6114136981      -44.3599114081       14.3158774134  LPSA35    1               0.0000000000
     37790      1225  ECLIPA    C31            34.5448580246      -45.0220710654       13.6859826682  LPSA35    1               0.0000000000
     37791      1225  ECLIPA    O31            34.5870740318      -44.9782874692       12.4834837347  LPSA35    1               0.0000000000
     37792      1225  ECLIPA    C32            34.4936049755      -46.1923070630       14.3644904244  LPSA35    1               0.0000000000
     37793      1225  ECLIPA    H32R           33.9872411525      -46.5823356414       13.4106221918  LPSA35    1               0.0000000000
     37794      1225  ECLIPA    H32S           33.9199368766      -46.1316528412       15.3431429786  LPSA35    1               0.0000000000
     37795      1225  ECLIPA    CA2            34.9313749630      -42.5720876150       13.5361789795  LPSA35    1               0.0000000000
     37796      1225  ECLIPA    HA2            35.8045086623      -43.2125021622       13.2773338688  LPSA35    1               0.0000000000
     37797      1225  ECLIPA    NA2            34.1907339306      -42.1440497829       12.2957217487  LPSA35    1               0.0000000000
     37798      1225  ECLIPA    HNA2           33.2899471311      -42.4910903972       12.0468773655  LPSA35    1               0.0000000000
     37799      1225  ECLIPA    C73            43.2329425370      -41.8887895685       14.3530229504  LPSA35    1               0.0000000000
     37800      1225  ECLIPA    H73R           43.8021498088      -41.6234944347       15.2815771967  LPSA35    1               0.0000000000
     37801      1225  ECLIPA    O73            41.9566686371      -41.2555996570       14.2673468148  LPSA35    1               0.0000000000
     37802      1225  ECLIPA    C81            41.7545769977      -40.1239517063       14.9429259444  LPSA35    1               0.0000000000
     37803      1225  ECLIPA    O81            42.6236592707      -39.5179981701       15.5460932885  LPSA35    1               0.0000000000
     37804      1225  ECLIPA    C82            40.5148275895      -39.4312349383       14.3387564435  LPSA35    1               0.0000000000
     37805      1225  ECLIPA    H82R           40.3458340142      -38.4733903521       14.8686197217  LPSA35    1               0.0000000000
     37806      1225  ECLIPA    H82S           39.6274583326      -40.0616196236       14.5584938832  LPSA35    1               0.0000000000
     37807      1225  ECLIPA    C83            40.5984915806      -39.2055023151       12.8078056418  LPSA35    1               0.0000000000
     37808      1225  ECLIPA    H83R           40.3394449302      -40.1554110524       12.2885582053  LPSA35    1               0.0000000000
     37809      1225  ECLIPA    H83S           41.6372196387      -38.9287853113       12.5363059869  LPSA35    1               0.0000000000
     37810      1225  ECLIPA    C84            39.5870371817      -38.1709933023       12.2892528492  LPSA35    1               0.0000000000
     37811      1225  ECLIPA    H84R           39.8700714113      -37.1717713485       12.6125150774  LPSA35    1               0.0000000000
     37812      1225  ECLIPA    H84S           38.6021524120      -38.4055424623       12.7624686960  LPSA35    1               0.0000000000
     37813      1225  ECLIPA    C85            39.3977051685      -38.2195422950       10.7674293137  LPSA35    1               0.0000000000
     37814      1225  ECLIPA    H85R           39.3304162601      -39.3060725363       10.5372294951  LPSA35    1               0.0000000000
     37815      1225  ECLIPA    H85S           40.2946312232      -37.8341497763       10.2380275100  LPSA35    1               0.0000000000
     37816      1225  ECLIPA    C86            38.0743030426      -37.5842860986       10.2866932505  LPSA35    1               0.0000000000
     37817      1225  ECLIPA    H86R           38.2146721397      -36.5257872922        9.9797099253  LPSA35    1               0.0000000000
     37818      1225  ECLIPA    H86S           37.3396930797      -37.5895878598       11.1275341986  LPSA35    1               0.0000000000
     37819      1225  ECLIPA    C87            37.4074622658      -38.3987619336        9.1596561050  LPSA35    1               0.0000000000
     37820      1225  ECLIPA    H87R           36.5047120997      -37.8620908845        8.7960444978  LPSA35    1               0.0000000000
     37821      1225  ECLIPA    H87S           37.0467406125      -39.3687378329        9.5757633848  LPSA35    1               0.0000000000
     37822      1225  ECLIPA    C88            38.3744088420      -38.7285337281        8.0208850983  LPSA35    1               0.0000000000
     37823      1225  ECLIPA    H88R           39.0481101352      -39.5472333835        8.3498495470  LPSA35    1               0.0000000000
     37824      1225  ECLIPA    H88S           39.0454023598      -37.8516881180        7.8798179106  LPSA35    1               0.0000000000
     37825      1225  ECLIPA    C89            37.6708678686      -39.1464630723        6.7163880476  LPSA35    1               0.0000000000
     37826      1225  ECLIPA    H89R           36.6293552874      -39.4942988203        6.8968633130  LPSA35    1               0.0000000000
     37827      1225  ECLIPA    H89S           38.1980405917      -40.0112456778        6.2588386291  LPSA35    1               0.0000000000
     37828      1225  ECLIPA    C810           37.7122103440      -38.0028177579        5.7004091649  LPSA35    1               0.0000000000
     37829      1225  ECLIPA    H810R          38.6214740060      -37.4101905303        5.9318107790  LPSA35    1               0.0000000000
     37830      1225  ECLIPA    H810S          36.8184756757      -37.3600993083        5.8635228332  LPSA35    1               0.0000000000
     37831      1225  ECLIPA    C811           37.7668473593      -38.4677473377        4.2402875982  LPSA35    1               0.0000000000
     37832      1225  ECLIPA    H811R          37.4245912494      -37.6683877840        3.5451821052  LPSA35    1               0.0000000000
     37833      1225  ECLIPA    H811S          37.0768033823      -39.3331026922        4.1782305557  LPSA35    1               0.0000000000
     37834      1225  ECLIPA    C812           39.1268222424      -38.9731987718        3.7370427219  LPSA35    1               0.0000000000
     37835      1225  ECLIPA    H812R          38.9517703660      -39.3934445475        2.7153179648  LPSA35    1               0.0000000000
     37836      1225  ECLIPA    H812S          39.4856917439      -39.7802320054        4.4073568349  LPSA35    1               0.0000000000
     37837      1225  ECLIPA    C813           40.2379364789      -37.9272450064        3.6351883573  LPSA35    1               0.0000000000
     37838      1225  ECLIPA    H813R          39.9025984192      -37.1397067003        2.9275302300  LPSA35    1               0.0000000000
     37839      1225  ECLIPA    H813S          40.4270561686      -37.4442130949        4.6226066735  LPSA35    1               0.0000000000
     37840      1225  ECLIPA    C814           41.5506565852      -38.5252081405        3.1278469761  LPSA35    1               0.0000000000
     37841      1225  ECLIPA    H814R          41.4027177230      -39.1480030836        2.2168604189  LPSA35    1               0.0000000000
     37842      1225  ECLIPA    H814S          42.0046173053      -39.1596621097        3.9180319293  LPSA35    1               0.0000000000
     37843      1225  ECLIPA    H814T          42.2649280881      -37.7120065593        2.8889048901  LPSA35    1               0.0000000000
     37844      1225  ECLIPA    C74            44.0483343767      -41.3951255740       13.1252939810  LPSA35    1               0.0000000000
     37845      1225  ECLIPA    H74R           45.0653975018      -41.8296595522       13.0429333225  LPSA35    1               0.0000000000
     37846      1225  ECLIPA    H74S           44.1978092189      -40.3047237200       13.3199276429  LPSA35    1               0.0000000000
     37847      1225  ECLIPA    C75            43.2972138137      -41.5025269449       11.7770678761  LPSA35    1               0.0000000000
     37848      1225  ECLIPA    H75R           43.5564627700      -40.5953243883       11.1894249560  LPSA35    1               0.0000000000
     37849      1225  ECLIPA    H75S           42.2029735643      -41.4603156494       11.9698230949  LPSA35    1               0.0000000000
     37850      1225  ECLIPA    C76            43.5922431326      -42.7614276584       10.9456873339  LPSA35    1               0.0000000000
     37851      1225  ECLIPA    H76R           43.0294831162      -43.6194799840       11.3764508902  LPSA35    1               0.0000000000
     37852      1225  ECLIPA    H76S           44.6746034527      -43.0211700481       10.9892209172  LPSA35    1               0.0000000000
     37853      1225  ECLIPA    C77            43.2206165043      -42.6465501878        9.4538558019  LPSA35    1               0.0000000000
     37854      1225  ECLIPA    H77R           43.8648907966      -41.8709119859        8.9907478199  LPSA35    1               0.0000000000
     37855      1225  ECLIPA    H77S           42.1849525441      -42.2988131754        9.3120918209  LPSA35    1               0.0000000000
     37856      1225  ECLIPA    C78            43.3301199467      -44.0361907580        8.8003126524  LPSA35    1               0.0000000000
     37857      1225  ECLIPA    H78R           44.3264532486      -44.4530133463        9.0659286342  LPSA35    1               0.0000000000
     37858      1225  ECLIPA    H78S           42.5762121810      -44.6717742312        9.3201421116  LPSA35    1               0.0000000000
     37859      1225  ECLIPA    C79            43.0141784978      -44.1575512160        7.2912589088  LPSA35    1               0.0000000000
     37860      1225  ECLIPA    H79R           41.9440309388      -44.4453161953        7.1706461097  LPSA35    1               0.0000000000
     37861      1225  ECLIPA    H79S           43.6207803176      -44.9698671010        6.8315301206  LPSA35    1               0.0000000000
     37862      1225  ECLIPA    C710           43.3131247845      -42.9203877327        6.4487006608  LPSA35    1               0.0000000000
     37863      1225  ECLIPA    H710R          42.7896367887      -42.0342200313        6.8638198814  LPSA35    1               0.0000000000
     37864      1225  ECLIPA    H710S          44.4100511476      -42.7380094069        6.4853310242  LPSA35    1               0.0000000000
     37865      1225  ECLIPA    C711           42.8958630817      -43.0651086281        4.9824487607  LPSA35    1               0.0000000000
     37866      1225  ECLIPA    H711R          43.4275870728      -43.9333039377        4.5326536487  LPSA35    1               0.0000000000
     37867      1225  ECLIPA    H711S          41.7965843228      -43.2351435202        4.9208652655  LPSA35    1               0.0000000000
     37868      1225  ECLIPA    C712           43.2314422383      -41.7764692875        4.2311233730  LPSA35    1               0.0000000000
     37869      1225  ECLIPA    H712R          44.3336058775      -41.6336952170        4.2571847462  LPSA35    1               0.0000000000
     37870      1225  ECLIPA    H712S          42.7798334079      -40.9454628889        4.8182137752  LPSA35    1               0.0000000000
     37871      1225  ECLIPA    C713           42.7013949531      -41.7421554540        2.7947808048  LPSA35    1               0.0000000000
     37872      1225  ECLIPA    H713R          41.5877100323      -41.8177206692        2.8372692448  LPSA35    1               0.0000000000
     37873      1225  ECLIPA    H713S          42.9565677703      -40.7665079890        2.3184273405  LPSA35    1               0.0000000000
     37874      1225  ECLIPA    C714           43.2730863528      -42.8280080815        1.8860824237  LPSA35    1               0.0000000000
     37875      1225  ECLIPA    H714R          44.3759938858      -42.7240132747        1.7969619007  LPSA35    1               0.0000000000
     37876      1225  ECLIPA    H714S          43.0077836352      -43.8504362880        2.2292928111  LPSA35    1               0.0000000000
     37877      1225  ECLIPA    H714T          42.8510634910      -42.6870435210        0.8801051900  LPSA35    1               0.0000000000
     37878      1225  ECLIPA    C51            38.9415000220      -43.6760751737       14.2303922037  LPSA35    1               0.0000000000
     37879      1225  ECLIPA    O51            39.1280451984      -42.4809676033       14.0762166218  LPSA35    1               0.0000000000
     37880      1225  ECLIPA    C52            38.9931240508      -44.6263343384       13.0579886579  LPSA35    1               0.0000000000
     37881      1225  ECLIPA    H52R           40.0232375175      -45.0274898191       12.9305136082  LPSA35    1               0.0000000000
     37882      1225  ECLIPA    H52S           38.3204360304      -45.4760112835       13.2485554124  LPSA35    1               0.0000000000
     37883      1225  ECLIPA    C53            38.5747118385      -43.8949845066       11.7711525323  LPSA35    1               0.0000000000
     37884      1225  ECLIPA    H53R           37.7814462768      -43.1379766424       11.9867462378  LPSA35    1               0.0000000000
     37885      1225  ECLIPA    O53            38.1432244124      -44.9175852698       10.8790661764  LPSA35    1               0.0000000000
     37886      1225  ECLIPA    C61            36.8730803230      -44.9379294008       10.5760871916  LPSA35    1               0.0000000000
     37887      1225  ECLIPA    O61            36.0515433116      -44.0715652594       10.7871957152  LPSA35    1               0.0000000000
     37888      1225  ECLIPA    C62            36.6788240705      -46.0733607735        9.6415279450  LPSA35    1               0.0000000000
     37889      1225  ECLIPA    H62R           36.4491483870      -47.0117566548       10.1966321727  LPSA35    1               0.0000000000
     37890      1225  ECLIPA    H62S           37.5902340663      -46.2772545730        9.0500368007  LPSA35    1               0.0000000000
     37891      1225  ECLIPA    C63            35.6191486918      -45.6411810076        8.6752593202  LPSA35    1               0.0000000000
     37892      1225  ECLIPA    H63R           35.5591242744      -44.6509150912        8.2118092699  LPSA35    1               0.0000000000
     37893      1225  ECLIPA    H63S           34.6299408198      -45.6358313691        9.1719627359  LPSA35    1               0.0000000000
     37894      1225  ECLIPA    C64            35.7069415348      -46.6498509448        7.5774137906  LPSA35    1               0.0000000000
     37895      1225  ECLIPA    H64R           34.7800509028      -46.3123801805        7.1784394449  LPSA35    1               0.0000000000
     37896      1225  ECLIPA    H64S           35.7834127456      -47.7122276815        7.9277902062  LPSA35    1               0.0000000000
     37897      1225  ECLIPA    C65            36.6161175716      -46.6090995207        6.4338779712  LPSA35    1               0.0000000000
     37898      1225  ECLIPA    H65R           37.4583009767      -46.9502205809        7.0670612899  LPSA35    1               0.0000000000
     37899      1225  ECLIPA    H65S           36.5633165417      -45.5590530078        6.1109064569  LPSA35    1               0.0000000000
     37900      1225  ECLIPA    C66            36.5100576551      -47.6228817448        5.2719840377  LPSA35    1               0.0000000000
     37901      1225  ECLIPA    H66R           36.3490943638      -48.6828787627        5.5704138940  LPSA35    1               0.0000000000
     37902      1225  ECLIPA    H66S           37.4919357937      -47.4764709903        4.7959911679  LPSA35    1               0.0000000000
     37903      1225  ECLIPA    C67            35.6404263044      -47.2723254106        4.0943129179  LPSA35    1               0.0000000000
     37904      1225  ECLIPA    H67R           34.7672216039      -46.9576613108        4.6365338153  LPSA35    1               0.0000000000
     37905      1225  ECLIPA    H67S           35.3948608937      -48.0902753631        3.3615326191  LPSA35    1               0.0000000000
     37906      1225  ECLIPA    C68            35.7435944741      -45.8684251108        3.5425233359  LPSA35    1               0.0000000000
     37907      1225  ECLIPA    H68R           36.7016544065      -45.6393732740        3.1143674390  LPSA35    1               0.0000000000
     37908      1225  ECLIPA    H68S           35.3056343962      -45.1490632018        4.2988418936  LPSA35    1               0.0000000000
     37909      1225  ECLIPA    C69            34.8990581893      -45.7976135674        2.3508011479  LPSA35    1               0.0000000000
     37910      1225  ECLIPA    H69R           34.0942578256      -46.2488073578        2.9344330970  LPSA35    1               0.0000000000
     37911      1225  ECLIPA    H69S           35.1527534771      -46.4506604560        1.4985499612  LPSA35    1               0.0000000000
     37912      1225  ECLIPA    C610           34.2456833043      -44.5282782841        1.9494043338  LPSA35    1               0.0000000000
     37913      1225  ECLIPA    H610R          35.0153040192      -43.7437435425        2.0433158722  LPSA35    1               0.0000000000
     37914      1225  ECLIPA    H610S          33.3835944975      -44.3634504733        2.6544435110  LPSA35    1               0.0000000000
     37915      1225  ECLIPA    C611           33.7181780258      -44.5482439266        0.5302274038  LPSA35    1               0.0000000000
     37916      1225  ECLIPA    H611R          32.8385387457      -45.1877171869        0.3844977746  LPSA35    1               0.0000000000
     37917      1225  ECLIPA    H611S          33.2660006663      -43.6244379357        0.2983400199  LPSA35    1               0.0000000000
     37918      1225  ECLIPA    C612           34.7334909675      -44.7408285188       -0.5458224292  LPSA35    1               0.0000000000
     37919      1225  ECLIPA    H612R          35.3276232644      -43.8125117167       -0.5508974977  LPSA35    1               0.0000000000
     37920      1225  ECLIPA    H612S          35.2049302890      -45.7000753620       -0.3253087549  LPSA35    1               0.0000000000
     37921      1225  ECLIPA    H612T          34.4386145159      -44.8309653900       -1.5970046852  LPSA35    1               0.0000000000
     37922      1225  ECLIPA    C54            39.8121031582      -43.1888603538       11.1717329678  LPSA35    1               0.0000000000
     37923      1225  ECLIPA    H54R           40.5262210941      -43.9902664550       10.8818322964  LPSA35    1               0.0000000000
     37924      1225  ECLIPA    H54S           40.2751057017      -42.5887062467       11.9794913585  LPSA35    1               0.0000000000
     37925      1225  ECLIPA    C55            39.5677069789      -42.2640249908        9.9639221412  LPSA35    1               0.0000000000
     37926      1225  ECLIPA    H55R           40.4487540709      -41.6021270266        9.8224873720  LPSA35    1               0.0000000000
     37927      1225  ECLIPA    H55S           38.7159228056      -41.5895617028       10.2021150469  LPSA35    1               0.0000000000
     37928      1225  ECLIPA    C56            39.3756383220      -43.0979391589        8.6903879465  LPSA35    1               0.0000000000
     37929      1225  ECLIPA    H56R           38.5418128736      -43.8040455059        8.8601202690  LPSA35    1               0.0000000000
     37930      1225  ECLIPA    H56S           40.2894606645      -43.7077543649        8.5039087953  LPSA35    1               0.0000000000
     37931      1225  ECLIPA    C57            39.0064792611      -42.3631268733        7.4044468245  LPSA35    1               0.0000000000
     37932      1225  ECLIPA    H57R           39.7258933050      -41.5469204573        7.1806486775  LPSA35    1               0.0000000000
     37933      1225  ECLIPA    H57S           38.0081325710      -41.8889304648        7.5427901401  LPSA35    1               0.0000000000
     37934      1225  ECLIPA    C58            38.9185431552      -43.3747631655        6.2432291524  LPSA35    1               0.0000000000
     37935      1225  ECLIPA    H58R           39.8008384186      -44.0477285701        6.2178704997  LPSA35    1               0.0000000000
     37936      1225  ECLIPA    H58S           38.0516897823      -44.0382534074        6.4621000883  LPSA35    1               0.0000000000
     37937      1225  ECLIPA    C59            38.7865493669      -42.6815113775        4.8770504380  LPSA35    1               0.0000000000
     37938      1225  ECLIPA    H59R           39.6433863547      -41.9867788736        4.7177096056  LPSA35    1               0.0000000000
     37939      1225  ECLIPA    H59S           37.8661539964      -42.0631675262        4.9622298966  LPSA35    1               0.0000000000
     37940      1225  ECLIPA    C510           38.8012119564      -43.6364258503        3.6619457981  LPSA35    1               0.0000000000
     37941      1225  ECLIPA    H510R          38.1537838161      -44.5137512164        3.8407119871  LPSA35    1               0.0000000000
     37942      1225  ECLIPA    H510S          39.8401269212      -44.0185622715        3.5172879357  LPSA35    1               0.0000000000
     37943      1225  ECLIPA    C511           38.3380632260      -43.0091190660        2.3399038804  LPSA35    1               0.0000000000
     37944      1225  ECLIPA    H511R          37.2412452258      -42.9131964264        2.3119701400  LPSA35    1               0.0000000000
     37945      1225  ECLIPA    H511S          38.7924733046      -41.9922736168        2.2167646174  LPSA35    1               0.0000000000
     37946      1225  ECLIPA    C512           38.7008977410      -43.8492847103        1.1234510625  LPSA35    1               0.0000000000
     37947      1225  ECLIPA    H512R          38.5518277277      -43.1663319674        0.2455418083  LPSA35    1               0.0000000000
     37948      1225  ECLIPA    H512S          39.7602704494      -44.1792491889        1.2708337194  LPSA35    1               0.0000000000
     37949      1225  ECLIPA    C513           37.8648697479      -45.0505534247        0.6981457431  LPSA35    1               0.0000000000
     37950      1225  ECLIPA    H513R          36.8400009921      -44.6862674653        0.5703364094  LPSA35    1               0.0000000000
     37951      1225  ECLIPA    H513S          37.8985939922      -45.8114573280        1.4928329399  LPSA35    1               0.0000000000
     37952      1225  ECLIPA    C514           38.2636642369      -45.7246222072       -0.6183064941  LPSA35    1               0.0000000000
     37953      1225  ECLIPA    H514R          39.3392261589      -45.9834042106       -0.5916099057  LPSA35    1               0.0000000000
     37954      1225  ECLIPA    H514S          37.7196934506      -46.6730933342       -0.7543510624  LPSA35    1               0.0000000000
     37955      1225  ECLIPA    H514T          38.0721332834      -45.0608243670       -1.4950265641  LPSA35    1               0.0000000000
     37956      1225  ECLIPA    C33            35.5750999485      -47.1230447805       14.5259880809  LPSA35    1               0.0000000000
     37957      1225  ECLIPA    H33R           35.3554845654      -48.1544334531       14.8253973381  LPSA35    1               0.0000000000
     37958      1225  ECLIPA    O33            36.2526331972      -46.4812248787       15.5596411756  LPSA35    1               0.0000000000
     37959      1225  ECLIPA    HO33           35.6750702229      -46.6000004526       16.3576690305  LPSA35    1               0.0000000000
     37960      1225  ECLIPA    C34            36.2276002355      -47.3124098852       13.1937840055  LPSA35    1               0.0000000000
     37961      1225  ECLIPA    H34R           36.4080785294      -46.3333239399       12.7453712150  LPSA35    1               0.0000000000
     37962      1225  ECLIPA    H34S           35.5062569898      -47.8481306319       12.5071768674  LPSA35    1               0.0000000000
     37963      1225  ECLIPA    C35            37.4225649335      -48.1858342956       13.4186216623  LPSA35    1               0.0000000000
     37964      1225  ECLIPA    H35R           37.1295800232      -49.2086497955       13.7418525889  LPSA35    1               0.0000000000
     37965      1225  ECLIPA    H35S           37.9579297047      -47.6857264481       14.2604698102  LPSA35    1               0.0000000000
     37966      1225  ECLIPA    C36            38.2783445385      -48.2256835332       12.1794160256  LPSA35    1               0.0000000000
     37967      1225  ECLIPA    H36R           38.0440962749      -47.2768687211       11.6558893802  LPSA35    1               0.0000000000
     37968      1225  ECLIPA    H36S           38.0020219598      -49.0761474072       11.5128979028  LPSA35    1               0.0000000000
     37969      1225  ECLIPA    C37            39.7703058343      -48.2230398926       12.5156749553  LPSA35    1               0.0000000000
     37970      1225  ECLIPA    H37R           40.0822466665      -49.2805875227       12.6738393081  LPSA35    1               0.0000000000
     37971      1225  ECLIPA    H37S           39.9300834364      -47.6988665795       13.4857685151  LPSA35    1               0.0000000000
     37972      1225  ECLIPA    C38            40.6501960576      -47.5699700713       11.4299243176  LPSA35    1               0.0000000000
     37973      1225  ECLIPA    H38R           40.5737493539      -46.4621088185       11.4319739458  LPSA35    1               0.0000000000
     37974      1225  ECLIPA    H38S           41.7083574270      -47.8107566585       11.6797586464  LPSA35    1               0.0000000000
     37975      1225  ECLIPA    C39            40.2879066467      -48.0630742132       10.0204293449  LPSA35    1               0.0000000000
     37976      1225  ECLIPA    H39R           39.2093238876      -47.8769677324        9.8197004326  LPSA35    1               0.0000000000
     37977      1225  ECLIPA    H39S           40.4962825355      -49.1583092153        9.9845818035  LPSA35    1               0.0000000000
     37978      1225  ECLIPA    C310           41.0712375938      -47.4246357066        8.8717594095  LPSA35    1               0.0000000000
     37979      1225  ECLIPA    H310R          42.1106090223      -47.8145447372        8.9659920339  LPSA35    1               0.0000000000
     37980      1225  ECLIPA    H310S          41.0928274344      -46.3173575214        8.9573542998  LPSA35    1               0.0000000000
     37981      1225  ECLIPA    C311           40.3999310506      -47.7089244257        7.5150604886  LPSA35    1               0.0000000000
     37982      1225  ECLIPA    H311R          39.9390456893      -48.7214622916        7.5277148115  LPSA35    1               0.0000000000
     37983      1225  ECLIPA    H311S          39.5764915543      -46.9723072406        7.3652054265  LPSA35    1               0.0000000000
     37984      1225  ECLIPA    C312           41.3236724835      -47.5525311144        6.3020626669  LPSA35    1               0.0000000000
     37985      1225  ECLIPA    H312R          42.0487423348      -46.7307805155        6.4876663599  LPSA35    1               0.0000000000
     37986      1225  ECLIPA    H312S          41.8884430838      -48.5027217739        6.1807904834  LPSA35    1               0.0000000000
     37987      1225  ECLIPA    C313           40.5449829260      -47.2654226488        5.0051675742  LPSA35    1               0.0000000000
     37988      1225  ECLIPA    H313R          40.0222723306      -48.2129130835        4.7485729017  LPSA35    1               0.0000000000
     37989      1225  ECLIPA    H313S          39.7656484076      -46.4856390797        5.1752306173  LPSA35    1               0.0000000000
     37990      1225  ECLIPA    C314           41.4180494215      -46.8429795293        3.8186259093  LPSA35    1               0.0000000000
     37991      1225  ECLIPA    H314R          42.1579139483      -47.6399183969        3.5983794061  LPSA35    1               0.0000000000
     37992      1225  ECLIPA    H314S          40.8054863222      -46.6712138440        2.9049237324  LPSA35    1               0.0000000000
     37993      1225  ECLIPA    H314T          41.9628671807      -45.9017504661        4.0452874312  LPSA35    1               0.0000000000
     37994      1225  ECLIPA    C11            34.7307000458      -41.3939986763       11.2730440892  LPSA35    1               0.0000000000
     37995      1225  ECLIPA    O11            35.9163328621      -41.1587848522       11.1464893646  LPSA35    1               0.0000000000
     37996      1225  ECLIPA    C12            33.7256280813      -40.7783110666       10.3285319604  LPSA35    1               0.0000000000
     37997      1225  ECLIPA    H12R           33.6355039918      -39.6925173856       10.5397912404  LPSA35    1               0.0000000000
     37998      1225  ECLIPA    H12S           32.7493729947      -41.2738784493       10.4965938050  LPSA35    1               0.0000000000
     37999      1225  ECLIPA    C13            34.0849821489      -40.9578280866        8.8517401089  LPSA35    1               0.0000000000
     38000      1225  ECLIPA    H13R           35.1651924123      -40.7686562628        8.6443986246  LPSA35    1               0.0000000000
     38001      1225  ECLIPA    O13            33.3210077250      -40.0079115233        8.1180608742  LPSA35    1               0.0000000000
     38002      1225  ECLIPA    HO13           33.7156108218      -39.7259257991        7.2884465567  LPSA35    1               0.0000000000
     38003      1225  ECLIPA    C14            33.7229137278      -42.3961845035        8.4412606489  LPSA35    1               0.0000000000
     38004      1225  ECLIPA    H14R           32.7956900680      -42.7328843988        8.9535597072  LPSA35    1               0.0000000000
     38005      1225  ECLIPA    H14S           34.5688198670      -43.0237277792        8.7886632134  LPSA35    1               0.0000000000
     38006      1225  ECLIPA    C15            33.5592267678      -42.6499372110        6.9538531303  LPSA35    1               0.0000000000
     38007      1225  ECLIPA    H15R           32.7820003962      -41.9509785948        6.5651765899  LPSA35    1               0.0000000000
     38008      1225  ECLIPA    H15S           33.1525550463      -43.6784202501        6.8252990228  LPSA35    1               0.0000000000
     38009      1225  ECLIPA    C16            34.9135503185      -42.4952217872        6.2437276975  LPSA35    1               0.0000000000
     38010      1225  ECLIPA    H16R           35.5140883908      -43.4203873306        6.3111038424  LPSA35    1               0.0000000000
     38011      1225  ECLIPA    H16S           35.4902259911      -41.6703309638        6.7071025333  LPSA35    1               0.0000000000
     38012      1225  ECLIPA    C17            34.7209804244      -42.1423041089        4.7944008958  LPSA35    1               0.0000000000
     38013      1225  ECLIPA    H17R           33.9275227875      -42.8922665371        4.5419664983  LPSA35    1               0.0000000000
     38014      1225  ECLIPA    H17S           35.5489117071      -42.3770429409        4.1004219703  LPSA35    1               0.0000000000
     38015      1225  ECLIPA    C18            34.3667286065      -40.6293637926        4.7379100806  LPSA35    1               0.0000000000
     38016      1225  ECLIPA    H18R           33.3742018033      -40.5279180353        5.2518162663  LPSA35    1               0.0000000000
     38017      1225  ECLIPA    H18S           35.1500053589      -39.9605286764        5.1085540620  LPSA35    1               0.0000000000
     38018      1225  ECLIPA    C19            34.2607784628      -39.9146182291        3.4077304394  LPSA35    1               0.0000000000
     38019      1225  ECLIPA    H19R           33.6829869747      -39.0230863583        3.1504493913  LPSA35    1               0.0000000000
     38020      1225  ECLIPA    H19S           33.1745479611      -40.0315052611        3.3951594716  LPSA35    1               0.0000000000
     38021      1225  ECLIPA    C110           35.3074614381      -40.3848248462        2.3245386244  LPSA35    1               0.0000000000
     38022      1225  ECLIPA    H110R          36.1851440340      -39.8099945478        2.5986019059  LPSA35    1               0.0000000000
     38023      1225  ECLIPA    H110S          35.4586639466      -41.4910371569        2.2134523692  LPSA35    1               0.0000000000
     38024      1225  ECLIPA    C111           35.2640221689      -39.7880110014        0.9126425210  LPSA35    1               0.0000000000
     38025      1225  ECLIPA    H111R          34.6567978673      -40.3650915646        0.3681142752  LPSA35    1               0.0000000000
     38026      1225  ECLIPA    H111S          34.5930872034      -38.9223250080        0.8282093777  LPSA35    1               0.0000000000
     38027      1225  ECLIPA    C112           36.1853668015      -40.1860935972       -0.2271324329  LPSA35    1               0.0000000000
     38028      1225  ECLIPA    H112R          36.9395455208      -39.6072090895        0.1817498904  LPSA35    1               0.0000000000
     38029      1225  ECLIPA    H112S          36.3747308584      -41.3012459979       -0.1914797713  LPSA35    1               0.0000000000
     38030      1225  ECLIPA    C113           35.6947536378      -39.7264143970       -1.6133233243  LPSA35    1               0.0000000000
     38031      1225  ECLIPA    H113R          35.1763098775      -40.6434356202       -1.5058525205  LPSA35    1               0.0000000000
     38032      1225  ECLIPA    H113S          34.8917314832      -39.0064630520       -1.9135212254  LPSA35    1               0.0000000000
     38033      1225  ECLIPA    C114           36.4728293812      -39.7978599922       -2.8761731140  LPSA35    1               0.0000000000
     38034      1225  ECLIPA    H114R          37.0733490115      -39.0467227716       -2.8626601996  LPSA35    1               0.0000000000
     38035      1225  ECLIPA    H114S          37.0397747906      -40.7285837562       -3.0117461810  LPSA35    1               0.0000000000
     38036      1225  ECLIPA    H114T          35.8133039004      -39.5449590632       -3.7439611488  LPSA35    1               0.0000000000
     38037      1226  AKDO      C1             39.4395626153      -45.1086393518       22.6107436213  LPSA35    2               0.0000000000
     38038      1226  AKDO      O11            40.5485365738      -45.6635127512       22.7360972401  LPSA35    2               0.0000000000
     38039      1226  AKDO      O12            38.4802356643      -45.8467974452       22.3970810832  LPSA35    2               0.0000000000
     38040      1226  AKDO      C2             39.1508154401      -43.3043271020       22.7808928012  LPSA35    2               0.0000000000
     38041      1226  AKDO      C6             40.0858296940      -41.1224598190       23.7432634061  LPSA35    2               0.0000000000
     38042      1226  AKDO      H6             39.6692901815      -40.5839204808       22.8767606471  LPSA35    2               0.0000000000
     38043      1226  AKDO      O6             40.2090723827      -42.4346129296       23.3397827069  LPSA35    2               0.0000000000
     38044      1226  AKDO      C3             38.2626164053      -43.3594638441       23.7676962926  LPSA35    2               0.0000000000
     38045      1226  AKDO      H31            38.2342607822      -44.2910960692       24.3195029833  LPSA35    2               0.0000000000
     38046      1226  AKDO      H32            37.3564675873      -43.9121744110       23.4305787403  LPSA35    2               0.0000000000
     38047      1226  AKDO      C4             38.0320126399      -42.0039627333       24.2094576910  LPSA35    2               0.0000000000
     38048      1226  AKDO      H4             37.7023344675      -41.3004924471       23.4717173214  LPSA35    2               0.0000000000
     38049      1226  AKDO      O4             37.2729248362      -42.4364078704       25.1562620015  LPSA35    2               0.0000000000
     38050      1226  AKDO      C5             39.2065829626      -41.2118319027       24.8106431300  LPSA35    2               0.0000000000
     38051      1226  AKDO      H5             38.8324288395      -40.1282899567       24.8554058769  LPSA35    2               0.0000000000
     38052      1226  AKDO      O5             39.7533635764      -41.5472085810       26.1567773019  LPSA35    2               0.0000000000
     38053      1226  AKDO      C7             41.3699778095      -40.5301598116       24.2840078186  LPSA35    2               0.0000000000
     38054      1226  AKDO      H7             41.7551310095      -40.8917867850       25.2345723862  LPSA35    2               0.0000000000
     38055      1226  AKDO      O7             40.8558821503      -39.2828061069       24.4124520687  LPSA35    2               0.0000000000
     38056      1226  AKDO      HO7            40.9209379551      -38.7420637352       23.6049230405  LPSA35    2               0.0000000000
     38057      1226  AKDO      C8             42.5054482256      -40.2343997212       23.4327407722  LPSA35    2               0.0000000000
     38058      1226  AKDO      H81            43.3793863612      -40.7534478738       23.2277436428  LPSA35    2               0.0000000000
     38059      1226  AKDO      H82            42.0425123841      -40.4354529910       22.4042911801  LPSA35    2               0.0000000000
     38060      1226  AKDO      O8             43.7428811985      -39.6140815498       23.7330754754  LPSA35    2               0.0000000000
     38061      1226  AKDO      HO8            44.2263038993      -39.9742781204       22.9590866189  LPSA35    2               0.0000000000
     38062      1227  AKDO      C1             35.8412252537      -40.2291159680       23.7621886093  LPSA35    3               1.0000000000
     38063      1227  AKDO      O11            35.3211834452      -40.4428152098       22.5905243248  LPSA35    3               1.0000000000
     38064      1227  AKDO      O12            35.0274011247      -39.6856058472       24.4889315522  LPSA35    3               1.0000000000
     38065      1227  AKDO      C2             36.2210943324      -41.8031562203       25.0887500016  LPSA35    3               1.0000000000
     38066      1227  AKDO      C6             35.8757480432      -44.4245216324       25.8117056149  LPSA35    3               1.0000000000
     38067      1227  AKDO      H6             36.8709861548      -44.3034892153       25.8235017872  LPSA35    3               1.0000000000
     38068      1227  AKDO      O6             35.7681148121      -43.2819464801       24.8688706941  LPSA35    3               1.0000000000
     38069      1227  AKDO      C3             35.2479599431      -41.6548192131       26.3071153368  LPSA35    3               1.0000000000
     38070      1227  AKDO      H31            34.1989301282      -41.8230290506       25.9294732146  LPSA35    3               1.0000000000
     38071      1227  AKDO      H32            35.0679657579      -40.6352601011       26.6749852211  LPSA35    3               1.0000000000
     38072      1227  AKDO      C4             35.4832442915      -42.6023966232       27.4042079720  LPSA35    3               1.0000000000
     38073      1227  AKDO      H4             36.6079739705      -42.6496065160       27.4746381459  LPSA35    3               1.0000000000
     38074      1227  AKDO      O4             34.9689100565      -41.8315212621       28.5430267392  LPSA35    3               1.0000000000
     38075      1227  AKDO      HO4            35.3567742050      -42.2173688654       29.3834897852  LPSA35    3               1.0000000000
     38076      1227  AKDO      C5             35.0697448099      -44.0804876997       26.9040614723  LPSA35    3               1.0000000000
     38077      1227  AKDO      H5             35.2042846367      -44.8399735918       27.7531850595  LPSA35    3               1.0000000000
     38078      1227  AKDO      O5             33.9004126370      -44.3250087630       26.0916480845  LPSA35    3               1.0000000000
     38079      1227  AKDO      HO5            33.0698796932      -43.8768685540       26.3558280385  LPSA35    3               1.0000000000
     38080      1227  AKDO      C7             35.5519452630      -46.0159765039       25.4324521555  LPSA35    3               1.0000000000
     38081      1227  AKDO      H7             34.4733189922      -46.1894621593       25.0592805910  LPSA35    3               1.0000000000
     38082      1227  AKDO      O7             36.0404275684      -47.0772365684       26.2992609838  LPSA35    3               1.0000000000
     38083      1227  AKDO      HO7            35.4761848813      -47.8224154674       25.9771449767  LPSA35    3               1.0000000000
     38084      1227  AKDO      C8             36.2541430132      -46.3581658557       24.2829695072  LPSA35    3               1.0000000000
     38085      1227  AKDO      H81            35.9012378794      -45.4600337170       23.8068891668  LPSA35    3               1.0000000000
     38086      1227  AKDO      H82            37.3498521593      -46.3213843056       24.3108917084  LPSA35    3               1.0000000000
     38087      1227  AKDO      O8             35.7351196380      -47.5732300645       23.7417149120  LPSA35    3               1.0000000000
     38088      1227  AKDO      HO8            34.9946485337      -47.4342623517       23.1136384135  LPSA35    3               1.0000000000
     38089      1228  AHEP      C1             40.0624029861      -40.5823606129       27.2432762454  LPSA35    4               2.0000000000
     38090      1228  AHEP      H1             41.0917893571      -40.4600268496       26.9609692140  LPSA35    4               2.0000000000
     38091      1228  AHEP      C5             38.0511673386      -39.3082578271       28.2190034526  LPSA35    4               2.0000000000
     38092      1228  AHEP      H5             37.2084868004      -40.1201121288       28.2440728903  LPSA35    4               2.0000000000
     38093      1228  AHEP      O5             39.3464338832      -39.3118357147       27.4208723057  LPSA35    4               2.0000000000
     38094      1228  AHEP      C2             40.2727471432      -40.9998141891       28.6919458343  LPSA35    4               2.0000000000
     38095      1228  AHEP      H2             40.8989729307      -41.9043195166       28.8271765999  LPSA35    4               2.0000000000
     38096      1228  AHEP      O2             41.2468510678      -40.3445688331       29.4775681150  LPSA35    4               2.0000000000
     38097      1228  AHEP      HO2            41.5664083954      -41.1510282803       29.9196126151  LPSA35    4               2.0000000000
     38098      1228  AHEP      C3             38.9201616551      -41.0972288338       29.3785634735  LPSA35    4               2.0000000000
     38099      1228  AHEP      H3             38.1112733926      -41.7343497912       28.9958641016  LPSA35    4               2.0000000000
     38100      1228  AHEP      O3             39.4961892418      -41.9740279625       30.3735967088  LPSA35    4               2.0000000000
     38101      1228  AHEP      C4             38.1507848253      -39.6684294456       29.5206789049  LPSA35    4               2.0000000000
     38102      1228  AHEP      H4             38.8476851245      -39.0069640424       30.0049294244  LPSA35    4               2.0000000000
     38103      1228  AHEP      O4             36.7607809812      -39.6265040755       30.1366989952  LPSA35    4               2.0000000000
     38104      1228  AHEP      P4             36.1998926184      -38.9747585051       31.5485483243  LPSA35    4               2.0000000000
     38105      1228  AHEP      OP42           35.2956051640      -40.1306735503       32.0282550426  LPSA35    4               2.0000000000
     38106      1228  AHEP      OP43           35.6058663382      -37.6894227907       31.0160179887  LPSA35    4               2.0000000000
     38107      1228  AHEP      OP44           37.3258749334      -38.6641341720       32.5368781763  LPSA35    4               2.0000000000
     38108      1228  AHEP      C6             37.2818270591      -38.1308449479       27.8143842338  LPSA35    4               2.0000000000
     38109      1228  AHEP      H6             36.2229479408      -38.3951055906       28.0760635741  LPSA35    4               2.0000000000
     38110      1228  AHEP      O6             37.7371398298      -37.0426118860       28.6055007875  LPSA35    4               2.0000000000
     38111      1228  AHEP      HO6            37.1379494421      -37.0123040863       29.3585898967  LPSA35    4               2.0000000000
     38112      1228  AHEP      C7             37.3109637605      -37.7585392239       26.3231857678  LPSA35    4               2.0000000000
     38113      1228  AHEP      H71            36.6349373351      -36.9084768017       26.1451253323  LPSA35    4               2.0000000000
     38114      1228  AHEP      H72            37.0106863744      -38.5978284399       25.6724810212  LPSA35    4               2.0000000000
     38115      1228  AHEP      O7             38.5593991977      -37.3455337303       25.8046650059  LPSA35    4               2.0000000000
     38116      1228  AHEP      HO7            38.7768451364      -36.5374099414       26.3049763537  LPSA35    4               2.0000000000
     38117      1229  AHEP      C1             38.8162641635      -42.7570801708       31.2996588806  LPSA35    5               3.0000000000
     38118      1229  AHEP      H1             37.8767253184      -42.9535934178       30.9233963064  LPSA35    5               3.0000000000
     38119      1229  AHEP      C5             40.9648655822      -43.5075067237       31.9960548374  LPSA35    5               3.0000000000
     38120      1229  AHEP      H5             41.4474246919      -42.5828507717       31.6533032305  LPSA35    5               3.0000000000
     38121      1229  AHEP      O5             39.7807744209      -43.6434585489       31.1612053717  LPSA35    5               3.0000000000
     38122      1229  AHEP      C2             37.9912086487      -42.5848824506       32.7462040360  LPSA35    5               3.0000000000
     38123      1229  AHEP      H2             37.3663398908      -41.7269935213       33.0386363367  LPSA35    5               3.0000000000
     38124      1229  AHEP      O2             36.7473281841      -43.4789400728       32.6692128904  LPSA35    5               3.0000000000
     38125      1229  AHEP      HO2            36.3209335317      -43.7422273889       33.5352883786  LPSA35    5               3.0000000000
     38126      1229  AHEP      C3             39.3848934968      -42.2968470179       33.7120416987  LPSA35    5               3.0000000000
     38127      1229  AHEP      H3             39.9539914144      -41.4307787833       33.3224982996  LPSA35    5               3.0000000000
     38128      1229  AHEP      O3             39.2172197544      -42.2416932867       35.1677246362  LPSA35    5               3.0000000000
     38129      1229  AHEP      C4             40.4648212956      -43.4199648872       33.5635949964  LPSA35    5               3.0000000000
     38130      1229  AHEP      H4             39.9541190282      -44.0623596765       34.2992289360  LPSA35    5               3.0000000000
     38131      1229  AHEP      O4             41.6437815378      -43.5679274130       34.2331556313  LPSA35    5               3.0000000000
     38132      1229  AHEP      P4             42.0768818169      -44.4834823848       35.5493957263  LPSA35    5               3.0000000000
     38133      1229  AHEP      OP42           43.3572215622      -43.8996586137       36.0181018893  LPSA35    5               3.0000000000
     38134      1229  AHEP      OP43           42.3961790205      -45.8888413246       35.2050601749  LPSA35    5               3.0000000000
     38135      1229  AHEP      OP44           40.9096610834      -44.4458939240       36.5030156817  LPSA35    5               3.0000000000
     38136      1229  AHEP      C6             42.0694173213      -44.7915314411       31.4580421885  LPSA35    5               3.0000000000
     38137      1229  AHEP      H6             42.9899662446      -44.6467463551       31.9837728190  LPSA35    5               3.0000000000
     38138      1229  AHEP      O6             42.1484810926      -46.2644546991       31.5512344159  LPSA35    5               3.0000000000
     38139      1229  AHEP      HO6            41.2225152941      -46.6292529348       31.6421919246  LPSA35    5               3.0000000000
     38140      1229  AHEP      C7             41.8661924959      -45.0055989253       29.9638564230  LPSA35    5               3.0000000000
     38141      1229  AHEP      H71            42.8657084154      -44.9444753942       29.7577187254  LPSA35    5               3.0000000000
     38142      1229  AHEP      H72            41.3602542317      -44.1560199305       29.5348762195  LPSA35    5               3.0000000000
     38143      1229  AHEP      O7             41.3904565592      -46.2070536353       29.3084963902  LPSA35    5               3.0000000000
     38144      1230  AHEP      C1             40.0635760413      -46.1567709947       29.1973612430  LPSA35    6               4.0000000000
     38145      1230  AHEP      H1             39.8407945278      -45.1064162146       29.1535882112  LPSA35    6               4.0000000000
     38146      1230  AHEP      C5             40.4076271682      -47.4586712625       27.1533553971  LPSA35    6               4.0000000000
     38147      1230  AHEP      H5             41.3438268707      -47.3840149259       27.5419001441  LPSA35    6               4.0000000000
     38148      1230  AHEP      O5             40.0398039774      -46.2417897333       27.8350611080  LPSA35    6               4.0000000000
     38149      1230  AHEP      C2             38.5238866902      -47.2617439714       30.2540465417  LPSA35    6               4.0000000000
     38150      1230  AHEP      H2             38.2652989160      -47.0449802553       31.1982266517  LPSA35    6               4.0000000000
     38151      1230  AHEP      O2             36.8572344820      -46.8785246359       29.6532470243  LPSA35    6               4.0000000000
     38152      1230  AHEP      HO2            36.4824037992      -45.9571414472       29.3557426920  LPSA35    6               4.0000000000
     38153      1230  AHEP      C3             39.2497793331      -48.4290579843       29.3560823880  LPSA35    6               4.0000000000
     38154      1230  AHEP      H3             40.2192163909      -48.5548455386       29.8983488491  LPSA35    6               4.0000000000
     38155      1230  AHEP      O3             38.0603107302      -49.0978934068       29.1455436750  LPSA35    6               4.0000000000
     38156      1230  AHEP      HO3            37.7179292195      -49.4707181232       29.9786365277  LPSA35    6               4.0000000000
     38157      1230  AHEP      C4             39.5012755363      -48.3786048959       27.6342816027  LPSA35    6               4.0000000000
     38158      1230  AHEP      H4             38.7087186587      -47.8819032002       26.9849136125  LPSA35    6               4.0000000000
     38159      1230  AHEP      O4             39.8475050237      -49.5139362278       26.9760395502  LPSA35    6               4.0000000000
     38160      1230  AHEP      HO4            40.7962645163      -49.6464372089       27.1867187674  LPSA35    6               4.0000000000
     38161      1230  AHEP      C6             40.8483984018      -47.5529073428       25.4954862881  LPSA35    6               4.0000000000
     38162      1230  AHEP      H6             41.0592280682      -48.6187377657       25.2709031806  LPSA35    6               4.0000000000
     38163      1230  AHEP      O6             39.6936874054      -47.1111047744       24.7052289968  LPSA35    6               4.0000000000
     38164      1230  AHEP      HO6            39.8892362081      -46.4438257146       23.9627479536  LPSA35    6               4.0000000000
     38165      1230  AHEP      C7             42.3537432911      -46.8284534225       25.0469835601  LPSA35    6               4.0000000000
     38166      1230  AHEP      H71            42.2604976378      -46.9785826753       24.0466864485  LPSA35    6               4.0000000000
     38167      1230  AHEP      H72            42.9765267474      -47.3257451619       25.7544065157  LPSA35    6               4.0000000000
     38168      1230  AHEP      O7             43.0089241138      -45.4824791279       24.9969645816  LPSA35    6               4.0000000000
     38169      1230  AHEP      HO7            42.3483565363      -44.8709849603       25.4995825285  LPSA35    6               4.0000000000
     38170      1231  AGLC      C1             39.2397709450      -40.9284193496       35.7219713679  LPSA35    7               4.0000000000
     38171      1231  AGLC      H1             39.9897165389      -40.3450155994       35.1840352105  LPSA35    7               4.0000000000
     38172      1231  AGLC      C5             36.9191369313      -40.9619217321       36.3148913764  LPSA35    7               4.0000000000
     38173      1231  AGLC      H5             36.7845724476      -41.9570739965       36.5955237578  LPSA35    7               4.0000000000
     38174      1231  AGLC      O5             37.9558212137      -40.3727529012       35.5378986321  LPSA35    7               4.0000000000
     38175      1231  AGLC      C2             39.4876115990      -40.7586932634       37.2736425185  LPSA35    7               4.0000000000
     38176      1231  AGLC      H2             39.1463663819      -39.7295839485       37.4257903530  LPSA35    7               4.0000000000
     38177      1231  AGLC      O2             40.7039738365      -40.6505310063       37.9673946733  LPSA35    7               4.0000000000
     38178      1231  AGLC      HO2            40.9765657544      -41.5950672941       37.9242961390  LPSA35    7               4.0000000000
     38179      1231  AGLC      C3             38.6148756889      -41.4967422999       38.0864795405  LPSA35    7               4.0000000000
     38180      1231  AGLC      H3             39.0173036760      -42.4547926602       37.5977386400  LPSA35    7               4.0000000000
     38181      1231  AGLC      O3             38.9665068949      -41.5323999593       39.4763732116  LPSA35    7               4.0000000000
     38182      1231  AGLC      C4             37.2464192231      -40.8852360017       37.8496476215  LPSA35    7               4.0000000000
     38183      1231  AGLC      H4             37.1335316582      -39.8369540220       38.0788466112  LPSA35    7               4.0000000000
     38184      1231  AGLC      O4             36.5085065316      -41.6306662678       38.8501258765  LPSA35    7               4.0000000000
     38185      1231  AGLC      HO4            35.5243520412      -41.5601179974       38.7393875229  LPSA35    7               4.0000000000
     38186      1231  AGLC      C6             35.7186545394      -40.5786925856       35.3849748101  LPSA35    7               4.0000000000
     38187      1231  AGLC      H61            35.8602818984      -40.7770692252       34.2897129536  LPSA35    7               4.0000000000
     38188      1231  AGLC      H62            34.8239216834      -41.2225980921       35.4372993421  LPSA35    7               4.0000000000
     38189      1231  AGLC      O6             35.3013356527      -39.2756509835       35.6981714509  LPSA35    7               4.0000000000
     38190      1231  AGLC      HO6            34.7994077363      -39.4636621138       36.4915873022  LPSA35    7               4.0000000000
     38191      1232  AGLC      C1             39.2106001181      -42.7997527005       39.9065171885  LPSA35    8               5.0000000000
     38192      1232  AGLC      H1             38.6398880418      -43.3590997106       39.2727229506  LPSA35    8               5.0000000000
     38193      1232  AGLC      C5             41.5067024393      -42.8566135810       40.2679478694  LPSA35    8               5.0000000000
     38194      1232  AGLC      H5             41.3059734280      -42.0514544006       39.6033114452  LPSA35    8               5.0000000000
     38195      1232  AGLC      O5             40.4522042435      -43.4509647181       39.5379272196  LPSA35    8               5.0000000000
     38196      1232  AGLC      C2             38.8660859492      -42.8466440715       41.4051020898  LPSA35    8               5.0000000000
     38197      1232  AGLC      H2             38.7777282434      -43.8050057651       41.8100826800  LPSA35    8               5.0000000000
     38198      1232  AGLC      O2             37.5987138001      -43.1761634056       41.9760322632  LPSA35    8               5.0000000000
     38199      1232  AGLC      C3             40.0493407064      -42.1410495938       42.1303198834  LPSA35    8               5.0000000000
     38200      1232  AGLC      H3             39.8957670628      -41.1168038747       41.7538632202  LPSA35    8               5.0000000000
     38201      1232  AGLC      O3             39.5244043944      -42.2021715055       43.4255184959  LPSA35    8               5.0000000000
     38202      1232  AGLC      C4             41.5204710724      -42.8111785936       41.9537016058  LPSA35    8               5.0000000000
     38203      1232  AGLC      H4             41.8426611542      -43.7328296969       42.5088075544  LPSA35    8               5.0000000000
     38204      1232  AGLC      O4             42.6287910195      -42.1544028984       42.6480445034  LPSA35    8               5.0000000000
     38205      1232  AGLC      HO4            42.4962377196      -41.1844140643       42.6631393866  LPSA35    8               5.0000000000
     38206      1232  AGLC      C6             42.7592138252      -43.2135590849       39.7391209219  LPSA35    8               5.0000000000
     38207      1232  AGLC      H61            42.7228903420      -43.5456101156       38.6828005844  LPSA35    8               5.0000000000
     38208      1232  AGLC      H62            43.5183984453      -42.4030257059       39.9748560497  LPSA35    8               5.0000000000
     38209      1232  AGLC      O6             43.0524116693      -44.3605299029       40.4094118338  LPSA35    8               5.0000000000
     38210      1232  AGLC      HO6            43.7131967299      -44.1801099491       41.0863109411  LPSA35    8               5.0000000000
     38211      1233  AGAL      C1             36.3389413669      -43.4679519256       41.4031010528  LPSA35    9               6.0000000000
     38212      1233  AGAL      H1             36.3949674657      -43.5209425160       40.3079685968  LPSA35    9               6.0000000000
     38213      1233  AGAL      C5             36.0041702649      -44.9812889590       43.1746210681  LPSA35    9               6.0000000000
     38214      1233  AGAL      H5             36.2660684279      -44.1833427132       43.8280082111  LPSA35    9               6.0000000000
     38215      1233  AGAL      O5             36.2233366209      -44.6979371489       41.8464619345  LPSA35    9               6.0000000000
     38216      1233  AGAL      C2             35.0335684094      -42.7115403203       41.8321740018  LPSA35    9               6.0000000000
     38217      1233  AGAL      H2             34.1282905809      -43.2707594533       41.7204830989  LPSA35    9               6.0000000000
     38218      1233  AGAL      O2             34.6224275279      -41.4499357239       41.2053255545  LPSA35    9               6.0000000000
     38219      1233  AGAL      C3             34.9990092351      -42.7827591475       43.2430734815  LPSA35    9               6.0000000000
     38220      1233  AGAL      H3             35.9937125377      -42.3508120944       43.5271649040  LPSA35    9               6.0000000000
     38221      1233  AGAL      O3             34.1026056116      -41.8598820867       43.7673736105  LPSA35    9               6.0000000000
     38222      1233  AGAL      HO3            33.8803009022      -41.1843964271       43.1029257470  LPSA35    9               6.0000000000
     38223      1233  AGAL      C4             34.8845200577      -44.3882847402       43.5647974833  LPSA35    9               6.0000000000
     38224      1233  AGAL      H4             34.8114809486      -44.6070411722       44.6790023578  LPSA35    9               6.0000000000
     38225      1233  AGAL      O4             33.9290857320      -45.1488373540       42.8495492669  LPSA35    9               6.0000000000
     38226      1233  AGAL      HO4            33.4712764518      -45.7705124256       43.4207159161  LPSA35    9               6.0000000000
     38227      1233  AGAL      C6             36.4785356257      -46.3777506550       43.6311330724  LPSA35    9               6.0000000000
     38228      1233  AGAL      H61            37.5785158743      -46.4183641798       43.6091051696  LPSA35    9               6.0000000000
     38229      1233  AGAL      H62            36.4108612750      -46.8404976548       44.6118178530  LPSA35    9               6.0000000000
     38230      1233  AGAL      O6             35.7411867386      -47.3435576285       42.9935477174  LPSA35    9               6.0000000000
     38231      1233  AGAL      HO6            36.1930638623      -48.0067566157       42.4849454873  LPSA35    9               6.0000000000
     38232      1234  AGAL      C1             34.7463899044      -40.0699101717       41.7399375332  LPSA35    10              7.0000000000
     38233      1234  AGAL      H1             33.6545166966      -39.9062583326       41.8873887628  LPSA35    10              7.0000000000
     38234      1234  AGAL      C5             36.9328694349      -39.4858354497       43.1711117492  LPSA35    10              7.0000000000
     38235      1234  AGAL      H5             37.6873197622      -40.3150092057       43.0741322849  LPSA35    10              7.0000000000
     38236      1234  AGAL      O5             35.3977486881      -39.6438081400       43.0593284219  LPSA35    10              7.0000000000
     38237      1234  AGAL      C2             35.2987055343      -38.9929446353       40.7459690544  LPSA35    10              7.0000000000
     38238      1234  AGAL      H2             34.9086584087      -38.0325234258       41.1035007563  LPSA35    10              7.0000000000
     38239      1234  AGAL      O2             34.7481390645      -39.1807676689       39.4586807829  LPSA35    10              7.0000000000
     38240      1234  AGAL      HO2            34.3354275975      -38.3378099082       39.2541179399  LPSA35    10              7.0000000000
     38241      1234  AGAL      C3             36.8718729661      -38.8234748201       40.6593622777  LPSA35    10              7.0000000000
     38242      1234  AGAL      H3             37.4114178207      -39.6504694618       40.1931891728  LPSA35    10              7.0000000000
     38243      1234  AGAL      O3             37.3409556145      -37.9365570189       39.6640443943  LPSA35    10              7.0000000000
     38244      1234  AGAL      HO3            37.7776044125      -38.5259766340       39.0387571261  LPSA35    10              7.0000000000
     38245      1234  AGAL      C4             37.3278619091      -38.4827812958       42.0954626806  LPSA35    10              7.0000000000
     38246      1234  AGAL      H4             38.4336213666      -38.5409751614       42.1083707606  LPSA35    10              7.0000000000
     38247      1234  AGAL      O4             36.8473424518      -37.2355395349       42.4609088154  LPSA35    10              7.0000000000
     38248      1234  AGAL      HO4            35.9315302443      -37.3979777244       42.6422977352  LPSA35    10              7.0000000000
     38249      1234  AGAL      C6             37.6606982699      -39.4180589362       44.5143470110  LPSA35    10              7.0000000000
     38250      1234  AGAL      H61            37.2788240401      -40.2241302828       45.1416509205  LPSA35    10              7.0000000000
     38251      1234  AGAL      H62            38.7687036708      -39.6342144533       44.3998716139  LPSA35    10              7.0000000000
     38252      1234  AGAL      O6             37.5399415873      -38.2060699764       45.2050784109  LPSA35    10              7.0000000000
     38253      1234  AGAL      HO6            37.0104938687      -38.3736088194       45.9764104367  LPSA35    10              7.0000000000
     38254      1235  BGLC      C1             40.2234764466      -43.0260021511       44.2837016735  LPSA35    11              6.0000000000
     38255      1235  BGLC      H1             41.1195788276      -42.4904905760       44.2471890151  LPSA35    11              6.0000000000
     38256      1235  BGLC      C5             40.5107592050      -45.4963376636       44.8532256417  LPSA35    11              6.0000000000
     38257      1235  BGLC      H5             41.4173433848      -45.2404402075       44.5919738787  LPSA35    11              6.0000000000
     38258      1235  BGLC      O5             40.2615859667      -44.5048189332       43.8426644387  LPSA35    11              6.0000000000
     38259      1235  BGLC      C2             39.2228741027      -42.7756394332       45.5345896137  LPSA35    11              6.0000000000
     38260      1235  BGLC      H2             38.1296667488      -42.8639179145       45.4682586081  LPSA35    11              6.0000000000
     38261      1235  BGLC      O2             39.4600600441      -41.4516689070       45.9696944014  LPSA35    11              6.0000000000
     38262      1235  BGLC      HO2            38.6330911267      -41.1467461346       46.3680284477  LPSA35    11              6.0000000000
     38263      1235  BGLC      C3             39.5414042268      -43.6759051282       46.7214131945  LPSA35    11              6.0000000000
     38264      1235  BGLC      H3             40.3389897400      -43.1090982687       47.2132598883  LPSA35    11              6.0000000000
     38265      1235  BGLC      O3             38.6483932836      -43.4069872423       47.8355592322  LPSA35    11              6.0000000000
     38266      1235  BGLC      C4             39.5502702006      -45.2544102069       46.0339372099  LPSA35    11              6.0000000000
     38267      1235  BGLC      H4             38.5532708841      -45.5260905218       45.9585848012  LPSA35    11              6.0000000000
     38268      1235  BGLC      O4             39.7931469909      -46.5215498928       46.6521441322  LPSA35    11              6.0000000000
     38269      1235  BGLC      HO4            39.5541518310      -46.4169167837       47.6080973582  LPSA35    11              6.0000000000
     38270      1235  BGLC      C6             40.5390475518      -47.0056114235       44.4342988139  LPSA35    11              6.0000000000
     38271      1235  BGLC      H61            40.5197687699      -47.8108255681       45.1879186817  LPSA35    11              6.0000000000
     38272      1235  BGLC      H62            39.6562634170      -47.0477684226       43.8640156003  LPSA35    11              6.0000000000
     38273      1235  BGLC      O6             41.6151655692      -47.4862473530       43.6807008236  LPSA35    11              6.0000000000
     38274      1235  BGLC      HO6            42.0591103463      -48.1897848619       44.1400982666  LPSA35    11              6.0000000000
     38275      1236  BGLCNA    C1             39.2488570071      -43.1259952429       49.2115963107  LPSA35    12              7.0000000000
     38276      1236  BGLCNA    H1             39.4576913310      -42.1472625661       48.9891670643  LPSA35    12              7.0000000000
     38277      1236  BGLCNA    C5             41.2863334114      -43.5789145561       50.8683177875  LPSA35    12              7.0000000000
     38278      1236  BGLCNA    H5             41.6347047767      -42.6762840354       51.3818457302  LPSA35    12              7.0000000000
     38279      1236  BGLCNA    O5             40.5633491391      -43.6162470497       49.6039016941  LPSA35    12              7.0000000000
     38280      1236  BGLCNA    C2             38.5286195523      -43.8953250071       50.3049305095  LPSA35    12              7.0000000000
     38281      1236  BGLCNA    H2             38.6213767408      -44.9922757320       50.3983393166  LPSA35    12              7.0000000000
     38282      1236  BGLCNA    N              37.3227248671      -43.6462471195       49.6701920373  LPSA35    12              7.0000000000
     38283      1236  BGLCNA    HN             37.2626443746      -42.6374285388       49.8581064332  LPSA35    12              7.0000000000
     38284      1236  BGLCNA    C              36.1870935543      -44.4571380800       49.8369284123  LPSA35    12              7.0000000000
     38285      1236  BGLCNA    O              36.0225316192      -45.4988867848       50.3957555227  LPSA35    12              7.0000000000
     38286      1236  BGLCNA    CT             34.9739565138      -43.7884832665       49.7947184856  LPSA35    12              7.0000000000
     38287      1236  BGLCNA    HT1            34.3255912753      -43.7410112648       50.6992418442  LPSA35    12              7.0000000000
     38288      1236  BGLCNA    HT2            34.2455499066      -44.0761089445       49.1021319635  LPSA35    12              7.0000000000
     38289      1236  BGLCNA    HT3            35.5155059747      -42.9552575181       49.3069388236  LPSA35    12              7.0000000000
     38290      1236  BGLCNA    C3             39.0055426348      -43.6512532729       51.7919718170  LPSA35    12              7.0000000000
     38291      1236  BGLCNA    H3             38.8801276522      -42.6660341147       51.8497637241  LPSA35    12              7.0000000000
     38292      1236  BGLCNA    O3             38.3326310531      -43.8066605351       53.1063177739  LPSA35    12              7.0000000000
     38293      1236  BGLCNA    C4             40.3789609249      -44.1627078989       51.7010756733  LPSA35    12              7.0000000000
     38294      1236  BGLCNA    H4             40.4706113224      -45.2707106390       51.4919875866  LPSA35    12              7.0000000000
     38295      1236  BGLCNA    O4             40.7488583308      -43.7015609786       52.9450168946  LPSA35    12              7.0000000000
     38296      1236  BGLCNA    HO4            41.3730243603      -42.9463849706       53.1379680357  LPSA35    12              7.0000000000
     38297      1236  BGLCNA    C6             42.5722672020      -44.4306755471       50.8557689334  LPSA35    12              7.0000000000
     38298      1236  BGLCNA    H61            43.2992455434      -44.2025172887       51.6103185916  LPSA35    12              7.0000000000
     38299      1236  BGLCNA    H62            42.4031605872      -45.5232590533       50.7819335082  LPSA35    12              7.0000000000
     38300      1236  BGLCNA    O6             43.5977387552      -44.0834345894       50.0183653932  LPSA35    12              7.0000000000
     38301      1236  BGLCNA    HO6            44.0599969381      -43.2395745940       50.1456803738  LPSA35    12              7.0000000000
     38302      1237  AGAL      C1             37.8038114673      -42.7795224032       53.9207872681  LPSA35    13              8.0000000000
     38303      1237  AGAL      H1             38.5522820274      -41.9907613957       54.1277035548  LPSA35    13              8.0000000000
     38304      1237  AGAL      C5             35.4523450397      -42.0852053772       53.5258751876  LPSA35    13              8.0000000000
     38305      1237  AGAL      H5             35.0237786871      -43.0302216157       53.0576893985  LPSA35    13              8.0000000000
     38306      1237  AGAL      O5             36.8554174307      -41.7139832438       53.6535861309  LPSA35    13              8.0000000000
     38307      1237  AGAL      C2             37.3900348712      -43.4973881979       55.1102417189  LPSA35    13              8.0000000000
     38308      1237  AGAL      H2             37.4079314952      -42.5438145535       55.5315714902  LPSA35    13              8.0000000000
     38309      1237  AGAL      O2             38.1412830678      -44.4259231065       55.9341484056  LPSA35    13              8.0000000000
     38310      1237  AGAL      C3             36.0998362131      -43.9864115848       55.0235839680  LPSA35    13              8.0000000000
     38311      1237  AGAL      H3             36.0346533258      -44.7020941539       54.1203268623  LPSA35    13              8.0000000000
     38312      1237  AGAL      O3             35.7245427926      -44.6298692883       56.2621220747  LPSA35    13              8.0000000000
     38313      1237  AGAL      HO3            35.3065257343      -45.5087826884       56.1063634987  LPSA35    13              8.0000000000
     38314      1237  AGAL      C4             35.2420359244      -42.7272295505       54.7472609385  LPSA35    13              8.0000000000
     38315      1237  AGAL      H4             34.4298890000      -43.3313694724       54.9879993173  LPSA35    13              8.0000000000
     38316      1237  AGAL      O4             35.3300804685      -41.5024913723       55.4265953936  LPSA35    13              8.0000000000
     38317      1237  AGAL      HO4            35.7310708038      -41.5776414201       56.2673062306  LPSA35    13              8.0000000000
     38318      1237  AGAL      C6             34.7393458676      -41.1533450334       52.5786536103  LPSA35    13              8.0000000000
     38319      1237  AGAL      H61            35.3351236082      -40.9258747501       51.6613303320  LPSA35    13              8.0000000000
     38320      1237  AGAL      H62            33.8373152017      -41.6753233424       52.1689937188  LPSA35    13              8.0000000000
     38321      1237  AGAL      O6             34.4405223132      -39.9714869084       53.2655771532  LPSA35    13              8.0000000000
     38322      1237  AGAL      HO6            33.8283966493      -40.3081487882       53.9491081931  LPSA35    13              8.0000000000
     38323      1238  ARHM      C1             38.8282820724      -44.0242863194       57.1211932578  LPSA35    14              9.0000000000
     38324      1238  ARHM      H1             38.9695308228      -42.9234769856       57.1351570086  LPSA35    14              9.0000000000
     38325      1238  ARHM      C5             40.0922389205      -45.9627130831       57.2641419610  LPSA35    14              9.0000000000
     38326      1238  ARHM      H5             39.5493897783      -46.1258072865       56.3594194411  LPSA35    14              9.0000000000
     38327      1238  ARHM      O5             40.1262822142      -44.5603657928       57.2706483867  LPSA35    14              9.0000000000
     38328      1238  ARHM      C2             38.0981135190      -44.5498950290       58.1654887808  LPSA35    14              9.0000000000
     38329      1238  ARHM      H2             37.0339461171      -44.2924573102       58.0608124345  LPSA35    14              9.0000000000
     38330      1238  ARHM      O2             38.7300793559      -44.1832893010       59.3954094849  LPSA35    14              9.0000000000
     38331      1238  ARHM      C3             38.1058986779      -46.0581247501       58.1505216153  LPSA35    14              9.0000000000
     38332      1238  ARHM      H3             37.7930025244      -46.1337258979       57.2003960567  LPSA35    14              9.0000000000
     38333      1238  ARHM      O3             37.0524330111      -46.9392895080       58.4268187745  LPSA35    14              9.0000000000
     38334      1238  ARHM      HO3            37.0249325656      -46.9694861162       59.4123405819  LPSA35    14              9.0000000000
     38335      1238  ARHM      C4             39.3860161170      -46.5534129928       58.3261741237  LPSA35    14              9.0000000000
     38336      1238  ARHM      H4             40.0343499127      -46.1264284105       59.0661980101  LPSA35    14              9.0000000000
     38337      1238  ARHM      O4             39.4301032129      -47.9337601654       58.3390093099  LPSA35    14              9.0000000000
     38338      1238  ARHM      HO4            39.6017339647      -48.2682226793       59.2303293367  LPSA35    14              9.0000000000
     38339      1238  ARHM      C6             41.4694084528      -46.4270043433       57.3774816154  LPSA35    14              9.0000000000
     38340      1238  ARHM      H61            42.1453629722      -45.6832448164       56.9710216505  LPSA35    14              9.0000000000
     38341      1238  ARHM      H62            41.8086834615      -46.2826151644       58.3863230829  LPSA35    14              9.0000000000
     38342      1238  ARHM      H63            41.6665633938      -47.4455267760       56.9853468641  LPSA35    14              9.0000000000
     38343      1239  ARHM      C1             38.8192708819      -42.8597159805       59.8414689209  LPSA35    15             10.0000000000
     38344      1239  ARHM      H1             38.5208470335      -42.1847567139       59.0361347622  LPSA35    15             10.0000000000
     38345      1239  ARHM      C5             40.8181347425      -43.1434755057       60.6352643387  LPSA35    15             10.0000000000
     38346      1239  ARHM      H5             40.8752440040      -44.2452723798       60.4212900697  LPSA35    15             10.0000000000
     38347      1239  ARHM      O5             40.0819659307      -42.5797125854       59.6733491458  LPSA35    15             10.0000000000
     38348      1239  ARHM      C2             38.3181403887      -42.3748696970       61.2818290312  LPSA35    15             10.0000000000
     38349      1239  ARHM      H2             37.3211574070      -42.6914950687       61.6907496203  LPSA35    15             10.0000000000
     38350      1239  ARHM      O2             38.1510727790      -40.9639739174       61.3001290357  LPSA35    15             10.0000000000
     38351      1239  ARHM      C3             39.1599838160      -43.0339459085       62.2259386312  LPSA35    15             10.0000000000
     38352      1239  ARHM      H3             39.3405584804      -44.0077600822       61.8187981909  LPSA35    15             10.0000000000
     38353      1239  ARHM      O3             38.4916026050      -43.2421962909       63.4527391970  LPSA35    15             10.0000000000
     38354      1239  ARHM      C4             40.4569391926      -42.6697516229       61.9602362261  LPSA35    15             10.0000000000
     38355      1239  ARHM      H4             40.4863261273      -41.5707799790       62.1602302554  LPSA35    15             10.0000000000
     38356      1239  ARHM      O4             41.3737157308      -43.4705656453       62.5638698561  LPSA35    15             10.0000000000
     38357      1239  ARHM      HO4            42.0187008380      -42.8781273154       62.9706530200  LPSA35    15             10.0000000000
     38358      1239  ARHM      C6             42.1287256530      -42.6400291385       60.4677002468  LPSA35    15             10.0000000000
     38359      1239  ARHM      H61            42.8236540455      -43.2549913765       61.0433534957  LPSA35    15             10.0000000000
     38360      1239  ARHM      H62            42.3889434952      -42.8128655781       59.4143385334  LPSA35    15             10.0000000000
     38361      1239  ARHM      H63            42.2301906402      -41.5979114473       60.8516033186  LPSA35    15             10.0000000000
     38362      1240  BMANNA    C1             37.5241594852      -40.4064717653       62.4473941252  LPSA35    16             11.0000000000
     38363      1240  BMANNA    H1             38.1721643912      -40.7258970426       63.3042241662  LPSA35    16             11.0000000000
     38364      1240  BMANNA    C5             35.7055162316      -40.1937083819       64.1150443129  LPSA35    16             11.0000000000
     38365      1240  BMANNA    H5             36.5047316153      -40.4598998423       64.8805692947  LPSA35    16             11.0000000000
     38366      1240  BMANNA    O5             36.1354311848      -40.7179121979       62.7951375113  LPSA35    16             11.0000000000
     38367      1240  BMANNA    C2             37.5339970015      -38.9474682600       62.3094547518  LPSA35    16             11.0000000000
     38368      1240  BMANNA    H2             38.5866771281      -38.6852446999       62.0384593341  LPSA35    16             11.0000000000
     38369      1240  BMANNA    N              36.6295816376      -38.5202376262       61.2546201316  LPSA35    16             11.0000000000
     38370      1240  BMANNA    HN             35.7011565429      -38.3336663526       61.5376689456  LPSA35    16             11.0000000000
     38371      1240  BMANNA    C              36.9632181668      -38.3539031510       59.9806531806  LPSA35    16             11.0000000000
     38372      1240  BMANNA    O              38.0924460095      -38.5411834273       59.5263392636  LPSA35    16             11.0000000000
     38373      1240  BMANNA    CT             35.8478550884      -37.8914374379       59.0829124930  LPSA35    16             11.0000000000
     38374      1240  BMANNA    HT1            35.9460156097      -36.8075521135       58.8809121501  LPSA35    16             11.0000000000
     38375      1240  BMANNA    HT2            34.8547364252      -38.0736015822       59.5421999766  LPSA35    16             11.0000000000
     38376      1240  BMANNA    HT3            35.8673964986      -38.4575426949       58.1332037837  LPSA35    16             11.0000000000
     38377      1240  BMANNA    C3             37.1418078054      -38.3717254832       63.6429761812  LPSA35    16             11.0000000000
     38378      1240  BMANNA    H3             37.8790887626      -38.8151792347       64.3604903946  LPSA35    16             11.0000000000
     38379      1240  BMANNA    O3             37.2401016509      -36.9669458374       63.6088102950  LPSA35    16             11.0000000000
     38380      1240  BMANNA    HO3            37.7988064492      -36.6827690294       64.3312669024  LPSA35    16             11.0000000000
     38381      1240  BMANNA    C4             35.7424742892      -38.7604134968       64.0543879683  LPSA35    16             11.0000000000
     38382      1240  BMANNA    H4             34.9554767863      -38.4900530724       63.3201926513  LPSA35    16             11.0000000000
     38383      1240  BMANNA    O4             35.3434126031      -38.2846415927       65.3364415152  LPSA35    16             11.0000000000
     38384      1240  BMANNA    HO4            34.3971258446      -38.4086223355       65.4338664397  LPSA35    16             11.0000000000
     38385      1240  BMANNA    C6             34.3883381243      -40.7159900140       64.7923069487  LPSA35    16             11.0000000000
     38386      1240  BMANNA    H61            34.5509180553      -40.7575872416       65.8984820897  LPSA35    16             11.0000000000
     38387      1240  BMANNA    H62            33.5123100292      -40.1585055162       64.4599918404  LPSA35    16             11.0000000000
     38388      1240  BMANNA    O6             33.9726095917      -42.0313487094       64.6149612140  LPSA35    16             11.0000000000
     38389      1240  BMANNA    HO6            33.3850442048      -42.2543686026       63.8553176282  LPSA35    16             11.0000000000
     38390      1241  BGLCNA    C1             38.3360441951      -44.4940154673       64.1956362885  LPSA35    17             11.0000000000
     38391      1241  BGLCNA    H1             39.2101623852      -45.0885624238       63.9582641589  LPSA35    17             11.0000000000
     38392      1241  BGLCNA    C5             37.1986670960      -46.7628432831       64.5382101667  LPSA35    17             11.0000000000
     38393      1241  BGLCNA    H5             38.1324515410      -47.1972099883       64.1921402402  LPSA35    17             11.0000000000
     38394      1241  BGLCNA    O5             37.3597439292      -45.5268417747       63.9649821629  LPSA35    17             11.0000000000
     38395      1241  BGLCNA    C2             38.0931446760      -44.0430149400       65.4140603635  LPSA35    17             11.0000000000
     38396      1241  BGLCNA    H2             37.0170337989      -43.8054418154       65.6317277554  LPSA35    17             11.0000000000
     38397      1241  BGLCNA    N              38.7902150556      -42.6456279632       65.6183008525  LPSA35    17             11.0000000000
     38398      1241  BGLCNA    HN             39.7408553263      -42.7844395219       65.3745662569  LPSA35    17             11.0000000000
     38399      1241  BGLCNA    C              38.7618667676      -41.5433790873       66.3430049803  LPSA35    17             11.0000000000
     38400      1241  BGLCNA    O              37.7852812440      -41.1250756190       66.8805571482  LPSA35    17             11.0000000000
     38401      1241  BGLCNA    CT             40.1114587674      -41.0943454448       66.7309218242  LPSA35    17             11.0000000000
     38402      1241  BGLCNA    HT1            40.2996542453      -40.0776147970       66.3921751792  LPSA35    17             11.0000000000
     38403      1241  BGLCNA    HT2            40.8055519476      -41.8403540820       66.2998750628  LPSA35    17             11.0000000000
     38404      1241  BGLCNA    HT3            40.3432195005      -41.0589207824       67.8201651382  LPSA35    17             11.0000000000
     38405      1241  BGLCNA    C3             38.1629748222      -45.4771097048       66.2078585262  LPSA35    17             11.0000000000
     38406      1241  BGLCNA    H3             39.0950210319      -45.9325149875       65.8067884935  LPSA35    17             11.0000000000
     38407      1241  BGLCNA    O3             37.9595991275      -45.7205039273       67.5360586249  LPSA35    17             11.0000000000
     38408      1241  BGLCNA    C4             37.0212624563      -46.3779601685       65.8282912912  LPSA35    17             11.0000000000
     38409      1241  BGLCNA    H4             36.1026733603      -45.7353744689       65.7900001309  LPSA35    17             11.0000000000
     38410      1241  BGLCNA    O4             36.7025220531      -47.4322617892       66.7439888697  LPSA35    17             11.0000000000
     38411      1241  BGLCNA    HO4            35.9033179688      -47.9850339786       66.6355361405  LPSA35    17             11.0000000000
     38412      1241  BGLCNA    C6             35.9589508653      -47.6172533454       64.1317477888  LPSA35    17             11.0000000000
     38413      1241  BGLCNA    H61            36.1865426243      -48.6807416555       64.2412845385  LPSA35    17             11.0000000000
     38414      1241  BGLCNA    H62            35.0702040163      -47.3730227938       64.7753979884  LPSA35    17             11.0000000000
     38415      1241  BGLCNA    O6             35.4825947241      -47.5158460387       62.8125688603  LPSA35    17             11.0000000000
     38416      1241  BGLCNA    HO6            36.1352706722      -47.2766961474       62.1454510177  LPSA35    17             11.0000000000
     38417      1242  AGAL      C1             38.8652849257      -45.7049929589       68.3885606451  LPSA35    18             12.0000000000
     38418      1242  AGAL      H1             38.6223075081      -46.6976708235       68.8633139741  LPSA35    18             12.0000000000
     38419      1242  AGAL      C5             40.7604251430      -44.8941667722       67.5529254415  LPSA35    18             12.0000000000
     38420      1242  AGAL      H5             40.2241406265      -44.1220832537       66.9807077838  LPSA35    18             12.0000000000
     38421      1242  AGAL      O5             40.0017274236      -46.0636384629       67.7633408805  LPSA35    18             12.0000000000
     38422      1242  AGAL      C2             38.9840875076      -44.6944519711       69.7052477780  LPSA35    18             12.0000000000
     38423      1242  AGAL      H2             39.5861629013      -45.4620868936       70.1171978512  LPSA35    18             12.0000000000
     38424      1242  AGAL      O2             38.7245104525      -44.4874968452       71.0660733952  LPSA35    18             12.0000000000
     38425      1242  AGAL      C3             39.6359252760      -43.2679005535       69.5730228317  LPSA35    18             12.0000000000
     38426      1242  AGAL      H3             39.8423607855      -42.8275557896       68.6449767752  LPSA35    18             12.0000000000
     38427      1242  AGAL      O3             39.0123448642      -41.8533665615       69.4345448308  LPSA35    18             12.0000000000
     38428      1242  AGAL      HO3            39.4146609695      -40.9464075841       69.2173884724  LPSA35    18             12.0000000000
     38429      1242  AGAL      C4             40.9464926784      -44.0187984508       69.0116408282  LPSA35    18             12.0000000000
     38430      1242  AGAL      H4             41.7600293233      -43.7100006851       68.5781682838  LPSA35    18             12.0000000000
     38431      1242  AGAL      O4             41.6535569773      -44.4822730793       70.2417768517  LPSA35    18             12.0000000000
     38432      1242  AGAL      HO4            42.6119600608      -44.4645219362       70.5481329910  LPSA35    18             12.0000000000
     38433      1242  AGAL      C6             41.9484676596      -45.0614610607       66.5636300410  LPSA35    18             12.0000000000
     38434      1242  AGAL      H61            41.4093166775      -45.3973138387       65.7019997025  LPSA35    18             12.0000000000
     38435      1242  AGAL      H62            42.4424975962      -44.0783752364       66.5525420484  LPSA35    18             12.0000000000
     38436      1242  AGAL      O6             42.8066715677      -46.1366868785       66.2034752059  LPSA35    18             12.0000000000
     38437      1242  AGAL      HO6            43.0042817696      -46.7569787904       66.9140046920  LPSA35    18             12.0000000000
     38438      1243  ARHM      C1             38.7048453797      -45.2781786606       72.2306887933  LPSA35    19             13.0000000000
     38439      1243  ARHM      H1             39.7972877549      -45.1443559620       72.4302701772  LPSA35    19             13.0000000000
     38440      1243  ARHM      C5             37.0973679462      -47.4062186854       72.3489744301  LPSA35    19             13.0000000000
     38441      1243  ARHM      H5             36.7709647542      -47.6599173256       71.3293694907  LPSA35    19             13.0000000000
     38442      1243  ARHM      O5             38.4298055081      -46.7270223543       72.6127193124  LPSA35    19             13.0000000000
     38443      1243  ARHM      C2             37.6561541569      -44.5594795709       72.9954038731  LPSA35    19             13.0000000000
     38444      1243  ARHM      H2             37.5889080981      -43.5150558447       72.6184739987  LPSA35    19             13.0000000000
     38445      1243  ARHM      O2             38.2070759982      -44.3064775235       74.1822404633  LPSA35    19             13.0000000000
     38446      1243  ARHM      C3             36.1592087273      -45.0668365640       72.7876109947  LPSA35    19             13.0000000000
     38447      1243  ARHM      H3             35.6563798799      -44.6857513449       71.9265322010  LPSA35    19             13.0000000000
     38448      1243  ARHM      O3             35.1935673768      -44.5148632230       73.6511466788  LPSA35    19             13.0000000000
     38449      1243  ARHM      HO3            35.5847241655      -44.3857711292       74.5596755925  LPSA35    19             13.0000000000
     38450      1243  ARHM      C4             36.1055781528      -46.5697883594       73.0950217628  LPSA35    19             13.0000000000
     38451      1243  ARHM      H4             35.9620067945      -47.0943979279       74.0002073187  LPSA35    19             13.0000000000
     38452      1243  ARHM      O4             34.7640319423      -46.8485962788       72.8454941867  LPSA35    19             13.0000000000
     38453      1243  ARHM      HO4            34.5703289650      -46.9856832491       71.9557550602  LPSA35    19             13.0000000000
     38454      1243  ARHM      C6             37.0092270617      -48.9652465596       72.4944179363  LPSA35    19             13.0000000000
     38455      1243  ARHM      H61            37.6630018876      -49.6134943109       71.9298085347  LPSA35    19             13.0000000000
     38456      1243  ARHM      H62            37.1608570813      -49.4104917220       73.4634776030  LPSA35    19             13.0000000000
     38457      1243  ARHM      H63            36.0607382718      -49.2750680774       72.0123015237  LPSA35    19             13.0000000000
     38458      1244  ARHM      C1             39.5603162251      -44.2009258002       74.4570989323  LPSA35    20             14.0000000000
     38459      1244  ARHM      H1             39.7057589603      -43.5977569484       73.6594618152  LPSA35    20             14.0000000000
     38460      1244  ARHM      C5             40.9147330338      -46.1800166712       75.7201320611  LPSA35    20             14.0000000000
     38461      1244  ARHM      H5             40.4005598592      -47.1979924049       75.4492992930  LPSA35    20             14.0000000000
     38462      1244  ARHM      O5             40.8126622599      -45.1818523916       74.6211053039  LPSA35    20             14.0000000000
     38463      1244  ARHM      C2             39.4798050397      -43.4524350850       75.8567441404  LPSA35    20             14.0000000000
     38464      1244  ARHM      H2             38.4231428779      -43.1780585980       75.8170248304  LPSA35    20             14.0000000000
     38465      1244  ARHM      O2             40.3437190311      -42.3491389380       76.2531323441  LPSA35    20             14.0000000000
     38466      1244  ARHM      C3             39.3297063884      -44.3386904305       77.1584884664  LPSA35    20             14.0000000000
     38467      1244  ARHM      H3             38.3087302100      -44.7803594684       77.2058439133  LPSA35    20             14.0000000000
     38468      1244  ARHM      O3             39.1752808639      -43.7652074752       78.4569697351  LPSA35    20             14.0000000000
     38469      1244  ARHM      C4             40.6024197996      -45.2241811932       77.0182519497  LPSA35    20             14.0000000000
     38470      1244  ARHM      H4             41.3602511365      -44.4175167090       76.9854461359  LPSA35    20             14.0000000000
     38471      1244  ARHM      O4             40.2625465848      -45.9525146270       78.2232957764  LPSA35    20             14.0000000000
     38472      1244  ARHM      HO4            40.7997865812      -46.7297813627       78.3653880517  LPSA35    20             14.0000000000
     38473      1244  ARHM      C6             42.0713196702      -46.8430042655       76.0194909055  LPSA35    20             14.0000000000
     38474      1244  ARHM      H61            42.8723034212      -46.2004334248       76.3532714486  LPSA35    20             14.0000000000
     38475      1244  ARHM      H62            41.8236328992      -47.5659564028       76.8427849270  LPSA35    20             14.0000000000
     38476      1244  ARHM      H63            42.1573725496      -47.2374614106       74.9633586123  LPSA35    20             14.0000000000
     38477      1245  BMANNA    C1             40.3702132834      -41.1114689823       75.5974335172  LPSA35    21             15.0000000000
     38478      1245  BMANNA    H1             39.8438311082      -41.2473953337       74.7840923678  LPSA35    21             15.0000000000
     38479      1245  BMANNA    C5             40.7910017836      -39.6748312345       73.7777902968  LPSA35    21             15.0000000000
     38480      1245  BMANNA    H5             39.8614993768      -39.7922817102       73.1780411527  LPSA35    21             15.0000000000
     38481      1245  BMANNA    O5             41.3497426089      -40.7151045084       74.6502285703  LPSA35    21             15.0000000000
     38482      1245  BMANNA    C2             39.9529949462      -40.0719414520       76.5026813172  LPSA35    21             15.0000000000
     38483      1245  BMANNA    H2             38.9985039236      -40.1546941408       77.0060978482  LPSA35    21             15.0000000000
     38484      1245  BMANNA    N              40.9181046269      -40.1913032784       77.5768396750  LPSA35    21             15.0000000000
     38485      1245  BMANNA    HN             41.7830036626      -39.9698995097       77.1500890177  LPSA35    21             15.0000000000
     38486      1245  BMANNA    C              40.7154139227      -39.9138215403       78.9000800182  LPSA35    21             15.0000000000
     38487      1245  BMANNA    O              39.7088985732      -39.4316357212       79.3728047428  LPSA35    21             15.0000000000
     38488      1245  BMANNA    CT             41.9758725742      -39.5725296942       79.5416162619  LPSA35    21             15.0000000000
     38489      1245  BMANNA    HT1            42.4229364631      -38.6279211811       79.2092986683  LPSA35    21             15.0000000000
     38490      1245  BMANNA    HT2            42.7448565031      -40.3350614775       79.4030810174  LPSA35    21             15.0000000000
     38491      1245  BMANNA    HT3            41.6616363279      -39.3133277696       80.5779632338  LPSA35    21             15.0000000000
     38492      1245  BMANNA    C3             39.4430757547      -38.9150586965       75.5960501016  LPSA35    21             15.0000000000
     38493      1245  BMANNA    H3             38.5635063479      -39.1249015889       74.9585467369  LPSA35    21             15.0000000000
     38494      1245  BMANNA    O3             38.9526578937      -37.7666253848       76.2638242807  LPSA35    21             15.0000000000
     38495      1245  BMANNA    HO3            39.7226581694      -37.3503343944       76.7137646986  LPSA35    21             15.0000000000
     38496      1245  BMANNA    C4             40.4712303938      -38.5714425667       74.6607135049  LPSA35    21             15.0000000000
     38497      1245  BMANNA    H4             41.3824746507      -38.4445945661       75.2611892633  LPSA35    21             15.0000000000
     38498      1245  BMANNA    O4             40.0255697260      -37.5064543804       73.9008477617  LPSA35    21             15.0000000000
     38499      1245  BMANNA    HO4            40.6806127696      -36.8075821980       73.9353828081  LPSA35    21             15.0000000000
     38500      1245  BMANNA    C6             41.6309000395      -39.4345022870       72.6952369496  LPSA35    21             15.0000000000
     38501      1245  BMANNA    H61            41.3008779871      -38.8274678873       71.8659474529  LPSA35    21             15.0000000000
     38502      1245  BMANNA    H62            42.4204009888      -38.8636241869       73.1534054292  LPSA35    21             15.0000000000
     38503      1245  BMANNA    O6             41.9499302838      -40.6639217424       72.1294861278  LPSA35    21             15.0000000000
     38504      1245  BMANNA    HO6            42.6158145589      -41.1679783250       72.6246809805  LPSA35    21             15.0000000000
     38505      1246  BGLCNA    C1             38.0726013009      -44.1727233256       79.2631607537  LPSA35    22             15.0000000000
     38506      1246  BGLCNA    H1             38.1713960745      -45.2167520420       79.4280765819  LPSA35    22             15.0000000000
     38507      1246  BGLCNA    C5             35.8256170869      -44.2920360597       80.0410560015  LPSA35    22             15.0000000000
     38508      1246  BGLCNA    H5             35.5380962066      -45.3259571931       79.9519751119  LPSA35    22             15.0000000000
     38509      1246  BGLCNA    O5             36.6862015203      -43.8655238878       78.9478721370  LPSA35    22             15.0000000000
     38510      1246  BGLCNA    C2             38.5757809375      -43.4389270314       80.4359734362  LPSA35    22             15.0000000000
     38511      1246  BGLCNA    H2             38.5861814910      -42.3307483110       80.3698917036  LPSA35    22             15.0000000000
     38512      1246  BGLCNA    N              39.9025418787      -43.8456230599       80.6348457586  LPSA35    22             15.0000000000
     38513      1246  BGLCNA    HN             40.1723557899      -44.7829967272       80.4033986244  LPSA35    22             15.0000000000
     38514      1246  BGLCNA    C              40.6193975899      -43.1750580070       81.3884610848  LPSA35    22             15.0000000000
     38515      1246  BGLCNA    O              40.0757021816      -42.2911864783       81.9988511124  LPSA35    22             15.0000000000
     38516      1246  BGLCNA    CT             41.9298707083      -43.7390511513       81.5969313585  LPSA35    22             15.0000000000
     38517      1246  BGLCNA    HT1            42.6717411004      -43.3661701810       80.9060996478  LPSA35    22             15.0000000000
     38518      1246  BGLCNA    HT2            41.7800687865      -44.8004258925       81.3317200639  LPSA35    22             15.0000000000
     38519      1246  BGLCNA    HT3            42.3866570621      -43.7513570107       82.5709161788  LPSA35    22             15.0000000000
     38520      1246  BGLCNA    C3             37.7995561463      -43.8558440287       81.5713475672  LPSA35    22             15.0000000000
     38521      1246  BGLCNA    H3             38.2489095435      -44.6702592150       81.8265149835  LPSA35    22             15.0000000000
     38522      1246  BGLCNA    O3             38.5115486093      -43.7935080804       82.7466101509  LPSA35    22             15.0000000000
     38523      1246  BGLCNA    C4             36.3629115612      -43.6158528131       81.3363141311  LPSA35    22             15.0000000000
     38524      1246  BGLCNA    H4             36.4218441686      -42.6077402521       81.2547422434  LPSA35    22             15.0000000000
     38525      1246  BGLCNA    O4             35.6821441520      -43.8219439882       82.5477831182  LPSA35    22             15.0000000000
     38526      1246  BGLCNA    HO4            34.8547934452      -43.3268087006       82.7573803888  LPSA35    22             15.0000000000
     38527      1246  BGLCNA    C6             34.5413642267      -43.6179850789       79.7997297199  LPSA35    22             15.0000000000
     38528      1246  BGLCNA    H61            33.7811882531      -43.6146584589       80.4541864098  LPSA35    22             15.0000000000
     38529      1246  BGLCNA    H62            34.7618064666      -42.6068311555       79.9336371856  LPSA35    22             15.0000000000
     38530      1246  BGLCNA    O6             33.6516600771      -43.9189408072       78.7940557626  LPSA35    22             15.0000000000
     38531      1246  BGLCNA    HO6            34.1086152231      -44.2437462214       78.0177605616  LPSA35    22             15.0000000000
     38532      1247  AGAL      C1             38.2262380065      -44.1712578173       83.9605559889  LPSA35    23             16.0000000000
     38533      1247  AGAL      H1             37.2298744791      -43.7027310869       84.1549977508  LPSA35    23             16.0000000000
     38534      1247  AGAL      C5             39.5127983821      -46.2948853079       84.0229913771  LPSA35    23             16.0000000000
     38535      1247  AGAL      H5             40.1412810589      -45.6987563659       83.3225598480  LPSA35    23             16.0000000000
     38536      1247  AGAL      O5             38.2266661134      -45.6079083091       84.2024488353  LPSA35    23             16.0000000000
     38537      1247  AGAL      C2             39.3158636605      -43.5681450399       84.8980689485  LPSA35    23             16.0000000000
     38538      1247  AGAL      H2             39.4187043201      -44.1374736565       85.7987565753  LPSA35    23             16.0000000000
     38539      1247  AGAL      O2             39.1627420193      -42.1689118944       85.3274127787  LPSA35    23             16.0000000000
     38540      1247  AGAL      C3             40.6018822702      -44.2596675817       84.6295426475  LPSA35    23             16.0000000000
     38541      1247  AGAL      H3             40.8229827620      -43.8693571992       83.6860773927  LPSA35    23             16.0000000000
     38542      1247  AGAL      O3             41.7088310377      -43.8401515123       85.2117917844  LPSA35    23             16.0000000000
     38543      1247  AGAL      HO3            41.4231362592      -43.9444780575       86.1333748646  LPSA35    23             16.0000000000
     38544      1247  AGAL      C4             40.5076526473      -45.8218726305       84.9182366802  LPSA35    23             16.0000000000
     38545      1247  AGAL      H4             41.4694714759      -46.3255437089       84.6724029103  LPSA35    23             16.0000000000
     38546      1247  AGAL      O4             39.9937209508      -46.2755191490       86.1437311608  LPSA35    23             16.0000000000
     38547      1247  AGAL      HO4            39.5289399768      -47.1260233092       85.9624906557  LPSA35    23             16.0000000000
     38548      1247  AGAL      C6             39.4807874394      -47.7875769626       83.4021252180  LPSA35    23             16.0000000000
     38549      1247  AGAL      H61            38.5122653916      -47.8199879163       82.8478712000  LPSA35    23             16.0000000000
     38550      1247  AGAL      H62            40.2190300007      -47.8790782570       82.6510686690  LPSA35    23             16.0000000000
     38551      1247  AGAL      O6             39.5605535539      -49.0721526840       83.9679471785  LPSA35    23             16.0000000000
     38552      1247  AGAL      HO6            38.6108634460      -49.2733463016       84.1051898597  LPSA35    23             16.0000000000
     38553      1248  ARHM      C1             38.1695148185      -41.5893688776       86.2265629700  LPSA35    24             17.0000000000
     38554      1248  ARHM      H1             37.4341609962      -42.2440851947       86.4951723364  LPSA35    24             17.0000000000
     38555      1248  ARHM      C5             38.2824288192      -39.4001118879       85.6007526207  LPSA35    24             17.0000000000
     38556      1248  ARHM      H5             39.0728468836      -39.7552476012       84.9176300396  LPSA35    24             17.0000000000
     38557      1248  ARHM      O5             37.4314589767      -40.4987040063       85.7220261580  LPSA35    24             17.0000000000
     38558      1248  ARHM      C2             38.7075936970      -41.2629585963       87.5601735550  LPSA35    24             17.0000000000
     38559      1248  ARHM      H2             39.2442969589      -41.9794043834       88.1082641597  LPSA35    24             17.0000000000
     38560      1248  ARHM      O2             37.7565368797      -40.7836364040       88.4788708007  LPSA35    24             17.0000000000
     38561      1248  ARHM      C3             39.6105965056      -40.2230327703       87.4055667255  LPSA35    24             17.0000000000
     38562      1248  ARHM      H3             40.3032192516      -40.6191695751       86.6232958495  LPSA35    24             17.0000000000
     38563      1248  ARHM      O3             40.2840284823      -40.1334610378       88.6286731636  LPSA35    24             17.0000000000
     38564      1248  ARHM      HO3            39.8984688497      -39.4221287811       89.1268418150  LPSA35    24             17.0000000000
     38565      1248  ARHM      C4             38.8824710898      -39.0398155444       86.9316534592  LPSA35    24             17.0000000000
     38566      1248  ARHM      H4             38.0793137560      -38.7829316890       87.6674231866  LPSA35    24             17.0000000000
     38567      1248  ARHM      O4             39.7648993032      -37.9609518758       86.8326672127  LPSA35    24             17.0000000000
     38568      1248  ARHM      HO4            39.3188935959      -37.1369272047       87.0536148156  LPSA35    24             17.0000000000
     38569      1248  ARHM      C6             37.5521416589      -38.2685609821       84.9341121515  LPSA35    24             17.0000000000
     38570      1248  ARHM      H61            38.3387107914      -37.6568749422       84.4468064172  LPSA35    24             17.0000000000
     38571      1248  ARHM      H62            36.8078666136      -38.6294389662       84.1956742174  LPSA35    24             17.0000000000
     38572      1248  ARHM      H63            37.0143150702      -37.6689608387       85.6677653114  LPSA35    24             17.0000000000
     38573      1249  ARHM      C1             36.9622018762      -41.7326482916       89.0132273933  LPSA35    25             18.0000000000
     38574      1249  ARHM      H1             36.7340214028      -42.6145307943       88.3587757072  LPSA35    25             18.0000000000
     38575      1249  ARHM      C5             35.3433067120      -40.3793578229       90.0210658954  LPSA35    25             18.0000000000
     38576      1249  ARHM      H5             35.8352149895      -39.4435583656       89.7707911080  LPSA35    25             18.0000000000
     38577      1249  ARHM      O5             35.5811307485      -41.3138572217       88.9606069545  LPSA35    25             18.0000000000
     38578      1249  ARHM      C2             37.5747437902      -42.3566417218       90.3781105761  LPSA35    25             18.0000000000
     38579      1249  ARHM      H2             38.6501976255      -42.3305472462       90.3072778393  LPSA35    25             18.0000000000
     38580      1249  ARHM      O2             37.3405146498      -43.7277974887       90.9029226720  LPSA35    25             18.0000000000
     38581      1249  ARHM      C3             37.2768359706      -41.2094944942       91.3957376097  LPSA35    25             18.0000000000
     38582      1249  ARHM      H3             37.7854146460      -40.3227572758       91.0188065067  LPSA35    25             18.0000000000
     38583      1249  ARHM      O3             37.9585394155      -41.7025281387       92.5608425994  LPSA35    25             18.0000000000
     38584      1249  ARHM      C4             35.7233366185      -40.8018218604       91.4467426163  LPSA35    25             18.0000000000
     38585      1249  ARHM      H4             35.1827385040      -41.5753752671       92.0086933583  LPSA35    25             18.0000000000
     38586      1249  ARHM      O4             35.1658055303      -39.7191483315       92.1494327932  LPSA35    25             18.0000000000
     38587      1249  ARHM      HO4            34.8525449172      -40.1898982419       92.9685739187  LPSA35    25             18.0000000000
     38588      1249  ARHM      C6             33.7656568296      -40.3337737888       90.1298323629  LPSA35    25             18.0000000000
     38589      1249  ARHM      H61            33.3114018714      -40.2481161673       89.1365594258  LPSA35    25             18.0000000000
     38590      1249  ARHM      H62            33.2770608952      -41.2251951278       90.6057454997  LPSA35    25             18.0000000000
     38591      1249  ARHM      H63            33.4652989906      -39.4633001080       90.7496444322  LPSA35    25             18.0000000000
     38592      1250  BMANNA    C1             37.7528261136      -44.9506519924       90.3343558650  LPSA35    26             19.0000000000
     38593      1250  BMANNA    H1             38.7903482006      -44.9545009697       90.0991723907  LPSA35    26             19.0000000000
     38594      1250  BMANNA    C5             37.5241741413      -46.6085388814       88.6490792164  LPSA35    26             19.0000000000
     38595      1250  BMANNA    H5             38.4336366174      -46.2187378374       88.1726294350  LPSA35    26             19.0000000000
     38596      1250  BMANNA    O5             37.0043679887      -45.4410069016       89.2091431567  LPSA35    26             19.0000000000
     38597      1250  BMANNA    C2             37.8684220475      -45.9073650382       91.3716873601  LPSA35    26             19.0000000000
     38598      1250  BMANNA    H2             38.5513019673      -45.5285468440       92.1199835924  LPSA35    26             19.0000000000
     38599      1250  BMANNA    N              36.7245190472      -46.2466920364       91.9750119814  LPSA35    26             19.0000000000
     38600      1250  BMANNA    HN             35.9261138146      -46.6115345384       91.4940341768  LPSA35    26             19.0000000000
     38601      1250  BMANNA    C              36.3306191825      -45.9362859493       93.0775421227  LPSA35    26             19.0000000000
     38602      1250  BMANNA    O              36.6251170485      -44.8940888525       93.6519269157  LPSA35    26             19.0000000000
     38603      1250  BMANNA    CT             35.6969536251      -47.2276121414       93.3965675447  LPSA35    26             19.0000000000
     38604      1250  BMANNA    HT1            34.9117320807      -47.0900261566       92.5726194657  LPSA35    26             19.0000000000
     38605      1250  BMANNA    HT2            35.3939541924      -46.8941548410       94.4352871488  LPSA35    26             19.0000000000
     38606      1250  BMANNA    HT3            34.9878856761      -47.9756774298       93.6931031459  LPSA35    26             19.0000000000
     38607      1250  BMANNA    C3             38.4821480528      -47.0690525939       90.7736581010  LPSA35    26             19.0000000000
     38608      1250  BMANNA    H3             39.4526519038      -46.7636588123       90.3337704242  LPSA35    26             19.0000000000
     38609      1250  BMANNA    O3             38.8283559345      -47.9599880870       91.7516500425  LPSA35    26             19.0000000000
     38610      1250  BMANNA    HO3            39.5572089883      -47.6525035231       92.2782615486  LPSA35    26             19.0000000000
     38611      1250  BMANNA    C4             37.6532126143      -47.6836099835       89.7213529194  LPSA35    26             19.0000000000
     38612      1250  BMANNA    H4             36.5857175083      -47.8185232121       89.7834279625  LPSA35    26             19.0000000000
     38613      1250  BMANNA    O4             38.2432235276      -48.9935616996       89.5023517667  LPSA35    26             19.0000000000
     38614      1250  BMANNA    HO4            37.7447931407      -49.8072396503       89.6908543253  LPSA35    26             19.0000000000
     38615      1250  BMANNA    C6             36.3720439528      -46.9801172605       87.6846562413  LPSA35    26             19.0000000000
     38616      1250  BMANNA    H61            35.5472691041      -46.2593721144       87.6978672216  LPSA35    26             19.0000000000
     38617      1250  BMANNA    H62            36.8303571579      -47.1954363335       86.7535487293  LPSA35    26             19.0000000000
     38618      1250  BMANNA    O6             35.6130789518      -48.1484939717       87.5479205085  LPSA35    26             19.0000000000
     38619      1250  BMANNA    HO6            35.7002415735      -48.7725580206       88.2432025446  LPSA35    26             19.0000000000
     38620      1251  BGLCNA    C1             38.6850293307      -40.8625382223       93.4005607859  LPSA35    27             19.0000000000
     38621      1251  BGLCNA    H1             38.3699832859      -39.8213361124       93.1985042914  LPSA35    27             19.0000000000
     38622      1251  BGLCNA    C5             40.5342152862      -39.7177421897       93.8494754393  LPSA35    27             19.0000000000
     38623      1251  BGLCNA    H5             39.9046326239      -38.7900685074       93.8658794832  LPSA35    27             19.0000000000
     38624      1251  BGLCNA    O5             39.9912197848      -40.7359416512       93.0163357669  LPSA35    27             19.0000000000
     38625      1251  BGLCNA    C2             38.4976945014      -41.3528412700       94.9457380583  LPSA35    27             19.0000000000
     38626      1251  BGLCNA    H2             38.9833952394      -42.2657163497       94.7653959463  LPSA35    27             19.0000000000
     38627      1251  BGLCNA    N              37.2099556785      -41.8431864662       95.6746982918  LPSA35    27             19.0000000000
     38628      1251  BGLCNA    HN             36.4488184475      -41.2073107531       95.5002920804  LPSA35    27             19.0000000000
     38629      1251  BGLCNA    C              36.8284952366      -43.0783727659       95.8814433898  LPSA35    27             19.0000000000
     38630      1251  BGLCNA    O              37.7467662959      -43.8321426853       95.8192976315  LPSA35    27             19.0000000000
     38631      1251  BGLCNA    CT             35.3510969266      -43.5056350206       96.1593777739  LPSA35    27             19.0000000000
     38632      1251  BGLCNA    HT1            34.6639506956      -42.6430002741       96.0677997708  LPSA35    27             19.0000000000
     38633      1251  BGLCNA    HT2            34.8210900539      -43.5984023912       97.1008331547  LPSA35    27             19.0000000000
     38634      1251  BGLCNA    HT3            35.1566637938      -44.4723589185       95.6519169597  LPSA35    27             19.0000000000
     38635      1251  BGLCNA    C3             39.1563824412      -40.2499739131       95.7138340182  LPSA35    27             19.0000000000
     38636      1251  BGLCNA    H3             38.5720387195      -39.3284321381       95.5499753242  LPSA35    27             19.0000000000
     38637      1251  BGLCNA    O3             38.9014050642      -40.4664913488       97.0573604422  LPSA35    27             19.0000000000
     38638      1251  BGLCNA    C4             40.5481621023      -40.0952084070       95.2805148879  LPSA35    27             19.0000000000
     38639      1251  BGLCNA    H4             41.2419850957      -40.9207197957       95.3472085298  LPSA35    27             19.0000000000
     38640      1251  BGLCNA    O4             41.2563813020      -39.3116521732       96.1294259753  LPSA35    27             19.0000000000
     38641      1251  BGLCNA    HO4            40.8721131183      -38.4356115148       96.1624660708  LPSA35    27             19.0000000000
     38642      1251  BGLCNA    C6             41.7697978609      -39.4204952614       93.2560318485  LPSA35    27             19.0000000000
     38643      1251  BGLCNA    H61            42.1927263646      -38.4962075565       93.6621442050  LPSA35    27             19.0000000000
     38644      1251  BGLCNA    H62            42.3687653491      -40.2963451398       93.2643676458  LPSA35    27             19.0000000000
     38645      1251  BGLCNA    O6             41.7489967853      -39.2607669207       91.9095728520  LPSA35    27             19.0000000000
     38646      1251  BGLCNA    HO6            42.6379296332      -38.9776833008       91.6181047069  LPSA35    27             19.0000000000
     38647      1252  AGAL      C1             39.2252110320      -39.9055769053       98.2940027679  LPSA35    28             20.0000000000
     38648      1252  AGAL      H1             40.3308703426      -39.8776443701       98.3531620536  LPSA35    28             20.0000000000
     38649      1252  AGAL      C5             37.0455427159      -39.0115566977       98.1361770099  LPSA35    28             20.0000000000
     38650      1252  AGAL      H5             36.7485016998      -39.8760719444       97.4503998063  LPSA35    28             20.0000000000
     38651      1252  AGAL      O5             38.4852994783      -38.7422895259       98.1114934375  LPSA35    28             20.0000000000
     38652      1252  AGAL      C2             38.7317425793      -40.5353472703       99.6870486781  LPSA35    28             20.0000000000
     38653      1252  AGAL      H2             38.9441354337      -39.7976566829      100.4547973122  LPSA35    28             20.0000000000
     38654      1252  AGAL      O2             39.4444209992      -41.7161312120      100.1341519664  LPSA35    28             20.0000000000
     38655      1252  AGAL      C3             37.2093613483      -40.7535266281       99.6547494713  LPSA35    28             20.0000000000
     38656      1252  AGAL      H3             36.8263668922      -41.3524377101       98.8542773136  LPSA35    28             20.0000000000
     38657      1252  AGAL      O3             36.5285875482      -41.3282191191      100.7006771770  LPSA35    28             20.0000000000
     38658      1252  AGAL      HO3            36.2578623038      -42.2311820128      100.4461626535  LPSA35    28             20.0000000000
     38659      1252  AGAL      C4             36.5650463143      -39.5056542928       99.4519111478  LPSA35    28             20.0000000000
     38660      1252  AGAL      H4             35.4533167717      -39.6599645003       99.4315315131  LPSA35    28             20.0000000000
     38661      1252  AGAL      O4             36.9214066081      -38.6233948232      100.5035380651  LPSA35    28             20.0000000000
     38662      1252  AGAL      HO4            36.1818488065      -38.6423777914      101.1088839656  LPSA35    28             20.0000000000
     38663      1252  AGAL      C6             36.3041513143      -37.8555573677       97.6182979137  LPSA35    28             20.0000000000
     38664      1252  AGAL      H61            36.5530115250      -37.7678582377       96.5445340803  LPSA35    28             20.0000000000
     38665      1252  AGAL      H62            35.2172558213      -38.0093763476       97.7050781628  LPSA35    28             20.0000000000
     38666      1252  AGAL      O6             36.6661356978      -36.6674711906       98.2917117415  LPSA35    28             20.0000000000
     38667      1252  AGAL      HO6            37.5503525888      -36.4493931635       97.9660416774  LPSA35    28             20.0000000000
     38668      1253  ARHM      C1             39.6524046398      -41.8027412011      101.5148949789  LPSA35    29             21.0000000000
     38669      1253  ARHM      H1             38.9340979328      -41.1315365831      101.9774534067  LPSA35    29             21.0000000000
     38670      1253  ARHM      C5             41.9182206361      -42.1500617358      101.0398016004  LPSA35    29             21.0000000000
     38671      1253  ARHM      H5             41.6855071273      -42.3698109420       99.9645062599  LPSA35    29             21.0000000000
     38672      1253  ARHM      O5             40.9504749920      -41.3087610206      101.6482366929  LPSA35    29             21.0000000000
     38673      1253  ARHM      C2             39.6145839272      -43.1411875803      102.2564797942  LPSA35    29             21.0000000000
     38674      1253  ARHM      H2             38.7494555275      -43.7822914274      102.0247325731  LPSA35    29             21.0000000000
     38675      1253  ARHM      O2             39.9414129876      -43.1121646572      103.6384070712  LPSA35    29             21.0000000000
     38676      1253  ARHM      C3             40.5483414397      -44.0515619910      101.7475130434  LPSA35    29             21.0000000000
     38677      1253  ARHM      H3             40.3859302599      -43.9515940931      100.6843258218  LPSA35    29             21.0000000000
     38678      1253  ARHM      O3             40.3941822517      -45.3596986140      102.3654228189  LPSA35    29             21.0000000000
     38679      1253  ARHM      HO3            41.2216959028      -45.8385714084      102.2720385322  LPSA35    29             21.0000000000
     38680      1253  ARHM      C4             41.8780780593      -43.5187381105      101.8068360177  LPSA35    29             21.0000000000
     38681      1253  ARHM      H4             41.9768442707      -43.4883223589      102.9120381222  LPSA35    29             21.0000000000
     38682      1253  ARHM      O4             42.8865956107      -44.4173979262      101.3146987252  LPSA35    29             21.0000000000
     38683      1253  ARHM      HO4            42.7204262291      -44.7923543967      100.4331787833  LPSA35    29             21.0000000000
     38684      1253  ARHM      C6             43.1193011971      -41.1449607638      101.0314311548  LPSA35    29             21.0000000000
     38685      1253  ARHM      H61            42.9567305298      -40.1723950055      100.5540506987  LPSA35    29             21.0000000000
     38686      1253  ARHM      H62            43.4241411893      -40.8353079441      102.0554186398  LPSA35    29             21.0000000000
     38687      1253  ARHM      H63            43.9910000905      -41.6078434578      100.5540598318  LPSA35    29             21.0000000000
     38688      1254  ARHM      C1             38.8832405779      -42.7538283586      104.3660455227  LPSA35    30             22.0000000000
     38689      1254  ARHM      H1             38.2645233101      -43.5618988419      104.0879382023  LPSA35    30             22.0000000000
     38690      1254  ARHM      C5             38.7016904683      -40.4487485004      104.4554171243  LPSA35    30             22.0000000000
     38691      1254  ARHM      H5             39.6024439256      -40.4364418622      103.8658928004  LPSA35    30             22.0000000000
     38692      1254  ARHM      O5             38.1604333632      -41.5868209178      103.9613581975  LPSA35    30             22.0000000000
     38693      1254  ARHM      C2             39.0030368592      -42.9235889778      105.8817277201  LPSA35    30             22.0000000000
     38694      1254  ARHM      H2             39.6795003835      -43.7679103137      106.0462888770  LPSA35    30             22.0000000000
     38695      1254  ARHM      O2             37.8818038903      -43.0775535726      106.7419907841  LPSA35    30             22.0000000000
     38696      1254  ARHM      C3             39.6311411309      -41.6732744308      106.3537542358  LPSA35    30             22.0000000000
     38697      1254  ARHM      H3             40.5364505610      -41.7495464032      105.8288234989  LPSA35    30             22.0000000000
     38698      1254  ARHM      O3             40.2132525402      -41.5925225587      107.6359005296  LPSA35    30             22.0000000000
     38699      1254  ARHM      C4             38.8258716813      -40.4785847189      105.9494661123  LPSA35    30             22.0000000000
     38700      1254  ARHM      H4             37.8559627482      -40.5241056791      106.4984234649  LPSA35    30             22.0000000000
     38701      1254  ARHM      O4             39.4712569642      -39.2739690506      106.3200409479  LPSA35    30             22.0000000000
     38702      1254  ARHM      HO4            40.1903232355      -39.0581320372      105.7143127591  LPSA35    30             22.0000000000
     38703      1254  ARHM      C6             37.7970235540      -39.3055104098      104.0188598935  LPSA35    30             22.0000000000
     38704      1254  ARHM      H61            38.4384972893      -38.4287053866      104.1795521403  LPSA35    30             22.0000000000
     38705      1254  ARHM      H62            37.5499533754      -39.3658516788      102.9465442605  LPSA35    30             22.0000000000
     38706      1254  ARHM      H63            36.8508159054      -39.2174977720      104.6130266365  LPSA35    30             22.0000000000
     38707      1255  BMANNA    C1             37.0334564725      -44.2222856783      106.7320808700  LPSA35    31             23.0000000000
     38708      1255  BMANNA    H1             37.6090683651      -45.1423740038      106.7648325704  LPSA35    31             23.0000000000
     38709      1255  BMANNA    C5             35.7539700797      -46.0291574776      105.9333592227  LPSA35    31             23.0000000000
     38710      1255  BMANNA    H5             36.5279426425      -46.7193093154      106.2062422890  LPSA35    31             23.0000000000
     38711      1255  BMANNA    O5             36.3187970160      -44.7972870904      105.6339743326  LPSA35    31             23.0000000000
     38712      1255  BMANNA    C2             36.1412768919      -43.8313400858      107.8412058393  LPSA35    31             23.0000000000
     38713      1255  BMANNA    H2             36.7682412069      -43.6339356481      108.6800819398  LPSA35    31             23.0000000000
     38714      1255  BMANNA    N              35.2214886858      -42.7017299812      107.6602255772  LPSA35    31             23.0000000000
     38715      1255  BMANNA    HN             35.1704246007      -42.5006953427      106.6793290976  LPSA35    31             23.0000000000
     38716      1255  BMANNA    C              34.5002208911      -41.9846943475      108.6440079983  LPSA35    31             23.0000000000
     38717      1255  BMANNA    O              34.4918000226      -42.2159180252      109.8495079946  LPSA35    31             23.0000000000
     38718      1255  BMANNA    CT             33.7712367587      -40.8502162266      108.2397916012  LPSA35    31             23.0000000000
     38719      1255  BMANNA    HT1            33.1261279701      -41.3047222885      107.4702422681  LPSA35    31             23.0000000000
     38720      1255  BMANNA    HT2            34.5128663516      -40.1234715386      107.8660478527  LPSA35    31             23.0000000000
     38721      1255  BMANNA    HT3            33.2318219211      -40.5174940219      109.1679163454  LPSA35    31             23.0000000000
     38722      1255  BMANNA    C3             35.5923023603      -44.9684827591      108.1765867086  LPSA35    31             23.0000000000
     38723      1255  BMANNA    H3             36.3836152027      -45.8066473826      107.9468875460  LPSA35    31             23.0000000000
     38724      1255  BMANNA    O3             34.8320767836      -44.7227413019      109.4386803739  LPSA35    31             23.0000000000
     38725      1255  BMANNA    HO3            35.3410423625      -44.2527980445      110.1245424877  LPSA35    31             23.0000000000
     38726      1255  BMANNA    C4             34.9830391460      -45.5742624411      107.2005877951  LPSA35    31             23.0000000000
     38727      1255  BMANNA    H4             34.0674956059      -45.3820185739      107.3799638176  LPSA35    31             23.0000000000
     38728      1255  BMANNA    O4             34.3854487251      -46.5713899231      107.8224834556  LPSA35    31             23.0000000000
     38729      1255  BMANNA    HO4            34.8571035401      -47.0736704562      108.5108864977  LPSA35    31             23.0000000000
     38730      1255  BMANNA    C6             35.0908980739      -46.6886478823      104.6297192335  LPSA35    31             23.0000000000
     38731      1255  BMANNA    H61            34.7162769297      -47.6408604918      105.0409027334  LPSA35    31             23.0000000000
     38732      1255  BMANNA    H62            34.2625891638      -46.2635106407      104.0691797389  LPSA35    31             23.0000000000
     38733      1255  BMANNA    O6             35.6602276647      -46.8465614349      103.3771055921  LPSA35    31             23.0000000000
     38734      1255  BMANNA    HO6            36.5263585756      -47.2593829199      103.5212270097  LPSA35    31             23.0000000000
     38735      1256  BGLCNA    C1             39.4673627899      -41.5065108852      108.7670282991  LPSA35    32             23.0000000000
     38736      1256  BGLCNA    H1             38.5672977617      -41.9048489805      108.3915849843  LPSA35    32             23.0000000000
     38737      1256  BGLCNA    C5             38.5409612177      -39.6895384397      109.9798389459  LPSA35    32             23.0000000000
     38738      1256  BGLCNA    H5             37.5349433890      -39.7100709059      109.6222953494  LPSA35    32             23.0000000000
     38739      1256  BGLCNA    O5             39.4684612403      -40.1092119496      108.9948155225  LPSA35    32             23.0000000000
     38740      1256  BGLCNA    C2             39.9066662679      -42.2459555731      110.1105008653  LPSA35    32             23.0000000000
     38741      1256  BGLCNA    H2             40.7497181631      -41.7273432560      110.4988738044  LPSA35    32             23.0000000000
     38742      1256  BGLCNA    N              40.2347473293      -43.6959652473      110.0774216799  LPSA35    32             23.0000000000
     38743      1256  BGLCNA    HN             39.6460625421      -44.1181888765      109.4001975041  LPSA35    32             23.0000000000
     38744      1256  BGLCNA    C              41.0054078746      -44.7248370284      110.3770213288  LPSA35    32             23.0000000000
     38745      1256  BGLCNA    O              41.9969927814      -44.4244068828      110.9140261754  LPSA35    32             23.0000000000
     38746      1256  BGLCNA    CT             40.7411839103      -46.1389006241      109.7930078538  LPSA35    32             23.0000000000
     38747      1256  BGLCNA    HT1            40.4286040127      -46.0586084128      108.7356356208  LPSA35    32             23.0000000000
     38748      1256  BGLCNA    HT2            40.2511812180      -46.8722121988      110.4082810857  LPSA35    32             23.0000000000
     38749      1256  BGLCNA    HT3            41.6354313448      -46.7708219932      109.6906881605  LPSA35    32             23.0000000000
     38750      1256  BGLCNA    C3             38.8791044284      -41.8352068986      111.1242802602  LPSA35    32             23.0000000000
     38751      1256  BGLCNA    H3             37.9634863702      -42.0798586743      110.8372663584  LPSA35    32             23.0000000000
     38752      1256  BGLCNA    O3             38.7908323032      -42.4758293823      112.3524447274  LPSA35    32             23.0000000000
     38753      1256  BGLCNA    C4             38.8685979131      -40.3885381142      111.2615315809  LPSA35    32             23.0000000000
     38754      1256  BGLCNA    H4             39.8981134194      -40.1472106868      111.5791189801  LPSA35    32             23.0000000000
     38755      1256  BGLCNA    O4             37.9233162584      -40.0945956216      112.2592657591  LPSA35    32             23.0000000000
     38756      1256  BGLCNA    HO4            38.3910764844      -40.2343367248      113.0829732500  LPSA35    32             23.0000000000
     38757      1256  BGLCNA    C6             38.3390467512      -38.2333748434      110.0631442223  LPSA35    32             23.0000000000
     38758      1256  BGLCNA    H61            37.4507508086      -38.0268665417      110.7225987686  LPSA35    32             23.0000000000
     38759      1256  BGLCNA    H62            39.2503641841      -37.8391621405      110.5090974818  LPSA35    32             23.0000000000
     38760      1256  BGLCNA    O6             38.0963298734      -37.7088877473      108.7488866496  LPSA35    32             23.0000000000
     38761      1256  BGLCNA    HO6            37.4700939779      -38.2744172732      108.2781938107  LPSA35    32             23.0000000000
     38762      1257  AGAL      C1             37.8382221829      -43.3101547841      112.9546099864  LPSA35    33             24.0000000000
     38763      1257  AGAL      H1             37.2231696091      -42.5252052251      112.7646286346  LPSA35    33             24.0000000000
     38764      1257  AGAL      C5             38.1021804609      -45.6734290302      112.4898108802  LPSA35    33             24.0000000000
     38765      1257  AGAL      H5             39.0812164823      -45.2998363029      112.0504168630  LPSA35    33             24.0000000000
     38766      1257  AGAL      O5             37.2648503790      -44.4822451200      112.4406175492  LPSA35    33             24.0000000000
     38767      1257  AGAL      C2             38.0967201992      -43.7683908386      114.2475541058  LPSA35    33             24.0000000000
     38768      1257  AGAL      H2             37.1296374220      -44.1393862203      114.6381748378  LPSA35    33             24.0000000000
     38769      1257  AGAL      O2             38.4810124192      -42.4968580788      114.7017847908  LPSA35    33             24.0000000000
     38770      1257  AGAL      C3             38.9453592489      -45.0439617063      114.2896145131  LPSA35    33             24.0000000000
     38771      1257  AGAL      H3             39.8733386624      -45.1265802252      113.8186209167  LPSA35    33             24.0000000000
     38772      1257  AGAL      O3             39.4083784405      -45.5587061400      115.4038264270  LPSA35    33             24.0000000000
     38773      1257  AGAL      HO3            38.8306371990      -45.4195086675      116.1658735274  LPSA35    33             24.0000000000
     38774      1257  AGAL      C4             38.3810681867      -46.1599847043      113.7561951482  LPSA35    33             24.0000000000
     38775      1257  AGAL      H4             39.1642091009      -46.9831414981      113.6725023219  LPSA35    33             24.0000000000
     38776      1257  AGAL      O4             37.2771125836      -46.6976455503      114.4503328913  LPSA35    33             24.0000000000
     38777      1257  AGAL      HO4            36.7399638264      -46.0085482378      114.8470914327  LPSA35    33             24.0000000000
     38778      1257  AGAL      C6             37.9964960804      -46.8851666359      111.7435038270  LPSA35    33             24.0000000000
     38779      1257  AGAL      H61            38.4571824011      -46.5744521718      110.7600436717  LPSA35    33             24.0000000000
     38780      1257  AGAL      H62            38.7896459573      -47.5819032831      111.9359668368  LPSA35    33             24.0000000000
     38781      1257  AGAL      O6             36.7197268933      -47.5987620290      111.6981382625  LPSA35    33             24.0000000000
     38782      1257  AGAL      HO6            36.0779651984      -47.0828722545      111.1139419901  LPSA35    33             24.0000000000
     38783      1258  ARHM      C1             37.6631426752      -42.2189395400      115.7166736543  LPSA35    34             25.0000000000
     38784      1258  ARHM      H1             37.4819944914      -43.1608454329      116.4127345993  LPSA35    34             25.0000000000
     38785      1258  ARHM      C5             35.9083196449      -40.7681311998      114.7447562565  LPSA35    34             25.0000000000
     38786      1258  ARHM      H5             36.4269688868      -40.7450585374      113.8480325155  LPSA35    34             25.0000000000
     38787      1258  ARHM      O5             36.2201306926      -42.0896935601      115.3610444842  LPSA35    34             25.0000000000
     38788      1258  ARHM      C2             38.4500454498      -41.0872062860      116.7066474036  LPSA35    34             25.0000000000
     38789      1258  ARHM      H2             39.5788717314      -41.1205427838      116.6623493239  LPSA35    34             25.0000000000
     38790      1258  ARHM      O2             38.2529096436      -40.9110699722      118.1599238244  LPSA35    34             25.0000000000
     38791      1258  ARHM      C3             37.9812666111      -39.7297791701      115.8655226477  LPSA35    34             25.0000000000
     38792      1258  ARHM      H3             38.4153357225      -39.8238041746      114.8829976046  LPSA35    34             25.0000000000
     38793      1258  ARHM      O3             38.4912024302      -38.5904006552      116.5504703319  LPSA35    34             25.0000000000
     38794      1258  ARHM      HO3            38.7366826425      -37.8875999523      115.9448275680  LPSA35    34             25.0000000000
     38795      1258  ARHM      C4             36.3552794911      -39.4309006544      115.5618042093  LPSA35    34             25.0000000000
     38796      1258  ARHM      H4             35.6870824023      -39.1668244899      116.4337086213  LPSA35    34             25.0000000000
     38797      1258  ARHM      O4             36.0061424871      -38.2384134172      114.9209539816  LPSA35    34             25.0000000000
     38798      1258  ARHM      HO4            36.1424854822      -37.5392784565      115.5689992512  LPSA35    34             25.0000000000
     38799      1258  ARHM      C6             34.2962940795      -40.7237316613      114.7337116199  LPSA35    34             25.0000000000
     38800      1258  ARHM      H61            33.7466545462      -40.6957913867      115.7127423321  LPSA35    34             25.0000000000
     38801      1258  ARHM      H62            33.9916428097      -39.7540732577      114.3054725127  LPSA35    34             25.0000000000
     38802      1258  ARHM      H63            33.7723126527      -41.5481570151      114.1806771950  LPSA35    34             25.0000000000
     38803      1259  ARHM      C1             37.5580860318      -41.7661526760      119.0611593948  LPSA35    35             26.0000000000
     38804      1259  ARHM      H1             38.1757258000      -42.6606516300      118.8974394706  LPSA35    35             26.0000000000
     38805      1259  ARHM      C5             35.2839984840      -42.2606732430      119.2940666161  LPSA35    35             26.0000000000
     38806      1259  ARHM      H5             34.8993002992      -41.3688748162      118.8097460858  LPSA35    35             26.0000000000
     38807      1259  ARHM      O5             36.5574629062      -42.7674834738      118.8051167998  LPSA35    35             26.0000000000
     38808      1259  ARHM      C2             37.6114406793      -41.3138205773      120.5092455198  LPSA35    35             26.0000000000
     38809      1259  ARHM      H2             38.0962725239      -40.3859604250      120.8858124719  LPSA35    35             26.0000000000
     38810      1259  ARHM      O2             38.3110086596      -42.4446707515      120.9928920514  LPSA35    35             26.0000000000
     38811      1259  ARHM      C3             36.3280208180      -40.7594401974      120.9236979520  LPSA35    35             26.0000000000
     38812      1259  ARHM      H3             36.1619487857      -39.9196710682      120.1774839455  LPSA35    35             26.0000000000
     38813      1259  ARHM      O3             36.3776934108      -40.2350516028      122.2609949179  LPSA35    35             26.0000000000
     38814      1259  ARHM      HO3            36.9301793885      -40.8235568846      122.7881989533  LPSA35    35             26.0000000000
     38815      1259  ARHM      C4             35.3350640060      -41.7745914625      120.7388324055  LPSA35    35             26.0000000000
     38816      1259  ARHM      H4             35.4319805849      -42.4980928953      121.5415750356  LPSA35    35             26.0000000000
     38817      1259  ARHM      O4             34.1953032380      -41.0755892521      121.0192736623  LPSA35    35             26.0000000000
     38818      1259  ARHM      HO4            34.1240706974      -40.3026242380      120.4625275128  LPSA35    35             26.0000000000
     38819      1259  ARHM      C6             34.3021843630      -43.4912355643      119.1832826504  LPSA35    35             26.0000000000
     38820      1259  ARHM      H61            34.4956821700      -44.0767751969      118.2890199694  LPSA35    35             26.0000000000
     38821      1259  ARHM      H62            34.4798551264      -44.4443004101      119.7010616807  LPSA35    35             26.0000000000
     38822      1259  ARHM      H63            33.2476150226      -43.1500219917      119.1459397251  LPSA35    35             26.0000000000
     38823      1260  BMANNA    C1             39.5583899731      -42.9884988224      121.3813409965  LPSA35    36             27.0000000000
     38824      1260  BMANNA    H1             40.4128151199      -42.3188953725      121.3506113312  LPSA35    36             27.0000000000
     38825      1260  BMANNA    C5             41.1005906257      -44.4923374706      120.5112739782  LPSA35    36             27.0000000000
     38826      1260  BMANNA    H5             41.6311069760      -43.6156847809      120.5063702519  LPSA35    36             27.0000000000
     38827      1260  BMANNA    O5             39.8086177512      -43.9883714367      120.4138801327  LPSA35    36             27.0000000000
     38828      1260  BMANNA    C2             39.7496225092      -43.4858865539      122.9113460077  LPSA35    36             27.0000000000
     38829      1260  BMANNA    H2             39.5377952311      -42.5626667362      123.5146083990  LPSA35    36             27.0000000000
     38830      1260  BMANNA    N              38.9870751010      -44.6437356167      123.6311038920  LPSA35    36             27.0000000000
     38831      1260  BMANNA    HN             38.4257070761      -45.2413139357      123.0194784088  LPSA35    36             27.0000000000
     38832      1260  BMANNA    C              38.5842320837      -44.7572967207      124.9135521604  LPSA35    36             27.0000000000
     38833      1260  BMANNA    O              38.8859874829      -43.8906534804      125.7075975859  LPSA35    36             27.0000000000
     38834      1260  BMANNA    CT             37.6949240734      -45.9226687545      125.2961450345  LPSA35    36             27.0000000000
     38835      1260  BMANNA    HT1            38.0587837621      -46.8850175051      124.9600954138  LPSA35    36             27.0000000000
     38836      1260  BMANNA    HT2            36.5960763341      -45.7018006555      125.1383844933  LPSA35    36             27.0000000000
     38837      1260  BMANNA    HT3            37.8373845821      -46.3255489262      126.2987914715  LPSA35    36             27.0000000000
     38838      1260  BMANNA    C3             41.1691768695      -43.7850461415      122.9448148182  LPSA35    36             27.0000000000
     38839      1260  BMANNA    H3             41.8091884465      -42.9399558532      122.6079782870  LPSA35    36             27.0000000000
     38840      1260  BMANNA    O3             41.2830544273      -43.8500010099      124.3812574706  LPSA35    36             27.0000000000
     38841      1260  BMANNA    HO3            42.1347659819      -43.7638083899      124.8202999450  LPSA35    36             27.0000000000
     38842      1260  BMANNA    C4             41.4130014008      -44.9343101111      121.8628435234  LPSA35    36             27.0000000000
     38843      1260  BMANNA    H4             41.0543312797      -45.9319656858      121.8735727870  LPSA35    36             27.0000000000
     38844      1260  BMANNA    O4             42.7019536135      -45.3025494571      121.9856113656  LPSA35    36             27.0000000000
     38845      1260  BMANNA    HO4            42.6097305238      -45.5569494239      122.9158248493  LPSA35    36             27.0000000000
     38846      1260  BMANNA    C6             41.1667169543      -45.7777081804      119.5561425056  LPSA35    36             27.0000000000
     38847      1260  BMANNA    H61            40.8824048088      -45.5358234416      118.5246787739  LPSA35    36             27.0000000000
     38848      1260  BMANNA    H62            42.1437503863      -46.1338043650      119.5595611141  LPSA35    36             27.0000000000
     38849      1260  BMANNA    O6             40.5996782362      -47.0737541693      119.8919296579  LPSA35    36             27.0000000000
     38850      1260  BMANNA    HO6            41.0360431520      -47.5552546479      120.6272380393  LPSA35    36             27.0000000000
     38851      1261  PVPG      C13             3.2133158435        1.2454419961      -19.6369568084  MEMB      1               0.0000000000
     38852      1261  PVPG      H13A            3.2577112392        2.3396529906      -19.4108140126  MEMB      1               0.0000000000
     38853      1261  PVPG      H13B            3.6682909270        0.6812743345      -18.8006344907  MEMB      1               0.0000000000
     38854      1261  PVPG      OC3             3.9235333210        0.9268087072      -20.8527301198  MEMB      1               0.0000000000
     38855      1261  PVPG      HO3             3.2873397759        0.4770179322      -21.4150338561  MEMB      1               0.0000000000
     38856      1261  PVPG      C12             1.7211030392        0.8204346864      -19.6245268898  MEMB      1               0.0000000000
     38857      1261  PVPG      H12A            1.1662096771        1.4265865523      -20.3629539050  MEMB      1               0.0000000000
     38858      1261  PVPG      OC2             1.1326372191        1.1217757290      -18.3588494892  MEMB      1               0.0000000000
     38859      1261  PVPG      HO2             0.4140995420        0.4966983365      -18.2624458467  MEMB      1               0.0000000000
     38860      1261  PVPG      C11             1.5044954947       -0.6709631776      -19.9509257596  MEMB      1               0.0000000000
     38861      1261  PVPG      H11A            1.8975710094       -0.9194173395      -20.9591058699  MEMB      1               0.0000000000
     38862      1261  PVPG      H11B            0.4036365975       -0.8309965218      -19.9425335916  MEMB      1               0.0000000000
     38863      1261  PVPG      P               1.5067627862       -2.7482160831      -18.3618062233  MEMB      1               0.0000000000
     38864      1261  PVPG      O13             1.2712934038       -3.7822118014      -19.3977211173  MEMB      1               0.0000000000
     38865      1261  PVPG      O14             0.3345934182       -2.3462593678      -17.5598498812  MEMB      1               0.0000000000
     38866      1261  PVPG      O12             2.1803289958       -1.4736030868      -19.0005544961  MEMB      1               0.0000000000
     38867      1261  PVPG      O11             2.6373586183       -3.2186667235      -17.4366997365  MEMB      1               0.0000000000
     38868      1261  PVPG      C1              3.8941706218       -3.3149864651      -18.1086665374  MEMB      1               0.0000000000
     38869      1261  PVPG      HA              4.3129556382       -2.2723648716      -18.3701253938  MEMB      1               0.0000000000
     38870      1261  PVPG      HB              3.9450240806       -4.0147970944      -18.9419800006  MEMB      1               0.0000000000
     38871      1261  PVPG      C2              4.8072577052       -4.0530264894      -17.2091384384  MEMB      1               0.0000000000
     38872      1261  PVPG      HS              5.6820164353       -4.5645116657      -17.7628042235  MEMB      1               0.0000000000
     38873      1261  PVPG      O21             4.2929275626       -4.7395989960      -16.1156209244  MEMB      1               0.0000000000
     38874      1261  PVPG      C21             4.1516312455       -5.9208920903      -16.3527496996  MEMB      1               0.0000000000
     38875      1261  PVPG      O22             4.7018692699       -6.5764672397      -17.2327474597  MEMB      1               0.0000000000
     38876      1261  PVPG      C22             3.2427676318       -6.3975036284      -15.2477599326  MEMB      1               0.0000000000
     38877      1261  PVPG      H2R             2.9716576567       -7.4228909539      -15.5256508519  MEMB      1               0.0000000000
     38878      1261  PVPG      H2S             2.3394347006       -5.7462176278      -15.2298380798  MEMB      1               0.0000000000
     38879      1261  PVPG      C3              5.3413883735       -3.0307297494      -16.7457231461  MEMB      1               0.0000000000
     38880      1261  PVPG      HX              6.4192887106       -3.5054711908      -16.4420947936  MEMB      1               0.0000000000
     38881      1261  PVPG      HY              6.1443236272       -2.5829125555      -17.3139122227  MEMB      1               0.0000000000
     38882      1261  PVPG      O31             4.2159397952       -2.1351691934      -15.8623594678  MEMB      1               0.0000000000
     38883      1261  PVPG      C31             3.8432061600       -0.6341555386      -15.7923305802  MEMB      1               0.0000000000
     38884      1261  PVPG      O32             4.0589090446        0.2076964516      -16.5997301372  MEMB      1               0.0000000000
     38885      1261  PVPG      C32             3.6629932588       -0.0687337155      -14.4351299375  MEMB      1               0.0000000000
     38886      1261  PVPG      H2X             4.0342493950        1.0184340042      -14.4544280756  MEMB      1               0.0000000000
     38887      1261  PVPG      H2Y             4.2227036160       -0.6668840462      -13.6936724316  MEMB      1               0.0000000000
     38888      1261  PVPG      C23             3.9187896190       -6.2876430128      -13.8783634765  MEMB      1               0.0000000000
     38889      1261  PVPG      H3R             4.3155399217       -5.3242361823      -13.7093801537  MEMB      1               0.0000000000
     38890      1261  PVPG      H3S             4.7061133442       -7.0569934895      -13.7238197694  MEMB      1               0.0000000000
     38891      1261  PVPG      C24             2.9975263533       -6.0601114160      -12.7098855652  MEMB      1               0.0000000000
     38892      1261  PVPG      H4R             2.9334304365       -7.0629958126      -12.6392092642  MEMB      1               0.0000000000
     38893      1261  PVPG      H4S             1.9945563764       -5.6218849116      -12.8567746451  MEMB      1               0.0000000000
     38894      1261  PVPG      C25             3.5676403634       -6.0235765718      -11.3168703691  MEMB      1               0.0000000000
     38895      1261  PVPG      H5R             2.7602441822       -6.1723291052      -10.6183011781  MEMB      1               0.0000000000
     38896      1261  PVPG      H5S             3.6412716594       -4.9675257762      -11.2382162315  MEMB      1               0.0000000000
     38897      1261  PVPG      C26             4.8332629378       -6.9170690515      -11.1166849211  MEMB      1               0.0000000000
     38898      1261  PVPG      H6R             5.6188539961       -6.5477831803      -11.7974342332  MEMB      1               0.0000000000
     38899      1261  PVPG      H6S             4.6438047363       -7.9909344937      -11.3275633452  MEMB      1               0.0000000000
     38900      1261  PVPG      C27             5.4596754711       -6.9008092943       -9.7423753526  MEMB      1               0.0000000000
     38901      1261  PVPG      H7R             5.3686414616       -5.8437884457       -9.3853261276  MEMB      1               0.0000000000
     38902      1261  PVPG      H7S             6.4928629630       -7.2239929712       -9.5669305154  MEMB      1               0.0000000000
     38903      1261  PVPG      C28             4.7869114954       -7.9267673598       -8.9006861673  MEMB      1               0.0000000000
     38904      1261  PVPG      H8R             4.9864213775       -8.9848256065       -8.7039203491  MEMB      1               0.0000000000
     38905      1261  PVPG      H8S             3.7435236070       -7.9413809007       -9.2665000162  MEMB      1               0.0000000000
     38906      1261  PVPG      C29             4.8368084009       -7.4489970653       -7.5311740633  MEMB      1               0.0000000000
     38907      1261  PVPG      H9R             4.3245949457       -8.2253931344       -6.9423815830  MEMB      1               0.0000000000
     38908      1261  PVPG      H9S             4.3712738386       -6.4967367440       -7.9690672264  MEMB      1               0.0000000000
     38909      1261  PVPG      C210            5.6170669921       -6.7302841302       -6.4843897318  MEMB      1               0.0000000000
     38910      1261  PVPG      H10R            5.0310211341       -6.1694065679       -5.7177740034  MEMB      1               0.0000000000
     38911      1261  PVPG      H10S            6.1768190093       -6.0032457872       -7.0589447438  MEMB      1               0.0000000000
     38912      1261  PVPG      C211            6.1898282898       -7.7682211545       -5.6278997636  MEMB      1               0.0000000000
     38913      1261  PVPG      H111            5.4802205412       -8.4478528412       -5.1164178467  MEMB      1               0.0000000000
     38914      1261  PVPG      C212            7.4624758984       -7.7532403605       -5.4184920688  MEMB      1               0.0000000000
     38915      1261  PVPG      H121            7.9128744164       -8.5652023464       -4.8617208711  MEMB      1               0.0000000000
     38916      1261  PVPG      C213            8.3737416199       -6.7284288444       -5.9974716701  MEMB      1               0.0000000000
     38917      1261  PVPG      H13R            7.9841196798       -5.9067188460       -6.6337592940  MEMB      1               0.0000000000
     38918      1261  PVPG      H13S            9.2379056585       -7.1943587075       -6.5081920095  MEMB      1               0.0000000000
     38919      1261  PVPG      C214            8.9941035222       -6.1344908445       -4.8098185511  MEMB      1               0.0000000000
     38920      1261  PVPG      H14R            9.7083918202       -5.4854591676       -5.3168418297  MEMB      1               0.0000000000
     38921      1261  PVPG      H14S            9.4881054399       -7.0264695000       -4.4087394788  MEMB      1               0.0000000000
     38922      1261  PVPG      C215            8.2109931814       -5.5189911784       -3.6604044626  MEMB      1               0.0000000000
     38923      1261  PVPG      H15R            8.7344904607       -5.0329900422       -2.7819047707  MEMB      1               0.0000000000
     38924      1261  PVPG      H15S            7.4262030956       -6.1885478661       -3.2927222640  MEMB      1               0.0000000000
     38925      1261  PVPG      C216            7.4535584026       -4.4823494807       -4.2848408704  MEMB      1               0.0000000000
     38926      1261  PVPG      H16R            7.1189100412       -4.7325304940       -5.2824639752  MEMB      1               0.0000000000
     38927      1261  PVPG      H16S            8.2547674675       -3.7034990075       -4.5324460673  MEMB      1               0.0000000000
     38928      1261  PVPG      C217            6.2071613904       -4.0986767803       -3.3869723707  MEMB      1               0.0000000000
     38929      1261  PVPG      H17R            5.7287398568       -3.1382592930       -3.2308921778  MEMB      1               0.0000000000
     38930      1261  PVPG      H17S            7.1192885072       -3.8143044059       -3.0170884401  MEMB      1               0.0000000000
     38931      1261  PVPG      C218            5.2626902439       -4.5847720162       -2.3939508719  MEMB      1               0.0000000000
     38932      1261  PVPG      H18R            5.9354674711       -5.0622249315       -1.6770813100  MEMB      1               0.0000000000
     38933      1261  PVPG      H18S            4.6990026494       -3.7090879890       -1.9066772808  MEMB      1               0.0000000000
     38934      1261  PVPG      H18T            4.6471540308       -5.0552385173       -3.1902473687  MEMB      1               0.0000000000
     38935      1261  PVPG      C33             2.2492805848       -0.4330265959      -14.6480532346  MEMB      1               0.0000000000
     38936      1261  PVPG      H3X             2.0930440393       -1.5418875697      -14.9126100288  MEMB      1               0.0000000000
     38937      1261  PVPG      H3Y             1.7546346102        0.1969379223      -15.4633418644  MEMB      1               0.0000000000
     38938      1261  PVPG      C34             1.6348339470       -0.2640897718      -13.3130557621  MEMB      1               0.0000000000
     38939      1261  PVPG      H4X             0.5764422039       -0.4415385918      -13.5586688178  MEMB      1               0.0000000000
     38940      1261  PVPG      H4Y             1.8078124637        0.7933164098      -13.0276021461  MEMB      1               0.0000000000
     38941      1261  PVPG      C35             2.2350537056       -1.1594090537      -12.2044494597  MEMB      1               0.0000000000
     38942      1261  PVPG      H5X             3.1904906053       -0.7080893685      -11.8403524320  MEMB      1               0.0000000000
     38943      1261  PVPG      H5Y             2.5014940888       -2.1653393559      -12.6045715787  MEMB      1               0.0000000000
     38944      1261  PVPG      C36             1.2844879104       -1.3245227706      -11.0145893557  MEMB      1               0.0000000000
     38945      1261  PVPG      H6X             0.3787746641       -1.8878123057      -11.3325278023  MEMB      1               0.0000000000
     38946      1261  PVPG      H6Y             0.9673184628       -0.3238815484      -10.6489395344  MEMB      1               0.0000000000
     38947      1261  PVPG      C37             1.9175874018       -2.0341459537       -9.8227434208  MEMB      1               0.0000000000
     38948      1261  PVPG      H7X             2.5670010385       -1.3208039211       -9.2768843889  MEMB      1               0.0000000000
     38949      1261  PVPG      H7Y             2.5611677136       -2.8675631731      -10.1827292360  MEMB      1               0.0000000000
     38950      1261  PVPG      C38             0.8809969005       -2.5677458263       -8.8388094901  MEMB      1               0.0000000000
     38951      1261  PVPG      H8X             0.0249762510       -3.0063852107       -9.3751560684  MEMB      1               0.0000000000
     38952      1261  PVPG      H8Y             0.5635885874       -1.8554541779       -8.0610581685  MEMB      1               0.0000000000
     38953      1261  PVPG      C39             1.4557143993       -3.7025817574       -8.1163760803  MEMB      1               0.0000000000
     38954      1261  PVPG      H9X             2.4431014437       -3.4653632249       -7.6633159267  MEMB      1               0.0000000000
     38955      1261  PVPG      H9Y             1.6412635535       -4.3858996824       -9.0042187976  MEMB      1               0.0000000000
     38956      1261  PVPG      C310            0.5694563914       -4.3876241374       -7.0552849568  MEMB      1               0.0000000000
     38957      1261  PVPG      H10X            1.1733149001       -5.0733050850       -6.4944167411  MEMB      1               0.0000000000
     38958      1261  PVPG      H10Y           -0.2105070596       -5.0377382931       -7.4812761966  MEMB      1               0.0000000000
     38959      1261  PVPG      C311            0.1618395607       -3.6939742077       -5.7928817960  MEMB      1               0.0000000000
     38960      1261  PVPG      H11X           -0.2431546346       -4.4806934162       -5.1055854066  MEMB      1               0.0000000000
     38961      1261  PVPG      H11Y           -0.6787416754       -3.0532895767       -6.0906364754  MEMB      1               0.0000000000
     38962      1261  PVPG      C312            1.3034032879       -2.9906270546       -5.0622304177  MEMB      1               0.0000000000
     38963      1261  PVPG      H12X            2.1283768444       -2.6259390565       -5.7164556906  MEMB      1               0.0000000000
     38964      1261  PVPG      H12Y            1.7773007995       -3.6898774117       -4.3358452257  MEMB      1               0.0000000000
     38965      1261  PVPG      C313            0.7289836690       -1.7731470377       -4.3686546375  MEMB      1               0.0000000000
     38966      1261  PVPG      H13X           -0.1193137100       -2.0516931034       -3.7028540510  MEMB      1               0.0000000000
     38967      1261  PVPG      H13Y            0.3331254315       -1.1015583536       -5.1615772619  MEMB      1               0.0000000000
     38968      1261  PVPG      C314            1.7832178482       -1.0695467228       -3.5473386445  MEMB      1               0.0000000000
     38969      1261  PVPG      H14X            1.6442343901        0.0310643752       -3.6686209693  MEMB      1               0.0000000000
     38970      1261  PVPG      H14Y            2.8001007240       -1.3182876977       -3.9286575863  MEMB      1               0.0000000000
     38971      1261  PVPG      C315            1.6183358101       -1.4800022556       -2.0817840257  MEMB      1               0.0000000000
     38972      1261  PVPG      H15X            0.5682393964       -1.4031718045       -1.7456178930  MEMB      1               0.0000000000
     38973      1261  PVPG      H15Y            2.0934414093       -0.6895218364       -1.5277131719  MEMB      1               0.0000000000
     38974      1261  PVPG      C316            2.2600205805       -2.8097860476       -1.6822455242  MEMB      1               0.0000000000
     38975      1261  PVPG      H16X            2.9406546925       -2.7003233934       -0.8100260908  MEMB      1               0.0000000000
     38976      1261  PVPG      H16Y            1.5217294107       -3.5968677865       -1.4317915615  MEMB      1               0.0000000000
     38977      1261  PVPG      H16Z            2.8648109200       -3.1500796378       -2.5425908067  MEMB      1               0.0000000000
     38978      1262  PPPE      N              -1.2583373798        5.6518166530      -19.3947702130  MEMB      2               0.0000000000
     38979      1262  PPPE      HN1            -0.9853298887        6.0686282255      -18.4912011058  MEMB      2               0.0000000000
     38980      1262  PPPE      HN2            -0.4469547385        5.6542004972      -20.0596673982  MEMB      2               0.0000000000
     38981      1262  PPPE      HN3            -2.0852242342        6.1110823941      -19.8365799448  MEMB      2               0.0000000000
     38982      1262  PPPE      C12            -1.5411895719        4.1946203590      -19.2928105509  MEMB      2               0.0000000000
     38983      1262  PPPE      H12A           -0.7532809396        3.7595201339      -18.6495873106  MEMB      2               0.0000000000
     38984      1262  PPPE      H12B           -1.4048382409        3.8570916941      -20.3371689981  MEMB      2               0.0000000000
     38985      1262  PPPE      C11            -2.9325430640        3.8586439361      -18.7306065079  MEMB      2               0.0000000000
     38986      1262  PPPE      H11A           -2.9088529732        4.1270923733      -17.6484577598  MEMB      2               0.0000000000
     38987      1262  PPPE      H11B           -3.1193701616        2.7588685016      -18.8208936461  MEMB      2               0.0000000000
     38988      1262  PPPE      P              -5.4795736875        4.3702608533      -18.9890302708  MEMB      2               0.0000000000
     38989      1262  PPPE      O13            -6.3341500945        5.1018845358      -19.9312663970  MEMB      2               0.0000000000
     38990      1262  PPPE      O14            -5.7968109626        2.9479991237      -18.7307539039  MEMB      2               0.0000000000
     38991      1262  PPPE      O11            -5.4480165479        5.1455053480      -17.6324393166  MEMB      2               0.0000000000
     38992      1262  PPPE      O12            -3.9453801563        4.5818437653      -19.4169502491  MEMB      2               0.0000000000
     38993      1262  PPPE      C1             -4.9424991791        6.4661633324      -17.4739826220  MEMB      2               0.0000000000
     38994      1262  PPPE      HA             -5.8191106381        7.1507281496      -17.4524547844  MEMB      2               0.0000000000
     38995      1262  PPPE      HB             -4.2875504404        6.8022871989      -18.3128502286  MEMB      2               0.0000000000
     38996      1262  PPPE      C2             -4.1205481357        6.5270375616      -16.1508778113  MEMB      2               0.0000000000
     38997      1262  PPPE      HS             -3.1633512991        6.0061777876      -16.3224961785  MEMB      2               0.0000000000
     38998      1262  PPPE      O21            -4.8484599800        5.7949651347      -15.1662277791  MEMB      2               0.0000000000
     38999      1262  PPPE      C21            -4.2570218253        4.9457682058      -14.3134200530  MEMB      2               0.0000000000
     39000      1262  PPPE      O22            -3.0477060587        4.8889289425      -14.1917563280  MEMB      2               0.0000000000
     39001      1262  PPPE      C22            -5.2276754857        4.0033739608      -13.4916111996  MEMB      2               0.0000000000
     39002      1262  PPPE      H2R            -5.9387999578        3.4626157723      -14.1192158028  MEMB      2               0.0000000000
     39003      1262  PPPE      H2S            -6.0574071164        4.4839611813      -13.0308006532  MEMB      2               0.0000000000
     39004      1262  PPPE      C3             -3.8456213566        8.0079848968      -15.7119972034  MEMB      2               0.0000000000
     39005      1262  PPPE      HX             -3.7450743127        8.6043622009      -16.6474145578  MEMB      2               0.0000000000
     39006      1262  PPPE      HY             -4.6970927034        8.5032904018      -15.2269952188  MEMB      2               0.0000000000
     39007      1262  PPPE      O31            -2.5990907955        8.1100054621      -14.9903881848  MEMB      2               0.0000000000
     39008      1262  PPPE      C31            -2.5552982557        8.1582913833      -13.6538509127  MEMB      2               0.0000000000
     39009      1262  PPPE      O32            -3.4925059852        8.3766026756      -12.9156632520  MEMB      2               0.0000000000
     39010      1262  PPPE      C32            -1.1345084112        7.8793658839      -13.1849812577  MEMB      2               0.0000000000
     39011      1262  PPPE      H2X            -0.4033158954        8.6016584555      -13.6020696991  MEMB      2               0.0000000000
     39012      1262  PPPE      H2Y            -0.8525143341        6.8500256046      -13.4673492876  MEMB      2               0.0000000000
     39013      1262  PPPE      C23            -4.5878314797        3.1973138545      -12.2976880904  MEMB      2               0.0000000000
     39014      1262  PPPE      H3R            -3.8719213933        2.5399407780      -12.7964368794  MEMB      2               0.0000000000
     39015      1262  PPPE      H3S            -5.4002157201        2.6202042349      -11.7966175984  MEMB      2               0.0000000000
     39016      1262  PPPE      C24            -3.7771796209        3.8995312921      -11.1714358515  MEMB      2               0.0000000000
     39017      1262  PPPE      H4R            -4.4511815556        4.4462898183      -10.5676410931  MEMB      2               0.0000000000
     39018      1262  PPPE      H4S            -3.0100837574        4.6047314169      -11.5474254576  MEMB      2               0.0000000000
     39019      1262  PPPE      C25            -3.4134789764        3.1224112328       -9.9133092731  MEMB      2               0.0000000000
     39020      1262  PPPE      H5R            -2.7976562807        2.3308687576      -10.3574974382  MEMB      2               0.0000000000
     39021      1262  PPPE      H5S            -4.3105260387        2.7025199364       -9.3850750144  MEMB      2               0.0000000000
     39022      1262  PPPE      C26            -2.5785965700        3.9352590923       -8.9043663316  MEMB      2               0.0000000000
     39023      1262  PPPE      H6R            -1.8762637325        4.6023169018       -9.4540835377  MEMB      2               0.0000000000
     39024      1262  PPPE      H6S            -1.9981364232        3.1858307374       -8.3296220651  MEMB      2               0.0000000000
     39025      1262  PPPE      C27            -3.3574422724        4.7249737580       -7.8440821968  MEMB      2               0.0000000000
     39026      1262  PPPE      H7R            -4.1243463147        4.0880316566       -7.3557658252  MEMB      2               0.0000000000
     39027      1262  PPPE      H7S            -3.8286025086        5.5898003771       -8.2996583622  MEMB      2               0.0000000000
     39028      1262  PPPE      C28            -2.4951066032        5.4430145490       -6.8157652029  MEMB      2               0.0000000000
     39029      1262  PPPE      H8R            -1.6496104520        5.9174064257       -7.3561937154  MEMB      2               0.0000000000
     39030      1262  PPPE      H8S            -2.1140764787        4.6858835363       -6.1086121297  MEMB      2               0.0000000000
     39031      1262  PPPE      C29            -3.2852021268        6.5077953466       -6.1142267577  MEMB      2               0.0000000000
     39032      1262  PPPE      H91            -3.5326675435        7.4056698628       -6.7019202899  MEMB      2               0.0000000000
     39033      1262  PPPE      C210           -3.7627605411        6.3875762618       -4.8835983107  MEMB      2               0.0000000000
     39034      1262  PPPE      H101           -4.2126204791        7.2760069283       -4.4309041009  MEMB      2               0.0000000000
     39035      1262  PPPE      C211           -3.6093614756        5.2014389622       -3.9772766655  MEMB      2               0.0000000000
     39036      1262  PPPE      H11R           -3.4522530949        5.5864546661       -2.9479326018  MEMB      2               0.0000000000
     39037      1262  PPPE      H11S           -2.8042126109        4.4962199215       -4.2408197926  MEMB      2               0.0000000000
     39038      1262  PPPE      C212           -4.7555554135        4.2551028464       -3.9048842973  MEMB      2               0.0000000000
     39039      1262  PPPE      H12R           -4.4713488060        3.2252946234       -3.5886717734  MEMB      2               0.0000000000
     39040      1262  PPPE      H12S           -5.3602376949        4.2260194555       -4.8597115419  MEMB      2               0.0000000000
     39041      1262  PPPE      C213           -5.5887535915        4.7396537776       -2.7826825142  MEMB      2               0.0000000000
     39042      1262  PPPE      H13R           -6.3355920432        4.1050821630       -3.1135605941  MEMB      2               0.0000000000
     39043      1262  PPPE      H13S           -5.8842574517        5.7812627902       -2.8413464544  MEMB      2               0.0000000000
     39044      1262  PPPE      C214           -5.3564522074        4.5363207881       -1.3435064019  MEMB      2               0.0000000000
     39045      1262  PPPE      H14R           -4.7382217742        5.4087028677       -1.0636121840  MEMB      2               0.0000000000
     39046      1262  PPPE      H14S           -5.0677115051        3.5010911851       -1.1169975890  MEMB      2               0.0000000000
     39047      1262  PPPE      C215           -6.5816030354        4.7535947967       -0.5717015133  MEMB      2               0.0000000000
     39048      1262  PPPE      H15R           -7.3827312278        4.2904628581       -1.1085797779  MEMB      2               0.0000000000
     39049      1262  PPPE      H15S           -7.1561936866        5.5128524746       -1.0108704382  MEMB      2               0.0000000000
     39050      1262  PPPE      C216           -6.5029653873        4.4603905156        0.9900604124  MEMB      2               0.0000000000
     39051      1262  PPPE      H16R           -6.0540703216        3.5123226217        1.2669565553  MEMB      2               0.0000000000
     39052      1262  PPPE      H16S           -6.1141748066        5.3624943877        1.4946185742  MEMB      2               0.0000000000
     39053      1262  PPPE      H16T           -7.5071814552        4.2696713257        1.4611727346  MEMB      2               0.0000000000
     39054      1262  PPPE      C33            -1.0483717759        7.8612009125      -11.6775044209  MEMB      2               0.0000000000
     39055      1262  PPPE      H3X            -0.1305200727        7.3107766762      -11.3570209786  MEMB      2               0.0000000000
     39056      1262  PPPE      H3Y            -1.9133239457        7.3540952687      -11.1896189515  MEMB      2               0.0000000000
     39057      1262  PPPE      C34            -0.8768565212        9.2342072181      -11.1520940780  MEMB      2               0.0000000000
     39058      1262  PPPE      H4X            -1.6488078436       10.0031550936      -11.3987651855  MEMB      2               0.0000000000
     39059      1262  PPPE      H4Y             0.0997014872        9.6745689282      -11.4854999141  MEMB      2               0.0000000000
     39060      1262  PPPE      C35            -0.8609725761        9.0224809530       -9.6722230894  MEMB      2               0.0000000000
     39061      1262  PPPE      H5X            -0.5331618186       10.0243916240       -9.6177139180  MEMB      2               0.0000000000
     39062      1262  PPPE      H5Y            -0.0484920380        8.4683430184       -9.2606245065  MEMB      2               0.0000000000
     39063      1262  PPPE      C36            -2.1528582300        8.6173162258       -8.9470096223  MEMB      2               0.0000000000
     39064      1262  PPPE      H6X            -2.0583102373        8.7608865677       -7.8371356861  MEMB      2               0.0000000000
     39065      1262  PPPE      H6Y            -2.1987244503        7.5262146922       -9.0993461448  MEMB      2               0.0000000000
     39066      1262  PPPE      C37            -3.3646392185        9.4134530808       -9.4770065510  MEMB      2               0.0000000000
     39067      1262  PPPE      H7X            -3.5445647878        8.9924134003      -10.4863803382  MEMB      2               0.0000000000
     39068      1262  PPPE      H7Y            -3.3117336054       10.5176677012       -9.5284798063  MEMB      2               0.0000000000
     39069      1262  PPPE      C38            -4.6281024294        9.1333541010       -8.7383989988  MEMB      2               0.0000000000
     39070      1262  PPPE      H8X            -4.4531874567        8.0650161155       -8.7354637764  MEMB      2               0.0000000000
     39071      1262  PPPE      H8Y            -5.5202810669        9.4453795754       -9.3424138191  MEMB      2               0.0000000000
     39072      1262  PPPE      C39            -4.7918090353        9.6954066011       -7.3329414050  MEMB      2               0.0000000000
     39073      1262  PPPE      H9X            -4.5230602495       10.5958060144       -7.7960666328  MEMB      2               0.0000000000
     39074      1262  PPPE      H9Y            -4.1234400183        9.4214903563       -6.5036642842  MEMB      2               0.0000000000
     39075      1262  PPPE      C310           -6.2361142817        9.7689137528       -6.8381538933  MEMB      2               0.0000000000
     39076      1262  PPPE      H10X           -5.9199556889        8.8599097858       -6.4030202723  MEMB      2               0.0000000000
     39077      1262  PPPE      H10Y           -6.9556839447        9.7079754196       -7.6737272082  MEMB      2               0.0000000000
     39078      1262  PPPE      C311           -6.8640302351       10.4803466622       -5.6282165662  MEMB      2               0.0000000000
     39079      1262  PPPE      H11X           -7.9637203608       10.3358547413       -5.4976681922  MEMB      2               0.0000000000
     39080      1262  PPPE      H11Y           -6.9397160551       11.4807450984       -5.8848219396  MEMB      2               0.0000000000
     39081      1262  PPPE      C312           -5.9919332530       10.2298613344       -4.4031223220  MEMB      2               0.0000000000
     39082      1262  PPPE      H12X           -5.0053443103       10.6193348953       -4.6768729022  MEMB      2               0.0000000000
     39083      1262  PPPE      H12Y           -5.7937679410        9.2087248606       -4.0804471552  MEMB      2               0.0000000000
     39084      1262  PPPE      C313           -6.5821081512       10.6074097861       -3.0987549964  MEMB      2               0.0000000000
     39085      1262  PPPE      H13X           -7.0284250943       11.4154201844       -3.4373024128  MEMB      2               0.0000000000
     39086      1262  PPPE      H13Y           -5.8396339685       10.9074484051       -2.3368631523  MEMB      2               0.0000000000
     39087      1262  PPPE      C314           -8.0041219839       10.3025228998       -2.6659204901  MEMB      2               0.0000000000
     39088      1262  PPPE      H14X           -8.8497399495       10.3295674537       -3.3689630109  MEMB      2               0.0000000000
     39089      1262  PPPE      H14Y           -8.2445784116       11.0126684713       -1.8120475075  MEMB      2               0.0000000000
     39090      1262  PPPE      C315           -7.8719202128        8.9039385972       -2.3415212583  MEMB      2               0.0000000000
     39091      1262  PPPE      H15X           -7.5704448778        8.2739260444       -3.0996969223  MEMB      2               0.0000000000
     39092      1262  PPPE      H15Y           -8.8031713342        8.5196547099       -1.9564121854  MEMB      2               0.0000000000
     39093      1262  PPPE      C316           -6.7523029673        8.7788706177       -1.4609602678  MEMB      2               0.0000000000
     39094      1262  PPPE      H16X           -5.7093772407        9.0039822650       -1.6356376980  MEMB      2               0.0000000000
     39095      1262  PPPE      H16Y           -7.0406014467        9.6771999982       -0.8669927432  MEMB      2               0.0000000000
     39096      1262  PPPE      H16Z           -6.7434459684        7.8134559435       -0.9428088870  MEMB      2               0.0000000000
     39097      1263  PPPE      N              -2.6234592242       -5.0744746162      -19.5175593774  MEMB      3               0.0000000000
     39098      1263  PPPE      HN1            -2.1895951699       -4.2554683305      -19.0541541309  MEMB      3               0.0000000000
     39099      1263  PPPE      HN2            -3.3453629086       -5.5090067265      -18.8954845000  MEMB      3               0.0000000000
     39100      1263  PPPE      HN3            -1.8938679967       -5.7612944806      -19.8065472604  MEMB      3               0.0000000000
     39101      1263  PPPE      C12            -3.4510820734       -4.5266899966      -20.6297459729  MEMB      3               0.0000000000
     39102      1263  PPPE      H12A           -3.6535414617       -5.3405250018      -21.3020495522  MEMB      3               0.0000000000
     39103      1263  PPPE      H12B           -2.8895537494       -3.7916468455      -21.2140188574  MEMB      3               0.0000000000
     39104      1263  PPPE      C11            -4.7513067036       -4.0023319950      -20.0290999756  MEMB      3               0.0000000000
     39105      1263  PPPE      H11A           -5.4017797786       -3.6131306267      -20.8447984292  MEMB      3               0.0000000000
     39106      1263  PPPE      H11B           -4.4648953159       -3.1658850108      -19.3424385350  MEMB      3               0.0000000000
     39107      1263  PPPE      P              -6.6263513705       -4.7587682770      -18.3441380442  MEMB      3               0.0000000000
     39108      1263  PPPE      O13            -7.6024551136       -3.8570835702      -18.9931784717  MEMB      3               0.0000000000
     39109      1263  PPPE      O14            -7.1002149475       -6.0394401025      -17.7994364770  MEMB      3               0.0000000000
     39110      1263  PPPE      O11            -5.8184238797       -3.9398175846      -17.2662469364  MEMB      3               0.0000000000
     39111      1263  PPPE      O12            -5.4198140720       -5.0646857410      -19.3398010631  MEMB      3               0.0000000000
     39112      1263  PPPE      C1             -4.5920280446       -4.4601435396      -16.7566132894  MEMB      3               0.0000000000
     39113      1263  PPPE      HA             -3.7454951671       -3.9586544625      -17.2752586431  MEMB      3               0.0000000000
     39114      1263  PPPE      HB             -4.4920146224       -5.5593157980      -16.9038169622  MEMB      3               0.0000000000
     39115      1263  PPPE      C2             -4.4614094451       -4.1543719852      -15.2485510347  MEMB      3               0.0000000000
     39116      1263  PPPE      HS             -3.4851340583       -4.5770092570      -14.9014090617  MEMB      3               0.0000000000
     39117      1263  PPPE      O21            -5.6121453003       -4.6606778265      -14.5332677670  MEMB      3               0.0000000000
     39118      1263  PPPE      C21            -5.4820430233       -5.8379345702      -13.9475326283  MEMB      3               0.0000000000
     39119      1263  PPPE      O22            -4.4390551854       -6.4706609903      -13.8750207871  MEMB      3               0.0000000000
     39120      1263  PPPE      C22            -6.8177988589       -6.3145735610      -13.3283987798  MEMB      3               0.0000000000
     39121      1263  PPPE      H2R            -7.2514087322       -7.0673084030      -14.0209620571  MEMB      3               0.0000000000
     39122      1263  PPPE      H2S            -7.5516409426       -5.4885691095      -13.2657949923  MEMB      3               0.0000000000
     39123      1263  PPPE      C3             -4.3510029109       -2.6174112394      -15.0795669290  MEMB      3               0.0000000000
     39124      1263  PPPE      HX             -3.7499506124       -2.2795717411      -15.9522626775  MEMB      3               0.0000000000
     39125      1263  PPPE      HY             -5.3302971185       -2.0943922680      -15.1365870460  MEMB      3               0.0000000000
     39126      1263  PPPE      O31            -3.6061892046       -2.2657153120      -13.9128715553  MEMB      3               0.0000000000
     39127      1263  PPPE      C31            -4.2481277298       -2.2902114704      -12.7612882310  MEMB      3               0.0000000000
     39128      1263  PPPE      O32            -5.4225387255       -2.5407547453      -12.5791044873  MEMB      3               0.0000000000
     39129      1263  PPPE      C32            -3.2304630295       -2.0014228671      -11.6558951946  MEMB      3               0.0000000000
     39130      1263  PPPE      H2X            -3.0708690635       -0.9096827263      -11.5285679983  MEMB      3               0.0000000000
     39131      1263  PPPE      H2Y            -2.2839749690       -2.4921477620      -11.9682654472  MEMB      3               0.0000000000
     39132      1263  PPPE      C23            -6.5870700929       -6.9382978425      -11.9181004691  MEMB      3               0.0000000000
     39133      1263  PPPE      H3R            -5.5883119791       -7.4276211274      -11.8951245145  MEMB      3               0.0000000000
     39134      1263  PPPE      H3S            -7.3474584695       -7.7243725569      -11.7137136949  MEMB      3               0.0000000000
     39135      1263  PPPE      C24            -6.7197831197       -5.9137239121      -10.7791880430  MEMB      3               0.0000000000
     39136      1263  PPPE      H4R            -7.5635512792       -5.2411566005      -11.0591560767  MEMB      3               0.0000000000
     39137      1263  PPPE      H4S            -5.8009249569       -5.2924063288      -10.7012090821  MEMB      3               0.0000000000
     39138      1263  PPPE      C25            -7.0293259786       -6.5006206392       -9.3830706671  MEMB      3               0.0000000000
     39139      1263  PPPE      H5R            -7.9470133703       -7.1267049109       -9.4374487980  MEMB      3               0.0000000000
     39140      1263  PPPE      H5S            -7.2634439791       -5.6299916336       -8.7266085343  MEMB      3               0.0000000000
     39141      1263  PPPE      C26            -5.8458551234       -7.2605677159       -8.7487581425  MEMB      3               0.0000000000
     39142      1263  PPPE      H6R            -4.9631678517       -6.5858029090       -8.7416430748  MEMB      3               0.0000000000
     39143      1263  PPPE      H6S            -5.5739389930       -8.1356575673       -9.3750940633  MEMB      3               0.0000000000
     39144      1263  PPPE      C27            -6.0701778380       -7.7101059028       -7.2936538447  MEMB      3               0.0000000000
     39145      1263  PPPE      H7R            -6.8211720518       -8.5128676902       -7.2552871237  MEMB      3               0.0000000000
     39146      1263  PPPE      H7S            -6.5009826362       -6.8865433059       -6.6911876197  MEMB      3               0.0000000000
     39147      1263  PPPE      C28            -4.8129433775       -8.2954682859       -6.6178630178  MEMB      3               0.0000000000
     39148      1263  PPPE      H8R            -4.4137837142       -9.1149729364       -7.2448606823  MEMB      3               0.0000000000
     39149      1263  PPPE      H8S            -5.1584875113       -8.7261838004       -5.6559377503  MEMB      3               0.0000000000
     39150      1263  PPPE      C29            -3.6646639926       -7.3694036830       -6.4452773391  MEMB      3               0.0000000000
     39151      1263  PPPE      H91            -3.2233695394       -7.0208068424       -7.3877728101  MEMB      3               0.0000000000
     39152      1263  PPPE      C210           -3.0900446878       -7.0498279919       -5.2841861485  MEMB      3               0.0000000000
     39153      1263  PPPE      H101           -2.3207588131       -6.2648181756       -5.2880910211  MEMB      3               0.0000000000
     39154      1263  PPPE      C211           -3.4843597645       -7.5574677876       -3.9230335291  MEMB      3               0.0000000000
     39155      1263  PPPE      H11R           -2.5880723233       -7.6176638939       -3.2830297132  MEMB      3               0.0000000000
     39156      1263  PPPE      H11S           -4.0006529404       -8.5404480398       -3.9166779339  MEMB      3               0.0000000000
     39157      1263  PPPE      C212           -4.4283896723       -6.6035120722       -3.2724189093  MEMB      3               0.0000000000
     39158      1263  PPPE      H12R           -5.4030422946       -6.6203277095       -3.8202453713  MEMB      3               0.0000000000
     39159      1263  PPPE      H12S           -3.9837526465       -5.5696067688       -3.3410532794  MEMB      3               0.0000000000
     39160      1263  PPPE      C213           -4.7636719667       -6.8621335866       -1.7916804730  MEMB      3               0.0000000000
     39161      1263  PPPE      H13R           -5.2225754808       -7.8446754766       -1.6293190697  MEMB      3               0.0000000000
     39162      1263  PPPE      H13S           -5.5563896031       -6.2476328450       -1.3561855658  MEMB      3               0.0000000000
     39163      1263  PPPE      C214           -3.6377375841       -6.4400368737       -0.9032285262  MEMB      3               0.0000000000
     39164      1263  PPPE      H14R           -3.6244087071       -5.3423737854       -0.6758045797  MEMB      3               0.0000000000
     39165      1263  PPPE      H14S           -2.6778850984       -6.6985018328       -1.3895538962  MEMB      3               0.0000000000
     39166      1263  PPPE      C215           -3.7748819421       -7.2168203875        0.3564259771  MEMB      3               0.0000000000
     39167      1263  PPPE      H15R           -3.9663240034       -8.2840151785        0.0938765705  MEMB      3               0.0000000000
     39168      1263  PPPE      H15S           -4.6452257825       -6.8432226473        0.9469437195  MEMB      3               0.0000000000
     39169      1263  PPPE      C216           -2.4634372802       -7.0420176403        1.0590326159  MEMB      3               0.0000000000
     39170      1263  PPPE      H16R           -2.6096319518       -7.1703623949        2.0651054589  MEMB      3               0.0000000000
     39171      1263  PPPE      H16S           -1.7010449847       -7.8124212771        0.8315647055  MEMB      3               0.0000000000
     39172      1263  PPPE      H16T           -2.1382406643       -5.9958002208        1.1810051782  MEMB      3               0.0000000000
     39173      1263  PPPE      C33            -3.6700566790       -2.6418387761      -10.3294345586  MEMB      3               0.0000000000
     39174      1263  PPPE      H3X            -4.1786916306       -3.6053845338      -10.5711852995  MEMB      3               0.0000000000
     39175      1263  PPPE      H3Y            -4.4025107273       -1.9829917902       -9.8194724429  MEMB      3               0.0000000000
     39176      1263  PPPE      C34            -2.4930650613       -2.9192332132       -9.3911356949  MEMB      3               0.0000000000
     39177      1263  PPPE      H4X            -2.0491167890       -1.9555118452       -9.0395527747  MEMB      3               0.0000000000
     39178      1263  PPPE      H4Y            -1.7163063887       -3.4542015366       -9.9793312280  MEMB      3               0.0000000000
     39179      1263  PPPE      C35            -2.8479877045       -3.7981182761       -8.1772940104  MEMB      3               0.0000000000
     39180      1263  PPPE      H5X            -1.9275873676       -3.9240696289       -7.5789751795  MEMB      3               0.0000000000
     39181      1263  PPPE      H5Y            -3.2046939115       -4.7992645281       -8.5017796386  MEMB      3               0.0000000000
     39182      1263  PPPE      C36            -3.9438788968       -3.2076570876       -7.2963563369  MEMB      3               0.0000000000
     39183      1263  PPPE      H6X            -4.8666502985       -3.1672279289       -7.9151458395  MEMB      3               0.0000000000
     39184      1263  PPPE      H6Y            -3.6738825512       -2.1606522326       -7.0338043588  MEMB      3               0.0000000000
     39185      1263  PPPE      C37            -4.2105836839       -3.9221913512       -5.9631227323  MEMB      3               0.0000000000
     39186      1263  PPPE      H7X            -3.2833996983       -4.2080743501       -5.4204338791  MEMB      3               0.0000000000
     39187      1263  PPPE      H7Y            -4.7936711671       -4.8642763095       -6.0888405527  MEMB      3               0.0000000000
     39188      1263  PPPE      C38            -4.8925104664       -2.9246392045       -5.0228614325  MEMB      3               0.0000000000
     39189      1263  PPPE      H8X            -4.2583536725       -2.0277310154       -4.9106474576  MEMB      3               0.0000000000
     39190      1263  PPPE      H8Y            -4.8027914597       -3.3324868956       -4.0035489640  MEMB      3               0.0000000000
     39191      1263  PPPE      C39            -6.3345284395       -2.5822948786       -5.4939628641  MEMB      3               0.0000000000
     39192      1263  PPPE      H9X            -6.8170485083       -3.4859380067       -5.9436869054  MEMB      3               0.0000000000
     39193      1263  PPPE      H9Y            -6.2563094090       -1.8214303647       -6.2909712617  MEMB      3               0.0000000000
     39194      1263  PPPE      C310           -7.3315393222       -2.1257588413       -4.4175257588  MEMB      3               0.0000000000
     39195      1263  PPPE      H10X           -7.6423484982       -2.9821072669       -3.8595855613  MEMB      3               0.0000000000
     39196      1263  PPPE      H10Y           -8.3473606686       -1.8905194031       -4.7675590405  MEMB      3               0.0000000000
     39197      1263  PPPE      C311           -6.8309762364       -1.0659763697       -3.4672390124  MEMB      3               0.0000000000
     39198      1263  PPPE      H11X           -6.6231911185       -0.2057505544       -4.1270912405  MEMB      3               0.0000000000
     39199      1263  PPPE      H11Y           -5.8729150163       -1.2928247122       -2.9487771867  MEMB      3               0.0000000000
     39200      1263  PPPE      C312           -7.9114209883       -0.6869337912       -2.4559490303  MEMB      3               0.0000000000
     39201      1263  PPPE      H12X           -8.9638606188       -0.8123312178       -2.7804791644  MEMB      3               0.0000000000
     39202      1263  PPPE      H12Y           -7.6833818254        0.3432836850       -2.2990910305  MEMB      3               0.0000000000
     39203      1263  PPPE      C313           -7.6613723238       -1.1532987825       -1.0630007123  MEMB      3               0.0000000000
     39204      1263  PPPE      H13X           -6.5937395988       -1.0396485969       -0.8056527639  MEMB      3               0.0000000000
     39205      1263  PPPE      H13Y           -7.9816681025       -2.1684986529       -1.0806723437  MEMB      3               0.0000000000
     39206      1263  PPPE      C314           -8.6590000777       -0.9022759423        0.0209620632  MEMB      3               0.0000000000
     39207      1263  PPPE      H14X           -9.5776346005       -1.2286101272       -0.4060189299  MEMB      3               0.0000000000
     39208      1263  PPPE      H14Y           -8.6203956638        0.0951786166        0.4030837558  MEMB      3               0.0000000000
     39209      1263  PPPE      C315           -8.6170074349       -1.6689278002        1.2887713395  MEMB      3               0.0000000000
     39210      1263  PPPE      H15X           -9.3050940148       -1.2706624331        2.0666392672  MEMB      3               0.0000000000
     39211      1263  PPPE      H15Y           -7.5966227952       -1.2966606680        1.5614001544  MEMB      3               0.0000000000
     39212      1263  PPPE      C316           -8.8693139689       -3.1837609621        1.3958964150  MEMB      3               0.0000000000
     39213      1263  PPPE      H16X           -8.8747276038       -3.5374050945        2.4363336017  MEMB      3               0.0000000000
     39214      1263  PPPE      H16Y           -9.3277005904       -3.8263463782        0.6814626342  MEMB      3               0.0000000000
     39215      1263  PPPE      H16Z           -8.2363398229       -3.9080395368        1.0448186496  MEMB      3               0.0000000000
     39216      1264  PVPG      C13             3.2360287646       10.0309382791      -19.9014370440  MEMB      4               0.0000000000
     39217      1264  PVPG      H13A            2.9155171087        9.6635464233      -20.8769598697  MEMB      4               0.0000000000
     39218      1264  PVPG      H13B            2.5227597945        9.7967608305      -19.0804654479  MEMB      4               0.0000000000
     39219      1264  PVPG      OC3             3.1073853262       11.3888838952      -20.3285505126  MEMB      4               0.0000000000
     39220      1264  PVPG      HO3             2.5699835973       11.8884547127      -19.6931920275  MEMB      4               0.0000000000
     39221      1264  PVPG      C12             4.6286521030        9.3138208568      -19.5916564694  MEMB      4               0.0000000000
     39222      1264  PVPG      H12A            4.9321223424        9.5123556306      -18.5412503611  MEMB      4               0.0000000000
     39223      1264  PVPG      OC2             5.6991840544        9.7305537847      -20.4556398685  MEMB      4               0.0000000000
     39224      1264  PVPG      HO2             6.4325624471        9.1511081949      -20.2241196795  MEMB      4               0.0000000000
     39225      1264  PVPG      C11             4.4714250407        7.7624845196      -19.6696490682  MEMB      4               0.0000000000
     39226      1264  PVPG      H11A            5.4258378150        7.2408070463      -19.4101802998  MEMB      4               0.0000000000
     39227      1264  PVPG      H11B            4.3010936789        7.5490901763      -20.7450003222  MEMB      4               0.0000000000
     39228      1264  PVPG      P               3.2674840511        5.8709385718      -18.1933499892  MEMB      4               0.0000000000
     39229      1264  PVPG      O13             4.6366945123        5.3481270273      -18.0836204384  MEMB      4               0.0000000000
     39230      1264  PVPG      O14             2.1769210016        5.0940771241      -18.8339336648  MEMB      4               0.0000000000
     39231      1264  PVPG      O12             3.3491752537        7.3158694474      -18.8842640315  MEMB      4               0.0000000000
     39232      1264  PVPG      O11             2.7428966746        6.2192324090      -16.7474680983  MEMB      4               0.0000000000
     39233      1264  PVPG      C1              2.6403114318        7.5130686692      -16.1772814347  MEMB      4               0.0000000000
     39234      1264  PVPG      HA              1.5860548440        7.8561938578      -16.2712135904  MEMB      4               0.0000000000
     39235      1264  PVPG      HB              3.2993171809        8.2587859254      -16.6750995733  MEMB      4               0.0000000000
     39236      1264  PVPG      C2              2.9966168716        7.4795333815      -14.6594146054  MEMB      4               0.0000000000
     39237      1264  PVPG      HS              2.8112894847        8.5108445825      -14.2713021154  MEMB      4               0.0000000000
     39238      1264  PVPG      O21             4.3469037584        7.0434521242      -14.4302591951  MEMB      4               0.0000000000
     39239      1264  PVPG      C21             5.2273242547        8.0163861916      -14.5287239154  MEMB      4               0.0000000000
     39240      1264  PVPG      O22             4.9497614787        9.1963005074      -14.6824263383  MEMB      4               0.0000000000
     39241      1264  PVPG      C22             6.6431410468        7.4312136680      -14.5034899565  MEMB      4               0.0000000000
     39242      1264  PVPG      H2R             7.2943793698        8.0388264628      -15.1619145235  MEMB      4               0.0000000000
     39243      1264  PVPG      H2S             6.6254635875        6.4116462978      -14.9329315843  MEMB      4               0.0000000000
     39244      1264  PVPG      C3              2.0644720411        6.4986598937      -13.9120172942  MEMB      4               0.0000000000
     39245      1264  PVPG      HX              1.0406269919        6.8486045024      -14.1420325548  MEMB      4               0.0000000000
     39246      1264  PVPG      HY              2.1816607797        5.4843179380      -14.3463332654  MEMB      4               0.0000000000
     39247      1264  PVPG      O31             2.2008993296        6.5323685343      -12.4846359589  MEMB      4               0.0000000000
     39248      1264  PVPG      C31             2.9304033739        5.6786772268      -11.7832359362  MEMB      4               0.0000000000
     39249      1264  PVPG      O32             3.6835135353        4.8170083061      -12.1904577798  MEMB      4               0.0000000000
     39250      1264  PVPG      C32             2.6529212529        5.9693204489      -10.2975440367  MEMB      4               0.0000000000
     39251      1264  PVPG      H2X             3.3270649051        5.3719258163       -9.6535759785  MEMB      4               0.0000000000
     39252      1264  PVPG      H2Y             1.5931983437        5.7263044125      -10.0709264680  MEMB      4               0.0000000000
     39253      1264  PVPG      C23             7.2569556771        7.3632464443      -13.0968833399  MEMB      4               0.0000000000
     39254      1264  PVPG      H3R             7.1649059260        8.3190908019      -12.5309099211  MEMB      4               0.0000000000
     39255      1264  PVPG      H3S             8.3390039924        7.1050245727      -13.2033547318  MEMB      4               0.0000000000
     39256      1264  PVPG      C24             6.6335272937        6.2734171623      -12.2512701153  MEMB      4               0.0000000000
     39257      1264  PVPG      H4R             6.7821214916        5.2956148128      -12.7624434383  MEMB      4               0.0000000000
     39258      1264  PVPG      H4S             5.5374452042        6.4359108630      -12.1770737331  MEMB      4               0.0000000000
     39259      1264  PVPG      C25             7.2164880380        6.4145894096      -10.8452759708  MEMB      4               0.0000000000
     39260      1264  PVPG      H5R             6.7019141458        7.2583998223      -10.3635250671  MEMB      4               0.0000000000
     39261      1264  PVPG      H5S             8.3231495400        6.5572597642      -10.8851770333  MEMB      4               0.0000000000
     39262      1264  PVPG      C26             6.9338704749        5.2683040991       -9.9485940807  MEMB      4               0.0000000000
     39263      1264  PVPG      H6R             7.8235307611        4.6320492234      -10.2261091312  MEMB      4               0.0000000000
     39264      1264  PVPG      H6S             5.9326551536        4.8198899005      -10.1789667134  MEMB      4               0.0000000000
     39265      1264  PVPG      C27             7.1242096657        5.3214499260       -8.4723293350  MEMB      4               0.0000000000
     39266      1264  PVPG      H7R             8.1689929557        5.5962815999       -8.2434844178  MEMB      4               0.0000000000
     39267      1264  PVPG      H7S             6.9198870717        4.3250389562       -8.0413178256  MEMB      4               0.0000000000
     39268      1264  PVPG      C28             6.0817003580        5.9210321328       -7.6656347171  MEMB      4               0.0000000000
     39269      1264  PVPG      H8R             5.0953648240        5.6398930522       -8.1011786759  MEMB      4               0.0000000000
     39270      1264  PVPG      H8S             6.3553464254        6.9765079366       -7.8165821192  MEMB      4               0.0000000000
     39271      1264  PVPG      C29             6.1896822544        5.3665373354       -6.2397802776  MEMB      4               0.0000000000
     39272      1264  PVPG      H9R             6.2804096430        4.2630154082       -6.1171121027  MEMB      4               0.0000000000
     39273      1264  PVPG      H9S             5.1902558108        5.6004187889       -5.8382655683  MEMB      4               0.0000000000
     39274      1264  PVPG      C210            7.3793722327        5.9190991410       -5.4560628416  MEMB      4               0.0000000000
     39275      1264  PVPG      H10R            8.3545303738        5.6687166216       -5.8940443070  MEMB      4               0.0000000000
     39276      1264  PVPG      H10S            7.2939554815        5.5030083448       -4.4319222002  MEMB      4               0.0000000000
     39277      1264  PVPG      C211            7.2682830174        7.3744949281       -5.4025418165  MEMB      4               0.0000000000
     39278      1264  PVPG      H111            7.8093117289        7.9991152876       -6.1512882746  MEMB      4               0.0000000000
     39279      1264  PVPG      C212            6.5531947189        7.9148259597       -4.4349376446  MEMB      4               0.0000000000
     39280      1264  PVPG      H121            6.1352846651        8.8113326173       -4.7863358712  MEMB      4               0.0000000000
     39281      1264  PVPG      C213            5.7375273319        7.4780465233       -3.2429082456  MEMB      4               0.0000000000
     39282      1264  PVPG      H13R            5.4828569580        6.4252988298       -3.2791352025  MEMB      4               0.0000000000
     39283      1264  PVPG      H13S            4.8678115651        8.1628036719       -3.1331139178  MEMB      4               0.0000000000
     39284      1264  PVPG      C214            6.2956269246        7.6474554751       -1.8720592271  MEMB      4               0.0000000000
     39285      1264  PVPG      H14R            5.7372162639        7.6364673867       -0.9154569137  MEMB      4               0.0000000000
     39286      1264  PVPG      H14S            6.3936765056        8.7382733250       -1.9603601246  MEMB      4               0.0000000000
     39287      1264  PVPG      C215            7.5233557422        6.8080842804       -1.6928572866  MEMB      4               0.0000000000
     39288      1264  PVPG      H15R            7.6919381179        7.4073271082       -0.7774040404  MEMB      4               0.0000000000
     39289      1264  PVPG      H15S            8.3479842387        6.8561639661       -2.4473546511  MEMB      4               0.0000000000
     39290      1264  PVPG      C216            7.4154174790        5.3976233018       -1.2396935463  MEMB      4               0.0000000000
     39291      1264  PVPG      H16R            6.5439072558        5.1656846007       -1.8818914976  MEMB      4               0.0000000000
     39292      1264  PVPG      H16S            7.2220036848        5.3618532846       -0.1446480443  MEMB      4               0.0000000000
     39293      1264  PVPG      C217            8.4802385158        4.4037884999       -1.6840758341  MEMB      4               0.0000000000
     39294      1264  PVPG      H17R            8.6928520211        4.5825051792       -2.7578863689  MEMB      4               0.0000000000
     39295      1264  PVPG      H17S            8.0464871133        3.3880431755       -1.5259057780  MEMB      4               0.0000000000
     39296      1264  PVPG      C218            9.7893537037        4.3908991383       -0.9488016519  MEMB      4               0.0000000000
     39297      1264  PVPG      H18R           10.3126782080        5.3435514687       -0.9230228855  MEMB      4               0.0000000000
     39298      1264  PVPG      H18S            9.6907614010        3.9373165176        0.0463301619  MEMB      4               0.0000000000
     39299      1264  PVPG      H18T           10.5274997462        3.8520655547       -1.4792126287  MEMB      4               0.0000000000
     39300      1264  PVPG      C33             2.9838788824        7.4380116036       -9.9825188138  MEMB      4               0.0000000000
     39301      1264  PVPG      H3X             2.4826212390        8.0734821258      -10.7509002518  MEMB      4               0.0000000000
     39302      1264  PVPG      H3Y             4.0902325178        7.5392406449      -10.0505675755  MEMB      4               0.0000000000
     39303      1264  PVPG      C34             2.5672617038        7.8869227420       -8.5803707054  MEMB      4               0.0000000000
     39304      1264  PVPG      H4X             2.7992803774        7.1208722037       -7.8174562027  MEMB      4               0.0000000000
     39305      1264  PVPG      H4Y             1.4918063191        7.9533174976       -8.5805457629  MEMB      4               0.0000000000
     39306      1264  PVPG      C35             3.1246780973        9.2461296387       -8.1540998527  MEMB      4               0.0000000000
     39307      1264  PVPG      H5X             2.9827830997        9.9892167991       -8.9797066657  MEMB      4               0.0000000000
     39308      1264  PVPG      H5Y             4.1961939553        9.0596100714       -7.9736348845  MEMB      4               0.0000000000
     39309      1264  PVPG      C36             2.4726409556        9.8471394343       -6.8889575627  MEMB      4               0.0000000000
     39310      1264  PVPG      H6X             1.4452023555        9.4842199488       -6.9232597374  MEMB      4               0.0000000000
     39311      1264  PVPG      H6Y             2.4929336383       10.9614497339       -6.9926756545  MEMB      4               0.0000000000
     39312      1264  PVPG      C37             3.0123212507        9.3555694576       -5.5260667894  MEMB      4               0.0000000000
     39313      1264  PVPG      H7X             3.8579162307        9.8676141714       -5.1497778829  MEMB      4               0.0000000000
     39314      1264  PVPG      H7Y             3.3516674788        8.3169248352       -5.5655352120  MEMB      4               0.0000000000
     39315      1264  PVPG      C38             2.4275044310        9.8427049049       -4.2206525843  MEMB      4               0.0000000000
     39316      1264  PVPG      H8X             2.2673891345       10.9214321939       -4.2501787745  MEMB      4               0.0000000000
     39317      1264  PVPG      H8Y             3.1687022619        9.7176695201       -3.3900263344  MEMB      4               0.0000000000
     39318      1264  PVPG      C39             1.1519444833        9.1455753232       -3.9961146414  MEMB      4               0.0000000000
     39319      1264  PVPG      H9X             0.5300821625        9.3228960441       -4.8901815224  MEMB      4               0.0000000000
     39320      1264  PVPG      H9Y             0.6563529061        9.5841468671       -3.1117492789  MEMB      4               0.0000000000
     39321      1264  PVPG      C310            1.2191894249        7.6540442296       -3.8921022947  MEMB      4               0.0000000000
     39322      1264  PVPG      H10X            1.3786598311        7.1730923614       -4.8757455592  MEMB      4               0.0000000000
     39323      1264  PVPG      H10Y            0.1974662618        7.4081340391       -3.5185015862  MEMB      4               0.0000000000
     39324      1264  PVPG      C311            2.2356794395        7.1522075294       -2.9264843743  MEMB      4               0.0000000000
     39325      1264  PVPG      H11X            2.6377286015        7.9563464498       -2.2635872820  MEMB      4               0.0000000000
     39326      1264  PVPG      H11Y            3.1165384368        6.6566092005       -3.4113790383  MEMB      4               0.0000000000
     39327      1264  PVPG      C312            1.5407150172        6.1850712462       -2.0303814020  MEMB      4               0.0000000000
     39328      1264  PVPG      H12X            1.5036691153        5.1591815140       -2.5171042994  MEMB      4               0.0000000000
     39329      1264  PVPG      H12Y            0.5667611963        6.4356947976       -1.5717960255  MEMB      4               0.0000000000
     39330      1264  PVPG      C313            2.4664373365        6.1272234979       -0.8762518309  MEMB      4               0.0000000000
     39331      1264  PVPG      H13X            3.4226610311        6.0881290781       -1.3638529539  MEMB      4               0.0000000000
     39332      1264  PVPG      H13Y            2.1387300325        5.1268686001       -0.7166924783  MEMB      4               0.0000000000
     39333      1264  PVPG      C314            2.5793306653        7.1822210625        0.2756395248  MEMB      4               0.0000000000
     39334      1264  PVPG      H14X            1.5055624638        7.4334067461        0.1656002064  MEMB      4               0.0000000000
     39335      1264  PVPG      H14Y            3.3541041780        7.8847980575       -0.0550979387  MEMB      4               0.0000000000
     39336      1264  PVPG      C315            2.7727199472        6.9296787160        1.8129926084  MEMB      4               0.0000000000
     39337      1264  PVPG      H15X            3.0023905305        7.6508427316        2.6079958871  MEMB      4               0.0000000000
     39338      1264  PVPG      H15Y            3.6186425748        6.2428260910        1.9926886392  MEMB      4               0.0000000000
     39339      1264  PVPG      C316            1.4016297560        6.4007435668        2.1076228100  MEMB      4               0.0000000000
     39340      1264  PVPG      H16X            1.0298131169        5.6560457574        1.4308408275  MEMB      4               0.0000000000
     39341      1264  PVPG      H16Y            1.5844194410        6.2714238691        3.1869492066  MEMB      4               0.0000000000
     39342      1264  PVPG      H16Z            0.5917633367        6.2333918750        2.8013817549  MEMB      4               0.0000000000
     39343      1265  PPPE      N               2.7246744480      -13.0590929201      -20.6168595706  MEMB      5               0.0000000000
     39344      1265  PPPE      HN1             3.0335046098      -13.5860286493      -19.7716960832  MEMB      5               0.0000000000
     39345      1265  PPPE      HN2             1.7004422987      -12.8981060750      -20.5702938117  MEMB      5               0.0000000000
     39346      1265  PPPE      HN3             2.9885546867      -13.6398131959      -21.4465083041  MEMB      5               0.0000000000
     39347      1265  PPPE      C12             3.3545877565      -11.6945999527      -20.6774794471  MEMB      5               0.0000000000
     39348      1265  PPPE      H12A            2.9340709569      -11.1897397272      -21.5582641088  MEMB      5               0.0000000000
     39349      1265  PPPE      H12B            4.4533142395      -11.8007376855      -20.7879535763  MEMB      5               0.0000000000
     39350      1265  PPPE      C11             3.0187775287      -10.8178643082      -19.4604594206  MEMB      5               0.0000000000
     39351      1265  PPPE      H11A            3.5299755519       -9.8491522730      -19.6501805569  MEMB      5               0.0000000000
     39352      1265  PPPE      H11B            3.4980793803      -11.2991333281      -18.5717655664  MEMB      5               0.0000000000
     39353      1265  PPPE      P               1.0417643663       -9.4556918272      -18.3211079519  MEMB      5               0.0000000000
     39354      1265  PPPE      O13             1.1703248589       -8.1237805522      -18.9422706496  MEMB      5               0.0000000000
     39355      1265  PPPE      O14            -0.2876303527       -9.8795763636      -17.8246544790  MEMB      5               0.0000000000
     39356      1265  PPPE      O11             2.0842429820       -9.5525735772      -17.1358419946  MEMB      5               0.0000000000
     39357      1265  PPPE      O12             1.6006951511      -10.6192541098      -19.3080170105  MEMB      5               0.0000000000
     39358      1265  PPPE      C1              2.2395857637      -10.7685396653      -16.4046574569  MEMB      5               0.0000000000
     39359      1265  PPPE      HA              3.3174192745      -10.9135850298      -16.1649667139  MEMB      5               0.0000000000
     39360      1265  PPPE      HB              1.9425976837      -11.6659717095      -16.9960540978  MEMB      5               0.0000000000
     39361      1265  PPPE      C2              1.4837479250      -10.8371057348      -15.0599412640  MEMB      5               0.0000000000
     39362      1265  PPPE      HS              0.3873278030      -10.6945842840      -15.1974839019  MEMB      5               0.0000000000
     39363      1265  PPPE      O21             1.9784979001       -9.8673931499      -14.1539407003  MEMB      5               0.0000000000
     39364      1265  PPPE      C21             1.2962994799       -9.9184715610      -13.0252264558  MEMB      5               0.0000000000
     39365      1265  PPPE      O22             0.3661361417      -10.6190533551      -12.7164680904  MEMB      5               0.0000000000
     39366      1265  PPPE      C22             1.7094449513       -8.7328735568      -12.3281687547  MEMB      5               0.0000000000
     39367      1265  PPPE      H2R             1.4126951317       -7.9535911596      -13.1051273110  MEMB      5               0.0000000000
     39368      1265  PPPE      H2S             2.8239794416       -8.8108572599      -12.2020609877  MEMB      5               0.0000000000
     39369      1265  PPPE      C3              1.8017142475      -12.2204049393      -14.5262351047  MEMB      5               0.0000000000
     39370      1265  PPPE      HX              1.1629020720      -12.5425610161      -13.6733136376  MEMB      5               0.0000000000
     39371      1265  PPPE      HY              1.5042212444      -12.8720431548      -15.3804773719  MEMB      5               0.0000000000
     39372      1265  PPPE      O31             3.2228058473      -12.1889792216      -14.1988477820  MEMB      5               0.0000000000
     39373      1265  PPPE      C31             3.9504803403      -13.1812634012      -14.7169803637  MEMB      5               0.0000000000
     39374      1265  PPPE      O32             3.5261225654      -14.0168494568      -15.4631540110  MEMB      5               0.0000000000
     39375      1265  PPPE      C32             5.2826142973      -13.4028131640      -14.0668400137  MEMB      5               0.0000000000
     39376      1265  PPPE      H2X             6.0521471789      -12.8686034773      -14.6178646553  MEMB      5               0.0000000000
     39377      1265  PPPE      H2Y             5.5957205046      -14.5002206187      -14.1056538319  MEMB      5               0.0000000000
     39378      1265  PPPE      C23             1.0046154184       -8.2956659134      -11.0493056330  MEMB      5               0.0000000000
     39379      1265  PPPE      H3R            -0.0773407274       -8.4371174570      -11.2020067000  MEMB      5               0.0000000000
     39380      1265  PPPE      H3S             1.1695966801       -7.2047958098      -10.8982171058  MEMB      5               0.0000000000
     39381      1265  PPPE      C24             1.4465035187       -9.1034209656       -9.8422950875  MEMB      5               0.0000000000
     39382      1265  PPPE      H4R             2.5340875193       -9.1708912001       -9.7611482626  MEMB      5               0.0000000000
     39383      1265  PPPE      H4S             1.1863959477      -10.1621294214      -10.0181505603  MEMB      5               0.0000000000
     39384      1265  PPPE      C25             0.8017668792       -8.6976574465       -8.5133950897  MEMB      5               0.0000000000
     39385      1265  PPPE      H5R             1.3327870579       -9.2774820133       -7.7261838853  MEMB      5               0.0000000000
     39386      1265  PPPE      H5S            -0.2503509026       -9.0325407217       -8.5069876551  MEMB      5               0.0000000000
     39387      1265  PPPE      C26             0.7374579441       -7.2075994692       -8.1877298500  MEMB      5               0.0000000000
     39388      1265  PPPE      H6R             0.2503565451       -7.0307714231       -7.2015940126  MEMB      5               0.0000000000
     39389      1265  PPPE      H6S             0.3067862990       -6.5753879863       -8.9874420127  MEMB      5               0.0000000000
     39390      1265  PPPE      C27             2.0510761968       -6.6219065989       -8.0011787084  MEMB      5               0.0000000000
     39391      1265  PPPE      H7R             2.3530933402       -5.6303573279       -8.0031470253  MEMB      5               0.0000000000
     39392      1265  PPPE      H7S             2.5905715404       -6.6411948421       -8.9110985833  MEMB      5               0.0000000000
     39393      1265  PPPE      C28             2.5576744951       -6.8127783174       -6.6129635179  MEMB      5               0.0000000000
     39394      1265  PPPE      H8R             3.3708447914       -5.9974790799       -6.6365494268  MEMB      5               0.0000000000
     39395      1265  PPPE      H8S             2.6324034003       -7.9093709930       -6.7359937727  MEMB      5               0.0000000000
     39396      1265  PPPE      C29             2.5130041513       -6.4904352835       -5.2316987695  MEMB      5               0.0000000000
     39397      1265  PPPE      H91             2.9721942484       -5.5135397948       -4.9731853459  MEMB      5               0.0000000000
     39398      1265  PPPE      C210            2.2190582979       -7.4304271302       -4.3881029551  MEMB      5               0.0000000000
     39399      1265  PPPE      H101            1.8831881777       -6.9787559446       -3.4725578371  MEMB      5               0.0000000000
     39400      1265  PPPE      C211            1.8846936135       -8.8861777506       -4.7083341799  MEMB      5               0.0000000000
     39401      1265  PPPE      H11R            2.7903197801       -9.4736076862       -4.9908341674  MEMB      5               0.0000000000
     39402      1265  PPPE      H11S            1.1418904015       -9.0311181796       -5.5354556085  MEMB      5               0.0000000000
     39403      1265  PPPE      C212            1.2634539823       -9.4305091559       -3.4362463492  MEMB      5               0.0000000000
     39404      1265  PPPE      H12R            0.6035756117       -8.6466771697       -3.0076728619  MEMB      5               0.0000000000
     39405      1265  PPPE      H12S            2.0507823679       -9.6446143458       -2.6884732125  MEMB      5               0.0000000000
     39406      1265  PPPE      C213            0.3692092704      -10.6461765079       -3.5906677818  MEMB      5               0.0000000000
     39407      1265  PPPE      H13R            0.9345295533      -11.4409036761       -4.1029338800  MEMB      5               0.0000000000
     39408      1265  PPPE      H13S           -0.4452767157      -10.4867947524       -4.3251089863  MEMB      5               0.0000000000
     39409      1265  PPPE      C214           -0.3229712034      -10.9091458768       -2.2237789308  MEMB      5               0.0000000000
     39410      1265  PPPE      H14R           -1.1750730012      -11.6023348660       -2.4339182460  MEMB      5               0.0000000000
     39411      1265  PPPE      H14S           -0.6976970418       -9.9672063904       -1.8134674321  MEMB      5               0.0000000000
     39412      1265  PPPE      C215            0.5211079920      -11.3246403887       -0.9869143211  MEMB      5               0.0000000000
     39413      1265  PPPE      H15R            1.5876779293      -11.0750667794       -0.8804976634  MEMB      5               0.0000000000
     39414      1265  PPPE      H15S            0.6252495318      -12.1410317643       -1.5257497505  MEMB      5               0.0000000000
     39415      1265  PPPE      C216           -0.0542477529      -12.2377544764        0.0722791768  MEMB      5               0.0000000000
     39416      1265  PPPE      H16R           -0.6960102950      -11.5806454505        0.6540038130  MEMB      5               0.0000000000
     39417      1265  PPPE      H16S           -0.6371596714      -13.0355273155       -0.4633436583  MEMB      5               0.0000000000
     39418      1265  PPPE      H16T            0.7099130593      -12.7534536974        0.7047912706  MEMB      5               0.0000000000
     39419      1265  PPPE      C33             5.1997497229      -13.0443703064      -12.5858785343  MEMB      5               0.0000000000
     39420      1265  PPPE      H3X             6.1959545796      -13.5502516294      -12.5429620844  MEMB      5               0.0000000000
     39421      1265  PPPE      H3Y             5.0776180036      -13.7190440665      -11.7646796376  MEMB      5               0.0000000000
     39422      1265  PPPE      C34             4.7177393883      -11.5842174206      -12.0325765158  MEMB      5               0.0000000000
     39423      1265  PPPE      H4X             3.6606550341      -11.5345750287      -12.1472503672  MEMB      5               0.0000000000
     39424      1265  PPPE      H4Y             5.1698303343      -10.8162781937      -12.6961619285  MEMB      5               0.0000000000
     39425      1265  PPPE      C35             4.8909664063      -11.0574007086      -10.5212207961  MEMB      5               0.0000000000
     39426      1265  PPPE      H5X             4.5335520014      -10.0513474933      -10.3326187757  MEMB      5               0.0000000000
     39427      1265  PPPE      H5Y             5.9155687671      -10.6591047735      -10.3430603773  MEMB      5               0.0000000000
     39428      1265  PPPE      C36             4.4440573730      -12.1760366217       -9.4879370113  MEMB      5               0.0000000000
     39429      1265  PPPE      H6X             4.5331203431      -12.0699075341       -8.3842213042  MEMB      5               0.0000000000
     39430      1265  PPPE      H6Y             4.8435855404      -13.2280054343       -9.5519536573  MEMB      5               0.0000000000
     39431      1265  PPPE      C37             3.1648990662      -11.9973492679       -9.0802478736  MEMB      5               0.0000000000
     39432      1265  PPPE      H7X             2.9746132630      -12.0422837263      -10.1557784270  MEMB      5               0.0000000000
     39433      1265  PPPE      H7Y             2.9579913668      -10.9921052586       -8.7302911477  MEMB      5               0.0000000000
     39434      1265  PPPE      C38             2.8426208294      -13.1982401991       -8.1955834967  MEMB      5               0.0000000000
     39435      1265  PPPE      H8X             3.1697521361      -14.1870198660       -8.6447690576  MEMB      5               0.0000000000
     39436      1265  PPPE      H8Y             1.7557124253      -12.9673561348       -8.2449600998  MEMB      5               0.0000000000
     39437      1265  PPPE      C39             2.9047743145      -13.2780512970       -6.7856031616  MEMB      5               0.0000000000
     39438      1265  PPPE      H9X             2.2427227055      -14.1629195963       -6.6403916551  MEMB      5               0.0000000000
     39439      1265  PPPE      H9Y             2.4454680481      -12.3493026859       -6.4125819720  MEMB      5               0.0000000000
     39440      1265  PPPE      C310            4.2444030929      -13.7322129887       -6.3393874261  MEMB      5               0.0000000000
     39441      1265  PPPE      H10X            4.9810948117      -13.3022655533       -6.9506988650  MEMB      5               0.0000000000
     39442      1265  PPPE      H10Y            4.3816339677      -14.8172246122       -6.5442091383  MEMB      5               0.0000000000
     39443      1265  PPPE      C311            4.6179457876      -13.2145228277       -4.9797292617  MEMB      5               0.0000000000
     39444      1265  PPPE      H11X            5.3051573880      -13.9183536402       -4.4702719048  MEMB      5               0.0000000000
     39445      1265  PPPE      H11Y            3.7197705447      -13.2270541548       -4.4317185923  MEMB      5               0.0000000000
     39446      1265  PPPE      C312            4.2824617378      -11.8162507034       -4.4589601223  MEMB      5               0.0000000000
     39447      1265  PPPE      H12X            3.2105782753      -11.4958268012       -4.4346387117  MEMB      5               0.0000000000
     39448      1265  PPPE      H12Y            4.8189911863      -11.1471229751       -5.1170598983  MEMB      5               0.0000000000
     39449      1265  PPPE      C313            4.7073332690      -11.7296100884       -3.0027206350  MEMB      5               0.0000000000
     39450      1265  PPPE      H13X            5.6052132930      -12.2637449925       -3.1014927925  MEMB      5               0.0000000000
     39451      1265  PPPE      H13Y            4.4277534268      -12.4454824347       -2.2358951451  MEMB      5               0.0000000000
     39452      1265  PPPE      C314            4.8318830394      -10.3114006277       -2.4732914280  MEMB      5               0.0000000000
     39453      1265  PPPE      H14X            3.9359198125       -9.8575430712       -2.9175505501  MEMB      5               0.0000000000
     39454      1265  PPPE      H14Y            5.6802620669       -9.7762742087       -2.9575044736  MEMB      5               0.0000000000
     39455      1265  PPPE      C315            4.6381911315      -10.1454143811       -0.9285692829  MEMB      5               0.0000000000
     39456      1265  PPPE      H15X            3.8146878835      -10.8134114889       -0.6270908255  MEMB      5               0.0000000000
     39457      1265  PPPE      H15Y            4.4610778473       -9.0822457009       -0.6995211120  MEMB      5               0.0000000000
     39458      1265  PPPE      C316            5.6702758171      -10.5124430036        0.0860502347  MEMB      5               0.0000000000
     39459      1265  PPPE      H16X            6.5789509968       -9.8694645925       -0.0799058004  MEMB      5               0.0000000000
     39460      1265  PPPE      H16Y            5.5785570142      -10.6441959781        1.1546466604  MEMB      5               0.0000000000
     39461      1265  PPPE      H16Z            5.8211371620      -11.6102252865       -0.0691300534  MEMB      5               0.0000000000
     39462      1266  PPPE      N               8.8972893960       -7.2483847513      -16.0781570732  MEMB      6               0.0000000000
     39463      1266  PPPE      HN1             9.5240904068       -7.9119488056      -15.5086893287  MEMB      6               0.0000000000
     39464      1266  PPPE      HN2             9.1319588074       -6.2746728149      -15.8505315369  MEMB      6               0.0000000000
     39465      1266  PPPE      HN3             7.9187560303       -7.5061717771      -15.8856020719  MEMB      6               0.0000000000
     39466      1266  PPPE      C12             9.1519690250       -7.5250200778      -17.5324861034  MEMB      6               0.0000000000
     39467      1266  PPPE      H12A            8.6250036191       -8.4824617747      -17.7904484241  MEMB      6               0.0000000000
     39468      1266  PPPE      H12B           10.2695621078       -7.5094310910      -17.4738441802  MEMB      6               0.0000000000
     39469      1266  PPPE      C11             9.2532007485       -6.7109108586      -18.7301006265  MEMB      6               0.0000000000
     39470      1266  PPPE      H11A            9.5221277700       -7.4536256883      -19.5662309180  MEMB      6               0.0000000000
     39471      1266  PPPE      H11B           10.0635892396       -5.9546295092      -18.5735651922  MEMB      6               0.0000000000
     39472      1266  PPPE      P               7.7865135399       -5.3734185193      -20.1213342280  MEMB      6               0.0000000000
     39473      1266  PPPE      O13             8.4980399278       -6.0892475765      -21.1964529590  MEMB      6               0.0000000000
     39474      1266  PPPE      O14             6.3433234157       -5.1588427629      -20.2250917169  MEMB      6               0.0000000000
     39475      1266  PPPE      O11             8.6020593982       -4.0826396248      -19.7167465871  MEMB      6               0.0000000000
     39476      1266  PPPE      O12             7.9571135248       -6.2183820112      -18.8138731180  MEMB      6               0.0000000000
     39477      1266  PPPE      C1              7.9909970737       -2.9569997933      -19.1300239375  MEMB      6               0.0000000000
     39478      1266  PPPE      HA              7.0719661038       -3.2468314566      -18.6645136222  MEMB      6               0.0000000000
     39479      1266  PPPE      HB              7.6706758137       -2.2708382952      -19.9532239576  MEMB      6               0.0000000000
     39480      1266  PPPE      C2              9.0211953284       -2.2704209300      -18.1810217727  MEMB      6               0.0000000000
     39481      1266  PPPE      HS              9.8660384507       -2.2183518024      -18.8807582408  MEMB      6               0.0000000000
     39482      1266  PPPE      O21             9.4550748111       -3.0269097578      -17.0577538900  MEMB      6               0.0000000000
     39483      1266  PPPE      C21            10.7286610611       -2.9049149899      -16.6854978241  MEMB      6               0.0000000000
     39484      1266  PPPE      O22            11.5275359590       -2.0781957328      -17.0118084879  MEMB      6               0.0000000000
     39485      1266  PPPE      C22            11.1852620577       -4.1277738999      -16.0524224370  MEMB      6               0.0000000000
     39486      1266  PPPE      H2R            12.1807169667       -4.3011064084      -16.5475639698  MEMB      6               0.0000000000
     39487      1266  PPPE      H2S            10.4978741340       -4.9204216950      -16.3431718599  MEMB      6               0.0000000000
     39488      1266  PPPE      C3              8.5414644726       -0.8784428027      -17.6405802939  MEMB      6               0.0000000000
     39489      1266  PPPE      HX              9.2204081658       -0.1708636382      -17.1722582388  MEMB      6               0.0000000000
     39490      1266  PPPE      HY              8.1639695490       -0.2871858642      -18.5079229044  MEMB      6               0.0000000000
     39491      1266  PPPE      O31             7.8754209297       -0.8557350782      -16.4763574555  MEMB      6               0.0000000000
     39492      1266  PPPE      C31             6.7613828254       -0.4835580034      -16.7653702868  MEMB      6               0.0000000000
     39493      1266  PPPE      O32             6.2360961985       -0.4067393224      -17.9110728413  MEMB      6               0.0000000000
     39494      1266  PPPE      C32             6.3650678969       -1.0982024129      -15.3454006894  MEMB      6               0.0000000000
     39495      1266  PPPE      H2X             5.7690056494       -1.0870857498      -16.2736771719  MEMB      6               0.0000000000
     39496      1266  PPPE      H2Y             5.9902184030       -0.4478411837      -14.6301621925  MEMB      6               0.0000000000
     39497      1266  PPPE      C23            11.4711505198       -3.9790955518      -14.5665608585  MEMB      6               0.0000000000
     39498      1266  PPPE      H3R            10.7666012194       -3.4115460067      -13.9200779127  MEMB      6               0.0000000000
     39499      1266  PPPE      H3S            12.3994200881       -3.4149705267      -14.5926261134  MEMB      6               0.0000000000
     39500      1266  PPPE      C24            11.7778272814       -5.3430139238      -13.9896065692  MEMB      6               0.0000000000
     39501      1266  PPPE      H4R            12.4218854615       -5.9064635828      -14.6953318460  MEMB      6               0.0000000000
     39502      1266  PPPE      H4S            10.8249557294       -5.9008954036      -13.8777123968  MEMB      6               0.0000000000
     39503      1266  PPPE      C25            12.4148744835       -5.2750077076      -12.6147445737  MEMB      6               0.0000000000
     39504      1266  PPPE      H5R            13.2891523620       -4.5881289090      -12.5568671602  MEMB      6               0.0000000000
     39505      1266  PPPE      H5S            12.8084591631       -6.2902945663      -12.3779423727  MEMB      6               0.0000000000
     39506      1266  PPPE      C26            11.3216894079       -4.8565624864      -11.6259495358  MEMB      6               0.0000000000
     39507      1266  PPPE      H6R            10.3218750863       -5.1516345278      -12.0196554684  MEMB      6               0.0000000000
     39508      1266  PPPE      H6S            11.3281465914       -3.7541804949      -11.5298031279  MEMB      6               0.0000000000
     39509      1266  PPPE      C27            11.5219705934       -5.5222400076      -10.2728204703  MEMB      6               0.0000000000
     39510      1266  PPPE      H7R            12.5917503187       -5.3413372110      -10.0178778898  MEMB      6               0.0000000000
     39511      1266  PPPE      H7S            11.3646532443       -6.6177108973      -10.3995744807  MEMB      6               0.0000000000
     39512      1266  PPPE      C28            10.5499654884       -5.0912449787       -9.1648941686  MEMB      6               0.0000000000
     39513      1266  PPPE      H8R            10.6847644607       -5.8109471471       -8.3339261905  MEMB      6               0.0000000000
     39514      1266  PPPE      H8S             9.4893159936       -5.2113614444       -9.4638452490  MEMB      6               0.0000000000
     39515      1266  PPPE      C29            10.7671297335       -3.6914939617       -8.7017899082  MEMB      6               0.0000000000
     39516      1266  PPPE      H91            10.3938245617       -2.9045551295       -9.3665040466  MEMB      6               0.0000000000
     39517      1266  PPPE      C210           11.3882775152       -3.3467901650       -7.5827006825  MEMB      6               0.0000000000
     39518      1266  PPPE      H101           11.5353241189       -2.3014563617       -7.3329330089  MEMB      6               0.0000000000
     39519      1266  PPPE      C211           11.9816928417       -4.2508504933       -6.5895450870  MEMB      6               0.0000000000
     39520      1266  PPPE      H11R           13.0595527619       -4.0999627145       -6.7002332521  MEMB      6               0.0000000000
     39521      1266  PPPE      H11S           11.7522551285       -5.3148661136       -6.7307710040  MEMB      6               0.0000000000
     39522      1266  PPPE      C212           11.6101882669       -3.9300563373       -5.1800536405  MEMB      6               0.0000000000
     39523      1266  PPPE      H12R           12.2473878465       -4.4500339958       -4.4745002944  MEMB      6               0.0000000000
     39524      1266  PPPE      H12S           10.6435556486       -4.1251876836       -4.8163108070  MEMB      6               0.0000000000
     39525      1266  PPPE      C213           11.7904611373       -2.5380375587       -4.8499120266  MEMB      6               0.0000000000
     39526      1266  PPPE      H13R           11.4032653267       -1.7267489433       -5.4673455196  MEMB      6               0.0000000000
     39527      1266  PPPE      H13S           12.8068474195       -2.7172703782       -4.9027691085  MEMB      6               0.0000000000
     39528      1266  PPPE      C214           11.7615467947       -2.1948193167       -3.4677787925  MEMB      6               0.0000000000
     39529      1266  PPPE      H14R           10.6934287805       -2.5116444163       -3.3374627573  MEMB      6               0.0000000000
     39530      1266  PPPE      H14S           12.0655802038       -1.1323317687       -3.2784154272  MEMB      6               0.0000000000
     39531      1266  PPPE      C215           12.5163681507       -2.8102519828       -2.5093152636  MEMB      6               0.0000000000
     39532      1266  PPPE      H15R           13.5863756485       -2.8725250258       -2.4598377150  MEMB      6               0.0000000000
     39533      1266  PPPE      H15S           11.9239935997       -3.6508499537       -2.6510003886  MEMB      6               0.0000000000
     39534      1266  PPPE      C216           12.1071487690       -2.5795074714       -1.2656573990  MEMB      6               0.0000000000
     39535      1266  PPPE      H16R           11.7404212480       -3.4110440095       -0.7261191167  MEMB      6               0.0000000000
     39536      1266  PPPE      H16S           12.1360064894       -1.5943698385       -0.8413511706  MEMB      6               0.0000000000
     39537      1266  PPPE      H16T           11.4948104097       -1.9000126074       -0.7505302650  MEMB      6               0.0000000000
     39538      1266  PPPE      C33             6.4583898119       -2.5326564640      -14.4564006483  MEMB      6               0.0000000000
     39539      1266  PPPE      H3X             7.4824498034       -2.8219704801      -14.5264742537  MEMB      6               0.0000000000
     39540      1266  PPPE      H3Y             6.0487585154       -3.4687023164      -14.8100320430  MEMB      6               0.0000000000
     39541      1266  PPPE      C34             5.4835732141       -3.3335042150      -13.4949326226  MEMB      6               0.0000000000
     39542      1266  PPPE      H4X             5.8364107898       -4.4428579420      -13.3904220906  MEMB      6               0.0000000000
     39543      1266  PPPE      H4Y             4.3645172211       -3.3648786866      -13.6692728124  MEMB      6               0.0000000000
     39544      1266  PPPE      C35             5.8862775467       -2.7618690909      -12.2322868674  MEMB      6               0.0000000000
     39545      1266  PPPE      H5X             5.5251219492       -1.7209544963      -12.2752630433  MEMB      6               0.0000000000
     39546      1266  PPPE      H5Y             6.9939638572       -2.8464894800      -12.3082884907  MEMB      6               0.0000000000
     39547      1266  PPPE      C36             5.3765154840       -3.5469472058      -11.0866146802  MEMB      6               0.0000000000
     39548      1266  PPPE      H6X             5.4945481196       -4.5966521233      -11.4102640590  MEMB      6               0.0000000000
     39549      1266  PPPE      H6Y             4.3142473358       -3.2666608957      -10.9562132114  MEMB      6               0.0000000000
     39550      1266  PPPE      C37             6.0621491080       -3.4187510800       -9.7593932552  MEMB      6               0.0000000000
     39551      1266  PPPE      H7X             6.9680513376       -4.0663954106       -9.7631310326  MEMB      6               0.0000000000
     39552      1266  PPPE      H7Y             5.3825454397       -3.8144077719       -8.9719448466  MEMB      6               0.0000000000
     39553      1266  PPPE      C38             6.3349861977       -1.9729054235       -9.4144595794  MEMB      6               0.0000000000
     39554      1266  PPPE      H8X             5.3858245710       -1.5101900134       -9.0572725729  MEMB      6               0.0000000000
     39555      1266  PPPE      H8Y             6.6372568901       -1.4062531688      -10.3195250461  MEMB      6               0.0000000000
     39556      1266  PPPE      C39             7.5178786990       -1.8643960474       -8.4582035752  MEMB      6               0.0000000000
     39557      1266  PPPE      H9X             7.6557978070       -0.7935996874       -8.1889889532  MEMB      6               0.0000000000
     39558      1266  PPPE      H9Y             8.4048233898       -2.2378786705       -8.9963265438  MEMB      6               0.0000000000
     39559      1266  PPPE      C310            7.3961658647       -2.6479448050       -7.1673377492  MEMB      6               0.0000000000
     39560      1266  PPPE      H10X            8.3209634154       -2.4734511212       -6.5669991907  MEMB      6               0.0000000000
     39561      1266  PPPE      H10Y            7.3513865937       -3.7496004726       -7.3595911317  MEMB      6               0.0000000000
     39562      1266  PPPE      C311            6.1690873217       -2.0292755419       -6.5124897907  MEMB      6               0.0000000000
     39563      1266  PPPE      H11X            5.2038033226       -2.5194489359       -6.8382769710  MEMB      6               0.0000000000
     39564      1266  PPPE      H11Y            6.2086396296       -0.9363338967       -6.4275916515  MEMB      6               0.0000000000
     39565      1266  PPPE      C312            6.0364975455       -2.1369374771       -5.0862067671  MEMB      6               0.0000000000
     39566      1266  PPPE      H12X            6.0170001571       -3.2075719057       -5.3242633075  MEMB      6               0.0000000000
     39567      1266  PPPE      H12Y            5.0272763257       -2.2341982640       -4.6728971487  MEMB      6               0.0000000000
     39568      1266  PPPE      C313            7.0782885548       -1.4817339374       -4.1210656150  MEMB      6               0.0000000000
     39569      1266  PPPE      H13X            7.0051200528       -0.3992511706       -4.0639769934  MEMB      6               0.0000000000
     39570      1266  PPPE      H13Y            8.1121395390       -1.7526957969       -4.5712079755  MEMB      6               0.0000000000
     39571      1266  PPPE      C314            7.1673339324       -1.7206902286       -2.5437547329  MEMB      6               0.0000000000
     39572      1266  PPPE      H14X            8.0664650347       -2.2200501380       -2.8653341627  MEMB      6               0.0000000000
     39573      1266  PPPE      H14Y            7.0126797066       -2.5943548233       -1.8535761894  MEMB      6               0.0000000000
     39574      1266  PPPE      C315            6.4960807424       -1.1338236626       -1.3329909900  MEMB      6               0.0000000000
     39575      1266  PPPE      H15X            5.5239457829       -0.9551101742       -1.7603126216  MEMB      6               0.0000000000
     39576      1266  PPPE      H15Y            7.1285703811       -0.2552283003       -1.4742276519  MEMB      6               0.0000000000
     39577      1266  PPPE      C316            6.3340622145       -1.8500419048        0.1115858040  MEMB      6               0.0000000000
     39578      1266  PPPE      H16X            7.1391079507       -2.4819623776        0.3089729486  MEMB      6               0.0000000000
     39579      1266  PPPE      H16Y            6.5556747102       -1.2889606892        1.0479810216  MEMB      6               0.0000000000
     39580      1266  PPPE      H16Z            6.1042281205       -2.8824951456        0.3067380361  MEMB      6               0.0000000000
     39581      1267  PPPE      N              11.0331510892       -0.2173823314      -18.4546833436  MEMB      7               0.0000000000
     39582      1267  PPPE      HN1            10.3394714726       -0.2756717192      -17.6666626143  MEMB      7               0.0000000000
     39583      1267  PPPE      HN2            11.3721135963       -1.2045371110      -18.2920012798  MEMB      7               0.0000000000
     39584      1267  PPPE      HN3            11.7429901675        0.4332311504      -18.0983241725  MEMB      7               0.0000000000
     39585      1267  PPPE      C12            10.3110977290       -0.0535599415      -19.7602697274  MEMB      7               0.0000000000
     39586      1267  PPPE      H12A            9.4712294035       -0.7529162765      -19.9660578729  MEMB      7               0.0000000000
     39587      1267  PPPE      H12B           11.0514813997       -0.3146539215      -20.5113319782  MEMB      7               0.0000000000
     39588      1267  PPPE      C11             9.5285698217        1.2206515250      -19.7182229753  MEMB      7               0.0000000000
     39589      1267  PPPE      H11A            8.9412794956        1.3451120038      -18.7655287241  MEMB      7               0.0000000000
     39590      1267  PPPE      H11B            8.7768467488        1.1761615779      -20.5370682312  MEMB      7               0.0000000000
     39591      1267  PPPE      P              10.2925200962        3.5051963739      -18.9236164702  MEMB      7               0.0000000000
     39592      1267  PPPE      O13            11.1802853098        4.5340486853      -19.4316419283  MEMB      7               0.0000000000
     39593      1267  PPPE      O14             8.8457664744        3.7613241808      -18.7699799085  MEMB      7               0.0000000000
     39594      1267  PPPE      O11            10.8625025282        2.8112036542      -17.5921158598  MEMB      7               0.0000000000
     39595      1267  PPPE      O12            10.4494071047        2.2525068908      -19.8862096377  MEMB      7               0.0000000000
     39596      1267  PPPE      C1             10.2733530212        2.9957457769      -16.3068461578  MEMB      7               0.0000000000
     39597      1267  PPPE      HA              9.3939922575        2.3206441843      -16.2093937274  MEMB      7               0.0000000000
     39598      1267  PPPE      HB              9.9453431172        4.0510064979      -16.1451169049  MEMB      7               0.0000000000
     39599      1267  PPPE      C2             11.2950513290        2.6677780125      -15.1824215164  MEMB      7               0.0000000000
     39600      1267  PPPE      HS             12.2296619075        3.2285273621      -15.4236184411  MEMB      7               0.0000000000
     39601      1267  PPPE      O21            11.4772724418        1.2450628867      -15.1643218323  MEMB      7               0.0000000000
     39602      1267  PPPE      C21            12.5738506372        0.8145135710      -14.6121696440  MEMB      7               0.0000000000
     39603      1267  PPPE      O22            13.5659123183        1.4626273590      -14.3289828994  MEMB      7               0.0000000000
     39604      1267  PPPE      C22            12.3668018549       -0.6730273297      -14.4634420528  MEMB      7               0.0000000000
     39605      1267  PPPE      H2R            12.4177137029       -1.1108902052      -15.4292579172  MEMB      7               0.0000000000
     39606      1267  PPPE      H2S            11.5034123352       -0.9280230261      -13.8147092281  MEMB      7               0.0000000000
     39607      1267  PPPE      C3             10.8142866606        3.1342147688      -13.7879951014  MEMB      7               0.0000000000
     39608      1267  PPPE      HX             11.5535122624        2.7804632670      -13.0242406988  MEMB      7               0.0000000000
     39609      1267  PPPE      HY             10.8281019806        4.2482144533      -13.7844369438  MEMB      7               0.0000000000
     39610      1267  PPPE      O31             9.4849676830        2.6178757255      -13.5332451189  MEMB      7               0.0000000000
     39611      1267  PPPE      C31             9.0848762722        2.9179934662      -12.3019707827  MEMB      7               0.0000000000
     39612      1267  PPPE      O32             9.7053122290        3.6470199885      -11.5419379625  MEMB      7               0.0000000000
     39613      1267  PPPE      C32             7.8099016422        2.0937734847      -11.9828557268  MEMB      7               0.0000000000
     39614      1267  PPPE      H2X             8.0728337526        1.1550982101      -11.4846352226  MEMB      7               0.0000000000
     39615      1267  PPPE      H2Y             7.2340045679        1.9514652514      -12.9204041933  MEMB      7               0.0000000000
     39616      1267  PPPE      C23            13.5091592017       -1.3021900664      -13.8793885535  MEMB      7               0.0000000000
     39617      1267  PPPE      H3R            14.4365657505       -1.0686585221      -14.4625721245  MEMB      7               0.0000000000
     39618      1267  PPPE      H3S            13.6086672388       -2.4216524761      -13.8036005531  MEMB      7               0.0000000000
     39619      1267  PPPE      C24            13.4033125231       -0.6479589431      -12.5210928535  MEMB      7               0.0000000000
     39620      1267  PPPE      H4R            14.0168092837        0.2567586798      -12.4052014100  MEMB      7               0.0000000000
     39621      1267  PPPE      H4S            13.7780916099       -1.5925646028      -12.2534695504  MEMB      7               0.0000000000
     39622      1267  PPPE      C25            12.3650982574       -0.7831486485      -11.4570676560  MEMB      7               0.0000000000
     39623      1267  PPPE      H5R            12.0156677577       -1.8459570996      -11.5254424428  MEMB      7               0.0000000000
     39624      1267  PPPE      H5S            11.7371544327        0.0411119532      -11.7676313776  MEMB      7               0.0000000000
     39625      1267  PPPE      C26            12.8011410166       -0.5383007745      -10.0246336346  MEMB      7               0.0000000000
     39626      1267  PPPE      H6R            13.5254731136        0.2697662857       -9.8257491101  MEMB      7               0.0000000000
     39627      1267  PPPE      H6S            13.0631265673       -1.5717600564       -9.8013937924  MEMB      7               0.0000000000
     39628      1267  PPPE      C27            11.7531585785       -0.3105332327       -8.9993451671  MEMB      7               0.0000000000
     39629      1267  PPPE      H7R            11.1881222294       -1.2455115010       -9.0208790580  MEMB      7               0.0000000000
     39630      1267  PPPE      H7S            11.1871376043        0.5067476743       -9.4543946048  MEMB      7               0.0000000000
     39631      1267  PPPE      C28            12.1844481423        0.0796382539       -7.5561032437  MEMB      7               0.0000000000
     39632      1267  PPPE      H8R            12.5848850556       -0.7923265096       -7.0100423125  MEMB      7               0.0000000000
     39633      1267  PPPE      H8S            11.1899858051        0.2697996119       -7.1189580354  MEMB      7               0.0000000000
     39634      1267  PPPE      C29            13.0699922474        1.3220805729       -7.4497129306  MEMB      7               0.0000000000
     39635      1267  PPPE      H91            12.6500507767        2.0976079044       -8.0869251943  MEMB      7               0.0000000000
     39636      1267  PPPE      C210           14.1133116349        1.7272498006       -6.6551277621  MEMB      7               0.0000000000
     39637      1267  PPPE      H101           14.7437977701        2.5558666780       -6.9430442184  MEMB      7               0.0000000000
     39638      1267  PPPE      C211           14.8821927346        1.1712877029       -5.5189227955  MEMB      7               0.0000000000
     39639      1267  PPPE      H11R           16.0006734544        1.1675879959       -5.5307070008  MEMB      7               0.0000000000
     39640      1267  PPPE      H11S           15.1581547018        0.2456282006       -5.8091296313  MEMB      7               0.0000000000
     39641      1267  PPPE      C212           13.9419216532        1.0880100821       -4.3003021804  MEMB      7               0.0000000000
     39642      1267  PPPE      H12R           14.1733004158        0.4702269285       -3.4585289212  MEMB      7               0.0000000000
     39643      1267  PPPE      H12S           12.9657714202        0.5665468346       -4.3721362560  MEMB      7               0.0000000000
     39644      1267  PPPE      C213           13.8814068654        2.3251223638       -3.6365101768  MEMB      7               0.0000000000
     39645      1267  PPPE      H13R           13.0281261965        2.6969996731       -4.2435399099  MEMB      7               0.0000000000
     39646      1267  PPPE      H13S           14.8894492919        2.7547293113       -3.8426414538  MEMB      7               0.0000000000
     39647      1267  PPPE      C214           13.6666856184        2.0475559346       -2.1679629000  MEMB      7               0.0000000000
     39648      1267  PPPE      H14R           14.6479301137        1.7984291533       -1.7118790152  MEMB      7               0.0000000000
     39649      1267  PPPE      H14S           12.9743819292        1.1804547817       -1.9884823715  MEMB      7               0.0000000000
     39650      1267  PPPE      C215           13.0353832808        3.2830830060       -1.6593773630  MEMB      7               0.0000000000
     39651      1267  PPPE      H15R           12.0085172504        3.1024504799       -1.9839218336  MEMB      7               0.0000000000
     39652      1267  PPPE      H15S           13.4139273356        4.1629525300       -2.2269363427  MEMB      7               0.0000000000
     39653      1267  PPPE      C216           13.1953768367        3.5053975120       -0.1780749289  MEMB      7               0.0000000000
     39654      1267  PPPE      H16R           14.2858232439        3.5708882872        0.0349871213  MEMB      7               0.0000000000
     39655      1267  PPPE      H16S           12.7172818428        4.4693765749        0.0893096592  MEMB      7               0.0000000000
     39656      1267  PPPE      H16T           12.7363737159        2.6910702837        0.4224865329  MEMB      7               0.0000000000
     39657      1267  PPPE      C33             6.8261120858        2.7252413504      -11.0221394389  MEMB      7               0.0000000000
     39658      1267  PPPE      H3X             5.7352522024        2.6096648229      -11.1715888129  MEMB      7               0.0000000000
     39659      1267  PPPE      H3Y             6.8204220480        3.7031343596      -11.5408723837  MEMB      7               0.0000000000
     39660      1267  PPPE      C34             7.0819526076        2.4213814476       -9.4765016837  MEMB      7               0.0000000000
     39661      1267  PPPE      H4X             6.8644761345        1.3615597906       -9.2953959090  MEMB      7               0.0000000000
     39662      1267  PPPE      H4Y             6.1979990883        2.8674070062       -8.9612650886  MEMB      7               0.0000000000
     39663      1267  PPPE      C35             8.4337875795        2.7557497263       -8.6702261960  MEMB      7               0.0000000000
     39664      1267  PPPE      H5X             8.7710487255        3.7953132970       -8.6663160045  MEMB      7               0.0000000000
     39665      1267  PPPE      H5Y             9.3569026737        2.4155100634       -9.1372546870  MEMB      7               0.0000000000
     39666      1267  PPPE      C36             8.3839983473        2.4614836163       -7.1323459552  MEMB      7               0.0000000000
     39667      1267  PPPE      H6X             8.4363731674        1.3646211269       -7.1647831054  MEMB      7               0.0000000000
     39668      1267  PPPE      H6Y             7.4265738148        2.7327096098       -6.6321881098  MEMB      7               0.0000000000
     39669      1267  PPPE      C37             9.5473533403        3.0863975717       -6.3121187040  MEMB      7               0.0000000000
     39670      1267  PPPE      H7X             9.5652207832        4.1868230416       -6.3599157754  MEMB      7               0.0000000000
     39671      1267  PPPE      H7Y            10.5049383413        2.6932758723       -6.7159423463  MEMB      7               0.0000000000
     39672      1267  PPPE      C38             9.6075139075        2.8162288468       -4.8277279207  MEMB      7               0.0000000000
     39673      1267  PPPE      H8X             8.7340031495        3.1696658599       -4.2339941365  MEMB      7               0.0000000000
     39674      1267  PPPE      H8Y            10.5082876472        3.3340968532       -4.4074597559  MEMB      7               0.0000000000
     39675      1267  PPPE      C39             9.7164817890        1.3640186015       -4.6345701228  MEMB      7               0.0000000000
     39676      1267  PPPE      H9X            10.4574444600        0.7758391939       -5.2233653122  MEMB      7               0.0000000000
     39677      1267  PPPE      H9Y             8.6978848865        0.8967534659       -4.7506117598  MEMB      7               0.0000000000
     39678      1267  PPPE      C310           10.1520995687        1.2070757683       -3.2649643015  MEMB      7               0.0000000000
     39679      1267  PPPE      H10X            9.5333155030        1.8365689018       -2.5846275591  MEMB      7               0.0000000000
     39680      1267  PPPE      H10Y           11.2098106188        1.2583991349       -2.9481028538  MEMB      7               0.0000000000
     39681      1267  PPPE      C311            9.8875321098       -0.2499346303       -3.2430595154  MEMB      7               0.0000000000
     39682      1267  PPPE      H11X           10.3426330323       -0.7171753551       -4.0493096985  MEMB      7               0.0000000000
     39683      1267  PPPE      H11Y            8.9768705359       -0.6792862874       -3.3947869770  MEMB      7               0.0000000000
     39684      1267  PPPE      C312           10.0944788928       -0.7798562831       -1.9776774253  MEMB      7               0.0000000000
     39685      1267  PPPE      H12X            9.3625452804        0.0536438847       -1.8724114855  MEMB      7               0.0000000000
     39686      1267  PPPE      H12Y           11.0154862440       -0.2922297781       -1.5342002819  MEMB      7               0.0000000000
     39687      1267  PPPE      C313            9.5950131350       -2.2743077084       -1.4248947543  MEMB      7               0.0000000000
     39688      1267  PPPE      H13X           10.0200514019       -3.2991466128       -1.6500130631  MEMB      7               0.0000000000
     39689      1267  PPPE      H13Y            8.6780487901       -2.7072808998       -1.3943525299  MEMB      7               0.0000000000
     39690      1267  PPPE      C314            9.5259222182       -2.4396524705       -0.0213520887  MEMB      7               0.0000000000
     39691      1267  PPPE      H14X            9.0992857937       -3.5384908990        0.0200468773  MEMB      7               0.0000000000
     39692      1267  PPPE      H14Y            8.5458851294       -1.6241475877       -0.0217668198  MEMB      7               0.0000000000
     39693      1267  PPPE      C315           10.8985281454       -2.3910614606        1.3404480198  MEMB      7               0.0000000000
     39694      1267  PPPE      H15X           10.7916718660       -2.1885450332        2.4589134066  MEMB      7               0.0000000000
     39695      1267  PPPE      H15Y           11.3714752733       -1.4040501244        1.6874746012  MEMB      7               0.0000000000
     39696      1267  PPPE      C316           12.0622842656       -2.9350315549        1.4442755504  MEMB      7               0.0000000000
     39697      1267  PPPE      H16X           11.7438385533       -3.8301547452        1.2322886424  MEMB      7               0.0000000000
     39698      1267  PPPE      H16Y           12.6171525863       -2.3109970504        0.8155105834  MEMB      7               0.0000000000
     39699      1267  PPPE      H16Z           12.7853681792       -3.1082490517        2.2186390411  MEMB      7               0.0000000000
     39700      1268  PPPE      N              -9.1717908623        0.8529354832      -18.6916205669  MEMB      8               0.0000000000
     39701      1268  PPPE      HN1            -9.8170732240        0.2827864075      -18.1023720173  MEMB      8               0.0000000000
     39702      1268  PPPE      HN2            -9.1209106661        0.4218385553      -19.6440237392  MEMB      8               0.0000000000
     39703      1268  PPPE      HN3            -8.2211152323        0.9266473191      -18.2706209704  MEMB      8               0.0000000000
     39704      1268  PPPE      C12            -9.7699272575        2.2266541465      -18.8228712151  MEMB      8               0.0000000000
     39705      1268  PPPE      H12A           -9.2042166003        2.7636421198      -19.6101758545  MEMB      8               0.0000000000
     39706      1268  PPPE      H12B           -9.6196387712        2.7562314458      -17.8618867076  MEMB      8               0.0000000000
     39707      1268  PPPE      C11           -11.2801040156        2.1600692313      -19.1170702705  MEMB      8               0.0000000000
     39708      1268  PPPE      H11A          -11.4424708334        2.0866308354      -20.2222171779  MEMB      8               0.0000000000
     39709      1268  PPPE      H11B          -11.7164802019        3.1357197927      -18.8031116734  MEMB      8               0.0000000000
     39710      1268  PPPE      P             -12.9426685386        0.1447639496      -19.1152633338  MEMB      8               0.0000000000
     39711      1268  PPPE      O13           -14.2029172789        0.8564558321      -19.3407166899  MEMB      8               0.0000000000
     39712      1268  PPPE      O14           -12.1924865316       -0.3307382893      -20.2943983965  MEMB      8               0.0000000000
     39713      1268  PPPE      O11           -13.1253450138       -1.0948030323      -18.1442816745  MEMB      8               0.0000000000
     39714      1268  PPPE      O12           -11.8972061020        1.0963030837      -18.3736119706  MEMB      8               0.0000000000
     39715      1268  PPPE      C1            -12.3059975514       -1.3036363485      -17.0175521942  MEMB      8               0.0000000000
     39716      1268  PPPE      HA            -11.3279718326       -0.7715796265      -17.0721730814  MEMB      8               0.0000000000
     39717      1268  PPPE      HB            -12.0777487583       -2.3859960586      -16.9574051308  MEMB      8               0.0000000000
     39718      1268  PPPE      C2            -13.0249997014       -0.8066637608      -15.7572553200  MEMB      8               0.0000000000
     39719      1268  PPPE      HS            -14.1072077208       -1.0835431605      -15.7976345950  MEMB      8               0.0000000000
     39720      1268  PPPE      O21           -12.7991301606        0.6079363377      -15.7113695625  MEMB      8               0.0000000000
     39721      1268  PPPE      C21           -13.7172726444        1.3419352976      -15.1329566066  MEMB      8               0.0000000000
     39722      1268  PPPE      O22           -14.7911071851        0.9654620118      -14.6944288649  MEMB      8               0.0000000000
     39723      1268  PPPE      C22           -13.1296387474        2.7258051151      -14.9230737109  MEMB      8               0.0000000000
     39724      1268  PPPE      H2R           -13.1090398797        3.3397447479      -15.8424663737  MEMB      8               0.0000000000
     39725      1268  PPPE      H2S           -12.0604382201        2.5671741639      -14.6575227380  MEMB      8               0.0000000000
     39726      1268  PPPE      C3            -12.3856072022       -1.4789808972      -14.5329874907  MEMB      8               0.0000000000
     39727      1268  PPPE      HX            -12.4274419194       -2.5807425422      -14.6351368091  MEMB      8               0.0000000000
     39728      1268  PPPE      HY            -11.3180881425       -1.1749872274      -14.4972316847  MEMB      8               0.0000000000
     39729      1268  PPPE      O31           -13.0892757567       -1.1242704337      -13.3597249302  MEMB      8               0.0000000000
     39730      1268  PPPE      C31           -12.3489745330       -0.4789142443      -12.4405411986  MEMB      8               0.0000000000
     39731      1268  PPPE      O32           -11.1777595675       -0.2251280416      -12.4762971822  MEMB      8               0.0000000000
     39732      1268  PPPE      C32           -13.2253207507       -0.1817341561      -11.3033510529  MEMB      8               0.0000000000
     39733      1268  PPPE      H2X           -13.4224284520       -1.2691776330      -11.1943796417  MEMB      8               0.0000000000
     39734      1268  PPPE      H2Y           -14.0176971374        0.4044828146      -11.7970339264  MEMB      8               0.0000000000
     39735      1268  PPPE      C23           -13.8969214938        3.4541456217      -13.7980017726  MEMB      8               0.0000000000
     39736      1268  PPPE      H3R           -13.9144679834        2.8405065614      -12.8684841393  MEMB      8               0.0000000000
     39737      1268  PPPE      H3S           -14.9235799693        3.7607839054      -14.0738485069  MEMB      8               0.0000000000
     39738      1268  PPPE      C24           -13.1077579947        4.6595380918      -13.4550672397  MEMB      8               0.0000000000
     39739      1268  PPPE      H4R           -13.6777302263        5.4749007563      -12.9527489532  MEMB      8               0.0000000000
     39740      1268  PPPE      H4S           -12.8034575718        5.0090393050      -14.4672923871  MEMB      8               0.0000000000
     39741      1268  PPPE      C25           -11.9057260858        4.1383641596      -12.6771069408  MEMB      8               0.0000000000
     39742      1268  PPPE      H5R           -10.9937803665        4.6881067721      -12.9557716873  MEMB      8               0.0000000000
     39743      1268  PPPE      H5S           -11.6163138170        3.1183661489      -12.9027672080  MEMB      8               0.0000000000
     39744      1268  PPPE      C26           -12.0215073530        4.0736026273      -11.1752879340  MEMB      8               0.0000000000
     39745      1268  PPPE      H6R           -12.8254167101        3.6145576683      -10.6011090979  MEMB      8               0.0000000000
     39746      1268  PPPE      H6S           -12.5660462359        5.0360744270      -11.1522737605  MEMB      8               0.0000000000
     39747      1268  PPPE      C27           -10.5051345979        3.8029178944      -10.7370792649  MEMB      8               0.0000000000
     39748      1268  PPPE      H7R            -9.8384346133        4.5401789265      -11.2807599613  MEMB      8               0.0000000000
     39749      1268  PPPE      H7S           -10.1837314550        2.8024556186      -10.9988757898  MEMB      8               0.0000000000
     39750      1268  PPPE      C28            -9.9864651633        3.9410645982       -9.2950495629  MEMB      8               0.0000000000
     39751      1268  PPPE      H8R           -10.6010471048        3.4339830275       -8.5462968207  MEMB      8               0.0000000000
     39752      1268  PPPE      H8S           -10.0339240465        5.0124972504       -9.2570248087  MEMB      8               0.0000000000
     39753      1268  PPPE      C29            -8.6352190967        4.2248307021       -8.8402845409  MEMB      8               0.0000000000
     39754      1268  PPPE      H91            -8.1185451687        4.7054504432       -9.6638583150  MEMB      8               0.0000000000
     39755      1268  PPPE      C210           -8.0851668235        4.0368182856       -7.6380982996  MEMB      8               0.0000000000
     39756      1268  PPPE      H101           -7.0853671411        4.4362455882       -7.3859893777  MEMB      8               0.0000000000
     39757      1268  PPPE      C211           -8.8089875817        3.4485154576       -6.4950922730  MEMB      8               0.0000000000
     39758      1268  PPPE      H11R           -9.8620880277        3.1851652428       -6.6673197562  MEMB      8               0.0000000000
     39759      1268  PPPE      H11S           -8.9156161178        4.2188549066       -5.8412693350  MEMB      8               0.0000000000
     39760      1268  PPPE      C212           -7.9420459740        2.4717506999       -5.7302141743  MEMB      8               0.0000000000
     39761      1268  PPPE      H12R           -6.9015957328        2.8584355696       -5.6044166289  MEMB      8               0.0000000000
     39762      1268  PPPE      H12S           -7.9312612159        1.6056889711       -6.4165047193  MEMB      8               0.0000000000
     39763      1268  PPPE      C213           -8.5237584369        2.0204452217       -4.3855931228  MEMB      8               0.0000000000
     39764      1268  PPPE      H13R           -7.8615891553        1.2427435685       -3.9874406028  MEMB      8               0.0000000000
     39765      1268  PPPE      H13S           -9.5322041775        1.6390270125       -4.5234454986  MEMB      8               0.0000000000
     39766      1268  PPPE      C214           -8.4142864179        2.9527134102       -3.2113937821  MEMB      8               0.0000000000
     39767      1268  PPPE      H14R           -8.6714449716        3.9617889756       -3.3096137080  MEMB      8               0.0000000000
     39768      1268  PPPE      H14S           -7.4040985161        2.8518174704       -3.0334687844  MEMB      8               0.0000000000
     39769      1268  PPPE      C215           -8.5830857537        2.5423611339       -1.7758195922  MEMB      8               0.0000000000
     39770      1268  PPPE      H15R           -9.0055066443        1.5922899591       -1.9889924650  MEMB      8               0.0000000000
     39771      1268  PPPE      H15S           -9.0805933434        3.4051221066       -1.3268500343  MEMB      8               0.0000000000
     39772      1268  PPPE      C216           -7.6909426314        2.0569240993       -0.7009506833  MEMB      8               0.0000000000
     39773      1268  PPPE      H16R           -7.1848696524        2.7145499020       -0.1296203464  MEMB      8               0.0000000000
     39774      1268  PPPE      H16S           -8.2386443781        1.7872494380        0.1944173965  MEMB      8               0.0000000000
     39775      1268  PPPE      H16T           -6.8869293730        1.4603292540       -1.0743802692  MEMB      8               0.0000000000
     39776      1268  PPPE      C33           -12.8571433565        0.4344743596       -9.8732268540  MEMB      8               0.0000000000
     39777      1268  PPPE      H3X           -12.5717771964        1.4489756188      -10.1663826217  MEMB      8               0.0000000000
     39778      1268  PPPE      H3Y           -12.1536897414       -0.2897727483       -9.4019885485  MEMB      8               0.0000000000
     39779      1268  PPPE      C34           -13.8729256744        0.8225161768       -8.7203229692  MEMB      8               0.0000000000
     39780      1268  PPPE      H4X           -14.1968297578       -0.0863764818       -8.3092887538  MEMB      8               0.0000000000
     39781      1268  PPPE      H4Y           -14.8385438960        1.3239786776       -8.9502111017  MEMB      8               0.0000000000
     39782      1268  PPPE      C35           -13.5697400107        0.9645596798       -7.3030913759  MEMB      8               0.0000000000
     39783      1268  PPPE      H5X           -12.9799156108        0.0927410667       -6.9286509111  MEMB      8               0.0000000000
     39784      1268  PPPE      H5Y           -14.5840128434        1.1105836717       -6.8120051050  MEMB      8               0.0000000000
     39785      1268  PPPE      C36           -13.0137205914        2.2413832380       -7.4166140540  MEMB      8               0.0000000000
     39786      1268  PPPE      H6X           -12.3359756999        2.2951213026       -8.2920484220  MEMB      8               0.0000000000
     39787      1268  PPPE      H6Y           -12.4301617815        2.2468836482       -6.4876941860  MEMB      8               0.0000000000
     39788      1268  PPPE      C37           -14.2632043356        3.0925619628       -7.6137859169  MEMB      8               0.0000000000
     39789      1268  PPPE      H7X           -14.9639989671        3.0323713265       -6.7670167871  MEMB      8               0.0000000000
     39790      1268  PPPE      H7Y           -14.7584417322        3.1252326212       -8.6219131143  MEMB      8               0.0000000000
     39791      1268  PPPE      C38           -13.8528146526        4.3898026269       -7.4773540335  MEMB      8               0.0000000000
     39792      1268  PPPE      H8X           -14.7256244038        5.0687014557       -7.4920160439  MEMB      8               0.0000000000
     39793      1268  PPPE      H8Y           -13.4577111364        4.5773963220       -8.4992583845  MEMB      8               0.0000000000
     39794      1268  PPPE      C39           -12.9578619363        4.3923923577       -6.2098372209  MEMB      8               0.0000000000
     39795      1268  PPPE      H9X           -12.8872636334        5.3660640819       -5.7764264318  MEMB      8               0.0000000000
     39796      1268  PPPE      H9Y           -11.8922069879        4.0690157968       -6.2071147037  MEMB      8               0.0000000000
     39797      1268  PPPE      C310          -13.6217590505        4.5266084640       -4.9765580371  MEMB      8               0.0000000000
     39798      1268  PPPE      H10X          -13.8095310534        3.4448298781       -5.0089397915  MEMB      8               0.0000000000
     39799      1268  PPPE      H10Y          -14.5275623588        5.1893299669       -5.1118747111  MEMB      8               0.0000000000
     39800      1268  PPPE      C311          -12.8231750390        5.0267891822       -3.8244329062  MEMB      8               0.0000000000
     39801      1268  PPPE      H11X          -12.7048837036        6.0701818008       -3.4773242076  MEMB      8               0.0000000000
     39802      1268  PPPE      H11Y          -11.7521839048        4.7858506132       -4.1259906977  MEMB      8               0.0000000000
     39803      1268  PPPE      C312          -13.3875036538        4.4954241075       -2.4772348041  MEMB      8               0.0000000000
     39804      1268  PPPE      H12X          -14.2972434404        4.7864577337       -2.1867571786  MEMB      8               0.0000000000
     39805      1268  PPPE      H12Y          -12.9777712435        5.0440888641       -1.7373988419  MEMB      8               0.0000000000
     39806      1268  PPPE      C313          -13.4681815177        3.0244994734       -2.4048586488  MEMB      8               0.0000000000
     39807      1268  PPPE      H13X          -12.4217264704        3.4519008063       -2.7319347314  MEMB      8               0.0000000000
     39808      1268  PPPE      H13Y          -14.0214552693        2.8480217581       -3.2771538399  MEMB      8               0.0000000000
     39809      1268  PPPE      C314          -13.6609170101        1.4699439167       -1.6346341445  MEMB      8               0.0000000000
     39810      1268  PPPE      H14X          -14.0971350195        1.7022174261       -0.6976305694  MEMB      8               0.0000000000
     39811      1268  PPPE      H14Y          -12.9324713735        0.9817276256       -1.0860260380  MEMB      8               0.0000000000
     39812      1268  PPPE      C315          -12.8015419226       -0.0235713759       -1.9352739872  MEMB      8               0.0000000000
     39813      1268  PPPE      H15X          -11.8137776035       -0.1982793036       -2.5326385303  MEMB      8               0.0000000000
     39814      1268  PPPE      H15Y          -13.5370400691       -0.4773284283       -2.5147607351  MEMB      8               0.0000000000
     39815      1268  PPPE      C316          -12.0402828604       -0.7453908038       -0.9072730007  MEMB      8               0.0000000000
     39816      1268  PPPE      H16X          -11.7332254896       -1.6647210377       -1.4175098838  MEMB      8               0.0000000000
     39817      1268  PPPE      H16Y          -11.0963561919       -0.2890789614       -0.5544968605  MEMB      8               0.0000000000
     39818      1268  PPPE      H16Z          -12.7740887921       -0.7484102359       -0.0909024314  MEMB      8               0.0000000000
     39819      1269  PPPE      N              -4.0239023111       11.9440734219      -20.5415778727  MEMB      9               0.0000000000
     39820      1269  PPPE      HN1            -3.1984219839       12.4068633204      -20.9884268252  MEMB      9               0.0000000000
     39821      1269  PPPE      HN2            -4.5878374837       11.4880745874      -21.2756925609  MEMB      9               0.0000000000
     39822      1269  PPPE      HN3            -4.5532461203       12.6899237867      -20.0218960217  MEMB      9               0.0000000000
     39823      1269  PPPE      C12            -3.4582274076       10.9716007546      -19.5402472745  MEMB      9               0.0000000000
     39824      1269  PPPE      H12A           -2.6737821939       10.3820271222      -20.0524101886  MEMB      9               0.0000000000
     39825      1269  PPPE      H12B           -4.2516776841       10.2696139032      -19.2256340644  MEMB      9               0.0000000000
     39826      1269  PPPE      C11            -2.8191658728       11.7473019488      -18.3786589114  MEMB      9               0.0000000000
     39827      1269  PPPE      H11A           -2.3116118656       11.0377841055      -17.6836962545  MEMB      9               0.0000000000
     39828      1269  PPPE      H11B           -3.6048803885       12.2768915798      -17.7819006128  MEMB      9               0.0000000000
     39829      1269  PPPE      P              -2.0072004538       14.2237643450      -18.8038698889  MEMB      9               0.0000000000
     39830      1269  PPPE      O13            -0.8403614591       14.8330362606      -19.4622177149  MEMB      9               0.0000000000
     39831      1269  PPPE      O14            -3.3686413806       14.5063546212      -19.2893596852  MEMB      9               0.0000000000
     39832      1269  PPPE      O11            -1.9764709071       14.4281599866      -17.2499536132  MEMB      9               0.0000000000
     39833      1269  PPPE      O12            -1.8412135416       12.6423373163      -18.9126139655  MEMB      9               0.0000000000
     39834      1269  PPPE      C1             -0.9348124220       13.9565548277      -16.4152392748  MEMB      9               0.0000000000
     39835      1269  PPPE      HA             -0.0559518313       14.5960035750      -16.6090594595  MEMB      9               0.0000000000
     39836      1269  PPPE      HB             -0.6442285054       12.9048889515      -16.6377958306  MEMB      9               0.0000000000
     39837      1269  PPPE      C2             -1.3208275024       14.0971835495      -14.9235250800  MEMB      9               0.0000000000
     39838      1269  PPPE      HS             -0.6801754842       13.4542556928      -14.2771849787  MEMB      9               0.0000000000
     39839      1269  PPPE      O21            -2.7023348481       13.7783053294      -14.7963296731  MEMB      9               0.0000000000
     39840      1269  PPPE      C21            -3.1067100688       12.8922252084      -13.9417823558  MEMB      9               0.0000000000
     39841      1269  PPPE      O22            -2.4689268344       12.3567325053      -13.0506447901  MEMB      9               0.0000000000
     39842      1269  PPPE      C22            -4.5811517142       12.7025527494      -14.2639720888  MEMB      9               0.0000000000
     39843      1269  PPPE      H2R            -4.9228405420       11.6633220065      -14.0895950083  MEMB      9               0.0000000000
     39844      1269  PPPE      H2S            -4.7231631498       12.9332342862      -15.3434535236  MEMB      9               0.0000000000
     39845      1269  PPPE      C3             -1.0850608588       15.5602697147      -14.4908618738  MEMB      9               0.0000000000
     39846      1269  PPPE      HX             -0.0444472354       15.8307293653      -14.7740268750  MEMB      9               0.0000000000
     39847      1269  PPPE      HY             -1.7610750246       16.2417874038      -15.0600820072  MEMB      9               0.0000000000
     39848      1269  PPPE      O31            -1.1998478384       15.6314791923      -13.0638478027  MEMB      9               0.0000000000
     39849      1269  PPPE      C31            -2.1630298312       16.3730179491      -12.5631377207  MEMB      9               0.0000000000
     39850      1269  PPPE      O32            -2.8955713541       17.1261409517      -13.1760174234  MEMB      9               0.0000000000
     39851      1269  PPPE      C32            -2.2064902041       16.2189411647      -11.0413131501  MEMB      9               0.0000000000
     39852      1269  PPPE      H2X            -3.2476196605       16.3919814080      -10.6949216915  MEMB      9               0.0000000000
     39853      1269  PPPE      H2Y            -1.5311275368       17.0053659460      -10.6477101663  MEMB      9               0.0000000000
     39854      1269  PPPE      C23            -5.3807816770       13.7351358387      -13.4715196436  MEMB      9               0.0000000000
     39855      1269  PPPE      H3R            -6.3912369003       13.8227379075      -13.9273842040  MEMB      9               0.0000000000
     39856      1269  PPPE      H3S            -4.9177129473       14.7507133356      -13.5062974996  MEMB      9               0.0000000000
     39857      1269  PPPE      C24            -5.5270538789       13.3277456996      -12.0266325747  MEMB      9               0.0000000000
     39858      1269  PPPE      H4R            -4.5454970287       13.1853940427      -11.5276061348  MEMB      9               0.0000000000
     39859      1269  PPPE      H4S            -6.1372436840       12.3985995318      -11.9439894588  MEMB      9               0.0000000000
     39860      1269  PPPE      C25            -6.2197598572       14.4170861402      -11.2884711252  MEMB      9               0.0000000000
     39861      1269  PPPE      H5R            -7.1852382337       14.5755888595      -11.8061357082  MEMB      9               0.0000000000
     39862      1269  PPPE      H5S            -5.5918938198       15.3453520644      -11.3105111586  MEMB      9               0.0000000000
     39863      1269  PPPE      C26            -6.4457864525       13.9679141142       -9.8934070147  MEMB      9               0.0000000000
     39864      1269  PPPE      H6R            -6.8232887739       14.6871970031       -9.2418701971  MEMB      9               0.0000000000
     39865      1269  PPPE      H6S            -5.4561523122       13.6951851818       -9.4860162709  MEMB      9               0.0000000000
     39866      1269  PPPE      C27            -7.6634060991       13.0926627093       -9.6329506221  MEMB      9               0.0000000000
     39867      1269  PPPE      H7R            -7.5049494234       12.2068473789      -10.2764483656  MEMB      9               0.0000000000
     39868      1269  PPPE      H7S            -8.6133552316       13.6170154386       -9.8881438740  MEMB      9               0.0000000000
     39869      1269  PPPE      C28            -7.7849257635       12.7174893951       -8.1718594435  MEMB      9               0.0000000000
     39870      1269  PPPE      H8R            -8.6379375794       12.0010553114       -8.0869072768  MEMB      9               0.0000000000
     39871      1269  PPPE      H8S            -8.0067677996       13.4389425476       -7.3970403963  MEMB      9               0.0000000000
     39872      1269  PPPE      C29            -6.4089909538       12.2065646930       -7.9620782349  MEMB      9               0.0000000000
     39873      1269  PPPE      H91            -6.3613484060       11.2732876706       -8.5359456866  MEMB      9               0.0000000000
     39874      1269  PPPE      C210           -5.3734964383       12.5963877730       -7.1392733851  MEMB      9               0.0000000000
     39875      1269  PPPE      H101           -4.6609908308       11.8891282216       -6.6797742606  MEMB      9               0.0000000000
     39876      1269  PPPE      C211           -5.2371297899       13.6503099924       -6.1785529118  MEMB      9               0.0000000000
     39877      1269  PPPE      H11R           -5.9277275687       14.3411339003       -6.5359186312  MEMB      9               0.0000000000
     39878      1269  PPPE      H11S           -4.2286872747       13.9990959270       -6.4204592822  MEMB      9               0.0000000000
     39879      1269  PPPE      C212           -5.4480387042       13.4357347951       -4.6643976985  MEMB      9               0.0000000000
     39880      1269  PPPE      H12R           -4.9776030852       14.3001571913       -4.1704737896  MEMB      9               0.0000000000
     39881      1269  PPPE      H12S           -4.8900310490       12.5352551651       -4.3344691537  MEMB      9               0.0000000000
     39882      1269  PPPE      C213           -6.9328607763       13.4626412599       -4.2318725891  MEMB      9               0.0000000000
     39883      1269  PPPE      H13R           -7.3772148197       12.5920237946       -4.6459309019  MEMB      9               0.0000000000
     39884      1269  PPPE      H13S           -7.6082704160       14.0048908213       -4.8796001425  MEMB      9               0.0000000000
     39885      1269  PPPE      C214           -7.3721213975       13.4088512293       -2.7212902249  MEMB      9               0.0000000000
     39886      1269  PPPE      H14R           -6.8983157570       12.6313672153       -2.0822276879  MEMB      9               0.0000000000
     39887      1269  PPPE      H14S           -8.4682291832       13.2801056207       -2.6684506765  MEMB      9               0.0000000000
     39888      1269  PPPE      C215           -6.8781855706       14.3232803857       -1.7208566075  MEMB      9               0.0000000000
     39889      1269  PPPE      H15R           -7.3618876354       15.1921485062       -1.9428111160  MEMB      9               0.0000000000
     39890      1269  PPPE      H15S           -5.7913582802       14.4993378591       -1.8113815957  MEMB      9               0.0000000000
     39891      1269  PPPE      C216           -7.6946782413       14.4509249885       -0.4614723334  MEMB      9               0.0000000000
     39892      1269  PPPE      H16R           -7.4297840712       15.3174733059        0.1378624886  MEMB      9               0.0000000000
     39893      1269  PPPE      H16S           -8.7812667112       14.6304352532       -0.7195134571  MEMB      9               0.0000000000
     39894      1269  PPPE      H16T           -7.3951590607       13.6905259175        0.2294275631  MEMB      9               0.0000000000
     39895      1269  PPPE      C33            -1.7062161704       14.8731895647      -10.5135149218  MEMB      9               0.0000000000
     39896      1269  PPPE      H3X            -0.6480393040       14.7855994734      -10.8485622428  MEMB      9               0.0000000000
     39897      1269  PPPE      H3Y            -2.2896820758       14.0642852992      -11.0074226782  MEMB      9               0.0000000000
     39898      1269  PPPE      C34            -1.8037762547       14.7746788759       -8.9778386509  MEMB      9               0.0000000000
     39899      1269  PPPE      H4X            -2.8740727753       14.7035183819       -8.6721083266  MEMB      9               0.0000000000
     39900      1269  PPPE      H4Y            -1.3336002579       15.6434572416       -8.4916012120  MEMB      9               0.0000000000
     39901      1269  PPPE      C35            -1.0333386025       13.6173683706       -8.4127677445  MEMB      9               0.0000000000
     39902      1269  PPPE      H5X            -0.7915489200       13.6244102908       -7.3219884581  MEMB      9               0.0000000000
     39903      1269  PPPE      H5Y            -0.0676935776       13.5037475750       -8.9630623221  MEMB      9               0.0000000000
     39904      1269  PPPE      C36            -1.8757927716       12.4191248601       -8.5468212457  MEMB      9               0.0000000000
     39905      1269  PPPE      H6X            -2.1171203996       12.2628669035       -9.6351419503  MEMB      9               0.0000000000
     39906      1269  PPPE      H6Y            -2.8407161879       12.3898682748       -8.0097053563  MEMB      9               0.0000000000
     39907      1269  PPPE      C37            -0.9953623663       11.3621114048       -7.9796913159  MEMB      9               0.0000000000
     39908      1269  PPPE      H7X            -0.0417335128       11.3567620552       -8.5575382213  MEMB      9               0.0000000000
     39909      1269  PPPE      H7Y            -1.7444280150       10.6171614385       -8.1560556237  MEMB      9               0.0000000000
     39910      1269  PPPE      C38            -0.6657729016       11.0173849355       -6.5722495876  MEMB      9               0.0000000000
     39911      1269  PPPE      H8X             0.1564640638       11.7077904175       -6.3369367776  MEMB      9               0.0000000000
     39912      1269  PPPE      H8Y            -0.2935249630        9.9687093994       -6.5252283091  MEMB      9               0.0000000000
     39913      1269  PPPE      C39            -1.8738301299       11.0486367354       -5.6857506449  MEMB      9               0.0000000000
     39914      1269  PPPE      H9X            -2.6056486073       10.2932106231       -5.9866913363  MEMB      9               0.0000000000
     39915      1269  PPPE      H9Y            -2.3231566733       12.0419728524       -5.8569372190  MEMB      9               0.0000000000
     39916      1269  PPPE      C310           -1.4774768079       10.7080016836       -4.2686317532  MEMB      9               0.0000000000
     39917      1269  PPPE      H10X           -0.3998709679       10.9665022679       -4.1809018989  MEMB      9               0.0000000000
     39918      1269  PPPE      H10Y           -1.6015526252        9.6212128029       -4.0627601839  MEMB      9               0.0000000000
     39919      1269  PPPE      C311           -2.1243868795       11.5603126031       -3.2132111715  MEMB      9               0.0000000000
     39920      1269  PPPE      H11X           -1.6462857160       11.2248314508       -2.2580294506  MEMB      9               0.0000000000
     39921      1269  PPPE      H11Y           -3.2133375948       11.3690945095       -3.1623673659  MEMB      9               0.0000000000
     39922      1269  PPPE      C312           -1.9362349604       13.0397018542       -3.5870110995  MEMB      9               0.0000000000
     39923      1269  PPPE      H12X           -2.7954229643       13.4202532136       -4.1427225363  MEMB      9               0.0000000000
     39924      1269  PPPE      H12Y           -0.9944319262       13.1537112097       -4.1822305452  MEMB      9               0.0000000000
     39925      1269  PPPE      C313           -1.9523460514       13.9978455286       -2.4384848801  MEMB      9               0.0000000000
     39926      1269  PPPE      H13X           -1.7668880886       15.0699825802       -2.5252603788  MEMB      9               0.0000000000
     39927      1269  PPPE      H13Y           -0.9042487811       13.7169741167       -2.2636176449  MEMB      9               0.0000000000
     39928      1269  PPPE      C314           -3.1074246646       13.7360489977       -1.4075297060  MEMB      9               0.0000000000
     39929      1269  PPPE      H14X           -3.0162621646       12.6934535371       -1.0003928392  MEMB      9               0.0000000000
     39930      1269  PPPE      H14Y           -4.0757926744       13.6280316397       -1.8808986884  MEMB      9               0.0000000000
     39931      1269  PPPE      C315           -3.2901608253       14.8319770654       -0.2979904286  MEMB      9               0.0000000000
     39932      1269  PPPE      H15X           -3.5241566952       15.8560790630       -0.5328610295  MEMB      9               0.0000000000
     39933      1269  PPPE      H15Y           -2.2742827167       15.2677966909       -0.0973146762  MEMB      9               0.0000000000
     39934      1269  PPPE      C316           -4.0880341238       14.3602944510        0.9954478117  MEMB      9               0.0000000000
     39935      1269  PPPE      H16X           -3.9359275973       15.0777466145        1.8285056700  MEMB      9               0.0000000000
     39936      1269  PPPE      H16Y           -5.1085298892       14.0881164626        0.7340646287  MEMB      9               0.0000000000
     39937      1269  PPPE      H16Z           -3.7521163053       13.4441031934        1.5410597522  MEMB      9               0.0000000000
     39938      1270  PVPG      C13           -11.4113296778        9.7365202043      -21.8596294130  MEMB      10              0.0000000000
     39939      1270  PVPG      H13A          -11.6383308231       10.7451726911      -22.2544644001  MEMB      10              0.0000000000
     39940      1270  PVPG      H13B          -10.8396966500        9.2186215417      -22.6664241449  MEMB      10              0.0000000000
     39941      1270  PVPG      OC3           -12.6185317313        9.0218064022      -21.5607379680  MEMB      10              0.0000000000
     39942      1270  PVPG      HO3           -13.3740739015        9.5973762873      -21.6924976389  MEMB      10              0.0000000000
     39943      1270  PVPG      C12           -10.5111326935        9.9174583283      -20.6087945772  MEMB      10              0.0000000000
     39944      1270  PVPG      H12A           -9.7676440296       10.7012135464      -20.8443764548  MEMB      10              0.0000000000
     39945      1270  PVPG      OC2            -9.7491113053        8.7398407044      -20.3923182608  MEMB      10              0.0000000000
     39946      1270  PVPG      HO2            -9.4542397411        8.7747797091      -19.4477667919  MEMB      10              0.0000000000
     39947      1270  PVPG      C11           -11.2377521190       10.4308167553      -19.3343474927  MEMB      10              0.0000000000
     39948      1270  PVPG      H11A          -11.8786315600        9.6365690759      -18.8855486031  MEMB      10              0.0000000000
     39949      1270  PVPG      H11B          -11.9173944419       11.2432100832      -19.6721867419  MEMB      10              0.0000000000
     39950      1270  PVPG      P              -9.7131477780       10.1085269010      -17.2434745404  MEMB      10              0.0000000000
     39951      1270  PVPG      O13            -8.7861631960       10.9258254121      -16.4319737159  MEMB      10              0.0000000000
     39952      1270  PVPG      O14            -9.1582789514        8.8945841205      -17.8854774861  MEMB      10              0.0000000000
     39953      1270  PVPG      O12           -10.3192366340       11.0120693605      -18.4004824341  MEMB      10              0.0000000000
     39954      1270  PVPG      O11           -11.0313445406        9.7548457218      -16.4497210789  MEMB      10              0.0000000000
     39955      1270  PVPG      C1            -11.3983112281        8.4101234198      -16.1890371238  MEMB      10              0.0000000000
     39956      1270  PVPG      HA            -11.2715202285        7.7461299964      -17.0754155562  MEMB      10              0.0000000000
     39957      1270  PVPG      HB            -12.4716208445        8.4077821930      -15.9008159893  MEMB      10              0.0000000000
     39958      1270  PVPG      C2            -10.6434384462        7.9526156725      -14.9426689345  MEMB      10              0.0000000000
     39959      1270  PVPG      HS            -10.7622511362        8.7871142693      -14.2089072788  MEMB      10              0.0000000000
     39960      1270  PVPG      O21            -9.2913479252        7.6189273270      -15.2415620466  MEMB      10              0.0000000000
     39961      1270  PVPG      C21            -8.4605059973        8.0903570682      -14.3526383178  MEMB      10              0.0000000000
     39962      1270  PVPG      O22            -8.7210036966        8.6842500875      -13.3213033001  MEMB      10              0.0000000000
     39963      1270  PVPG      C22            -7.1350589244        7.5559258011      -14.6613580053  MEMB      10              0.0000000000
     39964      1270  PVPG      H2R            -6.3405273156        8.2651773314      -14.3706216831  MEMB      10              0.0000000000
     39965      1270  PVPG      H2S            -7.0064240040        7.2636629601      -15.7265732647  MEMB      10              0.0000000000
     39966      1270  PVPG      C3            -11.2530400112        6.7793971550      -14.2560863032  MEMB      10              0.0000000000
     39967      1270  PVPG      HX            -12.3615689539        6.8963174003      -14.3049586133  MEMB      10              0.0000000000
     39968      1270  PVPG      HY            -10.9818234707        5.8358400465      -14.8058119838  MEMB      10              0.0000000000
     39969      1270  PVPG      O31           -10.7420163467        6.7891282198      -12.9045172841  MEMB      10              0.0000000000
     39970      1270  PVPG      C31           -11.5980004501        7.1520532467      -11.9612230115  MEMB      10              0.0000000000
     39971      1270  PVPG      O32           -12.7728765695        7.4199330216      -12.1104511950  MEMB      10              0.0000000000
     39972      1270  PVPG      C32           -11.0117641290        6.9278801886      -10.5928355372  MEMB      10              0.0000000000
     39973      1270  PVPG      H2X            -9.9462363401        6.7124575969      -10.4645480419  MEMB      10              0.0000000000
     39974      1270  PVPG      H2Y           -11.0278484513        5.9150967947      -10.6200924602  MEMB      10              0.0000000000
     39975      1270  PVPG      C23            -7.0846341776        6.4196607984      -13.6731761684  MEMB      10              0.0000000000
     39976      1270  PVPG      H3R            -6.6533172609        5.6967967723      -14.3340042048  MEMB      10              0.0000000000
     39977      1270  PVPG      H3S            -7.9119370035        5.7313095099      -13.4589138535  MEMB      10              0.0000000000
     39978      1270  PVPG      C24            -6.3638560487        6.8814123834      -12.4065884829  MEMB      10              0.0000000000
     39979      1270  PVPG      H4R            -6.9456116365        7.6590173367      -11.8984736078  MEMB      10              0.0000000000
     39980      1270  PVPG      H4S            -5.3430771273        7.2501215803      -12.6699691509  MEMB      10              0.0000000000
     39981      1270  PVPG      C25            -6.1305384452        5.8959595288      -11.3068974238  MEMB      10              0.0000000000
     39982      1270  PVPG      H5R            -5.1975972503        5.5676639956      -11.7641611902  MEMB      10              0.0000000000
     39983      1270  PVPG      H5S            -6.8106070180        5.0284350117      -11.1765059791  MEMB      10              0.0000000000
     39984      1270  PVPG      C26            -5.5434750782        6.4789104829      -10.0716444808  MEMB      10              0.0000000000
     39985      1270  PVPG      H6R            -4.7488581920        7.1776639621      -10.3669459082  MEMB      10              0.0000000000
     39986      1270  PVPG      H6S            -5.0584924301        5.7085991613       -9.5074573713  MEMB      10              0.0000000000
     39987      1270  PVPG      C27            -6.6485063169        6.8482559997       -9.1685878776  MEMB      10              0.0000000000
     39988      1270  PVPG      H7R            -7.0414947786        5.8735097203       -9.0254319086  MEMB      10              0.0000000000
     39989      1270  PVPG      H7S            -7.3330446198        7.5189061980       -9.7039032216  MEMB      10              0.0000000000
     39990      1270  PVPG      C28            -6.4621290721        6.9501228036       -7.6824544134  MEMB      10              0.0000000000
     39991      1270  PVPG      H8R            -5.6431129085        7.5499734758       -7.5384494708  MEMB      10              0.0000000000
     39992      1270  PVPG      H8S            -5.9204045301        6.1498555726       -7.1680018429  MEMB      10              0.0000000000
     39993      1270  PVPG      C29            -7.7420732478        7.4584226936       -7.0217937803  MEMB      10              0.0000000000
     39994      1270  PVPG      H9R            -8.4929308782        6.7140879661       -7.2057348717  MEMB      10              0.0000000000
     39995      1270  PVPG      H9S            -8.1759431960        8.3460632505       -7.5159632872  MEMB      10              0.0000000000
     39996      1270  PVPG      C210           -7.6765169763        7.7526933941       -5.5376894171  MEMB      10              0.0000000000
     39997      1270  PVPG      H10R           -8.4304794712        8.4669709892       -5.1553672462  MEMB      10              0.0000000000
     39998      1270  PVPG      H10S           -6.9717231532        8.3557570811       -5.1462113282  MEMB      10              0.0000000000
     39999      1270  PVPG      C211           -6.9101890675        6.8602816826       -4.7152867704  MEMB      10              0.0000000000
     40000      1270  PVPG      H111           -6.0082613378        7.1720625737       -4.1267136624  MEMB      10              0.0000000000
     40001      1270  PVPG      C212           -7.7622290346        6.0154284589       -4.2873621564  MEMB      10              0.0000000000
     40002      1270  PVPG      H121           -7.5362217033        5.2685603534       -3.6175034487  MEMB      10              0.0000000000
     40003      1270  PVPG      C213           -9.1599789892        5.9929619834       -4.6198287309  MEMB      10              0.0000000000
     40004      1270  PVPG      H13R           -9.5872572848        5.0208148882       -4.3909220188  MEMB      10              0.0000000000
     40005      1270  PVPG      H13S           -9.2223738158        6.0350806006       -5.6949122894  MEMB      10              0.0000000000
     40006      1270  PVPG      C214          -10.1424491641        6.8714979087       -4.0239049926  MEMB      10              0.0000000000
     40007      1270  PVPG      H14R          -11.0237793072        6.5479521736       -4.5490439813  MEMB      10              0.0000000000
     40008      1270  PVPG      H14S           -9.8577931611        7.9268151751       -4.1043260774  MEMB      10              0.0000000000
     40009      1270  PVPG      C215          -10.3707650253        6.6876696839       -2.6172028816  MEMB      10              0.0000000000
     40010      1270  PVPG      H15R          -10.9106637128        7.4953974506       -2.0980408574  MEMB      10              0.0000000000
     40011      1270  PVPG      H15S           -9.3170295321        6.6771844643       -2.5086740494  MEMB      10              0.0000000000
     40012      1270  PVPG      C216          -10.4925860637        5.4051239839       -1.9184834388  MEMB      10              0.0000000000
     40013      1270  PVPG      H16R          -10.1171386280        4.5558571925       -2.4152919607  MEMB      10              0.0000000000
     40014      1270  PVPG      H16S          -11.3401680640        5.4663756516       -2.3958467327  MEMB      10              0.0000000000
     40015      1270  PVPG      C217          -11.1671423410        5.4986225063       -0.5874241246  MEMB      10              0.0000000000
     40016      1270  PVPG      H17R          -12.1239357198        5.9368229949       -0.4636843799  MEMB      10              0.0000000000
     40017      1270  PVPG      H17S          -10.6195617554        5.6753645189        0.3183701968  MEMB      10              0.0000000000
     40018      1270  PVPG      C218          -11.2448028239        4.4468893453       -0.0623296999  MEMB      10              0.0000000000
     40019      1270  PVPG      H18R          -12.0732010456        4.0197389315       -0.6572452416  MEMB      10              0.0000000000
     40020      1270  PVPG      H18S          -10.3451135095        3.8351336703       -0.1677032810  MEMB      10              0.0000000000
     40021      1270  PVPG      H18T          -11.5942077129        4.4341307632        0.9960945321  MEMB      10              0.0000000000
     40022      1270  PVPG      C33           -12.0976161266        6.7325131349       -9.5350123929  MEMB      10              0.0000000000
     40023      1270  PVPG      H3X           -13.0918018821        6.2416547259       -9.7681803789  MEMB      10              0.0000000000
     40024      1270  PVPG      H3Y           -12.2709433903        7.7747599407       -9.3170641056  MEMB      10              0.0000000000
     40025      1270  PVPG      C34           -11.5981710806        6.1318039046       -8.3070935027  MEMB      10              0.0000000000
     40026      1270  PVPG      H4X           -10.5245700802        6.2882633792       -8.0161043200  MEMB      10              0.0000000000
     40027      1270  PVPG      H4Y           -11.7299927715        5.0090286626       -8.3050693910  MEMB      10              0.0000000000
     40028      1270  PVPG      C35           -12.4406716112        6.7079803140       -7.3257821967  MEMB      10              0.0000000000
     40029      1270  PVPG      H5X           -11.7090874975        6.0675715348       -6.7195718340  MEMB      10              0.0000000000
     40030      1270  PVPG      H5Y           -13.5391973297        6.5498239853       -7.2806353596  MEMB      10              0.0000000000
     40031      1270  PVPG      C36           -12.2624567892        7.7843636289       -6.4626656016  MEMB      10              0.0000000000
     40032      1270  PVPG      H6X           -12.3748885467        8.4679094112       -7.3095683584  MEMB      10              0.0000000000
     40033      1270  PVPG      H6Y           -11.2604187964        7.6420767479       -6.0206562388  MEMB      10              0.0000000000
     40034      1270  PVPG      C37           -13.2953090623        7.8614626410       -5.3747308361  MEMB      10              0.0000000000
     40035      1270  PVPG      H7X           -13.4168553004        7.0985672165       -4.6422985320  MEMB      10              0.0000000000
     40036      1270  PVPG      H7Y           -14.3668087620        7.7742692421       -5.6476411071  MEMB      10              0.0000000000
     40037      1270  PVPG      C38           -12.6898494653        9.0137435505       -4.6122790298  MEMB      10              0.0000000000
     40038      1270  PVPG      H8X           -12.9854511739        9.9358259075       -5.1409520235  MEMB      10              0.0000000000
     40039      1270  PVPG      H8Y           -11.6247680982        8.9408361856       -4.3407517138  MEMB      10              0.0000000000
     40040      1270  PVPG      C39           -13.2028679824        9.0886888418       -3.2780124927  MEMB      10              0.0000000000
     40041      1270  PVPG      H9X           -13.5270437634        8.1382344500       -2.8372751285  MEMB      10              0.0000000000
     40042      1270  PVPG      H9Y           -14.1482119742        9.0027759074       -3.7765321306  MEMB      10              0.0000000000
     40043      1270  PVPG      C310          -13.0408785546       10.4859884157       -2.5029519768  MEMB      10              0.0000000000
     40044      1270  PVPG      H10X          -13.7588945848       10.7426899086       -1.6899048919  MEMB      10              0.0000000000
     40045      1270  PVPG      H10Y          -13.3264831885       11.2411136973       -3.2612749364  MEMB      10              0.0000000000
     40046      1270  PVPG      C311          -11.7572182814       10.6859279290       -1.6652838881  MEMB      10              0.0000000000
     40047      1270  PVPG      H11X          -11.5506353621       11.7516723231       -1.4555319454  MEMB      10              0.0000000000
     40048      1270  PVPG      H11Y          -11.0475460397       10.1218297783       -2.2945640800  MEMB      10              0.0000000000
     40049      1270  PVPG      C312          -11.6761887779       10.1143204595       -0.2395085017  MEMB      10              0.0000000000
     40050      1270  PVPG      H12X          -11.3934760719        9.0452296340       -0.4211568296  MEMB      10              0.0000000000
     40051      1270  PVPG      H12Y          -12.6173721118       10.2791360719        0.3465281372  MEMB      10              0.0000000000
     40052      1270  PVPG      C313          -10.5484370103       10.3124560459        0.6729540144  MEMB      10              0.0000000000
     40053      1270  PVPG      H13X          -10.8580106676        9.9183540357        1.6867367137  MEMB      10              0.0000000000
     40054      1270  PVPG      H13Y          -10.3410220475       11.3433571876        0.4462068612  MEMB      10              0.0000000000
     40055      1270  PVPG      C314           -9.2930130243        9.7265424917        0.2202314568  MEMB      10              0.0000000000
     40056      1270  PVPG      H14X           -9.3675747985        9.8875660852       -0.8340322443  MEMB      10              0.0000000000
     40057      1270  PVPG      H14Y           -9.7957149771        8.8573596807        0.3502126822  MEMB      10              0.0000000000
     40058      1270  PVPG      C315           -8.0473080457        9.8604260620        1.1488167983  MEMB      10              0.0000000000
     40059      1270  PVPG      H15X           -8.4351889581        9.7761342808        2.1349057604  MEMB      10              0.0000000000
     40060      1270  PVPG      H15Y           -7.8724907569       10.9052246483        0.9739249706  MEMB      10              0.0000000000
     40061      1270  PVPG      C316           -6.7113470214        9.0110116295        1.2616643879  MEMB      10              0.0000000000
     40062      1270  PVPG      H16X           -6.8300557584        7.9640759192        1.0425034151  MEMB      10              0.0000000000
     40063      1270  PVPG      H16Y           -5.9502696336        9.2512522342        0.5377755431  MEMB      10              0.0000000000
     40064      1270  PVPG      H16Z           -5.9122968073        9.2303268118        1.9355391129  MEMB      10              0.0000000000
     40065      1271  PPPE      N              -3.4136635094      -14.3931665522      -19.5885968997  MEMB      11              0.0000000000
     40066      1271  PPPE      HN1            -3.5907840019      -14.5226072523      -20.6079053931  MEMB      11              0.0000000000
     40067      1271  PPPE      HN2            -2.4034930732      -14.2012244002      -19.4231435111  MEMB      11              0.0000000000
     40068      1271  PPPE      HN3            -3.6752839102      -15.2729543286      -19.0811150879  MEMB      11              0.0000000000
     40069      1271  PPPE      C12            -4.2939580630      -13.2453780364      -19.1749945819  MEMB      11              0.0000000000
     40070      1271  PPPE      H12A           -3.8682694425      -12.3149206477      -19.6020699446  MEMB      11              0.0000000000
     40071      1271  PPPE      H12B           -4.2925570095      -13.1870241818      -18.0654664012  MEMB      11              0.0000000000
     40072      1271  PPPE      C11            -5.7151112021      -13.3857530067      -19.7348682243  MEMB      11              0.0000000000
     40073      1271  PPPE      H11A           -6.1093412255      -14.4170283353      -19.5568524654  MEMB      11              0.0000000000
     40074      1271  PPPE      H11B           -5.7507255671      -13.2129918492      -20.8354460676  MEMB      11              0.0000000000
     40075      1271  PPPE      P              -8.0444326628      -12.6889585559      -18.7972348114  MEMB      11              0.0000000000
     40076      1271  PPPE      O13            -8.6382789005      -11.5707847617      -18.0431139171  MEMB      11              0.0000000000
     40077      1271  PPPE      O14            -8.6831300255      -13.2212782009      -20.0271038425  MEMB      11              0.0000000000
     40078      1271  PPPE      O11            -7.8740992224      -13.8516553411      -17.7679771065  MEMB      11              0.0000000000
     40079      1271  PPPE      O12            -6.5092223851      -12.3852244769      -19.1105731261  MEMB      11              0.0000000000
     40080      1271  PPPE      C1             -7.0108940249      -13.6615928784      -16.6566442352  MEMB      11              0.0000000000
     40081      1271  PPPE      HA             -6.9244719569      -12.6314462420      -16.2580948894  MEMB      11              0.0000000000
     40082      1271  PPPE      HB             -6.0262319500      -14.0885544112      -16.9535961770  MEMB      11              0.0000000000
     40083      1271  PPPE      C2             -7.5607218176      -14.5413985468      -15.5708737189  MEMB      11              0.0000000000
     40084      1271  PPPE      HS             -7.7178941508      -15.3717387683      -16.2344926100  MEMB      11              0.0000000000
     40085      1271  PPPE      O21            -8.8250111657      -14.1624604667      -15.0755740732  MEMB      11              0.0000000000
     40086      1271  PPPE      C21            -9.3535199595      -15.1148148225      -14.3377727533  MEMB      11              0.0000000000
     40087      1271  PPPE      O22            -8.8957852230      -16.0985686804      -13.8351233735  MEMB      11              0.0000000000
     40088      1271  PPPE      C22           -10.6480818065      -14.7916634913      -14.0938783812  MEMB      11              0.0000000000
     40089      1271  PPPE      H2R           -11.3577209571      -15.2127792254      -14.8502718741  MEMB      11              0.0000000000
     40090      1271  PPPE      H2S           -10.7464237030      -13.6772663282      -14.1782098526  MEMB      11              0.0000000000
     40091      1271  PPPE      C3             -6.6035451918      -14.6649376820      -14.3843528718  MEMB      11              0.0000000000
     40092      1271  PPPE      HX             -6.8953735712      -15.5289379907      -13.7544215012  MEMB      11              0.0000000000
     40093      1271  PPPE      HY             -5.6042326824      -14.8960205403      -14.7736671532  MEMB      11              0.0000000000
     40094      1271  PPPE      O31            -6.5418423102      -13.4289208385      -13.6718206303  MEMB      11              0.0000000000
     40095      1271  PPPE      C31            -6.7607399559      -13.5306202844      -12.3817121967  MEMB      11              0.0000000000
     40096      1271  PPPE      O32            -6.9008060915      -14.5432128963      -11.7285107714  MEMB      11              0.0000000000
     40097      1271  PPPE      C32            -6.8375860050      -12.1238842162      -11.8303610970  MEMB      11              0.0000000000
     40098      1271  PPPE      H2X            -7.7084374273      -11.6303940633      -12.3128371593  MEMB      11              0.0000000000
     40099      1271  PPPE      H2Y            -5.9027452902      -11.5915790161      -12.1068685686  MEMB      11              0.0000000000
     40100      1271  PPPE      C23           -11.0659216571      -15.3942127341      -12.7340832696  MEMB      11              0.0000000000
     40101      1271  PPPE      H3R           -11.1392011548      -16.2545102524      -12.1899980525  MEMB      11              0.0000000000
     40102      1271  PPPE      H3S           -12.0634875802      -15.6281905698      -12.8279566740  MEMB      11              0.0000000000
     40103      1271  PPPE      C24           -10.6972565496      -14.9869212896      -11.4735702787  MEMB      11              0.0000000000
     40104      1271  PPPE      H4R            -9.9447752559      -14.1844077266      -11.9262985613  MEMB      11              0.0000000000
     40105      1271  PPPE      H4S            -9.5766302430      -15.1260171726      -11.1807634395  MEMB      11              0.0000000000
     40106      1271  PPPE      C25           -12.1268247858      -14.4753267252       -9.8744504364  MEMB      11              0.0000000000
     40107      1271  PPPE      H5R           -12.0633093996      -15.4132677368      -10.4166841105  MEMB      11              0.0000000000
     40108      1271  PPPE      H5S           -13.1321688890      -14.3995356623       -9.9057839002  MEMB      11              0.0000000000
     40109      1271  PPPE      C26           -11.1492267390      -13.4740874793       -8.2381498603  MEMB      11              0.0000000000
     40110      1271  PPPE      H6R           -10.7672164279      -12.3751845267       -8.3470753374  MEMB      11              0.0000000000
     40111      1271  PPPE      H6S            -9.9243450036      -13.5763705438       -8.2526950198  MEMB      11              0.0000000000
     40112      1271  PPPE      C27           -11.5207526335      -13.3019753825       -7.0307236381  MEMB      11              0.0000000000
     40113      1271  PPPE      H7R           -11.5417623762      -14.2344840957       -6.5763770588  MEMB      11              0.0000000000
     40114      1271  PPPE      H7S           -12.3677605673      -13.0620660707       -7.6595391816  MEMB      11              0.0000000000
     40115      1271  PPPE      C28           -10.4217966326      -12.5877187641       -6.3174688719  MEMB      11              0.0000000000
     40116      1271  PPPE      H8R           -10.3550728880      -11.5675636963       -6.6306256887  MEMB      11              0.0000000000
     40117      1271  PPPE      H8S            -9.4775015618      -13.1868401661       -6.3702272371  MEMB      11              0.0000000000
     40118      1271  PPPE      C29           -11.0714387670      -12.6603408739       -5.0636352288  MEMB      11              0.0000000000
     40119      1271  PPPE      H91           -11.8090982295      -11.9418855348       -4.8174463722  MEMB      11              0.0000000000
     40120      1271  PPPE      C210          -10.7602332763      -13.5289124195       -4.2391483732  MEMB      11              0.0000000000
     40121      1271  PPPE      H101          -11.3843327451      -13.4952469671       -3.4438848757  MEMB      11              0.0000000000
     40122      1271  PPPE      C211           -9.7126249988      -14.4971905664       -4.4282599861  MEMB      11              0.0000000000
     40123      1271  PPPE      H11R           -8.7970289026      -13.8910022332       -4.3597737568  MEMB      11              0.0000000000
     40124      1271  PPPE      H11S           -9.7333239239      -15.1587035081       -5.2879480902  MEMB      11              0.0000000000
     40125      1271  PPPE      C212           -9.7127336506      -15.3406921019       -3.3169729897  MEMB      11              0.0000000000
     40126      1271  PPPE      H12R           -8.9103439382      -16.0179082952       -3.5238193083  MEMB      11              0.0000000000
     40127      1271  PPPE      H12S          -10.5043404588      -16.1193935823       -3.4514529100  MEMB      11              0.0000000000
     40128      1271  PPPE      C213           -9.2044532210      -14.5215697918       -2.1418930306  MEMB      11              0.0000000000
     40129      1271  PPPE      H13R           -9.2795379573      -15.0030116085       -1.2523864775  MEMB      11              0.0000000000
     40130      1271  PPPE      H13S           -9.5702802072      -14.1727907180       -1.2063932982  MEMB      11              0.0000000000
     40131      1271  PPPE      C214           -8.6936987632      -13.1376109002       -2.0274569189  MEMB      11              0.0000000000
     40132      1271  PPPE      H14R           -8.0745576388      -12.7252899772       -2.7744089374  MEMB      11              0.0000000000
     40133      1271  PPPE      H14S           -7.9618693554      -13.8374206613       -2.3236623715  MEMB      11              0.0000000000
     40134      1271  PPPE      C215           -8.4597393915      -12.6344289269       -0.5485677307  MEMB      11              0.0000000000
     40135      1271  PPPE      H15R           -8.3724466359      -13.3044919455        0.3300255499  MEMB      11              0.0000000000
     40136      1271  PPPE      H15S           -9.4385815953      -12.3882294413       -0.1022159253  MEMB      11              0.0000000000
     40137      1271  PPPE      C216           -7.2221965097      -11.7418535202       -0.4843094127  MEMB      11              0.0000000000
     40138      1271  PPPE      H16R           -7.2771423279      -11.1421502287       -1.3877948125  MEMB      11              0.0000000000
     40139      1271  PPPE      H16S           -7.2298199452      -10.9881988132        0.3080056034  MEMB      11              0.0000000000
     40140      1271  PPPE      H16T           -6.2514344725      -12.2684391136       -0.3069339927  MEMB      11              0.0000000000
     40141      1271  PPPE      C33            -6.9889515048      -12.1378533586      -10.3042424172  MEMB      11              0.0000000000
     40142      1271  PPPE      H3X            -6.1376539566      -12.6871333858       -9.8523438920  MEMB      11              0.0000000000
     40143      1271  PPPE      H3Y            -7.8885108041      -12.6793915378       -9.9951963265  MEMB      11              0.0000000000
     40144      1271  PPPE      C34            -7.0815897007      -10.7236264767       -9.7422520259  MEMB      11              0.0000000000
     40145      1271  PPPE      H4X            -7.8134832063      -10.1648851453      -10.3714696961  MEMB      11              0.0000000000
     40146      1271  PPPE      H4Y            -6.0866898595      -10.2438923125       -9.8692829452  MEMB      11              0.0000000000
     40147      1271  PPPE      C35            -7.5872354125      -10.7159687992       -8.2942464411  MEMB      11              0.0000000000
     40148      1271  PPPE      H5X            -8.3936894886      -11.4655288278       -8.1752663386  MEMB      11              0.0000000000
     40149      1271  PPPE      H5Y            -8.0574199751       -9.7422527163       -8.0344982107  MEMB      11              0.0000000000
     40150      1271  PPPE      C36            -6.5522027284      -11.0968304788       -7.2366611794  MEMB      11              0.0000000000
     40151      1271  PPPE      H6X            -5.7252077386      -10.4005049378       -7.2187130805  MEMB      11              0.0000000000
     40152      1271  PPPE      H6Y            -6.0641689019      -12.0489043830       -7.5020176701  MEMB      11              0.0000000000
     40153      1271  PPPE      C37            -7.2079952501      -11.0535858022       -5.8532894386  MEMB      11              0.0000000000
     40154      1271  PPPE      H7X            -7.9595369277      -11.8633670601       -5.8025510617  MEMB      11              0.0000000000
     40155      1271  PPPE      H7Y            -7.7503017739      -10.0846412722       -5.7634055381  MEMB      11              0.0000000000
     40156      1271  PPPE      C38            -6.2436804930      -11.1604537342       -4.6719316125  MEMB      11              0.0000000000
     40157      1271  PPPE      H8X            -6.8099096383      -11.0651740199       -3.7192697881  MEMB      11              0.0000000000
     40158      1271  PPPE      H8Y            -5.5095501865      -10.3371248014       -4.6848966940  MEMB      11              0.0000000000
     40159      1271  PPPE      C39            -5.5404792371      -12.5068568411       -4.6361441809  MEMB      11              0.0000000000
     40160      1271  PPPE      H9X            -4.9012259674      -12.6699022657       -5.5296140147  MEMB      11              0.0000000000
     40161      1271  PPPE      H9Y            -6.3538554066      -13.2683414766       -4.6173954264  MEMB      11              0.0000000000
     40162      1271  PPPE      C310           -4.6631867156      -12.6893140066       -3.4074260821  MEMB      11              0.0000000000
     40163      1271  PPPE      H10X           -5.0770351807      -12.0784936539       -2.5657734444  MEMB      11              0.0000000000
     40164      1271  PPPE      H10Y           -3.6421402133      -12.3378669326       -3.6597585427  MEMB      11              0.0000000000
     40165      1271  PPPE      C311           -4.6196315265      -14.1641388744       -3.0211565883  MEMB      11              0.0000000000
     40166      1271  PPPE      H11X           -4.3973301477      -14.8460371510       -3.8589907576  MEMB      11              0.0000000000
     40167      1271  PPPE      H11Y           -5.6557046839      -14.3999605874       -2.8529911093  MEMB      11              0.0000000000
     40168      1271  PPPE      C312           -3.6436754793      -14.4662670186       -1.8832605881  MEMB      11              0.0000000000
     40169      1271  PPPE      H12X           -3.3296209719      -13.5086773597       -1.4079002686  MEMB      11              0.0000000000
     40170      1271  PPPE      H12Y           -2.8295586280      -15.0560716998       -2.3006389881  MEMB      11              0.0000000000
     40171      1271  PPPE      C313           -4.1446959297      -15.2730456338       -0.7300836693  MEMB      11              0.0000000000
     40172      1271  PPPE      H13X           -4.9732180377      -14.7347526976       -0.6498685116  MEMB      11              0.0000000000
     40173      1271  PPPE      H13Y           -3.9918413908      -14.9664596436        0.3187791992  MEMB      11              0.0000000000
     40174      1271  PPPE      C314           -4.3782608766      -16.7154059277       -0.8433919933  MEMB      11              0.0000000000
     40175      1271  PPPE      H14X           -3.3957084595      -17.2257696456       -0.8703605470  MEMB      11              0.0000000000
     40176      1271  PPPE      H14Y           -4.7150787295      -17.0822237570       -1.8572526967  MEMB      11              0.0000000000
     40177      1271  PPPE      C315           -5.2769581334      -17.0834419847        0.4749077922  MEMB      11              0.0000000000
     40178      1271  PPPE      H15X           -4.8958087359      -17.0281533105        1.4753029013  MEMB      11              0.0000000000
     40179      1271  PPPE      H15Y           -4.8368847015      -17.7956423636       -0.1311866416  MEMB      11              0.0000000000
     40180      1271  PPPE      C316           -6.3003628359      -18.2318160049        0.4484727501  MEMB      11              0.0000000000
     40181      1271  PPPE      H16X           -6.9536079329      -18.8402147551        1.0464363434  MEMB      11              0.0000000000
     40182      1271  PPPE      H16Y           -7.2510272916      -17.9482064030        0.6279728088  MEMB      11              0.0000000000
     40183      1271  PPPE      H16Z           -6.3728860631      -18.1112034108       -0.5700907085  MEMB      11              0.0000000000
     40184      1272  PPPE      N             -13.0934519258       -4.8878088579      -19.8660882610  MEMB      12              0.0000000000
     40185      1272  PPPE      HN1           -13.5444382584       -4.8883652302      -20.8157959549  MEMB      12              0.0000000000
     40186      1272  PPPE      HN2           -13.0068309975       -3.8990443265      -19.5410996098  MEMB      12              0.0000000000
     40187      1272  PPPE      HN3           -12.1463722444       -5.3077383674      -19.9595698797  MEMB      12              0.0000000000
     40188      1272  PPPE      C12           -13.9148776905       -5.6301941371      -18.8442973404  MEMB      12              0.0000000000
     40189      1272  PPPE      H12A          -14.8529883362       -5.0646983082      -18.6717441630  MEMB      12              0.0000000000
     40190      1272  PPPE      H12B          -13.3127386608       -5.6399793250      -17.9081737563  MEMB      12              0.0000000000
     40191      1272  PPPE      C11           -14.1971195577       -7.0717884167      -19.2634151514  MEMB      12              0.0000000000
     40192      1272  PPPE      H11A          -13.9258724071       -7.2168633243      -20.3398570242  MEMB      12              0.0000000000
     40193      1272  PPPE      H11B          -15.2812902049       -7.3065622361      -19.1339477085  MEMB      12              0.0000000000
     40194      1272  PPPE      P             -13.3123060203       -9.4416588812      -18.8343335713  MEMB      12              0.0000000000
     40195      1272  PPPE      O13           -13.2625134547       -9.4461756341      -20.3198475385  MEMB      12              0.0000000000
     40196      1272  PPPE      O14           -12.1953140446      -10.0260532897      -18.0787849904  MEMB      12              0.0000000000
     40197      1272  PPPE      O11           -14.6963052725       -9.9757968405      -18.2889457376  MEMB      12              0.0000000000
     40198      1272  PPPE      O12           -13.4349648926       -7.9221626365      -18.4139396635  MEMB      12              0.0000000000
     40199      1272  PPPE      C1            -14.7237391183      -10.4491246073      -16.9293453776  MEMB      12              0.0000000000
     40200      1272  PPPE      HA            -13.9560826247       -9.9297247679      -16.3118501067  MEMB      12              0.0000000000
     40201      1272  PPPE      HB            -14.5087274798      -11.5337694300      -16.9097089677  MEMB      12              0.0000000000
     40202      1272  PPPE      C2            -16.0510488795      -10.1829025630      -16.1823120033  MEMB      12              0.0000000000
     40203      1272  PPPE      HS            -16.8496331665      -10.8479922810      -16.5983189053  MEMB      12              0.0000000000
     40204      1272  PPPE      O21           -16.3531169788       -8.8153673912      -16.3465100368  MEMB      12              0.0000000000
     40205      1272  PPPE      C21           -17.5998096351       -8.6266511955      -16.0448650557  MEMB      12              0.0000000000
     40206      1272  PPPE      O22           -18.4661795589       -9.4366412204      -16.0694256440  MEMB      12              0.0000000000
     40207      1272  PPPE      C22           -17.7903779716       -7.2445605876      -15.8385184314  MEMB      12              0.0000000000
     40208      1272  PPPE      H2R           -18.6143425575       -7.1099737744      -16.5905187046  MEMB      12              0.0000000000
     40209      1272  PPPE      H2S           -16.9081083596       -6.8080419933      -16.3529240813  MEMB      12              0.0000000000
     40210      1272  PPPE      C3            -15.9709861406      -10.4141691322      -14.6615248883  MEMB      12              0.0000000000
     40211      1272  PPPE      HX            -16.9561250865      -10.2071302852      -14.1905448715  MEMB      12              0.0000000000
     40212      1272  PPPE      HY            -15.7463916026      -11.4961736046      -14.4958463820  MEMB      12              0.0000000000
     40213      1272  PPPE      O31           -15.0239765046       -9.4300895736      -14.1574417111  MEMB      12              0.0000000000
     40214      1272  PPPE      C31           -13.9437320814       -9.9481880191      -13.6458093554  MEMB      12              0.0000000000
     40215      1272  PPPE      O32           -13.8705499221      -11.0697226636      -13.2323867448  MEMB      12              0.0000000000
     40216      1272  PPPE      C32           -12.7743935134       -9.0147047917      -13.6096817549  MEMB      12              0.0000000000
     40217      1272  PPPE      H2X           -12.9825800319       -8.1641162999      -14.2783432589  MEMB      12              0.0000000000
     40218      1272  PPPE      H2Y           -11.8562644287       -9.5431093364      -13.9634429680  MEMB      12              0.0000000000
     40219      1272  PPPE      C23           -18.0909045423       -6.7160340575      -14.3786569295  MEMB      12              0.0000000000
     40220      1272  PPPE      H3R           -19.0545739963       -7.0213982793      -13.9285791364  MEMB      12              0.0000000000
     40221      1272  PPPE      H3S           -18.1219146762       -5.5974369531      -14.2847862449  MEMB      12              0.0000000000
     40222      1272  PPPE      C24           -17.1147475775       -6.9196110962      -13.3134777770  MEMB      12              0.0000000000
     40223      1272  PPPE      H4R           -16.1519010798       -6.4810537107      -13.5991811586  MEMB      12              0.0000000000
     40224      1272  PPPE      H4S           -17.1371323982       -8.0128127389      -13.2710820395  MEMB      12              0.0000000000
     40225      1272  PPPE      C25           -17.7100872924       -6.2254210209      -12.1197123676  MEMB      12              0.0000000000
     40226      1272  PPPE      H5R           -18.6720743798       -6.7738152088      -11.9523587547  MEMB      12              0.0000000000
     40227      1272  PPPE      H5S           -17.8452189045       -5.1179694258      -12.3082232271  MEMB      12              0.0000000000
     40228      1272  PPPE      C26           -17.0057810371       -6.4188296684      -10.8403755035  MEMB      12              0.0000000000
     40229      1272  PPPE      H6R           -15.9437865839       -6.3916713241      -11.1405638370  MEMB      12              0.0000000000
     40230      1272  PPPE      H6S           -17.3141732112       -7.4213343113      -10.4723583617  MEMB      12              0.0000000000
     40231      1272  PPPE      C27           -17.3122922549       -5.3282881137       -9.8223039846  MEMB      12              0.0000000000
     40232      1272  PPPE      H7R           -18.3566623797       -5.3479894389       -9.5162413164  MEMB      12              0.0000000000
     40233      1272  PPPE      H7S           -17.1755257752       -4.3280857427      -10.2899488626  MEMB      12              0.0000000000
     40234      1272  PPPE      C28           -16.4311782059       -5.4690235700       -8.5772418053  MEMB      12              0.0000000000
     40235      1272  PPPE      H8R           -16.5416191027       -4.5368809574       -7.9910055563  MEMB      12              0.0000000000
     40236      1272  PPPE      H8S           -15.3877470143       -5.4775539948       -8.9606711450  MEMB      12              0.0000000000
     40237      1272  PPPE      C29           -16.6336660170       -6.6780910269       -7.6884109888  MEMB      12              0.0000000000
     40238      1272  PPPE      H91           -16.2547580655       -7.6231152485       -8.1061238364  MEMB      12              0.0000000000
     40239      1272  PPPE      C210          -17.2267955074       -6.7222794997       -6.4766585231  MEMB      12              0.0000000000
     40240      1272  PPPE      H101          -17.1468387178       -7.6566394193       -5.8975640307  MEMB      12              0.0000000000
     40241      1272  PPPE      C211          -17.8439788274       -5.5762942355       -5.7110159109  MEMB      12              0.0000000000
     40242      1272  PPPE      H11R          -18.9409467843       -5.7445088603       -5.6639659745  MEMB      12              0.0000000000
     40243      1272  PPPE      H11S          -17.6907599407       -4.6052918394       -6.2302904448  MEMB      12              0.0000000000
     40244      1272  PPPE      C212          -17.3971180517       -5.4478979906       -4.2452505303  MEMB      12              0.0000000000
     40245      1272  PPPE      H12R          -17.5876241150       -6.4056191431       -3.7124716333  MEMB      12              0.0000000000
     40246      1272  PPPE      H12S          -18.0097602047       -4.6503930144       -3.7516121807  MEMB      12              0.0000000000
     40247      1272  PPPE      C213          -15.9228375633       -5.0677718454       -4.1137372147  MEMB      12              0.0000000000
     40248      1272  PPPE      H13R          -15.8187739298       -4.0331828052       -4.5061206644  MEMB      12              0.0000000000
     40249      1272  PPPE      H13S          -15.2640555417       -5.7801709642       -4.6472503221  MEMB      12              0.0000000000
     40250      1272  PPPE      C214          -15.4533669020       -4.9982912964       -2.6882758786  MEMB      12              0.0000000000
     40251      1272  PPPE      H14R          -16.3995839104       -5.0772595930       -2.1269603112  MEMB      12              0.0000000000
     40252      1272  PPPE      H14S          -14.9702186927       -3.9937917812       -2.5365262309  MEMB      12              0.0000000000
     40253      1272  PPPE      C215          -14.4587764467       -6.0835846209       -2.2937134154  MEMB      12              0.0000000000
     40254      1272  PPPE      H15R          -13.6466827320       -6.0979088122       -3.0524113973  MEMB      12              0.0000000000
     40255      1272  PPPE      H15S          -14.9072115627       -7.0927980771       -2.1844058173  MEMB      12              0.0000000000
     40256      1272  PPPE      C216          -13.8077458550       -5.6708422426       -1.0294763686  MEMB      12              0.0000000000
     40257      1272  PPPE      H16R          -13.6805545970       -4.5746588055       -1.1027650041  MEMB      12              0.0000000000
     40258      1272  PPPE      H16S          -14.2814819774       -6.0449920079       -0.1117043160  MEMB      12              0.0000000000
     40259      1272  PPPE      H16T          -12.7854543866       -5.9717447728       -0.8842792896  MEMB      12              0.0000000000
     40260      1272  PPPE      C33           -12.4527411978       -8.6373489431      -12.1590657264  MEMB      12              0.0000000000
     40261      1272  PPPE      H3X           -11.4100378528       -8.2509454474      -12.1999480238  MEMB      12              0.0000000000
     40262      1272  PPPE      H3Y           -12.4937960934       -9.5157097867      -11.4720355999  MEMB      12              0.0000000000
     40263      1272  PPPE      C34           -13.2971232959       -7.5116991596      -11.5747250616  MEMB      12              0.0000000000
     40264      1272  PPPE      H4X           -14.2729444387       -7.9285671080      -11.2364080310  MEMB      12              0.0000000000
     40265      1272  PPPE      H4Y           -13.4718381709       -6.7691514515      -12.3901905891  MEMB      12              0.0000000000
     40266      1272  PPPE      C35           -12.5744046943       -6.8846059842      -10.3674502248  MEMB      12              0.0000000000
     40267      1272  PPPE      H5X           -13.1376242347       -6.0243701564       -9.9525151625  MEMB      12              0.0000000000
     40268      1272  PPPE      H5Y           -11.5852007484       -6.5012065536      -10.7125870147  MEMB      12              0.0000000000
     40269      1272  PPPE      C36           -12.3169254485       -7.8996870953       -9.2342088169  MEMB      12              0.0000000000
     40270      1272  PPPE      H6X           -11.5740747796       -8.6148143887       -9.6507152767  MEMB      12              0.0000000000
     40271      1272  PPPE      H6Y           -13.2552845075       -8.4394920108       -8.9697093269  MEMB      12              0.0000000000
     40272      1272  PPPE      C37           -11.7238777841       -7.2478218267       -7.9731987630  MEMB      12              0.0000000000
     40273      1272  PPPE      H7X           -12.5218218426       -6.6889972150       -7.4352591172  MEMB      12              0.0000000000
     40274      1272  PPPE      H7Y           -10.9470210721       -6.5431970217       -8.3457304785  MEMB      12              0.0000000000
     40275      1272  PPPE      C38           -11.0280873343       -8.1772358942       -6.9687958745  MEMB      12              0.0000000000
     40276      1272  PPPE      H8X           -10.5144512693       -7.5922110527       -6.1704950627  MEMB      12              0.0000000000
     40277      1272  PPPE      H8Y           -10.2538775197       -8.7726054230       -7.4975221701  MEMB      12              0.0000000000
     40278      1272  PPPE      C39           -11.9627517718       -9.1019276905       -6.2216484176  MEMB      12              0.0000000000
     40279      1272  PPPE      H9X           -11.3847829334       -9.5717007542       -5.3885189524  MEMB      12              0.0000000000
     40280      1272  PPPE      H9Y           -12.3298570900       -9.8890974637       -6.9335186814  MEMB      12              0.0000000000
     40281      1272  PPPE      C310          -13.1707612956       -8.4193734671       -5.5532170970  MEMB      12              0.0000000000
     40282      1272  PPPE      H10X          -13.9635859816       -8.4009478991       -6.3430270037  MEMB      12              0.0000000000
     40283      1272  PPPE      H10Y          -12.9401983267       -7.4378459014       -5.1290735037  MEMB      12              0.0000000000
     40284      1272  PPPE      C311          -13.6843880693       -9.1436559225       -4.3524880691  MEMB      12              0.0000000000
     40285      1272  PPPE      H11X          -14.7011871902       -8.8942784643       -3.9632956180  MEMB      12              0.0000000000
     40286      1272  PPPE      H11Y          -12.9679887463       -9.2875160191       -3.5039598820  MEMB      12              0.0000000000
     40287      1272  PPPE      C312          -14.0368211557      -10.3719243248       -4.9552697875  MEMB      12              0.0000000000
     40288      1272  PPPE      H12X          -13.1456300639      -10.8717591140       -5.4035592941  MEMB      12              0.0000000000
     40289      1272  PPPE      H12Y          -14.8208108883      -10.3301968558       -5.7141930889  MEMB      12              0.0000000000
     40290      1272  PPPE      C313          -14.5794178018      -11.1035505709       -3.8398088303  MEMB      12              0.0000000000
     40291      1272  PPPE      H13X          -13.6458126062      -11.5337511678       -3.5668031948  MEMB      12              0.0000000000
     40292      1272  PPPE      H13Y          -15.2056484963      -11.8533518878       -4.2618739657  MEMB      12              0.0000000000
     40293      1272  PPPE      C314          -15.8473861959      -11.0080137544       -3.0432825683  MEMB      12              0.0000000000
     40294      1272  PPPE      H14X          -16.4775010299      -11.9689813176       -3.0191353897  MEMB      12              0.0000000000
     40295      1272  PPPE      H14Y          -16.4489394161      -10.2531269468       -3.5514269157  MEMB      12              0.0000000000
     40296      1272  PPPE      C315          -15.3727380139      -10.8247345958       -1.6569986181  MEMB      12              0.0000000000
     40297      1272  PPPE      H15X          -14.5240728123      -10.0999977971       -1.6586079311  MEMB      12              0.0000000000
     40298      1272  PPPE      H15Y          -14.9884118469      -11.6911375165       -1.0674727451  MEMB      12              0.0000000000
     40299      1272  PPPE      C316          -16.5348055517      -10.3982131556       -0.9056103429  MEMB      12              0.0000000000
     40300      1272  PPPE      H16X          -15.8785167588      -10.1181972173       -0.0889108259  MEMB      12              0.0000000000
     40301      1272  PPPE      H16Y          -17.0291005322       -9.5647583061       -1.4406162597  MEMB      12              0.0000000000
     40302      1272  PPPE      H16Z          -17.2471462207      -11.1865882643       -0.5803506700  MEMB      12              0.0000000000
     40303      1273  PPPE      N              11.6392677895       12.5702099986      -21.7518908595  MEMB      13              0.0000000000
     40304      1273  PPPE      HN1            12.0537024820       12.5327427908      -22.7102035797  MEMB      13              0.0000000000
     40305      1273  PPPE      HN2            10.8590242883       13.2398596394      -21.7045348407  MEMB      13              0.0000000000
     40306      1273  PPPE      HN3            12.3860155314       12.8400095558      -21.0695176802  MEMB      13              0.0000000000
     40307      1273  PPPE      C12            11.0837565753       11.2141110431      -21.4003840201  MEMB      13              0.0000000000
     40308      1273  PPPE      H12A           11.7684221777       10.4535419553      -21.8143867876  MEMB      13              0.0000000000
     40309      1273  PPPE      H12B           10.0882045620       11.1311919007      -21.8869544932  MEMB      13              0.0000000000
     40310      1273  PPPE      C11            10.9039045722       11.0020514319      -19.8909542036  MEMB      13              0.0000000000
     40311      1273  PPPE      H11A           10.4357616554        9.9963183911      -19.7620422218  MEMB      13              0.0000000000
     40312      1273  PPPE      H11B           10.2147673002       11.7946731339      -19.5205776466  MEMB      13              0.0000000000
     40313      1273  PPPE      P              12.3575027200       10.3413060923      -17.7543969202  MEMB      13              0.0000000000
     40314      1273  PPPE      O13            12.4485047144        8.8842650078      -17.9277478243  MEMB      13              0.0000000000
     40315      1273  PPPE      O14            13.4349241305       11.0836222809      -17.0790554319  MEMB      13              0.0000000000
     40316      1273  PPPE      O11            10.9952591959       10.6427520727      -17.0496776365  MEMB      13              0.0000000000
     40317      1273  PPPE      O12            12.1357547749       11.0537566560      -19.1908503461  MEMB      13              0.0000000000
     40318      1273  PPPE      C1             10.4977573945       11.9491266127      -16.9018850920  MEMB      13              0.0000000000
     40319      1273  PPPE      HA              9.4170282202       11.8201582160      -17.0079908615  MEMB      13              0.0000000000
     40320      1273  PPPE      HB             10.8874266994       12.6564161925      -17.6962881223  MEMB      13              0.0000000000
     40321      1273  PPPE      C2             10.8111690317       12.5591332702      -15.5112133825  MEMB      13              0.0000000000
     40322      1273  PPPE      HS             11.8242211221       13.0261458067      -15.7256654546  MEMB      13              0.0000000000
     40323      1273  PPPE      O21            10.8508073440       11.6783709232      -14.4141553365  MEMB      13              0.0000000000
     40324      1273  PPPE      C21            11.6816963137       12.1281799836      -13.4888695044  MEMB      13              0.0000000000
     40325      1273  PPPE      O22            12.4509767146       13.0671682937      -13.5705153653  MEMB      13              0.0000000000
     40326      1273  PPPE      C22            11.4768537032       11.3205347915      -12.2527414816  MEMB      13              0.0000000000
     40327      1273  PPPE      H2R            10.3906322764       11.1250545870      -12.1118352818  MEMB      13              0.0000000000
     40328      1273  PPPE      H2S            11.8682081130       11.9271133819      -11.4067007011  MEMB      13              0.0000000000
     40329      1273  PPPE      C3              9.8916824897       13.6997672318      -15.0089795259  MEMB      13              0.0000000000
     40330      1273  PPPE      HX             10.5445885644       14.2745155289      -14.3555679161  MEMB      13              0.0000000000
     40331      1273  PPPE      HY             10.2065851467       14.2624698408      -15.9409497988  MEMB      13              0.0000000000
     40332      1273  PPPE      O31             8.4262972067       13.6712384395      -14.4420973139  MEMB      13              0.0000000000
     40333      1273  PPPE      C31             6.9759307632       13.5102336415      -14.3866336294  MEMB      13              0.0000000000
     40334      1273  PPPE      O32             5.9312086763       13.9764880768      -14.7284636512  MEMB      13              0.0000000000
     40335      1273  PPPE      C32             7.1559493692       12.9807446596      -13.2720780718  MEMB      13              0.0000000000
     40336      1273  PPPE      H2X             7.0502368920       12.0747458649      -14.0088870327  MEMB      13              0.0000000000
     40337      1273  PPPE      H2Y             8.0281172345       13.5365349486      -12.6590364529  MEMB      13              0.0000000000
     40338      1273  PPPE      C23            12.2314648074        9.9938042426      -12.4155805027  MEMB      13              0.0000000000
     40339      1273  PPPE      H3R            13.1545753239       10.1137656218      -13.0327128121  MEMB      13              0.0000000000
     40340      1273  PPPE      H3S            11.5797427173        9.2966128779      -12.9849969272  MEMB      13              0.0000000000
     40341      1273  PPPE      C24            12.5528517461        9.3519154523      -11.0725534187  MEMB      13              0.0000000000
     40342      1273  PPPE      H4R            13.3475298460        9.9307882162      -10.5471351699  MEMB      13              0.0000000000
     40343      1273  PPPE      H4S            12.9218069197        8.3159881474      -11.2472468040  MEMB      13              0.0000000000
     40344      1273  PPPE      C25            11.3265900324        9.2056801935      -10.1695539393  MEMB      13              0.0000000000
     40345      1273  PPPE      H5R            10.7157238406        8.3773161360      -10.5971821268  MEMB      13              0.0000000000
     40346      1273  PPPE      H5S            10.6973211223       10.1197874363      -10.1579664274  MEMB      13              0.0000000000
     40347      1273  PPPE      C26            11.7617984671        8.8374197943       -8.7512774610  MEMB      13              0.0000000000
     40348      1273  PPPE      H6R            12.6712579961        9.4166883160       -8.4775048255  MEMB      13              0.0000000000
     40349      1273  PPPE      H6S            12.0529879569        7.7589125953       -8.7987241956  MEMB      13              0.0000000000
     40350      1273  PPPE      C27            10.6950409806        9.0911333846       -7.6714384299  MEMB      13              0.0000000000
     40351      1273  PPPE      H7R            11.0465093849        8.6913876815       -6.6929032655  MEMB      13              0.0000000000
     40352      1273  PPPE      H7S             9.7915061292        8.5089680129       -7.9677970712  MEMB      13              0.0000000000
     40353      1273  PPPE      C28            10.2441974839       10.5665822210       -7.4372809083  MEMB      13              0.0000000000
     40354      1273  PPPE      H8R             9.6383396241       10.5365385318       -6.5059285502  MEMB      13              0.0000000000
     40355      1273  PPPE      H8S             9.5323471301       10.8375006350       -8.2433704187  MEMB      13              0.0000000000
     40356      1273  PPPE      C29            11.2365494921       11.7066789324       -7.3688450398  MEMB      13              0.0000000000
     40357      1273  PPPE      H91            11.9712983287       11.7489701293       -8.1897742694  MEMB      13              0.0000000000
     40358      1273  PPPE      C210           11.2875553318       12.6900714982       -6.4452926466  MEMB      13              0.0000000000
     40359      1273  PPPE      H101           12.0434909760       13.4712805958       -6.5775995122  MEMB      13              0.0000000000
     40360      1273  PPPE      C211           10.4097618813       12.9337402196       -5.2433264524  MEMB      13              0.0000000000
     40361      1273  PPPE      H11R            9.7877186004       12.0484803616       -5.0131470590  MEMB      13              0.0000000000
     40362      1273  PPPE      H11S            9.7168678193       13.7936365883       -5.3993709719  MEMB      13              0.0000000000
     40363      1273  PPPE      C212           11.2662959173       13.2674484572       -4.0035639919  MEMB      13              0.0000000000
     40364      1273  PPPE      H12R           10.5455000600       13.3977419640       -3.1681473165  MEMB      13              0.0000000000
     40365      1273  PPPE      H12S           11.7643396654       14.2584275609       -4.1167695154  MEMB      13              0.0000000000
     40366      1273  PPPE      C213           12.2588067164       12.1352437906       -3.6254038819  MEMB      13              0.0000000000
     40367      1273  PPPE      H13R           13.2236132424       12.2886656533       -4.1589937385  MEMB      13              0.0000000000
     40368      1273  PPPE      H13S           11.8278413572       11.1700552236       -3.9581813421  MEMB      13              0.0000000000
     40369      1273  PPPE      C214           12.4279496657       11.9528504493       -2.1059102333  MEMB      13              0.0000000000
     40370      1273  PPPE      H14R           11.4255133518       12.0843296781       -1.6787282560  MEMB      13              0.0000000000
     40371      1273  PPPE      H14S           13.1186604990       12.7576784233       -1.7682029341  MEMB      13              0.0000000000
     40372      1273  PPPE      C215           12.7534460243       10.5695615881       -1.4975688236  MEMB      13              0.0000000000
     40373      1273  PPPE      H15R           13.7463994300       10.4780890557       -1.7117366846  MEMB      13              0.0000000000
     40374      1273  PPPE      H15S           12.3690375571        9.7307883799       -2.0697916549  MEMB      13              0.0000000000
     40375      1273  PPPE      C216           13.1252224313       10.2689109302       -0.0495837499  MEMB      13              0.0000000000
     40376      1273  PPPE      H16R           13.8150287797        9.4327190433        0.1659902980  MEMB      13              0.0000000000
     40377      1273  PPPE      H16S           13.3412169810       11.1260868717        0.6131970881  MEMB      13              0.0000000000
     40378      1273  PPPE      H16T           12.3956103152       10.1501855678        0.5089716170  MEMB      13              0.0000000000
     40379      1273  PPPE      C33             6.1704750002       13.0336237802      -12.2810764515  MEMB      13              0.0000000000
     40380      1273  PPPE      H3X             5.6061950690       14.0022950640      -12.4209221645  MEMB      13              0.0000000000
     40381      1273  PPPE      H3Y             6.4612664795       13.8792972027      -11.5857343601  MEMB      13              0.0000000000
     40382      1273  PPPE      C34             7.2358073363       12.0035444944      -11.7031818421  MEMB      13              0.0000000000
     40383      1273  PPPE      H4X             8.2849384158       12.3549827131      -11.4413493851  MEMB      13              0.0000000000
     40384      1273  PPPE      H4Y             7.5078789000       11.1764371958      -12.4415606667  MEMB      13              0.0000000000
     40385      1273  PPPE      C35             6.8175231516       11.4249827184      -10.4558621921  MEMB      13              0.0000000000
     40386      1273  PPPE      H5X             7.3285200795       10.4680290795      -10.2747569002  MEMB      13              0.0000000000
     40387      1273  PPPE      H5Y             5.7047441024       11.4130693370      -10.5156281733  MEMB      13              0.0000000000
     40388      1273  PPPE      C36             7.1271944037       12.4007147699       -9.3646178155  MEMB      13              0.0000000000
     40389      1273  PPPE      H6X             6.6310919675       13.2532192834       -9.8366332012  MEMB      13              0.0000000000
     40390      1273  PPPE      H6Y             8.1172674231       12.8492236293       -9.1927988123  MEMB      13              0.0000000000
     40391      1273  PPPE      C37             6.2974069375       12.2573003781       -8.1265262461  MEMB      13              0.0000000000
     40392      1273  PPPE      H7X             5.2619274114       12.4958123053       -8.3637219611  MEMB      13              0.0000000000
     40393      1273  PPPE      H7Y             6.6094176496       12.9519572685       -7.3543294008  MEMB      13              0.0000000000
     40394      1273  PPPE      C38             6.1092789198       10.9475866222       -7.4959543730  MEMB      13              0.0000000000
     40395      1273  PPPE      H8X             6.9792605868       10.2832612069       -7.3763934630  MEMB      13              0.0000000000
     40396      1273  PPPE      H8Y             5.1751549759       10.5788521785       -7.9761836182  MEMB      13              0.0000000000
     40397      1273  PPPE      C39             5.3844494417       10.9208888061       -6.2151334095  MEMB      13              0.0000000000
     40398      1273  PPPE      H9X             5.3775646052        9.8093821795       -6.1044868568  MEMB      13              0.0000000000
     40399      1273  PPPE      H9Y             4.3457488082       11.2666421402       -6.3618642255  MEMB      13              0.0000000000
     40400      1273  PPPE      C310            5.7524328299       11.6196971299       -4.9527420272  MEMB      13              0.0000000000
     40401      1273  PPPE      H10X            5.0171012815       11.3838707883       -4.1301791065  MEMB      13              0.0000000000
     40402      1273  PPPE      H10Y            5.8419391423       12.7075597896       -5.0752871672  MEMB      13              0.0000000000
     40403      1273  PPPE      C311            7.0330643024       11.1792135598       -4.5142091790  MEMB      13              0.0000000000
     40404      1273  PPPE      H11X            7.8524624419       11.2529820443       -5.2375841817  MEMB      13              0.0000000000
     40405      1273  PPPE      H11Y            6.9809952246       10.1633223664       -4.3183080380  MEMB      13              0.0000000000
     40406      1273  PPPE      C312            7.2333025872       11.4512501713       -3.1049910077  MEMB      13              0.0000000000
     40407      1273  PPPE      H12X            6.4278390031       11.1156615447       -2.3959197531  MEMB      13              0.0000000000
     40408      1273  PPPE      H12Y            7.2802429520       12.5670697771       -3.0838361232  MEMB      13              0.0000000000
     40409      1273  PPPE      C313            8.5603583481       10.7353065907       -2.8748522130  MEMB      13              0.0000000000
     40410      1273  PPPE      H13X            8.6805119597       11.6092581333       -2.2906390662  MEMB      13              0.0000000000
     40411      1273  PPPE      H13Y            9.4635431479       10.8895866702       -3.4471878395  MEMB      13              0.0000000000
     40412      1273  PPPE      C314            8.6188666855        9.3456958570       -2.2022489945  MEMB      13              0.0000000000
     40413      1273  PPPE      H14X            8.2433011116        8.7158878745       -2.9965445812  MEMB      13              0.0000000000
     40414      1273  PPPE      H14Y            7.9313713412        9.3577941140       -1.3417603205  MEMB      13              0.0000000000
     40415      1273  PPPE      C315            9.9052710217        8.5936089996       -1.7032281211  MEMB      13              0.0000000000
     40416      1273  PPPE      H15X           10.5965360318        9.3981032256       -1.5490574358  MEMB      13              0.0000000000
     40417      1273  PPPE      H15Y           10.3067917344        7.9994058797       -2.5337522767  MEMB      13              0.0000000000
     40418      1273  PPPE      C316            9.8830654885        7.7037008102       -0.4130176336  MEMB      13              0.0000000000
     40419      1273  PPPE      H16X            9.3974565854        6.7656252552       -0.4785699434  MEMB      13              0.0000000000
     40420      1273  PPPE      H16Y           10.8358423262        7.4185949102        0.0648026818  MEMB      13              0.0000000000
     40421      1273  PPPE      H16Z            9.1261279508        8.0724353417        0.3066699327  MEMB      13              0.0000000000
     40422      1274  PPPE      N               7.7672512421       16.1618881716      -21.4584410449  MEMB      14              0.0000000000
     40423      1274  PPPE      HN1             7.8949056293       15.5620920783      -22.3050596621  MEMB      14              0.0000000000
     40424      1274  PPPE      HN2             7.7285113975       17.1547317203      -21.7577328182  MEMB      14              0.0000000000
     40425      1274  PPPE      HN3             8.5807511243       16.0440735717      -20.8159298073  MEMB      14              0.0000000000
     40426      1274  PPPE      C12             6.4296063647       15.8230113186      -20.8148028162  MEMB      14              0.0000000000
     40427      1274  PPPE      H12A            6.6132704584       14.9975280231      -20.0959404042  MEMB      14              0.0000000000
     40428      1274  PPPE      H12B            5.7346997254       15.4653311743      -21.5868672452  MEMB      14              0.0000000000
     40429      1274  PPPE      C11             5.7067766299       17.0427557965      -20.2220413525  MEMB      14              0.0000000000
     40430      1274  PPPE      H11A            5.0872125064       17.6384102643      -20.9625749430  MEMB      14              0.0000000000
     40431      1274  PPPE      H11B            6.4708155767       17.4485523805      -19.5091519762  MEMB      14              0.0000000000
     40432      1274  PPPE      P               4.3753221470       16.7172887953      -17.9461119492  MEMB      14              0.0000000000
     40433      1274  PPPE      O13             5.4915195181       17.4496685758      -17.3058006533  MEMB      14              0.0000000000
     40434      1274  PPPE      O14             2.9743825289       17.1680673567      -17.8474484165  MEMB      14              0.0000000000
     40435      1274  PPPE      O11             4.5447770614       15.1996578753      -17.6697127503  MEMB      14              0.0000000000
     40436      1274  PPPE      O12             4.6286045901       16.6728552537      -19.4761909777  MEMB      14              0.0000000000
     40437      1274  PPPE      C1              3.7021527940       14.3354893817      -18.4023723047  MEMB      14              0.0000000000
     40438      1274  PPPE      HA              4.1607231082       14.2013123396      -19.4211322399  MEMB      14              0.0000000000
     40439      1274  PPPE      HB              2.6594115744       14.7168426431      -18.5507043673  MEMB      14              0.0000000000
     40440      1274  PPPE      C2              3.6600762598       12.9687898782      -17.6771135341  MEMB      14              0.0000000000
     40441      1274  PPPE      HS              2.7390312908       12.4569287608      -18.0341774512  MEMB      14              0.0000000000
     40442      1274  PPPE      O21             3.8047114015       12.8864201691      -16.2014100052  MEMB      14              0.0000000000
     40443      1274  PPPE      C21             2.8094586287       13.3668310367      -15.4341932665  MEMB      14              0.0000000000
     40444      1274  PPPE      O22             1.7749174206       13.7847480042      -15.8845697075  MEMB      14              0.0000000000
     40445      1274  PPPE      C22             2.9842320609       13.4145800799      -13.8977859460  MEMB      14              0.0000000000
     40446      1274  PPPE      H2R             3.7979353542       14.0885977147      -13.7568821151  MEMB      14              0.0000000000
     40447      1274  PPPE      H2S             3.7571391142       12.7405849928      -13.4889329352  MEMB      14              0.0000000000
     40448      1274  PPPE      C3              4.8215728568       12.2037530583      -18.3320785228  MEMB      14              0.0000000000
     40449      1274  PPPE      HX              4.8433768049       11.2095002908      -17.8419381574  MEMB      14              0.0000000000
     40450      1274  PPPE      HY              4.8159491005       12.1277508735      -19.3999421726  MEMB      14              0.0000000000
     40451      1274  PPPE      O31             6.0044693449       12.9073056918      -18.5037449875  MEMB      14              0.0000000000
     40452      1274  PPPE      C31             6.6579680710       12.7492502764      -17.5211598080  MEMB      14              0.0000000000
     40453      1274  PPPE      O32             6.5101754531       11.9328856194      -16.5984457589  MEMB      14              0.0000000000
     40454      1274  PPPE      C32             7.7823312982       13.7904321235      -17.8112394389  MEMB      14              0.0000000000
     40455      1274  PPPE      H2X             7.5299350501       14.7587531255      -18.2044256610  MEMB      14              0.0000000000
     40456      1274  PPPE      H2Y             8.7826759034       13.3477881470      -18.0107211009  MEMB      14              0.0000000000
     40457      1274  PPPE      C23             2.2372921450       14.7298769667      -13.3923886614  MEMB      14              0.0000000000
     40458      1274  PPPE      H3R             1.1838770474       14.4521203170      -13.3318110259  MEMB      14              0.0000000000
     40459      1274  PPPE      H3S             2.1881047841       15.5697952132      -14.1197970328  MEMB      14              0.0000000000
     40460      1274  PPPE      C24             2.7417096226       15.4529712895      -12.1363156423  MEMB      14              0.0000000000
     40461      1274  PPPE      H4R             1.8739900974       16.0455651090      -11.7366625740  MEMB      14              0.0000000000
     40462      1274  PPPE      H4S             3.5441179393       16.2224936401      -12.2793312227  MEMB      14              0.0000000000
     40463      1274  PPPE      C25             3.0667540778       14.3611574885      -11.1500665957  MEMB      14              0.0000000000
     40464      1274  PPPE      H5R             3.9768246644       13.7585044335      -11.2512779330  MEMB      14              0.0000000000
     40465      1274  PPPE      H5S             2.2777631126       13.5964904629      -11.3172101137  MEMB      14              0.0000000000
     40466      1274  PPPE      C26             3.0307659117       14.9343233936       -9.7728863067  MEMB      14              0.0000000000
     40467      1274  PPPE      H6R             1.9502312751       15.0752768960       -9.5760750924  MEMB      14              0.0000000000
     40468      1274  PPPE      H6S             3.6211151389       15.8807689534       -9.7221762376  MEMB      14              0.0000000000
     40469      1274  PPPE      C27             3.6645540171       14.0442283948       -8.7541038583  MEMB      14              0.0000000000
     40470      1274  PPPE      H7R             4.7626548555       14.2514403447       -8.8486470083  MEMB      14              0.0000000000
     40471      1274  PPPE      H7S             3.4360940838       12.9676562258       -8.9655615273  MEMB      14              0.0000000000
     40472      1274  PPPE      C28             3.2509095427       14.4602674282       -7.3565315017  MEMB      14              0.0000000000
     40473      1274  PPPE      H8R             2.1553098215       14.4022624408       -7.3104036438  MEMB      14              0.0000000000
     40474      1274  PPPE      H8S             3.6152327358       15.4910925458       -7.1932311654  MEMB      14              0.0000000000
     40475      1274  PPPE      C29             3.7841224151       13.6046205046       -6.2939679348  MEMB      14              0.0000000000
     40476      1274  PPPE      H91             4.7826307664       13.2370770849       -6.5011290612  MEMB      14              0.0000000000
     40477      1274  PPPE      C210            3.1053618516       13.1115720989       -5.2632165024  MEMB      14              0.0000000000
     40478      1274  PPPE      H101            3.6010031319       12.4846252234       -4.5157576441  MEMB      14              0.0000000000
     40479      1274  PPPE      C211            1.6722741439       13.3112303118       -4.9314913974  MEMB      14              0.0000000000
     40480      1274  PPPE      H11R            1.1726895482       12.3556859503       -4.6561813952  MEMB      14              0.0000000000
     40481      1274  PPPE      H11S            1.1395219269       13.7262401709       -5.7761283730  MEMB      14              0.0000000000
     40482      1274  PPPE      C212            1.4639093675       14.2868600985       -3.7875692691  MEMB      14              0.0000000000
     40483      1274  PPPE      H12R            0.5796247585       13.9696041097       -3.2358812829  MEMB      14              0.0000000000
     40484      1274  PPPE      H12S            1.5938884246       15.3549046601       -3.9389660499  MEMB      14              0.0000000000
     40485      1274  PPPE      C213            2.4524249684       14.0476599410       -2.7668862879  MEMB      14              0.0000000000
     40486      1274  PPPE      H13R            3.4541573161       13.9041135102       -3.1059164689  MEMB      14              0.0000000000
     40487      1274  PPPE      H13S            2.1735266681       12.9141601028       -2.6681675220  MEMB      14              0.0000000000
     40488      1274  PPPE      C214            2.8130047148       15.0543526439       -1.4663131938  MEMB      14              0.0000000000
     40489      1274  PPPE      H14R            1.7252247877       14.7753644542       -1.0886753505  MEMB      14              0.0000000000
     40490      1274  PPPE      H14S            2.5108105709       16.0825437891       -1.6511101948  MEMB      14              0.0000000000
     40491      1274  PPPE      C215            4.4219382945       14.6437482184       -0.4099903692  MEMB      14              0.0000000000
     40492      1274  PPPE      H15R            4.5155925788       14.6661384053        0.6973491976  MEMB      14              0.0000000000
     40493      1274  PPPE      H15S            5.1006780183       15.3844401459       -0.6734611781  MEMB      14              0.0000000000
     40494      1274  PPPE      C216            4.9967410647       13.1812658613        0.4737441676  MEMB      14              0.0000000000
     40495      1274  PPPE      H16R            5.3000523501       12.3884359073       -0.2026912635  MEMB      14              0.0000000000
     40496      1274  PPPE      H16S            5.6131072884       13.2704196716        1.3007006709  MEMB      14              0.0000000000
     40497      1274  PPPE      H16T            4.2293663188       12.5031874978        1.0562847950  MEMB      14              0.0000000000
     40498      1274  PPPE      C33             7.8065652832       14.5035782029      -16.5498983520  MEMB      14              0.0000000000
     40499      1274  PPPE      H3X             8.7685219812       14.8579937405      -16.5738824319  MEMB      14              0.0000000000
     40500      1274  PPPE      H3Y             8.1942454037       13.4546084675      -16.2954665746  MEMB      14              0.0000000000
     40501      1274  PPPE      C34             8.2325872514       15.9220866682      -15.7778144417  MEMB      14              0.0000000000
     40502      1274  PPPE      H4X             8.5783819463       16.5922790367      -16.6690952540  MEMB      14              0.0000000000
     40503      1274  PPPE      H4Y             7.2052363711       16.2379202787      -15.6468250662  MEMB      14              0.0000000000
     40504      1274  PPPE      C35             8.7147912805       16.0826862685      -14.0910159091  MEMB      14              0.0000000000
     40505      1274  PPPE      H5X             9.1723831227       17.0316237266      -14.2543150129  MEMB      14              0.0000000000
     40506      1274  PPPE      H5Y             9.6591980418       15.6830421645      -13.5437662066  MEMB      14              0.0000000000
     40507      1274  PPPE      C36             7.5876632957       16.2727069985      -12.8690228825  MEMB      14              0.0000000000
     40508      1274  PPPE      H6X             6.6413750323       15.7039253850      -12.9671683067  MEMB      14              0.0000000000
     40509      1274  PPPE      H6Y             7.1504652612       17.2366727821      -13.1372411758  MEMB      14              0.0000000000
     40510      1274  PPPE      C37             7.9144452143       16.2024563868      -11.2416633795  MEMB      14              0.0000000000
     40511      1274  PPPE      H7X             8.9262606847       16.6134339748      -11.2117945353  MEMB      14              0.0000000000
     40512      1274  PPPE      H7Y             7.9565168451       15.1245731727      -11.0135616968  MEMB      14              0.0000000000
     40513      1274  PPPE      C38             7.0891209237       17.0912366677      -10.1050106017  MEMB      14              0.0000000000
     40514      1274  PPPE      H8X             6.0395070163       16.7013619898      -10.2094100987  MEMB      14              0.0000000000
     40515      1274  PPPE      H8Y             7.2128463762       17.8358733326      -10.8735373728  MEMB      14              0.0000000000
     40516      1274  PPPE      C39             7.5184625286       17.5184500543       -8.5416902448  MEMB      14              0.0000000000
     40517      1274  PPPE      H9X             8.3584369741       16.8583972158       -8.4193361331  MEMB      14              0.0000000000
     40518      1274  PPPE      H9Y             7.7601670953       18.3237127108       -7.6554342139  MEMB      14              0.0000000000
     40519      1274  PPPE      C310            6.2381410346       17.3273413764       -7.7922584951  MEMB      14              0.0000000000
     40520      1274  PPPE      H10X            5.3533365631       16.7351560021       -8.0451977617  MEMB      14              0.0000000000
     40521      1274  PPPE      H10Y            5.9337954582       18.3277295135       -8.2417330188  MEMB      14              0.0000000000
     40522      1274  PPPE      C311            6.7605014962       16.8083874763       -6.4270263381  MEMB      14              0.0000000000
     40523      1274  PPPE      H11X            7.8729418906       16.8625454112       -6.2924266337  MEMB      14              0.0000000000
     40524      1274  PPPE      H11Y            6.6581755860       15.7276093823       -6.2768366706  MEMB      14              0.0000000000
     40525      1274  PPPE      C312            6.0784449247       17.5979115323       -5.3708337320  MEMB      14              0.0000000000
     40526      1274  PPPE      H12X            4.9849927216       17.4035377687       -5.3556382930  MEMB      14              0.0000000000
     40527      1274  PPPE      H12Y            6.2241591548       18.5366590198       -5.9527025101  MEMB      14              0.0000000000
     40528      1274  PPPE      C313            6.6227745730       17.3702549528       -3.9440128911  MEMB      14              0.0000000000
     40529      1274  PPPE      H13X            7.6146013099       17.8052029278       -3.7593295654  MEMB      14              0.0000000000
     40530      1274  PPPE      H13Y            6.8019723008       16.2671365897       -3.8884200344  MEMB      14              0.0000000000
     40531      1274  PPPE      C314            5.7939609099       17.9933395000       -2.7906695969  MEMB      14              0.0000000000
     40532      1274  PPPE      H14X            4.7710159988       17.5605617131       -2.7586477757  MEMB      14              0.0000000000
     40533      1274  PPPE      H14Y            5.7218016025       19.0998927041       -2.9267963162  MEMB      14              0.0000000000
     40534      1274  PPPE      C315            6.3673850824       17.8665531923       -1.3754133455  MEMB      14              0.0000000000
     40535      1274  PPPE      H15X            7.3120136800       18.4563548654       -1.3104513649  MEMB      14              0.0000000000
     40536      1274  PPPE      H15Y            6.6181344422       16.7946267188       -1.2179840508  MEMB      14              0.0000000000
     40537      1274  PPPE      C316            5.3466397132       18.3545874181       -0.3259155218  MEMB      14              0.0000000000
     40538      1274  PPPE      H16X            5.2059270795       19.4525779088       -0.2995993327  MEMB      14              0.0000000000
     40539      1274  PPPE      H16Y            4.4078148599       17.7923954158       -0.4064596902  MEMB      14              0.0000000000
     40540      1274  PPPE      H16Z            5.5581994661       18.1192619134        0.7033907898  MEMB      14              0.0000000000
     40541      1275  PPPE      N              18.0960215397       -1.5037179553      -21.0264302599  MEMB      15              0.0000000000
     40542      1275  PPPE      HN1            17.7310044798       -2.4799470150      -20.8657839012  MEMB      15              0.0000000000
     40543      1275  PPPE      HN2            17.9551248687       -1.2457473425      -22.0223621125  MEMB      15              0.0000000000
     40544      1275  PPPE      HN3            19.1170378122       -1.5340837039      -20.8254212618  MEMB      15              0.0000000000
     40545      1275  PPPE      C12            17.4112344010       -0.5761729306      -20.0555853399  MEMB      15              0.0000000000
     40546      1275  PPPE      H12A           16.3816170249       -0.4056162404      -20.3613105788  MEMB      15              0.0000000000
     40547      1275  PPPE      H12B           17.9282838112        0.3987163824      -20.0816510468  MEMB      15              0.0000000000
     40548      1275  PPPE      C11            17.3087274312       -1.1817980525      -18.6540063229  MEMB      15              0.0000000000
     40549      1275  PPPE      H11A           16.8458785026       -0.4241862041      -17.9824246949  MEMB      15              0.0000000000
     40550      1275  PPPE      H11B           18.3334566644       -1.4173291832      -18.2888165685  MEMB      15              0.0000000000
     40551      1275  PPPE      P              16.9470165041       -3.7893624466      -18.4887239721  MEMB      15              0.0000000000
     40552      1275  PPPE      O13            15.8428318563       -4.6729154160      -18.0875662297  MEMB      15              0.0000000000
     40553      1275  PPPE      O14            17.7131621469       -4.0472994487      -19.7260726522  MEMB      15              0.0000000000
     40554      1275  PPPE      O11            17.9869385277       -3.6748137243      -17.2905168325  MEMB      15              0.0000000000
     40555      1275  PPPE      O12            16.4420607598       -2.3043720337      -18.6312714332  MEMB      15              0.0000000000
     40556      1275  PPPE      C1             17.4389053047       -3.1366530319      -16.0807815876  MEMB      15              0.0000000000
     40557      1275  PPPE      HA             16.5509430048       -3.7494618304      -15.7724358248  MEMB      15              0.0000000000
     40558      1275  PPPE      HB             17.2011518661       -2.0784473302      -16.1775261975  MEMB      15              0.0000000000
     40559      1275  PPPE      C2             18.4664141634       -3.2280824007      -15.0095955839  MEMB      15              0.0000000000
     40560      1275  PPPE      HS             19.4291786718       -3.0278539387      -15.5869850400  MEMB      15              0.0000000000
     40561      1275  PPPE      O21            18.1151766714       -4.5569884640      -14.6168405216  MEMB      15              0.0000000000
     40562      1275  PPPE      C21            19.0895768740       -4.8589969798      -14.0262504523  MEMB      15              0.0000000000
     40563      1275  PPPE      O22            20.1489120108       -4.1811972667      -14.0476294790  MEMB      15              0.0000000000
     40564      1275  PPPE      C22            18.6895759480       -6.2170920781      -13.3711701434  MEMB      15              0.0000000000
     40565      1275  PPPE      H2R            18.8204843001       -6.7192391131      -14.3685270338  MEMB      15              0.0000000000
     40566      1275  PPPE      H2S            17.7076360660       -6.6841009142      -13.3742004267  MEMB      15              0.0000000000
     40567      1275  PPPE      C3             18.5651288259       -2.3478446311      -13.7168289932  MEMB      15              0.0000000000
     40568      1275  PPPE      HX             19.0905355116       -2.8240781539      -12.8308285633  MEMB      15              0.0000000000
     40569      1275  PPPE      HY             19.0371389535       -1.3925620210      -13.9539591009  MEMB      15              0.0000000000
     40570      1275  PPPE      O31            17.3288858492       -2.2714284251      -13.2442066954  MEMB      15              0.0000000000
     40571      1275  PPPE      C31            17.2814375069       -1.4561285399      -12.2440557521  MEMB      15              0.0000000000
     40572      1275  PPPE      O32            18.1581858102       -0.8817183898      -11.6443454083  MEMB      15              0.0000000000
     40573      1275  PPPE      C32            15.9336916840       -1.2813154098      -12.0616476130  MEMB      15              0.0000000000
     40574      1275  PPPE      H2X            15.4838550433       -1.7048362832      -12.9937779246  MEMB      15              0.0000000000
     40575      1275  PPPE      H2Y            15.7913655763       -0.1703552934      -12.0685496556  MEMB      15              0.0000000000
     40576      1275  PPPE      C23            19.3836579086       -6.6449155980      -11.9728154557  MEMB      15              0.0000000000
     40577      1275  PPPE      H3R            20.3087705445       -6.3559671395      -11.4736974174  MEMB      15              0.0000000000
     40578      1275  PPPE      H3S            20.0451078224       -7.3863660070      -12.2056074477  MEMB      15              0.0000000000
     40579      1275  PPPE      C24            18.7159419100       -6.7184916599      -10.7302598042  MEMB      15              0.0000000000
     40580      1275  PPPE      H4R            19.2803691491       -7.1781116196       -9.8756509675  MEMB      15              0.0000000000
     40581      1275  PPPE      H4S            18.1652729539       -7.3866746839      -11.3496889939  MEMB      15              0.0000000000
     40582      1275  PPPE      C25            18.2762637862       -5.3420719251      -10.5963952609  MEMB      15              0.0000000000
     40583      1275  PPPE      H5R            17.9408131579       -4.9761443534      -11.5913891955  MEMB      15              0.0000000000
     40584      1275  PPPE      H5S            19.1257412351       -4.7147208279      -10.2875040112  MEMB      15              0.0000000000
     40585      1275  PPPE      C26            17.1279564215       -5.3209142761       -9.6541274935  MEMB      15              0.0000000000
     40586      1275  PPPE      H6R            16.3540528742       -5.9479328269      -10.1514152896  MEMB      15              0.0000000000
     40587      1275  PPPE      H6S            16.8259903151       -4.2648830265       -9.6942786591  MEMB      15              0.0000000000
     40588      1275  PPPE      C27            17.5277896641       -5.6707585319       -8.2051001837  MEMB      15              0.0000000000
     40589      1275  PPPE      H7R            18.6183935445       -5.6403236977       -8.1014334560  MEMB      15              0.0000000000
     40590      1275  PPPE      H7S            17.3711404276       -6.6390520978       -7.7301299289  MEMB      15              0.0000000000
     40591      1275  PPPE      C28            16.7381198636       -5.0064348114       -7.1138405993  MEMB      15              0.0000000000
     40592      1275  PPPE      H8R            16.9654057970       -3.9380074017       -7.1710180152  MEMB      15              0.0000000000
     40593      1275  PPPE      H8S            17.1638024553       -5.4797812691       -6.1907377751  MEMB      15              0.0000000000
     40594      1275  PPPE      C29            15.2769021669       -5.3101498948       -7.2377826147  MEMB      15              0.0000000000
     40595      1275  PPPE      H91            14.7413141563       -4.9304587521       -8.1136280312  MEMB      15              0.0000000000
     40596      1275  PPPE      C210           14.5513020039       -5.8268385517       -6.2686240279  MEMB      15              0.0000000000
     40597      1275  PPPE      H101           13.4907430276       -6.0261615632       -6.4073014601  MEMB      15              0.0000000000
     40598      1275  PPPE      C211           14.9495287606       -6.1992982344       -4.9156291645  MEMB      15              0.0000000000
     40599      1275  PPPE      H11R           15.8843360608       -5.7284753055       -4.5243169134  MEMB      15              0.0000000000
     40600      1275  PPPE      H11S           14.8590227701       -7.3116224098       -4.9001049113  MEMB      15              0.0000000000
     40601      1275  PPPE      C212           14.0037231143       -5.8044742725       -3.8459042460  MEMB      15              0.0000000000
     40602      1275  PPPE      H12R           13.1042791808       -6.0818410884       -4.3877351812  MEMB      15              0.0000000000
     40603      1275  PPPE      H12S           14.0490419734       -4.6849095356       -3.8161662613  MEMB      15              0.0000000000
     40604      1275  PPPE      C213           14.3716953809       -6.6608993383       -2.5638586388  MEMB      15              0.0000000000
     40605      1275  PPPE      H13R           15.2889649244       -6.0275541069       -2.3151507910  MEMB      15              0.0000000000
     40606      1275  PPPE      H13S           14.6866765431       -7.6242606523       -2.9001033740  MEMB      15              0.0000000000
     40607      1275  PPPE      C214           13.7296866536       -6.9983164708       -1.1420309905  MEMB      15              0.0000000000
     40608      1275  PPPE      H14R           12.7561702851       -6.9975592462       -0.6423374289  MEMB      15              0.0000000000
     40609      1275  PPPE      H14S           12.7534011340       -7.6181399078       -1.1411468907  MEMB      15              0.0000000000
     40610      1275  PPPE      C215           13.9928892686       -5.4343884922       -1.0546014330  MEMB      15              0.0000000000
     40611      1275  PPPE      H15R           14.4626337915       -6.2625388893       -0.4484670156  MEMB      15              0.0000000000
     40612      1275  PPPE      H15S           13.1183906324       -4.8668510311       -0.8903854636  MEMB      15              0.0000000000
     40613      1275  PPPE      C216           14.4686593631       -4.2601883668       -0.2807796360  MEMB      15              0.0000000000
     40614      1275  PPPE      H16R           14.2921910908       -4.0823998079        0.7847465403  MEMB      15              0.0000000000
     40615      1275  PPPE      H16S           14.8460798129       -3.6285854067       -1.0702768689  MEMB      15              0.0000000000
     40616      1275  PPPE      H16T           13.7022110700       -3.4855946671       -0.1001009296  MEMB      15              0.0000000000
     40617      1275  PPPE      C33            15.3972227498       -2.0528865879      -10.8367242940  MEMB      15              0.0000000000
     40618      1275  PPPE      H3X            15.5843391374       -3.1146230323      -10.7694957677  MEMB      15              0.0000000000
     40619      1275  PPPE      H3Y            14.3426533748       -2.3727200497      -10.8297920486  MEMB      15              0.0000000000
     40620      1275  PPPE      C34            15.5559024529       -1.2248318867       -9.6072136071  MEMB      15              0.0000000000
     40621      1275  PPPE      H4X            15.2882779898       -0.1562074999       -9.7830365934  MEMB      15              0.0000000000
     40622      1275  PPPE      H4Y            16.6318767243       -1.1221029383       -9.4508496244  MEMB      15              0.0000000000
     40623      1275  PPPE      C35            14.9019524077       -2.0088040097       -8.4705914570  MEMB      15              0.0000000000
     40624      1275  PPPE      H5X            15.1611948096       -3.0570090025       -8.5258015285  MEMB      15              0.0000000000
     40625      1275  PPPE      H5Y            13.7997690037       -2.0792180435       -8.3100629494  MEMB      15              0.0000000000
     40626      1275  PPPE      C36            15.2224910600       -1.3948210834       -7.2047167961  MEMB      15              0.0000000000
     40627      1275  PPPE      H6X            14.4850041052       -0.5902137873       -7.3145596781  MEMB      15              0.0000000000
     40628      1275  PPPE      H6Y            16.1523216834       -0.8284149773       -7.1260505668  MEMB      15              0.0000000000
     40629      1275  PPPE      C37            14.7453636613       -2.2057594037       -6.0184491183  MEMB      15              0.0000000000
     40630      1275  PPPE      H7X            15.3112287519       -3.0830610153       -5.7820133737  MEMB      15              0.0000000000
     40631      1275  PPPE      H7Y            13.7328893777       -2.4423982697       -6.4095542307  MEMB      15              0.0000000000
     40632      1275  PPPE      C38            14.5513149279       -1.4948080036       -4.7004109739  MEMB      15              0.0000000000
     40633      1275  PPPE      H8X            13.8380796121       -1.5393185636       -3.9229125788  MEMB      15              0.0000000000
     40634      1275  PPPE      H8Y            13.7774072487       -0.9005251190       -5.2505253402  MEMB      15              0.0000000000
     40635      1275  PPPE      C39            15.7114185883       -1.0695087798       -3.8130822057  MEMB      15              0.0000000000
     40636      1275  PPPE      H9X            15.4891328726       -0.5301393346       -2.8512610498  MEMB      15              0.0000000000
     40637      1275  PPPE      H9Y            16.4381570267       -0.4346829312       -4.3182854253  MEMB      15              0.0000000000
     40638      1275  PPPE      C310           16.2186827200       -2.2811375543       -3.2348072795  MEMB      15              0.0000000000
     40639      1275  PPPE      H10X           16.4178868231       -2.8985722380       -4.1221828118  MEMB      15              0.0000000000
     40640      1275  PPPE      H10Y           15.3968611482       -2.7212426304       -2.6489737816  MEMB      15              0.0000000000
     40641      1275  PPPE      C311           17.4117768618       -1.8957660957       -2.4178695108  MEMB      15              0.0000000000
     40642      1275  PPPE      H11X           17.0969029974       -1.5485997180       -1.4079906202  MEMB      15              0.0000000000
     40643      1275  PPPE      H11Y           18.0084312945       -1.1056766745       -2.9251505990  MEMB      15              0.0000000000
     40644      1275  PPPE      C312           18.2176714245       -3.1097568051       -2.2070464677  MEMB      15              0.0000000000
     40645      1275  PPPE      H12X           19.1499535088       -2.8408696859       -1.6737454820  MEMB      15              0.0000000000
     40646      1275  PPPE      H12Y           18.4880184507       -3.5679052912       -3.1965321394  MEMB      15              0.0000000000
     40647      1275  PPPE      C313           17.3962347915       -4.0461861136       -1.3464424115  MEMB      15              0.0000000000
     40648      1275  PPPE      H13X           16.4857234730       -4.3997045519       -1.8922264781  MEMB      15              0.0000000000
     40649      1275  PPPE      H13Y           17.0939057896       -3.7469431116       -0.3288569696  MEMB      15              0.0000000000
     40650      1275  PPPE      C314           18.2428597770       -5.2019215282       -1.1564966822  MEMB      15              0.0000000000
     40651      1275  PPPE      H14X           18.9915774185       -5.2285156669       -2.0065461506  MEMB      15              0.0000000000
     40652      1275  PPPE      H14Y           17.4967900655       -6.0104666019       -1.1466960071  MEMB      15              0.0000000000
     40653      1275  PPPE      C315           18.8315391014       -5.6442359778        0.1550773892  MEMB      15              0.0000000000
     40654      1275  PPPE      H15X           19.2864924779       -6.6659500395        0.1746027612  MEMB      15              0.0000000000
     40655      1275  PPPE      H15Y           18.0601215691       -5.6917593251        0.9345008466  MEMB      15              0.0000000000
     40656      1275  PPPE      C316           19.9956816728       -4.8018693785        0.3633254066  MEMB      15              0.0000000000
     40657      1275  PPPE      H16X           20.7254176379       -4.9811579574       -0.4637274937  MEMB      15              0.0000000000
     40658      1275  PPPE      H16Y           19.6817425087       -3.7510553511        0.3912018450  MEMB      15              0.0000000000
     40659      1275  PPPE      H16Z           20.4211448359       -5.1841217289        1.2926647541  MEMB      15              0.0000000000
     40660      1276  PPPE      N               9.8576199318      -17.4353649632      -19.4018939571  MEMB      16              0.0000000000
     40661      1276  PPPE      HN1             9.7487988158      -16.9044277853      -18.5133189925  MEMB      16              0.0000000000
     40662      1276  PPPE      HN2            10.7116025154      -18.0370608270      -19.3456903778  MEMB      16              0.0000000000
     40663      1276  PPPE      HN3             9.9548877272      -16.7259095560      -20.1610772726  MEMB      16              0.0000000000
     40664      1276  PPPE      C12             8.5759308407      -18.1913426114      -19.6766891619  MEMB      16              0.0000000000
     40665      1276  PPPE      H12A            8.6405587007      -19.2165896999      -19.2637696691  MEMB      16              0.0000000000
     40666      1276  PPPE      H12B            8.5120779585      -18.2914782688      -20.7726901062  MEMB      16              0.0000000000
     40667      1276  PPPE      C11             7.3710066878      -17.4575259150      -19.0477810784  MEMB      16              0.0000000000
     40668      1276  PPPE      H11A            7.4877879269      -17.5024545828      -17.9384353408  MEMB      16              0.0000000000
     40669      1276  PPPE      H11B            6.4306470120      -18.0175024660      -19.2830365295  MEMB      16              0.0000000000
     40670      1276  PPPE      P               6.2313394528      -15.1029105168      -18.8000670021  MEMB      16              0.0000000000
     40671      1276  PPPE      O13             6.0647554905      -13.8683426421      -19.6077557208  MEMB      16              0.0000000000
     40672      1276  PPPE      O14             4.9966472756      -15.8054843709      -18.4521374272  MEMB      16              0.0000000000
     40673      1276  PPPE      O11             7.0054635304      -14.7529848471      -17.4791848074  MEMB      16              0.0000000000
     40674      1276  PPPE      O12             7.2975242920      -16.0982679447      -19.5043155506  MEMB      16              0.0000000000
     40675      1276  PPPE      C1              8.2227404872      -14.0125000481      -17.3767699229  MEMB      16              0.0000000000
     40676      1276  PPPE      HA              8.0081453940      -13.0706770231      -16.8195357428  MEMB      16              0.0000000000
     40677      1276  PPPE      HB              8.6422860701      -13.6800349357      -18.3578251966  MEMB      16              0.0000000000
     40678      1276  PPPE      C2              9.2293167777      -14.8928458047      -16.5838583621  MEMB      16              0.0000000000
     40679      1276  PPPE      HS              9.4171874513      -15.8080189922      -17.1598815352  MEMB      16              0.0000000000
     40680      1276  PPPE      O21             8.6437158772      -15.1428721785      -15.2912811499  MEMB      16              0.0000000000
     40681      1276  PPPE      C21             8.9526239302      -16.2643378331      -14.7491088022  MEMB      16              0.0000000000
     40682      1276  PPPE      O22             9.6404540694      -17.1454999203      -15.2425513967  MEMB      16              0.0000000000
     40683      1276  PPPE      C22             8.1990997992      -16.3055046237      -13.4425122483  MEMB      16              0.0000000000
     40684      1276  PPPE      H2R             7.1185030052      -16.2194749049      -13.6881534485  MEMB      16              0.0000000000
     40685      1276  PPPE      H2S             8.4523058878      -15.4247202918      -12.8255277024  MEMB      16              0.0000000000
     40686      1276  PPPE      C3             10.5683661099      -14.2510480108      -16.3827942726  MEMB      16              0.0000000000
     40687      1276  PPPE      HX             11.4119823990      -14.9085207495      -16.0282664214  MEMB      16              0.0000000000
     40688      1276  PPPE      HY             10.8897321954      -13.7627672953      -17.2538341001  MEMB      16              0.0000000000
     40689      1276  PPPE      O31            10.2009749293      -13.1923801943      -15.6003842151  MEMB      16              0.0000000000
     40690      1276  PPPE      C31            10.5516021687      -13.4565642579      -14.4948728430  MEMB      16              0.0000000000
     40691      1276  PPPE      O32            11.4631895859      -14.1753486771      -14.0595146908  MEMB      16              0.0000000000
     40692      1276  PPPE      C32             9.9481657013      -12.3491211066      -13.9122700512  MEMB      16              0.0000000000
     40693      1276  PPPE      H2X            10.0110161401      -11.3473554749      -14.2156830991  MEMB      16              0.0000000000
     40694      1276  PPPE      H2Y            10.9886907823      -12.4025120729      -13.5023608302  MEMB      16              0.0000000000
     40695      1276  PPPE      C23             8.5562128353      -17.5541246264      -12.6289930770  MEMB      16              0.0000000000
     40696      1276  PPPE      H3R             9.6068284938      -17.4399870193      -12.2820168598  MEMB      16              0.0000000000
     40697      1276  PPPE      H3S             8.5554241067      -18.4602982948      -13.2821310395  MEMB      16              0.0000000000
     40698      1276  PPPE      C24             7.5422818952      -17.6944377889      -11.4809361895  MEMB      16              0.0000000000
     40699      1276  PPPE      H4R             7.6144324134      -18.6686996702      -10.9575005141  MEMB      16              0.0000000000
     40700      1276  PPPE      H4S             6.5460567097      -17.6303449091      -11.9785206031  MEMB      16              0.0000000000
     40701      1276  PPPE      C25             7.5883727411      -16.5878392527      -10.4100707011  MEMB      16              0.0000000000
     40702      1276  PPPE      H5R             6.6181183769      -16.5806395343       -9.8610280922  MEMB      16              0.0000000000
     40703      1276  PPPE      H5S             7.7412691132      -15.6188880094      -10.9195033338  MEMB      16              0.0000000000
     40704      1276  PPPE      C26             8.7381566800      -16.7633410284       -9.4180671881  MEMB      16              0.0000000000
     40705      1276  PPPE      H6R             9.6626988436      -16.6923452628      -10.0337475132  MEMB      16              0.0000000000
     40706      1276  PPPE      H6S             8.6602996386      -17.7796586940       -8.9640964601  MEMB      16              0.0000000000
     40707      1276  PPPE      C27             8.8694749341      -15.6566261197       -8.3498152572  MEMB      16              0.0000000000
     40708      1276  PPPE      H7R             7.9799349868      -15.6712314231       -7.6842814020  MEMB      16              0.0000000000
     40709      1276  PPPE      H7S             8.9875882575      -14.6846145694       -8.8609524141  MEMB      16              0.0000000000
     40710      1276  PPPE      C28            10.1349523156      -15.8248911670       -7.5068142215  MEMB      16              0.0000000000
     40711      1276  PPPE      H8R            11.0198178226      -15.7672297121       -8.1892150578  MEMB      16              0.0000000000
     40712      1276  PPPE      H8S            10.0053510686      -16.8900168249       -7.2307576032  MEMB      16              0.0000000000
     40713      1276  PPPE      C29            10.4233183027      -14.9736489272       -6.2841370944  MEMB      16              0.0000000000
     40714      1276  PPPE      H91            10.9334680875      -14.0268330660       -6.5101580956  MEMB      16              0.0000000000
     40715      1276  PPPE      C210           10.1275808301      -15.2061581038       -4.9857201305  MEMB      16              0.0000000000
     40716      1276  PPPE      H101           10.5199287403      -14.4807120498       -4.2557857366  MEMB      16              0.0000000000
     40717      1276  PPPE      C211            9.4078690338      -16.3824437316       -4.3544047954  MEMB      16              0.0000000000
     40718      1276  PPPE      H11R           10.1228362030      -17.1672416165       -4.0253418894  MEMB      16              0.0000000000
     40719      1276  PPPE      H11S            8.7337944172      -16.8725435523       -5.0976203927  MEMB      16              0.0000000000
     40720      1276  PPPE      C212            8.5623380726      -15.9513833270       -3.1216241982  MEMB      16              0.0000000000
     40721      1276  PPPE      H12R            7.9509574285      -16.7971382147       -2.7252755311  MEMB      16              0.0000000000
     40722      1276  PPPE      H12S            7.8548674858      -15.1628914704       -3.4523025779  MEMB      16              0.0000000000
     40723      1276  PPPE      C213            9.3022220485      -15.3715035408       -1.9014412423  MEMB      16              0.0000000000
     40724      1276  PPPE      H13R            8.5410847011      -14.7987154425       -1.3211964443  MEMB      16              0.0000000000
     40725      1276  PPPE      H13S           10.1056389357      -14.6459606054       -2.1421679706  MEMB      16              0.0000000000
     40726      1276  PPPE      C214            9.8670927665      -16.4503224931       -0.9736403073  MEMB      16              0.0000000000
     40727      1276  PPPE      H14R           10.6614564597      -16.9718714353       -1.5555943717  MEMB      16              0.0000000000
     40728      1276  PPPE      H14S            9.0463958294      -17.1834369424       -0.7839938629  MEMB      16              0.0000000000
     40729      1276  PPPE      C215           10.3554593574      -15.7752681387        0.3601238996  MEMB      16              0.0000000000
     40730      1276  PPPE      H15R            9.4131543609      -15.4034343430        0.8084999840  MEMB      16              0.0000000000
     40731      1276  PPPE      H15S           11.0441889360      -14.9754616923        0.0334830093  MEMB      16              0.0000000000
     40732      1276  PPPE      C216           11.0629131665      -16.4627834824        1.5514168756  MEMB      16              0.0000000000
     40733      1276  PPPE      H16R           10.3142438083      -17.0985346843        2.1009760746  MEMB      16              0.0000000000
     40734      1276  PPPE      H16S           11.9134891391      -17.0368789104        1.1205175969  MEMB      16              0.0000000000
     40735      1276  PPPE      H16T           11.5582570009      -15.9448547830        2.3565954919  MEMB      16              0.0000000000
     40736      1276  PPPE      C33             8.6698993598      -11.5527068105      -13.7754602547  MEMB      16              0.0000000000
     40737      1276  PPPE      H3X             8.2813164303      -11.4103107029      -14.7663896452  MEMB      16              0.0000000000
     40738      1276  PPPE      H3Y             8.5108925538      -10.4961327425      -13.3517460648  MEMB      16              0.0000000000
     40739      1276  PPPE      C34             8.1652668371      -12.3037802567      -12.7090468200  MEMB      16              0.0000000000
     40740      1276  PPPE      H4X             8.5919023411      -11.8908376632      -11.7968722046  MEMB      16              0.0000000000
     40741      1276  PPPE      H4Y             8.1128903096      -13.4021942062      -12.7841045112  MEMB      16              0.0000000000
     40742      1276  PPPE      C35             7.3064283858      -11.6525132952      -11.8927337338  MEMB      16              0.0000000000
     40743      1276  PPPE      H5X             6.8120019121      -11.6696038409      -12.9017900572  MEMB      16              0.0000000000
     40744      1276  PPPE      H5Y             7.2357738921      -10.5597364916      -11.7514773489  MEMB      16              0.0000000000
     40745      1276  PPPE      C36             7.1629218938      -12.6710651457      -10.6701306383  MEMB      16              0.0000000000
     40746      1276  PPPE      H6X             6.9986351563      -13.7670339255      -10.7215858635  MEMB      16              0.0000000000
     40747      1276  PPPE      H6Y             6.1843553224      -12.7854916915      -10.6218399128  MEMB      16              0.0000000000
     40748      1276  PPPE      C37             7.5990191767      -12.0858248151       -9.3670983250  MEMB      16              0.0000000000
     40749      1276  PPPE      H7X             7.7826724070      -11.0011642053       -9.4485671464  MEMB      16              0.0000000000
     40750      1276  PPPE      H7Y             8.4088321185      -12.8014308943       -9.3037596926  MEMB      16              0.0000000000
     40751      1276  PPPE      C38             6.6803052944      -12.1158272623       -8.2294013776  MEMB      16              0.0000000000
     40752      1276  PPPE      H8X             6.2972820591      -13.1769683063       -8.1719542389  MEMB      16              0.0000000000
     40753      1276  PPPE      H8Y             6.0039344208      -11.1710132197       -8.3416209843  MEMB      16              0.0000000000
     40754      1276  PPPE      C39             6.9310993328      -11.6297623016       -6.9259347544  MEMB      16              0.0000000000
     40755      1276  PPPE      H9X             5.9820765639      -11.7698704674       -6.3892811125  MEMB      16              0.0000000000
     40756      1276  PPPE      H9Y             7.1318604061      -10.5460517659       -7.0677212854  MEMB      16              0.0000000000
     40757      1276  PPPE      C310            8.0229940439      -12.4619597433       -6.4777915541  MEMB      16              0.0000000000
     40758      1276  PPPE      H10X            8.8312344366      -12.3752999524       -7.2340682113  MEMB      16              0.0000000000
     40759      1276  PPPE      H10Y            7.7233747479      -13.5304114667       -6.3551171517  MEMB      16              0.0000000000
     40760      1276  PPPE      C311            8.4463496279      -11.8162964714       -5.2482857087  MEMB      16              0.0000000000
     40761      1276  PPPE      H11X            8.5815842480      -10.7068939443       -5.3752435577  MEMB      16              0.0000000000
     40762      1276  PPPE      H11Y            9.3584574314      -12.3653811016       -4.9692769807  MEMB      16              0.0000000000
     40763      1276  PPPE      C312            7.4705914680      -11.9352429219       -4.1656698529  MEMB      16              0.0000000000
     40764      1276  PPPE      H12X            7.0339486332      -12.9513517032       -4.1170278410  MEMB      16              0.0000000000
     40765      1276  PPPE      H12Y            6.7404255574      -11.0932440295       -4.2817072798  MEMB      16              0.0000000000
     40766      1276  PPPE      C313            8.1650281232      -11.7325277805       -2.8860693690  MEMB      16              0.0000000000
     40767      1276  PPPE      H13X            8.6154723350      -10.7465018335       -3.1702072931  MEMB      16              0.0000000000
     40768      1276  PPPE      H13Y            8.7359497559      -12.6248113663       -2.5649839109  MEMB      16              0.0000000000
     40769      1276  PPPE      C314            7.5031345955      -11.3987954662       -1.6544560697  MEMB      16              0.0000000000
     40770      1276  PPPE      H14X            6.6462894344      -12.0699316199       -1.6547927534  MEMB      16              0.0000000000
     40771      1276  PPPE      H14Y            7.2163780698      -10.3317522832       -1.8369812728  MEMB      16              0.0000000000
     40772      1276  PPPE      C315            8.1449552295      -11.7041493648       -0.2744517919  MEMB      16              0.0000000000
     40773      1276  PPPE      H15X            8.5182787016      -12.7257785199       -0.1703731353  MEMB      16              0.0000000000
     40774      1276  PPPE      H15Y            7.5930022657      -11.5962682941        0.6789683034  MEMB      16              0.0000000000
     40775      1276  PPPE      C316            9.0366810392      -10.6557701693        0.1081300895  MEMB      16              0.0000000000
     40776      1276  PPPE      H16X            8.7876357820       -9.5796124143       -0.0564253044  MEMB      16              0.0000000000
     40777      1276  PPPE      H16Y            9.4430961968      -10.7827026319        1.1317553995  MEMB      16              0.0000000000
     40778      1276  PPPE      H16Z            9.7933634111      -10.9722593898       -0.6044992763  MEMB      16              0.0000000000
     40779      1277  PVPG      C13            -2.3570865451      -17.8027970718      -19.3610390837  MEMB      17              0.0000000000
     40780      1277  PVPG      H13A           -1.5282998276      -17.1434593968      -19.0335555816  MEMB      17              0.0000000000
     40781      1277  PVPG      H13B           -2.6137901916      -17.5351970720      -20.4016689366  MEMB      17              0.0000000000
     40782      1277  PVPG      OC3            -3.5179446540      -17.5270852224      -18.5845388150  MEMB      17              0.0000000000
     40783      1277  PVPG      HO3            -3.9557564085      -18.3925676512      -18.5001648642  MEMB      17              0.0000000000
     40784      1277  PVPG      C12            -1.9388669647      -19.3028483322      -19.2750753947  MEMB      17              0.0000000000
     40785      1277  PVPG      H12A           -2.7810843661      -19.9115106766      -19.6650525799  MEMB      17              0.0000000000
     40786      1277  PVPG      OC2            -1.7715003700      -19.6887006605      -17.9165471261  MEMB      17              0.0000000000
     40787      1277  PVPG      HO2            -1.3446727206      -20.5527214060      -17.9206444244  MEMB      17              0.0000000000
     40788      1277  PVPG      C11            -0.6518097332      -19.6183451712      -20.0843425672  MEMB      17              0.0000000000
     40789      1277  PVPG      H11A           -0.8614717241      -19.5252090998      -21.1706602931  MEMB      17              0.0000000000
     40790      1277  PVPG      H11B           -0.3487020694      -20.6820490583      -19.9249560913  MEMB      17              0.0000000000
     40791      1277  PVPG      P               1.7236350534      -19.1189371430      -19.0178034108  MEMB      17              0.0000000000
     40792      1277  PVPG      O13             2.8495660763      -18.9163329623      -19.9570320457  MEMB      17              0.0000000000
     40793      1277  PVPG      O14             1.5349460617      -20.4924943776      -18.4834089773  MEMB      17              0.0000000000
     40794      1277  PVPG      O12             0.3751042724      -18.6789313138      -19.7636920043  MEMB      17              0.0000000000
     40795      1277  PVPG      O11             1.8370275856      -18.0706470943      -17.8259130047  MEMB      17              0.0000000000
     40796      1277  PVPG      C1              0.6441261915      -17.9123821596      -17.0585853277  MEMB      17              0.0000000000
     40797      1277  PVPG      HA              0.4932529797      -18.7872868807      -16.3900210066  MEMB      17              0.0000000000
     40798      1277  PVPG      HB             -0.2295860042      -17.7021702941      -17.6917035183  MEMB      17              0.0000000000
     40799      1277  PVPG      C2              0.6810313350      -16.7424716847      -16.1117108572  MEMB      17              0.0000000000
     40800      1277  PVPG      HS              0.7259442164      -15.8127044700      -16.7438376102  MEMB      17              0.0000000000
     40801      1277  PVPG      O21             1.8625735764      -16.9813834649      -15.3195596808  MEMB      17              0.0000000000
     40802      1277  PVPG      C21             1.9943026040      -15.9476815098      -14.5585695172  MEMB      17              0.0000000000
     40803      1277  PVPG      O22             1.2798017114      -14.9538343353      -14.6413728790  MEMB      17              0.0000000000
     40804      1277  PVPG      C22             3.2175877363      -16.1901954695      -13.6649720195  MEMB      17              0.0000000000
     40805      1277  PVPG      H2R             4.0926925066      -16.2442016885      -14.3801459137  MEMB      17              0.0000000000
     40806      1277  PVPG      H2S             3.2012106703      -17.0897434755      -13.0574535658  MEMB      17              0.0000000000
     40807      1277  PVPG      C3             -0.6058386526      -16.7396719757      -15.2194570719  MEMB      17              0.0000000000
     40808      1277  PVPG      HX             -0.7226172965      -15.8083022997      -14.6150258980  MEMB      17              0.0000000000
     40809      1277  PVPG      HY             -1.4966529534      -16.7411118014      -15.8813479452  MEMB      17              0.0000000000
     40810      1277  PVPG      O31            -0.5072947119      -17.8962166070      -14.3532877844  MEMB      17              0.0000000000
     40811      1277  PVPG      C31            -1.4914804912      -17.9667646899      -13.5064917209  MEMB      17              0.0000000000
     40812      1277  PVPG      O32            -2.4389304249      -17.2053246410      -13.4766165272  MEMB      17              0.0000000000
     40813      1277  PVPG      C32            -1.2185941927      -19.0595157642      -12.4816927726  MEMB      17              0.0000000000
     40814      1277  PVPG      H2X            -0.2012608309      -18.8522050811      -12.0913820329  MEMB      17              0.0000000000
     40815      1277  PVPG      H2Y            -1.2672081648      -20.0567979958      -12.9644541056  MEMB      17              0.0000000000
     40816      1277  PVPG      C23             3.6048729139      -15.1811999487      -12.6307053759  MEMB      17              0.0000000000
     40817      1277  PVPG      H3R             3.3356135625      -14.1626158538      -12.8822284104  MEMB      17              0.0000000000
     40818      1277  PVPG      H3S             4.6940428006      -15.3973314194      -12.4930286543  MEMB      17              0.0000000000
     40819      1277  PVPG      C24             3.0468300367      -14.8777998870      -11.3059844520  MEMB      17              0.0000000000
     40820      1277  PVPG      H4R             3.8382606707      -14.4843547895      -10.6071821221  MEMB      17              0.0000000000
     40821      1277  PVPG      H4S             2.8142732935      -15.8699364404      -10.9778153596  MEMB      17              0.0000000000
     40822      1277  PVPG      C25             1.9183736740      -13.8026085140      -11.5020064092  MEMB      17              0.0000000000
     40823      1277  PVPG      H5R             1.2070510715      -14.0843604563      -12.2541930931  MEMB      17              0.0000000000
     40824      1277  PVPG      H5S             2.2910828997      -12.7642828342      -11.7525388243  MEMB      17              0.0000000000
     40825      1277  PVPG      C26             1.0584419581      -13.7521721911      -10.3166448344  MEMB      17              0.0000000000
     40826      1277  PVPG      H6R             0.6702833986      -12.7708335621       -9.9944776012  MEMB      17              0.0000000000
     40827      1277  PVPG      H6S             2.0392564492      -13.6434871823      -10.0476296556  MEMB      17              0.0000000000
     40828      1277  PVPG      C27             0.7718858730      -15.0465787430       -9.5632396216  MEMB      17              0.0000000000
     40829      1277  PVPG      H7R             1.5756311194      -15.8119905084       -9.3973463822  MEMB      17              0.0000000000
     40830      1277  PVPG      H7S             0.0705643231      -15.4293177250      -10.3156752259  MEMB      17              0.0000000000
     40831      1277  PVPG      C28             0.0565166424      -14.8131647890       -8.2499145548  MEMB      17              0.0000000000
     40832      1277  PVPG      H8R            -0.6487239274      -13.9854910670       -8.4112885998  MEMB      17              0.0000000000
     40833      1277  PVPG      H8S             0.6664209843      -14.4854387510       -7.4170145325  MEMB      17              0.0000000000
     40834      1277  PVPG      C29            -0.5870179462      -16.0793078621       -7.7677515737  MEMB      17              0.0000000000
     40835      1277  PVPG      H9R             0.2071288412      -16.8546408287       -7.6161899445  MEMB      17              0.0000000000
     40836      1277  PVPG      H9S            -1.2614696445      -16.3870437825       -8.6074561281  MEMB      17              0.0000000000
     40837      1277  PVPG      C210           -1.4216114747      -15.8802240241       -6.5206016533  MEMB      17              0.0000000000
     40838      1277  PVPG      H10R           -2.2865246477      -15.2336289986       -6.7786901638  MEMB      17              0.0000000000
     40839      1277  PVPG      H10S           -0.9813495716      -15.5351097470       -5.5686955917  MEMB      17              0.0000000000
     40840      1277  PVPG      C211           -1.9515136641      -17.2319082025       -6.3704734920  MEMB      17              0.0000000000
     40841      1277  PVPG      H111           -2.6012114437      -17.4722886478       -7.2110110668  MEMB      17              0.0000000000
     40842      1277  PVPG      C212           -1.7228704715      -18.1894700049       -5.4687541073  MEMB      17              0.0000000000
     40843      1277  PVPG      H121           -2.4336945302      -18.9012662357       -5.2147093510  MEMB      17              0.0000000000
     40844      1277  PVPG      C213           -0.9364209519      -18.3710869981       -4.3284587075  MEMB      17              0.0000000000
     40845      1277  PVPG      H13R           -0.3300039247      -17.5886939117       -4.7164233732  MEMB      17              0.0000000000
     40846      1277  PVPG      H13S           -0.3244086583      -19.2500216298       -4.4230264609  MEMB      17              0.0000000000
     40847      1277  PVPG      C214           -1.4459154745      -18.4715220680       -2.8487196576  MEMB      17              0.0000000000
     40848      1277  PVPG      H14R           -1.7498289986      -19.4655159611       -2.8703204205  MEMB      17              0.0000000000
     40849      1277  PVPG      H14S           -2.2859966166      -17.7673214255       -2.6572297851  MEMB      17              0.0000000000
     40850      1277  PVPG      C215           -0.4757435168      -18.9079699765       -1.6750013959  MEMB      17              0.0000000000
     40851      1277  PVPG      H15R            0.5152266408      -18.5273125524       -1.7617539985  MEMB      17              0.0000000000
     40852      1277  PVPG      H15S           -0.0473564289      -19.8976935118       -1.7866244139  MEMB      17              0.0000000000
     40853      1277  PVPG      C216           -0.7138542414      -18.6709512108       -0.1893212076  MEMB      17              0.0000000000
     40854      1277  PVPG      H16R            0.1005263414      -18.8252371774        0.4315816775  MEMB      17              0.0000000000
     40855      1277  PVPG      H16S           -1.3408498793      -19.2507881635        0.3752998441  MEMB      17              0.0000000000
     40856      1277  PVPG      C217           -0.8666627101      -17.4396194231        0.4910606088  MEMB      17              0.0000000000
     40857      1277  PVPG      H17R           -1.9192328544      -17.4138843886        0.9001332876  MEMB      17              0.0000000000
     40858      1277  PVPG      H17S           -1.6261213175      -17.0662349815       -0.3960293417  MEMB      17              0.0000000000
     40859      1277  PVPG      C218            0.8317821356      -15.7199584487        1.1662286227  MEMB      17              0.0000000000
     40860      1277  PVPG      H18R            0.4394991251      -14.8223690807        1.7846861789  MEMB      17              0.0000000000
     40861      1277  PVPG      H18S            1.1090417336      -16.6189949170        1.3348889344  MEMB      17              0.0000000000
     40862      1277  PVPG      H18T            0.7802600457      -14.7702276195        0.4037059617  MEMB      17              0.0000000000
     40863      1277  PVPG      C33            -2.3104463752      -19.0154625105      -11.4008497950  MEMB      17              0.0000000000
     40864      1277  PVPG      H3X            -3.2641232829      -19.2787012577      -11.9180230095  MEMB      17              0.0000000000
     40865      1277  PVPG      H3Y            -2.4061151429      -17.9780604857      -11.0001726555  MEMB      17              0.0000000000
     40866      1277  PVPG      C34            -2.1286139704      -19.9771263115      -10.2252470753  MEMB      17              0.0000000000
     40867      1277  PVPG      H4X            -2.0884534936      -21.0136690335      -10.6159333917  MEMB      17              0.0000000000
     40868      1277  PVPG      H4Y            -3.0298952004      -19.9035514664       -9.5734041952  MEMB      17              0.0000000000
     40869      1277  PVPG      C35            -0.8736306526      -19.6571898356       -9.4144777853  MEMB      17              0.0000000000
     40870      1277  PVPG      H5X            -1.0344724490      -18.6876154705       -8.8889849723  MEMB      17              0.0000000000
     40871      1277  PVPG      H5Y             0.0053428576      -19.5406436793      -10.0827669441  MEMB      17              0.0000000000
     40872      1277  PVPG      C36            -0.4888555954      -20.7149659843       -8.3984759664  MEMB      17              0.0000000000
     40873      1277  PVPG      H6X            -0.1340781793      -21.6683071844       -8.8482380714  MEMB      17              0.0000000000
     40874      1277  PVPG      H6Y            -1.3435130135      -20.9417888141       -7.7249866781  MEMB      17              0.0000000000
     40875      1277  PVPG      C37             0.6174170222      -20.1979289409       -7.5404166089  MEMB      17              0.0000000000
     40876      1277  PVPG      H7X             0.1738643093      -19.4789721270       -6.8311843503  MEMB      17              0.0000000000
     40877      1277  PVPG      H7Y             1.4354802936      -19.6585446654       -8.0939062244  MEMB      17              0.0000000000
     40878      1277  PVPG      C38             1.1311621414      -21.3132942840       -6.7001117984  MEMB      17              0.0000000000
     40879      1277  PVPG      H8X             1.7183125067      -22.0259337006       -7.2818228219  MEMB      17              0.0000000000
     40880      1277  PVPG      H8Y             0.5150148782      -21.9715367266       -6.0934174001  MEMB      17              0.0000000000
     40881      1277  PVPG      C39             2.0675243981      -20.6948590660       -5.7836230821  MEMB      17              0.0000000000
     40882      1277  PVPG      H9X             2.7615545907      -20.6608241991       -6.6602956211  MEMB      17              0.0000000000
     40883      1277  PVPG      H9Y             2.5109501052      -21.5291996104       -5.1632968918  MEMB      17              0.0000000000
     40884      1277  PVPG      C310            2.0377401920      -19.1273677043       -5.2419433352  MEMB      17              0.0000000000
     40885      1277  PVPG      H10X            1.5302971040      -19.3596076460       -4.2849923829  MEMB      17              0.0000000000
     40886      1277  PVPG      H10Y            1.4841670106      -18.5195170767       -5.9470223536  MEMB      17              0.0000000000
     40887      1277  PVPG      C311            3.2732084832      -17.9858359322       -5.1421480663  MEMB      17              0.0000000000
     40888      1277  PVPG      H11X            3.9362437547      -17.8478599821       -6.0063395995  MEMB      17              0.0000000000
     40889      1277  PVPG      H11Y            4.2858462744      -18.1158070685       -4.8091096151  MEMB      17              0.0000000000
     40890      1277  PVPG      C312            3.3983763856      -17.0143180136       -4.0648918053  MEMB      17              0.0000000000
     40891      1277  PVPG      H12X            4.4360097355      -16.5655313781       -3.8787927601  MEMB      17              0.0000000000
     40892      1277  PVPG      H12Y            3.0823856029      -17.4453087861       -3.0990446746  MEMB      17              0.0000000000
     40893      1277  PVPG      C313            2.5852241727      -16.1816834882       -4.9238941069  MEMB      17              0.0000000000
     40894      1277  PVPG      H13X            1.5920224940      -16.6037876934       -5.1283874468  MEMB      17              0.0000000000
     40895      1277  PVPG      H13Y            3.0779100044      -16.0521442652       -5.9230867569  MEMB      17              0.0000000000
     40896      1277  PVPG      C314            2.6164376997      -14.9613739432       -4.2456011954  MEMB      17              0.0000000000
     40897      1277  PVPG      H14X            2.1590142921      -14.1833676684       -4.8642609667  MEMB      17              0.0000000000
     40898      1277  PVPG      H14Y            3.6272031494      -14.8863335764       -3.7715752149  MEMB      17              0.0000000000
     40899      1277  PVPG      C315            2.0041716043      -14.5903176438       -3.0603765743  MEMB      17              0.0000000000
     40900      1277  PVPG      H15X            2.2976345596      -15.2114387074       -2.1662669934  MEMB      17              0.0000000000
     40901      1277  PVPG      H15Y            0.9368271542      -14.5173844824       -3.4997190160  MEMB      17              0.0000000000
     40902      1277  PVPG      C316            1.9284530518      -13.4295764160       -2.4988505522  MEMB      17              0.0000000000
     40903      1277  PVPG      H16X            1.3489830329      -13.7594588522       -1.5720441352  MEMB      17              0.0000000000
     40904      1277  PVPG      H16Y            2.7664186862      -12.9035904162       -2.1704530961  MEMB      17              0.0000000000
     40905      1277  PVPG      H16Z            1.2173064491      -12.8394473934       -3.0901864989  MEMB      17              0.0000000000
     40906      1278  PVPG      C13           -15.6960009086        7.4326070161      -18.0398027856  MEMB      18              0.0000000000
     40907      1278  PVPG      H13A          -15.2693645802        6.8658778122      -17.1844659779  MEMB      18              0.0000000000
     40908      1278  PVPG      H13B          -14.8811682245        7.9168128756      -18.6163996921  MEMB      18              0.0000000000
     40909      1278  PVPG      OC3           -16.5689420913        8.4232851570      -17.4995428132  MEMB      18              0.0000000000
     40910      1278  PVPG      HO3           -16.0117796600        9.0246368905      -17.0037145933  MEMB      18              0.0000000000
     40911      1278  PVPG      C12           -16.4192861899        6.4635858553      -19.0006713926  MEMB      18              0.0000000000
     40912      1278  PVPG      H12A          -15.6713559288        5.7477330570      -19.4090726286  MEMB      18              0.0000000000
     40913      1278  PVPG      OC2           -16.9311247503        7.1863007926      -20.1165225986  MEMB      18              0.0000000000
     40914      1278  PVPG      HO2           -17.5465111380        6.5547068120      -20.5306754720  MEMB      18              0.0000000000
     40915      1278  PVPG      C11           -17.5002224092        5.6611450463      -18.2233433545  MEMB      18              0.0000000000
     40916      1278  PVPG      H11A          -18.1866669358        6.3783057800      -17.7117900684  MEMB      18              0.0000000000
     40917      1278  PVPG      H11B          -16.9413949736        5.1012758597      -17.4402285549  MEMB      18              0.0000000000
     40918      1278  PVPG      P             -19.6698605864        4.9520973740      -19.4844704816  MEMB      18              0.0000000000
     40919      1278  PVPG      O13           -20.0166016775        3.8021954466      -20.3476751627  MEMB      18              0.0000000000
     40920      1278  PVPG      O14           -19.7584841919        6.3121641937      -20.0619009184  MEMB      18              0.0000000000
     40921      1278  PVPG      O12           -18.1879179641        4.7045015331      -19.0220777893  MEMB      18              0.0000000000
     40922      1278  PVPG      O11           -20.4610403224        4.8581052026      -18.1256832236  MEMB      18              0.0000000000
     40923      1278  PVPG      C1            -20.6602083096        3.6109547557      -17.4698014828  MEMB      18              0.0000000000
     40924      1278  PVPG      HA            -19.7660857637        2.9404313203      -17.5423387205  MEMB      18              0.0000000000
     40925      1278  PVPG      HB            -21.5355381833        3.1098613249      -17.9373769424  MEMB      18              0.0000000000
     40926      1278  PVPG      C2            -20.9780917985        3.8380424730      -15.9701065967  MEMB      18              0.0000000000
     40927      1278  PVPG      HS            -21.8076970541        3.1611101039      -15.6505939866  MEMB      18              0.0000000000
     40928      1278  PVPG      O21           -21.2710889834        5.2163639699      -15.7113935826  MEMB      18              0.0000000000
     40929      1278  PVPG      C21           -22.4944463588        5.5036527598      -16.0906737657  MEMB      18              0.0000000000
     40930      1278  PVPG      O22           -23.4156754003        4.7100274121      -16.1216863309  MEMB      18              0.0000000000
     40931      1278  PVPG      C22           -22.6092286605        7.0274364941      -16.2102090163  MEMB      18              0.0000000000
     40932      1278  PVPG      H2R           -23.5666406904        7.2220670265      -16.7526035939  MEMB      18              0.0000000000
     40933      1278  PVPG      H2S           -21.7414102056        7.4575856532      -16.6957027412  MEMB      18              0.0000000000
     40934      1278  PVPG      C3            -19.7533472284        3.4875546344      -15.1384620358  MEMB      18              0.0000000000
     40935      1278  PVPG      HX            -19.3802024070        2.4839127080      -15.4389401037  MEMB      18              0.0000000000
     40936      1278  PVPG      HY            -18.9746366797        4.2506987822      -15.3344263913  MEMB      18              0.0000000000
     40937      1278  PVPG      O31           -20.0579860413        3.5839364385      -13.7643940556  MEMB      18              0.0000000000
     40938      1278  PVPG      C31           -20.0570316361        2.4983821467      -13.0968143810  MEMB      18              0.0000000000
     40939      1278  PVPG      O32           -20.1200532299        1.3421875559      -13.4970809517  MEMB      18              0.0000000000
     40940      1278  PVPG      C32           -20.1387042818        2.9106317931      -11.6758561060  MEMB      18              0.0000000000
     40941      1278  PVPG      H2X           -20.9799607084        2.1987642643      -11.5733748269  MEMB      18              0.0000000000
     40942      1278  PVPG      H2Y           -20.5272056299        3.9355982271      -11.5056471488  MEMB      18              0.0000000000
     40943      1278  PVPG      C23           -22.7995265677        7.7489035790      -14.8909618207  MEMB      18              0.0000000000
     40944      1278  PVPG      H3R           -23.4640150834        6.9375329407      -14.6573114058  MEMB      18              0.0000000000
     40945      1278  PVPG      H3S           -23.3576163252        8.7113838814      -14.9714106186  MEMB      18              0.0000000000
     40946      1278  PVPG      C24           -21.8935103332        7.6737891118      -13.6761425539  MEMB      18              0.0000000000
     40947      1278  PVPG      H4R           -21.6693969164        6.6329150398      -13.3586749086  MEMB      18              0.0000000000
     40948      1278  PVPG      H4S           -22.4748409318        8.1615739370      -12.8794127340  MEMB      18              0.0000000000
     40949      1278  PVPG      C25           -20.7721016539        8.6584040887      -13.7579413261  MEMB      18              0.0000000000
     40950      1278  PVPG      H5R           -20.9306560895        9.0790105891      -14.7760943917  MEMB      18              0.0000000000
     40951      1278  PVPG      H5S           -19.8030361786        8.1386714679      -13.7276608332  MEMB      18              0.0000000000
     40952      1278  PVPG      C26           -20.8707849643        9.8005205572      -12.7302926981  MEMB      18              0.0000000000
     40953      1278  PVPG      H6R           -21.9237652061        9.9732670490      -12.4008915318  MEMB      18              0.0000000000
     40954      1278  PVPG      H6S           -20.5898093163       10.7432019092      -13.2446202070  MEMB      18              0.0000000000
     40955      1278  PVPG      C27           -19.8707024262        9.7189114634      -11.5704549192  MEMB      18              0.0000000000
     40956      1278  PVPG      H7R           -20.0285885859       10.6477290682      -10.9643274750  MEMB      18              0.0000000000
     40957      1278  PVPG      H7S           -18.8277037766        9.6556176103      -11.9231847899  MEMB      18              0.0000000000
     40958      1278  PVPG      C28           -20.0149302697        8.5877839197      -10.6062124036  MEMB      18              0.0000000000
     40959      1278  PVPG      H8R           -19.2162352663        8.6473226305       -9.8222849797  MEMB      18              0.0000000000
     40960      1278  PVPG      H8S           -20.0176393759        7.5573258948      -11.0216617558  MEMB      18              0.0000000000
     40961      1278  PVPG      C29           -21.2585001642        8.8708780859       -9.9139591213  MEMB      18              0.0000000000
     40962      1278  PVPG      H9R           -22.1565206371        8.6903148053      -10.5466300779  MEMB      18              0.0000000000
     40963      1278  PVPG      H9S           -21.4409164305        9.9180697590       -9.6358921551  MEMB      18              0.0000000000
     40964      1278  PVPG      C210          -21.1378322575        8.1067119294       -8.6445247911  MEMB      18              0.0000000000
     40965      1278  PVPG      H10R          -21.2672272001        7.0203757925       -8.7112641219  MEMB      18              0.0000000000
     40966      1278  PVPG      H10S          -22.0523114082        8.7004351509       -8.3565114964  MEMB      18              0.0000000000
     40967      1278  PVPG      C211          -20.3123496599        8.1645120883       -7.4426130750  MEMB      18              0.0000000000
     40968      1278  PVPG      H111          -20.2304333426        9.2002950820       -7.1943157139  MEMB      18              0.0000000000
     40969      1278  PVPG      C212          -20.0185823928        7.1743463271       -6.5577161962  MEMB      18              0.0000000000
     40970      1278  PVPG      H121          -19.4739295373        7.5132080071       -5.6752562820  MEMB      18              0.0000000000
     40971      1278  PVPG      C213          -20.4146099999        5.6876580368       -6.5114947804  MEMB      18              0.0000000000
     40972      1278  PVPG      H13R          -19.7663252984        5.1494111219       -5.7877105611  MEMB      18              0.0000000000
     40973      1278  PVPG      H13S          -20.1929754595        5.2423305340       -7.5134476247  MEMB      18              0.0000000000
     40974      1278  PVPG      C214          -21.7799824230        5.0499086646       -6.0896248688  MEMB      18              0.0000000000
     40975      1278  PVPG      H14R          -21.7962587787        4.0232169486       -5.9974973443  MEMB      18              0.0000000000
     40976      1278  PVPG      H14S          -22.3922023104        4.9505060055       -6.9628567163  MEMB      18              0.0000000000
     40977      1278  PVPG      C215          -22.6802575926        5.5562323706       -4.9792589456  MEMB      18              0.0000000000
     40978      1278  PVPG      H15R          -23.7336591734        5.2348215730       -4.9669047193  MEMB      18              0.0000000000
     40979      1278  PVPG      H15S          -22.8931655847        6.4242725878       -5.4402320311  MEMB      18              0.0000000000
     40980      1278  PVPG      C216          -22.1030680956        6.0620077243       -3.6986763260  MEMB      18              0.0000000000
     40981      1278  PVPG      H16R          -22.9148662522        6.5122498086       -3.0725680614  MEMB      18              0.0000000000
     40982      1278  PVPG      H16S          -21.2752491457        6.8096097193       -3.7882320378  MEMB      18              0.0000000000
     40983      1278  PVPG      C217          -21.4637337949        4.9258545664       -3.0940298730  MEMB      18              0.0000000000
     40984      1278  PVPG      H17R          -20.7336967098        4.5099305335       -3.8310131689  MEMB      18              0.0000000000
     40985      1278  PVPG      H17S          -22.3208616609        4.2274921118       -2.9772730916  MEMB      18              0.0000000000
     40986      1278  PVPG      C218          -20.8918420502        5.5171374663       -1.8198937480  MEMB      18              0.0000000000
     40987      1278  PVPG      H18R          -20.5666112850        4.8318159571       -1.0528243330  MEMB      18              0.0000000000
     40988      1278  PVPG      H18S          -19.9483837409        6.0564415072       -1.9536230450  MEMB      18              0.0000000000
     40989      1278  PVPG      H18T          -21.7164157835        6.0407730035       -1.2966338416  MEMB      18              0.0000000000
     40990      1278  PVPG      C33           -18.7970005873        2.6882635393      -10.9227159645  MEMB      18              0.0000000000
     40991      1278  PVPG      H3X           -18.0731244423        3.3898555735      -11.3785170833  MEMB      18              0.0000000000
     40992      1278  PVPG      H3Y           -18.4701401215        1.6223278480      -10.9821357556  MEMB      18              0.0000000000
     40993      1278  PVPG      C34           -18.5777156052        3.1827674320       -9.5019301658  MEMB      18              0.0000000000
     40994      1278  PVPG      H4X           -18.9988745319        4.1841864624       -9.2956109001  MEMB      18              0.0000000000
     40995      1278  PVPG      H4Y           -17.5829095568        2.9494272076       -9.0568525465  MEMB      18              0.0000000000
     40996      1278  PVPG      C35           -19.0950523798        2.2677033195       -8.5927703275  MEMB      18              0.0000000000
     40997      1278  PVPG      H5X           -19.4790238831        1.3690836177       -9.1481791929  MEMB      18              0.0000000000
     40998      1278  PVPG      H5Y           -19.8416097981        2.8594164565       -8.0258824600  MEMB      18              0.0000000000
     40999      1278  PVPG      C36           -18.8716040584        2.3933522443       -7.1988774914  MEMB      18              0.0000000000
     41000      1278  PVPG      H6X           -19.5470247846        1.6512117778       -6.8442483711  MEMB      18              0.0000000000
     41001      1278  PVPG      H6Y           -19.1106494081        3.2794032211       -6.5373368512  MEMB      18              0.0000000000
     41002      1278  PVPG      C37           -18.3220724089        1.2814024714       -6.7485673185  MEMB      18              0.0000000000
     41003      1278  PVPG      H7X           -17.4822757740        1.4378915545       -7.4330714085  MEMB      18              0.0000000000
     41004      1278  PVPG      H7Y           -18.6406954443        0.2107377478       -7.0665547890  MEMB      18              0.0000000000
     41005      1278  PVPG      C38           -18.3008742663        1.7716174293       -5.2556729692  MEMB      18              0.0000000000
     41006      1278  PVPG      H8X           -18.3658611579        0.8297803017       -4.7864541116  MEMB      18              0.0000000000
     41007      1278  PVPG      H8Y           -18.8913223964        1.6173392887       -4.3668459853  MEMB      18              0.0000000000
     41008      1278  PVPG      C39           -17.2880030145        2.8216054880       -5.0303466786  MEMB      18              0.0000000000
     41009      1278  PVPG      H9X           -18.0283965717        3.6178432562       -5.1111050799  MEMB      18              0.0000000000
     41010      1278  PVPG      H9Y           -16.5506887628        2.8961410399       -5.8410856955  MEMB      18              0.0000000000
     41011      1278  PVPG      C310          -16.6708286186        2.8481771595       -3.6799783496  MEMB      18              0.0000000000
     41012      1278  PVPG      H10X          -15.7541173748        2.2096273788       -3.6148961659  MEMB      18              0.0000000000
     41013      1278  PVPG      H10Y          -17.3882380161        2.6063145003       -2.8828935967  MEMB      18              0.0000000000
     41014      1278  PVPG      C311          -16.1708829524        4.1186996843       -3.3001673338  MEMB      18              0.0000000000
     41015      1278  PVPG      H11X          -15.4390719872        4.1141261273       -4.0337039242  MEMB      18              0.0000000000
     41016      1278  PVPG      H11Y          -15.7888255908        3.9003245959       -2.2924751960  MEMB      18              0.0000000000
     41017      1278  PVPG      C312          -17.0627816171        5.2650621630       -3.4319176185  MEMB      18              0.0000000000
     41018      1278  PVPG      H12X          -17.7828231616        5.0393522073       -2.6271629200  MEMB      18              0.0000000000
     41019      1278  PVPG      H12Y          -17.5446280634        5.2476481045       -4.4279629622  MEMB      18              0.0000000000
     41020      1278  PVPG      C313          -16.3003873630        6.5581643096       -3.2615125236  MEMB      18              0.0000000000
     41021      1278  PVPG      H13X          -15.5414747834        6.6387080276       -4.0702878630  MEMB      18              0.0000000000
     41022      1278  PVPG      H13Y          -15.7433538941        6.5355961755       -2.2984858898  MEMB      18              0.0000000000
     41023      1278  PVPG      C314          -17.2309275634        7.7680752592       -3.3083085373  MEMB      18              0.0000000000
     41024      1278  PVPG      H14X          -17.7420998836        7.8881034667       -2.3245703350  MEMB      18              0.0000000000
     41025      1278  PVPG      H14Y          -17.9299753631        7.7177156066       -4.1555632136  MEMB      18              0.0000000000
     41026      1278  PVPG      C315          -16.4792388910        9.0305148749       -3.4981412811  MEMB      18              0.0000000000
     41027      1278  PVPG      H15X          -16.9875032105        9.9771552114       -3.6879845765  MEMB      18              0.0000000000
     41028      1278  PVPG      H15Y          -15.8311591269        8.8715369678       -4.4023837125  MEMB      18              0.0000000000
     41029      1278  PVPG      C316          -15.9349430965        9.3099743627       -2.1232095108  MEMB      18              0.0000000000
     41030      1278  PVPG      H16X          -15.0889649202        9.7208056725       -2.4922435309  MEMB      18              0.0000000000
     41031      1278  PVPG      H16Y          -15.7597676031       10.3323811907       -1.7518821925  MEMB      18              0.0000000000
     41032      1278  PVPG      H16Z          -15.4525256906        8.4353102268       -1.6571587113  MEMB      18              0.0000000000
     41033      1279  PPPE      N              20.8596248035        4.9364778661      -20.3033537982  MEMB      19              0.0000000000
     41034      1279  PPPE      HN1            20.5052061770        3.9941563029      -20.0277673406  MEMB      19              0.0000000000
     41035      1279  PPPE      HN2            21.7873693574        4.9006136061      -20.7764646117  MEMB      19              0.0000000000
     41036      1279  PPPE      HN3            20.8492222774        5.5196627363      -19.4372849723  MEMB      19              0.0000000000
     41037      1279  PPPE      C12            19.7580950761        5.5498608404      -21.1124608017  MEMB      19              0.0000000000
     41038      1279  PPPE      H12A           19.8328915013        5.1974013657      -22.1615711100  MEMB      19              0.0000000000
     41039      1279  PPPE      H12B           19.8945227245        6.6492731239      -21.1007447435  MEMB      19              0.0000000000
     41040      1279  PPPE      C11            18.4352139294        5.1495394547      -20.4350920606  MEMB      19              0.0000000000
     41041      1279  PPPE      H11A           18.2110791045        4.1078343443      -20.7210870090  MEMB      19              0.0000000000
     41042      1279  PPPE      H11B           17.6186833000        5.8202668785      -20.7846435440  MEMB      19              0.0000000000
     41043      1279  PPPE      P              17.6218329659        5.8751513583      -18.0127218242  MEMB      19              0.0000000000
     41044      1279  PPPE      O13            17.1070309667        7.0802359884      -18.6811813730  MEMB      19              0.0000000000
     41045      1279  PPPE      O14            16.6968164507        4.9248464218      -17.3837386709  MEMB      19              0.0000000000
     41046      1279  PPPE      O11            18.7668304833        6.2673184744      -17.0314737343  MEMB      19              0.0000000000
     41047      1279  PPPE      O12            18.5523004499        5.0951163169      -19.0286576899  MEMB      19              0.0000000000
     41048      1279  PPPE      C1             19.3897676758        5.3013575172      -16.2013197361  MEMB      19              0.0000000000
     41049      1279  PPPE      HA             20.1645647269        4.7388922599      -16.7659789580  MEMB      19              0.0000000000
     41050      1279  PPPE      HB             18.6566289510        4.6052767539      -15.7343057127  MEMB      19              0.0000000000
     41051      1279  PPPE      C2             20.1152470700        6.0632627610      -15.1136479863  MEMB      19              0.0000000000
     41052      1279  PPPE      HS             20.7436953325        5.3793791349      -14.5002423783  MEMB      19              0.0000000000
     41053      1279  PPPE      O21            19.1687502439        6.7518195539      -14.2675915167  MEMB      19              0.0000000000
     41054      1279  PPPE      C21            18.3904317493        6.0236943575      -13.5083121615  MEMB      19              0.0000000000
     41055      1279  PPPE      O22            18.4615969348        4.8181204494      -13.3477985998  MEMB      19              0.0000000000
     41056      1279  PPPE      C22            17.5096202279        6.9159439816      -12.6376982061  MEMB      19              0.0000000000
     41057      1279  PPPE      H2R            16.4919849639        6.4935479757      -12.5699322721  MEMB      19              0.0000000000
     41058      1279  PPPE      H2S            17.4716637482        7.9515270658      -13.0313834762  MEMB      19              0.0000000000
     41059      1279  PPPE      C3             21.0952922418        7.0656642538      -15.7989988371  MEMB      19              0.0000000000
     41060      1279  PPPE      HX             21.5217265275        6.7003433080      -16.7331554435  MEMB      19              0.0000000000
     41061      1279  PPPE      HY             20.5256372266        7.9686938521      -16.1677677717  MEMB      19              0.0000000000
     41062      1279  PPPE      O31            22.1882019638        7.2784863482      -14.8831430585  MEMB      19              0.0000000000
     41063      1279  PPPE      C31            21.5983664519        8.1199049600      -14.0167633027  MEMB      19              0.0000000000
     41064      1279  PPPE      O32            20.6534897297        8.7542525309      -14.2779278441  MEMB      19              0.0000000000
     41065      1279  PPPE      C32            22.1603282675        8.3508933039      -12.7292237101  MEMB      19              0.0000000000
     41066      1279  PPPE      H2X            22.7767817190        7.7655750063      -12.3142124760  MEMB      19              0.0000000000
     41067      1279  PPPE      H2Y            23.0625827755        7.8304342402      -13.1281845132  MEMB      19              0.0000000000
     41068      1279  PPPE      C23            18.1498078506        6.8770779793      -11.2475815673  MEMB      19              0.0000000000
     41069      1279  PPPE      H3R            19.1674102795        7.1357998442      -11.4566197829  MEMB      19              0.0000000000
     41070      1279  PPPE      H3S            18.1745676009        5.8481748011      -10.8422802556  MEMB      19              0.0000000000
     41071      1279  PPPE      C24            17.5992239733        7.8950936819      -10.2557472093  MEMB      19              0.0000000000
     41072      1279  PPPE      H4R            16.5110909867        7.7305087587      -10.1777307837  MEMB      19              0.0000000000
     41073      1279  PPPE      H4S            17.7727047649        8.9055491284      -10.6997228809  MEMB      19              0.0000000000
     41074      1279  PPPE      C25            18.1551903862        7.7551879456       -8.8258972186  MEMB      19              0.0000000000
     41075      1279  PPPE      H5R            17.9766939870        6.7520609225       -8.4286620663  MEMB      19              0.0000000000
     41076      1279  PPPE      H5S            17.6660683361        8.5199937652       -8.1541244799  MEMB      19              0.0000000000
     41077      1279  PPPE      C26            19.6365894720        8.0233700375       -8.7751205347  MEMB      19              0.0000000000
     41078      1279  PPPE      H6R            19.3798991117        9.0561685866       -8.7588818686  MEMB      19              0.0000000000
     41079      1279  PPPE      H6S            20.2032095466        7.8904363855       -9.6818225235  MEMB      19              0.0000000000
     41080      1279  PPPE      C27            20.5113948531        7.5357449230       -7.6412350723  MEMB      19              0.0000000000
     41081      1279  PPPE      H7R            20.7290417358        6.4753922121       -7.8335286301  MEMB      19              0.0000000000
     41082      1279  PPPE      H7S            20.0374195337        7.6863696828       -6.6438433012  MEMB      19              0.0000000000
     41083      1279  PPPE      C28            21.9268530570        8.0265505437       -7.7032059834  MEMB      19              0.0000000000
     41084      1279  PPPE      H8R            22.0493636132        9.0113056568       -8.0006979076  MEMB      19              0.0000000000
     41085      1279  PPPE      H8S            22.5320821036        8.0872862879       -8.5198439932  MEMB      19              0.0000000000
     41086      1279  PPPE      C29            22.6437958277        7.9204012674       -6.5047753465  MEMB      19              0.0000000000
     41087      1279  PPPE      H91            23.2340413407        7.1508958162       -6.1923354355  MEMB      19              0.0000000000
     41088      1279  PPPE      C210           22.3451277423        8.3140382987       -5.3744460571  MEMB      19              0.0000000000
     41089      1279  PPPE      H101           23.1856093584        9.0696081438       -5.4771786085  MEMB      19              0.0000000000
     41090      1279  PPPE      C211           21.2460456608        8.9940482129       -4.8257048916  MEMB      19              0.0000000000
     41091      1279  PPPE      H11R           21.3882238633       10.0275549801       -4.7399274809  MEMB      19              0.0000000000
     41092      1279  PPPE      H11S           21.5791684117        9.6744176929       -5.5011903098  MEMB      19              0.0000000000
     41093      1279  PPPE      C212           20.3072477235        9.1660744006       -3.6325644637  MEMB      19              0.0000000000
     41094      1279  PPPE      H12R           19.5218318819        8.5534236980       -4.0720224358  MEMB      19              0.0000000000
     41095      1279  PPPE      H12S           19.9488527061       10.2234744126       -3.5201028239  MEMB      19              0.0000000000
     41096      1279  PPPE      C213           20.6307505056        8.7830961173       -2.2311077425  MEMB      19              0.0000000000
     41097      1279  PPPE      H13R           21.2377393705        9.5233489769       -1.7706625803  MEMB      19              0.0000000000
     41098      1279  PPPE      H13S           20.9629824758        7.7495653281       -2.1387655724  MEMB      19              0.0000000000
     41099      1279  PPPE      C214           19.5226946541        8.8671512392       -1.2204149123  MEMB      19              0.0000000000
     41100      1279  PPPE      H14R           18.9818822127        7.9214111105       -1.4329611821  MEMB      19              0.0000000000
     41101      1279  PPPE      H14S           18.9031189917        9.7637174229       -1.4317053008  MEMB      19              0.0000000000
     41102      1279  PPPE      C215           20.1569988847        8.9653002621        0.1839092291  MEMB      19              0.0000000000
     41103      1279  PPPE      H15R           20.8384408608        9.8522014423        0.2294410425  MEMB      19              0.0000000000
     41104      1279  PPPE      H15S           20.7889171948        8.0659829917        0.3786227995  MEMB      19              0.0000000000
     41105      1279  PPPE      C216           19.0946505538        9.1102161268        1.2549394587  MEMB      19              0.0000000000
     41106      1279  PPPE      H16R           18.2069097401        8.5485632772        0.8998429964  MEMB      19              0.0000000000
     41107      1279  PPPE      H16S           19.4184126872        8.7061398797        2.2379084394  MEMB      19              0.0000000000
     41108      1279  PPPE      H16T           18.8009792290       10.1760687392        1.3690869936  MEMB      19              0.0000000000
     41109      1279  PPPE      C33            21.8135320702        7.4775744034      -11.4752864973  MEMB      19              0.0000000000
     41110      1279  PPPE      H3X            20.8014533171        7.5681721166      -11.3848871126  MEMB      19              0.0000000000
     41111      1279  PPPE      H3Y            22.1250952611        8.0643843785      -10.5627602587  MEMB      19              0.0000000000
     41112      1279  PPPE      C34            22.4919185429        6.0277786096      -11.6617451920  MEMB      19              0.0000000000
     41113      1279  PPPE      H4X            23.5706082263        6.0870891542      -12.0216111235  MEMB      19              0.0000000000
     41114      1279  PPPE      H4Y            21.9766576973        5.6433469931      -12.5339594585  MEMB      19              0.0000000000
     41115      1279  PPPE      C35            22.3353290645        5.2274038887      -10.4484218959  MEMB      19              0.0000000000
     41116      1279  PPPE      H5X            21.8430470496        5.7959822552       -9.6505408818  MEMB      19              0.0000000000
     41117      1279  PPPE      H5Y            23.2780485820        5.2070719318      -10.1161196473  MEMB      19              0.0000000000
     41118      1279  PPPE      C36            22.3523375886        3.7273653177      -10.4618921537  MEMB      19              0.0000000000
     41119      1279  PPPE      H6X            22.8457890160        3.3297407915       -9.5360649850  MEMB      19              0.0000000000
     41120      1279  PPPE      H6Y            22.9281158826        3.2757779198      -11.2676284623  MEMB      19              0.0000000000
     41121      1279  PPPE      C37            20.9215843376        3.3846421994      -10.6193278272  MEMB      19              0.0000000000
     41122      1279  PPPE      H7X            20.8774663448        2.3172979038      -10.8759727257  MEMB      19              0.0000000000
     41123      1279  PPPE      H7Y            20.5282495601        3.9298556699      -11.5131999633  MEMB      19              0.0000000000
     41124      1279  PPPE      C38            20.1594509834        3.8656788804       -9.3766825502  MEMB      19              0.0000000000
     41125      1279  PPPE      H8X            19.4792008539        4.6735600544       -9.7136570877  MEMB      19              0.0000000000
     41126      1279  PPPE      H8Y            20.8440748637        4.3172938207       -8.6226821051  MEMB      19              0.0000000000
     41127      1279  PPPE      C39            19.3467789243        2.8013374673       -8.6508164030  MEMB      19              0.0000000000
     41128      1279  PPPE      H9X            19.9947544784        1.9138960212       -8.4748051433  MEMB      19              0.0000000000
     41129      1279  PPPE      H9Y            18.5199117909        2.5139679011       -9.3392042723  MEMB      19              0.0000000000
     41130      1279  PPPE      C310           18.7705747041        3.3151084068       -7.3092845570  MEMB      19              0.0000000000
     41131      1279  PPPE      H10X           18.0836327122        2.5442329371       -6.8937065678  MEMB      19              0.0000000000
     41132      1279  PPPE      H10Y           18.1881988838        4.2423315599       -7.5069849304  MEMB      19              0.0000000000
     41133      1279  PPPE      C311           19.8330062159        3.6640318405       -6.2465602561  MEMB      19              0.0000000000
     41134      1279  PPPE      H11X           20.4199889334        4.5473512946       -6.5775992490  MEMB      19              0.0000000000
     41135      1279  PPPE      H11Y           20.5092205534        2.7884178895       -6.1225374284  MEMB      19              0.0000000000
     41136      1279  PPPE      C312           19.2956134098        4.0153289822       -4.8556107737  MEMB      19              0.0000000000
     41137      1279  PPPE      H12X           18.5081801226        3.2671058148       -4.6153613264  MEMB      19              0.0000000000
     41138      1279  PPPE      H12Y           18.8436108508        5.0329314453       -4.8331074274  MEMB      19              0.0000000000
     41139      1279  PPPE      C313           20.4013948590        3.9671864600       -3.7867079691  MEMB      19              0.0000000000
     41140      1279  PPPE      H13X           21.2015506922        4.7193109776       -3.9850691972  MEMB      19              0.0000000000
     41141      1279  PPPE      H13Y           20.8611420756        2.9598202148       -3.8049538517  MEMB      19              0.0000000000
     41142      1279  PPPE      C314           19.8172733580        4.0855487180       -2.3854446363  MEMB      19              0.0000000000
     41143      1279  PPPE      H14X           19.1888742377        3.1800348853       -2.2291285999  MEMB      19              0.0000000000
     41144      1279  PPPE      H14Y           19.1798874931        4.9998269314       -2.3403057368  MEMB      19              0.0000000000
     41145      1279  PPPE      C315           20.8406132125        4.1412351294       -1.2523445017  MEMB      19              0.0000000000
     41146      1279  PPPE      H15X           21.6651813346        4.8094569017       -1.5844977257  MEMB      19              0.0000000000
     41147      1279  PPPE      H15Y           21.3012364313        3.1470412680       -1.0481712611  MEMB      19              0.0000000000
     41148      1279  PPPE      C316           20.1569736271        4.6537117633        0.0191572354  MEMB      19              0.0000000000
     41149      1279  PPPE      H16X           20.8794802860        4.8627928590        0.8279144900  MEMB      19              0.0000000000
     41150      1279  PPPE      H16Y           19.6170956084        5.6021625224       -0.1935060848  MEMB      19              0.0000000000
     41151      1279  PPPE      H16Z           19.4253145150        3.9018599093        0.3947707498  MEMB      19              0.0000000000
     41152      1280  PPPE      N             -20.5187491009       -1.0260356459      -16.6975741399  MEMB      20              0.0000000000
     41153      1280  PPPE      HN1           -20.8603885320       -1.0793444295      -15.7170393838  MEMB      20              0.0000000000
     41154      1280  PPPE      HN2           -19.5839555513       -1.4822516605      -16.7849134456  MEMB      20              0.0000000000
     41155      1280  PPPE      HN3           -20.4606813825       -0.0435006596      -17.0202629714  MEMB      20              0.0000000000
     41156      1280  PPPE      C12           -21.5419869561       -1.6754267467      -17.5930300167  MEMB      20              0.0000000000
     41157      1280  PPPE      H12A          -22.4367829546       -1.0160954703      -17.5105216841  MEMB      20              0.0000000000
     41158      1280  PPPE      H12B          -21.7377573610       -2.6953561167      -17.2062602134  MEMB      20              0.0000000000
     41159      1280  PPPE      C11           -21.2119718545       -1.6915219458      -19.1020496843  MEMB      20              0.0000000000
     41160      1280  PPPE      H11A          -21.6714232364       -0.7586010642      -19.5038127347  MEMB      20              0.0000000000
     41161      1280  PPPE      H11B          -21.7381226512       -2.5524501210      -19.5931630016  MEMB      20              0.0000000000
     41162      1280  PPPE      P             -18.9687800618       -2.8898582696      -19.8232742847  MEMB      20              0.0000000000
     41163      1280  PPPE      O13           -19.7217709969       -3.7336700616      -20.7646378726  MEMB      20              0.0000000000
     41164      1280  PPPE      O14           -17.6187028201       -2.4335935577      -20.2195617365  MEMB      20              0.0000000000
     41165      1280  PPPE      O11           -18.9635176954       -3.5376010732      -18.3943190300  MEMB      20              0.0000000000
     41166      1280  PPPE      O12           -19.8226026250       -1.6334428952      -19.3989111189  MEMB      20              0.0000000000
     41167      1280  PPPE      C1            -17.7456878404       -3.6694830412      -17.7132420186  MEMB      20              0.0000000000
     41168      1280  PPPE      HA            -17.3910756281       -2.7571345867      -17.1985953299  MEMB      20              0.0000000000
     41169      1280  PPPE      HB            -16.9389668375       -4.1311123206      -18.3584648142  MEMB      20              0.0000000000
     41170      1280  PPPE      C2            -18.0119536294       -4.6383810696      -16.6144723714  MEMB      20              0.0000000000
     41171      1280  PPPE      HS            -18.0480882992       -5.5227038903      -17.2719992287  MEMB      20              0.0000000000
     41172      1280  PPPE      O21           -19.2596541966       -4.3967982021      -15.8267336135  MEMB      20              0.0000000000
     41173      1280  PPPE      C21           -20.1547672503       -5.3087158706      -15.2947139280  MEMB      20              0.0000000000
     41174      1280  PPPE      O22           -20.4655188390       -6.3961695932      -15.7124461879  MEMB      20              0.0000000000
     41175      1280  PPPE      C22           -20.5867546110       -4.7580723775      -13.8756631219  MEMB      20              0.0000000000
     41176      1280  PPPE      H2R           -21.6505144024       -4.7802518786      -14.0692837562  MEMB      20              0.0000000000
     41177      1280  PPPE      H2S           -20.1720759866       -3.7491045461      -13.7638113510  MEMB      20              0.0000000000
     41178      1280  PPPE      C3            -16.6670668093       -4.5447347749      -15.7461578381  MEMB      20              0.0000000000
     41179      1280  PPPE      HX            -16.3924733413       -5.4320247016      -15.2018245133  MEMB      20              0.0000000000
     41180      1280  PPPE      HY            -15.7280518558       -4.5961267361      -16.3151347904  MEMB      20              0.0000000000
     41181      1280  PPPE      O31           -16.7306941216       -3.4719743253      -14.8394905486  MEMB      20              0.0000000000
     41182      1280  PPPE      C31           -16.1090639414       -3.5510447895      -13.7058166859  MEMB      20              0.0000000000
     41183      1280  PPPE      O32           -15.4068522672       -4.4332882416      -13.2515427569  MEMB      20              0.0000000000
     41184      1280  PPPE      C32           -16.3667984973       -2.2467086402      -13.1068202397  MEMB      20              0.0000000000
     41185      1280  PPPE      H2X           -17.4479724963       -2.0995349298      -12.9304658613  MEMB      20              0.0000000000
     41186      1280  PPPE      H2Y           -15.9554213877       -1.4522326021      -13.7801863361  MEMB      20              0.0000000000
     41187      1280  PPPE      C23           -20.5707548813       -5.4641542338      -12.4596063140  MEMB      20              0.0000000000
     41188      1280  PPPE      H3R           -19.6550409377       -5.1874938425      -11.9550368504  MEMB      20              0.0000000000
     41189      1280  PPPE      H3S           -20.7548598199       -6.5638425624      -12.4923767721  MEMB      20              0.0000000000
     41190      1280  PPPE      C24           -21.2394250757       -4.7669702056      -11.2601802704  MEMB      20              0.0000000000
     41191      1280  PPPE      H4R           -22.2613268542       -4.5870465914      -11.5698337522  MEMB      20              0.0000000000
     41192      1280  PPPE      H4S           -20.7338475732       -3.7840225451      -11.0675558831  MEMB      20              0.0000000000
     41193      1280  PPPE      C25           -21.1637342785       -5.5498971730       -9.9309418620  MEMB      20              0.0000000000
     41194      1280  PPPE      H5R           -20.1597767838       -5.4683808554       -9.5019002801  MEMB      20              0.0000000000
     41195      1280  PPPE      H5S           -21.3266597625       -6.6389536451      -10.0799311767  MEMB      20              0.0000000000
     41196      1280  PPPE      C26           -22.0757977508       -4.9949206901       -8.8312146453  MEMB      20              0.0000000000
     41197      1280  PPPE      H6R           -21.9409176919       -5.6210675032       -7.9190635909  MEMB      20              0.0000000000
     41198      1280  PPPE      H6S           -23.1329154160       -5.1042971921       -9.1583531206  MEMB      20              0.0000000000
     41199      1280  PPPE      C27           -21.8419951996       -3.5137597079       -8.4890542822  MEMB      20              0.0000000000
     41200      1280  PPPE      H7R           -22.1356513462       -2.9138568957       -9.3784995882  MEMB      20              0.0000000000
     41201      1280  PPPE      H7S           -20.7901019019       -3.2706914728       -8.1987772127  MEMB      20              0.0000000000
     41202      1280  PPPE      C28           -22.7080987643       -3.1452762993       -7.3096016719  MEMB      20              0.0000000000
     41203      1280  PPPE      H8R           -22.4294263738       -3.7752970347       -6.4384190948  MEMB      20              0.0000000000
     41204      1280  PPPE      H8S           -23.7819877830       -3.2664506659       -7.4672315673  MEMB      20              0.0000000000
     41205      1280  PPPE      C29           -22.7481282616       -1.7692082730       -6.9132026539  MEMB      20              0.0000000000
     41206      1280  PPPE      H91           -22.9298236659       -0.9527596756       -7.6413896276  MEMB      20              0.0000000000
     41207      1280  PPPE      C210          -22.1978762073       -1.4234912790       -5.8158624638  MEMB      20              0.0000000000
     41208      1280  PPPE      H101          -22.5742687234       -0.4034599560       -5.7677767723  MEMB      20              0.0000000000
     41209      1280  PPPE      C211          -21.3921677655       -2.0621913684       -4.6618808650  MEMB      20              0.0000000000
     41210      1280  PPPE      H11R          -20.2811032970       -1.8749065375       -4.7963773167  MEMB      20              0.0000000000
     41211      1280  PPPE      H11S          -21.5880613151       -3.1218839577       -4.7213008883  MEMB      20              0.0000000000
     41212      1280  PPPE      C212          -21.6211375177       -1.7502041516       -3.1526037095  MEMB      20              0.0000000000
     41213      1280  PPPE      H12R          -22.6928211880       -1.5132721542       -2.9938080058  MEMB      20              0.0000000000
     41214      1280  PPPE      H12S          -21.0334209899       -0.8806605066       -2.8651853833  MEMB      20              0.0000000000
     41215      1280  PPPE      C213          -21.1077120657       -2.6334068700       -2.0718236137  MEMB      20              0.0000000000
     41216      1280  PPPE      H13R          -21.1454621974       -2.0324389138       -1.1173169147  MEMB      20              0.0000000000
     41217      1280  PPPE      H13S          -20.0715460505       -2.9582370929       -2.2730106829  MEMB      20              0.0000000000
     41218      1280  PPPE      C214          -22.1005170777       -3.7313677009       -1.9155963936  MEMB      20              0.0000000000
     41219      1280  PPPE      H14R          -22.4427701220       -4.0818109290       -2.9170353896  MEMB      20              0.0000000000
     41220      1280  PPPE      H14S          -22.9318840270       -3.1675115490       -1.4741550663  MEMB      20              0.0000000000
     41221      1280  PPPE      C215          -21.5362129786       -4.7889267550       -0.9838914443  MEMB      20              0.0000000000
     41222      1280  PPPE      H15R          -20.6405844720       -5.2051564662       -1.4961307053  MEMB      20              0.0000000000
     41223      1280  PPPE      H15S          -22.2473222987       -5.6208628015       -0.8262410321  MEMB      20              0.0000000000
     41224      1280  PPPE      C216          -21.1095803116       -4.2815777848        0.4000483796  MEMB      20              0.0000000000
     41225      1280  PPPE      H16R          -20.1535844435       -3.7230259842        0.3659667686  MEMB      20              0.0000000000
     41226      1280  PPPE      H16S          -21.8822182120       -3.6260167003        0.8617178488  MEMB      20              0.0000000000
     41227      1280  PPPE      H16T          -20.9221061565       -5.1580001590        1.0526208411  MEMB      20              0.0000000000
     41228      1280  PPPE      C33           -15.6326612696       -2.2280211680      -11.8346254050  MEMB      20              0.0000000000
     41229      1280  PPPE      H3X           -14.5674355546       -2.3981162332      -12.1156035529  MEMB      20              0.0000000000
     41230      1280  PPPE      H3Y           -15.8280426684       -2.9727607430      -11.0438842879  MEMB      20              0.0000000000
     41231      1280  PPPE      C34           -16.0522505280       -0.9548841994      -11.2393835035  MEMB      20              0.0000000000
     41232      1280  PPPE      H4X           -17.0797924576       -0.7288476121      -10.9361188293  MEMB      20              0.0000000000
     41233      1280  PPPE      H4Y           -15.8230199620       -0.0835432728      -11.9346612006  MEMB      20              0.0000000000
     41234      1280  PPPE      C35           -15.3808982807       -0.9776742564       -9.9458032922  MEMB      20              0.0000000000
     41235      1280  PPPE      H5X           -15.3184152743        0.1083304501      -10.1268143480  MEMB      20              0.0000000000
     41236      1280  PPPE      H5Y           -14.3728180375       -1.4139841731       -9.7732582889  MEMB      20              0.0000000000
     41237      1280  PPPE      C36           -15.6707781645       -1.6945115186       -8.6710138321  MEMB      20              0.0000000000
     41238      1280  PPPE      H6X           -14.7509551539       -1.8073750019       -7.9839165236  MEMB      20              0.0000000000
     41239      1280  PPPE      H6Y           -15.8320176228       -2.7288991133       -8.9213731416  MEMB      20              0.0000000000
     41240      1280  PPPE      C37           -16.5119240571       -0.8029231087       -7.8728185787  MEMB      20              0.0000000000
     41241      1280  PPPE      H7X           -17.5551924928       -1.0450643274       -8.1248758573  MEMB      20              0.0000000000
     41242      1280  PPPE      H7Y           -16.3770947086        0.2477308970       -8.2526591332  MEMB      20              0.0000000000
     41243      1280  PPPE      C38           -15.9750601563       -0.9861213784       -6.4381887981  MEMB      20              0.0000000000
     41244      1280  PPPE      H8X           -14.9760641904       -0.6051710983       -6.2092685903  MEMB      20              0.0000000000
     41245      1280  PPPE      H8Y           -16.1918613777       -1.9599783024       -6.0169729591  MEMB      20              0.0000000000
     41246      1280  PPPE      C39           -16.5896946125       -0.1526128848       -5.5068026475  MEMB      20              0.0000000000
     41247      1280  PPPE      H9X           -17.6286141994       -0.5851705379       -5.6592193641  MEMB      20              0.0000000000
     41248      1280  PPPE      H9Y           -16.3176292509        0.8352270976       -6.0114867855  MEMB      20              0.0000000000
     41249      1280  PPPE      C310          -16.4010438209        0.0081400506       -4.0185312393  MEMB      20              0.0000000000
     41250      1280  PPPE      H10X          -17.0693374131        0.7262209120       -3.4697451340  MEMB      20              0.0000000000
     41251      1280  PPPE      H10Y          -15.3793919858        0.3513244520       -3.8670460022  MEMB      20              0.0000000000
     41252      1280  PPPE      C311          -17.0752624792       -0.9855628368       -3.1741253340  MEMB      20              0.0000000000
     41253      1280  PPPE      H11X          -16.7144433401       -1.8893085854       -3.6777418611  MEMB      20              0.0000000000
     41254      1280  PPPE      H11Y          -18.2010639000       -0.8800418478       -3.1908820368  MEMB      20              0.0000000000
     41255      1280  PPPE      C312          -16.5327425368       -0.7546081704       -1.7844034684  MEMB      20              0.0000000000
     41256      1280  PPPE      H12X          -16.5844490393        0.3033655588       -1.4270952317  MEMB      20              0.0000000000
     41257      1280  PPPE      H12Y          -15.4576102114       -1.0247671978       -1.8541945040  MEMB      20              0.0000000000
     41258      1280  PPPE      C313          -17.2639358087       -1.5951693300       -0.7807526284  MEMB      20              0.0000000000
     41259      1280  PPPE      H13X          -17.4506016085       -2.5893198207       -1.2404363453  MEMB      20              0.0000000000
     41260      1280  PPPE      H13Y          -18.2647860690       -1.1441454638       -0.5847080693  MEMB      20              0.0000000000
     41261      1280  PPPE      C314          -16.4285650388       -1.6624928782        0.4922090634  MEMB      20              0.0000000000
     41262      1280  PPPE      H14X          -17.1253304249       -1.9120873209        1.3222686579  MEMB      20              0.0000000000
     41263      1280  PPPE      H14Y          -15.9291477894       -0.6986241889        0.7211768424  MEMB      20              0.0000000000
     41264      1280  PPPE      C315          -15.3504727575       -2.7247358138        0.4552312741  MEMB      20              0.0000000000
     41265      1280  PPPE      H15X          -14.8254156276       -2.7360658294        1.4119141685  MEMB      20              0.0000000000
     41266      1280  PPPE      H15Y          -14.5809815876       -2.6006963293       -0.3494221502  MEMB      20              0.0000000000
     41267      1280  PPPE      C316          -16.0122941406       -4.0606353109        0.3855966110  MEMB      20              0.0000000000
     41268      1280  PPPE      H16X          -16.8072448949       -4.2646939506        1.1025885947  MEMB      20              0.0000000000
     41269      1280  PPPE      H16Y          -16.4237309762       -4.1544565596       -0.6121429012  MEMB      20              0.0000000000
     41270      1280  PPPE      H16Z          -15.2811615637       -4.8071100805        0.6449204500  MEMB      20              0.0000000000
     41271      1281  PVCL2     C3             13.9188492999      -13.4613498219      -20.5571361576  MEMB      21              0.0000000000
     41272      1281  PVCL2     HG31           13.6884436908      -13.0063830304      -21.5339840234  MEMB      21              0.0000000000
     41273      1281  PVCL2     HG32           13.0013211760      -14.0454016489      -20.2887436427  MEMB      21              0.0000000000
     41274      1281  PVCL2     P3             13.6836773633      -12.3726086807      -18.2133433989  MEMB      21              0.0000000000
     41275      1281  PVCL2     OP33           14.6460341582      -12.7812169496      -17.1782486064  MEMB      21              0.0000000000
     41276      1281  PVCL2     OP34           12.4645688231      -13.1639316033      -18.3673239979  MEMB      21              0.0000000000
     41277      1281  PVCL2     OP31           14.2501223886      -12.3944033305      -19.6566903507  MEMB      21              0.0000000000
     41278      1281  PVCL2     OP32           13.3015152612      -10.8821889676      -18.0002120668  MEMB      21              0.0000000000
     41279      1281  PVCL2     C31            12.6523425055      -10.1257034422      -19.0037876701  MEMB      21              0.0000000000
     41280      1281  PVCL2     H31J           13.3908122481       -9.6809266618      -19.7002325005  MEMB      21              0.0000000000
     41281      1281  PVCL2     H31K           11.9026626656      -10.7129291094      -19.5911233207  MEMB      21              0.0000000000
     41282      1281  PVCL2     C2             15.1181208259      -14.4248291540      -20.6986230162  MEMB      21              0.0000000000
     41283      1281  PVCL2     HG22           15.5385731297      -14.5959829289      -19.6817763128  MEMB      21              0.0000000000
     41284      1281  PVCL2     OG12           14.6648334370      -15.6728231022      -21.2313399771  MEMB      21              0.0000000000
     41285      1281  PVCL2     HO12           13.7141068226      -15.6941816093      -21.1213162609  MEMB      21              0.0000000000
     41286      1281  PVCL2     C1             16.2527430460      -13.9253359183      -21.6349732528  MEMB      21              0.0000000000
     41287      1281  PVCL2     HG11           15.8095858786      -13.9189295801      -22.6570676007  MEMB      21              0.0000000000
     41288      1281  PVCL2     HG12           17.0762641312      -14.6642938341      -21.6527024642  MEMB      21              0.0000000000
     41289      1281  PVCL2     P1             17.9474609368      -12.2369670844      -20.3835867487  MEMB      21              0.0000000000
     41290      1281  PVCL2     OP13           18.9293778823      -11.4572261105      -21.1727118250  MEMB      21              0.0000000000
     41291      1281  PVCL2     OP14           17.4874723695      -11.6199621875      -19.1261819677  MEMB      21              0.0000000000
     41292      1281  PVCL2     OP11           16.7422355018      -12.6256714026      -21.3410205636  MEMB      21              0.0000000000
     41293      1281  PVCL2     OP12           18.6426936997      -13.6310474336      -20.0280007361  MEMB      21              0.0000000000
     41294      1281  PVCL2     C11            19.6596880130      -13.6242145072      -19.0065691313  MEMB      21              0.0000000000
     41295      1281  PVCL2     H11J           19.5452130629      -12.7807363783      -18.2733671330  MEMB      21              0.0000000000
     41296      1281  PVCL2     H11K           20.6710926974      -13.5227725369      -19.4537757358  MEMB      21              0.0000000000
     41297      1281  PVCL2     C12            19.5079776356      -14.9318345444      -18.2126321132  MEMB      21              0.0000000000
     41298      1281  PVCL2     H12J           19.4543188694      -15.7657120852      -18.9590608824  MEMB      21              0.0000000000
     41299      1281  PVCL2     O12            18.2791818495      -14.7927901769      -17.5039046569  MEMB      21              0.0000000000
     41300      1281  PVCL2     CA1            17.6462682848      -15.8929797332      -17.2131745509  MEMB      21              0.0000000000
     41301      1281  PVCL2     OA1            18.0333135403      -17.0258713110      -17.4356394299  MEMB      21              0.0000000000
     41302      1281  PVCL2     CA2            16.3302415882      -15.5334314641      -16.5546046068  MEMB      21              0.0000000000
     41303      1281  PVCL2     H2A            15.6189277928      -16.3647503871      -16.7019949299  MEMB      21              0.0000000000
     41304      1281  PVCL2     H2B            15.9366778050      -14.6406086872      -17.0835184424  MEMB      21              0.0000000000
     41305      1281  PVCL2     C13            20.6558480151      -15.2336929041      -17.2041636410  MEMB      21              0.0000000000
     41306      1281  PVCL2     H13J           21.5439224466      -15.6034992339      -17.7366418969  MEMB      21              0.0000000000
     41307      1281  PVCL2     H13K           20.3000592318      -16.0971425960      -16.5981989169  MEMB      21              0.0000000000
     41308      1281  PVCL2     O13            21.0340816038      -14.0917052165      -16.4042321277  MEMB      21              0.0000000000
     41309      1281  PVCL2     CB1            20.7280627378      -14.2376563142      -15.1115060733  MEMB      21              0.0000000000
     41310      1281  PVCL2     OB1            20.3413689022      -15.2380973811      -14.5560634991  MEMB      21              0.0000000000
     41311      1281  PVCL2     CB2            20.9075165591      -12.9627447117      -14.3853182204  MEMB      21              0.0000000000
     41312      1281  PVCL2     H2D            21.9871354430      -12.7012904649      -14.3774936621  MEMB      21              0.0000000000
     41313      1281  PVCL2     H2E            20.5751759507      -13.1173237663      -13.3355281454  MEMB      21              0.0000000000
     41314      1281  PVCL2     C32            11.8882275105       -9.0383257790      -18.2658948236  MEMB      21              0.0000000000
     41315      1281  PVCL2     H32J           11.5032975188       -8.3083618370      -19.0039605683  MEMB      21              0.0000000000
     41316      1281  PVCL2     O32            12.7019436215       -8.3709108840      -17.2598393549  MEMB      21              0.0000000000
     41317      1281  PVCL2     CC1            13.6170139308       -7.5417333224      -17.7580831287  MEMB      21              0.0000000000
     41318      1281  PVCL2     OC1            13.5745011616       -7.1371445825      -18.9045910852  MEMB      21              0.0000000000
     41319      1281  PVCL2     CC2            14.5408660428       -7.0387628165      -16.6285378643  MEMB      21              0.0000000000
     41320      1281  PVCL2     H2R            14.1070063392       -6.0951276130      -16.2346107087  MEMB      21              0.0000000000
     41321      1281  PVCL2     H2S            15.5160780013       -6.7924990812      -17.0949393187  MEMB      21              0.0000000000
     41322      1281  PVCL2     C33            10.7164886387       -9.7541689441      -17.5494854543  MEMB      21              0.0000000000
     41323      1281  PVCL2     H33J           10.0266445022       -9.3123786211      -16.9048434336  MEMB      21              0.0000000000
     41324      1281  PVCL2     H33K            9.9100523277      -10.2305992987      -18.1586821840  MEMB      21              0.0000000000
     41325      1281  PVCL2     O33            11.2747505801      -10.4010515618      -16.4747976485  MEMB      21              0.0000000000
     41326      1281  PVCL2     CD1            11.3848763871       -9.7409666920      -15.2036416394  MEMB      21              0.0000000000
     41327      1281  PVCL2     OD1            10.7686314097       -8.7436328605      -14.9247442056  MEMB      21              0.0000000000
     41328      1281  PVCL2     CD2            11.9383793158      -10.5780885362      -14.0193946708  MEMB      21              0.0000000000
     41329      1281  PVCL2     H2X            12.7441281892      -11.2771587875      -14.1064785137  MEMB      21              0.0000000000
     41330      1281  PVCL2     H2Y            11.6993645950      -11.3810849990      -14.8426467662  MEMB      21              0.0000000000
     41331      1281  PVCL2     CA3            16.5493859580      -15.2743477229      -15.0492257039  MEMB      21              0.0000000000
     41332      1281  PVCL2     H3A            17.4111740063      -14.5801556503      -14.9150294160  MEMB      21              0.0000000000
     41333      1281  PVCL2     H3B            16.7979655140      -16.2434985575      -14.5601526821  MEMB      21              0.0000000000
     41334      1281  PVCL2     CA4            15.3254080654      -14.6920804642      -14.3313985276  MEMB      21              0.0000000000
     41335      1281  PVCL2     H4A            14.5334465949      -15.4714708138      -14.3627859303  MEMB      21              0.0000000000
     41336      1281  PVCL2     H4B            14.8862512970      -13.8373250014      -14.8910853687  MEMB      21              0.0000000000
     41337      1281  PVCL2     CA5            15.5940770925      -14.2876850628      -12.8615837690  MEMB      21              0.0000000000
     41338      1281  PVCL2     H5A            15.7494527674      -15.2198214393      -12.2746619697  MEMB      21              0.0000000000
     41339      1281  PVCL2     H5B            14.6821516468      -13.7909178497      -12.4628659383  MEMB      21              0.0000000000
     41340      1281  PVCL2     CA6            16.7731808455      -13.3203084350      -12.5803943391  MEMB      21              0.0000000000
     41341      1281  PVCL2     H6A            16.6378021465      -12.3988803300      -13.1832517841  MEMB      21              0.0000000000
     41342      1281  PVCL2     H6B            17.7182509323      -13.7601133659      -12.9564964917  MEMB      21              0.0000000000
     41343      1281  PVCL2     CA7            16.8116208690      -12.8623118232      -11.0948425185  MEMB      21              0.0000000000
     41344      1281  PVCL2     H7A            15.8101231206      -12.4258275132      -10.8827883469  MEMB      21              0.0000000000
     41345      1281  PVCL2     H7B            17.5190987740      -12.0244552532      -10.9111544922  MEMB      21              0.0000000000
     41346      1281  PVCL2     CA8            17.2104647338      -13.9399820672      -10.0644134466  MEMB      21              0.0000000000
     41347      1281  PVCL2     H8A            16.6116949761      -14.8619355443      -10.2220133886  MEMB      21              0.0000000000
     41348      1281  PVCL2     H8B            16.9759131405      -13.5713900560       -9.0388740026  MEMB      21              0.0000000000
     41349      1281  PVCL2     CA9            18.7104088769      -14.2955411323      -10.1825438032  MEMB      21              0.0000000000
     41350      1281  PVCL2     H9A            19.2509386038      -13.4419516810      -10.6597029859  MEMB      21              0.0000000000
     41351      1281  PVCL2     H9B            18.7922749082      -15.1508956618      -10.8833038435  MEMB      21              0.0000000000
     41352      1281  PVCL2     CA10           19.4452283969      -14.6985513690       -8.8834526731  MEMB      21              0.0000000000
     41353      1281  PVCL2     H10A           19.6453361397      -13.7749597907       -8.2964437053  MEMB      21              0.0000000000
     41354      1281  PVCL2     H10B           20.4471904215      -15.0964425807       -9.1479739803  MEMB      21              0.0000000000
     41355      1281  PVCL2     CA11           18.7703475267      -15.7617510230       -8.0608064029  MEMB      21              0.0000000000
     41356      1281  PVCL2     H11A           18.7270229013      -16.7689270330       -8.5054386569  MEMB      21              0.0000000000
     41357      1281  PVCL2     CA12           18.2577751443      -15.5294669669       -6.8426955587  MEMB      21              0.0000000000
     41358      1281  PVCL2     H12A           17.7345053636      -16.3517599371       -6.3334952115  MEMB      21              0.0000000000
     41359      1281  PVCL2     CA13           18.3274841778      -14.1458592740       -6.2236861699  MEMB      21              0.0000000000
     41360      1281  PVCL2     H13A           17.9350741196      -13.4757623845       -7.0139438626  MEMB      21              0.0000000000
     41361      1281  PVCL2     H13B           19.3825145760      -13.8030022664       -6.0815625859  MEMB      21              0.0000000000
     41362      1281  PVCL2     CA14           17.4903027020      -13.7412029000       -4.9910925609  MEMB      21              0.0000000000
     41363      1281  PVCL2     H14A           16.4598386862      -14.1492295465       -5.0481687393  MEMB      21              0.0000000000
     41364      1281  PVCL2     H14B           17.3734779836      -12.6297112817       -5.0009481371  MEMB      21              0.0000000000
     41365      1281  PVCL2     CA15           18.1513133927      -14.0959731542       -3.6606676354  MEMB      21              0.0000000000
     41366      1281  PVCL2     H15A           19.1758268116      -13.6590661005       -3.6245451219  MEMB      21              0.0000000000
     41367      1281  PVCL2     H15B           18.2431055186      -15.1980933778       -3.5666133646  MEMB      21              0.0000000000
     41368      1281  PVCL2     CA16           17.3751273514      -13.5316898683       -2.4732629404  MEMB      21              0.0000000000
     41369      1281  PVCL2     H16A           17.8420229846      -13.9105323616       -1.5381305970  MEMB      21              0.0000000000
     41370      1281  PVCL2     H16B           16.3288694870      -13.9133127930       -2.5024175027  MEMB      21              0.0000000000
     41371      1281  PVCL2     CA17           17.4159059599      -12.0002906321       -2.4284606063  MEMB      21              0.0000000000
     41372      1281  PVCL2     H17A           16.6777508597      -11.6051608259       -3.1646099753  MEMB      21              0.0000000000
     41373      1281  PVCL2     H17B           18.4298170449      -11.6310969147       -2.7236094000  MEMB      21              0.0000000000
     41374      1281  PVCL2     CA18           17.0989036811      -11.4756453100       -1.0344828528  MEMB      21              0.0000000000
     41375      1281  PVCL2     H18A           17.8666455445      -11.8191902749       -0.3057862099  MEMB      21              0.0000000000
     41376      1281  PVCL2     H18B           16.0992010207      -11.8289831155       -0.7127774720  MEMB      21              0.0000000000
     41377      1281  PVCL2     H18C           17.0800895709      -10.3738258038       -1.0236342669  MEMB      21              0.0000000000
     41378      1281  PVCL2     CB3            20.0253898135      -11.9100993822      -15.0403995916  MEMB      21              0.0000000000
     41379      1281  PVCL2     H3D            19.1378628880      -12.2758548272      -15.5982822153  MEMB      21              0.0000000000
     41380      1281  PVCL2     H3E            20.6265957563      -11.5430398256      -15.9039699465  MEMB      21              0.0000000000
     41381      1281  PVCL2     CB4            19.5268681502      -10.9095172735      -13.9501487624  MEMB      21              0.0000000000
     41382      1281  PVCL2     H4D            18.6453848831      -11.3112339637      -13.4610496127  MEMB      21              0.0000000000
     41383      1281  PVCL2     H4E            19.0041346251      -10.1261020541      -14.5347144370  MEMB      21              0.0000000000
     41384      1281  PVCL2     CB5            20.4634225273      -10.4673670321      -12.7308459769  MEMB      21              0.0000000000
     41385      1281  PVCL2     H5D            21.2731407378       -9.7343480613      -12.9771023151  MEMB      21              0.0000000000
     41386      1281  PVCL2     H5E            21.1217406273      -11.2195016852      -12.2996749176  MEMB      21              0.0000000000
     41387      1281  PVCL2     CB6            19.8789109932       -9.5333648185      -11.7298103312  MEMB      21              0.0000000000
     41388      1281  PVCL2     H6D            18.9587088726       -9.8193113819      -11.2566412814  MEMB      21              0.0000000000
     41389      1281  PVCL2     H6E            19.1447404584       -8.9565438457      -12.3093707001  MEMB      21              0.0000000000
     41390      1281  PVCL2     CB7            21.1015420878       -8.8209252866      -10.9800454948  MEMB      21              0.0000000000
     41391      1281  PVCL2     H7D            20.9454360916       -7.9029621239      -10.3852998963  MEMB      21              0.0000000000
     41392      1281  PVCL2     H7E            21.9276692395       -8.5076820391      -11.6554214343  MEMB      21              0.0000000000
     41393      1281  PVCL2     CB8            21.5694002096       -9.6240436931       -9.8680226375  MEMB      21              0.0000000000
     41394      1281  PVCL2     H8D            22.2759371074       -9.0097588370       -9.2656273841  MEMB      21              0.0000000000
     41395      1281  PVCL2     H8E            22.0771098175      -10.4579406877      -10.3837360592  MEMB      21              0.0000000000
     41396      1281  PVCL2     CB9            20.2842194779       -9.9663288298       -9.1556435386  MEMB      21              0.0000000000
     41397      1281  PVCL2     H9D            19.6517267540      -10.6409379277       -9.7789857637  MEMB      21              0.0000000000
     41398      1281  PVCL2     H9E            19.6718796538       -9.0578811312       -8.9262309249  MEMB      21              0.0000000000
     41399      1281  PVCL2     CB10           20.5463669913      -10.8481531191       -7.9900079210  MEMB      21              0.0000000000
     41400      1281  PVCL2     H10D           21.0823460403      -11.7444908387       -8.3725774949  MEMB      21              0.0000000000
     41401      1281  PVCL2     H10E           19.5491435317      -11.1688605623       -7.6453828803  MEMB      21              0.0000000000
     41402      1281  PVCL2     CB11           21.3850073775      -10.2697273555       -6.8746707526  MEMB      21              0.0000000000
     41403      1281  PVCL2     H11D           20.8604111156       -9.4270264091       -6.3693680234  MEMB      21              0.0000000000
     41404      1281  PVCL2     H11E           22.3488136517       -9.8710064947       -7.2804445764  MEMB      21              0.0000000000
     41405      1281  PVCL2     CB12           21.6546706441      -11.4027213768       -5.8661673138  MEMB      21              0.0000000000
     41406      1281  PVCL2     H12D           21.5893229020      -12.4197458557       -6.2934893449  MEMB      21              0.0000000000
     41407      1281  PVCL2     H12E           21.0379540452      -11.2191187809       -4.9635654995  MEMB      21              0.0000000000
     41408      1281  PVCL2     CB13           23.0537404388      -11.3705078623       -5.3839382121  MEMB      21              0.0000000000
     41409      1281  PVCL2     H13D           23.0515304973      -10.3194416905       -5.2894405938  MEMB      21              0.0000000000
     41410      1281  PVCL2     H13E           23.7620251806      -11.3247854518       -6.1288659433  MEMB      21              0.0000000000
     41411      1281  PVCL2     CB14           23.5574366864      -12.2402116710       -4.2214811037  MEMB      21              0.0000000000
     41412      1281  PVCL2     H14D           24.6306124773      -12.0871967565       -3.9063256457  MEMB      21              0.0000000000
     41413      1281  PVCL2     H14E           23.5159404688      -13.2991251344       -4.4109367955  MEMB      21              0.0000000000
     41414      1281  PVCL2     CB15           22.8791625308      -11.8453520735       -3.0010612568  MEMB      21              0.0000000000
     41415      1281  PVCL2     H15D           21.7938084185      -11.9717170716       -2.9006040093  MEMB      21              0.0000000000
     41416      1281  PVCL2     H15E           22.7507304029      -10.8425945133       -3.3032834818  MEMB      21              0.0000000000
     41417      1281  PVCL2     CB16           23.7840102231      -12.1622556822       -1.8034586183  MEMB      21              0.0000000000
     41418      1281  PVCL2     H16D           23.5613977527      -11.5576444627       -0.9015557177  MEMB      21              0.0000000000
     41419      1281  PVCL2     H16E           24.8662488058      -12.0256917839       -1.7896717364  MEMB      21              0.0000000000
     41420      1281  PVCL2     H16F           23.5261580838      -13.2349668700       -1.6879758079  MEMB      21              0.0000000000
     41421      1281  PVCL2     CC3            14.6902081972       -7.9739788724      -15.3992105068  MEMB      21              0.0000000000
     41422      1281  PVCL2     H3R            13.6865220457       -8.1770849444      -14.9753892467  MEMB      21              0.0000000000
     41423      1281  PVCL2     H3S            15.2705725249       -7.4518529359      -14.6050843874  MEMB      21              0.0000000000
     41424      1281  PVCL2     CC4            15.4999596400       -9.2484258127      -15.6548522078  MEMB      21              0.0000000000
     41425      1281  PVCL2     H4R            16.5709718847       -9.0010587882      -15.5092479842  MEMB      21              0.0000000000
     41426      1281  PVCL2     H4S            15.3686171242       -9.5687973979      -16.7188560743  MEMB      21              0.0000000000
     41427      1281  PVCL2     CC5            15.1435682463      -10.4320879575      -14.7402122511  MEMB      21              0.0000000000
     41428      1281  PVCL2     H5R            15.9146747562      -11.2265418560      -14.7885463291  MEMB      21              0.0000000000
     41429      1281  PVCL2     H5S            14.2503714577      -10.8929605908      -15.2083142951  MEMB      21              0.0000000000
     41430      1281  PVCL2     CC6            14.8535513232      -10.1523810477      -13.2589018916  MEMB      21              0.0000000000
     41431      1281  PVCL2     H6R            14.5507960284      -11.1347807939      -12.8165690211  MEMB      21              0.0000000000
     41432      1281  PVCL2     H6S            13.9834862918       -9.4717022690      -13.1466040599  MEMB      21              0.0000000000
     41433      1281  PVCL2     CC7            15.9724132620       -9.5434505620      -12.4263547334  MEMB      21              0.0000000000
     41434      1281  PVCL2     H7R            16.3916599290       -8.6157106632      -12.8812162196  MEMB      21              0.0000000000
     41435      1281  PVCL2     H7S            16.8140358163      -10.2570025450      -12.2850362284  MEMB      21              0.0000000000
     41436      1281  PVCL2     CC8            15.3945528251       -9.1954191690      -11.0629307522  MEMB      21              0.0000000000
     41437      1281  PVCL2     H8R            14.8252425490      -10.0049635681      -10.5876659232  MEMB      21              0.0000000000
     41438      1281  PVCL2     H8S            14.7898005615       -8.2538718580      -11.1299271712  MEMB      21              0.0000000000
     41439      1281  PVCL2     CC9            16.4848266315       -9.0331315725      -10.0853822422  MEMB      21              0.0000000000
     41440      1281  PVCL2     H9R            17.0804104583       -8.4182648280      -10.6666533349  MEMB      21              0.0000000000
     41441      1281  PVCL2     H9S            17.2407240944       -9.8047212891       -9.8758950992  MEMB      21              0.0000000000
     41442      1281  PVCL2     CC10           16.1183258991       -8.1859348883       -8.9402375192  MEMB      21              0.0000000000
     41443      1281  PVCL2     H10R           15.4199028971       -7.3379794368       -9.1395701633  MEMB      21              0.0000000000
     41444      1281  PVCL2     H10S           17.1693582159       -7.8836482408       -8.8730599486  MEMB      21              0.0000000000
     41445      1281  PVCL2     CC11           15.6865762666       -8.9467770513       -7.7711681418  MEMB      21              0.0000000000
     41446      1281  PVCL2     H11R           14.6156877117       -9.1452692070       -7.8556260390  MEMB      21              0.0000000000
     41447      1281  PVCL2     CC12           16.4069961631       -9.3512908958       -6.7142147726  MEMB      21              0.0000000000
     41448      1281  PVCL2     H12R           15.8619717703       -9.9360936488       -5.9728576666  MEMB      21              0.0000000000
     41449      1281  PVCL2     CC13           17.8692496114       -9.1761360340       -6.3547200045  MEMB      21              0.0000000000
     41450      1281  PVCL2     H13R           18.4109901758       -8.3767190485       -6.9089957302  MEMB      21              0.0000000000
     41451      1281  PVCL2     H13S           18.3804627559      -10.1234315369       -6.5726663411  MEMB      21              0.0000000000
     41452      1281  PVCL2     CC14           18.0720335140       -9.0138274589       -4.8366598022  MEMB      21              0.0000000000
     41453      1281  PVCL2     H14R           19.1374263950       -9.1182461971       -4.5630992486  MEMB      21              0.0000000000
     41454      1281  PVCL2     H14S           17.5027376815       -9.8084951744       -4.3056256874  MEMB      21              0.0000000000
     41455      1281  PVCL2     CC15           17.5991587994       -7.6811807247       -4.3349434297  MEMB      21              0.0000000000
     41456      1281  PVCL2     H15R           16.6147686633       -7.6133027047       -4.6985257961  MEMB      21              0.0000000000
     41457      1281  PVCL2     H15S           18.1743578006       -6.8074416260       -4.7093446894  MEMB      21              0.0000000000
     41458      1281  PVCL2     CC16           17.4656991066       -7.5387213587       -2.8648742501  MEMB      21              0.0000000000
     41459      1281  PVCL2     H16R           16.7771665003       -8.1932432959       -2.2884295059  MEMB      21              0.0000000000
     41460      1281  PVCL2     H16S           16.9865762037       -6.5350131190       -2.8229090746  MEMB      21              0.0000000000
     41461      1281  PVCL2     CC17           18.8724830240       -7.6948751012       -2.3662317115  MEMB      21              0.0000000000
     41462      1281  PVCL2     H17R           19.2107781368       -7.0239048778       -1.6521158915  MEMB      21              0.0000000000
     41463      1281  PVCL2     H17S           19.6835117757       -7.3166142604       -3.0205714947  MEMB      21              0.0000000000
     41464      1281  PVCL2     CC18           19.0359043604       -8.7865310369       -1.3600566338  MEMB      21              0.0000000000
     41465      1281  PVCL2     H18R           19.8168544425       -8.4790746448       -0.6913380969  MEMB      21              0.0000000000
     41466      1281  PVCL2     H18S           19.4055947548       -9.6770151749       -1.8678244939  MEMB      21              0.0000000000
     41467      1281  PVCL2     H18T           18.2619675762       -8.8845154354       -0.5844920616  MEMB      21              0.0000000000
     41468      1281  PVCL2     CD3            11.0344259448      -10.6560782483      -12.3722958638  MEMB      21              0.0000000000
     41469      1281  PVCL2     H3X            10.1131473326      -10.0088679908      -12.5159119258  MEMB      21              0.0000000000
     41470      1281  PVCL2     H3Y            11.5751214020       -9.9609089740      -11.7714300532  MEMB      21              0.0000000000
     41471      1281  PVCL2     CD4            10.6200821393      -12.2262085266      -11.4626073513  MEMB      21              0.0000000000
     41472      1281  PVCL2     H4X            10.0579707582      -13.1506578525      -11.9287147667  MEMB      21              0.0000000000
     41473      1281  PVCL2     H4Y             9.8429448868      -12.3909179878      -10.6697005619  MEMB      21              0.0000000000
     41474      1281  PVCL2     CD5            11.6491046038      -13.2752983374      -11.3631319832  MEMB      21              0.0000000000
     41475      1281  PVCL2     H5X            12.2799705168      -13.3985284742      -12.2509037154  MEMB      21              0.0000000000
     41476      1281  PVCL2     H5Y            11.2598856652      -14.2929330683      -11.0453290937  MEMB      21              0.0000000000
     41477      1281  PVCL2     CD6            12.4458238976      -12.4355327645      -10.5331559648  MEMB      21              0.0000000000
     41478      1281  PVCL2     H6X            12.6064939529      -11.4488055819      -11.0217465845  MEMB      21              0.0000000000
     41479      1281  PVCL2     H6Y            13.4063038051      -12.9390631510      -10.5581567053  MEMB      21              0.0000000000
     41480      1281  PVCL2     CD7            11.7191480881      -12.3081620611       -9.2198009179  MEMB      21              0.0000000000
     41481      1281  PVCL2     H7X            11.5834701981      -13.3422113678       -8.8396530643  MEMB      21              0.0000000000
     41482      1281  PVCL2     H7Y            10.7139460721      -11.8190357266       -9.2148835844  MEMB      21              0.0000000000
     41483      1281  PVCL2     CD8            12.5424456823      -11.3921194359       -8.3936787781  MEMB      21              0.0000000000
     41484      1281  PVCL2     H8X            12.5808899953      -10.4105496248       -8.9202437471  MEMB      21              0.0000000000
     41485      1281  PVCL2     H8Y            13.5477017784      -11.8634765402       -8.3635783574  MEMB      21              0.0000000000
     41486      1281  PVCL2     CD9            11.9459862156      -11.2166342278       -7.0220479930  MEMB      21              0.0000000000
     41487      1281  PVCL2     H9X            11.6709070775      -12.2330404281       -6.6710964650  MEMB      21              0.0000000000
     41488      1281  PVCL2     H9Y            10.9847726005      -10.6558657444       -7.0611322498  MEMB      21              0.0000000000
     41489      1281  PVCL2     CD10           12.9543142657      -10.6262651375       -6.0409281841  MEMB      21              0.0000000000
     41490      1281  PVCL2     H10X           13.1076785860       -9.5306969389       -6.1379328936  MEMB      21              0.0000000000
     41491      1281  PVCL2     H10Y           13.9543316896      -11.0999406968       -6.1808494618  MEMB      21              0.0000000000
     41492      1281  PVCL2     CD11           12.5931848164      -10.9951616330       -4.6215966135  MEMB      21              0.0000000000
     41493      1281  PVCL2     H11X           13.2693706642      -10.4575862214       -3.9303153913  MEMB      21              0.0000000000
     41494      1281  PVCL2     H11Y           12.7272324641      -12.1024517617       -4.5312448125  MEMB      21              0.0000000000
     41495      1281  PVCL2     CD12           11.2138649423      -10.6147525225       -4.1795279832  MEMB      21              0.0000000000
     41496      1281  PVCL2     H12X           10.4908228909      -10.8261024637       -4.9712517005  MEMB      21              0.0000000000
     41497      1281  PVCL2     H12Y           11.0607236660       -9.5330607797       -4.0392838634  MEMB      21              0.0000000000
     41498      1281  PVCL2     CD13           10.8692975808      -11.3588578536       -2.9070340355  MEMB      21              0.0000000000
     41499      1281  PVCL2     H13X           10.4233700529      -12.3318945552       -3.2313840130  MEMB      21              0.0000000000
     41500      1281  PVCL2     H13Y           10.1979507722      -10.6624971432       -2.3758446155  MEMB      21              0.0000000000
     41501      1281  PVCL2     CD14           11.8175227451      -11.6864900336       -1.7821354039  MEMB      21              0.0000000000
     41502      1281  PVCL2     H14X           12.6079129683      -12.3107784650       -2.2240600332  MEMB      21              0.0000000000
     41503      1281  PVCL2     H14Y           11.2397469463      -12.3608141729       -1.0912485742  MEMB      21              0.0000000000
     41504      1281  PVCL2     CD15           12.4204284238      -10.4645547252       -1.0337867623  MEMB      21              0.0000000000
     41505      1281  PVCL2     H15X           12.8500760246       -9.7342919603       -1.7351285763  MEMB      21              0.0000000000
     41506      1281  PVCL2     H15Y           13.1912802141      -10.9372144563       -0.3966926524  MEMB      21              0.0000000000
     41507      1281  PVCL2     CD16           11.5695160729       -9.6374789681       -0.0859083935  MEMB      21              0.0000000000
     41508      1281  PVCL2     H16X           11.2769114370      -10.4147394817        0.6573770679  MEMB      21              0.0000000000
     41509      1281  PVCL2     H16Y           10.7184512081       -9.1900542138       -0.6687830981  MEMB      21              0.0000000000
     41510      1281  PVCL2     H16Z           11.9281561842       -8.8230327326        0.5401565641  MEMB      21              0.0000000000
     41511      1282  PPPE      N             -11.0893205630       17.0308440237      -19.0147494286  MEMB      22              0.0000000000
     41512      1282  PPPE      HN1           -11.7721212133       16.4664267576      -18.4632106991  MEMB      22              0.0000000000
     41513      1282  PPPE      HN2           -10.8775461679       17.9293876978      -18.5297882093  MEMB      22              0.0000000000
     41514      1282  PPPE      HN3           -11.5340715545       17.2499619294      -19.9277242165  MEMB      22              0.0000000000
     41515      1282  PPPE      C12            -9.7693504941       16.3460132038      -19.2948207632  MEMB      22              0.0000000000
     41516      1282  PPPE      H12A           -9.9874321913       15.4825431151      -19.9414960812  MEMB      22              0.0000000000
     41517      1282  PPPE      H12B           -9.3620981895       15.9801619981      -18.3302789914  MEMB      22              0.0000000000
     41518      1282  PPPE      C11            -8.7626118134       17.2975313163      -19.9827400952  MEMB      22              0.0000000000
     41519      1282  PPPE      H11A           -9.2736616045       17.9083631486      -20.7603798866  MEMB      22              0.0000000000
     41520      1282  PPPE      H11B           -7.9975772362       16.7220486405      -20.5582717946  MEMB      22              0.0000000000
     41521      1282  PPPE      P              -8.4968859927       19.6041256808      -18.7151733132  MEMB      22              0.0000000000
     41522      1282  PPPE      O13            -9.5899293394       19.9161332837      -19.6644890854  MEMB      22              0.0000000000
     41523      1282  PPPE      O14            -8.8532473829       19.6741271500      -17.2858298142  MEMB      22              0.0000000000
     41524      1282  PPPE      O11            -7.2024081480       20.4397798157      -19.0112791423  MEMB      22              0.0000000000
     41525      1282  PPPE      O12            -8.0978389393       18.0913725778      -19.0004505003  MEMB      22              0.0000000000
     41526      1282  PPPE      C1             -5.9211341790       19.8527239772      -19.2150885837  MEMB      22              0.0000000000
     41527      1282  PPPE      HA             -5.2981515035       20.6311940016      -19.7165418403  MEMB      22              0.0000000000
     41528      1282  PPPE      HB             -5.9515210801       18.9624307501      -19.8779876578  MEMB      22              0.0000000000
     41529      1282  PPPE      C2             -5.1973854242       19.4532092316      -17.9078459245  MEMB      22              0.0000000000
     41530      1282  PPPE      HS             -4.2156372999       18.9738370400      -18.1264193858  MEMB      22              0.0000000000
     41531      1282  PPPE      O21            -5.9254563788       18.6354085505      -16.9909611720  MEMB      22              0.0000000000
     41532      1282  PPPE      C21            -5.8850735992       17.3483622209      -17.2130218727  MEMB      22              0.0000000000
     41533      1282  PPPE      O22            -5.2829382801       16.7924353328      -18.1115770313  MEMB      22              0.0000000000
     41534      1282  PPPE      C22            -6.7997089437       16.6553844756      -16.2151609701  MEMB      22              0.0000000000
     41535      1282  PPPE      H2R            -6.6985226942       15.5543784842      -16.2964039812  MEMB      22              0.0000000000
     41536      1282  PPPE      H2S            -7.8249089032       16.9460488619      -16.5263258684  MEMB      22              0.0000000000
     41537      1282  PPPE      C3             -4.8626713030       20.6832191531      -17.1004412161  MEMB      22              0.0000000000
     41538      1282  PPPE      HX             -4.5480467889       20.1137530076      -16.1875522819  MEMB      22              0.0000000000
     41539      1282  PPPE      HY             -3.9949748950       21.2098962877      -17.5819409000  MEMB      22              0.0000000000
     41540      1282  PPPE      O31            -5.9132799679       21.6178613500      -16.7856093745  MEMB      22              0.0000000000
     41541      1282  PPPE      C31            -6.4877248893       21.5276161160      -15.5825899638  MEMB      22              0.0000000000
     41542      1282  PPPE      O32            -6.1246540859       20.8463582618      -14.6505351311  MEMB      22              0.0000000000
     41543      1282  PPPE      C32            -7.5892799249       22.5549514155      -15.4561167220  MEMB      22              0.0000000000
     41544      1282  PPPE      H2X            -8.1703999299       22.5222501185      -16.3957442145  MEMB      22              0.0000000000
     41545      1282  PPPE      H2Y            -7.1449530031       23.5618367382      -15.3196528428  MEMB      22              0.0000000000
     41546      1282  PPPE      C23            -6.5845937171       17.1560376881      -14.7660475474  MEMB      22              0.0000000000
     41547      1282  PPPE      H3R            -6.5785856745       18.2694585205      -14.7452793065  MEMB      22              0.0000000000
     41548      1282  PPPE      H3S            -5.5831289802       16.8156241887      -14.4193624576  MEMB      22              0.0000000000
     41549      1282  PPPE      C24            -7.7189499301       16.6450649918      -13.8595172868  MEMB      22              0.0000000000
     41550      1282  PPPE      H4R            -7.4251695552       15.6388661783      -13.5157161112  MEMB      22              0.0000000000
     41551      1282  PPPE      H4S            -8.6253499886       16.5409412966      -14.4966045688  MEMB      22              0.0000000000
     41552      1282  PPPE      C25            -8.1500504689       17.5224760497      -12.6595646228  MEMB      22              0.0000000000
     41553      1282  PPPE      H5R            -9.2226301906       17.3144839068      -12.4258820174  MEMB      22              0.0000000000
     41554      1282  PPPE      H5S            -8.0748889011       18.5886925585      -12.9449775300  MEMB      22              0.0000000000
     41555      1282  PPPE      C26            -7.3682313636       17.2102701783      -11.3744184665  MEMB      22              0.0000000000
     41556      1282  PPPE      H6R            -6.2753954091       17.2985785593      -11.5675938112  MEMB      22              0.0000000000
     41557      1282  PPPE      H6S            -7.7008036229       16.1978493061      -11.1095185443  MEMB      22              0.0000000000
     41558      1282  PPPE      C27            -7.7554391280       17.9496228886      -10.0951460785  MEMB      22              0.0000000000
     41559      1282  PPPE      H7R            -8.7694657895       17.6142999555       -9.7739366891  MEMB      22              0.0000000000
     41560      1282  PPPE      H7S            -7.8018997765       18.9971065410      -10.4229008814  MEMB      22              0.0000000000
     41561      1282  PPPE      C28            -6.7257983736       17.9265814032       -8.9359850763  MEMB      22              0.0000000000
     41562      1282  PPPE      H8R            -7.0487666003       18.6059183754       -8.1352801268  MEMB      22              0.0000000000
     41563      1282  PPPE      H8S            -5.7269213925       18.2217375071       -9.3106898695  MEMB      22              0.0000000000
     41564      1282  PPPE      C29            -6.5601887197       16.6438788141       -8.2598393693  MEMB      22              0.0000000000
     41565      1282  PPPE      H91            -5.6768158610       16.0758854703       -8.6189190189  MEMB      22              0.0000000000
     41566      1282  PPPE      C210           -7.4675370854       16.0714795301       -7.4499152456  MEMB      22              0.0000000000
     41567      1282  PPPE      H101           -7.3291879299       15.0498909362       -7.1839216771  MEMB      22              0.0000000000
     41568      1282  PPPE      C211           -8.8098644107       16.5011227866       -6.9814367800  MEMB      22              0.0000000000
     41569      1282  PPPE      H11R           -9.6648687335       15.9477256050       -7.4221522603  MEMB      22              0.0000000000
     41570      1282  PPPE      H11S           -8.8979274644       17.5601490270       -7.2427230843  MEMB      22              0.0000000000
     41571      1282  PPPE      C212           -8.8521128674       16.3156424224       -5.4710699215  MEMB      22              0.0000000000
     41572      1282  PPPE      H12R           -9.0410230321       15.2501969575       -5.1798483107  MEMB      22              0.0000000000
     41573      1282  PPPE      H12S           -9.7453464172       16.8357387172       -5.0673548159  MEMB      22              0.0000000000
     41574      1282  PPPE      C213           -7.5862745757       16.9413442612       -4.8580633051  MEMB      22              0.0000000000
     41575      1282  PPPE      H13R           -7.5435551584       18.0301666131       -4.9378136709  MEMB      22              0.0000000000
     41576      1282  PPPE      H13S           -6.6140932799       16.5298851640       -5.2561803602  MEMB      22              0.0000000000
     41577      1282  PPPE      C214           -7.5630929037       16.6320080567       -3.4287296327  MEMB      22              0.0000000000
     41578      1282  PPPE      H14R           -6.9638732807       15.7092540060       -3.6152905414  MEMB      22              0.0000000000
     41579      1282  PPPE      H14S           -8.5642650466       16.3039010096       -3.0494310521  MEMB      22              0.0000000000
     41580      1282  PPPE      C215           -6.8666551912       17.5678265181       -2.3837235681  MEMB      22              0.0000000000
     41581      1282  PPPE      H15R           -7.6342669856       18.3497681244       -2.1998513666  MEMB      22              0.0000000000
     41582      1282  PPPE      H15S           -5.9061320459       17.9206160103       -2.7813281278  MEMB      22              0.0000000000
     41583      1282  PPPE      C216           -6.4787401849       17.1563686024       -0.9487557358  MEMB      22              0.0000000000
     41584      1282  PPPE      H16R           -5.8586984383       16.2361616461       -0.9315027092  MEMB      22              0.0000000000
     41585      1282  PPPE      H16S           -5.8711122406       17.8164399994       -0.3279140469  MEMB      22              0.0000000000
     41586      1282  PPPE      H16T           -7.4486350058       17.0653335975       -0.4111922259  MEMB      22              0.0000000000
     41587      1282  PPPE      C33            -8.5277979625       22.2628806974      -14.2755670241  MEMB      22              0.0000000000
     41588      1282  PPPE      H3X            -8.6698446671       21.1725699754      -14.0774346481  MEMB      22              0.0000000000
     41589      1282  PPPE      H3Y            -9.5193482768       22.6913185326      -14.5449748893  MEMB      22              0.0000000000
     41590      1282  PPPE      C34            -8.0795586001       22.9477879965      -12.9954402901  MEMB      22              0.0000000000
     41591      1282  PPPE      H4X            -8.5897829771       23.9362589655      -12.9581832058  MEMB      22              0.0000000000
     41592      1282  PPPE      H4Y            -6.9756461294       23.1009637512      -12.9848441467  MEMB      22              0.0000000000
     41593      1282  PPPE      C35            -8.5338633319       22.1364187908      -11.7933381385  MEMB      22              0.0000000000
     41594      1282  PPPE      H5X            -7.9870682027       21.1668742354      -11.7283125297  MEMB      22              0.0000000000
     41595      1282  PPPE      H5Y            -9.6103347326       21.9051451209      -11.9696300242  MEMB      22              0.0000000000
     41596      1282  PPPE      C36            -8.4772212788       22.9562041929      -10.5185394886  MEMB      22              0.0000000000
     41597      1282  PPPE      H6X            -9.3214986452       23.6810739043      -10.5792069573  MEMB      22              0.0000000000
     41598      1282  PPPE      H6Y            -7.5517832486       23.5637625572      -10.3979389848  MEMB      22              0.0000000000
     41599      1282  PPPE      C37            -8.5884009476       22.0979487004       -9.2673741969  MEMB      22              0.0000000000
     41600      1282  PPPE      H7X            -7.6582649907       21.5001792837       -9.1664009933  MEMB      22              0.0000000000
     41601      1282  PPPE      H7Y            -9.4595047472       21.4066487851       -9.3197946669  MEMB      22              0.0000000000
     41602      1282  PPPE      C38            -8.7464453637       23.0527069982       -8.1032802194  MEMB      22              0.0000000000
     41603      1282  PPPE      H8X            -9.5114195971       23.7568234617       -8.4466420739  MEMB      22              0.0000000000
     41604      1282  PPPE      H8Y            -7.8268711673       23.6525797650       -7.9454444951  MEMB      22              0.0000000000
     41605      1282  PPPE      C39            -9.2039717792       22.4257853216       -6.7953455795  MEMB      22              0.0000000000
     41606      1282  PPPE      H9X           -10.0433613982       21.7148377606       -6.9224028158  MEMB      22              0.0000000000
     41607      1282  PPPE      H9Y            -9.5340031699       23.2257981988       -6.1311581480  MEMB      22              0.0000000000
     41608      1282  PPPE      C310           -8.0945547852       21.8069952425       -5.9772852962  MEMB      22              0.0000000000
     41609      1282  PPPE      H10X           -7.2020502877       22.4717971150       -5.9887422219  MEMB      22              0.0000000000
     41610      1282  PPPE      H10Y           -7.8426670234       20.8573570462       -6.4977255759  MEMB      22              0.0000000000
     41611      1282  PPPE      C311           -8.5754362335       21.4275597037       -4.5644320554  MEMB      22              0.0000000000
     41612      1282  PPPE      H11X           -7.8836279019       20.6192188293       -4.2425192823  MEMB      22              0.0000000000
     41613      1282  PPPE      H11Y           -9.6103862811       21.0128170592       -4.6161545543  MEMB      22              0.0000000000
     41614      1282  PPPE      C312           -8.5367452740       22.4932663690       -3.4533054927  MEMB      22              0.0000000000
     41615      1282  PPPE      H12X           -9.4311712190       23.1471203513       -3.5417199888  MEMB      22              0.0000000000
     41616      1282  PPPE      H12Y           -7.6357367162       23.1309925232       -3.5750159920  MEMB      22              0.0000000000
     41617      1282  PPPE      C313           -8.5579172534       21.8361835307       -2.0557579928  MEMB      22              0.0000000000
     41618      1282  PPPE      H13X           -7.5661508152       21.9065310169       -1.5585417748  MEMB      22              0.0000000000
     41619      1282  PPPE      H13Y           -8.7790289957       20.7506963495       -2.2085276941  MEMB      22              0.0000000000
     41620      1282  PPPE      C314           -9.6862740558       22.3583965251       -1.1592260819  MEMB      22              0.0000000000
     41621      1282  PPPE      H14X          -10.5835540433       22.4121253482       -1.8121897732  MEMB      22              0.0000000000
     41622      1282  PPPE      H14Y           -9.5180152795       23.3892665748       -0.7810401658  MEMB      22              0.0000000000
     41623      1282  PPPE      C315          -10.0315658981       21.3882232669       -0.0343834808  MEMB      22              0.0000000000
     41624      1282  PPPE      H15X          -10.2908516329       20.3876974052       -0.4380948533  MEMB      22              0.0000000000
     41625      1282  PPPE      H15Y          -10.8841966156       21.7827050650        0.5010892948  MEMB      22              0.0000000000
     41626      1282  PPPE      C316           -9.0619982744       21.2670584736        1.0997328933  MEMB      22              0.0000000000
     41627      1282  PPPE      H16X           -8.9086937617       22.3021214146        1.4789584947  MEMB      22              0.0000000000
     41628      1282  PPPE      H16Y           -9.5045339084       20.6146358169        1.8750324384  MEMB      22              0.0000000000
     41629      1282  PPPE      H16Z           -8.1289701435       20.7936989625        0.7627822925  MEMB      22              0.0000000000
     41630      1283  PVPG      C13            -0.6738459602       19.9756777934      -20.9833560146  MEMB      23              0.0000000000
     41631      1283  PVPG      H13A            0.4213394073       20.0392407105      -21.0939049099  MEMB      23              0.0000000000
     41632      1283  PVPG      H13B           -0.9560590293       19.0100783812      -21.4742944709  MEMB      23              0.0000000000
     41633      1283  PVPG      OC3            -1.2357576194       21.0996809999      -21.6698878019  MEMB      23              0.0000000000
     41634      1283  PVPG      HO3            -1.1580646439       21.8702835754      -21.0788562080  MEMB      23              0.0000000000
     41635      1283  PVPG      C12            -1.0870028784       19.8991156740      -19.4827582128  MEMB      23              0.0000000000
     41636      1283  PVPG      H12A           -0.6167328264       18.9782162108      -19.0669103073  MEMB      23              0.0000000000
     41637      1283  PVPG      OC2            -2.4715529070       19.6831782755      -19.3648169160  MEMB      23              0.0000000000
     41638      1283  PVPG      HO2            -2.6540090569       19.8113400130      -18.4355252096  MEMB      23              0.0000000000
     41639      1283  PVPG      C11            -0.6940691630       21.0874568403      -18.5494751836  MEMB      23              0.0000000000
     41640      1283  PVPG      H11A            0.4149582475       21.1726473211      -18.6164347621  MEMB      23              0.0000000000
     41641      1283  PVPG      H11B           -0.9527761658       20.7818387825      -17.5069740086  MEMB      23              0.0000000000
     41642      1283  PVPG      P              -0.8176835958       23.6107007560      -18.0005896631  MEMB      23              0.0000000000
     41643      1283  PVPG      O13            -1.2503434207       24.8772034441      -18.6322282696  MEMB      23              0.0000000000
     41644      1283  PVPG      O14             0.6344857311       23.4371409805      -17.7566714010  MEMB      23              0.0000000000
     41645      1283  PVPG      O12            -1.3359332375       22.3471469136      -18.8430338816  MEMB      23              0.0000000000
     41646      1283  PVPG      O11            -1.5981372192       23.4132293673      -16.6383681318  MEMB      23              0.0000000000
     41647      1283  PVPG      C1             -3.0059515454       23.6154856604      -16.5943084533  MEMB      23              0.0000000000
     41648      1283  PVPG      HA             -3.5199598904       23.2243543193      -17.5111193579  MEMB      23              0.0000000000
     41649      1283  PVPG      HB             -3.2603450568       24.6960577510      -16.5530624186  MEMB      23              0.0000000000
     41650      1283  PVPG      C2             -3.5080004543       23.0126634674      -15.2622252527  MEMB      23              0.0000000000
     41651      1283  PVPG      HS             -4.6185005148       23.0092162169      -15.3009488271  MEMB      23              0.0000000000
     41652      1283  PVPG      O21            -3.0684906287       23.7520403146      -14.1379876562  MEMB      23              0.0000000000
     41653      1283  PVPG      C21            -3.5663621837       24.9277632846      -13.9196637611  MEMB      23              0.0000000000
     41654      1283  PVPG      O22            -4.4399416821       25.4801478813      -14.5602379548  MEMB      23              0.0000000000
     41655      1283  PVPG      C22            -2.9652622640       25.4524086846      -12.6031437870  MEMB      23              0.0000000000
     41656      1283  PVPG      H2R            -3.6705297402       25.2157818515      -11.7788440913  MEMB      23              0.0000000000
     41657      1283  PVPG      H2S            -2.8924327074       26.5502926057      -12.7140748324  MEMB      23              0.0000000000
     41658      1283  PVPG      C3             -2.9843512089       21.5917709099      -14.9922001314  MEMB      23              0.0000000000
     41659      1283  PVPG      HX             -3.0407465388       21.0586981586      -15.9043829480  MEMB      23              0.0000000000
     41660      1283  PVPG      HY             -1.9180541363       21.3533305330      -14.9828536332  MEMB      23              0.0000000000
     41661      1283  PVPG      O31            -3.7303804811       20.9326731951      -13.9611357811  MEMB      23              0.0000000000
     41662      1283  PVPG      C31            -3.0405906517       20.8164829363      -12.8579124297  MEMB      23              0.0000000000
     41663      1283  PVPG      O32            -1.8987925874       21.2203978823      -12.7095281982  MEMB      23              0.0000000000
     41664      1283  PVPG      C32            -3.8369384570       19.9913593433      -11.8529839381  MEMB      23              0.0000000000
     41665      1283  PVPG      H2X            -4.4429465880       19.2544512353      -12.4320715550  MEMB      23              0.0000000000
     41666      1283  PVPG      H2Y            -4.5009916756       20.6334852211      -11.2457734383  MEMB      23              0.0000000000
     41667      1283  PVPG      C23            -1.5782369359       24.8472777573      -12.2610866972  MEMB      23              0.0000000000
     41668      1283  PVPG      H3R            -0.8346709799       25.2059781796      -13.0040562190  MEMB      23              0.0000000000
     41669      1283  PVPG      H3S            -1.6168918830       23.7369348081      -12.3624123668  MEMB      23              0.0000000000
     41670      1283  PVPG      C24            -1.1515320748       25.1268377636      -10.8090858046  MEMB      23              0.0000000000
     41671      1283  PVPG      H4R            -1.9273694524       24.6669412688      -10.1517355210  MEMB      23              0.0000000000
     41672      1283  PVPG      H4S            -1.1136607801       26.2147334046      -10.5907845294  MEMB      23              0.0000000000
     41673      1283  PVPG      C25             0.1844492869       24.4823226139      -10.4272528058  MEMB      23              0.0000000000
     41674      1283  PVPG      H5R             1.0452517706       24.9858092231      -10.9198423327  MEMB      23              0.0000000000
     41675      1283  PVPG      H5S             0.1421751770       23.4238164670      -10.7702393235  MEMB      23              0.0000000000
     41676      1283  PVPG      C26             0.4101405488       24.4901150609       -8.9218832078  MEMB      23              0.0000000000
     41677      1283  PVPG      H6R            -0.5145743759       24.1259142023       -8.4165088114  MEMB      23              0.0000000000
     41678      1283  PVPG      H6S             0.6031437904       25.5268873317       -8.5585219775  MEMB      23              0.0000000000
     41679      1283  PVPG      C27             1.5748798292       23.6138457733       -8.4650532217  MEMB      23              0.0000000000
     41680      1283  PVPG      H7R             1.3602443611       23.5941913148       -7.3883451524  MEMB      23              0.0000000000
     41681      1283  PVPG      H7S             2.5320165147       24.1629266190       -8.6335595070  MEMB      23              0.0000000000
     41682      1283  PVPG      C28             1.6508012980       22.1665654307       -9.0162456889  MEMB      23              0.0000000000
     41683      1283  PVPG      H8R             2.2985805550       22.1799696016       -9.9243938620  MEMB      23              0.0000000000
     41684      1283  PVPG      H8S             0.6323832004       21.8366312768       -9.2608829705  MEMB      23              0.0000000000
     41685      1283  PVPG      C29             2.1732724261       21.0190829319       -8.1458952620  MEMB      23              0.0000000000
     41686      1283  PVPG      H9R             2.1841552482       20.0182539623       -8.6295322852  MEMB      23              0.0000000000
     41687      1283  PVPG      H9S             1.7074456359       20.9263440954       -7.1471364215  MEMB      23              0.0000000000
     41688      1283  PVPG      C210            3.6016873741       21.1759411542       -8.0347881324  MEMB      23              0.0000000000
     41689      1283  PVPG      H10R            3.9076196254       22.2392495834       -7.9634733217  MEMB      23              0.0000000000
     41690      1283  PVPG      H10S            3.9987270665       21.2942245153       -9.0919353600  MEMB      23              0.0000000000
     41691      1283  PVPG      C211            4.1963527893       20.1675576808       -6.9876902795  MEMB      23              0.0000000000
     41692      1283  PVPG      H111            4.7864225235       19.5820348133       -7.6956936313  MEMB      23              0.0000000000
     41693      1283  PVPG      C212            4.4946613234       20.1859805779       -5.5802113606  MEMB      23              0.0000000000
     41694      1283  PVPG      H121            5.3866292730       19.7637509301       -5.1491997049  MEMB      23              0.0000000000
     41695      1283  PVPG      C213            4.3758881430       21.1451473501       -4.3544343169  MEMB      23              0.0000000000
     41696      1283  PVPG      H13R            4.0124084942       22.2002103387       -4.1691875319  MEMB      23              0.0000000000
     41697      1283  PVPG      H13S            5.2233712733       21.5599835779       -3.7469519489  MEMB      23              0.0000000000
     41698      1283  PVPG      C214            3.0582560487       20.6695829068       -4.1887113990  MEMB      23              0.0000000000
     41699      1283  PVPG      H14R            2.3712913849       20.1432329265       -4.8737387229  MEMB      23              0.0000000000
     41700      1283  PVPG      H14S            2.3223275156       21.2870712130       -4.6551923179  MEMB      23              0.0000000000
     41701      1283  PVPG      C215            3.2967236039       20.1036681690       -2.8866942597  MEMB      23              0.0000000000
     41702      1283  PVPG      H15R            4.0359361244       20.5486405785       -2.1835040554  MEMB      23              0.0000000000
     41703      1283  PVPG      H15S            3.6447469203       19.1042212486       -3.2354266054  MEMB      23              0.0000000000
     41704      1283  PVPG      C216            2.0813806606       19.9983127094       -2.2252698402  MEMB      23              0.0000000000
     41705      1283  PVPG      H16R            1.6770352983       19.4832101136       -3.0941190605  MEMB      23              0.0000000000
     41706      1283  PVPG      H16S            1.3922389946       20.8717435316       -2.1410333717  MEMB      23              0.0000000000
     41707      1283  PVPG      C217            2.4169433252       19.2443538425       -0.9798325326  MEMB      23              0.0000000000
     41708      1283  PVPG      H17R            2.9852565321       19.7421273177       -0.1760759530  MEMB      23              0.0000000000
     41709      1283  PVPG      H17S            2.5975879894       18.1525341884       -1.1784579126  MEMB      23              0.0000000000
     41710      1283  PVPG      C218            1.3128751990       19.2813769191       -0.1549843654  MEMB      23              0.0000000000
     41711      1283  PVPG      H18R            0.6933950835       19.0170404432       -0.9606858308  MEMB      23              0.0000000000
     41712      1283  PVPG      H18S            1.2128271105       18.4499365709        0.5700173249  MEMB      23              0.0000000000
     41713      1283  PVPG      H18T            0.6630880025       20.1434423371       -0.0331725403  MEMB      23              0.0000000000
     41714      1283  PVPG      C33            -2.8932171451       19.2679655442      -10.8884595424  MEMB      23              0.0000000000
     41715      1283  PVPG      H3X            -2.0678935825       18.7994446490      -11.4675084845  MEMB      23              0.0000000000
     41716      1283  PVPG      H3Y            -3.4906182814       18.4929156649      -10.3592594895  MEMB      23              0.0000000000
     41717      1283  PVPG      C34            -2.3740840727       20.1713806810       -9.7775932643  MEMB      23              0.0000000000
     41718      1283  PVPG      H4X            -3.2581905328       20.4192772704       -9.1510181624  MEMB      23              0.0000000000
     41719      1283  PVPG      H4Y            -1.9674308710       21.1117153489      -10.2136769079  MEMB      23              0.0000000000
     41720      1283  PVPG      C35            -1.2831215046       19.5283428825       -8.9148739652  MEMB      23              0.0000000000
     41721      1283  PVPG      H5X            -0.9227833094       20.2740259871       -8.1707295224  MEMB      23              0.0000000000
     41722      1283  PVPG      H5Y            -0.4157488153       19.2850853482       -9.5727244936  MEMB      23              0.0000000000
     41723      1283  PVPG      C36            -1.7062203109       18.2583105523       -8.1591652650  MEMB      23              0.0000000000
     41724      1283  PVPG      H6X            -0.8359494688       17.9415956196       -7.5490655287  MEMB      23              0.0000000000
     41725      1283  PVPG      H6Y            -1.9348010178       17.4507980424       -8.8625373876  MEMB      23              0.0000000000
     41726      1283  PVPG      C37            -3.0014483348       18.3182341338       -7.3414536643  MEMB      23              0.0000000000
     41727      1283  PVPG      H7X            -3.2475669440       17.3098612306       -6.9395117814  MEMB      23              0.0000000000
     41728      1283  PVPG      H7Y            -3.8265700497       18.5770034783       -8.0364886678  MEMB      23              0.0000000000
     41729      1283  PVPG      C38            -3.0226345379       19.3747872340       -6.2489704301  MEMB      23              0.0000000000
     41730      1283  PVPG      H8X            -4.0009046991       19.3553976920       -5.7244930879  MEMB      23              0.0000000000
     41731      1283  PVPG      H8Y            -2.8184887366       20.3744202473       -6.6813831183  MEMB      23              0.0000000000
     41732      1283  PVPG      C39            -2.0458634653       19.2008978336       -5.1441202485  MEMB      23              0.0000000000
     41733      1283  PVPG      H9X            -1.0322633016       18.9630023926       -5.5618280085  MEMB      23              0.0000000000
     41734      1283  PVPG      H9Y            -2.3306138930       18.2884253093       -4.5635111522  MEMB      23              0.0000000000
     41735      1283  PVPG      C310           -2.0962789807       20.4092115618       -4.1616125961  MEMB      23              0.0000000000
     41736      1283  PVPG      H10X           -1.7658989193       20.1916435111       -3.1576569544  MEMB      23              0.0000000000
     41737      1283  PVPG      H10Y           -3.0951107251       20.6538562931       -3.7955688977  MEMB      23              0.0000000000
     41738      1283  PVPG      C311           -1.0667514656       21.5023601007       -4.3734743937  MEMB      23              0.0000000000
     41739      1283  PVPG      H11X           -0.1642436372       21.0375413799       -4.8384508425  MEMB      23              0.0000000000
     41740      1283  PVPG      H11Y           -0.7503056438       21.8715499157       -3.3662680399  MEMB      23              0.0000000000
     41741      1283  PVPG      C312           -1.5495158317       22.6526977687       -5.2375685519  MEMB      23              0.0000000000
     41742      1283  PVPG      H12X           -1.9021770591       22.1907652134       -6.1800402615  MEMB      23              0.0000000000
     41743      1283  PVPG      H12Y           -0.6875379639       23.3190430620       -5.4541611184  MEMB      23              0.0000000000
     41744      1283  PVPG      C313           -2.6813753533       23.4929566126       -4.6411049887  MEMB      23              0.0000000000
     41745      1283  PVPG      H13X           -3.5290286837       22.8243559557       -4.3841211087  MEMB      23              0.0000000000
     41746      1283  PVPG      H13Y           -3.0182934078       24.2286139099       -5.4105265175  MEMB      23              0.0000000000
     41747      1283  PVPG      C314           -2.2078966281       24.3010685484       -3.4351489144  MEMB      23              0.0000000000
     41748      1283  PVPG      H14X           -1.4092717145       24.9662830360       -3.8411454300  MEMB      23              0.0000000000
     41749      1283  PVPG      H14Y           -1.7971509636       23.6283454752       -2.6540497569  MEMB      23              0.0000000000
     41750      1283  PVPG      C315           -3.2571461736       25.2257657628       -2.8261403104  MEMB      23              0.0000000000
     41751      1283  PVPG      H15X           -4.1344460531       25.2365585850       -3.5091914405  MEMB      23              0.0000000000
     41752      1283  PVPG      H15Y           -2.7765793066       26.2312444664       -2.8049909451  MEMB      23              0.0000000000
     41753      1283  PVPG      C316           -3.7355249927       24.8758315273       -1.4145190114  MEMB      23              0.0000000000
     41754      1283  PVPG      H16X           -3.0271762178       25.2663518776       -0.6501393870  MEMB      23              0.0000000000
     41755      1283  PVPG      H16Y           -4.7381967525       25.3213012421       -1.2208629724  MEMB      23              0.0000000000
     41756      1283  PVPG      H16Z           -3.8192729444       23.7763813601       -1.3110972332  MEMB      23              0.0000000000
     41757      1284  PPPE      N             -16.7817891058       13.3362904132      -21.6369065675  MEMB      24              0.0000000000
     41758      1284  PPPE      HN1           -17.1008539552       14.2396732096      -22.0369992652  MEMB      24              0.0000000000
     41759      1284  PPPE      HN2           -15.8221063061       13.5276735748      -21.2903197811  MEMB      24              0.0000000000
     41760      1284  PPPE      HN3           -16.7618829379       12.5650332158      -22.3371682982  MEMB      24              0.0000000000
     41761      1284  PPPE      C12           -17.6229057115       12.9200611708      -20.4537779531  MEMB      24              0.0000000000
     41762      1284  PPPE      H12A          -16.9555460804       12.3320392266      -19.7898738666  MEMB      24              0.0000000000
     41763      1284  PPPE      H12B          -18.4125026125       12.2594688541      -20.8660853206  MEMB      24              0.0000000000
     41764      1284  PPPE      C11           -18.1245726621       14.1232018377      -19.6278673318  MEMB      24              0.0000000000
     41765      1284  PPPE      H11A          -18.5764208456       13.7728264680      -18.6653529508  MEMB      24              0.0000000000
     41766      1284  PPPE      H11B          -18.9445324198       14.6441905240      -20.1773632267  MEMB      24              0.0000000000
     41767      1284  PPPE      P             -16.2155799374       15.1619941380      -18.0400480332  MEMB      24              0.0000000000
     41768      1284  PPPE      O13           -16.2227719634       13.8641285245      -17.3383656652  MEMB      24              0.0000000000
     41769      1284  PPPE      O14           -14.9118983647       15.7893004507      -18.3839438346  MEMB      24              0.0000000000
     41770      1284  PPPE      O11           -17.0895570827       16.1965652611      -17.2231610186  MEMB      24              0.0000000000
     41771      1284  PPPE      O12           -17.0429440327       15.0294082617      -19.4058411971  MEMB      24              0.0000000000
     41772      1284  PPPE      C1            -17.4374268802       17.4376264816      -17.8477304646  MEMB      24              0.0000000000
     41773      1284  PPPE      HA            -18.3270662757       17.3053680595      -18.5076704392  MEMB      24              0.0000000000
     41774      1284  PPPE      HB            -16.6131129207       17.8282253803      -18.4887919198  MEMB      24              0.0000000000
     41775      1284  PPPE      C2            -17.7316075391       18.5210702429      -16.7731860034  MEMB      24              0.0000000000
     41776      1284  PPPE      HS            -17.5740957333       19.5208244348      -17.1938242644  MEMB      24              0.0000000000
     41777      1284  PPPE      O21           -16.9759900355       18.3487974621      -15.5531885321  MEMB      24              0.0000000000
     41778      1284  PPPE      C21           -15.6898635424       18.5025167625      -15.6962012979  MEMB      24              0.0000000000
     41779      1284  PPPE      O22           -15.0924440825       18.8226161966      -16.7127995293  MEMB      24              0.0000000000
     41780      1284  PPPE      C22           -15.0371368340       18.4076643008      -14.3032052432  MEMB      24              0.0000000000
     41781      1284  PPPE      H2R           -15.6054369346       19.0489761678      -13.5919123094  MEMB      24              0.0000000000
     41782      1284  PPPE      H2S           -14.0132570411       18.8120890287      -14.4181408227  MEMB      24              0.0000000000
     41783      1284  PPPE      C3            -19.2136857868       18.5411671894      -16.4412389463  MEMB      24              0.0000000000
     41784      1284  PPPE      HX            -19.6278171139       19.5775023448      -16.4040732696  MEMB      24              0.0000000000
     41785      1284  PPPE      HY            -19.7340640323       18.1027968161      -17.3308649913  MEMB      24              0.0000000000
     41786      1284  PPPE      O31           -19.4597710725       17.8959681067      -15.1731201825  MEMB      24              0.0000000000
     41787      1284  PPPE      C31           -19.8062939750       16.6290986695      -15.1450970669  MEMB      24              0.0000000000
     41788      1284  PPPE      O32           -20.2015089262       15.9389978172      -16.0712549915  MEMB      24              0.0000000000
     41789      1284  PPPE      C32           -20.1217483258       16.3774641237      -13.6563667517  MEMB      24              0.0000000000
     41790      1284  PPPE      H2X           -20.7721054194       15.4813093976      -13.5686070096  MEMB      24              0.0000000000
     41791      1284  PPPE      H2Y           -20.7342069713       17.2221725080      -13.2631743783  MEMB      24              0.0000000000
     41792      1284  PPPE      C23           -14.9730223919       16.9942409584      -13.6782245743  MEMB      24              0.0000000000
     41793      1284  PPPE      H3R           -14.3615560458       16.2935354778      -14.2861976094  MEMB      24              0.0000000000
     41794      1284  PPPE      H3S           -16.0091336383       16.5923885575      -13.6276599024  MEMB      24              0.0000000000
     41795      1284  PPPE      C24           -14.4036610560       17.0487109900      -12.2512257642  MEMB      24              0.0000000000
     41796      1284  PPPE      H4R           -15.0712352588       17.7198151172      -11.6633866629  MEMB      24              0.0000000000
     41797      1284  PPPE      H4S           -13.3762505354       17.4747021989      -12.2700259987  MEMB      24              0.0000000000
     41798      1284  PPPE      C25           -14.3568081528       15.6816149600      -11.5579794397  MEMB      24              0.0000000000
     41799      1284  PPPE      H5R           -13.4974535868       15.0981879886      -11.9551486161  MEMB      24              0.0000000000
     41800      1284  PPPE      H5S           -15.3028192736       15.1536076500      -11.8163718998  MEMB      24              0.0000000000
     41801      1284  PPPE      C26           -14.2158811962       15.7830281860      -10.0246916155  MEMB      24              0.0000000000
     41802      1284  PPPE      H6R           -15.0572511301       16.4168356417       -9.6652246211  MEMB      24              0.0000000000
     41803      1284  PPPE      H6S           -13.2481861323       16.2795678237       -9.7843075031  MEMB      24              0.0000000000
     41804      1284  PPPE      C27           -14.2995621224       14.4178229307       -9.3051970811  MEMB      24              0.0000000000
     41805      1284  PPPE      H7R           -13.5169648541       13.7519616740       -9.7339131161  MEMB      24              0.0000000000
     41806      1284  PPPE      H7S           -15.3108718440       14.0065511970       -9.5146806835  MEMB      24              0.0000000000
     41807      1284  PPPE      C28           -14.1281623584       14.4167230273       -7.7724445317  MEMB      24              0.0000000000
     41808      1284  PPPE      H8R           -13.1154862839       14.8222671649       -7.5571891634  MEMB      24              0.0000000000
     41809      1284  PPPE      H8S           -14.1158169636       13.3844785800       -7.3620920153  MEMB      24              0.0000000000
     41810      1284  PPPE      C29           -15.2335870132       15.1909468536       -7.1067756905  MEMB      24              0.0000000000
     41811      1284  PPPE      H91           -16.2790835933       14.9401389780       -7.3549303669  MEMB      24              0.0000000000
     41812      1284  PPPE      C210          -15.0004393919       16.1985615354       -6.2710946472  MEMB      24              0.0000000000
     41813      1284  PPPE      H101          -15.8569076972       16.7746660880       -5.9014215944  MEMB      24              0.0000000000
     41814      1284  PPPE      C211          -13.6215510024       16.6725082896       -5.8937304000  MEMB      24              0.0000000000
     41815      1284  PPPE      H11R          -13.2410441438       17.3548931830       -6.6741042256  MEMB      24              0.0000000000
     41816      1284  PPPE      H11S          -12.9003514241       15.8239059570       -5.8069934811  MEMB      24              0.0000000000
     41817      1284  PPPE      C212          -13.5848170186       17.3685875302       -4.5510043153  MEMB      24              0.0000000000
     41818      1284  PPPE      H12R          -14.1929035640       18.2972503871       -4.5303511143  MEMB      24              0.0000000000
     41819      1284  PPPE      H12S          -12.5351493462       17.6692465091       -4.3141852430  MEMB      24              0.0000000000
     41820      1284  PPPE      C213          -14.0705753520       16.4148820278       -3.4972448491  MEMB      24              0.0000000000
     41821      1284  PPPE      H13R          -13.4461975731       15.4910500658       -3.4743218342  MEMB      24              0.0000000000
     41822      1284  PPPE      H13S          -15.1362401029       16.1039983550       -3.6228455361  MEMB      24              0.0000000000
     41823      1284  PPPE      C214          -13.9481545329       17.0704754961       -2.1913051960  MEMB      24              0.0000000000
     41824      1284  PPPE      H14R          -14.7386113635       17.8773223307       -2.0645790084  MEMB      24              0.0000000000
     41825      1284  PPPE      H14S          -12.9547092255       17.4587347724       -1.8970822647  MEMB      24              0.0000000000
     41826      1284  PPPE      C215          -14.0778593675       15.9820892476       -1.2391352298  MEMB      24              0.0000000000
     41827      1284  PPPE      H15R          -14.6484684422       15.0812098667       -1.4076923364  MEMB      24              0.0000000000
     41828      1284  PPPE      H15S          -14.6505145060       16.7198227318       -0.6312773278  MEMB      24              0.0000000000
     41829      1284  PPPE      C216          -12.8931675733       15.1586456753       -0.7752619499  MEMB      24              0.0000000000
     41830      1284  PPPE      H16R          -13.1215720447       14.4262894522        0.0374661151  MEMB      24              0.0000000000
     41831      1284  PPPE      H16S          -12.6684682928       14.5068475011       -1.6394193522  MEMB      24              0.0000000000
     41832      1284  PPPE      H16T          -12.1366567607       15.8657252637       -0.4178440280  MEMB      24              0.0000000000
     41833      1284  PPPE      C33           -18.8949948733       16.2668174580      -12.8666271566  MEMB      24              0.0000000000
     41834      1284  PPPE      H3X           -19.0791204861       16.8155076222      -11.9200626416  MEMB      24              0.0000000000
     41835      1284  PPPE      H3Y           -18.0857129478       16.7632350913      -13.4436799728  MEMB      24              0.0000000000
     41836      1284  PPPE      C34           -18.6357306323       14.7968103073      -12.6381247805  MEMB      24              0.0000000000
     41837      1284  PPPE      H4X           -17.6552022259       14.7871746178      -12.1278506163  MEMB      24              0.0000000000
     41838      1284  PPPE      H4Y           -18.5477590030       14.3023065100      -13.6352387757  MEMB      24              0.0000000000
     41839      1284  PPPE      C35           -19.7065522600       14.1069264315      -11.7794981307  MEMB      24              0.0000000000
     41840      1284  PPPE      H5X           -19.5635543357       13.0053683695      -11.7943972847  MEMB      24              0.0000000000
     41841      1284  PPPE      H5Y           -20.7505171300       14.2566455531      -12.1309474460  MEMB      24              0.0000000000
     41842      1284  PPPE      C36           -19.7085844428       14.6032379996      -10.3462783820  MEMB      24              0.0000000000
     41843      1284  PPPE      H6X           -19.8945607840       15.6900651639      -10.2552592270  MEMB      24              0.0000000000
     41844      1284  PPPE      H6Y           -18.7149785341       14.4027550365       -9.8824632339  MEMB      24              0.0000000000
     41845      1284  PPPE      C37           -20.7906803703       13.8580900359       -9.6167467061  MEMB      24              0.0000000000
     41846      1284  PPPE      H7X           -20.4079149904       12.8106650845       -9.7171490036  MEMB      24              0.0000000000
     41847      1284  PPPE      H7Y           -21.7660379512       13.7352776276      -10.1249067675  MEMB      24              0.0000000000
     41848      1284  PPPE      C38           -21.0609019853       14.4719211701       -8.2179117667  MEMB      24              0.0000000000
     41849      1284  PPPE      H8X           -21.8842508621       13.8707358109       -7.8273527067  MEMB      24              0.0000000000
     41850      1284  PPPE      H8Y           -21.5599285795       15.4446259571       -8.1822800752  MEMB      24              0.0000000000
     41851      1284  PPPE      C39           -19.8339953461       14.5488171591       -7.2840307204  MEMB      24              0.0000000000
     41852      1284  PPPE      H9X           -18.9227990637       14.9782491436       -7.7011257327  MEMB      24              0.0000000000
     41853      1284  PPPE      H9Y           -19.2514236909       13.6614987057       -7.3321905035  MEMB      24              0.0000000000
     41854      1284  PPPE      C310          -20.1094432958       15.0781737235       -5.8727197572  MEMB      24              0.0000000000
     41855      1284  PPPE      H10X          -19.6182222744       14.5516696650       -5.0129437774  MEMB      24              0.0000000000
     41856      1284  PPPE      H10Y          -21.2028608218       15.1065406328       -5.6644189187  MEMB      24              0.0000000000
     41857      1284  PPPE      C311          -19.5503507468       16.4701078066       -5.9254889906  MEMB      24              0.0000000000
     41858      1284  PPPE      H11X          -20.0042480948       16.9379787026       -6.8289862828  MEMB      24              0.0000000000
     41859      1284  PPPE      H11Y          -18.4518852719       16.3800646955       -6.1025793791  MEMB      24              0.0000000000
     41860      1284  PPPE      C312          -19.8767931496       17.2204366153       -4.6584846098  MEMB      24              0.0000000000
     41861      1284  PPPE      H12X          -20.9630279400       17.1674337154       -4.4234815241  MEMB      24              0.0000000000
     41862      1284  PPPE      H12Y          -19.6512274919       18.2984553483       -4.8282819360  MEMB      24              0.0000000000
     41863      1284  PPPE      C313          -19.1038419097       16.6799359560       -3.4592883869  MEMB      24              0.0000000000
     41864      1284  PPPE      H13X          -18.2245541525       16.0482495661       -3.7141360989  MEMB      24              0.0000000000
     41865      1284  PPPE      H13Y          -19.7493684123       16.0976687510       -2.7605019798  MEMB      24              0.0000000000
     41866      1284  PPPE      C314          -18.5990392497       17.8475200884       -2.6659389393  MEMB      24              0.0000000000
     41867      1284  PPPE      H14X          -19.4528381857       18.5410477095       -2.6313287730  MEMB      24              0.0000000000
     41868      1284  PPPE      H14Y          -17.7497652558       18.3233372077       -3.2237134141  MEMB      24              0.0000000000
     41869      1284  PPPE      C315          -18.1680575832       17.3015472553       -1.3090138020  MEMB      24              0.0000000000
     41870      1284  PPPE      H15X          -17.2194485176       16.9851119018       -1.7763079827  MEMB      24              0.0000000000
     41871      1284  PPPE      H15Y          -18.9028420490       16.5923114527       -0.9392768839  MEMB      24              0.0000000000
     41872      1284  PPPE      C316          -17.8455010365       17.9579764478       -0.0204561621  MEMB      24              0.0000000000
     41873      1284  PPPE      H16X          -17.4584557847       17.7340407544        0.9796190456  MEMB      24              0.0000000000
     41874      1284  PPPE      H16Y          -16.8763742046       18.3576967139       -0.3808082175  MEMB      24              0.0000000000
     41875      1284  PPPE      H16Z          -18.7193617519       18.5881086458        0.2692698686  MEMB      24              0.0000000000
     41876      1285  PPPE      N             -14.3643579740      -16.5336607881      -22.0556949523  MEMB      25              0.0000000000
     41877      1285  PPPE      HN1           -15.3911149890      -16.5087759736      -21.8702963274  MEMB      25              0.0000000000
     41878      1285  PPPE      HN2           -14.0055936620      -15.5440996699      -21.9677596439  MEMB      25              0.0000000000
     41879      1285  PPPE      HN3           -14.2219262374      -16.8421171017      -23.0330008582  MEMB      25              0.0000000000
     41880      1285  PPPE      C12           -13.6568494578      -17.4114950221      -21.0568816580  MEMB      25              0.0000000000
     41881      1285  PPPE      H12A          -12.5704563376      -17.3295124891      -21.2755439174  MEMB      25              0.0000000000
     41882      1285  PPPE      H12B          -13.9973897283      -18.4589484886      -21.1993010494  MEMB      25              0.0000000000
     41883      1285  PPPE      C11           -13.8526003192      -16.9565054454      -19.5930675118  MEMB      25              0.0000000000
     41884      1285  PPPE      H11A          -13.5876332220      -15.8743946503      -19.5121245653  MEMB      25              0.0000000000
     41885      1285  PPPE      H11B          -13.1233142643      -17.5554893527      -18.9972386617  MEMB      25              0.0000000000
     41886      1285  PPPE      P             -15.7198620949      -16.3749886734      -17.8374655958  MEMB      25              0.0000000000
     41887      1285  PPPE      O13           -16.0283376806      -15.0303691727      -18.3356351640  MEMB      25              0.0000000000
     41888      1285  PPPE      O14           -16.7816883226      -17.1568032848      -17.1765898926  MEMB      25              0.0000000000
     41889      1285  PPPE      O11           -14.4493645341      -16.2368436996      -16.9071960107  MEMB      25              0.0000000000
     41890      1285  PPPE      O12           -15.1645916573      -17.2141696970      -19.0975480225  MEMB      25              0.0000000000
     41891      1285  PPPE      C1            -14.0265643426      -17.2891156161      -16.0576964237  MEMB      25              0.0000000000
     41892      1285  PPPE      HA            -12.9271709236      -17.3661888180      -16.1569334041  MEMB      25              0.0000000000
     41893      1285  PPPE      HB            -14.4793243517      -18.2711881412      -16.3222234368  MEMB      25              0.0000000000
     41894      1285  PPPE      C2            -14.3885838033      -17.0049155227      -14.5897821289  MEMB      25              0.0000000000
     41895      1285  PPPE      HS            -15.4692187913      -16.7885496610      -14.5031022846  MEMB      25              0.0000000000
     41896      1285  PPPE      O21           -13.6389744948      -15.8858024512      -14.1621675151  MEMB      25              0.0000000000
     41897      1285  PPPE      C21           -14.3144353285      -14.7562339567      -13.9002263000  MEMB      25              0.0000000000
     41898      1285  PPPE      O22           -15.5001655965      -14.5720137791      -13.9086567389  MEMB      25              0.0000000000
     41899      1285  PPPE      C22           -13.3862357059      -13.6944708484      -13.4519209538  MEMB      25              0.0000000000
     41900      1285  PPPE      H2R           -13.1563489557      -12.8232197552      -13.9726238794  MEMB      25              0.0000000000
     41901      1285  PPPE      H2S           -12.5801725823      -14.0317875682      -13.9532230743  MEMB      25              0.0000000000
     41902      1285  PPPE      C3            -14.0265169963      -18.2301358290      -13.7127886224  MEMB      25              0.0000000000
     41903      1285  PPPE      HX            -14.6595802422      -19.1165370568      -13.9305711665  MEMB      25              0.0000000000
     41904      1285  PPPE      HY            -12.9848548650      -18.4967306520      -13.9846705664  MEMB      25              0.0000000000
     41905      1285  PPPE      O31           -14.0509836029      -17.9131783858      -12.3196767389  MEMB      25              0.0000000000
     41906      1285  PPPE      C31           -15.2668541350      -17.7341858213      -11.8234393689  MEMB      25              0.0000000000
     41907      1285  PPPE      O32           -16.3067085655      -17.9556160659      -12.4010069441  MEMB      25              0.0000000000
     41908      1285  PPPE      C32           -15.1076411252      -17.2042533139      -10.4041714104  MEMB      25              0.0000000000
     41909      1285  PPPE      H2X           -14.0250502411      -16.9919849813      -10.2588247032  MEMB      25              0.0000000000
     41910      1285  PPPE      H2Y           -15.4384761837      -17.9556591392       -9.6569585408  MEMB      25              0.0000000000
     41911      1285  PPPE      C23           -13.1258626787      -13.5136515803      -11.9959793146  MEMB      25              0.0000000000
     41912      1285  PPPE      H3R           -13.2495419454      -14.6456417485      -11.7912235031  MEMB      25              0.0000000000
     41913      1285  PPPE      H3S           -13.9476897513      -13.1065793723      -11.4125155465  MEMB      25              0.0000000000
     41914      1285  PPPE      C24           -11.6849513658      -12.6993777634      -11.6501077816  MEMB      25              0.0000000000
     41915      1285  PPPE      H4R           -11.5931823345      -11.6360157357      -11.6155579975  MEMB      25              0.0000000000
     41916      1285  PPPE      H4S           -11.2520956071      -12.9749507117      -12.5781445572  MEMB      25              0.0000000000
     41917      1285  PPPE      C25           -10.4931048801      -13.0046589599      -10.3637244065  MEMB      25              0.0000000000
     41918      1285  PPPE      H5R           -11.4468686587      -12.3898134342       -9.9288569312  MEMB      25              0.0000000000
     41919      1285  PPPE      H5S            -9.5625672263      -13.1121358307      -10.1680539774  MEMB      25              0.0000000000
     41920      1285  PPPE      C26           -10.1395688102      -15.3668637590       -9.1787910800  MEMB      25              0.0000000000
     41921      1285  PPPE      H6R           -10.0309877199      -16.2191585881       -9.7969681420  MEMB      25              0.0000000000
     41922      1285  PPPE      H6S           -11.1730900464      -16.0178433085       -9.0293703804  MEMB      25              0.0000000000
     41923      1285  PPPE      C27           -10.7744994421      -15.9020538449       -7.7318073557  MEMB      25              0.0000000000
     41924      1285  PPPE      H7R           -11.8862395267      -15.7070029647       -7.3773272374  MEMB      25              0.0000000000
     41925      1285  PPPE      H7S           -10.0205059132      -15.3195034724       -7.1710062415  MEMB      25              0.0000000000
     41926      1285  PPPE      C28           -10.4596572394      -17.1782536250       -7.1583436698  MEMB      25              0.0000000000
     41927      1285  PPPE      H8R           -10.4812279549      -16.8913655753       -6.0785918620  MEMB      25              0.0000000000
     41928      1285  PPPE      H8S            -9.4668173132      -17.2980020675       -7.6513203405  MEMB      25              0.0000000000
     41929      1285  PPPE      C29           -11.5516805286      -18.0929548422       -7.5589391964  MEMB      25              0.0000000000
     41930      1285  PPPE      H91           -11.2014170341      -18.6944360427       -8.3865387855  MEMB      25              0.0000000000
     41931      1285  PPPE      C210          -12.8433493008      -18.1348886406       -7.1815186274  MEMB      25              0.0000000000
     41932      1285  PPPE      H101          -13.3743565573      -19.0377572934       -7.4629053500  MEMB      25              0.0000000000
     41933      1285  PPPE      C211          -13.6636055605      -17.3034240083       -6.2341157423  MEMB      25              0.0000000000
     41934      1285  PPPE      H11R          -14.6498941441      -17.0300423828       -6.6862351870  MEMB      25              0.0000000000
     41935      1285  PPPE      H11S          -13.1739571319      -16.3715285048       -5.8603381667  MEMB      25              0.0000000000
     41936      1285  PPPE      C212          -14.0319696991      -18.1121077137       -5.0064254994  MEMB      25              0.0000000000
     41937      1285  PPPE      H12R          -13.1183703616      -18.3454437273       -4.4101204019  MEMB      25              0.0000000000
     41938      1285  PPPE      H12S          -14.5681764180      -19.0627304808       -5.2482785323  MEMB      25              0.0000000000
     41939      1285  PPPE      C213          -14.9617695403      -17.1977046051       -4.2100312404  MEMB      25              0.0000000000
     41940      1285  PPPE      H13R          -15.9121133913      -16.9671580515       -4.7409215374  MEMB      25              0.0000000000
     41941      1285  PPPE      H13S          -14.4220105144      -16.3398710833       -3.8060885021  MEMB      25              0.0000000000
     41942      1285  PPPE      C214          -15.3376650568      -17.6975265187       -2.8452252502  MEMB      25              0.0000000000
     41943      1285  PPPE      H14R          -14.4508200458      -18.1403716496       -2.4033953824  MEMB      25              0.0000000000
     41944      1285  PPPE      H14S          -15.6304486377      -18.7163032657       -3.1553151205  MEMB      25              0.0000000000
     41945      1285  PPPE      C215          -16.2739435396      -16.6184388067       -1.7828790368  MEMB      25              0.0000000000
     41946      1285  PPPE      H15R          -16.9890583706      -16.6567310443       -2.6354833768  MEMB      25              0.0000000000
     41947      1285  PPPE      H15S          -15.5380958950      -15.9641889182       -1.8401516430  MEMB      25              0.0000000000
     41948      1285  PPPE      C216          -16.7588226308      -16.6918779505        0.0239365022  MEMB      25              0.0000000000
     41949      1285  PPPE      H16R          -15.8565020653      -17.0224913225        0.5505018608  MEMB      25              0.0000000000
     41950      1285  PPPE      H16S          -17.1911159456      -16.2874147452        0.9725617993  MEMB      25              0.0000000000
     41951      1285  PPPE      H16T          -16.1516268691      -17.4658501263        0.5645020303  MEMB      25              0.0000000000
     41952      1285  PPPE      C33           -15.8953236360      -15.9000855907      -10.2185277707  MEMB      25              0.0000000000
     41953      1285  PPPE      H3X           -16.9817833327      -16.1356284971      -10.1676179471  MEMB      25              0.0000000000
     41954      1285  PPPE      H3Y           -15.6933084762      -15.2051117557      -11.0689357526  MEMB      25              0.0000000000
     41955      1285  PPPE      C34           -15.5424269110      -15.2321978358       -8.9034298714  MEMB      25              0.0000000000
     41956      1285  PPPE      H4X           -14.4410202064      -15.2269303414       -8.7939840304  MEMB      25              0.0000000000
     41957      1285  PPPE      H4Y           -15.8865731046      -15.9024593283       -8.0924533697  MEMB      25              0.0000000000
     41958      1285  PPPE      C35           -16.1344194150      -13.8199163391       -8.7642669554  MEMB      25              0.0000000000
     41959      1285  PPPE      H5X           -17.2240944762      -13.7554709278       -8.8994374541  MEMB      25              0.0000000000
     41960      1285  PPPE      H5Y           -15.6532712957      -13.1488356952       -9.5155578060  MEMB      25              0.0000000000
     41961      1285  PPPE      C36           -15.9478381204      -13.3200421596       -7.3685072403  MEMB      25              0.0000000000
     41962      1285  PPPE      H6X           -16.2683342385      -14.0868552477       -6.6281850263  MEMB      25              0.0000000000
     41963      1285  PPPE      H6Y           -16.4510305411      -12.3532194598       -7.1299621498  MEMB      25              0.0000000000
     41964      1285  PPPE      C37           -14.5002384114      -13.1615869414       -7.1949865599  MEMB      25              0.0000000000
     41965      1285  PPPE      H7X           -14.1139719712      -12.2109169066       -7.7145221507  MEMB      25              0.0000000000
     41966      1285  PPPE      H7Y           -13.9074849809      -14.0451749050       -7.4341615141  MEMB      25              0.0000000000
     41967      1285  PPPE      C38           -14.1696506700      -13.0817321448       -5.7563626619  MEMB      25              0.0000000000
     41968      1285  PPPE      H8X           -14.8721863227      -12.2660627566       -5.8714722118  MEMB      25              0.0000000000
     41969      1285  PPPE      H8Y           -13.2300086863      -12.6815876657       -5.6751634364  MEMB      25              0.0000000000
     41970      1285  PPPE      C39           -14.4722338164      -13.9808889354       -4.5388197609  MEMB      25              0.0000000000
     41971      1285  PPPE      H9X           -13.7979912487      -14.8338689601       -4.6142147660  MEMB      25              0.0000000000
     41972      1285  PPPE      H9Y           -15.5760326784      -14.1030652795       -4.6513548701  MEMB      25              0.0000000000
     41973      1285  PPPE      C310          -14.3482195128      -13.6549204055       -2.9982313138  MEMB      25              0.0000000000
     41974      1285  PPPE      H10X          -15.3663723474      -13.8635895083       -2.7010821344  MEMB      25              0.0000000000
     41975      1285  PPPE      H10Y          -14.7877077610      -12.8783288745       -2.4852327896  MEMB      25              0.0000000000
     41976      1285  PPPE      C311          -13.1319330291      -13.1367823441       -2.1761168494  MEMB      25              0.0000000000
     41977      1285  PPPE      H11X          -13.2705295914      -12.5607345302       -1.2269758290  MEMB      25              0.0000000000
     41978      1285  PPPE      H11Y          -12.4294153944      -12.3667599389       -2.5544721756  MEMB      25              0.0000000000
     41979      1285  PPPE      C312          -12.6296522449      -14.4855945585       -1.9951185730  MEMB      25              0.0000000000
     41980      1285  PPPE      H12X          -12.5997645704      -15.0894032195       -2.9207220472  MEMB      25              0.0000000000
     41981      1285  PPPE      H12Y          -13.0776355442      -15.0222967862       -1.2754850621  MEMB      25              0.0000000000
     41982      1285  PPPE      C313          -11.6085041754      -14.5837323273       -1.0351876577  MEMB      25              0.0000000000
     41983      1285  PPPE      H13X          -11.4484561951      -14.0521371246       -0.1054211519  MEMB      25              0.0000000000
     41984      1285  PPPE      H13Y          -11.1710517867      -13.7314451120       -1.6417979804  MEMB      25              0.0000000000
     41985      1285  PPPE      C314          -11.0553529130      -16.0578359617       -0.8789879574  MEMB      25              0.0000000000
     41986      1285  PPPE      H14X          -10.1258658921      -16.1697335848       -0.2641103701  MEMB      25              0.0000000000
     41987      1285  PPPE      H14Y          -10.7853817971      -16.5745391571       -1.7865641578  MEMB      25              0.0000000000
     41988      1285  PPPE      C315          -11.7947739632      -17.1120094756       -0.3311687160  MEMB      25              0.0000000000
     41989      1285  PPPE      H15X          -11.2364542511      -18.0502286507       -0.6270576231  MEMB      25              0.0000000000
     41990      1285  PPPE      H15Y          -12.7204379547      -16.9722315804       -0.9158582499  MEMB      25              0.0000000000
     41991      1285  PPPE      C316          -11.7179550358      -16.7641713896        1.1243650639  MEMB      25              0.0000000000
     41992      1285  PPPE      H16X          -10.6887249783      -16.6008636426        1.5458031488  MEMB      25              0.0000000000
     41993      1285  PPPE      H16Y          -12.2996694720      -15.8341774059        1.3036600739  MEMB      25              0.0000000000
     41994      1285  PPPE      H16Z          -12.1439172970      -17.6487129836        1.5832257471  MEMB      25              0.0000000000
     41995      1286  PPPE      N              -7.3943158613      -22.0400702060      -21.9992473861  MEMB      26              0.0000000000
     41996      1286  PPPE      HN1            -7.6205247593      -22.0456062550      -23.0150374757  MEMB      26              0.0000000000
     41997      1286  PPPE      HN2            -6.7534221800      -21.2588432031      -21.7791606326  MEMB      26              0.0000000000
     41998      1286  PPPE      HN3            -6.9500764143      -22.9474727794      -21.7572412079  MEMB      26              0.0000000000
     41999      1286  PPPE      C12            -8.6595046087      -21.8023217298      -21.2155187931  MEMB      26              0.0000000000
     42000      1286  PPPE      H12A           -9.4234209985      -22.1679489119      -21.9044806649  MEMB      26              0.0000000000
     42001      1286  PPPE      H12B           -8.7809735116      -20.7095863441      -21.1108464229  MEMB      26              0.0000000000
     42002      1286  PPPE      C11            -8.7569201642      -22.5632868158      -19.8732806546  MEMB      26              0.0000000000
     42003      1286  PPPE      H11A           -8.7567932144      -23.6374712028      -20.1382476143  MEMB      26              0.0000000000
     42004      1286  PPPE      H11B           -9.7249846423      -22.4432446994      -19.3238411831  MEMB      26              0.0000000000
     42005      1286  PPPE      P              -7.7448824831      -21.3521657318      -17.7457779958  MEMB      26              0.0000000000
     42006      1286  PPPE      O13            -7.6180380668      -22.2050761329      -16.5417847677  MEMB      26              0.0000000000
     42007      1286  PPPE      O14            -6.7709118587      -20.2637564862      -17.9723315464  MEMB      26              0.0000000000
     42008      1286  PPPE      O11            -9.2061246937      -20.7517893868      -17.8325154996  MEMB      26              0.0000000000
     42009      1286  PPPE      O12            -7.6388898209      -22.2840858066      -19.0456093330  MEMB      26              0.0000000000
     42010      1286  PPPE      C1             -9.9204593070      -20.4266743904      -16.6385920589  MEMB      26              0.0000000000
     42011      1286  PPPE      HA             -9.8164213625      -21.1942928532      -15.8285055375  MEMB      26              0.0000000000
     42012      1286  PPPE      HB            -10.9909840207      -20.3461977388      -16.9051211901  MEMB      26              0.0000000000
     42013      1286  PPPE      C2             -9.4640217034      -19.0894449124      -16.0500260172  MEMB      26              0.0000000000
     42014      1286  PPPE      HS             -9.4505769292      -18.3372813204      -16.8891503047  MEMB      26              0.0000000000
     42015      1286  PPPE      O21            -8.1934210833      -19.3717751740      -15.4084163090  MEMB      26              0.0000000000
     42016      1286  PPPE      C21            -7.4019857279      -18.3398238704      -15.3443953732  MEMB      26              0.0000000000
     42017      1286  PPPE      O22            -7.7224545840      -17.2527093668      -15.7193223070  MEMB      26              0.0000000000
     42018      1286  PPPE      C22            -6.0227838869      -18.6741692535      -14.8453085258  MEMB      26              0.0000000000
     42019      1286  PPPE      H2R            -5.3684416693      -18.7705930048      -15.7386553206  MEMB      26              0.0000000000
     42020      1286  PPPE      H2S            -6.0900769098      -19.6264106151      -14.3027415632  MEMB      26              0.0000000000
     42021      1286  PPPE      C3            -10.4886672782      -18.6034525901      -15.0145810533  MEMB      26              0.0000000000
     42022      1286  PPPE      HX            -10.2115027001      -17.5683529589      -14.7408558784  MEMB      26              0.0000000000
     42023      1286  PPPE      HY            -11.4584717047      -18.4346322881      -15.4904630944  MEMB      26              0.0000000000
     42024      1286  PPPE      O31           -10.6697265179      -19.6031423804      -13.9589967468  MEMB      26              0.0000000000
     42025      1286  PPPE      C31           -10.5157030826      -19.0703529169      -12.7668361104  MEMB      26              0.0000000000
     42026      1286  PPPE      O32           -10.2931232381      -17.9387688670      -12.5575181961  MEMB      26              0.0000000000
     42027      1286  PPPE      C32           -10.5900076521      -19.9207628313      -11.5726353655  MEMB      26              0.0000000000
     42028      1286  PPPE      H2X           -11.0913029404      -20.8406547755      -11.8722465634  MEMB      26              0.0000000000
     42029      1286  PPPE      H2Y           -11.1903954908      -19.3981845284      -10.7814765712  MEMB      26              0.0000000000
     42030      1286  PPPE      C23            -5.4165806332      -17.6738680684      -13.8619891981  MEMB      26              0.0000000000
     42031      1286  PPPE      H3R            -5.2944236099      -16.6697257327      -14.2593346438  MEMB      26              0.0000000000
     42032      1286  PPPE      H3S            -4.3876546198      -18.0268899805      -13.7600938732  MEMB      26              0.0000000000
     42033      1286  PPPE      C24            -6.0689731039      -17.7154399350      -12.4850077666  MEMB      26              0.0000000000
     42034      1286  PPPE      H4R            -6.2129492196      -18.7830158573      -12.2166956082  MEMB      26              0.0000000000
     42035      1286  PPPE      H4S            -7.0757515066      -17.2446502767      -12.5234323595  MEMB      26              0.0000000000
     42036      1286  PPPE      C25            -5.1978829382      -17.0408034734      -11.4234087574  MEMB      26              0.0000000000
     42037      1286  PPPE      H5R            -4.9060682389      -16.0190419815      -11.7499447582  MEMB      26              0.0000000000
     42038      1286  PPPE      H5S            -4.2635154166      -17.5903146449      -11.3404902582  MEMB      26              0.0000000000
     42039      1286  PPPE      C26            -5.8169613639      -17.0357901861      -10.0282318900  MEMB      26              0.0000000000
     42040      1286  PPPE      H6R            -6.8840192504      -16.7370572954      -10.1277525444  MEMB      26              0.0000000000
     42041      1286  PPPE      H6S            -5.2820308924      -16.2716387931       -9.4187690192  MEMB      26              0.0000000000
     42042      1286  PPPE      C27            -5.7832937087      -18.4022268298       -9.3256393597  MEMB      26              0.0000000000
     42043      1286  PPPE      H7R            -4.7594672466      -18.8313252414       -9.2633591683  MEMB      26              0.0000000000
     42044      1286  PPPE      H7S            -6.4269377548      -19.1027314597       -9.8992949818  MEMB      26              0.0000000000
     42045      1286  PPPE      C28            -6.3925877353      -18.3342402666       -7.9362720979  MEMB      26              0.0000000000
     42046      1286  PPPE      H8R            -6.6178352776      -19.3512651656       -7.5491596071  MEMB      26              0.0000000000
     42047      1286  PPPE      H8S            -7.3296781747      -17.7559668538       -7.9774950162  MEMB      26              0.0000000000
     42048      1286  PPPE      C29            -5.5136262866      -17.6569444271       -6.9753218693  MEMB      26              0.0000000000
     42049      1286  PPPE      H91            -5.4889416821      -16.5545616606       -7.0026471971  MEMB      26              0.0000000000
     42050      1286  PPPE      C210           -4.5923670076      -18.2985594275       -6.2958916602  MEMB      26              0.0000000000
     42051      1286  PPPE      H101           -4.0848360715      -17.6290263854       -5.5944310196  MEMB      26              0.0000000000
     42052      1286  PPPE      C211           -4.1702691561      -19.7684587978       -6.2935384520  MEMB      26              0.0000000000
     42053      1286  PPPE      H11R           -3.0789127966      -19.9722058570       -6.4649512468  MEMB      26              0.0000000000
     42054      1286  PPPE      H11S           -4.5644992652      -20.3295166573       -7.1370809941  MEMB      26              0.0000000000
     42055      1286  PPPE      C212           -4.5905182449      -20.3774954454       -4.9774146828  MEMB      26              0.0000000000
     42056      1286  PPPE      H12R           -4.5675443802      -21.4851933003       -4.9875748102  MEMB      26              0.0000000000
     42057      1286  PPPE      H12S           -5.5724948249      -19.9530014214       -4.6698141417  MEMB      26              0.0000000000
     42058      1286  PPPE      C213           -3.6806387482      -20.1844438811       -3.8461125646  MEMB      26              0.0000000000
     42059      1286  PPPE      H13R           -3.7101959627      -19.0927137150       -3.5564822123  MEMB      26              0.0000000000
     42060      1286  PPPE      H13S           -2.6318624071      -20.5336805134       -4.0459196615  MEMB      26              0.0000000000
     42061      1286  PPPE      C214           -4.1485753771      -21.0526086623       -2.7188778909  MEMB      26              0.0000000000
     42062      1286  PPPE      H14R           -4.2433604542      -22.1396634518       -2.8102223043  MEMB      26              0.0000000000
     42063      1286  PPPE      H14S           -5.0628726019      -20.5504056850       -2.3107840084  MEMB      26              0.0000000000
     42064      1286  PPPE      C215           -3.1085873815      -21.2128650010       -1.7139466229  MEMB      26              0.0000000000
     42065      1286  PPPE      H15R           -3.1422785764      -20.0719796160       -1.8742132559  MEMB      26              0.0000000000
     42066      1286  PPPE      H15S           -2.0595966437      -20.9775683952       -1.6096612680  MEMB      26              0.0000000000
     42067      1286  PPPE      C216           -3.6657126632      -22.0556163158       -0.4606333782  MEMB      26              0.0000000000
     42068      1286  PPPE      H16R           -2.9792718601      -21.8079194598        0.3837344616  MEMB      26              0.0000000000
     42069      1286  PPPE      H16S           -4.6300478685      -21.6925321632       -0.0089156318  MEMB      26              0.0000000000
     42070      1286  PPPE      H16T           -3.2818616478      -22.9849001562       -0.0823722576  MEMB      26              0.0000000000
     42071      1286  PPPE      C33            -9.1221136459      -20.0113011364      -11.1134884690  MEMB      26              0.0000000000
     42072      1286  PPPE      H3X            -8.8181911964      -19.0588849301      -10.6135157889  MEMB      26              0.0000000000
     42073      1286  PPPE      H3Y            -8.4438363956      -20.0947581276      -12.0027371353  MEMB      26              0.0000000000
     42074      1286  PPPE      C34            -8.9437346469      -21.1901347170      -10.1585624068  MEMB      26              0.0000000000
     42075      1286  PPPE      H4X            -7.8637333179      -21.4315657683      -10.0695709733  MEMB      26              0.0000000000
     42076      1286  PPPE      H4Y            -9.4616100860      -22.0579365708      -10.6245162316  MEMB      26              0.0000000000
     42077      1286  PPPE      C35            -9.5081804043      -20.8886647216       -8.7584432065  MEMB      26              0.0000000000
     42078      1286  PPPE      H5X           -10.4836946008      -20.3760548333       -8.8762617329  MEMB      26              0.0000000000
     42079      1286  PPPE      H5Y            -8.8257571141      -20.1827317305       -8.2339192654  MEMB      26              0.0000000000
     42080      1286  PPPE      C36            -9.7821951595      -22.0867318735       -7.8377828400  MEMB      26              0.0000000000
     42081      1286  PPPE      H6X           -10.3943563628      -22.8734866518       -8.3284774642  MEMB      26              0.0000000000
     42082      1286  PPPE      H6Y           -10.3922012200      -21.6786159944       -6.9940067969  MEMB      26              0.0000000000
     42083      1286  PPPE      C37            -8.5369367353      -22.7279655838       -7.2156481345  MEMB      26              0.0000000000
     42084      1286  PPPE      H7X            -7.6398448842      -22.1037296061       -7.4197603940  MEMB      26              0.0000000000
     42085      1286  PPPE      H7Y            -8.3669565534      -23.7042734740       -7.7248362736  MEMB      26              0.0000000000
     42086      1286  PPPE      C38            -8.7288685626      -22.9491464653       -5.7034829771  MEMB      26              0.0000000000
     42087      1286  PPPE      H8X            -8.2420624925      -23.8981514064       -5.3971350031  MEMB      26              0.0000000000
     42088      1286  PPPE      H8Y            -9.8134260209      -23.0786596884       -5.4816038191  MEMB      26              0.0000000000
     42089      1286  PPPE      C39            -8.2317275679      -21.7960669787       -4.8176285363  MEMB      26              0.0000000000
     42090      1286  PPPE      H9X            -8.6969690651      -20.8546995458       -5.1932026664  MEMB      26              0.0000000000
     42091      1286  PPPE      H9Y            -7.1372144598      -21.6430830199       -4.9479431401  MEMB      26              0.0000000000
     42092      1286  PPPE      C310           -8.6137552551      -22.0748909201       -3.3405147296  MEMB      26              0.0000000000
     42093      1286  PPPE      H10X           -8.3434879109      -23.1036338118       -3.0494162963  MEMB      26              0.0000000000
     42094      1286  PPPE      H10Y           -9.7109664277      -21.9673866726       -3.2114280355  MEMB      26              0.0000000000
     42095      1286  PPPE      C311           -7.9813170830      -21.1675677521       -2.3168042846  MEMB      26              0.0000000000
     42096      1286  PPPE      H11X           -6.8885140840      -21.3753313002       -2.2496837526  MEMB      26              0.0000000000
     42097      1286  PPPE      H11Y           -8.3540077703      -21.3849350400       -1.2818502918  MEMB      26              0.0000000000
     42098      1286  PPPE      C312           -8.3247540152      -19.7419119529       -2.7620652865  MEMB      26              0.0000000000
     42099      1286  PPPE      H12X           -9.3423100493      -19.4086505267       -2.4712949673  MEMB      26              0.0000000000
     42100      1286  PPPE      H12Y           -7.9720423834      -19.4894951132       -3.7815188663  MEMB      26              0.0000000000
     42101      1286  PPPE      C313           -7.5559067420      -18.8073790230       -2.0145462936  MEMB      26              0.0000000000
     42102      1286  PPPE      H13X           -6.5094434702      -18.7033479715       -2.4001036333  MEMB      26              0.0000000000
     42103      1286  PPPE      H13Y           -7.4883458144      -19.4580799966       -1.0960268162  MEMB      26              0.0000000000
     42104      1286  PPPE      C314           -8.0911453463      -17.3368850851       -1.6746977257  MEMB      26              0.0000000000
     42105      1286  PPPE      H14X           -9.1091095001      -17.5008628698       -1.3434903813  MEMB      26              0.0000000000
     42106      1286  PPPE      H14Y           -7.7214483976      -16.8397006115       -2.5773437840  MEMB      26              0.0000000000
     42107      1286  PPPE      C315           -7.6904963313      -16.2782452859       -0.5424811138  MEMB      26              0.0000000000
     42108      1286  PPPE      H15X           -6.6727517622      -16.3312264882       -0.8115180432  MEMB      26              0.0000000000
     42109      1286  PPPE      H15Y           -7.9381357922      -16.4057607697        0.5566148184  MEMB      26              0.0000000000
     42110      1286  PPPE      C316           -7.0604252221      -15.0195639728       -0.6080404849  MEMB      26              0.0000000000
     42111      1286  PPPE      H16X           -6.5335425053      -14.3672058156        0.1066922973  MEMB      26              0.0000000000
     42112      1286  PPPE      H16Y           -6.8213254881      -14.8943083667       -1.6911802357  MEMB      26              0.0000000000
     42113      1286  PPPE      H16Z           -7.9760053422      -14.8236958154       -0.1608812722  MEMB      26              0.0000000000
     42114      1287  PPPE      N              14.4757635059       18.7372615876      -21.2499331618  MEMB      27              0.0000000000
     42115      1287  PPPE      HN1            14.7712756033       19.7317226376      -21.3511671958  MEMB      27              0.0000000000
     42116      1287  PPPE      HN2            14.8188998819       18.1578549882      -22.0470896687  MEMB      27              0.0000000000
     42117      1287  PPPE      HN3            13.4360975436       18.7224690303      -21.1618621185  MEMB      27              0.0000000000
     42118      1287  PPPE      C12            15.0362967770       18.3212705510      -19.9133039034  MEMB      27              0.0000000000
     42119      1287  PPPE      H12A           16.1040141675       18.0692044228      -20.0601439997  MEMB      27              0.0000000000
     42120      1287  PPPE      H12B           14.4743726259       17.4218877084      -19.5878878160  MEMB      27              0.0000000000
     42121      1287  PPPE      C11            14.9157214189       19.4493898551      -18.8633365334  MEMB      27              0.0000000000
     42122      1287  PPPE      H11A           15.8114917230       20.1091272432      -18.8731424504  MEMB      27              0.0000000000
     42123      1287  PPPE      H11B           14.9184778489       18.9907094844      -17.8470147498  MEMB      27              0.0000000000
     42124      1287  PPPE      P              12.3844656674       19.7781960241      -18.4526984905  MEMB      27              0.0000000000
     42125      1287  PPPE      O13            11.3399301827       20.6541785008      -18.9794532406  MEMB      27              0.0000000000
     42126      1287  PPPE      O14            12.2394538657       18.3269026421      -18.7242472888  MEMB      27              0.0000000000
     42127      1287  PPPE      O11            12.5864359068       20.0575638816      -16.9093217225  MEMB      27              0.0000000000
     42128      1287  PPPE      O12            13.7601943845       20.2501488769      -19.0939912296  MEMB      27              0.0000000000
     42129      1287  PPPE      C1             12.6214963504       21.4176926154      -16.4723833750  MEMB      27              0.0000000000
     42130      1287  PPPE      HA             11.5911116165       21.8423551240      -16.4187110320  MEMB      27              0.0000000000
     42131      1287  PPPE      HB             13.2320088335       22.0571002345      -17.1582628193  MEMB      27              0.0000000000
     42132      1287  PPPE      C2             13.2696322103       21.4655903179      -15.0800199477  MEMB      27              0.0000000000
     42133      1287  PPPE      HS             14.2101338023       20.8663555615      -15.1704176030  MEMB      27              0.0000000000
     42134      1287  PPPE      O21            12.3355762154       20.9618533489      -14.1042874977  MEMB      27              0.0000000000
     42135      1287  PPPE      C21            12.7555247622       19.9387244034      -13.4008518892  MEMB      27              0.0000000000
     42136      1287  PPPE      O22            13.8290835784       19.3740698782      -13.4978358505  MEMB      27              0.0000000000
     42137      1287  PPPE      C22            11.6652396968       19.5879278090      -12.3790179110  MEMB      27              0.0000000000
     42138      1287  PPPE      H2R            10.8779482635       19.0512907668      -12.9480750031  MEMB      27              0.0000000000
     42139      1287  PPPE      H2S            11.2066093363       20.5072620446      -11.9631294135  MEMB      27              0.0000000000
     42140      1287  PPPE      C3             13.6069154339       22.9219203269      -14.6996292413  MEMB      27              0.0000000000
     42141      1287  PPPE      HX             14.2116411465       23.4307999130      -15.4723873773  MEMB      27              0.0000000000
     42142      1287  PPPE      HY             12.6412265246       23.4743747956      -14.6493727545  MEMB      27              0.0000000000
     42143      1287  PPPE      O31            14.2075574998       23.0331489031      -13.4198777743  MEMB      27              0.0000000000
     42144      1287  PPPE      C31            15.3459305963       22.4197017464      -13.1381570094  MEMB      27              0.0000000000
     42145      1287  PPPE      O32            16.0822737143       21.7986640024      -13.8720695535  MEMB      27              0.0000000000
     42146      1287  PPPE      C32            15.6675130119       22.8908740442      -11.7399683686  MEMB      27              0.0000000000
     42147      1287  PPPE      H2X            14.8755575867       22.6341702151      -11.0217099264  MEMB      27              0.0000000000
     42148      1287  PPPE      H2Y            15.5269338259       23.9594979151      -11.9855123452  MEMB      27              0.0000000000
     42149      1287  PPPE      C23            12.2112380462       18.6666724587      -11.2673635984  MEMB      27              0.0000000000
     42150      1287  PPPE      H3R            12.9990118435       18.0052184322      -11.6933813279  MEMB      27              0.0000000000
     42151      1287  PPPE      H3S            11.3877004209       18.0021375599      -10.9172900180  MEMB      27              0.0000000000
     42152      1287  PPPE      C24            12.7841446652       19.4113267946      -10.0538136113  MEMB      27              0.0000000000
     42153      1287  PPPE      H4R            11.9727259738       20.0260655017       -9.6003440428  MEMB      27              0.0000000000
     42154      1287  PPPE      H4S            13.6059128973       20.1008060612      -10.3565437545  MEMB      27              0.0000000000
     42155      1287  PPPE      C25            13.3290204297       18.4251858197       -9.0072082526  MEMB      27              0.0000000000
     42156      1287  PPPE      H5R            14.1774090164       17.8361700732       -9.4310462032  MEMB      27              0.0000000000
     42157      1287  PPPE      H5S            12.5126297063       17.7285312977       -8.7274036925  MEMB      27              0.0000000000
     42158      1287  PPPE      C26            13.9091945698       19.1191460516       -7.7767872895  MEMB      27              0.0000000000
     42159      1287  PPPE      H6R            14.6241835620       19.8567511564       -8.1987291998  MEMB      27              0.0000000000
     42160      1287  PPPE      H6S            14.4992171294       18.3944705265       -7.1735777142  MEMB      27              0.0000000000
     42161      1287  PPPE      C27            12.8663774262       19.8097271161       -6.8886821567  MEMB      27              0.0000000000
     42162      1287  PPPE      H7R            12.6752955904       19.1894762890       -5.9840868439  MEMB      27              0.0000000000
     42163      1287  PPPE      H7S            11.8941901459       19.8387636011       -7.4339825076  MEMB      27              0.0000000000
     42164      1287  PPPE      C28            13.2734936838       21.2557438968       -6.5319190902  MEMB      27              0.0000000000
     42165      1287  PPPE      H8R            13.3676450872       21.8067661414       -7.4950435690  MEMB      27              0.0000000000
     42166      1287  PPPE      H8S            14.2768781171       21.2936085071       -6.0552124472  MEMB      27              0.0000000000
     42167      1287  PPPE      C29            12.1923817429       21.8510260890       -5.6645207649  MEMB      27              0.0000000000
     42168      1287  PPPE      H91            11.1931723229       21.4967015291       -5.9565607568  MEMB      27              0.0000000000
     42169      1287  PPPE      C210           12.3046099937       22.7358915025       -4.6497750025  MEMB      27              0.0000000000
     42170      1287  PPPE      H101           11.4036393690       23.0456896598       -4.0971920031  MEMB      27              0.0000000000
     42171      1287  PPPE      C211           13.5612168356       23.3709687039       -4.1200809961  MEMB      27              0.0000000000
     42172      1287  PPPE      H11R           13.3614248373       24.4269918907       -3.8323155150  MEMB      27              0.0000000000
     42173      1287  PPPE      H11S           14.3365669829       23.4008590040       -4.9183113420  MEMB      27              0.0000000000
     42174      1287  PPPE      C212           14.1967333716       22.6467121172       -2.9196396643  MEMB      27              0.0000000000
     42175      1287  PPPE      H12R           15.0325561352       23.2826215942       -2.5457062153  MEMB      27              0.0000000000
     42176      1287  PPPE      H12S           14.6057600981       21.6842714424       -3.2966152062  MEMB      27              0.0000000000
     42177      1287  PPPE      C213           13.3172595408       22.3681058693       -1.6951627772  MEMB      27              0.0000000000
     42178      1287  PPPE      H13R           13.9613949130       21.8836078970       -0.9294717138  MEMB      27              0.0000000000
     42179      1287  PPPE      H13S           12.4599673360       21.7120517091       -1.9428265484  MEMB      27              0.0000000000
     42180      1287  PPPE      C214           12.7710754410       23.6143495754       -1.0714690729  MEMB      27              0.0000000000
     42181      1287  PPPE      H14R           11.9274204476       23.9491698560       -1.7283133592  MEMB      27              0.0000000000
     42182      1287  PPPE      H14S           13.6062192223       24.3576291892       -1.1078051910  MEMB      27              0.0000000000
     42183      1287  PPPE      C215           12.2577550456       23.4507885253        0.3711727640  MEMB      27              0.0000000000
     42184      1287  PPPE      H15R           11.7741103999       22.4698112862        0.3928849034  MEMB      27              0.0000000000
     42185      1287  PPPE      H15S           11.4215043323       24.1632750965        0.5758979970  MEMB      27              0.0000000000
     42186      1287  PPPE      C216           13.3579146546       23.5294371975        1.4545156557  MEMB      27              0.0000000000
     42187      1287  PPPE      H16R           13.8492801773       22.5544314132        1.5034948129  MEMB      27              0.0000000000
     42188      1287  PPPE      H16S           14.1816855871       24.2042457438        1.1642571236  MEMB      27              0.0000000000
     42189      1287  PPPE      H16T           13.0125666451       23.8703680159        2.4603706320  MEMB      27              0.0000000000
     42190      1287  PPPE      C33            17.0550780620       22.4527705378      -11.1804272420  MEMB      27              0.0000000000
     42191      1287  PPPE      H3X            17.8639936499       22.9012835606      -11.8030587626  MEMB      27              0.0000000000
     42192      1287  PPPE      H3Y            17.0494926482       21.3486512160      -11.3021276200  MEMB      27              0.0000000000
     42193      1287  PPPE      C34            17.3727080548       22.7402035140       -9.6820079498  MEMB      27              0.0000000000
     42194      1287  PPPE      H4X            16.8530154239       23.6319174303       -9.3347131666  MEMB      27              0.0000000000
     42195      1287  PPPE      H4Y            18.4495410115       22.9843546899       -9.5437617000  MEMB      27              0.0000000000
     42196      1287  PPPE      C35            16.9498266179       21.6315382537       -8.7178402051  MEMB      27              0.0000000000
     42197      1287  PPPE      H5X            17.6239539798       20.7596708935       -8.8596230399  MEMB      27              0.0000000000
     42198      1287  PPPE      H5Y            15.9231373343       21.3164099743       -8.9867786220  MEMB      27              0.0000000000
     42199      1287  PPPE      C36            16.9290070728       22.0208519550       -7.2311427078  MEMB      27              0.0000000000
     42200      1287  PPPE      H6X            16.4144194064       21.1825336938       -6.7114125837  MEMB      27              0.0000000000
     42201      1287  PPPE      H6Y            16.3040886914       22.9083832078       -6.9995602461  MEMB      27              0.0000000000
     42202      1287  PPPE      C37            18.3457759320       22.1490829720       -6.6746033079  MEMB      27              0.0000000000
     42203      1287  PPPE      H7X            18.8503392640       23.0852915525       -7.0004427242  MEMB      27              0.0000000000
     42204      1287  PPPE      H7Y            18.9384037451       21.3168293119       -7.1200096132  MEMB      27              0.0000000000
     42205      1287  PPPE      C38            18.3858573304       21.9818593744       -5.1560019829  MEMB      27              0.0000000000
     42206      1287  PPPE      H8X            17.9192732994       22.8409202446       -4.6284590340  MEMB      27              0.0000000000
     42207      1287  PPPE      H8Y            19.4624335906       21.9882303095       -4.8767666101  MEMB      27              0.0000000000
     42208      1287  PPPE      C39            17.6993513725       20.6858929125       -4.6895673872  MEMB      27              0.0000000000
     42209      1287  PPPE      H9X            17.8229201817       19.8757087635       -5.4488275875  MEMB      27              0.0000000000
     42210      1287  PPPE      H9Y            16.6059896243       20.8016832933       -4.5710282052  MEMB      27              0.0000000000
     42211      1287  PPPE      C310           18.2651233407       20.2034520159       -3.3746242906  MEMB      27              0.0000000000
     42212      1287  PPPE      H10X           18.7812847267       21.0379732203       -2.8354549595  MEMB      27              0.0000000000
     42213      1287  PPPE      H10Y           18.9998482237       19.4659961963       -3.7546754719  MEMB      27              0.0000000000
     42214      1287  PPPE      C311           17.2626208307       19.5596044328       -2.4063460666  MEMB      27              0.0000000000
     42215      1287  PPPE      H11X           16.4782990153       20.3202454276       -2.1935382930  MEMB      27              0.0000000000
     42216      1287  PPPE      H11Y           17.7866735836       19.3091153441       -1.4563231838  MEMB      27              0.0000000000
     42217      1287  PPPE      C312           16.5325891448       18.3264219499       -2.9607715878  MEMB      27              0.0000000000
     42218      1287  PPPE      H12X           17.2176619907       17.7699738195       -3.6335246231  MEMB      27              0.0000000000
     42219      1287  PPPE      H12Y           15.7055461109       18.7320324937       -3.5874650211  MEMB      27              0.0000000000
     42220      1287  PPPE      C313           15.9712631337       17.3535197672       -1.8955080588  MEMB      27              0.0000000000
     42221      1287  PPPE      H13X           16.8098328137       16.8956592109       -1.3230177931  MEMB      27              0.0000000000
     42222      1287  PPPE      H13Y           15.4476151280       16.5171479885       -2.4199385107  MEMB      27              0.0000000000
     42223      1287  PPPE      C314           15.0012235971       18.0474796053       -0.9222358173  MEMB      27              0.0000000000
     42224      1287  PPPE      H14X           14.2205371666       18.5619183190       -1.5295827862  MEMB      27              0.0000000000
     42225      1287  PPPE      H14Y           15.5145122022       18.8055355569       -0.3025922111  MEMB      27              0.0000000000
     42226      1287  PPPE      C315           14.3033514156       17.1290101790        0.0670660802  MEMB      27              0.0000000000
     42227      1287  PPPE      H15X           14.9939721527       16.6204864301        0.7769240651  MEMB      27              0.0000000000
     42228      1287  PPPE      H15Y           13.8748010980       16.3539490898       -0.6063309714  MEMB      27              0.0000000000
     42229      1287  PPPE      C316           13.2376431930       17.8516152456        0.9076289532  MEMB      27              0.0000000000
     42230      1287  PPPE      H16X           13.6346893115       18.7754147641        1.3577124239  MEMB      27              0.0000000000
     42231      1287  PPPE      H16Y           12.3530418283       18.0797267012        0.2678141359  MEMB      27              0.0000000000
     42232      1287  PPPE      H16Z           12.8760873669       17.2068293077        1.7451270044  MEMB      27              0.0000000000
     42233      1288  PPPE      N             -21.9805534118      -12.6310983193      -21.6349138965  MEMB      28              0.0000000000
     42234      1288  PPPE      HN1           -22.5502217278      -12.3349173573      -22.4525646891  MEMB      28              0.0000000000
     42235      1288  PPPE      HN2           -21.2716282479      -13.3340780128      -21.9097713019  MEMB      28              0.0000000000
     42236      1288  PPPE      HN3           -22.5590529342      -12.9510430773      -20.8277321832  MEMB      28              0.0000000000
     42237      1288  PPPE      C12           -21.2564998795      -11.3958080337      -21.2174287132  MEMB      28              0.0000000000
     42238      1288  PPPE      H12A          -21.0582977990      -10.8154707865      -22.1281602608  MEMB      28              0.0000000000
     42239      1288  PPPE      H12B          -20.3311946345      -11.7523134044      -20.7446280346  MEMB      28              0.0000000000
     42240      1288  PPPE      C11           -22.0034010399      -10.5426590094      -20.2025114221  MEMB      28              0.0000000000
     42241      1288  PPPE      H11A          -23.0029052100      -10.2721467118      -20.6150076650  MEMB      28              0.0000000000
     42242      1288  PPPE      H11B          -21.4351746471       -9.5801011093      -20.0716706973  MEMB      28              0.0000000000
     42243      1288  PPPE      P             -21.0649419186      -11.1139042410      -17.8149347811  MEMB      28              0.0000000000
     42244      1288  PPPE      O13           -20.1047376333      -12.2092263797      -17.9386733419  MEMB      28              0.0000000000
     42245      1288  PPPE      O14           -20.6133727553       -9.7146314742      -17.8836970302  MEMB      28              0.0000000000
     42246      1288  PPPE      O11           -21.9648224550      -11.4502172284      -16.5974825954  MEMB      28              0.0000000000
     42247      1288  PPPE      O12           -22.1306167623      -11.2950372482      -18.9936830497  MEMB      28              0.0000000000
     42248      1288  PPPE      C1            -23.0629630203      -10.6490412812      -16.3494009776  MEMB      28              0.0000000000
     42249      1288  PPPE      HA            -23.9187282981      -11.2811831185      -16.0255412162  MEMB      28              0.0000000000
     42250      1288  PPPE      HB            -23.4418168937      -10.0508346119      -17.2253822859  MEMB      28              0.0000000000
     42251      1288  PPPE      C2            -22.7376223580       -9.7752634040      -15.1251231454  MEMB      28              0.0000000000
     42252      1288  PPPE      HS            -22.1444745256       -8.8969996279      -15.5692300446  MEMB      28              0.0000000000
     42253      1288  PPPE      O21           -22.2132307101      -10.3435481852      -14.0003234210  MEMB      28              0.0000000000
     42254      1288  PPPE      C21           -21.0305116550      -10.4559161121      -13.8463047071  MEMB      28              0.0000000000
     42255      1288  PPPE      O22           -20.1289512705      -10.0389234742      -14.5097753036  MEMB      28              0.0000000000
     42256      1288  PPPE      C22           -20.9248864499      -11.1914470523      -12.5454031977  MEMB      28              0.0000000000
     42257      1288  PPPE      H2R           -21.6374722818      -12.0365020152      -12.6631746113  MEMB      28              0.0000000000
     42258      1288  PPPE      H2S           -21.2694064764      -10.5076170662      -11.7425244025  MEMB      28              0.0000000000
     42259      1288  PPPE      C3            -23.8903619741       -9.2558974162      -14.5402256172  MEMB      28              0.0000000000
     42260      1288  PPPE      HX            -23.7559746297       -8.3762398145      -13.9202085775  MEMB      28              0.0000000000
     42261      1288  PPPE      HY            -24.2910050022       -9.2459155295      -15.5393197687  MEMB      28              0.0000000000
     42262      1288  PPPE      O31           -24.7151135069      -10.1485119616      -13.9198729475  MEMB      28              0.0000000000
     42263      1288  PPPE      C31           -25.5995967246       -9.5772083493      -13.1872853616  MEMB      28              0.0000000000
     42264      1288  PPPE      O32           -25.7373761584       -8.3719500046      -13.0007485526  MEMB      28              0.0000000000
     42265      1288  PPPE      C32           -26.2734940266      -10.7547935619      -12.6384609822  MEMB      28              0.0000000000
     42266      1288  PPPE      H2X           -27.1641354572      -10.9581253886      -12.1558800523  MEMB      28              0.0000000000
     42267      1288  PPPE      H2Y           -26.2606044449      -10.4828064832      -11.6143173639  MEMB      28              0.0000000000
     42268      1288  PPPE      C23           -19.4951361190      -11.6589813084      -12.2957782249  MEMB      28              0.0000000000
     42269      1288  PPPE      H3R           -18.7877589446      -10.8057497411      -12.4493721283  MEMB      28              0.0000000000
     42270      1288  PPPE      H3S           -19.2556815240      -12.4273736637      -13.0601022055  MEMB      28              0.0000000000
     42271      1288  PPPE      C24           -19.2670677179      -12.1451728110      -10.8596166174  MEMB      28              0.0000000000
     42272      1288  PPPE      H4R           -19.4394799602      -11.2469382163      -10.2195588760  MEMB      28              0.0000000000
     42273      1288  PPPE      H4S           -18.1968702360      -12.4158774170      -10.7329225782  MEMB      28              0.0000000000
     42274      1288  PPPE      C25           -20.1701618427      -13.2809840816      -10.3403359973  MEMB      28              0.0000000000
     42275      1288  PPPE      H5R           -19.8947179152      -14.2881831766      -10.7328806042  MEMB      28              0.0000000000
     42276      1288  PPPE      H5S           -21.2161277228      -13.1027802855      -10.6705129137  MEMB      28              0.0000000000
     42277      1288  PPPE      C26           -20.1812062166      -13.2427890428       -8.8025861725  MEMB      28              0.0000000000
     42278      1288  PPPE      H6R           -20.1663075275      -12.2022151313       -8.4448217563  MEMB      28              0.0000000000
     42279      1288  PPPE      H6S           -19.2895447533      -13.7786755307       -8.3838848346  MEMB      28              0.0000000000
     42280      1288  PPPE      C27           -21.5542465050      -13.5347084025       -8.1702523805  MEMB      28              0.0000000000
     42281      1288  PPPE      H7R           -21.9223433635      -14.3097799195       -8.8024072726  MEMB      28              0.0000000000
     42282      1288  PPPE      H7S           -22.4009573087      -12.9430512059       -8.4486638372  MEMB      28              0.0000000000
     42283      1288  PPPE      C28           -21.5425218584      -13.6934920000       -6.6250430526  MEMB      28              0.0000000000
     42284      1288  PPPE      H8R           -21.0886783404      -12.8706335733       -6.0695997571  MEMB      28              0.0000000000
     42285      1288  PPPE      H8S           -20.5577112245      -14.2168369620       -6.8172650353  MEMB      28              0.0000000000
     42286      1288  PPPE      C29           -22.8267323985      -14.2954259886       -5.8658545594  MEMB      28              0.0000000000
     42287      1288  PPPE      H91           -23.4428817308      -15.1419919152       -6.1688915548  MEMB      28              0.0000000000
     42288      1288  PPPE      C210          -23.3173082136      -14.3570988099       -4.6908741659  MEMB      28              0.0000000000
     42289      1288  PPPE      H101          -23.6298158376      -15.3786111553       -4.2917822806  MEMB      28              0.0000000000
     42290      1288  PPPE      C211          -22.4831863648      -13.6961070858       -3.7970230372  MEMB      28              0.0000000000
     42291      1288  PPPE      H11R          -21.4409574175      -13.4101776255       -4.1329891476  MEMB      28              0.0000000000
     42292      1288  PPPE      H11S          -22.5188821145      -14.5108177383       -3.0620322143  MEMB      28              0.0000000000
     42293      1288  PPPE      C212          -23.2076720478      -12.7695616856       -2.9991265210  MEMB      28              0.0000000000
     42294      1288  PPPE      H12R          -23.6060628930      -12.1450861411       -3.8219620447  MEMB      28              0.0000000000
     42295      1288  PPPE      H12S          -22.4854588967      -12.2118055962       -2.3740619486  MEMB      28              0.0000000000
     42296      1288  PPPE      C213          -24.2008234993      -13.5932798023       -2.1607905765  MEMB      28              0.0000000000
     42297      1288  PPPE      H13R          -24.7325744978      -14.3854923798       -2.7476537203  MEMB      28              0.0000000000
     42298      1288  PPPE      H13S          -24.9048239075      -12.8134169114       -1.8841162371  MEMB      28              0.0000000000
     42299      1288  PPPE      C214          -23.6472746205      -14.3028703152       -0.9172213348  MEMB      28              0.0000000000
     42300      1288  PPPE      H14R          -22.8707083529      -13.7223320080       -0.3922882581  MEMB      28              0.0000000000
     42301      1288  PPPE      H14S          -23.3014049856      -15.3103315265       -1.1752767006  MEMB      28              0.0000000000
     42302      1288  PPPE      C215          -24.7159501288      -14.6506759165        0.0549087573  MEMB      28              0.0000000000
     42303      1288  PPPE      H15R          -25.1394500612      -13.6699896001        0.3460309529  MEMB      28              0.0000000000
     42304      1288  PPPE      H15S          -24.2832900428      -15.1727438633        0.9444138111  MEMB      28              0.0000000000
     42305      1288  PPPE      C216          -25.7556309829      -15.5096588905       -0.6213282733  MEMB      28              0.0000000000
     42306      1288  PPPE      H16R          -26.2271973068      -15.0397088432       -1.5050279244  MEMB      28              0.0000000000
     42307      1288  PPPE      H16S          -25.3514655702      -16.5004603811       -0.9279253617  MEMB      28              0.0000000000
     42308      1288  PPPE      H16T          -26.5603990125      -15.5909539930        0.1223108315  MEMB      28              0.0000000000
     42309      1288  PPPE      C33           -25.6116405453      -12.0488370027      -12.8459004291  MEMB      28              0.0000000000
     42310      1288  PPPE      H3X           -24.5613496710      -11.9376635329      -12.5768162697  MEMB      28              0.0000000000
     42311      1288  PPPE      H3Y           -25.7299837473      -12.3952439820      -13.9172016345  MEMB      28              0.0000000000
     42312      1288  PPPE      C34           -26.2877771123      -12.9745705541      -11.8860494111  MEMB      28              0.0000000000
     42313      1288  PPPE      H4X           -25.7370641002      -13.9115724745      -12.0843824688  MEMB      28              0.0000000000
     42314      1288  PPPE      H4Y           -27.3467666122      -12.8770403067      -12.2227645953  MEMB      28              0.0000000000
     42315      1288  PPPE      C35           -26.7109237880      -12.7740318085      -10.4631469003  MEMB      28              0.0000000000
     42316      1288  PPPE      H5X           -27.1836196688      -13.6549110518       -9.9851744153  MEMB      28              0.0000000000
     42317      1288  PPPE      H5Y           -27.5572416608      -12.0721665066      -10.4349307456  MEMB      28              0.0000000000
     42318      1288  PPPE      C36           -25.5020514647      -12.3435238791       -9.7413592838  MEMB      28              0.0000000000
     42319      1288  PPPE      H6X           -25.1145001307      -11.4175613455      -10.2265171567  MEMB      28              0.0000000000
     42320      1288  PPPE      H6Y           -24.7604733228      -13.1573581101       -9.9059134208  MEMB      28              0.0000000000
     42321      1288  PPPE      C37           -25.8218529642      -12.1804262570       -8.2784834469  MEMB      28              0.0000000000
     42322      1288  PPPE      H7X           -24.8547106956      -11.9643687302       -7.7872065492  MEMB      28              0.0000000000
     42323      1288  PPPE      H7Y           -26.2797228922      -13.0906176985       -7.8502473136  MEMB      28              0.0000000000
     42324      1288  PPPE      C38           -26.8333473223      -11.0979802209       -7.9830813649  MEMB      28              0.0000000000
     42325      1288  PPPE      H8X           -27.7433044830      -11.1896256556       -8.6287744325  MEMB      28              0.0000000000
     42326      1288  PPPE      H8Y           -26.2730521265      -10.1839679755       -8.1825520701  MEMB      28              0.0000000000
     42327      1288  PPPE      C39           -27.2672828165      -10.9112563926       -6.5572939226  MEMB      28              0.0000000000
     42328      1288  PPPE      H9X           -27.8036710485      -11.8533413569       -6.3707742958  MEMB      28              0.0000000000
     42329      1288  PPPE      H9Y           -27.9810209634      -10.0503304752       -6.4792535321  MEMB      28              0.0000000000
     42330      1288  PPPE      C310          -26.0872606173      -10.8528750979       -5.5770379692  MEMB      28              0.0000000000
     42331      1288  PPPE      H10X          -25.2950783981      -11.5799205145       -5.8453404266  MEMB      28              0.0000000000
     42332      1288  PPPE      H10Y          -26.4354825294      -10.8248388642       -4.5377135342  MEMB      28              0.0000000000
     42333      1288  PPPE      C311          -25.2835863059       -9.6207591709       -5.5897177168  MEMB      28              0.0000000000
     42334      1288  PPPE      H11X          -25.9898463490       -8.8265322478       -5.3168825747  MEMB      28              0.0000000000
     42335      1288  PPPE      H11Y          -24.9149057662       -9.7013462807       -6.6419243223  MEMB      28              0.0000000000
     42336      1288  PPPE      C312          -23.9935392973       -9.3973833737       -4.8161830148  MEMB      28              0.0000000000
     42337      1288  PPPE      H12X          -23.4806014627       -8.4926115049       -5.1699585050  MEMB      28              0.0000000000
     42338      1288  PPPE      H12Y          -23.2899712237      -10.1214722758       -5.2080968861  MEMB      28              0.0000000000
     42339      1288  PPPE      C313          -24.0579081054       -9.5683001808       -3.3114948891  MEMB      28              0.0000000000
     42340      1288  PPPE      H13X          -24.7693933746      -10.3471329385       -3.0367859473  MEMB      28              0.0000000000
     42341      1288  PPPE      H13Y          -24.6144088058       -8.9055467456       -2.7291006591  MEMB      28              0.0000000000
     42342      1288  PPPE      C314          -22.7464403856       -9.2977558839       -2.5736767468  MEMB      28              0.0000000000
     42343      1288  PPPE      H14X          -22.2963386759       -8.3345274102       -2.9443216647  MEMB      28              0.0000000000
     42344      1288  PPPE      H14Y          -22.1008390542      -10.1090258870       -2.8950433807  MEMB      28              0.0000000000
     42345      1288  PPPE      C315          -22.9392407205       -9.2536374852       -1.0367388819  MEMB      28              0.0000000000
     42346      1288  PPPE      H15X          -23.8913877594       -9.7494990491       -0.7274584756  MEMB      28              0.0000000000
     42347      1288  PPPE      H15Y          -22.9861675561       -8.2487366327       -0.5862079383  MEMB      28              0.0000000000
     42348      1288  PPPE      C316          -21.7518976770       -9.6016260886       -0.2189933701  MEMB      28              0.0000000000
     42349      1288  PPPE      H16X          -21.4195267248      -10.5788343027       -0.5841655530  MEMB      28              0.0000000000
     42350      1288  PPPE      H16Y          -20.9512394069       -8.8311686120       -0.3434848001  MEMB      28              0.0000000000
     42351      1288  PPPE      H16Z          -22.0963847975       -9.6079040194        0.8405435931  MEMB      28              0.0000000000
     42352      1289  PPPE      N              19.8754357707       16.6020412710      -19.8733973398  MEMB      29              0.0000000000
     42353      1289  PPPE      HN1            20.8355621602       16.9653146728      -19.7124739904  MEMB      29              0.0000000000
     42354      1289  PPPE      HN2            19.9479077422       15.7971385397      -20.5233095936  MEMB      29              0.0000000000
     42355      1289  PPPE      HN3            19.2325549678       17.3321056098      -20.2401844927  MEMB      29              0.0000000000
     42356      1289  PPPE      C12            19.2830593406       16.0202041114      -18.6275725549  MEMB      29              0.0000000000
     42357      1289  PPPE      H12A           18.3580178887       15.5006237186      -18.9643097847  MEMB      29              0.0000000000
     42358      1289  PPPE      H12B           19.0126901716       16.8571195654      -17.9567927099  MEMB      29              0.0000000000
     42359      1289  PPPE      C11            20.2554592453       15.0491465488      -17.9258799623  MEMB      29              0.0000000000
     42360      1289  PPPE      H11A           19.7231085182       14.5676982617      -17.0678150725  MEMB      29              0.0000000000
     42361      1289  PPPE      H11B           21.1025966762       15.6167262167      -17.4760273670  MEMB      29              0.0000000000
     42362      1289  PPPE      P              20.0314660841       12.7678164410      -19.1945835888  MEMB      29              0.0000000000
     42363      1289  PPPE      O13            18.6205304074       13.1395404019      -19.3789166964  MEMB      29              0.0000000000
     42364      1289  PPPE      O14            20.7460921732       12.1412744050      -20.3377259009  MEMB      29              0.0000000000
     42365      1289  PPPE      O11            20.2177521445       11.9124005525      -17.9067251292  MEMB      29              0.0000000000
     42366      1289  PPPE      O12            20.8008635404       14.0956917779      -18.8407391024  MEMB      29              0.0000000000
     42367      1289  PPPE      C1             21.5086268324       11.4879793733      -17.5345693433  MEMB      29              0.0000000000
     42368      1289  PPPE      HA             22.2768551980       12.2876364336      -17.6605879663  MEMB      29              0.0000000000
     42369      1289  PPPE      HB             21.8062392198       10.6120748181      -18.1619928783  MEMB      29              0.0000000000
     42370      1289  PPPE      C2             21.4829319499       11.1376946105      -16.0348377668  MEMB      29              0.0000000000
     42371      1289  PPPE      HS             20.9614960157       10.1560938003      -15.9891921952  MEMB      29              0.0000000000
     42372      1289  PPPE      O21            20.7810970834       12.1163748243      -15.2049849736  MEMB      29              0.0000000000
     42373      1289  PPPE      C21            20.1211546314       11.7812442199      -14.0926618534  MEMB      29              0.0000000000
     42374      1289  PPPE      O22            19.7632689127       10.7391979661      -13.6689184914  MEMB      29              0.0000000000
     42375      1289  PPPE      C22            19.7288638125       12.8287395015      -13.1391785191  MEMB      29              0.0000000000
     42376      1289  PPPE      H2R            18.6618453647       12.5410050519      -12.9072850818  MEMB      29              0.0000000000
     42377      1289  PPPE      H2S            19.8205896304       13.7986480856      -13.6206955467  MEMB      29              0.0000000000
     42378      1289  PPPE      C3             22.9734481083       11.0236457243      -15.5935533604  MEMB      29              0.0000000000
     42379      1289  PPPE      HX             22.7778027544       10.5041229005      -14.6589813787  MEMB      29              0.0000000000
     42380      1289  PPPE      HY             23.5912126762       10.3990689451      -16.2756240992  MEMB      29              0.0000000000
     42381      1289  PPPE      O31            23.5624452780       12.2827447354      -15.2477708160  MEMB      29              0.0000000000
     42382      1289  PPPE      C31            24.7780891795       12.7158594057      -15.4878236834  MEMB      29              0.0000000000
     42383      1289  PPPE      O32            25.6195073121       12.2571118600      -16.2290849920  MEMB      29              0.0000000000
     42384      1289  PPPE      C32            24.9575168356       14.0483780001      -14.7632051013  MEMB      29              0.0000000000
     42385      1289  PPPE      H2X            24.1001140929       14.6429217746      -15.1270267849  MEMB      29              0.0000000000
     42386      1289  PPPE      H2Y            25.9141935049       14.3986527137      -15.2176531600  MEMB      29              0.0000000000
     42387      1289  PPPE      C23            20.6138543578       12.6250977790      -11.8956606293  MEMB      29              0.0000000000
     42388      1289  PPPE      H3R            20.8020460152       13.6048292051      -11.4115758784  MEMB      29              0.0000000000
     42389      1289  PPPE      H3S            21.6064385272       12.1821142020      -12.1497791076  MEMB      29              0.0000000000
     42390      1289  PPPE      C24            19.9924448124       11.7664158196      -10.8078590966  MEMB      29              0.0000000000
     42391      1289  PPPE      H4R            19.9108824254       10.6986234765      -11.1425806222  MEMB      29              0.0000000000
     42392      1289  PPPE      H4S            18.9707994344       12.1401617708      -10.5869880788  MEMB      29              0.0000000000
     42393      1289  PPPE      C25            20.8439740106       11.9381760801       -9.5607175796  MEMB      29              0.0000000000
     42394      1289  PPPE      H5R            20.6894300714       12.8845399097       -9.0154870159  MEMB      29              0.0000000000
     42395      1289  PPPE      H5S            21.9198344014       11.7365302644       -9.7848963924  MEMB      29              0.0000000000
     42396      1289  PPPE      C26            20.4789968160       10.9327800712       -8.5986454169  MEMB      29              0.0000000000
     42397      1289  PPPE      H6R            20.8374629375       10.0431821112       -9.2040363840  MEMB      29              0.0000000000
     42398      1289  PPPE      H6S            19.3949703463       10.8751599624       -8.3263436865  MEMB      29              0.0000000000
     42399      1289  PPPE      C27            21.2747618707       10.8982639615       -7.3665621350  MEMB      29              0.0000000000
     42400      1289  PPPE      H7R            22.3692155405       10.7867708665       -7.5743043670  MEMB      29              0.0000000000
     42401      1289  PPPE      H7S            20.7812445337        9.9439040865       -7.0213748740  MEMB      29              0.0000000000
     42402      1289  PPPE      C28            21.1770229038       11.8314059254       -6.2506322298  MEMB      29              0.0000000000
     42403      1289  PPPE      H8R            21.4875517085       12.8208737320       -6.5833125018  MEMB      29              0.0000000000
     42404      1289  PPPE      H8S            22.0658150029       11.5794674613       -5.6103083385  MEMB      29              0.0000000000
     42405      1289  PPPE      C29            19.8392431856       11.5551386380       -5.5742090268  MEMB      29              0.0000000000
     42406      1289  PPPE      H91            19.5122796505       10.5047259949       -5.4419297298  MEMB      29              0.0000000000
     42407      1289  PPPE      C210           19.0592430222       12.4771388197       -5.1274300624  MEMB      29              0.0000000000
     42408      1289  PPPE      H101           18.0892616833       12.2372326766       -4.6742160826  MEMB      29              0.0000000000
     42409      1289  PPPE      C211           19.5348257192       13.8528732603       -5.3296364900  MEMB      29              0.0000000000
     42410      1289  PPPE      H11R           18.6396614598       14.4499617334       -5.1689800228  MEMB      29              0.0000000000
     42411      1289  PPPE      H11S           19.8277722539       13.9627433541       -6.4050985249  MEMB      29              0.0000000000
     42412      1289  PPPE      C212           20.7259629207       14.3426751647       -4.4840149623  MEMB      29              0.0000000000
     42413      1289  PPPE      H12R           21.0267407889       15.3090490503       -4.9473540111  MEMB      29              0.0000000000
     42414      1289  PPPE      H12S           21.5926969697       13.6477878995       -4.5354456936  MEMB      29              0.0000000000
     42415      1289  PPPE      C213           20.3748080299       14.5458477039       -3.0202830768  MEMB      29              0.0000000000
     42416      1289  PPPE      H13R           20.1706822643       13.5741588249       -2.5213378231  MEMB      29              0.0000000000
     42417      1289  PPPE      H13S           19.4599570167       15.1838981819       -2.9610228727  MEMB      29              0.0000000000
     42418      1289  PPPE      C214           21.4313011409       15.2476241629       -2.1952878226  MEMB      29              0.0000000000
     42419      1289  PPPE      H14R           21.8618231609       16.1005974517       -2.7747896704  MEMB      29              0.0000000000
     42420      1289  PPPE      H14S           22.2726087116       14.5872721112       -1.8814337258  MEMB      29              0.0000000000
     42421      1289  PPPE      C215           20.6963344980       15.7219731470       -0.9616526888  MEMB      29              0.0000000000
     42422      1289  PPPE      H15R           20.5211495038       14.9571624112       -0.1819191188  MEMB      29              0.0000000000
     42423      1289  PPPE      H15S           19.8108263335       16.3663646932       -1.1991843223  MEMB      29              0.0000000000
     42424      1289  PPPE      C216           21.5132368486       16.5720393863       -0.1993407168  MEMB      29              0.0000000000
     42425      1289  PPPE      H16R           22.1143913529       17.1193672029       -0.8582414760  MEMB      29              0.0000000000
     42426      1289  PPPE      H16S           20.9176710231       17.3341567426        0.3740026432  MEMB      29              0.0000000000
     42427      1289  PPPE      H16T           22.4436988915       16.1802862298        0.2506091353  MEMB      29              0.0000000000
     42428      1289  PPPE      C33            25.0821971031       14.2096150681      -13.2096184459  MEMB      29              0.0000000000
     42429      1289  PPPE      H3X            25.7303449990       15.1233765412      -13.1210861907  MEMB      29              0.0000000000
     42430      1289  PPPE      H3Y            25.6490040910       13.3920680481      -12.7231756815  MEMB      29              0.0000000000
     42431      1289  PPPE      C34            23.7903550222       14.6073692072      -12.4541063099  MEMB      29              0.0000000000
     42432      1289  PPPE      H4X            22.9366400027       13.9335945203      -12.5651603141  MEMB      29              0.0000000000
     42433      1289  PPPE      H4Y            23.2823084616       15.4271732928      -13.0216873905  MEMB      29              0.0000000000
     42434      1289  PPPE      C35            24.0062592522       14.9347035863      -10.9376318606  MEMB      29              0.0000000000
     42435      1289  PPPE      H5X            22.9895652937       15.1030683040      -10.5291905217  MEMB      29              0.0000000000
     42436      1289  PPPE      H5Y            24.4578940001       15.9611478530      -10.9483514595  MEMB      29              0.0000000000
     42437      1289  PPPE      C36            24.7985608193       13.9905247851       -9.9295311502  MEMB      29              0.0000000000
     42438      1289  PPPE      H6X            25.8024239341       14.1576843401      -10.3786474446  MEMB      29              0.0000000000
     42439      1289  PPPE      H6Y            25.1843083184       12.9603021002      -10.1423468909  MEMB      29              0.0000000000
     42440      1289  PPPE      C37            24.4474092651       14.4236220904       -8.4016168909  MEMB      29              0.0000000000
     42441      1289  PPPE      H7X            23.4537454466       14.5643764184       -7.8892161197  MEMB      29              0.0000000000
     42442      1289  PPPE      H7Y            24.6399421240       15.5066311576       -8.3495060123  MEMB      29              0.0000000000
     42443      1289  PPPE      C38            25.0562366761       13.6895975054       -7.2280116942  MEMB      29              0.0000000000
     42444      1289  PPPE      H8X            25.9611747128       14.2871159060       -6.9360061849  MEMB      29              0.0000000000
     42445      1289  PPPE      H8Y            24.9470464950       12.5742953525       -7.2041807570  MEMB      29              0.0000000000
     42446      1289  PPPE      C39            24.4381233641       13.9459065766       -5.8846489214  MEMB      29              0.0000000000
     42447      1289  PPPE      H9X            23.4194567228       13.5098835355       -5.8227092565  MEMB      29              0.0000000000
     42448      1289  PPPE      H9Y            24.4063205130       15.0619211103       -5.8417992902  MEMB      29              0.0000000000
     42449      1289  PPPE      C310           25.4870156568       13.3686821077       -4.9296488712  MEMB      29              0.0000000000
     42450      1289  PPPE      H10X           25.3795734463       13.9320046821       -3.9982014664  MEMB      29              0.0000000000
     42451      1289  PPPE      H10Y           26.5105015686       13.4932147457       -5.2381257427  MEMB      29              0.0000000000
     42452      1289  PPPE      C311           25.5619363362       11.8851693414       -4.7294977599  MEMB      29              0.0000000000
     42453      1289  PPPE      H11X           26.5865648231       11.4950705700       -4.4957234835  MEMB      29              0.0000000000
     42454      1289  PPPE      H11Y           25.2561849991       11.3448035502       -5.7106162157  MEMB      29              0.0000000000
     42455      1289  PPPE      C312           24.5516500595       11.7177221954       -3.5280880966  MEMB      29              0.0000000000
     42456      1289  PPPE      H12X           24.8503457945       10.8826296795       -4.0210517744  MEMB      29              0.0000000000
     42457      1289  PPPE      H12Y           23.7261459074       12.3390928472       -3.8994285219  MEMB      29              0.0000000000
     42458      1289  PPPE      C313           24.6220045665       11.3355637391       -1.9308535640  MEMB      29              0.0000000000
     42459      1289  PPPE      H13X           24.6365819064       12.3593936758       -2.0649320980  MEMB      29              0.0000000000
     42460      1289  PPPE      H13Y           25.6177262277       10.9504415388       -1.7194898419  MEMB      29              0.0000000000
     42461      1289  PPPE      C314           23.5200171799       10.5632321346       -0.9365429723  MEMB      29              0.0000000000
     42462      1289  PPPE      H14X           23.5891191469        9.4421294282       -0.6021364300  MEMB      29              0.0000000000
     42463      1289  PPPE      H14Y           22.4936240486       10.5238564643       -1.1975834427  MEMB      29              0.0000000000
     42464      1289  PPPE      C315           23.7977088020       11.1356729161        0.2770343613  MEMB      29              0.0000000000
     42465      1289  PPPE      H15X           24.7403384371       10.5843559998        0.3661099118  MEMB      29              0.0000000000
     42466      1289  PPPE      H15Y           23.0275708209       10.6457288191        0.8977411031  MEMB      29              0.0000000000
     42467      1289  PPPE      C316           24.3906538203       12.5531360107        0.4362426881  MEMB      29              0.0000000000
     42468      1289  PPPE      H16X           24.2084843671       12.8133284700        1.4706968769  MEMB      29              0.0000000000
     42469      1289  PPPE      H16Y           25.4946645736       12.6927333299        0.3521986472  MEMB      29              0.0000000000
     42470      1289  PPPE      H16Z           24.0116753681       13.4034036794       -0.1314342907  MEMB      29              0.0000000000
     42471      1290  PVPG      C13             8.8479797796      -23.7785782134      -21.0176463379  MEMB      30              0.0000000000
     42472      1290  PVPG      H13A            8.9477442909      -23.0108645759      -21.8176336650  MEMB      30              0.0000000000
     42473      1290  PVPG      H13B            9.5477072291      -23.5377307240      -20.1887856210  MEMB      30              0.0000000000
     42474      1290  PVPG      OC3             9.1649648847      -25.0728899552      -21.5311003275  MEMB      30              0.0000000000
     42475      1290  PVPG      HO3             8.6304034236      -25.6940670716      -21.0444491200  MEMB      30              0.0000000000
     42476      1290  PVPG      C12             7.4082273394      -23.7324227257      -20.4850979697  MEMB      30              0.0000000000
     42477      1290  PVPG      H12A            6.7050427857      -24.0445200221      -21.2884971142  MEMB      30              0.0000000000
     42478      1290  PVPG      OC2             7.0639058174      -22.3997531246      -20.1161571663  MEMB      30              0.0000000000
     42479      1290  PVPG      HO2             6.2180439715      -22.5412330270      -19.6488648463  MEMB      30              0.0000000000
     42480      1290  PVPG      C11             7.1916897927      -24.6849976306      -19.2991678084  MEMB      30              0.0000000000
     42481      1290  PVPG      H11A            7.8674145554      -24.3812997899      -18.4588222019  MEMB      30              0.0000000000
     42482      1290  PVPG      H11B            7.4594411008      -25.7210171241      -19.5587400635  MEMB      30              0.0000000000
     42483      1290  PVPG      P               5.4069457322      -24.7129530028      -17.4743884905  MEMB      30              0.0000000000
     42484      1290  PVPG      O13             3.9547600548      -24.5709756715      -17.3516615395  MEMB      30              0.0000000000
     42485      1290  PVPG      O14             6.2900484604      -23.8093882079      -16.6999220327  MEMB      30              0.0000000000
     42486      1290  PVPG      O12             5.8126190235      -24.6705130899      -18.9803424969  MEMB      30              0.0000000000
     42487      1290  PVPG      O11             5.8937760001      -26.2324971845      -17.3226069061  MEMB      30              0.0000000000
     42488      1290  PVPG      C1              4.9995522534      -27.3273400789      -17.1871633752  MEMB      30              0.0000000000
     42489      1290  PVPG      HA              5.4303105864      -28.2345966115      -17.6376175443  MEMB      30              0.0000000000
     42490      1290  PVPG      HB              3.9620789127      -27.1672498005      -17.6050148942  MEMB      30              0.0000000000
     42491      1290  PVPG      C2              4.8015196913      -27.5237497045      -15.7269170745  MEMB      30              0.0000000000
     42492      1290  PVPG      HS              4.0983996348      -28.3075594316      -15.5758161322  MEMB      30              0.0000000000
     42493      1290  PVPG      O21             4.2809663409      -26.2175023422      -15.3952801486  MEMB      30              0.0000000000
     42494      1290  PVPG      C21             4.0728622873      -25.9258078089      -14.1966091960  MEMB      30              0.0000000000
     42495      1290  PVPG      O22             4.5055380648      -26.5422898513      -13.2999081668  MEMB      30              0.0000000000
     42496      1290  PVPG      C22             3.2386920328      -24.8837308909      -13.6082549752  MEMB      30              0.0000000000
     42497      1290  PVPG      H2R             2.1465479604      -24.8450430474      -13.8132490475  MEMB      30              0.0000000000
     42498      1290  PVPG      H2S             3.9649824730      -24.1013902637      -13.4240664797  MEMB      30              0.0000000000
     42499      1290  PVPG      C3              6.0386994631      -27.9717435422      -14.9664152308  MEMB      30              0.0000000000
     42500      1290  PVPG      HX              5.7242863646      -28.5576267363      -14.0423606895  MEMB      30              0.0000000000
     42501      1290  PVPG      HY              6.6363007901      -28.6608296119      -15.6148336676  MEMB      30              0.0000000000
     42502      1290  PVPG      O31             6.7430634404      -26.7728942694      -14.6982279797  MEMB      30              0.0000000000
     42503      1290  PVPG      C31             7.6606069766      -27.0761478435      -13.8796471634  MEMB      30              0.0000000000
     42504      1290  PVPG      O32             7.8122828782      -28.2278692330      -13.4532675484  MEMB      30              0.0000000000
     42505      1290  PVPG      C32             8.4459929756      -25.7875654303      -13.5877768426  MEMB      30              0.0000000000
     42506      1290  PVPG      H2X             8.0428166033      -24.9610377302      -14.1999154923  MEMB      30              0.0000000000
     42507      1290  PVPG      H2Y             9.5109691943      -25.7892240378      -13.9008997157  MEMB      30              0.0000000000
     42508      1290  PVPG      C23             2.9705500661      -25.2662040155      -12.1631945746  MEMB      30              0.0000000000
     42509      1290  PVPG      H3R             3.7986180024      -25.6830772402      -11.5068504748  MEMB      30              0.0000000000
     42510      1290  PVPG      H3S             2.2842946041      -26.1316850243      -12.4158793736  MEMB      30              0.0000000000
     42511      1290  PVPG      C24             2.3240793786      -24.1555489249      -11.3125536659  MEMB      30              0.0000000000
     42512      1290  PVPG      H4R             1.5819720452      -24.4502673220      -10.5958005790  MEMB      30              0.0000000000
     42513      1290  PVPG      H4S             1.5869514181      -23.5541238262      -11.8350182324  MEMB      30              0.0000000000
     42514      1290  PVPG      C25             3.3070584138      -23.6399087453      -10.2788680791  MEMB      30              0.0000000000
     42515      1290  PVPG      H5R             4.0989493964      -23.2487996795      -10.8990655719  MEMB      30              0.0000000000
     42516      1290  PVPG      H5S             3.8527236617      -24.4265305107       -9.7088164466  MEMB      30              0.0000000000
     42517      1290  PVPG      C26             2.6918494215      -22.6663613500       -9.2893093890  MEMB      30              0.0000000000
     42518      1290  PVPG      H6R             1.9715569012      -23.1818651593       -8.6149822647  MEMB      30              0.0000000000
     42519      1290  PVPG      H6S             1.9689760507      -22.0089281751       -9.8074115079  MEMB      30              0.0000000000
     42520      1290  PVPG      C27             3.8259805261      -21.8384243455       -8.6247998847  MEMB      30              0.0000000000
     42521      1290  PVPG      H7R             3.4025370997      -20.8176672427       -8.5476596203  MEMB      30              0.0000000000
     42522      1290  PVPG      H7S             4.6774361540      -21.7884568997       -9.3249437628  MEMB      30              0.0000000000
     42523      1290  PVPG      C28             4.4487546199      -22.3427576631       -7.2912065457  MEMB      30              0.0000000000
     42524      1290  PVPG      H8R             4.8679394523      -23.3591633426       -7.4495448259  MEMB      30              0.0000000000
     42525      1290  PVPG      H8S             3.6177545782      -22.5221999593       -6.5950254475  MEMB      30              0.0000000000
     42526      1290  PVPG      C29             5.5763513435      -21.4998782590       -6.5776955673  MEMB      30              0.0000000000
     42527      1290  PVPG      H9R             6.4473465347      -21.4863324852       -7.2278901091  MEMB      30              0.0000000000
     42528      1290  PVPG      H9S             5.8790747042      -22.0397601759       -5.6324261544  MEMB      30              0.0000000000
     42529      1290  PVPG      C210            5.4199027415      -20.0243602749       -6.3373278300  MEMB      30              0.0000000000
     42530      1290  PVPG      H10R            4.9467330778      -19.5271381214       -7.2881555082  MEMB      30              0.0000000000
     42531      1290  PVPG      H10S            6.1071347018      -19.2844054139       -5.9473901436  MEMB      30              0.0000000000
     42532      1290  PVPG      C211            4.5670385111      -20.2924762097       -5.1709851407  MEMB      30              0.0000000000
     42533      1290  PVPG      H111            3.9862869821      -19.8028208063       -5.8772294298  MEMB      30              0.0000000000
     42534      1290  PVPG      C212            4.3235623241      -20.1415988472       -3.8227937214  MEMB      30              0.0000000000
     42535      1290  PVPG      H121            3.2898589780      -19.7995706561       -3.4368995266  MEMB      30              0.0000000000
     42536      1290  PVPG      C213            5.2515811129      -19.2950741397       -3.0892813643  MEMB      30              0.0000000000
     42537      1290  PVPG      H13R            5.2789255293      -18.2023886500       -3.1813418158  MEMB      30              0.0000000000
     42538      1290  PVPG      H13S            6.2008741494      -19.6162810777       -3.5095112438  MEMB      30              0.0000000000
     42539      1290  PVPG      C214            4.9199001670      -19.5041789733       -1.6687449527  MEMB      30              0.0000000000
     42540      1290  PVPG      H14R            3.8599346765      -19.2865288815       -1.3742194475  MEMB      30              0.0000000000
     42541      1290  PVPG      H14S            5.5662007101      -18.7423699276       -1.1821539501  MEMB      30              0.0000000000
     42542      1290  PVPG      C215            5.4218617472      -20.8955118549       -1.3965146048  MEMB      30              0.0000000000
     42543      1290  PVPG      H15R            5.7099194580      -20.8231982417       -0.3400940477  MEMB      30              0.0000000000
     42544      1290  PVPG      H15S            6.3288638025      -21.0818949181       -2.0124426325  MEMB      30              0.0000000000
     42545      1290  PVPG      C216            4.4369672935      -22.0263001651       -1.6515876913  MEMB      30              0.0000000000
     42546      1290  PVPG      H16R            4.9418573998      -22.9585299455       -1.3440665567  MEMB      30              0.0000000000
     42547      1290  PVPG      H16S            4.1511837792      -22.2424314361       -2.7103885811  MEMB      30              0.0000000000
     42548      1290  PVPG      C217            3.2009622790      -21.7614194224       -0.8450395541  MEMB      30              0.0000000000
     42549      1290  PVPG      H17R            2.6441668877      -20.8340110018       -1.0381361777  MEMB      30              0.0000000000
     42550      1290  PVPG      H17S            3.4244506300      -21.7450653778        0.2246918527  MEMB      30              0.0000000000
     42551      1290  PVPG      C218            2.2577850379      -22.8316228284       -1.0653721660  MEMB      30              0.0000000000
     42552      1290  PVPG      H18R            2.7640490981      -23.7081522279       -1.3171550185  MEMB      30              0.0000000000
     42553      1290  PVPG      H18S            1.7898048366      -23.1592769698       -0.1180207654  MEMB      30              0.0000000000
     42554      1290  PVPG      H18T            1.5573425405      -22.6444665567       -1.9094945403  MEMB      30              0.0000000000
     42555      1290  PVPG      C33             8.3288529499      -25.5670540321      -12.0907215058  MEMB      30              0.0000000000
     42556      1290  PVPG      H3X             8.8896931997      -24.6556232961      -11.8105591205  MEMB      30              0.0000000000
     42557      1290  PVPG      H3Y             8.8224903465      -26.4347327869      -11.5889489741  MEMB      30              0.0000000000
     42558      1290  PVPG      C34             6.8759452844      -25.3674200452      -11.6259400399  MEMB      30              0.0000000000
     42559      1290  PVPG      H4X             6.2535716847      -26.2607709154      -11.8417486023  MEMB      30              0.0000000000
     42560      1290  PVPG      H4Y             6.3915570435      -24.5317965793      -12.1797009215  MEMB      30              0.0000000000
     42561      1290  PVPG      C35             6.8174560328      -25.0859602541      -10.1354749258  MEMB      30              0.0000000000
     42562      1290  PVPG      H5X             5.7930118671      -24.8323211539       -9.8000515734  MEMB      30              0.0000000000
     42563      1290  PVPG      H5Y             7.4298128931      -24.1992753230       -9.8595798416  MEMB      30              0.0000000000
     42564      1290  PVPG      C36             7.3349283273      -26.2424785415       -9.3056655451  MEMB      30              0.0000000000
     42565      1290  PVPG      H6X             8.3731244011      -26.5217740038       -9.6017973763  MEMB      30              0.0000000000
     42566      1290  PVPG      H6Y             6.7322107268      -27.1699393433       -9.4101273070  MEMB      30              0.0000000000
     42567      1290  PVPG      C37             7.1719986147      -25.7398627148       -7.8922524836  MEMB      30              0.0000000000
     42568      1290  PVPG      H7X             6.1245046582      -25.7988552815       -7.5455373931  MEMB      30              0.0000000000
     42569      1290  PVPG      H7Y             7.7236477370      -24.7919828132       -7.6807317169  MEMB      30              0.0000000000
     42570      1290  PVPG      C38             7.7653631002      -26.5810360393       -6.9108366915  MEMB      30              0.0000000000
     42571      1290  PVPG      H8X             8.8051182038      -26.4989789428       -7.2875890824  MEMB      30              0.0000000000
     42572      1290  PVPG      H8Y             7.3369643916      -27.6148829942       -6.9426322294  MEMB      30              0.0000000000
     42573      1290  PVPG      C39             7.7660236964      -26.0013334061       -5.5025298404  MEMB      30              0.0000000000
     42574      1290  PVPG      H9X             8.5390609044      -25.2458526745       -5.3356403260  MEMB      30              0.0000000000
     42575      1290  PVPG      H9Y             8.0299991835      -26.6982848662       -4.7067730886  MEMB      30              0.0000000000
     42576      1290  PVPG      C310            6.4837193051      -26.2218653041       -4.9093375494  MEMB      30              0.0000000000
     42577      1290  PVPG      H10X            6.1353899449      -27.1775409829       -5.3977207913  MEMB      30              0.0000000000
     42578      1290  PVPG      H10Y            5.9899151988      -25.3164215694       -5.2619877615  MEMB      30              0.0000000000
     42579      1290  PVPG      C311            6.3388695528      -26.3645290705       -3.3985979307  MEMB      30              0.0000000000
     42580      1290  PVPG      H11X            6.4459542153      -27.3758486787       -3.0927568839  MEMB      30              0.0000000000
     42581      1290  PVPG      H11Y            5.2996627968      -26.3572198046       -3.0553638021  MEMB      30              0.0000000000
     42582      1290  PVPG      C312            7.2222873267      -25.4442659298       -2.6083670836  MEMB      30              0.0000000000
     42583      1290  PVPG      H12X            7.1575673203      -24.4302534572       -3.0550001555  MEMB      30              0.0000000000
     42584      1290  PVPG      H12Y            8.2678202161      -25.8017536879       -2.6840754279  MEMB      30              0.0000000000
     42585      1290  PVPG      C313            6.7577213960      -25.5329532517       -1.1759087962  MEMB      30              0.0000000000
     42586      1290  PVPG      H13X            6.6040278333      -26.5986671643       -0.9119142921  MEMB      30              0.0000000000
     42587      1290  PVPG      H13Y            5.7681541486      -25.0352243565       -1.1001954447  MEMB      30              0.0000000000
     42588      1290  PVPG      C314            7.7719993999      -25.0501853043       -0.1641760537  MEMB      30              0.0000000000
     42589      1290  PVPG      H14X            8.0720988839      -24.0109809639       -0.4513955983  MEMB      30              0.0000000000
     42590      1290  PVPG      H14Y            8.6513300959      -25.7199461612       -0.1369276803  MEMB      30              0.0000000000
     42591      1290  PVPG      C315            7.1685075057      -25.1720844569        1.2073662664  MEMB      30              0.0000000000
     42592      1290  PVPG      H15X            7.8635357870      -24.8032532946        2.0120159398  MEMB      30              0.0000000000
     42593      1290  PVPG      H15Y            6.7104399433      -26.1355984821        1.4786531570  MEMB      30              0.0000000000
     42594      1290  PVPG      C316            5.9853734190      -24.3634436817        1.2468630963  MEMB      30              0.0000000000
     42595      1290  PVPG      H16X            5.8997718623      -24.2263492886        2.3636967316  MEMB      30              0.0000000000
     42596      1290  PVPG      H16Y            6.2653841116      -23.4420077544        0.6518612323  MEMB      30              0.0000000000
     42597      1290  PVPG      H16Z            4.9492186957      -24.5738799275        0.9375013505  MEMB      30              0.0000000000
     42598      1291  PPPE      N              25.2799870749        2.6183734277      -20.9067350369  MEMB      31              0.0000000000
     42599      1291  PPPE      HN1            25.0730308973        2.9228449099      -19.9297367477  MEMB      31              0.0000000000
     42600      1291  PPPE      HN2            25.5264121577        3.4506684449      -21.5017239071  MEMB      31              0.0000000000
     42601      1291  PPPE      HN3            24.4360838556        2.1545099360      -21.2901367816  MEMB      31              0.0000000000
     42602      1291  PPPE      C12            26.4059081556        1.6143389496      -20.8679897397  MEMB      31              0.0000000000
     42603      1291  PPPE      H12A           27.2621796457        2.0424415135      -20.3076892517  MEMB      31              0.0000000000
     42604      1291  PPPE      H12B           26.7123326860        1.3766741337      -21.9025840078  MEMB      31              0.0000000000
     42605      1291  PPPE      C11            25.9299399060        0.3251186365      -20.2196202930  MEMB      31              0.0000000000
     42606      1291  PPPE      H11A           26.7568621369       -0.4247584326      -20.2546009753  MEMB      31              0.0000000000
     42607      1291  PPPE      H11B           25.0664477470       -0.0760887831      -20.8080937224  MEMB      31              0.0000000000
     42608      1291  PPPE      P              24.9846822264       -0.6237381759      -18.0257463193  MEMB      31              0.0000000000
     42609      1291  PPPE      O13            23.6436208992       -0.1943226564      -17.5699334207  MEMB      31              0.0000000000
     42610      1291  PPPE      O14            25.1015297849       -1.8235056556      -18.8747780874  MEMB      31              0.0000000000
     42611      1291  PPPE      O11            26.0398667241       -0.6712963954      -16.8399360813  MEMB      31              0.0000000000
     42612      1291  PPPE      O12            25.5616600104        0.6052998396      -18.8753062626  MEMB      31              0.0000000000
     42613      1291  PPPE      C1             27.4598298643       -0.5535572845      -17.0471364968  MEMB      31              0.0000000000
     42614      1291  PPPE      HA             27.7088454122        0.0330829992      -17.9601200202  MEMB      31              0.0000000000
     42615      1291  PPPE      HB             27.8866347362       -1.5655493540      -17.2272080161  MEMB      31              0.0000000000
     42616      1291  PPPE      C2             28.2201170784        0.1179968891      -15.8353797784  MEMB      31              0.0000000000
     42617      1291  PPPE      HS             29.3063291627        0.0105270504      -16.0378685866  MEMB      31              0.0000000000
     42618      1291  PPPE      O21            27.9040038332       -0.5904002360      -14.6213311050  MEMB      31              0.0000000000
     42619      1291  PPPE      C21            28.3997853271       -0.1814269661      -13.4673287138  MEMB      31              0.0000000000
     42620      1291  PPPE      O22            29.2585804368        0.6606223296      -13.2948240477  MEMB      31              0.0000000000
     42621      1291  PPPE      C22            27.7260394022       -0.9843973659      -12.3555375702  MEMB      31              0.0000000000
     42622      1291  PPPE      H2R            28.2229438002       -0.7082734107      -11.4067456938  MEMB      31              0.0000000000
     42623      1291  PPPE      H2S            27.9267266828       -2.0557709506      -12.5590721346  MEMB      31              0.0000000000
     42624      1291  PPPE      C3             27.8605169053        1.6388503912      -15.7231032182  MEMB      31              0.0000000000
     42625      1291  PPPE      HX             28.6123607555        2.2326800098      -15.1483279287  MEMB      31              0.0000000000
     42626      1291  PPPE      HY             27.8944317434        2.0425841102      -16.7652017015  MEMB      31              0.0000000000
     42627      1291  PPPE      O31            26.5370790081        1.7971826260      -15.1617170230  MEMB      31              0.0000000000
     42628      1291  PPPE      C31            26.1204524192        3.0503041498      -15.2862572426  MEMB      31              0.0000000000
     42629      1291  PPPE      O32            26.8397602902        3.9907658258      -15.5662003075  MEMB      31              0.0000000000
     42630      1291  PPPE      C32            24.6346954199        3.1744791998      -15.0170210819  MEMB      31              0.0000000000
     42631      1291  PPPE      H2X            24.1385569152        2.1891336239      -14.9815463757  MEMB      31              0.0000000000
     42632      1291  PPPE      H2Y            24.2183492465        3.6915676841      -15.9068268717  MEMB      31              0.0000000000
     42633      1291  PPPE      C23            26.1963186313       -0.7379444082      -12.3907923765  MEMB      31              0.0000000000
     42634      1291  PPPE      H3R            25.9051414154       -0.7387058713      -13.4744081220  MEMB      31              0.0000000000
     42635      1291  PPPE      H3S            25.9237667102        0.2641443745      -11.9979939423  MEMB      31              0.0000000000
     42636      1291  PPPE      C24            25.2910280391       -1.8407984080      -11.8040465949  MEMB      31              0.0000000000
     42637      1291  PPPE      H4R            25.5516176016       -2.8094842369      -12.2857820818  MEMB      31              0.0000000000
     42638      1291  PPPE      H4S            24.2588053105       -1.5697152610      -12.1291499495  MEMB      31              0.0000000000
     42639      1291  PPPE      C25            25.2500910659       -2.0303632111      -10.2795411515  MEMB      31              0.0000000000
     42640      1291  PPPE      H5R            26.0965258489       -2.6911047873       -9.9876876635  MEMB      31              0.0000000000
     42641      1291  PPPE      H5S            24.3038336913       -2.5603010854      -10.0105362684  MEMB      31              0.0000000000
     42642      1291  PPPE      C26            25.3443838223       -0.7281540560       -9.4720414108  MEMB      31              0.0000000000
     42643      1291  PPPE      H6R            24.6774085856        0.0417853359       -9.9197071115  MEMB      31              0.0000000000
     42644      1291  PPPE      H6S            26.4002675606       -0.3879744786       -9.5505530587  MEMB      31              0.0000000000
     42645      1291  PPPE      C27            25.0265523255       -0.9459902057       -7.9849136908  MEMB      31              0.0000000000
     42646      1291  PPPE      H7R            25.6237008454       -1.8340965546       -7.6721890416  MEMB      31              0.0000000000
     42647      1291  PPPE      H7S            23.9491169154       -1.2061262479       -7.8766995517  MEMB      31              0.0000000000
     42648      1291  PPPE      C28            25.3183047849        0.2491705682       -7.0482281466  MEMB      31              0.0000000000
     42649      1291  PPPE      H8R            24.7778985229        0.0485689718       -6.0913870557  MEMB      31              0.0000000000
     42650      1291  PPPE      H8S            24.8843489345        1.1772071040       -7.4851837263  MEMB      31              0.0000000000
     42651      1291  PPPE      C29            26.7904316372        0.4832646443       -6.8177407461  MEMB      31              0.0000000000
     42652      1291  PPPE      H91            27.2186622124        1.2551393936       -7.4673803492  MEMB      31              0.0000000000
     42653      1291  PPPE      C210           27.6040705771       -0.1171958357       -5.9335058719  MEMB      31              0.0000000000
     42654      1291  PPPE      H101           28.6747711461        0.1080624578       -5.9090381671  MEMB      31              0.0000000000
     42655      1291  PPPE      C211           27.2641689936       -1.1680876496       -4.9527157469  MEMB      31              0.0000000000
     42656      1291  PPPE      H11R           28.0031205510       -2.0055184051       -5.0025120098  MEMB      31              0.0000000000
     42657      1291  PPPE      H11S           26.2759012774       -1.6434245635       -5.1490709138  MEMB      31              0.0000000000
     42658      1291  PPPE      C212           27.2737484056       -0.5301633267       -3.5685880090  MEMB      31              0.0000000000
     42659      1291  PPPE      H12R           26.4010781859        0.1253200150       -3.3436824961  MEMB      31              0.0000000000
     42660      1291  PPPE      H12S           28.2284459137       -0.1191519307       -3.1898743703  MEMB      31              0.0000000000
     42661      1291  PPPE      C213           26.9878305326       -1.6675603904       -2.7641288072  MEMB      31              0.0000000000
     42662      1291  PPPE      H13R           27.7433896910       -2.5159142352       -2.8839607972  MEMB      31              0.0000000000
     42663      1291  PPPE      H13S           26.0274920638       -1.9191699807       -3.1477494572  MEMB      31              0.0000000000
     42664      1291  PPPE      C214           26.3944825937       -1.5316244762       -1.3970084572  MEMB      31              0.0000000000
     42665      1291  PPPE      H14R           27.2208910114       -2.2056735272       -1.1031466874  MEMB      31              0.0000000000
     42666      1291  PPPE      H14S           26.1771838106       -2.3929003587       -0.9034623858  MEMB      31              0.0000000000
     42667      1291  PPPE      C215           25.8274045220       -0.2274374010       -0.7344563969  MEMB      31              0.0000000000
     42668      1291  PPPE      H15R           25.0689297034        0.0450575998       -1.4485894498  MEMB      31              0.0000000000
     42669      1291  PPPE      H15S           26.5115620414        0.5417238783       -0.7987610848  MEMB      31              0.0000000000
     42670      1291  PPPE      C216           25.4047067292        0.0221426694        0.7325680719  MEMB      31              0.0000000000
     42671      1291  PPPE      H16R           25.2408606651        0.8573589716        1.3438704513  MEMB      31              0.0000000000
     42672      1291  PPPE      H16S           24.6104530839       -0.6882959409        1.0256365385  MEMB      31              0.0000000000
     42673      1291  PPPE      H16T           26.3355750084       -0.0231718494        1.3696578151  MEMB      31              0.0000000000
     42674      1291  PPPE      C33            24.4405439409        3.9818572918      -13.7216430314  MEMB      31              0.0000000000
     42675      1291  PPPE      H3X            23.3468695012        4.1405842348      -13.5775326306  MEMB      31              0.0000000000
     42676      1291  PPPE      H3Y            24.9241610075        4.9844504827      -13.8005228959  MEMB      31              0.0000000000
     42677      1291  PPPE      C34            24.9535247921        3.2938645693      -12.4382861208  MEMB      31              0.0000000000
     42678      1291  PPPE      H4X            24.4332210067        2.3222204757      -12.2899086563  MEMB      31              0.0000000000
     42679      1291  PPPE      H4Y            24.6289774713        4.0169382464      -11.6604844106  MEMB      31              0.0000000000
     42680      1291  PPPE      C35            26.4698030868        3.2181046605      -12.2359150421  MEMB      31              0.0000000000
     42681      1291  PPPE      H5X            26.8196511789        4.1921358904      -12.6538365736  MEMB      31              0.0000000000
     42682      1291  PPPE      H5Y            26.9094210644        2.3540604691      -12.7647981265  MEMB      31              0.0000000000
     42683      1291  PPPE      C36            27.0145670380        3.1197511652      -10.8097870113  MEMB      31              0.0000000000
     42684      1291  PPPE      H6X            28.1135104102        3.0242572798      -10.7943731445  MEMB      31              0.0000000000
     42685      1291  PPPE      H6Y            26.5649801833        2.2629521046      -10.2446964938  MEMB      31              0.0000000000
     42686      1291  PPPE      C37            26.6984208255        4.3703343371      -10.0577570586  MEMB      31              0.0000000000
     42687      1291  PPPE      H7X            25.6303860523        4.0681772333      -10.0046857137  MEMB      31              0.0000000000
     42688      1291  PPPE      H7Y            26.8721914130        5.3327617388      -10.5939044500  MEMB      31              0.0000000000
     42689      1291  PPPE      C38            27.1899544552        4.3358975334       -8.6223142061  MEMB      31              0.0000000000
     42690      1291  PPPE      H8X            28.2369485176        4.1693582748       -8.5466915403  MEMB      31              0.0000000000
     42691      1291  PPPE      H8Y            26.7054292134        3.4156483875       -8.2631387816  MEMB      31              0.0000000000
     42692      1291  PPPE      C39            27.1252508196        5.5593582585       -7.7011812280  MEMB      31              0.0000000000
     42693      1291  PPPE      H9X            26.2151112128        5.6152801505       -7.4675235264  MEMB      31              0.0000000000
     42694      1291  PPPE      H9Y            27.1168577082        6.5766356997       -8.1501370278  MEMB      31              0.0000000000
     42695      1291  PPPE      C310           27.4426962534        5.4543048813       -6.2045753267  MEMB      31              0.0000000000
     42696      1291  PPPE      H10X           27.6265152097        6.3911828935       -5.5559788419  MEMB      31              0.0000000000
     42697      1291  PPPE      H10Y           28.2435962227        4.8418587020       -6.5829789344  MEMB      31              0.0000000000
     42698      1291  PPPE      C311           27.0371713437        4.3696793665       -5.1606352028  MEMB      31              0.0000000000
     42699      1291  PPPE      H11X           27.0923403716        3.6037863317       -5.8035580863  MEMB      31              0.0000000000
     42700      1291  PPPE      H11Y           26.2288382281        5.1364372942       -4.8463612183  MEMB      31              0.0000000000
     42701      1291  PPPE      C312           26.1862885322        3.7754588620       -3.9221602669  MEMB      31              0.0000000000
     42702      1291  PPPE      H12X           25.5750828900        4.4655210723       -3.3912180803  MEMB      31              0.0000000000
     42703      1291  PPPE      H12Y           26.9278689016        3.8095790341       -3.1852463117  MEMB      31              0.0000000000
     42704      1291  PPPE      C313           26.4716861087        2.6309056537       -2.9529713764  MEMB      31              0.0000000000
     42705      1291  PPPE      H13X           27.3434203342        2.1346777769       -3.4878951102  MEMB      31              0.0000000000
     42706      1291  PPPE      H13Y           25.3562279156        2.5922127404       -3.0794826877  MEMB      31              0.0000000000
     42707      1291  PPPE      C314           26.6197171458        2.9502250034       -1.4311442804  MEMB      31              0.0000000000
     42708      1291  PPPE      H14X           27.5804304131        3.4141651147       -1.1732032539  MEMB      31              0.0000000000
     42709      1291  PPPE      H14Y           26.9519052949        2.1516956907       -0.8927146637  MEMB      31              0.0000000000
     42710      1291  PPPE      C315           25.2936860658        3.4978928133       -0.8383388235  MEMB      31              0.0000000000
     42711      1291  PPPE      H15X           24.6004035362        4.0305656124       -1.4595256006  MEMB      31              0.0000000000
     42712      1291  PPPE      H15Y           25.4586204099        4.4868078492       -0.6235980928  MEMB      31              0.0000000000
     42713      1291  PPPE      C316           24.8552890804        3.1938627452        0.5585528465  MEMB      31              0.0000000000
     42714      1291  PPPE      H16X           24.4301724655        4.0257930912        1.1867602867  MEMB      31              0.0000000000
     42715      1291  PPPE      H16Y           25.4490030894        2.4063397141        0.8674031370  MEMB      31              0.0000000000
     42716      1291  PPPE      H16Z           25.7581881962        3.2989168544        1.1387019857  MEMB      31              0.0000000000
     42717      1292  PPPE      N              25.8294013605       -8.9116218242      -20.7756202414  MEMB      32              0.0000000000
     42718      1292  PPPE      HN1            26.8583677874       -8.9262653425      -20.8722891356  MEMB      32              0.0000000000
     42719      1292  PPPE      HN2            25.3189439453       -8.9945113598      -21.6726520887  MEMB      32              0.0000000000
     42720      1292  PPPE      HN3            25.5193724350       -8.0522947359      -20.2649416771  MEMB      32              0.0000000000
     42721      1292  PPPE      C12            25.5171900675      -10.0621444239      -19.8617549593  MEMB      32              0.0000000000
     42722      1292  PPPE      H12A           26.0323339150       -9.8201566229      -18.9075967021  MEMB      32              0.0000000000
     42723      1292  PPPE      H12B           25.9599624652      -10.9826290913      -20.2904822224  MEMB      32              0.0000000000
     42724      1292  PPPE      C11            24.0146486700      -10.2159373952      -19.5520883214  MEMB      32              0.0000000000
     42725      1292  PPPE      H11A           23.9255298480      -10.7081360469      -18.5519939361  MEMB      32              0.0000000000
     42726      1292  PPPE      H11B           23.5554883637      -10.9036891226      -20.2973579918  MEMB      32              0.0000000000
     42727      1292  PPPE      P              23.4144721097       -7.9951338778      -18.3384312599  MEMB      32              0.0000000000
     42728      1292  PPPE      O13            24.8630721091       -7.8237630697      -18.1127502368  MEMB      32              0.0000000000
     42729      1292  PPPE      O14            22.5510902053       -6.8471145245      -18.6131280338  MEMB      32              0.0000000000
     42730      1292  PPPE      O11            22.8243664449       -8.9029098386      -17.2894936371  MEMB      32              0.0000000000
     42731      1292  PPPE      O12            23.3189352057       -8.9687830519      -19.5783266285  MEMB      32              0.0000000000
     42732      1292  PPPE      C1             21.4334899850       -9.0736872294      -17.1962923792  MEMB      32              0.0000000000
     42733      1292  PPPE      HA             21.1228168870      -10.0973726106      -17.4722682663  MEMB      32              0.0000000000
     42734      1292  PPPE      HB             20.7627645547       -8.2581788324      -17.6019714872  MEMB      32              0.0000000000
     42735      1292  PPPE      C2             21.2493009997       -9.0463574213      -15.7727726791  MEMB      32              0.0000000000
     42736      1292  PPPE      HS             20.1581261480       -9.3659637591      -15.8071004924  MEMB      32              0.0000000000
     42737      1292  PPPE      O21            21.5637570679       -7.6830736824      -15.4334615839  MEMB      32              0.0000000000
     42738      1292  PPPE      C21            21.0088698346       -7.5898402001      -14.3120005340  MEMB      32              0.0000000000
     42739      1292  PPPE      O22            20.0573291120       -8.2894201186      -14.0586811932  MEMB      32              0.0000000000
     42740      1292  PPPE      C22            21.4446281699       -6.2860510108      -13.6663467372  MEMB      32              0.0000000000
     42741      1292  PPPE      H2R            20.9354580796       -5.6345463582      -12.9442764223  MEMB      32              0.0000000000
     42742      1292  PPPE      H2S            21.2361969974       -5.7887834991      -14.5973863333  MEMB      32              0.0000000000
     42743      1292  PPPE      C3             22.2546243878       -9.9895517003      -15.0677415686  MEMB      32              0.0000000000
     42744      1292  PPPE      HX             21.8830941721      -10.6886405701      -14.3675116707  MEMB      32              0.0000000000
     42745      1292  PPPE      HY             22.5638692875      -10.8938837626      -15.5939743686  MEMB      32              0.0000000000
     42746      1292  PPPE      O31            23.2732763162       -9.2000320893      -14.4438366412  MEMB      32              0.0000000000
     42747      1292  PPPE      C31            23.9567535480       -9.8384193240      -13.5624541864  MEMB      32              0.0000000000
     42748      1292  PPPE      O32            23.6443908678      -10.9209545402      -13.1078328895  MEMB      32              0.0000000000
     42749      1292  PPPE      C32            25.0891516451       -8.9258813070      -13.1728300853  MEMB      32              0.0000000000
     42750      1292  PPPE      H2X            24.6901867259       -8.1817414264      -12.4733296345  MEMB      32              0.0000000000
     42751      1292  PPPE      H2Y            25.4637455646       -8.4735099493      -14.1236180861  MEMB      32              0.0000000000
     42752      1292  PPPE      C23            22.5272874444       -6.0531973263      -12.7215933940  MEMB      32              0.0000000000
     42753      1292  PPPE      H3R            23.1629179083       -6.4044380443      -13.5423766055  MEMB      32              0.0000000000
     42754      1292  PPPE      H3S            22.4092199537       -6.6913159365      -11.8362514419  MEMB      32              0.0000000000
     42755      1292  PPPE      C24            22.5740311094       -4.5873823297      -12.1996491163  MEMB      32              0.0000000000
     42756      1292  PPPE      H4R            22.3019837013       -3.8676345689      -13.0058008765  MEMB      32              0.0000000000
     42757      1292  PPPE      H4S            23.6488916030       -4.5849177232      -12.0129270441  MEMB      32              0.0000000000
     42758      1292  PPPE      C25            21.7661219851       -4.1366508233      -10.9312601618  MEMB      32              0.0000000000
     42759      1292  PPPE      H5R            20.6863489756       -4.0527275082      -11.1866292707  MEMB      32              0.0000000000
     42760      1292  PPPE      H5S            22.0634716636       -3.1052846464      -10.6381904477  MEMB      32              0.0000000000
     42761      1292  PPPE      C26            21.8999745461       -5.0044355080       -9.6741866214  MEMB      32              0.0000000000
     42762      1292  PPPE      H6R            21.4846202627       -5.9940959205       -9.9247968921  MEMB      32              0.0000000000
     42763      1292  PPPE      H6S            21.2386294360       -4.6212219688       -8.8629870959  MEMB      32              0.0000000000
     42764      1292  PPPE      C27            23.3304872691       -5.1969629291       -9.1300332971  MEMB      32              0.0000000000
     42765      1292  PPPE      H7R            23.6984072771       -4.2878095269       -8.6103900432  MEMB      32              0.0000000000
     42766      1292  PPPE      H7S            24.0270221860       -5.3602068046       -9.9806028800  MEMB      32              0.0000000000
     42767      1292  PPPE      C28            23.3294142480       -6.4216334461       -8.1988484547  MEMB      32              0.0000000000
     42768      1292  PPPE      H8R            24.3202507743       -6.7906763283       -7.8683979667  MEMB      32              0.0000000000
     42769      1292  PPPE      H8S            22.8958376052       -7.2218763770       -8.8210816566  MEMB      32              0.0000000000
     42770      1292  PPPE      C29            22.4395163425       -6.2456938812       -7.0108710426  MEMB      32              0.0000000000
     42771      1292  PPPE      H91            21.4358135514       -6.6820005679       -7.1096503208  MEMB      32              0.0000000000
     42772      1292  PPPE      C210           22.6725368587       -5.4388418853       -5.9772342406  MEMB      32              0.0000000000
     42773      1292  PPPE      H101           21.9294917689       -5.4587850933       -5.1606814233  MEMB      32              0.0000000000
     42774      1292  PPPE      C211           23.8742627344       -4.5335699669       -5.7774818912  MEMB      32              0.0000000000
     42775      1292  PPPE      H11R           23.5628300727       -3.4912962355       -5.5716749709  MEMB      32              0.0000000000
     42776      1292  PPPE      H11S           24.7209274003       -4.6184904607       -6.5064381657  MEMB      32              0.0000000000
     42777      1292  PPPE      C212           24.5141430382       -4.8684636726       -4.5006895878  MEMB      32              0.0000000000
     42778      1292  PPPE      H12R           25.2667720400       -5.6675775498       -4.7111754541  MEMB      32              0.0000000000
     42779      1292  PPPE      H12S           23.6918548368       -5.0216828026       -3.7498267526  MEMB      32              0.0000000000
     42780      1292  PPPE      C213           25.3552195216       -3.8734869687       -3.7715050638  MEMB      32              0.0000000000
     42781      1292  PPPE      H13R           24.6742193468       -2.9839133793       -3.7419352678  MEMB      32              0.0000000000
     42782      1292  PPPE      H13S           26.2795055399       -3.6967287670       -4.3542548089  MEMB      32              0.0000000000
     42783      1292  PPPE      C214           25.8024901919       -4.1663311558       -2.3007299580  MEMB      32              0.0000000000
     42784      1292  PPPE      H14R           24.9628447837       -4.2176999398       -1.5671585607  MEMB      32              0.0000000000
     42785      1292  PPPE      H14S           26.5726599889       -3.6915533428       -1.9068709945  MEMB      32              0.0000000000
     42786      1292  PPPE      C215           27.1030381782       -5.0222765690       -2.0475178540  MEMB      32              0.0000000000
     42787      1292  PPPE      H15R           28.0124389940       -4.8435676119       -2.6326273055  MEMB      32              0.0000000000
     42788      1292  PPPE      H15S           26.9382280839       -5.8194179552       -2.7246137853  MEMB      32              0.0000000000
     42789      1292  PPPE      C216           27.5654762868       -5.2950689567       -0.5881501628  MEMB      32              0.0000000000
     42790      1292  PPPE      H16R           28.2065662344       -6.1834772872       -0.4997271967  MEMB      32              0.0000000000
     42791      1292  PPPE      H16S           27.6302304816       -4.3945850819        0.0205727890  MEMB      32              0.0000000000
     42792      1292  PPPE      H16T           27.0790096370       -5.5489070932        0.3236687784  MEMB      32              0.0000000000
     42793      1292  PPPE      C33            26.1722939335       -9.6675213854      -12.4363066249  MEMB      32              0.0000000000
     42794      1292  PPPE      H3X            27.1106712660       -9.0835157864      -12.2901917769  MEMB      32              0.0000000000
     42795      1292  PPPE      H3Y            26.3523746240      -10.4824458772      -13.1238840776  MEMB      32              0.0000000000
     42796      1292  PPPE      C34            25.7510405459      -10.3016318081      -11.1317838718  MEMB      32              0.0000000000
     42797      1292  PPPE      H4X            25.0684938741      -11.1810540243      -11.2555258151  MEMB      32              0.0000000000
     42798      1292  PPPE      H4Y            25.2711114475       -9.5070921995      -10.5497807753  MEMB      32              0.0000000000
     42799      1292  PPPE      C35            26.9039851803      -10.8188250524      -10.3546785408  MEMB      32              0.0000000000
     42800      1292  PPPE      H5X            27.8697632826      -10.2579284581      -10.4211424880  MEMB      32              0.0000000000
     42801      1292  PPPE      H5Y            27.0409295500      -11.8682607665      -10.7247281482  MEMB      32              0.0000000000
     42802      1292  PPPE      C36            26.6205892034      -10.9562774803       -8.9102850742  MEMB      32              0.0000000000
     42803      1292  PPPE      H6X            27.6731604268      -11.1990750294       -8.6580682421  MEMB      32              0.0000000000
     42804      1292  PPPE      H6Y            26.0851030046      -11.8657413858       -8.7361024665  MEMB      32              0.0000000000
     42805      1292  PPPE      C37            25.9405755405       -9.8670031963       -8.0271090946  MEMB      32              0.0000000000
     42806      1292  PPPE      H7X            24.8637781997       -9.8783271116       -8.3238221814  MEMB      32              0.0000000000
     42807      1292  PPPE      H7Y            26.5226202208       -8.9764161548       -8.2795929539  MEMB      32              0.0000000000
     42808      1292  PPPE      C38            25.8807259332       -9.9295720419       -6.4620153707  MEMB      32              0.0000000000
     42809      1292  PPPE      H8X            26.8070223365      -10.0129879943       -5.9064871243  MEMB      32              0.0000000000
     42810      1292  PPPE      H8Y            25.4746171007      -10.8982882956       -6.2531324107  MEMB      32              0.0000000000
     42811      1292  PPPE      C39            25.0208728954       -8.9425495380       -5.7008763155  MEMB      32              0.0000000000
     42812      1292  PPPE      H9X            24.0410986795       -8.9457228660       -6.2183705616  MEMB      32              0.0000000000
     42813      1292  PPPE      H9Y            25.4356083496       -7.9389299060       -5.7321083961  MEMB      32              0.0000000000
     42814      1292  PPPE      C310           24.8183127972       -9.3185190390       -4.2217911564  MEMB      32              0.0000000000
     42815      1292  PPPE      H10X           25.6984264065       -9.2398404645       -3.5653847144  MEMB      32              0.0000000000
     42816      1292  PPPE      H10Y           24.8713471765      -10.3636229632       -4.2544610565  MEMB      32              0.0000000000
     42817      1292  PPPE      C311           23.4304909980       -8.7908929908       -3.6864761947  MEMB      32              0.0000000000
     42818      1292  PPPE      H11X           22.5168751562       -8.9886396674       -4.2417041992  MEMB      32              0.0000000000
     42819      1292  PPPE      H11Y           23.4125458110       -7.7626602017       -4.0656593869  MEMB      32              0.0000000000
     42820      1292  PPPE      C312           23.1555884008       -9.0107235243       -2.1551285075  MEMB      32              0.0000000000
     42821      1292  PPPE      H12X           24.0481414548       -9.0651323058       -1.5901381794  MEMB      32              0.0000000000
     42822      1292  PPPE      H12Y           22.8093587978       -9.9431775075       -1.7291771005  MEMB      32              0.0000000000
     42823      1292  PPPE      C313           22.0430886691       -8.2186578103       -1.5866220661  MEMB      32              0.0000000000
     42824      1292  PPPE      H13X           21.2230724568       -8.6847465514       -2.1626179712  MEMB      32              0.0000000000
     42825      1292  PPPE      H13Y           22.1064338492       -7.1874441131       -1.9331555793  MEMB      32              0.0000000000
     42826      1292  PPPE      C314           21.9356547085       -8.4081028712       -0.0533333958  MEMB      32              0.0000000000
     42827      1292  PPPE      H14X           21.8567887226       -9.4809284418        0.2216648566  MEMB      32              0.0000000000
     42828      1292  PPPE      H14Y           21.1031753862       -7.8302228295        0.3950194026  MEMB      32              0.0000000000
     42829      1292  PPPE      C315           22.9886321663       -7.7615325027        0.7380435013  MEMB      32              0.0000000000
     42830      1292  PPPE      H15X           23.8625479946       -8.3365047782        0.3859034268  MEMB      32              0.0000000000
     42831      1292  PPPE      H15Y           22.9329116311       -7.9493627003        1.8236755704  MEMB      32              0.0000000000
     42832      1292  PPPE      C316           22.9616550057       -6.2519471901        0.4713715175  MEMB      32              0.0000000000
     42833      1292  PPPE      H16X           23.6313195699       -5.7793781350        1.2315263339  MEMB      32              0.0000000000
     42834      1292  PPPE      H16Y           23.3687885858       -6.0605525764       -0.5500946159  MEMB      32              0.0000000000
     42835      1292  PPPE      H16Z           22.1096522424       -5.6761415518        0.4918656870  MEMB      32              0.0000000000
     42836      1293  PPPE      N               4.5343344374       23.1133683231      -20.0530173859  MEMB      33              0.0000000000
     42837      1293  PPPE      HN1             3.7201065303       22.7435086706      -20.6178054638  MEMB      33              0.0000000000
     42838      1293  PPPE      HN2             5.2734371659       22.4031104996      -19.8822918673  MEMB      33              0.0000000000
     42839      1293  PPPE      HN3             4.1803405375       23.4341750095      -19.1252971940  MEMB      33              0.0000000000
     42840      1293  PPPE      C12             5.1241797913       24.2712409351      -20.8169327485  MEMB      33              0.0000000000
     42841      1293  PPPE      H12A            4.3973673878       25.1087794024      -20.7579399220  MEMB      33              0.0000000000
     42842      1293  PPPE      H12B            5.2555530237       23.9590889603      -21.8750498342  MEMB      33              0.0000000000
     42843      1293  PPPE      C11             6.5013684442       24.6617070683      -20.2667618359  MEMB      33              0.0000000000
     42844      1293  PPPE      H11A            6.8319870317       25.5876287783      -20.8074151060  MEMB      33              0.0000000000
     42845      1293  PPPE      H11B            7.2289916980       23.8531207691      -20.5218811791  MEMB      33              0.0000000000
     42846      1293  PPPE      P               7.7442407614       25.5207430781      -18.1508174594  MEMB      33              0.0000000000
     42847      1293  PPPE      O13             8.8849731684       25.2436928311      -19.0418715936  MEMB      33              0.0000000000
     42848      1293  PPPE      O14             7.4329345156       26.9505968045      -17.9396638769  MEMB      33              0.0000000000
     42849      1293  PPPE      O11             7.9543075165       24.7643860997      -16.7781192393  MEMB      33              0.0000000000
     42850      1293  PPPE      O12             6.4534559881       24.8457434331      -18.8472609755  MEMB      33              0.0000000000
     42851      1293  PPPE      C1              7.1644626422       23.6545820746      -16.3850066728  MEMB      33              0.0000000000
     42852      1293  PPPE      HA              7.8138968802       22.8631205653      -15.9401851503  MEMB      33              0.0000000000
     42853      1293  PPPE      HB              6.6484062812       23.1823254041      -17.2497688338  MEMB      33              0.0000000000
     42854      1293  PPPE      C2              6.1042105162       24.0836777803      -15.3391786505  MEMB      33              0.0000000000
     42855      1293  PPPE      HS              5.5137633986       24.9114020839      -15.7931614063  MEMB      33              0.0000000000
     42856      1293  PPPE      O21             6.7741367653       24.5266062641      -14.1302092160  MEMB      33              0.0000000000
     42857      1293  PPPE      C21             6.0360884047       25.0727046851      -13.1875484956  MEMB      33              0.0000000000
     42858      1293  PPPE      O22             4.8208045653       25.1821397182      -13.2061985504  MEMB      33              0.0000000000
     42859      1293  PPPE      C22             6.9416794117       25.5782428056      -12.0383683342  MEMB      33              0.0000000000
     42860      1293  PPPE      H2R             7.5189277074       26.4512968282      -12.4019767254  MEMB      33              0.0000000000
     42861      1293  PPPE      H2S             7.6639926600       24.7898883219      -11.7480238643  MEMB      33              0.0000000000
     42862      1293  PPPE      C3              5.1811941552       22.8732396386      -15.1005357714  MEMB      33              0.0000000000
     42863      1293  PPPE      HX              4.2375456002       23.1989969243      -14.5975816533  MEMB      33              0.0000000000
     42864      1293  PPPE      HY              4.9101670464       22.4368952568      -16.0896588984  MEMB      33              0.0000000000
     42865      1293  PPPE      O31             5.9634899306       21.9258724614      -14.3555776292  MEMB      33              0.0000000000
     42866      1293  PPPE      C31             5.2838415179       21.2413110172      -13.4702200247  MEMB      33              0.0000000000
     42867      1293  PPPE      O32             4.0710305172       21.1826500498      -13.3790351767  MEMB      33              0.0000000000
     42868      1293  PPPE      C32             6.2437283440       20.5907739992      -12.4808197769  MEMB      33              0.0000000000
     42869      1293  PPPE      H2X             7.2625806739       20.5361597224      -12.9184822830  MEMB      33              0.0000000000
     42870      1293  PPPE      H2Y             5.8473041559       19.5646194002      -12.3374252910  MEMB      33              0.0000000000
     42871      1293  PPPE      C23             6.0743066275       25.9876049124      -10.8239475690  MEMB      33              0.0000000000
     42872      1293  PPPE      H3R             5.6752930629       25.0526320998      -10.3733493060  MEMB      33              0.0000000000
     42873      1293  PPPE      H3S             5.2104670939       26.5822659926      -11.2053292545  MEMB      33              0.0000000000
     42874      1293  PPPE      C24             6.7697080341       26.8321598185       -9.7380694364  MEMB      33              0.0000000000
     42875      1293  PPPE      H4R             7.1658607487       27.7627947319      -10.2073603433  MEMB      33              0.0000000000
     42876      1293  PPPE      H4S             7.6164104903       26.2737567721       -9.2808968565  MEMB      33              0.0000000000
     42877      1293  PPPE      C25             5.8017887259       27.3186626272       -8.6421684701  MEMB      33              0.0000000000
     42878      1293  PPPE      H5R             4.8152376030       27.5498341166       -9.0983087771  MEMB      33              0.0000000000
     42879      1293  PPPE      H5S             6.1994399422       28.2738203864       -8.2219832799  MEMB      33              0.0000000000
     42880      1293  PPPE      C26             5.6608344566       26.3778345462       -7.4411355240  MEMB      33              0.0000000000
     42881      1293  PPPE      H6R             6.6456664068       26.3716747991       -6.9214896743  MEMB      33              0.0000000000
     42882      1293  PPPE      H6S             5.4528773969       25.3283422098       -7.7395629290  MEMB      33              0.0000000000
     42883      1293  PPPE      C27             4.5925853171       26.8537784551       -6.4367809658  MEMB      33              0.0000000000
     42884      1293  PPPE      H7R             3.6122405405       26.4412077087       -6.7549560198  MEMB      33              0.0000000000
     42885      1293  PPPE      H7S             4.5046927161       27.9645076377       -6.4520013640  MEMB      33              0.0000000000
     42886      1293  PPPE      C28             4.9037015966       26.3788442626       -5.0134314335  MEMB      33              0.0000000000
     42887      1293  PPPE      H8R             5.3031258081       25.3631079326       -5.0943586967  MEMB      33              0.0000000000
     42888      1293  PPPE      H8S             4.0185132575       26.3500416323       -4.3563240972  MEMB      33              0.0000000000
     42889      1293  PPPE      C29             5.9806340652       27.2123649157       -4.4526911946  MEMB      33              0.0000000000
     42890      1293  PPPE      H91             5.6775561563       28.2581286825       -4.2068152526  MEMB      33              0.0000000000
     42891      1293  PPPE      C210            7.1415756021       26.6739928715       -4.0133815745  MEMB      33              0.0000000000
     42892      1293  PPPE      H101            8.0469324597       27.2648620767       -3.8992691135  MEMB      33              0.0000000000
     42893      1293  PPPE      C211            7.7567572156       25.3636086184       -3.8830489202  MEMB      33              0.0000000000
     42894      1293  PPPE      H11R            8.7162516220       25.4740991340       -4.4407069719  MEMB      33              0.0000000000
     42895      1293  PPPE      H11S            7.0393694653       24.7162395477       -4.3667182702  MEMB      33              0.0000000000
     42896      1293  PPPE      C212            8.0440817274       24.8978664756       -2.4212087368  MEMB      33              0.0000000000
     42897      1293  PPPE      H12R            8.7410295724       25.5728880687       -1.8929885570  MEMB      33              0.0000000000
     42898      1293  PPPE      H12S            8.6724829921       23.9964672942       -2.4717424041  MEMB      33              0.0000000000
     42899      1293  PPPE      C213            6.7738700916       24.7275648001       -1.5356040266  MEMB      33              0.0000000000
     42900      1293  PPPE      H13R            6.0758905645       24.0046380999       -1.9777619462  MEMB      33              0.0000000000
     42901      1293  PPPE      H13S            6.1937470167       25.6818310507       -1.4783556097  MEMB      33              0.0000000000
     42902      1293  PPPE      C214            7.0101951452       24.4184852471       -0.0533676739  MEMB      33              0.0000000000
     42903      1293  PPPE      H14R            6.1435192849       24.7610618958        0.5568123298  MEMB      33              0.0000000000
     42904      1293  PPPE      H14S            7.8924902397       24.9649448533        0.2441075217  MEMB      33              0.0000000000
     42905      1293  PPPE      C215            7.5848620358       23.0989110183        0.3764460558  MEMB      33              0.0000000000
     42906      1293  PPPE      H15R            7.9450206761       23.2103701548        1.4366136246  MEMB      33              0.0000000000
     42907      1293  PPPE      H15S            8.4666592476       22.8852021047       -0.2633956037  MEMB      33              0.0000000000
     42908      1293  PPPE      C216            6.5728019971       21.9991853953        0.2996478002  MEMB      33              0.0000000000
     42909      1293  PPPE      H16R            5.6298657382       22.3417170360        0.7801704717  MEMB      33              0.0000000000
     42910      1293  PPPE      H16S            6.3506363718       21.7375714846       -0.7553400384  MEMB      33              0.0000000000
     42911      1293  PPPE      H16T            7.0050492567       21.1258985245        0.8285825980  MEMB      33              0.0000000000
     42912      1293  PPPE      C33             6.2487043040       21.3795859739      -11.1440504863  MEMB      33              0.0000000000
     42913      1293  PPPE      H3X             5.1939779645       21.5462426381      -10.8162304622  MEMB      33              0.0000000000
     42914      1293  PPPE      H3Y             6.7147523694       22.3695089373      -11.3174941029  MEMB      33              0.0000000000
     42915      1293  PPPE      C34             7.0104477989       20.6716681266      -10.0064324077  MEMB      33              0.0000000000
     42916      1293  PPPE      H4X             7.9800739066       20.2925781705      -10.3713590275  MEMB      33              0.0000000000
     42917      1293  PPPE      H4Y             6.3698736792       19.7907447524       -9.7667564029  MEMB      33              0.0000000000
     42918      1293  PPPE      C35             7.4343076040       21.5395017957       -8.7833964141  MEMB      33              0.0000000000
     42919      1293  PPPE      H5X             7.5665528950       22.6127397089       -9.0174522789  MEMB      33              0.0000000000
     42920      1293  PPPE      H5Y             8.1896696873       21.0518837064       -8.1272383381  MEMB      33              0.0000000000
     42921      1293  PPPE      C36             6.3602056182       21.5713067633       -7.7895920508  MEMB      33              0.0000000000
     42922      1293  PPPE      H6X             6.4084310301       20.5076557656       -7.4441970288  MEMB      33              0.0000000000
     42923      1293  PPPE      H6Y             5.6583927422       21.8940215747       -8.5488744027  MEMB      33              0.0000000000
     42924      1293  PPPE      C37             6.2262039105       22.5441659152       -6.6277415791  MEMB      33              0.0000000000
     42925      1293  PPPE      H7X             6.3739501073       23.5492916406       -7.0019645390  MEMB      33              0.0000000000
     42926      1293  PPPE      H7Y             6.9004857852       22.1245850953       -5.8366306364  MEMB      33              0.0000000000
     42927      1293  PPPE      C38             4.9337825658       23.2203428649       -5.9709918542  MEMB      33              0.0000000000
     42928      1293  PPPE      H8X             5.3066897379       23.3547124846       -4.9579335465  MEMB      33              0.0000000000
     42929      1293  PPPE      H8Y             4.5860786326       22.2761739413       -6.1703119858  MEMB      33              0.0000000000
     42930      1293  PPPE      C39             3.3318699815       23.2652055580       -6.0723764293  MEMB      33              0.0000000000
     42931      1293  PPPE      H9X             2.7205943019       22.3561806486       -6.2698057205  MEMB      33              0.0000000000
     42932      1293  PPPE      H9Y             3.4197717219       23.8952426958       -6.9574112187  MEMB      33              0.0000000000
     42933      1293  PPPE      C310            2.4057239720       23.8876875767       -5.0121456943  MEMB      33              0.0000000000
     42934      1293  PPPE      H10X            1.5194992387       24.2484494070       -5.5880145778  MEMB      33              0.0000000000
     42935      1293  PPPE      H10Y            3.0857878728       24.6497554598       -4.7083618475  MEMB      33              0.0000000000
     42936      1293  PPPE      C311            1.8323152631       23.1575766507       -3.7700566131  MEMB      33              0.0000000000
     42937      1293  PPPE      H11X            2.4808121863       22.5995348319       -3.0635788838  MEMB      33              0.0000000000
     42938      1293  PPPE      H11Y            1.0778311586       22.4821395096       -4.2155192709  MEMB      33              0.0000000000
     42939      1293  PPPE      C312            0.9954974571       23.8573463400       -2.8198889826  MEMB      33              0.0000000000
     42940      1293  PPPE      H12X            0.3973566943       23.0645312066       -2.2945581628  MEMB      33              0.0000000000
     42941      1293  PPPE      H12Y            0.4028645498       24.4349426824       -3.5431657187  MEMB      33              0.0000000000
     42942      1293  PPPE      C313            1.8638308230       24.6175822883       -1.8450819761  MEMB      33              0.0000000000
     42943      1293  PPPE      H13X            1.1228528364       25.0618147561       -1.1616247098  MEMB      33              0.0000000000
     42944      1293  PPPE      H13Y            2.3999623262       25.4249865675       -2.3839623317  MEMB      33              0.0000000000
     42945      1293  PPPE      C314            2.9543034987       23.8292663514       -1.0718475193  MEMB      33              0.0000000000
     42946      1293  PPPE      H14X            3.4976774785       24.5381100024       -0.4344750962  MEMB      33              0.0000000000
     42947      1293  PPPE      H14Y            3.7349770059       23.4599485563       -1.7790881200  MEMB      33              0.0000000000
     42948      1293  PPPE      C315            2.4705825556       22.6098227124       -0.2810155198  MEMB      33              0.0000000000
     42949      1293  PPPE      H15X            3.2555844474       22.1115809615        0.3176516918  MEMB      33              0.0000000000
     42950      1293  PPPE      H15Y            2.3758916421       21.8852906999       -1.0455268534  MEMB      33              0.0000000000
     42951      1293  PPPE      C316            1.1338791620       22.7245242460        0.4458913491  MEMB      33              0.0000000000
     42952      1293  PPPE      H16X            1.3495359529       23.1996146794        1.4103311217  MEMB      33              0.0000000000
     42953      1293  PPPE      H16Y            0.3829239464       23.3202968667       -0.1088500127  MEMB      33              0.0000000000
     42954      1293  PPPE      H16Z            0.6527566104       21.7626227127        0.6646911817  MEMB      33              0.0000000000
     42955      1294  PPPE      N              15.3549084704      -23.7218266993      -20.5755330483  MEMB      34              0.0000000000
     42956      1294  PPPE      HN1            14.4435752323      -24.0661371917      -20.1741230183  MEMB      34              0.0000000000
     42957      1294  PPPE      HN2            15.1400505673      -22.8266937514      -21.0793902690  MEMB      34              0.0000000000
     42958      1294  PPPE      HN3            15.7511325351      -24.4067244986      -21.2346598556  MEMB      34              0.0000000000
     42959      1294  PPPE      C12            16.3325218185      -23.4189766152      -19.4724715329  MEMB      34              0.0000000000
     42960      1294  PPPE      H12A           17.0811115166      -22.7368855837      -19.8699880816  MEMB      34              0.0000000000
     42961      1294  PPPE      H12B           16.8544693843      -24.3388339611      -19.1778407591  MEMB      34              0.0000000000
     42962      1294  PPPE      C11            15.6662449403      -22.7981573341      -18.2560262618  MEMB      34              0.0000000000
     42963      1294  PPPE      H11A           16.4172318233      -22.6713522320      -17.4428127806  MEMB      34              0.0000000000
     42964      1294  PPPE      H11B           14.8844249559      -23.5223682677      -17.9143390357  MEMB      34              0.0000000000
     42965      1294  PPPE      P              13.6471386105      -21.2369358195      -18.7924035283  MEMB      34              0.0000000000
     42966      1294  PPPE      O13            13.4741130492      -20.1375592507      -19.7537444229  MEMB      34              0.0000000000
     42967      1294  PPPE      O14            13.0355954644      -22.5324125092      -19.1740977477  MEMB      34              0.0000000000
     42968      1294  PPPE      O11            13.1236950237      -20.7610157880      -17.3914563974  MEMB      34              0.0000000000
     42969      1294  PPPE      O12            15.1780491919      -21.5073270572      -18.5868618905  MEMB      34              0.0000000000
     42970      1294  PPPE      C1             13.6421147604      -19.6824281051      -16.6148671560  MEMB      34              0.0000000000
     42971      1294  PPPE      HA             12.7944520003      -19.0248109922      -16.3198001492  MEMB      34              0.0000000000
     42972      1294  PPPE      HB             14.3767069575      -19.0549033943      -17.1772655788  MEMB      34              0.0000000000
     42973      1294  PPPE      C2             14.2844009164      -20.2425819643      -15.3174018060  MEMB      34              0.0000000000
     42974      1294  PPPE      HS             15.1925348637      -20.7976894466      -15.6645279895  MEMB      34              0.0000000000
     42975      1294  PPPE      O21            13.3346548468      -21.0916489573      -14.6373786961  MEMB      34              0.0000000000
     42976      1294  PPPE      C21            13.8406261186      -22.0893088405      -13.9436177325  MEMB      34              0.0000000000
     42977      1294  PPPE      O22            14.9874470738      -22.4944247421      -13.9947353567  MEMB      34              0.0000000000
     42978      1294  PPPE      C22            12.7872352457      -22.6560325440      -13.0024527887  MEMB      34              0.0000000000
     42979      1294  PPPE      H2R            13.2896210620      -23.3412969727      -12.2920317565  MEMB      34              0.0000000000
     42980      1294  PPPE      H2S            12.0510616351      -23.2332584934      -13.5982123088  MEMB      34              0.0000000000
     42981      1294  PPPE      C3             14.7820642739      -19.1403754855      -14.3372678737  MEMB      34              0.0000000000
     42982      1294  PPPE      HX             15.4714155002      -18.4974356892      -14.9307841053  MEMB      34              0.0000000000
     42983      1294  PPPE      HY             13.9633901625      -18.4625576908      -14.0047701736  MEMB      34              0.0000000000
     42984      1294  PPPE      O31            15.4043702393      -19.7324599859      -13.1647916552  MEMB      34              0.0000000000
     42985      1294  PPPE      C31            16.6593311515      -20.1473300497      -13.3754380255  MEMB      34              0.0000000000
     42986      1294  PPPE      O32            17.3004473326      -19.9415784847      -14.3857683797  MEMB      34              0.0000000000
     42987      1294  PPPE      C32            17.1859126937      -20.8517296275      -12.1215251624  MEMB      34              0.0000000000
     42988      1294  PPPE      H2X            18.2480765202      -21.1327676671      -12.2905090753  MEMB      34              0.0000000000
     42989      1294  PPPE      H2Y            16.6266755183      -21.8023613273      -11.9809863814  MEMB      34              0.0000000000
     42990      1294  PPPE      C23            12.0855924633      -21.5997575739      -12.1399903793  MEMB      34              0.0000000000
     42991      1294  PPPE      H3R            11.2157378620      -22.1415529094      -11.6972579783  MEMB      34              0.0000000000
     42992      1294  PPPE      H3S            11.6638723912      -20.7415592232      -12.7093890018  MEMB      34              0.0000000000
     42993      1294  PPPE      C24            12.9886789284      -21.0121227308      -11.0426677356  MEMB      34              0.0000000000
     42994      1294  PPPE      H4R            13.6278485933      -20.2209791460      -11.5022344749  MEMB      34              0.0000000000
     42995      1294  PPPE      H4S            13.6722608426      -21.7750504928      -10.6134400064  MEMB      34              0.0000000000
     42996      1294  PPPE      C25            12.0608140823      -20.3495660373      -10.0210810318  MEMB      34              0.0000000000
     42997      1294  PPPE      H5R            11.3314258265      -21.0777030416       -9.6048005496  MEMB      34              0.0000000000
     42998      1294  PPPE      H5S            11.4984154100      -19.6283918995      -10.6546661222  MEMB      34              0.0000000000
     42999      1294  PPPE      C26            12.6716591072      -19.5465816785       -8.8756823432  MEMB      34              0.0000000000
     43000      1294  PPPE      H6R            13.5776438604      -18.9964968116       -9.2076328604  MEMB      34              0.0000000000
     43001      1294  PPPE      H6S            12.9458660888      -20.2332324043       -8.0417277062  MEMB      34              0.0000000000
     43002      1294  PPPE      C27            11.7207531881      -18.4609826861       -8.3488381824  MEMB      34              0.0000000000
     43003      1294  PPPE      H7R            10.6910320042      -18.8770824090       -8.2559973327  MEMB      34              0.0000000000
     43004      1294  PPPE      H7S            11.6535049260      -17.6521236317       -9.1158576361  MEMB      34              0.0000000000
     43005      1294  PPPE      C28            12.2666440795      -17.9200562054       -7.0075007068  MEMB      34              0.0000000000
     43006      1294  PPPE      H8R            12.4856058353      -18.7916104668       -6.3622040128  MEMB      34              0.0000000000
     43007      1294  PPPE      H8S            11.5559369675      -17.4027539534       -6.3552413730  MEMB      34              0.0000000000
     43008      1294  PPPE      C29            13.3726316758      -16.9196367226       -7.2402006871  MEMB      34              0.0000000000
     43009      1294  PPPE      H91            13.0311048345      -15.9321517668       -7.5876108629  MEMB      34              0.0000000000
     43010      1294  PPPE      C210           14.6562672062      -17.0503526921       -6.9015069780  MEMB      34              0.0000000000
     43011      1294  PPPE      H101           15.3495881823      -16.2064686500       -7.0421702419  MEMB      34              0.0000000000
     43012      1294  PPPE      C211           15.2411971238      -18.2407209912       -6.2101691221  MEMB      34              0.0000000000
     43013      1294  PPPE      H11R           16.1338204641      -18.6315690779       -6.7483797407  MEMB      34              0.0000000000
     43014      1294  PPPE      H11S           14.5173591745      -19.0777369047       -6.0673764792  MEMB      34              0.0000000000
     43015      1294  PPPE      C212           15.7090319481      -17.7912222667       -4.8291793679  MEMB      34              0.0000000000
     43016      1294  PPPE      H12R           16.3587350075      -16.8890721707       -4.8664368018  MEMB      34              0.0000000000
     43017      1294  PPPE      H12S           16.2930910298      -18.6579050104       -4.4513512723  MEMB      34              0.0000000000
     43018      1294  PPPE      C213           14.6039134195      -17.5835446599       -3.7971219238  MEMB      34              0.0000000000
     43019      1294  PPPE      H13R           13.7819048404      -18.2992626546       -4.0273682271  MEMB      34              0.0000000000
     43020      1294  PPPE      H13S           14.1757409937      -16.5606113623       -3.8758922287  MEMB      34              0.0000000000
     43021      1294  PPPE      C214           15.1607399215      -17.8576711646       -2.3920541868  MEMB      34              0.0000000000
     43022      1294  PPPE      H14R           16.2657681916      -17.7099996913       -2.3480581259  MEMB      34              0.0000000000
     43023      1294  PPPE      H14S           14.9933744062      -18.9287559795       -2.1503044175  MEMB      34              0.0000000000
     43024      1294  PPPE      C215           14.4699945851      -17.0416673115       -1.3082763263  MEMB      34              0.0000000000
     43025      1294  PPPE      H15R           13.3708123024      -17.1495935080       -1.4431656572  MEMB      34              0.0000000000
     43026      1294  PPPE      H15S           14.7329173960      -15.9618995566       -1.3999932384  MEMB      34              0.0000000000
     43027      1294  PPPE      C216           14.8284039383      -17.5411960367        0.0768804599  MEMB      34              0.0000000000
     43028      1294  PPPE      H16R           14.1695134050      -17.0714252563        0.8395374807  MEMB      34              0.0000000000
     43029      1294  PPPE      H16S           14.7246628818      -18.6460333469        0.1636461053  MEMB      34              0.0000000000
     43030      1294  PPPE      H16T           15.8803509958      -17.2727375344        0.3101969416  MEMB      34              0.0000000000
     43031      1294  PPPE      C33            17.0338562590      -19.9312447957      -10.8867680949  MEMB      34              0.0000000000
     43032      1294  PPPE      H3X            15.9710156014      -19.6341275984      -10.7381237941  MEMB      34              0.0000000000
     43033      1294  PPPE      H3Y            17.5847114810      -18.9768888416      -11.0206323464  MEMB      34              0.0000000000
     43034      1294  PPPE      C34            17.5487397015      -20.5876674184       -9.6125987133  MEMB      34              0.0000000000
     43035      1294  PPPE      H4X            17.6980929551      -19.7963082982       -8.8424976458  MEMB      34              0.0000000000
     43036      1294  PPPE      H4Y            18.5112270806      -21.1005305350       -9.8449392638  MEMB      34              0.0000000000
     43037      1294  PPPE      C35            16.5633351420      -21.6242640666       -9.1101627770  MEMB      34              0.0000000000
     43038      1294  PPPE      H5X            16.5379854140      -22.4539712214       -9.8640738611  MEMB      34              0.0000000000
     43039      1294  PPPE      H5Y            15.5589082101      -21.1793792530       -8.9707118904  MEMB      34              0.0000000000
     43040      1294  PPPE      C36            16.8749245843      -22.2059122379       -7.7566229875  MEMB      34              0.0000000000
     43041      1294  PPPE      H6X            17.8825058961      -21.9012806476       -7.3882981916  MEMB      34              0.0000000000
     43042      1294  PPPE      H6Y            16.8042333605      -23.2845573651       -8.0298720065  MEMB      34              0.0000000000
     43043      1294  PPPE      C37            15.8011446744      -21.9790912658       -6.6839807418  MEMB      34              0.0000000000
     43044      1294  PPPE      H7X            14.8909574700      -22.4996643782       -7.0424372697  MEMB      34              0.0000000000
     43045      1294  PPPE      H7Y            15.6120393028      -20.9008783549       -6.6145952829  MEMB      34              0.0000000000
     43046      1294  PPPE      C38            16.1183123895      -22.4702308162       -5.2687357360  MEMB      34              0.0000000000
     43047      1294  PPPE      H8X            17.1839894733      -22.2852607029       -4.9919394037  MEMB      34              0.0000000000
     43048      1294  PPPE      H8Y            15.9646818545      -23.5538360415       -5.2798776969  MEMB      34              0.0000000000
     43049      1294  PPPE      C39            15.2628798522      -21.9232033179       -4.1145224302  MEMB      34              0.0000000000
     43050      1294  PPPE      H9X            15.5605798185      -20.8665630122       -3.9874222863  MEMB      34              0.0000000000
     43051      1294  PPPE      H9Y            15.5378493215      -22.5116173911       -3.2087929615  MEMB      34              0.0000000000
     43052      1294  PPPE      C310           13.7473284856      -21.8033924285       -4.2710980861  MEMB      34              0.0000000000
     43053      1294  PPPE      H10X           13.2099612955      -22.7244193291       -4.2864016851  MEMB      34              0.0000000000
     43054      1294  PPPE      H10Y           13.5022706753      -21.2724123095       -5.2110545301  MEMB      34              0.0000000000
     43055      1294  PPPE      C311           13.0209736771      -21.2343211458       -3.0571666573  MEMB      34              0.0000000000
     43056      1294  PPPE      H11X           13.6199877889      -20.4152536037       -2.6466389081  MEMB      34              0.0000000000
     43057      1294  PPPE      H11Y           12.8739097342      -21.9171688096       -2.1997376078  MEMB      34              0.0000000000
     43058      1294  PPPE      C312           11.6139500389      -20.8079144317       -3.4160891598  MEMB      34              0.0000000000
     43059      1294  PPPE      H12X           10.9209134557      -21.6673171860       -3.5795126048  MEMB      34              0.0000000000
     43060      1294  PPPE      H12Y           11.6762441388      -20.2431483932       -4.3671697714  MEMB      34              0.0000000000
     43061      1294  PPPE      C313           11.1057884597      -19.9055844248       -2.3092442325  MEMB      34              0.0000000000
     43062      1294  PPPE      H13X           10.1128782840      -19.5369993876       -2.6359156508  MEMB      34              0.0000000000
     43063      1294  PPPE      H13Y           11.8074958668      -19.0365228387       -2.2285832431  MEMB      34              0.0000000000
     43064      1294  PPPE      C314           10.9891002370      -20.6372753401       -0.9556305195  MEMB      34              0.0000000000
     43065      1294  PPPE      H14X           11.9981965058      -20.7086281834       -0.4767169920  MEMB      34              0.0000000000
     43066      1294  PPPE      H14Y           10.5529026079      -21.6390415554       -1.0701729942  MEMB      34              0.0000000000
     43067      1294  PPPE      C315            9.9840190529      -20.0015962491       -0.0526008508  MEMB      34              0.0000000000
     43068      1294  PPPE      H15X            9.5608421392      -20.5497216907        0.8146069589  MEMB      34              0.0000000000
     43069      1294  PPPE      H15Y            9.1780702122      -19.5058111157       -0.6577777866  MEMB      34              0.0000000000
     43070      1294  PPPE      C316           10.6608309754      -18.9262811347        0.5656818285  MEMB      34              0.0000000000
     43071      1294  PPPE      H16X           11.2560026608      -19.0439623450        1.5038096597  MEMB      34              0.0000000000
     43072      1294  PPPE      H16Y           11.2598225763      -18.3533458993       -0.1803530554  MEMB      34              0.0000000000
     43073      1294  PPPE      H16Z            9.7654247282      -18.2989545579        0.7932116369  MEMB      34              0.0000000000
     43074      1295  PPPE      N             -25.4333109429        2.4472710604      -22.2574895780  MEMB      35              0.0000000000
     43075      1295  PPPE      HN1           -24.5793671662        3.0503565027      -22.2363796543  MEMB      35              0.0000000000
     43076      1295  PPPE      HN2           -25.2600499176        1.6036977302      -22.8437871420  MEMB      35              0.0000000000
     43077      1295  PPPE      HN3           -26.2104656915        2.9939627363      -22.6682901855  MEMB      35              0.0000000000
     43078      1295  PPPE      C12           -25.8718182810        2.0637920390      -20.8617058998  MEMB      35              0.0000000000
     43079      1295  PPPE      H12A          -24.9721176237        1.9657901748      -20.2205591307  MEMB      35              0.0000000000
     43080      1295  PPPE      H12B          -26.3657248868        1.0734972098      -20.9436403018  MEMB      35              0.0000000000
     43081      1295  PPPE      C11           -26.7821284249        3.1625637238      -20.2763483915  MEMB      35              0.0000000000
     43082      1295  PPPE      H11A          -27.7301887116        3.2653840760      -20.8574533237  MEMB      35              0.0000000000
     43083      1295  PPPE      H11B          -26.2491411219        4.1341733426      -20.3882434260  MEMB      35              0.0000000000
     43084      1295  PPPE      P             -26.2332764854        3.4929875589      -17.6817127147  MEMB      35              0.0000000000
     43085      1295  PPPE      O13           -24.9338854801        3.8419592595      -18.2930931655  MEMB      35              0.0000000000
     43086      1295  PPPE      O14           -27.0366303626        4.5152206656      -16.9763682656  MEMB      35              0.0000000000
     43087      1295  PPPE      O11           -26.1483538066        2.1445251579      -16.8431168890  MEMB      35              0.0000000000
     43088      1295  PPPE      O12           -27.0972105096        2.9219682353      -18.9037658970  MEMB      35              0.0000000000
     43089      1295  PPPE      C1            -27.2654934460        1.8017637233      -16.0152085168  MEMB      35              0.0000000000
     43090      1295  PPPE      HA            -27.3892132280        0.6984996640      -15.9931440896  MEMB      35              0.0000000000
     43091      1295  PPPE      HB            -28.2336663538        2.2041370264      -16.4067222762  MEMB      35              0.0000000000
     43092      1295  PPPE      C2            -26.9382359212        2.1640781508      -14.5510974945  MEMB      35              0.0000000000
     43093      1295  PPPE      HS            -26.7582343731        3.2644954260      -14.4771520832  MEMB      35              0.0000000000
     43094      1295  PPPE      O21           -25.7944747240        1.3397024616      -14.1836007945  MEMB      35              0.0000000000
     43095      1295  PPPE      C21           -24.7694719727        2.0130503639      -13.6953951320  MEMB      35              0.0000000000
     43096      1295  PPPE      O22           -24.7536349478        3.1709100884      -13.3865512273  MEMB      35              0.0000000000
     43097      1295  PPPE      C22           -23.5777785434        1.1422119905      -13.3755666771  MEMB      35              0.0000000000
     43098      1295  PPPE      H2R           -22.7999703630        1.8074890663      -12.9277145740  MEMB      35              0.0000000000
     43099      1295  PPPE      H2S           -23.1859329618        0.7039931749      -14.3076985161  MEMB      35              0.0000000000
     43100      1295  PPPE      C3            -28.1492960867        1.8476736791      -13.6442056642  MEMB      35              0.0000000000
     43101      1295  PPPE      HX            -29.0564389912        2.4085526055      -13.9884234374  MEMB      35              0.0000000000
     43102      1295  PPPE      HY            -28.3365341509        0.7616570308      -13.7612113901  MEMB      35              0.0000000000
     43103      1295  PPPE      O31           -27.8859971460        2.0634671961      -12.2595785797  MEMB      35              0.0000000000
     43104      1295  PPPE      C31           -27.8995389853        3.3317478993      -11.9159138537  MEMB      35              0.0000000000
     43105      1295  PPPE      O32           -28.2340811031        4.2709598296      -12.6146800560  MEMB      35              0.0000000000
     43106      1295  PPPE      C32           -27.5038569128        3.3900484648      -10.4528253250  MEMB      35              0.0000000000
     43107      1295  PPPE      H2X           -27.3809801149        2.4039516964       -9.9858060699  MEMB      35              0.0000000000
     43108      1295  PPPE      H2Y           -28.1372781745        4.1192378665       -9.9081895500  MEMB      35              0.0000000000
     43109      1295  PPPE      C23           -23.9511924553        0.0963129772      -12.3143009180  MEMB      35              0.0000000000
     43110      1295  PPPE      H3R           -22.9904266955       -0.2701219500      -11.8927836429  MEMB      35              0.0000000000
     43111      1295  PPPE      H3S           -24.4822194447       -0.7568189938      -12.7860464668  MEMB      35              0.0000000000
     43112      1295  PPPE      C24           -24.8008765648        0.6505652238      -11.1554430726  MEMB      35              0.0000000000
     43113      1295  PPPE      H4R           -25.7325456218        1.1373883331      -11.5197179727  MEMB      35              0.0000000000
     43114      1295  PPPE      H4S           -24.1917340799        1.4103364699      -10.6290189828  MEMB      35              0.0000000000
     43115      1295  PPPE      C25           -25.2294908869       -0.4421285925      -10.1663644011  MEMB      35              0.0000000000
     43116      1295  PPPE      H5R           -24.2978193621       -0.9024478350       -9.7759960294  MEMB      35              0.0000000000
     43117      1295  PPPE      H5S           -25.7758633517       -1.1863422185      -10.7762937439  MEMB      35              0.0000000000
     43118      1295  PPPE      C26           -26.0503765405        0.1028763116       -8.9774171982  MEMB      35              0.0000000000
     43119      1295  PPPE      H6R           -27.0892081416        0.3671988154       -9.2726103174  MEMB      35              0.0000000000
     43120      1295  PPPE      H6S           -25.5103352607        1.0366226749       -8.7059304648  MEMB      35              0.0000000000
     43121      1295  PPPE      C27           -26.1057606501       -0.7324055001       -7.6795140173  MEMB      35              0.0000000000
     43122      1295  PPPE      H7R           -25.0728207756       -0.8090493585       -7.2863189514  MEMB      35              0.0000000000
     43123      1295  PPPE      H7S           -26.5027104840       -1.7516762669       -7.8581941691  MEMB      35              0.0000000000
     43124      1295  PPPE      C28           -26.9858082688       -0.0667445653       -6.6004803669  MEMB      35              0.0000000000
     43125      1295  PPPE      H8R           -28.0458744012       -0.1921064563       -6.9124625433  MEMB      35              0.0000000000
     43126      1295  PPPE      H8S           -26.7651232396        1.0233614947       -6.6061952463  MEMB      35              0.0000000000
     43127      1295  PPPE      C29           -26.7773170398       -0.6246331882       -5.2162111767  MEMB      35              0.0000000000
     43128      1295  PPPE      H91           -27.3584509103       -1.5279808036       -4.9661573614  MEMB      35              0.0000000000
     43129      1295  PPPE      C210          -26.0846439087       -0.0117773550       -4.2424455873  MEMB      35              0.0000000000
     43130      1295  PPPE      H101          -25.9867352379       -0.4919183718       -3.2596830933  MEMB      35              0.0000000000
     43131      1295  PPPE      C211          -25.3898409618        1.3199305693       -4.3128177416  MEMB      35              0.0000000000
     43132      1295  PPPE      H11R          -24.8767087946        1.5046017318       -5.2859080825  MEMB      35              0.0000000000
     43133      1295  PPPE      H11S          -24.6139587158        1.3338037811       -3.5215661204  MEMB      35              0.0000000000
     43134      1295  PPPE      C212          -26.3698290986        2.4861609940       -4.0817446649  MEMB      35              0.0000000000
     43135      1295  PPPE      H12R          -27.0313338449        2.5470499818       -4.9796445827  MEMB      35              0.0000000000
     43136      1295  PPPE      H12S          -25.7799107114        3.4250728188       -4.0187626661  MEMB      35              0.0000000000
     43137      1295  PPPE      C213          -27.2282010279        2.3712630101       -2.8086179211  MEMB      35              0.0000000000
     43138      1295  PPPE      H13R          -27.7517269108        1.3913606481       -2.8299143233  MEMB      35              0.0000000000
     43139      1295  PPPE      H13S          -27.9692985545        3.1983055573       -2.7497708503  MEMB      35              0.0000000000
     43140      1295  PPPE      C214          -26.4749787407        2.3382455728       -1.4879081813  MEMB      35              0.0000000000
     43141      1295  PPPE      H14R          -25.6916829708        1.5533920472       -1.5914767184  MEMB      35              0.0000000000
     43142      1295  PPPE      H14S          -27.1822448426        2.0143479060       -0.6905562156  MEMB      35              0.0000000000
     43143      1295  PPPE      C215          -25.8334316365        3.6669804839       -1.0704476441  MEMB      35              0.0000000000
     43144      1295  PPPE      H15R          -25.1685179876        4.0133275863       -1.8921379317  MEMB      35              0.0000000000
     43145      1295  PPPE      H15S          -25.1813033256        3.4102213120       -0.2118630170  MEMB      35              0.0000000000
     43146      1295  PPPE      C216          -26.7479634956        4.8205796989       -0.6192649544  MEMB      35              0.0000000000
     43147      1295  PPPE      H16R          -27.1308501057        5.3703887577       -1.5040493469  MEMB      35              0.0000000000
     43148      1295  PPPE      H16S          -27.5991589739        4.4868317286        0.0142266987  MEMB      35              0.0000000000
     43149      1295  PPPE      H16T          -26.1566356841        5.5393683625       -0.0079279342  MEMB      35              0.0000000000
     43150      1295  PPPE      C33           -26.1567686275        3.9414515589      -10.3102614982  MEMB      35              0.0000000000
     43151      1295  PPPE      H3X           -26.4129997866        4.9579047577      -10.6799015571  MEMB      35              0.0000000000
     43152      1295  PPPE      H3Y           -25.3962331227        3.3780509680      -10.9094117845  MEMB      35              0.0000000000
     43153      1295  PPPE      C34           -25.6751065084        4.0798535942       -8.9021744966  MEMB      35              0.0000000000
     43154      1295  PPPE      H4X           -25.4501385223        3.1616489863       -8.3719205692  MEMB      35              0.0000000000
     43155      1295  PPPE      H4Y           -26.2625653855        4.8693922356       -8.3441266889  MEMB      35              0.0000000000
     43156      1295  PPPE      C35           -24.3192111318        4.6020567736       -8.9324050761  MEMB      35              0.0000000000
     43157      1295  PPPE      H5X           -24.0599036089        4.9977039581       -7.9355892172  MEMB      35              0.0000000000
     43158      1295  PPPE      H5Y           -24.7256253357        5.3882216935       -9.5628643148  MEMB      35              0.0000000000
     43159      1295  PPPE      C36           -23.1010480147        3.9882148375       -9.6429652543  MEMB      35              0.0000000000
     43160      1295  PPPE      H6X           -22.1403712148        4.5862884695       -9.5707456014  MEMB      35              0.0000000000
     43161      1295  PPPE      H6Y           -23.1150199280        3.8425167959      -10.7236936385  MEMB      35              0.0000000000
     43162      1295  PPPE      C37           -22.8541300123        2.9354386947       -8.7673953993  MEMB      35              0.0000000000
     43163      1295  PPPE      H7X           -23.5540526340        2.1289704321       -8.8406443451  MEMB      35              0.0000000000
     43164      1295  PPPE      H7Y           -22.6731632832        3.3713358828       -7.7696543508  MEMB      35              0.0000000000
     43165      1295  PPPE      C38           -21.6435155665        2.3911143895       -8.9865521011  MEMB      35              0.0000000000
     43166      1295  PPPE      H8X           -21.0670556889        3.3841459440       -8.9829815847  MEMB      35              0.0000000000
     43167      1295  PPPE      H8Y           -21.2594536483        2.0726049300       -9.8921818237  MEMB      35              0.0000000000
     43168      1295  PPPE      C39           -21.5078585384        1.2223951705       -7.9428526777  MEMB      35              0.0000000000
     43169      1295  PPPE      H9X           -20.6209464851        0.5402004567       -7.9934959168  MEMB      35              0.0000000000
     43170      1295  PPPE      H9Y           -22.0130297146        0.4055768507       -8.4410859173  MEMB      35              0.0000000000
     43171      1295  PPPE      C310          -21.6173861236        1.7066854293       -6.4340105175  MEMB      35              0.0000000000
     43172      1295  PPPE      H10X          -22.5596161987        2.1890944246       -6.2283165835  MEMB      35              0.0000000000
     43173      1295  PPPE      H10Y          -20.9487819314        2.5266666199       -6.0647784956  MEMB      35              0.0000000000
     43174      1295  PPPE      C311          -20.8991440238        0.8938637712       -5.3551389489  MEMB      35              0.0000000000
     43175      1295  PPPE      H11X          -20.0295575455        0.2306255208       -5.2060763984  MEMB      35              0.0000000000
     43176      1295  PPPE      H11Y          -20.7061515962        0.1579456782       -6.1305133135  MEMB      35              0.0000000000
     43177      1295  PPPE      C312          -21.7199541578        0.9756436132       -4.1792661736  MEMB      35              0.0000000000
     43178      1295  PPPE      H12X          -22.3289068310        0.1336065652       -3.9778940827  MEMB      35              0.0000000000
     43179      1295  PPPE      H12Y          -22.6326451609        1.5211911506       -4.4201825954  MEMB      35              0.0000000000
     43180      1295  PPPE      C313          -20.9141146143        1.4355379269       -3.0334442653  MEMB      35              0.0000000000
     43181      1295  PPPE      H13X          -20.3233214607        2.2939798095       -3.4137522149  MEMB      35              0.0000000000
     43182      1295  PPPE      H13Y          -20.1467473389        0.7305312577       -2.6355941578  MEMB      35              0.0000000000
     43183      1295  PPPE      C314          -21.9723885542        1.7906906903       -2.0404770887  MEMB      35              0.0000000000
     43184      1295  PPPE      H14X          -22.4931363588        0.9031172383       -1.6489287279  MEMB      35              0.0000000000
     43185      1295  PPPE      H14Y          -22.7112645969        2.3998488555       -2.6227492550  MEMB      35              0.0000000000
     43186      1295  PPPE      C315          -21.2981594961        2.6187515190       -1.0128458364  MEMB      35              0.0000000000
     43187      1295  PPPE      H15X          -20.6926397398        3.1767428792       -1.7447397713  MEMB      35              0.0000000000
     43188      1295  PPPE      H15Y          -20.4564098510        2.1990190375       -0.4469146403  MEMB      35              0.0000000000
     43189      1295  PPPE      C316          -22.2253212622        3.4296728725       -0.0983272222  MEMB      35              0.0000000000
     43190      1295  PPPE      H16X          -21.5967675630        3.8964296349        0.6931662041  MEMB      35              0.0000000000
     43191      1295  PPPE      H16Y          -22.7904737287        4.2368376868       -0.6209299608  MEMB      35              0.0000000000
     43192      1295  PPPE      H16Z          -22.9794254787        2.7842736548        0.3601995904  MEMB      35              0.0000000000
     43193      1296  PVPG      C13           -26.4855277630        9.0604453781      -21.5922886581  MEMB      36              0.0000000000
     43194      1296  PVPG      H13A          -26.3971572811        8.1078361690      -22.1547893040  MEMB      36              0.0000000000
     43195      1296  PVPG      H13B          -27.5146149709        9.2379860046      -21.2208150757  MEMB      36              0.0000000000
     43196      1296  PVPG      OC3           -26.2192832508       10.1314356527      -22.4891859715  MEMB      36              0.0000000000
     43197      1296  PVPG      HO3           -26.9278536771       10.7714415962      -22.3616569276  MEMB      36              0.0000000000
     43198      1296  PVPG      C12           -25.5759643502        8.9777945993      -20.3364940249  MEMB      36              0.0000000000
     43199      1296  PVPG      H12A          -24.5041550991        8.9147871584      -20.6311230152  MEMB      36              0.0000000000
     43200      1296  PVPG      OC2           -25.8974946822        7.7827676183      -19.6191979042  MEMB      36              0.0000000000
     43201      1296  PVPG      HO2           -25.4330084670        7.9111859665      -18.7668932654  MEMB      36              0.0000000000
     43202      1296  PVPG      C11           -25.7646299806       10.2096833931      -19.4230030600  MEMB      36              0.0000000000
     43203      1296  PVPG      H11A          -26.8381391500       10.3518510597      -19.1647198097  MEMB      36              0.0000000000
     43204      1296  PVPG      H11B          -25.4345991854       11.1098616946      -20.0048149926  MEMB      36              0.0000000000
     43205      1296  PVPG      P             -24.9988897460       11.2956317590      -17.2333000457  MEMB      36              0.0000000000
     43206      1296  PVPG      O13           -24.7200767028       12.5081338763      -18.0405566960  MEMB      36              0.0000000000
     43207      1296  PVPG      O14           -24.1064304384       10.9328951921      -16.1124727531  MEMB      36              0.0000000000
     43208      1296  PVPG      O12           -25.0097570704       10.0437885798      -18.2195104490  MEMB      36              0.0000000000
     43209      1296  PVPG      O11           -26.5315204024       11.4131309676      -16.7872212207  MEMB      36              0.0000000000
     43210      1296  PVPG      C1            -27.2167934440       10.3415841741      -16.1356812740  MEMB      36              0.0000000000
     43211      1296  PVPG      HA            -26.6519078054        9.3851305047      -16.2019235093  MEMB      36              0.0000000000
     43212      1296  PVPG      HB            -28.1920839435       10.1468193108      -16.6422082077  MEMB      36              0.0000000000
     43213      1296  PVPG      C2            -27.5606876696       10.6316004813      -14.6381729937  MEMB      36              0.0000000000
     43214      1296  PVPG      HS            -28.4076487216       11.3510126500      -14.6407009465  MEMB      36              0.0000000000
     43215      1296  PVPG      O21           -26.4367247819       11.1866809362      -13.9161354339  MEMB      36              0.0000000000
     43216      1296  PVPG      C21           -26.7880559588       11.8090575039      -12.7932918697  MEMB      36              0.0000000000
     43217      1296  PVPG      O22           -27.9373449790       11.9384852272      -12.4039718276  MEMB      36              0.0000000000
     43218      1296  PVPG      C22           -25.5563716160       12.3779351605      -12.0759790294  MEMB      36              0.0000000000
     43219      1296  PVPG      H2R           -25.4286444526       13.4182638950      -12.4284497383  MEMB      36              0.0000000000
     43220      1296  PVPG      H2S           -24.6647930580       11.7809661329      -12.3496347224  MEMB      36              0.0000000000
     43221      1296  PVPG      C3            -28.0446381510        9.3195543323      -13.9744011316  MEMB      36              0.0000000000
     43222      1296  PVPG      HX            -28.2226639685        9.4362127899      -12.8842403619  MEMB      36              0.0000000000
     43223      1296  PVPG      HY            -28.9875250429        9.0090603634      -14.4610086603  MEMB      36              0.0000000000
     43224      1296  PVPG      O31           -27.1523726253        8.2642765488      -14.2115488974  MEMB      36              0.0000000000
     43225      1296  PVPG      C31           -26.2764440448        8.1214859606      -13.3021848734  MEMB      36              0.0000000000
     43226      1296  PVPG      O32           -26.0655704167        8.7713282998      -12.2916590047  MEMB      36              0.0000000000
     43227      1296  PVPG      C32           -25.4068088530        7.1553425707      -13.8370158954  MEMB      36              0.0000000000
     43228      1296  PVPG      H2X           -24.5103387650        7.6365255879      -13.3702978354  MEMB      36              0.0000000000
     43229      1296  PVPG      H2Y           -25.4120838520        7.0632146969      -14.9570397425  MEMB      36              0.0000000000
     43230      1296  PVPG      C23           -25.6765492560       12.4279059254      -10.5303335137  MEMB      36              0.0000000000
     43231      1296  PVPG      H3R           -26.6443652961       12.8912284973      -10.2410559835  MEMB      36              0.0000000000
     43232      1296  PVPG      H3S           -24.8477846645       13.0984314997      -10.1981914335  MEMB      36              0.0000000000
     43233      1296  PVPG      C24           -25.5133494558       11.0337235904       -9.9051377269  MEMB      36              0.0000000000
     43234      1296  PVPG      H4R           -24.6153613715       10.5654223876      -10.3645448447  MEMB      36              0.0000000000
     43235      1296  PVPG      H4S           -26.3910370338       10.3929606596      -10.1610214600  MEMB      36              0.0000000000
     43236      1296  PVPG      C25           -25.4651264839       10.9327741292       -8.3733500721  MEMB      36              0.0000000000
     43237      1296  PVPG      H5R           -25.3499819988        9.8653136370       -8.1282259197  MEMB      36              0.0000000000
     43238      1296  PVPG      H5S           -26.4648297553       11.2051030744       -7.9791341074  MEMB      36              0.0000000000
     43239      1296  PVPG      C26           -24.4273551885       11.7829507139       -7.6361065787  MEMB      36              0.0000000000
     43240      1296  PVPG      H6R           -24.4960161576       11.5723394262       -6.5530705685  MEMB      36              0.0000000000
     43241      1296  PVPG      H6S           -24.7401563365       12.8359965241       -7.7716116512  MEMB      36              0.0000000000
     43242      1296  PVPG      C27           -22.9725269178       11.5882440318       -8.0715264347  MEMB      36              0.0000000000
     43243      1296  PVPG      H7R           -22.8048835480       12.2281941188       -8.9612703523  MEMB      36              0.0000000000
     43244      1296  PVPG      H7S           -22.7938624229       10.5539875477       -8.3861214656  MEMB      36              0.0000000000
     43245      1296  PVPG      C28           -21.9592670913       11.7470626028       -6.9281096855  MEMB      36              0.0000000000
     43246      1296  PVPG      H8R           -22.0284132326       10.9350391851       -6.2312241928  MEMB      36              0.0000000000
     43247      1296  PVPG      H8S           -22.1503104798       12.6847582419       -6.3570530694  MEMB      36              0.0000000000
     43248      1296  PVPG      C29           -20.5020636743       11.5604090766       -7.3262817003  MEMB      36              0.0000000000
     43249      1296  PVPG      H9R           -20.3035742704       12.3092464080       -8.0150966637  MEMB      36              0.0000000000
     43250      1296  PVPG      H9S           -20.2668721201       10.7937761381       -8.0640047596  MEMB      36              0.0000000000
     43251      1296  PVPG      C210          -19.4820844022       11.7916121778       -6.2113582544  MEMB      36              0.0000000000
     43252      1296  PVPG      H10R          -19.6670619542       12.7412051227       -5.7015810380  MEMB      36              0.0000000000
     43253      1296  PVPG      H10S          -18.4790830731       11.9023985729       -6.6882026976  MEMB      36              0.0000000000
     43254      1296  PVPG      C211          -19.5267694908       10.8521529629       -5.1180646032  MEMB      36              0.0000000000
     43255      1296  PVPG      H111          -19.1154717961        9.8971236204       -5.4318593862  MEMB      36              0.0000000000
     43256      1296  PVPG      C212          -20.1119060848       11.0934932271       -3.9367125735  MEMB      36              0.0000000000
     43257      1296  PVPG      H121          -20.1311751218       10.2662935308       -3.2286669168  MEMB      36              0.0000000000
     43258      1296  PVPG      C213          -20.8439445261       12.3439287352       -3.4684256226  MEMB      36              0.0000000000
     43259      1296  PVPG      H13R          -21.4114265427       12.8691854973       -4.2728986358  MEMB      36              0.0000000000
     43260      1296  PVPG      H13S          -20.1831053204       13.1022706522       -2.9752042389  MEMB      36              0.0000000000
     43261      1296  PVPG      C214          -21.8568804766       11.8371012680       -2.4403380829  MEMB      36              0.0000000000
     43262      1296  PVPG      H14R          -21.3230172421       11.1465591279       -1.7492021771  MEMB      36              0.0000000000
     43263      1296  PVPG      H14S          -22.6772515567       11.2806691507       -2.9433516799  MEMB      36              0.0000000000
     43264      1296  PVPG      C215          -22.4234282939       12.9429000170       -1.5678122727  MEMB      36              0.0000000000
     43265      1296  PVPG      H15R          -21.5621988797       13.3920462238       -1.0262211302  MEMB      36              0.0000000000
     43266      1296  PVPG      H15S          -23.1229269369       12.5171217275       -0.8175450571  MEMB      36              0.0000000000
     43267      1296  PVPG      C216          -23.1294606652       14.0359761774       -2.3465626892  MEMB      36              0.0000000000
     43268      1296  PVPG      H16R          -24.1081011824       13.6560679385       -2.7388100026  MEMB      36              0.0000000000
     43269      1296  PVPG      H16S          -22.5422034407       14.3806672138       -3.2186211862  MEMB      36              0.0000000000
     43270      1296  PVPG      C217          -23.2955860737       15.2526687245       -1.4579332703  MEMB      36              0.0000000000
     43271      1296  PVPG      H17R          -23.5881567529       16.0462411089       -2.1956448551  MEMB      36              0.0000000000
     43272      1296  PVPG      H17S          -22.4105864050       15.6227949380       -0.9314661315  MEMB      36              0.0000000000
     43273      1296  PVPG      C218          -24.3277931938       14.9410459110       -0.3983482577  MEMB      36              0.0000000000
     43274      1296  PVPG      H18R          -25.1056813908       14.5396061612       -1.0620331127  MEMB      36              0.0000000000
     43275      1296  PVPG      H18S          -24.1151309851       14.3081590539        0.4321995108  MEMB      36              0.0000000000
     43276      1296  PVPG      H18T          -24.6850008139       15.7412855268        0.2671695800  MEMB      36              0.0000000000
     43277      1296  PVPG      C33           -25.3233203986        5.8041797415      -13.2876076751  MEMB      36              0.0000000000
     43278      1296  PVPG      H3X           -24.5558790452        5.2533840330      -13.8820246392  MEMB      36              0.0000000000
     43279      1296  PVPG      H3Y           -26.2904981915        5.2730445377      -13.3682340054  MEMB      36              0.0000000000
     43280      1296  PVPG      C34           -24.7906836854        5.8653787867      -11.9000507429  MEMB      36              0.0000000000
     43281      1296  PVPG      H4X           -24.6362085893        4.7882351122      -11.7715751146  MEMB      36              0.0000000000
     43282      1296  PVPG      H4Y           -25.4822699272        6.4370255190      -11.2450812719  MEMB      36              0.0000000000
     43283      1296  PVPG      C35           -23.4188985902        6.2150809468      -11.5341612673  MEMB      36              0.0000000000
     43284      1296  PVPG      H5X           -23.3682822084        7.2562056784      -11.7424403989  MEMB      36              0.0000000000
     43285      1296  PVPG      H5Y           -22.6853617848        5.5075001935      -12.0125763923  MEMB      36              0.0000000000
     43286      1296  PVPG      C36           -23.0065013653        6.6832656480      -10.1617236577  MEMB      36              0.0000000000
     43287      1296  PVPG      H6X           -21.9189896200        6.4763748349      -10.3167205063  MEMB      36              0.0000000000
     43288      1296  PVPG      H6Y           -22.8290811461        6.1274695466       -9.3484676488  MEMB      36              0.0000000000
     43289      1296  PVPG      C37           -23.8678528726        7.3920970693       -8.9913331325  MEMB      36              0.0000000000
     43290      1296  PVPG      H7X           -24.8524546647        7.0006037239       -8.6522857859  MEMB      36              0.0000000000
     43291      1296  PVPG      H7Y           -23.9362283557        8.3642109426       -9.4062805378  MEMB      36              0.0000000000
     43292      1296  PVPG      C38           -23.4356747641        7.2218898832       -7.4952152165  MEMB      36              0.0000000000
     43293      1296  PVPG      H8X           -22.5586702366        7.6244692088       -7.0305240595  MEMB      36              0.0000000000
     43294      1296  PVPG      H8Y           -22.6768452943        6.5230513721       -7.5235380212  MEMB      36              0.0000000000
     43295      1296  PVPG      C39           -23.9206234486        8.1189219926       -6.4148945820  MEMB      36              0.0000000000
     43296      1296  PVPG      H9X           -24.6554417691        7.4094112293       -5.9781012527  MEMB      36              0.0000000000
     43297      1296  PVPG      H9Y           -24.2648158727        8.9682568048       -6.9853031375  MEMB      36              0.0000000000
     43298      1296  PVPG      C310          -22.9496321019        8.6458295653       -5.2961092464  MEMB      36              0.0000000000
     43299      1296  PVPG      H10X          -22.1400072307        9.2964805780       -5.5852561525  MEMB      36              0.0000000000
     43300      1296  PVPG      H10Y          -22.2132087774        7.9949082664       -4.8702961583  MEMB      36              0.0000000000
     43301      1296  PVPG      C311          -23.8420393754        8.8793277512       -4.1386021523  MEMB      36              0.0000000000
     43302      1296  PVPG      H11X          -23.2401404479        9.0440701762       -3.2193344947  MEMB      36              0.0000000000
     43303      1296  PVPG      H11Y          -24.5227541714        7.9965474435       -4.0174899440  MEMB      36              0.0000000000
     43304      1296  PVPG      C312          -24.6806352172       10.0231039765       -4.5846585721  MEMB      36              0.0000000000
     43305      1296  PVPG      H12X          -25.2570772965        9.8177566813       -5.5049438635  MEMB      36              0.0000000000
     43306      1296  PVPG      H12Y          -23.9670160589       10.8643344521       -4.7577308586  MEMB      36              0.0000000000
     43307      1296  PVPG      C313          -25.6805733930       10.3943066170       -3.5651298456  MEMB      36              0.0000000000
     43308      1296  PVPG      H13X          -24.9245443408       10.5756093104       -2.8099031340  MEMB      36              0.0000000000
     43309      1296  PVPG      H13Y          -26.3609514975        9.5728977920       -3.2481582854  MEMB      36              0.0000000000
     43310      1296  PVPG      C314          -26.4433231053       11.5746452835       -4.1125356447  MEMB      36              0.0000000000
     43311      1296  PVPG      H14X          -26.8248541657       11.2265702213       -5.0786756266  MEMB      36              0.0000000000
     43312      1296  PVPG      H14Y          -25.8091004682       12.4722528943       -4.2910311922  MEMB      36              0.0000000000
     43313      1296  PVPG      C315          -27.6266685946       11.9770252180       -3.3348309812  MEMB      36              0.0000000000
     43314      1296  PVPG      H15X          -28.4097982064       11.2088268040       -3.1678912128  MEMB      36              0.0000000000
     43315      1296  PVPG      H15Y          -28.0609549764       12.8914057281       -3.7604476303  MEMB      36              0.0000000000
     43316      1296  PVPG      C316          -27.1371307123       12.3038358845       -2.0565595018  MEMB      36              0.0000000000
     43317      1296  PVPG      H16X          -26.8848214956       11.5430636889       -1.4193635730  MEMB      36              0.0000000000
     43318      1296  PVPG      H16Y          -26.3287062551       13.0299652194       -1.9250190817  MEMB      36              0.0000000000
     43319      1296  PVPG      H16Z          -28.0315328184       12.5600431590       -1.5253888818  MEMB      36              0.0000000000
     43320      1297  PVPG      C13            -1.1733313768      -29.2795376194      -21.0994269248  MEMB      37              0.0000000000
     43321      1297  PVPG      H13A           -2.1320397443      -29.7764361181      -20.9049038410  MEMB      37              0.0000000000
     43322      1297  PVPG      H13B           -1.0305382955      -29.1734817307      -22.1879757385  MEMB      37              0.0000000000
     43323      1297  PVPG      OC3            -0.1250274945      -30.1028711666      -20.5761412779  MEMB      37              0.0000000000
     43324      1297  PVPG      HO3            -0.3304356446      -30.2274302634      -19.6507146448  MEMB      37              0.0000000000
     43325      1297  PVPG      C12            -1.2990704378      -27.8659303507      -20.4737382162  MEMB      37              0.0000000000
     43326      1297  PVPG      H12A           -2.1116872046      -27.3150757524      -20.9841348215  MEMB      37              0.0000000000
     43327      1297  PVPG      OC2            -0.1382985040      -27.1153874755      -20.7685726456  MEMB      37              0.0000000000
     43328      1297  PVPG      HO2            -0.0651836470      -26.4482442418      -20.0403866207  MEMB      37              0.0000000000
     43329      1297  PVPG      C11            -1.6864186465      -27.9029338059      -18.9661101221  MEMB      37              0.0000000000
     43330      1297  PVPG      H11A           -1.0479801277      -28.6389472180      -18.4269164812  MEMB      37              0.0000000000
     43331      1297  PVPG      H11B           -2.7140463525      -28.3341808250      -18.9291635259  MEMB      37              0.0000000000
     43332      1297  PVPG      P              -0.4508436934      -25.9995042407      -17.6260040883  MEMB      37              0.0000000000
     43333      1297  PVPG      O13            -0.8805698381      -24.8523128987      -16.7954155591  MEMB      37              0.0000000000
     43334      1297  PVPG      O14             0.5342727885      -25.7849818487      -18.6960452643  MEMB      37              0.0000000000
     43335      1297  PVPG      O12            -1.7314899238      -26.5986396363      -18.3561836819  MEMB      37              0.0000000000
     43336      1297  PVPG      O11            -0.0536791503      -27.2255780805      -16.7160089348  MEMB      37              0.0000000000
     43337      1297  PVPG      C1             -0.9141394717      -27.6192284367      -15.6483790204  MEMB      37              0.0000000000
     43338      1297  PVPG      HA             -0.8972275493      -28.7221756437      -15.6281712758  MEMB      37              0.0000000000
     43339      1297  PVPG      HB             -1.9617725621      -27.2804366664      -15.8084557039  MEMB      37              0.0000000000
     43340      1297  PVPG      C2             -0.4562789434      -27.1441388489      -14.2364761455  MEMB      37              0.0000000000
     43341      1297  PVPG      HS             -0.1871845586      -26.0511934799      -14.3547684295  MEMB      37              0.0000000000
     43342      1297  PVPG      O21             0.6058793461      -27.9421584857      -13.7111437572  MEMB      37              0.0000000000
     43343      1297  PVPG      C21             1.7597299732      -27.6347765094      -14.1804031224  MEMB      37              0.0000000000
     43344      1297  PVPG      O22             1.8775658206      -26.8304607178      -15.0906286091  MEMB      37              0.0000000000
     43345      1297  PVPG      C22             2.9071763191      -28.4464361098      -13.2665457796  MEMB      37              0.0000000000
     43346      1297  PVPG      H2R             3.7845670086      -28.7859876797      -13.7994046969  MEMB      37              0.0000000000
     43347      1297  PVPG      H2S             2.3301049919      -29.1130152055      -12.7154920894  MEMB      37              0.0000000000
     43348      1297  PVPG      C3             -1.5171916671      -27.2668099885      -13.1388796790  MEMB      37              0.0000000000
     43349      1297  PVPG      HX             -1.0029445338      -27.0347110245      -12.1656564538  MEMB      37              0.0000000000
     43350      1297  PVPG      HY             -2.3077999783      -26.5171043839      -13.2978766135  MEMB      37              0.0000000000
     43351      1297  PVPG      O31            -2.0952249120      -28.5920303437      -13.1846944577  MEMB      37              0.0000000000
     43352      1297  PVPG      C31            -1.9736905765      -29.3426588224      -12.1059694678  MEMB      37              0.0000000000
     43353      1297  PVPG      O32            -1.3744779810      -29.0559230922      -11.0857128516  MEMB      37              0.0000000000
     43354      1297  PVPG      C32            -2.7559525200      -30.6333587296      -12.3256897079  MEMB      37              0.0000000000
     43355      1297  PVPG      H2X            -2.1721977662      -31.3618675652      -12.9125220999  MEMB      37              0.0000000000
     43356      1297  PVPG      H2Y            -3.6528310776      -30.4449361953      -12.9161054546  MEMB      37              0.0000000000
     43357      1297  PVPG      C23             3.6696268204      -28.3595303904      -11.8355966749  MEMB      37              0.0000000000
     43358      1297  PVPG      H3R             4.5871613142      -27.7633032148      -11.7242636453  MEMB      37              0.0000000000
     43359      1297  PVPG      H3S             4.3791024841      -29.2457163050      -11.8046809612  MEMB      37              0.0000000000
     43360      1297  PVPG      C24             2.6026753235      -28.1256202233      -10.7200300824  MEMB      37              0.0000000000
     43361      1297  PVPG      H4R             3.1513895131      -28.5138396617       -9.8545244103  MEMB      37              0.0000000000
     43362      1297  PVPG      H4S             1.6913058989      -28.6434021544      -11.0453178284  MEMB      37              0.0000000000
     43363      1297  PVPG      C25             1.9546903923      -26.7698868555      -10.3208475036  MEMB      37              0.0000000000
     43364      1297  PVPG      H5R             1.2147154383      -26.3034556505      -11.0529561633  MEMB      37              0.0000000000
     43365      1297  PVPG      H5S             2.8469564632      -26.1958669049       -9.9993620926  MEMB      37              0.0000000000
     43366      1297  PVPG      C26             0.9693861920      -26.3824676612       -9.3148390410  MEMB      37              0.0000000000
     43367      1297  PVPG      H6R             0.1200993592      -26.9857542057       -9.6940910540  MEMB      37              0.0000000000
     43368      1297  PVPG      H6S             0.6036119300      -25.3085440921       -9.3298518526  MEMB      37              0.0000000000
     43369      1297  PVPG      C27             1.7620203692      -26.5789640600       -8.0733021823  MEMB      37              0.0000000000
     43370      1297  PVPG      H7R             2.2015431083      -27.5905780082       -8.0904837027  MEMB      37              0.0000000000
     43371      1297  PVPG      H7S             0.9063138392      -26.3590218252       -7.4270000210  MEMB      37              0.0000000000
     43372      1297  PVPG      C28             2.9320381486      -25.6420276686       -7.7452157184  MEMB      37              0.0000000000
     43373      1297  PVPG      H8R             2.6821429924      -24.8011136598       -8.3360325344  MEMB      37              0.0000000000
     43374      1297  PVPG      H8S             3.9593817026      -25.9200365403       -8.0710655885  MEMB      37              0.0000000000
     43375      1297  PVPG      C29             2.7955277115      -24.9654221269       -6.4255737219  MEMB      37              0.0000000000
     43376      1297  PVPG      H9R             1.9700365956      -24.2202905077       -6.5489996351  MEMB      37              0.0000000000
     43377      1297  PVPG      H9S             3.7145741511      -24.4065735181       -6.1727360087  MEMB      37              0.0000000000
     43378      1297  PVPG      C210            2.4034139584      -25.9399437038       -5.3570578788  MEMB      37              0.0000000000
     43379      1297  PVPG      H10R            1.6132296719      -26.6312700718       -5.6640989813  MEMB      37              0.0000000000
     43380      1297  PVPG      H10S            2.0249233128      -25.2739376663       -4.5722535983  MEMB      37              0.0000000000
     43381      1297  PVPG      C211            3.6246112539      -26.6400890599       -4.9394919515  MEMB      37              0.0000000000
     43382      1297  PVPG      H111            4.3537537982      -25.9227915293       -4.6941701802  MEMB      37              0.0000000000
     43383      1297  PVPG      C212            3.9521334119      -27.9031201156       -4.8033054219  MEMB      37              0.0000000000
     43384      1297  PVPG      H121            4.9137111934      -28.3029425188       -4.4242532231  MEMB      37              0.0000000000
     43385      1297  PVPG      C213            3.0376503945      -28.9194840470       -5.0711210985  MEMB      37              0.0000000000
     43386      1297  PVPG      H13R            3.4894568468      -29.5934761286       -5.7907199235  MEMB      37              0.0000000000
     43387      1297  PVPG      H13S            2.0361582951      -28.6126540467       -5.4888017308  MEMB      37              0.0000000000
     43388      1297  PVPG      C214            3.1667361151      -29.2789101844       -3.5571778578  MEMB      37              0.0000000000
     43389      1297  PVPG      H14R            2.2404950331      -29.5816715441       -3.9965178644  MEMB      37              0.0000000000
     43390      1297  PVPG      H14S            2.5692287149      -28.7336242475       -2.8197988949  MEMB      37              0.0000000000
     43391      1297  PVPG      C215            4.2584636685      -30.3860957198       -2.9301253514  MEMB      37              0.0000000000
     43392      1297  PVPG      H15R            5.0270847520      -29.8246513868       -2.4982374522  MEMB      37              0.0000000000
     43393      1297  PVPG      H15S            4.7569571219      -31.1234745448       -3.5965206113  MEMB      37              0.0000000000
     43394      1297  PVPG      C216            3.9339968095      -31.5585023862       -1.9810613024  MEMB      37              0.0000000000
     43395      1297  PVPG      H16R            3.2508572717      -32.4311012999       -2.2949088032  MEMB      37              0.0000000000
     43396      1297  PVPG      H16S            3.6175420913      -30.9366416685       -1.0911716031  MEMB      37              0.0000000000
     43397      1297  PVPG      C217            4.7785425192      -32.3044466697       -1.2303545007  MEMB      37              0.0000000000
     43398      1297  PVPG      H17R            5.6005414843      -31.6445841972       -0.9834330667  MEMB      37              0.0000000000
     43399      1297  PVPG      H17S            4.8925952765      -33.2875315099       -1.7920962168  MEMB      37              0.0000000000
     43400      1297  PVPG      C218            3.9866147792      -32.5027502662       -0.0088784300  MEMB      37              0.0000000000
     43401      1297  PVPG      H18R            4.5184445715      -33.4303239059        0.1051634749  MEMB      37              0.0000000000
     43402      1297  PVPG      H18S            3.9401816392      -31.9942539770        0.9662895938  MEMB      37              0.0000000000
     43403      1297  PVPG      H18T            2.9224552884      -32.7213631627       -0.1862390681  MEMB      37              0.0000000000
     43404      1297  PVPG      C33            -3.2912020400      -31.1618103549      -10.9951597451  MEMB      37              0.0000000000
     43405      1297  PVPG      H3X            -4.2316217217      -31.7022754677      -11.1617857618  MEMB      37              0.0000000000
     43406      1297  PVPG      H3Y            -3.4098557865      -30.3698580401      -10.2260496888  MEMB      37              0.0000000000
     43407      1297  PVPG      C34            -2.3469683587      -32.1258134019      -10.4466760409  MEMB      37              0.0000000000
     43408      1297  PVPG      H4X            -1.4587336166      -31.4884555923      -10.4758429722  MEMB      37              0.0000000000
     43409      1297  PVPG      H4Y            -2.1823021125      -32.9309395045      -11.1645087675  MEMB      37              0.0000000000
     43410      1297  PVPG      C35            -2.6413005154      -32.6395129936       -9.0640569452  MEMB      37              0.0000000000
     43411      1297  PVPG      H5X            -2.0759826544      -33.5242892656       -8.6338894127  MEMB      37              0.0000000000
     43412      1297  PVPG      H5Y            -3.6465532637      -33.0479432544       -9.0841298872  MEMB      37              0.0000000000
     43413      1297  PVPG      C36            -2.7485292899      -31.5405160809       -8.0689300765  MEMB      37              0.0000000000
     43414      1297  PVPG      H6X            -2.5369957988      -32.2051634520       -7.2325009053  MEMB      37              0.0000000000
     43415      1297  PVPG      H6Y            -3.7597308309      -31.1846205289       -8.2212310404  MEMB      37              0.0000000000
     43416      1297  PVPG      C37            -2.1033256531      -30.1790571701       -7.8868743234  MEMB      37              0.0000000000
     43417      1297  PVPG      H7X            -1.6468391530      -29.8385021094       -8.8079047584  MEMB      37              0.0000000000
     43418      1297  PVPG      H7Y            -1.2654267183      -30.3734570216       -7.4107142315  MEMB      37              0.0000000000
     43419      1297  PVPG      C38            -1.7921320312      -29.4829137223       -6.5266271477  MEMB      37              0.0000000000
     43420      1297  PVPG      H8X            -0.7426225250      -29.0932422815       -6.3363464612  MEMB      37              0.0000000000
     43421      1297  PVPG      H8Y            -1.8925338221      -30.0454330257       -5.5869972193  MEMB      37              0.0000000000
     43422      1297  PVPG      C39            -2.7736431705      -28.4478795792       -6.7788558821  MEMB      37              0.0000000000
     43423      1297  PVPG      H9X            -3.6769265121      -29.0123177873       -7.1610662080  MEMB      37              0.0000000000
     43424      1297  PVPG      H9Y            -2.3464921458      -27.8682914441       -7.6226156051  MEMB      37              0.0000000000
     43425      1297  PVPG      C310           -3.0760481275      -27.6891312043       -5.5223017259  MEMB      37              0.0000000000
     43426      1297  PVPG      H10X           -3.4128831018      -28.2390416380       -4.6155447851  MEMB      37              0.0000000000
     43427      1297  PVPG      H10Y           -3.9318037481      -27.0516224444       -5.7808283157  MEMB      37              0.0000000000
     43428      1297  PVPG      C311           -1.8473605755      -27.1000500453       -4.9170713886  MEMB      37              0.0000000000
     43429      1297  PVPG      H11X           -1.2438604726      -26.6594022635       -5.7346588858  MEMB      37              0.0000000000
     43430      1297  PVPG      H11Y           -1.2439244300      -27.8915770933       -4.4001589606  MEMB      37              0.0000000000
     43431      1297  PVPG      C312           -2.3069102822      -26.0696585399       -3.9141041131  MEMB      37              0.0000000000
     43432      1297  PVPG      H12X           -2.7914122407      -26.5645260863       -3.0405425818  MEMB      37              0.0000000000
     43433      1297  PVPG      H12Y           -3.0820841859      -25.4517670163       -4.4284139435  MEMB      37              0.0000000000
     43434      1297  PVPG      C313           -1.1175969871      -25.2415032409       -3.4682619439  MEMB      37              0.0000000000
     43435      1297  PVPG      H13X           -1.4628855649      -24.3951688229       -2.8400318882  MEMB      37              0.0000000000
     43436      1297  PVPG      H13Y           -0.6488924486      -24.8333475413       -4.3928607810  MEMB      37              0.0000000000
     43437      1297  PVPG      C314           -0.0679661514      -26.0764453262       -2.7163485790  MEMB      37              0.0000000000
     43438      1297  PVPG      H14X            0.4086065645      -26.7964919214       -3.4093094977  MEMB      37              0.0000000000
     43439      1297  PVPG      H14Y           -0.5457936577      -26.6032212692       -1.8580885546  MEMB      37              0.0000000000
     43440      1297  PVPG      C315            1.0601989826      -25.2366751932       -2.1557144817  MEMB      37              0.0000000000
     43441      1297  PVPG      H15X            0.5616929681      -24.7400970484       -1.3303135594  MEMB      37              0.0000000000
     43442      1297  PVPG      H15Y            1.3184244078      -24.4357044396       -2.8876943632  MEMB      37              0.0000000000
     43443      1297  PVPG      C316            2.2576567875      -25.9833976028       -1.5150173957  MEMB      37              0.0000000000
     43444      1297  PVPG      H16X            2.6816334006      -26.7210782584       -2.1989422412  MEMB      37              0.0000000000
     43445      1297  PVPG      H16Y            3.1651787243      -25.4030735073       -1.2639491809  MEMB      37              0.0000000000
     43446      1297  PVPG      H16Z            1.9411116872      -26.4030415344       -0.5387653895  MEMB      37              0.0000000000
     43447      1298  PPPE      N              24.2624742073       10.3988460515      -20.4478545908  MEMB      38              0.0000000000
     43448      1298  PPPE      HN1            23.7785774407       10.2131153106      -19.5488151177  MEMB      38              0.0000000000
     43449      1298  PPPE      HN2            24.1604435987       11.4199404705      -20.6582727540  MEMB      38              0.0000000000
     43450      1298  PPPE      HN3            23.7929272215        9.8215731126      -21.1746262705  MEMB      38              0.0000000000
     43451      1298  PPPE      C12            25.7000731887        9.9793579529      -20.3184866059  MEMB      38              0.0000000000
     43452      1298  PPPE      H12A           26.1842847317       10.5636041396      -19.5096783308  MEMB      38              0.0000000000
     43453      1298  PPPE      H12B           26.2270216852       10.1881810553      -21.2638863964  MEMB      38              0.0000000000
     43454      1298  PPPE      C11            25.8255722926        8.4949085274      -20.0199171902  MEMB      38              0.0000000000
     43455      1298  PPPE      H11A           25.5914796371        7.8885208012      -20.9245001235  MEMB      38              0.0000000000
     43456      1298  PPPE      H11B           25.0836365959        8.2076887489      -19.2208395750  MEMB      38              0.0000000000
     43457      1298  PPPE      P              27.4934704673        7.6428428802      -18.2268582914  MEMB      38              0.0000000000
     43458      1298  PPPE      O13            26.5711138834        6.4929903675      -18.1302644591  MEMB      38              0.0000000000
     43459      1298  PPPE      O14            28.9412736571        7.4192748374      -18.0838404118  MEMB      38              0.0000000000
     43460      1298  PPPE      O11            26.9892707116        8.8184434466      -17.3015926379  MEMB      38              0.0000000000
     43461      1298  PPPE      O12            27.2020926730        8.2838544354      -19.6746165612  MEMB      38              0.0000000000
     43462      1298  PPPE      C1             27.6421533976       10.0751272248      -17.1506015772  MEMB      38              0.0000000000
     43463      1298  PPPE      HA             26.9352852402       10.8859583856      -17.2875651175  MEMB      38              0.0000000000
     43464      1298  PPPE      HB             28.4430554467       10.2172070881      -17.9076287659  MEMB      38              0.0000000000
     43465      1298  PPPE      C2             28.2334621378       10.3004469126      -15.7567226275  MEMB      38              0.0000000000
     43466      1298  PPPE      HS             28.9476825786       11.1766343926      -15.9036274094  MEMB      38              0.0000000000
     43467      1298  PPPE      O21            28.5874622931        9.0120554686      -15.2355451334  MEMB      38              0.0000000000
     43468      1298  PPPE      C21            29.7538107135        9.0094102255      -15.0189968647  MEMB      38              0.0000000000
     43469      1298  PPPE      O22            30.4810965542       10.0036740069      -15.3279424965  MEMB      38              0.0000000000
     43470      1298  PPPE      C22            30.0509506617        7.5062006854      -14.3903734978  MEMB      38              0.0000000000
     43471      1298  PPPE      H2R            30.9042994507        6.8820822863      -14.7246784852  MEMB      38              0.0000000000
     43472      1298  PPPE      H2S            29.4282415120        6.7146545883      -14.7623902793  MEMB      38              0.0000000000
     43473      1298  PPPE      C3             27.5171126698       10.8604122089      -14.5782430253  MEMB      38              0.0000000000
     43474      1298  PPPE      HX             28.3327744596       11.0105824576      -13.8003228683  MEMB      38              0.0000000000
     43475      1298  PPPE      HY             27.2390054207       11.8603887747      -14.3604861770  MEMB      38              0.0000000000
     43476      1298  PPPE      O31            26.2691320855       10.1742683748      -14.4432600097  MEMB      38              0.0000000000
     43477      1298  PPPE      C31            26.1119856446        9.5632803884      -13.3502226948  MEMB      38              0.0000000000
     43478      1298  PPPE      O32            26.9377926172        9.2567384003      -12.5295739462  MEMB      38              0.0000000000
     43479      1298  PPPE      C32            24.7735427055        9.1621241992      -13.1099481731  MEMB      38              0.0000000000
     43480      1298  PPPE      H2X            24.7959952203        8.1852006051      -13.6555594070  MEMB      38              0.0000000000
     43481      1298  PPPE      H2Y            23.9642355967        9.7184854068      -13.5850337929  MEMB      38              0.0000000000
     43482      1298  PPPE      C23            30.4337615720        7.3515986074      -12.9539146160  MEMB      38              0.0000000000
     43483      1298  PPPE      H3R            30.9384839807        8.2182906973      -12.6116661825  MEMB      38              0.0000000000
     43484      1298  PPPE      H3S            31.1656117964        6.5034287722      -12.8669345361  MEMB      38              0.0000000000
     43485      1298  PPPE      C24            29.5835685046        7.9477540982      -11.9088295073  MEMB      38              0.0000000000
     43486      1298  PPPE      H4R            29.1542208336        6.9524934870      -11.8997225870  MEMB      38              0.0000000000
     43487      1298  PPPE      H4S            29.0704289635        8.8122149539      -12.3962928317  MEMB      38              0.0000000000
     43488      1298  PPPE      C25            30.2516388047        8.3160080696      -10.5847902876  MEMB      38              0.0000000000
     43489      1298  PPPE      H5R            30.7550806863        9.2654836916      -10.5440831768  MEMB      38              0.0000000000
     43490      1298  PPPE      H5S            31.0101629955        7.5152387408      -10.4047737321  MEMB      38              0.0000000000
     43491      1298  PPPE      C26            29.3391353041        8.5237448765       -9.3766091027  MEMB      38              0.0000000000
     43492      1298  PPPE      H6R            30.0898938898        8.1931557243       -8.6453985799  MEMB      38              0.0000000000
     43493      1298  PPPE      H6S            28.5702946791        7.7807162020       -9.6668016359  MEMB      38              0.0000000000
     43494      1298  PPPE      C27            28.9617097207       10.0116377325       -9.0473528149  MEMB      38              0.0000000000
     43495      1298  PPPE      H7R            28.2447968292       10.2609597945       -9.8430063240  MEMB      38              0.0000000000
     43496      1298  PPPE      H7S            29.9178589671       10.4312482707       -9.3253342716  MEMB      38              0.0000000000
     43497      1298  PPPE      C28            28.5315024494       10.7831324333       -7.6891142075  MEMB      38              0.0000000000
     43498      1298  PPPE      H8R            28.8941261063       11.8931907617       -7.5280711885  MEMB      38              0.0000000000
     43499      1298  PPPE      H8S            27.5079799772       10.8798426397       -7.8554943056  MEMB      38              0.0000000000
     43500      1298  PPPE      C29            28.8841673340       10.6354212275       -6.2573097481  MEMB      38              0.0000000000
     43501      1298  PPPE      H91            28.7931428898       11.4980630503       -5.6988729036  MEMB      38              0.0000000000
     43502      1298  PPPE      C210           29.6050352127        9.6911568165       -5.7021869383  MEMB      38              0.0000000000
     43503      1298  PPPE      H101           30.4735681767       10.2048945890       -5.2229521531  MEMB      38              0.0000000000
     43504      1298  PPPE      C211           30.5683511940        8.7252896784       -6.1000831899  MEMB      38              0.0000000000
     43505      1298  PPPE      H11R           31.3630209936        8.5648605016       -6.8678403222  MEMB      38              0.0000000000
     43506      1298  PPPE      H11S           29.7191952679        8.3973242113       -6.7110531681  MEMB      38              0.0000000000
     43507      1298  PPPE      C212           30.8632965146        8.0855037718       -4.7303992203  MEMB      38              0.0000000000
     43508      1298  PPPE      H12R           31.8331834744        8.3842285202       -4.4290165031  MEMB      38              0.0000000000
     43509      1298  PPPE      H12S           31.2804325657        7.0870531523       -4.7295858796  MEMB      38              0.0000000000
     43510      1298  PPPE      C213           29.7732778111        8.2844340375       -3.6457702719  MEMB      38              0.0000000000
     43511      1298  PPPE      H13R           28.8503767340        7.9239255091       -4.0963837996  MEMB      38              0.0000000000
     43512      1298  PPPE      H13S           29.6247336481        9.3251476604       -3.3653257084  MEMB      38              0.0000000000
     43513      1298  PPPE      C214           30.1514550055        7.8019863751       -2.3107415396  MEMB      38              0.0000000000
     43514      1298  PPPE      H14R           31.1660425209        7.5601593756       -2.5280207387  MEMB      38              0.0000000000
     43515      1298  PPPE      H14S           30.1066501584        6.7937202608       -2.0488530718  MEMB      38              0.0000000000
     43516      1298  PPPE      C215           29.2102997752        7.8612525111       -1.1906491562  MEMB      38              0.0000000000
     43517      1298  PPPE      H15R           28.1536917927        7.8508027885       -1.5197401294  MEMB      38              0.0000000000
     43518      1298  PPPE      H15S           29.3400393212        8.8296829377       -0.7640493893  MEMB      38              0.0000000000
     43519      1298  PPPE      C216           29.4026143206        6.7861953593       -0.1623303001  MEMB      38              0.0000000000
     43520      1298  PPPE      H16R           30.0852775194        6.4364329706        0.4311812920  MEMB      38              0.0000000000
     43521      1298  PPPE      H16S           28.8535954159        7.0632121879        0.7268616778  MEMB      38              0.0000000000
     43522      1298  PPPE      H16T           29.4012101781        5.7446063828       -0.4317776345  MEMB      38              0.0000000000
     43523      1298  PPPE      C33            24.6594199543        9.0461090929      -11.5382167773  MEMB      38              0.0000000000
     43524      1298  PPPE      H3X            23.8455485703        8.4996967808      -11.2540665805  MEMB      38              0.0000000000
     43525      1298  PPPE      H3Y            24.1628646161        9.8643043390      -10.9970010367  MEMB      38              0.0000000000
     43526      1298  PPPE      C34            25.2409860852        7.7794060780      -10.8158242842  MEMB      38              0.0000000000
     43527      1298  PPPE      H4X            26.2681700974        8.1103267379      -10.6869215902  MEMB      38              0.0000000000
     43528      1298  PPPE      H4Y            25.2468557011        6.9830837238      -11.6061496401  MEMB      38              0.0000000000
     43529      1298  PPPE      C35            24.5247659334        7.4350573574       -9.4019008775  MEMB      38              0.0000000000
     43530      1298  PPPE      H5X            23.5130562329        7.3281999431       -9.6731835262  MEMB      38              0.0000000000
     43531      1298  PPPE      H5Y            24.8015761057        8.2314624330       -8.6889122964  MEMB      38              0.0000000000
     43532      1298  PPPE      C36            24.5502779911        6.0256714275       -8.6198333772  MEMB      38              0.0000000000
     43533      1298  PPPE      H6X            25.5395427575        6.2288519931       -9.0117197714  MEMB      38              0.0000000000
     43534      1298  PPPE      H6Y            24.7546450827        5.3976708384       -9.3909085895  MEMB      38              0.0000000000
     43535      1298  PPPE      C37            23.5920697331        5.1055693765       -7.3194177083  MEMB      38              0.0000000000
     43536      1298  PPPE      H7X            22.8077602750        4.9740206885       -7.9225156242  MEMB      38              0.0000000000
     43537      1298  PPPE      H7Y            23.8653826780        6.1006521919       -7.2093280654  MEMB      38              0.0000000000
     43538      1298  PPPE      C38            23.5700464626        4.1261858385       -5.8252374993  MEMB      38              0.0000000000
     43539      1298  PPPE      H8X            23.1007182295        3.3865823687       -4.8974743428  MEMB      38              0.0000000000
     43540      1298  PPPE      H8Y            23.6465870985        4.7208358883       -4.9253060286  MEMB      38              0.0000000000
     43541      1298  PPPE      C39            24.7758044584        4.8350434018       -6.1617534804  MEMB      38              0.0000000000
     43542      1298  PPPE      H9X            25.4057300116        4.2232951248       -6.9013497894  MEMB      38              0.0000000000
     43543      1298  PPPE      H9Y            25.2556241640        3.7731458724       -6.2327988551  MEMB      38              0.0000000000
     43544      1298  PPPE      C310           25.3533092222        6.7968200775       -5.8190877737  MEMB      38              0.0000000000
     43545      1298  PPPE      H10X           25.8912804684        7.3087763156       -6.6860069932  MEMB      38              0.0000000000
     43546      1298  PPPE      H10Y           26.3392443930        7.3251451828       -6.1167735447  MEMB      38              0.0000000000
     43547      1298  PPPE      C311           25.2987625707        8.0502835758       -4.6386376287  MEMB      38              0.0000000000
     43548      1298  PPPE      H11X           24.5338820483        7.8234825411       -5.2330916246  MEMB      38              0.0000000000
     43549      1298  PPPE      H11Y           26.1242200670        8.8280832659       -4.9224612190  MEMB      38              0.0000000000
     43550      1298  PPPE      C312           24.2219633859        8.7543452701       -3.6611756238  MEMB      38              0.0000000000
     43551      1298  PPPE      H12X           25.0630592767        9.2804144658       -3.7365040213  MEMB      38              0.0000000000
     43552      1298  PPPE      H12Y           23.8618421101        7.9277705800       -3.2192623018  MEMB      38              0.0000000000
     43553      1298  PPPE      C313           24.6663960602        8.7066437417       -2.2731296488  MEMB      38              0.0000000000
     43554      1298  PPPE      H13X           23.7608735890        9.5579312123       -2.6963948051  MEMB      38              0.0000000000
     43555      1298  PPPE      H13Y           25.7660559621        8.9775528221       -2.1252187543  MEMB      38              0.0000000000
     43556      1298  PPPE      C314           24.5724946717        7.5134919439       -1.0801469518  MEMB      38              0.0000000000
     43557      1298  PPPE      H14X           25.5664179769        7.3161989632       -1.0406373338  MEMB      38              0.0000000000
     43558      1298  PPPE      H14Y           24.4300080555        6.4389085893       -0.9110357434  MEMB      38              0.0000000000
     43559      1298  PPPE      C315           24.3880596602        7.5347906573        0.4780590066  MEMB      38              0.0000000000
     43560      1298  PPPE      H15X           24.3782537018        6.6061445274        1.1067165417  MEMB      38              0.0000000000
     43561      1298  PPPE      H15Y           23.3194086608        7.7458235323        0.4107657233  MEMB      38              0.0000000000
     43562      1298  PPPE      C316           25.3584129261        8.2512592007        1.3354779481  MEMB      38              0.0000000000
     43563      1298  PPPE      H16X           26.3479076132        8.0470407451        0.9806293387  MEMB      38              0.0000000000
     43564      1298  PPPE      H16Y           24.7438019611        9.1223867886        1.4720538142  MEMB      38              0.0000000000
     43565      1298  PPPE      H16Z           26.1020933113        8.9650473008        0.9377963156  MEMB      38              0.0000000000
     43566      1299  PVPG      C13           -18.0306515090       21.7436755996      -19.2581501901  MEMB      39              0.0000000000
     43567      1299  PVPG      H13A          -18.1891794953       22.8114144451      -19.0049943905  MEMB      39              0.0000000000
     43568      1299  PVPG      H13B          -18.2153526503       21.5754220326      -20.3430318872  MEMB      39              0.0000000000
     43569      1299  PVPG      OC3           -18.9599741491       20.9599279396      -18.5371550502  MEMB      39              0.0000000000
     43570      1299  PVPG      HO3           -19.0542488983       21.3911217147      -17.6832972673  MEMB      39              0.0000000000
     43571      1299  PVPG      C12           -16.5843252161       21.2924847979      -18.9670172449  MEMB      39              0.0000000000
     43572      1299  PVPG      H12A          -16.5427777446       20.2371529443      -19.2467102616  MEMB      39              0.0000000000
     43573      1299  PVPG      OC2           -16.2572724834       21.3001950439      -17.5764024743  MEMB      39              0.0000000000
     43574      1299  PVPG      HO2           -15.3271512874       21.0582402968      -17.5371793224  MEMB      39              0.0000000000
     43575      1299  PVPG      C11           -15.5702331998       22.1542381755      -19.7240307562  MEMB      39              0.0000000000
     43576      1299  PVPG      H11A          -15.8603700850       22.3557855015      -20.7857654211  MEMB      39              0.0000000000
     43577      1299  PVPG      H11B          -14.5709812527       21.6653762354      -19.7159509010  MEMB      39              0.0000000000
     43578      1299  PVPG      P             -15.1581689828       24.7845893837      -19.2387352402  MEMB      39              0.0000000000
     43579      1299  PVPG      O13           -16.3613975372       25.6231338934      -19.0535152953  MEMB      39              0.0000000000
     43580      1299  PVPG      O14           -14.4318612468       24.8111944167      -20.5221612168  MEMB      39              0.0000000000
     43581      1299  PVPG      O12           -15.5472908480       23.3258900613      -18.9524237873  MEMB      39              0.0000000000
     43582      1299  PVPG      O11           -14.1886721514       24.9914111748      -18.0073339931  MEMB      39              0.0000000000
     43583      1299  PVPG      C1            -12.8826154195       24.4051434469      -18.0263023728  MEMB      39              0.0000000000
     43584      1299  PVPG      HA            -12.2277046481       25.0218659498      -18.6142567445  MEMB      39              0.0000000000
     43585      1299  PVPG      HB            -12.8652119266       23.4160561340      -18.5218806381  MEMB      39              0.0000000000
     43586      1299  PVPG      C2            -12.1185933191       24.3086354176      -16.6649153459  MEMB      39              0.0000000000
     43587      1299  PVPG      HS            -11.1270023085       23.8503273710      -16.8432460624  MEMB      39              0.0000000000
     43588      1299  PVPG      O21           -12.9017569331       23.7423114516      -15.6398313537  MEMB      39              0.0000000000
     43589      1299  PVPG      C21           -13.1080574407       22.5036369124      -15.8343830140  MEMB      39              0.0000000000
     43590      1299  PVPG      O22           -12.6771753117       21.8132115194      -16.7478387138  MEMB      39              0.0000000000
     43591      1299  PVPG      C22           -13.8504309688       21.9803403939      -14.5967577350  MEMB      39              0.0000000000
     43592      1299  PVPG      H2R           -13.1221590265       21.2692845101      -14.1617508543  MEMB      39              0.0000000000
     43593      1299  PVPG      H2S           -14.7557001869       21.4419753097      -14.9231536737  MEMB      39              0.0000000000
     43594      1299  PVPG      C3            -11.6703287582       25.5683946210      -16.0355846499  MEMB      39              0.0000000000
     43595      1299  PVPG      HX            -11.0008047522       26.0890051360      -16.7666404568  MEMB      39              0.0000000000
     43596      1299  PVPG      HY            -12.6353469083       26.0482334127      -15.8668851380  MEMB      39              0.0000000000
     43597      1299  PVPG      O31           -11.1057220491       25.4798393389      -14.7515694306  MEMB      39              0.0000000000
     43598      1299  PVPG      C31           -11.9930157146       25.6897465675      -13.7913480249  MEMB      39              0.0000000000
     43599      1299  PVPG      O32           -13.1798674357       25.9533251223      -13.8556691743  MEMB      39              0.0000000000
     43600      1299  PVPG      C32           -11.2537834801       25.6593567404      -12.6129962805  MEMB      39              0.0000000000
     43601      1299  PVPG      H2X           -10.1442229473       25.7154899864      -12.8311096036  MEMB      39              0.0000000000
     43602      1299  PVPG      H2Y           -11.4721558530       24.7133142457      -12.0998345131  MEMB      39              0.0000000000
     43603      1299  PVPG      C23           -14.2131669499       22.9618075556      -13.4401226292  MEMB      39              0.0000000000
     43604      1299  PVPG      H3R           -13.3869482721       23.6647701142      -13.2321546465  MEMB      39              0.0000000000
     43605      1299  PVPG      H3S           -14.3071458926       22.3210094584      -12.5346966428  MEMB      39              0.0000000000
     43606      1299  PVPG      C24           -15.5603318473       23.6928500170      -13.6159463584  MEMB      39              0.0000000000
     43607      1299  PVPG      H4R           -16.3622171302       22.9273904744      -13.6851768379  MEMB      39              0.0000000000
     43608      1299  PVPG      H4S           -15.5777603790       24.2867521210      -14.5564164503  MEMB      39              0.0000000000
     43609      1299  PVPG      C25           -15.9202543139       24.6136414947      -12.4400057875  MEMB      39              0.0000000000
     43610      1299  PVPG      H5R           -15.4277824784       25.6049737300      -12.5566532550  MEMB      39              0.0000000000
     43611      1299  PVPG      H5S           -15.5203019298       24.1477273577      -11.5130716286  MEMB      39              0.0000000000
     43612      1299  PVPG      C26           -17.4341302609       24.7713814632      -12.2265347281  MEMB      39              0.0000000000
     43613      1299  PVPG      H6R           -17.8634892192       23.7467326672      -12.2994318063  MEMB      39              0.0000000000
     43614      1299  PVPG      H6S           -17.9001223913       25.3665135349      -13.0405323317  MEMB      39              0.0000000000
     43615      1299  PVPG      C27           -17.7291714233       25.3714307228      -10.8329150780  MEMB      39              0.0000000000
     43616      1299  PVPG      H7R           -17.3994465793       26.4343943517      -10.8125511219  MEMB      39              0.0000000000
     43617      1299  PVPG      H7S           -17.0985297106       24.8007831338      -10.1175282976  MEMB      39              0.0000000000
     43618      1299  PVPG      C28           -19.1958718632       25.2099343672      -10.3879463307  MEMB      39              0.0000000000
     43619      1299  PVPG      H8R           -19.3715602025       24.1198303456      -10.2587264944  MEMB      39              0.0000000000
     43620      1299  PVPG      H8S           -19.8053595919       25.5751291930      -11.2437226178  MEMB      39              0.0000000000
     43621      1299  PVPG      C29           -19.6424595183       25.8826665874       -9.0615946202  MEMB      39              0.0000000000
     43622      1299  PVPG      H9R           -20.7516390417       25.8110198587       -8.9598965282  MEMB      39              0.0000000000
     43623      1299  PVPG      H9S           -19.3920520471       26.9635479108       -9.1055415031  MEMB      39              0.0000000000
     43624      1299  PVPG      C210          -19.0791802687       25.1996169024       -7.7964322475  MEMB      39              0.0000000000
     43625      1299  PVPG      H10R          -17.9710331054       25.2452760868       -7.8690257764  MEMB      39              0.0000000000
     43626      1299  PVPG      H10S          -19.3478990770       24.1344621068       -7.7980801034  MEMB      39              0.0000000000
     43627      1299  PVPG      C211          -19.6245810112       25.7419099280       -6.5099521267  MEMB      39              0.0000000000
     43628      1299  PVPG      H111          -20.6716894280       25.5997393811       -6.2193559390  MEMB      39              0.0000000000
     43629      1299  PVPG      C212          -18.8608857309       26.2811251227       -5.6108178301  MEMB      39              0.0000000000
     43630      1299  PVPG      H121          -19.3337292483       26.6572152722       -4.7013162096  MEMB      39              0.0000000000
     43631      1299  PVPG      C213          -17.4046906653       26.4089149206       -5.7349312930  MEMB      39              0.0000000000
     43632      1299  PVPG      H13R          -17.1365478671       27.5101522602       -5.8396453370  MEMB      39              0.0000000000
     43633      1299  PVPG      H13S          -16.7926062390       25.9143016331       -6.5582307259  MEMB      39              0.0000000000
     43634      1299  PVPG      C214          -17.1950439172       25.5720424716       -4.3376664745  MEMB      39              0.0000000000
     43635      1299  PVPG      H14R          -16.2017140692       26.0634136221       -4.7241230850  MEMB      39              0.0000000000
     43636      1299  PVPG      H14S          -16.5030602231       24.7736130129       -4.1816579812  MEMB      39              0.0000000000
     43637      1299  PVPG      C215          -17.8413960645       25.9347301296       -2.5882109276  MEMB      39              0.0000000000
     43638      1299  PVPG      H15R          -18.9466371256       26.0375885501       -2.6923534859  MEMB      39              0.0000000000
     43639      1299  PVPG      H15S          -18.3974265535       26.8591392880       -3.0897459545  MEMB      39              0.0000000000
     43640      1299  PVPG      C216          -16.5726236675       26.6653307303       -0.9947686090  MEMB      39              0.0000000000
     43641      1299  PVPG      H16R          -15.9555649723       25.9648172506       -0.4830547438  MEMB      39              0.0000000000
     43642      1299  PVPG      H16S          -17.0426611632       27.5465993845       -0.5293926908  MEMB      39              0.0000000000
     43643      1299  PVPG      C217          -14.7916016534       27.6272032458       -0.7739996315  MEMB      39              0.0000000000
     43644      1299  PVPG      H17R          -14.5230426888       28.6814121937       -0.5589652939  MEMB      39              0.0000000000
     43645      1299  PVPG      H17S          -14.3048251848       28.3873476414       -1.5156108920  MEMB      39              0.0000000000
     43646      1299  PVPG      C218          -13.3542690306       27.1201502586       -0.7746205376  MEMB      39              0.0000000000
     43647      1299  PVPG      H18R          -12.3838911136       27.6037558191       -1.1103999878  MEMB      39              0.0000000000
     43648      1299  PVPG      H18S          -13.5617518635       26.1019487659       -0.5118786659  MEMB      39              0.0000000000
     43649      1299  PVPG      H18T          -13.1489573563       27.0869105231       -1.8398806441  MEMB      39              0.0000000000
     43650      1299  PVPG      C33           -11.9312499515       26.8945609307      -12.0264119399  MEMB      39              0.0000000000
     43651      1299  PVPG      H3X           -11.7486226990       27.9894355881      -12.1051582907  MEMB      39              0.0000000000
     43652      1299  PVPG      H3Y           -10.8730024536       27.2467026986      -12.0029166435  MEMB      39              0.0000000000
     43653      1299  PVPG      C34           -13.1168668239       26.6334055518      -10.9370388568  MEMB      39              0.0000000000
     43654      1299  PVPG      H4X           -14.0271221982       27.0045858368      -11.4228071274  MEMB      39              0.0000000000
     43655      1299  PVPG      H4Y           -13.0074277718       27.4280609000      -10.1898395992  MEMB      39              0.0000000000
     43656      1299  PVPG      C35           -13.5168134804       25.1999082702      -10.2192839743  MEMB      39              0.0000000000
     43657      1299  PVPG      H5X           -12.8368532023       24.5732259523       -9.5958612519  MEMB      39              0.0000000000
     43658      1299  PVPG      H5Y           -13.4591991832       24.4427189137      -10.9993799777  MEMB      39              0.0000000000
     43659      1299  PVPG      C36           -14.4797438367       25.1371979584       -9.0127405183  MEMB      39              0.0000000000
     43660      1299  PVPG      H6X           -15.2387610926       25.8229835190       -9.3575738462  MEMB      39              0.0000000000
     43661      1299  PVPG      H6Y           -14.3242698557       25.5568818149       -7.9962056731  MEMB      39              0.0000000000
     43662      1299  PVPG      C37           -14.6813385882       23.6991644727       -8.5062939963  MEMB      39              0.0000000000
     43663      1299  PVPG      H7X           -14.8127224743       23.0297088723       -9.3701053954  MEMB      39              0.0000000000
     43664      1299  PVPG      H7Y           -15.5934554773       23.7670797597       -7.8791853863  MEMB      39              0.0000000000
     43665      1299  PVPG      C38           -13.5065171093       23.1563174017       -7.6596738605  MEMB      39              0.0000000000
     43666      1299  PVPG      H8X           -13.1930241843       23.9710970145       -7.0172029070  MEMB      39              0.0000000000
     43667      1299  PVPG      H8Y           -12.6284806457       22.9135192725       -8.2989794328  MEMB      39              0.0000000000
     43668      1299  PVPG      C39           -13.8180821295       21.9366663074       -6.8037716913  MEMB      39              0.0000000000
     43669      1299  PVPG      H9X           -12.8526031369       21.5311936143       -6.3948176410  MEMB      39              0.0000000000
     43670      1299  PVPG      H9Y           -14.3379171022       21.2003671778       -7.4400561999  MEMB      39              0.0000000000
     43671      1299  PVPG      C310          -14.7345025203       22.1639169867       -5.6249670352  MEMB      39              0.0000000000
     43672      1299  PVPG      H10X          -15.7517636766       22.5437706176       -5.7890451657  MEMB      39              0.0000000000
     43673      1299  PVPG      H10Y          -14.2327069331       22.8467058350       -4.9619536464  MEMB      39              0.0000000000
     43674      1299  PVPG      C311          -14.7859973342       20.9865431701       -4.7359147232  MEMB      39              0.0000000000
     43675      1299  PVPG      H11X          -13.8484603044       20.3846696260       -4.9052352688  MEMB      39              0.0000000000
     43676      1299  PVPG      H11Y          -15.6186342569       20.2911559735       -4.8367968010  MEMB      39              0.0000000000
     43677      1299  PVPG      C312          -14.8397216153       21.4722761089       -3.3157509690  MEMB      39              0.0000000000
     43678      1299  PVPG      H12X          -13.8267263929       21.9655959603       -3.3048018808  MEMB      39              0.0000000000
     43679      1299  PVPG      H12Y          -14.9963658419       20.5069894478       -2.7831442720  MEMB      39              0.0000000000
     43680      1299  PVPG      C313          -15.4559989238       22.6857638645       -2.6162456504  MEMB      39              0.0000000000
     43681      1299  PVPG      H13X          -16.5319268181       22.5283693970       -2.5696024224  MEMB      39              0.0000000000
     43682      1299  PVPG      H13Y          -15.1460138327       23.4701615700       -3.2727166640  MEMB      39              0.0000000000
     43683      1299  PVPG      C314          -14.9975200558       23.1390259654       -1.2096053684  MEMB      39              0.0000000000
     43684      1299  PVPG      H14X          -15.4306018888       24.1072408808       -0.8893304497  MEMB      39              0.0000000000
     43685      1299  PVPG      H14Y          -13.9226929555       23.3258398459       -1.0479792477  MEMB      39              0.0000000000
     43686      1299  PVPG      C315          -15.5983854911       22.2124525734       -0.2225333978  MEMB      39              0.0000000000
     43687      1299  PVPG      H15X          -15.3082268286       21.1184668788       -0.1685248858  MEMB      39              0.0000000000
     43688      1299  PVPG      H15Y          -16.5707557032       22.1052275620       -0.5410759830  MEMB      39              0.0000000000
     43689      1299  PVPG      C316          -15.5096149535       22.7801306710        1.1245189126  MEMB      39              0.0000000000
     43690      1299  PVPG      H16X          -15.9251972500       23.6463622837        1.6080380580  MEMB      39              0.0000000000
     43691      1299  PVPG      H16Y          -15.7752529867       21.8153905725        1.6509898414  MEMB      39              0.0000000000
     43692      1299  PVPG      H16Z          -14.4616959408       23.1217778044        1.3309577429  MEMB      39              0.0000000000
     43693      1300  PPPE      N             -27.9538176805       -3.2614533310      -16.8372740542  MEMB      40              0.0000000000
     43694      1300  PPPE      HN1           -28.3629145398       -3.2079303193      -15.8847888674  MEMB      40              0.0000000000
     43695      1300  PPPE      HN2           -27.0947759185       -3.8484352402      -16.8462189616  MEMB      40              0.0000000000
     43696      1300  PPPE      HN3           -27.6784454624       -2.3086880003      -17.1546053214  MEMB      40              0.0000000000
     43697      1300  PPPE      C12           -28.9124490726       -3.9049252961      -17.8061874145  MEMB      40              0.0000000000
     43698      1300  PPPE      H12A          -29.8298304058       -3.2823921923      -17.8643398549  MEMB      40              0.0000000000
     43699      1300  PPPE      H12B          -29.1903284087       -4.9065640257      -17.4169048356  MEMB      40              0.0000000000
     43700      1300  PPPE      C11           -28.2414435406       -4.0161659568      -19.1820710082  MEMB      40              0.0000000000
     43701      1300  PPPE      H11A          -27.8292256816       -3.0132682696      -19.4497332954  MEMB      40              0.0000000000
     43702      1300  PPPE      H11B          -29.0146567359       -4.2941485557      -19.9207407328  MEMB      40              0.0000000000
     43703      1300  PPPE      P             -27.4630318646       -6.4964560585      -19.6886142517  MEMB      40              0.0000000000
     43704      1300  PPPE      O13           -28.4322207521       -7.0831024681      -18.7367363367  MEMB      40              0.0000000000
     43705      1300  PPPE      O14           -27.7756807552       -6.5591558209      -21.1272762034  MEMB      40              0.0000000000
     43706      1300  PPPE      O11           -26.0377134599       -7.1115207275      -19.4506053913  MEMB      40              0.0000000000
     43707      1300  PPPE      O12           -27.1996815958       -4.9826470612      -19.1951441767  MEMB      40              0.0000000000
     43708      1300  PPPE      C1            -25.4063968373       -6.8053350940      -18.2285320224  MEMB      40              0.0000000000
     43709      1300  PPPE      HA            -25.7676618078       -5.8864127330      -17.7002352399  MEMB      40              0.0000000000
     43710      1300  PPPE      HB            -24.3062516270       -6.7403559158      -18.3664272879  MEMB      40              0.0000000000
     43711      1300  PPPE      C2            -25.6108511854       -7.8495552545      -17.2058226723  MEMB      40              0.0000000000
     43712      1300  PPPE      HS            -25.2113270937       -8.8439614802      -17.5682981101  MEMB      40              0.0000000000
     43713      1300  PPPE      O21           -26.9597755418       -7.9587796920      -16.8309815536  MEMB      40              0.0000000000
     43714      1300  PPPE      C21           -27.1664143893       -8.8003579375      -15.9174016896  MEMB      40              0.0000000000
     43715      1300  PPPE      O22           -26.4701297848       -9.7783458820      -15.6713199008  MEMB      40              0.0000000000
     43716      1300  PPPE      C22           -28.5349430446       -8.4043727248      -15.3610521776  MEMB      40              0.0000000000
     43717      1300  PPPE      H2R           -28.8445207457       -9.2061681529      -15.8851634439  MEMB      40              0.0000000000
     43718      1300  PPPE      H2S           -29.2144371458       -7.8235416793      -15.9838699222  MEMB      40              0.0000000000
     43719      1300  PPPE      C3            -24.7671969168       -7.2297093081      -16.0702515160  MEMB      40              0.0000000000
     43720      1300  PPPE      HX            -25.2933781426       -7.8138374056      -15.3303358385  MEMB      40              0.0000000000
     43721      1300  PPPE      HY            -23.6865723615       -7.4429279324      -16.2662575418  MEMB      40              0.0000000000
     43722      1300  PPPE      O31           -25.0344881448       -6.1646538802      -15.2144251837  MEMB      40              0.0000000000
     43723      1300  PPPE      C31           -24.0591647020       -5.9783643958      -14.3249168154  MEMB      40              0.0000000000
     43724      1300  PPPE      O32           -22.9809874826       -6.5066161573      -14.2336753396  MEMB      40              0.0000000000
     43725      1300  PPPE      C32           -24.4307530540       -4.7839399739      -13.6083992816  MEMB      40              0.0000000000
     43726      1300  PPPE      H2X           -24.4249203378       -3.9962253822      -14.3890062647  MEMB      40              0.0000000000
     43727      1300  PPPE      H2Y           -23.6267550041       -4.6030436860      -12.8790241787  MEMB      40              0.0000000000
     43728      1300  PPPE      C23           -28.9431853675       -8.6034311283      -13.8827749836  MEMB      40              0.0000000000
     43729      1300  PPPE      H3R           -29.9464636885       -8.2889264024      -13.5736701023  MEMB      40              0.0000000000
     43730      1300  PPPE      H3S           -28.1006895898       -8.0504682286      -13.4320001765  MEMB      40              0.0000000000
     43731      1300  PPPE      C24           -28.9863655048       -9.9785617138      -13.2839502642  MEMB      40              0.0000000000
     43732      1300  PPPE      H4R           -28.2368221467      -10.2331355333      -14.0460953774  MEMB      40              0.0000000000
     43733      1300  PPPE      H4S           -29.6574385871      -10.8308997255      -13.4727325618  MEMB      40              0.0000000000
     43734      1300  PPPE      C25           -29.0250508604       -9.9293717007      -11.7400597320  MEMB      40              0.0000000000
     43735      1300  PPPE      H5R           -28.8158876626      -10.9466009252      -11.3349268263  MEMB      40              0.0000000000
     43736      1300  PPPE      H5S           -30.0554194718       -9.7771262105      -11.4327793245  MEMB      40              0.0000000000
     43737      1300  PPPE      C26           -28.1621811572       -8.8104704073      -11.1183302384  MEMB      40              0.0000000000
     43738      1300  PPPE      H6R           -28.4667976917       -7.7883026079      -11.3305561547  MEMB      40              0.0000000000
     43739      1300  PPPE      H6S           -27.2341780229       -8.8065069999      -11.6350986499  MEMB      40              0.0000000000
     43740      1300  PPPE      C27           -27.5108198777       -9.0292581696       -9.7794970543  MEMB      40              0.0000000000
     43741      1300  PPPE      H7R           -26.9267804732       -9.9504542305       -9.9790579045  MEMB      40              0.0000000000
     43742      1300  PPPE      H7S           -28.2843847832       -9.2243673474       -9.0179607273  MEMB      40              0.0000000000
     43743      1300  PPPE      C28           -26.4809297224       -7.9352147597       -9.3735168387  MEMB      40              0.0000000000
     43744      1300  PPPE      H8R           -27.0926223846       -7.1106293175       -8.9862185786  MEMB      40              0.0000000000
     43745      1300  PPPE      H8S           -25.9418474066       -7.6543196817      -10.2921997177  MEMB      40              0.0000000000
     43746      1300  PPPE      C29           -25.3027122027       -8.0227540773       -8.4714595477  MEMB      40              0.0000000000
     43747      1300  PPPE      H91           -24.6213084958       -8.8735514575       -8.6994482205  MEMB      40              0.0000000000
     43748      1300  PPPE      C210          -25.2244969807       -7.4901985957       -7.2452799617  MEMB      40              0.0000000000
     43749      1300  PPPE      H101          -24.3194041905       -7.7719903323       -6.7092953212  MEMB      40              0.0000000000
     43750      1300  PPPE      C211          -26.1560501638       -6.7028823119       -6.3466844263  MEMB      40              0.0000000000
     43751      1300  PPPE      H11R          -26.8717787785       -7.2461856943       -5.6592465699  MEMB      40              0.0000000000
     43752      1300  PPPE      H11S          -26.8414764276       -6.1711115695       -7.0001359740  MEMB      40              0.0000000000
     43753      1300  PPPE      C212          -25.2424122900       -5.8247761720       -5.4655461416  MEMB      40              0.0000000000
     43754      1300  PPPE      H12R          -25.9095011429       -5.1072592259       -4.9530075473  MEMB      40              0.0000000000
     43755      1300  PPPE      H12S          -24.5294692609       -5.3236196316       -6.1439653284  MEMB      40              0.0000000000
     43756      1300  PPPE      C213          -24.4488953956       -6.3226542532       -4.2517493050  MEMB      40              0.0000000000
     43757      1300  PPPE      H13R          -23.8806659123       -5.4795740673       -3.8185472801  MEMB      40              0.0000000000
     43758      1300  PPPE      H13S          -23.5204144579       -6.8766780333       -4.4342986901  MEMB      40              0.0000000000
     43759      1300  PPPE      C214          -25.3544873327       -6.8589981068       -3.1501030744  MEMB      40              0.0000000000
     43760      1300  PPPE      H14R          -25.7913497619       -7.8067931202       -3.5262912552  MEMB      40              0.0000000000
     43761      1300  PPPE      H14S          -26.3084124715       -6.3943809938       -2.9004023955  MEMB      40              0.0000000000
     43762      1300  PPPE      C215          -24.4853772488       -6.8368015105       -1.8874959275  MEMB      40              0.0000000000
     43763      1300  PPPE      H15R          -23.9969232123       -5.8772656754       -1.8415212002  MEMB      40              0.0000000000
     43764      1300  PPPE      H15S          -23.4907948752       -7.1928076029       -2.0451776737  MEMB      40              0.0000000000
     43765      1300  PPPE      C216          -25.0750621066       -7.3629451295       -0.5793424175  MEMB      40              0.0000000000
     43766      1300  PPPE      H16R          -25.6826031687       -6.5334578165       -0.2940378285  MEMB      40              0.0000000000
     43767      1300  PPPE      H16S          -25.5792435941       -8.3641815549       -0.6446904199  MEMB      40              0.0000000000
     43768      1300  PPPE      H16T          -24.4366757940       -7.3592345261        0.3280938117  MEMB      40              0.0000000000
     43769      1300  PPPE      C33           -25.8072466051       -4.9425299276      -12.9642154810  MEMB      40              0.0000000000
     43770      1300  PPPE      H3X           -25.7875974708       -5.7840585437      -12.2290599069  MEMB      40              0.0000000000
     43771      1300  PPPE      H3Y           -26.5779824597       -5.2228487569      -13.7195638738  MEMB      40              0.0000000000
     43772      1300  PPPE      C34           -26.0559964646       -3.5828904021      -12.3073254801  MEMB      40              0.0000000000
     43773      1300  PPPE      H4X           -25.9657363218       -2.7927257620      -13.0790994004  MEMB      40              0.0000000000
     43774      1300  PPPE      H4Y           -25.1938851583       -3.4369523461      -11.6134685822  MEMB      40              0.0000000000
     43775      1300  PPPE      C35           -27.3128439057       -3.4268238527      -11.4474065195  MEMB      40              0.0000000000
     43776      1300  PPPE      H5X           -28.2253628383       -3.3564556794      -12.0710877551  MEMB      40              0.0000000000
     43777      1300  PPPE      H5Y           -27.2562309767       -2.4801787302      -10.8686351805  MEMB      40              0.0000000000
     43778      1300  PPPE      C36           -27.4313902993       -4.6187856746      -10.4990781615  MEMB      40              0.0000000000
     43779      1300  PPPE      H6X           -26.3938680654       -4.9519514536      -10.2609097982  MEMB      40              0.0000000000
     43780      1300  PPPE      H6Y           -27.9558824264       -5.4147536610      -11.0627349903  MEMB      40              0.0000000000
     43781      1300  PPPE      C37           -28.0463610194       -4.3693325046       -9.1245936490  MEMB      40              0.0000000000
     43782      1300  PPPE      H7X           -27.5590225014       -3.4570048578       -8.7097914218  MEMB      40              0.0000000000
     43783      1300  PPPE      H7Y           -27.7992488137       -5.2184129069       -8.4609397116  MEMB      40              0.0000000000
     43784      1300  PPPE      C38           -29.5614398936       -4.2384673277       -9.0942293500  MEMB      40              0.0000000000
     43785      1300  PPPE      H8X           -29.8452478000       -3.5419966415       -9.9020058158  MEMB      40              0.0000000000
     43786      1300  PPPE      H8Y           -29.8014564847       -3.8552853402       -8.0802836170  MEMB      40              0.0000000000
     43787      1300  PPPE      C39           -30.4172981087       -5.4820635648       -9.3390870339  MEMB      40              0.0000000000
     43788      1300  PPPE      H9X           -30.1374709246       -5.8565346491      -10.3473037687  MEMB      40              0.0000000000
     43789      1300  PPPE      H9Y           -31.4867646636       -5.1741044133       -9.3974004305  MEMB      40              0.0000000000
     43790      1300  PPPE      C310          -30.2430383636       -6.5917942376       -8.2965845792  MEMB      40              0.0000000000
     43791      1300  PPPE      H10X          -29.1868419187       -6.9383108288       -8.3578544261  MEMB      40              0.0000000000
     43792      1300  PPPE      H10Y          -30.8783549979       -7.4673017417       -8.5498996771  MEMB      40              0.0000000000
     43793      1300  PPPE      C311          -30.5139497505       -6.2240457929       -6.8290587499  MEMB      40              0.0000000000
     43794      1300  PPPE      H11X          -31.5545361603       -5.8736885515       -6.6492309876  MEMB      40              0.0000000000
     43795      1300  PPPE      H11Y          -29.8402401307       -5.3856209148       -6.5404786257  MEMB      40              0.0000000000
     43796      1300  PPPE      C312          -30.1672056738       -7.4447182982       -5.9629826701  MEMB      40              0.0000000000
     43797      1300  PPPE      H12X          -29.2849222108       -7.9333041959       -6.4270454914  MEMB      40              0.0000000000
     43798      1300  PPPE      H12Y          -30.9957235112       -8.1888144941       -5.9509068521  MEMB      40              0.0000000000
     43799      1300  PPPE      C313          -29.7208194400       -7.0781416700       -4.5632797167  MEMB      40              0.0000000000
     43800      1300  PPPE      H13X          -28.9242091471       -6.3021769823       -4.6019396507  MEMB      40              0.0000000000
     43801      1300  PPPE      H13Y          -29.2990352643       -7.9555435397       -4.0144658114  MEMB      40              0.0000000000
     43802      1300  PPPE      C314          -30.8632593552       -6.4961148359       -3.7961518328  MEMB      40              0.0000000000
     43803      1300  PPPE      H14X          -31.7987830685       -7.0918028476       -3.8650548567  MEMB      40              0.0000000000
     43804      1300  PPPE      H14Y          -31.0930870505       -5.4563894782       -4.1256663564  MEMB      40              0.0000000000
     43805      1300  PPPE      C315          -30.4726145904       -6.4601385039       -2.3851016785  MEMB      40              0.0000000000
     43806      1300  PPPE      H15X          -29.6347406084       -5.7057726582       -2.2625947709  MEMB      40              0.0000000000
     43807      1300  PPPE      H15Y          -30.1576995190       -7.3910315560       -1.9040139063  MEMB      40              0.0000000000
     43808      1300  PPPE      C316          -31.7147261593       -6.2154307891       -1.6359889919  MEMB      40              0.0000000000
     43809      1300  PPPE      H16X          -31.3733327666       -5.9120648680       -0.6686229865  MEMB      40              0.0000000000
     43810      1300  PPPE      H16Y          -32.1181897972       -5.3470167522       -2.0743745456  MEMB      40              0.0000000000
     43811      1300  PPPE      H16Z          -32.7323746235       -6.4601297638       -1.9297745202  MEMB      40              0.0000000000
     43812      1301  PPPE      N              23.6563012766      -16.1276554912      -19.3482749690  MEMB      41              0.0000000000
     43813      1301  PPPE      HN1            23.3031500904      -15.8340305921      -18.4184107278  MEMB      41              0.0000000000
     43814      1301  PPPE      HN2            24.3155361382      -16.9237882934      -19.2158406522  MEMB      41              0.0000000000
     43815      1301  PPPE      HN3            24.1218358322      -15.3247864822      -19.8190960645  MEMB      41              0.0000000000
     43816      1301  PPPE      C12            22.4698012648      -16.5642146888      -20.1699957958  MEMB      41              0.0000000000
     43817      1301  PPPE      H12A           22.8541002358      -16.8174085222      -21.1712877223  MEMB      41              0.0000000000
     43818      1301  PPPE      H12B           21.8121677310      -15.6764568723      -20.2465643313  MEMB      41              0.0000000000
     43819      1301  PPPE      C11            21.7762778523      -17.7777031071      -19.5308155870  MEMB      41              0.0000000000
     43820      1301  PPPE      H11A           20.8183821630      -18.0685869723      -20.0172192597  MEMB      41              0.0000000000
     43821      1301  PPPE      H11B           21.5144958934      -17.5053494694      -18.4785262620  MEMB      41              0.0000000000
     43822      1301  PPPE      P              22.3181664287      -20.0680037490      -18.5558153370  MEMB      41              0.0000000000
     43823      1301  PPPE      O13            22.2063963527      -19.3643457534      -17.2619356433  MEMB      41              0.0000000000
     43824      1301  PPPE      O14            21.2112229001      -20.9227800166      -19.0180223833  MEMB      41              0.0000000000
     43825      1301  PPPE      O11            23.6307260616      -20.8852445559      -18.6191828977  MEMB      41              0.0000000000
     43826      1301  PPPE      O12            22.6611127167      -18.8944483177      -19.5952353912  MEMB      41              0.0000000000
     43827      1301  PPPE      C1             24.8908488199      -20.3284799610      -18.2988151074  MEMB      41              0.0000000000
     43828      1301  PPPE      HA             24.8559138832      -19.2774089227      -17.9496445312  MEMB      41              0.0000000000
     43829      1301  PPPE      HB             25.5449656340      -20.3948265518      -19.2029117084  MEMB      41              0.0000000000
     43830      1301  PPPE      C2             25.4919284108      -21.1049978182      -17.1123227669  MEMB      41              0.0000000000
     43831      1301  PPPE      HS             25.8437135395      -22.0061669224      -17.6505537711  MEMB      41              0.0000000000
     43832      1301  PPPE      O21            24.5361699465      -21.5100903865      -16.1249640315  MEMB      41              0.0000000000
     43833      1301  PPPE      C21            24.5997147234      -22.5941290446      -15.3837174803  MEMB      41              0.0000000000
     43834      1301  PPPE      O22            25.2960955729      -23.5679344673      -15.3637250331  MEMB      41              0.0000000000
     43835      1301  PPPE      C22            23.4424921535      -22.6259023323      -14.4588045133  MEMB      41              0.0000000000
     43836      1301  PPPE      H2R            22.9876703413      -23.6230678876      -14.6763590878  MEMB      41              0.0000000000
     43837      1301  PPPE      H2S            22.7653236361      -21.8000852983      -14.7309783576  MEMB      41              0.0000000000
     43838      1301  PPPE      C3             26.6062899136      -20.2813504031      -16.3836116958  MEMB      41              0.0000000000
     43839      1301  PPPE      HX             27.0595218383      -20.9368487776      -15.6265853435  MEMB      41              0.0000000000
     43840      1301  PPPE      HY             27.4303302561      -20.0262574299      -17.0842629006  MEMB      41              0.0000000000
     43841      1301  PPPE      O31            26.0774677994      -19.1032238715      -15.7459603455  MEMB      41              0.0000000000
     43842      1301  PPPE      C31            26.3851009870      -18.9851659732      -14.4629995025  MEMB      41              0.0000000000
     43843      1301  PPPE      O32            27.0621201322      -19.6841847686      -13.7844063687  MEMB      41              0.0000000000
     43844      1301  PPPE      C32            25.9078683934      -17.7347251910      -13.9086290413  MEMB      41              0.0000000000
     43845      1301  PPPE      H2X            24.8739763810      -17.5863956366      -14.2668268116  MEMB      41              0.0000000000
     43846      1301  PPPE      H2Y            26.6175812702      -16.9789900667      -14.3052959500  MEMB      41              0.0000000000
     43847      1301  PPPE      C23            23.8846485237      -22.5036974173      -12.9830345988  MEMB      41              0.0000000000
     43848      1301  PPPE      H3R            24.2214744746      -21.4557348701      -12.8472513159  MEMB      41              0.0000000000
     43849      1301  PPPE      H3S            24.7538062912      -23.1471024212      -12.7067960263  MEMB      41              0.0000000000
     43850      1301  PPPE      C24            22.7094858158      -22.8552304970      -12.0719455923  MEMB      41              0.0000000000
     43851      1301  PPPE      H4R            22.4686492337      -23.8993489002      -12.2883256512  MEMB      41              0.0000000000
     43852      1301  PPPE      H4S            21.8038746585      -22.3107381538      -12.3973304729  MEMB      41              0.0000000000
     43853      1301  PPPE      C25            22.9522986931      -22.6948028993      -10.5616990720  MEMB      41              0.0000000000
     43854      1301  PPPE      H5R            23.8099094096      -23.3161895810      -10.2222660543  MEMB      41              0.0000000000
     43855      1301  PPPE      H5S            22.0656815223      -22.9633239838       -9.9430932739  MEMB      41              0.0000000000
     43856      1301  PPPE      C26            23.0647226718      -21.2659976830      -10.1307985195  MEMB      41              0.0000000000
     43857      1301  PPPE      H6R            22.0588974519      -20.7978254547      -10.2581539162  MEMB      41              0.0000000000
     43858      1301  PPPE      H6S            23.8230725331      -20.7658095369      -10.7624733962  MEMB      41              0.0000000000
     43859      1301  PPPE      C27            23.4463879604      -21.1596936638       -8.6675055826  MEMB      41              0.0000000000
     43860      1301  PPPE      H7R            24.4840516503      -21.5495788566       -8.5322052469  MEMB      41              0.0000000000
     43861      1301  PPPE      H7S            22.7719054767      -21.7591354518       -8.0109273579  MEMB      41              0.0000000000
     43862      1301  PPPE      C28            23.3827641510      -19.6990551825       -8.2518035621  MEMB      41              0.0000000000
     43863      1301  PPPE      H8R            23.8358365058      -19.0417846437       -9.0258760648  MEMB      41              0.0000000000
     43864      1301  PPPE      H8S            24.0089260196      -19.6807622749       -7.3363364822  MEMB      41              0.0000000000
     43865      1301  PPPE      C29            21.9786568228      -19.2251692666       -8.0230046639  MEMB      41              0.0000000000
     43866      1301  PPPE      H91            21.2246370258      -19.5385848857       -8.7579457086  MEMB      41              0.0000000000
     43867      1301  PPPE      C210           21.6110946358      -18.4712131016       -6.9930007648  MEMB      41              0.0000000000
     43868      1301  PPPE      H101           20.5346414160      -18.2793766528       -6.8310504245  MEMB      41              0.0000000000
     43869      1301  PPPE      C211           22.5565184599      -17.9958651600       -5.9114881556  MEMB      41              0.0000000000
     43870      1301  PPPE      H11R           22.5207114324      -16.9036639849       -5.6701613068  MEMB      41              0.0000000000
     43871      1301  PPPE      H11S           23.5996123162      -18.3808014684       -5.9309113246  MEMB      41              0.0000000000
     43872      1301  PPPE      C212           22.0595849689      -18.6127302507       -4.6667853034  MEMB      41              0.0000000000
     43873      1301  PPPE      H12R           22.0743922457      -19.7380371155       -4.7353767705  MEMB      41              0.0000000000
     43874      1301  PPPE      H12S           21.0047558879      -18.2496367103       -4.6822322320  MEMB      41              0.0000000000
     43875      1301  PPPE      C213           22.9422737740      -18.1269852411       -3.5063438795  MEMB      41              0.0000000000
     43876      1301  PPPE      H13R           23.2357383207      -17.0879979358       -3.6857734772  MEMB      41              0.0000000000
     43877      1301  PPPE      H13S           23.7810081698      -18.8482673360       -3.3658031414  MEMB      41              0.0000000000
     43878      1301  PPPE      C214           22.5108881472      -17.5013169796       -2.1946123457  MEMB      41              0.0000000000
     43879      1301  PPPE      H14R           22.1917616411      -18.3314262155       -1.8167016370  MEMB      41              0.0000000000
     43880      1301  PPPE      H14S           21.4936829379      -17.1675353348       -1.9284384583  MEMB      41              0.0000000000
     43881      1301  PPPE      C215           23.4799276799      -17.7255392829       -1.0961115458  MEMB      41              0.0000000000
     43882      1301  PPPE      H15R           22.9935877094      -16.9792547410       -0.4635953810  MEMB      41              0.0000000000
     43883      1301  PPPE      H15S           24.3817328541      -18.3894478847       -1.0959407037  MEMB      41              0.0000000000
     43884      1301  PPPE      C216           23.1766177041      -18.3929939655        0.1108964807  MEMB      41              0.0000000000
     43885      1301  PPPE      H16R           22.2325988516      -18.0000062808        0.6178521594  MEMB      41              0.0000000000
     43886      1301  PPPE      H16S           23.1274814116      -19.4602173330       -0.2679489758  MEMB      41              0.0000000000
     43887      1301  PPPE      H16T           23.7343743227      -18.3369426262        1.0323487796  MEMB      41              0.0000000000
     43888      1301  PPPE      C33            25.9996663813      -17.8033344826      -12.3780408874  MEMB      41              0.0000000000
     43889      1301  PPPE      H3X            26.0836459506      -18.8061654914      -11.9077521040  MEMB      41              0.0000000000
     43890      1301  PPPE      H3Y            24.9839986691      -17.4957365602      -12.0722733432  MEMB      41              0.0000000000
     43891      1301  PPPE      C34            27.1401357512      -16.9408362079      -11.8172240246  MEMB      41              0.0000000000
     43892      1301  PPPE      H4X            27.0751489178      -15.8836189366      -12.1511705327  MEMB      41              0.0000000000
     43893      1301  PPPE      H4Y            28.1364970668      -17.2965584019      -12.1638590945  MEMB      41              0.0000000000
     43894      1301  PPPE      C35            27.1624446894      -16.9927084183      -10.2988875462  MEMB      41              0.0000000000
     43895      1301  PPPE      H5X            26.2570816370      -16.9203230390       -9.7017529107  MEMB      41              0.0000000000
     43896      1301  PPPE      H5Y            27.6469466770      -16.1033830390       -9.9573826871  MEMB      41              0.0000000000
     43897      1301  PPPE      C36            27.6775899095      -18.2797831780       -9.7663353879  MEMB      41              0.0000000000
     43898      1301  PPPE      H6X            28.6884830653      -18.3756867452      -10.2553851735  MEMB      41              0.0000000000
     43899      1301  PPPE      H6Y            27.0093421558      -19.1092208101       -9.9606538486  MEMB      41              0.0000000000
     43900      1301  PPPE      C37            27.6036816313      -18.4124393142       -8.2260107521  MEMB      41              0.0000000000
     43901      1301  PPPE      H7X            26.9437731386      -18.0794499769       -7.4363584172  MEMB      41              0.0000000000
     43902      1301  PPPE      H7Y            27.8402983373      -17.4173011617       -8.2277677945  MEMB      41              0.0000000000
     43903      1301  PPPE      C38            28.6878662598      -19.2794761060       -7.7425869444  MEMB      41              0.0000000000
     43904      1301  PPPE      H8X            29.6096878128      -19.1764504494       -7.2038718935  MEMB      41              0.0000000000
     43905      1301  PPPE      H8Y            29.2258860891      -18.8327313293       -8.5485569248  MEMB      41              0.0000000000
     43906      1301  PPPE      C39            28.2346129152      -20.6338471268       -7.5500505833  MEMB      41              0.0000000000
     43907      1301  PPPE      H9X            28.8491293691      -21.5083259298       -7.7645971268  MEMB      41              0.0000000000
     43908      1301  PPPE      H9Y            27.6287550901      -20.7354225679       -8.4330547535  MEMB      41              0.0000000000
     43909      1301  PPPE      C310           27.7584754460      -20.6370767748       -6.1075966075  MEMB      41              0.0000000000
     43910      1301  PPPE      H10X           27.3627220135      -21.6500455784       -5.9919233218  MEMB      41              0.0000000000
     43911      1301  PPPE      H10Y           27.0180545177      -19.8058672867       -6.0468109307  MEMB      41              0.0000000000
     43912      1301  PPPE      C311           28.7115544839      -20.4680100511       -4.9094080998  MEMB      41              0.0000000000
     43913      1301  PPPE      H11X           29.0713377589      -19.4915010788       -4.8030510332  MEMB      41              0.0000000000
     43914      1301  PPPE      H11Y           29.6806034641      -20.9368214325       -4.9741770323  MEMB      41              0.0000000000
     43915      1301  PPPE      C312           28.0484025152      -20.7510896825       -3.5868552276  MEMB      41              0.0000000000
     43916      1301  PPPE      H12X           28.7634241151      -20.6216696459       -2.7435279709  MEMB      41              0.0000000000
     43917      1301  PPPE      H12Y           27.8721885381      -21.8356941632       -3.6680285888  MEMB      41              0.0000000000
     43918      1301  PPPE      C313           26.6945163981      -20.0443625951       -3.3446670941  MEMB      41              0.0000000000
     43919      1301  PPPE      H13X           26.4638502267      -20.1708757342       -2.2963211570  MEMB      41              0.0000000000
     43920      1301  PPPE      H13Y           25.8864316097      -20.3456867360       -4.0050772093  MEMB      41              0.0000000000
     43921      1301  PPPE      C314           26.6163195456      -18.6172271888       -2.9932701289  MEMB      41              0.0000000000
     43922      1301  PPPE      H14X           25.7126819879      -18.1567387130       -2.5599510776  MEMB      41              0.0000000000
     43923      1301  PPPE      H14Y           26.6271395857      -18.1015054072       -3.9695050310  MEMB      41              0.0000000000
     43924      1301  PPPE      C315           27.6797158558      -18.6158875774       -1.8849145405  MEMB      41              0.0000000000
     43925      1301  PPPE      H15X           28.5959159427      -18.1561730577       -2.0975532429  MEMB      41              0.0000000000
     43926      1301  PPPE      H15Y           28.7037721803      -18.9748967084       -2.0955709051  MEMB      41              0.0000000000
     43927      1301  PPPE      C316           27.0916430124      -18.2238336265       -0.4609409433  MEMB      41              0.0000000000
     43928      1301  PPPE      H16X           27.8144707337      -17.9211082715        0.3308582609  MEMB      41              0.0000000000
     43929      1301  PPPE      H16Y           26.6581375084      -17.4393545978       -1.0989818330  MEMB      41              0.0000000000
     43930      1301  PPPE      H16Z           27.5622371426      -19.0765317922       -0.4055298264  MEMB      41              0.0000000000
     43931      1302  PVCL2     C3             -9.7098544848       30.1618175136      -21.0248178666  MEMB      42              0.0000000000
     43932      1302  PVCL2     HG31          -10.4501733149       30.3404394166      -20.2168743923  MEMB      42              0.0000000000
     43933      1302  PVCL2     HG32          -10.1169884957       30.5152905997      -22.0040164270  MEMB      42              0.0000000000
     43934      1302  PVCL2     P3            -10.5155897168       27.8026508783      -21.6629863236  MEMB      42              0.0000000000
     43935      1302  PVCL2     OP33          -10.0709666625       26.4002919021      -21.5993352347  MEMB      42              0.0000000000
     43936      1302  PVCL2     OP34          -10.9596771962       28.3524260148      -22.9766321428  MEMB      42              0.0000000000
     43937      1302  PVCL2     OP31           -9.4006259413       28.7738619799      -21.1057976894  MEMB      42              0.0000000000
     43938      1302  PVCL2     OP32          -11.6887074537       28.0594134945      -20.6485632301  MEMB      42              0.0000000000
     43939      1302  PVCL2     C31           -11.6483894325       27.4790154332      -19.3679603004  MEMB      42              0.0000000000
     43940      1302  PVCL2     H31J          -11.7912483736       26.4214023550      -19.5789798836  MEMB      42              0.0000000000
     43941      1302  PVCL2     H31K          -10.6406273205       27.5551824109      -18.8876474785  MEMB      42              0.0000000000
     43942      1302  PVCL2     C2             -8.4592124289       31.0230702341      -20.7320251229  MEMB      42              0.0000000000
     43943      1302  PVCL2     HG22           -7.7036336922       30.7438516492      -21.4885701011  MEMB      42              0.0000000000
     43944      1302  PVCL2     OG12           -8.8639242492       32.3829607035      -20.8631170633  MEMB      42              0.0000000000
     43945      1302  PVCL2     HO12           -9.5523382729       32.4527274460      -20.1959903348  MEMB      42              0.0000000000
     43946      1302  PVCL2     C1             -7.8084176004       30.8367992974      -19.3405027543  MEMB      42              0.0000000000
     43947      1302  PVCL2     HG11           -8.6566479499       30.8157718935      -18.6161036976  MEMB      42              0.0000000000
     43948      1302  PVCL2     HG12           -7.1663978502       31.6985212799      -19.0512122032  MEMB      42              0.0000000000
     43949      1302  PVCL2     P1             -7.0881035259       28.6722396097      -18.0884199629  MEMB      42              0.0000000000
     43950      1302  PVCL2     OP13           -8.5047265542       28.4928080512      -17.6794963192  MEMB      42              0.0000000000
     43951      1302  PVCL2     OP14           -6.2621503318       27.4723515725      -18.3295861048  MEMB      42              0.0000000000
     43952      1302  PVCL2     OP11           -6.9854154795       29.6632809173      -19.3224026805  MEMB      42              0.0000000000
     43953      1302  PVCL2     OP12           -6.4067501198       29.5643790919      -16.9677913185  MEMB      42              0.0000000000
     43954      1302  PVCL2     C11            -5.0099116565       29.8565940321      -17.0261057385  MEMB      42              0.0000000000
     43955      1302  PVCL2     H11J           -4.7605862173       30.4017827474      -17.9664278417  MEMB      42              0.0000000000
     43956      1302  PVCL2     H11K           -4.4316996569       28.9070848277      -17.0075419829  MEMB      42              0.0000000000
     43957      1302  PVCL2     C12            -4.5239553683       30.6821523975      -15.7920491095  MEMB      42              0.0000000000
     43958      1302  PVCL2     H12J           -3.4619159431       30.4067663543      -15.5877350544  MEMB      42              0.0000000000
     43959      1302  PVCL2     O12            -5.3370772799       30.4279765752      -14.6252350636  MEMB      42              0.0000000000
     43960      1302  PVCL2     CA1            -5.0544646789       29.3138774364      -13.9770641158  MEMB      42              0.0000000000
     43961      1302  PVCL2     OA1            -4.0445056032       28.6481953911      -14.1416311619  MEMB      42              0.0000000000
     43962      1302  PVCL2     CA2            -6.1193644347       29.0614505903      -12.8917929692  MEMB      42              0.0000000000
     43963      1302  PVCL2     H2A            -7.1062072079       29.0323710093      -13.3913299788  MEMB      42              0.0000000000
     43964      1302  PVCL2     H2B            -6.1064942752       29.9093835516      -12.1760602710  MEMB      42              0.0000000000
     43965      1302  PVCL2     C13            -4.5531378104       32.2106393805      -16.1170197999  MEMB      42              0.0000000000
     43966      1302  PVCL2     H13J           -3.7931282185       32.4227221283      -16.9122389834  MEMB      42              0.0000000000
     43967      1302  PVCL2     H13K           -4.2201172256       32.7841723811      -15.2242643920  MEMB      42              0.0000000000
     43968      1302  PVCL2     O13            -5.8558329717       32.6407576504      -16.5821295125  MEMB      42              0.0000000000
     43969      1302  PVCL2     CB1            -6.7664521644       32.8666866298      -15.6340569757  MEMB      42              0.0000000000
     43970      1302  PVCL2     OB1            -6.5625668991       32.8671319101      -14.4345519458  MEMB      42              0.0000000000
     43971      1302  PVCL2     CB2            -8.1171991143       33.2146035147      -16.2724438524  MEMB      42              0.0000000000
     43972      1302  PVCL2     H2D            -8.7040230565       32.2897705164      -16.4329619399  MEMB      42              0.0000000000
     43973      1302  PVCL2     H2E            -7.9416342265       33.7156122814      -17.2444326343  MEMB      42              0.0000000000
     43974      1302  PVCL2     C32           -12.7555429068       28.1706313854      -18.5041888121  MEMB      42              0.0000000000
     43975      1302  PVCL2     H32J          -13.7410144638       27.8393108210      -18.9409822671  MEMB      42              0.0000000000
     43976      1302  PVCL2     O32           -12.5364216165       29.5493814984      -18.4266490364  MEMB      42              0.0000000000
     43977      1302  PVCL2     CC1           -13.2421149949       30.2795403191      -19.1773804402  MEMB      42              0.0000000000
     43978      1302  PVCL2     OC1           -14.1763195462       29.9672114440      -19.8854032713  MEMB      42              0.0000000000
     43979      1302  PVCL2     CC2           -12.6948855695       31.6631681876      -18.9283764184  MEMB      42              0.0000000000
     43980      1302  PVCL2     H2R           -11.9454433921       31.8787487711      -19.7171146061  MEMB      42              0.0000000000
     43981      1302  PVCL2     H2S           -12.2062900212       31.6940033634      -17.9238590172  MEMB      42              0.0000000000
     43982      1302  PVCL2     C33           -12.8684992355       27.8314462911      -17.0729510122  MEMB      42              0.0000000000
     43983      1302  PVCL2     H33J          -13.7232535149       28.0551562197      -16.4255987274  MEMB      42              0.0000000000
     43984      1302  PVCL2     H33K          -13.1048648821       26.7843068931      -17.3691377528  MEMB      42              0.0000000000
     43985      1302  PVCL2     O33           -11.5970466324       28.1075399374      -16.4102821809  MEMB      42              0.0000000000
     43986      1302  PVCL2     CD1           -11.4847015229       28.3581586989      -15.1177226381  MEMB      42              0.0000000000
     43987      1302  PVCL2     OD1           -12.3901176261       28.4926586541      -14.3219497430  MEMB      42              0.0000000000
     43988      1302  PVCL2     CD2           -10.0159916799       28.5384549115      -14.7645584559  MEMB      42              0.0000000000
     43989      1302  PVCL2     H2X            -9.3631488587       27.9081011775      -15.4037606968  MEMB      42              0.0000000000
     43990      1302  PVCL2     H2Y            -9.7798474485       28.2908838582      -13.7070500209  MEMB      42              0.0000000000
     43991      1302  PVCL2     CA3            -5.8612298362       27.7355527286      -12.1381665370  MEMB      42              0.0000000000
     43992      1302  PVCL2     H3A            -4.8514244396       27.7960811274      -11.6736018581  MEMB      42              0.0000000000
     43993      1302  PVCL2     H3B            -5.8652482758       26.8974756419      -12.8741242791  MEMB      42              0.0000000000
     43994      1302  PVCL2     CA4            -6.8225102181       27.4065192154      -11.0011060993  MEMB      42              0.0000000000
     43995      1302  PVCL2     H4A            -6.5924786204       28.0194086903      -10.0982579803  MEMB      42              0.0000000000
     43996      1302  PVCL2     H4B            -6.7280643780       26.3257573483      -10.7355101460  MEMB      42              0.0000000000
     43997      1302  PVCL2     CA5            -8.2911745592       27.6269520097      -11.2651908998  MEMB      42              0.0000000000
     43998      1302  PVCL2     H5A            -8.5595034968       27.0320371219      -12.1732195316  MEMB      42              0.0000000000
     43999      1302  PVCL2     H5B            -8.4352641072       28.6930620208      -11.5351408512  MEMB      42              0.0000000000
     44000      1302  PVCL2     CA6            -8.9088077667       27.1983078531       -9.9132575088  MEMB      42              0.0000000000
     44001      1302  PVCL2     H6A            -8.9104525781       27.9623844620       -9.1294730195  MEMB      42              0.0000000000
     44002      1302  PVCL2     H6B            -8.5673760162       26.1735195647       -9.6077161498  MEMB      42              0.0000000000
     44003      1302  PVCL2     CA7           -10.3103107665       26.9721732861       -9.9171940696  MEMB      42              0.0000000000
     44004      1302  PVCL2     H7A           -10.0540283615       26.2635442877      -10.7603842462  MEMB      42              0.0000000000
     44005      1302  PVCL2     H7B           -10.9538233869       27.8812270156      -10.1100822475  MEMB      42              0.0000000000
     44006      1302  PVCL2     CA8           -11.0194045338       25.9471778544       -9.1853500390  MEMB      42              0.0000000000
     44007      1302  PVCL2     H8A           -10.6928032129       24.9531411356       -8.9987239036  MEMB      42              0.0000000000
     44008      1302  PVCL2     H8B           -11.4052322504       25.4441273868      -10.0669439831  MEMB      42              0.0000000000
     44009      1302  PVCL2     CA9           -11.8725200978       26.6956752444       -8.2055796968  MEMB      42              0.0000000000
     44010      1302  PVCL2     H9A           -12.7452109271       26.2223468454       -7.8679295139  MEMB      42              0.0000000000
     44011      1302  PVCL2     H9B           -12.2276726618       27.7253328705       -8.4726782101  MEMB      42              0.0000000000
     44012      1302  PVCL2     CA10          -11.0436642053       26.7357767242       -6.9967900979  MEMB      42              0.0000000000
     44013      1302  PVCL2     H10A          -11.6018657720       27.3783345522       -6.3040226088  MEMB      42              0.0000000000
     44014      1302  PVCL2     H10B          -10.1281723301       27.2179996654       -7.3847038612  MEMB      42              0.0000000000
     44015      1302  PVCL2     CA11          -10.7184470885       25.3893431781       -6.4357321280  MEMB      42              0.0000000000
     44016      1302  PVCL2     H11A           -9.8362551846       24.9468281178       -6.8911000158  MEMB      42              0.0000000000
     44017      1302  PVCL2     CA12          -11.4357084026       24.6742114371       -5.5749787202  MEMB      42              0.0000000000
     44018      1302  PVCL2     H12A          -11.0954433740       23.7068389929       -5.1738297898  MEMB      42              0.0000000000
     44019      1302  PVCL2     CA13          -12.7194043793       25.1417142667       -5.0440888297  MEMB      42              0.0000000000
     44020      1302  PVCL2     H13A          -13.4129535127       24.3403250405       -4.9703975539  MEMB      42              0.0000000000
     44021      1302  PVCL2     H13B          -13.2888889749       25.8435181090       -5.6874266226  MEMB      42              0.0000000000
     44022      1302  PVCL2     CA14          -12.5901635955       25.5460288171       -3.6536000054  MEMB      42              0.0000000000
     44023      1302  PVCL2     H14A          -11.9787200098       26.4779648886       -3.5990050788  MEMB      42              0.0000000000
     44024      1302  PVCL2     H14B          -12.1847665911       24.7820660342       -2.9553159941  MEMB      42              0.0000000000
     44025      1302  PVCL2     CA15          -14.0067293644       25.8225699471       -3.3337916977  MEMB      42              0.0000000000
     44026      1302  PVCL2     H15A          -13.9650979481       25.5159836347       -2.2833767209  MEMB      42              0.0000000000
     44027      1302  PVCL2     H15B          -14.8318240171       25.1672733962       -3.2018868684  MEMB      42              0.0000000000
     44028      1302  PVCL2     CA16          -14.2890581677       27.2985010565       -3.8320741223  MEMB      42              0.0000000000
     44029      1302  PVCL2     H16A          -14.5036867333       27.3856941520       -4.8946167157  MEMB      42              0.0000000000
     44030      1302  PVCL2     H16B          -13.4605807832       27.9704873203       -3.6418100289  MEMB      42              0.0000000000
     44031      1302  PVCL2     CA17          -15.3506053535       28.2153426696       -3.3651618753  MEMB      42              0.0000000000
     44032      1302  PVCL2     H17A          -15.5557274932       29.1479575249       -3.6629413686  MEMB      42              0.0000000000
     44033      1302  PVCL2     H17B          -15.7137913121       28.3726997983       -2.4069001439  MEMB      42              0.0000000000
     44034      1302  PVCL2     CA18          -16.3889192029       27.7425653769       -3.2208198134  MEMB      42              0.0000000000
     44035      1302  PVCL2     H18A          -16.9536228680       27.7413905611       -4.0504924631  MEMB      42              0.0000000000
     44036      1302  PVCL2     H18B          -17.3082611389       28.0559521947       -2.4872263885  MEMB      42              0.0000000000
     44037      1302  PVCL2     H18C          -15.9563752235       26.6417049148       -2.9278276157  MEMB      42              0.0000000000
     44038      1302  PVCL2     CB3            -8.9411414024       34.1446919333      -15.3623844969  MEMB      42              0.0000000000
     44039      1302  PVCL2     H3D            -8.3016505598       35.0127359513      -15.1027925380  MEMB      42              0.0000000000
     44040      1302  PVCL2     H3E            -9.1426332993       33.6094639654      -14.4074513365  MEMB      42              0.0000000000
     44041      1302  PVCL2     CB4           -10.2462337845       34.6108358236      -16.0317334679  MEMB      42              0.0000000000
     44042      1302  PVCL2     H4D           -10.8797181522       33.7249258061      -16.2589448223  MEMB      42              0.0000000000
     44043      1302  PVCL2     H4E           -10.0213302613       35.1517045274      -16.9721777863  MEMB      42              0.0000000000
     44044      1302  PVCL2     CB5           -11.0508637759       35.5659470457      -15.1736346570  MEMB      42              0.0000000000
     44045      1302  PVCL2     H5D           -11.9378809500       35.9265862832      -15.6991206149  MEMB      42              0.0000000000
     44046      1302  PVCL2     H5E           -10.4882042760       36.5234902982      -15.0924338475  MEMB      42              0.0000000000
     44047      1302  PVCL2     CB6           -11.3201224118       34.8385434022      -13.8487497661  MEMB      42              0.0000000000
     44048      1302  PVCL2     H6D           -10.3874190496       34.8647237373      -13.2863909914  MEMB      42              0.0000000000
     44049      1302  PVCL2     H6E           -11.6936387659       33.8155223483      -13.8742265943  MEMB      42              0.0000000000
     44050      1302  PVCL2     CB7           -12.2679492126       35.4762388101      -12.9461132010  MEMB      42              0.0000000000
     44051      1302  PVCL2     H7D           -13.2874819749       35.4316694874      -13.4018602842  MEMB      42              0.0000000000
     44052      1302  PVCL2     H7E           -11.6885728937       36.4222645420      -13.0232423365  MEMB      42              0.0000000000
     44053      1302  PVCL2     CB8           -12.3462867642       35.0539696224      -11.5062447792  MEMB      42              0.0000000000
     44054      1302  PVCL2     H8D           -11.4258361294       35.3243006445      -10.9355752589  MEMB      42              0.0000000000
     44055      1302  PVCL2     H8E           -12.5676548856       33.9784032136      -11.5383490314  MEMB      42              0.0000000000
     44056      1302  PVCL2     CB9           -13.5507071574       35.4812659192      -10.6724771790  MEMB      42              0.0000000000
     44057      1302  PVCL2     H9D           -14.5266071665       35.5897830164      -11.1336317852  MEMB      42              0.0000000000
     44058      1302  PVCL2     H9E           -13.8674341403       36.4124916527      -10.3505496019  MEMB      42              0.0000000000
     44059      1302  PVCL2     CB10          -13.1872519315       35.9275872407       -9.3386287843  MEMB      42              0.0000000000
     44060      1302  PVCL2     H10D          -12.2013374268       36.1546041591       -8.9237101556  MEMB      42              0.0000000000
     44061      1302  PVCL2     H10E          -12.8693131700       34.8627162920       -9.5120167018  MEMB      42              0.0000000000
     44062      1302  PVCL2     CB11          -14.5755999080       36.4531098398       -8.3819123398  MEMB      42              0.0000000000
     44063      1302  PVCL2     H11D          -15.5478943242       36.4547770785       -8.8917649961  MEMB      42              0.0000000000
     44064      1302  PVCL2     H11E          -14.6327159193       37.3808232057       -8.1229168283  MEMB      42              0.0000000000
     44065      1302  PVCL2     CB12          -14.7966391250       36.4862911123       -6.8370808855  MEMB      42              0.0000000000
     44066      1302  PVCL2     H12D          -15.3601196936       36.6586523791       -6.1022308425  MEMB      42              0.0000000000
     44067      1302  PVCL2     H12E          -13.5786298066       37.1149937285       -6.9738194762  MEMB      42              0.0000000000
     44068      1302  PVCL2     CB13          -14.6576495365       35.0330537497       -5.4308433534  MEMB      42              0.0000000000
     44069      1302  PVCL2     H13D          -12.9731835842       34.9907345121       -5.3215134845  MEMB      42              0.0000000000
     44070      1302  PVCL2     H13E          -15.1876007449       33.9385949824       -5.8763970727  MEMB      42              0.0000000000
     44071      1302  PVCL2     CB14          -15.8356015508       34.0592292179       -4.9783029366  MEMB      42              0.0000000000
     44072      1302  PVCL2     H14D          -15.9433398550       35.0890550445       -4.5489839579  MEMB      42              0.0000000000
     44073      1302  PVCL2     H14E          -15.4985795215       33.0435921894       -4.4653683553  MEMB      42              0.0000000000
     44074      1302  PVCL2     CB15          -17.1177225597       33.9670481937       -5.5610203599  MEMB      42              0.0000000000
     44075      1302  PVCL2     H15D          -17.0952970187       33.0532390526       -6.2136407006  MEMB      42              0.0000000000
     44076      1302  PVCL2     H15E          -17.3365295310       34.9393792996       -6.0403832643  MEMB      42              0.0000000000
     44077      1302  PVCL2     CB16          -17.7624352666       33.8443880536       -4.2757287210  MEMB      42              0.0000000000
     44078      1302  PVCL2     H16D          -17.5375902354       32.9126445509       -3.7597122568  MEMB      42              0.0000000000
     44079      1302  PVCL2     H16E          -18.6480223228       33.7790387595       -4.8658152618  MEMB      42              0.0000000000
     44080      1302  PVCL2     H16F          -17.8332112776       34.6884188572       -3.5678849016  MEMB      42              0.0000000000
     44081      1302  PVCL2     CC3           -13.8209005833       32.6752019381      -18.9633790033  MEMB      42              0.0000000000
     44082      1302  PVCL2     H3R           -14.6574174248       32.4766790430      -19.6534661184  MEMB      42              0.0000000000
     44083      1302  PVCL2     H3S           -13.3212490163       33.5865114924      -19.3943001827  MEMB      42              0.0000000000
     44084      1302  PVCL2     CC4           -14.3725626337       32.9220149974      -17.5645952970  MEMB      42              0.0000000000
     44085      1302  PVCL2     H4R           -15.0577934025       33.8064658745      -17.7388220274  MEMB      42              0.0000000000
     44086      1302  PVCL2     H4S           -13.4904830593       33.0014096369      -16.8622310311  MEMB      42              0.0000000000
     44087      1302  PVCL2     CC5           -15.3316073784       32.1674028198      -16.7708434670  MEMB      42              0.0000000000
     44088      1302  PVCL2     H5R           -14.9402412426       31.1486595971      -16.9183174091  MEMB      42              0.0000000000
     44089      1302  PVCL2     H5S           -16.3359463456       32.3356515489      -17.2297356382  MEMB      42              0.0000000000
     44090      1302  PVCL2     CC6           -15.3261287935       32.5917234867      -15.2831729890  MEMB      42              0.0000000000
     44091      1302  PVCL2     H6R           -16.0080891303       33.4426744783      -15.1252827399  MEMB      42              0.0000000000
     44092      1302  PVCL2     H6S           -14.3481573168       32.9184843159      -14.8611340300  MEMB      42              0.0000000000
     44093      1302  PVCL2     CC7           -15.7679891305       31.3232024463      -14.5715608534  MEMB      42              0.0000000000
     44094      1302  PVCL2     H7R           -15.2190352668       30.5094819513      -15.0850064988  MEMB      42              0.0000000000
     44095      1302  PVCL2     H7S           -16.8484255966       31.1411840774      -14.7498850743  MEMB      42              0.0000000000
     44096      1302  PVCL2     CC8           -15.2688245433       30.9981146768      -13.1808210695  MEMB      42              0.0000000000
     44097      1302  PVCL2     H8R           -15.7406829529       31.4940238757      -12.4321382112  MEMB      42              0.0000000000
     44098      1302  PVCL2     H8S           -14.2429831937       31.3076719610      -12.9357248197  MEMB      42              0.0000000000
     44099      1302  PVCL2     CC9           -15.9386815454       29.7769799630      -12.5524528108  MEMB      42              0.0000000000
     44100      1302  PVCL2     H9R           -15.5135175036       28.9154688778      -13.0776903604  MEMB      42              0.0000000000
     44101      1302  PVCL2     H9S           -17.0438229945       29.8424091566      -12.7343269838  MEMB      42              0.0000000000
     44102      1302  PVCL2     CC10          -15.7392030116       29.6562517277      -11.0275915799  MEMB      42              0.0000000000
     44103      1302  PVCL2     H10R          -16.2395875889       28.7232688177      -10.7173128440  MEMB      42              0.0000000000
     44104      1302  PVCL2     H10S          -16.2946301303       30.4092217847      -10.4438564246  MEMB      42              0.0000000000
     44105      1302  PVCL2     CC11          -14.2466167059       29.6478385165      -10.7872027316  MEMB      42              0.0000000000
     44106      1302  PVCL2     H11R          -13.6725688051       29.1081866688      -11.5378124398  MEMB      42              0.0000000000
     44107      1302  PVCL2     CC12          -13.5220857240       30.1928063630       -9.8210231702  MEMB      42              0.0000000000
     44108      1302  PVCL2     H12R          -12.4359464074       30.1475627089       -9.7932634562  MEMB      42              0.0000000000
     44109      1302  PVCL2     CC13          -14.0055791498       30.9640332897       -8.7143282651  MEMB      42              0.0000000000
     44110      1302  PVCL2     H13R          -15.0879420844       31.2044785034       -8.8736778024  MEMB      42              0.0000000000
     44111      1302  PVCL2     H13S          -13.2605038572       31.7984934421       -8.7739178590  MEMB      42              0.0000000000
     44112      1302  PVCL2     CC14          -13.8448736095       30.5205787414       -7.3121670888  MEMB      42              0.0000000000
     44113      1302  PVCL2     H14R          -14.2788998924       29.5363628403       -7.2328118691  MEMB      42              0.0000000000
     44114      1302  PVCL2     H14S          -14.5637143121       31.1097302099       -6.7310114319  MEMB      42              0.0000000000
     44115      1302  PVCL2     CC15          -12.3844098057       30.5878160292       -6.8546023223  MEMB      42              0.0000000000
     44116      1302  PVCL2     H15R          -11.9540022020       31.5633683889       -7.0894597528  MEMB      42              0.0000000000
     44117      1302  PVCL2     H15S          -11.7180610087       30.0368680856       -7.5361272556  MEMB      42              0.0000000000
     44118      1302  PVCL2     CC16          -12.1706013752       30.0892898938       -5.4011931621  MEMB      42              0.0000000000
     44119      1302  PVCL2     H16R          -11.1072700854       29.8224229560       -5.3540848585  MEMB      42              0.0000000000
     44120      1302  PVCL2     H16S          -12.7668178155       29.1890370182       -5.2159540424  MEMB      42              0.0000000000
     44121      1302  PVCL2     CC17          -12.3176043967       31.0442138594       -4.2287075569  MEMB      42              0.0000000000
     44122      1302  PVCL2     H17R          -13.3935478570       31.3372639961       -4.0822814612  MEMB      42              0.0000000000
     44123      1302  PVCL2     H17S          -11.6504849995       31.9116843408       -4.5107637822  MEMB      42              0.0000000000
     44124      1302  PVCL2     CC18          -11.9377167505       30.6923324745       -2.8115551900  MEMB      42              0.0000000000
     44125      1302  PVCL2     H18R          -10.8767703889       30.3989016575       -2.8162704678  MEMB      42              0.0000000000
     44126      1302  PVCL2     H18S          -12.6443331167       29.9157140152       -2.4755483778  MEMB      42              0.0000000000
     44127      1302  PVCL2     H18T          -12.0777233446       31.5570143973       -2.1132352457  MEMB      42              0.0000000000
     44128      1302  PVCL2     CD3            -9.8150720627       30.0159991672      -15.0831520082  MEMB      42              0.0000000000
     44129      1302  PVCL2     H3X           -10.0604436669       30.2320699356      -16.1520251697  MEMB      42              0.0000000000
     44130      1302  PVCL2     H3Y            -8.7363067671       30.2362931140      -14.9601036483  MEMB      42              0.0000000000
     44131      1302  PVCL2     CD4           -10.6106189087       30.9115486120      -14.1333843824  MEMB      42              0.0000000000
     44132      1302  PVCL2     H4X           -11.7113384444       30.7271715460      -14.1349311056  MEMB      42              0.0000000000
     44133      1302  PVCL2     H4Y           -10.4640502604       31.9545667408      -14.4655504336  MEMB      42              0.0000000000
     44134      1302  PVCL2     CD5           -10.1177194922       30.7404378178      -12.6956194863  MEMB      42              0.0000000000
     44135      1302  PVCL2     H5X            -9.0348378959       30.4665637202      -12.7168289762  MEMB      42              0.0000000000
     44136      1302  PVCL2     H5Y           -10.6821552459       29.9034975428      -12.2427069637  MEMB      42              0.0000000000
     44137      1302  PVCL2     CD6           -10.3826781903       31.9946249056      -11.8826161218  MEMB      42              0.0000000000
     44138      1302  PVCL2     H6X           -11.4191055319       32.3487518318      -12.0099703141  MEMB      42              0.0000000000
     44139      1302  PVCL2     H6Y            -9.8646105622       32.7987363962      -12.4091518182  MEMB      42              0.0000000000
     44140      1302  PVCL2     CD7           -10.1204309113       31.8787903188      -10.3647603271  MEMB      42              0.0000000000
     44141      1302  PVCL2     H7X           -10.8004586897       31.1581140330       -9.9080433241  MEMB      42              0.0000000000
     44142      1302  PVCL2     H7Y           -10.3652166991       32.8813606719       -9.9291069519  MEMB      42              0.0000000000
     44143      1302  PVCL2     CD8            -8.7383178329       31.4114762442       -9.8801671623  MEMB      42              0.0000000000
     44144      1302  PVCL2     H8X            -8.0711170995       32.2210720853       -9.9458386729  MEMB      42              0.0000000000
     44145      1302  PVCL2     H8Y            -8.2147115171       30.6430396003      -10.4685062024  MEMB      42              0.0000000000
     44146      1302  PVCL2     CD9            -8.6180673000       31.2234869670       -8.3792624799  MEMB      42              0.0000000000
     44147      1302  PVCL2     H9X            -7.5432715278       31.0262681015       -8.1130902920  MEMB      42              0.0000000000
     44148      1302  PVCL2     H9Y            -9.2202561391       30.3610848539       -8.1190466442  MEMB      42              0.0000000000
     44149      1302  PVCL2     CD10           -9.3073190484       32.2647698997       -7.5216895067  MEMB      42              0.0000000000
     44150      1302  PVCL2     H10X          -10.1670117455       32.8419010194       -7.9060639154  MEMB      42              0.0000000000
     44151      1302  PVCL2     H10Y           -8.9559512272       33.2312584558       -7.7877615276  MEMB      42              0.0000000000
     44152      1302  PVCL2     CD11           -9.1542511454       31.9512195730       -5.9560239969  MEMB      42              0.0000000000
     44153      1302  PVCL2     H11X           -9.9448585709       31.2191704829       -5.8114412878  MEMB      42              0.0000000000
     44154      1302  PVCL2     H11Y           -9.7863662722       32.8076353665       -5.6042487428  MEMB      42              0.0000000000
     44155      1302  PVCL2     CD12           -7.5721001735       31.6672339243       -5.2192959919  MEMB      42              0.0000000000
     44156      1302  PVCL2     H12X           -7.4410130124       30.6929200917       -5.6577606930  MEMB      42              0.0000000000
     44157      1302  PVCL2     H12Y           -7.5845146433       31.4957650347       -4.1682366496  MEMB      42              0.0000000000
     44158      1302  PVCL2     CD13           -6.0452299509       32.5707590779       -5.1530087049  MEMB      42              0.0000000000
     44159      1302  PVCL2     H13X           -5.9318822741       33.7032150436       -5.0684007156  MEMB      42              0.0000000000
     44160      1302  PVCL2     H13Y           -5.5019127365       32.6918106764       -6.0727770486  MEMB      42              0.0000000000
     44161      1302  PVCL2     CD14           -5.0406003239       32.6379581391       -4.1022437483  MEMB      42              0.0000000000
     44162      1302  PVCL2     H14X           -4.2402627283       33.3995364938       -4.3908311058  MEMB      42              0.0000000000
     44163      1302  PVCL2     H14Y           -4.9591059135       31.5728439664       -4.2509192604  MEMB      42              0.0000000000
     44164      1302  PVCL2     CD15           -5.6424277366       33.1334111888       -2.9271240795  MEMB      42              0.0000000000
     44165      1302  PVCL2     H15X           -6.5677293376       32.5559624144       -2.7692133901  MEMB      42              0.0000000000
     44166      1302  PVCL2     H15Y           -5.7201828577       34.2519684795       -2.9470064392  MEMB      42              0.0000000000
     44167      1302  PVCL2     CD16           -4.8118682837       32.8940698105       -1.8071691049  MEMB      42              0.0000000000
     44168      1302  PVCL2     H16X           -4.8811450049       31.8158093393       -1.5853790645  MEMB      42              0.0000000000
     44169      1302  PVCL2     H16Y           -5.2153990554       33.5303071904       -0.9974306950  MEMB      42              0.0000000000
     44170      1302  PVCL2     H16Z           -3.8558839532       33.2907539055       -2.1426474690  MEMB      42              0.0000000000
     44171      1303  PPPE      N             -25.2054368996       17.1564692762      -20.1820258533  MEMB      43              0.0000000000
     44172      1303  PPPE      HN1           -25.0310923093       16.2845658541      -20.7331171770  MEMB      43              0.0000000000
     44173      1303  PPPE      HN2           -25.0427604019       16.9737849672      -19.1683622747  MEMB      43              0.0000000000
     44174      1303  PPPE      HN3           -26.1809715328       17.4781159464      -20.3376093105  MEMB      43              0.0000000000
     44175      1303  PPPE      C12           -24.2640842239       18.2494754288      -20.6138879845  MEMB      43              0.0000000000
     44176      1303  PPPE      H12A          -24.5161423335       18.4662602473      -21.6633519549  MEMB      43              0.0000000000
     44177      1303  PPPE      H12B          -23.2351230720       17.8452960522      -20.5450461846  MEMB      43              0.0000000000
     44178      1303  PPPE      C11           -24.4152237623       19.5950558502      -19.8675657052  MEMB      43              0.0000000000
     44179      1303  PPPE      H11A          -25.4795254613       19.8918860764      -19.7917116824  MEMB      43              0.0000000000
     44180      1303  PPPE      H11B          -23.9048300603       20.3722748152      -20.4910289024  MEMB      43              0.0000000000
     44181      1303  PPPE      P             -22.3347546835       19.9855537861      -18.3908233549  MEMB      43              0.0000000000
     44182      1303  PPPE      O13           -21.5759530530       19.0810698183      -19.2868680927  MEMB      43              0.0000000000
     44183      1303  PPPE      O14           -22.1833428471       21.4517153598      -18.4764936134  MEMB      43              0.0000000000
     44184      1303  PPPE      O11           -22.1282777690       19.5155324741      -16.9230357022  MEMB      43              0.0000000000
     44185      1303  PPPE      O12           -23.8680404733       19.5678019621      -18.5618290092  MEMB      43              0.0000000000
     44186      1303  PPPE      C1            -22.3055991774       18.1535213887      -16.5531902833  MEMB      43              0.0000000000
     44187      1303  PPPE      HA            -21.3311522612       17.8108496972      -16.4342381289  MEMB      43              0.0000000000
     44188      1303  PPPE      HB            -22.6389921910       17.4289100936      -17.3175540325  MEMB      43              0.0000000000
     44189      1303  PPPE      C2            -22.8788042751       17.9926361206      -15.1478889296  MEMB      43              0.0000000000
     44190      1303  PPPE      HS            -23.9392349586       18.2594212208      -15.1984400383  MEMB      43              0.0000000000
     44191      1303  PPPE      O21           -22.0869597232       18.7892741204      -14.2350367728  MEMB      43              0.0000000000
     44192      1303  PPPE      C21           -22.6221753303       19.9562061962      -14.0401289801  MEMB      43              0.0000000000
     44193      1303  PPPE      O22           -23.6619977571       20.3631939744      -14.5296810351  MEMB      43              0.0000000000
     44194      1303  PPPE      C22           -21.7643449475       20.6355084837      -12.9729061957  MEMB      43              0.0000000000
     44195      1303  PPPE      H2R           -20.7254795557       20.7155418134      -13.3425604731  MEMB      43              0.0000000000
     44196      1303  PPPE      H2S           -21.7679482970       20.0038883317      -12.0579557249  MEMB      43              0.0000000000
     44197      1303  PPPE      C3            -22.9157039934       16.5596643868      -14.6215028335  MEMB      43              0.0000000000
     44198      1303  PPPE      HX            -23.0755010285       15.6372768333      -15.2010545484  MEMB      43              0.0000000000
     44199      1303  PPPE      HY            -21.9651245630       16.2875254349      -14.7858942891  MEMB      43              0.0000000000
     44200      1303  PPPE      O31           -22.9801678249       16.5054971427      -13.2003118791  MEMB      43              0.0000000000
     44201      1303  PPPE      C31           -24.0231852738       15.8455001695      -12.9465894051  MEMB      43              0.0000000000
     44202      1303  PPPE      O32           -24.6653759345       15.1385162674      -13.7105483539  MEMB      43              0.0000000000
     44203      1303  PPPE      C32           -24.4928366334       16.3977489823      -11.6642593975  MEMB      43              0.0000000000
     44204      1303  PPPE      H2X           -23.8632857574       17.1442160628      -11.1611248634  MEMB      43              0.0000000000
     44205      1303  PPPE      H2Y           -24.7922825934       15.5549109257      -10.9981149246  MEMB      43              0.0000000000
     44206      1303  PPPE      C23           -22.3312482182       22.0005344930      -12.6785997502  MEMB      43              0.0000000000
     44207      1303  PPPE      H3R           -22.1682173265       22.6770115402      -13.5618899720  MEMB      43              0.0000000000
     44208      1303  PPPE      H3S           -21.7694207183       22.5042847314      -11.8522552959  MEMB      43              0.0000000000
     44209      1303  PPPE      C24           -23.8459984977       21.9056490571      -12.3273215527  MEMB      43              0.0000000000
     44210      1303  PPPE      H4R           -24.6335514619       21.9562620562      -13.0920014800  MEMB      43              0.0000000000
     44211      1303  PPPE      H4S           -23.7519428880       22.9196484205      -12.2467906210  MEMB      43              0.0000000000
     44212      1303  PPPE      C25           -24.3130479091       21.3997778729      -10.9391107658  MEMB      43              0.0000000000
     44213      1303  PPPE      H5R           -23.4364472963       21.6081948089      -10.3123409392  MEMB      43              0.0000000000
     44214      1303  PPPE      H5S           -24.2986276168       20.3163908436      -10.9780263420  MEMB      43              0.0000000000
     44215      1303  PPPE      C26           -25.7179638710       21.8902758635      -10.3875662405  MEMB      43              0.0000000000
     44216      1303  PPPE      H6R           -26.3942330666       21.7757193351      -11.2400776833  MEMB      43              0.0000000000
     44217      1303  PPPE      H6S           -25.9621348548       22.9445117503      -10.1006030005  MEMB      43              0.0000000000
     44218      1303  PPPE      C27           -26.1973736224       21.2712056818       -9.0755509163  MEMB      43              0.0000000000
     44219      1303  PPPE      H7R           -25.3723574875       20.8972915374       -8.4514564791  MEMB      43              0.0000000000
     44220      1303  PPPE      H7S           -26.6940343889       20.3693772160       -9.4043587697  MEMB      43              0.0000000000
     44221      1303  PPPE      C28           -26.9615820588       22.2926442672       -8.1812833595  MEMB      43              0.0000000000
     44222      1303  PPPE      H8R           -27.5712724499       22.7663250871       -8.8361120262  MEMB      43              0.0000000000
     44223      1303  PPPE      H8S           -26.5256693668       23.2204389452       -7.7156986898  MEMB      43              0.0000000000
     44224      1303  PPPE      C29           -27.7087493459       21.6650528699       -7.1354995841  MEMB      43              0.0000000000
     44225      1303  PPPE      H91           -28.7908176968       21.5930016308       -7.1775397013  MEMB      43              0.0000000000
     44226      1303  PPPE      C210          -27.0787580388       21.1528884119       -6.1094510484  MEMB      43              0.0000000000
     44227      1303  PPPE      H101          -27.7171534674       20.9228300654       -5.2695789122  MEMB      43              0.0000000000
     44228      1303  PPPE      C211          -25.5998056098       21.0470939303       -5.7080876178  MEMB      43              0.0000000000
     44229      1303  PPPE      H11R          -25.4884830373       22.0422897304       -6.1070731200  MEMB      43              0.0000000000
     44230      1303  PPPE      H11S          -24.8715414458       20.3415934674       -6.1018479565  MEMB      43              0.0000000000
     44231      1303  PPPE      C212          -24.9169960338       20.8023577249       -4.2449411467  MEMB      43              0.0000000000
     44232      1303  PPPE      H12R          -25.5182106607       20.2584340651       -3.5454916156  MEMB      43              0.0000000000
     44233      1303  PPPE      H12S          -25.7150697617       21.4809214918       -4.4425728999  MEMB      43              0.0000000000
     44234      1303  PPPE      C213          -23.5477183472       21.3959090819       -3.3642252215  MEMB      43              0.0000000000
     44235      1303  PPPE      H13R          -22.9992118461       22.3378640061       -3.6971605609  MEMB      43              0.0000000000
     44236      1303  PPPE      H13S          -22.7799526382       20.6681089491       -3.5290437656  MEMB      43              0.0000000000
     44237      1303  PPPE      C214          -23.5403975417       21.9832932581       -1.8394568149  MEMB      43              0.0000000000
     44238      1303  PPPE      H14R          -24.3969882565       21.6244997506       -1.2627157018  MEMB      43              0.0000000000
     44239      1303  PPPE      H14S          -23.5909015977       23.1062293954       -1.6569429508  MEMB      43              0.0000000000
     44240      1303  PPPE      C215          -22.1742088008       21.8888226727       -1.1885038732  MEMB      43              0.0000000000
     44241      1303  PPPE      H15R          -21.5189860815       22.5158182413       -1.8428895561  MEMB      43              0.0000000000
     44242      1303  PPPE      H15S          -21.8820485154       20.8263231501       -1.2484316704  MEMB      43              0.0000000000
     44243      1303  PPPE      C216          -22.0756657352       22.4413089650        0.2360096135  MEMB      43              0.0000000000
     44244      1303  PPPE      H16R          -23.0705166544       22.4446921489        0.7341053064  MEMB      43              0.0000000000
     44245      1303  PPPE      H16S          -21.3526223538       21.8227803354        0.8111758025  MEMB      43              0.0000000000
     44246      1303  PPPE      H16T          -21.7027478687       23.4898110350        0.2281702988  MEMB      43              0.0000000000
     44247      1303  PPPE      C33           -25.5911633289       17.2919081956      -12.1282766200  MEMB      43              0.0000000000
     44248      1303  PPPE      H3X           -26.1975296984       16.4540374755      -12.3758890342  MEMB      43              0.0000000000
     44249      1303  PPPE      H3Y           -25.7008584802       17.8045785303      -13.1021348628  MEMB      43              0.0000000000
     44250      1303  PPPE      C34           -26.1065241057       18.1650137883      -11.0352388497  MEMB      43              0.0000000000
     44251      1303  PPPE      H4X           -27.1819208194       18.2465611032      -11.2236800408  MEMB      43              0.0000000000
     44252      1303  PPPE      H4Y           -25.9129493860       19.2164819989      -11.1880189442  MEMB      43              0.0000000000
     44253      1303  PPPE      C35           -25.9628226989       17.6846483493       -9.5961650264  MEMB      43              0.0000000000
     44254      1303  PPPE      H5X           -26.2936956993       16.6699392716       -9.2383425698  MEMB      43              0.0000000000
     44255      1303  PPPE      H5Y           -26.6886719888       18.4860685000       -9.3268120950  MEMB      43              0.0000000000
     44256      1303  PPPE      C36           -24.8306828993       17.9241941757       -8.6818533491  MEMB      43              0.0000000000
     44257      1303  PPPE      H6X           -24.6396060861       18.9867696473       -8.8734289861  MEMB      43              0.0000000000
     44258      1303  PPPE      H6Y           -24.1009296209       17.1881958164       -9.0637404145  MEMB      43              0.0000000000
     44259      1303  PPPE      C37           -25.0613637594       17.7558691857       -7.1647719693  MEMB      43              0.0000000000
     44260      1303  PPPE      H7X           -25.8419377440       18.4372911850       -6.8001701052  MEMB      43              0.0000000000
     44261      1303  PPPE      H7Y           -24.1253302372       18.1100002586       -6.6961207857  MEMB      43              0.0000000000
     44262      1303  PPPE      C38           -25.3928702375       16.3331663418       -6.7145987578  MEMB      43              0.0000000000
     44263      1303  PPPE      H8X           -24.6969517396       15.6360184094       -7.2024365975  MEMB      43              0.0000000000
     44264      1303  PPPE      H8Y           -26.4346759354       16.0681057729       -7.0107691090  MEMB      43              0.0000000000
     44265      1303  PPPE      C39           -25.2760945907       16.0916219549       -5.2398970150  MEMB      43              0.0000000000
     44266      1303  PPPE      H9X           -24.4050297843       16.4999780295       -4.6866973618  MEMB      43              0.0000000000
     44267      1303  PPPE      H9Y           -25.4108329559       14.9972136376       -5.0084369422  MEMB      43              0.0000000000
     44268      1303  PPPE      C310          -26.3964209272       16.7125570586       -4.5634209622  MEMB      43              0.0000000000
     44269      1303  PPPE      H10X          -27.2079621741       16.0722472065       -5.0353280675  MEMB      43              0.0000000000
     44270      1303  PPPE      H10Y          -26.7315140381       17.7304241089       -4.7095081619  MEMB      43              0.0000000000
     44271      1303  PPPE      C311          -25.8655761583       16.6556380288       -3.1137166710  MEMB      43              0.0000000000
     44272      1303  PPPE      H11X          -25.6579816002       15.6023168687       -2.9039436795  MEMB      43              0.0000000000
     44273      1303  PPPE      H11Y          -26.5082489469       16.8601805346       -2.2866184927  MEMB      43              0.0000000000
     44274      1303  PPPE      C312          -25.6483513772       17.9070311686       -2.2763109474  MEMB      43              0.0000000000
     44275      1303  PPPE      H12X          -26.3729082071       18.7450495281       -2.4118759336  MEMB      43              0.0000000000
     44276      1303  PPPE      H12Y          -24.6871706947       17.9606729014       -2.7965354102  MEMB      43              0.0000000000
     44277      1303  PPPE      C313          -25.5226619645       17.6185709542       -0.7595782249  MEMB      43              0.0000000000
     44278      1303  PPPE      H13X          -24.7783317839       16.9714522133       -1.0860231605  MEMB      43              0.0000000000
     44279      1303  PPPE      H13Y          -26.1459387703       17.0496819990       -0.0279307175  MEMB      43              0.0000000000
     44280      1303  PPPE      C314          -24.9517182519       18.6309044974        0.0800891750  MEMB      43              0.0000000000
     44281      1303  PPPE      H14X          -23.9814548732       18.8778744283       -0.3786162244  MEMB      43              0.0000000000
     44282      1303  PPPE      H14Y          -24.8233252640       18.1680248376        1.0790155993  MEMB      43              0.0000000000
     44283      1303  PPPE      C315          -26.0121230853       19.6797060318        0.0818599481  MEMB      43              0.0000000000
     44284      1303  PPPE      H15X          -25.9372835837       20.1832008390       -0.8907740484  MEMB      43              0.0000000000
     44285      1303  PPPE      H15Y          -25.7582177838       20.3637109955        0.9005993255  MEMB      43              0.0000000000
     44286      1303  PPPE      C316          -27.4375038250       19.1699121052        0.2762146983  MEMB      43              0.0000000000
     44287      1303  PPPE      H16X          -27.8108269456       18.5047545234       -0.5295027415  MEMB      43              0.0000000000
     44288      1303  PPPE      H16Y          -27.4767815384       18.6117830379        1.2362081946  MEMB      43              0.0000000000
     44289      1303  PPPE      H16Z          -28.1081769654       20.0451543260        0.3098082331  MEMB      43              0.0000000000
     44290      1304  PPPE      N             -23.3879182652      -18.5948033144      -21.5886208917  MEMB      44              0.0000000000
     44291      1304  PPPE      HN1           -23.5479645451      -17.8523070938      -20.8768351367  MEMB      44              0.0000000000
     44292      1304  PPPE      HN2           -22.3860187089      -18.5796764226      -21.8921433962  MEMB      44              0.0000000000
     44293      1304  PPPE      HN3           -24.0147469498      -18.5084352558      -22.4070231223  MEMB      44              0.0000000000
     44294      1304  PPPE      C12           -23.6935957974      -19.8796977344      -20.8775875964  MEMB      44              0.0000000000
     44295      1304  PPPE      H12A          -24.2084354027      -20.5336309880      -21.6115618833  MEMB      44              0.0000000000
     44296      1304  PPPE      H12B          -24.3933918354      -19.6274743201      -20.0542172304  MEMB      44              0.0000000000
     44297      1304  PPPE      C11           -22.4074821816      -20.5071420625      -20.3062214210  MEMB      44              0.0000000000
     44298      1304  PPPE      H11A          -21.6777887680      -20.6005470949      -21.1446521504  MEMB      44              0.0000000000
     44299      1304  PPPE      H11B          -22.5987222871      -21.5393243701      -19.9248205850  MEMB      44              0.0000000000
     44300      1304  PPPE      P             -22.5098554930      -19.5571904494      -17.8523403153  MEMB      44              0.0000000000
     44301      1304  PPPE      O13           -23.2757001789      -18.3063744007      -17.8750523863  MEMB      44              0.0000000000
     44302      1304  PPPE      O14           -23.3270578662      -20.7703869084      -17.6103781139  MEMB      44              0.0000000000
     44303      1304  PPPE      O11           -21.3057896004      -19.4268408390      -16.8207303195  MEMB      44              0.0000000000
     44304      1304  PPPE      O12           -21.8244009466      -19.7003301725      -19.2828534242  MEMB      44              0.0000000000
     44305      1304  PPPE      C1            -19.9628742631      -19.9130002677      -16.9601118800  MEMB      44              0.0000000000
     44306      1304  PPPE      HA            -19.2468826737      -19.0920923481      -17.1757375201  MEMB      44              0.0000000000
     44307      1304  PPPE      HB            -19.8738511162      -20.5832884641      -17.8503736011  MEMB      44              0.0000000000
     44308      1304  PPPE      C2            -19.5487392408      -20.7290936351      -15.6746370092  MEMB      44              0.0000000000
     44309      1304  PPPE      HS            -18.6544263901      -21.3578472011      -15.9299214267  MEMB      44              0.0000000000
     44310      1304  PPPE      O21           -20.6530412329      -21.5171604257      -15.1211460778  MEMB      44              0.0000000000
     44311      1304  PPPE      C21           -21.4855025891      -22.1037134670      -16.0214960030  MEMB      44              0.0000000000
     44312      1304  PPPE      O22           -21.1807627377      -22.2757160625      -17.1862502598  MEMB      44              0.0000000000
     44313      1304  PPPE      C22           -22.8033807280      -22.6561856286      -15.4014955703  MEMB      44              0.0000000000
     44314      1304  PPPE      H2R           -22.9281827164      -23.6255097636      -14.8998170906  MEMB      44              0.0000000000
     44315      1304  PPPE      H2S           -23.3358066070      -23.2671978752      -16.1316526762  MEMB      44              0.0000000000
     44316      1304  PPPE      C3            -19.0106616534      -19.8767686186      -14.4954640013  MEMB      44              0.0000000000
     44317      1304  PPPE      HX            -18.7397586979      -20.5984591850      -13.6829484796  MEMB      44              0.0000000000
     44318      1304  PPPE      HY            -18.0998657946      -19.3073536434      -14.7854541737  MEMB      44              0.0000000000
     44319      1304  PPPE      O31           -20.0087629839      -18.9569643824      -14.0542952435  MEMB      44              0.0000000000
     44320      1304  PPPE      C31           -19.7661187552      -18.4338177554      -12.8818156002  MEMB      44              0.0000000000
     44321      1304  PPPE      O32           -18.9108532706      -18.7873983669      -12.0921444266  MEMB      44              0.0000000000
     44322      1304  PPPE      C32           -20.8571049573      -17.4018381288      -12.6558387398  MEMB      44              0.0000000000
     44323      1304  PPPE      H2X           -21.8398066265      -17.9050559146      -12.8105251719  MEMB      44              0.0000000000
     44324      1304  PPPE      H2Y           -20.7358063544      -16.5773343821      -13.3811755948  MEMB      44              0.0000000000
     44325      1304  PPPE      C23           -23.0763948508      -22.0686820115      -14.0293052035  MEMB      44              0.0000000000
     44326      1304  PPPE      H3R           -22.8102871593      -21.0070715450      -14.1880213925  MEMB      44              0.0000000000
     44327      1304  PPPE      H3S           -22.4420994706      -22.4712256935      -13.1958458014  MEMB      44              0.0000000000
     44328      1304  PPPE      C24           -24.5228221920      -22.2969035671      -13.6923327667  MEMB      44              0.0000000000
     44329      1304  PPPE      H4R           -24.7401044494      -23.3837677431      -13.5576009524  MEMB      44              0.0000000000
     44330      1304  PPPE      H4S           -25.0763885005      -21.9415718403      -14.5905150343  MEMB      44              0.0000000000
     44331      1304  PPPE      C25           -24.9263463047      -21.4794248988      -12.4777786364  MEMB      44              0.0000000000
     44332      1304  PPPE      H5R           -26.0117013812      -21.6622206153      -12.3276353847  MEMB      44              0.0000000000
     44333      1304  PPPE      H5S           -24.7801782475      -20.4027875567      -12.7131501224  MEMB      44              0.0000000000
     44334      1304  PPPE      C26           -24.1499064429      -21.8380331981      -11.2047871268  MEMB      44              0.0000000000
     44335      1304  PPPE      H6R           -23.0765523990      -21.5438404596      -11.2343816546  MEMB      44              0.0000000000
     44336      1304  PPPE      H6S           -24.1546732585      -22.9479766515      -11.1584002782  MEMB      44              0.0000000000
     44337      1304  PPPE      C27           -24.8119671209      -21.2256791497       -9.9620571525  MEMB      44              0.0000000000
     44338      1304  PPPE      H7R           -25.7200088884      -21.8259561435       -9.7359526970  MEMB      44              0.0000000000
     44339      1304  PPPE      H7S           -25.1502286407      -20.1842731199      -10.1896222278  MEMB      44              0.0000000000
     44340      1304  PPPE      C28           -23.8565303941      -21.0512183200       -8.7656862530  MEMB      44              0.0000000000
     44341      1304  PPPE      H8R           -24.3992302180      -20.4819701017       -7.9768334686  MEMB      44              0.0000000000
     44342      1304  PPPE      H8S           -23.0415557465      -20.3855310540       -9.1213091502  MEMB      44              0.0000000000
     44343      1304  PPPE      C29           -23.2138717859      -22.2952561010       -8.2197732290  MEMB      44              0.0000000000
     44344      1304  PPPE      H91           -22.8130742314      -23.0126500025       -8.9431001354  MEMB      44              0.0000000000
     44345      1304  PPPE      C210          -23.1719931767      -22.6802199167       -6.9481287178  MEMB      44              0.0000000000
     44346      1304  PPPE      H101          -22.7146502959      -23.6651507965       -6.7754348093  MEMB      44              0.0000000000
     44347      1304  PPPE      C211          -23.7672064927      -21.9606986359       -5.7623855299  MEMB      44              0.0000000000
     44348      1304  PPPE      H11R          -24.1380285094      -22.7530978154       -5.0850229182  MEMB      44              0.0000000000
     44349      1304  PPPE      H11S          -24.6986044429      -21.4199768954       -6.0139323571  MEMB      44              0.0000000000
     44350      1304  PPPE      C212          -22.8756132182      -20.8915660561       -5.0813450057  MEMB      44              0.0000000000
     44351      1304  PPPE      H12R          -22.4829057342      -20.1603771366       -5.8102107210  MEMB      44              0.0000000000
     44352      1304  PPPE      H12S          -21.8482269098      -21.3014424045       -4.9053373461  MEMB      44              0.0000000000
     44353      1304  PPPE      C213          -23.5393888827      -20.1842931516       -3.8041621151  MEMB      44              0.0000000000
     44354      1304  PPPE      H13R          -24.3196071411      -19.4934952546       -4.1265461148  MEMB      44              0.0000000000
     44355      1304  PPPE      H13S          -22.6780957223      -19.6042606935       -3.4315312984  MEMB      44              0.0000000000
     44356      1304  PPPE      C214          -24.3804624636      -20.8503703159       -2.6403795930  MEMB      44              0.0000000000
     44357      1304  PPPE      H14R          -23.8761443587      -20.9634654187       -1.6912906614  MEMB      44              0.0000000000
     44358      1304  PPPE      H14S          -24.9584176275      -21.7500589707       -2.8906275330  MEMB      44              0.0000000000
     44359      1304  PPPE      C215          -24.8107076977      -20.1698956128       -1.3601108911  MEMB      44              0.0000000000
     44360      1304  PPPE      H15R          -25.6144176666      -19.7521973204       -1.9122818338  MEMB      44              0.0000000000
     44361      1304  PPPE      H15S          -24.1848532257      -19.2478512145       -1.1221359383  MEMB      44              0.0000000000
     44362      1304  PPPE      C216          -25.2406043132      -21.3537073631       -0.3236089047  MEMB      44              0.0000000000
     44363      1304  PPPE      H16R          -24.5492429388      -21.5773363368        0.4378578854  MEMB      44              0.0000000000
     44364      1304  PPPE      H16S          -25.8238268013      -21.1327798207        0.5649947738  MEMB      44              0.0000000000
     44365      1304  PPPE      H16T          -25.2041737713      -22.3881878008       -0.7754985882  MEMB      44              0.0000000000
     44366      1304  PPPE      C33           -20.8626861725      -16.8957726216      -11.2232985428  MEMB      44              0.0000000000
     44367      1304  PPPE      H3X           -21.5792914846      -16.0406411677      -11.1829426437  MEMB      44              0.0000000000
     44368      1304  PPPE      H3Y           -19.8666002532      -16.5012776568      -10.9053146447  MEMB      44              0.0000000000
     44369      1304  PPPE      C34           -21.4369390556      -18.0523291304      -10.3857374783  MEMB      44              0.0000000000
     44370      1304  PPPE      H4X           -20.9257425241      -19.0084225888      -10.5828938898  MEMB      44              0.0000000000
     44371      1304  PPPE      H4Y           -22.5089801590      -18.1638576032      -10.6576686180  MEMB      44              0.0000000000
     44372      1304  PPPE      C35           -21.4115132324      -17.8538372526       -8.9221409694  MEMB      44              0.0000000000
     44373      1304  PPPE      H5X           -20.3962662184      -17.9060724933       -8.4639318207  MEMB      44              0.0000000000
     44374      1304  PPPE      H5Y           -22.1848474069      -18.4219347798       -8.3472428037  MEMB      44              0.0000000000
     44375      1304  PPPE      C36           -21.7870029689      -16.5072738795       -8.7112779724  MEMB      44              0.0000000000
     44376      1304  PPPE      H6X           -22.7147657092      -16.1409852846       -9.2729969631  MEMB      44              0.0000000000
     44377      1304  PPPE      H6Y           -20.8948908710      -15.8631312776       -8.9290476058  MEMB      44              0.0000000000
     44378      1304  PPPE      C37           -22.0611058010      -16.5050959953       -7.2757043763  MEMB      44              0.0000000000
     44379      1304  PPPE      H7X           -22.8728665040      -17.0900618480       -6.8293381696  MEMB      44              0.0000000000
     44380      1304  PPPE      H7Y           -22.6353854022      -15.6275656944       -7.5648289775  MEMB      44              0.0000000000
     44381      1304  PPPE      C38           -20.8908016775      -16.5504558739       -6.2961404949  MEMB      44              0.0000000000
     44382      1304  PPPE      H8X           -20.2650166117      -15.6868046105       -6.0531778196  MEMB      44              0.0000000000
     44383      1304  PPPE      H8Y           -20.0830222731      -17.2293841002       -6.5536012906  MEMB      44              0.0000000000
     44384      1304  PPPE      C39           -21.3218286859      -16.8598776012       -4.9312855373  MEMB      44              0.0000000000
     44385      1304  PPPE      H9X           -22.0267212363      -17.6391393453       -4.6418601088  MEMB      44              0.0000000000
     44386      1304  PPPE      H9Y           -21.9368605928      -16.1203766145       -4.4731609120  MEMB      44              0.0000000000
     44387      1304  PPPE      C310          -20.1402152358      -16.4916620233       -4.1612067636  MEMB      44              0.0000000000
     44388      1304  PPPE      H10X          -20.7101796445      -16.6906087142       -3.2746695969  MEMB      44              0.0000000000
     44389      1304  PPPE      H10Y          -19.6906703916      -15.4653979752       -4.3022319686  MEMB      44              0.0000000000
     44390      1304  PPPE      C311          -19.0827817141      -17.3127401852       -3.7937576718  MEMB      44              0.0000000000
     44391      1304  PPPE      H11X          -18.7451454195      -16.6451810604       -2.9530808324  MEMB      44              0.0000000000
     44392      1304  PPPE      H11Y          -18.5429260046      -17.2185418487       -4.7552728819  MEMB      44              0.0000000000
     44393      1304  PPPE      C312          -19.7024923068      -18.6248071978       -3.4186356072  MEMB      44              0.0000000000
     44394      1304  PPPE      H12X          -20.5836321189      -18.8617493603       -4.0419615492  MEMB      44              0.0000000000
     44395      1304  PPPE      H12Y          -20.0998261090      -18.6091061928       -2.3833704369  MEMB      44              0.0000000000
     44396      1304  PPPE      C313          -18.8007606752      -19.6998464992       -3.9554555664  MEMB      44              0.0000000000
     44397      1304  PPPE      H13X          -18.3638154357      -19.2799067787       -4.9014803878  MEMB      44              0.0000000000
     44398      1304  PPPE      H13Y          -19.2719195414      -20.6750574751       -3.9733109720  MEMB      44              0.0000000000
     44399      1304  PPPE      C314          -17.6047038335      -20.0091013819       -3.2042417285  MEMB      44              0.0000000000
     44400      1304  PPPE      H14X          -17.4420300567      -18.9018280340       -3.2546519247  MEMB      44              0.0000000000
     44401      1304  PPPE      H14Y          -16.6739361106      -20.3483351060       -3.6497095931  MEMB      44              0.0000000000
     44402      1304  PPPE      C315          -17.8682648552      -20.8160276612       -1.9219064101  MEMB      44              0.0000000000
     44403      1304  PPPE      H15X          -16.8454961756      -20.9469721726       -1.3973357761  MEMB      44              0.0000000000
     44404      1304  PPPE      H15Y          -17.7300833694      -21.8193251725       -1.8615694161  MEMB      44              0.0000000000
     44405      1304  PPPE      C316          -18.9950489163      -20.2715216400       -0.9886816926  MEMB      44              0.0000000000
     44406      1304  PPPE      H16X          -18.8714486246      -20.7603787609       -0.0105493487  MEMB      44              0.0000000000
     44407      1304  PPPE      H16Y          -18.9456920026      -19.1479575141       -0.8490765327  MEMB      44              0.0000000000
     44408      1304  PPPE      H16Z          -20.0188084637      -20.2482428790       -1.1703760151  MEMB      44              0.0000000000
     44409      1305  PPPE      N              20.8949081769       23.4028806709      -16.2134142387  MEMB      45              0.0000000000
     44410      1305  PPPE      HN1            21.2613214931       24.3667652040      -16.0344791495  MEMB      45              0.0000000000
     44411      1305  PPPE      HN2            20.2352995949       23.1028956548      -15.4697021650  MEMB      45              0.0000000000
     44412      1305  PPPE      HN3            21.6978312115       22.7388319916      -16.3169442661  MEMB      45              0.0000000000
     44413      1305  PPPE      C12            20.1312794386       23.3999886528      -17.5070568146  MEMB      45              0.0000000000
     44414      1305  PPPE      H12A           19.3159777155       24.1477712973      -17.4008080966  MEMB      45              0.0000000000
     44415      1305  PPPE      H12B           19.6689501846       22.4000430881      -17.6252535531  MEMB      45              0.0000000000
     44416      1305  PPPE      C11            21.0784102961       23.7361699362      -18.6749970621  MEMB      45              0.0000000000
     44417      1305  PPPE      H11A           21.4834177872       24.7547287233      -18.4767193700  MEMB      45              0.0000000000
     44418      1305  PPPE      H11B           20.4656353057       23.8046784943      -19.6107089525  MEMB      45              0.0000000000
     44419      1305  PPPE      P              22.1344992981       21.7003949605      -19.9467769064  MEMB      45              0.0000000000
     44420      1305  PPPE      O13            20.7224302465       21.3112688896      -20.1472436492  MEMB      45              0.0000000000
     44421      1305  PPPE      O14            22.8949323247       22.1478629369      -21.1292566166  MEMB      45              0.0000000000
     44422      1305  PPPE      O11            22.8484348026       20.4274982888      -19.3462414257  MEMB      45              0.0000000000
     44423      1305  PPPE      O12            22.1816870328       22.8168577175      -18.7840950498  MEMB      45              0.0000000000
     44424      1305  PPPE      C1             24.0473942979       20.4998174459      -18.5834665183  MEMB      45              0.0000000000
     44425      1305  PPPE      HA             24.3612564118       21.5436958215      -18.3646670020  MEMB      45              0.0000000000
     44426      1305  PPPE      HB             24.8984314107       20.0500242696      -19.1512036384  MEMB      45              0.0000000000
     44427      1305  PPPE      C2             23.9028893030       19.7443462656      -17.2296029668  MEMB      45              0.0000000000
     44428      1305  PPPE      HS             23.8693367203       18.6660983199      -17.5147099653  MEMB      45              0.0000000000
     44429      1305  PPPE      O21            22.6932047570       20.1036234707      -16.5165573985  MEMB      45              0.0000000000
     44430      1305  PPPE      C21            22.2412491008       19.1392916127      -15.7256564082  MEMB      45              0.0000000000
     44431      1305  PPPE      O22            22.7453549032       18.0494302674      -15.5458759730  MEMB      45              0.0000000000
     44432      1305  PPPE      C22            20.9157498273       19.6165333841      -15.1381376065  MEMB      45              0.0000000000
     44433      1305  PPPE      H2R            20.1875779878       18.7787076679      -15.1167687013  MEMB      45              0.0000000000
     44434      1305  PPPE      H2S            20.4911237035       20.3767530190      -15.8262173165  MEMB      45              0.0000000000
     44435      1305  PPPE      C3             25.1425112830       20.0594121597      -16.3622673788  MEMB      45              0.0000000000
     44436      1305  PPPE      HX             25.1488741592       19.4271270152      -15.4515728331  MEMB      45              0.0000000000
     44437      1305  PPPE      HY             26.0577098736       19.8176411759      -16.9556011106  MEMB      45              0.0000000000
     44438      1305  PPPE      O31            25.1028885565       21.4532527505      -15.9975744892  MEMB      45              0.0000000000
     44439      1305  PPPE      C31            26.1476750552       21.8273902957      -15.2994161252  MEMB      45              0.0000000000
     44440      1305  PPPE      O32            27.0721724774       21.1187125139      -14.9372810384  MEMB      45              0.0000000000
     44441      1305  PPPE      C32            25.9063825024       23.2674450854      -14.8735600290  MEMB      45              0.0000000000
     44442      1305  PPPE      H2X            24.9257787840       23.5840848391      -15.2794768198  MEMB      45              0.0000000000
     44443      1305  PPPE      H2Y            26.6795384614       23.9508984068      -15.2818341863  MEMB      45              0.0000000000
     44444      1305  PPPE      C23            21.1043387091       20.1885224840      -13.7157976070  MEMB      45              0.0000000000
     44445      1305  PPPE      H3R            20.1271029131       20.6652203428      -13.4633188252  MEMB      45              0.0000000000
     44446      1305  PPPE      H3S            21.8894450665       20.9766138721      -13.6880763389  MEMB      45              0.0000000000
     44447      1305  PPPE      C24            21.4510035232       19.0973250267      -12.6778838979  MEMB      45              0.0000000000
     44448      1305  PPPE      H4R            22.4599547660       18.6659274036      -12.8727125908  MEMB      45              0.0000000000
     44449      1305  PPPE      H4S            20.7078766627       18.2807182690      -12.7967357720  MEMB      45              0.0000000000
     44450      1305  PPPE      C25            21.3631534910       19.5734458515      -11.2195289650  MEMB      45              0.0000000000
     44451      1305  PPPE      H5R            20.2977206331       19.4910402738      -10.9023228022  MEMB      45              0.0000000000
     44452      1305  PPPE      H5S            21.6448380997       20.6463920250      -11.1891230508  MEMB      45              0.0000000000
     44453      1305  PPPE      C26            22.2709478576       18.8544917305      -10.2065247328  MEMB      45              0.0000000000
     44454      1305  PPPE      H6R            22.9868128053       18.1512288508      -10.6953390888  MEMB      45              0.0000000000
     44455      1305  PPPE      H6S            21.6273241150       18.2717610800       -9.5078313285  MEMB      45              0.0000000000
     44456      1305  PPPE      C27            23.0854619601       19.8356721704       -9.3518279770  MEMB      45              0.0000000000
     44457      1305  PPPE      H7R            23.4837855055       19.2196543769       -8.5204606162  MEMB      45              0.0000000000
     44458      1305  PPPE      H7S            22.4507333355       20.5975008657       -8.8621559863  MEMB      45              0.0000000000
     44459      1305  PPPE      C28            24.1915965323       20.5805312355      -10.1555143525  MEMB      45              0.0000000000
     44460      1305  PPPE      H8R            23.6970835277       21.0433328007      -11.0262757150  MEMB      45              0.0000000000
     44461      1305  PPPE      H8S            24.8873821195       19.8023846004      -10.5570348086  MEMB      45              0.0000000000
     44462      1305  PPPE      C29            24.9144228004       21.6998700015       -9.4199995425  MEMB      45              0.0000000000
     44463      1305  PPPE      H91            24.8225217194       22.7030909775       -9.8044512694  MEMB      45              0.0000000000
     44464      1305  PPPE      C210           25.5937031344       21.5814984109       -8.2912014871  MEMB      45              0.0000000000
     44465      1305  PPPE      H101           26.3929062370       22.2844676509       -7.9506254317  MEMB      45              0.0000000000
     44466      1305  PPPE      C211           25.6486974263       20.2450025342       -7.7643365450  MEMB      45              0.0000000000
     44467      1305  PPPE      H11R           26.6615935965       20.4696252222       -8.0325691757  MEMB      45              0.0000000000
     44468      1305  PPPE      H11S           25.2899036909       19.4423122985       -8.4153492713  MEMB      45              0.0000000000
     44469      1305  PPPE      C212           25.5183136948       19.5776429045       -6.4173995609  MEMB      45              0.0000000000
     44470      1305  PPPE      H12R           25.9684145886       18.5281063752       -6.3558219210  MEMB      45              0.0000000000
     44471      1305  PPPE      H12S           24.4568147321       19.5681825732       -6.2893574038  MEMB      45              0.0000000000
     44472      1305  PPPE      C213           26.0660528739       20.5241851088       -5.4331947076  MEMB      45              0.0000000000
     44473      1305  PPPE      H13R           26.0387925077       21.5960195556       -5.6166234015  MEMB      45              0.0000000000
     44474      1305  PPPE      H13S           26.9389292637       20.2579438725       -6.0113304171  MEMB      45              0.0000000000
     44475      1305  PPPE      C214           25.8689724481       20.1693845101       -3.9749799159  MEMB      45              0.0000000000
     44476      1305  PPPE      H14R           26.2728236001       19.1483315309       -3.7574461849  MEMB      45              0.0000000000
     44477      1305  PPPE      H14S           24.8112949657       20.0031592982       -3.7722680121  MEMB      45              0.0000000000
     44478      1305  PPPE      C215           26.2549899714       21.1854407750       -2.8915474423  MEMB      45              0.0000000000
     44479      1305  PPPE      H15R           25.8393912800       22.1893596700       -2.9924511169  MEMB      45              0.0000000000
     44480      1305  PPPE      H15S           27.1830378921       21.7183754679       -2.5575543231  MEMB      45              0.0000000000
     44481      1305  PPPE      C216           26.1973332154       20.3270732611       -1.6757924836  MEMB      45              0.0000000000
     44482      1305  PPPE      H16R           25.1929382071       20.2800266786       -1.3234936381  MEMB      45              0.0000000000
     44483      1305  PPPE      H16S           26.4982695422       19.3302501345       -1.4583521831  MEMB      45              0.0000000000
     44484      1305  PPPE      H16T           26.8592949807       20.8582502459       -0.9796017175  MEMB      45              0.0000000000
     44485      1305  PPPE      C33            25.8622376989       23.2537356276      -13.3377362494  MEMB      45              0.0000000000
     44486      1305  PPPE      H3X            26.8725101675       22.9660124549      -12.9755800921  MEMB      45              0.0000000000
     44487      1305  PPPE      H3Y            25.0858439256       22.5635336218      -12.9574250661  MEMB      45              0.0000000000
     44488      1305  PPPE      C34            25.5742680950       24.5721973207      -12.7113574711  MEMB      45              0.0000000000
     44489      1305  PPPE      H4X            26.0881635460       25.3114859071      -13.4085628676  MEMB      45              0.0000000000
     44490      1305  PPPE      H4Y            25.8448090521       24.6967576629      -11.6411999660  MEMB      45              0.0000000000
     44491      1305  PPPE      C35            24.2524244407       25.0946337673      -12.8936730307  MEMB      45              0.0000000000
     44492      1305  PPPE      H5X            24.1868363033       25.0245791575      -13.9824230879  MEMB      45              0.0000000000
     44493      1305  PPPE      H5Y            24.5061215423       26.1102567452      -12.5744044058  MEMB      45              0.0000000000
     44494      1305  PPPE      C36            22.9743974109       24.6300142740      -12.2119829629  MEMB      45              0.0000000000
     44495      1305  PPPE      H6X            22.9430501284       23.5629630027      -12.4469476463  MEMB      45              0.0000000000
     44496      1305  PPPE      H6Y            22.0227782084       25.0583599064      -12.6238336026  MEMB      45              0.0000000000
     44497      1305  PPPE      C37            22.9754460595       25.0239745522      -10.7495864090  MEMB      45              0.0000000000
     44498      1305  PPPE      H7X            22.8838975117       26.1325157973      -10.6393144406  MEMB      45              0.0000000000
     44499      1305  PPPE      H7Y            23.9626276764       24.7195834563      -10.3515001261  MEMB      45              0.0000000000
     44500      1305  PPPE      C38            21.9072563623       24.3022219439       -9.9354369634  MEMB      45              0.0000000000
     44501      1305  PPPE      H8X            22.0302175484       23.2105721006      -10.1140976974  MEMB      45              0.0000000000
     44502      1305  PPPE      H8Y            20.8929678573       24.5957337640      -10.2922742072  MEMB      45              0.0000000000
     44503      1305  PPPE      C39            22.0528082367       24.5903940272       -8.4323724209  MEMB      45              0.0000000000
     44504      1305  PPPE      H9X            21.0812679358       24.4234828680       -7.9224166586  MEMB      45              0.0000000000
     44505      1305  PPPE      H9Y            22.3573062327       25.6550248908       -8.2965817326  MEMB      45              0.0000000000
     44506      1305  PPPE      C310           23.0495889142       23.6749766381       -7.7130240699  MEMB      45              0.0000000000
     44507      1305  PPPE      H10X           24.0618826682       23.9295305242       -8.1012381940  MEMB      45              0.0000000000
     44508      1305  PPPE      H10Y           22.8314873205       22.6037216107       -7.9219290258  MEMB      45              0.0000000000
     44509      1305  PPPE      C311           23.0273323848       23.8050806518       -6.1857815742  MEMB      45              0.0000000000
     44510      1305  PPPE      H11X           22.8183829278       24.8614253982       -5.9184246317  MEMB      45              0.0000000000
     44511      1305  PPPE      H11Y           24.0385969702       23.5232509162       -5.8083660019  MEMB      45              0.0000000000
     44512      1305  PPPE      C312           21.9291770207       22.9732566714       -5.5008867883  MEMB      45              0.0000000000
     44513      1305  PPPE      H12X           21.9991659253       21.8926554233       -5.7668539533  MEMB      45              0.0000000000
     44514      1305  PPPE      H12Y           20.9520326885       23.3635770882       -5.8447955134  MEMB      45              0.0000000000
     44515      1305  PPPE      C313           21.9693692091       23.0998564002       -3.9885261020  MEMB      45              0.0000000000
     44516      1305  PPPE      H13X           20.9766399863       22.8999138378       -3.5117315124  MEMB      45              0.0000000000
     44517      1305  PPPE      H13Y           22.2209349334       24.1413416264       -3.6975606439  MEMB      45              0.0000000000
     44518      1305  PPPE      C314           23.0277819337       22.1391655753       -3.4665629565  MEMB      45              0.0000000000
     44519      1305  PPPE      H14X           24.0389184642       22.5384714640       -3.6439830637  MEMB      45              0.0000000000
     44520      1305  PPPE      H14Y           22.9819115149       21.1450304765       -3.9502830660  MEMB      45              0.0000000000
     44521      1305  PPPE      C315           22.7963060264       21.8566608966       -2.0402075938  MEMB      45              0.0000000000
     44522      1305  PPPE      H15X           23.4761968948       21.1098471493       -1.6101774539  MEMB      45              0.0000000000
     44523      1305  PPPE      H15Y           21.7365866401       21.6299284524       -1.7622824851  MEMB      45              0.0000000000
     44524      1305  PPPE      C316           22.9083035217       22.9902438695       -1.2801818397  MEMB      45              0.0000000000
     44525      1305  PPPE      H16X           22.7154068651       22.6661992360       -0.2254389138  MEMB      45              0.0000000000
     44526      1305  PPPE      H16Y           23.9095061882       23.4412435595       -1.3245163932  MEMB      45              0.0000000000
     44527      1305  PPPE      H16Z           22.2506605608       23.7649715305       -1.6377249797  MEMB      45              0.0000000000
     44528      1306  PPPE      N               0.8106443348       30.1416992730      -16.5253908102  MEMB      46              0.0000000000
     44529      1306  PPPE      HN1             0.2589551310       30.7708538179      -17.1549088078  MEMB      46              0.0000000000
     44530      1306  PPPE      HN2             0.1992219265       29.4874799092      -16.0047494566  MEMB      46              0.0000000000
     44531      1306  PPPE      HN3             1.4044067450       30.7156551162      -15.8858534882  MEMB      46              0.0000000000
     44532      1306  PPPE      C12             1.6513459341       29.3542415678      -17.4758884161  MEMB      46              0.0000000000
     44533      1306  PPPE      H12A            1.0148118807       28.5576764506      -17.9180180187  MEMB      46              0.0000000000
     44534      1306  PPPE      H12B            2.4665240854       28.8668349159      -16.9021820674  MEMB      46              0.0000000000
     44535      1306  PPPE      C11             2.1685100592       30.3458856095      -18.5210806823  MEMB      46              0.0000000000
     44536      1306  PPPE      H11A            2.7467184231       29.7974866093      -19.2841574692  MEMB      46              0.0000000000
     44537      1306  PPPE      H11B            2.8441292659       31.0743237827      -18.0057185550  MEMB      46              0.0000000000
     44538      1306  PPPE      P               1.5108909919       32.3531627723      -19.9988711324  MEMB      46              0.0000000000
     44539      1306  PPPE      O13             2.8973200867       32.1401422941      -20.4802285224  MEMB      46              0.0000000000
     44540      1306  PPPE      O14             0.4348487845       32.6765811284      -20.9506501119  MEMB      46              0.0000000000
     44541      1306  PPPE      O11             1.5120260449       33.4254481794      -18.8096387084  MEMB      46              0.0000000000
     44542      1306  PPPE      O12             1.0983884243       31.0279158238      -19.1776216630  MEMB      46              0.0000000000
     44543      1306  PPPE      C1              0.2785093619       33.7557410102      -18.1466820487  MEMB      46              0.0000000000
     44544      1306  PPPE      HA              0.0481824126       32.9432847402      -17.4304636652  MEMB      46              0.0000000000
     44545      1306  PPPE      HB             -0.5597291612       33.8012875563      -18.8795316725  MEMB      46              0.0000000000
     44546      1306  PPPE      C2              0.3539471273       35.1008414888      -17.3272013093  MEMB      46              0.0000000000
     44547      1306  PPPE      HS              0.4084111282       35.9507823531      -18.0456917347  MEMB      46              0.0000000000
     44548      1306  PPPE      O21             1.4993410045       35.0397508410      -16.4870710108  MEMB      46              0.0000000000
     44549      1306  PPPE      C21             1.9045446183       36.1849569852      -15.9741211951  MEMB      46              0.0000000000
     44550      1306  PPPE      O22             1.5810392071       37.3005652872      -16.3227711557  MEMB      46              0.0000000000
     44551      1306  PPPE      C22             3.0667213468       35.8316835301      -15.1203660708  MEMB      46              0.0000000000
     44552      1306  PPPE      H2R             3.4474723838       36.7867008754      -14.7076450571  MEMB      46              0.0000000000
     44553      1306  PPPE      H2S             3.6375926104       35.3551220004      -15.9537685710  MEMB      46              0.0000000000
     44554      1306  PPPE      C3             -0.8714515866       35.4361254802      -16.4306264584  MEMB      46              0.0000000000
     44555      1306  PPPE      HX             -0.7727959527       36.4570489875      -15.9882663502  MEMB      46              0.0000000000
     44556      1306  PPPE      HY             -1.7391832205       35.4839687801      -17.1188653607  MEMB      46              0.0000000000
     44557      1306  PPPE      O31            -1.0888409328       34.4325061607      -15.4223691152  MEMB      46              0.0000000000
     44558      1306  PPPE      C31            -0.5504441256       34.6599911495      -14.2203879920  MEMB      46              0.0000000000
     44559      1306  PPPE      O32             0.0639101033       35.6468335668      -13.8792840178  MEMB      46              0.0000000000
     44560      1306  PPPE      C32            -0.8739096329       33.4271442846      -13.3630010798  MEMB      46              0.0000000000
     44561      1306  PPPE      H2X            -0.0289940307       32.7318914235      -13.4466970072  MEMB      46              0.0000000000
     44562      1306  PPPE      H2Y            -1.8181344256       33.0009974780      -13.7713266179  MEMB      46              0.0000000000
     44563      1306  PPPE      C23             2.9872038683       34.7106935687      -14.0793911922  MEMB      46              0.0000000000
     44564      1306  PPPE      H3R             2.6814938801       33.7982259868      -14.6371864750  MEMB      46              0.0000000000
     44565      1306  PPPE      H3S             2.2356223333       35.0345480801      -13.3509185775  MEMB      46              0.0000000000
     44566      1306  PPPE      C24             4.2265103031       34.3358116242      -13.2417585769  MEMB      46              0.0000000000
     44567      1306  PPPE      H4R             5.1272416622       34.2637774247      -13.8808665983  MEMB      46              0.0000000000
     44568      1306  PPPE      H4S             4.0513780814       33.3323070508      -12.8248569634  MEMB      46              0.0000000000
     44569      1306  PPPE      C25             4.4516493409       35.1798123885      -11.9781103436  MEMB      46              0.0000000000
     44570      1306  PPPE      H5R             3.9114778896       36.1133577689      -12.1538355419  MEMB      46              0.0000000000
     44571      1306  PPPE      H5S             5.5404927246       35.3161857374      -11.8433057233  MEMB      46              0.0000000000
     44572      1306  PPPE      C26             4.0257501374       34.6247664680      -10.6246325475  MEMB      46              0.0000000000
     44573      1306  PPPE      H6R             4.5655677704       33.6708427627      -10.5499468454  MEMB      46              0.0000000000
     44574      1306  PPPE      H6S             2.9258036310       34.6026261739      -10.6310067019  MEMB      46              0.0000000000
     44575      1306  PPPE      C27             4.4208289719       35.4596905159       -9.4096497780  MEMB      46              0.0000000000
     44576      1306  PPPE      H7R             3.7118521944       36.2770323145       -9.3926015269  MEMB      46              0.0000000000
     44577      1306  PPPE      H7S             5.4552376839       35.6513847164       -9.6085443033  MEMB      46              0.0000000000
     44578      1306  PPPE      C28             4.6133581254       35.0018635831       -7.9713704360  MEMB      46              0.0000000000
     44579      1306  PPPE      H8R             4.9274805033       35.8446637784       -7.3047218575  MEMB      46              0.0000000000
     44580      1306  PPPE      H8S             5.4399926538       34.2754576874       -8.0079605810  MEMB      46              0.0000000000
     44581      1306  PPPE      C29             3.3217982836       34.4338296533       -7.5511537055  MEMB      46              0.0000000000
     44582      1306  PPPE      H91             3.1474285226       33.4586350700       -8.0117954869  MEMB      46              0.0000000000
     44583      1306  PPPE      C210            2.4846601616       34.9002970966       -6.6178039523  MEMB      46              0.0000000000
     44584      1306  PPPE      H101            1.5212081016       34.3847224846       -6.5388062367  MEMB      46              0.0000000000
     44585      1306  PPPE      C211            2.6210793116       36.1211063597       -5.7343956767  MEMB      46              0.0000000000
     44586      1306  PPPE      H11R            1.7375845902       36.7881425859       -5.8333932962  MEMB      46              0.0000000000
     44587      1306  PPPE      H11S            3.5204583953       36.7124980037       -5.8769391123  MEMB      46              0.0000000000
     44588      1306  PPPE      C212            2.8280644856       35.8605178480       -4.2564818170  MEMB      46              0.0000000000
     44589      1306  PPPE      H12R            2.1051061778       35.0826336410       -3.9656092276  MEMB      46              0.0000000000
     44590      1306  PPPE      H12S            2.4920297606       36.7723972697       -3.7212966840  MEMB      46              0.0000000000
     44591      1306  PPPE      C213            4.2214610584       35.3908706481       -3.8023952208  MEMB      46              0.0000000000
     44592      1306  PPPE      H13R            5.0663531257       36.0947528073       -3.7370433621  MEMB      46              0.0000000000
     44593      1306  PPPE      H13S            4.6278540578       34.6639342274       -4.5204981498  MEMB      46              0.0000000000
     44594      1306  PPPE      C214            3.9621853597       34.8260332094       -2.4061204882  MEMB      46              0.0000000000
     44595      1306  PPPE      H14R            4.7659403075       34.4147979486       -1.7742906807  MEMB      46              0.0000000000
     44596      1306  PPPE      H14S            3.2428397472       34.0330386118       -2.4112361163  MEMB      46              0.0000000000
     44597      1306  PPPE      C215            3.8496196266       35.8837054710       -1.4502466286  MEMB      46              0.0000000000
     44598      1306  PPPE      H15R            3.3144640339       36.7418722276       -1.7958241052  MEMB      46              0.0000000000
     44599      1306  PPPE      H15S            4.8625902990       36.2830300402       -1.7079208072  MEMB      46              0.0000000000
     44600      1306  PPPE      C216            3.5640407682       35.4473965597        0.0340231104  MEMB      46              0.0000000000
     44601      1306  PPPE      H16R            4.2469738210       35.7572848054        0.8604547712  MEMB      46              0.0000000000
     44602      1306  PPPE      H16S            2.6535877167       35.9522575667        0.3425080190  MEMB      46              0.0000000000
     44603      1306  PPPE      H16T            3.7086204538       34.3492974081        0.1267963291  MEMB      46              0.0000000000
     44604      1306  PPPE      C33            -1.1521786519       33.6707377804      -11.8766742249  MEMB      46              0.0000000000
     44605      1306  PPPE      H3X            -2.0017463794       33.0423752334      -11.5280438901  MEMB      46              0.0000000000
     44606      1306  PPPE      H3Y            -1.5005885304       34.6745034558      -11.8518653091  MEMB      46              0.0000000000
     44607      1306  PPPE      C34             0.0585864249       33.6511673222      -10.9484891457  MEMB      46              0.0000000000
     44608      1306  PPPE      H4X             0.8689361918       34.2784780819      -11.3797499888  MEMB      46              0.0000000000
     44609      1306  PPPE      H4Y             0.4129885665       32.6039071078      -10.8842776846  MEMB      46              0.0000000000
     44610      1306  PPPE      C35            -0.2588860045       34.1671003394       -9.5402482466  MEMB      46              0.0000000000
     44611      1306  PPPE      H5X            -0.4239191757       35.2700398400       -9.5548896213  MEMB      46              0.0000000000
     44612      1306  PPPE      H5Y             0.6449200376       34.0089816618       -8.9058701861  MEMB      46              0.0000000000
     44613      1306  PPPE      C36            -1.5067481340       33.4732693796       -8.9813818714  MEMB      46              0.0000000000
     44614      1306  PPPE      H6X            -1.4595793660       32.3736717976       -9.0420528395  MEMB      46              0.0000000000
     44615      1306  PPPE      H6Y            -2.4452145306       33.8046932696       -9.4971319435  MEMB      46              0.0000000000
     44616      1306  PPPE      C37            -1.7165446629       33.7704062852       -7.5507472110  MEMB      46              0.0000000000
     44617      1306  PPPE      H7X            -0.8629188074       33.6387326411       -6.8549121237  MEMB      46              0.0000000000
     44618      1306  PPPE      H7Y            -2.6198682885       33.1911845917       -7.1954837051  MEMB      46              0.0000000000
     44619      1306  PPPE      C38            -2.0040157571       35.1876907358       -7.4367025978  MEMB      46              0.0000000000
     44620      1306  PPPE      H8X            -2.8973997282       35.3474333374       -8.1229652802  MEMB      46              0.0000000000
     44621      1306  PPPE      H8Y            -1.2524437249       36.0009528385       -7.5559151997  MEMB      46              0.0000000000
     44622      1306  PPPE      C39            -2.3339899803       35.1254021503       -6.0154742467  MEMB      46              0.0000000000
     44623      1306  PPPE      H9X            -3.0715937393       34.3967696975       -5.6808787453  MEMB      46              0.0000000000
     44624      1306  PPPE      H9Y            -3.2247294554       35.6957084742       -6.4210611310  MEMB      46              0.0000000000
     44625      1306  PPPE      C310           -1.1886381013       35.6131518373       -4.8845114542  MEMB      46              0.0000000000
     44626      1306  PPPE      H10X           -0.5662912968       36.5039930363       -5.0864818215  MEMB      46              0.0000000000
     44627      1306  PPPE      H10Y           -0.5431628029       34.7295213180       -4.8389940206  MEMB      46              0.0000000000
     44628      1306  PPPE      C311           -1.4142676251       36.0538077680       -3.3551218411  MEMB      46              0.0000000000
     44629      1306  PPPE      H11X           -2.2103152683       36.7420106538       -2.9336714851  MEMB      46              0.0000000000
     44630      1306  PPPE      H11Y           -0.7755618700       36.7901113370       -2.8654262517  MEMB      46              0.0000000000
     44631      1306  PPPE      C312           -1.6858817125       34.7585432159       -2.7709608196  MEMB      46              0.0000000000
     44632      1306  PPPE      H12X           -2.3842860349       34.0084271524       -3.1533482933  MEMB      46              0.0000000000
     44633      1306  PPPE      H12Y           -2.5305179763       35.1516081538       -2.2334288626  MEMB      46              0.0000000000
     44634      1306  PPPE      C313           -0.3744524991       34.2259863935       -2.2567890929  MEMB      46              0.0000000000
     44635      1306  PPPE      H13X            0.1313471901       34.8019512944       -1.4368948342  MEMB      46              0.0000000000
     44636      1306  PPPE      H13Y            0.2976646027       34.0112081727       -3.0892742842  MEMB      46              0.0000000000
     44637      1306  PPPE      C314           -0.3957055869       32.8414845778       -1.8535138895  MEMB      46              0.0000000000
     44638      1306  PPPE      H14X           -1.1984801171       32.1758414073       -2.2397919576  MEMB      46              0.0000000000
     44639      1306  PPPE      H14Y           -0.9746390146       33.0648856618       -0.9403739772  MEMB      46              0.0000000000
     44640      1306  PPPE      C315            1.1259652549       32.2700970332       -1.7481935936  MEMB      46              0.0000000000
     44641      1306  PPPE      H15X            1.4990248680       32.1837860072       -2.7587403951  MEMB      46              0.0000000000
     44642      1306  PPPE      H15Y            1.3590653864       31.1913633983       -1.5347815928  MEMB      46              0.0000000000
     44643      1306  PPPE      C316            2.0402741871       32.7786188049       -0.6209191151  MEMB      46              0.0000000000
     44644      1306  PPPE      H16X            3.0555257070       32.3234262181       -0.6632192250  MEMB      46              0.0000000000
     44645      1306  PPPE      H16Y            1.8870583954       33.8418849284       -0.4074736390  MEMB      46              0.0000000000
     44646      1306  PPPE      H16Z            1.8328155675       32.4084030567        0.3696945072  MEMB      46              0.0000000000
     44647      1307  PPPE      N              -8.9351959994      -28.5617165658      -21.5712929127  MEMB      47              0.0000000000
     44648      1307  PPPE      HN1            -9.2498433103      -27.7762934735      -22.1819170016  MEMB      47              0.0000000000
     44649      1307  PPPE      HN2            -7.9304631248      -28.4908273089      -21.3210467490  MEMB      47              0.0000000000
     44650      1307  PPPE      HN3            -9.0977320392      -29.4647779048      -22.0694493523  MEMB      47              0.0000000000
     44651      1307  PPPE      C12            -9.7491456190      -28.5852006376      -20.3151259051  MEMB      47              0.0000000000
     44652      1307  PPPE      H12A          -10.8089122160      -28.7339630965      -20.6155402085  MEMB      47              0.0000000000
     44653      1307  PPPE      H12B           -9.6397827899      -27.6033685220      -19.8091607348  MEMB      47              0.0000000000
     44654      1307  PPPE      C11            -9.3347288449      -29.7215624878      -19.3624559557  MEMB      47              0.0000000000
     44655      1307  PPPE      H11A           -9.5389553600      -30.7163583575      -19.8223254317  MEMB      47              0.0000000000
     44656      1307  PPPE      H11B          -10.0184250443      -29.5885397215      -18.4897807013  MEMB      47              0.0000000000
     44657      1307  PPPE      P              -7.2573627257      -30.8609741581      -18.2258534870  MEMB      47              0.0000000000
     44658      1307  PPPE      O13            -7.8793985397      -32.1354955316      -18.6567302530  MEMB      47              0.0000000000
     44659      1307  PPPE      O14            -5.7896838516      -30.7912053351      -18.4102710569  MEMB      47              0.0000000000
     44660      1307  PPPE      O11            -7.5655044083      -30.6456366542      -16.7070689358  MEMB      47              0.0000000000
     44661      1307  PPPE      O12            -7.9678044700      -29.6156664518      -18.9628511211  MEMB      47              0.0000000000
     44662      1307  PPPE      C1             -8.3734885070      -31.4743377517      -15.8716669569  MEMB      47              0.0000000000
     44663      1307  PPPE      HA             -7.7178525308      -32.2330983587      -15.3968448471  MEMB      47              0.0000000000
     44664      1307  PPPE      HB             -9.1656965590      -32.0323019742      -16.4245348117  MEMB      47              0.0000000000
     44665      1307  PPPE      C2             -9.0687303150      -30.5849464144      -14.8000055983  MEMB      47              0.0000000000
     44666      1307  PPPE      HS             -9.7791985576      -29.9406506586      -15.3754662115  MEMB      47              0.0000000000
     44667      1307  PPPE      O21            -8.0630866837      -29.8013740989      -14.1271468288  MEMB      47              0.0000000000
     44668      1307  PPPE      C21            -7.7661870626      -28.6522852471      -14.7273049821  MEMB      47              0.0000000000
     44669      1307  PPPE      O22            -8.4980753535      -28.0524816700      -15.4966922048  MEMB      47              0.0000000000
     44670      1307  PPPE      C22            -6.3695653548      -28.1626535527      -14.2778876068  MEMB      47              0.0000000000
     44671      1307  PPPE      H2R            -6.4683440911      -27.1212562504      -13.9085530980  MEMB      47              0.0000000000
     44672      1307  PPPE      H2S            -5.7355112760      -28.1661198104      -15.1926432585  MEMB      47              0.0000000000
     44673      1307  PPPE      C3             -9.8931115406      -31.3641115862      -13.7278618920  MEMB      47              0.0000000000
     44674      1307  PPPE      HX            -10.4405898167      -30.6199504253      -13.1094101208  MEMB      47              0.0000000000
     44675      1307  PPPE      HY            -10.6911096152      -31.9900552844      -14.1959421316  MEMB      47              0.0000000000
     44676      1307  PPPE      O31            -9.0244843545      -32.0891240501      -12.8290608403  MEMB      47              0.0000000000
     44677      1307  PPPE      C31            -8.8031072853      -33.3609352970      -13.1145680600  MEMB      47              0.0000000000
     44678      1307  PPPE      O32            -9.3321617861      -33.9757953612      -14.0222348051  MEMB      47              0.0000000000
     44679      1307  PPPE      C32            -7.7486233786      -33.9417057301      -12.1442543337  MEMB      47              0.0000000000
     44680      1307  PPPE      H2X            -6.7530329748      -33.5488417605      -12.4357153349  MEMB      47              0.0000000000
     44681      1307  PPPE      H2Y            -7.7519432112      -35.0408734269      -12.2827853958  MEMB      47              0.0000000000
     44682      1307  PPPE      C23            -5.7164316018      -29.0006767811      -13.1466842954  MEMB      47              0.0000000000
     44683      1307  PPPE      H3R            -4.6424870368      -28.7257111409      -13.0630903994  MEMB      47              0.0000000000
     44684      1307  PPPE      H3S            -5.7468910402      -30.0759199443      -13.4264826114  MEMB      47              0.0000000000
     44685      1307  PPPE      C24            -6.4117443978      -28.7461091763      -11.7951530180  MEMB      47              0.0000000000
     44686      1307  PPPE      H4R            -7.5068221849      -28.8701968103      -11.9439164010  MEMB      47              0.0000000000
     44687      1307  PPPE      H4S            -6.2453576811      -27.6941548597      -11.4782038251  MEMB      47              0.0000000000
     44688      1307  PPPE      C25            -6.0234693311      -29.6792864546      -10.6437064770  MEMB      47              0.0000000000
     44689      1307  PPPE      H5R            -5.1137090917      -29.2731169012      -10.1499671828  MEMB      47              0.0000000000
     44690      1307  PPPE      H5S            -5.8247395810      -30.6924015134      -11.0327694565  MEMB      47              0.0000000000
     44691      1307  PPPE      C26            -7.1396746091      -29.8420140832       -9.6126400627  MEMB      47              0.0000000000
     44692      1307  PPPE      H6R            -6.8979528829      -30.6755418405       -8.9098752600  MEMB      47              0.0000000000
     44693      1307  PPPE      H6S            -8.0716044454      -30.1312273096      -10.1481600313  MEMB      47              0.0000000000
     44694      1307  PPPE      C27            -7.2699944911      -28.5589476714       -8.7856582086  MEMB      47              0.0000000000
     44695      1307  PPPE      H7R            -7.4497359817      -27.6582933373       -9.4101360895  MEMB      47              0.0000000000
     44696      1307  PPPE      H7S            -6.3014000253      -28.4559668536       -8.2495405883  MEMB      47              0.0000000000
     44697      1307  PPPE      C28            -8.2720901310      -28.6098264314       -7.6605265199  MEMB      47              0.0000000000
     44698      1307  PPPE      H8R            -8.3011512222      -27.6378821092       -7.1253415303  MEMB      47              0.0000000000
     44699      1307  PPPE      H8S            -7.9349047315      -29.4368454668       -6.9908408035  MEMB      47              0.0000000000
     44700      1307  PPPE      C29            -9.5972063813      -28.9647649574       -8.1755352061  MEMB      47              0.0000000000
     44701      1307  PPPE      H91           -10.0711059950      -28.3345733992       -8.9486973713  MEMB      47              0.0000000000
     44702      1307  PPPE      C210          -10.4025577730      -29.5973159154       -7.3723004036  MEMB      47              0.0000000000
     44703      1307  PPPE      H101          -11.3803469562      -29.7267912581       -7.8470136125  MEMB      47              0.0000000000
     44704      1307  PPPE      C211          -10.1677599144      -30.0136478673       -5.9060133180  MEMB      47              0.0000000000
     44705      1307  PPPE      H11R          -10.9301719523      -29.6844041534       -5.1692266986  MEMB      47              0.0000000000
     44706      1307  PPPE      H11S           -9.2985813886      -29.5086319992       -5.4372312840  MEMB      47              0.0000000000
     44707      1307  PPPE      C212          -10.1176776003      -31.5159682047       -5.7825491934  MEMB      47              0.0000000000
     44708      1307  PPPE      H12R           -9.6199938907      -31.8843762219       -6.7002745968  MEMB      47              0.0000000000
     44709      1307  PPPE      H12S          -11.1429057933      -31.9492369156       -5.6690128884  MEMB      47              0.0000000000
     44710      1307  PPPE      C213           -9.2756512948      -32.0049964692       -4.6267414055  MEMB      47              0.0000000000
     44711      1307  PPPE      H13R           -8.2155148483      -31.6886661098       -4.7515921867  MEMB      47              0.0000000000
     44712      1307  PPPE      H13S           -9.3157500443      -33.1174428663       -4.6570816708  MEMB      47              0.0000000000
     44713      1307  PPPE      C214           -9.8376226629      -31.5497591379       -3.2991006869  MEMB      47              0.0000000000
     44714      1307  PPPE      H14R          -10.9504269497      -31.7092917456       -3.2934712062  MEMB      47              0.0000000000
     44715      1307  PPPE      H14S           -9.6205653204      -30.4915411660       -3.0733486025  MEMB      47              0.0000000000
     44716      1307  PPPE      C215           -9.1213070658      -32.2479546083       -2.1826694858  MEMB      47              0.0000000000
     44717      1307  PPPE      H15R           -8.0497316449      -32.4302748562       -2.2890155782  MEMB      47              0.0000000000
     44718      1307  PPPE      H15S           -9.4719823179      -33.3072697781       -2.3655992997  MEMB      47              0.0000000000
     44719      1307  PPPE      C216           -9.3799989199      -31.5040805265       -0.8188961491  MEMB      47              0.0000000000
     44720      1307  PPPE      H16R           -9.0694045285      -32.0895759209        0.0864198712  MEMB      47              0.0000000000
     44721      1307  PPPE      H16S           -9.3302331460      -30.4362132088       -0.6650712634  MEMB      47              0.0000000000
     44722      1307  PPPE      H16T          -10.4716051853      -31.4269358895       -0.7617198434  MEMB      47              0.0000000000
     44723      1307  PPPE      C33            -8.0231952469      -33.6071988488      -10.6532751630  MEMB      47              0.0000000000
     44724      1307  PPPE      H3X            -9.0171246958      -34.0157068178      -10.3734077092  MEMB      47              0.0000000000
     44725      1307  PPPE      H3Y            -8.0173855958      -32.4989081478      -10.5388465736  MEMB      47              0.0000000000
     44726      1307  PPPE      C34            -7.0172895594      -34.1444333100       -9.6294583476  MEMB      47              0.0000000000
     44727      1307  PPPE      H4X            -6.0967001678      -33.5197430094       -9.6882438020  MEMB      47              0.0000000000
     44728      1307  PPPE      H4Y            -6.7642405313      -35.2071301881       -9.8153057243  MEMB      47              0.0000000000
     44729      1307  PPPE      C35            -7.5462323966      -34.1810176181       -8.1929886380  MEMB      47              0.0000000000
     44730      1307  PPPE      H5X            -8.5220298872      -34.7119031091       -8.1684716473  MEMB      47              0.0000000000
     44731      1307  PPPE      H5Y            -7.7069717008      -33.1435303242       -7.8329495019  MEMB      47              0.0000000000
     44732      1307  PPPE      C36            -6.6307639054      -35.0155362351       -7.2878111230  MEMB      47              0.0000000000
     44733      1307  PPPE      H6X            -6.5046544882      -36.0208194876       -7.7483994199  MEMB      47              0.0000000000
     44734      1307  PPPE      H6Y            -7.0610671419      -35.1356959443       -6.2730491611  MEMB      47              0.0000000000
     44735      1307  PPPE      C37            -5.3011089125      -34.3668223006       -7.0370290370  MEMB      47              0.0000000000
     44736      1307  PPPE      H7X            -4.8462770335      -34.0977626176       -7.9979618100  MEMB      47              0.0000000000
     44737      1307  PPPE      H7Y            -4.6017507057      -35.0629635148       -6.5167040507  MEMB      47              0.0000000000
     44738      1307  PPPE      C38            -5.4892410037      -33.1684246243       -6.1258138099  MEMB      47              0.0000000000
     44739      1307  PPPE      H8X            -5.8850333341      -33.4337278977       -5.1457618832  MEMB      47              0.0000000000
     44740      1307  PPPE      H8Y            -6.1007061902      -32.3404104685       -6.5880636525  MEMB      47              0.0000000000
     44741      1307  PPPE      C39            -4.1244375763      -32.7126359497       -5.8324332615  MEMB      47              0.0000000000
     44742      1307  PPPE      H9X            -4.2792407158      -32.0505768552       -6.6873485622  MEMB      47              0.0000000000
     44743      1307  PPPE      H9Y            -3.3058558055      -33.4535027417       -5.9909708565  MEMB      47              0.0000000000
     44744      1307  PPPE      C310           -3.7783100026      -31.6754175983       -4.8353929022  MEMB      47              0.0000000000
     44745      1307  PPPE      H10X           -2.6745129365      -31.5278516807       -4.9228474544  MEMB      47              0.0000000000
     44746      1307  PPPE      H10Y           -3.8602604607      -32.0929717979       -3.8400827865  MEMB      47              0.0000000000
     44747      1307  PPPE      C311           -4.6436751068      -30.4406022589       -5.1275609196  MEMB      47              0.0000000000
     44748      1307  PPPE      H11X           -5.1784308546      -30.3888943877       -6.0974119576  MEMB      47              0.0000000000
     44749      1307  PPPE      H11Y           -3.8668474337      -29.7983315412       -5.3415368747  MEMB      47              0.0000000000
     44750      1307  PPPE      C312           -5.4684340562      -29.8673905133       -3.9877988814  MEMB      47              0.0000000000
     44751      1307  PPPE      H12X           -4.8513585382      -29.7928485770       -3.0678319311  MEMB      47              0.0000000000
     44752      1307  PPPE      H12Y           -6.2144129321      -30.6769758827       -3.8859669649  MEMB      47              0.0000000000
     44753      1307  PPPE      C313           -6.1531872552      -28.4951048191       -4.2123847411  MEMB      47              0.0000000000
     44754      1307  PPPE      H13X           -6.5792443356      -28.4577809271       -5.2440551774  MEMB      47              0.0000000000
     44755      1307  PPPE      H13Y           -5.4366890157      -27.6483998208       -4.1248835453  MEMB      47              0.0000000000
     44756      1307  PPPE      C314           -7.2907082739      -28.2082483289       -3.2058977204  MEMB      47              0.0000000000
     44757      1307  PPPE      H14X           -8.1609900014      -28.7805517537       -3.5909284051  MEMB      47              0.0000000000
     44758      1307  PPPE      H14Y           -7.5635919495      -27.1287342317       -3.2723612671  MEMB      47              0.0000000000
     44759      1307  PPPE      C315           -7.0183147932      -28.5372863622       -1.7122538116  MEMB      47              0.0000000000
     44760      1307  PPPE      H15X           -6.7014504059      -29.5934410499       -1.5708091238  MEMB      47              0.0000000000
     44761      1307  PPPE      H15Y           -7.9814361388      -28.4625088634       -1.1544246874  MEMB      47              0.0000000000
     44762      1307  PPPE      C316           -5.9855652650      -27.6097681910       -1.0465169238  MEMB      47              0.0000000000
     44763      1307  PPPE      H16X           -6.1838679223      -27.4625800701        0.0369041849  MEMB      47              0.0000000000
     44764      1307  PPPE      H16Y           -4.9509923339      -27.9987624251       -1.1740505232  MEMB      47              0.0000000000
     44765      1307  PPPE      H16Z           -6.0309969227      -26.6051965418       -1.5080327909  MEMB      47              0.0000000000
     44766      1308  PVCL2     C3            -16.4531896403      -28.8368930425      -20.6876571065  MEMB      48              0.0000000000
     44767      1308  PVCL2     HG31          -15.7202930583      -28.7335098529      -19.8518507447  MEMB      48              0.0000000000
     44768      1308  PVCL2     HG32          -16.4779823485      -29.9184137035      -20.9391800785  MEMB      48              0.0000000000
     44769      1308  PVCL2     P3            -15.2502674313      -26.7296259224      -21.7251131024  MEMB      48              0.0000000000
     44770      1308  PVCL2     OP33          -15.9359437269      -25.7134806149      -22.5654957094  MEMB      48              0.0000000000
     44771      1308  PVCL2     OP34          -13.8120006684      -27.0410238706      -21.9983659337  MEMB      48              0.0000000000
     44772      1308  PVCL2     OP31          -16.0410332582      -28.1005061359      -21.8254514427  MEMB      48              0.0000000000
     44773      1308  PVCL2     OP32          -15.4273330425      -26.3075713437      -20.2035699432  MEMB      48              0.0000000000
     44774      1308  PVCL2     C31           -14.3770876472      -25.5920199808      -19.5419347702  MEMB      48              0.0000000000
     44775      1308  PVCL2     H31J          -13.6652677712      -25.0975121167      -20.2445800052  MEMB      48              0.0000000000
     44776      1308  PVCL2     H31K          -14.8240118930      -24.7899639531      -18.9135969297  MEMB      48              0.0000000000
     44777      1308  PVCL2     C2            -17.8483814903      -28.3197764784      -20.2740981401  MEMB      48              0.0000000000
     44778      1308  PVCL2     HG22          -17.7569753645      -27.2122706338      -20.2746501925  MEMB      48              0.0000000000
     44779      1308  PVCL2     OG12          -18.8278833669      -28.6560703935      -21.2609583835  MEMB      48              0.0000000000
     44780      1308  PVCL2     HO12          -18.5086085078      -29.4875525819      -21.6020987689  MEMB      48              0.0000000000
     44781      1308  PVCL2     C1            -18.3340658893      -28.7993488866      -18.8781191949  MEMB      48              0.0000000000
     44782      1308  PVCL2     HG11          -18.3473666502      -29.9070245579      -18.8215449218  MEMB      48              0.0000000000
     44783      1308  PVCL2     HG12          -19.3921266079      -28.4467933086      -18.7981948059  MEMB      48              0.0000000000
     44784      1308  PVCL2     P1            -18.0615861135      -27.6425463969      -16.5155247928  MEMB      48              0.0000000000
     44785      1308  PVCL2     OP13          -18.7997719967      -28.6610865940      -15.7292428578  MEMB      48              0.0000000000
     44786      1308  PVCL2     OP14          -17.0035387017      -26.8845812807      -15.8172147013  MEMB      48              0.0000000000
     44787      1308  PVCL2     OP11          -17.4932676724      -28.3143802038      -17.8216575650  MEMB      48              0.0000000000
     44788      1308  PVCL2     OP12          -19.0774927105      -26.6101880839      -17.1079114736  MEMB      48              0.0000000000
     44789      1308  PVCL2     C11           -18.5877284483      -25.5404583995      -17.9498998699  MEMB      48              0.0000000000
     44790      1308  PVCL2     H11J          -18.1976891661      -25.9345143531      -18.8947539329  MEMB      48              0.0000000000
     44791      1308  PVCL2     H11K          -17.7664922470      -24.9671464364      -17.4473096706  MEMB      48              0.0000000000
     44792      1308  PVCL2     C12           -19.6991436101      -24.4932833179      -18.1913104906  MEMB      48              0.0000000000
     44793      1308  PVCL2     H12J          -19.2403263321      -23.4693958048      -18.2524662762  MEMB      48              0.0000000000
     44794      1308  PVCL2     O12           -20.5566881268      -24.6449120608      -17.0481409421  MEMB      48              0.0000000000
     44795      1308  PVCL2     CA1           -19.9058749843      -24.3380946893      -15.9090909745  MEMB      48              0.0000000000
     44796      1308  PVCL2     OA1           -18.9290037005      -23.6153549464      -15.8236102667  MEMB      48              0.0000000000
     44797      1308  PVCL2     CA2           -20.7540621649      -24.7627369273      -14.7254348015  MEMB      48              0.0000000000
     44798      1308  PVCL2     H2A           -21.6590816508      -25.3009041670      -15.0444296948  MEMB      48              0.0000000000
     44799      1308  PVCL2     H2B           -21.3393246170      -23.9598314045      -14.4121665892  MEMB      48              0.0000000000
     44800      1308  PVCL2     C13           -20.4901667007      -24.6477304468      -19.5305559013  MEMB      48              0.0000000000
     44801      1308  PVCL2     H13J          -19.6914330110      -24.7006146754      -20.2971324035  MEMB      48              0.0000000000
     44802      1308  PVCL2     H13K          -21.1410046004      -23.7702092372      -19.7721793702  MEMB      48              0.0000000000
     44803      1308  PVCL2     O13           -21.1990194052      -25.8841831727      -19.5561138714  MEMB      48              0.0000000000
     44804      1308  PVCL2     CB1           -22.3340196994      -26.0132813065      -20.1848071514  MEMB      48              0.0000000000
     44805      1308  PVCL2     OB1           -22.9575593623      -25.1583038665      -20.7883765489  MEMB      48              0.0000000000
     44806      1308  PVCL2     CB2           -22.8331388130      -27.3630674730      -19.7784742621  MEMB      48              0.0000000000
     44807      1308  PVCL2     H2D           -22.0796741416      -28.1597997182      -19.8338819356  MEMB      48              0.0000000000
     44808      1308  PVCL2     H2E           -23.7524944779      -27.6063892467      -20.3579038663  MEMB      48              0.0000000000
     44809      1308  PVCL2     C32           -13.4679462330      -26.5129917935      -18.6863804539  MEMB      48              0.0000000000
     44810      1308  PVCL2     H32J          -12.7983060428      -27.0188590196      -19.4176718547  MEMB      48              0.0000000000
     44811      1308  PVCL2     O32           -14.2440370195      -27.4955966686      -18.0050813604  MEMB      48              0.0000000000
     44812      1308  PVCL2     CC1           -13.5415659309      -28.4490532564      -17.4507214290  MEMB      48              0.0000000000
     44813      1308  PVCL2     OC1           -12.3864553297      -28.7437482112      -17.7316789378  MEMB      48              0.0000000000
     44814      1308  PVCL2     CC2           -14.3737430397      -29.0654463112      -16.3420559801  MEMB      48              0.0000000000
     44815      1308  PVCL2     H2R           -15.1777866078      -29.6754460956      -16.8101274282  MEMB      48              0.0000000000
     44816      1308  PVCL2     H2S           -14.8437690411      -28.2075847040      -15.8119197696  MEMB      48              0.0000000000
     44817      1308  PVCL2     C33           -12.6405291026      -25.6613445078      -17.6683898215  MEMB      48              0.0000000000
     44818      1308  PVCL2     H33J          -11.9567819711      -26.2951110902      -17.0606470262  MEMB      48              0.0000000000
     44819      1308  PVCL2     H33K          -12.0020212939      -25.0179390144      -18.3091046342  MEMB      48              0.0000000000
     44820      1308  PVCL2     O33           -13.5077724564      -24.8234751676      -16.8668467051  MEMB      48              0.0000000000
     44821      1308  PVCL2     CD1           -13.4203514549      -24.8800923425      -15.5392378376  MEMB      48              0.0000000000
     44822      1308  PVCL2     OD1           -12.5485492321      -25.4560848604      -14.9148215051  MEMB      48              0.0000000000
     44823      1308  PVCL2     CD2           -14.5162902966      -23.9931474987      -14.9035025946  MEMB      48              0.0000000000
     44824      1308  PVCL2     H2X           -15.1203693690      -23.5537742708      -15.7262336091  MEMB      48              0.0000000000
     44825      1308  PVCL2     H2Y           -13.9903840597      -23.1779121175      -14.3671093014  MEMB      48              0.0000000000
     44826      1308  PVCL2     CA3           -20.3487983005      -24.2013614811      -13.3396077481  MEMB      48              0.0000000000
     44827      1308  PVCL2     H3A           -20.4933429548      -23.0940601739      -13.0806007356  MEMB      48              0.0000000000
     44828      1308  PVCL2     H3B           -19.2707479266      -24.3564615906      -13.4652351271  MEMB      48              0.0000000000
     44829      1308  PVCL2     CA4           -21.0127826580      -25.1105331864      -12.3326622332  MEMB      48              0.0000000000
     44830      1308  PVCL2     H4A           -21.1421604238      -26.0697438441      -12.8872421199  MEMB      48              0.0000000000
     44831      1308  PVCL2     H4B           -22.0298158931      -24.7934284079      -12.0065151630  MEMB      48              0.0000000000
     44832      1308  PVCL2     CA5           -20.1011077734      -25.2462521014      -11.1289672910  MEMB      48              0.0000000000
     44833      1308  PVCL2     H5A           -20.0062722631      -24.2022848509      -10.7480126599  MEMB      48              0.0000000000
     44834      1308  PVCL2     H5B           -19.0930463540      -25.5490784526      -11.5004314207  MEMB      48              0.0000000000
     44835      1308  PVCL2     CA6           -20.6601015702      -26.1818857292      -10.0406570559  MEMB      48              0.0000000000
     44836      1308  PVCL2     H6A           -19.9548671443      -27.0036593515       -9.7879840870  MEMB      48              0.0000000000
     44837      1308  PVCL2     H6B           -21.6022020622      -26.6521359508      -10.4004752060  MEMB      48              0.0000000000
     44838      1308  PVCL2     CA7           -20.9973214986      -25.4334917145       -8.7452181337  MEMB      48              0.0000000000
     44839      1308  PVCL2     H7A           -21.6003980853      -24.5474463867       -9.0283500666  MEMB      48              0.0000000000
     44840      1308  PVCL2     H7B           -20.0603925008      -25.0872437417       -8.2582311244  MEMB      48              0.0000000000
     44841      1308  PVCL2     CA8           -21.7797038748      -26.2335901666       -7.6954543874  MEMB      48              0.0000000000
     44842      1308  PVCL2     H8A           -22.8424729348      -26.3189991896       -8.0053711247  MEMB      48              0.0000000000
     44843      1308  PVCL2     H8B           -21.7257971538      -25.6873287367       -6.7262799632  MEMB      48              0.0000000000
     44844      1308  PVCL2     CA9           -21.2229562140      -27.6151361579       -7.3836553122  MEMB      48              0.0000000000
     44845      1308  PVCL2     H9A           -21.2508646075      -28.2414346722       -8.3024938396  MEMB      48              0.0000000000
     44846      1308  PVCL2     H9B           -21.9009471055      -28.0872440141       -6.6345901316  MEMB      48              0.0000000000
     44847      1308  PVCL2     CA10          -19.8109920937      -27.5224367830       -6.7998952261  MEMB      48              0.0000000000
     44848      1308  PVCL2     H10A          -19.8294349916      -26.8573655868       -5.9055099034  MEMB      48              0.0000000000
     44849      1308  PVCL2     H10B          -19.1174839073      -27.1045085838       -7.5595440184  MEMB      48              0.0000000000
     44850      1308  PVCL2     CA11          -19.4411528924      -28.9203843504       -6.4325947723  MEMB      48              0.0000000000
     44851      1308  PVCL2     H11A          -19.8486459152      -29.6588159149       -7.1422966411  MEMB      48              0.0000000000
     44852      1308  PVCL2     CA12          -18.7443079868      -29.2963616170       -5.3448192568  MEMB      48              0.0000000000
     44853      1308  PVCL2     H12A          -18.7136048705      -30.3679975871       -5.1062123188  MEMB      48              0.0000000000
     44854      1308  PVCL2     CA13          -18.1835809569      -28.3812688229       -4.2750733780  MEMB      48              0.0000000000
     44855      1308  PVCL2     H13A          -18.2883885623      -27.3109534847       -4.5595119981  MEMB      48              0.0000000000
     44856      1308  PVCL2     H13B          -17.0780396403      -28.5049440432       -4.2113197352  MEMB      48              0.0000000000
     44857      1308  PVCL2     CA14          -18.7968829646      -28.5246682395       -2.8546717683  MEMB      48              0.0000000000
     44858      1308  PVCL2     H14A          -18.4485364070      -27.6250256276       -2.3014180471  MEMB      48              0.0000000000
     44859      1308  PVCL2     H14B          -18.4067824752      -29.3908769887       -2.2776339438  MEMB      48              0.0000000000
     44860      1308  PVCL2     CA15          -20.3362973291      -28.5816100175       -2.7804537506  MEMB      48              0.0000000000
     44861      1308  PVCL2     H15A          -20.6866944113      -29.6172146167       -2.9912301293  MEMB      48              0.0000000000
     44862      1308  PVCL2     H15B          -20.7884366864      -27.8982839708       -3.5283095225  MEMB      48              0.0000000000
     44863      1308  PVCL2     CA16          -20.8694724848      -28.1310836310       -1.4155763606  MEMB      48              0.0000000000
     44864      1308  PVCL2     H16A          -21.9316364633      -27.8167098058       -1.5205112141  MEMB      48              0.0000000000
     44865      1308  PVCL2     H16B          -20.2805386282      -27.2277828438       -1.1296967125  MEMB      48              0.0000000000
     44866      1308  PVCL2     CA17          -20.7535710040      -29.2457987081       -0.3669229353  MEMB      48              0.0000000000
     44867      1308  PVCL2     H17A          -20.7728522105      -28.8113277762        0.6586460813  MEMB      48              0.0000000000
     44868      1308  PVCL2     H17B          -19.7837246402      -29.7599245160       -0.5253390874  MEMB      48              0.0000000000
     44869      1308  PVCL2     CA18          -21.8238715312      -30.3271739919       -0.4146933686  MEMB      48              0.0000000000
     44870      1308  PVCL2     H18A          -22.8044958649      -29.8691987140       -0.1665169051  MEMB      48              0.0000000000
     44871      1308  PVCL2     H18B          -21.6092632090      -31.1024518840        0.3479970542  MEMB      48              0.0000000000
     44872      1308  PVCL2     H18C          -21.8805600854      -30.8475744103       -1.3983328134  MEMB      48              0.0000000000
     44873      1308  PVCL2     CB3           -23.0937679359      -27.0981294081      -18.3181755166  MEMB      48              0.0000000000
     44874      1308  PVCL2     H3D           -23.8452924671      -27.7459722207      -17.9762466418  MEMB      48              0.0000000000
     44875      1308  PVCL2     H3E           -23.4445462213      -26.0564260805      -18.1872356086  MEMB      48              0.0000000000
     44876      1308  PVCL2     CB4           -22.3304781245      -27.6839255131      -17.1617546120  MEMB      48              0.0000000000
     44877      1308  PVCL2     H4D           -21.7221976553      -26.8170009847      -16.8648869905  MEMB      48              0.0000000000
     44878      1308  PVCL2     H4E           -21.7831131559      -28.5443723793      -17.6012185430  MEMB      48              0.0000000000
     44879      1308  PVCL2     CB5           -23.1061229722      -28.2057344051      -15.9084202839  MEMB      48              0.0000000000
     44880      1308  PVCL2     H5D           -23.8943366903      -28.9461160691      -16.1795034318  MEMB      48              0.0000000000
     44881      1308  PVCL2     H5E           -23.6150388607      -27.4017918213      -15.3281620788  MEMB      48              0.0000000000
     44882      1308  PVCL2     CB6           -22.0514054495      -28.8822271383      -15.0402967234  MEMB      48              0.0000000000
     44883      1308  PVCL2     H6D           -21.2643129347      -28.1293403950      -14.8113563534  MEMB      48              0.0000000000
     44884      1308  PVCL2     H6E           -21.6161778069      -29.7137613029      -15.6342377861  MEMB      48              0.0000000000
     44885      1308  PVCL2     CB7           -22.4823411338      -29.4953569828      -13.7257941277  MEMB      48              0.0000000000
     44886      1308  PVCL2     H7D           -23.2991869875      -30.1980708701      -13.9910199301  MEMB      48              0.0000000000
     44887      1308  PVCL2     H7E           -22.8070798143      -28.6386464950      -13.0988402908  MEMB      48              0.0000000000
     44888      1308  PVCL2     CB8           -21.3223191511      -30.2478015444      -13.0484086437  MEMB      48              0.0000000000
     44889      1308  PVCL2     H8D           -20.4265361618      -29.6057649264      -13.1746532452  MEMB      48              0.0000000000
     44890      1308  PVCL2     H8E           -21.1820986317      -31.2523144154      -13.4774084517  MEMB      48              0.0000000000
     44891      1308  PVCL2     CB9           -21.4245605683      -30.5656359123      -11.5922108768  MEMB      48              0.0000000000
     44892      1308  PVCL2     H9D           -21.4166054834      -29.5233471238      -11.1473229755  MEMB      48              0.0000000000
     44893      1308  PVCL2     H9E           -20.5667961093      -31.0182142523      -11.0634973954  MEMB      48              0.0000000000
     44894      1308  PVCL2     CB10          -22.5773626597      -31.5376808195      -11.2778171517  MEMB      48              0.0000000000
     44895      1308  PVCL2     H10D          -22.8558404059      -32.5618488176      -11.5015411314  MEMB      48              0.0000000000
     44896      1308  PVCL2     H10E          -23.5131372070      -31.0976904636      -11.7040296668  MEMB      48              0.0000000000
     44897      1308  PVCL2     CB11          -22.6520362623      -31.4437317943       -9.8145366046  MEMB      48              0.0000000000
     44898      1308  PVCL2     H11D          -23.7698730476      -31.4707509639       -9.9566098733  MEMB      48              0.0000000000
     44899      1308  PVCL2     H11E          -22.0990404727      -30.4920790501       -9.6170798492  MEMB      48              0.0000000000
     44900      1308  PVCL2     CB12          -22.0872104266      -32.2362208919       -8.6606838797  MEMB      48              0.0000000000
     44901      1308  PVCL2     H12D          -21.0057463790      -32.0761875927       -8.8010412252  MEMB      48              0.0000000000
     44902      1308  PVCL2     H12E          -22.5568618366      -33.1983391154       -8.9190340694  MEMB      48              0.0000000000
     44903      1308  PVCL2     CB13          -22.3326154353      -31.8960322760       -7.1373276716  MEMB      48              0.0000000000
     44904      1308  PVCL2     H13D          -23.2319651878      -32.4157561528       -6.8160449573  MEMB      48              0.0000000000
     44905      1308  PVCL2     H13E          -22.4501219739      -30.8508537047       -6.7909856544  MEMB      48              0.0000000000
     44906      1308  PVCL2     CB14          -21.2878748238      -32.4933814925       -6.2803451783  MEMB      48              0.0000000000
     44907      1308  PVCL2     H14D          -20.4321670877      -31.8451361470       -6.4602961920  MEMB      48              0.0000000000
     44908      1308  PVCL2     H14E          -21.1827267163      -33.4415159010       -6.8269796225  MEMB      48              0.0000000000
     44909      1308  PVCL2     CB15          -21.5310014869      -32.6982124919       -4.7829365922  MEMB      48              0.0000000000
     44910      1308  PVCL2     H15D          -22.4859504379      -33.2382860939       -4.6412697092  MEMB      48              0.0000000000
     44911      1308  PVCL2     H15E          -21.6865334171      -31.7642536079       -4.2221888455  MEMB      48              0.0000000000
     44912      1308  PVCL2     CB16          -20.3162721179      -33.3942478884       -4.1751505134  MEMB      48              0.0000000000
     44913      1308  PVCL2     H16D          -20.5137382713      -33.7011647975       -3.1314004694  MEMB      48              0.0000000000
     44914      1308  PVCL2     H16E          -19.4426107725      -32.7474891202       -4.3232102783  MEMB      48              0.0000000000
     44915      1308  PVCL2     H16F          -19.9851703739      -34.3035602151       -4.7083178506  MEMB      48              0.0000000000
     44916      1308  PVCL2     CC3           -13.4635902792      -29.8138453925      -15.3416997637  MEMB      48              0.0000000000
     44917      1308  PVCL2     H3R           -12.6690402390      -29.1151639699      -14.9848023530  MEMB      48              0.0000000000
     44918      1308  PVCL2     H3S           -12.9448465100      -30.6407212315      -15.8739994609  MEMB      48              0.0000000000
     44919      1308  PVCL2     CC4           -14.1646620207      -30.3548662814      -14.0788124512  MEMB      48              0.0000000000
     44920      1308  PVCL2     H4R           -13.4725924398      -31.0959762671      -13.6244828399  MEMB      48              0.0000000000
     44921      1308  PVCL2     H4S           -15.0888537804      -30.8989692875      -14.3826833349  MEMB      48              0.0000000000
     44922      1308  PVCL2     CC5           -14.4737233164      -29.2362409901      -13.0566551808  MEMB      48              0.0000000000
     44923      1308  PVCL2     H5R           -15.2615668081      -28.6109226365      -13.5325545937  MEMB      48              0.0000000000
     44924      1308  PVCL2     H5S           -13.5793616127      -28.5856075037      -12.9086721047  MEMB      48              0.0000000000
     44925      1308  PVCL2     CC6           -14.8185780422      -29.6359446439      -11.6023895569  MEMB      48              0.0000000000
     44926      1308  PVCL2     H6R           -14.7260905374      -28.7125322505      -10.9788303479  MEMB      48              0.0000000000
     44927      1308  PVCL2     H6S           -14.0464727900      -30.3384024955      -11.2250070374  MEMB      48              0.0000000000
     44928      1308  PVCL2     CC7           -16.2125335629      -30.2450735647      -11.3984586564  MEMB      48              0.0000000000
     44929      1308  PVCL2     H7R           -16.2609471793      -31.1999653205      -11.9655017856  MEMB      48              0.0000000000
     44930      1308  PVCL2     H7S           -16.9843871273      -29.5844291956      -11.8555831457  MEMB      48              0.0000000000
     44931      1308  PVCL2     CC8           -16.6450951999      -30.3933636709       -9.9172241214  MEMB      48              0.0000000000
     44932      1308  PVCL2     H8R           -17.5023293427      -31.1017566916       -9.9077402154  MEMB      48              0.0000000000
     44933      1308  PVCL2     H8S           -17.0105355262      -29.3801800871       -9.6259465968  MEMB      48              0.0000000000
     44934      1308  PVCL2     CC9           -15.5277946371      -30.7794596016       -8.9153739186  MEMB      48              0.0000000000
     44935      1308  PVCL2     H9R           -14.7309386630      -30.0199689086       -9.0624104928  MEMB      48              0.0000000000
     44936      1308  PVCL2     H9S           -15.1039073821      -31.7746822364       -9.1594543547  MEMB      48              0.0000000000
     44937      1308  PVCL2     CC10          -15.8217617925      -30.7349246741       -7.3896561439  MEMB      48              0.0000000000
     44938      1308  PVCL2     H10R          -16.1511069920      -29.7060096342       -7.1144861226  MEMB      48              0.0000000000
     44939      1308  PVCL2     H10S          -14.8438413320      -30.8885241603       -6.8733255794  MEMB      48              0.0000000000
     44940      1308  PVCL2     CC11          -16.8203701183      -31.7595609701       -6.9150130527  MEMB      48              0.0000000000
     44941      1308  PVCL2     H11R          -17.8232119222      -31.6366621008       -7.3544388158  MEMB      48              0.0000000000
     44942      1308  PVCL2     CC12          -16.6584731055      -32.7204828678       -5.9775152100  MEMB      48              0.0000000000
     44943      1308  PVCL2     H12R          -17.5244072435      -33.3740017622       -5.8001195615  MEMB      48              0.0000000000
     44944      1308  PVCL2     CC13          -15.4416019705      -33.0583221998       -5.1303401882  MEMB      48              0.0000000000
     44945      1308  PVCL2     H13R          -14.5416334502      -33.1766481856       -5.7746511539  MEMB      48              0.0000000000
     44946      1308  PVCL2     H13S          -15.5736391593      -34.0577318285       -4.6521809633  MEMB      48              0.0000000000
     44947      1308  PVCL2     CC14          -15.0393486036      -32.0436656900       -4.0317463317  MEMB      48              0.0000000000
     44948      1308  PVCL2     H14R          -15.1057490698      -30.9992252005       -4.3988018732  MEMB      48              0.0000000000
     44949      1308  PVCL2     H14S          -13.9758183375      -32.2541053849       -3.7525968714  MEMB      48              0.0000000000
     44950      1308  PVCL2     CC15          -15.8632013488      -32.0600926002       -2.7469429534  MEMB      48              0.0000000000
     44951      1308  PVCL2     H15R          -15.8560403390      -33.1042000802       -2.3553702073  MEMB      48              0.0000000000
     44952      1308  PVCL2     H15S          -16.9196540689      -31.7665842854       -2.9315162992  MEMB      48              0.0000000000
     44953      1308  PVCL2     CC16          -15.2459036593      -31.0755706986       -1.7347793736  MEMB      48              0.0000000000
     44954      1308  PVCL2     H16R          -15.3819342642      -30.0201809706       -2.0339150298  MEMB      48              0.0000000000
     44955      1308  PVCL2     H16S          -14.1481795539      -31.2826196874       -1.7202407810  MEMB      48              0.0000000000
     44956      1308  PVCL2     CC17          -15.7695467398      -31.3229579405       -0.3309185970  MEMB      48              0.0000000000
     44957      1308  PVCL2     H17R          -15.0006803089      -31.0854016241        0.4418239662  MEMB      48              0.0000000000
     44958      1308  PVCL2     H17S          -15.8281683641      -32.4225978793       -0.3979751314  MEMB      48              0.0000000000
     44959      1308  PVCL2     CC18          -17.1667444095      -30.7982703865        0.0578996715  MEMB      48              0.0000000000
     44960      1308  PVCL2     H18R          -17.2403058599      -29.7015487845        0.0879102459  MEMB      48              0.0000000000
     44961      1308  PVCL2     H18S          -17.4527301817      -31.0679960454        1.0832011062  MEMB      48              0.0000000000
     44962      1308  PVCL2     H18T          -17.9585873630      -31.2481815785       -0.5763866667  MEMB      48              0.0000000000
     44963      1308  PVCL2     CD3           -15.4237512301      -24.7290799485      -13.8706929482  MEMB      48              0.0000000000
     44964      1308  PVCL2     H3X           -15.5716319709      -25.7772579076      -14.2032765939  MEMB      48              0.0000000000
     44965      1308  PVCL2     H3Y           -16.4361943764      -24.2592437370      -13.8765642036  MEMB      48              0.0000000000
     44966      1308  PVCL2     CD4           -14.8862305327      -24.5968440753      -12.4261761169  MEMB      48              0.0000000000
     44967      1308  PVCL2     H4X           -14.6682284208      -23.5134628787      -12.3099778537  MEMB      48              0.0000000000
     44968      1308  PVCL2     H4Y           -13.9232080623      -25.1308822373      -12.2733341014  MEMB      48              0.0000000000
     44969      1308  PVCL2     CD5           -15.8476163300      -24.9298057202      -11.2680256694  MEMB      48              0.0000000000
     44970      1308  PVCL2     H5X           -15.9114680992      -26.0288169659      -11.1211426970  MEMB      48              0.0000000000
     44971      1308  PVCL2     H5Y           -16.8825326216      -24.5818546711      -11.4934342785  MEMB      48              0.0000000000
     44972      1308  PVCL2     CD6           -15.4366466401      -24.1702420561       -9.9896560943  MEMB      48              0.0000000000
     44973      1308  PVCL2     H6X           -16.2650579427      -24.2327229391       -9.2515866199  MEMB      48              0.0000000000
     44974      1308  PVCL2     H6Y           -15.3010281490      -23.0929815794      -10.2448418783  MEMB      48              0.0000000000
     44975      1308  PVCL2     CD7           -14.1825197698      -24.6742630286       -9.2648793965  MEMB      48              0.0000000000
     44976      1308  PVCL2     H7X           -14.0560839175      -24.0238867916       -8.3661687197  MEMB      48              0.0000000000
     44977      1308  PVCL2     H7Y           -13.2799317513      -24.5535278155       -9.9038295329  MEMB      48              0.0000000000
     44978      1308  PVCL2     CD8           -14.3258191328      -26.1243429603       -8.8103922859  MEMB      48              0.0000000000
     44979      1308  PVCL2     H8X           -14.1002107552      -26.8315931782       -9.6415597282  MEMB      48              0.0000000000
     44980      1308  PVCL2     H8Y           -15.3702198699      -26.3265408657       -8.4785730046  MEMB      48              0.0000000000
     44981      1308  PVCL2     CD9           -13.4745769463      -26.4661897843       -7.6049451782  MEMB      48              0.0000000000
     44982      1308  PVCL2     H9X           -14.0247519430      -26.1471218237       -6.6912326378  MEMB      48              0.0000000000
     44983      1308  PVCL2     H9Y           -12.4660104278      -25.9888972801       -7.6212233689  MEMB      48              0.0000000000
     44984      1308  PVCL2     CD10          -13.2943898170      -27.9572403684       -7.5825896850  MEMB      48              0.0000000000
     44985      1308  PVCL2     H10X          -12.6516246468      -28.2131766643       -8.4708764879  MEMB      48              0.0000000000
     44986      1308  PVCL2     H10Y          -14.2263445082      -28.5284205727       -7.7023800143  MEMB      48              0.0000000000
     44987      1308  PVCL2     CD11          -12.6219433993      -28.3962355071       -6.3083500822  MEMB      48              0.0000000000
     44988      1308  PVCL2     H11X          -11.6303406832      -27.8852906250       -6.2042337703  MEMB      48              0.0000000000
     44989      1308  PVCL2     H11Y          -12.5934000982      -29.4884064110       -6.5721921899  MEMB      48              0.0000000000
     44990      1308  PVCL2     CD12          -13.2568391592      -28.8289581011       -5.0168030171  MEMB      48              0.0000000000
     44991      1308  PVCL2     H12X          -12.8273781833      -29.8132501647       -4.6730411713  MEMB      48              0.0000000000
     44992      1308  PVCL2     H12Y          -14.3091372829      -29.0157805346       -5.2864386284  MEMB      48              0.0000000000
     44993      1308  PVCL2     CD13          -13.0097779025      -27.8037448797       -3.9362006430  MEMB      48              0.0000000000
     44994      1308  PVCL2     H13X          -13.6620993022      -28.0724086268       -3.0854233181  MEMB      48              0.0000000000
     44995      1308  PVCL2     H13Y          -13.3969637036      -26.8583430950       -4.3664100433  MEMB      48              0.0000000000
     44996      1308  PVCL2     CD14          -11.5361270120      -27.5568282541       -3.5194836551  MEMB      48              0.0000000000
     44997      1308  PVCL2     H14X          -11.1328832408      -26.7730326665       -4.1991727147  MEMB      48              0.0000000000
     44998      1308  PVCL2     H14Y          -10.8328837882      -28.4053965675       -3.6278431742  MEMB      48              0.0000000000
     44999      1308  PVCL2     CD15          -11.3902254732      -27.0933456769       -2.0691469893  MEMB      48              0.0000000000
     45000      1308  PVCL2     H15X          -12.2245500015      -26.4590512709       -1.7882211704  MEMB      48              0.0000000000
     45001      1308  PVCL2     H15Y          -10.5320272522      -26.4022641188       -2.0072620768  MEMB      48              0.0000000000
     45002      1308  PVCL2     CD16          -11.2928370225      -28.2209449616       -1.0396808983  MEMB      48              0.0000000000
     45003      1308  PVCL2     H16X          -11.3639202876      -27.8216749736       -0.0130459991  MEMB      48              0.0000000000
     45004      1308  PVCL2     H16Y          -10.3183197166      -28.7262252903       -1.1202368534  MEMB      48              0.0000000000
     45005      1308  PVCL2     H16Z          -12.1570548565      -28.9190483884       -1.1565250401  MEMB      48              0.0000000000
     45006      1309  PPPE      N              13.3286786164       27.9905412092      -16.7910749005  MEMB      49              0.0000000000
     45007      1309  PPPE      HN1            12.7932566595       27.6238590356      -15.9774385597  MEMB      49              0.0000000000
     45008      1309  PPPE      HN2            14.3515198762       27.8176811815      -16.6766322229  MEMB      49              0.0000000000
     45009      1309  PPPE      HN3            13.2052314396       29.0175791506      -16.9148851692  MEMB      49              0.0000000000
     45010      1309  PPPE      C12            12.9875182179       27.2135175710      -18.0331953762  MEMB      49              0.0000000000
     45011      1309  PPPE      H12A           12.1831203976       27.7263776155      -18.5986710190  MEMB      49              0.0000000000
     45012      1309  PPPE      H12B           12.5785918868       26.2433970796      -17.6824968581  MEMB      49              0.0000000000
     45013      1309  PPPE      C11            14.3020706548       26.9962407329      -18.8145001863  MEMB      49              0.0000000000
     45014      1309  PPPE      H11A           14.0963944544       26.4922931310      -19.7859760059  MEMB      49              0.0000000000
     45015      1309  PPPE      H11B           14.9441677460       26.3370816387      -18.1926161705  MEMB      49              0.0000000000
     45016      1309  PPPE      P              16.4969963584       28.2595085676      -19.6135157253  MEMB      49              0.0000000000
     45017      1309  PPPE      O13            17.4599747280       27.6065505699      -18.6929490546  MEMB      49              0.0000000000
     45018      1309  PPPE      O14            16.3847827130       27.6968457469      -20.9672505890  MEMB      49              0.0000000000
     45019      1309  PPPE      O11            16.6591490915       29.8102550407      -19.7303265249  MEMB      49              0.0000000000
     45020      1309  PPPE      O12            15.0073586443       28.2102571304      -18.9920080130  MEMB      49              0.0000000000
     45021      1309  PPPE      C1             16.0687950532       30.7131456112      -18.8263988801  MEMB      49              0.0000000000
     45022      1309  PPPE      HA             15.0470108382       30.4135232838      -18.5084958878  MEMB      49              0.0000000000
     45023      1309  PPPE      HB             15.9238499454       31.6668028414      -19.3739248631  MEMB      49              0.0000000000
     45024      1309  PPPE      C2             17.0324119318       30.8935584651      -17.6326980557  MEMB      49              0.0000000000
     45025      1309  PPPE      HS             18.0607228902       30.9650883248      -18.0701184141  MEMB      49              0.0000000000
     45026      1309  PPPE      O21            16.8957136742       29.7419343225      -16.7573842689  MEMB      49              0.0000000000
     45027      1309  PPPE      C21            17.9117813791       29.5541791410      -15.9192073735  MEMB      49              0.0000000000
     45028      1309  PPPE      O22            18.8658315696       30.2920679320      -15.7960417459  MEMB      49              0.0000000000
     45029      1309  PPPE      C22            17.7048686718       28.2868253715      -15.0439451198  MEMB      49              0.0000000000
     45030      1309  PPPE      H2R            18.2795213890       28.4510369461      -14.1070015033  MEMB      49              0.0000000000
     45031      1309  PPPE      H2S            18.1806603090       27.4420647556      -15.5772170880  MEMB      49              0.0000000000
     45032      1309  PPPE      C3             16.7115295196       32.1937086431      -16.8823123850  MEMB      49              0.0000000000
     45033      1309  PPPE      HX             17.4650817508       32.3621669538      -16.0790373531  MEMB      49              0.0000000000
     45034      1309  PPPE      HY             16.7327394056       33.0644596145      -17.5440966767  MEMB      49              0.0000000000
     45035      1309  PPPE      O31            15.3764720926       32.0838778197      -16.4156747118  MEMB      49              0.0000000000
     45036      1309  PPPE      C31            15.2152384201       32.6533891621      -15.2780103539  MEMB      49              0.0000000000
     45037      1309  PPPE      O32            15.9911299615       33.3316967781      -14.6393919640  MEMB      49              0.0000000000
     45038      1309  PPPE      C32            13.8604296976       32.3327524469      -14.8816740647  MEMB      49              0.0000000000
     45039      1309  PPPE      H2X            13.3931578675       31.4753396983      -15.3911015445  MEMB      49              0.0000000000
     45040      1309  PPPE      H2Y            13.3394478276       33.2074738185      -15.2930478837  MEMB      49              0.0000000000
     45041      1309  PPPE      C23            16.2302661850       27.9033460380      -14.7355491473  MEMB      49              0.0000000000
     45042      1309  PPPE      H3R            15.6735379350       28.0166961590      -15.6822758091  MEMB      49              0.0000000000
     45043      1309  PPPE      H3S            15.8097706977       28.6223625350      -14.0006935119  MEMB      49              0.0000000000
     45044      1309  PPPE      C24            15.9981646744       26.4304690108      -14.3260201468  MEMB      49              0.0000000000
     45045      1309  PPPE      H4R            16.1413243627       25.8060659120      -15.2344174443  MEMB      49              0.0000000000
     45046      1309  PPPE      H4S            14.9385980716       26.2804119318      -14.0159049258  MEMB      49              0.0000000000
     45047      1309  PPPE      C25            16.9729506036       25.8914475942      -13.2591085289  MEMB      49              0.0000000000
     45048      1309  PPPE      H5R            18.0070428303       26.0841030388      -13.5974201697  MEMB      49              0.0000000000
     45049      1309  PPPE      H5S            16.8909214753       24.7880435244      -13.1742978041  MEMB      49              0.0000000000
     45050      1309  PPPE      C26            16.7909723612       26.5452037063      -11.8860805411  MEMB      49              0.0000000000
     45051      1309  PPPE      H6R            15.7312481910       26.8847603236      -11.8240567772  MEMB      49              0.0000000000
     45052      1309  PPPE      H6S            17.4915465532       27.3963372055      -11.7607761497  MEMB      49              0.0000000000
     45053      1309  PPPE      C27            17.0267818971       25.6411306253      -10.6863349815  MEMB      49              0.0000000000
     45054      1309  PPPE      H7R            17.9990497264       25.1140407499      -10.6695808764  MEMB      49              0.0000000000
     45055      1309  PPPE      H7S            16.3197023150       24.8517815462      -10.7446648331  MEMB      49              0.0000000000
     45056      1309  PPPE      C28            16.4053984072       26.1316645933       -9.3853684886  MEMB      49              0.0000000000
     45057      1309  PPPE      H8R            16.2950343766       25.3192304779       -8.6368191567  MEMB      49              0.0000000000
     45058      1309  PPPE      H8S            15.3675897568       26.4477437854       -9.6414397880  MEMB      49              0.0000000000
     45059      1309  PPPE      C29            17.2334436453       27.2599895350       -8.9044441117  MEMB      49              0.0000000000
     45060      1309  PPPE      H91            17.0978211764       28.1658370650       -9.5056596718  MEMB      49              0.0000000000
     45061      1309  PPPE      C210           17.9991108513       27.2955868775       -7.8090069525  MEMB      49              0.0000000000
     45062      1309  PPPE      H101           18.4901174264       28.2484225332       -7.5877219487  MEMB      49              0.0000000000
     45063      1309  PPPE      C211           18.2123337032       26.2051245563       -6.7845654897  MEMB      49              0.0000000000
     45064      1309  PPPE      H11R           19.2967786606       26.0041174940       -6.6246266900  MEMB      49              0.0000000000
     45065      1309  PPPE      H11S           17.7463753583       25.2371912657       -7.0753451938  MEMB      49              0.0000000000
     45066      1309  PPPE      C212           17.5959957596       26.6336487206       -5.4440410399  MEMB      49              0.0000000000
     45067      1309  PPPE      H12R           17.5233606067       25.7292833192       -4.7980262334  MEMB      49              0.0000000000
     45068      1309  PPPE      H12S           16.5566388668       27.0063349237       -5.5845033089  MEMB      49              0.0000000000
     45069      1309  PPPE      C213           18.4202890535       27.7177230758       -4.7402099798  MEMB      49              0.0000000000
     45070      1309  PPPE      H13R           18.4620687200       28.6472047680       -5.3545479294  MEMB      49              0.0000000000
     45071      1309  PPPE      H13S           19.4679443307       27.3728178192       -4.5997967051  MEMB      49              0.0000000000
     45072      1309  PPPE      C214           17.8348898813       28.1082065375       -3.3910321346  MEMB      49              0.0000000000
     45073      1309  PPPE      H14R           16.7282847502       28.2236694157       -3.4452276158  MEMB      49              0.0000000000
     45074      1309  PPPE      H14S           18.2627574502       29.1022340516       -3.1251885969  MEMB      49              0.0000000000
     45075      1309  PPPE      C215           18.2212707826       27.1715440584       -2.2619639321  MEMB      49              0.0000000000
     45076      1309  PPPE      H15R           19.3201623235       26.9810423163       -2.2886025843  MEMB      49              0.0000000000
     45077      1309  PPPE      H15S           17.7110540383       26.1798267451       -2.3411172265  MEMB      49              0.0000000000
     45078      1309  PPPE      C216           17.8110389177       27.8344024514       -0.9608327836  MEMB      49              0.0000000000
     45079      1309  PPPE      H16R           17.7401314998       27.0542527492       -0.2343473129  MEMB      49              0.0000000000
     45080      1309  PPPE      H16S           18.5043552971       28.6139713989       -0.5857684422  MEMB      49              0.0000000000
     45081      1309  PPPE      H16T           16.7850532860       28.2399141392       -1.0123440930  MEMB      49              0.0000000000
     45082      1309  PPPE      C33            13.8532403763       32.0438797881      -13.4036436995  MEMB      49              0.0000000000
     45083      1309  PPPE      H3X            12.7774994010       31.7724189795      -13.4226828667  MEMB      49              0.0000000000
     45084      1309  PPPE      H3Y            14.1312585846       32.8973098837      -12.7265504599  MEMB      49              0.0000000000
     45085      1309  PPPE      C34            14.5051729818       30.7482597666      -12.9307994182  MEMB      49              0.0000000000
     45086      1309  PPPE      H4X            15.5929791020       30.9373741772      -13.0072319868  MEMB      49              0.0000000000
     45087      1309  PPPE      H4Y            14.1448747069       29.9214544771      -13.5702229964  MEMB      49              0.0000000000
     45088      1309  PPPE      C35            14.1961836311       30.3291778312      -11.4962544353  MEMB      49              0.0000000000
     45089      1309  PPPE      H5X            13.7080149166       31.1807099081      -11.0646782691  MEMB      49              0.0000000000
     45090      1309  PPPE      H5Y            15.1156521027       30.0702687945      -10.9227718332  MEMB      49              0.0000000000
     45091      1309  PPPE      C36            13.1274601400       29.2580597464      -11.3375435558  MEMB      49              0.0000000000
     45092      1309  PPPE      H6X            13.5057301996       28.3719452979      -11.8772000297  MEMB      49              0.0000000000
     45093      1309  PPPE      H6Y            12.1582170831       29.6173910330      -11.7535168995  MEMB      49              0.0000000000
     45094      1309  PPPE      C37            12.9702836871       28.7725069969       -9.9083947107  MEMB      49              0.0000000000
     45095      1309  PPPE      H7X            13.9491653903       28.3347903382       -9.6109362438  MEMB      49              0.0000000000
     45096      1309  PPPE      H7Y            12.1538493799       28.0353022991       -9.7800181170  MEMB      49              0.0000000000
     45097      1309  PPPE      C38            12.6878399285       29.8002759227       -8.8820133114  MEMB      49              0.0000000000
     45098      1309  PPPE      H8X            11.7688656259       30.3889708011       -9.1097949765  MEMB      49              0.0000000000
     45099      1309  PPPE      H8Y            13.5827487647       30.4729670090       -8.8866398695  MEMB      49              0.0000000000
     45100      1309  PPPE      C39            12.4321584240       29.0699388019       -7.5613415860  MEMB      49              0.0000000000
     45101      1309  PPPE      H9X            11.5557003837       28.4217993174       -7.5924139788  MEMB      49              0.0000000000
     45102      1309  PPPE      H9Y            11.9347704522       29.7849365576       -6.9503499420  MEMB      49              0.0000000000
     45103      1309  PPPE      C310           13.7030902770       28.5289445395       -6.8608811063  MEMB      49              0.0000000000
     45104      1309  PPPE      H10X           14.5596674340       29.2401582009       -6.7519084514  MEMB      49              0.0000000000
     45105      1309  PPPE      H10Y           14.0846471184       27.7532609334       -7.5370573764  MEMB      49              0.0000000000
     45106      1309  PPPE      C311           13.4671514933       27.9675179723       -5.4686947968  MEMB      49              0.0000000000
     45107      1309  PPPE      H11X           14.4399889445       27.6308048151       -5.0420644852  MEMB      49              0.0000000000
     45108      1309  PPPE      H11Y           12.8285850533       27.0645778295       -5.5512795706  MEMB      49              0.0000000000
     45109      1309  PPPE      C312           12.8692930003       28.9294715216       -4.4529648890  MEMB      49              0.0000000000
     45110      1309  PPPE      H12X           11.8192933940       29.2069432489       -4.6980426969  MEMB      49              0.0000000000
     45111      1309  PPPE      H12Y           13.4836310980       29.8316213896       -4.2404620847  MEMB      49              0.0000000000
     45112      1309  PPPE      C313           12.8859829067       28.2303359777       -3.1361358392  MEMB      49              0.0000000000
     45113      1309  PPPE      H13X           13.7157036240       27.5129764158       -3.1604019270  MEMB      49              0.0000000000
     45114      1309  PPPE      H13Y           11.9354372853       27.6317750151       -3.1864545756  MEMB      49              0.0000000000
     45115      1309  PPPE      C314           13.1750870519       29.2182156018       -1.9331255004  MEMB      49              0.0000000000
     45116      1309  PPPE      H14X           12.1599190454       29.5566488611       -2.1182487098  MEMB      49              0.0000000000
     45117      1309  PPPE      H14Y           14.0123342973       29.8945549360       -2.1874837730  MEMB      49              0.0000000000
     45118      1309  PPPE      C315           13.2817699677       28.9650723309       -0.3655081958  MEMB      49              0.0000000000
     45119      1309  PPPE      H15X           13.5039558303       29.7173364252        0.3895434176  MEMB      49              0.0000000000
     45120      1309  PPPE      H15Y           14.2277345107       28.3114444745       -0.3140419228  MEMB      49              0.0000000000
     45121      1309  PPPE      C316           11.9066432843       28.4510652355        0.2494761945  MEMB      49              0.0000000000
     45122      1309  PPPE      H16X           10.9864243270       28.4760970407       -0.2325390625  MEMB      49              0.0000000000
     45123      1309  PPPE      H16Y           11.3300479045       27.6242013316        0.0943994987  MEMB      49              0.0000000000
     45124      1309  PPPE      H16Z           11.5271242281       27.8214169599        1.0280674642  MEMB      49              0.0000000000
     45125      1310  PPPE      N              30.0479980396       -4.9184499105      -21.0084623773  MEMB      50              0.0000000000
     45126      1310  PPPE      HN1            29.5245592751       -4.0257459801      -20.9694473556  MEMB      50              0.0000000000
     45127      1310  PPPE      HN2            31.0664794226       -4.7183985631      -21.1402223159  MEMB      50              0.0000000000
     45128      1310  PPPE      HN3            29.7457575156       -5.5450087603      -21.7775855948  MEMB      50              0.0000000000
     45129      1310  PPPE      C12            29.8252929156       -5.6493498243      -19.7105189613  MEMB      50              0.0000000000
     45130      1310  PPPE      H12A           28.8122271457       -6.0882136163      -19.7622100766  MEMB      50              0.0000000000
     45131      1310  PPPE      H12B           29.8481555955       -4.9151967371      -18.8809014319  MEMB      50              0.0000000000
     45132      1310  PPPE      C11            30.8680098014       -6.7545613283      -19.4958555327  MEMB      50              0.0000000000
     45133      1310  PPPE      H11A           30.7144615219       -7.5386013823      -20.2537740454  MEMB      50              0.0000000000
     45134      1310  PPPE      H11B           30.7085519313       -7.2342452171      -18.4935040491  MEMB      50              0.0000000000
     45135      1310  PPPE      P              32.9091476924       -5.6417587934      -18.3815266518  MEMB      50              0.0000000000
     45136      1310  PPPE      O13            34.2427352388       -5.1395021764      -18.7438122718  MEMB      50              0.0000000000
     45137      1310  PPPE      O14            31.9624045549       -4.6968534171      -17.7570621726  MEMB      50              0.0000000000
     45138      1310  PPPE      O11            33.0534069833       -6.8919163676      -17.4653304997  MEMB      50              0.0000000000
     45139      1310  PPPE      O12            32.1913673662       -6.2528544632      -19.6663781918  MEMB      50              0.0000000000
     45140      1310  PPPE      C1             33.6270893948       -8.0733415172      -18.0015530889  MEMB      50              0.0000000000
     45141      1310  PPPE      HA             34.5219159299       -7.8765478383      -18.6518388467  MEMB      50              0.0000000000
     45142      1310  PPPE      HB             32.8721013739       -8.6338953585      -18.5977853130  MEMB      50              0.0000000000
     45143      1310  PPPE      C2             34.0453340006       -8.9126174240      -16.7960426804  MEMB      50              0.0000000000
     45144      1310  PPPE      HS             34.2838907870       -9.9276876435      -17.2578371684  MEMB      50              0.0000000000
     45145      1310  PPPE      O21            33.0586574855       -8.8052690859      -15.6906190484  MEMB      50              0.0000000000
     45146      1310  PPPE      C21            32.7227521060       -9.9888436769      -15.2686043386  MEMB      50              0.0000000000
     45147      1310  PPPE      O22            32.7200276808      -10.9133071479      -16.0462100983  MEMB      50              0.0000000000
     45148      1310  PPPE      C22            32.2866519068      -10.2311391766      -13.8221222725  MEMB      50              0.0000000000
     45149      1310  PPPE      H2R            32.7215023382      -11.1353609174      -13.3167345987  MEMB      50              0.0000000000
     45150      1310  PPPE      H2S            31.2349171818      -10.4766863016      -14.0734446690  MEMB      50              0.0000000000
     45151      1310  PPPE      C3             35.3594661717       -8.3924889281      -16.2053769737  MEMB      50              0.0000000000
     45152      1310  PPPE      HX             35.8683901945       -9.1565710097      -15.5777221933  MEMB      50              0.0000000000
     45153      1310  PPPE      HY             36.0396510474       -8.1285197015      -17.0386718794  MEMB      50              0.0000000000
     45154      1310  PPPE      O31            35.0089592935       -7.2241950037      -15.4535139384  MEMB      50              0.0000000000
     45155      1310  PPPE      C31            35.7205042850       -6.9498104268      -14.4107343234  MEMB      50              0.0000000000
     45156      1310  PPPE      O32            36.6351634244       -7.6203348703      -13.9542200987  MEMB      50              0.0000000000
     45157      1310  PPPE      C32            35.2874188319       -5.5770900288      -13.9135240828  MEMB      50              0.0000000000
     45158      1310  PPPE      H2X            34.3468479527       -5.6661740032      -13.3373480646  MEMB      50              0.0000000000
     45159      1310  PPPE      H2Y            35.0535382835       -4.9564269894      -14.8108270716  MEMB      50              0.0000000000
     45160      1310  PPPE      C23            32.6475161291       -9.3174153197      -12.7238445831  MEMB      50              0.0000000000
     45161      1310  PPPE      H3R            31.7762142060       -9.3868685171      -12.0295575871  MEMB      50              0.0000000000
     45162      1310  PPPE      H3S            32.7446912368       -8.3457066244      -13.2330264309  MEMB      50              0.0000000000
     45163      1310  PPPE      C24            33.9039144939       -9.8789466949      -12.0274039045  MEMB      50              0.0000000000
     45164      1310  PPPE      H4R            34.7198773281      -10.0732964993      -12.7584008374  MEMB      50              0.0000000000
     45165      1310  PPPE      H4S            33.6591288767      -10.8530196075      -11.5267636944  MEMB      50              0.0000000000
     45166      1310  PPPE      C25            34.4491191191       -8.9177816761      -11.0098037120  MEMB      50              0.0000000000
     45167      1310  PPPE      H5R            34.3110810717       -7.9047452180      -11.4444520470  MEMB      50              0.0000000000
     45168      1310  PPPE      H5S            35.5396409900       -9.1148891600      -10.8871084631  MEMB      50              0.0000000000
     45169      1310  PPPE      C26            33.7276580789       -9.0749933967       -9.6722917857  MEMB      50              0.0000000000
     45170      1310  PPPE      H6R            34.0034346645      -10.0774049466       -9.2768659803  MEMB      50              0.0000000000
     45171      1310  PPPE      H6S            32.6272233801       -9.1351187515       -9.8154054664  MEMB      50              0.0000000000
     45172      1310  PPPE      C27            34.0563789601       -7.9301435580       -8.6924741912  MEMB      50              0.0000000000
     45173      1310  PPPE      H7R            33.4162490076       -8.0286930094       -7.7771755280  MEMB      50              0.0000000000
     45174      1310  PPPE      H7S            33.7495986107       -6.9605544920       -9.1267379131  MEMB      50              0.0000000000
     45175      1310  PPPE      C28            35.5404108033       -7.8089423858       -8.3363180885  MEMB      50              0.0000000000
     45176      1310  PPPE      H8R            35.7436552393       -6.8142583578       -7.8865559420  MEMB      50              0.0000000000
     45177      1310  PPPE      H8S            36.2521241991       -7.9354915247       -9.1797225471  MEMB      50              0.0000000000
     45178      1310  PPPE      C29            35.5440948405       -8.8528678740       -7.2896139754  MEMB      50              0.0000000000
     45179      1310  PPPE      H91            35.4369983455       -9.9095541418       -7.5989763996  MEMB      50              0.0000000000
     45180      1310  PPPE      C210           36.0141852347       -8.6418867521       -6.0926084099  MEMB      50              0.0000000000
     45181      1310  PPPE      H101           36.1591453735       -9.5659520579       -5.6015479752  MEMB      50              0.0000000000
     45182      1310  PPPE      C211           36.6561182631       -7.4176502566       -5.5402529448  MEMB      50              0.0000000000
     45183      1310  PPPE      H11R           37.3125793475       -6.9823801089       -6.3255692359  MEMB      50              0.0000000000
     45184      1310  PPPE      H11S           37.2844500259       -7.5244133687       -4.6458723745  MEMB      50              0.0000000000
     45185      1310  PPPE      C212           35.6975348157       -6.4972322009       -4.9124550942  MEMB      50              0.0000000000
     45186      1310  PPPE      H12R           34.9706377019       -6.3398875319       -5.7237888788  MEMB      50              0.0000000000
     45187      1310  PPPE      H12S           36.3047005008       -5.5957383519       -4.6774018441  MEMB      50              0.0000000000
     45188      1310  PPPE      C213           35.0370326379       -7.0356793422       -3.6352398639  MEMB      50              0.0000000000
     45189      1310  PPPE      H13R           34.7470410567       -8.1089980397       -3.7468202743  MEMB      50              0.0000000000
     45190      1310  PPPE      H13S           34.1924829587       -6.3734346203       -3.4194273138  MEMB      50              0.0000000000
     45191      1310  PPPE      C214           35.8937242035       -6.9277162428       -2.3994295292  MEMB      50              0.0000000000
     45192      1310  PPPE      H14R           36.3591600689       -5.9365593880       -2.2799755476  MEMB      50              0.0000000000
     45193      1310  PPPE      H14S           36.6246067279       -7.6470711169       -2.7542852110  MEMB      50              0.0000000000
     45194      1310  PPPE      C215           35.2842294799       -7.3134627568       -1.0590946287  MEMB      50              0.0000000000
     45195      1310  PPPE      H15R           34.5605160285       -6.5585139294       -0.7507379003  MEMB      50              0.0000000000
     45196      1310  PPPE      H15S           36.0801504701       -7.3602300243       -0.2755405855  MEMB      50              0.0000000000
     45197      1310  PPPE      C216           34.5014136452       -8.5875325096       -1.0491786091  MEMB      50              0.0000000000
     45198      1310  PPPE      H16R           33.8934624113       -8.7955784013       -0.1524176295  MEMB      50              0.0000000000
     45199      1310  PPPE      H16S           34.2210550799       -9.0657433826       -1.9982581121  MEMB      50              0.0000000000
     45200      1310  PPPE      H16T           35.1916334948       -9.2993796396       -0.7872221641  MEMB      50              0.0000000000
     45201      1310  PPPE      C33            36.3963711413       -4.9712350268      -13.0274793594  MEMB      50              0.0000000000
     45202      1310  PPPE      H3X            37.3758215633       -5.0028813022      -13.5610041704  MEMB      50              0.0000000000
     45203      1310  PPPE      H3Y            36.5132769669       -5.5778724783      -12.1021208774  MEMB      50              0.0000000000
     45204      1310  PPPE      C34            36.1295125828       -3.4998192188      -12.7076945730  MEMB      50              0.0000000000
     45205      1310  PPPE      H4X            35.9562076721       -3.0069341216      -13.6901450944  MEMB      50              0.0000000000
     45206      1310  PPPE      H4Y            37.0477786296       -3.0496067599      -12.2562229225  MEMB      50              0.0000000000
     45207      1310  PPPE      C35            34.9629156649       -3.2702662262      -11.7472353463  MEMB      50              0.0000000000
     45208      1310  PPPE      H5X            34.1211492913       -3.9754609919      -11.9140516706  MEMB      50              0.0000000000
     45209      1310  PPPE      H5Y            34.5714132830       -2.2272779017      -11.8350210398  MEMB      50              0.0000000000
     45210      1310  PPPE      C36            35.4413325643       -3.4565217537      -10.3145204327  MEMB      50              0.0000000000
     45211      1310  PPPE      H6X            36.0951756937       -2.5781074334      -10.1108652619  MEMB      50              0.0000000000
     45212      1310  PPPE      H6Y            36.0773878097       -4.3667438341      -10.2368088100  MEMB      50              0.0000000000
     45213      1310  PPPE      C37            34.2523700044       -3.5391544491       -9.3522630156  MEMB      50              0.0000000000
     45214      1310  PPPE      H7X            33.7051899016       -4.4990940302       -9.4845409678  MEMB      50              0.0000000000
     45215      1310  PPPE      H7Y            33.5621977713       -2.7018350571       -9.5993636752  MEMB      50              0.0000000000
     45216      1310  PPPE      C38            34.6854651941       -3.5025525236       -7.8903854040  MEMB      50              0.0000000000
     45217      1310  PPPE      H8X            35.4143784698       -2.6662234103       -7.7835620642  MEMB      50              0.0000000000
     45218      1310  PPPE      H8Y            35.2290479418       -4.4549282309       -7.6966109204  MEMB      50              0.0000000000
     45219      1310  PPPE      C39            33.5354171489       -3.3440878561       -6.8639135279  MEMB      50              0.0000000000
     45220      1310  PPPE      H9X            33.0258391209       -2.3743602206       -7.0409669340  MEMB      50              0.0000000000
     45221      1310  PPPE      H9Y            34.0290049901       -3.2642909376       -5.8701387546  MEMB      50              0.0000000000
     45222      1310  PPPE      C310           32.4846683874       -4.4872768321       -6.8441036049  MEMB      50              0.0000000000
     45223      1310  PPPE      H10X           33.0164303263       -5.4567397591       -6.9558741896  MEMB      50              0.0000000000
     45224      1310  PPPE      H10Y           31.7805017023       -4.3907770542       -7.7027497892  MEMB      50              0.0000000000
     45225      1310  PPPE      C311           31.6286706407       -4.6255829393       -5.5644034333  MEMB      50              0.0000000000
     45226      1310  PPPE      H11X           30.8592319208       -3.8244325296       -5.5717404703  MEMB      50              0.0000000000
     45227      1310  PPPE      H11Y           32.2666910900       -4.5274066543       -4.6546085156  MEMB      50              0.0000000000
     45228      1310  PPPE      C312           30.8958930974       -5.9864824405       -5.5272337700  MEMB      50              0.0000000000
     45229      1310  PPPE      H12X           31.6585955189       -6.7718695639       -5.7219077241  MEMB      50              0.0000000000
     45230      1310  PPPE      H12Y           30.1723313325       -6.0079543196       -6.3718165602  MEMB      50              0.0000000000
     45231      1310  PPPE      C313           30.1783065336       -6.2927849884       -4.1996434586  MEMB      50              0.0000000000
     45232      1310  PPPE      H13X           29.4652405773       -7.1471671362       -4.2761175277  MEMB      50              0.0000000000
     45233      1310  PPPE      H13Y           29.6053899190       -5.3831491343       -3.9123032294  MEMB      50              0.0000000000
     45234      1310  PPPE      C314           31.1516874049       -6.6373922963       -3.0776925127  MEMB      50              0.0000000000
     45235      1310  PPPE      H14X           31.8466014171       -5.7737229294       -2.9271237290  MEMB      50              0.0000000000
     45236      1310  PPPE      H14Y           31.7535524748       -7.5442545977       -3.2643291685  MEMB      50              0.0000000000
     45237      1310  PPPE      C315           30.4873753803       -7.0337447558       -1.7845946100  MEMB      50              0.0000000000
     45238      1310  PPPE      H15X           29.7889955996       -7.8738110343       -1.7646415414  MEMB      50              0.0000000000
     45239      1310  PPPE      H15Y           29.7027106032       -6.2917066027       -1.6259393297  MEMB      50              0.0000000000
     45240      1310  PPPE      C316           31.5909671584       -7.1967743371       -0.7301374201  MEMB      50              0.0000000000
     45241      1310  PPPE      H16X           32.1670689918       -6.2354403977       -0.6208999075  MEMB      50              0.0000000000
     45242      1310  PPPE      H16Y           31.1575739132       -7.5077027011        0.2430421321  MEMB      50              0.0000000000
     45243      1310  PPPE      H16Z           32.3078344522       -7.9637877274       -0.8915736881  MEMB      50              0.0000000000
     45244      1311  PPPE      N              27.1977035760       17.3570762748      -21.7325719705  MEMB      51              0.0000000000
     45245      1311  PPPE      HN1            27.0512293553       16.3514456579      -21.4990471914  MEMB      51              0.0000000000
     45246      1311  PPPE      HN2            26.4638333962       17.9262676918      -21.2541152857  MEMB      51              0.0000000000
     45247      1311  PPPE      HN3            27.1129963414       17.4609102721      -22.7679770189  MEMB      51              0.0000000000
     45248      1311  PPPE      C12            28.5866471335       17.7081569011      -21.2481839495  MEMB      51              0.0000000000
     45249      1311  PPPE      H12A           28.6417230709       18.8102324341      -21.1227677371  MEMB      51              0.0000000000
     45250      1311  PPPE      H12B           29.3072378030       17.4024638929      -22.0299485365  MEMB      51              0.0000000000
     45251      1311  PPPE      C11            28.9656031907       16.9748099609      -19.9569906154  MEMB      51              0.0000000000
     45252      1311  PPPE      H11A           29.9949238860       17.2485272315      -19.6534900254  MEMB      51              0.0000000000
     45253      1311  PPPE      H11B           29.0338124243       15.8867136680      -20.1109363742  MEMB      51              0.0000000000
     45254      1311  PPPE      P              27.7813984791       16.2178742866      -17.7715671070  MEMB      51              0.0000000000
     45255      1311  PPPE      O13            26.5886176657       16.6287733453      -17.0114694347  MEMB      51              0.0000000000
     45256      1311  PPPE      O14            27.7930065657       14.8816716766      -18.4173395884  MEMB      51              0.0000000000
     45257      1311  PPPE      O11            29.0951077024       16.3537828327      -16.9058890884  MEMB      51              0.0000000000
     45258      1311  PPPE      O12            28.0268634891       17.2868040163      -18.9383318538  MEMB      51              0.0000000000
     45259      1311  PPPE      C1             29.7986944548       17.5919016959      -16.7602789922  MEMB      51              0.0000000000
     45260      1311  PPPE      HA             29.1557010499       18.4825882682      -16.9518343564  MEMB      51              0.0000000000
     45261      1311  PPPE      HB             30.6110915970       17.6272076217      -17.5179072186  MEMB      51              0.0000000000
     45262      1311  PPPE      C2             30.4606528476       17.7533883398      -15.3514851948  MEMB      51              0.0000000000
     45263      1311  PPPE      HS             31.3108253898       18.4558338009      -15.4841355181  MEMB      51              0.0000000000
     45264      1311  PPPE      O21            30.9233662659       16.4729695841      -14.8991354060  MEMB      51              0.0000000000
     45265      1311  PPPE      C21            31.9107660321       16.3950886999      -14.0308413770  MEMB      51              0.0000000000
     45266      1311  PPPE      O22            32.6786896771       17.2702437582      -13.6970155897  MEMB      51              0.0000000000
     45267      1311  PPPE      C22            31.8304162148       15.0261811016      -13.4161068408  MEMB      51              0.0000000000
     45268      1311  PPPE      H2R            32.4975944322       15.0230501373      -12.5223722395  MEMB      51              0.0000000000
     45269      1311  PPPE      H2S            32.1810994543       14.2580724751      -14.1313981730  MEMB      51              0.0000000000
     45270      1311  PPPE      C3             29.4466180426       18.3849891359      -14.3352780331  MEMB      51              0.0000000000
     45271      1311  PPPE      HX             28.6803673699       18.9402064941      -14.9166052609  MEMB      51              0.0000000000
     45272      1311  PPPE      HY             28.9299206294       17.5902678842      -13.7516051553  MEMB      51              0.0000000000
     45273      1311  PPPE      O31            30.0860392803       19.3508835674      -13.4938909421  MEMB      51              0.0000000000
     45274      1311  PPPE      C31            29.3886079319       19.7292386358      -12.4175723807  MEMB      51              0.0000000000
     45275      1311  PPPE      O32            28.3960254470       19.2004568670      -11.9662820544  MEMB      51              0.0000000000
     45276      1311  PPPE      C32            30.0498879308       20.9089743315      -11.7584367912  MEMB      51              0.0000000000
     45277      1311  PPPE      H2X            29.3095602124       21.6105565228      -11.3731073707  MEMB      51              0.0000000000
     45278      1311  PPPE      H2Y            30.7428699745       21.4009657385      -12.4880982317  MEMB      51              0.0000000000
     45279      1311  PPPE      C23            30.3641156021       14.8111898745      -12.9936393442  MEMB      51              0.0000000000
     45280      1311  PPPE      H3R            30.2036246178       13.7151284684      -12.8728817390  MEMB      51              0.0000000000
     45281      1311  PPPE      H3S            29.5778159604       15.0091397795      -13.7317598512  MEMB      51              0.0000000000
     45282      1311  PPPE      C24            30.1417762685       15.6149241875      -11.6973173722  MEMB      51              0.0000000000
     45283      1311  PPPE      H4R            30.4099529475       16.6828970091      -11.7811250802  MEMB      51              0.0000000000
     45284      1311  PPPE      H4S            30.8820880050       15.3427264550      -10.9342233321  MEMB      51              0.0000000000
     45285      1311  PPPE      C25            28.7234298407       15.4391678839      -11.2018915134  MEMB      51              0.0000000000
     45286      1311  PPPE      H5R            28.5329177068       14.3872299924      -10.8941301096  MEMB      51              0.0000000000
     45287      1311  PPPE      H5S            28.0652443620       15.7318948617      -12.0530724869  MEMB      51              0.0000000000
     45288      1311  PPPE      C26            28.4240558390       16.3686433878      -10.0521448203  MEMB      51              0.0000000000
     45289      1311  PPPE      H6R            28.8771107069       17.3434093650      -10.3120114261  MEMB      51              0.0000000000
     45290      1311  PPPE      H6S            28.8599126843       15.9729257831       -9.1016423735  MEMB      51              0.0000000000
     45291      1311  PPPE      C27            26.9217759529       16.5952914568       -9.9021110764  MEMB      51              0.0000000000
     45292      1311  PPPE      H7R            26.6488432050       15.5753922228       -9.7738652234  MEMB      51              0.0000000000
     45293      1311  PPPE      H7S            26.3833214182       17.0053052903      -10.7951555807  MEMB      51              0.0000000000
     45294      1311  PPPE      C28            26.4518798157       17.2522704542       -8.6485389714  MEMB      51              0.0000000000
     45295      1311  PPPE      H8R            26.6571753200       16.7754677171       -7.6729951721  MEMB      51              0.0000000000
     45296      1311  PPPE      H8S            25.3278729756       17.3657568610       -8.7175682977  MEMB      51              0.0000000000
     45297      1311  PPPE      C29            27.3082644562       18.4430766468       -8.8820328827  MEMB      51              0.0000000000
     45298      1311  PPPE      H91            26.8796479749       19.1572557076       -9.6224775228  MEMB      51              0.0000000000
     45299      1311  PPPE      C210           28.2738185237       18.9074170810       -8.0904955742  MEMB      51              0.0000000000
     45300      1311  PPPE      H101           28.3834996142       20.0426915037       -8.1721598311  MEMB      51              0.0000000000
     45301      1311  PPPE      C211           28.7879604323       18.3992770142       -6.7920724424  MEMB      51              0.0000000000
     45302      1311  PPPE      H11R           29.7955641691       18.7785775213       -6.8936641493  MEMB      51              0.0000000000
     45303      1311  PPPE      H11S           28.8828309926       19.3869464162       -6.7481483436  MEMB      51              0.0000000000
     45304      1311  PPPE      C212           28.5648006812       18.8458362044       -5.3040279834  MEMB      51              0.0000000000
     45305      1311  PPPE      H12R           29.2386804765       18.2723561773       -4.6643732504  MEMB      51              0.0000000000
     45306      1311  PPPE      H12S           27.5593997009       18.4803455593       -5.0224330576  MEMB      51              0.0000000000
     45307      1311  PPPE      C213           28.9362289382       20.3926842719       -5.0718415293  MEMB      51              0.0000000000
     45308      1311  PPPE      H13R           28.3305810591       21.2220295908       -5.5585349369  MEMB      51              0.0000000000
     45309      1311  PPPE      H13S           29.9182116336       20.7898549246       -5.2675214445  MEMB      51              0.0000000000
     45310      1311  PPPE      C214           28.7419318206       20.6813996887       -3.6935002841  MEMB      51              0.0000000000
     45311      1311  PPPE      H14R           27.9927182278       19.9069340972       -3.3861506710  MEMB      51              0.0000000000
     45312      1311  PPPE      H14S           28.4706593924       21.7706301161       -3.7461109441  MEMB      51              0.0000000000
     45313      1311  PPPE      C215           29.6564626083       20.2554403503       -2.6504983092  MEMB      51              0.0000000000
     45314      1311  PPPE      H15R           30.6276480571       20.2604280740       -3.0518374833  MEMB      51              0.0000000000
     45315      1311  PPPE      H15S           29.4334401415       19.1379484824       -2.6226305417  MEMB      51              0.0000000000
     45316      1311  PPPE      C216           29.5571901076       21.0519225098       -1.3360086410  MEMB      51              0.0000000000
     45317      1311  PPPE      H16R           29.2628109675       22.0890912194       -1.0954003895  MEMB      51              0.0000000000
     45318      1311  PPPE      H16S           28.5522858933       21.0922011256       -1.1766267667  MEMB      51              0.0000000000
     45319      1311  PPPE      H16T           30.0877719743       20.6930425515       -0.3901507287  MEMB      51              0.0000000000
     45320      1311  PPPE      C33            30.7286520047       20.3747866681      -10.5307899747  MEMB      51              0.0000000000
     45321      1311  PPPE      H3X            30.2602835033       19.6544918635       -9.8326777585  MEMB      51              0.0000000000
     45322      1311  PPPE      H3Y            31.1849465737       21.2271364051       -9.9445435543  MEMB      51              0.0000000000
     45323      1311  PPPE      C34            31.7119520458       19.4375931610      -11.1089372560  MEMB      51              0.0000000000
     45324      1311  PPPE      H4X            32.1392915114       20.1955962774      -11.8376184345  MEMB      51              0.0000000000
     45325      1311  PPPE      H4Y            31.6489927519       18.6916708727      -11.8793925512  MEMB      51              0.0000000000
     45326      1311  PPPE      C35            32.5021299863       18.8094018376       -9.9670517401  MEMB      51              0.0000000000
     45327      1311  PPPE      H5X            32.4992980878       19.8345483498       -9.4921760157  MEMB      51              0.0000000000
     45328      1311  PPPE      H5Y            33.4776318701       18.3144456876      -10.2274551549  MEMB      51              0.0000000000
     45329      1311  PPPE      C36            32.2471201583       18.1059191446       -8.7085470946  MEMB      51              0.0000000000
     45330      1311  PPPE      H6X            31.9076554713       17.2511948835       -9.3238355431  MEMB      51              0.0000000000
     45331      1311  PPPE      H6Y            31.5665954649       18.7858048466       -8.1476252849  MEMB      51              0.0000000000
     45332      1311  PPPE      C37            33.4696698019       17.7013250479       -7.8491077525  MEMB      51              0.0000000000
     45333      1311  PPPE      H7X            34.3257143001       18.3811431367       -7.6349502246  MEMB      51              0.0000000000
     45334      1311  PPPE      H7Y            33.9855842606       16.8457745748       -8.3155222771  MEMB      51              0.0000000000
     45335      1311  PPPE      C38            32.8839030485       17.4269096230       -6.5008564958  MEMB      51              0.0000000000
     45336      1311  PPPE      H8X            32.3130161047       18.2947533452       -6.0863423285  MEMB      51              0.0000000000
     45337      1311  PPPE      H8Y            33.6859570910       17.2064691744       -5.8312734069  MEMB      51              0.0000000000
     45338      1311  PPPE      C39            32.0805248278       16.1916446974       -6.4812335331  MEMB      51              0.0000000000
     45339      1311  PPPE      H9X            32.7857185048       15.3013079997       -6.3449259687  MEMB      51              0.0000000000
     45340      1311  PPPE      H9Y            31.4045507777       16.1657758126       -7.3233281908  MEMB      51              0.0000000000
     45341      1311  PPPE      C310           30.9116552748       16.3798273867       -5.5552243093  MEMB      51              0.0000000000
     45342      1311  PPPE      H10X           31.2606873861       17.2472768861       -4.7522642781  MEMB      51              0.0000000000
     45343      1311  PPPE      H10Y           31.7779916822       16.0792997602       -4.9999624338  MEMB      51              0.0000000000
     45344      1311  PPPE      C311           29.6812384418       15.1719835288       -6.1334744767  MEMB      51              0.0000000000
     45345      1311  PPPE      H11X           30.1539889998       14.0536272477       -6.4526655649  MEMB      51              0.0000000000
     45346      1311  PPPE      H11Y           28.7177547083       15.6455367473       -5.5738592795  MEMB      51              0.0000000000
     45347      1311  PPPE      C312           28.8652422773       13.8970360437       -5.5355717427  MEMB      51              0.0000000000
     45348      1311  PPPE      H12X           28.1779864659       13.1106712446       -6.1545815051  MEMB      51              0.0000000000
     45349      1311  PPPE      H12Y           27.9526147986       14.1201126614       -6.3100567912  MEMB      51              0.0000000000
     45350      1311  PPPE      C313           29.7053992002       14.1386107395       -3.8578595647  MEMB      51              0.0000000000
     45351      1311  PPPE      H13X           30.7824907396       14.4950437642       -4.5035033555  MEMB      51              0.0000000000
     45352      1311  PPPE      H13Y           30.8786401675       14.1527751978       -4.3117167306  MEMB      51              0.0000000000
     45353      1311  PPPE      C314           29.9129313167       13.8646746217       -1.2123092495  MEMB      51              0.0000000000
     45354      1311  PPPE      H14X           31.2323643668       13.8010869293       -0.7379652829  MEMB      51              0.0000000000
     45355      1311  PPPE      H14Y           30.1176336338       12.9614461641       -0.6958631373  MEMB      51              0.0000000000
     45356      1311  PPPE      C315           29.9842394223       14.7747215857        0.2945943948  MEMB      51              0.0000000000
     45357      1311  PPPE      H15X           29.5172001221       14.1778322864        1.0917505774  MEMB      51              0.0000000000
     45358      1311  PPPE      H15Y           29.3681102442       15.5822275815       -0.0143629051  MEMB      51              0.0000000000
     45359      1311  PPPE      C316           30.9438038245       15.5358177384        1.3943112599  MEMB      51              0.0000000000
     45360      1311  PPPE      H16X           31.9427035893       15.3354159172        1.7896136217  MEMB      51              0.0000000000
     45361      1311  PPPE      H16Y           31.5654062218       16.1620199013        0.8515872060  MEMB      51              0.0000000000
     45362      1311  PPPE      H16Z           30.3670815091       16.2659521434        2.0323648265  MEMB      51              0.0000000000
     45363      1312  PPPE      N             -32.3213613220      -14.8048087810      -19.4150861637  MEMB      52              0.0000000000
     45364      1312  PPPE      HN1           -32.7402086954      -14.9716613740      -18.4780923036  MEMB      52              0.0000000000
     45365      1312  PPPE      HN2           -32.1003551835      -13.7971828297      -19.5615418746  MEMB      52              0.0000000000
     45366      1312  PPPE      HN3           -32.9758105760      -15.1567000514      -20.1407227739  MEMB      52              0.0000000000
     45367      1312  PPPE      C12           -31.0239026278      -15.5258300105      -19.5313288767  MEMB      52              0.0000000000
     45368      1312  PPPE      H12A          -30.5444483845      -15.1780927524      -20.4750564144  MEMB      52              0.0000000000
     45369      1312  PPPE      H12B          -31.2567377313      -16.6067602657      -19.5914178506  MEMB      52              0.0000000000
     45370      1312  PPPE      C11           -30.1349054269      -15.2217452016      -18.3222367292  MEMB      52              0.0000000000
     45371      1312  PPPE      H11A          -29.2944873485      -15.9573913935      -18.3648112385  MEMB      52              0.0000000000
     45372      1312  PPPE      H11B          -30.6368456310      -15.4328963158      -17.3534170687  MEMB      52              0.0000000000
     45373      1312  PPPE      P             -28.2365080756      -13.6436979108      -19.0379955551  MEMB      52              0.0000000000
     45374      1312  PPPE      O13           -27.3093007604      -14.5959700854      -18.3971872123  MEMB      52              0.0000000000
     45375      1312  PPPE      O14           -28.4827492696      -13.7569498855      -20.4822732264  MEMB      52              0.0000000000
     45376      1312  PPPE      O11           -27.8074767133      -12.1773097966      -18.7308954198  MEMB      52              0.0000000000
     45377      1312  PPPE      O12           -29.6962561450      -13.8569665419      -18.3547881147  MEMB      52              0.0000000000
     45378      1312  PPPE      C1            -28.6202033936      -11.1683823378      -18.2080486830  MEMB      52              0.0000000000
     45379      1312  PPPE      HA            -29.5804313441      -11.0061340570      -18.7257997527  MEMB      52              0.0000000000
     45380      1312  PPPE      HB            -28.0289424956      -10.2243706066      -18.3632021002  MEMB      52              0.0000000000
     45381      1312  PPPE      C2            -28.8280218978      -11.3945754620      -16.7015356508  MEMB      52              0.0000000000
     45382      1312  PPPE      HS            -27.9895639344      -10.8848611018      -16.3568542145  MEMB      52              0.0000000000
     45383      1312  PPPE      O21           -28.7066370619      -12.7294656004      -16.2539428080  MEMB      52              0.0000000000
     45384      1312  PPPE      C21           -28.2792977220      -12.9662416265      -15.0484033677  MEMB      52              0.0000000000
     45385      1312  PPPE      O22           -27.9936553847      -12.2173049366      -14.1851439904  MEMB      52              0.0000000000
     45386      1312  PPPE      C22           -28.2459780401      -14.3869487630      -14.7269987920  MEMB      52              0.0000000000
     45387      1312  PPPE      H2R           -27.3163738141      -14.7061380708      -15.2454198629  MEMB      52              0.0000000000
     45388      1312  PPPE      H2S           -29.1897107948      -14.7814170704      -15.0873925982  MEMB      52              0.0000000000
     45389      1312  PPPE      C3            -30.2055881455      -10.8124579437      -16.2279999685  MEMB      52              0.0000000000
     45390      1312  PPPE      HX            -30.0664156049      -10.3610757777      -15.2559582071  MEMB      52              0.0000000000
     45391      1312  PPPE      HY            -30.4263148981       -9.8999894256      -16.8170978142  MEMB      52              0.0000000000
     45392      1312  PPPE      O31           -31.2837997134      -11.6790118419      -16.1185452484  MEMB      52              0.0000000000
     45393      1312  PPPE      C31           -31.7866086963      -11.7844074017      -14.9108581519  MEMB      52              0.0000000000
     45394      1312  PPPE      O32           -31.7848711475      -11.0035624578      -13.9793955845  MEMB      52              0.0000000000
     45395      1312  PPPE      C32           -32.2696118221      -13.1548396241      -14.9367133974  MEMB      52              0.0000000000
     45396      1312  PPPE      H2X           -31.8203578073      -13.7588766527      -15.7467665930  MEMB      52              0.0000000000
     45397      1312  PPPE      H2Y           -33.2805385845      -12.8935391334      -15.2577416602  MEMB      52              0.0000000000
     45398      1312  PPPE      C23           -28.2375146528      -14.6987395717      -13.2293488599  MEMB      52              0.0000000000
     45399      1312  PPPE      H3R           -28.9059438596      -14.1083613561      -12.5538786163  MEMB      52              0.0000000000
     45400      1312  PPPE      H3S           -27.2087868403      -14.5308532417      -13.0036433967  MEMB      52              0.0000000000
     45401      1312  PPPE      C24           -27.8789605276      -16.1008593805      -12.8451971500  MEMB      52              0.0000000000
     45402      1312  PPPE      H4R           -26.9730795551      -16.3424910937      -13.4688145920  MEMB      52              0.0000000000
     45403      1312  PPPE      H4S           -28.7710727998      -16.6242842063      -13.2075238334  MEMB      52              0.0000000000
     45404      1312  PPPE      C25           -27.4293354250      -16.2458131155      -11.3738518922  MEMB      52              0.0000000000
     45405      1312  PPPE      H5R           -27.2596865979      -15.2793953897      -10.8842038284  MEMB      52              0.0000000000
     45406      1312  PPPE      H5S           -26.4266043570      -16.7238649476      -11.3319383392  MEMB      52              0.0000000000
     45407      1312  PPPE      C26           -28.4235780609      -17.0431018754      -10.5476424984  MEMB      52              0.0000000000
     45408      1312  PPPE      H6R           -28.5562506606      -18.0107122827      -11.0757904933  MEMB      52              0.0000000000
     45409      1312  PPPE      H6S           -29.3907670641      -16.4908180688      -10.4878486768  MEMB      52              0.0000000000
     45410      1312  PPPE      C27           -27.9586732812      -17.4225192735       -9.1428057071  MEMB      52              0.0000000000
     45411      1312  PPPE      H7R           -26.9676004854      -17.9221503325       -9.2090050044  MEMB      52              0.0000000000
     45412      1312  PPPE      H7S           -28.7218038049      -18.1560865387       -8.7871872162  MEMB      52              0.0000000000
     45413      1312  PPPE      C28           -27.8650504210      -16.2138580070       -8.2049372381  MEMB      52              0.0000000000
     45414      1312  PPPE      H8R           -28.8750015730      -15.7422306102       -8.2165868472  MEMB      52              0.0000000000
     45415      1312  PPPE      H8S           -27.1351441571      -15.5066431120       -8.6621478378  MEMB      52              0.0000000000
     45416      1312  PPPE      C29           -27.4379674335      -16.6025671023       -6.8077199756  MEMB      52              0.0000000000
     45417      1312  PPPE      H91           -26.9010521219      -17.5635954441       -6.7451442571  MEMB      52              0.0000000000
     45418      1312  PPPE      C210          -27.5315440403      -15.8504507601       -5.6894737081  MEMB      52              0.0000000000
     45419      1312  PPPE      H101          -27.1348600957      -16.2568368011       -4.7497769128  MEMB      52              0.0000000000
     45420      1312  PPPE      C211          -28.0732727911      -14.4475419321       -5.5562870462  MEMB      52              0.0000000000
     45421      1312  PPPE      H11R          -27.9123518104      -13.9102418338       -6.5180890262  MEMB      52              0.0000000000
     45422      1312  PPPE      H11S          -27.4806138111      -13.8726299715       -4.8100985187  MEMB      52              0.0000000000
     45423      1312  PPPE      C212          -29.5629798215      -14.3100030930       -5.1639073910  MEMB      52              0.0000000000
     45424      1312  PPPE      H12R          -30.1654238455      -14.8722205264       -5.9141951786  MEMB      52              0.0000000000
     45425      1312  PPPE      H12S          -29.8392243992      -13.2395080045       -5.2796064937  MEMB      52              0.0000000000
     45426      1312  PPPE      C213          -29.9908891632      -14.7313402752       -3.7326784875  MEMB      52              0.0000000000
     45427      1312  PPPE      H13R          -29.7818317818      -15.7981012365       -3.5110554525  MEMB      52              0.0000000000
     45428      1312  PPPE      H13S          -31.1020040186      -14.6521601003       -3.7255547572  MEMB      52              0.0000000000
     45429      1312  PPPE      C214          -29.5770490370      -13.8389085122       -2.5456408811  MEMB      52              0.0000000000
     45430      1312  PPPE      H14R          -30.3685979475      -13.0573060137       -2.4545293754  MEMB      52              0.0000000000
     45431      1312  PPPE      H14S          -28.6053725082      -13.3217189123       -2.6967500941  MEMB      52              0.0000000000
     45432      1312  PPPE      C215          -29.5388051600      -14.6304380355       -1.2258536965  MEMB      52              0.0000000000
     45433      1312  PPPE      H15R          -29.1116084678      -15.6414217263       -1.4120065000  MEMB      52              0.0000000000
     45434      1312  PPPE      H15S          -30.5880143442      -14.7800883720       -0.8839422696  MEMB      52              0.0000000000
     45435      1312  PPPE      C216          -28.6786662132      -13.9747499638       -0.1449040368  MEMB      52              0.0000000000
     45436      1312  PPPE      H16R          -27.6479436088      -13.8537702268       -0.5323424413  MEMB      52              0.0000000000
     45437      1312  PPPE      H16S          -29.0405180440      -12.9581066738        0.0955269197  MEMB      52              0.0000000000
     45438      1312  PPPE      H16T          -28.6271547725      -14.6019249191        0.7758170746  MEMB      52              0.0000000000
     45439      1312  PPPE      C33           -32.0281341749      -13.8047352998      -13.5743745256  MEMB      52              0.0000000000
     45440      1312  PPPE      H3X           -32.4894587839      -13.1522163167      -12.7980450667  MEMB      52              0.0000000000
     45441      1312  PPPE      H3Y           -30.9844619982      -13.7342702373      -13.2526886683  MEMB      52              0.0000000000
     45442      1312  PPPE      C34           -32.4730690922      -15.2870182780      -13.5976111716  MEMB      52              0.0000000000
     45443      1312  PPPE      H4X           -31.9700724421      -15.8623812780      -14.3785281907  MEMB      52              0.0000000000
     45444      1312  PPPE      H4Y           -33.4570275986      -15.4605010002      -14.0470916503  MEMB      52              0.0000000000
     45445      1312  PPPE      C35           -32.4781652093      -15.9869632667      -12.2258283838  MEMB      52              0.0000000000
     45446      1312  PPPE      H5X           -33.1800093788      -15.5952008353      -11.4539761692  MEMB      52              0.0000000000
     45447      1312  PPPE      H5Y           -31.5065761619      -15.7805624213      -11.7519880584  MEMB      52              0.0000000000
     45448      1312  PPPE      C36           -32.8763663035      -17.4577603399      -12.4055562070  MEMB      52              0.0000000000
     45449      1312  PPPE      H6X           -32.4707857037      -17.8407094895      -13.3649735833  MEMB      52              0.0000000000
     45450      1312  PPPE      H6Y           -33.9852825649      -17.5316474977      -12.5277305747  MEMB      52              0.0000000000
     45451      1312  PPPE      C37           -32.3421355400      -18.3340323710      -11.2686793386  MEMB      52              0.0000000000
     45452      1312  PPPE      H7X           -31.2680071086      -18.0927656066      -11.0936736795  MEMB      52              0.0000000000
     45453      1312  PPPE      H7Y           -32.3526687654      -19.3972692196      -11.5818691407  MEMB      52              0.0000000000
     45454      1312  PPPE      C38           -33.1550626173      -18.1552748057       -9.9773814424  MEMB      52              0.0000000000
     45455      1312  PPPE      H8X           -33.7258789592      -19.0758247275       -9.7297138316  MEMB      52              0.0000000000
     45456      1312  PPPE      H8Y           -33.8733872317      -17.3341189860      -10.1459511759  MEMB      52              0.0000000000
     45457      1312  PPPE      C39           -32.3114100513      -17.6507723653       -8.8113191561  MEMB      52              0.0000000000
     45458      1312  PPPE      H9X           -31.8374754665      -16.6948213583       -9.1386989595  MEMB      52              0.0000000000
     45459      1312  PPPE      H9Y           -31.5232264692      -18.4133540400       -8.6399599017  MEMB      52              0.0000000000
     45460      1312  PPPE      C310          -33.0672235144      -17.4048467327       -7.4920898370  MEMB      52              0.0000000000
     45461      1312  PPPE      H10X          -33.3872793373      -18.3877541912       -7.0887844884  MEMB      52              0.0000000000
     45462      1312  PPPE      H10Y          -33.9751792327      -16.8027437985       -7.6273767820  MEMB      52              0.0000000000
     45463      1312  PPPE      C311          -32.1801957686      -16.6761861866       -6.4752859923  MEMB      52              0.0000000000
     45464      1312  PPPE      H11X          -32.1657594036      -15.5768257588       -6.6510087981  MEMB      52              0.0000000000
     45465      1312  PPPE      H11Y          -31.1485515843      -17.0335620573       -6.6805967566  MEMB      52              0.0000000000
     45466      1312  PPPE      C312          -32.4844951856      -16.9740236630       -4.9958760233  MEMB      52              0.0000000000
     45467      1312  PPPE      H12X          -31.5386377677      -16.7456997152       -4.4567571712  MEMB      52              0.0000000000
     45468      1312  PPPE      H12Y          -32.6805028590      -18.0572078564       -4.8518428648  MEMB      52              0.0000000000
     45469      1312  PPPE      C313          -33.6521481844      -16.1305905909       -4.4467486373  MEMB      52              0.0000000000
     45470      1312  PPPE      H13X          -34.6009773539      -16.5367353859       -4.8589396758  MEMB      52              0.0000000000
     45471      1312  PPPE      H13Y          -33.5343150011      -15.0947439715       -4.8430808592  MEMB      52              0.0000000000
     45472      1312  PPPE      C314          -33.7596321686      -16.0323500589       -2.9101291782  MEMB      52              0.0000000000
     45473      1312  PPPE      H14X          -32.7769738240      -15.7038821421       -2.5101828309  MEMB      52              0.0000000000
     45474      1312  PPPE      H14Y          -33.9623065484      -17.0203501981       -2.4446268789  MEMB      52              0.0000000000
     45475      1312  PPPE      C315          -34.8159839243      -15.0089991965       -2.4539836447  MEMB      52              0.0000000000
     45476      1312  PPPE      H15X          -35.7566205272      -15.4912260509       -2.1595731896  MEMB      52              0.0000000000
     45477      1312  PPPE      H15Y          -35.0500304990      -14.2916858757       -3.2712301374  MEMB      52              0.0000000000
     45478      1312  PPPE      C316          -34.4616181235      -14.2376306100       -1.2047285187  MEMB      52              0.0000000000
     45479      1312  PPPE      H16X          -33.6041965900      -13.5734769819       -1.4296793312  MEMB      52              0.0000000000
     45480      1312  PPPE      H16Y          -35.3451656766      -13.6325683130       -0.9020730309  MEMB      52              0.0000000000
     45481      1312  PPPE      H16Z          -34.2185290033      -14.9566394217       -0.3907180148  MEMB      52              0.0000000000
     45482      1313  PPPE      N              15.2009682331      -31.3497796095      -19.8361175481  MEMB      53              0.0000000000
     45483      1313  PPPE      HN1            14.4238614492      -31.9840513047      -20.1185027319  MEMB      53              0.0000000000
     45484      1313  PPPE      HN2            15.1492209177      -30.4950344349      -20.4237521192  MEMB      53              0.0000000000
     45485      1313  PPPE      HN3            16.1224400593      -31.8369929617      -19.9283917566  MEMB      53              0.0000000000
     45486      1313  PPPE      C12            15.0524148006      -30.9813281292      -18.3775361280  MEMB      53              0.0000000000
     45487      1313  PPPE      H12A           15.9974608641      -30.5088579700      -18.0621897282  MEMB      53              0.0000000000
     45488      1313  PPPE      H12B           14.8493149024      -31.9202901068      -17.8330558758  MEMB      53              0.0000000000
     45489      1313  PPPE      C11            13.8555939661      -30.1158877494      -18.0016060237  MEMB      53              0.0000000000
     45490      1313  PPPE      H11A           13.9524794663      -29.0500885732      -18.3209931310  MEMB      53              0.0000000000
     45491      1313  PPPE      H11B           13.7945602681      -30.0835620009      -16.8885851958  MEMB      53              0.0000000000
     45492      1313  PPPE      P              11.5931149762      -29.9526589600      -19.2149653945  MEMB      53              0.0000000000
     45493      1313  PPPE      O13            12.1066690756      -29.6332923776      -20.5741430755  MEMB      53              0.0000000000
     45494      1313  PPPE      O14            10.2927817628      -30.6098468190      -19.0480184462  MEMB      53              0.0000000000
     45495      1313  PPPE      O11            11.5892358203      -28.5900682332      -18.4115503938  MEMB      53              0.0000000000
     45496      1313  PPPE      O12            12.7093208769      -30.7851586615      -18.4954648821  MEMB      53              0.0000000000
     45497      1313  PPPE      C1             10.5417815232      -27.6647400943      -18.7324736253  MEMB      53              0.0000000000
     45498      1313  PPPE      HA              9.5571412689      -28.1784132172      -18.8888619996  MEMB      53              0.0000000000
     45499      1313  PPPE      HB             10.7901944144      -27.0891567874      -19.6488722638  MEMB      53              0.0000000000
     45500      1313  PPPE      C2             10.3425853380      -26.6340131317      -17.6025233189  MEMB      53              0.0000000000
     45501      1313  PPPE      HS              9.7410149485      -25.7906609845      -18.0178775068  MEMB      53              0.0000000000
     45502      1313  PPPE      O21            11.6200701467      -26.1402046547      -17.1248455922  MEMB      53              0.0000000000
     45503      1313  PPPE      C21            11.5514136177      -25.1641385565      -16.2198800155  MEMB      53              0.0000000000
     45504      1313  PPPE      O22            10.5763560301      -24.4876256952      -15.9728598775  MEMB      53              0.0000000000
     45505      1313  PPPE      C22            12.8679855829      -25.0378157422      -15.4600562685  MEMB      53              0.0000000000
     45506      1313  PPPE      H2R            12.6336733772      -25.0399504653      -14.3816051097  MEMB      53              0.0000000000
     45507      1313  PPPE      H2S            13.3382116971      -24.0748503329      -15.7413317552  MEMB      53              0.0000000000
     45508      1313  PPPE      C3              9.5101009091      -27.3376084874      -16.4762277655  MEMB      53              0.0000000000
     45509      1313  PPPE      HX              9.3300772262      -26.5521557258      -15.7266675442  MEMB      53              0.0000000000
     45510      1313  PPPE      HY              8.5063447305      -27.5725528752      -16.8818384860  MEMB      53              0.0000000000
     45511      1313  PPPE      O31            10.0284138419      -28.6119892713      -15.9820322811  MEMB      53              0.0000000000
     45512      1313  PPPE      C31            10.2308732493      -28.7130978317      -14.6753535328  MEMB      53              0.0000000000
     45513      1313  PPPE      O32            10.2655454841      -27.7912695414      -13.9047085256  MEMB      53              0.0000000000
     45514      1313  PPPE      C32            10.5554380214      -30.0694467682      -14.1152896849  MEMB      53              0.0000000000
     45515      1313  PPPE      H2X            11.4975135905      -30.2898389682      -14.6533296021  MEMB      53              0.0000000000
     45516      1313  PPPE      H2Y             9.7952869070      -30.8425752939      -14.3393433733  MEMB      53              0.0000000000
     45517      1313  PPPE      C23            13.9143480685      -26.1187425669      -15.7242171979  MEMB      53              0.0000000000
     45518      1313  PPPE      H3R            14.3055633929      -25.9078475875      -16.7501607141  MEMB      53              0.0000000000
     45519      1313  PPPE      H3S            13.4958582460      -27.1489350826      -15.7323004113  MEMB      53              0.0000000000
     45520      1313  PPPE      C24            15.0944895040      -26.0086342843      -14.7455185628  MEMB      53              0.0000000000
     45521      1313  PPPE      H4R            15.5382868450      -25.0044268190      -14.6267810615  MEMB      53              0.0000000000
     45522      1313  PPPE      H4S            15.8408327374      -26.5016571978      -15.3303415880  MEMB      53              0.0000000000
     45523      1313  PPPE      C25            15.0665226803      -26.7802341531      -13.4241338899  MEMB      53              0.0000000000
     45524      1313  PPPE      H5R            16.1265814652      -26.9020448356      -13.0859967341  MEMB      53              0.0000000000
     45525      1313  PPPE      H5S            14.6362161189      -27.8012748307      -13.5472974569  MEMB      53              0.0000000000
     45526      1313  PPPE      C26            14.3255501566      -26.0238974823      -12.3318450333  MEMB      53              0.0000000000
     45527      1313  PPPE      H6R            13.2628607707      -25.9788843049      -12.6533127144  MEMB      53              0.0000000000
     45528      1313  PPPE      H6S            14.7194776381      -24.9872904965      -12.2467710976  MEMB      53              0.0000000000
     45529      1313  PPPE      C27            14.4684334046      -26.7429680068      -10.9887525167  MEMB      53              0.0000000000
     45530      1313  PPPE      H7R            15.5305556889      -26.7335510443      -10.6630225184  MEMB      53              0.0000000000
     45531      1313  PPPE      H7S            14.2390375655      -27.8132057231      -11.2117540236  MEMB      53              0.0000000000
     45532      1313  PPPE      C28            13.4956666054      -26.2269817822       -9.8935127537  MEMB      53              0.0000000000
     45533      1313  PPPE      H8R            13.4632330184      -27.0000678657       -9.0952026756  MEMB      53              0.0000000000
     45534      1313  PPPE      H8S            12.4912321322      -26.2531375946      -10.3711862051  MEMB      53              0.0000000000
     45535      1313  PPPE      C29            13.7116571312      -24.8649309427       -9.2566562191  MEMB      53              0.0000000000
     45536      1313  PPPE      H91            14.3814068941      -24.1753065553       -9.7978192514  MEMB      53              0.0000000000
     45537      1313  PPPE      C210           13.0930959952      -24.3886967911       -8.1489384134  MEMB      53              0.0000000000
     45538      1313  PPPE      H101           13.3580875753      -23.3651918399       -7.8363171860  MEMB      53              0.0000000000
     45539      1313  PPPE      C211           12.0424428704      -25.0820141935       -7.2836864635  MEMB      53              0.0000000000
     45540      1313  PPPE      H11R           11.6243854862      -25.9457262705       -7.8374061129  MEMB      53              0.0000000000
     45541      1313  PPPE      H11S           11.1968528807      -24.3825448716       -7.0791971060  MEMB      53              0.0000000000
     45542      1313  PPPE      C212           12.3809892488      -25.6884246714       -5.8985627115  MEMB      53              0.0000000000
     45543      1313  PPPE      H12R           12.6812270921      -26.7404774338       -6.0432798853  MEMB      53              0.0000000000
     45544      1313  PPPE      H12S           11.4959811455      -25.6117117467       -5.2186997787  MEMB      53              0.0000000000
     45545      1313  PPPE      C213           13.4778220188      -24.9523303605       -5.1946963350  MEMB      53              0.0000000000
     45546      1313  PPPE      H13R           13.1459737912      -23.9597999348       -5.4845737555  MEMB      53              0.0000000000
     45547      1313  PPPE      H13S           14.4390780344      -25.0697626837       -5.7274997388  MEMB      53              0.0000000000
     45548      1313  PPPE      C214           13.6085361276      -25.2692954385       -3.6895062277  MEMB      53              0.0000000000
     45549      1313  PPPE      H14R           14.6177691264      -24.9176945755       -3.3839808769  MEMB      53              0.0000000000
     45550      1313  PPPE      H14S           13.5378698872      -26.3601663269       -3.5328573034  MEMB      53              0.0000000000
     45551      1313  PPPE      C215           12.6907025369      -24.5762062722       -2.6800389045  MEMB      53              0.0000000000
     45552      1313  PPPE      H15R           11.6609793001      -24.4018748126       -3.0453572946  MEMB      53              0.0000000000
     45553      1313  PPPE      H15S           13.2170116298      -23.6318997656       -2.5712998143  MEMB      53              0.0000000000
     45554      1313  PPPE      C216           12.6881769316      -25.1080849680       -1.2538910712  MEMB      53              0.0000000000
     45555      1313  PPPE      H16R           12.4997148275      -26.1957145600       -1.2772940622  MEMB      53              0.0000000000
     45556      1313  PPPE      H16S           13.6649033004      -24.9218763771       -0.7748207592  MEMB      53              0.0000000000
     45557      1313  PPPE      H16T           11.9212017271      -24.5763382641       -0.6478030513  MEMB      53              0.0000000000
     45558      1313  PPPE      C33            10.8086948316      -29.8192240550      -12.5763847174  MEMB      53              0.0000000000
     45559      1313  PPPE      H3X            10.1195757651      -29.0882043898      -12.0717085554  MEMB      53              0.0000000000
     45560      1313  PPPE      H3Y            11.8299188518      -29.3872988876      -12.5040219756  MEMB      53              0.0000000000
     45561      1313  PPPE      C34            10.6715771484      -31.0530442091      -11.6836119372  MEMB      53              0.0000000000
     45562      1313  PPPE      H4X            11.0718105430      -31.8973637701      -12.2766555469  MEMB      53              0.0000000000
     45563      1313  PPPE      H4Y             9.5841845269      -31.2268379697      -11.5169497972  MEMB      53              0.0000000000
     45564      1313  PPPE      C35            11.3419390680      -31.0075789301      -10.2875861097  MEMB      53              0.0000000000
     45565      1313  PPPE      H5X            12.4161598784      -31.1828216478      -10.3507016287  MEMB      53              0.0000000000
     45566      1313  PPPE      H5Y            10.9519320081      -31.8396481051       -9.6570354092  MEMB      53              0.0000000000
     45567      1313  PPPE      C36            11.1468145011      -29.7640226575       -9.4272539444  MEMB      53              0.0000000000
     45568      1313  PPPE      H6X            11.5453484655      -28.8312774705       -9.8883319237  MEMB      53              0.0000000000
     45569      1313  PPPE      H6Y            11.7013201229      -29.9509422079       -8.4773437995  MEMB      53              0.0000000000
     45570      1313  PPPE      C37             9.6917303305      -29.6626721570       -9.0503229165  MEMB      53              0.0000000000
     45571      1313  PPPE      H7X             9.3128085952      -30.6083212075       -8.6006686333  MEMB      53              0.0000000000
     45572      1313  PPPE      H7Y             9.0609658314      -29.3638969868       -9.9168302403  MEMB      53              0.0000000000
     45573      1313  PPPE      C38             9.4046186686      -28.6089299263       -8.0511125787  MEMB      53              0.0000000000
     45574      1313  PPPE      H8X             8.2956947843      -28.7350477508       -8.0464891320  MEMB      53              0.0000000000
     45575      1313  PPPE      H8Y             9.6776813016      -27.6372361847       -8.5199798860  MEMB      53              0.0000000000
     45576      1313  PPPE      C39            10.0845289258      -28.7874744485       -6.6876853013  MEMB      53              0.0000000000
     45577      1313  PPPE      H9X            11.1379916741      -28.4772842364       -6.7677447422  MEMB      53              0.0000000000
     45578      1313  PPPE      H9Y             9.7739744518      -29.7832402078       -6.2992011196  MEMB      53              0.0000000000
     45579      1313  PPPE      C310            9.6837726576      -27.8659720428       -5.6055541289  MEMB      53              0.0000000000
     45580      1313  PPPE      H10X            8.6042288916      -28.2386368707       -5.5063274889  MEMB      53              0.0000000000
     45581      1313  PPPE      H10Y            9.9228459050      -26.8151763697       -5.8855223095  MEMB      53              0.0000000000
     45582      1313  PPPE      C311           10.2042304198      -27.6846132363       -4.2374846425  MEMB      53              0.0000000000
     45583      1313  PPPE      H11X            9.5538990418      -26.9569307330       -3.6715556712  MEMB      53              0.0000000000
     45584      1313  PPPE      H11Y           11.1844008132      -27.2596670430       -4.0894161714  MEMB      53              0.0000000000
     45585      1313  PPPE      C312           10.2941860543      -29.0448492179       -3.7748309043  MEMB      53              0.0000000000
     45586      1313  PPPE      H12X            9.8788706001      -29.9365253753       -4.2842591037  MEMB      53              0.0000000000
     45587      1313  PPPE      H12Y            9.2624387285      -29.2172970583       -3.9905993710  MEMB      53              0.0000000000
     45588      1313  PPPE      C313           10.7569503549      -28.9484346723       -2.3023247188  MEMB      53              0.0000000000
     45589      1313  PPPE      H13X           10.2179323759      -29.4116166961       -1.4492716323  MEMB      53              0.0000000000
     45590      1313  PPPE      H13Y           10.8279562404      -27.9271780548       -1.8569293587  MEMB      53              0.0000000000
     45591      1313  PPPE      C314           11.8750162286      -29.7768755353       -2.4553164277  MEMB      53              0.0000000000
     45592      1313  PPPE      H14X           12.4509948060      -29.0892001242       -3.0916766261  MEMB      53              0.0000000000
     45593      1313  PPPE      H14Y           11.4698166175      -30.7024886032       -2.9780765583  MEMB      53              0.0000000000
     45594      1313  PPPE      C315           12.3183272721      -30.0709012876       -1.0994876676  MEMB      53              0.0000000000
     45595      1313  PPPE      H15X           11.4391104580      -30.6786339078       -0.8360208773  MEMB      53              0.0000000000
     45596      1313  PPPE      H15Y           12.2854398702      -29.2354625168       -0.3688606068  MEMB      53              0.0000000000
     45597      1313  PPPE      C316           13.6701504162      -30.7013000545       -1.2321971703  MEMB      53              0.0000000000
     45598      1313  PPPE      H16X           14.3540824105      -29.8680395526       -1.5149263880  MEMB      53              0.0000000000
     45599      1313  PPPE      H16Y           13.9738951993      -31.1778515023       -0.2872725069  MEMB      53              0.0000000000
     45600      1313  PPPE      H16Z           13.7070825809      -31.4620448563       -2.0442961993  MEMB      53              0.0000000000
     45601      1314  PPPE      N              29.8818870692      -16.6095069714      -21.5288365715  MEMB      54              0.0000000000
     45602      1314  PPPE      HN1            30.7226834563      -15.9952226417      -21.6448348613  MEMB      54              0.0000000000
     45603      1314  PPPE      HN2            29.9810662664      -17.5151528478      -22.0277858674  MEMB      54              0.0000000000
     45604      1314  PPPE      HN3            29.0312514285      -16.0887470074      -21.8475613895  MEMB      54              0.0000000000
     45605      1314  PPPE      C12            29.7544034739      -16.8575074232      -20.0638138823  MEMB      54              0.0000000000
     45606      1314  PPPE      H12A           30.7707508899      -16.9593205074      -19.6202018279  MEMB      54              0.0000000000
     45607      1314  PPPE      H12B           29.2061508441      -17.8138534129      -19.9516323649  MEMB      54              0.0000000000
     45608      1314  PPPE      C11            29.0601590095      -15.6611379971      -19.4281643981  MEMB      54              0.0000000000
     45609      1314  PPPE      H11A           28.5516647612      -16.0275255923      -18.5071022214  MEMB      54              0.0000000000
     45610      1314  PPPE      H11B           28.3068239499      -15.1890456375      -20.0967864483  MEMB      54              0.0000000000
     45611      1314  PPPE      P              29.6450842389      -13.4311459322      -18.2362211403  MEMB      54              0.0000000000
     45612      1314  PPPE      O13            30.8629015353      -12.8612633048      -17.6306161380  MEMB      54              0.0000000000
     45613      1314  PPPE      O14            28.7830356915      -12.5422228527      -19.0741608401  MEMB      54              0.0000000000
     45614      1314  PPPE      O11            28.7457095865      -14.1183319094      -17.1302938103  MEMB      54              0.0000000000
     45615      1314  PPPE      O12            30.0489260640      -14.7009474065      -19.1132162800  MEMB      54              0.0000000000
     45616      1314  PPPE      C1             27.3314359968      -13.9456000148      -17.1381819894  MEMB      54              0.0000000000
     45617      1314  PPPE      HA             26.8915768841      -14.7710352218      -16.5386939842  MEMB      54              0.0000000000
     45618      1314  PPPE      HB             26.9063130229      -14.0151767551      -18.1607480741  MEMB      54              0.0000000000
     45619      1314  PPPE      C2             26.9342500270      -12.6434954125      -16.4258387815  MEMB      54              0.0000000000
     45620      1314  PPPE      HS             27.2126012822      -11.7826722458      -17.0878072871  MEMB      54              0.0000000000
     45621      1314  PPPE      O21            27.6974927956      -12.6468278150      -15.2138202177  MEMB      54              0.0000000000
     45622      1314  PPPE      C21            27.7707502142      -11.4901057060      -14.6513753219  MEMB      54              0.0000000000
     45623      1314  PPPE      O22            27.3132741816      -10.4474150260      -15.1196847645  MEMB      54              0.0000000000
     45624      1314  PPPE      C22            28.4610926596      -11.6700123148      -13.2602374104  MEMB      54              0.0000000000
     45625      1314  PPPE      H2R            27.9312658676      -11.1781496827      -12.4620688675  MEMB      54              0.0000000000
     45626      1314  PPPE      H2S            29.4012833955      -11.1215027647      -13.2992723172  MEMB      54              0.0000000000
     45627      1314  PPPE      C3             25.4077120251      -12.6219521607      -16.1166165555  MEMB      54              0.0000000000
     45628      1314  PPPE      HX             25.1345508879      -11.6406738965      -15.6450736615  MEMB      54              0.0000000000
     45629      1314  PPPE      HY             24.8676075562      -12.6437401186      -17.0815284756  MEMB      54              0.0000000000
     45630      1314  PPPE      O31            24.9954846853      -13.8117380210      -15.3719887744  MEMB      54              0.0000000000
     45631      1314  PPPE      C31            25.0386157847      -13.6085701725      -14.0438217193  MEMB      54              0.0000000000
     45632      1314  PPPE      O32            25.3656360474      -12.5878568214      -13.5036163240  MEMB      54              0.0000000000
     45633      1314  PPPE      C32            24.8806670047      -14.8280025039      -13.1880582119  MEMB      54              0.0000000000
     45634      1314  PPPE      H2X            25.8323398409      -15.3044199755      -13.4908517704  MEMB      54              0.0000000000
     45635      1314  PPPE      H2Y            24.0098334262      -15.4564591439      -13.4241437004  MEMB      54              0.0000000000
     45636      1314  PPPE      C23            28.5669411143      -13.0791645878      -12.6233588390  MEMB      54              0.0000000000
     45637      1314  PPPE      H3R            29.1835942567      -13.6900448685      -13.3039561314  MEMB      54              0.0000000000
     45638      1314  PPPE      H3S            27.5528047476      -13.5419781069      -12.5673772425  MEMB      54              0.0000000000
     45639      1314  PPPE      C24            29.2833894742      -12.9862271377      -11.2494444090  MEMB      54              0.0000000000
     45640      1314  PPPE      H4R            28.8158370314      -12.3191300602      -10.5101822199  MEMB      54              0.0000000000
     45641      1314  PPPE      H4S            30.2813893372      -12.5579235606      -11.3974604742  MEMB      54              0.0000000000
     45642      1314  PPPE      C25            29.4383856512      -14.2762741935      -10.4748722151  MEMB      54              0.0000000000
     45643      1314  PPPE      H5R            30.0276608772      -15.0082331930      -11.0562570715  MEMB      54              0.0000000000
     45644      1314  PPPE      H5S            28.3931816591      -14.5945937808      -10.4687294460  MEMB      54              0.0000000000
     45645      1314  PPPE      C26            29.9286769748      -14.0202683438       -9.0267529050  MEMB      54              0.0000000000
     45646      1314  PPPE      H6R            29.0769118492      -13.6768384500       -8.4165572673  MEMB      54              0.0000000000
     45647      1314  PPPE      H6S            30.7188962987      -13.2746485534       -8.9154703016  MEMB      54              0.0000000000
     45648      1314  PPPE      C27            30.4817706189      -15.1588677870       -8.2422998913  MEMB      54              0.0000000000
     45649      1314  PPPE      H7R            30.9148867729      -14.8183646595       -7.2650748471  MEMB      54              0.0000000000
     45650      1314  PPPE      H7S            31.1986718545      -15.8198370755       -8.8195619188  MEMB      54              0.0000000000
     45651      1314  PPPE      C28            29.2830376995      -15.8681255181       -7.9505272412  MEMB      54              0.0000000000
     45652      1314  PPPE      H8R            29.1452830418      -16.3188009436       -8.9496951860  MEMB      54              0.0000000000
     45653      1314  PPPE      H8S            28.2831185989      -15.5235532318       -7.6042237143  MEMB      54              0.0000000000
     45654      1314  PPPE      C29            29.8771279581      -16.8664829910       -7.1255622485  MEMB      54              0.0000000000
     45655      1314  PPPE      H91            30.4278550249      -17.5418426301       -7.7561421977  MEMB      54              0.0000000000
     45656      1314  PPPE      C210           29.5351960078      -17.1906797004       -5.9439622341  MEMB      54              0.0000000000
     45657      1314  PPPE      H101           29.8138409260      -18.2048054890       -5.6730174769  MEMB      54              0.0000000000
     45658      1314  PPPE      C211           28.4418938030      -16.5372062636       -5.2159201250  MEMB      54              0.0000000000
     45659      1314  PPPE      H11R           27.3577621605      -16.7778682368       -5.4450668926  MEMB      54              0.0000000000
     45660      1314  PPPE      H11S           28.7360395718      -15.5028015361       -5.0683698896  MEMB      54              0.0000000000
     45661      1314  PPPE      C212           28.7952501291      -16.9712652220       -3.8662871195  MEMB      54              0.0000000000
     45662      1314  PPPE      H12R           29.7903113249      -17.3763433535       -3.6369515173  MEMB      54              0.0000000000
     45663      1314  PPPE      H12S           28.4475874269      -17.9992629291       -4.0151313633  MEMB      54              0.0000000000
     45664      1314  PPPE      C213           28.1804577858      -16.0883455734       -2.6714893591  MEMB      54              0.0000000000
     45665      1314  PPPE      H13R           27.0412144484      -16.2149594998       -2.7619437376  MEMB      54              0.0000000000
     45666      1314  PPPE      H13S           28.3519884681      -15.0662222463       -2.9626642650  MEMB      54              0.0000000000
     45667      1314  PPPE      C214           28.8453145025      -16.2085375463       -1.1553515219  MEMB      54              0.0000000000
     45668      1314  PPPE      H14R           29.9012796187      -16.3557214156       -1.0379969635  MEMB      54              0.0000000000
     45669      1314  PPPE      H14S           29.1538185979      -17.2032223551       -0.7304517656  MEMB      54              0.0000000000
     45670      1314  PPPE      C215           27.9413500841      -15.6852372374       -0.0281800849  MEMB      54              0.0000000000
     45671      1314  PPPE      H15R           27.8700164435      -16.1556711486        1.0079058023  MEMB      54              0.0000000000
     45672      1314  PPPE      H15S           26.9482748553      -15.7950345323       -0.4889952336  MEMB      54              0.0000000000
     45673      1314  PPPE      C216           27.9059889759      -14.2706926497       -0.0201427969  MEMB      54              0.0000000000
     45674      1314  PPPE      H16R           27.3785475817      -13.8846395377        0.8728716688  MEMB      54              0.0000000000
     45675      1314  PPPE      H16S           28.9989757991      -14.1979128179       -0.0095224210  MEMB      54              0.0000000000
     45676      1314  PPPE      H16T           27.4480245348      -13.9751802282       -0.9979688731  MEMB      54              0.0000000000
     45677      1314  PPPE      C33            24.8395521012      -14.3132003564      -11.7101380486  MEMB      54              0.0000000000
     45678      1314  PPPE      H3X            23.9943717279      -13.5973865095      -11.5906862393  MEMB      54              0.0000000000
     45679      1314  PPPE      H3Y            25.8003815490      -13.7971577408      -11.4723709961  MEMB      54              0.0000000000
     45680      1314  PPPE      C34            24.5679056612      -15.2971651988      -10.5739720454  MEMB      54              0.0000000000
     45681      1314  PPPE      H4X            25.0498639775      -16.1909620569      -10.8441374163  MEMB      54              0.0000000000
     45682      1314  PPPE      H4Y            23.5122083790      -15.6048143404      -10.5459094522  MEMB      54              0.0000000000
     45683      1314  PPPE      C35            25.1453166968      -14.8941584066       -9.2019484823  MEMB      54              0.0000000000
     45684      1314  PPPE      H5X            26.2525422980      -14.7572749026       -9.2752578991  MEMB      54              0.0000000000
     45685      1314  PPPE      H5Y            24.9673985160      -15.6971757714       -8.4547009472  MEMB      54              0.0000000000
     45686      1314  PPPE      C36            24.5015627566      -13.6217717848       -8.7773747365  MEMB      54              0.0000000000
     45687      1314  PPPE      H6X            23.4315406210      -13.6088528941       -9.0608029215  MEMB      54              0.0000000000
     45688      1314  PPPE      H6Y            24.8232242654      -12.8511640774       -9.4953122980  MEMB      54              0.0000000000
     45689      1314  PPPE      C37            24.5983374137      -13.1949212238       -7.3046748627  MEMB      54              0.0000000000
     45690      1314  PPPE      H7X            23.7869000474      -13.6903201462       -6.7202198675  MEMB      54              0.0000000000
     45691      1314  PPPE      H7Y            24.2737621492      -12.1629378112       -7.5490966317  MEMB      54              0.0000000000
     45692      1314  PPPE      C38            25.8735153968      -13.1871194283       -6.3701718250  MEMB      54              0.0000000000
     45693      1314  PPPE      H8X            26.1658417533      -14.2059272475       -6.1099709440  MEMB      54              0.0000000000
     45694      1314  PPPE      H8Y            25.6141134214      -12.6564271115       -5.4383459861  MEMB      54              0.0000000000
     45695      1314  PPPE      C39            27.2175781149      -12.6019809776       -6.7998670952  MEMB      54              0.0000000000
     45696      1314  PPPE      H9X            27.3336547958      -11.5418197651       -6.8907559373  MEMB      54              0.0000000000
     45697      1314  PPPE      H9Y            27.3872854778      -13.0469833333       -7.7899540369  MEMB      54              0.0000000000
     45698      1314  PPPE      C310           28.4294535664      -12.5832640077       -5.9030675442  MEMB      54              0.0000000000
     45699      1314  PPPE      H10X           29.2979491856      -12.4743409324       -6.5951474930  MEMB      54              0.0000000000
     45700      1314  PPPE      H10Y           28.3234861280      -13.5724413211       -5.4560150077  MEMB      54              0.0000000000
     45701      1314  PPPE      C311           28.5548015907      -11.4537640820       -4.8524994379  MEMB      54              0.0000000000
     45702      1314  PPPE      H11X           27.7205690750      -11.6358107898       -4.1341415065  MEMB      54              0.0000000000
     45703      1314  PPPE      H11Y           28.4764305813      -10.4137642129       -5.2254244932  MEMB      54              0.0000000000
     45704      1314  PPPE      C312           29.9087058803      -11.4645985437       -4.1369921595  MEMB      54              0.0000000000
     45705      1314  PPPE      H12X           29.9214394436      -10.6352987795       -3.4040902216  MEMB      54              0.0000000000
     45706      1314  PPPE      H12Y           30.7695563603      -11.2478117049       -4.8095362683  MEMB      54              0.0000000000
     45707      1314  PPPE      C313           30.0219928769      -12.8001610711       -3.4163410470  MEMB      54              0.0000000000
     45708      1314  PPPE      H13X           30.5378439753      -13.5459168222       -4.0542770698  MEMB      54              0.0000000000
     45709      1314  PPPE      H13Y           28.9686381093      -13.1347997482       -3.2540645035  MEMB      54              0.0000000000
     45710      1314  PPPE      C314           30.6691804209      -12.7274053004       -2.0492990027  MEMB      54              0.0000000000
     45711      1314  PPPE      H14X           31.7086602897      -12.3519131882       -2.1036465621  MEMB      54              0.0000000000
     45712      1314  PPPE      H14Y           30.6523358693      -13.7302680437       -1.5505517741  MEMB      54              0.0000000000
     45713      1314  PPPE      C315           29.9498374450      -11.7931407361       -1.1276070911  MEMB      54              0.0000000000
     45714      1314  PPPE      H15X           28.9794863300      -12.2911436746       -0.8803092830  MEMB      54              0.0000000000
     45715      1314  PPPE      H15Y           29.7034152478      -10.7827965515       -1.4793106184  MEMB      54              0.0000000000
     45716      1314  PPPE      C316           30.7866937740      -11.5565293765        0.0787381558  MEMB      54              0.0000000000
     45717      1314  PPPE      H16X           29.9397490508      -11.1474299188        0.6895856937  MEMB      54              0.0000000000
     45718      1314  PPPE      H16Y           31.2531037008      -12.5233640827        0.4336395785  MEMB      54              0.0000000000
     45719      1314  PPPE      H16Z           31.5529356981      -10.8214283252        0.2736542584  MEMB      54              0.0000000000
     45720      1315  PPPE      N              35.2125637919        0.6899482544      -18.0827849369  MEMB      55              0.0000000000
     45721      1315  PPPE      HN1            36.0814877339        1.2188429437      -17.7689290212  MEMB      55              0.0000000000
     45722      1315  PPPE      HN2            34.6622742561        1.5650860425      -17.9071453942  MEMB      55              0.0000000000
     45723      1315  PPPE      HN3            34.9481709777        0.1623175855      -17.2678474181  MEMB      55              0.0000000000
     45724      1315  PPPE      C12            34.9383975130        0.0004287119      -19.5006479533  MEMB      55              0.0000000000
     45725      1315  PPPE      H12A           36.0111644401       -0.1844091827      -19.4001879044  MEMB      55              0.0000000000
     45726      1315  PPPE      H12B           34.8393393469       -1.0925680026      -20.0330930044  MEMB      55              0.0000000000
     45727      1315  PPPE      C11            33.9083440452        1.1552699276      -19.9629308255  MEMB      55              0.0000000000
     45728      1315  PPPE      H11A           33.0048914840        0.6200557678      -19.5971458562  MEMB      55              0.0000000000
     45729      1315  PPPE      H11B           34.0443499180        1.3980551549      -21.0113487423  MEMB      55              0.0000000000
     45730      1315  PPPE      P              32.1637659906        3.1583756544      -19.0954830382  MEMB      55              0.0000000000
     45731      1315  PPPE      O13            31.1189350722        3.2697181676      -20.1457665588  MEMB      55              0.0000000000
     45732      1315  PPPE      O14            31.8155152462        2.2309646399      -18.0121360242  MEMB      55              0.0000000000
     45733      1315  PPPE      O11            32.3311706837        4.6025905473      -18.4419307366  MEMB      55              0.0000000000
     45734      1315  PPPE      O12            33.6908266562        2.5370692016      -19.5008910978  MEMB      55              0.0000000000
     45735      1315  PPPE      C1             33.5905935949        5.2439679837      -18.2740084274  MEMB      55              0.0000000000
     45736      1315  PPPE      HA             33.5854280904        6.2035228007      -18.8539048183  MEMB      55              0.0000000000
     45737      1315  PPPE      HB             34.4243683930        4.6377298240      -18.6246204097  MEMB      55              0.0000000000
     45738      1315  PPPE      C2             33.8898568401        5.6192263937      -16.8063822615  MEMB      55              0.0000000000
     45739      1315  PPPE      HS             34.8110069864        6.2449796682      -16.6989765402  MEMB      55              0.0000000000
     45740      1315  PPPE      O21            33.8291292415        4.5344761314      -15.8886178925  MEMB      55              0.0000000000
     45741      1315  PPPE      C21            34.2975367146        4.8236376079      -14.6890699753  MEMB      55              0.0000000000
     45742      1315  PPPE      O22            34.9525979968        5.7895526341      -14.3528747831  MEMB      55              0.0000000000
     45743      1315  PPPE      C22            34.1151239132        3.6159904732      -13.8396685572  MEMB      55              0.0000000000
     45744      1315  PPPE      H2R            35.0512327134        3.0422282155      -14.0173685071  MEMB      55              0.0000000000
     45745      1315  PPPE      H2S            33.2417823368        3.0441579336      -14.2155700137  MEMB      55              0.0000000000
     45746      1315  PPPE      C3             32.8440991496        6.5337595580      -16.4595654749  MEMB      55              0.0000000000
     45747      1315  PPPE      HX             32.7123611395        7.0439328869      -17.4676361701  MEMB      55              0.0000000000
     45748      1315  PPPE      HY             31.8999217783        5.9570742582      -16.2256710243  MEMB      55              0.0000000000
     45749      1315  PPPE      O31            33.3821707166        7.3853278609      -15.3899721587  MEMB      55              0.0000000000
     45750      1315  PPPE      C31            32.5243056375        8.2757954514      -15.3857029893  MEMB      55              0.0000000000
     45751      1315  PPPE      O32            31.7022458779        8.3173003554      -16.3131820079  MEMB      55              0.0000000000
     45752      1315  PPPE      C32            32.5047160500        8.8906888410      -13.9360213248  MEMB      55              0.0000000000
     45753      1315  PPPE      H2X            31.6197055085        9.4858315814      -13.6033514715  MEMB      55              0.0000000000
     45754      1315  PPPE      H2Y            32.7166738684        9.9343875572      -14.2672826971  MEMB      55              0.0000000000
     45755      1315  PPPE      C23            34.0474365998        3.9919893809      -12.3510256416  MEMB      55              0.0000000000
     45756      1315  PPPE      H3R            33.7609525233        5.0496942120      -12.1453604822  MEMB      55              0.0000000000
     45757      1315  PPPE      H3S            35.0819714875        3.8543032262      -11.9657262743  MEMB      55              0.0000000000
     45758      1315  PPPE      C24            33.1102770257        3.0962730271      -11.5524491910  MEMB      55              0.0000000000
     45759      1315  PPPE      H4R            33.2880578759        2.0418966926      -11.8593425711  MEMB      55              0.0000000000
     45760      1315  PPPE      H4S            32.0530749573        3.3593491001      -11.7922137659  MEMB      55              0.0000000000
     45761      1315  PPPE      C25            33.3935788309        3.2007456028      -10.0497681755  MEMB      55              0.0000000000
     45762      1315  PPPE      H5R            33.5339543152        4.2677204256       -9.7809067340  MEMB      55              0.0000000000
     45763      1315  PPPE      H5S            34.4010364526        2.7725882790       -9.8515879677  MEMB      55              0.0000000000
     45764      1315  PPPE      C26            32.3364610313        2.4364767620       -9.2068440196  MEMB      55              0.0000000000
     45765      1315  PPPE      H6R            32.7331910454        2.3088977842       -8.1742954088  MEMB      55              0.0000000000
     45766      1315  PPPE      H6S            32.2162350585        1.4235308893       -9.6414046298  MEMB      55              0.0000000000
     45767      1315  PPPE      C27            30.9447035896        3.0892540772       -9.0804171675  MEMB      55              0.0000000000
     45768      1315  PPPE      H7R            30.3263532299        2.5651794838       -8.3109806765  MEMB      55              0.0000000000
     45769      1315  PPPE      H7S            30.3693678244        3.0714818343      -10.0275870517  MEMB      55              0.0000000000
     45770      1315  PPPE      C28            31.1619352126        4.5149452801       -8.6544564591  MEMB      55              0.0000000000
     45771      1315  PPPE      H8R            31.8857202324        5.0265454100       -9.2693433010  MEMB      55              0.0000000000
     45772      1315  PPPE      H8S            31.5913584229        4.4330823432       -7.6407745532  MEMB      55              0.0000000000
     45773      1315  PPPE      C29            30.0917549423        5.4867102101       -8.8071409417  MEMB      55              0.0000000000
     45774      1315  PPPE      H91            29.4266120591        5.5493691027       -9.6786120496  MEMB      55              0.0000000000
     45775      1315  PPPE      C210           29.7422699139        6.0778610950       -7.7170560057  MEMB      55              0.0000000000
     45776      1315  PPPE      H101           28.9277488912        6.8373170487       -7.7505082358  MEMB      55              0.0000000000
     45777      1315  PPPE      C211           30.3257305714        5.8472903687       -6.3852413534  MEMB      55              0.0000000000
     45778      1315  PPPE      H11R           30.6607540927        6.7313157389       -6.7719491623  MEMB      55              0.0000000000
     45779      1315  PPPE      H11S           31.1439235124        5.1942847467       -6.1042413300  MEMB      55              0.0000000000
     45780      1315  PPPE      C212           29.7615415075        5.4488346149       -5.0753396378  MEMB      55              0.0000000000
     45781      1315  PPPE      H12R           29.4802878055        4.4750509727       -5.3485344699  MEMB      55              0.0000000000
     45782      1315  PPPE      H12S           28.9378319820        5.8176247127       -4.7234919733  MEMB      55              0.0000000000
     45783      1315  PPPE      C213           30.2132078637        5.1488654451       -3.7721171718  MEMB      55              0.0000000000
     45784      1315  PPPE      H13R           29.5722600301        5.4510241199       -2.9252249760  MEMB      55              0.0000000000
     45785      1315  PPPE      H13S           30.4683174332        6.0594933816       -3.5747099302  MEMB      55              0.0000000000
     45786      1315  PPPE      C214           30.1804756575        3.7723162582       -3.3792812504  MEMB      55              0.0000000000
     45787      1315  PPPE      H14R           31.1794854241        3.7762786455       -3.8062365188  MEMB      55              0.0000000000
     45788      1315  PPPE      H14S           29.4487296567        3.0140547895       -3.7147654997  MEMB      55              0.0000000000
     45789      1315  PPPE      C215           29.9794886029        3.8382855045       -2.0061364777  MEMB      55              0.0000000000
     45790      1315  PPPE      H15R           29.5840661514        2.8217907125       -1.7997192692  MEMB      55              0.0000000000
     45791      1315  PPPE      H15S           29.1651576339        4.2970471054       -1.4647557479  MEMB      55              0.0000000000
     45792      1315  PPPE      C216           31.2602412695        4.6199286203       -1.5890433736  MEMB      55              0.0000000000
     45793      1315  PPPE      H16R           31.5321048285        4.6473369517       -0.5367725227  MEMB      55              0.0000000000
     45794      1315  PPPE      H16S           32.2172604089        4.4440558934       -2.0421280154  MEMB      55              0.0000000000
     45795      1315  PPPE      H16T           31.0102541970        5.5481489567       -1.2297013727  MEMB      55              0.0000000000
     45796      1315  PPPE      C33            33.1047789053        7.8746760516      -12.6443765414  MEMB      55              0.0000000000
     45797      1315  PPPE      H3X            33.7347103414        7.0860033092      -12.9701176830  MEMB      55              0.0000000000
     45798      1315  PPPE      H3Y            32.4549721601        7.2915663523      -11.9757658313  MEMB      55              0.0000000000
     45799      1315  PPPE      C34            33.3991857260        8.1921173987      -11.1460019126  MEMB      55              0.0000000000
     45800      1315  PPPE      H4X            32.6118216390        8.6389308607      -10.5277584201  MEMB      55              0.0000000000
     45801      1315  PPPE      H4Y            34.2982624468        8.6818647233      -11.4111306677  MEMB      55              0.0000000000
     45802      1315  PPPE      C35            33.9194145832        7.3943847900       -9.9963821797  MEMB      55              0.0000000000
     45803      1315  PPPE      H5X            34.9628127609        7.2161588404      -10.3295520517  MEMB      55              0.0000000000
     45804      1315  PPPE      H5Y            33.3047303543        6.4829399685       -9.9553262772  MEMB      55              0.0000000000
     45805      1315  PPPE      C36            33.8050733092        8.2766037392       -8.7016675046  MEMB      55              0.0000000000
     45806      1315  PPPE      H6X            32.8144846633        8.7893077337       -8.5815629548  MEMB      55              0.0000000000
     45807      1315  PPPE      H6Y            34.5836075784        9.0722748871       -8.7173398810  MEMB      55              0.0000000000
     45808      1315  PPPE      C37            34.0146319371        7.4277633830       -7.4693432227  MEMB      55              0.0000000000
     45809      1315  PPPE      H7X            35.0394410749        7.0210247356       -7.6105942181  MEMB      55              0.0000000000
     45810      1315  PPPE      H7Y            33.2535700983        6.6082830677       -7.4945911798  MEMB      55              0.0000000000
     45811      1315  PPPE      C38            33.9094089356        8.1282483697       -6.1102136756  MEMB      55              0.0000000000
     45812      1315  PPPE      H8X            33.0321087934        8.7770183303       -6.0749777110  MEMB      55              0.0000000000
     45813      1315  PPPE      H8Y            34.7097120689        8.8579126693       -5.9124182200  MEMB      55              0.0000000000
     45814      1315  PPPE      C39            33.8361083804        7.0528890109       -5.0170161174  MEMB      55              0.0000000000
     45815      1315  PPPE      H9X            34.6492183314        6.3288790371       -5.1955333564  MEMB      55              0.0000000000
     45816      1315  PPPE      H9Y            32.9302170261        6.4423221467       -5.1961480518  MEMB      55              0.0000000000
     45817      1315  PPPE      C310           33.9792132991        7.5772737753       -3.5753218620  MEMB      55              0.0000000000
     45818      1315  PPPE      H10X           33.0745255761        8.0605698124       -3.1459872239  MEMB      55              0.0000000000
     45819      1315  PPPE      H10Y           34.7252617369        8.3871366110       -3.5535784357  MEMB      55              0.0000000000
     45820      1315  PPPE      C311           34.3726653192        6.4743664186       -2.5888920236  MEMB      55              0.0000000000
     45821      1315  PPPE      H11X           35.0428412131        5.6891760685       -2.9244518675  MEMB      55              0.0000000000
     45822      1315  PPPE      H11Y           33.4129924428        5.9060492556       -2.5367686669  MEMB      55              0.0000000000
     45823      1315  PPPE      C312           35.0058652774        7.0519911060       -1.2766172956  MEMB      55              0.0000000000
     45824      1315  PPPE      H12X           34.4153654351        7.9649276068       -1.1978385782  MEMB      55              0.0000000000
     45825      1315  PPPE      H12Y           35.8545357394        7.7268535961       -1.2700192462  MEMB      55              0.0000000000
     45826      1315  PPPE      C313           35.0627915931        6.0662626172       -0.0499570102  MEMB      55              0.0000000000
     45827      1315  PPPE      H13X           34.2074136970        5.3754978775        0.1081648163  MEMB      55              0.0000000000
     45828      1315  PPPE      H13Y           35.0646945963        6.5562269458        0.9468693443  MEMB      55              0.0000000000
     45829      1315  PPPE      C314           36.0265864920        4.9748327136       -0.3585772219  MEMB      55              0.0000000000
     45830      1315  PPPE      H14X           37.0090602353        5.4793740650       -0.4351193335  MEMB      55              0.0000000000
     45831      1315  PPPE      H14Y           35.7176145958        4.5220078945       -1.3232901207  MEMB      55              0.0000000000
     45832      1315  PPPE      C315           36.0257904784        3.8922267911        0.6923212455  MEMB      55              0.0000000000
     45833      1315  PPPE      H15X           36.6489474478        4.4000077995        1.4352454042  MEMB      55              0.0000000000
     45834      1315  PPPE      H15Y           36.5051859060        2.9438896909        0.5001856107  MEMB      55              0.0000000000
     45835      1315  PPPE      C316           34.7221115792        3.3018001398        1.1133955693  MEMB      55              0.0000000000
     45836      1315  PPPE      H16X           34.1389809181        2.9394169906        0.2433829817  MEMB      55              0.0000000000
     45837      1315  PPPE      H16Y           34.8484842996        2.4516975144        1.8084975024  MEMB      55              0.0000000000
     45838      1315  PPPE      H16Z           34.1837114607        4.1021895054        1.6541558459  MEMB      55              0.0000000000
     45839      1316  PPPE      N             -33.2286860763        7.2345633172      -21.4501368816  MEMB      56              0.0000000000
     45840      1316  PPPE      HN1           -33.2180630369        6.6039979593      -20.6203540864  MEMB      56              0.0000000000
     45841      1316  PPPE      HN2           -33.9120592892        6.8563891594      -22.1383109783  MEMB      56              0.0000000000
     45842      1316  PPPE      HN3           -32.2792578834        7.2402639143      -21.8613647887  MEMB      56              0.0000000000
     45843      1316  PPPE      C12           -33.5896822871        8.6206055508      -20.9632027099  MEMB      56              0.0000000000
     45844      1316  PPPE      H12A          -34.4838538736        8.5520242409      -20.3067175012  MEMB      56              0.0000000000
     45845      1316  PPPE      H12B          -33.8311062876        9.2213514809      -21.8522995839  MEMB      56              0.0000000000
     45846      1316  PPPE      C11           -32.3814230067        9.2940958763      -20.2934479598  MEMB      56              0.0000000000
     45847      1316  PPPE      H11A          -32.6235729359       10.3166740938      -19.9029904843  MEMB      56              0.0000000000
     45848      1316  PPPE      H11B          -31.6380711076        9.4556518657      -21.1036106674  MEMB      56              0.0000000000
     45849      1316  PPPE      P             -32.2920031014        8.5545626776      -17.7764593690  MEMB      56              0.0000000000
     45850      1316  PPPE      O13           -31.5513485978        9.6391647615      -17.1010262192  MEMB      56              0.0000000000
     45851      1316  PPPE      O14           -33.7667873308        8.5648900321      -17.8105464091  MEMB      56              0.0000000000
     45852      1316  PPPE      O11           -31.8005113778        7.1671114095      -17.2721637471  MEMB      56              0.0000000000
     45853      1316  PPPE      O12           -31.7971751996        8.4475510944      -19.3066182977  MEMB      56              0.0000000000
     45854      1316  PPPE      C1            -31.9912551395        5.9640959038      -18.0197800580  MEMB      56              0.0000000000
     45855      1316  PPPE      HA            -31.0893450338        5.7769712269      -18.6440582676  MEMB      56              0.0000000000
     45856      1316  PPPE      HB            -32.8511701323        6.0362008082      -18.7135296286  MEMB      56              0.0000000000
     45857      1316  PPPE      C2            -32.2004794083        4.7420206443      -17.0617992274  MEMB      56              0.0000000000
     45858      1316  PPPE      HS            -32.2788402639        3.8087201981      -17.6715148365  MEMB      56              0.0000000000
     45859      1316  PPPE      O21           -33.3782778943        4.8487424002      -16.2276194404  MEMB      56              0.0000000000
     45860      1316  PPPE      C21           -34.5410887504        4.9729293373      -16.8666863278  MEMB      56              0.0000000000
     45861      1316  PPPE      O22           -34.7091222188        4.9258212770      -18.0690346522  MEMB      56              0.0000000000
     45862      1316  PPPE      C22           -35.6897035064        5.2608367260      -15.8698994920  MEMB      56              0.0000000000
     45863      1316  PPPE      H2R           -35.9965380687        4.3113658432      -15.3904977299  MEMB      56              0.0000000000
     45864      1316  PPPE      H2S           -36.5569501177        5.6108327341      -16.4687542419  MEMB      56              0.0000000000
     45865      1316  PPPE      C3            -30.9311968775        4.5854480939      -16.1651383402  MEMB      56              0.0000000000
     45866      1316  PPPE      HX            -30.8911014804        3.5770688901      -15.7173044009  MEMB      56              0.0000000000
     45867      1316  PPPE      HY            -30.0775150343        4.5912638889      -16.8859403906  MEMB      56              0.0000000000
     45868      1316  PPPE      O31           -30.7614480891        5.6558040123      -15.1864399695  MEMB      56              0.0000000000
     45869      1316  PPPE      C31           -31.4502362168        5.5459977150      -14.0496541091  MEMB      56              0.0000000000
     45870      1316  PPPE      O32           -32.0471389900        4.5598844365      -13.6726131873  MEMB      56              0.0000000000
     45871      1316  PPPE      C32           -31.3490386626        6.8196281519      -13.1557704562  MEMB      56              0.0000000000
     45872      1316  PPPE      H2X           -30.3750828560        6.7599145896      -12.6341233728  MEMB      56              0.0000000000
     45873      1316  PPPE      H2Y           -32.1504361691        6.7483751396      -12.3879761686  MEMB      56              0.0000000000
     45874      1316  PPPE      C23           -35.3300205629        6.3716628068      -14.8534196468  MEMB      56              0.0000000000
     45875      1316  PPPE      H3R           -35.3145353959        7.3607226390      -15.3693895666  MEMB      56              0.0000000000
     45876      1316  PPPE      H3S           -34.2924255461        6.1903228263      -14.4912430938  MEMB      56              0.0000000000
     45877      1316  PPPE      C24           -36.2817499847        6.4742704604      -13.6451659008  MEMB      56              0.0000000000
     45878      1316  PPPE      H4R           -36.6334365543        5.4517203096      -13.3825837980  MEMB      56              0.0000000000
     45879      1316  PPPE      H4S           -37.1596181000        7.0798307799      -13.9637618006  MEMB      56              0.0000000000
     45880      1316  PPPE      C25           -35.5348506835        7.1470982711      -12.4770628166  MEMB      56              0.0000000000
     45881      1316  PPPE      H5R           -35.0434585850        8.0605296087      -12.8783614612  MEMB      56              0.0000000000
     45882      1316  PPPE      H5S           -34.7476025635        6.4461340959      -12.1133169856  MEMB      56              0.0000000000
     45883      1316  PPPE      C26           -36.3014332909        7.6394168249      -11.2493708166  MEMB      56              0.0000000000
     45884      1316  PPPE      H6R           -36.8324283440        6.7816892083      -10.7828331018  MEMB      56              0.0000000000
     45885      1316  PPPE      H6S           -37.0318227239        8.4384065268      -11.5198019707  MEMB      56              0.0000000000
     45886      1316  PPPE      C27           -35.3166425928        8.1320676898      -10.1757549435  MEMB      56              0.0000000000
     45887      1316  PPPE      H7R           -34.7024924452        9.0009024574      -10.5062071568  MEMB      56              0.0000000000
     45888      1316  PPPE      H7S           -34.6072699900        7.2966758489       -9.9745808746  MEMB      56              0.0000000000
     45889      1316  PPPE      C28           -36.0573326281        8.4847298221       -8.8932860437  MEMB      56              0.0000000000
     45890      1316  PPPE      H8R           -36.5318984830        7.5641613079       -8.4880895249  MEMB      56              0.0000000000
     45891      1316  PPPE      H8S           -36.8764131515        9.1911244156       -9.1431476846  MEMB      56              0.0000000000
     45892      1316  PPPE      C29           -35.1391783288        9.1454682773       -7.9135933523  MEMB      56              0.0000000000
     45893      1316  PPPE      H91           -34.5441232481        9.9709782860       -8.3096348627  MEMB      56              0.0000000000
     45894      1316  PPPE      C210          -34.8098297583        8.6612954638       -6.7247939372  MEMB      56              0.0000000000
     45895      1316  PPPE      H101          -34.1366385072        9.2381752832       -6.0737960659  MEMB      56              0.0000000000
     45896      1316  PPPE      C211          -35.3094095410        7.3598182265       -6.1987066872  MEMB      56              0.0000000000
     45897      1316  PPPE      H11R          -35.6153564681        6.6459484268       -7.0018011480  MEMB      56              0.0000000000
     45898      1316  PPPE      H11S          -36.1535707210        7.4228554856       -5.4784454379  MEMB      56              0.0000000000
     45899      1316  PPPE      C212          -34.0301864800        6.7670206296       -5.6392024216  MEMB      56              0.0000000000
     45900      1316  PPPE      H12R          -33.1731399168        6.6852762301       -6.3191826283  MEMB      56              0.0000000000
     45901      1316  PPPE      H12S          -34.2527223587        5.7430967482       -5.6537589430  MEMB      56              0.0000000000
     45902      1316  PPPE      C213          -33.6494996144        7.1458760815       -4.2142646456  MEMB      56              0.0000000000
     45903      1316  PPPE      H13R          -34.5632042685        7.2689002419       -3.6116586592  MEMB      56              0.0000000000
     45904      1316  PPPE      H13S          -33.1079270351        8.1017425002       -4.3057876631  MEMB      56              0.0000000000
     45905      1316  PPPE      C214          -32.8560422731        6.0511333089       -3.4936695013  MEMB      56              0.0000000000
     45906      1316  PPPE      H14R          -32.1668008197        5.5522686043       -4.2036047891  MEMB      56              0.0000000000
     45907      1316  PPPE      H14S          -33.5316782765        5.2718745810       -3.1190477691  MEMB      56              0.0000000000
     45908      1316  PPPE      C215          -32.1384469544        6.4594171348       -2.2215602735  MEMB      56              0.0000000000
     45909      1316  PPPE      H15R          -31.5261723261        7.3536059815       -2.4583434479  MEMB      56              0.0000000000
     45910      1316  PPPE      H15S          -31.5049721192        5.6086275830       -1.9189994703  MEMB      56              0.0000000000
     45911      1316  PPPE      C216          -32.9759211610        6.7588294812       -1.0057602771  MEMB      56              0.0000000000
     45912      1316  PPPE      H16R          -33.8370618256        6.0839787409       -0.7831762135  MEMB      56              0.0000000000
     45913      1316  PPPE      H16S          -32.3585775186        6.8907842147       -0.0968422395  MEMB      56              0.0000000000
     45914      1316  PPPE      H16T          -33.3346585059        7.7717189512       -1.1793800092  MEMB      56              0.0000000000
     45915      1316  PPPE      C33           -31.5671835820        8.1744594733      -13.8777803900  MEMB      56              0.0000000000
     45916      1316  PPPE      H3X           -32.6130366036        8.1934475637      -14.2513494475  MEMB      56              0.0000000000
     45917      1316  PPPE      H3Y           -30.9251315480        8.2015409174      -14.7929809900  MEMB      56              0.0000000000
     45918      1316  PPPE      C34           -31.3152630758        9.4746984607      -13.0453241700  MEMB      56              0.0000000000
     45919      1316  PPPE      H4X           -31.6575773713       10.3104637892      -13.6986125787  MEMB      56              0.0000000000
     45920      1316  PPPE      H4Y           -30.2310520640        9.6087724137      -12.9240776304  MEMB      56              0.0000000000
     45921      1316  PPPE      C35           -32.0352252159        9.6627125243      -11.6748059472  MEMB      56              0.0000000000
     45922      1316  PPPE      H5X           -31.8708606757        8.8123427463      -10.9821068943  MEMB      56              0.0000000000
     45923      1316  PPPE      H5Y           -33.1177990244        9.6688240753      -11.9175679697  MEMB      56              0.0000000000
     45924      1316  PPPE      C36           -31.7188831455       10.9851699785      -10.9075361271  MEMB      56              0.0000000000
     45925      1316  PPPE      H6X           -32.1954358111       11.8320887258      -11.4529987314  MEMB      56              0.0000000000
     45926      1316  PPPE      H6Y           -30.6237419984       11.1697559428      -10.8593146754  MEMB      56              0.0000000000
     45927      1316  PPPE      C37           -32.2229335046       11.0392657952       -9.4434962084  MEMB      56              0.0000000000
     45928      1316  PPPE      H7X           -31.8827749046       10.1358347562       -8.8923779662  MEMB      56              0.0000000000
     45929      1316  PPPE      H7Y           -33.3323385952       11.0142860757       -9.4692272184  MEMB      56              0.0000000000
     45930      1316  PPPE      C38           -31.7417168723       12.2844316682       -8.6593939317  MEMB      56              0.0000000000
     45931      1316  PPPE      H8X           -32.0422860444       13.2083768999       -9.1921264118  MEMB      56              0.0000000000
     45932      1316  PPPE      H8Y           -30.6290402997       12.2945128260       -8.5659369731  MEMB      56              0.0000000000
     45933      1316  PPPE      C39           -32.3296087716       12.3833787095       -7.2558393837  MEMB      56              0.0000000000
     45934      1316  PPPE      H9X           -33.3983903977       12.0748503165       -7.2504243624  MEMB      56              0.0000000000
     45935      1316  PPPE      H9Y           -32.3090654516       13.4404646360       -6.8975132886  MEMB      56              0.0000000000
     45936      1316  PPPE      C310          -31.5543652124       11.4917787310       -6.3033264568  MEMB      56              0.0000000000
     45937      1316  PPPE      H10X          -30.4597112889       11.6828576452       -6.3293375187  MEMB      56              0.0000000000
     45938      1316  PPPE      H10Y          -31.7348086686       10.4274691636       -6.5760378747  MEMB      56              0.0000000000
     45939      1316  PPPE      C311          -32.0780018200       11.6878396214       -4.9190095670  MEMB      56              0.0000000000
     45940      1316  PPPE      H11X          -33.1264918596       11.3041018930       -4.9392404635  MEMB      56              0.0000000000
     45941      1316  PPPE      H11Y          -32.1301534043       12.7665954613       -4.6533956411  MEMB      56              0.0000000000
     45942      1316  PPPE      C312          -31.2913334512       10.8855405144       -3.9052309951  MEMB      56              0.0000000000
     45943      1316  PPPE      H12X          -30.3872581622       11.4414856260       -3.5821407045  MEMB      56              0.0000000000
     45944      1316  PPPE      H12Y          -30.9745017747        9.9023506770       -4.3190653526  MEMB      56              0.0000000000
     45945      1316  PPPE      C313          -32.2505241145       10.7165853768       -2.7710645766  MEMB      56              0.0000000000
     45946      1316  PPPE      H13X          -31.8175667415       10.0674107519       -1.9698576580  MEMB      56              0.0000000000
     45947      1316  PPPE      H13Y          -33.1392588055       10.1521639095       -3.0987114148  MEMB      56              0.0000000000
     45948      1316  PPPE      C314          -32.8424871040       12.0818725649       -2.3950669316  MEMB      56              0.0000000000
     45949      1316  PPPE      H14X          -32.8315176171       13.0400327486       -2.9213785819  MEMB      56              0.0000000000
     45950      1316  PPPE      H14Y          -31.9200563300       12.7049551293       -2.1974044061  MEMB      56              0.0000000000
     45951      1316  PPPE      C315          -34.0555333412       11.8201318114       -1.3772285711  MEMB      56              0.0000000000
     45952      1316  PPPE      H15X          -34.8945044435       11.3817188512       -1.8957959589  MEMB      56              0.0000000000
     45953      1316  PPPE      H15Y          -34.1672328928       12.7222776867       -0.8228509517  MEMB      56              0.0000000000
     45954      1316  PPPE      C316          -34.0938234857       10.9208091057       -0.0961685654  MEMB      56              0.0000000000
     45955      1316  PPPE      H16X          -33.5214392693        9.9975508265       -0.2501981656  MEMB      56              0.0000000000
     45956      1316  PPPE      H16Y          -33.6096547976       10.9159961890        0.8183349797  MEMB      56              0.0000000000
     45957      1316  PPPE      H16Z          -34.8781313855       11.1316645987        0.6648013757  MEMB      56              0.0000000000
     45958      1317  PPPE      N               2.6539739228      -31.9594297185      -18.4132127640  MEMB      57              0.0000000000
     45959      1317  PPPE      HN1             1.7193221390      -31.5574041837      -18.6507031024  MEMB      57              0.0000000000
     45960      1317  PPPE      HN2             2.8306877555      -31.9751454784      -17.3990905778  MEMB      57              0.0000000000
     45961      1317  PPPE      HN3             3.3986865135      -31.3900929883      -18.8744293994  MEMB      57              0.0000000000
     45962      1317  PPPE      C12             2.7215263518      -33.3740837712      -18.9059302639  MEMB      57              0.0000000000
     45963      1317  PPPE      H12A            2.3709220351      -33.2897348972      -19.9258701564  MEMB      57              0.0000000000
     45964      1317  PPPE      H12B            1.9817935197      -33.9650501795      -18.3462964016  MEMB      57              0.0000000000
     45965      1317  PPPE      C11             4.1328326252      -33.9852640740      -18.8229874594  MEMB      57              0.0000000000
     45966      1317  PPPE      H11A            4.1635935461      -34.9762862442      -19.3385584972  MEMB      57              0.0000000000
     45967      1317  PPPE      H11B            4.3508561418      -34.1889923684      -17.7441602118  MEMB      57              0.0000000000
     45968      1317  PPPE      P               6.6454698842      -33.3737940347      -19.2565992819  MEMB      57              0.0000000000
     45969      1317  PPPE      O13             6.9282834015      -34.7446315812      -19.7565015373  MEMB      57              0.0000000000
     45970      1317  PPPE      O14             7.3220398252      -32.2034474921      -19.8541813073  MEMB      57              0.0000000000
     45971      1317  PPPE      O11             6.6319761036      -33.2851378334      -17.6712951077  MEMB      57              0.0000000000
     45972      1317  PPPE      O12             5.0786397537      -33.0916682166      -19.4248556783  MEMB      57              0.0000000000
     45973      1317  PPPE      C1              6.2073475488      -32.0463538283      -17.0832397038  MEMB      57              0.0000000000
     45974      1317  PPPE      HA              5.2043495217      -31.7193355499      -17.4500943048  MEMB      57              0.0000000000
     45975      1317  PPPE      HB              6.9465917777      -31.2396809696      -17.3034785459  MEMB      57              0.0000000000
     45976      1317  PPPE      C2              6.1423112452      -32.1377688590      -15.5450438557  MEMB      57              0.0000000000
     45977      1317  PPPE      HS              7.1817486358      -32.1585475009      -15.1691707372  MEMB      57              0.0000000000
     45978      1317  PPPE      O21             5.5600028811      -33.3451962298      -15.1306896872  MEMB      57              0.0000000000
     45979      1317  PPPE      C21             5.5426280719      -33.5253675803      -13.8020547193  MEMB      57              0.0000000000
     45980      1317  PPPE      O22             5.6827702000      -32.7269185143      -12.9116660410  MEMB      57              0.0000000000
     45981      1317  PPPE      C22             5.0318681427      -34.8560509573      -13.5621726875  MEMB      57              0.0000000000
     45982      1317  PPPE      H2R             5.1627657721      -35.7034661096      -14.2303241152  MEMB      57              0.0000000000
     45983      1317  PPPE      H2S             4.2052078456      -34.4037265438      -14.0199443206  MEMB      57              0.0000000000
     45984      1317  PPPE      C3              5.3620396430      -30.9413903950      -14.9921701283  MEMB      57              0.0000000000
     45985      1317  PPPE      HX              5.9195792313      -30.5685446206      -14.0965184650  MEMB      57              0.0000000000
     45986      1317  PPPE      HY              5.3473112469      -30.2017789663      -15.8144825830  MEMB      57              0.0000000000
     45987      1317  PPPE      O31             4.0395646329      -31.2996702195      -14.5757851737  MEMB      57              0.0000000000
     45988      1317  PPPE      C31             2.9958048851      -30.6261343078      -15.0520988137  MEMB      57              0.0000000000
     45989      1317  PPPE      O32             2.9988518689      -29.9715941376      -16.0633412069  MEMB      57              0.0000000000
     45990      1317  PPPE      C32             1.6706818718      -30.7609105371      -14.2614164846  MEMB      57              0.0000000000
     45991      1317  PPPE      H2X             1.0125380073      -31.3890289217      -14.7951594713  MEMB      57              0.0000000000
     45992      1317  PPPE      H2Y             1.0961127791      -29.9359074886      -13.8815944064  MEMB      57              0.0000000000
     45993      1317  PPPE      C23             4.7409838162      -35.1539710802      -12.1095020200  MEMB      57              0.0000000000
     45994      1317  PPPE      H3R             3.9053939004      -35.8042084875      -11.8716044119  MEMB      57              0.0000000000
     45995      1317  PPPE      H3S             4.5416481685      -34.3168757488      -11.4462021571  MEMB      57              0.0000000000
     45996      1317  PPPE      C24             5.9243238072      -35.8161464198      -11.6791023178  MEMB      57              0.0000000000
     45997      1317  PPPE      H4R             6.7064939026      -35.0880205743      -11.9346598211  MEMB      57              0.0000000000
     45998      1317  PPPE      H4S             6.1551236027      -36.5891904016      -12.4035354438  MEMB      57              0.0000000000
     45999      1317  PPPE      C25             5.8432693067      -36.0443456721      -10.2013215924  MEMB      57              0.0000000000
     46000      1317  PPPE      H5R             5.7430620603      -35.0762667610       -9.6939170123  MEMB      57              0.0000000000
     46001      1317  PPPE      H5S             6.8117162233      -36.3244055640       -9.9816470131  MEMB      57              0.0000000000
     46002      1317  PPPE      C26             4.9803001043      -37.0912112434       -9.5289334304  MEMB      57              0.0000000000
     46003      1317  PPPE      H6R             4.9441306698      -38.0781767354      -10.0467883078  MEMB      57              0.0000000000
     46004      1317  PPPE      H6S             3.9672911340      -36.6313402581       -9.5077343108  MEMB      57              0.0000000000
     46005      1317  PPPE      C27             5.4354198575      -37.3233583541       -8.0883435795  MEMB      57              0.0000000000
     46006      1317  PPPE      H7R             6.4636969322      -37.6557341672       -7.9876172822  MEMB      57              0.0000000000
     46007      1317  PPPE      H7S             4.9233341707      -38.2620300326       -7.7965890267  MEMB      57              0.0000000000
     46008      1317  PPPE      C28             5.2128797912      -36.0307573459       -7.2387424441  MEMB      57              0.0000000000
     46009      1317  PPPE      H8R             4.1323881423      -35.8568676192       -7.1056947247  MEMB      57              0.0000000000
     46010      1317  PPPE      H8S             5.5718725138      -35.1679786599       -7.8042799872  MEMB      57              0.0000000000
     46011      1317  PPPE      C29             5.9348817933      -35.6812523018       -5.9885352439  MEMB      57              0.0000000000
     46012      1317  PPPE      H91             6.9979235277      -36.0126053231       -6.0415489184  MEMB      57              0.0000000000
     46013      1317  PPPE      C210            5.3927828800      -35.5536654533       -4.7416931434  MEMB      57              0.0000000000
     46014      1317  PPPE      H101            6.1670446382      -35.6779834649       -4.0398269105  MEMB      57              0.0000000000
     46015      1317  PPPE      C211            3.9703062056      -35.7068415205       -4.0530859958  MEMB      57              0.0000000000
     46016      1317  PPPE      H11R            3.5996549311      -35.8887847495       -5.0211525232  MEMB      57              0.0000000000
     46017      1317  PPPE      H11S            3.8392328721      -34.6952122335       -3.7993303639  MEMB      57              0.0000000000
     46018      1317  PPPE      C212            3.1189935121      -36.7779911245       -2.8572955146  MEMB      57              0.0000000000
     46019      1317  PPPE      H12R            3.1683772364      -37.8857519229       -2.7458636224  MEMB      57              0.0000000000
     46020      1317  PPPE      H12S            2.0156792132      -36.9075136423       -2.8837997410  MEMB      57              0.0000000000
     46021      1317  PPPE      C213            3.5408338952      -36.9230004595       -1.5035874655  MEMB      57              0.0000000000
     46022      1317  PPPE      H13R            4.5937906026      -36.9348657945       -1.3441871753  MEMB      57              0.0000000000
     46023      1317  PPPE      H13S            3.2177967339      -37.8336539030       -0.9277254893  MEMB      57              0.0000000000
     46024      1317  PPPE      C214            3.1467814922      -35.7407633289       -1.0366653157  MEMB      57              0.0000000000
     46025      1317  PPPE      H14R            2.0466436615      -35.8273227753       -0.8998447545  MEMB      57              0.0000000000
     46026      1317  PPPE      H14S            3.6017567571      -34.8429775324       -1.5512112313  MEMB      57              0.0000000000
     46027      1317  PPPE      C215            3.7638997536      -35.7303769627        0.0870193003  MEMB      57              0.0000000000
     46028      1317  PPPE      H15R            4.8313202945      -35.4524838437       -0.1130133263  MEMB      57              0.0000000000
     46029      1317  PPPE      H15S            3.8307834364      -36.7361829180        0.5851498215  MEMB      57              0.0000000000
     46030      1317  PPPE      C216            2.8525451506      -34.8426223160        0.7758944896  MEMB      57              0.0000000000
     46031      1317  PPPE      H16R            2.8356767572      -33.8819332904        1.2422519179  MEMB      57              0.0000000000
     46032      1317  PPPE      H16S            1.8380256901      -35.0027896302        1.0316875473  MEMB      57              0.0000000000
     46033      1317  PPPE      H16T            3.6299897516      -34.3075453489        1.3408329531  MEMB      57              0.0000000000
     46034      1317  PPPE      C33             1.6977456649      -31.2117984507      -12.9138615413  MEMB      57              0.0000000000
     46035      1317  PPPE      H3X             2.5407486450      -30.7963639700      -12.2572445471  MEMB      57              0.0000000000
     46036      1317  PPPE      H3Y             2.5747686449      -31.8134634345      -13.2130168576  MEMB      57              0.0000000000
     46037      1317  PPPE      C34             0.1966973487      -32.0121659082      -12.2839132064  MEMB      57              0.0000000000
     46038      1317  PPPE      H4X            -0.4661639687      -32.2559020899      -13.0694739912  MEMB      57              0.0000000000
     46039      1317  PPPE      H4Y            -0.1371132158      -31.0713561355      -11.8715200153  MEMB      57              0.0000000000
     46040      1317  PPPE      C35             0.1716075196      -33.6006160708      -11.2583888003  MEMB      57              0.0000000000
     46041      1317  PPPE      H5X             0.9759208474      -33.7130550773      -10.4788165382  MEMB      57              0.0000000000
     46042      1317  PPPE      H5Y             0.6523269103      -34.6100976452      -11.5212210800  MEMB      57              0.0000000000
     46043      1317  PPPE      C36            -0.3216243139      -34.0417768264      -10.0544044121  MEMB      57              0.0000000000
     46044      1317  PPPE      H6X            -0.9734371866      -34.3801643604      -10.8746892627  MEMB      57              0.0000000000
     46045      1317  PPPE      H6Y            -0.5280573522      -33.1772063430       -9.5319520562  MEMB      57              0.0000000000
     46046      1317  PPPE      C37             0.5128649082      -35.0110321044       -9.1465780373  MEMB      57              0.0000000000
     46047      1317  PPPE      H7X             0.9969937301      -35.7924900267       -9.6955305129  MEMB      57              0.0000000000
     46048      1317  PPPE      H7Y            -0.5552868490      -35.1484802072       -9.1430493609  MEMB      57              0.0000000000
     46049      1317  PPPE      C38             1.3331869098      -34.5656742185       -7.8679699875  MEMB      57              0.0000000000
     46050      1317  PPPE      H8X             1.4142049150      -35.2177940206       -7.0532160333  MEMB      57              0.0000000000
     46051      1317  PPPE      H8Y             0.6164758077      -34.1563506787       -7.2527023880  MEMB      57              0.0000000000
     46052      1317  PPPE      C39             2.7619825068      -33.8727309347       -7.9075998242  MEMB      57              0.0000000000
     46053      1317  PPPE      H9X             2.6478588035      -32.8582564707       -7.9601093625  MEMB      57              0.0000000000
     46054      1317  PPPE      H9Y             3.2597992925      -34.0000869364       -8.8527320916  MEMB      57              0.0000000000
     46055      1317  PPPE      C310            3.5606833816      -33.1302056513       -6.7600743083  MEMB      57              0.0000000000
     46056      1317  PPPE      H10X            4.2875134556      -32.3708153596       -7.1099541118  MEMB      57              0.0000000000
     46057      1317  PPPE      H10Y            3.8608683903      -33.9661111201       -6.1569045140  MEMB      57              0.0000000000
     46058      1317  PPPE      C311            2.8593318525      -32.0260629507       -5.9932339946  MEMB      57              0.0000000000
     46059      1317  PPPE      H11X            2.1961186470      -32.8690518467       -6.1346957981  MEMB      57              0.0000000000
     46060      1317  PPPE      H11Y            2.5245147009      -31.1180866010       -6.5428955611  MEMB      57              0.0000000000
     46061      1317  PPPE      C312            2.6983002326      -31.7340230404       -4.4896359451  MEMB      57              0.0000000000
     46062      1317  PPPE      H12X            3.4493313285      -31.1151057190       -4.8313916298  MEMB      57              0.0000000000
     46063      1317  PPPE      H12Y            3.4030522081      -32.5099719557       -4.1341672811  MEMB      57              0.0000000000
     46064      1317  PPPE      C313            1.3567966463      -31.2934045512       -3.3416490536  MEMB      57              0.0000000000
     46065      1317  PPPE      H13X            0.6550103363      -32.0225887321       -3.0884726834  MEMB      57              0.0000000000
     46066      1317  PPPE      H13Y            0.6621959555      -30.4932476324       -3.5902404359  MEMB      57              0.0000000000
     46067      1317  PPPE      C314            1.5195938018      -30.9133589860       -1.8363505527  MEMB      57              0.0000000000
     46068      1317  PPPE      H14X            2.1926639159      -30.0780453160       -1.6264019000  MEMB      57              0.0000000000
     46069      1317  PPPE      H14Y            1.8267724142      -31.8354844910       -1.3337412909  MEMB      57              0.0000000000
     46070      1317  PPPE      C315            0.6143457818      -30.6783987416       -0.7479981754  MEMB      57              0.0000000000
     46071      1317  PPPE      H15X           -0.2044382607      -31.3770874609       -0.9298350091  MEMB      57              0.0000000000
     46072      1317  PPPE      H15Y            0.4715160944      -29.6265765560       -1.0335862415  MEMB      57              0.0000000000
     46073      1317  PPPE      C316            1.3141780419      -30.8200057816        0.6300095566  MEMB      57              0.0000000000
     46074      1317  PPPE      H16X            2.2570370552      -30.2238256158        0.7050429522  MEMB      57              0.0000000000
     46075      1317  PPPE      H16Y            0.5225259477      -30.4425888380        1.2853356786  MEMB      57              0.0000000000
     46076      1317  PPPE      H16Z            1.5574223624      -31.8490064444        0.9957058271  MEMB      57              0.0000000000
     46077      1318  PPPE      N             -34.5161102485       -2.3836729350      -20.8419334508  MEMB      58              0.0000000000
     46078      1318  PPPE      HN1           -35.1431136650       -3.0455871536      -20.3427976277  MEMB      58              0.0000000000
     46079      1318  PPPE      HN2           -35.0444511445       -1.4963626038      -20.9767631457  MEMB      58              0.0000000000
     46080      1318  PPPE      HN3           -34.2054779745       -2.7737943585      -21.7633079076  MEMB      58              0.0000000000
     46081      1318  PPPE      C12           -33.3623399811       -2.0976791308      -19.9086271902  MEMB      58              0.0000000000
     46082      1318  PPPE      H12A          -32.6122642290       -1.4811975207      -20.4477878336  MEMB      58              0.0000000000
     46083      1318  PPPE      H12B          -32.8824125705       -3.0542180560      -19.6375708211  MEMB      58              0.0000000000
     46084      1318  PPPE      C11           -33.8529255489       -1.3610431173      -18.6558188499  MEMB      58              0.0000000000
     46085      1318  PPPE      H11A          -32.9409969834       -1.1433847940      -18.0430466650  MEMB      58              0.0000000000
     46086      1318  PPPE      H11B          -34.5223603504       -1.9605714246      -17.9932789651  MEMB      58              0.0000000000
     46087      1318  PPPE      P             -34.1106073974        1.2515587197      -18.5379054177  MEMB      58              0.0000000000
     46088      1318  PPPE      O13           -32.8147797204        1.5736581817      -19.1729073423  MEMB      58              0.0000000000
     46089      1318  PPPE      O14           -35.2506700577        2.1498292880      -18.7180898391  MEMB      58              0.0000000000
     46090      1318  PPPE      O11           -33.8616488325        0.9378109830      -17.0200896606  MEMB      58              0.0000000000
     46091      1318  PPPE      O12           -34.5555902831       -0.1907323707      -19.0704063564  MEMB      58              0.0000000000
     46092      1318  PPPE      C1            -34.8808862112        0.4781658075      -16.1417985857  MEMB      58              0.0000000000
     46093      1318  PPPE      HA            -34.9907740540       -0.6266292796      -16.2251704744  MEMB      58              0.0000000000
     46094      1318  PPPE      HB            -35.8650645783        0.9555333370      -16.3602659921  MEMB      58              0.0000000000
     46095      1318  PPPE      C2            -34.5634168468        0.7504738461      -14.6519882726  MEMB      58              0.0000000000
     46096      1318  PPPE      HS            -34.5067228602        1.8458798991      -14.4434599991  MEMB      58              0.0000000000
     46097      1318  PPPE      O21           -33.3441515555        0.1001630928      -14.2465047302  MEMB      58              0.0000000000
     46098      1318  PPPE      C21           -32.2396200865        0.7479662942      -14.5246920515  MEMB      58              0.0000000000
     46099      1318  PPPE      O22           -32.1238336082        1.7882579980      -15.1339004918  MEMB      58              0.0000000000
     46100      1318  PPPE      C22           -31.0400951230        0.0892860661      -13.8491906115  MEMB      58              0.0000000000
     46101      1318  PPPE      H2R           -30.2164263991        0.7339741865      -14.1723571790  MEMB      58              0.0000000000
     46102      1318  PPPE      H2S           -30.8207329792       -0.9195340622      -14.2248890140  MEMB      58              0.0000000000
     46103      1318  PPPE      C3            -35.7445008386        0.1798902856      -13.8237931043  MEMB      58              0.0000000000
     46104      1318  PPPE      HX            -36.6426167979        0.8105261439      -14.0352205267  MEMB      58              0.0000000000
     46105      1318  PPPE      HY            -35.9711685088       -0.8469043489      -14.1952390118  MEMB      58              0.0000000000
     46106      1318  PPPE      O31           -35.3669289159        0.1425394465      -12.4374279636  MEMB      58              0.0000000000
     46107      1318  PPPE      C31           -36.3197476152        0.2726096741      -11.5524449649  MEMB      58              0.0000000000
     46108      1318  PPPE      O32           -37.5094487335        0.2936290649      -11.7857249583  MEMB      58              0.0000000000
     46109      1318  PPPE      C32           -35.6625463193        0.3741762394      -10.1874542077  MEMB      58              0.0000000000
     46110      1318  PPPE      H2X           -34.9605267241       -0.4769165277      -10.1013269012  MEMB      58              0.0000000000
     46111      1318  PPPE      H2Y           -36.4446896393        0.2217579549       -9.4178176050  MEMB      58              0.0000000000
     46112      1318  PPPE      C23           -31.1187247028        0.1423150452      -12.3060896973  MEMB      58              0.0000000000
     46113      1318  PPPE      H3R           -31.6091464534        1.1016400687      -12.0233916659  MEMB      58              0.0000000000
     46114      1318  PPPE      H3S           -30.0787381137        0.1894760906      -11.9120060355  MEMB      58              0.0000000000
     46115      1318  PPPE      C24           -31.8509502225       -1.0886343599      -11.7366445315  MEMB      58              0.0000000000
     46116      1318  PPPE      H4R           -31.3179151563       -2.0184858471      -12.0376229271  MEMB      58              0.0000000000
     46117      1318  PPPE      H4S           -32.8840113412       -1.1243657388      -12.1586487592  MEMB      58              0.0000000000
     46118      1318  PPPE      C25           -32.0102131392       -1.1907412590      -10.2158110114  MEMB      58              0.0000000000
     46119      1318  PPPE      H5R           -32.4400839751       -2.2046776310      -10.0061938795  MEMB      58              0.0000000000
     46120      1318  PPPE      H5S           -32.7262432409       -0.4241880798       -9.8574239759  MEMB      58              0.0000000000
     46121      1318  PPPE      C26           -30.7219878180       -1.1232227088       -9.3995012106  MEMB      58              0.0000000000
     46122      1318  PPPE      H6R           -30.2984503203       -0.1059084692       -9.3592740202  MEMB      58              0.0000000000
     46123      1318  PPPE      H6S           -29.9379613024       -1.6968354823       -9.9230038516  MEMB      58              0.0000000000
     46124      1318  PPPE      C27           -30.9652072898       -1.7067727107       -7.9945424503  MEMB      58              0.0000000000
     46125      1318  PPPE      H7R           -30.0096927055       -1.6701654498       -7.4234816754  MEMB      58              0.0000000000
     46126      1318  PPPE      H7S           -31.3171002701       -2.7576631437       -8.1130033210  MEMB      58              0.0000000000
     46127      1318  PPPE      C28           -32.1456124219       -1.1026481037       -7.2489574492  MEMB      58              0.0000000000
     46128      1318  PPPE      H8R           -33.0909864248       -1.4346752630       -7.7190023551  MEMB      58              0.0000000000
     46129      1318  PPPE      H8S           -32.0889299180       -0.0012763676       -7.2921622902  MEMB      58              0.0000000000
     46130      1318  PPPE      C29           -32.3376696074       -1.4263246303       -5.8321383722  MEMB      58              0.0000000000
     46131      1318  PPPE      H91           -33.0106641446       -2.2718474496       -5.5936458913  MEMB      58              0.0000000000
     46132      1318  PPPE      C210          -31.6287368082       -0.8868356282       -4.8624715261  MEMB      58              0.0000000000
     46133      1318  PPPE      H101          -32.1880645410       -0.9781922540       -3.9339331116  MEMB      58              0.0000000000
     46134      1318  PPPE      C211          -30.4969345299        0.1030373727       -4.8098211443  MEMB      58              0.0000000000
     46135      1318  PPPE      H11R          -30.7387383524        0.9165679000       -5.5046058118  MEMB      58              0.0000000000
     46136      1318  PPPE      H11S          -29.5647943937       -0.4034208914       -5.1633797947  MEMB      58              0.0000000000
     46137      1318  PPPE      C212          -30.1892345604        0.7997754914       -3.4516115626  MEMB      58              0.0000000000
     46138      1318  PPPE      H12R          -29.4462389560        1.5922775788       -3.6606848649  MEMB      58              0.0000000000
     46139      1318  PPPE      H12S          -29.7722710294        0.0793237180       -2.7095322450  MEMB      58              0.0000000000
     46140      1318  PPPE      C213          -31.4112048109        1.5033972893       -2.8485175921  MEMB      58              0.0000000000
     46141      1318  PPPE      H13R          -31.9863593604        0.6788664477       -2.3919629167  MEMB      58              0.0000000000
     46142      1318  PPPE      H13S          -31.9795554208        1.9537279847       -3.6943505456  MEMB      58              0.0000000000
     46143      1318  PPPE      C214          -31.1828351821        2.6049477453       -1.7892902652  MEMB      58              0.0000000000
     46144      1318  PPPE      H14R          -30.6914554881        3.4626606565       -2.3099649585  MEMB      58              0.0000000000
     46145      1318  PPPE      H14S          -30.5156437226        2.2448479256       -0.9767173795  MEMB      58              0.0000000000
     46146      1318  PPPE      C215          -32.4865583717        3.1414657269       -1.1442874845  MEMB      58              0.0000000000
     46147      1318  PPPE      H15R          -33.2184672815        3.3818247424       -1.9444985248  MEMB      58              0.0000000000
     46148      1318  PPPE      H15S          -32.2873701029        4.1224317229       -0.6655781678  MEMB      58              0.0000000000
     46149      1318  PPPE      C216          -33.1630001483        2.2677645544       -0.0755200912  MEMB      58              0.0000000000
     46150      1318  PPPE      H16R          -33.5424347100        1.3202306980       -0.5042548391  MEMB      58              0.0000000000
     46151      1318  PPPE      H16S          -32.5031524212        2.0430409977        0.7925809647  MEMB      58              0.0000000000
     46152      1318  PPPE      H16T          -34.0461357491        2.8167675961        0.3097191534  MEMB      58              0.0000000000
     46153      1318  PPPE      C33           -34.8992374476        1.7141521072      -10.0193131866  MEMB      58              0.0000000000
     46154      1318  PPPE      H3X           -35.2476496923        2.4560297540      -10.7727848026  MEMB      58              0.0000000000
     46155      1318  PPPE      H3Y           -33.8217305747        1.5689447680      -10.2466508566  MEMB      58              0.0000000000
     46156      1318  PPPE      C34           -34.9659528169        2.2112275181       -8.5712617098  MEMB      58              0.0000000000
     46157      1318  PPPE      H4X           -34.8552286841        1.3556177651       -7.8851108982  MEMB      58              0.0000000000
     46158      1318  PPPE      H4Y           -35.9312812624        2.5821174625       -8.2967045225  MEMB      58              0.0000000000
     46159      1318  PPPE      C35           -33.9818301098        3.2954587808       -8.1607797995  MEMB      58              0.0000000000
     46160      1318  PPPE      H5X           -34.2583047417        4.2641882343       -8.6384667312  MEMB      58              0.0000000000
     46161      1318  PPPE      H5Y           -32.9810154897        2.9982311563       -8.5396794621  MEMB      58              0.0000000000
     46162      1318  PPPE      C36           -33.8829504151        3.4579065587       -6.6255968425  MEMB      58              0.0000000000
     46163      1318  PPPE      H6X           -33.1170768002        4.2575325441       -6.5137629392  MEMB      58              0.0000000000
     46164      1318  PPPE      H6Y           -33.4650604596        2.5274834951       -6.1837208313  MEMB      58              0.0000000000
     46165      1318  PPPE      C37           -35.2321171174        3.7530427365       -5.8915126963  MEMB      58              0.0000000000
     46166      1318  PPPE      H7X           -35.8590997559        2.8625379019       -5.9810152671  MEMB      58              0.0000000000
     46167      1318  PPPE      H7Y           -35.7326264300        4.5870271088       -6.4356253445  MEMB      58              0.0000000000
     46168      1318  PPPE      C38           -35.1611539933        4.0912778660       -4.3675654055  MEMB      58              0.0000000000
     46169      1318  PPPE      H8X           -35.1329783112        5.1736554086       -4.1497010163  MEMB      58              0.0000000000
     46170      1318  PPPE      H8Y           -34.2599453839        3.6119488667       -3.9347037758  MEMB      58              0.0000000000
     46171      1318  PPPE      C39           -36.4124988230        3.9267046114       -3.5388908366  MEMB      58              0.0000000000
     46172      1318  PPPE      H9X           -37.1788769362        4.6282144854       -3.9361607049  MEMB      58              0.0000000000
     46173      1318  PPPE      H9Y           -36.2402285511        4.2105386451       -2.4699667719  MEMB      58              0.0000000000
     46174      1318  PPPE      C310          -36.8913494861        2.5260935256       -3.6904387143  MEMB      58              0.0000000000
     46175      1318  PPPE      H10X          -37.2490413056        2.3614425995       -4.7109484546  MEMB      58              0.0000000000
     46176      1318  PPPE      H10Y          -37.8317011820        2.4057280471       -3.1733741769  MEMB      58              0.0000000000
     46177      1318  PPPE      C311          -35.8520835927        1.4899857700       -3.2994283633  MEMB      58              0.0000000000
     46178      1318  PPPE      H11X          -35.3790918081        1.7309711070       -2.3162454150  MEMB      58              0.0000000000
     46179      1318  PPPE      H11Y          -35.0594689887        1.4582595256       -4.0769587289  MEMB      58              0.0000000000
     46180      1318  PPPE      C312          -36.5586182706        0.1629987661       -3.2345980140  MEMB      58              0.0000000000
     46181      1318  PPPE      H12X          -37.0973680299       -0.0449226990       -4.1833330298  MEMB      58              0.0000000000
     46182      1318  PPPE      H12Y          -37.3155009580        0.2530486172       -2.4323004534  MEMB      58              0.0000000000
     46183      1318  PPPE      C313          -35.6480953702       -0.9815473142       -2.9361816982  MEMB      58              0.0000000000
     46184      1318  PPPE      H13X          -35.2417155890       -1.4734678606       -3.8571425558  MEMB      58              0.0000000000
     46185      1318  PPPE      H13Y          -36.2178377939       -1.6338225104       -2.2385126103  MEMB      58              0.0000000000
     46186      1318  PPPE      C314          -34.6603510289       -0.8051186223       -1.8729149502  MEMB      58              0.0000000000
     46187      1318  PPPE      H14X          -35.1385711622       -0.4016093945       -0.9519783318  MEMB      58              0.0000000000
     46188      1318  PPPE      H14Y          -33.8085444931       -0.2013168897       -2.2308114822  MEMB      58              0.0000000000
     46189      1318  PPPE      C315          -34.2256231758       -2.1401740130       -1.4526075442  MEMB      58              0.0000000000
     46190      1318  PPPE      H15X          -33.8089136089       -2.6326626115       -2.3681881755  MEMB      58              0.0000000000
     46191      1318  PPPE      H15Y          -34.9446255070       -2.8750145006       -1.0029349292  MEMB      58              0.0000000000
     46192      1318  PPPE      C316          -33.2350979264       -1.7749010278       -0.4207401614  MEMB      58              0.0000000000
     46193      1318  PPPE      H16X          -33.4391134330       -1.4312571208        0.5964024804  MEMB      58              0.0000000000
     46194      1318  PPPE      H16Y          -33.0985418973       -2.8095175290       -0.2615695511  MEMB      58              0.0000000000
     46195      1318  PPPE      H16Z          -32.2878316962       -1.3590218935       -0.8202470895  MEMB      58              0.0000000000
     46196      1319  PVPG      C13            10.0223364784       31.5205069445      -16.9154324292  MEMB      59              0.0000000000
     46197      1319  PVPG      H13A            9.5538379377       32.2543040438      -16.2200411055  MEMB      59              0.0000000000
     46198      1319  PVPG      H13B            9.8593999694       30.5163669049      -16.4860777227  MEMB      59              0.0000000000
     46199      1319  PVPG      OC3            11.4306055472       31.7556031350      -16.9673968089  MEMB      59              0.0000000000
     46200      1319  PVPG      HO3            11.7663696393       31.1743909058      -17.6634040637  MEMB      59              0.0000000000
     46201      1319  PVPG      C12             9.3244987304       31.6477421955      -18.3025347686  MEMB      59              0.0000000000
     46202      1319  PVPG      H12A            8.4043386076       31.0210846475      -18.2992942469  MEMB      59              0.0000000000
     46203      1319  PVPG      OC2            10.1678025897       31.1672330973      -19.3543778999  MEMB      59              0.0000000000
     46204      1319  PVPG      HO2             9.7459831687       31.4881274895      -20.1632105182  MEMB      59              0.0000000000
     46205      1319  PVPG      C11             8.9049176300       33.1317494781      -18.5030248776  MEMB      59              0.0000000000
     46206      1319  PVPG      H11A            9.8296164905       33.7554127155      -18.4493359531  MEMB      59              0.0000000000
     46207      1319  PVPG      H11B            8.2834545076       33.3864373320      -17.6120951902  MEMB      59              0.0000000000
     46208      1319  PVPG      P               7.9820090452       34.9411042337      -20.0807396233  MEMB      59              0.0000000000
     46209      1319  PVPG      O13             6.7154576009       35.1339858666      -20.8104973698  MEMB      59              0.0000000000
     46210      1319  PVPG      O14             9.2437291701       35.3818439180      -20.7177065339  MEMB      59              0.0000000000
     46211      1319  PVPG      O12             8.1451757864       33.3866230785      -19.6956173614  MEMB      59              0.0000000000
     46212      1319  PVPG      O11             7.8344380463       35.6295168917      -18.6707003718  MEMB      59              0.0000000000
     46213      1319  PVPG      C1              6.5940441231       35.6864455845      -17.9708995711  MEMB      59              0.0000000000
     46214      1319  PVPG      HA              6.1319154115       34.6787173372      -17.7927119578  MEMB      59              0.0000000000
     46215      1319  PVPG      HB              5.8440336992       36.3343282731      -18.4852561832  MEMB      59              0.0000000000
     46216      1319  PVPG      C2              6.8749630215       36.3298268125      -16.6246615921  MEMB      59              0.0000000000
     46217      1319  PVPG      HS              7.1536823871       37.4059172470      -16.7499356203  MEMB      59              0.0000000000
     46218      1319  PVPG      O21             7.7788139393       35.4894912082      -15.8972907709  MEMB      59              0.0000000000
     46219      1319  PVPG      C21             8.9603224109       36.0303239511      -15.8453690307  MEMB      59              0.0000000000
     46220      1319  PVPG      O22             9.2622535915       37.1420271394      -16.2383928133  MEMB      59              0.0000000000
     46221      1319  PVPG      C22             9.9404686603       35.0178468383      -15.2639895140  MEMB      59              0.0000000000
     46222      1319  PVPG      H2R            10.3294275498       34.4842317553      -16.1572476091  MEMB      59              0.0000000000
     46223      1319  PVPG      H2S             9.3722411630       34.2994103633      -14.6407566268  MEMB      59              0.0000000000
     46224      1319  PVPG      C3              5.6209688978       36.3873621113      -15.8904865383  MEMB      59              0.0000000000
     46225      1319  PVPG      HX              4.8268211122       36.7998222410      -16.5440439179  MEMB      59              0.0000000000
     46226      1319  PVPG      HY              5.4300684792       35.3413278868      -15.5329745235  MEMB      59              0.0000000000
     46227      1319  PVPG      O31             5.6029840056       37.2676752863      -14.8354603493  MEMB      59              0.0000000000
     46228      1319  PVPG      C31             6.1178916834       36.7604991677      -13.7972346501  MEMB      59              0.0000000000
     46229      1319  PVPG      O32             6.7975116064       35.7683379831      -13.6395606286  MEMB      59              0.0000000000
     46230      1319  PVPG      C32             5.7835785985       37.5595016886      -12.7398405262  MEMB      59              0.0000000000
     46231      1319  PVPG      H2X             4.7315167171       37.6305075882      -12.4083547667  MEMB      59              0.0000000000
     46232      1319  PVPG      H2Y             5.1776805822       38.4202213926      -13.1646225262  MEMB      59              0.0000000000
     46233      1319  PVPG      C23            11.0638936305       35.6838195873      -14.4215993339  MEMB      59              0.0000000000
     46234      1319  PVPG      H3R            10.6306020981       36.4260501769      -13.7176896719  MEMB      59              0.0000000000
     46235      1319  PVPG      H3S            11.7639309636       36.1992662978      -15.1144811673  MEMB      59              0.0000000000
     46236      1319  PVPG      C24            11.8475826782       34.7102448539      -13.5371899023  MEMB      59              0.0000000000
     46237      1319  PVPG      H4R            12.7507891846       35.1462913234      -13.0660416359  MEMB      59              0.0000000000
     46238      1319  PVPG      H4S            12.2041577586       33.9704370127      -14.2142369729  MEMB      59              0.0000000000
     46239      1319  PVPG      C25            10.9511684911       33.8989632453      -12.6113353874  MEMB      59              0.0000000000
     46240      1319  PVPG      H5R            10.3574261249       33.1813626054      -13.2326027670  MEMB      59              0.0000000000
     46241      1319  PVPG      H5S            10.2743136938       34.6320871843      -12.1374745286  MEMB      59              0.0000000000
     46242      1319  PVPG      C26            11.6222526550       33.0766343989      -11.5146313229  MEMB      59              0.0000000000
     46243      1319  PVPG      H6R            12.2300982566       32.2976191908      -11.8653208858  MEMB      59              0.0000000000
     46244      1319  PVPG      H6S            10.8828447433       32.4012826789      -11.0555271085  MEMB      59              0.0000000000
     46245      1319  PVPG      C27            12.6230827122       33.7943373242      -10.6067851140  MEMB      59              0.0000000000
     46246      1319  PVPG      H7R            11.9960514903       34.5538761499      -10.1149609509  MEMB      59              0.0000000000
     46247      1319  PVPG      H7S            13.4917705869       34.2405782610      -11.1426260726  MEMB      59              0.0000000000
     46248      1319  PVPG      C28            13.2272100468       32.8682947460       -9.5615773064  MEMB      59              0.0000000000
     46249      1319  PVPG      H8R            14.1979472043       32.4135299706       -9.8611366214  MEMB      59              0.0000000000
     46250      1319  PVPG      H8S            12.4712158995       32.0830448330       -9.4869997042  MEMB      59              0.0000000000
     46251      1319  PVPG      C29            13.6587772324       33.5525349001       -8.2901646798  MEMB      59              0.0000000000
     46252      1319  PVPG      H9R            12.8374527083       34.1811661054       -7.9023988857  MEMB      59              0.0000000000
     46253      1319  PVPG      H9S            14.5105052137       34.1705523491       -8.6452907211  MEMB      59              0.0000000000
     46254      1319  PVPG      C210           14.3235437415       32.6782578797       -7.2370121361  MEMB      59              0.0000000000
     46255      1319  PVPG      H10R           14.7291917205       33.2575864219       -6.4038587103  MEMB      59              0.0000000000
     46256      1319  PVPG      H10S           15.1364405149       32.0689612377       -7.7084714918  MEMB      59              0.0000000000
     46257      1319  PVPG      C211           13.4134329343       31.7179364012       -6.6518332312  MEMB      59              0.0000000000
     46258      1319  PVPG      H111           13.7758201617       30.8115453717       -7.0467325698  MEMB      59              0.0000000000
     46259      1319  PVPG      C212           12.3868546634       31.7652632216       -5.8101426389  MEMB      59              0.0000000000
     46260      1319  PVPG      H121           11.7730323724       30.8900836097       -5.5579361046  MEMB      59              0.0000000000
     46261      1319  PVPG      C213           11.8850100718       32.9756337588       -5.2009666811  MEMB      59              0.0000000000
     46262      1319  PVPG      H13R           10.8004276932       33.0607436994       -5.3752508507  MEMB      59              0.0000000000
     46263      1319  PVPG      H13S           12.4341761559       33.8320414617       -5.6238055745  MEMB      59              0.0000000000
     46264      1319  PVPG      C214           12.1026275929       32.7826833002       -3.7215629753  MEMB      59              0.0000000000
     46265      1319  PVPG      H14R           11.9658235354       33.8112562314       -3.3297685054  MEMB      59              0.0000000000
     46266      1319  PVPG      H14S           13.1718454503       32.5135830800       -3.5220171928  MEMB      59              0.0000000000
     46267      1319  PVPG      C215           11.0601023199       31.7817501617       -3.1347915706  MEMB      59              0.0000000000
     46268      1319  PVPG      H15R           11.1721585816       30.7585569412       -3.5358022893  MEMB      59              0.0000000000
     46269      1319  PVPG      H15S           10.0330734411       32.1251191939       -3.2351662007  MEMB      59              0.0000000000
     46270      1319  PVPG      C216           11.1103400358       31.6580729210       -1.6467361119  MEMB      59              0.0000000000
     46271      1319  PVPG      H16R           11.0414894771       32.6912911264       -1.2585738741  MEMB      59              0.0000000000
     46272      1319  PVPG      H16S           12.1192711933       31.2523475312       -1.6191212867  MEMB      59              0.0000000000
     46273      1319  PVPG      C217           10.2791685348       30.6419706349       -0.8631784301  MEMB      59              0.0000000000
     46274      1319  PVPG      H17R           10.3226856081       29.6952485944       -1.4288612730  MEMB      59              0.0000000000
     46275      1319  PVPG      H17S            9.2975148825       31.1232712692       -0.8631380090  MEMB      59              0.0000000000
     46276      1319  PVPG      C218           10.3239923908       30.3320214975        0.6470378395  MEMB      59              0.0000000000
     46277      1319  PVPG      H18R           11.1448121384       30.5523555918        1.3415557093  MEMB      59              0.0000000000
     46278      1319  PVPG      H18S            9.8488739344       29.5150648446        1.1242906936  MEMB      59              0.0000000000
     46279      1319  PVPG      H18T           11.3382786381       30.1886686775        1.1351032940  MEMB      59              0.0000000000
     46280      1319  PVPG      C33             7.2199771356       37.6089312746      -11.8945661051  MEMB      59              0.0000000000
     46281      1319  PVPG      H3X             7.5868522964       38.5992190862      -11.5214494621  MEMB      59              0.0000000000
     46282      1319  PVPG      H3Y             8.1720772311       37.7302091498      -12.3934253095  MEMB      59              0.0000000000
     46283      1319  PVPG      C34             7.2815768979       36.7613536450      -10.6181094803  MEMB      59              0.0000000000
     46284      1319  PVPG      H4X             7.1444536421       35.7066984803      -10.8466890041  MEMB      59              0.0000000000
     46285      1319  PVPG      H4Y             6.3481496700       37.0244821357      -10.1544750837  MEMB      59              0.0000000000
     46286      1319  PVPG      C35             8.1162313245       37.1658750167       -9.3817202459  MEMB      59              0.0000000000
     46287      1319  PVPG      H5X             7.6653798181       38.0627049367       -8.9065427995  MEMB      59              0.0000000000
     46288      1319  PVPG      H5Y             9.1332630134       37.4333780939       -9.6885384981  MEMB      59              0.0000000000
     46289      1319  PVPG      C36             8.0657446069       36.1878354665       -8.1937026100  MEMB      59              0.0000000000
     46290      1319  PVPG      H6X             7.0151123729       36.1208603801       -7.8461459426  MEMB      59              0.0000000000
     46291      1319  PVPG      H6Y             8.6299209045       36.6547716005       -7.3493274502  MEMB      59              0.0000000000
     46292      1319  PVPG      C37             8.6388358741       34.8039066099       -8.5177225360  MEMB      59              0.0000000000
     46293      1319  PVPG      H7X             9.6878173743       34.9807269040       -8.8480977667  MEMB      59              0.0000000000
     46294      1319  PVPG      H7Y             8.1230605378       34.3011958367       -9.3658022741  MEMB      59              0.0000000000
     46295      1319  PVPG      C38             8.7392583114       33.8739036163       -7.3044236558  MEMB      59              0.0000000000
     46296      1319  PVPG      H8X             8.9300749177       34.4724840868       -6.3901303690  MEMB      59              0.0000000000
     46297      1319  PVPG      H8Y             9.6075472805       33.1918635732       -7.4652852265  MEMB      59              0.0000000000
     46298      1319  PVPG      C39             7.5379081816       32.9860578648       -7.0059320929  MEMB      59              0.0000000000
     46299      1319  PVPG      H9X             7.2367063026       32.4370482704       -7.9283437912  MEMB      59              0.0000000000
     46300      1319  PVPG      H9Y             6.6772954883       33.6070039188       -6.6923678111  MEMB      59              0.0000000000
     46301      1319  PVPG      C310            7.8747252466       32.0445896818       -5.8400033314  MEMB      59              0.0000000000
     46302      1319  PVPG      H10X            8.8209247961       31.5067996978       -6.0241572887  MEMB      59              0.0000000000
     46303      1319  PVPG      H10Y            7.0455703249       31.3024725444       -5.7414398795  MEMB      59              0.0000000000
     46304      1319  PVPG      C311            8.0239354974       32.7107403700       -4.4766283546  MEMB      59              0.0000000000
     46305      1319  PVPG      H11X            8.8532084372       33.4214352696       -4.2705692725  MEMB      59              0.0000000000
     46306      1319  PVPG      H11Y            8.1040327396       31.8764548637       -3.7375325287  MEMB      59              0.0000000000
     46307      1319  PVPG      C312            6.7927820910       33.4337066843       -4.1571949399  MEMB      59              0.0000000000
     46308      1319  PVPG      H12X            5.9414730658       32.8507880617       -4.6187413683  MEMB      59              0.0000000000
     46309      1319  PVPG      H12Y            6.7360945159       34.4894104103       -4.5367558091  MEMB      59              0.0000000000
     46310      1319  PVPG      C313            6.6619803036       33.4563144836       -2.6565628637  MEMB      59              0.0000000000
     46311      1319  PVPG      H13X            6.5411190654       32.5507016390       -2.0528976594  MEMB      59              0.0000000000
     46312      1319  PVPG      H13Y            5.6655835375       33.6065646146       -2.9675422999  MEMB      59              0.0000000000
     46313      1319  PVPG      C314            7.4786452547       34.5569412114       -1.9858415043  MEMB      59              0.0000000000
     46314      1319  PVPG      H14X            7.4935805864       35.5054953501       -2.5676712312  MEMB      59              0.0000000000
     46315      1319  PVPG      H14Y            8.5023111538       34.1196715550       -1.9503118693  MEMB      59              0.0000000000
     46316      1319  PVPG      C315            7.3901339615       34.9029140867       -0.5036626026  MEMB      59              0.0000000000
     46317      1319  PVPG      H15X            8.2322469013       35.6012291032       -0.4831947231  MEMB      59              0.0000000000
     46318      1319  PVPG      H15Y            7.2995151399       34.0405746582        0.2039615738  MEMB      59              0.0000000000
     46319      1319  PVPG      C316            6.4205269916       35.8712650417       -0.0620789530  MEMB      59              0.0000000000
     46320      1319  PVPG      H16X            6.3907675598       36.7339946846       -0.6849417181  MEMB      59              0.0000000000
     46321      1319  PVPG      H16Y            5.7023118863       35.0774556296       -0.2486401799  MEMB      59              0.0000000000
     46322      1319  PVPG      H16Z            6.1865865052       36.3278453435        0.9050847771  MEMB      59              0.0000000000
     46323      1320  PPPE      N              18.2735474960      -26.1501759311      -20.7209577463  MEMB      60              0.0000000000
     46324      1320  PPPE      HN1            17.2386877820      -26.2338899309      -20.7748907776  MEMB      60              0.0000000000
     46325      1320  PPPE      HN2            18.5446316565      -25.7590667446      -19.7948116606  MEMB      60              0.0000000000
     46326      1320  PPPE      HN3            18.6581343007      -25.5290754228      -21.4669329553  MEMB      60              0.0000000000
     46327      1320  PPPE      C12            18.8793023813      -27.5337091747      -20.7949284832  MEMB      60              0.0000000000
     46328      1320  PPPE      H12A           18.8468202235      -27.8331883334      -21.8630116707  MEMB      60              0.0000000000
     46329      1320  PPPE      H12B           18.2168422672      -28.2072191258      -20.2099001100  MEMB      60              0.0000000000
     46330      1320  PPPE      C11            20.3496374013      -27.5829595014      -20.3049997068  MEMB      60              0.0000000000
     46331      1320  PPPE      H11A           20.9526926382      -26.8433147568      -20.8810266994  MEMB      60              0.0000000000
     46332      1320  PPPE      H11B           20.7754250437      -28.5795755914      -20.5808541755  MEMB      60              0.0000000000
     46333      1320  PPPE      P              21.5959832798      -28.1617497940      -18.0589688576  MEMB      60              0.0000000000
     46334      1320  PPPE      O13            21.0565086432      -29.4790214991      -17.6548613322  MEMB      60              0.0000000000
     46335      1320  PPPE      O14            22.8681625812      -28.1827700533      -18.8230531396  MEMB      60              0.0000000000
     46336      1320  PPPE      O11            21.7963883592      -27.2761065754      -16.7813839680  MEMB      60              0.0000000000
     46337      1320  PPPE      O12            20.4701251537      -27.3328108017      -18.8951316871  MEMB      60              0.0000000000
     46338      1320  PPPE      C1             21.6328234833      -25.8669800934      -16.7461236708  MEMB      60              0.0000000000
     46339      1320  PPPE      HA             21.1905850616      -25.4659390985      -17.6838965424  MEMB      60              0.0000000000
     46340      1320  PPPE      HB             22.6410486580      -25.4159339907      -16.6144584396  MEMB      60              0.0000000000
     46341      1320  PPPE      C2             20.7014117428      -25.5193790443      -15.5653744231  MEMB      60              0.0000000000
     46342      1320  PPPE      HS             20.5261178702      -24.4323007994      -15.4424476332  MEMB      60              0.0000000000
     46343      1320  PPPE      O21            21.3738101873      -26.0432684403      -14.3953453667  MEMB      60              0.0000000000
     46344      1320  PPPE      C21            20.7965023663      -26.0356801943      -13.2291449236  MEMB      60              0.0000000000
     46345      1320  PPPE      O22            19.6530833950      -25.6868405037      -12.9973814722  MEMB      60              0.0000000000
     46346      1320  PPPE      C22            21.8616332462      -26.4067848692      -12.1632765086  MEMB      60              0.0000000000
     46347      1320  PPPE      H2R            22.7117139879      -25.7124194777      -12.2039684211  MEMB      60              0.0000000000
     46348      1320  PPPE      H2S            22.3550887588      -27.3465667772      -12.4443826859  MEMB      60              0.0000000000
     46349      1320  PPPE      C3             19.3040160246      -26.1317875826      -15.8551623689  MEMB      60              0.0000000000
     46350      1320  PPPE      HX             18.5165990708      -25.5601355436      -15.3144925618  MEMB      60              0.0000000000
     46351      1320  PPPE      HY             19.0904229946      -26.0370999611      -16.9486258072  MEMB      60              0.0000000000
     46352      1320  PPPE      O31            19.3306630039      -27.4912079796      -15.4357028908  MEMB      60              0.0000000000
     46353      1320  PPPE      C31            18.2009360224      -28.1018389996      -15.5500029698  MEMB      60              0.0000000000
     46354      1320  PPPE      O32            17.2379020263      -27.7428919908      -16.1924373438  MEMB      60              0.0000000000
     46355      1320  PPPE      C32            18.2609618451      -29.3969758553      -14.8421055568  MEMB      60              0.0000000000
     46356      1320  PPPE      H2X            19.0969755671      -29.3553362881      -14.1212704487  MEMB      60              0.0000000000
     46357      1320  PPPE      H2Y            18.6262238248      -30.0300302308      -15.6828074535  MEMB      60              0.0000000000
     46358      1320  PPPE      C23            21.2837664943      -26.5616106686      -10.7325927080  MEMB      60              0.0000000000
     46359      1320  PPPE      H3R            21.9126735282      -27.2582408695      -10.1417039635  MEMB      60              0.0000000000
     46360      1320  PPPE      H3S            20.2370343498      -26.9244003395      -10.8013219330  MEMB      60              0.0000000000
     46361      1320  PPPE      C24            21.2704948790      -25.2898510663       -9.9142403012  MEMB      60              0.0000000000
     46362      1320  PPPE      H4R            21.4692546857      -24.5404055498      -10.6805773895  MEMB      60              0.0000000000
     46363      1320  PPPE      H4S            22.0620271822      -25.2546633037       -9.1288448267  MEMB      60              0.0000000000
     46364      1320  PPPE      C25            19.9344000293      -24.9393763193       -9.2780428112  MEMB      60              0.0000000000
     46365      1320  PPPE      H5R            19.1746267433      -24.7532473212      -10.0720676812  MEMB      60              0.0000000000
     46366      1320  PPPE      H5S            20.1400674641      -23.9903294986       -8.7274893096  MEMB      60              0.0000000000
     46367      1320  PPPE      C26            19.4205298577      -26.0470473210       -8.3530936203  MEMB      60              0.0000000000
     46368      1320  PPPE      H6R            20.1977437869      -26.2685180049       -7.5898025035  MEMB      60              0.0000000000
     46369      1320  PPPE      H6S            19.2355351260      -26.9736054433       -8.9307307287  MEMB      60              0.0000000000
     46370      1320  PPPE      C27            18.1047904373      -25.7104213854       -7.6673537844  MEMB      60              0.0000000000
     46371      1320  PPPE      H7R            17.7511413547      -26.5581588517       -7.0436538267  MEMB      60              0.0000000000
     46372      1320  PPPE      H7S            17.3149444315      -25.4940411470       -8.4275497076  MEMB      60              0.0000000000
     46373      1320  PPPE      C28            18.2658448368      -24.5310826070       -6.7391763914  MEMB      60              0.0000000000
     46374      1320  PPPE      H8R            17.2381340482      -24.2704337625       -6.4704535814  MEMB      60              0.0000000000
     46375      1320  PPPE      H8S            18.7407059594      -23.6929037652       -7.2950588629  MEMB      60              0.0000000000
     46376      1320  PPPE      C29            18.9927256625      -24.8004186043       -5.4878361774  MEMB      60              0.0000000000
     46377      1320  PPPE      H91            20.0737676814      -24.6736635507       -5.6014227182  MEMB      60              0.0000000000
     46378      1320  PPPE      C210           18.4463129661      -25.1136090323       -4.3023656360  MEMB      60              0.0000000000
     46379      1320  PPPE      H101           19.1411244486      -25.2627084085       -3.4787686332  MEMB      60              0.0000000000
     46380      1320  PPPE      C211           16.9931419623      -25.2754311460       -3.9136624886  MEMB      60              0.0000000000
     46381      1320  PPPE      H11R           16.3043144291      -25.4002915630       -4.7843826612  MEMB      60              0.0000000000
     46382      1320  PPPE      H11S           16.6830557347      -24.3210037156       -3.4432552037  MEMB      60              0.0000000000
     46383      1320  PPPE      C212           16.6460576702      -26.4721420638       -2.9926352833  MEMB      60              0.0000000000
     46384      1320  PPPE      H12R           16.8391999425      -27.3718597462       -3.6108955366  MEMB      60              0.0000000000
     46385      1320  PPPE      H12S           15.5580581927      -26.5187457029       -2.7862694111  MEMB      60              0.0000000000
     46386      1320  PPPE      C213           17.3185401697      -26.5139246194       -1.6019134715  MEMB      60              0.0000000000
     46387      1320  PPPE      H13R           18.4046998001      -26.7013668013       -1.7225182080  MEMB      60              0.0000000000
     46388      1320  PPPE      H13S           16.9299002309      -27.3901430328       -1.0337389614  MEMB      60              0.0000000000
     46389      1320  PPPE      C214           17.1813543954      -25.2114626946       -0.7788492235  MEMB      60              0.0000000000
     46390      1320  PPPE      H14R           17.0282173431      -24.3493003798       -1.4531338512  MEMB      60              0.0000000000
     46391      1320  PPPE      H14S           18.1370259344      -25.0198320879       -0.2412282478  MEMB      60              0.0000000000
     46392      1320  PPPE      C215           16.1155029062      -25.2295943689        0.3110776918  MEMB      60              0.0000000000
     46393      1320  PPPE      H15R           15.1953202746      -25.7277679739       -0.0490651137  MEMB      60              0.0000000000
     46394      1320  PPPE      H15S           15.8546938923      -24.1946879780        0.6493661517  MEMB      60              0.0000000000
     46395      1320  PPPE      C216           16.5986822787      -25.9898824544        1.5257948873  MEMB      60              0.0000000000
     46396      1320  PPPE      H16R           15.9867823843      -25.6616652564        2.3645047614  MEMB      60              0.0000000000
     46397      1320  PPPE      H16S           16.5227050167      -27.0844512953        1.3503622036  MEMB      60              0.0000000000
     46398      1320  PPPE      H16T           17.6162727690      -25.7217338646        1.8500870713  MEMB      60              0.0000000000
     46399      1320  PPPE      C33            16.8633553809      -29.7228594835      -14.1651347321  MEMB      60              0.0000000000
     46400      1320  PPPE      H3X            16.0830239411      -29.9309462456      -14.9298002109  MEMB      60              0.0000000000
     46401      1320  PPPE      H3Y            16.6883622290      -28.8860973008      -13.4718776764  MEMB      60              0.0000000000
     46402      1320  PPPE      C34            16.6412042887      -30.8137442915      -13.1278571918  MEMB      60              0.0000000000
     46403      1320  PPPE      H4X            16.3316131162      -31.6314956493      -13.8322768395  MEMB      60              0.0000000000
     46404      1320  PPPE      H4Y            15.7627788703      -31.2167454746      -12.6217469488  MEMB      60              0.0000000000
     46405      1320  PPPE      C35            17.7818956037      -30.7806737819      -12.0681937311  MEMB      60              0.0000000000
     46406      1320  PPPE      H5X            18.8650644545      -30.7299276529      -12.3691722760  MEMB      60              0.0000000000
     46407      1320  PPPE      H5Y            17.5851926670      -31.6151916365      -11.3925292709  MEMB      60              0.0000000000
     46408      1320  PPPE      C36            17.8140694679      -29.6443387933      -11.1334824080  MEMB      60              0.0000000000
     46409      1320  PPPE      H6X            16.7209568855      -29.5658345700      -10.9522699668  MEMB      60              0.0000000000
     46410      1320  PPPE      H6Y            18.2898207229      -28.8477735348      -11.7422940361  MEMB      60              0.0000000000
     46411      1320  PPPE      C37            18.6463284639      -29.9063618284       -9.8794748077  MEMB      60              0.0000000000
     46412      1320  PPPE      H7X            18.5782124668      -28.9914051659       -9.2619750482  MEMB      60              0.0000000000
     46413      1320  PPPE      H7Y            19.7224751391      -30.1426211935      -10.0476335533  MEMB      60              0.0000000000
     46414      1320  PPPE      C38            18.0243580293      -30.9571068875       -9.0118240756  MEMB      60              0.0000000000
     46415      1320  PPPE      H8X            18.0774814693      -31.9879486412       -9.4667679799  MEMB      60              0.0000000000
     46416      1320  PPPE      H8Y            16.9512998174      -30.7219083235       -8.9739129388  MEMB      60              0.0000000000
     46417      1320  PPPE      C39            18.7138374462      -31.0425502110       -7.6447686676  MEMB      60              0.0000000000
     46418      1320  PPPE      H9X            19.8090186301      -31.0670615011       -7.7647392260  MEMB      60              0.0000000000
     46419      1320  PPPE      H9Y            18.3547329588      -31.9797709063       -7.2569181236  MEMB      60              0.0000000000
     46420      1320  PPPE      C310           18.5550579674      -30.1134776139       -6.4815839716  MEMB      60              0.0000000000
     46421      1320  PPPE      H10X           17.4811315638      -29.8815903806       -6.3781733579  MEMB      60              0.0000000000
     46422      1320  PPPE      H10Y           19.1403487102      -29.2258496478       -6.7897081719  MEMB      60              0.0000000000
     46423      1320  PPPE      C311           19.1831221484      -30.6665303256       -5.1686372124  MEMB      60              0.0000000000
     46424      1320  PPPE      H11X           20.2329806665      -31.0074890399       -5.3251253855  MEMB      60              0.0000000000
     46425      1320  PPPE      H11Y           18.6396904646      -31.5634088981       -4.7923770075  MEMB      60              0.0000000000
     46426      1320  PPPE      C312           19.2390339181      -29.5390060651       -4.1280926149  MEMB      60              0.0000000000
     46427      1320  PPPE      H12X           18.2001664623      -29.2230855671       -3.9023762006  MEMB      60              0.0000000000
     46428      1320  PPPE      H12Y           19.7547040967      -28.6648651975       -4.5923771306  MEMB      60              0.0000000000
     46429      1320  PPPE      C313           20.0223622355      -29.8583924239       -2.8508722122  MEMB      60              0.0000000000
     46430      1320  PPPE      H13X           20.1895569062      -28.9181526550       -2.2722232186  MEMB      60              0.0000000000
     46431      1320  PPPE      H13Y           21.0151930377      -30.2698435688       -3.1123373568  MEMB      60              0.0000000000
     46432      1320  PPPE      C314           19.3376067747      -30.8155363576       -1.9043412444  MEMB      60              0.0000000000
     46433      1320  PPPE      H14X           20.0525700393      -31.1227760398       -1.1021159122  MEMB      60              0.0000000000
     46434      1320  PPPE      H14Y           18.9344401204      -31.7325495944       -2.3894723889  MEMB      60              0.0000000000
     46435      1320  PPPE      C315           18.2244060383      -30.1211640174       -1.2113482737  MEMB      60              0.0000000000
     46436      1320  PPPE      H15X           17.3508469730      -29.9215816927       -1.8744477341  MEMB      60              0.0000000000
     46437      1320  PPPE      H15Y           18.4967291398      -29.1302287119       -0.7648502335  MEMB      60              0.0000000000
     46438      1320  PPPE      C316           17.8088867062      -30.9978183721       -0.1005561262  MEMB      60              0.0000000000
     46439      1320  PPPE      H16X           18.5315765576      -31.1259191357        0.7390966938  MEMB      60              0.0000000000
     46440      1320  PPPE      H16Y           17.0288036323      -30.2752658070        0.1936598338  MEMB      60              0.0000000000
     46441      1320  PPPE      H16Z           17.3684606353      -31.9917959561       -0.3223750202  MEMB      60              0.0000000000
     46442      1321  PPPE      N             -30.1021944032       14.9307455503      -17.3595767690  MEMB      61              0.0000000000
     46443      1321  PPPE      HN1           -31.0362553463       15.2812286500      -17.0635086556  MEMB      61              0.0000000000
     46444      1321  PPPE      HN2           -29.8183880253       14.1077627012      -16.7923036507  MEMB      61              0.0000000000
     46445      1321  PPPE      HN3           -29.4457763191       15.7227069191      -17.2214428031  MEMB      61              0.0000000000
     46446      1321  PPPE      C12           -30.1668690970       14.5606492897      -18.8196820620  MEMB      61              0.0000000000
     46447      1321  PPPE      H12A          -31.0855006838       13.9596197874      -18.9947777528  MEMB      61              0.0000000000
     46448      1321  PPPE      H12B          -29.2820856098       13.9624114792      -19.1064869015  MEMB      61              0.0000000000
     46449      1321  PPPE      C11           -30.2470565983       15.8302782532      -19.6530067351  MEMB      61              0.0000000000
     46450      1321  PPPE      H11A          -30.1820046804       15.5158479895      -20.7229791603  MEMB      61              0.0000000000
     46451      1321  PPPE      H11B          -29.3950316590       16.5180290819      -19.4234141866  MEMB      61              0.0000000000
     46452      1321  PPPE      P             -31.8626595706       17.9313778187      -19.2815723241  MEMB      61              0.0000000000
     46453      1321  PPPE      O13           -31.6041115218       18.5856663296      -20.5825969913  MEMB      61              0.0000000000
     46454      1321  PPPE      O14           -33.1948913903       18.0902874478      -18.6731961836  MEMB      61              0.0000000000
     46455      1321  PPPE      O11           -30.7432557944       18.3812302426      -18.2734505291  MEMB      61              0.0000000000
     46456      1321  PPPE      O12           -31.5189504965       16.3961299344      -19.3966389497  MEMB      61              0.0000000000
     46457      1321  PPPE      C1            -30.7651748534       19.7410458329      -17.8044383315  MEMB      61              0.0000000000
     46458      1321  PPPE      HA            -31.6842638993       19.9624667077      -17.2032057573  MEMB      61              0.0000000000
     46459      1321  PPPE      HB            -30.7120225888       20.4808866924      -18.6363632129  MEMB      61              0.0000000000
     46460      1321  PPPE      C2            -29.5688620137       19.9602265710      -16.8666837339  MEMB      61              0.0000000000
     46461      1321  PPPE      HS            -28.6515044626       20.0060178858      -17.5000950622  MEMB      61              0.0000000000
     46462      1321  PPPE      O21           -29.5525605902       18.8058500547      -16.0024878402  MEMB      61              0.0000000000
     46463      1321  PPPE      C21           -28.5303362057       18.6369996819      -15.2247482585  MEMB      61              0.0000000000
     46464      1321  PPPE      O22           -27.5402424244       19.3377424562      -15.1610698407  MEMB      61              0.0000000000
     46465      1321  PPPE      C22           -28.7329575883       17.3033442399      -14.4946665032  MEMB      61              0.0000000000
     46466      1321  PPPE      H2R           -28.0104160742       16.5779139485      -14.9315888306  MEMB      61              0.0000000000
     46467      1321  PPPE      H2S           -29.7758274990       16.9551206994      -14.5624084276  MEMB      61              0.0000000000
     46468      1321  PPPE      C3            -29.7140404344       21.3184211100      -16.1050540777  MEMB      61              0.0000000000
     46469      1321  PPPE      HX            -28.7828557712       21.5677771251      -15.5524929546  MEMB      61              0.0000000000
     46470      1321  PPPE      HY            -29.7898008877       22.1072260869      -16.8889834902  MEMB      61              0.0000000000
     46471      1321  PPPE      O31           -30.9151351051       21.3980110402      -15.3011278729  MEMB      61              0.0000000000
     46472      1321  PPPE      C31           -30.7867591580       21.0527655891      -14.0222780845  MEMB      61              0.0000000000
     46473      1321  PPPE      O32           -29.7557780268       20.6807358003      -13.4888245821  MEMB      61              0.0000000000
     46474      1321  PPPE      C32           -32.1153710084       21.2743864248      -13.2740259729  MEMB      61              0.0000000000
     46475      1321  PPPE      H2X           -32.9481399089       20.7444477995      -13.7343876426  MEMB      61              0.0000000000
     46476      1321  PPPE      H2Y           -32.5431603484       22.2346829395      -13.5238463670  MEMB      61              0.0000000000
     46477      1321  PPPE      C23           -28.5186879265       17.4593317204      -12.9889906853  MEMB      61              0.0000000000
     46478      1321  PPPE      H3R           -29.3151781437       18.0539064803      -12.5083631727  MEMB      61              0.0000000000
     46479      1321  PPPE      H3S           -27.6781153256       18.1921142010      -12.9880368990  MEMB      61              0.0000000000
     46480      1321  PPPE      C24           -28.3632992845       16.0696331704      -12.2598857993  MEMB      61              0.0000000000
     46481      1321  PPPE      H4R           -27.6278126312       15.4831598977      -12.8767571343  MEMB      61              0.0000000000
     46482      1321  PPPE      H4S           -29.2264583228       15.4224970695      -12.3088032739  MEMB      61              0.0000000000
     46483      1321  PPPE      C25           -28.0205973869       16.0249244137      -10.7227213550  MEMB      61              0.0000000000
     46484      1321  PPPE      H5R           -26.9334714571       15.8903985553      -10.7429393460  MEMB      61              0.0000000000
     46485      1321  PPPE      H5S           -27.9937221673       15.0641024756      -10.2032324140  MEMB      61              0.0000000000
     46486      1321  PPPE      C26           -28.7373458804       17.1405191094       -9.8297855146  MEMB      61              0.0000000000
     46487      1321  PPPE      H6R           -29.7941332128       16.8917760062       -9.9066841361  MEMB      61              0.0000000000
     46488      1321  PPPE      H6S           -28.7567827530       18.1729068930      -10.2630215136  MEMB      61              0.0000000000
     46489      1321  PPPE      C27           -28.4100744580       17.3843704775       -8.3136230855  MEMB      61              0.0000000000
     46490      1321  PPPE      H7R           -27.3902260923       17.5460512808       -7.9475507390  MEMB      61              0.0000000000
     46491      1321  PPPE      H7S           -28.4426328008       16.4609936793       -7.7417469945  MEMB      61              0.0000000000
     46492      1321  PPPE      C28           -28.9629401893       18.7274747112       -7.8355564469  MEMB      61              0.0000000000
     46493      1321  PPPE      H8R           -30.0399450782       18.6319179967       -7.9129884862  MEMB      61              0.0000000000
     46494      1321  PPPE      H8S           -28.6621855279       19.6385482466       -8.4267186044  MEMB      61              0.0000000000
     46495      1321  PPPE      C29           -28.5314030064       18.7765126114       -6.4204325564  MEMB      61              0.0000000000
     46496      1321  PPPE      H91           -27.4772233523       18.9898051456       -6.2564611487  MEMB      61              0.0000000000
     46497      1321  PPPE      C210          -29.0713883214       18.2193921485       -5.3972937289  MEMB      61              0.0000000000
     46498      1321  PPPE      H101          -28.5263682142       18.4030134709       -4.4659060061  MEMB      61              0.0000000000
     46499      1321  PPPE      C211          -30.2923796991       17.3693453559       -5.3521109996  MEMB      61              0.0000000000
     46500      1321  PPPE      H11R          -30.9734726795       17.6498077621       -6.1642860634  MEMB      61              0.0000000000
     46501      1321  PPPE      H11S          -30.7408114546       17.7420054794       -4.4224063036  MEMB      61              0.0000000000
     46502      1321  PPPE      C212          -30.2824178817       15.8048458755       -5.4452744127  MEMB      61              0.0000000000
     46503      1321  PPPE      H12R          -29.6126412767       15.3670014750       -6.2515653304  MEMB      61              0.0000000000
     46504      1321  PPPE      H12S          -31.3007033318       15.4139598150       -5.3439767131  MEMB      61              0.0000000000
     46505      1321  PPPE      C213          -30.0721983834       14.9095356975       -4.2261343953  MEMB      61              0.0000000000
     46506      1321  PPPE      H13R          -28.9978648373       15.1354058160       -4.5350055624  MEMB      61              0.0000000000
     46507      1321  PPPE      H13S          -29.5025765064       14.0200542844       -4.1455215222  MEMB      61              0.0000000000
     46508      1321  PPPE      C214          -30.6823484874       15.1842181633       -2.7488422037  MEMB      61              0.0000000000
     46509      1321  PPPE      H14R          -31.6713733562       15.3258039386       -2.2743915484  MEMB      61              0.0000000000
     46510      1321  PPPE      H14S          -30.7272249846       16.4201694640       -2.8450346464  MEMB      61              0.0000000000
     46511      1321  PPPE      C215          -29.5883430965       14.3104915834       -1.4766673015  MEMB      61              0.0000000000
     46512      1321  PPPE      H15R          -29.2594059422       13.5661942144       -0.9706888871  MEMB      61              0.0000000000
     46513      1321  PPPE      H15S          -30.3938271282       14.7654504417       -0.8176101244  MEMB      61              0.0000000000
     46514      1321  PPPE      C216          -27.5170049865       14.6218260426       -1.0636713077  MEMB      61              0.0000000000
     46515      1321  PPPE      H16R          -26.9358415338       14.4567909704       -0.1068252648  MEMB      61              0.0000000000
     46516      1321  PPPE      H16S          -26.8326414629       14.9062229460       -1.7533996165  MEMB      61              0.0000000000
     46517      1321  PPPE      H16T          -27.1791393422       15.6764565941       -0.7843128572  MEMB      61              0.0000000000
     46518      1321  PPPE      C33           -31.9704505419       21.0989354843      -11.7384794270  MEMB      61              0.0000000000
     46519      1321  PPPE      H3X           -32.7673534225       21.6426057109      -11.1894057959  MEMB      61              0.0000000000
     46520      1321  PPPE      H3Y           -30.9874321437       21.4764949598      -11.3545391446  MEMB      61              0.0000000000
     46521      1321  PPPE      C34           -32.2371001568       19.6599589787      -11.3304389682  MEMB      61              0.0000000000
     46522      1321  PPPE      H4X           -31.4632284211       19.0334857092      -11.8242152542  MEMB      61              0.0000000000
     46523      1321  PPPE      H4Y           -33.2434044045       19.3510569852      -11.6962198684  MEMB      61              0.0000000000
     46524      1321  PPPE      C35           -32.1897902140       19.4692748386       -9.8136795851  MEMB      61              0.0000000000
     46525      1321  PPPE      H5X           -31.3252658407       20.0586577851       -9.4387195034  MEMB      61              0.0000000000
     46526      1321  PPPE      H5Y           -31.9450538853       18.3975819052       -9.6280847048  MEMB      61              0.0000000000
     46527      1321  PPPE      C36           -33.4740283389       19.9091404386       -9.0677810899  MEMB      61              0.0000000000
     46528      1321  PPPE      H6X           -34.3901759154       19.4704405767       -9.5169758708  MEMB      61              0.0000000000
     46529      1321  PPPE      H6Y           -33.6084797383       21.0124907450       -9.1356547998  MEMB      61              0.0000000000
     46530      1321  PPPE      C37           -33.4186652742       19.5517384327       -7.5757673271  MEMB      61              0.0000000000
     46531      1321  PPPE      H7X           -33.1736082579       18.4697908635       -7.4952599239  MEMB      61              0.0000000000
     46532      1321  PPPE      H7Y           -34.4076418303       19.7107687671       -7.1003984681  MEMB      61              0.0000000000
     46533      1321  PPPE      C38           -32.4125967216       20.4706248526       -6.8716200687  MEMB      61              0.0000000000
     46534      1321  PPPE      H8X           -32.6510770227       21.5120123159       -7.1890215493  MEMB      61              0.0000000000
     46535      1321  PPPE      H8Y           -31.3844273944       20.2106872130       -7.1990424940  MEMB      61              0.0000000000
     46536      1321  PPPE      C39           -32.3796738563       20.4164890436       -5.3557840911  MEMB      61              0.0000000000
     46537      1321  PPPE      H9X           -32.1503834101       19.3924369313       -5.0004678939  MEMB      61              0.0000000000
     46538      1321  PPPE      H9Y           -33.2844639132       20.7393004090       -4.8629955882  MEMB      61              0.0000000000
     46539      1321  PPPE      C310          -31.4706960563       21.4320460089       -4.7187851737  MEMB      61              0.0000000000
     46540      1321  PPPE      H10X          -31.8719726891       22.4760526264       -4.7780808134  MEMB      61              0.0000000000
     46541      1321  PPPE      H10Y          -30.4892701423       21.4185179510       -5.2310300887  MEMB      61              0.0000000000
     46542      1321  PPPE      C311          -31.3412641033       21.0298359744       -3.2612465446  MEMB      61              0.0000000000
     46543      1321  PPPE      H11X          -30.6142819349       20.1878183120       -3.1996526000  MEMB      61              0.0000000000
     46544      1321  PPPE      H11Y          -32.2967161025       20.7497444383       -2.7695746606  MEMB      61              0.0000000000
     46545      1321  PPPE      C312          -30.7986579942       22.1774538515       -2.4947329590  MEMB      61              0.0000000000
     46546      1321  PPPE      H12X          -31.4909271589       23.0179186032       -2.3723933585  MEMB      61              0.0000000000
     46547      1321  PPPE      H12Y          -30.1234776501       22.6091462713       -3.2705391289  MEMB      61              0.0000000000
     46548      1321  PPPE      C313          -30.1550686860       21.6895232164       -1.1722271624  MEMB      61              0.0000000000
     46549      1321  PPPE      H13X          -29.5247932444       22.3825963958       -0.6707591349  MEMB      61              0.0000000000
     46550      1321  PPPE      H13Y          -29.4121112907       20.8976677643       -1.3340302751  MEMB      61              0.0000000000
     46551      1321  PPPE      C314          -30.9562330695       21.6380615893        0.1034655215  MEMB      61              0.0000000000
     46552      1321  PPPE      H14X          -31.5040396434       22.5617835282        0.2853452793  MEMB      61              0.0000000000
     46553      1321  PPPE      H14Y          -30.2683001830       21.7338729197        0.9750943794  MEMB      61              0.0000000000
     46554      1321  PPPE      C315          -31.6917268206       20.3357944374        0.1206246009  MEMB      61              0.0000000000
     46555      1321  PPPE      H15X          -32.3036269194       20.2320017865       -0.8016807441  MEMB      61              0.0000000000
     46556      1321  PPPE      H15Y          -32.3740469224       20.3338366810        0.9832967189  MEMB      61              0.0000000000
     46557      1321  PPPE      C316          -30.7000534537       19.1845973739        0.1690622887  MEMB      61              0.0000000000
     46558      1321  PPPE      H16X          -29.9708029874       19.3124269985        1.0015762404  MEMB      61              0.0000000000
     46559      1321  PPPE      H16Y          -31.2106444190       18.2195325518        0.2771823674  MEMB      61              0.0000000000
     46560      1321  PPPE      H16Z          -30.1360666151       19.1362191166       -0.7881340579  MEMB      61              0.0000000000
     46561      1322  PPPE      N              -4.3103233593      -34.3228234196      -18.0490650339  MEMB      62              0.0000000000
     46562      1322  PPPE      HN1            -5.3093992837      -34.0193548960      -18.0740341712  MEMB      62              0.0000000000
     46563      1322  PPPE      HN2            -4.2051470275      -35.3590394480      -17.9788625901  MEMB      62              0.0000000000
     46564      1322  PPPE      HN3            -3.8414223221      -33.8895580411      -17.2365414843  MEMB      62              0.0000000000
     46565      1322  PPPE      C12            -3.6073726722      -33.8235361460      -19.2779438311  MEMB      62              0.0000000000
     46566      1322  PPPE      H12A           -3.6927525375      -32.7251300309      -19.2527676389  MEMB      62              0.0000000000
     46567      1322  PPPE      H12B           -4.1474685420      -34.2115838198      -20.1674484713  MEMB      62              0.0000000000
     46568      1322  PPPE      C11            -2.1270265917      -34.2185056472      -19.3018322005  MEMB      62              0.0000000000
     46569      1322  PPPE      H11A           -1.6121579795      -33.9497856474      -18.3490561663  MEMB      62              0.0000000000
     46570      1322  PPPE      H11B           -1.6163633843      -33.6533750092      -20.1154156107  MEMB      62              0.0000000000
     46571      1322  PPPE      P              -0.7839607155      -36.4334475982      -19.1452310399  MEMB      62              0.0000000000
     46572      1322  PPPE      O13            -0.7855079895      -37.7155699256      -19.8788728269  MEMB      62              0.0000000000
     46573      1322  PPPE      O14             0.4121115568      -35.5592664723      -19.1438420718  MEMB      62              0.0000000000
     46574      1322  PPPE      O11            -1.1570969788      -36.7093521503      -17.6342158120  MEMB      62              0.0000000000
     46575      1322  PPPE      O12            -2.0542203701      -35.6005211120      -19.5884146667  MEMB      62              0.0000000000
     46576      1322  PPPE      C1             -0.0987306798      -37.1974291034      -16.8047919805  MEMB      62              0.0000000000
     46577      1322  PPPE      HA              0.6849158124      -36.4086163579      -16.6857251561  MEMB      62              0.0000000000
     46578      1322  PPPE      HB              0.3926604432      -38.1013265880      -17.2410148546  MEMB      62              0.0000000000
     46579      1322  PPPE      C2             -0.6082134505      -37.6792050852      -15.4175612161  MEMB      62              0.0000000000
     46580      1322  PPPE      HS             -1.3170655117      -38.5171552160      -15.5499378621  MEMB      62              0.0000000000
     46581      1322  PPPE      O21            -1.1921245120      -36.5717007362      -14.7011005957  MEMB      62              0.0000000000
     46582      1322  PPPE      C21            -2.3983517422      -36.2479186287      -15.0943330379  MEMB      62              0.0000000000
     46583      1322  PPPE      O22            -3.2007833925      -36.9395495082      -15.6897114427  MEMB      62              0.0000000000
     46584      1322  PPPE      C22            -2.6753305241      -34.8092337188      -14.7056458555  MEMB      62              0.0000000000
     46585      1322  PPPE      H2R            -3.5701804298      -34.4285650570      -15.2294536415  MEMB      62              0.0000000000
     46586      1322  PPPE      H2S            -1.8020230683      -34.2044179372      -15.0285273858  MEMB      62              0.0000000000
     46587      1322  PPPE      C3              0.5948783504      -38.2534487127      -14.6600495077  MEMB      62              0.0000000000
     46588      1322  PPPE      HX              0.3884512372      -38.5787469984      -13.6269558319  MEMB      62              0.0000000000
     46589      1322  PPPE      HY              1.0047129161      -39.1122791735      -15.2143668838  MEMB      62              0.0000000000
     46590      1322  PPPE      O31             1.5612574046      -37.2586257764      -14.7069528073  MEMB      62              0.0000000000
     46591      1322  PPPE      C31             1.3823777784      -36.4088876929      -13.7808055431  MEMB      62              0.0000000000
     46592      1322  PPPE      O32             0.8763862973      -36.5275769719      -12.6789115928  MEMB      62              0.0000000000
     46593      1322  PPPE      C32             2.4065936272      -35.5076227436      -14.1158047762  MEMB      62              0.0000000000
     46594      1322  PPPE      H2X             3.1940099798      -35.8723627531      -14.7915140329  MEMB      62              0.0000000000
     46595      1322  PPPE      H2Y             2.7539728756      -35.3294542264      -13.0923578164  MEMB      62              0.0000000000
     46596      1322  PPPE      C23            -2.8396435215      -34.7225880514      -13.1814845601  MEMB      62              0.0000000000
     46597      1322  PPPE      H3R            -2.8903957116      -33.6449645025      -12.9216605054  MEMB      62              0.0000000000
     46598      1322  PPPE      H3S            -1.9394779377      -35.1551981556      -12.6907054789  MEMB      62              0.0000000000
     46599      1322  PPPE      C24            -4.0818015541      -35.4118334321      -12.6054597503  MEMB      62              0.0000000000
     46600      1322  PPPE      H4R            -4.0495470173      -36.5229025607      -12.6669836698  MEMB      62              0.0000000000
     46601      1322  PPPE      H4S            -4.9870459672      -35.0416474486      -13.1412022025  MEMB      62              0.0000000000
     46602      1322  PPPE      C25            -4.3509475282      -34.9792232052      -11.1717120504  MEMB      62              0.0000000000
     46603      1322  PPPE      H5R            -5.2454161121      -35.4934465667      -10.8219821151  MEMB      62              0.0000000000
     46604      1322  PPPE      H5S            -4.5029694668      -33.8719797038      -11.2306898239  MEMB      62              0.0000000000
     46605      1322  PPPE      C26            -3.3456533870      -35.3116152269      -10.0905428514  MEMB      62              0.0000000000
     46606      1322  PPPE      H6R            -3.6385424450      -34.8904568391       -9.1420623170  MEMB      62              0.0000000000
     46607      1322  PPPE      H6S            -2.4772083489      -34.8427462287      -10.3708527798  MEMB      62              0.0000000000
     46608      1322  PPPE      C27            -3.0681784533      -36.7166266095       -9.6763320814  MEMB      62              0.0000000000
     46609      1322  PPPE      H7R            -2.4043109125      -37.1709157320      -10.4381628410  MEMB      62              0.0000000000
     46610      1322  PPPE      H7S            -4.0792691861      -37.1674465023       -9.6529042131  MEMB      62              0.0000000000
     46611      1322  PPPE      C28            -2.6241523867      -36.9327624772       -8.2081616266  MEMB      62              0.0000000000
     46612      1322  PPPE      H8R            -2.5790029348      -38.0302271373       -8.1535429869  MEMB      62              0.0000000000
     46613      1322  PPPE      H8S            -3.3492730757      -36.5245912344       -7.4932355377  MEMB      62              0.0000000000
     46614      1322  PPPE      C29            -1.4048376966      -36.4114739265       -7.6071161828  MEMB      62              0.0000000000
     46615      1322  PPPE      H91            -1.3189747080      -35.3204731836       -7.5917296808  MEMB      62              0.0000000000
     46616      1322  PPPE      C210           -0.6007841463      -36.9122258498       -6.7470816700  MEMB      62              0.0000000000
     46617      1322  PPPE      H101            0.1548562407      -36.2492070380       -6.3510669047  MEMB      62              0.0000000000
     46618      1322  PPPE      C211           -0.7092494137      -38.2008393658       -6.0864918109  MEMB      62              0.0000000000
     46619      1322  PPPE      H11R            0.1884492541      -38.7996387293       -6.1272229931  MEMB      62              0.0000000000
     46620      1322  PPPE      H11S           -1.5216874459      -38.8366535490       -6.4638207861  MEMB      62              0.0000000000
     46621      1322  PPPE      C212           -0.6622362495      -37.8430923616       -4.5867637087  MEMB      62              0.0000000000
     46622      1322  PPPE      H12R            0.2285590410      -37.4943727568       -4.0571711533  MEMB      62              0.0000000000
     46623      1322  PPPE      H12S           -0.4798166783      -38.9107156996       -4.3242482845  MEMB      62              0.0000000000
     46624      1322  PPPE      C213           -1.7086666517      -36.8056198534       -4.0131287042  MEMB      62              0.0000000000
     46625      1322  PPPE      H13R           -2.5238593033      -36.9973357704       -4.7457896920  MEMB      62              0.0000000000
     46626      1322  PPPE      H13S           -1.3946308118      -35.7730236642       -4.2224387226  MEMB      62              0.0000000000
     46627      1322  PPPE      C214           -2.0097409942      -36.8277530892       -2.4264670527  MEMB      62              0.0000000000
     46628      1322  PPPE      H14R           -1.1628319123      -37.3030903112       -1.8873634059  MEMB      62              0.0000000000
     46629      1322  PPPE      H14S           -2.8437822165      -37.4392561364       -2.0481339909  MEMB      62              0.0000000000
     46630      1322  PPPE      C215           -3.0281670790      -35.9548039662       -1.7040877957  MEMB      62              0.0000000000
     46631      1322  PPPE      H15R           -4.0400107709      -35.9904089111       -2.2099555382  MEMB      62              0.0000000000
     46632      1322  PPPE      H15S           -2.4427732809      -35.0538058319       -1.8037309403  MEMB      62              0.0000000000
     46633      1322  PPPE      C216           -3.1924656330      -36.4231552912       -0.2526134490  MEMB      62              0.0000000000
     46634      1322  PPPE      H16R           -2.1428058187      -36.6627494722        0.0774745427  MEMB      62              0.0000000000
     46635      1322  PPPE      H16S           -3.6510646992      -35.7736151594        0.4832582519  MEMB      62              0.0000000000
     46636      1322  PPPE      H16T           -3.8516240419      -37.3369278764       -0.2418193854  MEMB      62              0.0000000000
     46637      1322  PPPE      C33             2.0753071165      -34.1695875353      -14.5274315139  MEMB      62              0.0000000000
     46638      1322  PPPE      H3X             1.3085991677      -34.2332200431      -15.3306571814  MEMB      62              0.0000000000
     46639      1322  PPPE      H3Y             2.8046024733      -33.3387868919      -14.6245316904  MEMB      62              0.0000000000
     46640      1322  PPPE      C34             1.6248542684      -33.7602818767      -13.2553021447  MEMB      62              0.0000000000
     46641      1322  PPPE      H4X             0.6029454796      -34.2778057341      -13.2404293032  MEMB      62              0.0000000000
     46642      1322  PPPE      H4Y             1.0450992203      -33.0718528109      -13.9062545825  MEMB      62              0.0000000000
     46643      1322  PPPE      C35             2.5358599897      -33.1757134001      -11.6609583902  MEMB      62              0.0000000000
     46644      1322  PPPE      H5X             3.4633974400      -32.6669373165      -11.7195866293  MEMB      62              0.0000000000
     46645      1322  PPPE      H5Y             2.6502931156      -34.1651874539      -11.2132696163  MEMB      62              0.0000000000
     46646      1322  PPPE      C36             1.8903034403      -31.8020035388      -10.4716830530  MEMB      62              0.0000000000
     46647      1322  PPPE      H6X             0.7633205819      -31.7413648694      -10.3466485681  MEMB      62              0.0000000000
     46648      1322  PPPE      H6Y             1.6662701990      -30.7455206720      -10.7306821850  MEMB      62              0.0000000000
     46649      1322  PPPE      C37             1.5268412568      -31.6303708183       -9.1083602088  MEMB      62              0.0000000000
     46650      1322  PPPE      H7X             2.4302075625      -31.1670174234       -8.7448115321  MEMB      62              0.0000000000
     46651      1322  PPPE      H7Y             1.1744591293      -32.6288605277       -8.8849296756  MEMB      62              0.0000000000
     46652      1322  PPPE      C38             0.3074926901      -31.2870531129       -8.3991371962  MEMB      62              0.0000000000
     46653      1322  PPPE      H8X            -0.5395357823      -31.4559722318       -8.9937528888  MEMB      62              0.0000000000
     46654      1322  PPPE      H8Y             0.4297423330      -30.2133200000       -8.2286213462  MEMB      62              0.0000000000
     46655      1322  PPPE      C39            -0.2409164379      -32.1809466174       -7.1387691103  MEMB      62              0.0000000000
     46656      1322  PPPE      H9X            -0.7845218297      -33.1064943774       -7.2945686845  MEMB      62              0.0000000000
     46657      1322  PPPE      H9Y            -1.0313792531      -31.8750924842       -6.4335221020  MEMB      62              0.0000000000
     46658      1322  PPPE      C310            0.2633649141      -31.8552558303       -5.8652809848  MEMB      62              0.0000000000
     46659      1322  PPPE      H10X            0.5916567123      -30.8122960295       -5.6248823845  MEMB      62              0.0000000000
     46660      1322  PPPE      H10Y            0.9038504308      -31.9310275735       -6.6899719256  MEMB      62              0.0000000000
     46661      1322  PPPE      C311            0.2515893906      -33.1593028982       -4.9860175510  MEMB      62              0.0000000000
     46662      1322  PPPE      H11X           -0.0685093225      -34.0454750435       -5.5001438374  MEMB      62              0.0000000000
     46663      1322  PPPE      H11Y           -0.4739823289      -32.7564145831       -4.2749172036  MEMB      62              0.0000000000
     46664      1322  PPPE      C312            1.4580421548      -33.8950739516       -4.3201447918  MEMB      62              0.0000000000
     46665      1322  PPPE      H12X            1.8426492622      -33.3453360808       -3.4663204520  MEMB      62              0.0000000000
     46666      1322  PPPE      H12Y            2.4060891776      -34.0834757538       -4.8438747032  MEMB      62              0.0000000000
     46667      1322  PPPE      C313            1.3663964596      -34.8463697585       -3.3641496999  MEMB      62              0.0000000000
     46668      1322  PPPE      H13X            2.3050263005      -34.7733293098       -2.7768295805  MEMB      62              0.0000000000
     46669      1322  PPPE      H13Y            1.4181849215      -35.6606306754       -4.0842383831  MEMB      62              0.0000000000
     46670      1322  PPPE      C314            0.3078437120      -34.7324481624       -2.4127034047  MEMB      62              0.0000000000
     46671      1322  PPPE      H14X            0.2546142651      -35.7646616095       -2.0776426910  MEMB      62              0.0000000000
     46672      1322  PPPE      H14Y           -0.5251691967      -34.2633780790       -2.9575057409  MEMB      62              0.0000000000
     46673      1322  PPPE      C315            0.6603321035      -33.9311863826       -1.2250288361  MEMB      62              0.0000000000
     46674      1322  PPPE      H15X            0.5432683850      -33.0236957878       -1.6895786223  MEMB      62              0.0000000000
     46675      1322  PPPE      H15Y            1.7050956830      -33.9127735602       -0.9709297681  MEMB      62              0.0000000000
     46676      1322  PPPE      C316           -0.3509237127      -33.7410288295       -0.1613869781  MEMB      62              0.0000000000
     46677      1322  PPPE      H16X           -1.2817357814      -33.4439117019       -0.6901746479  MEMB      62              0.0000000000
     46678      1322  PPPE      H16Y           -0.3998395526      -34.6644062456        0.4247212448  MEMB      62              0.0000000000
     46679      1322  PPPE      H16Z           -0.0955819762      -32.8802527350        0.4838652474  MEMB      62              0.0000000000
     46680      1323  PPPE      N             -21.7378746925       27.7492094391      -17.1964285483  MEMB      63              0.0000000000
     46681      1323  PPPE      HN1           -22.4147573008       28.4381603101      -16.8081411340  MEMB      63              0.0000000000
     46682      1323  PPPE      HN2           -22.2571384189       27.0559166548      -17.7752573867  MEMB      63              0.0000000000
     46683      1323  PPPE      HN3           -21.2955549314       27.2578055120      -16.3960701697  MEMB      63              0.0000000000
     46684      1323  PPPE      C12           -20.5773197058       28.4205748893      -17.9067462702  MEMB      63              0.0000000000
     46685      1323  PPPE      H12A          -19.8753234729       27.6288104159      -18.2319368629  MEMB      63              0.0000000000
     46686      1323  PPPE      H12B          -20.0700145965       29.0650499967      -17.1537400339  MEMB      63              0.0000000000
     46687      1323  PPPE      C11           -20.9502498774       29.2754449195      -19.1256273291  MEMB      63              0.0000000000
     46688      1323  PPPE      H11A          -21.6511614587       30.0770739732      -18.7905556819  MEMB      63              0.0000000000
     46689      1323  PPPE      H11B          -21.4361591732       28.6733890411      -19.9278702518  MEMB      63              0.0000000000
     46690      1323  PPPE      P             -19.3112862084       31.3202091813      -19.5314647825  MEMB      63              0.0000000000
     46691      1323  PPPE      O13           -18.8871683435       31.5131694291      -18.1296320118  MEMB      63              0.0000000000
     46692      1323  PPPE      O14           -18.4213937381       31.7155834668      -20.6268108020  MEMB      63              0.0000000000
     46693      1323  PPPE      O11           -20.6911701013       32.0513855084      -19.7599707784  MEMB      63              0.0000000000
     46694      1323  PPPE      O12           -19.7529686572       29.8016148829      -19.6792656703  MEMB      63              0.0000000000
     46695      1323  PPPE      C1            -20.6829919774       33.4479147662      -19.4458958271  MEMB      63              0.0000000000
     46696      1323  PPPE      HA            -20.9946160103       34.0478764135      -20.3142545289  MEMB      63              0.0000000000
     46697      1323  PPPE      HB            -19.6832656552       33.8813414297      -19.1888328010  MEMB      63              0.0000000000
     46698      1323  PPPE      C2            -21.7030632433       33.7019748984      -18.3370770068  MEMB      63              0.0000000000
     46699      1323  PPPE      HS            -21.6559249687       34.8021112221      -18.0917686951  MEMB      63              0.0000000000
     46700      1323  PPPE      O21           -21.5388322074       32.8463553295      -17.1960132328  MEMB      63              0.0000000000
     46701      1323  PPPE      C21           -20.6218257290       33.3355319270      -16.4681967992  MEMB      63              0.0000000000
     46702      1323  PPPE      O22           -19.9729896183       34.3380962345      -16.7314681932  MEMB      63              0.0000000000
     46703      1323  PPPE      C22           -20.6479915618       32.5334719885      -15.1479603472  MEMB      63              0.0000000000
     46704      1323  PPPE      H2R           -19.9502209475       31.6667040734      -15.2118241836  MEMB      63              0.0000000000
     46705      1323  PPPE      H2S           -21.6556369383       32.2779146913      -14.8029225673  MEMB      63              0.0000000000
     46706      1323  PPPE      C3            -23.1121414514       33.4298624191      -18.7963406155  MEMB      63              0.0000000000
     46707      1323  PPPE      HX            -23.1684544584       33.7046300828      -19.8490721733  MEMB      63              0.0000000000
     46708      1323  PPPE      HY            -23.4293016762       32.3689270466      -18.7099119698  MEMB      63              0.0000000000
     46709      1323  PPPE      O31           -23.8870726666       34.3385353311      -18.0480567785  MEMB      63              0.0000000000
     46710      1323  PPPE      C31           -24.3887946765       33.8877830719      -16.9387788006  MEMB      63              0.0000000000
     46711      1323  PPPE      O32           -24.6641308233       32.7123886837      -16.6974970113  MEMB      63              0.0000000000
     46712      1323  PPPE      C32           -24.4359999075       35.0486541846      -15.9419891590  MEMB      63              0.0000000000
     46713      1323  PPPE      H2X           -24.9423861281       35.9916051630      -16.1551753403  MEMB      63              0.0000000000
     46714      1323  PPPE      H2Y           -23.5537031228       35.5424970453      -15.6184006180  MEMB      63              0.0000000000
     46715      1323  PPPE      C23           -20.1761591228       33.4039550377      -14.0477292077  MEMB      63              0.0000000000
     46716      1323  PPPE      H3R           -20.6919310659       34.3665732281      -13.8657135013  MEMB      63              0.0000000000
     46717      1323  PPPE      H3S           -19.3039107802       33.6524296150      -14.6669530701  MEMB      63              0.0000000000
     46718      1323  PPPE      C24           -19.8404832604       32.7164840426      -12.7317325062  MEMB      63              0.0000000000
     46719      1323  PPPE      H4R           -19.2815263928       33.4279172783      -12.1611057718  MEMB      63              0.0000000000
     46720      1323  PPPE      H4S           -19.2149658743       31.8053307815      -12.7730990564  MEMB      63              0.0000000000
     46721      1323  PPPE      C25           -20.9302858025       32.6571522887      -11.7148887547  MEMB      63              0.0000000000
     46722      1323  PPPE      H5R           -21.4273020114       31.7280656546      -12.0477131668  MEMB      63              0.0000000000
     46723      1323  PPPE      H5S           -21.6109112937       33.5270745363      -11.8122617757  MEMB      63              0.0000000000
     46724      1323  PPPE      C26           -20.4023994546       32.6414164412      -10.2635493388  MEMB      63              0.0000000000
     46725      1323  PPPE      H6R           -19.4999863069       32.0588038730      -10.0467381626  MEMB      63              0.0000000000
     46726      1323  PPPE      H6S           -21.0366342168       31.9053363838       -9.8394505889  MEMB      63              0.0000000000
     46727      1323  PPPE      C27           -20.3524507049       33.9991358681       -9.5108927682  MEMB      63              0.0000000000
     46728      1323  PPPE      H7R           -21.2528533927       34.5523603534       -9.3698294961  MEMB      63              0.0000000000
     46729      1323  PPPE      H7S           -19.8658599195       34.7495933651      -10.1339355490  MEMB      63              0.0000000000
     46730      1323  PPPE      C28           -19.7424512946       33.9260415037       -8.1112141636  MEMB      63              0.0000000000
     46731      1323  PPPE      H8R           -18.6596916050       33.9406318206       -8.2753899886  MEMB      63              0.0000000000
     46732      1323  PPPE      H8S           -19.9466162695       32.9009764345       -7.7546130860  MEMB      63              0.0000000000
     46733      1323  PPPE      C29           -20.0956716943       35.0356358258       -7.1351665266  MEMB      63              0.0000000000
     46734      1323  PPPE      H91           -19.6972763894       36.0294656838       -7.3342185434  MEMB      63              0.0000000000
     46735      1323  PPPE      C210          -20.6571993351       34.8314235737       -5.9536777976  MEMB      63              0.0000000000
     46736      1323  PPPE      H101          -21.0252131928       35.6641549658       -5.3172584711  MEMB      63              0.0000000000
     46737      1323  PPPE      C211          -20.9645269480       33.4221113243       -5.5803533620  MEMB      63              0.0000000000
     46738      1323  PPPE      H11R          -20.8586382490       32.6456114441       -6.2941821104  MEMB      63              0.0000000000
     46739      1323  PPPE      H11S          -21.9861824948       33.3810978391       -5.9229646277  MEMB      63              0.0000000000
     46740      1323  PPPE      C212          -20.6219154306       32.6716363725       -4.2646960834  MEMB      63              0.0000000000
     46741      1323  PPPE      H12R          -19.6350168742       32.6571280629       -4.0393218493  MEMB      63              0.0000000000
     46742      1323  PPPE      H12S          -20.9786350906       31.6482591946       -4.2122681507  MEMB      63              0.0000000000
     46743      1323  PPPE      C213          -20.9195564923       33.2739860665       -2.9667328230  MEMB      63              0.0000000000
     46744      1323  PPPE      H13R          -21.8747336314       32.7304496083       -2.5005819243  MEMB      63              0.0000000000
     46745      1323  PPPE      H13S          -21.1358890980       34.3709453783       -3.3411402507  MEMB      63              0.0000000000
     46746      1323  PPPE      C214          -20.1566371727       33.0284516263       -1.9181841468  MEMB      63              0.0000000000
     46747      1323  PPPE      H14R          -19.1315058064       33.3125587014       -2.1130538068  MEMB      63              0.0000000000
     46748      1323  PPPE      H14S          -20.3494142319       32.0670239885       -1.3827191016  MEMB      63              0.0000000000
     46749      1323  PPPE      C215          -20.9061728959       34.1013366749       -1.4216112309  MEMB      63              0.0000000000
     46750      1323  PPPE      H15R          -20.8027596717       35.1902583095       -1.7947918065  MEMB      63              0.0000000000
     46751      1323  PPPE      H15S          -20.5600467484       33.8708981159       -0.4974637981  MEMB      63              0.0000000000
     46752      1323  PPPE      C216          -21.7343743784       33.9906309663       -0.4700218727  MEMB      63              0.0000000000
     46753      1323  PPPE      H16R          -22.1799175135       34.8484159785       -0.8469198797  MEMB      63              0.0000000000
     46754      1323  PPPE      H16S          -22.2817559323       33.0021515832       -0.3377767126  MEMB      63              0.0000000000
     46755      1323  PPPE      H16T          -21.9314125456       34.8784462500        0.1851928228  MEMB      63              0.0000000000
     46756      1323  PPPE      C33           -25.2735247377       34.5884598032      -14.8798747739  MEMB      63              0.0000000000
     46757      1323  PPPE      H3X           -25.9396777994       33.7847961852      -15.2267754393  MEMB      63              0.0000000000
     46758      1323  PPPE      H3Y           -25.9151792474       35.4901511434      -14.6845993882  MEMB      63              0.0000000000
     46759      1323  PPPE      C34           -24.4986235187       34.1180144766      -13.7869428740  MEMB      63              0.0000000000
     46760      1323  PPPE      H4X           -24.0300383647       35.0876626739      -13.4588088016  MEMB      63              0.0000000000
     46761      1323  PPPE      H4Y           -23.9061785791       33.2670657714      -14.1018240187  MEMB      63              0.0000000000
     46762      1323  PPPE      C35           -25.2092180362       33.4185352803      -12.7189859370  MEMB      63              0.0000000000
     46763      1323  PPPE      H5X           -26.1123421562       32.8974445972      -12.5372778989  MEMB      63              0.0000000000
     46764      1323  PPPE      H5Y           -25.5412867241       34.3960493955      -12.4631155720  MEMB      63              0.0000000000
     46765      1323  PPPE      C36           -24.6483181187       33.2849611102      -11.5953338600  MEMB      63              0.0000000000
     46766      1323  PPPE      H6X           -24.0404397064       34.2454225988      -11.6089570770  MEMB      63              0.0000000000
     46767      1323  PPPE      H6Y           -23.8368932925       32.5956387884      -11.8284966880  MEMB      63              0.0000000000
     46768      1323  PPPE      C37           -25.5952170485       32.7337953593      -10.3764209655  MEMB      63              0.0000000000
     46769      1323  PPPE      H7X           -25.2369865477       32.9704127924       -9.4165985773  MEMB      63              0.0000000000
     46770      1323  PPPE      H7Y           -25.4453626746       31.6940195933      -10.4059396643  MEMB      63              0.0000000000
     46771      1323  PPPE      C38           -26.5554123411       33.3239727139       -9.2467468192  MEMB      63              0.0000000000
     46772      1323  PPPE      H8X           -27.1539748787       32.8316105999       -9.8364585102  MEMB      63              0.0000000000
     46773      1323  PPPE      H8Y           -27.0257091577       34.2494284484       -9.3169963746  MEMB      63              0.0000000000
     46774      1323  PPPE      C39           -26.5269213625       33.4396861493       -7.6707367907  MEMB      63              0.0000000000
     46775      1323  PPPE      H9X           -27.3099730007       34.1008923664       -7.2507154451  MEMB      63              0.0000000000
     46776      1323  PPPE      H9Y           -25.9468477436       34.2245318966       -7.3177124833  MEMB      63              0.0000000000
     46777      1323  PPPE      C310          -26.2389845487       32.2416918973       -6.8259271751  MEMB      63              0.0000000000
     46778      1323  PPPE      H10X          -25.2228152700       32.6929118455       -6.8407181024  MEMB      63              0.0000000000
     46779      1323  PPPE      H10Y          -26.2338074398       31.2874254975       -7.3313552850  MEMB      63              0.0000000000
     46780      1323  PPPE      C311          -26.8797000740       31.9160116528       -5.4648050581  MEMB      63              0.0000000000
     46781      1323  PPPE      H11X          -27.8653993314       31.5205622209       -5.6452906093  MEMB      63              0.0000000000
     46782      1323  PPPE      H11Y          -26.8518667982       32.9646279696       -5.2984302928  MEMB      63              0.0000000000
     46783      1323  PPPE      C312          -26.3435109023       30.8409258085       -4.4699998156  MEMB      63              0.0000000000
     46784      1323  PPPE      H12X          -25.3213461802       30.7033557497       -4.1199908167  MEMB      63              0.0000000000
     46785      1323  PPPE      H12Y          -26.5255604123       30.0320345395       -5.1524626988  MEMB      63              0.0000000000
     46786      1323  PPPE      C313          -26.6573152352       30.5281390776       -3.0391164790  MEMB      63              0.0000000000
     46787      1323  PPPE      H13X          -25.9714044515       29.8032235524       -2.5674819717  MEMB      63              0.0000000000
     46788      1323  PPPE      H13Y          -27.7374063121       30.4768174220       -3.1163680710  MEMB      63              0.0000000000
     46789      1323  PPPE      C314          -26.1122907276       31.5865725139       -2.2745867353  MEMB      63              0.0000000000
     46790      1323  PPPE      H14X          -26.9999734689       32.1706884228       -2.7014315473  MEMB      63              0.0000000000
     46791      1323  PPPE      H14Y          -25.0375424136       31.5800110393       -2.6220142526  MEMB      63              0.0000000000
     46792      1323  PPPE      C315          -25.6981394698       31.9371749432       -0.9208227252  MEMB      63              0.0000000000
     46793      1323  PPPE      H15X          -24.9354594377       32.4504367148       -0.3872640663  MEMB      63              0.0000000000
     46794      1323  PPPE      H15Y          -25.0456790027       31.1314665147       -0.6423924932  MEMB      63              0.0000000000
     46795      1323  PPPE      C316          -26.4667272269       33.0291221842       -0.2481113568  MEMB      63              0.0000000000
     46796      1323  PPPE      H16X          -27.2421099208       33.2092548157       -1.0052469348  MEMB      63              0.0000000000
     46797      1323  PPPE      H16Y          -27.1650971186       32.8312809098        0.5585885754  MEMB      63              0.0000000000
     46798      1323  PPPE      H16Z          -26.4208214787       33.3002744025        0.8019002384  MEMB      63              0.0000000000
     46799      1324  PPPE      N              31.1858377200       11.2168834227      -19.1863143697  MEMB      64              0.0000000000
     46800      1324  PPPE      HN1            30.5993227082       10.3957083947      -19.4645941727  MEMB      64              0.0000000000
     46801      1324  PPPE      HN2            31.1659250791       11.2086276858      -18.1589172036  MEMB      64              0.0000000000
     46802      1324  PPPE      HN3            30.8239966204       12.1460729994      -19.4726770358  MEMB      64              0.0000000000
     46803      1324  PPPE      C12            32.6329168740       11.0139041848      -19.5387764951  MEMB      64              0.0000000000
     46804      1324  PPPE      H12A           32.7283509702       11.3121329209      -20.5910035816  MEMB      64              0.0000000000
     46805      1324  PPPE      H12B           32.8968313166        9.9393294393      -19.4621758064  MEMB      64              0.0000000000
     46806      1324  PPPE      C11            33.5216494520       11.8327047821      -18.5908291507  MEMB      64              0.0000000000
     46807      1324  PPPE      H11A           33.6032829153       11.3611956574      -17.5804098450  MEMB      64              0.0000000000
     46808      1324  PPPE      H11B           33.0632736955       12.8355730996      -18.4258800785  MEMB      64              0.0000000000
     46809      1324  PPPE      P              35.9616869049       10.9476555487      -19.0310571243  MEMB      64              0.0000000000
     46810      1324  PPPE      O13            35.5794550815        9.7020713188      -19.7432297934  MEMB      64              0.0000000000
     46811      1324  PPPE      O14            37.2684044190       11.5257434112      -19.3921992153  MEMB      64              0.0000000000
     46812      1324  PPPE      O11            35.9686067567       10.6790770326      -17.4503095181  MEMB      64              0.0000000000
     46813      1324  PPPE      O12            34.7996989354       12.0165483376      -19.1821024269  MEMB      64              0.0000000000
     46814      1324  PPPE      C1             36.7768391516        9.6364100276      -16.8760631525  MEMB      64              0.0000000000
     46815      1324  PPPE      HA             37.7933780969        9.6702260792      -17.3283596539  MEMB      64              0.0000000000
     46816      1324  PPPE      HB             36.2829560209        8.6641709517      -17.0858847865  MEMB      64              0.0000000000
     46817      1324  PPPE      C2             37.0260611861        9.6501244033      -15.2988992419  MEMB      64              0.0000000000
     46818      1324  PPPE      HS             37.6045096070        8.7376844139      -15.0468257700  MEMB      64              0.0000000000
     46819      1324  PPPE      O21            35.7842872389        9.5189354291      -14.5885992258  MEMB      64              0.0000000000
     46820      1324  PPPE      C21            35.6889161618        9.8809890712      -13.2890229297  MEMB      64              0.0000000000
     46821      1324  PPPE      O22            36.3661322220        9.4487474594      -12.3832324200  MEMB      64              0.0000000000
     46822      1324  PPPE      C22            34.4801557537       10.7872918384      -12.9464615029  MEMB      64              0.0000000000
     46823      1324  PPPE      H2R            33.9805163215        9.8912596476      -12.8566398904  MEMB      64              0.0000000000
     46824      1324  PPPE      H2S            33.9222206646       11.3862310393      -13.6723536439  MEMB      64              0.0000000000
     46825      1324  PPPE      C3             37.7914953588       10.9451280491      -14.8391776950  MEMB      64              0.0000000000
     46826      1324  PPPE      HX             37.9720898240       10.9081400987      -13.7436142749  MEMB      64              0.0000000000
     46827      1324  PPPE      HY             38.7895900542       10.8512174544      -15.3198884783  MEMB      64              0.0000000000
     46828      1324  PPPE      O31            37.1083350505       12.1911395876      -15.1397483644  MEMB      64              0.0000000000
     46829      1324  PPPE      C31            37.7754240752       13.0419578897      -15.9522485209  MEMB      64              0.0000000000
     46830      1324  PPPE      O32            38.8440187419       12.7754357321      -16.4637879667  MEMB      64              0.0000000000
     46831      1324  PPPE      C32            37.0536494903       14.4102831564      -15.9978982938  MEMB      64              0.0000000000
     46832      1324  PPPE      H2X            36.6405122771       14.5615539590      -17.0164075789  MEMB      64              0.0000000000
     46833      1324  PPPE      H2Y            37.8042805889       15.2044607851      -15.8523583196  MEMB      64              0.0000000000
     46834      1324  PPPE      C23            33.9503962544       10.9613544465      -11.4905607547  MEMB      64              0.0000000000
     46835      1324  PPPE      H3R            34.3458571954       11.8708535972      -11.1594828587  MEMB      64              0.0000000000
     46836      1324  PPPE      H3S            34.5240243283       10.3171289136      -10.7938361728  MEMB      64              0.0000000000
     46837      1324  PPPE      C24            32.4236184128       10.7212070978      -11.1975973286  MEMB      64              0.0000000000
     46838      1324  PPPE      H4R            32.3302382705       10.4883291710      -10.1036035908  MEMB      64              0.0000000000
     46839      1324  PPPE      H4S            31.9868502910        9.8900784632      -11.7735778498  MEMB      64              0.0000000000
     46840      1324  PPPE      C25            31.3220287812       11.6231260331      -11.5337245354  MEMB      64              0.0000000000
     46841      1324  PPPE      H5R            30.3835749287       11.4155692919      -10.9643862245  MEMB      64              0.0000000000
     46842      1324  PPPE      H5S            31.0325406096       11.4395287994      -12.5921423702  MEMB      64              0.0000000000
     46843      1324  PPPE      C26            31.9871619947       12.9042423007      -11.2335810584  MEMB      64              0.0000000000
     46844      1324  PPPE      H6R            31.2210261804       13.5818748303      -11.3665338224  MEMB      64              0.0000000000
     46845      1324  PPPE      H6S            32.8326238972       13.0574810449      -11.9258441091  MEMB      64              0.0000000000
     46846      1324  PPPE      C27            32.3751412706       13.3542251260       -9.8376495510  MEMB      64              0.0000000000
     46847      1324  PPPE      H7R            32.9618497193       14.2757705402       -9.9845314875  MEMB      64              0.0000000000
     46848      1324  PPPE      H7S            33.0180040581       12.5445633744       -9.4191538454  MEMB      64              0.0000000000
     46849      1324  PPPE      C28            31.2545144810       13.8916717412       -8.9635972210  MEMB      64              0.0000000000
     46850      1324  PPPE      H8R            30.4622131862       14.5547810262       -9.3222960799  MEMB      64              0.0000000000
     46851      1324  PPPE      H8S            31.6359129882       14.2996297685       -8.0268154435  MEMB      64              0.0000000000
     46852      1324  PPPE      C29            30.7071329217       12.6071170440       -8.7582255413  MEMB      64              0.0000000000
     46853      1324  PPPE      H91            29.6483361266       12.5021288431       -9.1172824136  MEMB      64              0.0000000000
     46854      1324  PPPE      C210           31.1878124702       11.8426029866       -7.7659518711  MEMB      64              0.0000000000
     46855      1324  PPPE      H101           30.7269852988       10.9375129659       -7.5665642032  MEMB      64              0.0000000000
     46856      1324  PPPE      C211           32.1525562925       11.7526429587       -6.6774539889  MEMB      64              0.0000000000
     46857      1324  PPPE      H11R           33.0388819536       12.0577934186       -7.2336733309  MEMB      64              0.0000000000
     46858      1324  PPPE      H11S           32.1345799950       10.6891284478       -6.3729055326  MEMB      64              0.0000000000
     46859      1324  PPPE      C212           32.0166289253       12.4747392823       -5.2953252326  MEMB      64              0.0000000000
     46860      1324  PPPE      H12R           31.9421514117       13.4794393046       -5.7814330653  MEMB      64              0.0000000000
     46861      1324  PPPE      H12S           33.0236790860       12.4739889989       -4.8907952353  MEMB      64              0.0000000000
     46862      1324  PPPE      C213           31.0720897020       12.0162369186       -4.0577535479  MEMB      64              0.0000000000
     46863      1324  PPPE      H13R           31.0542696840       10.9948068283       -3.8389688644  MEMB      64              0.0000000000
     46864      1324  PPPE      H13S           30.0495235683       12.1585223434       -4.5133732153  MEMB      64              0.0000000000
     46865      1324  PPPE      C214           31.2219081165       12.7169848763       -2.7310825054  MEMB      64              0.0000000000
     46866      1324  PPPE      H14R           31.9990315825       12.9056139529       -2.3589305011  MEMB      64              0.0000000000
     46867      1324  PPPE      H14S           30.3288693843       12.0531622888       -2.2017497321  MEMB      64              0.0000000000
     46868      1324  PPPE      C215           31.3318670982       15.2156559637       -2.6093256819  MEMB      64              0.0000000000
     46869      1324  PPPE      H15R           30.5618688205       16.3830505385       -2.8717703806  MEMB      64              0.0000000000
     46870      1324  PPPE      H15S           31.2897949259       15.7725490610       -3.3946253690  MEMB      64              0.0000000000
     46871      1324  PPPE      C216           31.9725992123       15.7236486896       -1.8274670531  MEMB      64              0.0000000000
     46872      1324  PPPE      H16R           32.5968436434       14.9176104301       -1.5602181232  MEMB      64              0.0000000000
     46873      1324  PPPE      H16S           31.8070046778       15.7353850334       -0.8223865838  MEMB      64              0.0000000000
     46874      1324  PPPE      H16T           30.8507209911       15.8047425932       -1.4466722168  MEMB      64              0.0000000000
     46875      1324  PPPE      C33            35.9115619404       14.5556357975      -14.9536865608  MEMB      64              0.0000000000
     46876      1324  PPPE      H3X            35.2671559736       13.6651600218      -14.9591367883  MEMB      64              0.0000000000
     46877      1324  PPPE      H3Y            35.2714312809       15.4337724800      -15.1975388473  MEMB      64              0.0000000000
     46878      1324  PPPE      C34            36.4025210205       14.8729563774      -13.5531353720  MEMB      64              0.0000000000
     46879      1324  PPPE      H4X            36.6523692003       15.9433070939      -13.7209356224  MEMB      64              0.0000000000
     46880      1324  PPPE      H4Y            37.2616242744       14.2377286938      -13.2728389855  MEMB      64              0.0000000000
     46881      1324  PPPE      C35            35.3705804191       14.8847189120      -12.4413849308  MEMB      64              0.0000000000
     46882      1324  PPPE      H5X            34.4683452240       14.4685181616      -12.9246431429  MEMB      64              0.0000000000
     46883      1324  PPPE      H5Y            35.1932419843       15.9178196375      -12.0648093029  MEMB      64              0.0000000000
     46884      1324  PPPE      C36            35.6858165775       13.9617132416      -11.2770188942  MEMB      64              0.0000000000
     46885      1324  PPPE      H6X            36.1609748899       13.0506946141      -11.7080017453  MEMB      64              0.0000000000
     46886      1324  PPPE      H6Y            34.7375282323       13.6800973241      -10.7914039844  MEMB      64              0.0000000000
     46887      1324  PPPE      C37            36.4987193709       14.6033714698      -10.1604931938  MEMB      64              0.0000000000
     46888      1324  PPPE      H7X            35.9679309941       15.4322871804       -9.6667195257  MEMB      64              0.0000000000
     46889      1324  PPPE      H7Y            37.2839195110       15.1477708998      -10.6768658191  MEMB      64              0.0000000000
     46890      1324  PPPE      C38            37.0003367835       13.5451181503       -9.1597889400  MEMB      64              0.0000000000
     46891      1324  PPPE      H8X            38.0629235915       13.6881158652       -8.9033328491  MEMB      64              0.0000000000
     46892      1324  PPPE      H8Y            36.9266087996       12.5589383799       -9.6681101260  MEMB      64              0.0000000000
     46893      1324  PPPE      C39            36.1695697245       13.4882591732       -7.8895943064  MEMB      64              0.0000000000
     46894      1324  PPPE      H9X            36.1983123706       12.4859639722       -7.4124107489  MEMB      64              0.0000000000
     46895      1324  PPPE      H9Y            35.1310786619       13.7307723580       -8.2209036736  MEMB      64              0.0000000000
     46896      1324  PPPE      C310           36.6139655225       14.4608580564       -6.8248366816  MEMB      64              0.0000000000
     46897      1324  PPPE      H10X           37.2463225124       15.2662353362       -7.2644514860  MEMB      64              0.0000000000
     46898      1324  PPPE      H10Y           37.2160780517       13.9829344115       -6.0157233990  MEMB      64              0.0000000000
     46899      1324  PPPE      C311           35.3958077406       15.1071824639       -6.2396326007  MEMB      64              0.0000000000
     46900      1324  PPPE      H11X           34.5763410246       14.4499970523       -5.8856510928  MEMB      64              0.0000000000
     46901      1324  PPPE      H11Y           34.9682745124       15.8001860099       -6.9876015222  MEMB      64              0.0000000000
     46902      1324  PPPE      C312           35.8698500255       15.8783071030       -5.0823131980  MEMB      64              0.0000000000
     46903      1324  PPPE      H12X           35.0329396955       16.5561932232       -4.8846726715  MEMB      64              0.0000000000
     46904      1324  PPPE      H12Y           36.7040286126       16.5299116065       -5.4083070615  MEMB      64              0.0000000000
     46905      1324  PPPE      C313           36.2201022758       15.0449648765       -3.8241088647  MEMB      64              0.0000000000
     46906      1324  PPPE      H13X           36.5004153940       15.6422775531       -2.9987781314  MEMB      64              0.0000000000
     46907      1324  PPPE      H13Y           37.1588018002       14.4983490712       -3.8657380726  MEMB      64              0.0000000000
     46908      1324  PPPE      C314           35.0144420797       14.3978300805       -3.1735252476  MEMB      64              0.0000000000
     46909      1324  PPPE      H14X           34.8936575753       13.5106604433       -3.8261678102  MEMB      64              0.0000000000
     46910      1324  PPPE      H14Y           34.1846021916       15.1345812552       -3.2799798640  MEMB      64              0.0000000000
     46911      1324  PPPE      C315           35.1326251283       13.9231222519       -1.7016705585  MEMB      64              0.0000000000
     46912      1324  PPPE      H15X           35.9808203238       13.2071682915       -1.6907157825  MEMB      64              0.0000000000
     46913      1324  PPPE      H15Y           34.1833807456       13.3836231621       -1.4894439925  MEMB      64              0.0000000000
     46914      1324  PPPE      C316           35.3355066618       14.8930669741       -0.5250446235  MEMB      64              0.0000000000
     46915      1324  PPPE      H16X           34.8226524529       15.8645534543       -0.7042994628  MEMB      64              0.0000000000
     46916      1324  PPPE      H16Y           34.9495364495       14.4903443589        0.4298745296  MEMB      64              0.0000000000
     46917      1324  PPPE      H16Z           36.4278138634       15.0796929753       -0.3900366940  MEMB      64              0.0000000000
     46918      1325  PVPG      C13           -35.4021280737       -8.7858074192      -21.0296693530  MEMB      65              0.0000000000
     46919      1325  PVPG      H13A          -35.1085173667       -8.8413763491      -22.0981796603  MEMB      65              0.0000000000
     46920      1325  PVPG      H13B          -36.0341383133       -9.6670876722      -20.7774005713  MEMB      65              0.0000000000
     46921      1325  PVPG      OC3           -36.1462209157       -7.5819043022      -20.7907165932  MEMB      65              0.0000000000
     46922      1325  PVPG      HO3           -36.0630393877       -7.0254718098      -21.5605752683  MEMB      65              0.0000000000
     46923      1325  PVPG      C12           -34.1007722646       -8.8655245123      -20.1946125688  MEMB      65              0.0000000000
     46924      1325  PVPG      H12A          -33.4690422427       -7.9766897657      -20.4243593480  MEMB      65              0.0000000000
     46925      1325  PVPG      OC2           -33.3339456592      -10.0084392056      -20.5689420177  MEMB      65              0.0000000000
     46926      1325  PVPG      HO2           -32.6653041959      -10.0767804724      -19.8799883802  MEMB      65              0.0000000000
     46927      1325  PVPG      C11           -34.3469393689       -8.8916952143      -18.6698719404  MEMB      65              0.0000000000
     46928      1325  PVPG      H11A          -34.6866572360       -7.8744205395      -18.3433660986  MEMB      65              0.0000000000
     46929      1325  PVPG      H11B          -33.3548661580       -9.0898567147      -18.2216848180  MEMB      65              0.0000000000
     46930      1325  PVPG      P             -36.7216385796       -9.7446134456      -17.8157111298  MEMB      65              0.0000000000
     46931      1325  PVPG      O13           -37.5857253183      -10.4372770626      -18.8009737776  MEMB      65              0.0000000000
     46932      1325  PVPG      O14           -36.9469452033       -8.3094372353      -17.5396490146  MEMB      65              0.0000000000
     46933      1325  PVPG      O12           -35.2055767299       -9.9561930381      -18.2627621506  MEMB      65              0.0000000000
     46934      1325  PVPG      O11           -36.7429279082      -10.4443644860      -16.4033769109  MEMB      65              0.0000000000
     46935      1325  PVPG      C1            -35.9900977161      -11.6078220204      -16.1294930837  MEMB      65              0.0000000000
     46936      1325  PVPG      HA            -35.6745142882      -11.6336785317      -15.0658655651  MEMB      65              0.0000000000
     46937      1325  PVPG      HB            -35.1040915169      -11.7552506426      -16.7980395457  MEMB      65              0.0000000000
     46938      1325  PVPG      C2            -36.8976080746      -12.7956059614      -16.2533907279  MEMB      65              0.0000000000
     46939      1325  PVPG      HS            -37.3755088428      -12.7228964749      -17.2509093466  MEMB      65              0.0000000000
     46940      1325  PVPG      O21           -37.8954633679      -12.7277788018      -15.1840898246  MEMB      65              0.0000000000
     46941      1325  PVPG      C21           -39.3013991403      -12.6527758293      -15.2753890393  MEMB      65              0.0000000000
     46942      1325  PVPG      O22           -39.9900621210      -12.8049224984      -16.2137620016  MEMB      65              0.0000000000
     46943      1325  PVPG      C22           -39.9502857826      -12.9330754708      -14.0471563487  MEMB      65              0.0000000000
     46944      1325  PVPG      H2R           -40.3675146365      -13.9751594876      -13.9841986511  MEMB      65              0.0000000000
     46945      1325  PVPG      H2S           -40.9735779253      -12.5908846775      -14.1576959690  MEMB      65              0.0000000000
     46946      1325  PVPG      C3            -35.9340439562      -14.0794551261      -16.1943685112  MEMB      65              0.0000000000
     46947      1325  PVPG      HX            -36.3360892833      -15.1113850986      -16.1273208579  MEMB      65              0.0000000000
     46948      1325  PVPG      HY            -35.3951113638      -14.1494030734      -17.1592433738  MEMB      65              0.0000000000
     46949      1325  PVPG      O31           -35.0240549470      -13.8947093355      -15.1820062509  MEMB      65              0.0000000000
     46950      1325  PVPG      C31           -35.4777733893      -14.4328021752      -14.0784450724  MEMB      65              0.0000000000
     46951      1325  PVPG      O32           -35.8853660257      -15.5500732098      -13.9906124301  MEMB      65              0.0000000000
     46952      1325  PVPG      C32           -34.8103966342      -13.7457018884      -12.9665672641  MEMB      65              0.0000000000
     46953      1325  PVPG      H2X           -34.2013147521      -12.9892978207      -13.4424260733  MEMB      65              0.0000000000
     46954      1325  PVPG      H2Y           -34.3569442474      -14.6152585914      -12.4758886512  MEMB      65              0.0000000000
     46955      1325  PVPG      C23           -38.9228055165      -12.2711610989      -13.1413068679  MEMB      65              0.0000000000
     46956      1325  PVPG      H3R           -38.7213786787      -11.2613412493      -13.5771827542  MEMB      65              0.0000000000
     46957      1325  PVPG      H3S           -37.9331716368      -12.7783395954      -12.9728447052  MEMB      65              0.0000000000
     46958      1325  PVPG      C24           -39.5505956452      -12.0174732780      -11.8836514823  MEMB      65              0.0000000000
     46959      1325  PVPG      H4R           -39.5719379350      -12.9781762774      -11.3106591616  MEMB      65              0.0000000000
     46960      1325  PVPG      H4S           -40.5776360205      -11.7099405134      -12.2109943642  MEMB      65              0.0000000000
     46961      1325  PVPG      C25           -38.9061645055      -10.8903583979      -11.1343845142  MEMB      65              0.0000000000
     46962      1325  PVPG      H5R           -38.9406316809      -10.0100708896      -11.8105830287  MEMB      65              0.0000000000
     46963      1325  PVPG      H5S           -37.8646899189      -11.1636791376      -10.8914117417  MEMB      65              0.0000000000
     46964      1325  PVPG      C26           -39.6013882708      -10.5320318795       -9.8354436417  MEMB      65              0.0000000000
     46965      1325  PVPG      H6R           -40.6411691546      -10.2540339488      -10.1030643604  MEMB      65              0.0000000000
     46966      1325  PVPG      H6S           -39.1632414383       -9.6280763603       -9.4305748544  MEMB      65              0.0000000000
     46967      1325  PVPG      C27           -39.3996699991      -11.5539545909       -8.7126249771  MEMB      65              0.0000000000
     46968      1325  PVPG      H7R           -38.4106682559      -12.0065737239       -8.6339709137  MEMB      65              0.0000000000
     46969      1325  PVPG      H7S           -39.7591869965      -12.5209142366       -9.0992927887  MEMB      65              0.0000000000
     46970      1325  PVPG      C28           -39.8896649826      -11.0864513458       -7.2940275209  MEMB      65              0.0000000000
     46971      1325  PVPG      H8R           -40.9721520440      -11.0946756068       -7.0788200665  MEMB      65              0.0000000000
     46972      1325  PVPG      H8S           -39.7687394339      -10.0282771102       -7.1170161646  MEMB      65              0.0000000000
     46973      1325  PVPG      C29           -39.3877773061      -12.0040316546       -6.2049894563  MEMB      65              0.0000000000
     46974      1325  PVPG      H9R           -39.6932489238      -11.6375158650       -5.2021031927  MEMB      65              0.0000000000
     46975      1325  PVPG      H9S           -38.2780811216      -12.0234342711       -6.2828777049  MEMB      65              0.0000000000
     46976      1325  PVPG      C210          -39.8448185953      -13.4604368889       -6.3389582738  MEMB      65              0.0000000000
     46977      1325  PVPG      H10R          -39.3875686345      -13.8216182820       -5.4406284222  MEMB      65              0.0000000000
     46978      1325  PVPG      H10S          -39.4032985377      -13.8868367421       -7.2697814812  MEMB      65              0.0000000000
     46979      1325  PVPG      C211          -41.2106191599      -13.9779749576       -6.1328982840  MEMB      65              0.0000000000
     46980      1325  PVPG      H111          -41.8075587931      -14.1533096534       -6.9554024180  MEMB      65              0.0000000000
     46981      1325  PVPG      C212          -41.8447599562      -14.4762895829       -5.1655200877  MEMB      65              0.0000000000
     46982      1325  PVPG      H121          -42.9413275685      -14.6129215919       -5.1516717927  MEMB      65              0.0000000000
     46983      1325  PVPG      C213          -41.0896874341      -14.5782449319       -4.0002579582  MEMB      65              0.0000000000
     46984      1325  PVPG      H13R          -40.0003154945      -14.7739000396       -4.0019186038  MEMB      65              0.0000000000
     46985      1325  PVPG      H13S          -41.5931906918      -15.5162354991       -3.8782365118  MEMB      65              0.0000000000
     46986      1325  PVPG      C214          -41.2407933389      -13.5103549904       -3.0507822209  MEMB      65              0.0000000000
     46987      1325  PVPG      H14R          -42.3512330421      -13.4915604771       -2.9700360446  MEMB      65              0.0000000000
     46988      1325  PVPG      H14S          -40.8690987306      -12.5166933755       -3.2764676640  MEMB      65              0.0000000000
     46989      1325  PVPG      C215          -40.3750750006      -14.0704065106       -1.9521957384  MEMB      65              0.0000000000
     46990      1325  PVPG      H15R          -39.8680227514      -14.9833636520       -1.9501378543  MEMB      65              0.0000000000
     46991      1325  PVPG      H15S          -41.1350038396      -14.2907790325       -1.3632779342  MEMB      65              0.0000000000
     46992      1325  PVPG      C216          -40.0011816196      -13.4898115667       -0.7076953822  MEMB      65              0.0000000000
     46993      1325  PVPG      H16R          -40.3467626931      -12.3916221735       -0.8760078019  MEMB      65              0.0000000000
     46994      1325  PVPG      H16S          -39.0809077826      -13.7691845013       -0.9072693783  MEMB      65              0.0000000000
     46995      1325  PVPG      C217          -39.0280977039      -14.2139114576        0.4682124277  MEMB      65              0.0000000000
     46996      1325  PVPG      H17R          -38.1714223585      -13.6454897401        0.9027863909  MEMB      65              0.0000000000
     46997      1325  PVPG      H17S          -38.1684977870      -14.8475803271        0.3139466036  MEMB      65              0.0000000000
     46998      1325  PVPG      C218          -39.5910041278      -14.5733122603        1.6798855321  MEMB      65              0.0000000000
     46999      1325  PVPG      H18R          -40.4480323153      -15.0408173692        1.6459394566  MEMB      65              0.0000000000
     47000      1325  PVPG      H18S          -39.0566428195      -14.8747374220        2.5445101498  MEMB      65              0.0000000000
     47001      1325  PVPG      H18T          -40.1742842049      -13.7738525586        1.9119555662  MEMB      65              0.0000000000
     47002      1325  PVPG      C33           -35.4105974819      -13.1562129580      -11.7704221655  MEMB      65              0.0000000000
     47003      1325  PVPG      H3X           -35.8305866017      -13.9854886081      -11.2198668116  MEMB      65              0.0000000000
     47004      1325  PVPG      H3Y           -36.0972515132      -12.3849036646      -12.1110860154  MEMB      65              0.0000000000
     47005      1325  PVPG      C34           -34.5235586072      -12.9038911422      -10.5779223706  MEMB      65              0.0000000000
     47006      1325  PVPG      H4X           -33.8990931695      -13.8055468832      -10.3378261212  MEMB      65              0.0000000000
     47007      1325  PVPG      H4Y           -35.2953536369      -12.7914840778       -9.7753767844  MEMB      65              0.0000000000
     47008      1325  PVPG      C35           -33.7454544923      -11.6360759229      -10.6447868136  MEMB      65              0.0000000000
     47009      1325  PVPG      H5X           -34.3662516602      -10.8525315433      -11.1253771878  MEMB      65              0.0000000000
     47010      1325  PVPG      H5Y           -32.8896979710      -11.8304126437      -11.3272355454  MEMB      65              0.0000000000
     47011      1325  PVPG      C36           -33.3242355034      -11.2079959826       -9.2289230361  MEMB      65              0.0000000000
     47012      1325  PVPG      H6X           -32.5571381340      -10.4191363983       -9.3533665308  MEMB      65              0.0000000000
     47013      1325  PVPG      H6Y           -32.8372003308      -12.0811439516       -8.7289564126  MEMB      65              0.0000000000
     47014      1325  PVPG      C37           -34.4362870617      -10.6551114148       -8.2838913930  MEMB      65              0.0000000000
     47015      1325  PVPG      H7X           -33.9558862380      -10.3845172980       -7.3155999829  MEMB      65              0.0000000000
     47016      1325  PVPG      H7Y           -35.1975524977      -11.4340829727       -8.0734246675  MEMB      65              0.0000000000
     47017      1325  PVPG      C38           -35.2440283261       -9.4395003782       -8.7769767989  MEMB      65              0.0000000000
     47018      1325  PVPG      H8X           -35.6924932876       -9.6993492043       -9.7618550497  MEMB      65              0.0000000000
     47019      1325  PVPG      H8Y           -34.5821076952       -8.5532446066       -8.8877485506  MEMB      65              0.0000000000
     47020      1325  PVPG      C39           -36.4378652909       -9.0386561564       -7.8874735273  MEMB      65              0.0000000000
     47021      1325  PVPG      H9X           -37.2283900933       -9.8216853499       -7.9376162877  MEMB      65              0.0000000000
     47022      1325  PVPG      H9Y           -36.8606607717       -8.0984807333       -8.3140653329  MEMB      65              0.0000000000
     47023      1325  PVPG      C310          -36.1099997271       -8.7343824349       -6.4276359791  MEMB      65              0.0000000000
     47024      1325  PVPG      H10X          -35.0668857013       -8.3669756544       -6.3188936428  MEMB      65              0.0000000000
     47025      1325  PVPG      H10Y          -36.2149060717       -9.6570575902       -5.8165602503  MEMB      65              0.0000000000
     47026      1325  PVPG      C311          -37.0313019706       -7.6554459745       -5.8852209454  MEMB      65              0.0000000000
     47027      1325  PVPG      H11X          -38.0726813903       -8.0395193898       -5.8114588610  MEMB      65              0.0000000000
     47028      1325  PVPG      H11Y          -37.0478927436       -6.7670315323       -6.5610967708  MEMB      65              0.0000000000
     47029      1325  PVPG      C312          -36.5996843964       -7.1731724436       -4.5192332406  MEMB      65              0.0000000000
     47030      1325  PVPG      H12X          -37.5663305333       -6.8397302185       -4.1084655995  MEMB      65              0.0000000000
     47031      1325  PVPG      H12Y          -35.8468049357       -6.3494556382       -4.5870240492  MEMB      65              0.0000000000
     47032      1325  PVPG      C313          -36.3069464833       -8.1504627535       -3.3970753387  MEMB      65              0.0000000000
     47033      1325  PVPG      H13X          -35.9857769444       -7.4939993967       -2.5545887905  MEMB      65              0.0000000000
     47034      1325  PVPG      H13Y          -35.4483099924       -8.8004340889       -3.6260011467  MEMB      65              0.0000000000
     47035      1325  PVPG      C314          -37.5857084797       -8.8930882186       -2.9582647814  MEMB      65              0.0000000000
     47036      1325  PVPG      H14X          -37.5955916900       -9.9181294357       -3.3621712091  MEMB      65              0.0000000000
     47037      1325  PVPG      H14Y          -38.4914096592       -8.3989774406       -3.3827083141  MEMB      65              0.0000000000
     47038      1325  PVPG      C315          -37.7995999632       -8.9309255641       -1.4390445889  MEMB      65              0.0000000000
     47039      1325  PVPG      H15X          -38.6997046091       -9.5515579977       -1.2326696693  MEMB      65              0.0000000000
     47040      1325  PVPG      H15Y          -38.0447404224       -7.9066591339       -1.0926923776  MEMB      65              0.0000000000
     47041      1325  PVPG      C316          -36.6048643318       -9.4166499137       -0.6139199326  MEMB      65              0.0000000000
     47042      1325  PVPG      H16X          -36.3113632515      -10.4572705092       -0.8271940890  MEMB      65              0.0000000000
     47043      1325  PVPG      H16Y          -35.7177041775       -8.8019077374       -0.8143129595  MEMB      65              0.0000000000
     47044      1325  PVPG      H16Z          -36.8467145176       -9.3702872497        0.4662534549  MEMB      65              0.0000000000
     47045      1326  PVPG      C13            29.6081379228      -25.6637416839      -21.3889266713  MEMB      66              0.0000000000
     47046      1326  PVPG      H13A           30.3642267184      -24.8435934508      -21.3817621507  MEMB      66              0.0000000000
     47047      1326  PVPG      H13B           30.1342384304      -26.6276995013      -21.5661314161  MEMB      66              0.0000000000
     47048      1326  PVPG      OC3            28.6304611544      -25.3920039892      -22.4084374753  MEMB      66              0.0000000000
     47049      1326  PVPG      HO3            29.0783431856      -25.3708074263      -23.2554453997  MEMB      66              0.0000000000
     47050      1326  PVPG      C12            28.9640961695      -25.6660853642      -19.9753239159  MEMB      66              0.0000000000
     47051      1326  PVPG      H12A           29.7417687366      -25.8888870053      -19.2209164117  MEMB      66              0.0000000000
     47052      1326  PVPG      OC2            28.0024701430      -26.7090344113      -19.8375249688  MEMB      66              0.0000000000
     47053      1326  PVPG      HO2            27.4376420798      -26.4244602537      -19.0998414598  MEMB      66              0.0000000000
     47054      1326  PVPG      C11            28.4108115956      -24.2421984722      -19.6940430088  MEMB      66              0.0000000000
     47055      1326  PVPG      H11A           27.7384606515      -23.9644611417      -20.5204009175  MEMB      66              0.0000000000
     47056      1326  PVPG      H11B           29.2864499749      -23.5536428436      -19.7584877856  MEMB      66              0.0000000000
     47057      1326  PVPG      P              28.2688883142      -23.0446214636      -17.4243548807  MEMB      66              0.0000000000
     47058      1326  PVPG      O13            27.3276021985      -22.8603875205      -16.3727556944  MEMB      66              0.0000000000
     47059      1326  PVPG      O14            28.7702279848      -21.8028554651      -18.0679819444  MEMB      66              0.0000000000
     47060      1326  PVPG      O12            27.7086775477      -24.1059317073      -18.4654094256  MEMB      66              0.0000000000
     47061      1326  PVPG      O11            29.3095228875      -23.8210066018      -16.6100341035  MEMB      66              0.0000000000
     47062      1326  PVPG      C1             28.6566962732      -24.7214854978      -15.6835847500  MEMB      66              0.0000000000
     47063      1326  PVPG      HA             28.5751470904      -25.5674531970      -16.3835313744  MEMB      66              0.0000000000
     47064      1326  PVPG      HB             27.5400569145      -24.7946433656      -15.4671909553  MEMB      66              0.0000000000
     47065      1326  PVPG      C2             29.3703271220      -24.7083795217      -14.2612722235  MEMB      66              0.0000000000
     47066      1326  PVPG      HS             28.8108015577      -25.4870595488      -13.6722820681  MEMB      66              0.0000000000
     47067      1326  PVPG      O21            29.3694720839      -23.4433836779      -13.6665633285  MEMB      66              0.0000000000
     47068      1326  PVPG      C21            28.3352170680      -23.2208210351      -12.9649071673  MEMB      66              0.0000000000
     47069      1326  PVPG      O22            27.5385531397      -24.0003753347      -12.4779454171  MEMB      66              0.0000000000
     47070      1326  PVPG      C22            28.2238433911      -21.7683622696      -12.9627813468  MEMB      66              0.0000000000
     47071      1326  PVPG      H2R            27.3458533127      -21.4693817348      -12.3595888974  MEMB      66              0.0000000000
     47072      1326  PVPG      H2S            28.0319673993      -21.5902724296      -14.0478368985  MEMB      66              0.0000000000
     47073      1326  PVPG      C3             30.9149114679      -25.0682399360      -14.2159363225  MEMB      66              0.0000000000
     47074      1326  PVPG      HX             31.2286322691      -26.0944638186      -14.3471995709  MEMB      66              0.0000000000
     47075      1326  PVPG      HY             31.1441425701      -24.4236080368      -15.0687661485  MEMB      66              0.0000000000
     47076      1326  PVPG      O31            31.8626972162      -24.7916667431      -13.1738466449  MEMB      66              0.0000000000
     47077      1326  PVPG      C31            31.3232228783      -25.3529238682      -12.1305233287  MEMB      66              0.0000000000
     47078      1326  PVPG      O32            30.2170464010      -25.7987456926      -12.0958736551  MEMB      66              0.0000000000
     47079      1326  PVPG      C32            32.0937709869      -25.0707826874      -10.9279961914  MEMB      66              0.0000000000
     47080      1326  PVPG      H2X            31.5220888953      -24.1667411875      -10.6141612862  MEMB      66              0.0000000000
     47081      1326  PVPG      H2Y            33.1261202029      -24.8535871731      -11.2549108255  MEMB      66              0.0000000000
     47082      1326  PVPG      C23            29.4708334145      -20.9302916139      -12.6745609726  MEMB      66              0.0000000000
     47083      1326  PVPG      H3R            29.2429188763      -19.8609320496      -12.9110093028  MEMB      66              0.0000000000
     47084      1326  PVPG      H3S            30.3356493015      -21.2352630431      -13.2954660050  MEMB      66              0.0000000000
     47085      1326  PVPG      C24            29.8689629221      -21.0050874379      -11.2519667262  MEMB      66              0.0000000000
     47086      1326  PVPG      H4R            30.3969211919      -21.9676561169      -11.0739565028  MEMB      66              0.0000000000
     47087      1326  PVPG      H4S            28.9532072468      -21.0461457819      -10.5994159138  MEMB      66              0.0000000000
     47088      1326  PVPG      C25            30.7959989517      -19.8171147045      -10.9690840176  MEMB      66              0.0000000000
     47089      1326  PVPG      H5R            30.4680771963      -18.8322688656      -11.3699396791  MEMB      66              0.0000000000
     47090      1326  PVPG      H5S            31.8494124533      -20.0059602142      -11.2351654819  MEMB      66              0.0000000000
     47091      1326  PVPG      C26            30.8863921394      -19.7506332106       -9.5234701099  MEMB      66              0.0000000000
     47092      1326  PVPG      H6R            29.9547598926      -20.2376496001       -9.2548727465  MEMB      66              0.0000000000
     47093      1326  PVPG      H6S            31.1659729445      -18.7664962678       -9.0617803961  MEMB      66              0.0000000000
     47094      1326  PVPG      C27            31.3041086282      -20.9943998652       -8.8876407858  MEMB      66              0.0000000000
     47095      1326  PVPG      H7R            32.2808448540      -20.5781774654       -9.3234894945  MEMB      66              0.0000000000
     47096      1326  PVPG      H7S            31.2003842216      -21.9393867931       -9.3724435788  MEMB      66              0.0000000000
     47097      1326  PVPG      C28            30.9917821085      -21.3200617605       -7.3083306926  MEMB      66              0.0000000000
     47098      1326  PVPG      H8R            30.2376258953      -21.0227615906       -6.6823479014  MEMB      66              0.0000000000
     47099      1326  PVPG      H8S            31.0852236657      -20.2438596215       -7.1642829881  MEMB      66              0.0000000000
     47100      1326  PVPG      C29            31.5971505660      -22.4506961445       -6.2455831344  MEMB      66              0.0000000000
     47101      1326  PVPG      H9R            32.6810466989      -22.5200982793       -6.2268327783  MEMB      66              0.0000000000
     47102      1326  PVPG      H9S            31.3909599075      -23.3474772296       -6.7356683206  MEMB      66              0.0000000000
     47103      1326  PVPG      C210           31.5378582695      -22.6704809617       -4.6863875842  MEMB      66              0.0000000000
     47104      1326  PVPG      H10R           32.0979310854      -23.6059084900       -4.5329304457  MEMB      66              0.0000000000
     47105      1326  PVPG      H10S           30.4823173476      -22.5461072727       -4.5084439967  MEMB      66              0.0000000000
     47106      1326  PVPG      C211           32.4314820317      -21.6837224891       -4.1719605080  MEMB      66              0.0000000000
     47107      1326  PVPG      H111           31.7957030623      -20.8172510685       -4.0006807327  MEMB      66              0.0000000000
     47108      1326  PVPG      C212           33.5468220065      -21.5612966634       -3.5327343349  MEMB      66              0.0000000000
     47109      1326  PVPG      H121           34.0271731372      -20.6389830774       -3.1101249040  MEMB      66              0.0000000000
     47110      1326  PVPG      C213           34.0649427126      -22.6442889959       -3.1113719711  MEMB      66              0.0000000000
     47111      1326  PVPG      H13R           34.9817047330      -22.0092189844       -2.9592646798  MEMB      66              0.0000000000
     47112      1326  PVPG      H13S           34.2399938171      -23.2856740310       -3.9844743345  MEMB      66              0.0000000000
     47113      1326  PVPG      C214           33.4020002797      -23.1967356013       -1.7191963445  MEMB      66              0.0000000000
     47114      1326  PVPG      H14R           33.8552337016      -24.0599027804       -1.3298717739  MEMB      66              0.0000000000
     47115      1326  PVPG      H14S           32.4408450455      -23.6482067813       -1.9488359268  MEMB      66              0.0000000000
     47116      1326  PVPG      C215           33.8428019868      -22.8749810580       -0.1709071770  MEMB      66              0.0000000000
     47117      1326  PVPG      H15R           33.8414932088      -21.8696698271       -0.1779898250  MEMB      66              0.0000000000
     47118      1326  PVPG      H15S           34.8742628181      -22.6400099436        0.1601595572  MEMB      66              0.0000000000
     47119      1326  PVPG      C216           32.9582909943      -23.2732360473        1.0417482998  MEMB      66              0.0000000000
     47120      1326  PVPG      H16R           31.8613475742      -23.2760807267        0.9097158364  MEMB      66              0.0000000000
     47121      1326  PVPG      H16S           33.2307641102      -22.6796940877        1.9316692458  MEMB      66              0.0000000000
     47122      1326  PVPG      C217           33.1115026216      -24.6284158364        1.3838660009  MEMB      66              0.0000000000
     47123      1326  PVPG      H17R           33.3636269041      -25.0116640371        2.3773319126  MEMB      66              0.0000000000
     47124      1326  PVPG      H17S           34.2050331249      -24.6188234151        1.0992751448  MEMB      66              0.0000000000
     47125      1326  PVPG      C218           31.9656484962      -25.4907704961        0.7402743199  MEMB      66              0.0000000000
     47126      1326  PVPG      H18R           31.9706849303      -26.4427437524        1.2751282707  MEMB      66              0.0000000000
     47127      1326  PVPG      H18S           31.3995424810      -25.3544525391       -0.1097502972  MEMB      66              0.0000000000
     47128      1326  PVPG      H18T           32.1921224183      -25.8502935575       -0.3426899951  MEMB      66              0.0000000000
     47129      1326  PVPG      C33            32.0703382051      -26.0559923812       -9.7559442471  MEMB      66              0.0000000000
     47130      1326  PVPG      H3X            32.6079512715      -27.0065635105       -9.9863756424  MEMB      66              0.0000000000
     47131      1326  PVPG      H3Y            31.0968186243      -26.2188761781       -9.2506463759  MEMB      66              0.0000000000
     47132      1326  PVPG      C34            32.7404247205      -25.3651503310       -8.7102698405  MEMB      66              0.0000000000
     47133      1326  PVPG      H4X            32.4189564465      -24.3170418010       -8.7174482360  MEMB      66              0.0000000000
     47134      1326  PVPG      H4Y            33.7860415529      -25.5470008086       -9.0777231593  MEMB      66              0.0000000000
     47135      1326  PVPG      C35            32.6069604972      -25.7056501067       -7.2589575580  MEMB      66              0.0000000000
     47136      1326  PVPG      H5X            33.3350292878      -25.1804557587       -6.5848700452  MEMB      66              0.0000000000
     47137      1326  PVPG      H5Y            32.7322292600      -26.7712048766       -7.2471661986  MEMB      66              0.0000000000
     47138      1326  PVPG      C36            31.3033546711      -25.8134080644       -6.5971529704  MEMB      66              0.0000000000
     47139      1326  PVPG      H6X            30.8550771829      -26.7669108833       -7.0115586276  MEMB      66              0.0000000000
     47140      1326  PVPG      H6Y            30.7169970655      -24.9647138922       -6.8313610081  MEMB      66              0.0000000000
     47141      1326  PVPG      C37            31.5243075810      -25.8685847017       -5.0981072499  MEMB      66              0.0000000000
     47142      1326  PVPG      H7X            32.3304440353      -25.5194071581       -4.4330414040  MEMB      66              0.0000000000
     47143      1326  PVPG      H7Y            32.0581479534      -26.6829817440       -5.3410907804  MEMB      66              0.0000000000
     47144      1326  PVPG      C38            30.3500696865      -26.3663927323       -4.4084717810  MEMB      66              0.0000000000
     47145      1326  PVPG      H8X            29.8534986771      -27.1025918581       -5.0763422591  MEMB      66              0.0000000000
     47146      1326  PVPG      H8Y            29.8098863341      -25.4134777837       -4.3786990152  MEMB      66              0.0000000000
     47147      1326  PVPG      C39            30.6227980965      -26.8921992133       -3.0188613716  MEMB      66              0.0000000000
     47148      1326  PVPG      H9X            31.1754734992      -26.1995135561       -2.3304483365  MEMB      66              0.0000000000
     47149      1326  PVPG      H9Y            30.9114844255      -27.9312820105       -3.2019497943  MEMB      66              0.0000000000
     47150      1326  PVPG      C310           29.6980901056      -27.4092830738       -2.0496657279  MEMB      66              0.0000000000
     47151      1326  PVPG      H10X           29.7697778126      -27.7429213373       -1.0141626180  MEMB      66              0.0000000000
     47152      1326  PVPG      H10Y           29.0515457824      -28.1427650677       -2.5936795451  MEMB      66              0.0000000000
     47153      1326  PVPG      C311           29.0843775857      -26.3526773285       -1.8401392386  MEMB      66              0.0000000000
     47154      1326  PVPG      H11X           28.1669863596      -27.1899905487       -1.6208161958  MEMB      66              0.0000000000
     47155      1326  PVPG      H11Y           28.9536721886      -25.7709215977       -2.8022898151  MEMB      66              0.0000000000
     47156      1326  PVPG      C312           29.3602771776      -25.1387310021       -0.8580140783  MEMB      66              0.0000000000
     47157      1326  PVPG      H12X           30.2100750996      -24.6049514282       -1.1899123356  MEMB      66              0.0000000000
     47158      1326  PVPG      H12Y           29.7178459739      -25.9215713730       -0.0989772563  MEMB      66              0.0000000000
     47159      1326  PVPG      C313           28.3497206517      -23.8081482651       -0.4239416775  MEMB      66              0.0000000000
     47160      1326  PVPG      H13X           28.6885887497      -23.2658151699        0.5021364495  MEMB      66              0.0000000000
     47161      1326  PVPG      H13Y           27.2552259914      -23.9998331595       -0.1422086674  MEMB      66              0.0000000000
     47162      1326  PVPG      C314           27.6449799642      -22.8745446730       -1.3885583902  MEMB      66              0.0000000000
     47163      1326  PVPG      H14X           26.9360505279      -23.2605784534       -2.1624839309  MEMB      66              0.0000000000
     47164      1326  PVPG      H14Y           28.5138889088      -22.5207811076       -1.9099881444  MEMB      66              0.0000000000
     47165      1326  PVPG      C315           26.6492483256      -21.9809610564       -0.7406725685  MEMB      66              0.0000000000
     47166      1326  PVPG      H15X           25.7431250271      -22.3530396322       -0.3145872674  MEMB      66              0.0000000000
     47167      1326  PVPG      H15Y           26.0855984697      -21.6407016371       -1.5994715358  MEMB      66              0.0000000000
     47168      1326  PVPG      C316           27.3196345396      -21.0975241421        0.2261910271  MEMB      66              0.0000000000
     47169      1326  PVPG      H16X           27.5751886517      -21.4617581633        1.2162672369  MEMB      66              0.0000000000
     47170      1326  PVPG      H16Y           28.2650602752      -20.6910075569       -0.2521464039  MEMB      66              0.0000000000
     47171      1326  PVPG      H16Z           26.5596936074      -20.3100180553        0.4281184255  MEMB      66              0.0000000000
     47172      1327  PPPE      N             -25.4229134361       23.4059771178      -19.8620468332  MEMB      67              0.0000000000
     47173      1327  PPPE      HN1           -24.5656057907       23.2857812375      -20.4534989049  MEMB      67              0.0000000000
     47174      1327  PPPE      HN2           -25.1680812143       23.5146222323      -18.8547400633  MEMB      67              0.0000000000
     47175      1327  PPPE      HN3           -25.9954828083       22.5526305132      -19.9579294227  MEMB      67              0.0000000000
     47176      1327  PPPE      C12           -26.2148478848       24.5959880738      -20.3127912091  MEMB      67              0.0000000000
     47177      1327  PPPE      H12A          -26.8652655649       24.2974109847      -21.1591045704  MEMB      67              0.0000000000
     47178      1327  PPPE      H12B          -25.4959947882       25.3638272480      -20.6717405570  MEMB      67              0.0000000000
     47179      1327  PPPE      C11           -27.0470943639       25.1489161468      -19.1630749401  MEMB      67              0.0000000000
     47180      1327  PPPE      H11A          -26.3432383750       25.4341675048      -18.3476550653  MEMB      67              0.0000000000
     47181      1327  PPPE      H11B          -27.7846097572       24.4030580728      -18.7791067491  MEMB      67              0.0000000000
     47182      1327  PPPE      P             -28.5222390953       27.1882565818      -18.6099470448  MEMB      67              0.0000000000
     47183      1327  PPPE      O13           -28.4150668979       28.6024138601      -19.0198090450  MEMB      67              0.0000000000
     47184      1327  PPPE      O14           -29.8232382656       26.5515397779      -18.4776060866  MEMB      67              0.0000000000
     47185      1327  PPPE      O11           -27.7188225040       26.9339682630      -17.2514546812  MEMB      67              0.0000000000
     47186      1327  PPPE      O12           -27.7221641864       26.2981315076      -19.6378724717  MEMB      67              0.0000000000
     47187      1327  PPPE      C1            -28.0655158736       27.6568114939      -16.0598578407  MEMB      67              0.0000000000
     47188      1327  PPPE      HA            -29.1546985516       27.9148487718      -16.0245162683  MEMB      67              0.0000000000
     47189      1327  PPPE      HB            -27.4901614854       28.6086528335      -16.0102483693  MEMB      67              0.0000000000
     47190      1327  PPPE      C2            -27.6842349548       26.8561578137      -14.7799389000  MEMB      67              0.0000000000
     47191      1327  PPPE      HS            -27.9973485720       27.4697569257      -13.8978550628  MEMB      67              0.0000000000
     47192      1327  PPPE      O21           -26.2881910611       26.5410434534      -14.7866529982  MEMB      67              0.0000000000
     47193      1327  PPPE      C21           -25.6846638572       26.6713204406      -13.6314975865  MEMB      67              0.0000000000
     47194      1327  PPPE      O22           -26.1134284618       27.1946352807      -12.6216650510  MEMB      67              0.0000000000
     47195      1327  PPPE      C22           -24.3062941852       26.1204828892      -13.7754511431  MEMB      67              0.0000000000
     47196      1327  PPPE      H2R           -23.5928907497       26.8636315482      -13.3948852725  MEMB      67              0.0000000000
     47197      1327  PPPE      H2S           -24.0687290202       25.8404603250      -14.8256591282  MEMB      67              0.0000000000
     47198      1327  PPPE      C3            -28.4192535032       25.5151344539      -14.7275622051  MEMB      67              0.0000000000
     47199      1327  PPPE      HX            -29.4444496478       25.7612199653      -14.5691119222  MEMB      67              0.0000000000
     47200      1327  PPPE      HY            -28.3220527485       25.0109338425      -15.7080166214  MEMB      67              0.0000000000
     47201      1327  PPPE      O31           -27.9754307695       24.6393090947      -13.6920081443  MEMB      67              0.0000000000
     47202      1327  PPPE      C31           -28.5729461538       24.8335623907      -12.5323702664  MEMB      67              0.0000000000
     47203      1327  PPPE      O32           -29.4199505553       25.6620382096      -12.2739012125  MEMB      67              0.0000000000
     47204      1327  PPPE      C32           -27.9713844781       23.9271597489      -11.5435894678  MEMB      67              0.0000000000
     47205      1327  PPPE      H2X           -26.9556673784       24.3538608573      -11.3844034586  MEMB      67              0.0000000000
     47206      1327  PPPE      H2Y           -27.9236254809       22.8989252344      -11.9688443890  MEMB      67              0.0000000000
     47207      1327  PPPE      C23           -24.1905959620       24.9562890617      -12.8431717698  MEMB      67              0.0000000000
     47208      1327  PPPE      H3R           -23.2569065462       24.4642923873      -13.2109032322  MEMB      67              0.0000000000
     47209      1327  PPPE      H3S           -25.0263760840       24.2125853599      -13.0089893965  MEMB      67              0.0000000000
     47210      1327  PPPE      C24           -23.9058521732       25.3223223070      -11.3413877100  MEMB      67              0.0000000000
     47211      1327  PPPE      H4R           -24.7577128680       25.8824906573      -10.8925410294  MEMB      67              0.0000000000
     47212      1327  PPPE      H4S           -22.9022510085       25.7447711440      -11.2237944420  MEMB      67              0.0000000000
     47213      1327  PPPE      C25           -23.8030094766       24.1437732309      -10.4157178731  MEMB      67              0.0000000000
     47214      1327  PPPE      H5R           -22.9558325288       23.4762583654      -10.6141540339  MEMB      67              0.0000000000
     47215      1327  PPPE      H5S           -24.7154313160       23.8234008331      -10.9041501519  MEMB      67              0.0000000000
     47216      1327  PPPE      C26           -23.7343142298       24.1799380741       -8.9353785234  MEMB      67              0.0000000000
     47217      1327  PPPE      H6R           -24.4798177034       24.9095406055       -8.5587838874  MEMB      67              0.0000000000
     47218      1327  PPPE      H6S           -22.6768324064       24.3280651529       -8.6866708856  MEMB      67              0.0000000000
     47219      1327  PPPE      C27           -23.8535011433       22.8830819160       -8.1829390282  MEMB      67              0.0000000000
     47220      1327  PPPE      H7R           -23.6267507099       21.8571476996       -8.5344953214  MEMB      67              0.0000000000
     47221      1327  PPPE      H7S           -24.8773922078       22.8987510832       -8.2736471440  MEMB      67              0.0000000000
     47222      1327  PPPE      C28           -23.6147545818       23.0172263064       -6.7076537834  MEMB      67              0.0000000000
     47223      1327  PPPE      H8R           -22.5726141444       22.9654438103       -6.4510636546  MEMB      67              0.0000000000
     47224      1327  PPPE      H8S           -23.7284399827       21.9020869584       -6.5533686453  MEMB      67              0.0000000000
     47225      1327  PPPE      C29           -24.5269008549       24.1395422422       -6.0248373516  MEMB      67              0.0000000000
     47226      1327  PPPE      H91           -24.8537934136       24.9332686509       -6.6917759530  MEMB      67              0.0000000000
     47227      1327  PPPE      C210          -25.1988056504       24.2046417803       -4.7731736593  MEMB      67              0.0000000000
     47228      1327  PPPE      H101          -26.0656399735       24.7823828040       -4.5134619343  MEMB      67              0.0000000000
     47229      1327  PPPE      C211          -25.3930792722       23.3737244160       -3.5549467801  MEMB      67              0.0000000000
     47230      1327  PPPE      H11R          -24.9803261356       23.5836754785       -2.6097703178  MEMB      67              0.0000000000
     47231      1327  PPPE      H11S          -24.6214946786       22.9737350249       -4.1715446534  MEMB      67              0.0000000000
     47232      1327  PPPE      C212          -26.4586942544       22.4138939709       -2.7763867489  MEMB      67              0.0000000000
     47233      1327  PPPE      H12R          -26.1602447598       21.6376468911       -2.0477121335  MEMB      67              0.0000000000
     47234      1327  PPPE      H12S          -26.8643249598       21.4849987573       -3.1643569055  MEMB      67              0.0000000000
     47235      1327  PPPE      C213          -27.7806385307       22.8769204606       -2.8476292150  MEMB      67              0.0000000000
     47236      1327  PPPE      H13R          -28.4895077670       22.0051607747       -2.8963486422  MEMB      67              0.0000000000
     47237      1327  PPPE      H13S          -27.9095932043       23.5488658404       -3.7083793467  MEMB      67              0.0000000000
     47238      1327  PPPE      C214          -27.6285245467       23.3561737476       -1.4939792000  MEMB      67              0.0000000000
     47239      1327  PPPE      H14R          -26.6618386434       23.9444684481       -1.4102050844  MEMB      67              0.0000000000
     47240      1327  PPPE      H14S          -27.6544721123       22.3166449620       -0.9777448744  MEMB      67              0.0000000000
     47241      1327  PPPE      C215          -28.7152432777       24.3367786096       -1.3177195535  MEMB      67              0.0000000000
     47242      1327  PPPE      H15R          -29.6870718483       24.0028002188       -1.6754052696  MEMB      67              0.0000000000
     47243      1327  PPPE      H15S          -28.6387822585       25.1626523159       -2.0295844767  MEMB      67              0.0000000000
     47244      1327  PPPE      C216          -28.7970324297       24.6344724028        0.1429544056  MEMB      67              0.0000000000
     47245      1327  PPPE      H16R          -29.7492810560       25.1525693365        0.3038254083  MEMB      67              0.0000000000
     47246      1327  PPPE      H16S          -28.7896170198       23.7445653683        0.8182856173  MEMB      67              0.0000000000
     47247      1327  PPPE      H16T          -27.8978621437       25.2336805743        0.3610811973  MEMB      67              0.0000000000
     47248      1327  PPPE      C33           -28.8316515740       23.9684201005      -10.2827441825  MEMB      67              0.0000000000
     47249      1327  PPPE      H3X           -28.8640166082       22.8988097851       -9.9954985136  MEMB      67              0.0000000000
     47250      1327  PPPE      H3Y           -29.9134235285       24.1237370449      -10.4253907785  MEMB      67              0.0000000000
     47251      1327  PPPE      C34           -28.2395693654       24.9161631990       -9.2039602844  MEMB      67              0.0000000000
     47252      1327  PPPE      H4X           -27.1510165152       24.7185095709       -9.0391506919  MEMB      67              0.0000000000
     47253      1327  PPPE      H4Y           -28.7436421809       24.7131397702       -8.2326612670  MEMB      67              0.0000000000
     47254      1327  PPPE      C35           -28.2597503757       26.3968898996       -9.5361743708  MEMB      67              0.0000000000
     47255      1327  PPPE      H5X           -29.2753946977       26.6742683030       -9.8947157143  MEMB      67              0.0000000000
     47256      1327  PPPE      H5Y           -27.5348497127       26.5818462153      -10.3603760695  MEMB      67              0.0000000000
     47257      1327  PPPE      C36           -27.9190597670       27.2452178763       -8.3116347634  MEMB      67              0.0000000000
     47258      1327  PPPE      H6X           -28.7010704972       27.0149861151       -7.5495484863  MEMB      67              0.0000000000
     47259      1327  PPPE      H6Y           -27.9798160189       28.3174173109       -8.5979380240  MEMB      67              0.0000000000
     47260      1327  PPPE      C37           -26.6066006077       26.9398151834       -7.5824002997  MEMB      67              0.0000000000
     47261      1327  PPPE      H7X           -25.6965251581       27.1329679996       -8.1925968754  MEMB      67              0.0000000000
     47262      1327  PPPE      H7Y           -26.5915838141       25.8706482041       -7.2900382933  MEMB      67              0.0000000000
     47263      1327  PPPE      C38           -26.5387636146       27.7685400598       -6.3085136712  MEMB      67              0.0000000000
     47264      1327  PPPE      H8X           -27.3341468871       27.4436820008       -5.5964426373  MEMB      67              0.0000000000
     47265      1327  PPPE      H8Y           -26.7520212743       28.8181646391       -6.6214211341  MEMB      67              0.0000000000
     47266      1327  PPPE      C39           -25.1580637818       27.6302305550       -5.6577987039  MEMB      67              0.0000000000
     47267      1327  PPPE      H9X           -24.4057218885       27.9896828999       -6.3962688971  MEMB      67              0.0000000000
     47268      1327  PPPE      H9Y           -24.9687456133       26.6175785274       -5.3433942983  MEMB      67              0.0000000000
     47269      1327  PPPE      C310          -25.0435911069       28.3942766881       -4.3730106215  MEMB      67              0.0000000000
     47270      1327  PPPE      H10X          -26.0499383652       28.4386879279       -3.9033564033  MEMB      67              0.0000000000
     47271      1327  PPPE      H10Y          -24.7758853813       29.2380815966       -4.9948747858  MEMB      67              0.0000000000
     47272      1327  PPPE      C311          -23.8813319068       28.4885351853       -3.3956795873  MEMB      67              0.0000000000
     47273      1327  PPPE      H11X          -24.1269704259       29.1038637224       -2.4949836934  MEMB      67              0.0000000000
     47274      1327  PPPE      H11Y          -22.9965811659       28.9954836247       -3.8234604011  MEMB      67              0.0000000000
     47275      1327  PPPE      C312          -23.5302782486       27.0869209103       -3.0597851139  MEMB      67              0.0000000000
     47276      1327  PPPE      H12X          -22.6366547617       27.1086430723       -2.4149998186  MEMB      67              0.0000000000
     47277      1327  PPPE      H12Y          -23.2593663272       26.6111992148       -4.0326926441  MEMB      67              0.0000000000
     47278      1327  PPPE      C313          -24.7045250634       26.3207084284       -2.4393009198  MEMB      67              0.0000000000
     47279      1327  PPPE      H13X          -24.3273464807       25.2929422074       -2.3203376327  MEMB      67              0.0000000000
     47280      1327  PPPE      H13Y          -25.5850082711       26.2620803365       -3.1185210598  MEMB      67              0.0000000000
     47281      1327  PPPE      C314          -25.1665091985       26.8226702737       -1.0698797655  MEMB      67              0.0000000000
     47282      1327  PPPE      H14X          -24.3973192841       27.5167374140       -0.6667607416  MEMB      67              0.0000000000
     47283      1327  PPPE      H14Y          -25.2471404069       25.9609989889       -0.3747607123  MEMB      67              0.0000000000
     47284      1327  PPPE      C315          -26.5438875669       27.4753886071       -1.0855964097  MEMB      67              0.0000000000
     47285      1327  PPPE      H15X          -27.3415127474       26.8391792541       -1.4978686426  MEMB      67              0.0000000000
     47286      1327  PPPE      H15Y          -26.5091853276       28.3388393296       -1.7509919334  MEMB      67              0.0000000000
     47287      1327  PPPE      C316          -27.0319777196       27.9061601718        0.2694428224  MEMB      67              0.0000000000
     47288      1327  PPPE      H16X          -27.0416407774       27.2357755588        1.1243980718  MEMB      67              0.0000000000
     47289      1327  PPPE      H16Y          -26.2586845849       28.5521291810        0.7044314982  MEMB      67              0.0000000000
     47290      1327  PPPE      H16Z          -28.0303088129       28.4093423598        0.1242715588  MEMB      67              0.0000000000
     47291      1328  PPPE      N              -4.2491914547       37.7319933425      -21.1187183693  MEMB      68              0.0000000000
     47292      1328  PPPE      HN1            -3.3648621543       38.1856654153      -20.7911511413  MEMB      68              0.0000000000
     47293      1328  PPPE      HN2            -4.0687264736       37.2304060823      -22.0227917119  MEMB      68              0.0000000000
     47294      1328  PPPE      HN3            -4.9406342179       38.5129170664      -21.2290650393  MEMB      68              0.0000000000
     47295      1328  PPPE      C12            -4.7494660044       36.8002540083      -20.0408509853  MEMB      68              0.0000000000
     47296      1328  PPPE      H12A           -3.9348736573       36.0833784364      -19.8099517386  MEMB      68              0.0000000000
     47297      1328  PPPE      H12B           -5.6396747551       36.2699603174      -20.4432310089  MEMB      68              0.0000000000
     47298      1328  PPPE      C11            -5.1496067245       37.5758364265      -18.7805641890  MEMB      68              0.0000000000
     47299      1328  PPPE      H11A           -4.3869287561       38.3697133786      -18.5846894224  MEMB      68              0.0000000000
     47300      1328  PPPE      H11B           -5.1678046113       36.8990713545      -17.8953155664  MEMB      68              0.0000000000
     47301      1328  PPPE      P              -6.8916263801       39.4941545337      -18.3552440048  MEMB      68              0.0000000000
     47302      1328  PPPE      O13            -6.4301645503       40.5264530142      -19.2765900204  MEMB      68              0.0000000000
     47303      1328  PPPE      O14            -8.3338441593       39.5016666134      -18.0768267957  MEMB      68              0.0000000000
     47304      1328  PPPE      O11            -6.0004552213       39.5958489565      -17.0556994772  MEMB      68              0.0000000000
     47305      1328  PPPE      O12            -6.4604474679       38.0948128934      -18.9712084840  MEMB      68              0.0000000000
     47306      1328  PPPE      C1             -6.5204625560       40.3424773604      -15.9561532426  MEMB      68              0.0000000000
     47307      1328  PPPE      HA             -7.5510030460       40.0047230825      -15.6976581233  MEMB      68              0.0000000000
     47308      1328  PPPE      HB             -6.5917345828       41.4312793813      -16.1996612702  MEMB      68              0.0000000000
     47309      1328  PPPE      C2             -5.6210353132       40.1502329649      -14.7027693417  MEMB      68              0.0000000000
     47310      1328  PPPE      HS             -4.7411120394       40.8191633252      -14.8482032895  MEMB      68              0.0000000000
     47311      1328  PPPE      O21            -5.2088290204       38.7678907903      -14.5552955836  MEMB      68              0.0000000000
     47312      1328  PPPE      C21            -4.0321012306       38.6128045512      -13.9539908075  MEMB      68              0.0000000000
     47313      1328  PPPE      O22            -3.4153110288       39.4801593825      -13.3639690278  MEMB      68              0.0000000000
     47314      1328  PPPE      C22            -3.4877391358       37.2155732786      -14.2462416675  MEMB      68              0.0000000000
     47315      1328  PPPE      H2R            -2.3864215322       37.3175019710      -14.3693650716  MEMB      68              0.0000000000
     47316      1328  PPPE      H2S            -3.9508816889       36.8111042493      -15.1667097999  MEMB      68              0.0000000000
     47317      1328  PPPE      C3             -6.3801345185       40.6331268227      -13.4494688429  MEMB      68              0.0000000000
     47318      1328  PPPE      HX             -5.7053148751       40.5542552179      -12.5677732224  MEMB      68              0.0000000000
     47319      1328  PPPE      HY             -6.6043960279       41.7073170178      -13.6421622880  MEMB      68              0.0000000000
     47320      1328  PPPE      O31            -7.6254213556       39.9261295752      -13.3109793449  MEMB      68              0.0000000000
     47321      1328  PPPE      C31            -7.7167992694       39.0339657250      -12.3484979091  MEMB      68              0.0000000000
     47322      1328  PPPE      O32            -6.9343769148       38.8468758962      -11.4371097647  MEMB      68              0.0000000000
     47323      1328  PPPE      C32            -8.9665972056       38.2333858820      -12.5632603668  MEMB      68              0.0000000000
     47324      1328  PPPE      H2X            -9.7202153692       38.8208535262      -13.1335272172  MEMB      68              0.0000000000
     47325      1328  PPPE      H2Y            -9.4284601825       37.9629388232      -11.5940490039  MEMB      68              0.0000000000
     47326      1328  PPPE      C23            -3.7144721749       36.2518954144      -13.0802814211  MEMB      68              0.0000000000
     47327      1328  PPPE      H3R            -3.3759174415       35.2372104199      -13.3938385636  MEMB      68              0.0000000000
     47328      1328  PPPE      H3S            -4.7940937339       36.1542903093      -12.8547650492  MEMB      68              0.0000000000
     47329      1328  PPPE      C24            -2.9473324472       36.7292567621      -11.8433933411  MEMB      68              0.0000000000
     47330      1328  PPPE      H4R            -2.1076488583       37.4207596095      -12.0879805844  MEMB      68              0.0000000000
     47331      1328  PPPE      H4S            -2.5910773101       35.8762423871      -11.2804409183  MEMB      68              0.0000000000
     47332      1328  PPPE      C25            -3.8230356561       37.2634314151      -10.7250472536  MEMB      68              0.0000000000
     47333      1328  PPPE      H5R            -4.6503021711       36.5310943213      -10.5733681514  MEMB      68              0.0000000000
     47334      1328  PPPE      H5S            -4.2401489723       38.1986800276      -11.1194472547  MEMB      68              0.0000000000
     47335      1328  PPPE      C26            -3.0495803491       37.5046118387       -9.4080393135  MEMB      68              0.0000000000
     47336      1328  PPPE      H6R            -2.3734140416       38.3661597795       -9.5075633038  MEMB      68              0.0000000000
     47337      1328  PPPE      H6S            -2.3380591483       36.6688938299       -9.2975771746  MEMB      68              0.0000000000
     47338      1328  PPPE      C27            -3.9838094778       37.6883684752       -8.1841649239  MEMB      68              0.0000000000
     47339      1328  PPPE      H7R            -4.4685472241       36.7130636495       -8.0070658709  MEMB      68              0.0000000000
     47340      1328  PPPE      H7S            -4.8540389329       38.3114167370       -8.4970877209  MEMB      68              0.0000000000
     47341      1328  PPPE      C28            -3.4098260987       38.4134428945       -6.9040767771  MEMB      68              0.0000000000
     47342      1328  PPPE      H8R            -4.3181904927       38.7956063814       -6.4209175641  MEMB      68              0.0000000000
     47343      1328  PPPE      H8S            -2.7279974411       39.2184671412       -7.2382999663  MEMB      68              0.0000000000
     47344      1328  PPPE      C29            -2.7846259541       37.8468570856       -5.7002774146  MEMB      68              0.0000000000
     47345      1328  PPPE      H91            -1.7630640627       37.5401930634       -6.0246288723  MEMB      68              0.0000000000
     47346      1328  PPPE      C210           -3.5415055205       37.0886254168       -4.8237156760  MEMB      68              0.0000000000
     47347      1328  PPPE      H101           -3.2734412563       36.1267665030       -4.3295696884  MEMB      68              0.0000000000
     47348      1328  PPPE      C211           -4.8747781232       36.6256334492       -4.6951237923  MEMB      68              0.0000000000
     47349      1328  PPPE      H11R           -4.9895444711       35.5709640539       -5.0674752878  MEMB      68              0.0000000000
     47350      1328  PPPE      H11S           -5.3527192143       37.3329024018       -5.3269495746  MEMB      68              0.0000000000
     47351      1328  PPPE      C212           -4.8288706241       36.8230189132       -3.1861454883  MEMB      68              0.0000000000
     47352      1328  PPPE      H12R           -4.3119190255       36.0327317202       -2.5722339661  MEMB      68              0.0000000000
     47353      1328  PPPE      H12S           -5.8895187589       36.7230387338       -2.9340176918  MEMB      68              0.0000000000
     47354      1328  PPPE      C213           -4.2879288909       38.2410580837       -2.8169133661  MEMB      68              0.0000000000
     47355      1328  PPPE      H13R           -4.9851341817       38.9232134654       -3.3375625687  MEMB      68              0.0000000000
     47356      1328  PPPE      H13S           -3.2717493769       38.5842787473       -3.1669652424  MEMB      68              0.0000000000
     47357      1328  PPPE      C214           -4.1622354492       38.3562217828       -1.3553968772  MEMB      68              0.0000000000
     47358      1328  PPPE      H14R           -3.6422711175       39.2954391703       -1.1627934649  MEMB      68              0.0000000000
     47359      1328  PPPE      H14S           -3.5252888920       37.5548035238       -0.9391249447  MEMB      68              0.0000000000
     47360      1328  PPPE      C215           -5.5564063157       38.3182991054       -0.8098680313  MEMB      68              0.0000000000
     47361      1328  PPPE      H15R           -5.9896428372       37.3070057586       -0.9738053790  MEMB      68              0.0000000000
     47362      1328  PPPE      H15S           -6.1424264941       39.0454474412       -1.4206914389  MEMB      68              0.0000000000
     47363      1328  PPPE      C216           -5.6260473536       38.6995096323        0.6454588344  MEMB      68              0.0000000000
     47364      1328  PPPE      H16R           -4.9769795980       38.0616085644        1.2789628931  MEMB      68              0.0000000000
     47365      1328  PPPE      H16S           -5.3057129173       39.7447675546        0.7538094553  MEMB      68              0.0000000000
     47366      1328  PPPE      H16T           -6.6714729176       38.6415348639        0.9935074944  MEMB      68              0.0000000000
     47367      1328  PPPE      C33            -8.4880345689       37.0352456117      -13.3845237771  MEMB      68              0.0000000000
     47368      1328  PPPE      H3X            -7.9765939064       37.3060582487      -14.3310822608  MEMB      68              0.0000000000
     47369      1328  PPPE      H3Y            -9.4135721845       36.5289282400      -13.6291459947  MEMB      68              0.0000000000
     47370      1328  PPPE      C34            -7.6989292752       35.9729054112      -12.6542214267  MEMB      68              0.0000000000
     47371      1328  PPPE      H4X            -6.7642085938       36.3014547846      -12.1725306894  MEMB      68              0.0000000000
     47372      1328  PPPE      H4Y            -7.3926455588       35.1558646783      -13.3540809413  MEMB      68              0.0000000000
     47373      1328  PPPE      C35            -8.5318047695       35.3876429267      -11.5714724783  MEMB      68              0.0000000000
     47374      1328  PPPE      H5X            -9.6186402776       35.3906510065      -11.7411659949  MEMB      68              0.0000000000
     47375      1328  PPPE      H5Y            -8.5005821833       35.9581737975      -10.6318686429  MEMB      68              0.0000000000
     47376      1328  PPPE      C36            -8.0543432717       33.9858950155      -11.4158048984  MEMB      68              0.0000000000
     47377      1328  PPPE      H6X            -8.1386358678       33.3367832400      -12.3109059534  MEMB      68              0.0000000000
     47378      1328  PPPE      H6Y            -8.8250534097       33.7692758414      -10.6685372254  MEMB      68              0.0000000000
     47379      1328  PPPE      C37            -6.6180125034       33.6779999175      -10.9835239381  MEMB      68              0.0000000000
     47380      1328  PPPE      H7X            -5.9479476347       33.8969086397      -11.8140236055  MEMB      68              0.0000000000
     47381      1328  PPPE      H7Y            -6.4875029306       32.5720492991      -10.8484349462  MEMB      68              0.0000000000
     47382      1328  PPPE      C38            -6.1913902154       34.4038872079       -9.7284706764  MEMB      68              0.0000000000
     47383      1328  PPPE      H8X            -6.5551909303       35.4549893011       -9.6898600929  MEMB      68              0.0000000000
     47384      1328  PPPE      H8Y            -5.1128504202       34.2812994773       -9.5629960521  MEMB      68              0.0000000000
     47385      1328  PPPE      C39            -6.8361136614       33.7845537373       -8.5676677874  MEMB      68              0.0000000000
     47386      1328  PPPE      H9X            -6.5287392536       32.6992568859       -8.5104133954  MEMB      68              0.0000000000
     47387      1328  PPPE      H9Y            -7.8541337966       33.8849017452       -8.9689796495  MEMB      68              0.0000000000
     47388      1328  PPPE      C310           -6.7093085270       34.5881245361       -7.2395001971  MEMB      68              0.0000000000
     47389      1328  PPPE      H10X           -7.0346573746       35.6034148983       -7.1454839868  MEMB      68              0.0000000000
     47390      1328  PPPE      H10Y           -5.6234810942       34.4539775959       -7.0591707827  MEMB      68              0.0000000000
     47391      1328  PPPE      C311           -7.7255814235       34.1679908646       -6.1636891539  MEMB      68              0.0000000000
     47392      1328  PPPE      H11X           -7.3914060839       33.1901391441       -6.6776150321  MEMB      68              0.0000000000
     47393      1328  PPPE      H11Y           -8.7508915800       34.2120460737       -6.2956665771  MEMB      68              0.0000000000
     47394      1328  PPPE      C312           -7.9387397020       34.4229414938       -4.5256511776  MEMB      68              0.0000000000
     47395      1328  PPPE      H12X           -8.2759344735       35.4331756705       -4.5207053222  MEMB      68              0.0000000000
     47396      1328  PPPE      H12Y           -7.0766121234       34.7097740675       -3.9907007228  MEMB      68              0.0000000000
     47397      1328  PPPE      C313           -8.6975780396       33.5072701987       -3.4112064833  MEMB      68              0.0000000000
     47398      1328  PPPE      H13X           -8.4312563037       32.4928179395       -3.0155750320  MEMB      68              0.0000000000
     47399      1328  PPPE      H13Y           -9.6800439053       33.3257609401       -3.8145068964  MEMB      68              0.0000000000
     47400      1328  PPPE      C314           -8.7834439747       34.0153473424       -1.9814230058  MEMB      68              0.0000000000
     47401      1328  PPPE      H14X           -9.3937535738       33.2663912077       -1.4056405342  MEMB      68              0.0000000000
     47402      1328  PPPE      H14Y           -9.2226027508       35.0195721713       -2.0348627537  MEMB      68              0.0000000000
     47403      1328  PPPE      C315           -7.5127590782       33.9535706905       -1.2018788401  MEMB      68              0.0000000000
     47404      1328  PPPE      H15X           -6.7460411222       34.6999439051       -1.5467579573  MEMB      68              0.0000000000
     47405      1328  PPPE      H15Y           -7.1560706914       32.9111132333       -0.9792400294  MEMB      68              0.0000000000
     47406      1328  PPPE      C316           -7.6050861583       34.4645525722        0.0586548734  MEMB      68              0.0000000000
     47407      1328  PPPE      H16X           -7.7164628033       35.5550251595       -0.2276755242  MEMB      68              0.0000000000
     47408      1328  PPPE      H16Y           -8.4892438443       34.0791657685        0.5667636673  MEMB      68              0.0000000000
     47409      1328  PPPE      H16Z           -6.6944615995       34.3184866676        0.7047443362  MEMB      68              0.0000000000
     47410      1329  PPPE      N              25.6717875715       30.5662422503      -21.0411374019  MEMB      69              0.0000000000
     47411      1329  PPPE      HN1            26.3294238584       30.6359988386      -21.8461369237  MEMB      69              0.0000000000
     47412      1329  PPPE      HN2            26.1457250363       30.9114564704      -20.1776149179  MEMB      69              0.0000000000
     47413      1329  PPPE      HN3            25.3710513535       29.5799476597      -20.8876901482  MEMB      69              0.0000000000
     47414      1329  PPPE      C12            24.3845545108       31.3248648910      -21.3061927008  MEMB      69              0.0000000000
     47415      1329  PPPE      H12A           23.8636667737       30.8469315210      -22.1558147333  MEMB      69              0.0000000000
     47416      1329  PPPE      H12B           24.6602508259       32.3178840469      -21.6601140919  MEMB      69              0.0000000000
     47417      1329  PPPE      C11            23.5031220834       31.5318156763      -20.0461356813  MEMB      69              0.0000000000
     47418      1329  PPPE      H11A           22.6090680990       32.1406614958      -20.3417963598  MEMB      69              0.0000000000
     47419      1329  PPPE      H11B           24.0809842023       32.1738046566      -19.3380166714  MEMB      69              0.0000000000
     47420      1329  PPPE      P              22.7184442789       30.1292392321      -17.8909867876  MEMB      69              0.0000000000
     47421      1329  PPPE      O13            22.1174403252       31.3704431330      -17.3769637913  MEMB      69              0.0000000000
     47422      1329  PPPE      O14            22.0310914187       28.8447083506      -17.6626553276  MEMB      69              0.0000000000
     47423      1329  PPPE      O11            24.1549441672       30.0700095364      -17.2916234708  MEMB      69              0.0000000000
     47424      1329  PPPE      O12            23.0956242388       30.2900387354      -19.4554754012  MEMB      69              0.0000000000
     47425      1329  PPPE      C1             25.1184385647       29.1146345210      -17.6464218025  MEMB      69              0.0000000000
     47426      1329  PPPE      HA             26.0022773013       29.4833697105      -17.0961764499  MEMB      69              0.0000000000
     47427      1329  PPPE      HB             25.3738975575       29.1392581534      -18.7107459929  MEMB      69              0.0000000000
     47428      1329  PPPE      C2             24.7162469867       27.6508057695      -17.3130771437  MEMB      69              0.0000000000
     47429      1329  PPPE      HS             23.9546943665       27.2556144502      -18.0053755606  MEMB      69              0.0000000000
     47430      1329  PPPE      O21            24.2037679184       27.7337350329      -15.9852446279  MEMB      69              0.0000000000
     47431      1329  PPPE      C21            23.5845584940       26.7404902943      -15.5433524796  MEMB      69              0.0000000000
     47432      1329  PPPE      O22            23.5521279820       25.5930828985      -16.0047689348  MEMB      69              0.0000000000
     47433      1329  PPPE      C22            22.9704199474       27.2167296631      -14.2059195259  MEMB      69              0.0000000000
     47434      1329  PPPE      H2R            22.6881129421       26.3160006101      -13.7723021447  MEMB      69              0.0000000000
     47435      1329  PPPE      H2S            21.9161595443       27.4306734180      -14.1072913392  MEMB      69              0.0000000000
     47436      1329  PPPE      C3             25.8930936414       26.7085252763      -17.4496164100  MEMB      69              0.0000000000
     47437      1329  PPPE      HX             25.6834103273       25.6267325337      -17.3270696874  MEMB      69              0.0000000000
     47438      1329  PPPE      HY             26.4847333647       26.8716298258      -18.3698578732  MEMB      69              0.0000000000
     47439      1329  PPPE      O31            26.5684012020       27.1056294928      -16.3419876166  MEMB      69              0.0000000000
     47440      1329  PPPE      C31            27.5461866872       27.9452119764      -16.4192145043  MEMB      69              0.0000000000
     47441      1329  PPPE      O32            28.1026931403       28.3377055139      -17.4297070921  MEMB      69              0.0000000000
     47442      1329  PPPE      C32            27.9847250814       27.9925893913      -15.0066896152  MEMB      69              0.0000000000
     47443      1329  PPPE      H2X            29.0129131659       28.4050567125      -14.7721053721  MEMB      69              0.0000000000
     47444      1329  PPPE      H2Y            27.7760113978       26.8958597057      -14.8405777329  MEMB      69              0.0000000000
     47445      1329  PPPE      C23            23.8599605420       28.1109093703      -13.2983408544  MEMB      69              0.0000000000
     47446      1329  PPPE      H3R            24.9276953937       28.0292397039      -13.5754432594  MEMB      69              0.0000000000
     47447      1329  PPPE      H3S            23.8544916534       27.8356034955      -12.2113785784  MEMB      69              0.0000000000
     47448      1329  PPPE      C24            23.3133908821       29.4908289035      -13.4267325678  MEMB      69              0.0000000000
     47449      1329  PPPE      H4R            22.4688756373       29.4541373875      -14.1560461138  MEMB      69              0.0000000000
     47450      1329  PPPE      H4S            24.1032863479       30.0998222372      -13.8980110830  MEMB      69              0.0000000000
     47451      1329  PPPE      C25            22.8017891524       29.9981196410      -12.0830500880  MEMB      69              0.0000000000
     47452      1329  PPPE      H5R            22.1408586824       29.2261391428      -11.6188779300  MEMB      69              0.0000000000
     47453      1329  PPPE      H5S            22.1959547574       30.9135891444      -12.2683342528  MEMB      69              0.0000000000
     47454      1329  PPPE      C26            23.9420973546       30.2886244015      -11.1101703781  MEMB      69              0.0000000000
     47455      1329  PPPE      H6R            24.6911280130       30.9170006516      -11.6461408100  MEMB      69              0.0000000000
     47456      1329  PPPE      H6S            24.4319128754       29.3305684301      -10.8418229232  MEMB      69              0.0000000000
     47457      1329  PPPE      C27            23.4234276392       30.9441900724       -9.8262335439  MEMB      69              0.0000000000
     47458      1329  PPPE      H7R            22.5360398154       30.3971164881       -9.4336320149  MEMB      69              0.0000000000
     47459      1329  PPPE      H7S            23.0884348188       31.9735331171      -10.0915230018  MEMB      69              0.0000000000
     47460      1329  PPPE      C28            24.4200099077       30.9797769619       -8.6574039985  MEMB      69              0.0000000000
     47461      1329  PPPE      H8R            23.8982908097       31.5763480891       -7.8717070831  MEMB      69              0.0000000000
     47462      1329  PPPE      H8S            25.2972964467       31.5914499868       -8.9698512353  MEMB      69              0.0000000000
     47463      1329  PPPE      C29            24.8302368063       29.5954188884       -8.1677835487  MEMB      69              0.0000000000
     47464      1329  PPPE      H91            25.3130094841       28.9491297254       -8.9139473140  MEMB      69              0.0000000000
     47465      1329  PPPE      C210           24.4972446446       28.9920617673       -7.0156903585  MEMB      69              0.0000000000
     47466      1329  PPPE      H101           25.0164578835       28.0449255242       -6.7563082477  MEMB      69              0.0000000000
     47467      1329  PPPE      C211           23.6108404486       29.6048285404       -5.9451136764  MEMB      69              0.0000000000
     47468      1329  PPPE      H11R           23.0533353088       28.8137360084       -5.3928190163  MEMB      69              0.0000000000
     47469      1329  PPPE      H11S           22.8803043566       30.3208140212       -6.3502506229  MEMB      69              0.0000000000
     47470      1329  PPPE      C212           24.2906788899       30.4354395918       -4.8897815698  MEMB      69              0.0000000000
     47471      1329  PPPE      H12R           24.3418697943       31.5340840530       -5.0097172484  MEMB      69              0.0000000000
     47472      1329  PPPE      H12S           25.3414415583       30.0557868862       -5.0776662450  MEMB      69              0.0000000000
     47473      1329  PPPE      C213           23.7022493985       30.1215762925       -3.4682802127  MEMB      69              0.0000000000
     47474      1329  PPPE      H13R           24.0041602066       29.0426933737       -3.4129526079  MEMB      69              0.0000000000
     47475      1329  PPPE      H13S           22.6190987659       30.0829961897       -3.3899585439  MEMB      69              0.0000000000
     47476      1329  PPPE      C214           23.9731925337       30.9342738759       -2.1551126908  MEMB      69              0.0000000000
     47477      1329  PPPE      H14R           23.6557233053       31.9365424721       -1.8751970604  MEMB      69              0.0000000000
     47478      1329  PPPE      H14S           24.9273493727       31.4480412153       -2.0408472317  MEMB      69              0.0000000000
     47479      1329  PPPE      C215           23.9999645461       30.0310157577       -0.9564653181  MEMB      69              0.0000000000
     47480      1329  PPPE      H15R           24.4744049738       30.7824378759       -0.2679673254  MEMB      69              0.0000000000
     47481      1329  PPPE      H15S           24.5181586738       29.0293760860       -1.0217474247  MEMB      69              0.0000000000
     47482      1329  PPPE      C216           23.0075156318       29.1860579869       -0.3251239451  MEMB      69              0.0000000000
     47483      1329  PPPE      H16R           23.4691195148       28.3869898491        0.3378874192  MEMB      69              0.0000000000
     47484      1329  PPPE      H16S           22.7305842100       30.0711196849        0.2643056086  MEMB      69              0.0000000000
     47485      1329  PPPE      H16T           22.6319893853       28.7704410962       -1.2871528418  MEMB      69              0.0000000000
     47486      1329  PPPE      C33            27.6705485039       28.7962801549      -13.8857884407  MEMB      69              0.0000000000
     47487      1329  PPPE      H3X            26.8072305240       28.1688593570      -13.6011493571  MEMB      69              0.0000000000
     47488      1329  PPPE      H3Y            27.6379141318       29.7389296815      -14.4397456725  MEMB      69              0.0000000000
     47489      1329  PPPE      C34            28.8098783713       28.8749741123      -12.8630507791  MEMB      69              0.0000000000
     47490      1329  PPPE      H4X            29.8777674448       28.5827409331      -13.0123069915  MEMB      69              0.0000000000
     47491      1329  PPPE      H4Y            28.5638822463       27.9959698619      -12.3397835358  MEMB      69              0.0000000000
     47492      1329  PPPE      C35            28.3515180475       29.4451149470      -11.6391729173  MEMB      69              0.0000000000
     47493      1329  PPPE      H5X            27.2674012408       29.6789521036      -11.6827999255  MEMB      69              0.0000000000
     47494      1329  PPPE      H5Y            28.9389946360       30.2916325750      -11.6046052472  MEMB      69              0.0000000000
     47495      1329  PPPE      C36            29.1007872700       29.0248606753      -10.4338423290  MEMB      69              0.0000000000
     47496      1329  PPPE      H6X            30.1802947580       29.2574344947      -10.4729216413  MEMB      69              0.0000000000
     47497      1329  PPPE      H6Y            29.1051436999       28.0401979608      -10.0915754143  MEMB      69              0.0000000000
     47498      1329  PPPE      C37            28.4915661857       29.7878224872       -9.3904363483  MEMB      69              0.0000000000
     47499      1329  PPPE      H7X            27.3736778047       29.7211682366       -9.3902959409  MEMB      69              0.0000000000
     47500      1329  PPPE      H7Y            28.6816860339       30.8391524708       -9.7450111857  MEMB      69              0.0000000000
     47501      1329  PPPE      C38            29.1356800736       29.4227472676       -8.0478824559  MEMB      69              0.0000000000
     47502      1329  PPPE      H8X            30.1894935869       29.7550847503       -8.0113610863  MEMB      69              0.0000000000
     47503      1329  PPPE      H8Y            28.9167521627       28.3754009146       -7.8628632616  MEMB      69              0.0000000000
     47504      1329  PPPE      C39            28.4894941384       29.8727164250       -6.7923957900  MEMB      69              0.0000000000
     47505      1329  PPPE      H9X            27.3854065318       29.7075175101       -6.9396373626  MEMB      69              0.0000000000
     47506      1329  PPPE      H9Y            28.9685760647       30.8770647196       -6.6926126918  MEMB      69              0.0000000000
     47507      1329  PPPE      C310           28.8602186289       29.6247938881       -5.3983808466  MEMB      69              0.0000000000
     47508      1329  PPPE      H10X           28.3771895643       30.3462196841       -4.8213392406  MEMB      69              0.0000000000
     47509      1329  PPPE      H10Y           29.8925635210       29.9151798328       -5.1649744367  MEMB      69              0.0000000000
     47510      1329  PPPE      C311           28.1250610678       28.4204035546       -4.9959920769  MEMB      69              0.0000000000
     47511      1329  PPPE      H11X           28.5620609212       27.7234187725       -5.7111618823  MEMB      69              0.0000000000
     47512      1329  PPPE      H11Y           27.0321296753       28.4040827939       -5.1704109657  MEMB      69              0.0000000000
     47513      1329  PPPE      C312           28.4385078609       27.9530526697       -3.6508124221  MEMB      69              0.0000000000
     47514      1329  PPPE      H12X           28.3731805464       28.5854256276       -2.7597997124  MEMB      69              0.0000000000
     47515      1329  PPPE      H12Y           29.4747518016       27.9700114282       -3.6694564324  MEMB      69              0.0000000000
     47516      1329  PPPE      C313           27.8620399074       26.5544396615       -3.5616267844  MEMB      69              0.0000000000
     47517      1329  PPPE      H13X           28.5284467361       25.8852105702       -4.1818199904  MEMB      69              0.0000000000
     47518      1329  PPPE      H13Y           26.7898451753       26.5029757585       -3.7339731897  MEMB      69              0.0000000000
     47519      1329  PPPE      C314           27.9033909601       26.0213995240       -2.2012109287  MEMB      69              0.0000000000
     47520      1329  PPPE      H14X           28.9033358953       26.5419236467       -2.2114159643  MEMB      69              0.0000000000
     47521      1329  PPPE      H14Y           28.1748382112       24.9369823121       -2.1957230976  MEMB      69              0.0000000000
     47522      1329  PPPE      C315           26.7763539952       26.3473778996       -1.0429266134  MEMB      69              0.0000000000
     47523      1329  PPPE      H15X           26.1517804788       25.4983309452       -1.2449000724  MEMB      69              0.0000000000
     47524      1329  PPPE      H15Y           26.3847886514       27.2798716833       -1.2218338829  MEMB      69              0.0000000000
     47525      1329  PPPE      C316           26.6676766645       26.6801466111        0.5504570767  MEMB      69              0.0000000000
     47526      1329  PPPE      H16X           25.9288179155       26.3825715105        1.2844730719  MEMB      69              0.0000000000
     47527      1329  PPPE      H16Y           26.8168095360       25.8826486952        1.2977676251  MEMB      69              0.0000000000
     47528      1329  PPPE      H16Z           27.4218096484       27.4623662853        0.8326054630  MEMB      69              0.0000000000
     47529      1330  PVPG      C13           -25.5379270225      -26.2156977482      -17.1682470276  MEMB      70              0.0000000000
     47530      1330  PVPG      H13A          -26.0477165792      -26.7134736762      -16.3622955928  MEMB      70              0.0000000000
     47531      1330  PVPG      H13B          -24.5605602386      -26.3905583254      -16.7328288051  MEMB      70              0.0000000000
     47532      1330  PVPG      OC3           -25.5440922986      -24.7888010273      -17.1146255755  MEMB      70              0.0000000000
     47533      1330  PVPG      HO3           -25.2323011316      -24.4792907472      -17.9749791180  MEMB      70              0.0000000000
     47534      1330  PVPG      C12           -25.9420190081      -26.8823964993      -18.5677100951  MEMB      70              0.0000000000
     47535      1330  PVPG      H12A          -25.2975375679      -26.4640333711      -19.3805726843  MEMB      70              0.0000000000
     47536      1330  PVPG      OC2           -27.2488727275      -26.4630034096      -18.8772316442  MEMB      70              0.0000000000
     47537      1330  PVPG      HO2           -27.4709731949      -27.0135315864      -19.6309827351  MEMB      70              0.0000000000
     47538      1330  PVPG      C11           -25.8487999690      -28.4924323443      -18.6493785056  MEMB      70              0.0000000000
     47539      1330  PVPG      H11A          -26.3118141203      -28.8431448288      -17.7063090804  MEMB      70              0.0000000000
     47540      1330  PVPG      H11B          -24.8620416493      -28.9999511878      -18.5590201074  MEMB      70              0.0000000000
     47541      1330  PVPG      P             -26.1858852034      -30.6481394188      -20.0293042854  MEMB      70              0.0000000000
     47542      1330  PVPG      O13           -24.7629476665      -30.9610613750      -20.2767151280  MEMB      70              0.0000000000
     47543      1330  PVPG      O14           -27.2407149260      -31.1673211343      -20.9364400321  MEMB      70              0.0000000000
     47544      1330  PVPG      O12           -26.3819539049      -29.0560797686      -19.8563547223  MEMB      70              0.0000000000
     47545      1330  PVPG      O11           -26.5002570575      -31.1862281548      -18.5762598682  MEMB      70              0.0000000000
     47546      1330  PVPG      C1            -27.4979555777      -32.1889862503      -18.4220830465  MEMB      70              0.0000000000
     47547      1330  PVPG      HA            -27.0284230447      -33.1760410413      -18.5539451627  MEMB      70              0.0000000000
     47548      1330  PVPG      HB            -28.3463584033      -32.0624394014      -19.1262708576  MEMB      70              0.0000000000
     47549      1330  PVPG      C2            -28.0728935340      -32.1704358456      -17.0126893809  MEMB      70              0.0000000000
     47550      1330  PVPG      HS            -28.9894426326      -32.8085868278      -16.9906925062  MEMB      70              0.0000000000
     47551      1330  PVPG      O21           -28.3867481324      -30.7917042546      -16.7343472254  MEMB      70              0.0000000000
     47552      1330  PVPG      C21           -29.3299876710      -30.5719848969      -15.8430854814  MEMB      70              0.0000000000
     47553      1330  PVPG      O22           -29.8999408786      -31.4188151472      -15.1830842462  MEMB      70              0.0000000000
     47554      1330  PVPG      C22           -29.6742901439      -29.0968104178      -15.8314553746  MEMB      70              0.0000000000
     47555      1330  PVPG      H2R           -30.7768839863      -28.9827482711      -15.7446636636  MEMB      70              0.0000000000
     47556      1330  PVPG      H2S           -29.3708327116      -28.6262409356      -16.7917207672  MEMB      70              0.0000000000
     47557      1330  PVPG      C3            -26.9873066520      -32.7650566183      -16.0768757612  MEMB      70              0.0000000000
     47558      1330  PVPG      HX            -26.6310853218      -33.7692209429      -16.4167431040  MEMB      70              0.0000000000
     47559      1330  PVPG      HY            -26.1049015425      -32.0907233627      -16.1245678716  MEMB      70              0.0000000000
     47560      1330  PVPG      O31           -27.5388854299      -32.8332805060      -14.7683259973  MEMB      70              0.0000000000
     47561      1330  PVPG      C31           -26.8007089927      -33.3429425313      -13.8205339677  MEMB      70              0.0000000000
     47562      1330  PVPG      O32           -25.6837900429      -33.8161027954      -13.9596407172  MEMB      70              0.0000000000
     47563      1330  PVPG      C32           -27.6089114898      -33.3059028937      -12.5149108850  MEMB      70              0.0000000000
     47564      1330  PVPG      H2X           -28.0292251514      -34.3234441455      -12.3846068980  MEMB      70              0.0000000000
     47565      1330  PVPG      H2Y           -28.4790570785      -32.6262796061      -12.6138454034  MEMB      70              0.0000000000
     47566      1330  PVPG      C23           -28.9562143777      -28.4797575483      -14.6237699447  MEMB      70              0.0000000000
     47567      1330  PVPG      H3R           -29.0180326503      -29.0836473988      -13.6932299529  MEMB      70              0.0000000000
     47568      1330  PVPG      H3S           -29.4492671358      -27.5195284252      -14.4031790020  MEMB      70              0.0000000000
     47569      1330  PVPG      C24           -27.5218572460      -28.1120587372      -14.9690021885  MEMB      70              0.0000000000
     47570      1330  PVPG      H4R           -27.2479577381      -27.1746523967      -14.4324379704  MEMB      70              0.0000000000
     47571      1330  PVPG      H4S           -27.5118537304      -27.8804118630      -16.0534398056  MEMB      70              0.0000000000
     47572      1330  PVPG      C25           -26.4623762946      -29.1041594718      -14.5083272091  MEMB      70              0.0000000000
     47573      1330  PVPG      H5R           -25.4922323782      -28.6467313384      -14.8081007681  MEMB      70              0.0000000000
     47574      1330  PVPG      H5S           -26.5475813992      -30.0940554467      -15.0026856877  MEMB      70              0.0000000000
     47575      1330  PVPG      C26           -26.5122034111      -29.2420233257      -12.9793380788  MEMB      70              0.0000000000
     47576      1330  PVPG      H6R           -27.0978409650      -30.1267094034      -12.6526478776  MEMB      70              0.0000000000
     47577      1330  PVPG      H6S           -26.9112190781      -28.3172224467      -12.5084121450  MEMB      70              0.0000000000
     47578      1330  PVPG      C27           -25.1535288899      -29.3352888536      -12.3598398006  MEMB      70              0.0000000000
     47579      1330  PVPG      H7R           -24.6090744984      -28.4478846843      -12.7217769979  MEMB      70              0.0000000000
     47580      1330  PVPG      H7S           -24.7441172743      -30.2695856667      -12.7927227552  MEMB      70              0.0000000000
     47581      1330  PVPG      C28           -25.1930404132      -29.2223049208      -10.8362895915  MEMB      70              0.0000000000
     47582      1330  PVPG      H8R           -25.6892170220      -30.1205322256      -10.4063273111  MEMB      70              0.0000000000
     47583      1330  PVPG      H8S           -25.6258088237      -28.2868084866      -10.4644543926  MEMB      70              0.0000000000
     47584      1330  PVPG      C29           -23.9024147970      -28.9415179464      -10.1274931182  MEMB      70              0.0000000000
     47585      1330  PVPG      H9R           -23.0812198248      -28.3262393626      -10.5371077946  MEMB      70              0.0000000000
     47586      1330  PVPG      H9S           -23.3590878676      -29.5004958978      -10.8165625746  MEMB      70              0.0000000000
     47587      1330  PVPG      C210          -23.9775105542      -29.4653905997       -8.6233255520  MEMB      70              0.0000000000
     47588      1330  PVPG      H10R          -23.8654712669      -28.5615298565       -8.0243205717  MEMB      70              0.0000000000
     47589      1330  PVPG      H10S          -22.9416764115      -29.6502810215       -8.2944435747  MEMB      70              0.0000000000
     47590      1330  PVPG      C211          -24.6701179088      -30.7956780673       -8.0676671098  MEMB      70              0.0000000000
     47591      1330  PVPG      H111          -24.4187633795      -31.8328531068       -8.3855237272  MEMB      70              0.0000000000
     47592      1330  PVPG      C212          -25.3004243219      -31.0581480372       -6.9946395900  MEMB      70              0.0000000000
     47593      1330  PVPG      H121          -25.1691572787      -32.0822594643       -6.5623228068  MEMB      70              0.0000000000
     47594      1330  PVPG      C213          -25.4230279952      -29.9069365828       -6.1713513307  MEMB      70              0.0000000000
     47595      1330  PVPG      H13R          -26.3791233039      -30.2234085053       -5.7934051639  MEMB      70              0.0000000000
     47596      1330  PVPG      H13S          -25.5520749073      -29.0010640921       -6.8159304063  MEMB      70              0.0000000000
     47597      1330  PVPG      C214          -24.3200750844      -29.5509728272       -5.2043352925  MEMB      70              0.0000000000
     47598      1330  PVPG      H14R          -24.7575250616      -28.7112814233       -4.6423134641  MEMB      70              0.0000000000
     47599      1330  PVPG      H14S          -23.4425017071      -29.1995015734       -5.8032229295  MEMB      70              0.0000000000
     47600      1330  PVPG      C215          -23.8620556236      -30.6370034357       -4.2429124472  MEMB      70              0.0000000000
     47601      1330  PVPG      H15R          -23.0997623710      -30.2320121932       -3.5421413042  MEMB      70              0.0000000000
     47602      1330  PVPG      H15S          -23.4063946020      -31.3413597522       -4.9433778239  MEMB      70              0.0000000000
     47603      1330  PVPG      C216          -24.9420303887      -31.4751576442       -3.5665275717  MEMB      70              0.0000000000
     47604      1330  PVPG      H16R          -25.3420601230      -32.1353839754       -4.3739574316  MEMB      70              0.0000000000
     47605      1330  PVPG      H16S          -25.7273968849      -30.7919663043       -3.1965357429  MEMB      70              0.0000000000
     47606      1330  PVPG      C217          -24.5072000294      -32.3923724819       -2.4135736107  MEMB      70              0.0000000000
     47607      1330  PVPG      H17R          -23.5060793128      -32.8405702836       -2.6050339117  MEMB      70              0.0000000000
     47608      1330  PVPG      H17S          -25.2748442958      -33.1991826637       -2.3609376719  MEMB      70              0.0000000000
     47609      1330  PVPG      C218          -24.5386037179      -31.7590559176       -1.0303907236  MEMB      70              0.0000000000
     47610      1330  PVPG      H18R          -24.2186709964      -30.7065674426       -1.0957916491  MEMB      70              0.0000000000
     47611      1330  PVPG      H18S          -25.5667050344      -31.7384843501       -0.6202280274  MEMB      70              0.0000000000
     47612      1330  PVPG      H18T          -23.8613840048      -32.3137827926       -0.3409450289  MEMB      70              0.0000000000
     47613      1330  PVPG      C33           -26.7385211503      -32.9056182392      -11.3057859573  MEMB      70              0.0000000000
     47614      1330  PVPG      H3X           -26.1388392312      -31.9894752744      -11.4583890736  MEMB      70              0.0000000000
     47615      1330  PVPG      H3Y           -25.9855666245      -33.6851943672      -11.1881382210  MEMB      70              0.0000000000
     47616      1330  PVPG      C34           -27.4768043748      -32.8792071970       -9.9621996001  MEMB      70              0.0000000000
     47617      1330  PVPG      H4X           -26.7045575789      -32.8368222645       -9.1557929074  MEMB      70              0.0000000000
     47618      1330  PVPG      H4Y           -28.0306628770      -33.8443553794       -9.8621397035  MEMB      70              0.0000000000
     47619      1330  PVPG      C35           -28.4611934494      -31.7453317599       -9.7960684295  MEMB      70              0.0000000000
     47620      1330  PVPG      H5X           -29.1703550039      -31.8432123576      -10.6503301184  MEMB      70              0.0000000000
     47621      1330  PVPG      H5Y           -27.9198322497      -30.7784833901       -9.8586178345  MEMB      70              0.0000000000
     47622      1330  PVPG      C36           -29.2894640794      -31.8432057963       -8.5100007359  MEMB      70              0.0000000000
     47623      1330  PVPG      H6X           -29.5664590966      -32.9101912258       -8.3621831103  MEMB      70              0.0000000000
     47624      1330  PVPG      H6Y           -30.2237955456      -31.2617603973       -8.6609427701  MEMB      70              0.0000000000
     47625      1330  PVPG      C37           -28.6180665874      -31.2916152944       -7.2522735047  MEMB      70              0.0000000000
     47626      1330  PVPG      H7X           -28.1754803832      -30.2868459769       -7.4418615287  MEMB      70              0.0000000000
     47627      1330  PVPG      H7Y           -27.7685254905      -31.9609618277       -6.9888609061  MEMB      70              0.0000000000
     47628      1330  PVPG      C38           -29.5719712413      -31.2150306900       -6.0478668196  MEMB      70              0.0000000000
     47629      1330  PVPG      H8X           -29.9606474396      -32.2358820639       -5.8556613634  MEMB      70              0.0000000000
     47630      1330  PVPG      H8Y           -30.4612305820      -30.5644180186       -6.2139033639  MEMB      70              0.0000000000
     47631      1330  PVPG      C39           -28.7944528666      -30.6730688720       -4.8560518041  MEMB      70              0.0000000000
     47632      1330  PVPG      H9X           -28.4584315218      -29.6438737612       -5.1243090468  MEMB      70              0.0000000000
     47633      1330  PVPG      H9Y           -27.8849186372      -31.2929706404       -4.6909739722  MEMB      70              0.0000000000
     47634      1330  PVPG      C310          -29.5359719359      -30.6265598111       -3.5362981107  MEMB      70              0.0000000000
     47635      1330  PVPG      H10X          -29.3119933652      -31.5661983895       -2.9753393426  MEMB      70              0.0000000000
     47636      1330  PVPG      H10Y          -30.6368839929      -30.5247079818       -3.6341077725  MEMB      70              0.0000000000
     47637      1330  PVPG      C311          -28.9833511494      -29.5098891321       -2.6901778570  MEMB      70              0.0000000000
     47638      1330  PVPG      H11X          -29.3194644707      -28.4891229348       -2.9853493848  MEMB      70              0.0000000000
     47639      1330  PVPG      H11Y          -27.8676136657      -29.5247117351       -2.7332729928  MEMB      70              0.0000000000
     47640      1330  PVPG      C312          -29.3680406547      -29.7737496572       -1.2796953495  MEMB      70              0.0000000000
     47641      1330  PVPG      H12X          -29.1362877264      -30.7975424154       -0.8972354779  MEMB      70              0.0000000000
     47642      1330  PVPG      H12Y          -30.4637566108      -29.5972341823       -1.0982014382  MEMB      70              0.0000000000
     47643      1330  PVPG      C313          -28.6029410769      -28.7935205301       -0.4389787341  MEMB      70              0.0000000000
     47644      1330  PVPG      H13X          -29.2025536922      -29.1528472020        0.4118855957  MEMB      70              0.0000000000
     47645      1330  PVPG      H13Y          -28.9447034845      -27.7582279777       -0.6354934016  MEMB      70              0.0000000000
     47646      1330  PVPG      C314          -27.0221726556      -28.8594154295       -0.3634926333  MEMB      70              0.0000000000
     47647      1330  PVPG      H14X          -26.5920522394      -28.3001209631       -1.2288648964  MEMB      70              0.0000000000
     47648      1330  PVPG      H14Y          -26.6750569244      -29.8983323615       -0.2603410454  MEMB      70              0.0000000000
     47649      1330  PVPG      C315          -26.1985634980      -28.3563960355        0.8343494430  MEMB      70              0.0000000000
     47650      1330  PVPG      H15X          -26.5403098370      -27.2603279311        0.8189709861  MEMB      70              0.0000000000
     47651      1330  PVPG      H15Y          -25.2249900775      -27.8585735279        0.6837236109  MEMB      70              0.0000000000
     47652      1330  PVPG      C316          -26.2394729144      -29.3820722544        2.1361058561  MEMB      70              0.0000000000
     47653      1330  PVPG      H16X          -25.9452261965      -30.3742575898        2.3676479523  MEMB      70              0.0000000000
     47654      1330  PVPG      H16Y          -25.6209773452      -28.9834048823        2.9698731054  MEMB      70              0.0000000000
     47655      1330  PVPG      H16Z          -27.2396181047      -29.5159477882        2.6228137906  MEMB      70              0.0000000000
     47656      1331  PPPE      N             -35.1052759461      -22.1794817260      -19.0804433711  MEMB      71              0.0000000000
     47657      1331  PPPE      HN1           -35.5658352001      -23.0934262353      -19.2480404891  MEMB      71              0.0000000000
     47658      1331  PPPE      HN2           -35.1837042367      -21.8787355766      -18.0828499060  MEMB      71              0.0000000000
     47659      1331  PPPE      HN3           -35.4387337986      -21.4352469813      -19.7148886252  MEMB      71              0.0000000000
     47660      1331  PPPE      C12           -33.6625457215      -22.3183451500      -19.4384567705  MEMB      71              0.0000000000
     47661      1331  PPPE      H12A          -33.3137424760      -21.2957416646      -19.6906530165  MEMB      71              0.0000000000
     47662      1331  PPPE      H12B          -33.5924028441      -22.9758172853      -20.3367639147  MEMB      71              0.0000000000
     47663      1331  PPPE      C11           -32.8703188717      -22.9095351058      -18.2754949918  MEMB      71              0.0000000000
     47664      1331  PPPE      H11A          -33.4600781736      -23.7080277774      -17.7706405220  MEMB      71              0.0000000000
     47665      1331  PPPE      H11B          -32.6511960071      -22.1540505155      -17.4824024404  MEMB      71              0.0000000000
     47666      1331  PPPE      P             -30.3659544740      -22.6933445577      -19.1194207809  MEMB      71              0.0000000000
     47667      1331  PPPE      O13           -29.2813656251      -23.6735117574      -19.3506809910  MEMB      71              0.0000000000
     47668      1331  PPPE      O14           -30.7137585926      -21.7209608900      -20.1716446055  MEMB      71              0.0000000000
     47669      1331  PPPE      O11           -30.1405968017      -21.9051559043      -17.7759159843  MEMB      71              0.0000000000
     47670      1331  PPPE      O12           -31.6934792824      -23.5076242758      -18.7914956649  MEMB      71              0.0000000000
     47671      1331  PPPE      C1            -29.4082766279      -22.5280969691      -16.7168232388  MEMB      71              0.0000000000
     47672      1331  PPPE      HA            -29.2654249772      -21.7488130383      -15.9400488516  MEMB      71              0.0000000000
     47673      1331  PPPE      HB            -28.3993928645      -22.8753216504      -17.0465742288  MEMB      71              0.0000000000
     47674      1331  PPPE      C2            -30.1465121879      -23.7248998560      -16.0658867707  MEMB      71              0.0000000000
     47675      1331  PPPE      HS            -30.5117532644      -24.4149404777      -16.8656683988  MEMB      71              0.0000000000
     47676      1331  PPPE      O21           -31.2085880365      -23.1725171871      -15.2830657352  MEMB      71              0.0000000000
     47677      1331  PPPE      C21           -32.1629702049      -23.9900280106      -15.0140098129  MEMB      71              0.0000000000
     47678      1331  PPPE      O22           -32.4339703792      -25.0362094596      -15.5860969572  MEMB      71              0.0000000000
     47679      1331  PPPE      C22           -32.8690497818      -23.4130621040      -13.8051128021  MEMB      71              0.0000000000
     47680      1331  PPPE      H2R           -33.0917362068      -22.3392018637      -13.8859787298  MEMB      71              0.0000000000
     47681      1331  PPPE      H2S           -32.1862061196      -23.5512533295      -12.9382024732  MEMB      71              0.0000000000
     47682      1331  PPPE      C3            -29.1978977343      -24.5790189588      -15.1800304568  MEMB      71              0.0000000000
     47683      1331  PPPE      HX            -29.6068016116      -25.6124670791      -15.1246406937  MEMB      71              0.0000000000
     47684      1331  PPPE      HY            -28.2343253856      -24.6536917488      -15.7299534010  MEMB      71              0.0000000000
     47685      1331  PPPE      O31           -28.9828658252      -23.9587454620      -13.8899015963  MEMB      71              0.0000000000
     47686      1331  PPPE      C31           -29.1965423043      -24.7226610742      -12.8362937757  MEMB      71              0.0000000000
     47687      1331  PPPE      O32           -29.5074385823      -25.8983172619      -12.8381036883  MEMB      71              0.0000000000
     47688      1331  PPPE      C32           -28.9446085409      -23.9147605067      -11.5756923736  MEMB      71              0.0000000000
     47689      1331  PPPE      H2X           -29.4666710175      -22.9356326112      -11.6579290972  MEMB      71              0.0000000000
     47690      1331  PPPE      H2Y           -27.8521261796      -23.7758907981      -11.4898954257  MEMB      71              0.0000000000
     47691      1331  PPPE      C23           -34.2436257518      -24.0274304732      -13.6732036533  MEMB      71              0.0000000000
     47692      1331  PPPE      H3R           -34.0552527584      -25.1029087718      -13.8687970543  MEMB      71              0.0000000000
     47693      1331  PPPE      H3S           -34.9357612522      -23.7674001004      -14.4881480988  MEMB      71              0.0000000000
     47694      1331  PPPE      C24           -34.8916781413      -23.5088497036      -12.3824418625  MEMB      71              0.0000000000
     47695      1331  PPPE      H4R           -35.8278338283      -23.9965089090      -12.0425268738  MEMB      71              0.0000000000
     47696      1331  PPPE      H4S           -35.2481254845      -22.4851519980      -12.5724717765  MEMB      71              0.0000000000
     47697      1331  PPPE      C25           -33.9142562976      -23.4059915524      -11.1951621038  MEMB      71              0.0000000000
     47698      1331  PPPE      H5R           -34.6532443644      -23.1053445008      -10.3774266081  MEMB      71              0.0000000000
     47699      1331  PPPE      H5S           -33.1888276448      -22.6229277571      -11.2513486371  MEMB      71              0.0000000000
     47700      1331  PPPE      C26           -32.8795739711      -24.6369331654      -10.8935561692  MEMB      71              0.0000000000
     47701      1331  PPPE      H6R           -32.6541190551      -25.6185756374      -11.3015635799  MEMB      71              0.0000000000
     47702      1331  PPPE      H6S           -33.7906922071      -25.0239213049      -11.1866518285  MEMB      71              0.0000000000
     47703      1331  PPPE      C27           -32.4520677545      -24.7948508279       -9.4091245674  MEMB      71              0.0000000000
     47704      1331  PPPE      H7R           -33.2069236467      -23.9856268249       -9.3215391005  MEMB      71              0.0000000000
     47705      1331  PPPE      H7S           -31.9301356587      -23.9307463741       -8.9786611462  MEMB      71              0.0000000000
     47706      1331  PPPE      C28           -32.4266179082      -26.2151273811       -8.2969313031  MEMB      71              0.0000000000
     47707      1331  PPPE      H8R           -31.6506215865      -25.6979794185       -7.6442228893  MEMB      71              0.0000000000
     47708      1331  PPPE      H8S           -31.8351004783      -26.8856840564       -8.9120179184  MEMB      71              0.0000000000
     47709      1331  PPPE      C29           -33.7414006702      -26.9827460965       -7.2922636836  MEMB      71              0.0000000000
     47710      1331  PPPE      H91           -34.3344124228      -27.5350007424       -7.9797625887  MEMB      71              0.0000000000
     47711      1331  PPPE      C210          -34.6886782335      -26.6127749451       -5.9397249795  MEMB      71              0.0000000000
     47712      1331  PPPE      H101          -35.7523247889      -27.0873023116       -6.0891851467  MEMB      71              0.0000000000
     47713      1331  PPPE      C211          -34.4721229722      -24.3497165187       -4.6402298432  MEMB      71              0.0000000000
     47714      1331  PPPE      H11R          -34.8646518907      -23.5981245499       -5.5677751380  MEMB      71              0.0000000000
     47715      1331  PPPE      H11S          -33.7780435327      -23.3690280535       -5.1342746829  MEMB      71              0.0000000000
     47716      1331  PPPE      C212          -34.1276977478      -25.1998607588       -3.6807515486  MEMB      71              0.0000000000
     47717      1331  PPPE      H12R          -34.7863541473      -26.0507526290       -3.7301143821  MEMB      71              0.0000000000
     47718      1331  PPPE      H12S          -34.2861211594      -24.2951339660       -3.1165986212  MEMB      71              0.0000000000
     47719      1331  PPPE      C213          -33.0905673414      -26.2333710051       -3.4233911658  MEMB      71              0.0000000000
     47720      1331  PPPE      H13R          -32.0954096605      -25.9685434359       -3.7779912250  MEMB      71              0.0000000000
     47721      1331  PPPE      H13S          -33.3468543885      -27.2713781151       -3.7883731922  MEMB      71              0.0000000000
     47722      1331  PPPE      C214          -33.1202904580      -26.2474550200       -1.9705262577  MEMB      71              0.0000000000
     47723      1331  PPPE      H14R          -33.9950513261      -26.9022370477       -1.7316796338  MEMB      71              0.0000000000
     47724      1331  PPPE      H14S          -33.2791520949      -25.1734255864       -1.6994112985  MEMB      71              0.0000000000
     47725      1331  PPPE      C215          -31.7236533894      -26.5850705759       -1.6050785971  MEMB      71              0.0000000000
     47726      1331  PPPE      H15R          -31.0568697040      -25.8233314993       -2.0938706943  MEMB      71              0.0000000000
     47727      1331  PPPE      H15S          -31.4501533819      -27.5879697265       -2.0040231851  MEMB      71              0.0000000000
     47728      1331  PPPE      C216          -31.5834247338      -26.4761221537       -0.1259806978  MEMB      71              0.0000000000
     47729      1331  PPPE      H16R          -30.5722844148      -26.8242134542        0.1237193427  MEMB      71              0.0000000000
     47730      1331  PPPE      H16S          -31.7057968148      -25.4193649772        0.2048865319  MEMB      71              0.0000000000
     47731      1331  PPPE      H16T          -32.3548268193      -27.1155232427        0.3529741615  MEMB      71              0.0000000000
     47732      1331  PPPE      C33           -29.4078260432      -24.6908470256      -10.3393620285  MEMB      71              0.0000000000
     47733      1331  PPPE      H3X           -29.3532632190      -25.7936439813      -10.4456651494  MEMB      71              0.0000000000
     47734      1331  PPPE      H3Y           -30.4544140827      -24.4518939901      -10.2447910982  MEMB      71              0.0000000000
     47735      1331  PPPE      C34           -28.6630471076      -24.3812040790       -9.0474194906  MEMB      71              0.0000000000
     47736      1331  PPPE      H4X           -27.5926407779      -24.1734574934       -9.2515784863  MEMB      71              0.0000000000
     47737      1331  PPPE      H4Y           -28.7207083618      -25.3175620423       -8.4454593728  MEMB      71              0.0000000000
     47738      1331  PPPE      C35           -29.3027710913      -23.2279029423       -8.2774059047  MEMB      71              0.0000000000
     47739      1331  PPPE      H5X           -30.3605507970      -23.4851934151       -8.0753324632  MEMB      71              0.0000000000
     47740      1331  PPPE      H5Y           -29.2688961269      -22.3162001160       -8.9094721357  MEMB      71              0.0000000000
     47741      1331  PPPE      C36           -28.6246276621      -22.9182776981       -6.9478259651  MEMB      71              0.0000000000
     47742      1331  PPPE      H6X           -29.1296576183      -22.0313380249       -6.4945782536  MEMB      71              0.0000000000
     47743      1331  PPPE      H6Y           -27.5479080478      -22.6941799573       -7.1071578056  MEMB      71              0.0000000000
     47744      1331  PPPE      C37           -28.6766097994      -24.0864522535       -5.9757558160  MEMB      71              0.0000000000
     47745      1331  PPPE      H7X           -28.2175529498      -24.9977635222       -6.4164278377  MEMB      71              0.0000000000
     47746      1331  PPPE      H7Y           -29.7509677141      -24.2996983167       -5.7869298889  MEMB      71              0.0000000000
     47747      1331  PPPE      C38           -27.8902109899      -23.7784653343       -4.7069178222  MEMB      71              0.0000000000
     47748      1331  PPPE      H8X           -26.8181373038      -23.5961583866       -4.9486019536  MEMB      71              0.0000000000
     47749      1331  PPPE      H8Y           -27.9271562949      -24.6881939386       -4.0653323381  MEMB      71              0.0000000000
     47750      1331  PPPE      C39           -28.4295120723      -22.5873926904       -3.9273634174  MEMB      71              0.0000000000
     47751      1331  PPPE      H9X           -28.4651766993      -21.5959841872       -4.4331866922  MEMB      71              0.0000000000
     47752      1331  PPPE      H9Y           -27.7427732459      -22.4721248857       -3.0569276068  MEMB      71              0.0000000000
     47753      1331  PPPE      C310          -29.8709388582      -22.7906633098       -3.5092772489  MEMB      71              0.0000000000
     47754      1331  PPPE      H10X          -29.8853668776      -23.7228957497       -2.8735988856  MEMB      71              0.0000000000
     47755      1331  PPPE      H10Y          -30.6086661884      -22.8982902333       -4.3178845322  MEMB      71              0.0000000000
     47756      1331  PPPE      C311          -30.2900303507      -21.4882140145       -2.8263927077  MEMB      71              0.0000000000
     47757      1331  PPPE      H11X          -29.5169675258      -20.7166187663       -2.6616277193  MEMB      71              0.0000000000
     47758      1331  PPPE      H11Y          -30.2886745444      -22.0462212751       -1.9612398349  MEMB      71              0.0000000000
     47759      1331  PPPE      C312          -31.7108253702      -21.1397256908       -2.4298345949  MEMB      71              0.0000000000
     47760      1331  PPPE      H12X          -32.1499457154      -20.7557528591       -3.3554091717  MEMB      71              0.0000000000
     47761      1331  PPPE      H12Y          -31.7112487524      -20.3595711244       -1.6259740428  MEMB      71              0.0000000000
     47762      1331  PPPE      C313          -32.5279368985      -22.3233242103       -1.9217766912  MEMB      71              0.0000000000
     47763      1331  PPPE      H13X          -32.2956766646      -22.5305902365       -0.8482735142  MEMB      71              0.0000000000
     47764      1331  PPPE      H13Y          -32.2882750649      -23.2453117687       -2.4959319114  MEMB      71              0.0000000000
     47765      1331  PPPE      C314          -33.9934100966      -21.9957197327       -2.1095137652  MEMB      71              0.0000000000
     47766      1331  PPPE      H14X          -34.3164903095      -22.2406949871       -3.1453182709  MEMB      71              0.0000000000
     47767      1331  PPPE      H14Y          -34.1754683313      -20.8999453714       -1.9967448912  MEMB      71              0.0000000000
     47768      1331  PPPE      C315          -34.8363734221      -22.8257796295       -1.1618287862  MEMB      71              0.0000000000
     47769      1331  PPPE      H15X          -35.0396291173      -23.8537435790       -1.4804798823  MEMB      71              0.0000000000
     47770      1331  PPPE      H15Y          -35.7894423932      -22.4380686750       -1.2483532174  MEMB      71              0.0000000000
     47771      1331  PPPE      C316          -34.6255722262      -22.6821787441        0.3217184342  MEMB      71              0.0000000000
     47772      1331  PPPE      H16X          -35.6085076869      -22.5128515782        0.8272412188  MEMB      71              0.0000000000
     47773      1331  PPPE      H16Y          -34.1738737305      -23.6212343400        0.6808907618  MEMB      71              0.0000000000
     47774      1331  PPPE      H16Z          -33.9442025170      -21.8266745009        0.4950089302  MEMB      71              0.0000000000
     47775      1332  PVPG      C13            32.1287903693       27.4648331657      -21.2975823957  MEMB      72              0.0000000000
     47776      1332  PVPG      H13A           33.1434800363       27.2386638433      -21.6855722216  MEMB      72              0.0000000000
     47777      1332  PVPG      H13B           31.5422152410       26.5307895039      -21.3390140103  MEMB      72              0.0000000000
     47778      1332  PVPG      OC3            31.5084088211       28.4390299025      -22.1473067228  MEMB      72              0.0000000000
     47779      1332  PVPG      HO3            31.1170271665       28.0000918038      -22.9013757597  MEMB      72              0.0000000000
     47780      1332  PVPG      C12            32.1305030475       27.8894837416      -19.7909818585  MEMB      72              0.0000000000
     47781      1332  PVPG      H12A           31.1147544205       27.7131754000      -19.3848019338  MEMB      72              0.0000000000
     47782      1332  PVPG      OC2            32.5094526624       29.2432939210      -19.6717160743  MEMB      72              0.0000000000
     47783      1332  PVPG      HO2            32.4564085879       29.5308975750      -18.7549658754  MEMB      72              0.0000000000
     47784      1332  PVPG      C11            33.1893798749       27.2100722423      -18.9271253657  MEMB      72              0.0000000000
     47785      1332  PVPG      H11A           33.3110489864       27.7075776058      -17.9327000957  MEMB      72              0.0000000000
     47786      1332  PVPG      H11B           34.0636499888       27.5360144357      -19.5336616615  MEMB      72              0.0000000000
     47787      1332  PVPG      P              33.3279038638       24.7733124938      -17.6569220739  MEMB      72              0.0000000000
     47788      1332  PVPG      O13            34.7450715245       24.4673637129      -17.4852589013  MEMB      72              0.0000000000
     47789      1332  PVPG      O14            32.5322407975       23.5634563060      -17.8618723303  MEMB      72              0.0000000000
     47790      1332  PVPG      O12            33.0797260633       25.7826226035      -18.8747307984  MEMB      72              0.0000000000
     47791      1332  PVPG      O11            32.9569472086       25.5786325403      -16.3977739458  MEMB      72              0.0000000000
     47792      1332  PVPG      C1             31.6680611253       25.5201353952      -15.9117277243  MEMB      72              0.0000000000
     47793      1332  PVPG      HA             31.5089143735       24.8949790318      -15.0005708718  MEMB      72              0.0000000000
     47794      1332  PVPG      HB             30.9145736607       25.1835957902      -16.6957704775  MEMB      72              0.0000000000
     47795      1332  PVPG      C2             31.5150757417       26.9346868956      -15.4989028141  MEMB      72              0.0000000000
     47796      1332  PVPG      HS             31.7761669444       27.7119771586      -16.2657540352  MEMB      72              0.0000000000
     47797      1332  PVPG      O21            31.8712454034       27.2348269543      -14.1264109556  MEMB      72              0.0000000000
     47798      1332  PVPG      C21            32.5248076415       28.3669503762      -14.0102495359  MEMB      72              0.0000000000
     47799      1332  PVPG      O22            32.5639039808       29.2382964116      -14.8610417138  MEMB      72              0.0000000000
     47800      1332  PVPG      C22            33.3059077153       28.4105768638      -12.6941060519  MEMB      72              0.0000000000
     47801      1332  PVPG      H2R            33.3355722700       29.4548514483      -12.3232590436  MEMB      72              0.0000000000
     47802      1332  PVPG      H2S            34.3453990056       28.1203249161      -12.9519712528  MEMB      72              0.0000000000
     47803      1332  PVPG      C3             30.1778897251       26.8934111181      -15.6913411492  MEMB      72              0.0000000000
     47804      1332  PVPG      HX             30.0145993687       28.0143029454      -16.0839395976  MEMB      72              0.0000000000
     47805      1332  PVPG      HY             29.6492937360       26.5379414268      -16.5912503803  MEMB      72              0.0000000000
     47806      1332  PVPG      O31            29.4957791043       26.2221396404      -14.5471142390  MEMB      72              0.0000000000
     47807      1332  PVPG      C31            29.4528183206       25.7145102541      -13.2904221912  MEMB      72              0.0000000000
     47808      1332  PVPG      O32            30.2781566454       24.9166527728      -12.9591653301  MEMB      72              0.0000000000
     47809      1332  PVPG      C32            28.1514285349       25.7127619431      -12.3617083532  MEMB      72              0.0000000000
     47810      1332  PVPG      H2X            27.8794373812       24.6997332874      -12.7263221617  MEMB      72              0.0000000000
     47811      1332  PVPG      H2Y            27.2298593303       26.3586597024      -12.3207633374  MEMB      72              0.0000000000
     47812      1332  PVPG      C23            32.7485650139       27.5034115489      -11.5745739879  MEMB      72              0.0000000000
     47813      1332  PVPG      H3R            32.5181594131       26.4773366143      -11.9318888874  MEMB      72              0.0000000000
     47814      1332  PVPG      H3S            31.8112197606       27.9425988037      -11.1674246310  MEMB      72              0.0000000000
     47815      1332  PVPG      C24            33.7159401506       27.3374794337      -10.4241405969  MEMB      72              0.0000000000
     47816      1332  PVPG      H4R            34.5737185496       26.6751965524      -10.6872583992  MEMB      72              0.0000000000
     47817      1332  PVPG      H4S            33.1775050869       26.8606271107       -9.5778263422  MEMB      72              0.0000000000
     47818      1332  PVPG      C25            34.2883190994       28.6475917593       -9.9730755199  MEMB      72              0.0000000000
     47819      1332  PVPG      H5R            33.5331345681       29.3706414091       -9.6027214942  MEMB      72              0.0000000000
     47820      1332  PVPG      H5S            34.8926952012       29.1617278225      -10.7653019861  MEMB      72              0.0000000000
     47821      1332  PVPG      C26            35.2669250775       28.3243101082       -8.9026465817  MEMB      72              0.0000000000
     47822      1332  PVPG      H6R            35.6263693620       29.3747375986       -8.7910811508  MEMB      72              0.0000000000
     47823      1332  PVPG      H6S            36.1134235520       27.7276429680       -9.2980962334  MEMB      72              0.0000000000
     47824      1332  PVPG      C27            34.7830061746       27.6652797132       -7.6050880641  MEMB      72              0.0000000000
     47825      1332  PVPG      H7R            34.1196794717       26.8041128799       -7.6965226595  MEMB      72              0.0000000000
     47826      1332  PVPG      H7S            34.2344731946       28.4393338612       -7.0721574964  MEMB      72              0.0000000000
     47827      1332  PVPG      C28            35.9699820240       27.0544346131       -6.8519702485  MEMB      72              0.0000000000
     47828      1332  PVPG      H8R            36.9455955747       27.5227309141       -6.8086826036  MEMB      72              0.0000000000
     47829      1332  PVPG      H8S            36.0485981626       26.3792365180       -7.6584529784  MEMB      72              0.0000000000
     47830      1332  PVPG      C29            35.7603065230       26.1034466686       -5.7027552544  MEMB      72              0.0000000000
     47831      1332  PVPG      H9R            34.8834414027       25.5045437230       -5.5241896155  MEMB      72              0.0000000000
     47832      1332  PVPG      H9S            35.1303810201       26.9253828862       -5.4659256891  MEMB      72              0.0000000000
     47833      1332  PVPG      C210           36.8560156748       25.5637084084       -4.7540143672  MEMB      72              0.0000000000
     47834      1332  PVPG      H10R           37.4376886030       24.8100617053       -5.3292875666  MEMB      72              0.0000000000
     47835      1332  PVPG      H10S           36.4256137630       24.8284352096       -4.0262231667  MEMB      72              0.0000000000
     47836      1332  PVPG      C211           37.9341919379       26.3023570821       -3.9831695468  MEMB      72              0.0000000000
     47837      1332  PVPG      H111           37.8979794963       27.2632249758       -4.7360132894  MEMB      72              0.0000000000
     47838      1332  PVPG      C212           38.0307916780       27.1843573798       -2.8208913486  MEMB      72              0.0000000000
     47839      1332  PVPG      H121           38.4239773144       28.0328306339       -2.7791814380  MEMB      72              0.0000000000
     47840      1332  PVPG      C213           37.9137417694       27.1617713342       -1.2797949402  MEMB      72              0.0000000000
     47841      1332  PVPG      H13R           38.2926906905       26.8314199953       -0.3880775588  MEMB      72              0.0000000000
     47842      1332  PVPG      H13S           38.2756835017       26.1605963845       -1.4138589405  MEMB      72              0.0000000000
     47843      1332  PVPG      C214           36.5739811795       28.1412599118       -0.6428384513  MEMB      72              0.0000000000
     47844      1332  PVPG      H14R           35.5667139578       27.8029553592       -0.1619281734  MEMB      72              0.0000000000
     47845      1332  PVPG      H14S           35.8918645063       28.4532371982       -1.4240859692  MEMB      72              0.0000000000
     47846      1332  PVPG      C215           36.8435963144       29.3112781519       -0.0278127397  MEMB      72              0.0000000000
     47847      1332  PVPG      H15R           37.1988151672       29.6427869822       -1.0559016571  MEMB      72              0.0000000000
     47848      1332  PVPG      H15S           37.4317503209       28.5719174062        0.5712381531  MEMB      72              0.0000000000
     47849      1332  PVPG      C216           35.4230983665       29.7196462572        0.4101257359  MEMB      72              0.0000000000
     47850      1332  PVPG      H16R           35.6607478697       30.5122407515        1.0966718097  MEMB      72              0.0000000000
     47851      1332  PVPG      H16S           34.8553766246       28.9584467252        1.0503290936  MEMB      72              0.0000000000
     47852      1332  PVPG      C217           34.6675831817       30.3276567921       -0.7966938325  MEMB      72              0.0000000000
     47853      1332  PVPG      H17R           34.2583392439       29.5648737076       -1.5175037282  MEMB      72              0.0000000000
     47854      1332  PVPG      H17S           35.3373793152       30.8553957083       -1.4561488034  MEMB      72              0.0000000000
     47855      1332  PVPG      C218           33.6142384322       31.2761598723       -0.2814127824  MEMB      72              0.0000000000
     47856      1332  PVPG      H18R           32.7885313445       31.5424045135       -0.9848258556  MEMB      72              0.0000000000
     47857      1332  PVPG      H18S           33.2123417562       30.6099027433        0.4862724155  MEMB      72              0.0000000000
     47858      1332  PVPG      H18T           33.9680772195       32.0813243664        0.3529713134  MEMB      72              0.0000000000
     47859      1332  PVPG      C33            28.4580428366       25.6070199105      -10.8320184588  MEMB      72              0.0000000000
     47860      1332  PVPG      H3X            27.7188085530       25.0013153372      -10.2852729479  MEMB      72              0.0000000000
     47861      1332  PVPG      H3Y            28.2472497864       26.6112074164      -10.5067438379  MEMB      72              0.0000000000
     47862      1332  PVPG      C34            29.9055563174       25.2424102033      -10.5117029118  MEMB      72              0.0000000000
     47863      1332  PVPG      H4X            30.5423365759       26.0302283624      -10.9963697566  MEMB      72              0.0000000000
     47864      1332  PVPG      H4Y            30.0916266900       24.2238110331      -10.9285146769  MEMB      72              0.0000000000
     47865      1332  PVPG      C35            30.4633494888       25.0938177459       -9.1580064446  MEMB      72              0.0000000000
     47866      1332  PVPG      H5X            31.5241059202       24.7570216223       -9.3350614739  MEMB      72              0.0000000000
     47867      1332  PVPG      H5Y            29.8711970967       24.3098252936       -8.6508043923  MEMB      72              0.0000000000
     47868      1332  PVPG      C36            30.4711349752       26.4421944818       -8.5149161969  MEMB      72              0.0000000000
     47869      1332  PVPG      H6X            29.4194020139       26.7045812584       -8.3229894887  MEMB      72              0.0000000000
     47870      1332  PVPG      H6Y            30.9009754973       27.1947741400       -9.2214665024  MEMB      72              0.0000000000
     47871      1332  PVPG      C37            31.3297614340       26.3505633752       -7.2868055660  MEMB      72              0.0000000000
     47872      1332  PVPG      H7X            32.3432262597       26.1283401067       -7.6621067396  MEMB      72              0.0000000000
     47873      1332  PVPG      H7Y            30.9844797327       25.4883357706       -6.6789986264  MEMB      72              0.0000000000
     47874      1332  PVPG      C38            31.3392519613       27.6107869121       -6.4602920040  MEMB      72              0.0000000000
     47875      1332  PVPG      H8X            30.3348382595       27.8208788352       -6.1320358552  MEMB      72              0.0000000000
     47876      1332  PVPG      H8Y            31.7202323946       28.4774696882       -7.0357816339  MEMB      72              0.0000000000
     47877      1332  PVPG      C39            32.1431542752       27.4877011068       -5.2131832541  MEMB      72              0.0000000000
     47878      1332  PVPG      H9X            32.3973600031       28.5290347551       -4.9038643681  MEMB      72              0.0000000000
     47879      1332  PVPG      H9Y            33.0284360406       26.8818748393       -5.4864937288  MEMB      72              0.0000000000
     47880      1332  PVPG      C310           31.4171322432       26.9626078406       -4.0197588790  MEMB      72              0.0000000000
     47881      1332  PVPG      H10X           30.6165758693       26.2394362157       -4.2174439919  MEMB      72              0.0000000000
     47882      1332  PVPG      H10Y           31.1661105899       27.8834066607       -3.4087938421  MEMB      72              0.0000000000
     47883      1332  PVPG      C311           32.2322401025       26.3178496873       -3.0466813258  MEMB      72              0.0000000000
     47884      1332  PVPG      H11X           32.7034798351       27.2762640097       -2.6847990740  MEMB      72              0.0000000000
     47885      1332  PVPG      H11Y           32.8903470165       25.4800368251       -3.3581285472  MEMB      72              0.0000000000
     47886      1332  PVPG      C312           31.6964619742       25.9836079016       -1.8164763607  MEMB      72              0.0000000000
     47887      1332  PVPG      H12X           30.7275302446       25.6593262006       -2.1962032998  MEMB      72              0.0000000000
     47888      1332  PVPG      H12Y           31.4422948829       26.7398749531       -1.2085485772  MEMB      72              0.0000000000
     47889      1332  PVPG      C313           32.4259036142       25.0311352476       -0.9208291366  MEMB      72              0.0000000000
     47890      1332  PVPG      H13X           32.8425477338       24.2926179907       -1.5294487067  MEMB      72              0.0000000000
     47891      1332  PVPG      H13Y           31.5046097689       24.8290378613       -0.5753649858  MEMB      72              0.0000000000
     47892      1332  PVPG      C314           33.4557728559       24.9625022589        0.1382420713  MEMB      72              0.0000000000
     47893      1332  PVPG      H14X           33.6104613565       25.8373359201        0.7359642262  MEMB      72              0.0000000000
     47894      1332  PVPG      H14Y           34.1562341286       24.7993569208       -0.6055763267  MEMB      72              0.0000000000
     47895      1332  PVPG      C315           34.1131117642       23.6558006806        0.5463720633  MEMB      72              0.0000000000
     47896      1332  PVPG      H15X           34.9080462052       24.0507079523        1.1324227339  MEMB      72              0.0000000000
     47897      1332  PVPG      H15Y           34.2650634844       22.8110559961       -0.2057152105  MEMB      72              0.0000000000
     47898      1332  PVPG      C316           33.5981684220       23.1651948138        1.7083615819  MEMB      72              0.0000000000
     47899      1332  PVPG      H16X           33.5987704358       23.9562901751        2.4348529268  MEMB      72              0.0000000000
     47900      1332  PVPG      H16Y           32.7151771775       23.5280590385        1.4329195097  MEMB      72              0.0000000000
     47901      1332  PVPG      H16Z           33.4900933155       22.1062860948        2.0075973106  MEMB      72              0.0000000000
     47902      1333  PVPG      C13            -9.5544588153      -37.1722556249      -18.2642744450  MEMB      73              0.0000000000
     47903      1333  PVPG      H13A           -8.8018709937      -36.9010109905      -19.0368507480  MEMB      73              0.0000000000
     47904      1333  PVPG      H13B           -9.0762823980      -37.1701551757      -17.2631137211  MEMB      73              0.0000000000
     47905      1333  PVPG      OC3           -10.0621990338      -38.4851551870      -18.4533742589  MEMB      73              0.0000000000
     47906      1333  PVPG      HO3           -10.8977737257      -38.4370362227      -17.9579672474  MEMB      73              0.0000000000
     47907      1333  PVPG      C12           -10.6817479437      -36.1117025364      -18.2490540670  MEMB      73              0.0000000000
     47908      1333  PVPG      H12A          -10.2057558835      -35.1293906225      -18.0792065066  MEMB      73              0.0000000000
     47909      1333  PVPG      OC2           -11.5481985728      -36.3108905558      -17.1414135158  MEMB      73              0.0000000000
     47910      1333  PVPG      HO2           -12.3693458050      -35.8823857995      -17.4174444452  MEMB      73              0.0000000000
     47911      1333  PVPG      C11           -11.4502291170      -35.8846901133      -19.5783188439  MEMB      73              0.0000000000
     47912      1333  PVPG      H11A          -10.7388058596      -35.5732550677      -20.3260445174  MEMB      73              0.0000000000
     47913      1333  PVPG      H11B          -12.1659532603      -35.0305270804      -19.4865591468  MEMB      73              0.0000000000
     47914      1333  PVPG      P             -13.4459237466      -37.2581195925      -19.9028812682  MEMB      73              0.0000000000
     47915      1333  PVPG      O13           -14.0317993175      -38.3060566939      -20.7652233089  MEMB      73              0.0000000000
     47916      1333  PVPG      O14           -14.3145347056      -36.1237246468      -19.5271072910  MEMB      73              0.0000000000
     47917      1333  PVPG      O12           -11.9756469312      -37.0257491312      -20.2081112661  MEMB      73              0.0000000000
     47918      1333  PVPG      O11           -13.1364780817      -37.8562795256      -18.4757557401  MEMB      73              0.0000000000
     47919      1333  PVPG      C1            -14.2095022111      -38.5753083793      -18.0147323470  MEMB      73              0.0000000000
     47920      1333  PVPG      HA            -13.7141048395      -39.5919350748      -18.0582395431  MEMB      73              0.0000000000
     47921      1333  PVPG      HB            -14.8119479490      -38.7669988373      -18.7923951761  MEMB      73              0.0000000000
     47922      1333  PVPG      C2            -15.3759466066      -38.0262533581      -16.9390477213  MEMB      73              0.0000000000
     47923      1333  PVPG      HS            -15.6302862609      -37.0017738287      -16.8919630973  MEMB      73              0.0000000000
     47924      1333  PVPG      O21           -14.2179814403      -38.1539905383      -15.9519190061  MEMB      73              0.0000000000
     47925      1333  PVPG      C21           -13.6687385877      -37.3741139580      -15.0713820480  MEMB      73              0.0000000000
     47926      1333  PVPG      O22           -13.9112026547      -36.1844943021      -15.0097973471  MEMB      73              0.0000000000
     47927      1333  PVPG      C22           -12.6308239212      -38.1189898538      -14.0659305377  MEMB      73              0.0000000000
     47928      1333  PVPG      H2R           -12.4047472716      -37.2989520837      -13.3568725479  MEMB      73              0.0000000000
     47929      1333  PVPG      H2S           -11.6811777144      -38.3967215091      -14.5608902337  MEMB      73              0.0000000000
     47930      1333  PVPG      C3            -17.1071909938      -38.8708877464      -16.6443956485  MEMB      73              0.0000000000
     47931      1333  PVPG      HX            -17.8152999094      -39.3157278711      -17.3515616013  MEMB      73              0.0000000000
     47932      1333  PVPG      HY            -17.2381950066      -40.0149229985      -16.7636795239  MEMB      73              0.0000000000
     47933      1333  PVPG      O31           -17.8579985235      -38.5270548026      -15.4585270809  MEMB      73              0.0000000000
     47934      1333  PVPG      C31           -17.7087395401      -39.2188824841      -14.5350900707  MEMB      73              0.0000000000
     47935      1333  PVPG      O32           -17.9496621448      -40.4002130237      -14.7219257537  MEMB      73              0.0000000000
     47936      1333  PVPG      C32           -16.8878164432      -38.4217681468      -12.6913140440  MEMB      73              0.0000000000
     47937      1333  PVPG      H2X           -17.5923262828      -38.4239404047      -11.9512320325  MEMB      73              0.0000000000
     47938      1333  PVPG      H2Y           -16.7210678161      -37.4828459518      -12.8156938588  MEMB      73              0.0000000000
     47939      1333  PVPG      C23           -12.9227733225      -39.2063281471      -12.9688137369  MEMB      73              0.0000000000
     47940      1333  PVPG      H3R           -13.0507589711      -40.1690668683      -13.4564397114  MEMB      73              0.0000000000
     47941      1333  PVPG      H3S           -13.8298916048      -38.9437941332      -12.4192605536  MEMB      73              0.0000000000
     47942      1333  PVPG      C24           -11.7938154381      -39.2857888043      -11.9102059816  MEMB      73              0.0000000000
     47943      1333  PVPG      H4R           -11.5665978501      -38.2794773616      -11.5474338213  MEMB      73              0.0000000000
     47944      1333  PVPG      H4S           -10.9147600961      -39.7575570424      -12.4100287404  MEMB      73              0.0000000000
     47945      1333  PVPG      C25           -12.1262639937      -40.0685651776      -10.6409040904  MEMB      73              0.0000000000
     47946      1333  PVPG      H5R           -12.2612230364      -40.9054266572      -11.2754080094  MEMB      73              0.0000000000
     47947      1333  PVPG      H5S           -13.1070918811      -39.7938383496      -10.2093297703  MEMB      73              0.0000000000
     47948      1333  PVPG      C26           -10.9707673138      -40.2657870071       -9.6095741601  MEMB      73              0.0000000000
     47949      1333  PVPG      H6R           -10.8873344231      -39.2704745809       -9.1551700714  MEMB      73              0.0000000000
     47950      1333  PVPG      H6S           -10.0442641418      -40.4955206829      -10.1748072637  MEMB      73              0.0000000000
     47951      1333  PVPG      C27           -11.1083472554      -41.1839463962       -8.3563204773  MEMB      73              0.0000000000
     47952      1333  PVPG      H7R           -10.2404703539      -41.5899872834       -7.8288587450  MEMB      73              0.0000000000
     47953      1333  PVPG      H7S           -11.3867850990      -42.1452201520       -8.8487880069  MEMB      73              0.0000000000
     47954      1333  PVPG      C28           -12.0658174131      -40.5326654781       -7.2430099922  MEMB      73              0.0000000000
     47955      1333  PVPG      H8R           -12.9326657557      -40.1656918300       -7.8525474591  MEMB      73              0.0000000000
     47956      1333  PVPG      H8S           -11.9238618754      -39.5085171821       -6.9800595936  MEMB      73              0.0000000000
     47957      1333  PVPG      C29           -12.4499699116      -41.4692140345       -6.0021897124  MEMB      73              0.0000000000
     47958      1333  PVPG      H9R           -11.6376132955      -41.4177850472       -5.2882988438  MEMB      73              0.0000000000
     47959      1333  PVPG      H9S           -12.4731247328      -42.5522324242       -6.3193912753  MEMB      73              0.0000000000
     47960      1333  PVPG      C210          -13.7399052693      -41.1968822662       -5.0878963406  MEMB      73              0.0000000000
     47961      1333  PVPG      H10R          -14.1096790243      -42.1636350739       -4.6804602666  MEMB      73              0.0000000000
     47962      1333  PVPG      H10S          -14.7579153854      -40.9729335515       -5.4715298332  MEMB      73              0.0000000000
     47963      1333  PVPG      C211          -14.1200321513      -39.8268666052       -4.7892136037  MEMB      73              0.0000000000
     47964      1333  PVPG      H111          -13.4970053061      -39.1310124881       -5.3295924812  MEMB      73              0.0000000000
     47965      1333  PVPG      C212          -14.7370313581      -39.4189641392       -3.6847344674  MEMB      73              0.0000000000
     47966      1333  PVPG      H121          -14.5955435250      -38.4249113588       -3.3457848942  MEMB      73              0.0000000000
     47967      1333  PVPG      C213          -15.1649813992      -40.2633688422       -2.5675139540  MEMB      73              0.0000000000
     47968      1333  PVPG      H13R          -15.5317374430      -40.9557223141       -3.1695822327  MEMB      73              0.0000000000
     47969      1333  PVPG      H13S          -15.9469553149      -39.7950400668       -1.9802560972  MEMB      73              0.0000000000
     47970      1333  PVPG      C214          -14.4074591335      -41.1522761854       -1.6200956671  MEMB      73              0.0000000000
     47971      1333  PVPG      H14R          -14.2228875139      -40.4156647732       -0.8197507481  MEMB      73              0.0000000000
     47972      1333  PVPG      H14S          -13.5821216212      -41.7259605325       -2.1158344520  MEMB      73              0.0000000000
     47973      1333  PVPG      C215          -15.1178896742      -42.1431441765       -0.8667622171  MEMB      73              0.0000000000
     47974      1333  PVPG      H15R          -15.1762589210      -42.9821605186       -1.5695045943  MEMB      73              0.0000000000
     47975      1333  PVPG      H15S          -16.0316081158      -41.7834111351       -0.3552161019  MEMB      73              0.0000000000
     47976      1333  PVPG      C216          -14.4144977438      -42.5140530371        0.3653699273  MEMB      73              0.0000000000
     47977      1333  PVPG      H16R          -14.5296657343      -41.7248453583        1.1189618757  MEMB      73              0.0000000000
     47978      1333  PVPG      H16S          -13.4337636657      -42.9189150803        0.0167871747  MEMB      73              0.0000000000
     47979      1333  PVPG      C217          -15.0445015172      -43.5767202189        1.0902132248  MEMB      73              0.0000000000
     47980      1333  PVPG      H17R          -15.6534577927      -43.7929790347        0.2079524702  MEMB      73              0.0000000000
     47981      1333  PVPG      H17S          -16.0111872201      -43.5387349827        1.6351823404  MEMB      73              0.0000000000
     47982      1333  PVPG      C218          -13.8113497570      -44.4491302173        1.5207923602  MEMB      73              0.0000000000
     47983      1333  PVPG      H18R          -13.4587313190      -44.5309423168        2.5613033351  MEMB      73              0.0000000000
     47984      1333  PVPG      H18S          -14.2286127292      -45.3770274156        1.6263719898  MEMB      73              0.0000000000
     47985      1333  PVPG      H18T          -13.1964092776      -44.9294785449        0.7435355479  MEMB      73              0.0000000000
     47986      1333  PVPG      C33           -16.2771125246      -39.2851937073      -11.2019192467  MEMB      73              0.0000000000
     47987      1333  PVPG      H3X           -15.2432779337      -39.1081016537      -11.2096116348  MEMB      73              0.0000000000
     47988      1333  PVPG      H3Y           -16.2250966791      -40.4479225588      -11.0710661869  MEMB      73              0.0000000000
     47989      1333  PVPG      C34           -17.1719005017      -38.9542946189      -10.0603886666  MEMB      73              0.0000000000
     47990      1333  PVPG      H4X           -18.1247700783      -39.4298305179      -10.3672562011  MEMB      73              0.0000000000
     47991      1333  PVPG      H4Y           -17.2857899281      -37.8659621391      -10.1503696091  MEMB      73              0.0000000000
     47992      1333  PVPG      C35           -16.7686352137      -39.4173068392       -8.7232382863  MEMB      73              0.0000000000
     47993      1333  PVPG      H5X           -16.7242587487      -40.5268572064       -8.7838682306  MEMB      73              0.0000000000
     47994      1333  PVPG      H5Y           -17.5998186562      -39.0846646735       -8.0637050586  MEMB      73              0.0000000000
     47995      1333  PVPG      C36           -15.4500374584      -38.7591678631       -8.3642105877  MEMB      73              0.0000000000
     47996      1333  PVPG      H6X           -14.7501043511      -38.8396778615       -9.2217624136  MEMB      73              0.0000000000
     47997      1333  PVPG      H6Y           -15.0219737404      -39.3333702639       -7.5412665823  MEMB      73              0.0000000000
     47998      1333  PVPG      C37           -15.6410682507      -37.3185414411       -7.8708246270  MEMB      73              0.0000000000
     47999      1333  PVPG      H7X           -16.0729257321      -37.3654058784       -6.8459731474  MEMB      73              0.0000000000
     48000      1333  PVPG      H7Y           -16.3769051249      -36.8133435020       -8.5315822328  MEMB      73              0.0000000000
     48001      1333  PVPG      C38           -14.3883465811      -36.4374819729       -7.7408333084  MEMB      73              0.0000000000
     48002      1333  PVPG      H8X           -14.7397642178      -35.4475143360       -7.3735720780  MEMB      73              0.0000000000
     48003      1333  PVPG      H8Y           -13.9112052035      -36.2728230877       -8.7339744264  MEMB      73              0.0000000000
     48004      1333  PVPG      C39           -13.3521485203      -36.9987134177       -6.7520600764  MEMB      73              0.0000000000
     48005      1333  PVPG      H9X           -13.1693717344      -38.0253595404       -7.1100635594  MEMB      73              0.0000000000
     48006      1333  PVPG      H9Y           -13.7685035306      -37.0478351705       -5.7196789359  MEMB      73              0.0000000000
     48007      1333  PVPG      C310          -12.0344933286      -36.2054771818       -6.7601763771  MEMB      73              0.0000000000
     48008      1333  PVPG      H10X          -12.2049577950      -35.2386528273       -6.2310547009  MEMB      73              0.0000000000
     48009      1333  PVPG      H10Y          -11.7565460820      -36.0256739693       -7.8152084848  MEMB      73              0.0000000000
     48010      1333  PVPG      C311          -10.7785982842      -36.8305988438       -6.1470110176  MEMB      73              0.0000000000
     48011      1333  PVPG      H11X           -9.9276192225      -36.1356869376       -6.3191824772  MEMB      73              0.0000000000
     48012      1333  PVPG      H11Y          -10.5427772582      -37.8378441107       -6.5590335805  MEMB      73              0.0000000000
     48013      1333  PVPG      C312          -10.9342655606      -36.8963923570       -4.6615708220  MEMB      73              0.0000000000
     48014      1333  PVPG      H12X          -11.6657503962      -37.7375001440       -4.5835724115  MEMB      73              0.0000000000
     48015      1333  PVPG      H12Y          -11.4004968444      -35.9478445650       -4.3237390311  MEMB      73              0.0000000000
     48016      1333  PVPG      C313           -9.5975024498      -36.9681210735       -3.8908885322  MEMB      73              0.0000000000
     48017      1333  PVPG      H13X           -9.0379853902      -36.0267789879       -3.9464195435  MEMB      73              0.0000000000
     48018      1333  PVPG      H13Y           -9.0618819095      -37.8932030626       -4.2121483044  MEMB      73              0.0000000000
     48019      1333  PVPG      C314           -9.7158447539      -36.9827180023       -2.3999791831  MEMB      73              0.0000000000
     48020      1333  PVPG      H14X          -10.0044753494      -36.0882278169       -1.8164478849  MEMB      73              0.0000000000
     48021      1333  PVPG      H14Y           -8.9543871879      -37.6756292058       -1.8948554586  MEMB      73              0.0000000000
     48022      1333  PVPG      C315          -10.9812553586      -37.5338367503       -2.2156888332  MEMB      73              0.0000000000
     48023      1333  PVPG      H15X          -10.5043311577      -38.4434451193       -2.7295856052  MEMB      73              0.0000000000
     48024      1333  PVPG      H15Y          -11.9767692897      -37.2963790968       -2.5574805724  MEMB      73              0.0000000000
     48025      1333  PVPG      C316          -11.4871960112      -37.3873105426       -0.8686187080  MEMB      73              0.0000000000
     48026      1333  PVPG      H16X          -12.1592598161      -38.2819936835       -0.9048604907  MEMB      73              0.0000000000
     48027      1333  PVPG      H16Y          -10.5431666972      -37.7671169397       -0.4227501645  MEMB      73              0.0000000000
     48028      1333  PVPG      H16Z          -12.4887693992      -37.3550295906       -0.3844207228  MEMB      73              0.0000000000
     48029      1334  PPPE      N              37.0775509642      -13.3393585713      -22.0185218213  MEMB      74              0.0000000000
     48030      1334  PPPE      HN1            36.7093654322      -14.2198486663      -21.6022261826  MEMB      74              0.0000000000
     48031      1334  PPPE      HN2            36.4413288603      -13.0376163517      -22.7754236354  MEMB      74              0.0000000000
     48032      1334  PPPE      HN3            38.0432459164      -13.4997038302      -22.3754708099  MEMB      74              0.0000000000
     48033      1334  PPPE      C12            37.0546295658      -12.2314458694      -21.0012703750  MEMB      74              0.0000000000
     48034      1334  PPPE      H12A           36.2152564965      -12.4215180260      -20.3032101232  MEMB      74              0.0000000000
     48035      1334  PPPE      H12B           36.8599011262      -11.2740874586      -21.5300376347  MEMB      74              0.0000000000
     48036      1334  PPPE      C11            38.3160063847      -12.2172481385      -20.1536146009  MEMB      74              0.0000000000
     48037      1334  PPPE      H11A           39.2331033626      -12.1628455581      -20.7820173993  MEMB      74              0.0000000000
     48038      1334  PPPE      H11B           38.3296085905      -13.1936397975      -19.6061401414  MEMB      74              0.0000000000
     48039      1334  PPPE      P              38.7724041366      -11.2751064606      -17.7787968738  MEMB      74              0.0000000000
     48040      1334  PPPE      O13            40.0470894524      -11.9337269110      -17.9070065483  MEMB      74              0.0000000000
     48041      1334  PPPE      O14            38.6241016284      -10.0145179450      -17.0088416785  MEMB      74              0.0000000000
     48042      1334  PPPE      O11            37.7548372964      -12.3508277536      -17.2535729732  MEMB      74              0.0000000000
     48043      1334  PPPE      O12            38.2453509822      -11.0961194308      -19.2675148169  MEMB      74              0.0000000000
     48044      1334  PPPE      C1             36.4271872704      -12.0541034306      -16.9276165487  MEMB      74              0.0000000000
     48045      1334  PPPE      HA             35.7376422646      -12.7770577484      -17.4203798866  MEMB      74              0.0000000000
     48046      1334  PPPE      HB             36.1338999618      -11.0410742147      -17.3194253461  MEMB      74              0.0000000000
     48047      1334  PPPE      C2             36.2961140417      -12.1118146463      -15.3646815152  MEMB      74              0.0000000000
     48048      1334  PPPE      HS             36.9173900799      -11.2603453351      -14.9849987249  MEMB      74              0.0000000000
     48049      1334  PPPE      O21            36.6425456007      -13.3245766828      -14.7001562875  MEMB      74              0.0000000000
     48050      1334  PPPE      C21            36.3710336697      -13.3727171244      -13.4047860939  MEMB      74              0.0000000000
     48051      1334  PPPE      O22            35.8340309714      -12.5623895956      -12.6717779089  MEMB      74              0.0000000000
     48052      1334  PPPE      C22            36.9052105152      -14.6360225687      -12.8623074191  MEMB      74              0.0000000000
     48053      1334  PPPE      H2R            36.4574884762      -15.4658230002      -13.4364691060  MEMB      74              0.0000000000
     48054      1334  PPPE      H2S            36.5509007885      -14.6451775669      -11.8106610407  MEMB      74              0.0000000000
     48055      1334  PPPE      C3             34.8769348481      -11.8421519457      -15.0271543939  MEMB      74              0.0000000000
     48056      1334  PPPE      HX             34.6712062440      -11.4268154712      -14.0574894165  MEMB      74              0.0000000000
     48057      1334  PPPE      HY             34.8969631504      -10.9636767062      -15.6905585308  MEMB      74              0.0000000000
     48058      1334  PPPE      O31            33.9983472548      -12.9650731662      -15.3212410369  MEMB      74              0.0000000000
     48059      1334  PPPE      C31            32.7822205697      -13.2711106179      -14.8301103768  MEMB      74              0.0000000000
     48060      1334  PPPE      O32            31.8830903466      -12.6614674349      -14.3372902770  MEMB      74              0.0000000000
     48061      1334  PPPE      C32            32.4472924789      -14.6406173401      -14.8905641926  MEMB      74              0.0000000000
     48062      1334  PPPE      H2X            33.2181820048      -15.1152187410      -15.4988925661  MEMB      74              0.0000000000
     48063      1334  PPPE      H2Y            31.4396536067      -14.5173577273      -15.3860100730  MEMB      74              0.0000000000
     48064      1334  PPPE      C23            38.4230735884      -14.5438896072      -12.9852143831  MEMB      74              0.0000000000
     48065      1334  PPPE      H3R            38.7514550292      -14.5084490390      -14.0507513905  MEMB      74              0.0000000000
     48066      1334  PPPE      H3S            38.9109283378      -15.4344184721      -12.5595010964  MEMB      74              0.0000000000
     48067      1334  PPPE      C24            39.0111298884      -13.3590957129      -12.2296226331  MEMB      74              0.0000000000
     48068      1334  PPPE      H4R            38.8228620902      -12.3828958850      -12.7316621202  MEMB      74              0.0000000000
     48069      1334  PPPE      H4S            40.0907318918      -13.6128522633      -12.2380971967  MEMB      74              0.0000000000
     48070      1334  PPPE      C25            38.6278879230      -13.2553376927      -10.7791123260  MEMB      74              0.0000000000
     48071      1334  PPPE      H5R            38.8964197427      -14.2403391702      -10.3097713880  MEMB      74              0.0000000000
     48072      1334  PPPE      H5S            37.6062264907      -12.9217111777      -10.5630573378  MEMB      74              0.0000000000
     48073      1334  PPPE      C26            39.3600955369      -12.2466466401       -9.9845534379  MEMB      74              0.0000000000
     48074      1334  PPPE      H6R            39.1294565281      -11.1722606429       -9.9656520058  MEMB      74              0.0000000000
     48075      1334  PPPE      H6S            40.3334367157      -12.3315292551      -10.3857214536  MEMB      74              0.0000000000
     48076      1334  PPPE      C27            39.3766990178      -12.8406518326       -8.6473631575  MEMB      74              0.0000000000
     48077      1334  PPPE      H7R            40.1429630913      -12.5566576840       -8.0414482257  MEMB      74              0.0000000000
     48078      1334  PPPE      H7S            39.8873312130      -13.8223994596       -8.6879154853  MEMB      74              0.0000000000
     48079      1334  PPPE      C28            38.2153417811      -12.4972326445       -7.7498854330  MEMB      74              0.0000000000
     48080      1334  PPPE      H8R            38.2798460153      -12.8262213979       -6.7031943371  MEMB      74              0.0000000000
     48081      1334  PPPE      H8S            37.4509416249      -13.0466506848       -8.2685458302  MEMB      74              0.0000000000
     48082      1334  PPPE      C29            38.0324795959      -11.0483424449       -7.6749376782  MEMB      74              0.0000000000
     48083      1334  PPPE      H91            37.5719462161      -10.5413391167       -8.5369725730  MEMB      74              0.0000000000
     48084      1334  PPPE      C210           38.1426675854      -10.3808325484       -6.5457530561  MEMB      74              0.0000000000
     48085      1334  PPPE      H101           38.0919246524       -9.3198091771       -6.7729020122  MEMB      74              0.0000000000
     48086      1334  PPPE      C211           38.4328120062      -10.7390730781       -5.0947794782  MEMB      74              0.0000000000
     48087      1334  PPPE      H11R           39.4106215824      -10.2959091379       -4.8246047077  MEMB      74              0.0000000000
     48088      1334  PPPE      H11S           38.4684654178      -11.8277173519       -4.9257717336  MEMB      74              0.0000000000
     48089      1334  PPPE      C212           37.5207983655      -10.1973442064       -3.9704366491  MEMB      74              0.0000000000
     48090      1334  PPPE      H12R           36.4302781029      -10.4128288400       -4.0793034663  MEMB      74              0.0000000000
     48091      1334  PPPE      H12S           37.5856535158       -9.1138644217       -3.8754000092  MEMB      74              0.0000000000
     48092      1334  PPPE      C213           37.9454296918      -10.6165288439       -2.6054635489  MEMB      74              0.0000000000
     48093      1334  PPPE      H13R           38.9194108758      -10.2250684466       -2.2756703095  MEMB      74              0.0000000000
     48094      1334  PPPE      H13S           37.7676460324      -11.7146070538       -2.5723576341  MEMB      74              0.0000000000
     48095      1334  PPPE      C214           37.0970315349       -9.8915974411       -1.6468069627  MEMB      74              0.0000000000
     48096      1334  PPPE      H14R           36.1101939367      -10.0705646053       -2.1944978846  MEMB      74              0.0000000000
     48097      1334  PPPE      H14S           37.1483802804       -8.8470055718       -1.5609808153  MEMB      74              0.0000000000
     48098      1334  PPPE      C215           37.3069612013      -10.1944588046       -0.0935859599  MEMB      74              0.0000000000
     48099      1334  PPPE      H15R           38.3505231764      -10.0916231868        0.1511093248  MEMB      74              0.0000000000
     48100      1334  PPPE      H15S           37.2709235613      -11.2668183897       -0.1676198295  MEMB      74              0.0000000000
     48101      1334  PPPE      C216           36.3067909751       -9.7612651467        1.0954205598  MEMB      74              0.0000000000
     48102      1334  PPPE      H16R           36.4304192096      -10.2683745494        2.0686185920  MEMB      74              0.0000000000
     48103      1334  PPPE      H16S           36.1986783694       -8.6965787388        1.1692441665  MEMB      74              0.0000000000
     48104      1334  PPPE      H16T           35.2174641325      -10.0372945626        0.9709286836  MEMB      74              0.0000000000
     48105      1334  PPPE      C33            32.1727280580      -15.1186015169      -13.4552560677  MEMB      74              0.0000000000
     48106      1334  PPPE      H3X            31.8731145416      -16.1634631460      -13.6478739295  MEMB      74              0.0000000000
     48107      1334  PPPE      H3Y            31.3237335690      -14.5713724877      -12.9735854168  MEMB      74              0.0000000000
     48108      1334  PPPE      C34            33.3775881257      -15.0999833588      -12.5140882391  MEMB      74              0.0000000000
     48109      1334  PPPE      H4X            33.8844386578      -14.1130198392      -12.5232637129  MEMB      74              0.0000000000
     48110      1334  PPPE      H4Y            34.0824268888      -15.8612376778      -12.9164399198  MEMB      74              0.0000000000
     48111      1334  PPPE      C35            33.0674886346      -15.4282836785      -11.0424952071  MEMB      74              0.0000000000
     48112      1334  PPPE      H5X            33.8902830614      -16.0989804034      -10.7317538145  MEMB      74              0.0000000000
     48113      1334  PPPE      H5Y            32.1083529953      -15.9867517300      -10.9197065519  MEMB      74              0.0000000000
     48114      1334  PPPE      C36            33.1238748585      -14.2185622910      -10.0833909867  MEMB      74              0.0000000000
     48115      1334  PPPE      H6X            32.0839257894      -13.8859015424      -10.0406454454  MEMB      74              0.0000000000
     48116      1334  PPPE      H6Y            33.6495130338      -13.3339805348      -10.4853812090  MEMB      74              0.0000000000
     48117      1334  PPPE      C37            33.5936939675      -14.5593688543       -8.6484109568  MEMB      74              0.0000000000
     48118      1334  PPPE      H7X            33.2744376825      -15.5992020061       -8.4352493351  MEMB      74              0.0000000000
     48119      1334  PPPE      H7Y            33.0356971471      -13.9243962284       -7.9221959092  MEMB      74              0.0000000000
     48120      1334  PPPE      C38            35.0901217179      -14.3503509911       -8.3405493288  MEMB      74              0.0000000000
     48121      1334  PPPE      H8X            35.3207281452      -13.2690436183       -8.4796799881  MEMB      74              0.0000000000
     48122      1334  PPPE      H8Y            35.7514311553      -14.8868915684       -9.0577255980  MEMB      74              0.0000000000
     48123      1334  PPPE      C39            35.4917566676      -14.7601245666       -6.8990159807  MEMB      74              0.0000000000
     48124      1334  PPPE      H9X            36.5545851280      -14.4658273257       -6.7706588414  MEMB      74              0.0000000000
     48125      1334  PPPE      H9Y            35.4450132980      -15.8697751654       -6.8072340011  MEMB      74              0.0000000000
     48126      1334  PPPE      C310           34.6543425000      -14.1129207458       -5.7760855881  MEMB      74              0.0000000000
     48127      1334  PPPE      H10X           33.6147528773      -14.5209915189       -5.7915085408  MEMB      74              0.0000000000
     48128      1334  PPPE      H10Y           34.5966341748      -13.0103837873       -5.8881211252  MEMB      74              0.0000000000
     48129      1334  PPPE      C311           35.1401015691      -14.3330703741       -4.3526158168  MEMB      74              0.0000000000
     48130      1334  PPPE      H11X           36.1245467711      -13.8611305503       -4.1288458779  MEMB      74              0.0000000000
     48131      1334  PPPE      H11Y           35.2727895161      -15.4024406611       -4.2157322016  MEMB      74              0.0000000000
     48132      1334  PPPE      C312           34.0577090675      -13.8421743707       -3.4117710136  MEMB      74              0.0000000000
     48133      1334  PPPE      H12X           33.0782959030      -14.3497298494       -3.4462462716  MEMB      74              0.0000000000
     48134      1334  PPPE      H12Y           33.9152846753      -12.7382062063       -3.5826508873  MEMB      74              0.0000000000
     48135      1334  PPPE      C313           34.4596669025      -13.9613999251       -2.0020264745  MEMB      74              0.0000000000
     48136      1334  PPPE      H13X           33.6834747358      -13.2764408790       -1.5625682180  MEMB      74              0.0000000000
     48137      1334  PPPE      H13Y           35.5623045598      -13.7145255314       -1.9895797479  MEMB      74              0.0000000000
     48138      1334  PPPE      C314           34.3871137087      -15.1515270461       -1.1487579478  MEMB      74              0.0000000000
     48139      1334  PPPE      H14X           34.9951247081      -15.7855888717       -1.7078687930  MEMB      74              0.0000000000
     48140      1334  PPPE      H14Y           33.3821393684      -15.4922885787       -0.9189073579  MEMB      74              0.0000000000
     48141      1334  PPPE      C315           35.2964318984      -15.2003271196        0.0090807963  MEMB      74              0.0000000000
     48142      1334  PPPE      H15X           35.3847142690      -14.5395931578        0.6905502563  MEMB      74              0.0000000000
     48143      1334  PPPE      H15Y           36.2924970659      -14.8333527299       -0.2017046719  MEMB      74              0.0000000000
     48144      1334  PPPE      C316           35.0122345176      -16.1589757745        1.1025993278  MEMB      74              0.0000000000
     48145      1334  PPPE      H16X           34.3745751222      -17.0018412626        0.8631477311  MEMB      74              0.0000000000
     48146      1334  PPPE      H16Y           36.0691619575      -16.2986988612        0.9246138135  MEMB      74              0.0000000000
     48147      1334  PPPE      H16Z           35.2516956397      -16.0717956892        2.1814565623  MEMB      74              0.0000000000
     48148      1335  PPPE      N               2.3471379830      -43.3216787608      -21.2746441298  MEMB      75              0.0000000000
     48149      1335  PPPE      HN1             1.8578077896      -44.2354757683      -21.1983686321  MEMB      75              0.0000000000
     48150      1335  PPPE      HN2             2.1154270337      -42.8253870421      -22.1533724347  MEMB      75              0.0000000000
     48151      1335  PPPE      HN3             3.3808675585      -43.4555153403      -21.2303930218  MEMB      75              0.0000000000
     48152      1335  PPPE      C12             1.9595706752      -42.4660055541      -20.1076919075  MEMB      75              0.0000000000
     48153      1335  PPPE      H12A            0.8715409991      -42.6128359873      -19.9361140300  MEMB      75              0.0000000000
     48154      1335  PPPE      H12B            2.1737795016      -41.4175949431      -20.4040020629  MEMB      75              0.0000000000
     48155      1335  PPPE      C11             2.7559627141      -42.8872597445      -18.8644016035  MEMB      75              0.0000000000
     48156      1335  PPPE      H11A            2.7444030753      -43.9978408968      -18.7901802977  MEMB      75              0.0000000000
     48157      1335  PPPE      H11B            2.2427874048      -42.5072301726      -17.9444132775  MEMB      75              0.0000000000
     48158      1335  PPPE      P               4.6711594254      -41.1058526516      -18.3936543817  MEMB      75              0.0000000000
     48159      1335  PPPE      O13             6.1368107643      -41.1681088758      -18.2358863100  MEMB      75              0.0000000000
     48160      1335  PPPE      O14             4.1396105521      -40.0936874393      -19.3371089319  MEMB      75              0.0000000000
     48161      1335  PPPE      O11             3.9372966702      -40.9491686223      -16.9934532175  MEMB      75              0.0000000000
     48162      1335  PPPE      O12             4.1262508878      -42.4960852173      -18.9510058569  MEMB      75              0.0000000000
     48163      1335  PPPE      C1              3.9983486830      -39.6277773208      -16.4158568834  MEMB      75              0.0000000000
     48164      1335  PPPE      HA              3.1373509952      -39.4815280181      -15.7279062382  MEMB      75              0.0000000000
     48165      1335  PPPE      HB              3.9160046949      -38.8277275226      -17.1881749438  MEMB      75              0.0000000000
     48166      1335  PPPE      C2              5.3378475144      -39.3590644064      -15.6715120010  MEMB      75              0.0000000000
     48167      1335  PPPE      HS              6.1547088149      -39.4047186176      -16.4246007842  MEMB      75              0.0000000000
     48168      1335  PPPE      O21             5.5266641713      -40.3314401229      -14.6659955204  MEMB      75              0.0000000000
     48169      1335  PPPE      C21             6.7960169755      -40.5407874912      -14.4247416009  MEMB      75              0.0000000000
     48170      1335  PPPE      O22             7.7769653400      -40.0424543022      -14.9142829258  MEMB      75              0.0000000000
     48171      1335  PPPE      C22             6.8511323646      -41.5965990073      -13.4586043004  MEMB      75              0.0000000000
     48172      1335  PPPE      H2R             7.8383751342      -42.0909558525      -13.4665913533  MEMB      75              0.0000000000
     48173      1335  PPPE      H2S             6.4396924664      -42.2880845987      -14.2370173406  MEMB      75              0.0000000000
     48174      1335  PPPE      C3              5.3520451401      -37.9873245855      -14.9936791996  MEMB      75              0.0000000000
     48175      1335  PPPE      HX              6.3231842409      -37.7078049061      -14.5353021804  MEMB      75              0.0000000000
     48176      1335  PPPE      HY              5.1623279099      -37.2226472697      -15.7770640298  MEMB      75              0.0000000000
     48177      1335  PPPE      O31             4.2938484402      -37.9268035866      -14.0408348291  MEMB      75              0.0000000000
     48178      1335  PPPE      C31             4.5419184596      -38.2640840157      -12.7629180623  MEMB      75              0.0000000000
     48179      1335  PPPE      O32             5.5914177183      -38.6212038345      -12.2998640806  MEMB      75              0.0000000000
     48180      1335  PPPE      C32             3.3103718772      -38.0352052930      -11.9422139994  MEMB      75              0.0000000000
     48181      1335  PPPE      H2X             2.8748039439      -37.3931806417      -12.6061734681  MEMB      75              0.0000000000
     48182      1335  PPPE      H2Y             3.2530519550      -37.3771878474      -11.0809929637  MEMB      75              0.0000000000
     48183      1335  PPPE      C23             6.0012879367      -41.2566053151      -12.0528866908  MEMB      75              0.0000000000
     48184      1335  PPPE      H3R             4.9801427578      -40.9587064505      -12.3688693552  MEMB      75              0.0000000000
     48185      1335  PPPE      H3S             6.6466083994      -40.4740501437      -11.6423025887  MEMB      75              0.0000000000
     48186      1335  PPPE      C24             5.6122080552      -42.1634576879      -10.7550861923  MEMB      75              0.0000000000
     48187      1335  PPPE      H4R             6.4901996151      -42.4505221488      -10.1672402027  MEMB      75              0.0000000000
     48188      1335  PPPE      H4S             5.0900938420      -43.1407303195      -10.8258573860  MEMB      75              0.0000000000
     48189      1335  PPPE      C25             4.9351477711      -41.7613526889       -9.5759839198  MEMB      75              0.0000000000
     48190      1335  PPPE      H5R             4.0083101922      -41.5168673546      -10.1393511294  MEMB      75              0.0000000000
     48191      1335  PPPE      H5S             5.6792283193      -41.0284906367       -9.2109323479  MEMB      75              0.0000000000
     48192      1335  PPPE      C26             4.7679646318      -43.0306528255       -8.7522693282  MEMB      75              0.0000000000
     48193      1335  PPPE      H6R             5.5797038377      -43.7846189801       -8.5685622731  MEMB      75              0.0000000000
     48194      1335  PPPE      H6S             3.9336231962      -43.4369928292       -9.3529401542  MEMB      75              0.0000000000
     48195      1335  PPPE      C27             4.1785232050      -42.7575727174       -7.4483066510  MEMB      75              0.0000000000
     48196      1335  PPPE      H7R             3.7118998869      -43.6748353000       -7.2244338860  MEMB      75              0.0000000000
     48197      1335  PPPE      H7S             3.3980401218      -42.0115221911       -7.6555928116  MEMB      75              0.0000000000
     48198      1335  PPPE      C28             5.2293030104      -42.3777449465       -6.4714518676  MEMB      75              0.0000000000
     48199      1335  PPPE      H8R             5.6901915340      -41.7290603019       -7.2060820547  MEMB      75              0.0000000000
     48200      1335  PPPE      H8S             5.9939040198      -43.1284698003       -6.1413133233  MEMB      75              0.0000000000
     48201      1335  PPPE      C29             4.6934399631      -41.4508866432       -5.4589062520  MEMB      75              0.0000000000
     48202      1335  PPPE      H91             4.3450243335      -40.5080017247       -5.8682846528  MEMB      75              0.0000000000
     48203      1335  PPPE      C210            4.5340808610      -41.6996964000       -4.1775728562  MEMB      75              0.0000000000
     48204      1335  PPPE      H101            4.1091235077      -40.9378749860       -3.5255077470  MEMB      75              0.0000000000
     48205      1335  PPPE      C211            4.8872297443      -42.9906291973       -3.5674379381  MEMB      75              0.0000000000
     48206      1335  PPPE      H11R            5.4486721373      -43.6211970455       -4.2961978985  MEMB      75              0.0000000000
     48207      1335  PPPE      H11S            3.9718158017      -43.4906426081       -3.2650702214  MEMB      75              0.0000000000
     48208      1335  PPPE      C212            5.7571092094      -42.9166568679       -2.3482227803  MEMB      75              0.0000000000
     48209      1335  PPPE      H12R            6.5774204838      -42.3673236197       -2.7353934486  MEMB      75              0.0000000000
     48210      1335  PPPE      H12S            6.2335208709      -43.8679749249       -2.1915957070  MEMB      75              0.0000000000
     48211      1335  PPPE      C213            5.2188959319      -42.2321660954       -1.1025018564  MEMB      75              0.0000000000
     48212      1335  PPPE      H13R            4.9399192696      -41.2405669113       -1.4684977726  MEMB      75              0.0000000000
     48213      1335  PPPE      H13S            5.9909124654      -42.0417359592       -0.3495859238  MEMB      75              0.0000000000
     48214      1335  PPPE      C214            4.1948268611      -43.0068983238       -0.2953749353  MEMB      75              0.0000000000
     48215      1335  PPPE      H14R            4.6195148106      -43.9532600661       -0.1558373802  MEMB      75              0.0000000000
     48216      1335  PPPE      H14S            3.2131138749      -43.1246831387       -0.8401341922  MEMB      75              0.0000000000
     48217      1335  PPPE      C215            4.1717543798      -42.7591016183        1.2079969946  MEMB      75              0.0000000000
     48218      1335  PPPE      H15R            5.1162670738      -42.9534589458        1.6903708708  MEMB      75              0.0000000000
     48219      1335  PPPE      H15S            3.3720440725      -43.4339318247        1.6493894929  MEMB      75              0.0000000000
     48220      1335  PPPE      C216            4.0711899471      -41.3412598242        1.6371092732  MEMB      75              0.0000000000
     48221      1335  PPPE      H16R            3.7035428667      -40.9997527953        2.5959653663  MEMB      75              0.0000000000
     48222      1335  PPPE      H16S            4.3132377992      -40.4650336573        1.0096217443  MEMB      75              0.0000000000
     48223      1335  PPPE      H16T            3.1236801773      -41.6682356313        1.3134024767  MEMB      75              0.0000000000
     48224      1335  PPPE      C33             2.5857151045      -39.2984158748      -11.7367522282  MEMB      75              0.0000000000
     48225      1335  PPPE      H3X             3.2881447886      -39.8209001206      -11.0605022425  MEMB      75              0.0000000000
     48226      1335  PPPE      H3Y             2.5525989160      -39.7947908599      -12.7314163289  MEMB      75              0.0000000000
     48227      1335  PPPE      C34             1.1839228056      -39.1532844161      -11.1511155055  MEMB      75              0.0000000000
     48228      1335  PPPE      H4X             0.7136304470      -40.1311310305      -11.3701901250  MEMB      75              0.0000000000
     48229      1335  PPPE      H4Y             0.5338861861      -38.4170081809      -11.6403169517  MEMB      75              0.0000000000
     48230      1335  PPPE      C35             1.1319385163      -38.7832516016       -9.6748958344  MEMB      75              0.0000000000
     48231      1335  PPPE      H5X             0.1167043276      -39.0548308430       -9.3074826332  MEMB      75              0.0000000000
     48232      1335  PPPE      H5Y             1.2206397725      -37.6905124048       -9.5067266407  MEMB      75              0.0000000000
     48233      1335  PPPE      C36             2.2605093326      -39.4575704371       -8.9094403303  MEMB      75              0.0000000000
     48234      1335  PPPE      H6X             3.2485209253      -39.0489879229       -9.1883455113  MEMB      75              0.0000000000
     48235      1335  PPPE      H6Y             2.2680053181      -40.5458459071       -9.0836308688  MEMB      75              0.0000000000
     48236      1335  PPPE      C37             2.1114590827      -39.2434279832       -7.4590336495  MEMB      75              0.0000000000
     48237      1335  PPPE      H7X             2.7995816616      -39.8492505841       -6.8631556868  MEMB      75              0.0000000000
     48238      1335  PPPE      H7Y             1.1356803103      -39.7008811248       -7.2787528928  MEMB      75              0.0000000000
     48239      1335  PPPE      C38             2.3993649396      -37.8044296201       -7.1508710223  MEMB      75              0.0000000000
     48240      1335  PPPE      H8X             2.0739540728      -36.9834527011       -7.8107397305  MEMB      75              0.0000000000
     48241      1335  PPPE      H8Y             3.4575272375      -37.7140645903       -7.0029479175  MEMB      75              0.0000000000
     48242      1335  PPPE      C39             2.2865821662      -37.4501907271       -5.7675592595  MEMB      75              0.0000000000
     48243      1335  PPPE      H9X             1.3367419605      -37.3796556683       -5.4102181015  MEMB      75              0.0000000000
     48244      1335  PPPE      H9Y             2.1441755276      -36.3536821520       -5.7987863424  MEMB      75              0.0000000000
     48245      1335  PPPE      C310            3.1085783417      -38.4085826871       -4.8255199144  MEMB      75              0.0000000000
     48246      1335  PPPE      H10X            3.0753598650      -39.4433989558       -4.9751817866  MEMB      75              0.0000000000
     48247      1335  PPPE      H10Y            2.2338567848      -38.5134877073       -4.1223538120  MEMB      75              0.0000000000
     48248      1335  PPPE      C311            4.7182610483      -38.2790646917       -4.3586867391  MEMB      75              0.0000000000
     48249      1335  PPPE      H11X            4.9801755124      -37.4769434778       -3.6970111978  MEMB      75              0.0000000000
     48250      1335  PPPE      H11Y            5.2197936613      -37.9095081400       -5.2321057774  MEMB      75              0.0000000000
     48251      1335  PPPE      C312            5.4991635330      -38.4232863671       -2.9439529876  MEMB      75              0.0000000000
     48252      1335  PPPE      H12X            5.6601780720      -39.4537374678       -2.9191210962  MEMB      75              0.0000000000
     48253      1335  PPPE      H12Y            4.8713332477      -38.5959765222       -2.0799766314  MEMB      75              0.0000000000
     48254      1335  PPPE      C313            6.5252477430      -37.2806305870       -2.3811833832  MEMB      75              0.0000000000
     48255      1335  PPPE      H13X            6.1837029215      -36.1968752609       -2.3377646619  MEMB      75              0.0000000000
     48256      1335  PPPE      H13Y            7.3568372302      -37.3480455988       -3.0911434970  MEMB      75              0.0000000000
     48257      1335  PPPE      C314            6.8695838023      -37.3744464901       -0.8935471781  MEMB      75              0.0000000000
     48258      1335  PPPE      H14X            6.1061526364      -37.0323706183       -0.1565083755  MEMB      75              0.0000000000
     48259      1335  PPPE      H14Y            7.7515575502      -36.7253356597       -0.7218744478  MEMB      75              0.0000000000
     48260      1335  PPPE      C315            7.1261430971      -38.7917505439       -0.5606656988  MEMB      75              0.0000000000
     48261      1335  PPPE      H15X            7.7984234391      -39.0835379990       -1.3977159511  MEMB      75              0.0000000000
     48262      1335  PPPE      H15Y            6.2052465994      -39.4282333181       -0.5951951172  MEMB      75              0.0000000000
     48263      1335  PPPE      C316            7.7696396022      -38.8181425421        0.7998663312  MEMB      75              0.0000000000
     48264      1335  PPPE      H16X            8.7966776276      -38.4096485623        0.8045557707  MEMB      75              0.0000000000
     48265      1335  PPPE      H16Y            7.0915792067      -38.5292146334        1.6150000694  MEMB      75              0.0000000000
     48266      1335  PPPE      H16Z            7.9522693589      -39.7876587785        1.1516473316  MEMB      75              0.0000000000
     48267      1336  PPPE      N             -13.2380717417       35.1794756594      -17.5083558437  MEMB      76              0.0000000000
     48268      1336  PPPE      HN1           -14.0833106590       34.5742858191      -17.6000486493  MEMB      76              0.0000000000
     48269      1336  PPPE      HN2           -13.0496297089       34.8294290407      -18.4796334415  MEMB      76              0.0000000000
     48270      1336  PPPE      HN3           -12.9305201838       34.5553001808      -16.7311660291  MEMB      76              0.0000000000
     48271      1336  PPPE      C12           -14.2462613412       36.2130982816      -17.2634810992  MEMB      76              0.0000000000
     48272      1336  PPPE      H12A          -13.8727957768       36.7749122474      -16.3984161099  MEMB      76              0.0000000000
     48273      1336  PPPE      H12B          -15.2652978000       35.8043343515      -17.0274595502  MEMB      76              0.0000000000
     48274      1336  PPPE      C11           -14.3093845778       36.9013336548      -18.5922662253  MEMB      76              0.0000000000
     48275      1336  PPPE      H11A          -13.2951658740       37.0052698365      -19.0393089160  MEMB      76              0.0000000000
     48276      1336  PPPE      H11B          -14.6631784658       37.9164567500      -18.3530601764  MEMB      76              0.0000000000
     48277      1336  PPPE      P             -16.5966878430       36.6964193969      -19.8795603233  MEMB      76              0.0000000000
     48278      1336  PPPE      O13           -16.4697750341       37.8321197058      -20.8225663010  MEMB      76              0.0000000000
     48279      1336  PPPE      O14           -17.5486760345       35.6405768137      -20.2553416503  MEMB      76              0.0000000000
     48280      1336  PPPE      O11           -16.9725430786       37.2363459419      -18.4597093240  MEMB      76              0.0000000000
     48281      1336  PPPE      O12           -15.1415613368       36.1478842472      -19.4856587538  MEMB      76              0.0000000000
     48282      1336  PPPE      C1            -18.1892661330       36.7501660192      -17.9277799339  MEMB      76              0.0000000000
     48283      1336  PPPE      HA            -18.1640165910       35.7149649297      -17.6133996548  MEMB      76              0.0000000000
     48284      1336  PPPE      HB            -19.0555038396       37.0066154170      -18.5897257990  MEMB      76              0.0000000000
     48285      1336  PPPE      C2            -18.3661487766       37.4179128284      -16.6756779943  MEMB      76              0.0000000000
     48286      1336  PPPE      HS            -18.4507702920       38.3807415698      -17.3906393031  MEMB      76              0.0000000000
     48287      1336  PPPE      O21           -17.2083521772       37.4125837445      -15.8737577496  MEMB      76              0.0000000000
     48288      1336  PPPE      C21           -17.3735475296       38.5727814937      -15.4558094923  MEMB      76              0.0000000000
     48289      1336  PPPE      O22           -18.4335749385       39.1832318038      -15.6439953185  MEMB      76              0.0000000000
     48290      1336  PPPE      C22           -15.8718136652       38.6789393338      -15.2543608177  MEMB      76              0.0000000000
     48291      1336  PPPE      H2R           -15.3692504933       39.4546818739      -14.8854854492  MEMB      76              0.0000000000
     48292      1336  PPPE      H2S           -15.3136121737       38.6224172632      -16.1934350105  MEMB      76              0.0000000000
     48293      1336  PPPE      C3            -19.5144277112       36.8798760452      -15.6991872074  MEMB      76              0.0000000000
     48294      1336  PPPE      HX            -19.8874098831       37.4503896120      -14.8587993353  MEMB      76              0.0000000000
     48295      1336  PPPE      HY            -20.4263615367       36.6942452115      -16.2934709821  MEMB      76              0.0000000000
     48296      1336  PPPE      O31           -18.9969322172       35.7914557320      -15.0040748898  MEMB      76              0.0000000000
     48297      1336  PPPE      C31           -18.6788032591       35.8609566561      -13.7397004254  MEMB      76              0.0000000000
     48298      1336  PPPE      O32           -19.1121550767       36.6021170237      -12.8775720951  MEMB      76              0.0000000000
     48299      1336  PPPE      C32           -17.6532753218       34.8027208899      -13.5475801806  MEMB      76              0.0000000000
     48300      1336  PPPE      H2X           -16.9429455880       34.8747725314      -14.3604448353  MEMB      76              0.0000000000
     48301      1336  PPPE      H2Y           -17.8801359838       33.7484065488      -13.7464449418  MEMB      76              0.0000000000
     48302      1336  PPPE      C23           -15.2473186705       38.2724796068      -13.9602300155  MEMB      76              0.0000000000
     48303      1336  PPPE      H3R           -15.3527786437       37.2159438181      -14.1654602889  MEMB      76              0.0000000000
     48304      1336  PPPE      H3S           -15.8684830613       38.5928301964      -13.0821768563  MEMB      76              0.0000000000
     48305      1336  PPPE      C24           -13.8156921254       38.9299269702      -13.8055864408  MEMB      76              0.0000000000
     48306      1336  PPPE      H4R           -13.6824134992       39.6807428699      -13.0090191912  MEMB      76              0.0000000000
     48307      1336  PPPE      H4S           -13.1956101875       39.1252143173      -14.6934676278  MEMB      76              0.0000000000
     48308      1336  PPPE      C25           -13.1074563254       38.0592566453      -13.1048627619  MEMB      76              0.0000000000
     48309      1336  PPPE      H5R           -12.0203290665       38.3003860394      -12.9429404659  MEMB      76              0.0000000000
     48310      1336  PPPE      H5S           -13.3798735114       37.2181070613      -13.7573981468  MEMB      76              0.0000000000
     48311      1336  PPPE      C26           -13.7192574033       37.8910313812      -11.8479011576  MEMB      76              0.0000000000
     48312      1336  PPPE      H6R           -12.8396712699       37.2907032320      -11.5658459983  MEMB      76              0.0000000000
     48313      1336  PPPE      H6S           -14.7280030688       37.4131123691      -11.7187203948  MEMB      76              0.0000000000
     48314      1336  PPPE      C27           -13.2710559173       38.7523443425      -10.8065087023  MEMB      76              0.0000000000
     48315      1336  PPPE      H7R           -13.9201491807       39.6200618258      -11.0748881077  MEMB      76              0.0000000000
     48316      1336  PPPE      H7S           -12.1318654435       38.7897540614      -10.7463040860  MEMB      76              0.0000000000
     48317      1336  PPPE      C28           -13.8739234209       38.4736908650       -9.6172347644  MEMB      76              0.0000000000
     48318      1336  PPPE      H8R           -12.8315865680       37.9909355949       -8.9844176245  MEMB      76              0.0000000000
     48319      1336  PPPE      H8S           -14.7053605792       38.1808172148       -9.7724516383  MEMB      76              0.0000000000
     48320      1336  PPPE      C29           -13.8560302764       39.6522367357       -8.6091131231  MEMB      76              0.0000000000
     48321      1336  PPPE      H91           -13.2025529853       39.6310912777       -8.5163505987  MEMB      76              0.0000000000
     48322      1336  PPPE      C210          -15.0787358937       39.6550522515       -7.7070723849  MEMB      76              0.0000000000
     48323      1336  PPPE      H101          -14.4859543799       40.4847071829       -7.1823530465  MEMB      76              0.0000000000
     48324      1336  PPPE      C211          -15.7066461093       38.6218616634       -6.7089819378  MEMB      76              0.0000000000
     48325      1336  PPPE      H11R          -15.4677711236       38.3460604785       -5.7404941446  MEMB      76              0.0000000000
     48326      1336  PPPE      H11S          -16.1986130586       38.0206168162       -7.4745723186  MEMB      76              0.0000000000
     48327      1336  PPPE      C212          -17.1733446152       39.1410118524       -6.4375650436  MEMB      76              0.0000000000
     48328      1336  PPPE      H12R          -17.7712877935       38.2044643310       -6.3498652558  MEMB      76              0.0000000000
     48329      1336  PPPE      H12S          -17.3581203886       39.7100682996       -7.3520648470  MEMB      76              0.0000000000
     48330      1336  PPPE      C213          -17.2464893789       39.8584342864       -5.1683013910  MEMB      76              0.0000000000
     48331      1336  PPPE      H13R          -18.3318041011       40.0198727468       -5.1191198162  MEMB      76              0.0000000000
     48332      1336  PPPE      H13S          -16.7949681362       40.8760446206       -5.2267588704  MEMB      76              0.0000000000
     48333      1336  PPPE      C214          -16.9407439027       39.0672288880       -3.9126078857  MEMB      76              0.0000000000
     48334      1336  PPPE      H14R          -15.8320998570       38.9322511358       -3.8468290933  MEMB      76              0.0000000000
     48335      1336  PPPE      H14S          -16.9937884660       37.9929054451       -3.7159966231  MEMB      76              0.0000000000
     48336      1336  PPPE      C215          -17.7342057622       39.9330093991       -2.8991320119  MEMB      76              0.0000000000
     48337      1336  PPPE      H15R          -18.7091840121       40.2675188835       -3.2543923399  MEMB      76              0.0000000000
     48338      1336  PPPE      H15S          -17.4412467280       40.9935487699       -2.8204113287  MEMB      76              0.0000000000
     48339      1336  PPPE      C216          -17.9064312047       39.2109915307       -1.6176730623  MEMB      76              0.0000000000
     48340      1336  PPPE      H16R          -18.6312054712       38.4198619744       -1.7282602136  MEMB      76              0.0000000000
     48341      1336  PPPE      H16S          -17.0920513237       38.4865876481       -1.5341205990  MEMB      76              0.0000000000
     48342      1336  PPPE      H16T          -17.9667424775       39.8645492517       -0.7059421012  MEMB      76              0.0000000000
     48343      1336  PPPE      C33           -17.3703457891       34.6516149244      -12.0979916199  MEMB      76              0.0000000000
     48344      1336  PPPE      H3X           -18.2238106448       34.6882060797      -11.3890704375  MEMB      76              0.0000000000
     48345      1336  PPPE      H3Y           -16.7167416855       35.4688114981      -11.8012540426  MEMB      76              0.0000000000
     48346      1336  PPPE      C34           -16.8541479626       33.2543708650      -12.0142984884  MEMB      76              0.0000000000
     48347      1336  PPPE      H4X           -15.9930607472       33.3387869109      -12.7228090111  MEMB      76              0.0000000000
     48348      1336  PPPE      H4Y           -17.4392525918       32.3940721893      -12.3992706173  MEMB      76              0.0000000000
     48349      1336  PPPE      C35           -16.4728374756       32.7717666575      -10.6832539056  MEMB      76              0.0000000000
     48350      1336  PPPE      H5X           -15.5628656326       32.1018019144      -10.7066198223  MEMB      76              0.0000000000
     48351      1336  PPPE      H5Y           -17.2386163990       32.4252086902       -9.9828039063  MEMB      76              0.0000000000
     48352      1336  PPPE      C36           -15.8926394262       33.8696223407      -10.1420819297  MEMB      76              0.0000000000
     48353      1336  PPPE      H6X           -16.4203110853       34.8227150872       -9.9324565353  MEMB      76              0.0000000000
     48354      1336  PPPE      H6Y           -15.0427027623       33.9208050457      -10.8638284838  MEMB      76              0.0000000000
     48355      1336  PPPE      C37           -15.3421563327       33.3997796016       -8.8015696332  MEMB      76              0.0000000000
     48356      1336  PPPE      H7X           -14.3657845292       33.0350595848       -9.2649804860  MEMB      76              0.0000000000
     48357      1336  PPPE      H7Y           -15.9820037183       32.9387057577       -8.0563352130  MEMB      76              0.0000000000
     48358      1336  PPPE      C38           -14.1905504232       33.9147832077       -8.1129954885  MEMB      76              0.0000000000
     48359      1336  PPPE      H8X           -14.8745735905       34.5857555364       -8.8044344384  MEMB      76              0.0000000000
     48360      1336  PPPE      H8Y           -13.2227195489       34.4136476637       -7.9800769935  MEMB      76              0.0000000000
     48361      1336  PPPE      C39           -13.4212374134       34.4320002926       -6.9359934136  MEMB      76              0.0000000000
     48362      1336  PPPE      H9X           -14.6774282038       34.5041696767       -7.2235179309  MEMB      76              0.0000000000
     48363      1336  PPPE      H9Y           -12.9876936162       35.6358878409       -6.1004854224  MEMB      76              0.0000000000
     48364      1336  PPPE      C310          -13.2867780091       33.0478521919       -5.7420439982  MEMB      76              0.0000000000
     48365      1336  PPPE      H10X          -12.3494440861       33.0415737311       -6.2631704232  MEMB      76              0.0000000000
     48366      1336  PPPE      H10Y          -13.9871607720       32.2833475568       -5.6229218387  MEMB      76              0.0000000000
     48367      1336  PPPE      C311          -13.1702199515       33.5372805297       -3.7428016245  MEMB      76              0.0000000000
     48368      1336  PPPE      H11X          -12.5198227389       34.5969070318       -3.6318804961  MEMB      76              0.0000000000
     48369      1336  PPPE      H11Y          -12.5369159242       33.0633018733       -3.2306095644  MEMB      76              0.0000000000
     48370      1336  PPPE      C312          -14.0568431894       34.6389557004       -3.0340912601  MEMB      76              0.0000000000
     48371      1336  PPPE      H12X          -14.8128988924       33.9088041430       -3.1005518439  MEMB      76              0.0000000000
     48372      1336  PPPE      H12Y          -14.4333778244       35.6378591721       -3.4128062438  MEMB      76              0.0000000000
     48373      1336  PPPE      C313          -13.9093424893       35.3488400821       -1.8107083183  MEMB      76              0.0000000000
     48374      1336  PPPE      H13X          -13.0525991664       35.9989449507       -2.0122622478  MEMB      76              0.0000000000
     48375      1336  PPPE      H13Y          -13.5025312072       34.3822184737       -1.4561368896  MEMB      76              0.0000000000
     48376      1336  PPPE      C314          -15.4288673731       35.9087106588       -1.4678011046  MEMB      76              0.0000000000
     48377      1336  PPPE      H14X          -16.2000124242       35.5544278672       -2.1567118764  MEMB      76              0.0000000000
     48378      1336  PPPE      H14Y          -15.7102432943       36.8461000179       -1.8850336065  MEMB      76              0.0000000000
     48379      1336  PPPE      C315          -16.1734324859       35.5061977988       -0.0362174985  MEMB      76              0.0000000000
     48380      1336  PPPE      H15X          -16.8126121018       36.2896299819        0.2573098229  MEMB      76              0.0000000000
     48381      1336  PPPE      H15Y          -15.1111243605       35.7704372355        0.0786986224  MEMB      76              0.0000000000
     48382      1336  PPPE      C316          -16.8438845256       34.1351334119        0.8235545696  MEMB      76              0.0000000000
     48383      1336  PPPE      H16X          -17.3997489562       33.3487139835        0.3719805381  MEMB      76              0.0000000000
     48384      1336  PPPE      H16Y          -16.3558009457       33.1354309245        1.0721871073  MEMB      76              0.0000000000
     48385      1336  PPPE      H16Z          -17.2763060309       34.3018596740        1.7444152655  MEMB      76              0.0000000000
     48386      1337  PPPE      N             -40.8216435991       -3.5522970555      -21.6721584453  MEMB      77              0.0000000000
     48387      1337  PPPE      HN1           -41.5114084248       -3.1541509787      -22.3383960091  MEMB      77              0.0000000000
     48388      1337  PPPE      HN2           -40.2543707187       -2.7508573665      -21.3024924318  MEMB      77              0.0000000000
     48389      1337  PPPE      HN3           -40.1483034588       -4.2255864163      -22.0737369874  MEMB      77              0.0000000000
     48390      1337  PPPE      C12           -41.5243616286       -4.2362573619      -20.5522561793  MEMB      77              0.0000000000
     48391      1337  PPPE      H12A          -40.8139266718       -4.5160895455      -19.7636933120  MEMB      77              0.0000000000
     48392      1337  PPPE      H12B          -42.0141113674       -5.1123803881      -21.0165251377  MEMB      77              0.0000000000
     48393      1337  PPPE      C11           -42.6031631090       -3.3711870597      -19.9886273533  MEMB      77              0.0000000000
     48394      1337  PPPE      H11A          -43.2919256650       -3.9174769122      -19.3046980262  MEMB      77              0.0000000000
     48395      1337  PPPE      H11B          -43.1873737343       -3.1734364755      -20.8876273761  MEMB      77              0.0000000000
     48396      1337  PPPE      P             -41.8438440599       -2.1587958316      -17.8668572646  MEMB      77              0.0000000000
     48397      1337  PPPE      O13           -40.6914303986       -1.2985528643      -17.5814723992  MEMB      77              0.0000000000
     48398      1337  PPPE      O14           -43.1487026293       -1.9137410860      -17.2060021841  MEMB      77              0.0000000000
     48399      1337  PPPE      O11           -41.3651632390       -3.6313833651      -17.6705930741  MEMB      77              0.0000000000
     48400      1337  PPPE      O12           -42.0811952208       -2.1638454468      -19.4405035206  MEMB      77              0.0000000000
     48401      1337  PPPE      C1            -42.0646700807       -4.5064014837      -16.7991001971  MEMB      77              0.0000000000
     48402      1337  PPPE      HA            -42.4995814455       -5.2961326568      -17.4421157029  MEMB      77              0.0000000000
     48403      1337  PPPE      HB            -42.9009249282       -4.0270209653      -16.2322303163  MEMB      77              0.0000000000
     48404      1337  PPPE      C2            -41.1007194000       -5.0973606975      -15.7403592839  MEMB      77              0.0000000000
     48405      1337  PPPE      HS            -41.6891467522       -5.7035413480      -15.0122027826  MEMB      77              0.0000000000
     48406      1337  PPPE      O21           -40.3706527703       -4.0422726464      -15.0708459935  MEMB      77              0.0000000000
     48407      1337  PPPE      C21           -41.0619237533       -3.2804614967      -14.2273140141  MEMB      77              0.0000000000
     48408      1337  PPPE      O22           -42.2052662822       -3.4735884301      -13.8583148178  MEMB      77              0.0000000000
     48409      1337  PPPE      C22           -40.2024256887       -2.1522575500      -13.6839764713  MEMB      77              0.0000000000
     48410      1337  PPPE      H2R           -40.8467648137       -1.5252392517      -13.0287438137  MEMB      77              0.0000000000
     48411      1337  PPPE      H2S           -39.8686263810       -1.5366529971      -14.5436410733  MEMB      77              0.0000000000
     48412      1337  PPPE      C3            -40.1087749346       -6.0632312800      -16.4503185895  MEMB      77              0.0000000000
     48413      1337  PPPE      HX            -40.7111491074       -6.7123455707      -17.1349500090  MEMB      77              0.0000000000
     48414      1337  PPPE      HY            -39.4309579518       -5.4644290948      -17.0942846445  MEMB      77              0.0000000000
     48415      1337  PPPE      O31           -39.4067724404       -6.9152849649      -15.5279841701  MEMB      77              0.0000000000
     48416      1337  PPPE      C31           -38.1586103821       -6.6063845292      -15.1712018037  MEMB      77              0.0000000000
     48417      1337  PPPE      O32           -37.5469382547       -5.5931822935      -15.4519986623  MEMB      77              0.0000000000
     48418      1337  PPPE      C32           -37.6587799780       -7.6520389307      -14.1697847713  MEMB      77              0.0000000000
     48419      1337  PPPE      H2X           -36.5866959912       -7.8701601191      -14.3682095462  MEMB      77              0.0000000000
     48420      1337  PPPE      H2Y           -38.2224382675       -8.5964610910      -14.2941775680  MEMB      77              0.0000000000
     48421      1337  PPPE      C23           -38.9825213986       -2.6181947181      -12.8652859112  MEMB      77              0.0000000000
     48422      1337  PPPE      H3R           -38.4418618983       -1.6747945388      -12.6496346356  MEMB      77              0.0000000000
     48423      1337  PPPE      H3S           -38.2762149324       -3.2593827071      -13.4357269959  MEMB      77              0.0000000000
     48424      1337  PPPE      C24           -39.3244119828       -3.2669813163      -11.5181334634  MEMB      77              0.0000000000
     48425      1337  PPPE      H4R           -39.7419315810       -4.2804123287      -11.7034468262  MEMB      77              0.0000000000
     48426      1337  PPPE      H4S           -40.1058434360       -2.6791827854      -10.9847780843  MEMB      77              0.0000000000
     48427      1337  PPPE      C25           -38.0811856053       -3.3428609594      -10.6238296848  MEMB      77              0.0000000000
     48428      1337  PPPE      H5R           -37.4501704311       -2.4360783114      -10.7768398019  MEMB      77              0.0000000000
     48429      1337  PPPE      H5S           -37.4722103799       -4.2246600275      -10.9244587603  MEMB      77              0.0000000000
     48430      1337  PPPE      C26           -38.4070699665       -3.4423509022       -9.1340287505  MEMB      77              0.0000000000
     48431      1337  PPPE      H6R           -38.8330806946       -4.4439056599       -8.9164766989  MEMB      77              0.0000000000
     48432      1337  PPPE      H6S           -39.1751134421       -2.6950011386       -8.8326656447  MEMB      77              0.0000000000
     48433      1337  PPPE      C27           -37.1388560584       -3.2659244897       -8.3020791370  MEMB      77              0.0000000000
     48434      1337  PPPE      H7R           -36.8392915524       -2.1931369994       -8.2667139359  MEMB      77              0.0000000000
     48435      1337  PPPE      H7S           -36.2981849337       -3.8134015511       -8.7839018360  MEMB      77              0.0000000000
     48436      1337  PPPE      C28           -37.2860276188       -3.7760944715       -6.8818862836  MEMB      77              0.0000000000
     48437      1337  PPPE      H8R           -36.2461021068       -3.7351157599       -6.4876067998  MEMB      77              0.0000000000
     48438      1337  PPPE      H8S           -37.6313823003       -4.8267704866       -6.8026902601  MEMB      77              0.0000000000
     48439      1337  PPPE      C29           -38.1083342157       -2.7885577923       -6.1262178198  MEMB      77              0.0000000000
     48440      1337  PPPE      H91           -39.0417347868       -2.3778708174       -6.5490651438  MEMB      77              0.0000000000
     48441      1337  PPPE      C210          -37.9284174506       -2.6654752777       -4.8355808191  MEMB      77              0.0000000000
     48442      1337  PPPE      H101          -38.4623148658       -1.8461041111       -4.3381850274  MEMB      77              0.0000000000
     48443      1337  PPPE      C211          -36.9703776446       -3.4550459626       -3.9945081840  MEMB      77              0.0000000000
     48444      1337  PPPE      H11R          -36.8005013192       -2.9643873275       -3.1071041662  MEMB      77              0.0000000000
     48445      1337  PPPE      H11S          -35.9626954428       -3.5616788026       -4.4434929290  MEMB      77              0.0000000000
     48446      1337  PPPE      C212          -37.4436970839       -4.7119205679       -3.2402462664  MEMB      77              0.0000000000
     48447      1337  PPPE      H12R          -36.6087894367       -5.1982266776       -2.6968254324  MEMB      77              0.0000000000
     48448      1337  PPPE      H12S          -37.7761849566       -5.1122449378       -4.2108740850  MEMB      77              0.0000000000
     48449      1337  PPPE      C213          -38.6946215605       -4.9593729296       -2.3887887986  MEMB      77              0.0000000000
     48450      1337  PPPE      H13R          -39.0153507190       -5.9945776240       -2.2232329164  MEMB      77              0.0000000000
     48451      1337  PPPE      H13S          -39.5322934237       -4.7027003555       -3.0475075731  MEMB      77              0.0000000000
     48452      1337  PPPE      C214          -38.6397313773       -4.5507809639       -0.9180957223  MEMB      77              0.0000000000
     48453      1337  PPPE      H14R          -39.6509948927       -4.3510950875       -0.5314672751  MEMB      77              0.0000000000
     48454      1337  PPPE      H14S          -38.1713832453       -3.6086566170       -0.8754106277  MEMB      77              0.0000000000
     48455      1337  PPPE      C215          -37.4760002834       -4.8286713156        0.0280635750  MEMB      77              0.0000000000
     48456      1337  PPPE      H15R          -36.5931864179       -4.1307123353       -0.1843603668  MEMB      77              0.0000000000
     48457      1337  PPPE      H15S          -37.1682664625       -5.8426614399       -0.1764662635  MEMB      77              0.0000000000
     48458      1337  PPPE      C216          -37.9717016237       -4.7148090363        1.4670188480  MEMB      77              0.0000000000
     48459      1337  PPPE      H16R          -38.3063756313       -3.7582283087        1.7423955529  MEMB      77              0.0000000000
     48460      1337  PPPE      H16S          -39.0072667864       -5.0387715493        1.6154741147  MEMB      77              0.0000000000
     48461      1337  PPPE      H16T          -37.2171386191       -4.6888120546        2.2619168970  MEMB      77              0.0000000000
     48462      1337  PPPE      C33           -37.7803375483       -7.0890471334      -12.7458522925  MEMB      77              0.0000000000
     48463      1337  PPPE      H3X           -37.4856419319       -6.0127832779      -12.7317459881  MEMB      77              0.0000000000
     48464      1337  PPPE      H3Y           -37.0608745515       -7.6364206249      -12.0943445598  MEMB      77              0.0000000000
     48465      1337  PPPE      C34           -39.1862079190       -7.2590368187      -12.1581798595  MEMB      77              0.0000000000
     48466      1337  PPPE      H4X           -39.6130802986       -8.2347917103      -12.4736668614  MEMB      77              0.0000000000
     48467      1337  PPPE      H4Y           -39.8806159464       -6.5128613691      -12.5959013871  MEMB      77              0.0000000000
     48468      1337  PPPE      C35           -39.1385207776       -7.0505707265      -10.6428256457  MEMB      77              0.0000000000
     48469      1337  PPPE      H5X           -38.9168526827       -5.9780704732      -10.4655143463  MEMB      77              0.0000000000
     48470      1337  PPPE      H5Y           -38.3065408841       -7.6174530873      -10.1659317613  MEMB      77              0.0000000000
     48471      1337  PPPE      C36           -40.4173064509       -7.3914858315       -9.8853875769  MEMB      77              0.0000000000
     48472      1337  PPPE      H6X           -40.8524505997       -8.3363274767      -10.2583676260  MEMB      77              0.0000000000
     48473      1337  PPPE      H6Y           -41.1764303884       -6.6043258062      -10.0581125536  MEMB      77              0.0000000000
     48474      1337  PPPE      C37           -40.0847062964       -7.4593621326       -8.3939529804  MEMB      77              0.0000000000
     48475      1337  PPPE      H7X           -39.7311773950       -6.4474851702       -8.0994157324  MEMB      77              0.0000000000
     48476      1337  PPPE      H7Y           -39.2447027094       -8.1562507116       -8.1902310187  MEMB      77              0.0000000000
     48477      1337  PPPE      C38           -41.2469567916       -7.8373285356       -7.4932825033  MEMB      77              0.0000000000
     48478      1337  PPPE      H8X           -41.7095133015       -8.8024309636       -7.7888326083  MEMB      77              0.0000000000
     48479      1337  PPPE      H8Y           -42.0177023693       -7.0500773706       -7.6303449356  MEMB      77              0.0000000000
     48480      1337  PPPE      C39           -40.7759000822       -7.8360662985       -6.0328659832  MEMB      77              0.0000000000
     48481      1337  PPPE      H9X           -40.0307946401       -7.0297275199       -5.8935112945  MEMB      77              0.0000000000
     48482      1337  PPPE      H9Y           -40.3486799305       -8.8044761365       -5.7033044658  MEMB      77              0.0000000000
     48483      1337  PPPE      C310          -41.8852717006       -7.4907246100       -5.0956206279  MEMB      77              0.0000000000
     48484      1337  PPPE      H10X          -42.5442026632       -8.3617799164       -5.1464088527  MEMB      77              0.0000000000
     48485      1337  PPPE      H10Y          -42.3972902102       -6.5929813999       -5.5016459134  MEMB      77              0.0000000000
     48486      1337  PPPE      C311          -41.4975417313       -7.2289588692       -3.6529405665  MEMB      77              0.0000000000
     48487      1337  PPPE      H11X          -40.7010180799       -6.4732145702       -3.6697806688  MEMB      77              0.0000000000
     48488      1337  PPPE      H11Y          -41.1368328627       -8.1607555930       -3.1696739366  MEMB      77              0.0000000000
     48489      1337  PPPE      C312          -42.6007622708       -6.6873554160       -2.7697642629  MEMB      77              0.0000000000
     48490      1337  PPPE      H12X          -43.0470033524       -7.6015939598       -2.3365612389  MEMB      77              0.0000000000
     48491      1337  PPPE      H12Y          -43.3243570117       -6.0409687820       -3.3259273331  MEMB      77              0.0000000000
     48492      1337  PPPE      C313          -42.1125317135       -5.9005725952       -1.5813809484  MEMB      77              0.0000000000
     48493      1337  PPPE      H13X          -41.6369420881       -4.9938856802       -1.9732240526  MEMB      77              0.0000000000
     48494      1337  PPPE      H13Y          -41.3579000210       -6.5133034771       -1.0454222402  MEMB      77              0.0000000000
     48495      1337  PPPE      C314          -43.2237078385       -5.5315695258       -0.6181003978  MEMB      77              0.0000000000
     48496      1337  PPPE      H14X          -43.7224832409       -6.4713750428       -0.3279776662  MEMB      77              0.0000000000
     48497      1337  PPPE      H14Y          -43.9695042968       -4.8127161859       -1.0257114026  MEMB      77              0.0000000000
     48498      1337  PPPE      C315          -42.6840159276       -4.9202557817        0.6299341723  MEMB      77              0.0000000000
     48499      1337  PPPE      H15X          -43.5602671576       -4.7735886636        1.2711350242  MEMB      77              0.0000000000
     48500      1337  PPPE      H15Y          -42.3114833800       -3.9055169053        0.3908042274  MEMB      77              0.0000000000
     48501      1337  PPPE      C316          -41.6159013876       -5.7649473184        1.3108729656  MEMB      77              0.0000000000
     48502      1337  PPPE      H16X          -40.6338015610       -5.6380334749        0.8391734311  MEMB      77              0.0000000000
     48503      1337  PPPE      H16Y          -41.5093185754       -5.3983833998        2.3056189516  MEMB      77              0.0000000000
     48504      1337  PPPE      H16Z          -41.8734685119       -6.8274299743        1.4840375420  MEMB      77              0.0000000000
     48505      1338  PPPE      N              15.9058202742       38.1294321310      -20.7043933712  MEMB      78              0.0000000000
     48506      1338  PPPE      HN1            14.9488407264       38.1128921641      -21.0945173700  MEMB      78              0.0000000000
     48507      1338  PPPE      HN2            15.8770004321       38.2904148898      -19.6726059425  MEMB      78              0.0000000000
     48508      1338  PPPE      HN3            16.4438818167       38.9108205873      -21.1348384631  MEMB      78              0.0000000000
     48509      1338  PPPE      C12            16.5566682468       36.7876832573      -20.9294845730  MEMB      78              0.0000000000
     48510      1338  PPPE      H12A           16.5482657299       36.5743694025      -22.0115585258  MEMB      78              0.0000000000
     48511      1338  PPPE      H12B           15.9315290945       36.0409036464      -20.3894626756  MEMB      78              0.0000000000
     48512      1338  PPPE      C11            18.0183222560       36.7614379511      -20.4619049471  MEMB      78              0.0000000000
     48513      1338  PPPE      H11A           18.5870612678       37.5937288285      -20.9271950473  MEMB      78              0.0000000000
     48514      1338  PPPE      H11B           18.5268693440       35.8356738198      -20.8258966728  MEMB      78              0.0000000000
     48515      1338  PPPE      P              17.6476713790       35.8197335947      -18.0342343236  MEMB      78              0.0000000000
     48516      1338  PPPE      O13            16.2136106998       36.0815413418      -17.7756975959  MEMB      78              0.0000000000
     48517      1338  PPPE      O14            17.9964292363       34.5098621044      -18.6147326684  MEMB      78              0.0000000000
     48518      1338  PPPE      O11            18.4836027982       36.1433690633      -16.7541158333  MEMB      78              0.0000000000
     48519      1338  PPPE      O12            18.1150526137       36.9229042304      -19.0574723736  MEMB      78              0.0000000000
     48520      1338  PPPE      C1             19.7772019609       35.6039054863      -16.4837807329  MEMB      78              0.0000000000
     48521      1338  PPPE      HA             20.3661044589       36.3720960578      -15.9377894015  MEMB      78              0.0000000000
     48522      1338  PPPE      HB             20.3599346048       35.3914939222      -17.4078558182  MEMB      78              0.0000000000
     48523      1338  PPPE      C2             19.6757760265       34.3650779551      -15.5470230526  MEMB      78              0.0000000000
     48524      1338  PPPE      HS             19.0804171383       33.5853512832      -16.0640370942  MEMB      78              0.0000000000
     48525      1338  PPPE      O21            19.0136966354       34.8128553499      -14.3478310307  MEMB      78              0.0000000000
     48526      1338  PPPE      C21            18.4525590799       33.9421107266      -13.5362773310  MEMB      78              0.0000000000
     48527      1338  PPPE      O22            18.6058542246       32.7364621139      -13.5286857388  MEMB      78              0.0000000000
     48528      1338  PPPE      C22            17.5242695108       34.7278309663      -12.5892211824  MEMB      78              0.0000000000
     48529      1338  PPPE      H2R            17.0454123697       34.0389466605      -11.8656750806  MEMB      78              0.0000000000
     48530      1338  PPPE      H2S            16.7236898630       35.1683510514      -13.2247034264  MEMB      78              0.0000000000
     48531      1338  PPPE      C3             21.0708752300       33.7498128556      -15.2545218247  MEMB      78              0.0000000000
     48532      1338  PPPE      HX             20.9667013538       32.8040377892      -14.6764748666  MEMB      78              0.0000000000
     48533      1338  PPPE      HY             21.5507999140       33.4903348945      -16.2197882186  MEMB      78              0.0000000000
     48534      1338  PPPE      O31            21.8991302300       34.7212346573      -14.6237618073  MEMB      78              0.0000000000
     48535      1338  PPPE      C31            21.9422519316       34.6491354652      -13.3225780462  MEMB      78              0.0000000000
     48536      1338  PPPE      O32            21.7308646352       33.6931746192      -12.6018313647  MEMB      78              0.0000000000
     48537      1338  PPPE      C32            22.3963394636       35.9987590917      -12.8501786963  MEMB      78              0.0000000000
     48538      1338  PPPE      H2X            21.8421211919       36.8899790041      -13.1097262375  MEMB      78              0.0000000000
     48539      1338  PPPE      H2Y            23.1552314302       36.2724722542      -13.6001076646  MEMB      78              0.0000000000
     48540      1338  PPPE      C23            18.2908952902       35.8731741540      -11.9059369794  MEMB      78              0.0000000000
     48541      1338  PPPE      H3R            18.7101686069       36.5113763622      -12.7188804736  MEMB      78              0.0000000000
     48542      1338  PPPE      H3S            19.1445901020       35.4755046494      -11.3163385669  MEMB      78              0.0000000000
     48543      1338  PPPE      C24            17.4127539872       36.7315254106      -11.0011803058  MEMB      78              0.0000000000
     48544      1338  PPPE      H4R            17.0426601383       36.1277323321      -10.1407696725  MEMB      78              0.0000000000
     48545      1338  PPPE      H4S            16.5294219340       37.1044447498      -11.5689404229  MEMB      78              0.0000000000
     48546      1338  PPPE      C25            18.1332928358       37.9459306027      -10.4192940333  MEMB      78              0.0000000000
     48547      1338  PPPE      H5R            18.4149472424       38.6612138933      -11.2232271916  MEMB      78              0.0000000000
     48548      1338  PPPE      H5S            19.0571361252       37.5983602836       -9.9036216474  MEMB      78              0.0000000000
     48549      1338  PPPE      C26            17.1674241410       38.6204409901       -9.4424522402  MEMB      78              0.0000000000
     48550      1338  PPPE      H6R            16.9366386268       37.8814715016       -8.6416615352  MEMB      78              0.0000000000
     48551      1338  PPPE      H6S            16.2228828334       38.8582360048       -9.9846304694  MEMB      78              0.0000000000
     48552      1338  PPPE      C27            17.6060689317       39.9229189037       -8.7750714244  MEMB      78              0.0000000000
     48553      1338  PPPE      H7R            16.8530967153       40.1011265945       -7.9799249493  MEMB      78              0.0000000000
     48554      1338  PPPE      H7S            17.5847657613       40.7670780677       -9.5014786979  MEMB      78              0.0000000000
     48555      1338  PPPE      C28            18.9763141093       39.8765364981       -8.1437219777  MEMB      78              0.0000000000
     48556      1338  PPPE      H8R            19.6361417961       39.6322450590       -8.9984664531  MEMB      78              0.0000000000
     48557      1338  PPPE      H8S            19.0420481779       38.9950804886       -7.4557723449  MEMB      78              0.0000000000
     48558      1338  PPPE      C29            19.3504398494       41.2298055114       -7.5404699273  MEMB      78              0.0000000000
     48559      1338  PPPE      H91            19.7669211759       41.9502843339       -8.2440853347  MEMB      78              0.0000000000
     48560      1338  PPPE      C210           19.3382603816       41.5822474910       -6.2428890503  MEMB      78              0.0000000000
     48561      1338  PPPE      H101           20.0497548839       42.3467145176       -5.8625867962  MEMB      78              0.0000000000
     48562      1338  PPPE      C211           18.9439518159       40.6421350382       -5.1765971545  MEMB      78              0.0000000000
     48563      1338  PPPE      H11R           19.9246334519       40.4662008076       -4.9586215733  MEMB      78              0.0000000000
     48564      1338  PPPE      H11S           18.5653655927       39.6193806427       -5.4408990099  MEMB      78              0.0000000000
     48565      1338  PPPE      C212           18.6314541354       41.2286519940       -3.8049660929  MEMB      78              0.0000000000
     48566      1338  PPPE      H12R           17.6343093093       41.6446801793       -4.0357394399  MEMB      78              0.0000000000
     48567      1338  PPPE      H12S           19.3890856150       41.8807955312       -3.3394289376  MEMB      78              0.0000000000
     48568      1338  PPPE      C213           18.3526929886       40.2343917887       -2.7495536153  MEMB      78              0.0000000000
     48569      1338  PPPE      H13R           19.1997623422       39.6488867560       -2.3054168182  MEMB      78              0.0000000000
     48570      1338  PPPE      H13S           17.8403296945       39.7206530167       -3.5921478234  MEMB      78              0.0000000000
     48571      1338  PPPE      C214           17.2821888455       40.6005283764       -1.7141464854  MEMB      78              0.0000000000
     48572      1338  PPPE      H14R           16.3103398706       40.7637520703       -2.2098363705  MEMB      78              0.0000000000
     48573      1338  PPPE      H14S           17.8171467944       41.4338071247       -1.2316213496  MEMB      78              0.0000000000
     48574      1338  PPPE      C215           16.9744561283       39.6302909178       -0.6023322906  MEMB      78              0.0000000000
     48575      1338  PPPE      H15R           17.9904380787       39.5595909494       -0.1341802649  MEMB      78              0.0000000000
     48576      1338  PPPE      H15S           16.5125430495       38.7014261586       -1.0055530495  MEMB      78              0.0000000000
     48577      1338  PPPE      C216           15.9835599565       39.6785879891        0.5428391151  MEMB      78              0.0000000000
     48578      1338  PPPE      H16R           15.9536731553       38.7124663363        1.1255951065  MEMB      78              0.0000000000
     48579      1338  PPPE      H16S           16.3280421021       40.4536855145        1.2123423775  MEMB      78              0.0000000000
     48580      1338  PPPE      H16T           14.9766132290       39.8055598206        0.1242183213  MEMB      78              0.0000000000
     48581      1338  PPPE      C33            22.6206373421       35.9854194335      -11.3317113534  MEMB      78              0.0000000000
     48582      1338  PPPE      H3X            23.2499139396       35.2408174240      -10.8315112777  MEMB      78              0.0000000000
     48583      1338  PPPE      H3Y            21.6832648557       35.7451485480      -10.8160941701  MEMB      78              0.0000000000
     48584      1338  PPPE      C34            23.1390098712       37.2826709026      -10.8316044764  MEMB      78              0.0000000000
     48585      1338  PPPE      H4X            22.4247606446       38.0671213717      -11.1099691340  MEMB      78              0.0000000000
     48586      1338  PPPE      H4Y            24.0735630067       37.6808345409      -11.3029293822  MEMB      78              0.0000000000
     48587      1338  PPPE      C35            23.3930292463       37.0827617915       -9.3308845257  MEMB      78              0.0000000000
     48588      1338  PPPE      H5X            23.8796142650       38.0327976093       -9.2532687292  MEMB      78              0.0000000000
     48589      1338  PPPE      H5Y            24.2503269254       36.7703946430       -8.8585523490  MEMB      78              0.0000000000
     48590      1338  PPPE      C36            22.3273431029       36.4776421229       -8.4065728022  MEMB      78              0.0000000000
     48591      1338  PPPE      H6X            21.9657742998       35.5091691454       -8.7322745927  MEMB      78              0.0000000000
     48592      1338  PPPE      H6Y            21.4360638938       37.0550831039       -8.7323830447  MEMB      78              0.0000000000
     48593      1338  PPPE      C37            22.6867300653       36.3751863096       -6.8510074081  MEMB      78              0.0000000000
     48594      1338  PPPE      H7X            23.1391077889       37.2304631889       -6.3038304957  MEMB      78              0.0000000000
     48595      1338  PPPE      H7Y            23.6080107467       35.8590404769       -6.5910576609  MEMB      78              0.0000000000
     48596      1338  PPPE      C38            21.4686970656       36.2608433664       -5.9423395300  MEMB      78              0.0000000000
     48597      1338  PPPE      H8X            20.6187270359       36.9616380232       -6.0737169358  MEMB      78              0.0000000000
     48598      1338  PPPE      H8Y            21.8247472442       36.3966280592       -4.9130307039  MEMB      78              0.0000000000
     48599      1338  PPPE      C39            20.8217985529       34.9639945507       -5.8937699153  MEMB      78              0.0000000000
     48600      1338  PPPE      H9X            21.6898950571       34.2730999646       -5.8526041974  MEMB      78              0.0000000000
     48601      1338  PPPE      H9Y            20.2117650084       34.8600109121       -6.8163272235  MEMB      78              0.0000000000
     48602      1338  PPPE      C310           19.9815667945       34.9704937768       -4.6219916173  MEMB      78              0.0000000000
     48603      1338  PPPE      H10X           19.2507984554       35.8172717395       -4.6382617953  MEMB      78              0.0000000000
     48604      1338  PPPE      H10Y           20.6764699423       35.1309878811       -3.7661095133  MEMB      78              0.0000000000
     48605      1338  PPPE      C311           19.3476014658       33.6024574022       -4.5041247970  MEMB      78              0.0000000000
     48606      1338  PPPE      H11X           20.1664524650       32.8893529302       -4.2766426082  MEMB      78              0.0000000000
     48607      1338  PPPE      H11Y           18.8874179182       33.3778592803       -5.4924241688  MEMB      78              0.0000000000
     48608      1338  PPPE      C312           18.3346532494       33.3470552135       -3.4123564402  MEMB      78              0.0000000000
     48609      1338  PPPE      H12X           18.0800128906       32.2833456681       -3.3314161730  MEMB      78              0.0000000000
     48610      1338  PPPE      H12Y           17.3718484935       33.8186766714       -3.7260139368  MEMB      78              0.0000000000
     48611      1338  PPPE      C313           18.7793929633       33.7292214363       -2.0249155672  MEMB      78              0.0000000000
     48612      1338  PPPE      H13X           19.7293053543       34.3592473581       -2.0278538694  MEMB      78              0.0000000000
     48613      1338  PPPE      H13Y           18.8406219071       32.9756417616       -1.2297525544  MEMB      78              0.0000000000
     48614      1338  PPPE      C314           17.6094999265       34.5279908784       -1.5795554286  MEMB      78              0.0000000000
     48615      1338  PPPE      H14X           17.2844155011       35.1076650389       -2.4621946120  MEMB      78              0.0000000000
     48616      1338  PPPE      H14Y           18.2998404750       35.0469880266       -0.9404314923  MEMB      78              0.0000000000
     48617      1338  PPPE      C315           16.4364756400       34.2438723287       -0.6537172512  MEMB      78              0.0000000000
     48618      1338  PPPE      H15X           16.9173677022       33.8489933237        0.2654645711  MEMB      78              0.0000000000
     48619      1338  PPPE      H15Y           15.9644240235       33.4671024109       -1.2702734035  MEMB      78              0.0000000000
     48620      1338  PPPE      C316           15.3521830901       35.3400729965       -0.2717399611  MEMB      78              0.0000000000
     48621      1338  PPPE      H16X           14.6662411885       34.9119114081        0.4796231629  MEMB      78              0.0000000000
     48622      1338  PPPE      H16Y           15.6122254521       36.2437742321        0.3012380596  MEMB      78              0.0000000000
     48623      1338  PPPE      H16Z           14.8598313454       35.8268402472       -1.1298518135  MEMB      78              0.0000000000
     48624      1339  PPPE      N              10.4706434760      -39.7260878672      -21.8087363133  MEMB      79              0.0000000000
     48625      1339  PPPE      HN1            11.4140298988      -39.8102105086      -22.2445473623  MEMB      79              0.0000000000
     48626      1339  PPPE      HN2             9.7576799347      -39.9521529842      -22.5263305275  MEMB      79              0.0000000000
     48627      1339  PPPE      HN3            10.3124220313      -38.7250340210      -21.5431033319  MEMB      79              0.0000000000
     48628      1339  PPPE      C12            10.2384911444      -40.4589744634      -20.4875119859  MEMB      79              0.0000000000
     48629      1339  PPPE      H12A           10.2185890390      -41.5327086351      -20.5247075586  MEMB      79              0.0000000000
     48630      1339  PPPE      H12B            9.2436329656      -40.1744069264      -20.1044818903  MEMB      79              0.0000000000
     48631      1339  PPPE      C11            11.4037545373      -40.5448773625      -19.5309131884  MEMB      79              0.0000000000
     48632      1339  PPPE      H11A           12.2638974424      -41.1023724673      -19.9637792361  MEMB      79              0.0000000000
     48633      1339  PPPE      H11B           11.0667323810      -41.1931771124      -18.6646909132  MEMB      79              0.0000000000
     48634      1339  PPPE      P              10.9276736187      -38.6178919309      -17.9476352819  MEMB      79              0.0000000000
     48635      1339  PPPE      O13            10.6546663858      -37.1984093636      -18.2261964454  MEMB      79              0.0000000000
     48636      1339  PPPE      O14             9.7516738714      -39.4798424624      -17.7106051956  MEMB      79              0.0000000000
     48637      1339  PPPE      O11            12.0267515812      -38.8316431927      -16.8262227584  MEMB      79              0.0000000000
     48638      1339  PPPE      O12            11.7388790348      -39.2152926708      -19.2001527176  MEMB      79              0.0000000000
     48639      1339  PPPE      C1             13.4334488640      -39.0057493512      -17.0221089239  MEMB      79              0.0000000000
     48640      1339  PPPE      HA             13.8760590327      -38.1247904992      -17.5534769809  MEMB      79              0.0000000000
     48641      1339  PPPE      HB             13.6497598003      -39.9089428951      -17.6339097080  MEMB      79              0.0000000000
     48642      1339  PPPE      C2             14.1764573264      -39.2404910056      -15.6561085294  MEMB      79              0.0000000000
     48643      1339  PPPE      HS             15.1980004565      -39.6120647685      -15.8976116846  MEMB      79              0.0000000000
     48644      1339  PPPE      O21            13.4753468665      -40.2281372958      -14.8705947325  MEMB      79              0.0000000000
     48645      1339  PPPE      C21            13.9150699346      -40.4946119683      -13.6572392627  MEMB      79              0.0000000000
     48646      1339  PPPE      O22            14.8898924761      -40.0040980740      -13.1165446334  MEMB      79              0.0000000000
     48647      1339  PPPE      C22            13.0393938641      -41.5810607896      -13.0276657157  MEMB      79              0.0000000000
     48648      1339  PPPE      H2R            13.0080736859      -42.4857853586      -13.6690146978  MEMB      79              0.0000000000
     48649      1339  PPPE      H2S            12.0024716018      -41.1976679760      -12.9397348166  MEMB      79              0.0000000000
     48650      1339  PPPE      C3             14.3073863523      -37.8797253677      -14.9122023951  MEMB      79              0.0000000000
     48651      1339  PPPE      HX             15.2212088157      -37.8230883858      -14.2716865529  MEMB      79              0.0000000000
     48652      1339  PPPE      HY             14.4504717126      -37.2022941021      -15.7629640422  MEMB      79              0.0000000000
     48653      1339  PPPE      O31            13.1647264128      -37.5058275447      -14.1283184364  MEMB      79              0.0000000000
     48654      1339  PPPE      C31            12.2841523640      -36.6781719900      -14.6631708560  MEMB      79              0.0000000000
     48655      1339  PPPE      O32            12.2931247475      -36.2008341032      -15.7771650281  MEMB      79              0.0000000000
     48656      1339  PPPE      C32            11.4638024367      -36.1411462360      -13.5117851413  MEMB      79              0.0000000000
     48657      1339  PPPE      H2X            11.0028080337      -35.1659748686      -13.8157729973  MEMB      79              0.0000000000
     48658      1339  PPPE      H2Y            12.0997067368      -36.0975839407      -12.5955432299  MEMB      79              0.0000000000
     48659      1339  PPPE      C23            13.5334548545      -41.9309055834      -11.6117480254  MEMB      79              0.0000000000
     48660      1339  PPPE      H3R            13.5906748771      -40.9802429016      -11.0320216900  MEMB      79              0.0000000000
     48661      1339  PPPE      H3S            14.5531108236      -42.3739339263      -11.6539970774  MEMB      79              0.0000000000
     48662      1339  PPPE      C24            12.5582397463      -42.9083943876      -10.9478678937  MEMB      79              0.0000000000
     48663      1339  PPPE      H4R            12.7072314734      -43.9027413211      -11.4246125557  MEMB      79              0.0000000000
     48664      1339  PPPE      H4S            11.5362871299      -42.5487785124      -11.2109271786  MEMB      79              0.0000000000
     48665      1339  PPPE      C25            12.6625768258      -43.0082065399       -9.4136458396  MEMB      79              0.0000000000
     48666      1339  PPPE      H5R            13.5917273602      -43.5552369818       -9.1451139623  MEMB      79              0.0000000000
     48667      1339  PPPE      H5S            11.7734608367      -43.5329998384       -8.9856136683  MEMB      79              0.0000000000
     48668      1339  PPPE      C26            12.7105249034      -41.6339078229       -8.7560372635  MEMB      79              0.0000000000
     48669      1339  PPPE      H6R            11.9054394417      -41.0479860259       -9.2546322739  MEMB      79              0.0000000000
     48670      1339  PPPE      H6S            13.7033990647      -41.1770495878       -8.9765315938  MEMB      79              0.0000000000
     48671      1339  PPPE      C27            12.5372988422      -41.6270049194       -7.2333462123  MEMB      79              0.0000000000
     48672      1339  PPPE      H7R            13.4538010599      -42.0456657767       -6.7708394989  MEMB      79              0.0000000000
     48673      1339  PPPE      H7S            11.6809815849      -42.2593108391       -6.9068781970  MEMB      79              0.0000000000
     48674      1339  PPPE      C28            12.3101324549      -40.2166119461       -6.6822659028  MEMB      79              0.0000000000
     48675      1339  PPPE      H8R            12.0756228619      -40.3164173786       -5.5979759962  MEMB      79              0.0000000000
     48676      1339  PPPE      H8S            11.4118659826      -39.8153609922       -7.2119082021  MEMB      79              0.0000000000
     48677      1339  PPPE      C29            13.4749082263      -39.2869798382       -6.8846255450  MEMB      79              0.0000000000
     48678      1339  PPPE      H91            14.4725411584      -39.7285081824       -7.0161453932  MEMB      79              0.0000000000
     48679      1339  PPPE      C210           13.3589162858      -37.9625841716       -6.8363869649  MEMB      79              0.0000000000
     48680      1339  PPPE      H101           14.2451806118      -37.3435578961       -7.0832603115  MEMB      79              0.0000000000
     48681      1339  PPPE      C211           12.0522013564      -37.2484467700       -6.5652310407  MEMB      79              0.0000000000
     48682      1339  PPPE      H11R           11.3068209469      -37.4853987593       -7.3395475226  MEMB      79              0.0000000000
     48683      1339  PPPE      H11S           12.2333609079      -36.1595597766       -6.6892407410  MEMB      79              0.0000000000
     48684      1339  PPPE      C212           11.2645174687      -37.5775732055       -5.2446050911  MEMB      79              0.0000000000
     48685      1339  PPPE      H12R           10.8641230079      -38.5866620502       -5.1572356148  MEMB      79              0.0000000000
     48686      1339  PPPE      H12S           10.4580607448      -36.8060350227       -5.1627869216  MEMB      79              0.0000000000
     48687      1339  PPPE      C213           12.0457391800      -37.5428301724       -3.9520900538  MEMB      79              0.0000000000
     48688      1339  PPPE      H13R           12.4335558210      -36.7414594271       -4.4920015173  MEMB      79              0.0000000000
     48689      1339  PPPE      H13S           13.0271480179      -38.0440792652       -3.8590492391  MEMB      79              0.0000000000
     48690      1339  PPPE      C214           11.1677988325      -37.1288926011       -2.7189598672  MEMB      79              0.0000000000
     48691      1339  PPPE      H14R           10.5761590790      -37.9880647234       -2.4707483659  MEMB      79              0.0000000000
     48692      1339  PPPE      H14S           10.6009424989      -36.1704059981       -2.9372550638  MEMB      79              0.0000000000
     48693      1339  PPPE      C215           11.8506762522      -37.0620862311       -1.3546626960  MEMB      79              0.0000000000
     48694      1339  PPPE      H15R           12.0750924011      -36.1164853678       -1.8766826200  MEMB      79              0.0000000000
     48695      1339  PPPE      H15S           12.6982755672      -37.7769751634       -1.3292290589  MEMB      79              0.0000000000
     48696      1339  PPPE      C216           11.4566436853      -36.6569384720        0.1226622089  MEMB      79              0.0000000000
     48697      1339  PPPE      H16R           10.5325842696      -37.1606010266        0.2769899551  MEMB      79              0.0000000000
     48698      1339  PPPE      H16S           12.1491988047      -36.0282315911        0.7969212712  MEMB      79              0.0000000000
     48699      1339  PPPE      H16T           10.7698525082      -35.8531458535        0.3273489337  MEMB      79              0.0000000000
     48700      1339  PPPE      C33            10.1931740916      -36.8394388456      -13.2675407478  MEMB      79              0.0000000000
     48701      1339  PPPE      H3X            10.4465053486      -37.9162998532      -13.2786357442  MEMB      79              0.0000000000
     48702      1339  PPPE      H3Y             9.5846476547      -36.5142226384      -14.1488342732  MEMB      79              0.0000000000
     48703      1339  PPPE      C34             9.5377577081      -36.3403903121      -11.9836102664  MEMB      79              0.0000000000
     48704      1339  PPPE      H4X             8.4861626399      -36.6597118345      -12.1212309286  MEMB      79              0.0000000000
     48705      1339  PPPE      H4Y             9.5325483135      -35.2227383399      -11.9344559372  MEMB      79              0.0000000000
     48706      1339  PPPE      C35            10.1791211797      -36.9287668421      -10.7070407727  MEMB      79              0.0000000000
     48707      1339  PPPE      H5X            10.6859021497      -36.1167745056      -10.1409653568  MEMB      79              0.0000000000
     48708      1339  PPPE      H5Y            10.8543907471      -37.7740807001      -10.9435207504  MEMB      79              0.0000000000
     48709      1339  PPPE      C36             9.2093689100      -37.4993398153       -9.6946699768  MEMB      79              0.0000000000
     48710      1339  PPPE      H6X             8.3339571358      -37.0060235881       -9.9823336831  MEMB      79              0.0000000000
     48711      1339  PPPE      H6Y             9.4182511035      -37.1453132187       -8.6679814652  MEMB      79              0.0000000000
     48712      1339  PPPE      C37             9.0104533487      -39.0058193416       -9.7617248309  MEMB      79              0.0000000000
     48713      1339  PPPE      H7X            10.0186256519      -39.4641407341       -9.8370345316  MEMB      79              0.0000000000
     48714      1339  PPPE      H7Y             8.4342812412      -39.2873139407      -10.6710390732  MEMB      79              0.0000000000
     48715      1339  PPPE      C38             8.4015595611      -39.5413573175       -8.4706209612  MEMB      79              0.0000000000
     48716      1339  PPPE      H8X             7.3382708656      -39.2622515712       -8.3802121970  MEMB      79              0.0000000000
     48717      1339  PPPE      H8Y             8.9730173810      -39.0909180461       -7.6308593962  MEMB      79              0.0000000000
     48718      1339  PPPE      C39             8.5561525623      -41.0466308633       -8.3185834964  MEMB      79              0.0000000000
     48719      1339  PPPE      H9X             9.6234392702      -41.3129745201       -8.3317345062  MEMB      79              0.0000000000
     48720      1339  PPPE      H9Y             8.0684162089      -41.5182212371       -9.2004511865  MEMB      79              0.0000000000
     48721      1339  PPPE      C310            8.0332235133      -41.5554219633       -6.9768380139  MEMB      79              0.0000000000
     48722      1339  PPPE      H10X            7.8413229582      -42.6521881672       -7.0186789181  MEMB      79              0.0000000000
     48723      1339  PPPE      H10Y            7.1658015659      -40.9075593790       -6.7530046612  MEMB      79              0.0000000000
     48724      1339  PPPE      C311            8.8255226877      -41.2768837553       -5.7143914892  MEMB      79              0.0000000000
     48725      1339  PPPE      H11X            9.0297984153      -40.1873145219       -5.7080349533  MEMB      79              0.0000000000
     48726      1339  PPPE      H11Y            9.7592407992      -41.8607944397       -5.7404993654  MEMB      79              0.0000000000
     48727      1339  PPPE      C312            8.1329532997      -41.6601782530       -4.4010962957  MEMB      79              0.0000000000
     48728      1339  PPPE      H12X            7.9790388276      -42.7671651783       -4.4001071432  MEMB      79              0.0000000000
     48729      1339  PPPE      H12Y            7.1281215803      -41.1901133916       -4.3135781915  MEMB      79              0.0000000000
     48730      1339  PPPE      C313            8.9598533331      -41.1516920899       -3.1912523380  MEMB      79              0.0000000000
     48731      1339  PPPE      H13X            8.9046631888      -40.0388534893       -3.2172198706  MEMB      79              0.0000000000
     48732      1339  PPPE      H13Y           10.0172200770      -41.4544215009       -3.2966990636  MEMB      79              0.0000000000
     48733      1339  PPPE      C314            8.4464274690      -41.5855415910       -1.8133170512  MEMB      79              0.0000000000
     48734      1339  PPPE      H14X            8.2362299054      -42.6770064731       -1.8036476660  MEMB      79              0.0000000000
     48735      1339  PPPE      H14Y            7.4920229772      -41.0236094446       -1.6757192107  MEMB      79              0.0000000000
     48736      1339  PPPE      C315            9.2839378280      -41.3803758291       -0.5767299032  MEMB      79              0.0000000000
     48737      1339  PPPE      H15X            9.5219004185      -40.2961571264       -0.5037537920  MEMB      79              0.0000000000
     48738      1339  PPPE      H15Y           10.2249529749      -41.9547105611       -0.6445286482  MEMB      79              0.0000000000
     48739      1339  PPPE      C316            8.5407762895      -41.8605219373        0.6733427053  MEMB      79              0.0000000000
     48740      1339  PPPE      H16X            9.0690686242      -41.4395930876        1.5604316983  MEMB      79              0.0000000000
     48741      1339  PPPE      H16Y            7.4923348886      -41.4893036980        0.6760460447  MEMB      79              0.0000000000
     48742      1339  PPPE      H16Z            8.3952383923      -42.9222179414        0.7680978198  MEMB      79              0.0000000000
     48743      1340  PPPE      N              38.9625505772        7.3801125488      -18.9573874616  MEMB      80              0.0000000000
     48744      1340  PPPE      HN1            38.2682608751        7.5088437743      -18.2049249418  MEMB      80              0.0000000000
     48745      1340  PPPE      HN2            38.6502852314        8.0439071736      -19.6987551259  MEMB      80              0.0000000000
     48746      1340  PPPE      HN3            38.8752281294        6.4537467143      -19.4339682148  MEMB      80              0.0000000000
     48747      1340  PPPE      C12            40.3969154644        7.7543292517      -18.8420537238  MEMB      80              0.0000000000
     48748      1340  PPPE      H12A           40.4603871709        8.7600995280      -18.3895627648  MEMB      80              0.0000000000
     48749      1340  PPPE      H12B           40.8510323197        7.7985867315      -19.8632464803  MEMB      80              0.0000000000
     48750      1340  PPPE      C11            41.1090545939        6.6950694101      -18.0309069851  MEMB      80              0.0000000000
     48751      1340  PPPE      H11A           40.9359819959        6.8920369249      -16.9545569352  MEMB      80              0.0000000000
     48752      1340  PPPE      H11B           42.1974534668        6.8394667286      -18.2570918002  MEMB      80              0.0000000000
     48753      1340  PPPE      P              41.6142210635        4.4816741669      -19.2151351937  MEMB      80              0.0000000000
     48754      1340  PPPE      O13            41.5776663701        5.0801355513      -20.5661667718  MEMB      80              0.0000000000
     48755      1340  PPPE      O14            42.9107305227        4.4528904397      -18.5341990242  MEMB      80              0.0000000000
     48756      1340  PPPE      O11            40.9355051659        3.0665041482      -19.1342437547  MEMB      80              0.0000000000
     48757      1340  PPPE      O12            40.6304614201        5.3807347849      -18.3427762016  MEMB      80              0.0000000000
     48758      1340  PPPE      C1             39.5738069591        2.8423526484      -19.4500229809  MEMB      80              0.0000000000
     48759      1340  PPPE      HA             39.5254710743        2.0950792853      -20.2484449085  MEMB      80              0.0000000000
     48760      1340  PPPE      HB             39.0496425811        3.7125862228      -19.8892326580  MEMB      80              0.0000000000
     48761      1340  PPPE      C2             38.7811939321        2.3573588305      -18.2438329620  MEMB      80              0.0000000000
     48762      1340  PPPE      HS             37.7691438045        2.0994278216      -18.6286280324  MEMB      80              0.0000000000
     48763      1340  PPPE      O21            38.7365033583        3.4153593810      -17.2746267099  MEMB      80              0.0000000000
     48764      1340  PPPE      C21            37.8858048040        3.2281563605      -16.2987316438  MEMB      80              0.0000000000
     48765      1340  PPPE      O22            37.2077864264        2.2296779539      -16.1253162873  MEMB      80              0.0000000000
     48766      1340  PPPE      C22            37.6666624983        4.5546959352      -15.5923175908  MEMB      80              0.0000000000
     48767      1340  PPPE      H2R            36.8583062251        4.3836822401      -14.8563413002  MEMB      80              0.0000000000
     48768      1340  PPPE      H2S            37.3166696710        5.3162166935      -16.3206523887  MEMB      80              0.0000000000
     48769      1340  PPPE      C3             39.4064596524        1.0780288092      -17.6764108362  MEMB      80              0.0000000000
     48770      1340  PPPE      HX             38.5795862050        0.4678340362      -17.2469094754  MEMB      80              0.0000000000
     48771      1340  PPPE      HY             39.7835934943        0.5226891451      -18.5700193013  MEMB      80              0.0000000000
     48772      1340  PPPE      O31            40.5183838397        1.3128917933      -16.7847392801  MEMB      80              0.0000000000
     48773      1340  PPPE      C31            40.3553278604        1.1756914868      -15.4963732372  MEMB      80              0.0000000000
     48774      1340  PPPE      O32            39.3454433024        0.8371777998      -14.9022762321  MEMB      80              0.0000000000
     48775      1340  PPPE      C32            41.6205486661        1.7179565255      -14.8385212777  MEMB      80              0.0000000000
     48776      1340  PPPE      H2X            41.7802781516        2.7539261962      -15.2051252389  MEMB      80              0.0000000000
     48777      1340  PPPE      H2Y            42.5042406162        1.1257867739      -15.1454030416  MEMB      80              0.0000000000
     48778      1340  PPPE      C23            38.9345806393        5.0158097643      -14.8648520027  MEMB      80              0.0000000000
     48779      1340  PPPE      H3R            39.7050498145        5.2922062236      -15.6215151959  MEMB      80              0.0000000000
     48780      1340  PPPE      H3S            39.3149707404        4.1816672101      -14.2299084529  MEMB      80              0.0000000000
     48781      1340  PPPE      C24            38.6957084338        6.2314314398      -13.9657239703  MEMB      80              0.0000000000
     48782      1340  PPPE      H4R            37.7618993612        6.1172359331      -13.3750595404  MEMB      80              0.0000000000
     48783      1340  PPPE      H4S            38.5155810654        7.0733039995      -14.6589770453  MEMB      80              0.0000000000
     48784      1340  PPPE      C25            39.8900043375        6.5162887436      -13.0363500372  MEMB      80              0.0000000000
     48785      1340  PPPE      H5R            40.5641336709        7.2261127565      -13.5598623083  MEMB      80              0.0000000000
     48786      1340  PPPE      H5S            40.5022605222        5.5986449965      -12.8764225401  MEMB      80              0.0000000000
     48787      1340  PPPE      C26            39.5437787497        7.1320555135      -11.6610530615  MEMB      80              0.0000000000
     48788      1340  PPPE      H6R            39.0190210992        8.1021134105      -11.7912870365  MEMB      80              0.0000000000
     48789      1340  PPPE      H6S            40.5304615634        7.3283532680      -11.1846424035  MEMB      80              0.0000000000
     48790      1340  PPPE      C27            38.7246956202        6.2457486017      -10.7025324993  MEMB      80              0.0000000000
     48791      1340  PPPE      H7R            39.2658313507        5.2820156926      -10.6101061557  MEMB      80              0.0000000000
     48792      1340  PPPE      H7S            37.7194725792        6.0387122493      -11.1447006558  MEMB      80              0.0000000000
     48793      1340  PPPE      C28            38.4637224149        6.8501286624       -9.2918762578  MEMB      80              0.0000000000
     48794      1340  PPPE      H8R            37.8154722026        6.1147694032       -8.7643558369  MEMB      80              0.0000000000
     48795      1340  PPPE      H8S            37.8518640421        7.7684683313       -9.4482671213  MEMB      80              0.0000000000
     48796      1340  PPPE      C29            39.6504769041        7.1734925886       -8.4059048858  MEMB      80              0.0000000000
     48797      1340  PPPE      H91            40.5724905352        6.6091152686       -8.5980117988  MEMB      80              0.0000000000
     48798      1340  PPPE      C210           39.6305522678        7.9514397613       -7.3070145365  MEMB      80              0.0000000000
     48799      1340  PPPE      H101           40.5704289617        8.1001060491       -6.7539378776  MEMB      80              0.0000000000
     48800      1340  PPPE      C211           38.4248999616        8.6528267855       -6.7301310195  MEMB      80              0.0000000000
     48801      1340  PPPE      H11R           37.6946705994        8.9362369394       -7.5226541462  MEMB      80              0.0000000000
     48802      1340  PPPE      H11S           38.7020173484        9.5834323369       -6.1854287386  MEMB      80              0.0000000000
     48803      1340  PPPE      C212           37.7838106563        7.6798410390       -5.7243493545  MEMB      80              0.0000000000
     48804      1340  PPPE      H12R           37.7009282577        6.6738006205       -6.1968955251  MEMB      80              0.0000000000
     48805      1340  PPPE      H12S           36.7511751048        8.0045640203       -5.4734281893  MEMB      80              0.0000000000
     48806      1340  PPPE      C213           38.5602796121        7.5735214899       -4.3983746431  MEMB      80              0.0000000000
     48807      1340  PPPE      H13R           39.6545379516        7.6472477753       -4.5841739603  MEMB      80              0.0000000000
     48808      1340  PPPE      H13S           38.3870724513        6.5561705004       -3.9827842859  MEMB      80              0.0000000000
     48809      1340  PPPE      C214           38.0661893826        8.6358041201       -3.3879581667  MEMB      80              0.0000000000
     48810      1340  PPPE      H14R           36.9537584610        8.6385379671       -3.4160537089  MEMB      80              0.0000000000
     48811      1340  PPPE      H14S           38.4099632091        9.6317590478       -3.7346662048  MEMB      80              0.0000000000
     48812      1340  PPPE      C215           38.5646037959        8.4289018571       -1.9435137692  MEMB      80              0.0000000000
     48813      1340  PPPE      H15R           39.6747598402        8.3861687377       -2.0176337005  MEMB      80              0.0000000000
     48814      1340  PPPE      H15S           38.2114060457        7.4332743760       -1.5902393858  MEMB      80              0.0000000000
     48815      1340  PPPE      C216           38.1992368699        9.5056457838       -0.8940152129  MEMB      80              0.0000000000
     48816      1340  PPPE      H16R           38.7686821276       10.4433677573       -1.0767604812  MEMB      80              0.0000000000
     48817      1340  PPPE      H16S           37.1221740019        9.7662340617       -0.8834904741  MEMB      80              0.0000000000
     48818      1340  PPPE      H16T           38.4381144149        9.1410865693        0.1311608926  MEMB      80              0.0000000000
     48819      1340  PPPE      C33            41.4502718867        1.7352065445      -13.3151611069  MEMB      80              0.0000000000
     48820      1340  PPPE      H3X            41.5253954222        0.6824997017      -12.9540184581  MEMB      80              0.0000000000
     48821      1340  PPPE      H3Y            40.4587611555        2.1382401237      -13.0008948269  MEMB      80              0.0000000000
     48822      1340  PPPE      C34            42.4881624488        2.6374737279      -12.6674513394  MEMB      80              0.0000000000
     48823      1340  PPPE      H4X            42.4462923533        3.6629941722      -13.0951040594  MEMB      80              0.0000000000
     48824      1340  PPPE      H4Y            43.4814839016        2.2210479236      -12.9231817432  MEMB      80              0.0000000000
     48825      1340  PPPE      C35            42.3164137860        2.6913142082      -11.1492744218  MEMB      80              0.0000000000
     48826      1340  PPPE      H5X            42.3780819699        1.6646207708      -10.7215578212  MEMB      80              0.0000000000
     48827      1340  PPPE      H5Y            41.3074902427        3.0788334726      -10.9021675789  MEMB      80              0.0000000000
     48828      1340  PPPE      C36            43.4064367230        3.5191780502      -10.4872808510  MEMB      80              0.0000000000
     48829      1340  PPPE      H6X            43.2647847725        4.5976512762      -10.6953683407  MEMB      80              0.0000000000
     48830      1340  PPPE      H6Y            44.3841892266        3.2330015594      -10.9372410658  MEMB      80              0.0000000000
     48831      1340  PPPE      C37            43.4699555928        3.3082960946       -8.9758837005  MEMB      80              0.0000000000
     48832      1340  PPPE      H7X            44.2915497010        3.9831811188       -8.6416893877  MEMB      80              0.0000000000
     48833      1340  PPPE      H7Y            43.7095956466        2.2293692684       -8.7739974488  MEMB      80              0.0000000000
     48834      1340  PPPE      C38            42.2169939278        3.6099465443       -8.1779431035  MEMB      80              0.0000000000
     48835      1340  PPPE      H8X            41.5094794381        2.7830021229       -8.4079489147  MEMB      80              0.0000000000
     48836      1340  PPPE      H8Y            41.7623361728        4.5717619288       -8.4835989272  MEMB      80              0.0000000000
     48837      1340  PPPE      C39            42.3673856371        3.6437953862       -6.6572948560  MEMB      80              0.0000000000
     48838      1340  PPPE      H9X            42.8423390800        4.5870427567       -6.3111956215  MEMB      80              0.0000000000
     48839      1340  PPPE      H9Y            43.0042752137        2.8106537544       -6.2899747858  MEMB      80              0.0000000000
     48840      1340  PPPE      C310           40.9555552846        3.5310877437       -6.0830570769  MEMB      80              0.0000000000
     48841      1340  PPPE      H10X           40.5111598076        2.5714532026       -6.4231994144  MEMB      80              0.0000000000
     48842      1340  PPPE      H10Y           40.3138706146        4.3523651284       -6.4823029503  MEMB      80              0.0000000000
     48843      1340  PPPE      C311           40.9530744691        3.5918767182       -4.5733229159  MEMB      80              0.0000000000
     48844      1340  PPPE      H11X           41.6926785153        2.8571979044       -4.1892755984  MEMB      80              0.0000000000
     48845      1340  PPPE      H11Y           39.9535740786        3.2695066775       -4.1950319904  MEMB      80              0.0000000000
     48846      1340  PPPE      C312           41.2499975555        5.0227489897       -4.1062502959  MEMB      80              0.0000000000
     48847      1340  PPPE      H12X           40.6405049451        5.7370345398       -4.6991246793  MEMB      80              0.0000000000
     48848      1340  PPPE      H12Y           42.3109208391        5.3074792329       -4.2482047730  MEMB      80              0.0000000000
     48849      1340  PPPE      C313           40.8326937896        5.1849849965       -2.6657734309  MEMB      80              0.0000000000
     48850      1340  PPPE      H13X           39.8063449507        4.7386803406       -2.6485413214  MEMB      80              0.0000000000
     48851      1340  PPPE      H13Y           40.7989830216        6.2405317965       -2.3340526627  MEMB      80              0.0000000000
     48852      1340  PPPE      C314           41.7742409832        4.4655421402       -1.7310608569  MEMB      80              0.0000000000
     48853      1340  PPPE      H14X           42.3455081356        5.1456977657       -1.0727617832  MEMB      80              0.0000000000
     48854      1340  PPPE      H14Y           42.4428909023        3.8035495928       -2.3047536207  MEMB      80              0.0000000000
     48855      1340  PPPE      C315           40.9887131448        3.6726173053       -0.7785704018  MEMB      80              0.0000000000
     48856      1340  PPPE      H15X           41.2983447827        2.9242102031       -0.0691012973  MEMB      80              0.0000000000
     48857      1340  PPPE      H15Y           40.6497964964        2.8222975272       -1.4349930507  MEMB      80              0.0000000000
     48858      1340  PPPE      C316           40.3111675637        4.6203913721        0.2389440197  MEMB      80              0.0000000000
     48859      1340  PPPE      H16X           39.5415699665        4.1716090572        0.8039435480  MEMB      80              0.0000000000
     48860      1340  PPPE      H16Y           40.8043488711        4.8403019548        1.1859884634  MEMB      80              0.0000000000
     48861      1340  PPPE      H16Z           39.5248526102        5.2515331736       -0.1436750129  MEMB      80              0.0000000000
     48862      1341  PPPE      N              33.9301595063       21.6770526109      -20.1735981990  MEMB      81              0.0000000000
     48863      1341  PPPE      HN1            34.6342014591       22.2222702644      -19.6366643937  MEMB      81              0.0000000000
     48864      1341  PPPE      HN2            33.3689258604       22.2752950276      -20.8291340253  MEMB      81              0.0000000000
     48865      1341  PPPE      HN3            33.2915667657       21.2401209015      -19.4828145493  MEMB      81              0.0000000000
     48866      1341  PPPE      C12            34.6458875332       20.6210067359      -20.9678212818  MEMB      81              0.0000000000
     48867      1341  PPPE      H12A           35.5097066889       21.0996330538      -21.4528648425  MEMB      81              0.0000000000
     48868      1341  PPPE      H12B           33.9360950183       20.2467222650      -21.7339093777  MEMB      81              0.0000000000
     48869      1341  PPPE      C11            35.1078064408       19.4727271211      -20.0694951257  MEMB      81              0.0000000000
     48870      1341  PPPE      H11A           35.4240946264       18.6120090834      -20.7103235148  MEMB      81              0.0000000000
     48871      1341  PPPE      H11B           34.2301734125       19.1813818287      -19.4534134493  MEMB      81              0.0000000000
     48872      1341  PPPE      P              36.7879506027       18.8647798824      -18.1468536925  MEMB      81              0.0000000000
     48873      1341  PPPE      O13            36.4109522570       17.4972336639      -18.5300814336  MEMB      81              0.0000000000
     48874      1341  PPPE      O14            38.2069423253       19.1995229409      -17.9579419758  MEMB      81              0.0000000000
     48875      1341  PPPE      O11            35.9616436449       19.2360780583      -16.8644101461  MEMB      81              0.0000000000
     48876      1341  PPPE      O12            36.1793047939       19.8822403080      -19.2319206743  MEMB      81              0.0000000000
     48877      1341  PPPE      C1             35.8151538740       20.6063058325      -16.4846452558  MEMB      81              0.0000000000
     48878      1341  PPPE      HA             35.0199506794       20.6337893880      -15.7073179510  MEMB      81              0.0000000000
     48879      1341  PPPE      HB             35.4911953945       21.2279319063      -17.3418559388  MEMB      81              0.0000000000
     48880      1341  PPPE      C2             37.1085216732       21.2481514893      -15.9052904142  MEMB      81              0.0000000000
     48881      1341  PPPE      HS             37.8314330398       21.3626422877      -16.7509216091  MEMB      81              0.0000000000
     48882      1341  PPPE      O21            37.6037508369       20.3546075069      -14.9161996122  MEMB      81              0.0000000000
     48883      1341  PPPE      C21            38.8327595896       20.5872437002      -14.5996513053  MEMB      81              0.0000000000
     48884      1341  PPPE      O22            39.6408366794       21.2474671185      -15.2447719028  MEMB      81              0.0000000000
     48885      1341  PPPE      C22            38.9921594988       20.0340501113      -13.1930273382  MEMB      81              0.0000000000
     48886      1341  PPPE      H2R            39.3545756656       19.0412456613      -13.0271154218  MEMB      81              0.0000000000
     48887      1341  PPPE      H2S            38.0879281032       19.7087615782      -12.6823009895  MEMB      81              0.0000000000
     48888      1341  PPPE      C3             36.8734361283       22.6590898904      -15.2795338509  MEMB      81              0.0000000000
     48889      1341  PPPE      HX             37.7871154586       23.0779673123      -14.7986994747  MEMB      81              0.0000000000
     48890      1341  PPPE      HY             36.6132395511       23.3530072875      -16.0965851705  MEMB      81              0.0000000000
     48891      1341  PPPE      O31            35.7631322338       22.6581045783      -14.3853947076  MEMB      81              0.0000000000
     48892      1341  PPPE      C31            36.0418680605       22.3718068831      -13.1395552468  MEMB      81              0.0000000000
     48893      1341  PPPE      O32            37.1372337926       22.2105586890      -12.6331701769  MEMB      81              0.0000000000
     48894      1341  PPPE      C32            34.7723624447       22.2014496788      -12.4278232081  MEMB      81              0.0000000000
     48895      1341  PPPE      H2X            33.8811278028       22.5878203337      -12.9737043425  MEMB      81              0.0000000000
     48896      1341  PPPE      H2Y            34.8112649634       22.7102877042      -11.4385328412  MEMB      81              0.0000000000
     48897      1341  PPPE      C23            40.1386656440       20.7126589401      -12.5758342848  MEMB      81              0.0000000000
     48898      1341  PPPE      H3R            39.8773969936       21.7554808042      -12.3836406904  MEMB      81              0.0000000000
     48899      1341  PPPE      H3S            41.0928885613       20.7474447231      -13.2119957758  MEMB      81              0.0000000000
     48900      1341  PPPE      C24            40.4200903366       19.9082573673      -11.3536336630  MEMB      81              0.0000000000
     48901      1341  PPPE      H4R            41.3023000341       20.4820642435      -11.4495160259  MEMB      81              0.0000000000
     48902      1341  PPPE      H4S            40.8429670717       18.8708590090      -11.4352021260  MEMB      81              0.0000000000
     48903      1341  PPPE      C25            39.6035885820       20.1817969180      -10.0809655453  MEMB      81              0.0000000000
     48904      1341  PPPE      H5R            40.0501955448       19.9083953161       -9.0934722101  MEMB      81              0.0000000000
     48905      1341  PPPE      H5S            38.5948979952       19.9266092961      -10.4441046775  MEMB      81              0.0000000000
     48906      1341  PPPE      C26            39.1260800563       21.4881618169       -9.4802136453  MEMB      81              0.0000000000
     48907      1341  PPPE      H6R            38.6630265597       22.0496449556      -10.3152911468  MEMB      81              0.0000000000
     48908      1341  PPPE      H6S            39.9197056498       22.1130690510       -9.0466192447  MEMB      81              0.0000000000
     48909      1341  PPPE      C27            38.2276114748       21.1259497844       -8.2499797995  MEMB      81              0.0000000000
     48910      1341  PPPE      H7R            37.3162694072       20.5804258460       -8.5844902176  MEMB      81              0.0000000000
     48911      1341  PPPE      H7S            37.9985886895       22.1081502673       -7.8084053336  MEMB      81              0.0000000000
     48912      1341  PPPE      C28            38.7029501065       20.2088581525       -7.0716112212  MEMB      81              0.0000000000
     48913      1341  PPPE      H8R            38.9851310308       19.2041304878       -7.4978276953  MEMB      81              0.0000000000
     48914      1341  PPPE      H8S            37.8506260340       20.0783780631       -6.3960946726  MEMB      81              0.0000000000
     48915      1341  PPPE      C29            39.7877341046       20.6613355641       -6.1634799687  MEMB      81              0.0000000000
     48916      1341  PPPE      H91            40.6548405206       20.2272285013       -6.4946402273  MEMB      81              0.0000000000
     48917      1341  PPPE      C210           40.0344902535       21.3391040916       -5.0598148681  MEMB      81              0.0000000000
     48918      1341  PPPE      H101           41.0634420563       21.4568510287       -4.6986055355  MEMB      81              0.0000000000
     48919      1341  PPPE      C211           39.0828444077       22.0018135440       -4.2116501877  MEMB      81              0.0000000000
     48920      1341  PPPE      H11R           38.0915529726       21.8488408378       -4.6722928765  MEMB      81              0.0000000000
     48921      1341  PPPE      H11S           39.3581557250       23.0676443117       -4.2373469473  MEMB      81              0.0000000000
     48922      1341  PPPE      C212           39.2490932317       21.4997750085       -2.7842227174  MEMB      81              0.0000000000
     48923      1341  PPPE      H12R           40.2873301188       21.6203197812       -2.3884612187  MEMB      81              0.0000000000
     48924      1341  PPPE      H12S           39.0159241623       20.4158762226       -2.7166715020  MEMB      81              0.0000000000
     48925      1341  PPPE      C213           38.3263391724       22.3063076240       -1.9048860325  MEMB      81              0.0000000000
     48926      1341  PPPE      H13R           37.2928019843       22.2415181300       -2.3217988624  MEMB      81              0.0000000000
     48927      1341  PPPE      H13S           38.5829669107       23.3939628717       -1.9510123740  MEMB      81              0.0000000000
     48928      1341  PPPE      C214           38.4101616996       21.8364615760       -0.4570742648  MEMB      81              0.0000000000
     48929      1341  PPPE      H14R           39.4203774256       21.6330760741       -0.0953122171  MEMB      81              0.0000000000
     48930      1341  PPPE      H14S           37.7089852261       20.9867084909       -0.2352982557  MEMB      81              0.0000000000
     48931      1341  PPPE      C215           38.0423588735       22.9260438016        0.4266970178  MEMB      81              0.0000000000
     48932      1341  PPPE      H15R           38.4509837933       23.9344980082        0.2223311558  MEMB      81              0.0000000000
     48933      1341  PPPE      H15S           38.1934415747       22.9095572376        1.4642889765  MEMB      81              0.0000000000
     48934      1341  PPPE      C216           36.6372531365       22.7880441283        0.4046473291  MEMB      81              0.0000000000
     48935      1341  PPPE      H16R           36.0057827310       22.1030058579        0.9617334355  MEMB      81              0.0000000000
     48936      1341  PPPE      H16S           36.5336067435       23.8299852611        0.8297762718  MEMB      81              0.0000000000
     48937      1341  PPPE      H16T           36.2345236704       22.6553283883       -0.6332469669  MEMB      81              0.0000000000
     48938      1341  PPPE      C33            34.7785167383       20.7125542458      -12.3246264259  MEMB      81              0.0000000000
     48939      1341  PPPE      H3X            35.6545576260       20.0722098454      -12.0627877385  MEMB      81              0.0000000000
     48940      1341  PPPE      H3Y            34.1664468799       20.2422690201      -13.1694413320  MEMB      81              0.0000000000
     48941      1341  PPPE      C34            34.1796964889       20.5187978525      -11.0319505745  MEMB      81              0.0000000000
     48942      1341  PPPE      H4X            33.9360532072       19.5052110055      -11.4908558337  MEMB      81              0.0000000000
     48943      1341  PPPE      H4Y            33.3453870697       21.2564875712      -10.8738142743  MEMB      81              0.0000000000
     48944      1341  PPPE      C35            34.7700582246       20.2708661635       -9.6620017588  MEMB      81              0.0000000000
     48945      1341  PPPE      H5X            35.3928403992       19.3816972527       -9.6096843689  MEMB      81              0.0000000000
     48946      1341  PPPE      H5Y            34.1406227483       19.7926428451       -8.8938151546  MEMB      81              0.0000000000
     48947      1341  PPPE      C36            34.5092454173       21.4751817399       -8.8017330432  MEMB      81              0.0000000000
     48948      1341  PPPE      H6X            33.4596695993       21.8873113478       -8.8953996564  MEMB      81              0.0000000000
     48949      1341  PPPE      H6Y            35.2308618801       22.0314179539       -9.4218612096  MEMB      81              0.0000000000
     48950      1341  PPPE      C37            34.8121310425       21.0331872351       -7.3698417031  MEMB      81              0.0000000000
     48951      1341  PPPE      H7X            35.4848050280       21.7707464341       -6.9366499692  MEMB      81              0.0000000000
     48952      1341  PPPE      H7Y            35.4027684396       20.0847009934       -7.4699122029  MEMB      81              0.0000000000
     48953      1341  PPPE      C38            33.5949310339       20.7864659329       -6.4412801498  MEMB      81              0.0000000000
     48954      1341  PPPE      H8X            33.0682451426       19.8945121785       -6.7959111377  MEMB      81              0.0000000000
     48955      1341  PPPE      H8Y            32.8675016772       21.5948276946       -6.6301903281  MEMB      81              0.0000000000
     48956      1341  PPPE      C39            34.0757997625       20.6269256307       -4.9802379920  MEMB      81              0.0000000000
     48957      1341  PPPE      H9X            33.4109463103       20.3699131148       -4.1207409349  MEMB      81              0.0000000000
     48958      1341  PPPE      H9Y            34.5183048857       21.5903740139       -4.6964022311  MEMB      81              0.0000000000
     48959      1341  PPPE      C310           35.0230940666       19.4507963384       -4.8714480460  MEMB      81              0.0000000000
     48960      1341  PPPE      H10X           35.8568381748       19.4037374904       -5.5887372934  MEMB      81              0.0000000000
     48961      1341  PPPE      H10Y           34.3378730528       18.6911175701       -5.1743718542  MEMB      81              0.0000000000
     48962      1341  PPPE      C311           35.2764167873       19.0597326524       -3.4377289063  MEMB      81              0.0000000000
     48963      1341  PPPE      H11X           34.3041250481       18.7210810361       -2.9609859164  MEMB      81              0.0000000000
     48964      1341  PPPE      H11Y           35.7781483228       19.8618476396       -2.9012214197  MEMB      81              0.0000000000
     48965      1341  PPPE      C312           36.2100120971       17.9435480975       -3.2058029161  MEMB      81              0.0000000000
     48966      1341  PPPE      H12X           37.0558761374       17.7665729836       -3.9174312482  MEMB      81              0.0000000000
     48967      1341  PPPE      H12Y           35.4160945391       17.1884492192       -3.2621547950  MEMB      81              0.0000000000
     48968      1341  PPPE      C313           36.5035125359       17.6787733832       -1.7695503994  MEMB      81              0.0000000000
     48969      1341  PPPE      H13X           36.4618983760       16.6305958302       -1.5313473511  MEMB      81              0.0000000000
     48970      1341  PPPE      H13Y           35.6667656205       18.0259567152       -1.1415178280  MEMB      81              0.0000000000
     48971      1341  PPPE      C314           37.9491832468       17.9490102277       -1.5279631163  MEMB      81              0.0000000000
     48972      1341  PPPE      H14X           38.0432116467       19.0490852216       -1.5357052926  MEMB      81              0.0000000000
     48973      1341  PPPE      H14Y           38.5944336900       17.4042248266       -2.2428804157  MEMB      81              0.0000000000
     48974      1341  PPPE      C315           38.3495072167       17.4729780994       -0.2030867214  MEMB      81              0.0000000000
     48975      1341  PPPE      H15X           38.1165968114       16.3867483736       -0.0036052905  MEMB      81              0.0000000000
     48976      1341  PPPE      H15Y           37.6772920627       18.2068515161        0.2933376354  MEMB      81              0.0000000000
     48977      1341  PPPE      C316           39.6771733997       17.8588350458        0.3584108084  MEMB      81              0.0000000000
     48978      1341  PPPE      H16X           40.4278433320       17.2584603763       -0.1888440173  MEMB      81              0.0000000000
     48979      1341  PPPE      H16Y           39.8214587476       18.9503304912        0.3063870958  MEMB      81              0.0000000000
     48980      1341  PPPE      H16Z           39.6851335306       17.6572548961        1.4524104728  MEMB      81              0.0000000000
     48981      1342  PPPE      N              21.1034768057      -36.7692180768      -21.1748452532  MEMB      82              0.0000000000
     48982      1342  PPPE      HN1            21.6506228219      -35.8946581084      -21.3414156905  MEMB      82              0.0000000000
     48983      1342  PPPE      HN2            21.2712022980      -37.0762945435      -20.1933281138  MEMB      82              0.0000000000
     48984      1342  PPPE      HN3            21.3565815260      -37.5138905897      -21.8568919021  MEMB      82              0.0000000000
     48985      1342  PPPE      C12            19.6554213003      -36.4114774136      -21.3336082457  MEMB      82              0.0000000000
     48986      1342  PPPE      H12A           19.0482538815      -37.3345611660      -21.3166658148  MEMB      82              0.0000000000
     48987      1342  PPPE      H12B           19.5926065126      -35.9465761983      -22.3306521168  MEMB      82              0.0000000000
     48988      1342  PPPE      C11            19.1850822003      -35.4454932302      -20.2404126910  MEMB      82              0.0000000000
     48989      1342  PPPE      H11A           18.1231949013      -35.1566619466      -20.4041072353  MEMB      82              0.0000000000
     48990      1342  PPPE      H11B           19.7757689419      -34.5000045878      -20.3202418791  MEMB      82              0.0000000000
     48991      1342  PPPE      P              19.7239641414      -35.1413786226      -17.7427906656  MEMB      82              0.0000000000
     48992      1342  PPPE      O13            19.8335857760      -36.0200944231      -16.5670031065  MEMB      82              0.0000000000
     48993      1342  PPPE      O14            20.9200882322      -34.4044569762      -18.1988528800  MEMB      82              0.0000000000
     48994      1342  PPPE      O11            18.4550594449      -34.1824944357      -17.6893072742  MEMB      82              0.0000000000
     48995      1342  PPPE      O12            19.3182783326      -36.0742666480      -18.9682143110  MEMB      82              0.0000000000
     48996      1342  PPPE      C1             17.1278679195      -34.6972300794      -17.5903870577  MEMB      82              0.0000000000
     48997      1342  PPPE      HA             17.1147687271      -35.7944196960      -17.4120950014  MEMB      82              0.0000000000
     48998      1342  PPPE      HB             16.5982639862      -34.5407105716      -18.5418926043  MEMB      82              0.0000000000
     48999      1342  PPPE      C2             16.3007370970      -34.0263782974      -16.4670324534  MEMB      82              0.0000000000
     49000      1342  PPPE      HS             15.8352606561      -33.1210176110      -16.8723824648  MEMB      82              0.0000000000
     49001      1342  PPPE      O21            17.1377924972      -33.7534299118      -15.3533997818  MEMB      82              0.0000000000
     49002      1342  PPPE      C21            17.7547799705      -32.6116519647      -15.4928896632  MEMB      82              0.0000000000
     49003      1342  PPPE      O22            17.4351114161      -31.7326166186      -16.2868437392  MEMB      82              0.0000000000
     49004      1342  PPPE      C22            18.4778455477      -32.4370921070      -14.1675718698  MEMB      82              0.0000000000
     49005      1342  PPPE      H2R            17.6697435654      -32.7523839744      -13.4446727123  MEMB      82              0.0000000000
     49006      1342  PPPE      H2S            18.8739874806      -31.4291187986      -14.0913194655  MEMB      82              0.0000000000
     49007      1342  PPPE      C3             15.1388394829      -34.9231554799      -16.0346291687  MEMB      82              0.0000000000
     49008      1342  PPPE      HX             14.5778462649      -35.1787962454      -16.9721542342  MEMB      82              0.0000000000
     49009      1342  PPPE      HY             15.6766566024      -35.8210431482      -15.6660087523  MEMB      82              0.0000000000
     49010      1342  PPPE      O31            14.2431626355      -34.3023873792      -15.0770721869  MEMB      82              0.0000000000
     49011      1342  PPPE      C31            14.2938012542      -34.5849992336      -13.7849565632  MEMB      82              0.0000000000
     49012      1342  PPPE      O32            14.9889425913      -35.4121825893      -13.2327172846  MEMB      82              0.0000000000
     49013      1342  PPPE      C32            13.2371126480      -33.7590597923      -13.0540827628  MEMB      82              0.0000000000
     49014      1342  PPPE      H2X            12.3061808624      -34.1228191440      -13.3262113488  MEMB      82              0.0000000000
     49015      1342  PPPE      H2Y            12.9725465443      -32.7773951937      -13.4436529844  MEMB      82              0.0000000000
     49016      1342  PPPE      C23            19.2715657180      -33.3515233200      -13.3085415993  MEMB      82              0.0000000000
     49017      1342  PPPE      H3R            20.2254175190      -33.0272579327      -13.7538051889  MEMB      82              0.0000000000
     49018      1342  PPPE      H3S            18.7908056865      -34.3264560203      -13.5517815717  MEMB      82              0.0000000000
     49019      1342  PPPE      C24            19.2536139823      -33.1600309100      -11.7729618981  MEMB      82              0.0000000000
     49020      1342  PPPE      H4R            18.2581654427      -33.3513788329      -11.2897919603  MEMB      82              0.0000000000
     49021      1342  PPPE      H4S            19.6906702694      -32.1919250224      -11.4210000846  MEMB      82              0.0000000000
     49022      1342  PPPE      C25            20.1686918483      -34.1707310111      -11.2270314864  MEMB      82              0.0000000000
     49023      1342  PPPE      H5R            21.1643929563      -33.8538074374      -11.6150454371  MEMB      82              0.0000000000
     49024      1342  PPPE      H5S            19.8183883106      -35.1086851798      -11.7133190489  MEMB      82              0.0000000000
     49025      1342  PPPE      C26            20.1025969372      -34.3475920825       -9.7158687702  MEMB      82              0.0000000000
     49026      1342  PPPE      H6R            20.8857715910      -35.1122450800       -9.5503613197  MEMB      82              0.0000000000
     49027      1342  PPPE      H6S            19.1014955026      -34.6718820754       -9.3848795062  MEMB      82              0.0000000000
     49028      1342  PPPE      C27            20.4372979005      -33.1339817317       -8.8798794899  MEMB      82              0.0000000000
     49029      1342  PPPE      H7R            19.9551902883      -32.2516016691       -9.2735582557  MEMB      82              0.0000000000
     49030      1342  PPPE      H7S            21.3683437565      -32.8576633587       -9.3247042215  MEMB      82              0.0000000000
     49031      1342  PPPE      C28            20.5130460019      -33.2747292209       -7.3117508874  MEMB      82              0.0000000000
     49032      1342  PPPE      H8R            19.6311983846      -33.0535879225       -6.7537987940  MEMB      82              0.0000000000
     49033      1342  PPPE      H8S            21.1458408878      -32.4620196870       -6.8907735219  MEMB      82              0.0000000000
     49034      1342  PPPE      C29            20.8302168935      -34.6040543705       -6.7571497609  MEMB      82              0.0000000000
     49035      1342  PPPE      H91            21.7959355111      -34.9390877688       -7.1391856226  MEMB      82              0.0000000000
     49036      1342  PPPE      C210           20.1576233259      -35.2700300983       -5.7864964774  MEMB      82              0.0000000000
     49037      1342  PPPE      H101           20.4916127545      -36.2856389399       -5.5688456572  MEMB      82              0.0000000000
     49038      1342  PPPE      C211           18.9185415887      -34.8359900294       -5.0139776744  MEMB      82              0.0000000000
     49039      1342  PPPE      H11R           18.0074316088      -35.3244849944       -5.4208812229  MEMB      82              0.0000000000
     49040      1342  PPPE      H11S           18.7351569745      -33.7454962084       -5.1447287499  MEMB      82              0.0000000000
     49041      1342  PPPE      C212           19.0008793651      -35.0247618365       -3.4681435870  MEMB      82              0.0000000000
     49042      1342  PPPE      H12R           18.1167895256      -34.5294592528       -3.0067402142  MEMB      82              0.0000000000
     49043      1342  PPPE      H12S           19.8901612234      -34.4784679840       -3.0824834125  MEMB      82              0.0000000000
     49044      1342  PPPE      C213           19.0495445907      -36.4634208163       -2.9074422223  MEMB      82              0.0000000000
     49045      1342  PPPE      H13R           19.8869282212      -37.0022335801       -3.3995781894  MEMB      82              0.0000000000
     49046      1342  PPPE      H13S           18.1097100834      -37.0040873658       -3.1581152993  MEMB      82              0.0000000000
     49047      1342  PPPE      C214           19.1987020967      -36.4697180311       -1.3631537381  MEMB      82              0.0000000000
     49048      1342  PPPE      H14R           20.2264057870      -36.0987024942       -1.1314675183  MEMB      82              0.0000000000
     49049      1342  PPPE      H14S           19.1334633141      -37.5049991135       -0.9540607126  MEMB      82              0.0000000000
     49050      1342  PPPE      C215           18.1366337230      -35.5463696279       -0.6871936175  MEMB      82              0.0000000000
     49051      1342  PPPE      H15R           17.1377153799      -35.7609230878       -1.0929366366  MEMB      82              0.0000000000
     49052      1342  PPPE      H15S           18.4774167267      -34.4931338855       -0.8204167744  MEMB      82              0.0000000000
     49053      1342  PPPE      C216           17.9026676866      -35.6645461398        0.7852494265  MEMB      82              0.0000000000
     49054      1342  PPPE      H16R           17.3037092144      -36.5105510198        1.1607743170  MEMB      82              0.0000000000
     49055      1342  PPPE      H16S           18.8971324619      -35.9469316770        0.9647016770  MEMB      82              0.0000000000
     49056      1342  PPPE      H16T           17.7657515346      -34.7592813824        1.4046860832  MEMB      82              0.0000000000
     49057      1342  PPPE      C33            13.1981796071      -33.9956216857      -11.5515301558  MEMB      82              0.0000000000
     49058      1342  PPPE      H3X            13.4941787115      -35.0268422725      -11.2427855661  MEMB      82              0.0000000000
     49059      1342  PPPE      H3Y            12.1576164266      -33.8289362329      -11.1717432691  MEMB      82              0.0000000000
     49060      1342  PPPE      C34            14.1507038799      -32.9974351671      -10.9812875080  MEMB      82              0.0000000000
     49061      1342  PPPE      H4X            13.8271558470      -31.9887471098      -11.3148479214  MEMB      82              0.0000000000
     49062      1342  PPPE      H4Y            15.1713937566      -33.1450574992      -11.3885154303  MEMB      82              0.0000000000
     49063      1342  PPPE      C35            14.1265357891      -33.0866689229       -9.4775009822  MEMB      82              0.0000000000
     49064      1342  PPPE      H5X            13.0592684279      -33.1420771979       -9.1531871930  MEMB      82              0.0000000000
     49065      1342  PPPE      H5Y            14.5430345727      -32.1242235669       -9.1213984361  MEMB      82              0.0000000000
     49066      1342  PPPE      C36            14.8348230434      -34.3210364129       -8.9017512143  MEMB      82              0.0000000000
     49067      1342  PPPE      H6X            14.9615440021      -35.1517139981       -9.6309078781  MEMB      82              0.0000000000
     49068      1342  PPPE      H6Y            14.1687195767      -34.7166082226       -8.1056101785  MEMB      82              0.0000000000
     49069      1342  PPPE      C37            16.2006432143      -34.0517382400       -8.2893182691  MEMB      82              0.0000000000
     49070      1342  PPPE      H7X            16.9628436635      -33.9222042452       -9.0986003346  MEMB      82              0.0000000000
     49071      1342  PPPE      H7Y            16.5266327898      -34.9594687378       -7.7425894955  MEMB      82              0.0000000000
     49072      1342  PPPE      C38            16.2577709016      -32.9282924349       -7.2491538825  MEMB      82              0.0000000000
     49073      1342  PPPE      H8X            16.3964865531      -31.9647880489       -7.7284282455  MEMB      82              0.0000000000
     49074      1342  PPPE      H8Y            17.1327030321      -33.1818649599       -6.6139067493  MEMB      82              0.0000000000
     49075      1342  PPPE      C39            15.1521305889      -32.5577415532       -6.2819373493  MEMB      82              0.0000000000
     49076      1342  PPPE      H9X            14.1536725484      -32.7073454931       -6.7240166351  MEMB      82              0.0000000000
     49077      1342  PPPE      H9Y            15.2457518074      -31.4575168203       -6.0739527136  MEMB      82              0.0000000000
     49078      1342  PPPE      C310           15.3933194642      -33.2329493885       -4.9457799547  MEMB      82              0.0000000000
     49079      1342  PPPE      H10X           14.6518806380      -32.8366820969       -4.2220171862  MEMB      82              0.0000000000
     49080      1342  PPPE      H10Y           16.3991405101      -32.9955740840       -4.5407894571  MEMB      82              0.0000000000
     49081      1342  PPPE      C311           15.3838456001      -34.7395598183       -5.0144395896  MEMB      82              0.0000000000
     49082      1342  PPPE      H11X           15.8559122450      -35.1191887270       -4.0915209785  MEMB      82              0.0000000000
     49083      1342  PPPE      H11Y           15.9214657451      -35.2209429940       -5.8467566008  MEMB      82              0.0000000000
     49084      1342  PPPE      C312           14.0000439538      -35.2238695357       -4.9988522854  MEMB      82              0.0000000000
     49085      1342  PPPE      H12X           14.1330097162      -36.3146180258       -5.2013467089  MEMB      82              0.0000000000
     49086      1342  PPPE      H12Y           13.3501256897      -34.8059123023       -5.8087748078  MEMB      82              0.0000000000
     49087      1342  PPPE      C313           13.4461732476      -35.0318591693       -3.5575834779  MEMB      82              0.0000000000
     49088      1342  PPPE      H13X           12.3629082239      -35.1628133289       -3.7329955882  MEMB      82              0.0000000000
     49089      1342  PPPE      H13Y           13.1061280292      -34.0381872341       -3.2977605160  MEMB      82              0.0000000000
     49090      1342  PPPE      C314           14.2351205324      -35.9303205999       -2.4582415261  MEMB      82              0.0000000000
     49091      1342  PPPE      H14X           15.2299989355      -35.5104238019       -2.3787843553  MEMB      82              0.0000000000
     49092      1342  PPPE      H14Y           14.2320471965      -37.0511504719       -2.6170612041  MEMB      82              0.0000000000
     49093      1342  PPPE      C315           14.1252518217      -35.7664627298       -0.8981427519  MEMB      82              0.0000000000
     49094      1342  PPPE      H15X           14.0131360674      -36.6578232392       -0.2263501525  MEMB      82              0.0000000000
     49095      1342  PPPE      H15Y           13.1518202938      -35.3779628894       -0.7968411782  MEMB      82              0.0000000000
     49096      1342  PPPE      C316           14.3566243633      -34.4644718100       -0.2592941178  MEMB      82              0.0000000000
     49097      1342  PPPE      H16X           13.9478339540      -33.6915080253       -0.9744489793  MEMB      82              0.0000000000
     49098      1342  PPPE      H16Y           13.7700712728      -34.4622224515        0.7156488412  MEMB      82              0.0000000000
     49099      1342  PPPE      H16Z           15.4219077366      -34.4257793288       -0.1912410990  MEMB      82              0.0000000000
     49100      1343  PPPE      N              33.7433579527      -19.1520308788      -21.4522355680  MEMB      83              0.0000000000
     49101      1343  PPPE      HN1            33.9188220733      -19.3328551753      -22.4737601358  MEMB      83              0.0000000000
     49102      1343  PPPE      HN2            33.0082161555      -19.8048593037      -21.1058393279  MEMB      83              0.0000000000
     49103      1343  PPPE      HN3            33.4708287325      -18.1592339565      -21.2916030810  MEMB      83              0.0000000000
     49104      1343  PPPE      C12            34.9730975415      -19.4436822596      -20.6128399584  MEMB      83              0.0000000000
     49105      1343  PPPE      H12A           35.8014970152      -18.7666447374      -20.9095508708  MEMB      83              0.0000000000
     49106      1343  PPPE      H12B           35.2891247737      -20.4826043974      -20.8387879574  MEMB      83              0.0000000000
     49107      1343  PPPE      C11            34.7046670920      -19.3807221865      -19.0961352043  MEMB      83              0.0000000000
     49108      1343  PPPE      H11A           34.0502996622      -20.2280795740      -18.7827803830  MEMB      83              0.0000000000
     49109      1343  PPPE      H11B           34.2027231496      -18.4497824247      -18.7524290251  MEMB      83              0.0000000000
     49110      1343  PPPE      P              36.6870991669      -20.8354582180      -18.2068440060  MEMB      83              0.0000000000
     49111      1343  PPPE      O13            35.7495517449      -21.9288888911      -18.5158177104  MEMB      83              0.0000000000
     49112      1343  PPPE      O14            37.9623223394      -20.8082013072      -18.9723208388  MEMB      83              0.0000000000
     49113      1343  PPPE      O11            36.9303491452      -20.7973008293      -16.6494372851  MEMB      83              0.0000000000
     49114      1343  PPPE      O12            35.9509082076      -19.4516464288      -18.4273523079  MEMB      83              0.0000000000
     49115      1343  PPPE      C1             38.0733915052      -21.4649521763      -16.1240676692  MEMB      83              0.0000000000
     49116      1343  PPPE      HA             38.9290023107      -20.8219503825      -16.3652529131  MEMB      83              0.0000000000
     49117      1343  PPPE      HB             38.2574410977      -22.4258692287      -16.6325542762  MEMB      83              0.0000000000
     49118      1343  PPPE      C2             37.9682873205      -21.7474316848      -14.5849405159  MEMB      83              0.0000000000
     49119      1343  PPPE      HS             37.3138313599      -22.6091181259      -14.4061990808  MEMB      83              0.0000000000
     49120      1343  PPPE      O21            37.3761149292      -20.5701065043      -13.9888148903  MEMB      83              0.0000000000
     49121      1343  PPPE      C21            36.4525275965      -20.5903932385      -13.0878835392  MEMB      83              0.0000000000
     49122      1343  PPPE      O22            35.9920607609      -21.6004433960      -12.5871225174  MEMB      83              0.0000000000
     49123      1343  PPPE      C22            35.9604894842      -19.1395832591      -12.7477392989  MEMB      83              0.0000000000
     49124      1343  PPPE      H2R            35.1194321402      -19.2531462858      -12.0408806860  MEMB      83              0.0000000000
     49125      1343  PPPE      H2S            35.7180216784      -18.5803376413      -13.6668550122  MEMB      83              0.0000000000
     49126      1343  PPPE      C3             39.3983976243      -22.1055130544      -13.9566244956  MEMB      83              0.0000000000
     49127      1343  PPPE      HX             39.7515826146      -23.0514468005      -14.4186584321  MEMB      83              0.0000000000
     49128      1343  PPPE      HY             40.2367077193      -21.4110174061      -14.1869105451  MEMB      83              0.0000000000
     49129      1343  PPPE      O31            39.3661564887      -22.1498691864      -12.5198123019  MEMB      83              0.0000000000
     49130      1343  PPPE      C31            38.7110462590      -23.1983606510      -12.0605051452  MEMB      83              0.0000000000
     49131      1343  PPPE      O32            38.2383463864      -24.0969989147      -12.7363998105  MEMB      83              0.0000000000
     49132      1343  PPPE      C32            38.7510266880      -23.2071351243      -10.5431776813  MEMB      83              0.0000000000
     49133      1343  PPPE      H2X            39.3427167001      -22.3493112866      -10.1664805171  MEMB      83              0.0000000000
     49134      1343  PPPE      H2Y            39.2476156589      -24.1456689124      -10.2472886779  MEMB      83              0.0000000000
     49135      1343  PPPE      C23            36.7589512437      -18.2843517244      -11.7926662749  MEMB      83              0.0000000000
     49136      1343  PPPE      H3R            36.4332665688      -17.2608629965      -11.5521005995  MEMB      83              0.0000000000
     49137      1343  PPPE      H3S            37.4949183744      -17.6454509632      -12.2085614482  MEMB      83              0.0000000000
     49138      1343  PPPE      C24            37.3597890204      -19.1436496599      -10.7267462473  MEMB      83              0.0000000000
     49139      1343  PPPE      H4R            37.6581932500      -18.2556879750      -10.1961317914  MEMB      83              0.0000000000
     49140      1343  PPPE      H4S            38.2211880534      -19.8428946671      -10.8394677295  MEMB      83              0.0000000000
     49141      1343  PPPE      C25            36.6134460185      -19.4152693326       -9.4987403997  MEMB      83              0.0000000000
     49142      1343  PPPE      H5R            36.2179695111      -20.3546737295       -9.8938190106  MEMB      83              0.0000000000
     49143      1343  PPPE      H5S            35.9513792543      -18.5126802093       -9.4481149104  MEMB      83              0.0000000000
     49144      1343  PPPE      C26            37.4797496668      -19.5779600107       -8.2554023105  MEMB      83              0.0000000000
     49145      1343  PPPE      H6R            38.1245389860      -18.7121523441       -8.0062708422  MEMB      83              0.0000000000
     49146      1343  PPPE      H6S            38.1765060217      -20.4451177273       -8.3077162942  MEMB      83              0.0000000000
     49147      1343  PPPE      C27            36.7714472982      -19.3115782001       -7.0008020288  MEMB      83              0.0000000000
     49148      1343  PPPE      H7R            36.0143892013      -20.0909462233       -7.0049047881  MEMB      83              0.0000000000
     49149      1343  PPPE      H7S            36.3270369738      -18.2869783738       -7.1272187557  MEMB      83              0.0000000000
     49150      1343  PPPE      C28            37.8644015327      -19.3419665691       -5.9454102338  MEMB      83              0.0000000000
     49151      1343  PPPE      H8R            38.4259706728      -18.3770219868       -5.9534229063  MEMB      83              0.0000000000
     49152      1343  PPPE      H8S            38.5668999500      -20.1705962325       -6.0643064761  MEMB      83              0.0000000000
     49153      1343  PPPE      C29            37.2593166585      -19.4778584884       -4.6591747045  MEMB      83              0.0000000000
     49154      1343  PPPE      H91            37.1602270158      -18.4666054719       -4.3190831487  MEMB      83              0.0000000000
     49155      1343  PPPE      C210           37.0530791179      -20.5309462143       -3.8856171007  MEMB      83              0.0000000000
     49156      1343  PPPE      H101           36.5115345218      -20.4067538600       -2.9437403915  MEMB      83              0.0000000000
     49157      1343  PPPE      C211           37.4491877126      -21.9097933134       -4.2215862984  MEMB      83              0.0000000000
     49158      1343  PPPE      H11R           38.2990016751      -21.9240169001       -4.9284178167  MEMB      83              0.0000000000
     49159      1343  PPPE      H11S           36.6298666368      -22.4701054346       -4.7261859476  MEMB      83              0.0000000000
     49160      1343  PPPE      C212           37.9930671278      -22.6202600228       -2.9751500470  MEMB      83              0.0000000000
     49161      1343  PPPE      H12R           38.8973263720      -22.1771496944       -2.5649140064  MEMB      83              0.0000000000
     49162      1343  PPPE      H12S           38.1002609927      -23.6474425273       -3.3825804512  MEMB      83              0.0000000000
     49163      1343  PPPE      C213           37.1929467412      -22.7485912729       -1.7157494749  MEMB      83              0.0000000000
     49164      1343  PPPE      H13R           36.8768319150      -21.7067012434       -1.4011242731  MEMB      83              0.0000000000
     49165      1343  PPPE      H13S           37.5105670478      -23.2256257260       -0.7869694258  MEMB      83              0.0000000000
     49166      1343  PPPE      C214           36.1168836109      -23.6491258427       -2.1494359111  MEMB      83              0.0000000000
     49167      1343  PPPE      H14R           36.0643471208      -23.4821641275       -3.2208700610  MEMB      83              0.0000000000
     49168      1343  PPPE      H14S           35.5752571329      -22.9884697919       -1.4991478306  MEMB      83              0.0000000000
     49169      1343  PPPE      C215           35.5538426709      -25.0078952207       -2.4842442668  MEMB      83              0.0000000000
     49170      1343  PPPE      H15R           35.8800734246      -25.4716360177       -3.3999103136  MEMB      83              0.0000000000
     49171      1343  PPPE      H15S           34.4241145894      -25.1770552559       -2.5786042966  MEMB      83              0.0000000000
     49172      1343  PPPE      C216           35.9424842127      -25.5669720560       -1.3206358413  MEMB      83              0.0000000000
     49173      1343  PPPE      H16R           35.7875954182      -26.6549191658       -1.4049053689  MEMB      83              0.0000000000
     49174      1343  PPPE      H16S           36.8379534548      -25.6264498610       -1.0004142181  MEMB      83              0.0000000000
     49175      1343  PPPE      H16T           35.6028864752      -24.9726025357       -0.4211346514  MEMB      83              0.0000000000
     49176      1343  PPPE      C33            37.3282076590      -23.2559064646       -9.9808620760  MEMB      83              0.0000000000
     49177      1343  PPPE      H3X            36.7661457645      -24.0823715004      -10.4761622966  MEMB      83              0.0000000000
     49178      1343  PPPE      H3Y            36.8084817734      -22.3160448410      -10.2692593076  MEMB      83              0.0000000000
     49179      1343  PPPE      C34            37.3068329996      -23.4399813552       -8.4547866726  MEMB      83              0.0000000000
     49180      1343  PPPE      H4X            37.0323595425      -22.4574997334       -8.0234603300  MEMB      83              0.0000000000
     49181      1343  PPPE      H4Y            38.2577147814      -23.8043583848       -8.0528094312  MEMB      83              0.0000000000
     49182      1343  PPPE      C35            36.2618341776      -24.3657782756       -7.9372598940  MEMB      83              0.0000000000
     49183      1343  PPPE      H5X            36.1827090316      -24.4690524264       -6.8244459615  MEMB      83              0.0000000000
     49184      1343  PPPE      H5Y            36.3787752916      -25.3758722566       -8.3104024403  MEMB      83              0.0000000000
     49185      1343  PPPE      C36            35.0364458754      -23.7041975960       -8.3830896412  MEMB      83              0.0000000000
     49186      1343  PPPE      H6X            34.3581620606      -24.2910391111       -7.8338668350  MEMB      83              0.0000000000
     49187      1343  PPPE      H6Y            34.7765037243      -23.6632098866       -9.4662885214  MEMB      83              0.0000000000
     49188      1343  PPPE      C37            34.6724432948      -22.5813256226       -7.5213475651  MEMB      83              0.0000000000
     49189      1343  PPPE      H7X            35.3338417031      -21.7422176893       -7.5817882369  MEMB      83              0.0000000000
     49190      1343  PPPE      H7Y            34.5421395153      -22.9419064559       -6.4644134085  MEMB      83              0.0000000000
     49191      1343  PPPE      C38            33.5781171872      -21.8882743190       -8.1241507696  MEMB      83              0.0000000000
     49192      1343  PPPE      H8X            32.7415003290      -22.6116676001       -8.0733853778  MEMB      83              0.0000000000
     49193      1343  PPPE      H8Y            33.3434054450      -22.1532261535       -9.1851740393  MEMB      83              0.0000000000
     49194      1343  PPPE      C39            33.4769509050      -20.3495090342       -7.4778314305  MEMB      83              0.0000000000
     49195      1343  PPPE      H9X            32.7479780761      -19.6023592571       -7.7918146214  MEMB      83              0.0000000000
     49196      1343  PPPE      H9Y            34.3440464345      -19.8241374637       -7.7033259004  MEMB      83              0.0000000000
     49197      1343  PPPE      C310           33.1293258224      -20.0485754118       -6.0335390526  MEMB      83              0.0000000000
     49198      1343  PPPE      H10X           33.8502773096      -20.7819566544       -5.6953213819  MEMB      83              0.0000000000
     49199      1343  PPPE      H10Y           32.0869992988      -20.2882060174       -5.7644524958  MEMB      83              0.0000000000
     49200      1343  PPPE      C311           32.5642854157      -18.8433138526       -5.2536728990  MEMB      83              0.0000000000
     49201      1343  PPPE      H11X           31.4717658675      -18.7798619991       -4.9990836499  MEMB      83              0.0000000000
     49202      1343  PPPE      H11Y           32.8888798527      -18.1557829378       -6.0364207844  MEMB      83              0.0000000000
     49203      1343  PPPE      C312           33.1023631639      -18.7731986320       -3.8306469488  MEMB      83              0.0000000000
     49204      1343  PPPE      H12X           33.3589507173      -17.7148783556       -3.7491688816  MEMB      83              0.0000000000
     49205      1343  PPPE      H12Y           34.1040795581      -19.2105635306       -4.0749398110  MEMB      83              0.0000000000
     49206      1343  PPPE      C313           32.2922318873      -19.2136683514       -2.4324217882  MEMB      83              0.0000000000
     49207      1343  PPPE      H13X           31.2135090570      -19.1454347482       -2.5641897950  MEMB      83              0.0000000000
     49208      1343  PPPE      H13Y           32.8164996526      -18.6593802216       -1.6252401230  MEMB      83              0.0000000000
     49209      1343  PPPE      C314           32.3236075934      -20.5505342384       -1.5580447557  MEMB      83              0.0000000000
     49210      1343  PPPE      H14X           33.4129546046      -20.6803928773       -1.3647117456  MEMB      83              0.0000000000
     49211      1343  PPPE      H14Y           31.8633844815      -21.4111793789       -2.0864613372  MEMB      83              0.0000000000
     49212      1343  PPPE      C315           31.4781902344      -21.2303597895       -0.5607491438  MEMB      83              0.0000000000
     49213      1343  PPPE      H15X           31.6013311282      -22.3449670588       -0.5834434305  MEMB      83              0.0000000000
     49214      1343  PPPE      H15Y           30.4301296180      -21.3308182358       -0.8464553062  MEMB      83              0.0000000000
     49215      1343  PPPE      C316           32.0622717012      -20.5449686338        0.6275665280  MEMB      83              0.0000000000
     49216      1343  PPPE      H16X           31.7754375393      -19.5054276015        0.4696797570  MEMB      83              0.0000000000
     49217      1343  PPPE      H16Y           31.7466748511      -21.0877625756        1.5219795104  MEMB      83              0.0000000000
     49218      1343  PPPE      H16Z           33.1880857841      -20.4683879728        0.6756373279  MEMB      83              0.0000000000
     49219      1344  PPPE      N             -38.7577647473      -18.3644055952      -21.0865470247  MEMB      84              0.0000000000
     49220      1344  PPPE      HN1           -38.8890205394      -17.4563229056      -21.5933332970  MEMB      84              0.0000000000
     49221      1344  PPPE      HN2           -37.8266685786      -18.7415982121      -21.3259510245  MEMB      84              0.0000000000
     49222      1344  PPPE      HN3           -39.5215245069      -19.0141830893      -21.3851884751  MEMB      84              0.0000000000
     49223      1344  PPPE      C12           -38.9058005689      -18.0464632982      -19.6168646895  MEMB      84              0.0000000000
     49224      1344  PPPE      H12A          -39.7445782169      -18.5797589574      -19.1214527805  MEMB      84              0.0000000000
     49225      1344  PPPE      H12B          -39.1749414329      -16.9649553127      -19.5484927136  MEMB      84              0.0000000000
     49226      1344  PPPE      C11           -37.6135353731      -18.5165531078      -18.9935133073  MEMB      84              0.0000000000
     49227      1344  PPPE      H11A          -37.3354500936      -19.5368737841      -19.2690846191  MEMB      84              0.0000000000
     49228      1344  PPPE      H11B          -37.7542820897      -18.5496587145      -17.8712633260  MEMB      84              0.0000000000
     49229      1344  PPPE      P             -36.1724564995      -16.4663064137      -18.6068339957  MEMB      84              0.0000000000
     49230      1344  PPPE      O13           -35.1260391970      -16.7596683489      -17.6157589978  MEMB      84              0.0000000000
     49231      1344  PPPE      O14           -36.0294394633      -15.2302653293      -19.4021802788  MEMB      84              0.0000000000
     49232      1344  PPPE      O11           -37.5586226490      -16.4348626210      -17.8784309710  MEMB      84              0.0000000000
     49233      1344  PPPE      O12           -36.5479014799      -17.7033168945      -19.4968943797  MEMB      84              0.0000000000
     49234      1344  PPPE      C1            -38.2143679417      -15.2739062532      -17.5893230577  MEMB      84              0.0000000000
     49235      1344  PPPE      HA            -38.7832079875      -14.6705785622      -18.3403585761  MEMB      84              0.0000000000
     49236      1344  PPPE      HB            -37.4637819957      -14.5016276487      -17.7503009074  MEMB      84              0.0000000000
     49237      1344  PPPE      C2            -38.8037273047      -15.2460011812      -16.1375381419  MEMB      84              0.0000000000
     49238      1344  PPPE      HS            -38.5715358904      -14.2885230784      -16.3225248435  MEMB      84              0.0000000000
     49239      1344  PPPE      O21           -38.2128340076      -15.9484025640      -14.9834687648  MEMB      84              0.0000000000
     49240      1344  PPPE      C21           -38.4485290063      -15.7929984166      -13.6502709633  MEMB      84              0.0000000000
     49241      1344  PPPE      O22           -38.9264506441      -14.9266912661      -13.0051561023  MEMB      84              0.0000000000
     49242      1344  PPPE      C22           -37.8576354393      -16.7236229686      -12.6775406652  MEMB      84              0.0000000000
     49243      1344  PPPE      H2R           -37.0082715827      -17.2221357068      -13.1522081381  MEMB      84              0.0000000000
     49244      1344  PPPE      H2S           -38.6470720429      -17.3515808442      -12.2747501672  MEMB      84              0.0000000000
     49245      1344  PPPE      C3            -40.2315906929      -15.6384028113      -16.2191515766  MEMB      84              0.0000000000
     49246      1344  PPPE      HX            -40.9222606997      -15.0961423813      -15.5393730135  MEMB      84              0.0000000000
     49247      1344  PPPE      HY            -40.5317737158      -15.3730470632      -17.2567297267  MEMB      84              0.0000000000
     49248      1344  PPPE      O31           -40.2163877536      -16.9988277448      -15.9454502670  MEMB      84              0.0000000000
     49249      1344  PPPE      C31           -41.3317948092      -17.5244339893      -16.1503496743  MEMB      84              0.0000000000
     49250      1344  PPPE      O32           -42.3277105515      -17.0608211984      -16.6828302104  MEMB      84              0.0000000000
     49251      1344  PPPE      C32           -41.0976039145      -18.8506457995      -15.5754518462  MEMB      84              0.0000000000
     49252      1344  PPPE      H2X           -40.2489415023      -18.9267495816      -14.8562485813  MEMB      84              0.0000000000
     49253      1344  PPPE      H2Y           -41.0339510267      -19.6261222075      -16.3426221255  MEMB      84              0.0000000000
     49254      1344  PPPE      C23           -37.3893238402      -15.8029390882      -11.5143882256  MEMB      84              0.0000000000
     49255      1344  PPPE      H3R           -38.2071589398      -15.3512563449      -10.9154675953  MEMB      84              0.0000000000
     49256      1344  PPPE      H3S           -36.9326206628      -14.9822908939      -12.0498955500  MEMB      84              0.0000000000
     49257      1344  PPPE      C24           -36.4249808403      -16.4879032620      -10.5945846322  MEMB      84              0.0000000000
     49258      1344  PPPE      H4R           -35.5180778584      -16.8325539040      -11.1311360606  MEMB      84              0.0000000000
     49259      1344  PPPE      H4S           -37.0590246617      -17.3536150790      -10.3239689324  MEMB      84              0.0000000000
     49260      1344  PPPE      C25           -36.0365254211      -15.7239012122       -9.3358286011  MEMB      84              0.0000000000
     49261      1344  PPPE      H5R           -35.4727711692      -14.8132122460       -9.5106220530  MEMB      84              0.0000000000
     49262      1344  PPPE      H5S           -35.3339087052      -16.3699674796       -8.7962772594  MEMB      84              0.0000000000
     49263      1344  PPPE      C26           -37.1943908903      -15.3910063718       -8.4232791883  MEMB      84              0.0000000000
     49264      1344  PPPE      H6R           -38.1000657716      -15.0654839027       -8.9685084124  MEMB      84              0.0000000000
     49265      1344  PPPE      H6S           -36.9082414938      -14.5068849425       -7.8132822134  MEMB      84              0.0000000000
     49266      1344  PPPE      C27           -37.4463710457      -16.6436435786       -7.5838039285  MEMB      84              0.0000000000
     49267      1344  PPPE      H7R           -36.4789992856      -16.9991222771       -7.1507792363  MEMB      84              0.0000000000
     49268      1344  PPPE      H7S           -37.8079901526      -17.4487186869       -8.2451247141  MEMB      84              0.0000000000
     49269      1344  PPPE      C28           -38.4721713443      -16.4519405129       -6.5066802484  MEMB      84              0.0000000000
     49270      1344  PPPE      H8R           -38.6570347584      -17.3697248504       -5.9289777404  MEMB      84              0.0000000000
     49271      1344  PPPE      H8S           -39.4478039762      -16.1267056781       -6.9295749601  MEMB      84              0.0000000000
     49272      1344  PPPE      C29           -37.8267178792      -15.4330737355       -5.6569496732  MEMB      84              0.0000000000
     49273      1344  PPPE      H91           -37.7235711621      -14.4233745485       -6.0783742243  MEMB      84              0.0000000000
     49274      1344  PPPE      C210          -37.4602912033      -15.5763612640       -4.4257595287  MEMB      84              0.0000000000
     49275      1344  PPPE      H101          -37.0348801483      -14.7110642898       -3.9793441763  MEMB      84              0.0000000000
     49276      1344  PPPE      C211          -37.5844383752      -16.7833563490       -3.5961928272  MEMB      84              0.0000000000
     49277      1344  PPPE      H11R          -36.6544975875      -16.7738357784       -3.0478127904  MEMB      84              0.0000000000
     49278      1344  PPPE      H11S          -37.4943367251      -17.6980264863       -4.1841017583  MEMB      84              0.0000000000
     49279      1344  PPPE      C212          -38.7457683782      -16.8524168833       -2.6053786655  MEMB      84              0.0000000000
     49280      1344  PPPE      H12R          -38.4919339132      -16.0328614944       -1.9084821245  MEMB      84              0.0000000000
     49281      1344  PPPE      H12S          -38.6762484571      -17.6908283142       -1.9562775771  MEMB      84              0.0000000000
     49282      1344  PPPE      C213          -40.1144503678      -17.2365025452       -3.2407513897  MEMB      84              0.0000000000
     49283      1344  PPPE      H13R          -39.9752800734      -18.2216966043       -3.6746199578  MEMB      84              0.0000000000
     49284      1344  PPPE      H13S          -40.1079160728      -16.6301029798       -4.1221189316  MEMB      84              0.0000000000
     49285      1344  PPPE      C214          -41.5341348586      -17.4610817345       -2.5627972886  MEMB      84              0.0000000000
     49286      1344  PPPE      H14R          -41.3464246422      -18.3270264195       -1.8867038432  MEMB      84              0.0000000000
     49287      1344  PPPE      H14S          -42.3392111623      -17.7696186403       -3.1845626528  MEMB      84              0.0000000000
     49288      1344  PPPE      C215          -42.2028460887      -16.2463800641       -1.8698293066  MEMB      84              0.0000000000
     49289      1344  PPPE      H15R          -42.5479568568      -15.3585500710       -2.3826523311  MEMB      84              0.0000000000
     49290      1344  PPPE      H15S          -41.3177344436      -15.9589735420       -1.4795875595  MEMB      84              0.0000000000
     49291      1344  PPPE      C216          -43.2382670189      -16.1360062300       -0.8758900322  MEMB      84              0.0000000000
     49292      1344  PPPE      H16R          -44.1342112563      -16.0797015615       -1.3848424451  MEMB      84              0.0000000000
     49293      1344  PPPE      H16S          -43.3680485038      -16.4112124945        0.1319445559  MEMB      84              0.0000000000
     49294      1344  PPPE      H16T          -43.4616797897      -15.2620714407       -0.4788315970  MEMB      84              0.0000000000
     49295      1344  PPPE      C33           -42.2693899096      -18.9379425065      -14.7671132727  MEMB      84              0.0000000000
     49296      1344  PPPE      H3X           -42.1027362969      -19.8362353327      -14.2020538181  MEMB      84              0.0000000000
     49297      1344  PPPE      H3Y           -43.2508779884      -18.9803031186      -15.3626169012  MEMB      84              0.0000000000
     49298      1344  PPPE      C34           -42.2930318278      -18.0908335971      -13.5447294689  MEMB      84              0.0000000000
     49299      1344  PPPE      H4X           -43.3337517347      -18.4640782149      -13.5935500781  MEMB      84              0.0000000000
     49300      1344  PPPE      H4Y           -42.4335680533      -17.0362071234      -13.6293539859  MEMB      84              0.0000000000
     49301      1344  PPPE      C35           -41.6190512965      -18.4371529919      -12.1648594988  MEMB      84              0.0000000000
     49302      1344  PPPE      H5X           -40.5334759906      -18.4700475333      -12.2152503378  MEMB      84              0.0000000000
     49303      1344  PPPE      H5Y           -41.8668960322      -19.5214713285      -12.0368207306  MEMB      84              0.0000000000
     49304      1344  PPPE      C36           -41.8454952352      -17.4091216123      -10.9444252068  MEMB      84              0.0000000000
     49305      1344  PPPE      H6X           -42.8375615040      -16.9021713266      -10.9334424444  MEMB      84              0.0000000000
     49306      1344  PPPE      H6Y           -41.4436516657      -16.4009215221      -10.9756929518  MEMB      84              0.0000000000
     49307      1344  PPPE      C37           -41.6747418214      -17.9841813425       -9.5080763596  MEMB      84              0.0000000000
     49308      1344  PPPE      H7X           -42.2298029985      -18.9063990943       -9.4626538135  MEMB      84              0.0000000000
     49309      1344  PPPE      H7Y           -42.1620460739      -17.3661518982       -8.7213189403  MEMB      84              0.0000000000
     49310      1344  PPPE      C38           -40.6349432969      -19.0015854142       -9.1546444273  MEMB      84              0.0000000000
     49311      1344  PPPE      H8X           -39.7967309088      -18.4069667958       -9.5108593666  MEMB      84              0.0000000000
     49312      1344  PPPE      H8Y           -40.7321521900      -19.9675696873       -9.7392447919  MEMB      84              0.0000000000
     49313      1344  PPPE      C39           -40.6088393206      -19.2723758688       -7.6498209172  MEMB      84              0.0000000000
     49314      1344  PPPE      H9X           -41.4110312391      -19.9320949882       -7.2732223503  MEMB      84              0.0000000000
     49315      1344  PPPE      H9Y           -40.7088993925      -18.2986559744       -7.1131538460  MEMB      84              0.0000000000
     49316      1344  PPPE      C310          -39.2783425296      -19.8968512352       -7.3269681041  MEMB      84              0.0000000000
     49317      1344  PPPE      H10X          -38.5352994393      -19.1872710245       -7.7245024363  MEMB      84              0.0000000000
     49318      1344  PPPE      H10Y          -39.1350207349      -20.8777374915       -7.8319400931  MEMB      84              0.0000000000
     49319      1344  PPPE      C311          -38.9784929086      -19.9450774911       -5.8596072554  MEMB      84              0.0000000000
     49320      1344  PPPE      H11X          -39.6288250803      -19.2826931383       -5.2614202553  MEMB      84              0.0000000000
     49321      1344  PPPE      H11Y          -37.8996495029      -19.6972994267       -5.7110800845  MEMB      84              0.0000000000
     49322      1344  PPPE      C312          -39.0849998672      -21.3031407360       -5.3268415570  MEMB      84              0.0000000000
     49323      1344  PPPE      H12X          -38.6276346864      -21.9875785716       -6.0888605819  MEMB      84              0.0000000000
     49324      1344  PPPE      H12Y          -40.1375660941      -21.6116968505       -5.1996273180  MEMB      84              0.0000000000
     49325      1344  PPPE      C313          -38.2562613362      -21.3281648013       -4.0560226090  MEMB      84              0.0000000000
     49326      1344  PPPE      H13X          -37.2039352276      -21.6268937820       -4.2589838750  MEMB      84              0.0000000000
     49327      1344  PPPE      H13Y          -38.8020964198      -22.0347159816       -3.4221891475  MEMB      84              0.0000000000
     49328      1344  PPPE      C314          -38.3949740008      -20.5035278076       -2.8298489038  MEMB      84              0.0000000000
     49329      1344  PPPE      H14X          -39.4820428014      -20.4148582521       -2.6548393389  MEMB      84              0.0000000000
     49330      1344  PPPE      H14Y          -37.9726121243      -19.5679250004       -3.1725862163  MEMB      84              0.0000000000
     49331      1344  PPPE      C315          -37.5375126275      -21.1698928178       -1.7111475039  MEMB      84              0.0000000000
     49332      1344  PPPE      H15X          -36.5176924137      -20.9106076187       -2.0586746391  MEMB      84              0.0000000000
     49333      1344  PPPE      H15Y          -37.4739878485      -22.2632609911       -1.7498276278  MEMB      84              0.0000000000
     49334      1344  PPPE      C316          -37.8347972484      -20.9697489996       -0.1966155932  MEMB      84              0.0000000000
     49335      1344  PPPE      H16X          -38.7806514092      -20.3863769634       -0.1038098222  MEMB      84              0.0000000000
     49336      1344  PPPE      H16Y          -37.5787578172      -21.6525289306        0.6134559493  MEMB      84              0.0000000000
     49337      1344  PPPE      H16Z          -37.0089520135      -20.4104927971        0.2197800495  MEMB      84              0.0000000000
     49338      1345  PVPG      C13           -39.0244383830       12.5080143747      -21.6044677978  MEMB      85              0.0000000000
     49339      1345  PVPG      H13A          -40.0738254125       12.1727646068      -21.7139185593  MEMB      85              0.0000000000
     49340      1345  PVPG      H13B          -38.5715775626       12.5849301480      -22.6099294546  MEMB      85              0.0000000000
     49341      1345  PVPG      OC3           -38.3466567361       11.4817696700      -20.8732481692  MEMB      85              0.0000000000
     49342      1345  PVPG      HO3           -38.6777959812       11.5482978804      -19.9709148328  MEMB      85              0.0000000000
     49343      1345  PVPG      C12           -39.0636717013       13.9150291226      -20.9233662970  MEMB      85              0.0000000000
     49344      1345  PVPG      H12A          -39.6848361668       14.5941540131      -21.5454711086  MEMB      85              0.0000000000
     49345      1345  PVPG      OC2           -37.7770634752       14.5266998881      -20.8992329855  MEMB      85              0.0000000000
     49346      1345  PVPG      HO2           -37.8461699002       15.2357329767      -20.2255635276  MEMB      85              0.0000000000
     49347      1345  PVPG      C11           -39.6929611438       13.8411625474      -19.5151820259  MEMB      85              0.0000000000
     49348      1345  PVPG      H11A          -39.2501917592       12.9504367960      -19.0181561648  MEMB      85              0.0000000000
     49349      1345  PVPG      H11B          -40.7941755434       13.6715491114      -19.5832949547  MEMB      85              0.0000000000
     49350      1345  PVPG      P             -39.2572754175       14.9827303351      -17.2093616946  MEMB      85              0.0000000000
     49351      1345  PVPG      O13           -37.8572103513       14.6080045349      -16.9120031301  MEMB      85              0.0000000000
     49352      1345  PVPG      O14           -40.2938067489       14.1541945578      -16.5910101928  MEMB      85              0.0000000000
     49353      1345  PVPG      O12           -39.4379841747       15.0371829727      -18.7893294282  MEMB      85              0.0000000000
     49354      1345  PVPG      O11           -39.4939456201       16.4805535427      -16.8178174389  MEMB      85              0.0000000000
     49355      1345  PVPG      C1            -38.5688479951       17.4544971271      -17.3149695407  MEMB      85              0.0000000000
     49356      1345  PVPG      HA            -38.8246283240       17.7279120582      -18.3647012624  MEMB      85              0.0000000000
     49357      1345  PVPG      HB            -37.5243476036       17.0754486039      -17.2871343424  MEMB      85              0.0000000000
     49358      1345  PVPG      C2            -38.5579968188       18.7151847638      -16.4255553459  MEMB      85              0.0000000000
     49359      1345  PVPG      HS            -37.8696163494       19.4900569889      -16.8255460450  MEMB      85              0.0000000000
     49360      1345  PVPG      O21           -38.1815133814       18.3862544081      -15.0662743722  MEMB      85              0.0000000000
     49361      1345  PVPG      C21           -36.9316164284       18.1927044751      -14.8189116002  MEMB      85              0.0000000000
     49362      1345  PVPG      O22           -36.0347689555       18.3117870197      -15.6347685130  MEMB      85              0.0000000000
     49363      1345  PVPG      C22           -36.7012310908       17.8938084861      -13.3195018063  MEMB      85              0.0000000000
     49364      1345  PVPG      H2R           -35.8508335051       17.1871558407      -13.2228341217  MEMB      85              0.0000000000
     49365      1345  PVPG      H2S           -37.6005734033       17.4619681583      -12.8319540344  MEMB      85              0.0000000000
     49366      1345  PVPG      C3            -39.9530638132       19.3978348477      -16.4621682539  MEMB      85              0.0000000000
     49367      1345  PVPG      HX            -39.8278829699       20.2993084931      -15.8011777664  MEMB      85              0.0000000000
     49368      1345  PVPG      HY            -40.1880820817       19.7448986969      -17.4810446989  MEMB      85              0.0000000000
     49369      1345  PVPG      O31           -41.0720425979       18.5337640931      -16.1683603479  MEMB      85              0.0000000000
     49370      1345  PVPG      C31           -41.1130383558       18.1766059602      -14.9295999146  MEMB      85              0.0000000000
     49371      1345  PVPG      O32           -40.3286959899       18.5739427088      -14.0787493301  MEMB      85              0.0000000000
     49372      1345  PVPG      C32           -42.4522969777       17.4193282438      -14.6032478394  MEMB      85              0.0000000000
     49373      1345  PVPG      H2X           -42.5985500907       16.7781123021      -15.4717919736  MEMB      85              0.0000000000
     49374      1345  PVPG      H2Y           -43.3686660475       18.0566587748      -14.5239348341  MEMB      85              0.0000000000
     49375      1345  PVPG      C23           -36.2398402411       19.1254665198      -12.5354977357  MEMB      85              0.0000000000
     49376      1345  PVPG      H3R           -35.5440492805       19.7868907830      -13.0899162003  MEMB      85              0.0000000000
     49377      1345  PVPG      H3S           -35.7571402201       18.7639270116      -11.5924180004  MEMB      85              0.0000000000
     49378      1345  PVPG      C24           -37.3792730082       19.9782033246      -12.1127950917  MEMB      85              0.0000000000
     49379      1345  PVPG      H4R           -38.2193447159       19.3346917804      -11.7606325070  MEMB      85              0.0000000000
     49380      1345  PVPG      H4S           -37.7624424969       20.6116752744      -12.9470825606  MEMB      85              0.0000000000
     49381      1345  PVPG      C25           -36.9201951849       20.7942028085      -10.9448843509  MEMB      85              0.0000000000
     49382      1345  PVPG      H5R           -36.1090941364       21.5389210179      -11.0861167053  MEMB      85              0.0000000000
     49383      1345  PVPG      H5S           -36.6803804905       20.1714070842      -10.0607654792  MEMB      85              0.0000000000
     49384      1345  PVPG      C26           -38.1219603464       21.4819302840      -10.5880979199  MEMB      85              0.0000000000
     49385      1345  PVPG      H6R           -38.7376667574       21.8547236546      -11.4485399168  MEMB      85              0.0000000000
     49386      1345  PVPG      H6S           -37.8181499613       22.2152352142       -9.9222386282  MEMB      85              0.0000000000
     49387      1345  PVPG      C27           -38.9920707845       20.7140930214       -9.6734619497  MEMB      85              0.0000000000
     49388      1345  PVPG      H7R           -39.1428330955       19.7671223918      -10.1598900458  MEMB      85              0.0000000000
     49389      1345  PVPG      H7S           -39.8562958053       21.4478872561       -9.7394083009  MEMB      85              0.0000000000
     49390      1345  PVPG      C28           -38.6598988293       19.8263235128       -8.4893091699  MEMB      85              0.0000000000
     49391      1345  PVPG      H8R           -37.6085067352       19.5886224717       -8.2945289316  MEMB      85              0.0000000000
     49392      1345  PVPG      H8S           -39.3997953017       19.2324105501       -7.9164155015  MEMB      85              0.0000000000
     49393      1345  PVPG      C29           -39.0012097027       20.7656021529       -7.4892773151  MEMB      85              0.0000000000
     49394      1345  PVPG      H9R           -40.0376881399       21.1313390541       -7.8489694963  MEMB      85              0.0000000000
     49395      1345  PVPG      H9S           -38.3028455736       21.4426065732       -7.8687805862  MEMB      85              0.0000000000
     49396      1345  PVPG      C210          -38.3628145650       20.5839577425       -6.0585962243  MEMB      85              0.0000000000
     49397      1345  PVPG      H10R          -39.0974806264       20.2279739290       -5.3136229813  MEMB      85              0.0000000000
     49398      1345  PVPG      H10S          -38.3215745073       21.5806566684       -5.7623309278  MEMB      85              0.0000000000
     49399      1345  PVPG      C211          -36.8709891085       20.1812269519       -5.8708277530  MEMB      85              0.0000000000
     49400      1345  PVPG      H111          -36.6195944400       19.3731112863       -6.5434425808  MEMB      85              0.0000000000
     49401      1345  PVPG      C212          -35.8440022116       20.3698450517       -4.9654155888  MEMB      85              0.0000000000
     49402      1345  PVPG      H121          -34.8334218371       20.0239196562       -5.0256227627  MEMB      85              0.0000000000
     49403      1345  PVPG      C213          -35.5624562800       21.0684125669       -3.7331322804  MEMB      85              0.0000000000
     49404      1345  PVPG      H13R          -36.2411495157       21.8308168389       -3.9292623078  MEMB      85              0.0000000000
     49405      1345  PVPG      H13S          -34.7278751141       21.8204860447       -3.6034660319  MEMB      85              0.0000000000
     49406      1345  PVPG      C214          -35.6908345095       20.1031753481       -2.4744604664  MEMB      85              0.0000000000
     49407      1345  PVPG      H14R          -35.4754451541       20.4661914823       -1.4984992619  MEMB      85              0.0000000000
     49408      1345  PVPG      H14S          -34.6970750376       19.7745481203       -2.1619788058  MEMB      85              0.0000000000
     49409      1345  PVPG      C215          -37.0983973322       19.6216381053       -1.9287416096  MEMB      85              0.0000000000
     49410      1345  PVPG      H15R          -37.6602193587       19.2932082894       -2.7870818841  MEMB      85              0.0000000000
     49411      1345  PVPG      H15S          -37.9401346664       20.2951137207       -1.6155202381  MEMB      85              0.0000000000
     49412      1345  PVPG      C216          -36.9780287198       18.7258426441       -0.7214210344  MEMB      85              0.0000000000
     49413      1345  PVPG      H16R          -36.6626950229       18.9560414881        0.3078812530  MEMB      85              0.0000000000
     49414      1345  PVPG      H16S          -36.0354181234       18.2543878619       -0.9879506754  MEMB      85              0.0000000000
     49415      1345  PVPG      C217          -38.2900329194       18.0211535413       -0.6048147945  MEMB      85              0.0000000000
     49416      1345  PVPG      H17R          -38.8407743451       18.1325211090       -1.5698508371  MEMB      85              0.0000000000
     49417      1345  PVPG      H17S          -38.9335485389       18.4590122767        0.1933734954  MEMB      85              0.0000000000
     49418      1345  PVPG      C218          -37.9288828085       16.6114080724       -0.3015252005  MEMB      85              0.0000000000
     49419      1345  PVPG      H18R          -38.7701032241       15.9251786632       -0.4561032406  MEMB      85              0.0000000000
     49420      1345  PVPG      H18S          -37.1292013906       16.3175502047       -1.0071040889  MEMB      85              0.0000000000
     49421      1345  PVPG      H18T          -37.5522331925       16.5654937105        0.7470365462  MEMB      85              0.0000000000
     49422      1345  PVPG      C33           -42.3503537517       16.6783943668      -13.2438560573  MEMB      85              0.0000000000
     49423      1345  PVPG      H3X           -43.2209124317       16.1425430030      -12.9291725739  MEMB      85              0.0000000000
     49424      1345  PVPG      H3Y           -42.3466795426       17.3119677760      -12.3429466271  MEMB      85              0.0000000000
     49425      1345  PVPG      C34           -41.2349959698       15.6644606701      -13.2585386994  MEMB      85              0.0000000000
     49426      1345  PVPG      H4X           -40.3177513290       16.1751110698      -12.9083648788  MEMB      85              0.0000000000
     49427      1345  PVPG      H4Y           -41.1199822065       15.3164068504      -14.3154566918  MEMB      85              0.0000000000
     49428      1345  PVPG      C35           -41.5191882361       14.4361373034      -12.4067647570  MEMB      85              0.0000000000
     49429      1345  PVPG      H5X           -40.6681224367       13.7371819595      -12.4171586133  MEMB      85              0.0000000000
     49430      1345  PVPG      H5Y           -42.3842188971       13.9257210924      -12.8714680335  MEMB      85              0.0000000000
     49431      1345  PVPG      C36           -41.8739660088       14.7200217054      -10.9616251715  MEMB      85              0.0000000000
     49432      1345  PVPG      H6X           -42.6008590749       13.9223139653      -10.7175805890  MEMB      85              0.0000000000
     49433      1345  PVPG      H6Y           -42.3749265937       15.7061869468      -10.9062961596  MEMB      85              0.0000000000
     49434      1345  PVPG      C37           -40.7348460590       14.6513718417       -9.9582011392  MEMB      85              0.0000000000
     49435      1345  PVPG      H7X           -40.0133407149       15.4532721797      -10.2284494507  MEMB      85              0.0000000000
     49436      1345  PVPG      H7Y           -40.2237733531       13.6675657610      -10.0414046412  MEMB      85              0.0000000000
     49437      1345  PVPG      C38           -41.1824659521       14.8653762410       -8.5046386399  MEMB      85              0.0000000000
     49438      1345  PVPG      H8X           -41.5614109295       13.9164893108       -8.0635129673  MEMB      85              0.0000000000
     49439      1345  PVPG      H8Y           -41.9855000555       15.6387784114       -8.4665854147  MEMB      85              0.0000000000
     49440      1345  PVPG      C39           -40.0000668186       15.2701384281       -7.6310658022  MEMB      85              0.0000000000
     49441      1345  PVPG      H9X           -39.7924364077       16.3362344686       -7.8731794265  MEMB      85              0.0000000000
     49442      1345  PVPG      H9Y           -39.1554598959       14.6335473829       -7.9845568885  MEMB      85              0.0000000000
     49443      1345  PVPG      C310          -40.2533729679       15.0359128409       -6.1259169013  MEMB      85              0.0000000000
     49444      1345  PVPG      H10X          -40.3126125891       13.9429196894       -5.9147515565  MEMB      85              0.0000000000
     49445      1345  PVPG      H10Y          -41.2547573811       15.4546179324       -5.8808049245  MEMB      85              0.0000000000
     49446      1345  PVPG      C311          -39.2184306957       15.6521976132       -5.1586035200  MEMB      85              0.0000000000
     49447      1345  PVPG      H11X          -39.6020935141       15.5181213684       -4.1208509317  MEMB      85              0.0000000000
     49448      1345  PVPG      H11Y          -39.1492004283       16.7472345864       -5.3275651248  MEMB      85              0.0000000000
     49449      1345  PVPG      C312          -37.8164278711       15.0119459664       -5.2612014475  MEMB      85              0.0000000000
     49450      1345  PVPG      H12X          -37.4490922951       15.1370887494       -6.2981775384  MEMB      85              0.0000000000
     49451      1345  PVPG      H12Y          -37.9262710509       13.9186929706       -5.0853898303  MEMB      85              0.0000000000
     49452      1345  PVPG      C313          -36.7474668055       15.6578011453       -4.3617790185  MEMB      85              0.0000000000
     49453      1345  PVPG      H13X          -37.1646639600       15.8118739058       -3.3344480081  MEMB      85              0.0000000000
     49454      1345  PVPG      H13Y          -36.5267917423       16.6857607949       -4.7168190209  MEMB      85              0.0000000000
     49455      1345  PVPG      C314          -35.3911000987       14.9191272853       -4.3095091641  MEMB      85              0.0000000000
     49456      1345  PVPG      H14X          -34.6600131171       15.1636165180       -5.0951812314  MEMB      85              0.0000000000
     49457      1345  PVPG      H14Y          -35.5091565033       13.8063240576       -4.2125097635  MEMB      85              0.0000000000
     49458      1345  PVPG      C315          -34.6981975295       15.3552388199       -3.0642961226  MEMB      85              0.0000000000
     49459      1345  PVPG      H15X          -33.8217818852       14.7255967237       -2.7920559167  MEMB      85              0.0000000000
     49460      1345  PVPG      H15Y          -35.6004202872       15.0730907790       -2.4650436579  MEMB      85              0.0000000000
     49461      1345  PVPG      C316          -34.4309049893       16.8269498909       -2.7457770065  MEMB      85              0.0000000000
     49462      1345  PVPG      H16X          -33.7717302199       17.2578106905       -3.5086943891  MEMB      85              0.0000000000
     49463      1345  PVPG      H16Y          -35.4047464817       17.3438628378       -2.6214650608  MEMB      85              0.0000000000
     49464      1345  PVPG      H16Z          -33.9061680381       16.9890321436       -1.7795161963  MEMB      85              0.0000000000
     49465      1346  PPPE      N              25.1670726344      -31.1614480392      -19.5511069711  MEMB      86              0.0000000000
     49466      1346  PPPE      HN1            24.9410275038      -30.8875650010      -20.5285630565  MEMB      86              0.0000000000
     49467      1346  PPPE      HN2            24.6502103810      -30.5068367406      -18.9178254122  MEMB      86              0.0000000000
     49468      1346  PPPE      HN3            26.1990118392      -31.0687632651      -19.3970152130  MEMB      86              0.0000000000
     49469      1346  PPPE      C12            24.7061354609      -32.5865993580      -19.3051627591  MEMB      86              0.0000000000
     49470      1346  PPPE      H12A           23.6568078001      -32.6697755425      -19.6612996305  MEMB      86              0.0000000000
     49471      1346  PPPE      H12B           24.7215009648      -32.7453754235      -18.2062128688  MEMB      86              0.0000000000
     49472      1346  PPPE      C11            25.5626261669      -33.6656464315      -20.0172534680  MEMB      86              0.0000000000
     49473      1346  PPPE      H11A           25.3486377410      -33.6986360602      -21.1054590289  MEMB      86              0.0000000000
     49474      1346  PPPE      H11B           25.2649672914      -34.6651783645      -19.6219739680  MEMB      86              0.0000000000
     49475      1346  PPPE      P              27.7455936798      -33.8799522572      -18.5593358081  MEMB      86              0.0000000000
     49476      1346  PPPE      O13            29.1190671613      -34.2510255229      -18.9380857528  MEMB      86              0.0000000000
     49477      1346  PPPE      O14            27.5478994466      -32.7537552662      -17.6233043323  MEMB      86              0.0000000000
     49478      1346  PPPE      O11            26.9216762069      -35.1431168134      -18.0783039699  MEMB      86              0.0000000000
     49479      1346  PPPE      O12            26.9569394647      -33.4493906997      -19.8739246187  MEMB      86              0.0000000000
     49480      1346  PPPE      C1             27.1648752139      -35.7768365945      -16.8159332662  MEMB      86              0.0000000000
     49481      1346  PPPE      HA             28.2351032769      -35.7336665117      -16.5035655609  MEMB      86              0.0000000000
     49482      1346  PPPE      HB             26.9232749398      -36.8532708645      -16.9582217064  MEMB      86              0.0000000000
     49483      1346  PPPE      C2             26.2258598388      -35.2895522733      -15.6605084335  MEMB      86              0.0000000000
     49484      1346  PPPE      HS             25.2161004388      -35.1194682909      -16.1000023377  MEMB      86              0.0000000000
     49485      1346  PPPE      O21            26.7275983001      -34.0772753490      -15.0618201149  MEMB      86              0.0000000000
     49486      1346  PPPE      C21            25.8157943179      -33.3502602492      -14.4488455829  MEMB      86              0.0000000000
     49487      1346  PPPE      O22            24.6971085284      -33.7144689941      -14.1411245585  MEMB      86              0.0000000000
     49488      1346  PPPE      C22            26.2903826612      -31.9081179632      -14.3286080490  MEMB      86              0.0000000000
     49489      1346  PPPE      H2R            25.8474859870      -31.3699291534      -15.1876603262  MEMB      86              0.0000000000
     49490      1346  PPPE      H2S            27.3914024752      -31.8577314019      -14.4600370986  MEMB      86              0.0000000000
     49491      1346  PPPE      C3             26.0815169341      -36.4022651362      -14.5993329361  MEMB      86              0.0000000000
     49492      1346  PPPE      HX             25.0570172210      -36.3140225548      -14.1539230766  MEMB      86              0.0000000000
     49493      1346  PPPE      HY             26.1771963436      -37.3901622628      -15.0926256339  MEMB      86              0.0000000000
     49494      1346  PPPE      O31            27.1243199270      -36.3150469312      -13.6285458136  MEMB      86              0.0000000000
     49495      1346  PPPE      C31            26.7277416484      -36.6832894889      -12.4337259703  MEMB      86              0.0000000000
     49496      1346  PPPE      O32            25.6814389124      -37.1786202354      -12.1184339577  MEMB      86              0.0000000000
     49497      1346  PPPE      C32            27.7356651897      -36.3371295258      -11.4561012492  MEMB      86              0.0000000000
     49498      1346  PPPE      H2X            27.9151299491      -35.2552590893      -11.4872926148  MEMB      86              0.0000000000
     49499      1346  PPPE      H2Y            28.6219743829      -36.7408591214      -11.8811118423  MEMB      86              0.0000000000
     49500      1346  PPPE      C23            25.7632475054      -31.2716189749      -13.0260509174  MEMB      86              0.0000000000
     49501      1346  PPPE      H3R            24.6837211729      -31.4058024340      -12.8653704716  MEMB      86              0.0000000000
     49502      1346  PPPE      H3S            25.9425552552      -30.1674301392      -13.0448780517  MEMB      86              0.0000000000
     49503      1346  PPPE      C24            26.4939255600      -31.8223232426      -11.8435115979  MEMB      86              0.0000000000
     49504      1346  PPPE      H4R            26.7048087459      -32.9060434086      -11.8164070788  MEMB      86              0.0000000000
     49505      1346  PPPE      H4S            26.0139082606      -31.5144993328      -10.8745227295  MEMB      86              0.0000000000
     49506      1346  PPPE      C25            27.8313149848      -31.2590140050      -11.9991255506  MEMB      86              0.0000000000
     49507      1346  PPPE      H5R            27.6680278334      -30.1762071377      -12.2917237303  MEMB      86              0.0000000000
     49508      1346  PPPE      H5S            28.5561198327      -31.7002436979      -12.7171446446  MEMB      86              0.0000000000
     49509      1346  PPPE      C26            28.3710887676      -31.3951514876      -10.6455278435  MEMB      86              0.0000000000
     49510      1346  PPPE      H6R            27.6842664431      -31.0583106452       -9.8524198759  MEMB      86              0.0000000000
     49511      1346  PPPE      H6S            28.9150322899      -30.5041231147      -10.9866611642  MEMB      86              0.0000000000
     49512      1346  PPPE      C27            29.0521086199      -32.7207874369      -10.1655390901  MEMB      86              0.0000000000
     49513      1346  PPPE      H7R            29.6978836946      -33.0708461993      -10.9908567004  MEMB      86              0.0000000000
     49514      1346  PPPE      H7S            28.1773467897      -33.3711258461      -10.0125006440  MEMB      86              0.0000000000
     49515      1346  PPPE      C28            29.8995776245      -32.9646840478       -8.8359177180  MEMB      86              0.0000000000
     49516      1346  PPPE      H8R            30.8421192293      -32.3903642808       -9.0036348254  MEMB      86              0.0000000000
     49517      1346  PPPE      H8S            30.3356493447      -33.9352455024       -8.8037571049  MEMB      86              0.0000000000
     49518      1346  PPPE      C29            29.3167917600      -32.8868918532       -7.4187922491  MEMB      86              0.0000000000
     49519      1346  PPPE      H91            28.8260311011      -32.0077964293       -7.1162232578  MEMB      86              0.0000000000
     49520      1346  PPPE      C210           29.1164234455      -33.5860892238       -6.3569170459  MEMB      86              0.0000000000
     49521      1346  PPPE      H101           28.5694914176      -33.1218756909       -5.5119497525  MEMB      86              0.0000000000
     49522      1346  PPPE      C211           29.5159696215      -34.9489400961       -6.3225452965  MEMB      86              0.0000000000
     49523      1346  PPPE      H11R           30.5920219170      -34.9472423913       -6.0950266773  MEMB      86              0.0000000000
     49524      1346  PPPE      H11S           29.3208736274      -35.3384536202       -7.3458543579  MEMB      86              0.0000000000
     49525      1346  PPPE      C212           28.6665569238      -35.6167088029       -5.2671443819  MEMB      86              0.0000000000
     49526      1346  PPPE      H12R           28.9490344542      -36.6756259799       -5.4165776123  MEMB      86              0.0000000000
     49527      1346  PPPE      H12S           27.5720206557      -35.4858342877       -5.4434086053  MEMB      86              0.0000000000
     49528      1346  PPPE      C213           28.9761272766      -35.2462925273       -3.8084396737  MEMB      86              0.0000000000
     49529      1346  PPPE      H13R           28.5366383226      -34.2490640331       -3.5786928292  MEMB      86              0.0000000000
     49530      1346  PPPE      H13S           30.0769516639      -35.1146145253       -3.6958592523  MEMB      86              0.0000000000
     49531      1346  PPPE      C214           28.4165077014      -36.3362987096       -2.8514199269  MEMB      86              0.0000000000
     49532      1346  PPPE      H14R           28.5957736642      -37.3428049566       -3.2977700870  MEMB      86              0.0000000000
     49533      1346  PPPE      H14S           27.3126655431      -36.2398425118       -2.7816234359  MEMB      86              0.0000000000
     49534      1346  PPPE      C215           29.0954549128      -36.3229897672       -1.4641696226  MEMB      86              0.0000000000
     49535      1346  PPPE      H15R           29.3229455539      -35.2641509355       -1.2124693438  MEMB      86              0.0000000000
     49536      1346  PPPE      H15S           30.0660137322      -36.8476328422       -1.6062177308  MEMB      86              0.0000000000
     49537      1346  PPPE      C216           28.4462056683      -37.0530748160       -0.2687208146  MEMB      86              0.0000000000
     49538      1346  PPPE      H16R           27.5861778362      -36.5227712315        0.1873266247  MEMB      86              0.0000000000
     49539      1346  PPPE      H16S           28.1099967490      -38.0673541692       -0.5718775362  MEMB      86              0.0000000000
     49540      1346  PPPE      H16T           29.2059534052      -37.1588076309        0.5423927530  MEMB      86              0.0000000000
     49541      1346  PPPE      C33            27.4702580831      -36.9340308068      -10.0790400191  MEMB      86              0.0000000000
     49542      1346  PPPE      H3X            28.2960173452      -36.9319983730       -9.3516837970  MEMB      86              0.0000000000
     49543      1346  PPPE      H3Y            27.1472982282      -37.9911824417      -10.1532206804  MEMB      86              0.0000000000
     49544      1346  PPPE      C34            26.8762295309      -35.9314443645       -9.1475569518  MEMB      86              0.0000000000
     49545      1346  PPPE      H4X            27.6462526472      -35.1111975324       -9.0968479112  MEMB      86              0.0000000000
     49546      1346  PPPE      H4Y            26.8594270998      -36.4246591496       -8.1481973825  MEMB      86              0.0000000000
     49547      1346  PPPE      C35            25.5247664520      -35.4511665052       -9.6210709069  MEMB      86              0.0000000000
     49548      1346  PPPE      H5X            24.8450393700      -36.3242949264       -9.7139523815  MEMB      86              0.0000000000
     49549      1346  PPPE      H5Y            25.6287455241      -34.9910395489      -10.6275181212  MEMB      86              0.0000000000
     49550      1346  PPPE      C36            24.9980007845      -34.3498668861       -8.7274534797  MEMB      86              0.0000000000
     49551      1346  PPPE      H6X            25.8181437343      -33.5991734583       -8.7323292255  MEMB      86              0.0000000000
     49552      1346  PPPE      H6Y            24.8134964886      -34.7232865982       -7.6958293377  MEMB      86              0.0000000000
     49553      1346  PPPE      C37            23.7639227888      -33.6056489087       -9.2145638427  MEMB      86              0.0000000000
     49554      1346  PPPE      H7X            22.9548908738      -34.3611230157       -9.3927604524  MEMB      86              0.0000000000
     49555      1346  PPPE      H7Y            23.9561686160      -33.1162448090      -10.1922062611  MEMB      86              0.0000000000
     49556      1346  PPPE      C38            23.3433415123      -32.5359043122       -8.1772972747  MEMB      86              0.0000000000
     49557      1346  PPPE      H8X            22.9020013338      -33.0588134311       -7.3130974688  MEMB      86              0.0000000000
     49558      1346  PPPE      H8Y            22.6108041513      -31.8151512139       -8.6046891090  MEMB      86              0.0000000000
     49559      1346  PPPE      C39            24.2734548338      -31.4459809197       -7.6923960034  MEMB      86              0.0000000000
     49560      1346  PPPE      H9X            23.6051009235      -30.6865212219       -7.1963520027  MEMB      86              0.0000000000
     49561      1346  PPPE      H9Y            24.7659080378      -31.0017835343       -8.5765447070  MEMB      86              0.0000000000
     49562      1346  PPPE      C310           25.2780290146      -31.8643249155       -6.6501992949  MEMB      86              0.0000000000
     49563      1346  PPPE      H10X           25.9161252158      -30.9856240757       -6.4213362356  MEMB      86              0.0000000000
     49564      1346  PPPE      H10Y           25.9652230926      -32.6293953881       -7.0507367044  MEMB      86              0.0000000000
     49565      1346  PPPE      C311           24.5977263110      -32.4332959921       -5.4055438286  MEMB      86              0.0000000000
     49566      1346  PPPE      H11X           24.0302463463      -33.3501986481       -5.6814274514  MEMB      86              0.0000000000
     49567      1346  PPPE      H11Y           23.9003644926      -31.6757188117       -4.9866195344  MEMB      86              0.0000000000
     49568      1346  PPPE      C312           25.6699746752      -32.8367757928       -4.4082977110  MEMB      86              0.0000000000
     49569      1346  PPPE      H12X           26.1836877929      -31.8973410730       -4.1112463333  MEMB      86              0.0000000000
     49570      1346  PPPE      H12Y           26.3490747632      -33.5065180730       -4.9893271390  MEMB      86              0.0000000000
     49571      1346  PPPE      C313           25.2129962884      -33.6243563665       -3.1778874361  MEMB      86              0.0000000000
     49572      1346  PPPE      H13X           26.1263046219      -34.0113117285       -2.6641128244  MEMB      86              0.0000000000
     49573      1346  PPPE      H13Y           24.6093156901      -34.4971206198       -3.5164449446  MEMB      86              0.0000000000
     49574      1346  PPPE      C314           24.3813937385      -32.8063957523       -2.1884211720  MEMB      86              0.0000000000
     49575      1346  PPPE      H14X           23.8943452396      -33.5248253545       -1.4857363045  MEMB      86              0.0000000000
     49576      1346  PPPE      H14Y           23.5555075048      -32.2932755664       -2.7269218365  MEMB      86              0.0000000000
     49577      1346  PPPE      C315           25.1977871447      -31.7661795305       -1.3922391401  MEMB      86              0.0000000000
     49578      1346  PPPE      H15X           24.4614532818      -31.2502132926       -0.7384586035  MEMB      86              0.0000000000
     49579      1346  PPPE      H15Y           25.7038583054      -31.0250836635       -2.0355860076  MEMB      86              0.0000000000
     49580      1346  PPPE      C316           26.2785010167      -32.3448482183       -0.5025297411  MEMB      86              0.0000000000
     49581      1346  PPPE      H16X           26.5171608213      -31.6949750293        0.3732243799  MEMB      86              0.0000000000
     49582      1346  PPPE      H16Y           25.8409808018      -33.2753417506       -0.2063064459  MEMB      86              0.0000000000
     49583      1346  PPPE      H16Z           27.1651339942      -32.7853253787       -0.9795129284  MEMB      86              0.0000000000
     49584      1347  PPPE      N             -35.7078034474       27.3334877846      -21.6133695955  MEMB      87              0.0000000000
     49585      1347  PPPE      HN1           -36.1213196580       27.7574214419      -20.7475151621  MEMB      87              0.0000000000
     49586      1347  PPPE      HN2           -35.0979479784       28.0633770113      -22.0360121478  MEMB      87              0.0000000000
     49587      1347  PPPE      HN3           -36.4481307042       27.0578940810      -22.2845884482  MEMB      87              0.0000000000
     49588      1347  PPPE      C12           -34.7950765562       26.1885079076      -21.1621384008  MEMB      87              0.0000000000
     49589      1347  PPPE      H12A          -33.9299414951       26.7132986809      -20.7103536715  MEMB      87              0.0000000000
     49590      1347  PPPE      H12B          -34.4219888105       25.6495745474      -22.0482566828  MEMB      87              0.0000000000
     49591      1347  PPPE      C11           -35.3910268548       25.2193084775      -20.1059755081  MEMB      87              0.0000000000
     49592      1347  PPPE      H11A          -34.5882169793       24.6821202583      -19.5300459850  MEMB      87              0.0000000000
     49593      1347  PPPE      H11B          -35.9806412150       24.4173849945      -20.5689980493  MEMB      87              0.0000000000
     49594      1347  PPPE      P             -36.6338038691       25.6361838256      -17.7798222345  MEMB      87              0.0000000000
     49595      1347  PPPE      O13           -37.8029435837       26.4866620868      -17.4888714580  MEMB      87              0.0000000000
     49596      1347  PPPE      O14           -36.6869666121       24.1913687796      -17.5045770047  MEMB      87              0.0000000000
     49597      1347  PPPE      O11           -35.3817797823       26.2174568559      -17.0465878360  MEMB      87              0.0000000000
     49598      1347  PPPE      O12           -36.2987753002       25.9268626684      -19.3050639994  MEMB      87              0.0000000000
     49599      1347  PPPE      C1            -34.7145802199       27.3249355621      -17.6114961344  MEMB      87              0.0000000000
     49600      1347  PPPE      HA            -35.4551235005       28.0356254683      -18.0307619914  MEMB      87              0.0000000000
     49601      1347  PPPE      HB            -34.0170547548       27.0252628696      -18.4243325386  MEMB      87              0.0000000000
     49602      1347  PPPE      C2            -33.8880642189       28.0238465650      -16.5247552183  MEMB      87              0.0000000000
     49603      1347  PPPE      HS            -33.1166476035       28.6724434078      -17.0098990669  MEMB      87              0.0000000000
     49604      1347  PPPE      O21           -33.2674333599       27.1406523950      -15.6037085326  MEMB      87              0.0000000000
     49605      1347  PPPE      C21           -32.3439508611       26.4390904243      -16.1605466780  MEMB      87              0.0000000000
     49606      1347  PPPE      O22           -32.0125041141       26.4802456516      -17.3198265715  MEMB      87              0.0000000000
     49607      1347  PPPE      C22           -31.6705697153       25.7051657453      -15.0288704318  MEMB      87              0.0000000000
     49608      1347  PPPE      H2R           -31.1216376159       26.5280525537      -14.5021270866  MEMB      87              0.0000000000
     49609      1347  PPPE      H2S           -30.9662208080       24.9524394008      -15.4438712357  MEMB      87              0.0000000000
     49610      1347  PPPE      C3            -34.7736006111       28.9391101063      -15.7092727934  MEMB      87              0.0000000000
     49611      1347  PPPE      HX            -34.2431729256       29.8597112007      -15.5912201589  MEMB      87              0.0000000000
     49612      1347  PPPE      HY            -35.4395359409       29.5664777498      -16.2472067951  MEMB      87              0.0000000000
     49613      1347  PPPE      O31           -35.3369383871       28.3547336553      -14.5218491532  MEMB      87              0.0000000000
     49614      1347  PPPE      C31           -36.6298056777       28.3262357903      -14.7177098776  MEMB      87              0.0000000000
     49615      1347  PPPE      O32           -37.2194422286       29.0912136089      -15.4593933528  MEMB      87              0.0000000000
     49616      1347  PPPE      C32           -37.2348178760       27.4494801564      -13.6843234446  MEMB      87              0.0000000000
     49617      1347  PPPE      H2X           -37.8113172917       28.2409884876      -13.2132968738  MEMB      87              0.0000000000
     49618      1347  PPPE      H2Y           -36.4982317120       27.1724747983      -12.9293137692  MEMB      87              0.0000000000
     49619      1347  PPPE      C23           -32.6937078744       25.0496778645      -14.0814975909  MEMB      87              0.0000000000
     49620      1347  PPPE      H3R           -33.2644248560       24.2907891519      -14.6607518462  MEMB      87              0.0000000000
     49621      1347  PPPE      H3S           -33.3907918282       25.8262597340      -13.7087678629  MEMB      87              0.0000000000
     49622      1347  PPPE      C24           -32.1184774311       24.3989948828      -12.8292478095  MEMB      87              0.0000000000
     49623      1347  PPPE      H4R           -31.4025952292       25.0045458261      -12.3185260459  MEMB      87              0.0000000000
     49624      1347  PPPE      H4S           -31.4314699684       23.5997703053      -13.1273186386  MEMB      87              0.0000000000
     49625      1347  PPPE      C25           -33.1321034724       24.1422985852      -11.6984447491  MEMB      87              0.0000000000
     49626      1347  PPPE      H5R           -32.5752560301       23.6666122657      -10.8594624021  MEMB      87              0.0000000000
     49627      1347  PPPE      H5S           -33.9187194404       23.4212612925      -12.0011462089  MEMB      87              0.0000000000
     49628      1347  PPPE      C26           -33.7026390190       25.4499938639      -11.1187890361  MEMB      87              0.0000000000
     49629      1347  PPPE      H6R           -34.4136137415       25.9313866454      -11.8267491907  MEMB      87              0.0000000000
     49630      1347  PPPE      H6S           -32.8666450604       26.1801361497      -10.9920409699  MEMB      87              0.0000000000
     49631      1347  PPPE      C27           -34.3592252105       25.2440940590       -9.7418815678  MEMB      87              0.0000000000
     49632      1347  PPPE      H7R           -33.6408745223       24.7285383094       -9.0520144616  MEMB      87              0.0000000000
     49633      1347  PPPE      H7S           -35.2627802346       24.6301069718       -9.8436638544  MEMB      87              0.0000000000
     49634      1347  PPPE      C28           -34.7426051739       26.5855136468       -9.1156960581  MEMB      87              0.0000000000
     49635      1347  PPPE      H8R           -35.2046394607       27.2773428633       -9.8497844914  MEMB      87              0.0000000000
     49636      1347  PPPE      H8S           -33.7017554265       26.9290195904       -9.0294730550  MEMB      87              0.0000000000
     49637      1347  PPPE      C29           -35.6516514041       26.4820885797       -7.8960338454  MEMB      87              0.0000000000
     49638      1347  PPPE      H91           -36.6197819906       26.1452609888       -8.2036876295  MEMB      87              0.0000000000
     49639      1347  PPPE      C210          -35.5878568934       26.6911478624       -6.5564758607  MEMB      87              0.0000000000
     49640      1347  PPPE      H101          -36.4652792675       26.5745421538       -5.9181725248  MEMB      87              0.0000000000
     49641      1347  PPPE      C211          -34.5132376918       27.1528194631       -5.6863988451  MEMB      87              0.0000000000
     49642      1347  PPPE      H11R          -33.8618940752       27.2318239280       -6.4509953823  MEMB      87              0.0000000000
     49643      1347  PPPE      H11S          -33.7158055183       26.6099970405       -5.1441197370  MEMB      87              0.0000000000
     49644      1347  PPPE      C212          -35.0804348373       28.3341568582       -4.9890622210  MEMB      87              0.0000000000
     49645      1347  PPPE      H12R          -35.5708024741       29.1325390330       -5.5477313162  MEMB      87              0.0000000000
     49646      1347  PPPE      H12S          -34.7101554697       29.2902194679       -4.7266921156  MEMB      87              0.0000000000
     49647      1347  PPPE      C213          -35.0740574998       27.9096492815       -3.6289491810  MEMB      87              0.0000000000
     49648      1347  PPPE      H13R          -34.8889830629       26.8766002188       -3.4643433301  MEMB      87              0.0000000000
     49649      1347  PPPE      H13S          -36.0091024692       28.0339298767       -4.2455891337  MEMB      87              0.0000000000
     49650      1347  PPPE      C214          -34.8991430117       28.7378456175       -2.3487789812  MEMB      87              0.0000000000
     49651      1347  PPPE      H14R          -34.8968809198       29.3815986995       -3.0125078372  MEMB      87              0.0000000000
     49652      1347  PPPE      H14S          -33.9591776070       29.1746921801       -2.1214800830  MEMB      87              0.0000000000
     49653      1347  PPPE      C215          -35.9440768552       29.1247973360       -1.3358797202  MEMB      87              0.0000000000
     49654      1347  PPPE      H15R          -37.0374243139       29.2972240003       -1.5213022315  MEMB      87              0.0000000000
     49655      1347  PPPE      H15S          -36.0621675968       29.9602849335       -0.7237519380  MEMB      87              0.0000000000
     49656      1347  PPPE      C216          -35.3762466910       28.0330009065       -0.5155291486  MEMB      87              0.0000000000
     49657      1347  PPPE      H16R          -34.4012192761       28.1864934676       -0.1833495075  MEMB      87              0.0000000000
     49658      1347  PPPE      H16S          -35.8488145611       27.9459252733        0.4648826328  MEMB      87              0.0000000000
     49659      1347  PPPE      H16T          -35.5796130438       27.0939613128       -1.1225992533  MEMB      87              0.0000000000
     49660      1347  PPPE      C33           -37.9393098163       26.1781536321      -14.2281134496  MEMB      87              0.0000000000
     49661      1347  PPPE      H3X           -37.1938947749       25.4829685548      -14.6400533880  MEMB      87              0.0000000000
     49662      1347  PPPE      H3Y           -38.5281113060       26.3656096911      -15.1404465280  MEMB      87              0.0000000000
     49663      1347  PPPE      C34           -38.7513018484       25.3989588438      -13.1851240619  MEMB      87              0.0000000000
     49664      1347  PPPE      H4X           -39.2761857824       24.5346431601      -13.6434566776  MEMB      87              0.0000000000
     49665      1347  PPPE      H4Y           -39.5498812192       26.0084828955      -12.7869898964  MEMB      87              0.0000000000
     49666      1347  PPPE      C35           -37.9500959765       25.0207579292      -11.9476807653  MEMB      87              0.0000000000
     49667      1347  PPPE      H5X           -37.5745486210       25.9490208890      -11.4730169911  MEMB      87              0.0000000000
     49668      1347  PPPE      H5Y           -37.1044077970       24.3909350448      -12.3103753238  MEMB      87              0.0000000000
     49669      1347  PPPE      C36           -38.8363067469       24.4112292501      -10.8516931366  MEMB      87              0.0000000000
     49670      1347  PPPE      H6X           -39.2824152967       23.5705265911      -11.4058392824  MEMB      87              0.0000000000
     49671      1347  PPPE      H6Y           -39.7254762817       25.0472472592      -10.7392373444  MEMB      87              0.0000000000
     49672      1347  PPPE      C37           -38.0522120279       24.3275737391       -9.4793460809  MEMB      87              0.0000000000
     49673      1347  PPPE      H7X           -37.8877178219       25.3088457187       -9.0948780423  MEMB      87              0.0000000000
     49674      1347  PPPE      H7Y           -37.0737812527       23.8352938646       -9.6322680832  MEMB      87              0.0000000000
     49675      1347  PPPE      C38           -38.5684027476       23.7176044496       -8.1914028425  MEMB      87              0.0000000000
     49676      1347  PPPE      H8X           -39.1410829541       22.8514318109       -8.4829004954  MEMB      87              0.0000000000
     49677      1347  PPPE      H8Y           -39.6132555592       24.0093281732       -8.0904404513  MEMB      87              0.0000000000
     49678      1347  PPPE      C39           -37.5498342505       23.5953871683       -6.9395036993  MEMB      87              0.0000000000
     49679      1347  PPPE      H9X           -36.3525431916       23.9815687268       -6.5629241810  MEMB      87              0.0000000000
     49680      1347  PPPE      H9Y           -38.4773827394       23.1422371729       -6.4163462746  MEMB      87              0.0000000000
     49681      1347  PPPE      C310          -37.8529451014       24.6435252721       -6.0225018407  MEMB      87              0.0000000000
     49682      1347  PPPE      H10X          -38.9056254381       24.9098277243       -6.0048428771  MEMB      87              0.0000000000
     49683      1347  PPPE      H10Y          -37.4934678529       25.1150899754       -6.9756656579  MEMB      87              0.0000000000
     49684      1347  PPPE      C311          -37.3143620963       23.7273708054       -4.8864291933  MEMB      87              0.0000000000
     49685      1347  PPPE      H11X          -36.9673453521       24.6018609665       -4.3674089351  MEMB      87              0.0000000000
     49686      1347  PPPE      H11Y          -36.5143121685       22.9702939901       -5.1804770159  MEMB      87              0.0000000000
     49687      1347  PPPE      C312          -38.3079222699       23.1333621193       -4.0259791508  MEMB      87              0.0000000000
     49688      1347  PPPE      H12X          -38.5711372357       22.0418237710       -4.0226980913  MEMB      87              0.0000000000
     49689      1347  PPPE      H12Y          -39.2091942971       23.7275969390       -4.2915814353  MEMB      87              0.0000000000
     49690      1347  PPPE      C313          -37.7301047590       23.5087088075       -2.7134201366  MEMB      87              0.0000000000
     49691      1347  PPPE      H13X          -38.7841034598       23.3634746437       -2.5171799942  MEMB      87              0.0000000000
     49692      1347  PPPE      H13Y          -37.3227337903       24.4816137250       -2.4696844854  MEMB      87              0.0000000000
     49693      1347  PPPE      C314          -36.8709392409       22.5138427683       -2.0332755705  MEMB      87              0.0000000000
     49694      1347  PPPE      H14X          -35.8315419471       22.7717296557       -2.3080479030  MEMB      87              0.0000000000
     49695      1347  PPPE      H14Y          -37.4228260590       21.7226108150       -2.5296105646  MEMB      87              0.0000000000
     49696      1347  PPPE      C315          -36.3897968776       22.2823707921       -0.6822605345  MEMB      87              0.0000000000
     49697      1347  PPPE      H15X          -36.2544545396       23.3818308868       -0.5722814008  MEMB      87              0.0000000000
     49698      1347  PPPE      H15Y          -35.5359643301       21.7234051136       -0.2789162841  MEMB      87              0.0000000000
     49699      1347  PPPE      C316          -37.1102508728       21.4489184440        0.2094744000  MEMB      87              0.0000000000
     49700      1347  PPPE      H16X          -38.1605174194       21.1759118399        0.0518852767  MEMB      87              0.0000000000
     49701      1347  PPPE      H16Y          -36.6990361813       20.6283269711        0.7620688440  MEMB      87              0.0000000000
     49702      1347  PPPE      H16Z          -36.9992561304       22.3152269452        0.8701113171  MEMB      87              0.0000000000
     49703      1348  PVCL2     C3            -21.7385934753       46.0409111938      -17.3928299133  MEMB      88              0.0000000000
     49704      1348  PVCL2     HG31          -21.2898668428       46.4536168778      -16.4598181760  MEMB      88              0.0000000000
     49705      1348  PVCL2     HG32          -22.8399250663       46.0705475998      -17.2652484066  MEMB      88              0.0000000000
     49706      1348  PVCL2     P3            -20.6092068792       43.7678336380      -16.6870070015  MEMB      88              0.0000000000
     49707      1348  PVCL2     OP33          -21.5610712805       43.2664277594      -15.6736819251  MEMB      88              0.0000000000
     49708      1348  PVCL2     OP34          -19.4146185555       44.5212806100      -16.2347565966  MEMB      88              0.0000000000
     49709      1348  PVCL2     OP31          -21.3882003951       44.6931756685      -17.6566984492  MEMB      88              0.0000000000
     49710      1348  PVCL2     OP32          -20.1422180364       42.6068954213      -17.6572329607  MEMB      88              0.0000000000
     49711      1348  PVCL2     C31           -19.7503343769       42.8103162988      -19.0238515429  MEMB      88              0.0000000000
     49712      1348  PVCL2     H31J          -20.6588508341       42.7078507824      -19.6679546218  MEMB      88              0.0000000000
     49713      1348  PVCL2     H31K          -19.3662847365       43.8291405489      -19.2160134975  MEMB      88              0.0000000000
     49714      1348  PVCL2     C2            -21.3058040473       46.9118225518      -18.5923718774  MEMB      88              0.0000000000
     49715      1348  PVCL2     HG22          -21.9592656943       47.8125796006      -18.6279457504  MEMB      88              0.0000000000
     49716      1348  PVCL2     OG12          -19.9354883481       47.2942406282      -18.4350514547  MEMB      88              0.0000000000
     49717      1348  PVCL2     HO12          -19.8725576952       48.2450651443      -18.4619972614  MEMB      88              0.0000000000
     49718      1348  PVCL2     C1            -21.4693217540       46.1737066485      -19.9405038883  MEMB      88              0.0000000000
     49719      1348  PVCL2     HG11          -20.7582667196       45.3140348317      -19.9460273972  MEMB      88              0.0000000000
     49720      1348  PVCL2     HG12          -21.2185531795       46.8974037600      -20.7430074429  MEMB      88              0.0000000000
     49721      1348  PVCL2     P1            -23.2536503642       44.4731838654      -20.9325828616  MEMB      88              0.0000000000
     49722      1348  PVCL2     OP13          -24.1770151384       44.9525771466      -21.9851294367  MEMB      88              0.0000000000
     49723      1348  PVCL2     OP14          -22.1351629440       43.6258677622      -21.3767384432  MEMB      88              0.0000000000
     49724      1348  PVCL2     OP11          -22.8108669176       45.7502887627      -20.1086775338  MEMB      88              0.0000000000
     49725      1348  PVCL2     OP12          -24.0536844863       43.7032530444      -19.8152715673  MEMB      88              0.0000000000
     49726      1348  PVCL2     C11           -25.3736820475       43.2904574524      -20.0841057643  MEMB      88              0.0000000000
     49727      1348  PVCL2     H11J          -25.3853449115       42.6961766488      -21.0241430788  MEMB      88              0.0000000000
     49728      1348  PVCL2     H11K          -26.0074902571       44.1878632798      -20.2579875011  MEMB      88              0.0000000000
     49729      1348  PVCL2     C12           -25.9378937403       42.4072133010      -18.9220151455  MEMB      88              0.0000000000
     49730      1348  PVCL2     H12J          -27.0443874724       42.4871908430      -18.9275394770  MEMB      88              0.0000000000
     49731      1348  PVCL2     O12           -25.4785669413       42.7444501738      -17.6028244452  MEMB      88              0.0000000000
     49732      1348  PVCL2     CA1           -25.7132755040       43.9970039420      -17.2725613643  MEMB      88              0.0000000000
     49733      1348  PVCL2     OA1           -26.4575193882       44.7670524639      -17.8670425997  MEMB      88              0.0000000000
     49734      1348  PVCL2     CA2           -24.9847076537       44.3189924021      -15.9629944218  MEMB      88              0.0000000000
     49735      1348  PVCL2     H2A           -25.2928965908       45.3196144206      -15.5932339264  MEMB      88              0.0000000000
     49736      1348  PVCL2     H2B           -23.9114347087       44.3720280546      -16.2417454977  MEMB      88              0.0000000000
     49737      1348  PVCL2     C13           -25.5902928512       40.9235248082      -19.2115701992  MEMB      88              0.0000000000
     49738      1348  PVCL2     H13J          -24.4933358174       40.7358229368      -19.2936770715  MEMB      88              0.0000000000
     49739      1348  PVCL2     H13K          -26.0231158719       40.7688347034      -20.2228379129  MEMB      88              0.0000000000
     49740      1348  PVCL2     O13           -26.2573661912       40.0256136399      -18.3064706117  MEMB      88              0.0000000000
     49741      1348  PVCL2     CB1           -25.5609933601       39.7809245551      -17.1671170434  MEMB      88              0.0000000000
     49742      1348  PVCL2     OB1           -24.4398952027       40.1574590624      -16.9273529564  MEMB      88              0.0000000000
     49743      1348  PVCL2     CB2           -26.3829824572       38.9989795302      -16.1844787581  MEMB      88              0.0000000000
     49744      1348  PVCL2     H2D           -25.9391928528       37.9778817443      -16.1627279149  MEMB      88              0.0000000000
     49745      1348  PVCL2     H2E           -27.4402905690       39.0133092333      -16.5270297145  MEMB      88              0.0000000000
     49746      1348  PVCL2     C32           -18.7550073649       41.6839657241      -19.5522140436  MEMB      88              0.0000000000
     49747      1348  PVCL2     H32J          -18.9771030736       41.3816358701      -20.5885921230  MEMB      88              0.0000000000
     49748      1348  PVCL2     O32           -18.7233416244       40.5034472365      -18.6401137666  MEMB      88              0.0000000000
     49749      1348  PVCL2     CC1           -20.0076827372       40.0424228048      -18.6629468493  MEMB      88              0.0000000000
     49750      1348  PVCL2     OC1           -20.8209359562       40.4390019132      -19.4606273055  MEMB      88              0.0000000000
     49751      1348  PVCL2     CC2           -20.6339395051       39.0511787856      -17.7391276735  MEMB      88              0.0000000000
     49752      1348  PVCL2     H2R           -20.1727144019       38.6034418625      -16.9874173654  MEMB      88              0.0000000000
     49753      1348  PVCL2     H2S           -20.8254609854       38.0478155352      -18.1408391888  MEMB      88              0.0000000000
     49754      1348  PVCL2     C33           -17.3209126786       42.2503554026      -19.7653491946  MEMB      88              0.0000000000
     49755      1348  PVCL2     H33J          -16.8071207070       41.8467890713      -20.6250463571  MEMB      88              0.0000000000
     49756      1348  PVCL2     H33K          -17.3842756031       43.3989843100      -19.8503276482  MEMB      88              0.0000000000
     49757      1348  PVCL2     O33           -16.4648863639       41.7989997781      -18.7644218535  MEMB      88              0.0000000000
     49758      1348  PVCL2     CD1           -15.7676239728       40.6719653924      -18.2155937796  MEMB      88              0.0000000000
     49759      1348  PVCL2     OD1           -15.6705951224       39.7153525317      -18.9297577188  MEMB      88              0.0000000000
     49760      1348  PVCL2     CD2           -15.0420797086       40.8183665467      -16.5317502254  MEMB      88              0.0000000000
     49761      1348  PVCL2     H2X           -14.1591494273       41.3428577587      -16.4403237207  MEMB      88              0.0000000000
     49762      1348  PVCL2     H2Y           -14.2135024003       40.1989608642      -16.3740151429  MEMB      88              0.0000000000
     49763      1348  PVCL2     CA3           -25.1518358401       43.2735638389      -14.8243012657  MEMB      88              0.0000000000
     49764      1348  PVCL2     H3A           -24.7319742083       42.2950885650      -15.1620040682  MEMB      88              0.0000000000
     49765      1348  PVCL2     H3B           -26.2251785819       43.1183940619      -14.5871724895  MEMB      88              0.0000000000
     49766      1348  PVCL2     CA4           -24.4293995460       43.7481421645      -13.5468024241  MEMB      88              0.0000000000
     49767      1348  PVCL2     H4A           -24.1468226544       44.8107476111      -13.7209132801  MEMB      88              0.0000000000
     49768      1348  PVCL2     H4B           -23.4922563687       43.1604490240      -13.4288910613  MEMB      88              0.0000000000
     49769      1348  PVCL2     CA5           -25.2762485817       43.6248241953      -12.2660131668  MEMB      88              0.0000000000
     49770      1348  PVCL2     H5A           -25.8749254772       42.6950084727      -12.4070202770  MEMB      88              0.0000000000
     49771      1348  PVCL2     H5B           -25.9817678442       44.4763246518      -12.1835105108  MEMB      88              0.0000000000
     49772      1348  PVCL2     CA6           -24.4926179300       43.5047050860      -10.9398824500  MEMB      88              0.0000000000
     49773      1348  PVCL2     H6A           -23.7860864799       42.6547441466      -11.0246469734  MEMB      88              0.0000000000
     49774      1348  PVCL2     H6B           -25.2176937712       43.2539054204      -10.1321463062  MEMB      88              0.0000000000
     49775      1348  PVCL2     CA7           -23.7020850700       44.7450099317      -10.4707410255  MEMB      88              0.0000000000
     49776      1348  PVCL2     H7A           -22.8663018021       44.9323297950      -11.1742783762  MEMB      88              0.0000000000
     49777      1348  PVCL2     H7B           -23.2508562162       44.5006316080       -9.4857801060  MEMB      88              0.0000000000
     49778      1348  PVCL2     CA8           -24.5454340951       46.0058579569      -10.3117549060  MEMB      88              0.0000000000
     49779      1348  PVCL2     H8A           -24.8522143243       46.2879986700      -11.3431035798  MEMB      88              0.0000000000
     49780      1348  PVCL2     H8B           -23.9841404587       46.8746635461       -9.9029907139  MEMB      88              0.0000000000
     49781      1348  PVCL2     CA9           -25.7846550165       45.7564652050       -9.4505187109  MEMB      88              0.0000000000
     49782      1348  PVCL2     H9A           -26.4286178521       45.0237384062       -9.9762781681  MEMB      88              0.0000000000
     49783      1348  PVCL2     H9B           -26.3760856843       46.6539947221       -9.3811715968  MEMB      88              0.0000000000
     49784      1348  PVCL2     CA10          -25.5163074925       45.3678613914       -7.9966343019  MEMB      88              0.0000000000
     49785      1348  PVCL2     H10A          -24.7939569711       44.5281647269       -7.9944549848  MEMB      88              0.0000000000
     49786      1348  PVCL2     H10B          -26.4613560951       44.9721075026       -7.5808461417  MEMB      88              0.0000000000
     49787      1348  PVCL2     CA11          -25.0922577193       46.5124234538       -7.1173705635  MEMB      88              0.0000000000
     49788      1348  PVCL2     H11A          -25.8490517456       47.2640153337       -6.8540019768  MEMB      88              0.0000000000
     49789      1348  PVCL2     CA12          -23.8671953402       46.7389060099       -6.6769195326  MEMB      88              0.0000000000
     49790      1348  PVCL2     H12A          -23.7777057292       47.5188910278       -5.9091825753  MEMB      88              0.0000000000
     49791      1348  PVCL2     CA13          -22.6406057209       45.9228486644       -6.9526566685  MEMB      88              0.0000000000
     49792      1348  PVCL2     H13A          -21.9351850288       46.3938086319       -7.6965912360  MEMB      88              0.0000000000
     49793      1348  PVCL2     H13B          -22.9048033733       44.9361986461       -7.3193113849  MEMB      88              0.0000000000
     49794      1348  PVCL2     CA14          -21.8699606451       45.6682867893       -5.6831996057  MEMB      88              0.0000000000
     49795      1348  PVCL2     H14A          -21.4115727750       46.6071860185       -5.6455607409  MEMB      88              0.0000000000
     49796      1348  PVCL2     H14B          -21.0141749300       44.9784370473       -5.7508351592  MEMB      88              0.0000000000
     49797      1348  PVCL2     CA15          -22.5516443334       45.5992039734       -4.3490711499  MEMB      88              0.0000000000
     49798      1348  PVCL2     H15A          -23.4575429938       44.9691242576       -4.4107382289  MEMB      88              0.0000000000
     49799      1348  PVCL2     H15B          -22.9638797995       46.5615475268       -3.9914921425  MEMB      88              0.0000000000
     49800      1348  PVCL2     CA16          -21.5104739527       45.0303149628       -3.4024475376  MEMB      88              0.0000000000
     49801      1348  PVCL2     H16A          -20.7543778412       45.6811350254       -2.9123993889  MEMB      88              0.0000000000
     49802      1348  PVCL2     H16B          -21.0487109445       44.1050594997       -3.7939937204  MEMB      88              0.0000000000
     49803      1348  PVCL2     CA17          -22.2694091615       44.7490579991       -2.2488514283  MEMB      88              0.0000000000
     49804      1348  PVCL2     H17A          -21.6897798671       44.1107203615       -1.5562226638  MEMB      88              0.0000000000
     49805      1348  PVCL2     H17B          -23.0031186438       43.9605442451       -2.6110026261  MEMB      88              0.0000000000
     49806      1348  PVCL2     CA18          -22.7799881929       46.1957392215       -1.7278863135  MEMB      88              0.0000000000
     49807      1348  PVCL2     H18A          -23.8451743103       46.2914682430       -2.0917415292  MEMB      88              0.0000000000
     49808      1348  PVCL2     H18B          -22.1769902604       46.8037657948       -1.0474581372  MEMB      88              0.0000000000
     49809      1348  PVCL2     H18C          -23.1269068799       46.3484971108       -0.6669495343  MEMB      88              0.0000000000
     49810      1348  PVCL2     CB3           -26.2865896116       39.6085548675      -14.7969756904  MEMB      88              0.0000000000
     49811      1348  PVCL2     H3D           -26.7931641994       40.5896347608      -14.7834363066  MEMB      88              0.0000000000
     49812      1348  PVCL2     H3E           -25.2445008324       39.5656361900      -14.4302271408  MEMB      88              0.0000000000
     49813      1348  PVCL2     CB4           -27.0696305955       38.9237892730      -13.7603017064  MEMB      88              0.0000000000
     49814      1348  PVCL2     H4D           -26.6065952569       37.9730819978      -13.6050509435  MEMB      88              0.0000000000
     49815      1348  PVCL2     H4E           -27.8380959013       38.5206863026      -14.2969209430  MEMB      88              0.0000000000
     49816      1348  PVCL2     CB5           -27.5296360665       39.8382169785      -12.6113629565  MEMB      88              0.0000000000
     49817      1348  PVCL2     H5D           -26.8378653724       40.6469073339      -12.4075456874  MEMB      88              0.0000000000
     49818      1348  PVCL2     H5E           -27.3730353855       39.1696312026      -11.7520560992  MEMB      88              0.0000000000
     49819      1348  PVCL2     CB6           -28.9922797424       40.3929030638      -12.5236574561  MEMB      88              0.0000000000
     49820      1348  PVCL2     H6D           -29.8908052320       39.7728300319      -12.7916019075  MEMB      88              0.0000000000
     49821      1348  PVCL2     H6E           -29.3911089066       40.9003893508      -13.3951578437  MEMB      88              0.0000000000
     49822      1348  PVCL2     CB7           -29.2955458820       40.8451415564      -11.0675921713  MEMB      88              0.0000000000
     49823      1348  PVCL2     H7D           -30.3923744856       40.5926054946      -11.0778491934  MEMB      88              0.0000000000
     49824      1348  PVCL2     H7E           -28.8587466689       41.8402052263      -11.0458481010  MEMB      88              0.0000000000
     49825      1348  PVCL2     CB8           -28.9313831209       40.3327494548       -9.6557066720  MEMB      88              0.0000000000
     49826      1348  PVCL2     H8D           -27.9211663919       39.8660462799       -9.6516314771  MEMB      88              0.0000000000
     49827      1348  PVCL2     H8E           -29.8483777986       39.6302813482       -9.4937260937  MEMB      88              0.0000000000
     49828      1348  PVCL2     CB9           -29.0285230493       40.9615290417       -8.3545491161  MEMB      88              0.0000000000
     49829      1348  PVCL2     H9D           -28.7590251025       40.3318854810       -7.4790824539  MEMB      88              0.0000000000
     49830      1348  PVCL2     H9E           -30.0916238980       40.8863618478       -8.2425555467  MEMB      88              0.0000000000
     49831      1348  PVCL2     CB10          -28.2642625072       42.2140827321       -8.3661215845  MEMB      88              0.0000000000
     49832      1348  PVCL2     H10D          -28.8886366450       42.9927492658       -8.8382141564  MEMB      88              0.0000000000
     49833      1348  PVCL2     H10E          -27.3208547938       42.0809597527       -8.9353001246  MEMB      88              0.0000000000
     49834      1348  PVCL2     CB11          -28.0317309159       42.5920557874       -6.9487991718  MEMB      88              0.0000000000
     49835      1348  PVCL2     H11D          -28.9547616277       42.3010747679       -6.4421296243  MEMB      88              0.0000000000
     49836      1348  PVCL2     H11E          -27.9223748174       43.6903748959       -6.9343601721  MEMB      88              0.0000000000
     49837      1348  PVCL2     CB12          -26.8851697042       41.9201859092       -6.2244686766  MEMB      88              0.0000000000
     49838      1348  PVCL2     H12D          -25.9856473052       42.2760619258       -6.7600178807  MEMB      88              0.0000000000
     49839      1348  PVCL2     H12E          -26.9347436708       40.8077084776       -6.2629902002  MEMB      88              0.0000000000
     49840      1348  PVCL2     CB13          -26.8066870891       42.4016938724       -4.7763671604  MEMB      88              0.0000000000
     49841      1348  PVCL2     H13D          -25.8742477782       42.0054578243       -4.3330196944  MEMB      88              0.0000000000
     49842      1348  PVCL2     H13E          -27.6439987405       41.9382638220       -4.2227369686  MEMB      88              0.0000000000
     49843      1348  PVCL2     CB14          -26.7227112653       43.9387972266       -4.6868949819  MEMB      88              0.0000000000
     49844      1348  PVCL2     H14D          -27.6842201861       44.4588375265       -4.7632075637  MEMB      88              0.0000000000
     49845      1348  PVCL2     H14E          -26.1245218705       44.2722758318       -5.5616951831  MEMB      88              0.0000000000
     49846      1348  PVCL2     CB15          -26.1046252108       44.4810692701       -3.4068981930  MEMB      88              0.0000000000
     49847      1348  PVCL2     H15D          -26.0432945358       45.5929238230       -3.4475094095  MEMB      88              0.0000000000
     49848      1348  PVCL2     H15E          -25.0818968673       44.0514085845       -3.3580253379  MEMB      88              0.0000000000
     49849      1348  PVCL2     CB16          -26.8057737453       44.0770825085       -2.1250254088  MEMB      88              0.0000000000
     49850      1348  PVCL2     H16D          -27.7845763811       44.5251025062       -1.9298429766  MEMB      88              0.0000000000
     49851      1348  PVCL2     H16E          -26.2704170936       44.5031983912       -1.2857319260  MEMB      88              0.0000000000
     49852      1348  PVCL2     H16F          -26.8205102708       42.9700817413       -2.0478100157  MEMB      88              0.0000000000
     49853      1348  PVCL2     CC3           -21.1714417696       39.8223374450      -16.5331938588  MEMB      88              0.0000000000
     49854      1348  PVCL2     H3R           -22.0748378722       40.2212505311      -16.9731761491  MEMB      88              0.0000000000
     49855      1348  PVCL2     H3S           -20.4477356784       40.6386298725      -16.2329683480  MEMB      88              0.0000000000
     49856      1348  PVCL2     CC4           -21.4226330443       39.0563555537      -15.2315700786  MEMB      88              0.0000000000
     49857      1348  PVCL2     H4R           -20.4724377740       39.0988156110      -14.6392660920  MEMB      88              0.0000000000
     49858      1348  PVCL2     H4S           -21.8129842083       38.0221551026      -15.3847776026  MEMB      88              0.0000000000
     49859      1348  PVCL2     CC5           -22.2524643644       39.8090645550      -14.2578737056  MEMB      88              0.0000000000
     49860      1348  PVCL2     H5R           -23.1728811598       40.0234086242      -14.8242291711  MEMB      88              0.0000000000
     49861      1348  PVCL2     H5S           -21.6725449900       40.7450529353      -14.0671963193  MEMB      88              0.0000000000
     49862      1348  PVCL2     CC6           -22.5875816358       39.0201665736      -12.9950160510  MEMB      88              0.0000000000
     49863      1348  PVCL2     H6R           -21.7407563552       38.3789561182      -12.6500282450  MEMB      88              0.0000000000
     49864      1348  PVCL2     H6S           -23.4326663221       38.3599743199      -13.3009000288  MEMB      88              0.0000000000
     49865      1348  PVCL2     CC7           -23.1018512311       39.9596371855      -11.9000904288  MEMB      88              0.0000000000
     49866      1348  PVCL2     H7R           -23.6983238419       40.7659450625      -12.3694042298  MEMB      88              0.0000000000
     49867      1348  PVCL2     H7S           -22.2866525305       40.3881459580      -11.2854261218  MEMB      88              0.0000000000
     49868      1348  PVCL2     CC8           -24.0484970842       39.3119548164      -10.9672218551  MEMB      88              0.0000000000
     49869      1348  PVCL2     H8R           -24.7980189944       38.7411025688      -11.5868856311  MEMB      88              0.0000000000
     49870      1348  PVCL2     H8S           -24.6642125743       39.9984800985      -10.3459010051  MEMB      88              0.0000000000
     49871      1348  PVCL2     CC9           -23.2688668882       38.5065003805       -9.9356434597  MEMB      88              0.0000000000
     49872      1348  PVCL2     H9R           -22.8076555009       38.9684552331       -9.0530537726  MEMB      88              0.0000000000
     49873      1348  PVCL2     H9S           -22.5929325763       37.7195369557      -10.3805743690  MEMB      88              0.0000000000
     49874      1348  PVCL2     CC10          -24.2969624952       37.8999912011       -9.0942920366  MEMB      88              0.0000000000
     49875      1348  PVCL2     H10R          -23.7443284795       37.0795867165       -8.6088887047  MEMB      88              0.0000000000
     49876      1348  PVCL2     H10S          -24.7871971525       37.7109386175      -10.0488951770  MEMB      88              0.0000000000
     49877      1348  PVCL2     CC11          -25.5998320830       38.1918679930       -8.4770290258  MEMB      88              0.0000000000
     49878      1348  PVCL2     H11R          -26.4778538839       37.9381680747       -9.0631446297  MEMB      88              0.0000000000
     49879      1348  PVCL2     CC12          -25.7572572798       38.3665340271       -7.2145098041  MEMB      88              0.0000000000
     49880      1348  PVCL2     H12R          -26.7617777193       38.5141847357       -6.8326357590  MEMB      88              0.0000000000
     49881      1348  PVCL2     CC13          -24.6193842143       38.3189964700       -6.2840947843  MEMB      88              0.0000000000
     49882      1348  PVCL2     H13R          -24.8393130521       39.0983604122       -5.5735860922  MEMB      88              0.0000000000
     49883      1348  PVCL2     H13S          -23.6080857342       38.4081871428       -6.7434686689  MEMB      88              0.0000000000
     49884      1348  PVCL2     CC14          -24.5696454501       37.2175076665       -5.3775752372  MEMB      88              0.0000000000
     49885      1348  PVCL2     H14R          -25.4089335241       37.1784936276       -4.6456840858  MEMB      88              0.0000000000
     49886      1348  PVCL2     H14S          -23.5634115904       37.1282091652       -4.8827266916  MEMB      88              0.0000000000
     49887      1348  PVCL2     CC15          -24.7114749902       36.0431797844       -6.1765536874  MEMB      88              0.0000000000
     49888      1348  PVCL2     H15R          -23.6966169456       35.6806490462       -6.5602657462  MEMB      88              0.0000000000
     49889      1348  PVCL2     H15S          -25.6510451250       35.8922860110       -6.7274488660  MEMB      88              0.0000000000
     49890      1348  PVCL2     CC16          -25.0525430556       35.0753139870       -5.2783187649  MEMB      88              0.0000000000
     49891      1348  PVCL2     H16R          -24.3240011282       35.4405461138       -4.5711700723  MEMB      88              0.0000000000
     49892      1348  PVCL2     H16S          -24.7627118428       34.2977454812       -5.9699268343  MEMB      88              0.0000000000
     49893      1348  PVCL2     CC17          -25.9412621839       34.9927359778       -4.1639274527  MEMB      88              0.0000000000
     49894      1348  PVCL2     H17R          -26.8855619541       34.6917774609       -4.5318578852  MEMB      88              0.0000000000
     49895      1348  PVCL2     H17S          -25.8548489783       35.7524819507       -3.3631108556  MEMB      88              0.0000000000
     49896      1348  PVCL2     CC18          -25.8861623606       33.9724431851       -3.2759936804  MEMB      88              0.0000000000
     49897      1348  PVCL2     H18R          -26.4509976117       33.9664407422       -2.4244000869  MEMB      88              0.0000000000
     49898      1348  PVCL2     H18S          -25.0346630144       33.3742363516       -2.9445397082  MEMB      88              0.0000000000
     49899      1348  PVCL2     H18T          -26.0528214351       33.1329347913       -3.7916516490  MEMB      88              0.0000000000
     49900      1348  PVCL2     CD3           -15.4074539966       41.4918688854      -14.9167782549  MEMB      88              0.0000000000
     49901      1348  PVCL2     H3X           -16.1052641485       40.9371642518      -15.4916645931  MEMB      88              0.0000000000
     49902      1348  PVCL2     H3Y           -15.7300674723       42.6089161795      -14.8996144362  MEMB      88              0.0000000000
     49903      1348  PVCL2     CD4           -16.0676454694       40.8839234320      -13.3626131441  MEMB      88              0.0000000000
     49904      1348  PVCL2     H4X           -15.3812487703       41.8437679720      -13.3680481101  MEMB      88              0.0000000000
     49905      1348  PVCL2     H4Y           -15.2887010775       40.4100035329      -12.9460629479  MEMB      88              0.0000000000
     49906      1348  PVCL2     CD5           -18.1963738586       41.0260888280      -12.5127742231  MEMB      88              0.0000000000
     49907      1348  PVCL2     H5X           -17.7452795022       40.4483165059      -11.8231059506  MEMB      88              0.0000000000
     49908      1348  PVCL2     H5Y           -18.9460281571       40.3114796775      -12.8919280465  MEMB      88              0.0000000000
     49909      1348  PVCL2     CD6           -19.3713365628       42.6786017926      -12.9611496721  MEMB      88              0.0000000000
     49910      1348  PVCL2     H6X           -19.7921206190       42.8992534389      -14.0068349581  MEMB      88              0.0000000000
     49911      1348  PVCL2     H6Y           -18.7809654245       43.6483521198      -13.4382372858  MEMB      88              0.0000000000
     49912      1348  PVCL2     CD7           -19.7721832859       43.6416069369      -11.9719913210  MEMB      88              0.0000000000
     49913      1348  PVCL2     H7X           -20.0493453056       44.6543189960      -12.3867786840  MEMB      88              0.0000000000
     49914      1348  PVCL2     H7Y           -18.9725693345       43.9044358414      -11.2613192429  MEMB      88              0.0000000000
     49915      1348  PVCL2     CD8           -20.6687777493       42.5437533301      -11.5622608945  MEMB      88              0.0000000000
     49916      1348  PVCL2     H8X           -20.3746750986       41.4629451561      -11.6322050615  MEMB      88              0.0000000000
     49917      1348  PVCL2     H8Y           -21.4731762537       42.5653269519      -12.3250648779  MEMB      88              0.0000000000
     49918      1348  PVCL2     CD9           -20.9383322734       42.7782996565      -10.1418511329  MEMB      88              0.0000000000
     49919      1348  PVCL2     H9X           -22.0083829414       42.5834544138      -10.0636322345  MEMB      88              0.0000000000
     49920      1348  PVCL2     H9Y           -20.6972205560       43.8538291805      -10.0063826370  MEMB      88              0.0000000000
     49921      1348  PVCL2     CD10          -20.2792663868       41.8678828777       -9.1142358004  MEMB      88              0.0000000000
     49922      1348  PVCL2     H10X          -19.2215454241       41.9101403120       -9.0119213378  MEMB      88              0.0000000000
     49923      1348  PVCL2     H10Y          -20.4542554079       40.7947376882       -9.3204855638  MEMB      88              0.0000000000
     49924      1348  PVCL2     CD11          -20.6391095614       42.2660364785       -7.6977613193  MEMB      88              0.0000000000
     49925      1348  PVCL2     H11X          -20.4050653984       43.3382074710       -7.5061224573  MEMB      88              0.0000000000
     49926      1348  PVCL2     H11Y          -19.9108642044       41.7241902472       -7.0574246522  MEMB      88              0.0000000000
     49927      1348  PVCL2     CD12          -22.0639645168       41.7845687144       -7.4372679011  MEMB      88              0.0000000000
     49928      1348  PVCL2     H12X          -22.1167757607       40.7327067828       -7.7997401957  MEMB      88              0.0000000000
     49929      1348  PVCL2     H12Y          -22.8178371125       42.3502299656       -8.0294387426  MEMB      88              0.0000000000
     49930      1348  PVCL2     CD13          -22.4770199631       41.8036526833       -5.9726581353  MEMB      88              0.0000000000
     49931      1348  PVCL2     H13X          -23.5832181652       41.6686057947       -5.9299449069  MEMB      88              0.0000000000
     49932      1348  PVCL2     H13Y          -22.2058237110       42.7961242705       -5.5524279858  MEMB      88              0.0000000000
     49933      1348  PVCL2     CD14          -21.7645603190       40.7400674312       -5.1395228825  MEMB      88              0.0000000000
     49934      1348  PVCL2     H14X          -20.6799970244       40.7787381790       -5.3712089241  MEMB      88              0.0000000000
     49935      1348  PVCL2     H14Y          -22.1747297040       39.7233704806       -5.3380147530  MEMB      88              0.0000000000
     49936      1348  PVCL2     CD15          -21.8543439301       41.0045475247       -3.6568150275  MEMB      88              0.0000000000
     49937      1348  PVCL2     H15X          -21.6550866287       42.0762212041       -3.4355014728  MEMB      88              0.0000000000
     49938      1348  PVCL2     H15Y          -21.0828173022       40.3670293638       -3.1587845616  MEMB      88              0.0000000000
     49939      1348  PVCL2     CD16          -23.2144980015       40.6589305486       -3.1230498025  MEMB      88              0.0000000000
     49940      1348  PVCL2     H16X          -23.9917966485       41.2714406253       -3.6093883698  MEMB      88              0.0000000000
     49941      1348  PVCL2     H16Y          -23.3160231229       40.8132933422       -2.0407505927  MEMB      88              0.0000000000
     49942      1348  PVCL2     H16Z          -23.4044352976       39.5883614536       -3.3187473018  MEMB      88              0.0000000000
     49943      1349  PVPG      C13           -27.9420381581       32.8894073378      -20.2930190541  MEMB      89              0.0000000000
     49944      1349  PVPG      H13A          -26.9090947187       32.4950769363      -20.4017672084  MEMB      89              0.0000000000
     49945      1349  PVPG      H13B          -28.2515135755       32.8362913199      -19.2229905515  MEMB      89              0.0000000000
     49946      1349  PVPG      OC3           -28.8388770098       32.0593428590      -21.0315673861  MEMB      89              0.0000000000
     49947      1349  PVPG      HO3           -28.2587709678       31.4989874909      -21.5511931908  MEMB      89              0.0000000000
     49948      1349  PVPG      C12           -27.9072925233       34.3865930339      -20.7418746565  MEMB      89              0.0000000000
     49949      1349  PVPG      H12A          -28.9167971910       34.8311354629      -20.5850211135  MEMB      89              0.0000000000
     49950      1349  PVPG      OC2           -27.4250587558       34.6085501511      -22.0514177789  MEMB      89              0.0000000000
     49951      1349  PVPG      HO2           -27.3260514333       35.5556056461      -22.0640466694  MEMB      89              0.0000000000
     49952      1349  PVPG      C11           -26.9925397590       35.1871654713      -19.8948081186  MEMB      89              0.0000000000
     49953      1349  PVPG      H11A          -26.9578433310       36.2839237262      -20.1780346605  MEMB      89              0.0000000000
     49954      1349  PVPG      H11B          -25.9610241473       34.7738780150      -19.8899551297  MEMB      89              0.0000000000
     49955      1349  PVPG      P             -26.9772960965       35.9512533999      -17.6600111051  MEMB      89              0.0000000000
     49956      1349  PVPG      O13           -27.8244188296       37.1305904149      -17.5586497995  MEMB      89              0.0000000000
     49957      1349  PVPG      O14           -25.5891043502       36.2036072360      -18.1481283043  MEMB      89              0.0000000000
     49958      1349  PVPG      O12           -27.5767378069       34.9703403585      -18.6374225414  MEMB      89              0.0000000000
     49959      1349  PVPG      O11           -27.0982318922       35.0690308548      -16.4138175299  MEMB      89              0.0000000000
     49960      1349  PVPG      C1            -28.1526048730       34.3764744844      -15.8316673005  MEMB      89              0.0000000000
     49961      1349  PVPG      HA            -28.3373088954       33.5215248223      -16.4562488328  MEMB      89              0.0000000000
     49962      1349  PVPG      HB            -28.8775383600       35.1906548152      -15.9521631338  MEMB      89              0.0000000000
     49963      1349  PVPG      C2            -28.0973102243       33.7006642369      -14.2999284044  MEMB      89              0.0000000000
     49964      1349  PVPG      HS            -29.0589577414       33.6144817592      -13.7411563403  MEMB      89              0.0000000000
     49965      1349  PVPG      O21           -27.2333081986       34.2880309924      -13.3802432059  MEMB      89              0.0000000000
     49966      1349  PVPG      C21           -27.4402007092       35.4448128299      -13.0808419221  MEMB      89              0.0000000000
     49967      1349  PVPG      O22           -28.4220295398       35.6893790895      -13.6017921806  MEMB      89              0.0000000000
     49968      1349  PVPG      C22           -26.5240312908       36.3574717712      -12.1452612166  MEMB      89              0.0000000000
     49969      1349  PVPG      H2R           -26.8878528161       37.3257772058      -11.8279456021  MEMB      89              0.0000000000
     49970      1349  PVPG      H2S           -25.5384196009       36.6512957321      -12.5487257752  MEMB      89              0.0000000000
     49971      1349  PVPG      C3            -27.6380201738       32.2694987949      -14.2129889213  MEMB      89              0.0000000000
     49972      1349  PVPG      HX            -28.2410901442       31.7324153282      -14.9354593494  MEMB      89              0.0000000000
     49973      1349  PVPG      HY            -26.5836848977       32.2228461819      -14.5117448008  MEMB      89              0.0000000000
     49974      1349  PVPG      O31           -27.6565795284       31.7178148071      -12.8668762907  MEMB      89              0.0000000000
     49975      1349  PVPG      C31           -28.7554515282       31.2584880816      -12.4556846143  MEMB      89              0.0000000000
     49976      1349  PVPG      O32           -29.7933919119       31.3587965439      -13.0551180136  MEMB      89              0.0000000000
     49977      1349  PVPG      C32           -28.6290592362       30.6589279200      -11.0765254374  MEMB      89              0.0000000000
     49978      1349  PVPG      H2X           -27.6140402420       30.2285145468      -10.9153984963  MEMB      89              0.0000000000
     49979      1349  PVPG      H2Y           -29.4415314935       29.9278220642      -10.9292780714  MEMB      89              0.0000000000
     49980      1349  PVPG      C23           -26.4531320776       35.7443437732      -10.8336356880  MEMB      89              0.0000000000
     49981      1349  PVPG      H3R           -26.3668419368       34.7453064976      -10.9733921622  MEMB      89              0.0000000000
     49982      1349  PVPG      H3S           -27.3918991485       35.6781161589      -10.3029705875  MEMB      89              0.0000000000
     49983      1349  PVPG      C24           -25.0766428946       35.6579781943      -10.2597891436  MEMB      89              0.0000000000
     49984      1349  PVPG      H4R           -25.7734610822       36.2738201230       -9.6493102680  MEMB      89              0.0000000000
     49985      1349  PVPG      H4S           -24.2936572032       36.0894199895      -10.8838065223  MEMB      89              0.0000000000
     49986      1349  PVPG      C25           -24.3553821291       34.9676907872       -9.1254977628  MEMB      89              0.0000000000
     49987      1349  PVPG      H5R           -25.2273083274       34.9655875796       -8.6234468411  MEMB      89              0.0000000000
     49988      1349  PVPG      H5S           -23.9546081641       35.3275227763       -8.2464294493  MEMB      89              0.0000000000
     49989      1349  PVPG      C26           -23.2976561150       33.9561259109       -9.3666235793  MEMB      89              0.0000000000
     49990      1349  PVPG      H6R           -22.7839090865       34.3231654228      -10.2724448071  MEMB      89              0.0000000000
     49991      1349  PVPG      H6S           -23.4607344648       33.2152703678       -9.9898131516  MEMB      89              0.0000000000
     49992      1349  PVPG      C27           -23.1054523741       32.5864834626       -8.6194283855  MEMB      89              0.0000000000
     49993      1349  PVPG      H7R           -22.6457523660       33.0346528601       -7.7551636014  MEMB      89              0.0000000000
     49994      1349  PVPG      H7S           -22.6295495823       31.8873527056       -9.3279372940  MEMB      89              0.0000000000
     49995      1349  PVPG      C28           -23.9499281721       31.2721148575       -8.4708269301  MEMB      89              0.0000000000
     49996      1349  PVPG      H8R           -24.7092171726       30.7557926708       -9.0724525879  MEMB      89              0.0000000000
     49997      1349  PVPG      H8S           -24.7397014398       31.7913532112       -8.2466438263  MEMB      89              0.0000000000
     49998      1349  PVPG      C29           -23.6677463751       30.3618610188       -7.3319476706  MEMB      89              0.0000000000
     49999      1349  PVPG      H9R           -22.9157346872       29.7790488020       -7.8183830545  MEMB      89              0.0000000000
     50000      1349  PVPG      H9S           -24.6612383327       29.7963541902       -7.1463692298  MEMB      89              0.0000000000
     50001      1349  PVPG      C210          -22.7736016659       30.7679996756       -6.0197687203  MEMB      89              0.0000000000
     50002      1349  PVPG      H10R          -22.2098046606       31.6096208790       -6.2348323540  MEMB      89              0.0000000000
     50003      1349  PVPG      H10S          -22.8572306900       30.1252773461       -5.3266082093  MEMB      89              0.0000000000
     50004      1349  PVPG      C211          -23.8750012915       31.6223609164       -5.7158632292  MEMB      89              0.0000000000
     50005      1349  PVPG      H111          -24.7141812394       31.0519912409       -5.8171730221  MEMB      89              0.0000000000
     50006      1349  PVPG      C212          -23.8997811525       32.4131256238       -4.5190903827  MEMB      89              0.0000000000
     50007      1349  PVPG      H121          -24.9518323391       32.8234962622       -4.9543917633  MEMB      89              0.0000000000
     50008      1349  PVPG      C213          -23.2343243414       33.8399523357       -4.1683558397  MEMB      89              0.0000000000
     50009      1349  PVPG      H13R          -22.8603700102       34.4402845136       -4.8203369613  MEMB      89              0.0000000000
     50010      1349  PVPG      H13S          -22.7901402407       32.8109829048       -3.9377850936  MEMB      89              0.0000000000
     50011      1349  PVPG      C214          -23.3911992159       34.7917866668       -2.6955091303  MEMB      89              0.0000000000
     50012      1349  PVPG      H14R          -24.1322811506       35.5938284326       -2.6783382073  MEMB      89              0.0000000000
     50013      1349  PVPG      H14S          -22.6068334789       35.5334545218       -2.6738423188  MEMB      89              0.0000000000
     50014      1349  PVPG      C215          -24.0699320433       34.3226355783       -1.3428989462  MEMB      89              0.0000000000
     50015      1349  PVPG      H15R          -23.7164701736       33.2756263676       -1.3520593212  MEMB      89              0.0000000000
     50016      1349  PVPG      H15S          -25.0183281052       34.1492176204       -1.2819164492  MEMB      89              0.0000000000
     50017      1349  PVPG      C216          -24.2052893357       35.1742523213       -0.0622691700  MEMB      89              0.0000000000
     50018      1349  PVPG      H16R          -25.1923086891       35.6537458640       -0.1884537009  MEMB      89              0.0000000000
     50019      1349  PVPG      H16S          -23.5121695208       36.0002000939       -0.2473182408  MEMB      89              0.0000000000
     50020      1349  PVPG      C217          -23.9588891632       34.4048915209        1.3180421705  MEMB      89              0.0000000000
     50021      1349  PVPG      H17R          -24.6591472143       33.5842715409        1.2536014889  MEMB      89              0.0000000000
     50022      1349  PVPG      H17S          -24.2622120968       35.1774703426        2.0038994229  MEMB      89              0.0000000000
     50023      1349  PVPG      C218          -22.6654766448       33.7098396831        1.9282070421  MEMB      89              0.0000000000
     50024      1349  PVPG      H18R          -22.4432234209       32.7028619245        1.5009082421  MEMB      89              0.0000000000
     50025      1349  PVPG      H18S          -21.7837587807       34.3719536586        1.8279569584  MEMB      89              0.0000000000
     50026      1349  PVPG      H18T          -22.3152727928       33.6894153264        2.9010535314  MEMB      89              0.0000000000
     50027      1349  PVPG      C33           -29.0043849103       31.7221528031      -10.0878746847  MEMB      89              0.0000000000
     50028      1349  PVPG      H3X           -30.0075303260       32.1243025369      -10.0758028068  MEMB      89              0.0000000000
     50029      1349  PVPG      H3Y           -28.6555483912       32.6710198378      -10.5449336379  MEMB      89              0.0000000000
     50030      1349  PVPG      C34           -28.6184848440       31.3386454800       -8.6585829375  MEMB      89              0.0000000000
     50031      1349  PVPG      H4X           -27.5362780797       31.0400465027       -8.6279286316  MEMB      89              0.0000000000
     50032      1349  PVPG      H4Y           -29.1457294703       30.4678220759       -8.2657734719  MEMB      89              0.0000000000
     50033      1349  PVPG      C35           -28.9727079119       32.5696098353       -7.8518703663  MEMB      89              0.0000000000
     50034      1349  PVPG      H5X           -28.7392017469       33.4805307737       -8.4397586870  MEMB      89              0.0000000000
     50035      1349  PVPG      H5Y           -28.4665073266       32.6391106244       -6.9109751002  MEMB      89              0.0000000000
     50036      1349  PVPG      C36           -30.2203863281       32.8308614048       -7.1574436139  MEMB      89              0.0000000000
     50037      1349  PVPG      H6X           -30.3527434822       32.0174161621       -6.4230590043  MEMB      89              0.0000000000
     50038      1349  PVPG      H6Y           -30.8834776064       32.8763076291       -8.0357323839  MEMB      89              0.0000000000
     50039      1349  PVPG      C37           -30.0965086809       34.1145835378       -6.3308268399  MEMB      89              0.0000000000
     50040      1349  PVPG      H7X           -31.0937854593       34.5198748240       -6.1395849419  MEMB      89              0.0000000000
     50041      1349  PVPG      H7Y           -29.5233528991       34.8525257232       -6.8466763277  MEMB      89              0.0000000000
     50042      1349  PVPG      C38           -29.3775298854       34.0662355994       -4.9876835432  MEMB      89              0.0000000000
     50043      1349  PVPG      H8X           -28.3469661877       33.8653315079       -5.1095933241  MEMB      89              0.0000000000
     50044      1349  PVPG      H8Y           -29.8171348630       33.3001010230       -4.3498025219  MEMB      89              0.0000000000
     50045      1349  PVPG      C39           -29.3767327900       35.4368076571       -4.3873678300  MEMB      89              0.0000000000
     50046      1349  PVPG      H9X           -30.4463911364       35.5715786773       -4.1648842788  MEMB      89              0.0000000000
     50047      1349  PVPG      H9Y           -28.8741516894       36.0989568066       -5.1295757096  MEMB      89              0.0000000000
     50048      1349  PVPG      C310          -28.6036122692       35.8434507422       -3.1937982888  MEMB      89              0.0000000000
     50049      1349  PVPG      H10X          -28.9473544468       36.8010033567       -2.7780722706  MEMB      89              0.0000000000
     50050      1349  PVPG      H10Y          -27.6318109000       36.1521490176       -3.5252062177  MEMB      89              0.0000000000
     50051      1349  PVPG      C311          -28.7400972778       34.8234106956       -2.1487654290  MEMB      89              0.0000000000
     50052      1349  PVPG      H11X          -28.4801134982       33.7838363832       -2.4722006623  MEMB      89              0.0000000000
     50053      1349  PVPG      H11Y          -29.8223843978       34.7815215297       -1.9478483630  MEMB      89              0.0000000000
     50054      1349  PVPG      C312          -28.0276687436       35.2935817723       -0.9076413255  MEMB      89              0.0000000000
     50055      1349  PVPG      H12X          -27.8692510273       36.3673515730       -0.7471602571  MEMB      89              0.0000000000
     50056      1349  PVPG      H12Y          -26.9434913315       35.1197241138       -1.1145452637  MEMB      89              0.0000000000
     50057      1349  PVPG      C313          -28.6573733794       34.4742181613        0.2856033137  MEMB      89              0.0000000000
     50058      1349  PVPG      H13X          -29.2214883691       35.0810890826        0.9921574550  MEMB      89              0.0000000000
     50059      1349  PVPG      H13Y          -27.7823999219       34.5766986002        0.9743511354  MEMB      89              0.0000000000
     50060      1349  PVPG      C314          -29.2731496664       32.8951726864       -0.0355750714  MEMB      89              0.0000000000
     50061      1349  PVPG      H14X          -30.0639363291       33.0535261460       -0.8063312380  MEMB      89              0.0000000000
     50062      1349  PVPG      H14Y          -29.6638767282       32.6187526162        0.9367452400  MEMB      89              0.0000000000
     50063      1349  PVPG      C315          -28.4690831339       31.3935232294       -0.3073041280  MEMB      89              0.0000000000
     50064      1349  PVPG      H15X          -28.2285618432       31.6020544128       -1.3899650324  MEMB      89              0.0000000000
     50065      1349  PVPG      H15Y          -28.7426274650       30.4811744965       -0.7105929041  MEMB      89              0.0000000000
     50066      1349  PVPG      C316          -27.3289519585       30.6755815315        0.7144784005  MEMB      89              0.0000000000
     50067      1349  PVPG      H16X          -27.3313849937       30.8940191970        1.7790545030  MEMB      89              0.0000000000
     50068      1349  PVPG      H16Y          -26.4929495943       30.1836351761        0.1328138134  MEMB      89              0.0000000000
     50069      1349  PVPG      H16Z          -26.4077564957       31.2341824550        1.0194528005  MEMB      89              0.0000000000
     50070      1350  PPPE      N              32.7702115709      -30.6898494619      -16.9828168425  MEMB      90              0.0000000000
     50071      1350  PPPE      HN1            32.6811253883      -29.6550724143      -16.8779521550  MEMB      90              0.0000000000
     50072      1350  PPPE      HN2            32.1536840425      -30.9818191724      -17.7724090444  MEMB      90              0.0000000000
     50073      1350  PPPE      HN3            32.5027956118      -31.1834343637      -16.1074085785  MEMB      90              0.0000000000
     50074      1350  PPPE      C12            34.1674241589      -31.1017537458      -17.3628369236  MEMB      90              0.0000000000
     50075      1350  PPPE      H12A           34.3162918834      -32.1274723693      -16.9543506747  MEMB      90              0.0000000000
     50076      1350  PPPE      H12B           34.8755522951      -30.4031583881      -16.8769685127  MEMB      90              0.0000000000
     50077      1350  PPPE      C11            34.3291231872      -31.0832043978      -18.8946448597  MEMB      90              0.0000000000
     50078      1350  PPPE      H11A           33.6864207903      -31.9072102700      -19.2942407557  MEMB      90              0.0000000000
     50079      1350  PPPE      H11B           35.3754300180      -31.3553224045      -19.1797875773  MEMB      90              0.0000000000
     50080      1350  PPPE      P              34.9409139518      -28.6344023186      -19.8105818232  MEMB      90              0.0000000000
     50081      1350  PPPE      O13            36.3076180706      -29.1700790294      -19.7504182396  MEMB      90              0.0000000000
     50082      1350  PPPE      O14            34.4665237255      -27.9742421323      -21.0490926415  MEMB      90              0.0000000000
     50083      1350  PPPE      O11            34.7613124436      -27.6852251989      -18.5825800375  MEMB      90              0.0000000000
     50084      1350  PPPE      O12            33.9149091314      -29.8245528030      -19.4473097773  MEMB      90              0.0000000000
     50085      1350  PPPE      C1             33.5273987436      -27.1304244024      -18.2383218672  MEMB      90              0.0000000000
     50086      1350  PPPE      HA             32.8423542227      -27.9613303613      -17.9823668732  MEMB      90              0.0000000000
     50087      1350  PPPE      HB             33.0611705313      -26.5422214400      -19.0629698998  MEMB      90              0.0000000000
     50088      1350  PPPE      C2             33.7201710620      -26.1835118951      -17.0484972347  MEMB      90              0.0000000000
     50089      1350  PPPE      HS             34.1863429442      -25.2249067449      -17.3830576954  MEMB      90              0.0000000000
     50090      1350  PPPE      O21            34.5475491689      -26.7877597136      -16.0276840706  MEMB      90              0.0000000000
     50091      1350  PPPE      C21            35.0123579127      -25.9429311875      -15.1033403543  MEMB      90              0.0000000000
     50092      1350  PPPE      O22            34.7370414390      -24.7659947224      -14.9937162730  MEMB      90              0.0000000000
     50093      1350  PPPE      C22            35.9159918443      -26.6974929518      -14.1439226590  MEMB      90              0.0000000000
     50094      1350  PPPE      H2R            36.1230347251      -26.0471176683      -13.2695172441  MEMB      90              0.0000000000
     50095      1350  PPPE      H2S            36.8857509218      -26.8784506957      -14.6464893269  MEMB      90              0.0000000000
     50096      1350  PPPE      C3             32.3062480223      -25.9396925085      -16.5201362320  MEMB      90              0.0000000000
     50097      1350  PPPE      HX             32.6335975520      -25.3273717666      -15.6477336730  MEMB      90              0.0000000000
     50098      1350  PPPE      HY             31.7219220218      -25.2767131002      -17.1944780864  MEMB      90              0.0000000000
     50099      1350  PPPE      O31            31.6690390321      -27.2465834801      -16.2515935469  MEMB      90              0.0000000000
     50100      1350  PPPE      C31            30.4692626529      -27.5797841483      -15.7655915063  MEMB      90              0.0000000000
     50101      1350  PPPE      O32            29.5383600959      -26.9965488075      -15.4181509083  MEMB      90              0.0000000000
     50102      1350  PPPE      C32            30.1180337719      -28.8668392520      -15.2995369630  MEMB      90              0.0000000000
     50103      1350  PPPE      H2X            29.8843733284      -29.3462089044      -16.2473403693  MEMB      90              0.0000000000
     50104      1350  PPPE      H2Y            29.1316899334      -28.7589325251      -14.7216621204  MEMB      90              0.0000000000
     50105      1350  PPPE      C23            35.3447216436      -28.0551215224      -13.7048829388  MEMB      90              0.0000000000
     50106      1350  PPPE      H3R            35.2336411840      -28.7126756853      -14.6023619815  MEMB      90              0.0000000000
     50107      1350  PPPE      H3S            34.3434399637      -27.9327025747      -13.2425001564  MEMB      90              0.0000000000
     50108      1350  PPPE      C24            36.3332225953      -28.7206155189      -12.7426958458  MEMB      90              0.0000000000
     50109      1350  PPPE      H4R            37.3415618415      -28.6512396306      -13.2133437735  MEMB      90              0.0000000000
     50110      1350  PPPE      H4S            36.0528564855      -29.7876928937      -12.6454196642  MEMB      90              0.0000000000
     50111      1350  PPPE      C25            36.4666781209      -28.0803141594      -11.3509464631  MEMB      90              0.0000000000
     50112      1350  PPPE      H5R            36.7608418393      -27.0096696352      -11.4540274363  MEMB      90              0.0000000000
     50113      1350  PPPE      H5S            37.2965622945      -28.5813038582      -10.7987537047  MEMB      90              0.0000000000
     50114      1350  PPPE      C26            35.2066861921      -28.2132609864      -10.4882572667  MEMB      90              0.0000000000
     50115      1350  PPPE      H6R            34.8462183273      -29.2568207917      -10.5044950400  MEMB      90              0.0000000000
     50116      1350  PPPE      H6S            34.4337190188      -27.5678700568      -10.9698371447  MEMB      90              0.0000000000
     50117      1350  PPPE      C27            35.5293808288      -27.7783192466       -9.0486873069  MEMB      90              0.0000000000
     50118      1350  PPPE      H7R            35.6040967250      -26.6974148554       -9.2240941404  MEMB      90              0.0000000000
     50119      1350  PPPE      H7S            36.5090119973      -28.1622591203       -8.7077172301  MEMB      90              0.0000000000
     50120      1350  PPPE      C28            34.5400895694      -28.0869068991       -7.9147419062  MEMB      90              0.0000000000
     50121      1350  PPPE      H8R            34.3954837408      -29.1433923423       -7.6898905358  MEMB      90              0.0000000000
     50122      1350  PPPE      H8S            33.5621983783      -27.8710397568       -8.4171432671  MEMB      90              0.0000000000
     50123      1350  PPPE      C29            34.8331865514      -27.3190183657       -6.6079436628  MEMB      90              0.0000000000
     50124      1350  PPPE      H91            35.3873627203      -26.3740329568       -6.7444340679  MEMB      90              0.0000000000
     50125      1350  PPPE      C210           34.2123582368      -27.5045956708       -5.4038016004  MEMB      90              0.0000000000
     50126      1350  PPPE      H101           34.1256261148      -26.5642988562       -4.8001732266  MEMB      90              0.0000000000
     50127      1350  PPPE      C211           33.0972163915      -28.5394102775       -5.0559233975  MEMB      90              0.0000000000
     50128      1350  PPPE      H11R           32.9767880838      -29.2901440444       -5.8384160743  MEMB      90              0.0000000000
     50129      1350  PPPE      H11S           31.9760990600      -28.3670900657       -4.9684431069  MEMB      90              0.0000000000
     50130      1350  PPPE      C212           33.3143629370      -28.9316650968       -3.6166439166  MEMB      90              0.0000000000
     50131      1350  PPPE      H12R           34.4006191077      -29.1153002033       -3.5208893994  MEMB      90              0.0000000000
     50132      1350  PPPE      H12S           32.7348061315      -29.8662034692       -3.5042307920  MEMB      90              0.0000000000
     50133      1350  PPPE      C213           33.0628958058      -27.9521325140       -2.4613277672  MEMB      90              0.0000000000
     50134      1350  PPPE      H13R           32.1417090040      -27.8577609118       -1.8889154356  MEMB      90              0.0000000000
     50135      1350  PPPE      H13S           33.3560844392      -26.9144169980       -2.6833992184  MEMB      90              0.0000000000
     50136      1350  PPPE      C214           33.4353231888      -28.6817887239       -1.2243363049  MEMB      90              0.0000000000
     50137      1350  PPPE      H14R           34.4740944185      -28.7784378957       -1.4337661665  MEMB      90              0.0000000000
     50138      1350  PPPE      H14S           32.8335112557      -29.6176409633       -1.1704978188  MEMB      90              0.0000000000
     50139      1350  PPPE      C215           33.2592720645      -27.9841630186        0.0769553911  MEMB      90              0.0000000000
     50140      1350  PPPE      H15R           33.6669030061      -28.3786060546        0.9964700818  MEMB      90              0.0000000000
     50141      1350  PPPE      H15S           32.2249372040      -28.0523866822        0.3967156733  MEMB      90              0.0000000000
     50142      1350  PPPE      C216           34.1423909086      -26.8324949219        0.1461353611  MEMB      90              0.0000000000
     50143      1350  PPPE      H16R           34.0138383469      -26.3788848446       -0.8282002116  MEMB      90              0.0000000000
     50144      1350  PPPE      H16S           33.9484224348      -25.8103722528       -0.2535905299  MEMB      90              0.0000000000
     50145      1350  PPPE      H16T           34.4809189050      -26.4786076604        1.1498580484  MEMB      90              0.0000000000
     50146      1350  PPPE      C33            31.1732483406      -29.2868255176      -14.3316809834  MEMB      90              0.0000000000
     50147      1350  PPPE      H3X            32.1636816979      -29.1469521786      -14.8135704100  MEMB      90              0.0000000000
     50148      1350  PPPE      H3Y            30.8993451541      -30.3492315711      -14.2315085114  MEMB      90              0.0000000000
     50149      1350  PPPE      C34            31.1837607527      -28.6114118540      -12.9341467957  MEMB      90              0.0000000000
     50150      1350  PPPE      H4X            31.7879952962      -27.6858391811      -13.0100547628  MEMB      90              0.0000000000
     50151      1350  PPPE      H4Y            31.7419034124      -29.2662546585      -12.2366405280  MEMB      90              0.0000000000
     50152      1350  PPPE      C35            29.8051265028      -28.3826602634      -12.2666058585  MEMB      90              0.0000000000
     50153      1350  PPPE      H5X            29.2507941964      -29.2749129186      -12.4154844545  MEMB      90              0.0000000000
     50154      1350  PPPE      H5Y            29.1575359175      -27.6623509781      -12.8207176786  MEMB      90              0.0000000000
     50155      1350  PPPE      C36            29.7810923511      -27.9788576624      -10.7621970148  MEMB      90              0.0000000000
     50156      1350  PPPE      H6X            28.8567106992      -27.4435575714      -10.4617316979  MEMB      90              0.0000000000
     50157      1350  PPPE      H6Y            30.4496374116      -27.1907526213      -10.6789028843  MEMB      90              0.0000000000
     50158      1350  PPPE      C37            30.6394418126      -28.6564070587       -9.7067574023  MEMB      90              0.0000000000
     50159      1350  PPPE      H7X            30.7109803465      -28.1047960130       -8.7514096288  MEMB      90              0.0000000000
     50160      1350  PPPE      H7Y            31.6025934712      -29.0403362253      -10.1000408933  MEMB      90              0.0000000000
     50161      1350  PPPE      C38            29.8867191631      -29.7128150736       -9.2753104777  MEMB      90              0.0000000000
     50162      1350  PPPE      H8X            30.3553654754      -30.5719056228       -9.8859657289  MEMB      90              0.0000000000
     50163      1350  PPPE      H8Y            28.7984137871      -29.3901868374       -9.4188356602  MEMB      90              0.0000000000
     50164      1350  PPPE      C39            29.8664082524      -30.2855133332       -8.0031323849  MEMB      90              0.0000000000
     50165      1350  PPPE      H9X            30.8026505618      -30.8656379971       -7.9137524332  MEMB      90              0.0000000000
     50166      1350  PPPE      H9Y            28.9108893737      -30.8286708444       -8.3184300299  MEMB      90              0.0000000000
     50167      1350  PPPE      C310           29.4850782587      -29.6341909520       -6.7571012196  MEMB      90              0.0000000000
     50168      1350  PPPE      H10X           28.4083056324      -29.3628894810       -6.8807875111  MEMB      90              0.0000000000
     50169      1350  PPPE      H10Y           30.2145571936      -28.8100004040       -6.7619666598  MEMB      90              0.0000000000
     50170      1350  PPPE      C311           29.6952012240      -30.5338098256       -5.5315350329  MEMB      90              0.0000000000
     50171      1350  PPPE      H11X           30.7129182305      -30.9867459086       -5.4759128840  MEMB      90              0.0000000000
     50172      1350  PPPE      H11Y           28.9294514983      -31.3050790428       -5.4203216121  MEMB      90              0.0000000000
     50173      1350  PPPE      C312           29.2792975012      -29.8395123950       -4.2911710248  MEMB      90              0.0000000000
     50174      1350  PPPE      H12X           28.2152957021      -29.5350994112       -4.4423298191  MEMB      90              0.0000000000
     50175      1350  PPPE      H12Y           29.9687245564      -28.9972328889       -4.4292675159  MEMB      90              0.0000000000
     50176      1350  PPPE      C313           29.5365543223      -30.6734229822       -3.0157801321  MEMB      90              0.0000000000
     50177      1350  PPPE      H13X           30.6654248671      -30.7130877296       -2.9448283121  MEMB      90              0.0000000000
     50178      1350  PPPE      H13Y           29.0613145849      -31.6521490575       -2.9506760182  MEMB      90              0.0000000000
     50179      1350  PPPE      C314           28.9540223777      -30.1274033022       -1.7152869386  MEMB      90              0.0000000000
     50180      1350  PPPE      H14X           27.9413774742      -29.6645724433       -1.7203956785  MEMB      90              0.0000000000
     50181      1350  PPPE      H14Y           29.8332415042      -29.5043916282       -1.8940822945  MEMB      90              0.0000000000
     50182      1350  PPPE      C315           29.5203223957      -30.3296086341       -0.3449592530  MEMB      90              0.0000000000
     50183      1350  PPPE      H15X           30.5724315656      -30.6195224999       -0.5685936435  MEMB      90              0.0000000000
     50184      1350  PPPE      H15Y           28.8422378783      -31.1171207881        0.0146012886  MEMB      90              0.0000000000
     50185      1350  PPPE      C316           29.5587841336      -29.2313006934        0.7297463752  MEMB      90              0.0000000000
     50186      1350  PPPE      H16X           28.5476659079      -28.8660055365        1.0102142556  MEMB      90              0.0000000000
     50187      1350  PPPE      H16Y           30.0054995685      -29.7600825993        1.5713479652  MEMB      90              0.0000000000
     50188      1350  PPPE      H16Z           30.2361118166      -28.3620640992        0.6106487402  MEMB      90              0.0000000000
     50189      1351  PPPE      N             -31.7193669095      -32.3821948067      -20.8040075097  MEMB      91              0.0000000000
     50190      1351  PPPE      HN1           -31.0052333295      -32.7153599013      -21.4755499928  MEMB      91              0.0000000000
     50191      1351  PPPE      HN2           -32.5696278425      -32.9812226655      -20.8117169609  MEMB      91              0.0000000000
     50192      1351  PPPE      HN3           -32.0410101228      -31.4285962319      -21.0758893314  MEMB      91              0.0000000000
     50193      1351  PPPE      C12           -31.1871318888      -32.4311133903      -19.3976728914  MEMB      91              0.0000000000
     50194      1351  PPPE      H12A          -30.3197602464      -31.7489817724      -19.3200816702  MEMB      91              0.0000000000
     50195      1351  PPPE      H12B          -30.8463356104      -33.4696741037      -19.2023465548  MEMB      91              0.0000000000
     50196      1351  PPPE      C11           -32.3370936219      -32.1666657207      -18.4158565553  MEMB      91              0.0000000000
     50197      1351  PPPE      H11A          -31.9573434720      -32.2303699958      -17.3691054529  MEMB      91              0.0000000000
     50198      1351  PPPE      H11B          -33.0663439494      -33.0040501088      -18.5741146307  MEMB      91              0.0000000000
     50199      1351  PPPE      P             -34.4950852689      -30.6907266363      -18.7729029959  MEMB      91              0.0000000000
     50200      1351  PPPE      O13           -34.6966563908      -29.2605396421      -19.1031879658  MEMB      91              0.0000000000
     50201      1351  PPPE      O14           -34.9568431060      -31.7137832553      -19.7026184927  MEMB      91              0.0000000000
     50202      1351  PPPE      O11           -34.9900000614      -31.0648032932      -17.3145991806  MEMB      91              0.0000000000
     50203      1351  PPPE      O12           -32.9208763745      -30.8859962092      -18.6380622003  MEMB      91              0.0000000000
     50204      1351  PPPE      C1            -34.5042689233      -30.2565865149      -16.2677546077  MEMB      91              0.0000000000
     50205      1351  PPPE      HA            -34.7704292828      -29.2426292971      -16.5500467730  MEMB      91              0.0000000000
     50206      1351  PPPE      HB            -33.3939458396      -30.2161210341      -16.2066531556  MEMB      91              0.0000000000
     50207      1351  PPPE      C2            -35.0381496790      -30.6699623648      -14.8609566572  MEMB      91              0.0000000000
     50208      1351  PPPE      HS            -34.5563443560      -29.9443422405      -14.1601132429  MEMB      91              0.0000000000
     50209      1351  PPPE      O21           -34.7562897959      -31.9886572292      -14.5615354612  MEMB      91              0.0000000000
     50210      1351  PPPE      C21           -33.5514815750      -32.1272927898      -14.2223558693  MEMB      91              0.0000000000
     50211      1351  PPPE      O22           -32.7254898513      -31.2497110544      -14.0113776283  MEMB      91              0.0000000000
     50212      1351  PPPE      C22           -33.3363835668      -33.6066493115      -14.1683370289  MEMB      91              0.0000000000
     50213      1351  PPPE      H2R           -32.4038880752      -33.7606344463      -13.6130958795  MEMB      91              0.0000000000
     50214      1351  PPPE      H2S           -33.1452153389      -33.9065333768      -15.2225779668  MEMB      91              0.0000000000
     50215      1351  PPPE      C3            -36.5220261026      -30.6277770235      -14.6018870723  MEMB      91              0.0000000000
     50216      1351  PPPE      HX            -36.9046700295      -29.7295905550      -14.9274376831  MEMB      91              0.0000000000
     50217      1351  PPPE      HY            -37.1694007947      -31.2044381969      -15.2855972269  MEMB      91              0.0000000000
     50218      1351  PPPE      O31           -36.8717766056      -30.4614592348      -13.2153096973  MEMB      91              0.0000000000
     50219      1351  PPPE      C31           -37.3220120659      -31.5138696101      -12.6920019644  MEMB      91              0.0000000000
     50220      1351  PPPE      O32           -37.4105402018      -32.5906524254      -13.2275987776  MEMB      91              0.0000000000
     50221      1351  PPPE      C32           -37.7561667703      -31.2238212272      -11.2680426690  MEMB      91              0.0000000000
     50222      1351  PPPE      H2X           -38.0390976152      -32.2085347614      -10.8615768754  MEMB      91              0.0000000000
     50223      1351  PPPE      H2Y           -38.6098234100      -30.5277297190      -11.2812421477  MEMB      91              0.0000000000
     50224      1351  PPPE      C23           -34.5382393261      -34.3809051721      -13.5351754908  MEMB      91              0.0000000000
     50225      1351  PPPE      H3R           -34.3900416923      -35.4380216753      -13.8345180302  MEMB      91              0.0000000000
     50226      1351  PPPE      H3S           -35.5304138376      -34.0921426836      -13.9644958649  MEMB      91              0.0000000000
     50227      1351  PPPE      C24           -34.6823564384      -34.2593869753      -12.0022275655  MEMB      91              0.0000000000
     50228      1351  PPPE      H4R           -34.8329831898      -33.1852186859      -11.7489016193  MEMB      91              0.0000000000
     50229      1351  PPPE      H4S           -33.7611890087      -34.5604815412      -11.4635549647  MEMB      91              0.0000000000
     50230      1351  PPPE      C25           -35.8666082275      -35.0994262769      -11.4674518740  MEMB      91              0.0000000000
     50231      1351  PPPE      H5R           -35.6254560596      -36.1814302367      -11.5612138991  MEMB      91              0.0000000000
     50232      1351  PPPE      H5S           -36.7638315159      -34.9058268181      -12.1007217506  MEMB      91              0.0000000000
     50233      1351  PPPE      C26           -36.1871096268      -34.8092594826       -9.9943418611  MEMB      91              0.0000000000
     50234      1351  PPPE      H6R           -37.2652280234      -34.9637745317       -9.7644224243  MEMB      91              0.0000000000
     50235      1351  PPPE      H6S           -35.9411957410      -33.7462339412       -9.7955812537  MEMB      91              0.0000000000
     50236      1351  PPPE      C27           -35.3614893174      -35.6831413596       -9.0489561690  MEMB      91              0.0000000000
     50237      1351  PPPE      H7R           -34.3021320830      -35.6124105197       -9.3858635003  MEMB      91              0.0000000000
     50238      1351  PPPE      H7S           -35.6836139483      -36.7402804334       -9.1961900500  MEMB      91              0.0000000000
     50239      1351  PPPE      C28           -35.4744376034      -35.2533288783       -7.5686246130  MEMB      91              0.0000000000
     50240      1351  PPPE      H8R           -34.8801550725      -35.9540196256       -6.9479523685  MEMB      91              0.0000000000
     50241      1351  PPPE      H8S           -36.5209212121      -35.3830467379       -7.2223310129  MEMB      91              0.0000000000
     50242      1351  PPPE      C29           -34.9817289157      -33.8387003062       -7.3497526914  MEMB      91              0.0000000000
     50243      1351  PPPE      H91           -35.7112033866      -33.0274243479       -7.4974284129  MEMB      91              0.0000000000
     50244      1351  PPPE      C210          -33.7750343878      -33.4828128072       -6.8897540466  MEMB      91              0.0000000000
     50245      1351  PPPE      H101          -33.5275389586      -32.4147010383       -6.8264701032  MEMB      91              0.0000000000
     50246      1351  PPPE      C211          -32.6429299184      -34.3764021020       -6.4849432775  MEMB      91              0.0000000000
     50247      1351  PPPE      H11R          -31.6962323764      -33.8430466248       -6.7080975779  MEMB      91              0.0000000000
     50248      1351  PPPE      H11S          -32.6109265830      -35.3162413516       -7.0732184181  MEMB      91              0.0000000000
     50249      1351  PPPE      C212          -32.7105912982      -34.7441208752       -4.9879290592  MEMB      91              0.0000000000
     50250      1351  PPPE      H12R          -31.7056771756      -35.1039350090       -4.6914692983  MEMB      91              0.0000000000
     50251      1351  PPPE      H12S          -33.4350618714      -35.5794589612       -4.8445750416  MEMB      91              0.0000000000
     50252      1351  PPPE      C213          -33.1420558570      -33.6259578388       -4.0230293502  MEMB      91              0.0000000000
     50253      1351  PPPE      H13R          -34.2550591689      -33.5764045292       -4.0481711631  MEMB      91              0.0000000000
     50254      1351  PPPE      H13S          -32.7715704604      -32.6329129803       -4.3603910189  MEMB      91              0.0000000000
     50255      1351  PPPE      C214          -32.7056631138      -33.8967763899       -2.5683095066  MEMB      91              0.0000000000
     50256      1351  PPPE      H14R          -33.1074093475      -34.8789474089       -2.2367418612  MEMB      91              0.0000000000
     50257      1351  PPPE      H14S          -33.2082857208      -33.1327370564       -1.9342286622  MEMB      91              0.0000000000
     50258      1351  PPPE      C215          -31.1729620024      -33.8600673668       -2.3729870903  MEMB      91              0.0000000000
     50259      1351  PPPE      H15R          -30.7939788744      -32.9131849815       -2.7984969600  MEMB      91              0.0000000000
     50260      1351  PPPE      H15S          -30.6763775172      -34.6714096430       -2.9480607412  MEMB      91              0.0000000000
     50261      1351  PPPE      C216          -30.6704133661      -33.9794861681       -0.9352318433  MEMB      91              0.0000000000
     50262      1351  PPPE      H16R          -30.7079817700      -35.0439887869       -0.6139882767  MEMB      91              0.0000000000
     50263      1351  PPPE      H16S          -29.6137201549      -33.6352471548       -0.8667810342  MEMB      91              0.0000000000
     50264      1351  PPPE      H16T          -31.2749567285      -33.3525678767       -0.2480813176  MEMB      91              0.0000000000
     50265      1351  PPPE      C33           -36.6075097705      -30.7880574616      -10.3861996158  MEMB      91              0.0000000000
     50266      1351  PPPE      H3X           -35.6523650290      -31.2375807100      -10.7521060562  MEMB      91              0.0000000000
     50267      1351  PPPE      H3Y           -36.7716927853      -30.9993898960       -9.3060849021  MEMB      91              0.0000000000
     50268      1351  PPPE      C34           -36.3946720153      -29.3494054161      -10.3685005156  MEMB      91              0.0000000000
     50269      1351  PPPE      H4X           -37.2970472019      -28.6861552519      -10.4526220107  MEMB      91              0.0000000000
     50270      1351  PPPE      H4Y           -35.7023346245      -29.1260882261      -11.1701731418  MEMB      91              0.0000000000
     50271      1351  PPPE      C35           -35.5374894788      -29.0178640057       -9.1869916221  MEMB      91              0.0000000000
     50272      1351  PPPE      H5X           -36.2093545114      -28.8654501818       -8.3488395693  MEMB      91              0.0000000000
     50273      1351  PPPE      H5Y           -35.2668592086      -28.0180960871       -9.3048854521  MEMB      91              0.0000000000
     50274      1351  PPPE      C36           -34.1097530563      -29.6274223907       -9.1080945865  MEMB      91              0.0000000000
     50275      1351  PPPE      H6X           -33.5165323226      -29.2673430384      -10.0147308583  MEMB      91              0.0000000000
     50276      1351  PPPE      H6Y           -34.2830739221      -30.6856766916       -9.0293842150  MEMB      91              0.0000000000
     50277      1351  PPPE      C37           -33.3177636625      -29.5239562671       -7.7864817496  MEMB      91              0.0000000000
     50278      1351  PPPE      H7X           -32.8237878309      -28.6778153607       -8.3632818192  MEMB      91              0.0000000000
     50279      1351  PPPE      H7Y           -32.2880471757      -29.5280082043       -7.4260720481  MEMB      91              0.0000000000
     50280      1351  PPPE      C38           -34.2021070449      -29.2677400333       -6.4999176269  MEMB      91              0.0000000000
     50281      1351  PPPE      H8X           -35.1189668808      -28.6890851289       -6.8490098228  MEMB      91              0.0000000000
     50282      1351  PPPE      H8Y           -33.6755549622      -28.6216734994       -5.7185245325  MEMB      91              0.0000000000
     50283      1351  PPPE      C39           -35.1892207874      -30.0247437102       -5.9077339159  MEMB      91              0.0000000000
     50284      1351  PPPE      H9X           -34.3812454938      -30.7557806090       -5.9228388262  MEMB      91              0.0000000000
     50285      1351  PPPE      H9Y           -36.0738832203      -30.1792348073       -6.5897301302  MEMB      91              0.0000000000
     50286      1351  PPPE      C310          -35.4535428379      -29.3813883201       -4.5702922253  MEMB      91              0.0000000000
     50287      1351  PPPE      H10X          -36.1597612911      -28.5181712942       -4.6163365168  MEMB      91              0.0000000000
     50288      1351  PPPE      H10Y          -34.5758877530      -28.9416628328       -4.0424098553  MEMB      91              0.0000000000
     50289      1351  PPPE      C311          -35.8450291827      -30.6160042359       -3.8340249163  MEMB      91              0.0000000000
     50290      1351  PPPE      H11X          -35.9236488499      -30.3477453946       -2.7547462831  MEMB      91              0.0000000000
     50291      1351  PPPE      H11Y          -35.0869108064      -31.3996753461       -3.9517114644  MEMB      91              0.0000000000
     50292      1351  PPPE      C312          -37.1848161715      -31.1569843162       -4.3220803634  MEMB      91              0.0000000000
     50293      1351  PPPE      H12X          -37.2101366008      -31.7154467792       -5.2658165029  MEMB      91              0.0000000000
     50294      1351  PPPE      H12Y          -37.7985957842      -30.3667773214       -4.7113117626  MEMB      91              0.0000000000
     50295      1351  PPPE      C313          -37.8985903315      -31.6815834952       -3.0913842869  MEMB      91              0.0000000000
     50296      1351  PPPE      H13X          -38.9803502720      -31.4613632351       -3.3051430850  MEMB      91              0.0000000000
     50297      1351  PPPE      H13Y          -37.7808759562      -31.1627346237       -2.1477651369  MEMB      91              0.0000000000
     50298      1351  PPPE      C314          -37.2679067802      -33.0641100213       -2.8170571032  MEMB      91              0.0000000000
     50299      1351  PPPE      H14X          -36.1867284605      -32.8803967391       -2.8181493857  MEMB      91              0.0000000000
     50300      1351  PPPE      H14Y          -37.4460825323      -33.7058969079       -3.7088719729  MEMB      91              0.0000000000
     50301      1351  PPPE      C315          -37.3588581590      -33.8236077229       -1.4702596884  MEMB      91              0.0000000000
     50302      1351  PPPE      H15X          -37.1757648604      -34.9035757058       -1.5718307601  MEMB      91              0.0000000000
     50303      1351  PPPE      H15Y          -38.2210086428      -34.3446998151       -1.2839332682  MEMB      91              0.0000000000
     50304      1351  PPPE      C316          -37.4883447651      -33.1345910394       -0.1099601718  MEMB      91              0.0000000000
     50305      1351  PPPE      H16X          -37.8584843562      -33.9177630688        0.6101380711  MEMB      91              0.0000000000
     50306      1351  PPPE      H16Y          -36.5035264529      -32.7258720071        0.0777679628  MEMB      91              0.0000000000
     50307      1351  PPPE      H16Z          -38.2628361723      -32.3293876853       -0.0247600904  MEMB      91              0.0000000000
     50308      1352  PPPE      N             -37.2440782797       33.2189275888      -18.1320244073  MEMB      92              0.0000000000
     50309      1352  PPPE      HN1           -36.5192153417       33.2495557423      -17.3825696416  MEMB      92              0.0000000000
     50310      1352  PPPE      HN2           -37.9105557428       34.0010056382      -17.9455533400  MEMB      92              0.0000000000
     50311      1352  PPPE      HN3           -37.7534815299       32.3148469309      -18.1043511859  MEMB      92              0.0000000000
     50312      1352  PPPE      C12           -36.5590335304       33.4411261747      -19.4579856698  MEMB      92              0.0000000000
     50313      1352  PPPE      H12A          -35.9880355930       34.3882535070      -19.4648205206  MEMB      92              0.0000000000
     50314      1352  PPPE      H12B          -37.3285850160       33.5190653316      -20.2196058756  MEMB      92              0.0000000000
     50315      1352  PPPE      C11           -35.8056351013       32.2305761026      -19.9357223757  MEMB      92              0.0000000000
     50316      1352  PPPE      H11A          -35.4697693552       32.4008666340      -20.9832347126  MEMB      92              0.0000000000
     50317      1352  PPPE      H11B          -36.5489681002       31.3812868422      -19.9076967527  MEMB      92              0.0000000000
     50318      1352  PPPE      P             -34.1182843845       30.5559469110      -19.1598165529  MEMB      92              0.0000000000
     50319      1352  PPPE      O13           -34.9785534292       30.1602024955      -18.0983392481  MEMB      92              0.0000000000
     50320      1352  PPPE      O14           -34.4516330680       29.8231352185      -20.4156423145  MEMB      92              0.0000000000
     50321      1352  PPPE      O11           -32.6107810820       30.5454394457      -18.7128105881  MEMB      92              0.0000000000
     50322      1352  PPPE      O12           -34.6402918317       32.0453796431      -19.1499055914  MEMB      92              0.0000000000
     50323      1352  PPPE      C1            -32.0555016739       31.7284267450      -18.1681199174  MEMB      92              0.0000000000
     50324      1352  PPPE      HA            -32.8091674644       32.4866179651      -17.8158020204  MEMB      92              0.0000000000
     50325      1352  PPPE      HB            -31.4208274871       32.1801363157      -18.9536543033  MEMB      92              0.0000000000
     50326      1352  PPPE      C2            -31.2129816737       31.3878634566      -16.9373891885  MEMB      92              0.0000000000
     50327      1352  PPPE      HS            -30.4198816800       30.6587063158      -17.2273897325  MEMB      92              0.0000000000
     50328      1352  PPPE      O21           -32.0927298318       30.9139864502      -15.9056700849  MEMB      92              0.0000000000
     50329      1352  PPPE      C21           -31.4974618822       30.2173348072      -14.9775471171  MEMB      92              0.0000000000
     50330      1352  PPPE      O22           -30.3318080550       29.8541890047      -15.0079619550  MEMB      92              0.0000000000
     50331      1352  PPPE      C22           -32.4768320534       29.8781492908      -13.8778347296  MEMB      92              0.0000000000
     50332      1352  PPPE      H2R           -32.4176671749       28.7925496294      -13.6904678755  MEMB      92              0.0000000000
     50333      1352  PPPE      H2S           -33.5148196033       30.0778185116      -14.0772890794  MEMB      92              0.0000000000
     50334      1352  PPPE      C3            -30.5682139944       32.6486649098      -16.4549724849  MEMB      92              0.0000000000
     50335      1352  PPPE      HX            -29.9901261151       32.3888268443      -15.5355428792  MEMB      92              0.0000000000
     50336      1352  PPPE      HY            -29.9356126726       33.0836682427      -17.2561793563  MEMB      92              0.0000000000
     50337      1352  PPPE      O31           -31.6625979092       33.5232969657      -16.2171999311  MEMB      92              0.0000000000
     50338      1352  PPPE      C31           -31.4321468771       34.3684127891      -15.3196443145  MEMB      92              0.0000000000
     50339      1352  PPPE      O32           -30.4520391232       34.6506656783      -14.7473318855  MEMB      92              0.0000000000
     50340      1352  PPPE      C32           -32.4676755401       35.1593627802      -14.8986086431  MEMB      92              0.0000000000
     50341      1352  PPPE      H2X           -32.6920757197       35.6898671660      -15.8244961925  MEMB      92              0.0000000000
     50342      1352  PPPE      H2Y           -31.9644072740       35.6847793766      -14.0806622366  MEMB      92              0.0000000000
     50343      1352  PPPE      C23           -32.6317271480       30.8651356808      -12.7372857250  MEMB      92              0.0000000000
     50344      1352  PPPE      H3R           -33.2639289502       31.7177130116      -13.0706749751  MEMB      92              0.0000000000
     50345      1352  PPPE      H3S           -31.7269928588       31.3408353605      -12.4381223085  MEMB      92              0.0000000000
     50346      1352  PPPE      C24           -33.2147601690       30.0981490156      -11.5831123255  MEMB      92              0.0000000000
     50347      1352  PPPE      H4R           -32.5202400213       29.2549068028      -11.3484400066  MEMB      92              0.0000000000
     50348      1352  PPPE      H4S           -34.1819263872       29.6536670749      -11.9183855236  MEMB      92              0.0000000000
     50349      1352  PPPE      C25           -33.4788212033       30.9566737147      -10.3651507438  MEMB      92              0.0000000000
     50350      1352  PPPE      H5R           -34.3231025157       31.6337728698      -10.6031353445  MEMB      92              0.0000000000
     50351      1352  PPPE      H5S           -32.6087966399       31.5577239503      -10.0074048586  MEMB      92              0.0000000000
     50352      1352  PPPE      C26           -33.8137755034       30.0662152848       -9.1987001174  MEMB      92              0.0000000000
     50353      1352  PPPE      H6R           -34.4978562933       29.2552874124       -9.5446201361  MEMB      92              0.0000000000
     50354      1352  PPPE      H6S           -34.3390483613       30.6840708042       -8.4584781595  MEMB      92              0.0000000000
     50355      1352  PPPE      C27           -32.4822107676       29.7236980500       -8.5106301793  MEMB      92              0.0000000000
     50356      1352  PPPE      H7R           -32.0749145444       30.6496013565       -8.0401822803  MEMB      92              0.0000000000
     50357      1352  PPPE      H7S           -31.7884981346       29.1942129487       -9.1772576609  MEMB      92              0.0000000000
     50358      1352  PPPE      C28           -32.5608331699       28.7577052604       -7.4385490377  MEMB      92              0.0000000000
     50359      1352  PPPE      H8R           -31.8100447577       28.0391476201       -7.1020021079  MEMB      92              0.0000000000
     50360      1352  PPPE      H8S           -33.3970530308       28.1835771997       -7.8506182659  MEMB      92              0.0000000000
     50361      1352  PPPE      C29           -33.0870188659       29.4492276059       -6.3068976413  MEMB      92              0.0000000000
     50362      1352  PPPE      H91           -34.1428727990       29.4360917744       -6.6347918188  MEMB      92              0.0000000000
     50363      1352  PPPE      C210          -32.6065669531       29.8495204151       -5.1091636218  MEMB      92              0.0000000000
     50364      1352  PPPE      H101          -33.1409398180       29.6550420487       -4.1461199641  MEMB      92              0.0000000000
     50365      1352  PPPE      C211          -31.2865884018       29.6971006490       -4.6275164697  MEMB      92              0.0000000000
     50366      1352  PPPE      H11R          -30.7617473429       29.9233823227       -5.5574074362  MEMB      92              0.0000000000
     50367      1352  PPPE      H11S          -31.1002800403       28.6837342091       -4.2134984799  MEMB      92              0.0000000000
     50368      1352  PPPE      C212          -31.2379124690       30.9038450753       -3.6899595962  MEMB      92              0.0000000000
     50369      1352  PPPE      H12R          -31.7967124077       31.8021212453       -4.0778093493  MEMB      92              0.0000000000
     50370      1352  PPPE      H12S          -30.1664832790       31.1389467564       -3.6708676896  MEMB      92              0.0000000000
     50371      1352  PPPE      C213          -31.6797214565       30.7241273946       -2.2468739327  MEMB      92              0.0000000000
     50372      1352  PPPE      H13R          -32.7766327740       30.6223984665       -2.2207148550  MEMB      92              0.0000000000
     50373      1352  PPPE      H13S          -31.4347352031       31.6582326162       -1.6876269586  MEMB      92              0.0000000000
     50374      1352  PPPE      C214          -31.0774837264       29.5296370405       -1.5371823731  MEMB      92              0.0000000000
     50375      1352  PPPE      H14R          -30.2201416589       29.7992246052       -1.0078396193  MEMB      92              0.0000000000
     50376      1352  PPPE      H14S          -30.7589679689       28.6625927244       -2.1228249336  MEMB      92              0.0000000000
     50377      1352  PPPE      C215          -31.8691121742       29.1487134770       -0.3534876261  MEMB      92              0.0000000000
     50378      1352  PPPE      H15R          -31.3240792413       28.3928380649        0.2275272649  MEMB      92              0.0000000000
     50379      1352  PPPE      H15S          -32.7831958511       28.6842286696       -0.6978247702  MEMB      92              0.0000000000
     50380      1352  PPPE      C216          -32.1581822704       30.3149022267        0.5366252234  MEMB      92              0.0000000000
     50381      1352  PPPE      H16R          -31.3022950319       30.5246061868        1.2361064010  MEMB      92              0.0000000000
     50382      1352  PPPE      H16S          -32.5664863191       31.2569152579        0.1512693668  MEMB      92              0.0000000000
     50383      1352  PPPE      H16T          -33.0501415760       29.8949857606        1.0358050177  MEMB      92              0.0000000000
     50384      1352  PPPE      C33           -33.4421900634       34.5226035299      -14.0216650447  MEMB      92              0.0000000000
     50385      1352  PPPE      H3X           -33.6722575014       33.5719667840      -14.5295120349  MEMB      92              0.0000000000
     50386      1352  PPPE      H3Y           -34.1799916948       35.3396647934      -13.9869892743  MEMB      92              0.0000000000
     50387      1352  PPPE      C34           -33.2260085420       34.3127531826      -12.5305796097  MEMB      92              0.0000000000
     50388      1352  PPPE      H4X           -32.2728637159       33.8371947146      -12.2346144342  MEMB      92              0.0000000000
     50389      1352  PPPE      H4Y           -34.0514310014       33.5721257102      -12.4112013210  MEMB      92              0.0000000000
     50390      1352  PPPE      C35           -33.5426074186       35.4795645457      -11.5768088910  MEMB      92              0.0000000000
     50391      1352  PPPE      H5X           -34.4783269624       36.0160468641      -11.8415408844  MEMB      92              0.0000000000
     50392      1352  PPPE      H5Y           -32.7209499177       36.2234931564      -11.6420260294  MEMB      92              0.0000000000
     50393      1352  PPPE      C36           -33.6228283241       34.9200659410      -10.1539017478  MEMB      92              0.0000000000
     50394      1352  PPPE      H6X           -32.6114967646       34.5507952078       -9.8809526432  MEMB      92              0.0000000000
     50395      1352  PPPE      H6Y           -34.3128388081       34.0467491204      -10.1318040381  MEMB      92              0.0000000000
     50396      1352  PPPE      C37           -33.9576301143       35.9296797322       -9.0704187085  MEMB      92              0.0000000000
     50397      1352  PPPE      H7X           -35.0269796415       36.1200534938       -9.0569907631  MEMB      92              0.0000000000
     50398      1352  PPPE      H7Y           -33.4483901406       36.8917889497       -9.2549354987  MEMB      92              0.0000000000
     50399      1352  PPPE      C38           -33.5534115859       35.4348634122       -7.6967166679  MEMB      92              0.0000000000
     50400      1352  PPPE      H8X           -33.4639438399       36.2944532300       -7.0016807806  MEMB      92              0.0000000000
     50401      1352  PPPE      H8Y           -32.6042839166       34.8678665178       -7.7261336625  MEMB      92              0.0000000000
     50402      1352  PPPE      C39           -34.5767471674       34.4891965437       -7.1623901385  MEMB      92              0.0000000000
     50403      1352  PPPE      H9X           -34.5230937586       33.5360790920       -7.7362399067  MEMB      92              0.0000000000
     50404      1352  PPPE      H9Y           -35.5826426869       34.9386489145       -7.3147589502  MEMB      92              0.0000000000
     50405      1352  PPPE      C310          -34.3308880968       34.1352760744       -5.6938931471  MEMB      92              0.0000000000
     50406      1352  PPPE      H10X          -33.9775475055       34.9621425290       -5.0991784486  MEMB      92              0.0000000000
     50407      1352  PPPE      H10Y          -33.6757605361       33.2441348321       -5.6480091635  MEMB      92              0.0000000000
     50408      1352  PPPE      C311          -35.5062307932       34.0235755445       -4.7698254975  MEMB      92              0.0000000000
     50409      1352  PPPE      H11X          -35.8230710437       33.5627683142       -5.6899846641  MEMB      92              0.0000000000
     50410      1352  PPPE      H11Y          -36.5958298601       33.9152857320       -4.8682424330  MEMB      92              0.0000000000
     50411      1352  PPPE      C312          -35.2673390346       33.2889889473       -3.4354116908  MEMB      92              0.0000000000
     50412      1352  PPPE      H12X          -34.5104557786       32.4472683105       -3.6106363167  MEMB      92              0.0000000000
     50413      1352  PPPE      H12Y          -36.3093972297       33.0372245144       -3.0301312360  MEMB      92              0.0000000000
     50414      1352  PPPE      C313          -34.6294352426       33.7257204836       -2.2744248763  MEMB      92              0.0000000000
     50415      1352  PPPE      H13X          -35.3186171246       34.5609216595       -2.2562289335  MEMB      92              0.0000000000
     50416      1352  PPPE      H13Y          -33.6059616564       33.7711154000       -2.7428423771  MEMB      92              0.0000000000
     50417      1352  PPPE      C314          -34.9256615554       32.7569951322       -1.1173072146  MEMB      92              0.0000000000
     50418      1352  PPPE      H14X          -34.6509750552       33.4849166968       -0.3308972060  MEMB      92              0.0000000000
     50419      1352  PPPE      H14Y          -34.2158047321       31.9006185140       -1.1306644344  MEMB      92              0.0000000000
     50420      1352  PPPE      C315          -36.3766091379       32.3291888054       -0.7149920056  MEMB      92              0.0000000000
     50421      1352  PPPE      H15X          -36.9331425689       31.5510980861       -1.2217356203  MEMB      92              0.0000000000
     50422      1352  PPPE      H15Y          -37.1362105099       33.1022390002       -0.8819662165  MEMB      92              0.0000000000
     50423      1352  PPPE      C316          -36.3820863214       31.7737784307        0.6969177633  MEMB      92              0.0000000000
     50424      1352  PPPE      H16X          -35.6516944275       30.9265113462        0.7788999052  MEMB      92              0.0000000000
     50425      1352  PPPE      H16Y          -36.0622387454       32.5810487744        1.3609233640  MEMB      92              0.0000000000
     50426      1352  PPPE      H16Z          -37.4007084723       31.3863520431        0.9270945980  MEMB      92              0.0000000000
     50427      1353  PPPE      N              31.1992562850       32.3831047377      -21.4152857895  MEMB      93              0.0000000000
     50428      1353  PPPE      HN1            32.1346634066       32.5570956645      -21.8359875683  MEMB      93              0.0000000000
     50429      1353  PPPE      HN2            30.7186047494       31.6844380422      -22.0070753493  MEMB      93              0.0000000000
     50430      1353  PPPE      HN3            30.6758220797       33.2594549635      -21.2220653248  MEMB      93              0.0000000000
     50431      1353  PPPE      C12            31.4134721783       31.6830195533      -20.1146151080  MEMB      93              0.0000000000
     50432      1353  PPPE      H12A           32.4979395107       31.7059829879      -19.8592485896  MEMB      93              0.0000000000
     50433      1353  PPPE      H12B           31.0363369816       30.6702709006      -20.3442331358  MEMB      93              0.0000000000
     50434      1353  PPPE      C11            30.5376178396       32.1559971892      -18.9545118879  MEMB      93              0.0000000000
     50435      1353  PPPE      H11A           30.8020610296       31.6497691686      -17.9851312709  MEMB      93              0.0000000000
     50436      1353  PPPE      H11B           29.5143769331       31.8328508459      -19.2225688615  MEMB      93              0.0000000000
     50437      1353  PPPE      P              31.9416739470       34.1821977371      -18.3440195324  MEMB      93              0.0000000000
     50438      1353  PPPE      O13            32.7585832349       33.1026753696      -17.7782619877  MEMB      93              0.0000000000
     50439      1353  PPPE      O14            32.4205972798       34.9277946331      -19.5296606706  MEMB      93              0.0000000000
     50440      1353  PPPE      O11            31.5187129383       35.0983821547      -17.1549312553  MEMB      93              0.0000000000
     50441      1353  PPPE      O12            30.5705053288       33.5690893204      -18.8311909981  MEMB      93              0.0000000000
     50442      1353  PPPE      C1             30.4308501629       35.9824991688      -17.2333936555  MEMB      93              0.0000000000
     50443      1353  PPPE      HA             29.8124120306       35.8888777573      -18.1577392308  MEMB      93              0.0000000000
     50444      1353  PPPE      HB             30.8239130932       37.0255627425      -17.2183138708  MEMB      93              0.0000000000
     50445      1353  PPPE      C2             29.4253903298       35.7898909895      -16.0830805251  MEMB      93              0.0000000000
     50446      1353  PPPE      HS             28.9476485162       36.7763218138      -16.1610325377  MEMB      93              0.0000000000
     50447      1353  PPPE      O21            29.9536626574       35.5574823285      -14.7650551767  MEMB      93              0.0000000000
     50448      1353  PPPE      C21            30.5791024645       36.5324420385      -14.1871214240  MEMB      93              0.0000000000
     50449      1353  PPPE      O22            30.7529786853       37.6513685495      -14.6211203257  MEMB      93              0.0000000000
     50450      1353  PPPE      C22            31.1538890518       36.0844046822      -12.8418164688  MEMB      93              0.0000000000
     50451      1353  PPPE      H2R            32.2454758023       36.0041566740      -12.9938895302  MEMB      93              0.0000000000
     50452      1353  PPPE      H2S            30.7842188779       35.0769281216      -12.5707876177  MEMB      93              0.0000000000
     50453      1353  PPPE      C3             28.4056918144       34.6292498517      -16.3190342765  MEMB      93              0.0000000000
     50454      1353  PPPE      HX             27.4430825926       34.8606833720      -15.8097672647  MEMB      93              0.0000000000
     50455      1353  PPPE      HY             28.1943898036       34.5303359668      -17.4000577496  MEMB      93              0.0000000000
     50456      1353  PPPE      O31            28.9321991356       33.3716190325      -15.8918824390  MEMB      93              0.0000000000
     50457      1353  PPPE      C31            28.7683241496       33.0624073453      -14.6295800411  MEMB      93              0.0000000000
     50458      1353  PPPE      O32            27.9510246007       33.5138156573      -13.8468083540  MEMB      93              0.0000000000
     50459      1353  PPPE      C32            29.7203074787       31.9534315041      -14.3087465287  MEMB      93              0.0000000000
     50460      1353  PPPE      H2X            30.7257312745       32.1730471326      -14.6843491922  MEMB      93              0.0000000000
     50461      1353  PPPE      H2Y            29.3167872336       31.0299791225      -14.7894586827  MEMB      93              0.0000000000
     50462      1353  PPPE      C23            30.8709855460       37.1361477755      -11.7398974510  MEMB      93              0.0000000000
     50463      1353  PPPE      H3R            31.0199879826       38.1679110042      -12.1137075076  MEMB      93              0.0000000000
     50464      1353  PPPE      H3S            31.5675105930       36.9863774622      -10.8810314224  MEMB      93              0.0000000000
     50465      1353  PPPE      C24            29.4443863958       37.0355109700      -11.2362521013  MEMB      93              0.0000000000
     50466      1353  PPPE      H4R            28.7199138256       37.3924142597      -11.9987517579  MEMB      93              0.0000000000
     50467      1353  PPPE      H4S            29.3263544979       37.7118766021      -10.3566921259  MEMB      93              0.0000000000
     50468      1353  PPPE      C25            29.1548888456       35.5892138999      -10.8847144111  MEMB      93              0.0000000000
     50469      1353  PPPE      H5R            30.0055600385       35.0830150090      -10.3853582945  MEMB      93              0.0000000000
     50470      1353  PPPE      H5S            28.7150696627       34.9639720176      -11.6969337554  MEMB      93              0.0000000000
     50471      1353  PPPE      C26            28.3598969585       35.5248759541       -9.6998793031  MEMB      93              0.0000000000
     50472      1353  PPPE      H6R            27.5766486369       36.2822725399       -9.7803534393  MEMB      93              0.0000000000
     50473      1353  PPPE      H6S            28.8129689670       36.1140603648       -8.9033117112  MEMB      93              0.0000000000
     50474      1353  PPPE      C27            27.9833021345       34.0632303366       -9.3851577036  MEMB      93              0.0000000000
     50475      1353  PPPE      H7R            27.4604499645       33.5539026348      -10.2127616117  MEMB      93              0.0000000000
     50476      1353  PPPE      H7S            27.2440687032       34.1269124231       -8.6601191114  MEMB      93              0.0000000000
     50477      1353  PPPE      C28            28.7847096511       33.2327110532       -8.4378637337  MEMB      93              0.0000000000
     50478      1353  PPPE      H8R            29.1663834963       33.8617861240       -7.6145442173  MEMB      93              0.0000000000
     50479      1353  PPPE      H8S            29.5272661518       32.9578055161       -9.2216232618  MEMB      93              0.0000000000
     50480      1353  PPPE      C29            27.7329129300       32.2631463017       -7.9163146126  MEMB      93              0.0000000000
     50481      1353  PPPE      H91            27.6679645790       31.3786840853       -8.3863899497  MEMB      93              0.0000000000
     50482      1353  PPPE      C210           27.0322146883       32.2248171539       -6.8132738546  MEMB      93              0.0000000000
     50483      1353  PPPE      H101           26.6041001642       31.2762880160       -6.4652890095  MEMB      93              0.0000000000
     50484      1353  PPPE      C211           27.1153779054       33.1565950985       -5.7228522227  MEMB      93              0.0000000000
     50485      1353  PPPE      H11R           26.0582954695       33.1778834909       -5.3871071563  MEMB      93              0.0000000000
     50486      1353  PPPE      H11S           27.6012357292       34.0700629110       -6.0304522401  MEMB      93              0.0000000000
     50487      1353  PPPE      C212           27.9669835093       32.6070202005       -4.6071642535  MEMB      93              0.0000000000
     50488      1353  PPPE      H12R           28.9964406169       32.2221060146       -4.7574711691  MEMB      93              0.0000000000
     50489      1353  PPPE      H12S           27.3172016229       31.7637833479       -4.5627557861  MEMB      93              0.0000000000
     50490      1353  PPPE      C213           27.7732114583       33.2773685524       -3.2804856489  MEMB      93              0.0000000000
     50491      1353  PPPE      H13R           26.6803548219       33.3083357447       -3.0401936584  MEMB      93              0.0000000000
     50492      1353  PPPE      H13S           28.0846114024       34.3056347611       -3.5172693078  MEMB      93              0.0000000000
     50493      1353  PPPE      C214           28.6586329116       32.7818550210       -2.1114995766  MEMB      93              0.0000000000
     50494      1353  PPPE      H14R           28.2694744605       33.2860810589       -1.1991924979  MEMB      93              0.0000000000
     50495      1353  PPPE      H14S           29.6898631420       33.0537295226       -2.3617923412  MEMB      93              0.0000000000
     50496      1353  PPPE      C215           28.9690913056       31.3787417074       -1.6406202711  MEMB      93              0.0000000000
     50497      1353  PPPE      H15R           29.5077920982       30.6393059402       -2.2740301301  MEMB      93              0.0000000000
     50498      1353  PPPE      H15S           28.1427950303       30.8076672178       -1.5188337768  MEMB      93              0.0000000000
     50499      1353  PPPE      C216           28.8886009601       31.3031315640       -0.1633981292  MEMB      93              0.0000000000
     50500      1353  PPPE      H16R           27.9859271855       31.6124032158        0.3654639980  MEMB      93              0.0000000000
     50501      1353  PPPE      H16S           29.0611945742       30.2149525335        0.1046882463  MEMB      93              0.0000000000
     50502      1353  PPPE      H16T           29.6014049848       31.9862654423        0.2622988171  MEMB      93              0.0000000000
     50503      1353  PPPE      C33            29.8163370735       31.8889905447      -12.7978847195  MEMB      93              0.0000000000
     50504      1353  PPPE      H3X            28.7502625124       31.5943744275      -12.6832683634  MEMB      93              0.0000000000
     50505      1353  PPPE      H3Y            29.6996019320       32.7639687914      -12.1388583197  MEMB      93              0.0000000000
     50506      1353  PPPE      C34            31.0492428146       31.0653711365      -12.2817604405  MEMB      93              0.0000000000
     50507      1353  PPPE      H4X            31.9373349563       31.3205232959      -12.8852786278  MEMB      93              0.0000000000
     50508      1353  PPPE      H4Y            30.9825842891       29.9665140297      -12.3582533156  MEMB      93              0.0000000000
     50509      1353  PPPE      C35            31.3941058506       31.2514936990      -10.7987163365  MEMB      93              0.0000000000
     50510      1353  PPPE      H5X            31.9690246853       30.3739207121      -10.4261082011  MEMB      93              0.0000000000
     50511      1353  PPPE      H5Y            30.4586510113       31.2693494440      -10.2217178465  MEMB      93              0.0000000000
     50512      1353  PPPE      C36            32.1188138722       32.5432151861      -10.5265684582  MEMB      93              0.0000000000
     50513      1353  PPPE      H6X            31.4954361468       33.3321540935      -11.0058266940  MEMB      93              0.0000000000
     50514      1353  PPPE      H6Y            33.1073941469       32.5204199676      -11.0215377953  MEMB      93              0.0000000000
     50515      1353  PPPE      C37            32.3060672328       32.7990885927       -9.0307882424  MEMB      93              0.0000000000
     50516      1353  PPPE      H7X            33.0901049642       32.1285579955       -8.6193967565  MEMB      93              0.0000000000
     50517      1353  PPPE      H7Y            31.3694007567       32.5338674412       -8.4941830128  MEMB      93              0.0000000000
     50518      1353  PPPE      C38            32.5756610440       34.2718358184       -8.7154793303  MEMB      93              0.0000000000
     50519      1353  PPPE      H8X            31.9330476044       34.8682756047       -9.4019578320  MEMB      93              0.0000000000
     50520      1353  PPPE      H8Y            33.6158312443       34.5624514742       -8.9747404610  MEMB      93              0.0000000000
     50521      1353  PPPE      C39            32.1804145689       34.6021527937       -7.2590439634  MEMB      93              0.0000000000
     50522      1353  PPPE      H9X            31.1318277851       34.2605695396       -7.1027317698  MEMB      93              0.0000000000
     50523      1353  PPPE      H9Y            32.1967140318       35.6997543106       -7.1084455650  MEMB      93              0.0000000000
     50524      1353  PPPE      C310           32.9991262590       33.8553452557       -6.1896416976  MEMB      93              0.0000000000
     50525      1353  PPPE      H10X           34.0762683822       34.1234691147       -6.2326404522  MEMB      93              0.0000000000
     50526      1353  PPPE      H10Y           32.8673679990       32.7745196715       -6.4162409534  MEMB      93              0.0000000000
     50527      1353  PPPE      C311           32.4942394055       33.9883022083       -4.7541290531  MEMB      93              0.0000000000
     50528      1353  PPPE      H11X           32.9412481061       33.2015776876       -4.1053229339  MEMB      93              0.0000000000
     50529      1353  PPPE      H11Y           31.3905946537       33.8236322834       -4.7214978162  MEMB      93              0.0000000000
     50530      1353  PPPE      C312           32.8040483172       35.3160176516       -4.0994395546  MEMB      93              0.0000000000
     50531      1353  PPPE      H12X           32.4495887762       36.1419114724       -4.7547568486  MEMB      93              0.0000000000
     50532      1353  PPPE      H12Y           33.8800287916       35.4879272623       -3.8579390580  MEMB      93              0.0000000000
     50533      1353  PPPE      C313           32.0538780161       35.2880524785       -2.8028335732  MEMB      93              0.0000000000
     50534      1353  PPPE      H13X           32.6043584321       34.6507770865       -2.0696651911  MEMB      93              0.0000000000
     50535      1353  PPPE      H13Y           31.0473021458       34.8270680450       -2.9119049360  MEMB      93              0.0000000000
     50536      1353  PPPE      C314           31.9112345601       36.6518757491       -2.2168818927  MEMB      93              0.0000000000
     50537      1353  PPPE      H14X           31.9712078152       37.5396741944       -2.8691339169  MEMB      93              0.0000000000
     50538      1353  PPPE      H14Y           32.7036948897       36.7585302339       -1.5682864847  MEMB      93              0.0000000000
     50539      1353  PPPE      C315           30.8773365025       36.5557805861       -1.1680052834  MEMB      93              0.0000000000
     50540      1353  PPPE      H15X           30.7935729423       35.5525819626       -0.7114217844  MEMB      93              0.0000000000
     50541      1353  PPPE      H15Y           30.0638725373       36.6727655576       -1.8507044775  MEMB      93              0.0000000000
     50542      1353  PPPE      C316           30.8320377013       37.5414615381       -0.0702745320  MEMB      93              0.0000000000
     50543      1353  PPPE      H16X           30.3003875045       37.0706223458        0.7616700745  MEMB      93              0.0000000000
     50544      1353  PPPE      H16Y           31.5806390879       37.6077549529        0.6546144674  MEMB      93              0.0000000000
     50545      1353  PPPE      H16Z           30.5707701078       38.5700274837       -0.3623234424  MEMB      93              0.0000000000
     50546      1354  PPPE      N              28.0331565907       40.0989689584      -19.8672079240  MEMB      94              0.0000000000
     50547      1354  PPPE      HN1            27.9935481166       39.2155894444      -19.3119473599  MEMB      94              0.0000000000
     50548      1354  PPPE      HN2            28.2734584593       39.9220222506      -20.8642038723  MEMB      94              0.0000000000
     50549      1354  PPPE      HN3            28.7136762246       40.7689173136      -19.4467366546  MEMB      94              0.0000000000
     50550      1354  PPPE      C12            26.6851169027       40.7672972105      -19.8457255823  MEMB      94              0.0000000000
     50551      1354  PPPE      H12A           26.7909653085       41.6556267244      -20.4994899686  MEMB      94              0.0000000000
     50552      1354  PPPE      H12B           26.5098036234       41.1084006966      -18.8021366253  MEMB      94              0.0000000000
     50553      1354  PPPE      C11            25.5187065028       39.8595021005      -20.3060467467  MEMB      94              0.0000000000
     50554      1354  PPPE      H11A           25.6190109649       39.5057156718      -21.3548308062  MEMB      94              0.0000000000
     50555      1354  PPPE      H11B           24.6017952796       40.4997911696      -20.3324896526  MEMB      94              0.0000000000
     50556      1354  PPPE      P              24.1750724257       38.6410741363      -18.3849617813  MEMB      94              0.0000000000
     50557      1354  PPPE      O13            23.4874393649       39.9513456702      -18.4181939704  MEMB      94              0.0000000000
     50558      1354  PPPE      O14            23.3690663995       37.4374351983      -18.6577056305  MEMB      94              0.0000000000
     50559      1354  PPPE      O11            24.9888836778       38.4864193971      -17.0323165578  MEMB      94              0.0000000000
     50560      1354  PPPE      O12            25.3799988556       38.7276474695      -19.4407911403  MEMB      94              0.0000000000
     50561      1354  PPPE      C1             26.2571852246       37.8602730486      -16.8924159141  MEMB      94              0.0000000000
     50562      1354  PPPE      HA             27.0494682735       38.4756762562      -17.3783844076  MEMB      94              0.0000000000
     50563      1354  PPPE      HB             26.2791878937       36.8831258558      -17.4314245310  MEMB      94              0.0000000000
     50564      1354  PPPE      C2             26.6512968440       37.5388075390      -15.3904485867  MEMB      94              0.0000000000
     50565      1354  PPPE      HS             27.4007354944       36.7982177719      -15.4434587547  MEMB      94              0.0000000000
     50566      1354  PPPE      O21            25.6199153957       36.9037175959      -14.6187329091  MEMB      94              0.0000000000
     50567      1354  PPPE      C21            26.1686357673       36.0746218005      -13.6753569958  MEMB      94              0.0000000000
     50568      1354  PPPE      O22            27.3326204646       35.9777689453      -13.4072712972  MEMB      94              0.0000000000
     50569      1354  PPPE      C22            25.1056036328       35.4144371588      -12.9411134000  MEMB      94              0.0000000000
     50570      1354  PPPE      H2R            24.5005953567       34.8460205385      -13.6734846458  MEMB      94              0.0000000000
     50571      1354  PPPE      H2S            24.6880076135       36.3777835364      -12.5604872805  MEMB      94              0.0000000000
     50572      1354  PPPE      C3             27.1519666676       38.7771986112      -14.5756516576  MEMB      94              0.0000000000
     50573      1354  PPPE      HX             27.3695153021       38.4340389453      -13.5397061554  MEMB      94              0.0000000000
     50574      1354  PPPE      HY             28.1317690747       39.1599437272      -14.9552257497  MEMB      94              0.0000000000
     50575      1354  PPPE      O31            26.1312305700       39.7799582834      -14.5101237823  MEMB      94              0.0000000000
     50576      1354  PPPE      C31            26.2766094837       40.8338670227      -15.2882785356  MEMB      94              0.0000000000
     50577      1354  PPPE      O32            27.3050179181       41.1682217012      -15.8574539717  MEMB      94              0.0000000000
     50578      1354  PPPE      C32            24.9453936261       41.5896701029      -15.3761113041  MEMB      94              0.0000000000
     50579      1354  PPPE      H2X            24.1614795881       40.8919621060      -15.7235610836  MEMB      94              0.0000000000
     50580      1354  PPPE      H2Y            25.0361744184       42.3895433967      -16.1436589657  MEMB      94              0.0000000000
     50581      1354  PPPE      C23            25.3304008144       34.5894602916      -11.6925172042  MEMB      94              0.0000000000
     50582      1354  PPPE      H3R            26.1895085075       33.9273643083      -11.8573583515  MEMB      94              0.0000000000
     50583      1354  PPPE      H3S            24.4558158426       33.9563109911      -11.4258745332  MEMB      94              0.0000000000
     50584      1354  PPPE      C24            25.6144529161       35.5703788527      -10.5790808520  MEMB      94              0.0000000000
     50585      1354  PPPE      H4R            25.2831704912       36.5662210434      -10.4972641463  MEMB      94              0.0000000000
     50586      1354  PPPE      H4S            26.4792518686       35.9905463562      -11.1149881649  MEMB      94              0.0000000000
     50587      1354  PPPE      C25            25.4537520000       35.0407554123       -9.1164974819  MEMB      94              0.0000000000
     50588      1354  PPPE      H5R            25.5794048171       33.9745631311       -9.4044290836  MEMB      94              0.0000000000
     50589      1354  PPPE      H5S            24.5005287967       34.8578923449       -8.6346035483  MEMB      94              0.0000000000
     50590      1354  PPPE      C26            26.2482390320       35.7698339802       -7.8621148203  MEMB      94              0.0000000000
     50591      1354  PPPE      H6R            27.3423147241       35.7675716492       -7.7819867896  MEMB      94              0.0000000000
     50592      1354  PPPE      H6S            26.4343419941       35.1329698762       -7.0156083502  MEMB      94              0.0000000000
     50593      1354  PPPE      C27            26.1625435564       37.2346257099       -7.6727630354  MEMB      94              0.0000000000
     50594      1354  PPPE      H7R            25.1873450404       37.2006757966       -7.1609601684  MEMB      94              0.0000000000
     50595      1354  PPPE      H7S            26.1282520523       37.6900243799       -8.6928073065  MEMB      94              0.0000000000
     50596      1354  PPPE      C28            27.2521174753       37.8199331997       -6.7856281645  MEMB      94              0.0000000000
     50597      1354  PPPE      H8R            28.2486013853       37.8518050508       -7.2617706081  MEMB      94              0.0000000000
     50598      1354  PPPE      H8S            27.3591719610       37.1974140257       -5.8701237223  MEMB      94              0.0000000000
     50599      1354  PPPE      C29            26.8315477688       39.2245282747       -6.5362338916  MEMB      94              0.0000000000
     50600      1354  PPPE      H91            26.7184957798       39.8369588089       -7.4395341284  MEMB      94              0.0000000000
     50601      1354  PPPE      C210           26.5232961491       39.7525235919       -5.3567247883  MEMB      94              0.0000000000
     50602      1354  PPPE      H101           26.2459921094       40.8104468470       -5.3288016699  MEMB      94              0.0000000000
     50603      1354  PPPE      C211           26.5315390513       39.0485210927       -4.0347752769  MEMB      94              0.0000000000
     50604      1354  PPPE      H11R           26.7463010671       37.9618447115       -4.1255129338  MEMB      94              0.0000000000
     50605      1354  PPPE      H11S           25.4985931246       39.1444573592       -3.6477802211  MEMB      94              0.0000000000
     50606      1354  PPPE      C212           27.4906676661       39.6650205713       -3.0057015820  MEMB      94              0.0000000000
     50607      1354  PPPE      H12R           27.2654468832       40.7496230671       -2.9142771242  MEMB      94              0.0000000000
     50608      1354  PPPE      H12S           28.5560561098       39.5780356081       -3.3329058356  MEMB      94              0.0000000000
     50609      1354  PPPE      C213           27.3223889904       39.0247885967       -1.6222000467  MEMB      94              0.0000000000
     50610      1354  PPPE      H13R           26.2753240242       38.8611976840       -1.3222212228  MEMB      94              0.0000000000
     50611      1354  PPPE      H13S           27.8355487676       39.6871797754       -0.8786502930  MEMB      94              0.0000000000
     50612      1354  PPPE      C214           27.9698719722       37.6670554509       -1.5594829183  MEMB      94              0.0000000000
     50613      1354  PPPE      H14R           28.9875649626       38.0725355408       -1.6963078538  MEMB      94              0.0000000000
     50614      1354  PPPE      H14S           27.7308349559       36.9612635988       -2.3832456843  MEMB      94              0.0000000000
     50615      1354  PPPE      C215           27.7868442805       36.9441009002       -0.2374176855  MEMB      94              0.0000000000
     50616      1354  PPPE      H15R           28.3545129626       35.9755212713       -0.2262162309  MEMB      94              0.0000000000
     50617      1354  PPPE      H15S           26.7233144610       36.6426555434       -0.1166433022  MEMB      94              0.0000000000
     50618      1354  PPPE      C216           28.0410613626       37.8320657538        0.9760508202  MEMB      94              0.0000000000
     50619      1354  PPPE      H16R           29.0302497627       38.2588620459        1.1875963069  MEMB      94              0.0000000000
     50620      1354  PPPE      H16S           27.4081112127       38.6974599109        1.0946645669  MEMB      94              0.0000000000
     50621      1354  PPPE      H16T           27.7059616084       37.2007324834        1.7673047003  MEMB      94              0.0000000000
     50622      1354  PPPE      C33            24.5883544908       42.3198011038      -14.0625767524  MEMB      94              0.0000000000
     50623      1354  PPPE      H3X            23.8837912405       43.1478436277      -14.2985548670  MEMB      94              0.0000000000
     50624      1354  PPPE      H3Y            25.5392369922       42.7583255310      -13.7159417929  MEMB      94              0.0000000000
     50625      1354  PPPE      C34            24.0195634409       41.4744795530      -12.9129933090  MEMB      94              0.0000000000
     50626      1354  PPPE      H4X            24.8007452588       40.7246060818      -12.6664322581  MEMB      94              0.0000000000
     50627      1354  PPPE      H4Y            23.1154172132       40.9508215123      -13.2753242767  MEMB      94              0.0000000000
     50628      1354  PPPE      C35            23.6027270559       42.2680304809      -11.6532878507  MEMB      94              0.0000000000
     50629      1354  PPPE      H5X            22.8478037534       43.0384845456      -11.9190664063  MEMB      94              0.0000000000
     50630      1354  PPPE      H5Y            24.4970699412       42.7442804664      -11.2139302247  MEMB      94              0.0000000000
     50631      1354  PPPE      C36            23.0470923262       41.4481006746      -10.4995304571  MEMB      94              0.0000000000
     50632      1354  PPPE      H6X            22.2411553524       40.7764028143      -10.8641640210  MEMB      94              0.0000000000
     50633      1354  PPPE      H6Y            22.6284739349       42.1113633562       -9.7001069731  MEMB      94              0.0000000000
     50634      1354  PPPE      C37            24.1574008321       40.6809707561       -9.8134527162  MEMB      94              0.0000000000
     50635      1354  PPPE      H7X            24.9898441126       41.3603380243       -9.5281295060  MEMB      94              0.0000000000
     50636      1354  PPPE      H7Y            24.5195733117       39.8546222862      -10.4692006070  MEMB      94              0.0000000000
     50637      1354  PPPE      C38            23.6889098633       40.1592708489       -8.4931658690  MEMB      94              0.0000000000
     50638      1354  PPPE      H8X            23.7171605427       40.8960727243       -7.6815259914  MEMB      94              0.0000000000
     50639      1354  PPPE      H8Y            24.4976415286       39.4266174011       -8.2046694805  MEMB      94              0.0000000000
     50640      1354  PPPE      C39            22.2405931040       39.6157500044       -8.5760099439  MEMB      94              0.0000000000
     50641      1354  PPPE      H9X            22.1434100998       38.8879040238       -9.3758174209  MEMB      94              0.0000000000
     50642      1354  PPPE      H9Y            21.4215908029       40.0970211648       -9.0399372191  MEMB      94              0.0000000000
     50643      1354  PPPE      C310           21.8958979600       38.9259462692       -7.3077521964  MEMB      94              0.0000000000
     50644      1354  PPPE      H10X           22.9299651383       38.5770991817       -7.3365859648  MEMB      94              0.0000000000
     50645      1354  PPPE      H10Y           21.0562210372       38.2021059334       -7.3960856113  MEMB      94              0.0000000000
     50646      1354  PPPE      C311           21.7771012515       39.5462539575       -5.9866708095  MEMB      94              0.0000000000
     50647      1354  PPPE      H11X           20.8204576784       39.7849437579       -6.4128396760  MEMB      94              0.0000000000
     50648      1354  PPPE      H11Y           22.5191450678       40.3296706370       -5.9366288127  MEMB      94              0.0000000000
     50649      1354  PPPE      C312           21.3573856431       38.8813478490       -4.6774924157  MEMB      94              0.0000000000
     50650      1354  PPPE      H12X           20.4080706005       38.2786893391       -4.7183258469  MEMB      94              0.0000000000
     50651      1354  PPPE      H12Y           21.0736584156       39.6536590414       -3.9083327401  MEMB      94              0.0000000000
     50652      1354  PPPE      C313           22.4581587399       38.4108963181       -3.8819557361  MEMB      94              0.0000000000
     50653      1354  PPPE      H13X           23.1653905927       39.2385575149       -3.6906772876  MEMB      94              0.0000000000
     50654      1354  PPPE      H13Y           23.0801635470       37.6940323559       -4.4231559910  MEMB      94              0.0000000000
     50655      1354  PPPE      C314           21.6261869047       37.8796464452       -2.7550206114  MEMB      94              0.0000000000
     50656      1354  PPPE      H14X           21.0972447194       36.9029886706       -2.9351733559  MEMB      94              0.0000000000
     50657      1354  PPPE      H14Y           21.0834045024       38.5789644515       -2.0982155273  MEMB      94              0.0000000000
     50658      1354  PPPE      C315           22.5111112146       37.4463994465       -1.8608163310  MEMB      94              0.0000000000
     50659      1354  PPPE      H15X           23.3336869787       38.1718207183       -1.6446572347  MEMB      94              0.0000000000
     50660      1354  PPPE      H15Y           22.7662769591       36.4860242538       -2.6730933984  MEMB      94              0.0000000000
     50661      1354  PPPE      C316           21.8404500166       37.3472460076       -0.3363416992  MEMB      94              0.0000000000
     50662      1354  PPPE      H16X           22.3286530811       37.5189633436        0.6523004681  MEMB      94              0.0000000000
     50663      1354  PPPE      H16Y           21.2222692501       36.4658313841        0.0690259353  MEMB      94              0.0000000000
     50664      1354  PPPE      H16Z           22.9020108573       37.3228356886        0.0234295184  MEMB      94              0.0000000000
     50665      1355  PPPE      N              36.9240537838       25.1743333399      -18.8531484837  MEMB      95              0.0000000000
     50666      1355  PPPE      HN1            37.2351378371       25.3208360608      -19.8298068809  MEMB      95              0.0000000000
     50667      1355  PPPE      HN2            37.7141237538       25.1979129851      -18.1948727307  MEMB      95              0.0000000000
     50668      1355  PPPE      HN3            36.3917446695       24.2808341485      -18.7683182633  MEMB      95              0.0000000000
     50669      1355  PPPE      C12            36.0990806655       26.4029200297      -18.5900888338  MEMB      95              0.0000000000
     50670      1355  PPPE      H12A           35.5368959702       26.4127882411      -17.6440216296  MEMB      95              0.0000000000
     50671      1355  PPPE      H12B           35.4603273978       26.4176954590      -19.4785736226  MEMB      95              0.0000000000
     50672      1355  PPPE      C11            36.9037006163       27.6041069924      -18.2917127247  MEMB      95              0.0000000000
     50673      1355  PPPE      H11A           37.4014466648       27.4310752609      -17.3004678011  MEMB      95              0.0000000000
     50674      1355  PPPE      H11B           36.2226805542       28.4984782671      -18.1969686080  MEMB      95              0.0000000000
     50675      1355  PPPE      P              38.8166481899       28.7965950424      -19.4361746964  MEMB      95              0.0000000000
     50676      1355  PPPE      O13            40.0876745519       28.2709279863      -19.9675372540  MEMB      95              0.0000000000
     50677      1355  PPPE      O14            38.1196312765       29.8007242970      -20.2704091556  MEMB      95              0.0000000000
     50678      1355  PPPE      O11            38.9357951929       29.2534509820      -17.8906022829  MEMB      95              0.0000000000
     50679      1355  PPPE      O12            37.8050384718       27.6264937047      -19.3719679720  MEMB      95              0.0000000000
     50680      1355  PPPE      C1             40.3171333715       29.2356137571      -17.4945084228  MEMB      95              0.0000000000
     50681      1355  PPPE      HA             40.7510514825       30.1014398122      -17.0442889860  MEMB      95              0.0000000000
     50682      1355  PPPE      HB             41.0110433470       29.6277414825      -18.2385520374  MEMB      95              0.0000000000
     50683      1355  PPPE      C2             40.6624667982       28.1813047018      -16.4623712554  MEMB      95              0.0000000000
     50684      1355  PPPE      HS             41.1212057824       27.4400599571      -17.1431880325  MEMB      95              0.0000000000
     50685      1355  PPPE      O21            39.5242793106       27.6903098739      -15.6920500813  MEMB      95              0.0000000000
     50686      1355  PPPE      C21            39.8391710522       26.5519498951      -15.0857408145  MEMB      95              0.0000000000
     50687      1355  PPPE      O22            40.7684390123       25.8389846005      -15.3690579619  MEMB      95              0.0000000000
     50688      1355  PPPE      C22            38.8035068775       26.1773100895      -14.0522783933  MEMB      95              0.0000000000
     50689      1355  PPPE      H2R            38.2359750881       25.3355089277      -14.4761798955  MEMB      95              0.0000000000
     50690      1355  PPPE      H2S            38.1112125567       27.0234743136      -13.9179966107  MEMB      95              0.0000000000
     50691      1355  PPPE      C3             41.6700775618       28.7763501599      -15.4919677649  MEMB      95              0.0000000000
     50692      1355  PPPE      HX             42.3254826006       28.0452542693      -15.1296879451  MEMB      95              0.0000000000
     50693      1355  PPPE      HY             42.2378762891       29.5952728476      -16.0122301301  MEMB      95              0.0000000000
     50694      1355  PPPE      O31            41.0272566888       29.2241924550      -14.3444590760  MEMB      95              0.0000000000
     50695      1355  PPPE      C31            41.0290332001       28.8081051014      -13.0926293914  MEMB      95              0.0000000000
     50696      1355  PPPE      O32            41.7506218652       28.0774152689      -12.4976380765  MEMB      95              0.0000000000
     50697      1355  PPPE      C32            39.9580068065       29.3629186047      -12.2071703836  MEMB      95              0.0000000000
     50698      1355  PPPE      H2X            40.1729893819       30.3185782542      -12.2333222482  MEMB      95              0.0000000000
     50699      1355  PPPE      H2Y            40.2274607684       29.4651826121      -11.1476630004  MEMB      95              0.0000000000
     50700      1355  PPPE      C23            39.4394493166       25.6853547301      -12.7340527674  MEMB      95              0.0000000000
     50701      1355  PPPE      H3R            40.1097261605       26.4768845455      -12.3541635714  MEMB      95              0.0000000000
     50702      1355  PPPE      H3S            40.0439884898       24.7613365826      -12.9072682889  MEMB      95              0.0000000000
     50703      1355  PPPE      C24            38.3945687570       25.4409598029      -11.6536709694  MEMB      95              0.0000000000
     50704      1355  PPPE      H4R            37.9758237636       24.4187525205      -11.7600010699  MEMB      95              0.0000000000
     50705      1355  PPPE      H4S            37.5926645957       26.1955873452      -11.8039921648  MEMB      95              0.0000000000
     50706      1355  PPPE      C25            38.8643186475       25.5766828825      -10.2099287687  MEMB      95              0.0000000000
     50707      1355  PPPE      H5R            39.2401643448       26.6105276533      -10.0044384931  MEMB      95              0.0000000000
     50708      1355  PPPE      H5S            39.6795383929       24.8588228436       -9.9981671128  MEMB      95              0.0000000000
     50709      1355  PPPE      C26            37.7173116041       25.2766146256       -9.2611979490  MEMB      95              0.0000000000
     50710      1355  PPPE      H6R            37.3612546413       24.2302619054       -9.2048143579  MEMB      95              0.0000000000
     50711      1355  PPPE      H6S            36.8372415110       25.8720162776       -9.6167606795  MEMB      95              0.0000000000
     50712      1355  PPPE      C27            38.1383313593       25.6368155748       -7.8500024860  MEMB      95              0.0000000000
     50713      1355  PPPE      H7R            37.3321488986       25.1828398985       -7.2299046207  MEMB      95              0.0000000000
     50714      1355  PPPE      H7S            38.2072269913       26.7476486970       -7.8732798738  MEMB      95              0.0000000000
     50715      1355  PPPE      C28            39.2898133741       24.9919161528       -7.1593297764  MEMB      95              0.0000000000
     50716      1355  PPPE      H8R            39.4247264742       24.0822155329       -7.7724185311  MEMB      95              0.0000000000
     50717      1355  PPPE      H8S            39.0645861324       24.6211106968       -6.1432406658  MEMB      95              0.0000000000
     50718      1355  PPPE      C29            40.4919064949       25.8716497949       -7.1035690744  MEMB      95              0.0000000000
     50719      1355  PPPE      H91            41.2195019672       25.5846924751       -7.8165441460  MEMB      95              0.0000000000
     50720      1355  PPPE      C210           40.8513380404       26.9888734238       -6.4828834864  MEMB      95              0.0000000000
     50721      1355  PPPE      H101           41.8604288875       27.3550548018       -6.6089436343  MEMB      95              0.0000000000
     50722      1355  PPPE      C211           40.1067193280       27.8101419213       -5.5565622560  MEMB      95              0.0000000000
     50723      1355  PPPE      H11R           39.0838260529       27.6755639315       -5.8942977693  MEMB      95              0.0000000000
     50724      1355  PPPE      H11S           40.2310870430       28.9068964364       -5.6309066446  MEMB      95              0.0000000000
     50725      1355  PPPE      C212           40.4841179131       27.4132554999       -4.1520323785  MEMB      95              0.0000000000
     50726      1355  PPPE      H12R           40.3747743142       26.3486464204       -3.8035944734  MEMB      95              0.0000000000
     50727      1355  PPPE      H12S           39.6994146637       28.1130469139       -3.8928397829  MEMB      95              0.0000000000
     50728      1355  PPPE      C213           40.9766459896       28.4064734878       -3.1311471459  MEMB      95              0.0000000000
     50729      1355  PPPE      H13R           40.9913510261       29.4797873603       -3.2816018351  MEMB      95              0.0000000000
     50730      1355  PPPE      H13S           41.7689718719       28.1003293567       -3.7752020271  MEMB      95              0.0000000000
     50731      1355  PPPE      C214           41.0409768076       27.9954841079       -1.6564160447  MEMB      95              0.0000000000
     50732      1355  PPPE      H14R           41.7580107421       28.7601953390       -1.2007522654  MEMB      95              0.0000000000
     50733      1355  PPPE      H14S           41.3376419683       26.9052578216       -1.8029465140  MEMB      95              0.0000000000
     50734      1355  PPPE      C215           40.1508651889       28.0812755009       -0.5249518926  MEMB      95              0.0000000000
     50735      1355  PPPE      H15R           39.9593168715       27.0304852485       -0.8490780654  MEMB      95              0.0000000000
     50736      1355  PPPE      H15S           39.6539127736       29.0170881973       -0.7661276026  MEMB      95              0.0000000000
     50737      1355  PPPE      C216           40.1198424742       27.5946929748        0.9017129469  MEMB      95              0.0000000000
     50738      1355  PPPE      H16R           40.6233102125       28.4355307880        1.4113851999  MEMB      95              0.0000000000
     50739      1355  PPPE      H16S           39.3034269288       27.2674207433        1.5060325800  MEMB      95              0.0000000000
     50740      1355  PPPE      H16T           40.5937322775       26.5743628483        0.9694382251  MEMB      95              0.0000000000
     50741      1355  PPPE      C33            38.6008831743       29.6255780864      -12.7973738979  MEMB      95              0.0000000000
     50742      1355  PPPE      H3X            38.2682512911       28.5973026803      -12.7167396456  MEMB      95              0.0000000000
     50743      1355  PPPE      H3Y            38.6993796415       29.9047505118      -13.8694168041  MEMB      95              0.0000000000
     50744      1355  PPPE      C34            37.6651329922       30.6306200991      -12.0890748067  MEMB      95              0.0000000000
     50745      1355  PPPE      H4X            36.6605995723       30.1766942593      -12.2260462691  MEMB      95              0.0000000000
     50746      1355  PPPE      H4Y            37.6784872197       31.6090551936      -12.6219552578  MEMB      95              0.0000000000
     50747      1355  PPPE      C35            37.9232786681       30.9558780000      -10.6011773137  MEMB      95              0.0000000000
     50748      1355  PPPE      H5X            37.1193931871       31.6392957905      -10.2292188301  MEMB      95              0.0000000000
     50749      1355  PPPE      H5Y            38.8970430954       31.4662872402      -10.4917764171  MEMB      95              0.0000000000
     50750      1355  PPPE      C36            38.0079896795       29.7035185779       -9.7477937369  MEMB      95              0.0000000000
     50751      1355  PPPE      H6X            38.6220882526       28.9223947632      -10.2174263683  MEMB      95              0.0000000000
     50752      1355  PPPE      H6Y            37.0649673251       29.2548605824       -9.9022229147  MEMB      95              0.0000000000
     50753      1355  PPPE      C37            38.4327639873       29.8604181923       -8.2816759545  MEMB      95              0.0000000000
     50754      1355  PPPE      H7X            39.3723400798       30.4298709231       -8.3576381503  MEMB      95              0.0000000000
     50755      1355  PPPE      H7Y            38.7357848433       28.8624638780       -7.9003877205  MEMB      95              0.0000000000
     50756      1355  PPPE      C38            37.5174528972       30.6429593824       -7.2907785322  MEMB      95              0.0000000000
     50757      1355  PPPE      H8X            37.0072111026       31.4887807865       -7.7766332439  MEMB      95              0.0000000000
     50758      1355  PPPE      H8Y            38.1659160773       30.9349114455       -6.4573954172  MEMB      95              0.0000000000
     50759      1355  PPPE      C39            36.5608494603       29.8356673399       -6.4452466015  MEMB      95              0.0000000000
     50760      1355  PPPE      H9X            37.1981016393       29.0658945939       -6.0087577313  MEMB      95              0.0000000000
     50761      1355  PPPE      H9Y            35.7749489459       29.5757165382       -7.0696639681  MEMB      95              0.0000000000
     50762      1355  PPPE      C310           35.6101106463       30.2886426117       -5.3522731363  MEMB      95              0.0000000000
     50763      1355  PPPE      H10X           34.8730584610       31.0021226456       -5.7680292267  MEMB      95              0.0000000000
     50764      1355  PPPE      H10Y           36.3724109807       30.6172392763       -4.6398410844  MEMB      95              0.0000000000
     50765      1355  PPPE      C311           34.7704827096       29.2526024963       -4.5962424263  MEMB      95              0.0000000000
     50766      1355  PPPE      H11X           34.2207660015       28.6010989611       -5.2687487499  MEMB      95              0.0000000000
     50767      1355  PPPE      H11Y           34.0409749941       29.6717972773       -3.8986391345  MEMB      95              0.0000000000
     50768      1355  PPPE      C312           35.6150998171       28.3819737965       -3.7464878176  MEMB      95              0.0000000000
     50769      1355  PPPE      H12X           36.2838805755       28.9234177753       -3.0873889357  MEMB      95              0.0000000000
     50770      1355  PPPE      H12Y           36.3412755033       28.1698148640       -4.5114132778  MEMB      95              0.0000000000
     50771      1355  PPPE      C313           34.8648373922       27.1004609072       -3.3517396188  MEMB      95              0.0000000000
     50772      1355  PPPE      H13X           35.2323372083       26.0968941869       -3.4797851842  MEMB      95              0.0000000000
     50773      1355  PPPE      H13Y           34.0813954782       26.8908711647       -3.9936189063  MEMB      95              0.0000000000
     50774      1355  PPPE      C314           34.7027266689       26.6352154808       -2.0003719598  MEMB      95              0.0000000000
     50775      1355  PPPE      H14X           33.9154474151       26.3256492967       -1.5875616604  MEMB      95              0.0000000000
     50776      1355  PPPE      H14Y           34.3053774736       27.5664438949       -1.6574411948  MEMB      95              0.0000000000
     50777      1355  PPPE      C315           35.7074048104       25.9305027286       -1.2640094854  MEMB      95              0.0000000000
     50778      1355  PPPE      H15X           35.8004127979       26.1113099446       -0.1256748714  MEMB      95              0.0000000000
     50779      1355  PPPE      H15Y           36.0977947631       26.5703804908       -1.9974130299  MEMB      95              0.0000000000
     50780      1355  PPPE      C316           36.4826923215       24.8544014349       -1.3604730595  MEMB      95              0.0000000000
     50781      1355  PPPE      H16X           36.9588949865       24.6188997202       -2.2734065077  MEMB      95              0.0000000000
     50782      1355  PPPE      H16Y           37.1932454704       25.0305323934       -0.4864365831  MEMB      95              0.0000000000
     50783      1355  PPPE      H16Z           35.7364716610       24.2514809645       -1.0228414070  MEMB      95              0.0000000000
     50784      1356  PPPE      N             -38.8402528791      -22.8016184103      -20.2311874427  MEMB      96              0.0000000000
     50785      1356  PPPE      HN1           -38.8815840006      -22.9877074512      -21.2576221832  MEMB      96              0.0000000000
     50786      1356  PPPE      HN2           -39.7119554381      -22.3047736594      -19.9687885750  MEMB      96              0.0000000000
     50787      1356  PPPE      HN3           -38.0049330086      -22.2578847818      -19.9585531087  MEMB      96              0.0000000000
     50788      1356  PPPE      C12           -38.8040639184      -24.0931241332      -19.4675550512  MEMB      96              0.0000000000
     50789      1356  PPPE      H12A          -39.2531792050      -23.9414372016      -18.4681728462  MEMB      96              0.0000000000
     50790      1356  PPPE      H12B          -37.7406711373      -24.3704145837      -19.3055401140  MEMB      96              0.0000000000
     50791      1356  PPPE      C11           -39.4110320767      -25.2247570056      -20.2738546139  MEMB      96              0.0000000000
     50792      1356  PPPE      H11A          -38.9038573210      -25.2222751441      -21.2700112689  MEMB      96              0.0000000000
     50793      1356  PPPE      H11B          -40.5018477218      -25.1586598397      -20.4891366688  MEMB      96              0.0000000000
     50794      1356  PPPE      P             -39.7705211225      -27.0667453246      -18.3667604210  MEMB      96              0.0000000000
     50795      1356  PPPE      O13           -41.1938814006      -26.6919644676      -18.3644421285  MEMB      96              0.0000000000
     50796      1356  PPPE      O14           -39.3459776868      -28.4836895456      -18.3106909808  MEMB      96              0.0000000000
     50797      1356  PPPE      O11           -39.0801225612      -26.1894919665      -17.2234523048  MEMB      96              0.0000000000
     50798      1356  PPPE      O12           -39.0711154251      -26.4344593666      -19.6311409962  MEMB      96              0.0000000000
     50799      1356  PPPE      C1            -37.7644486402      -26.4814332856      -16.7882995457  MEMB      96              0.0000000000
     50800      1356  PPPE      HA            -37.3550348449      -25.6550538030      -16.1545752508  MEMB      96              0.0000000000
     50801      1356  PPPE      HB            -37.0643384044      -26.5944969399      -17.6524640318  MEMB      96              0.0000000000
     50802      1356  PPPE      C2            -37.6630244338      -27.7411103390      -15.9003672816  MEMB      96              0.0000000000
     50803      1356  PPPE      HS            -37.8221248481      -28.6427001947      -16.5381532089  MEMB      96              0.0000000000
     50804      1356  PPPE      O21           -38.5361611761      -27.7686151186      -14.7364603811  MEMB      96              0.0000000000
     50805      1356  PPPE      C21           -39.0301808025      -28.9202602839      -14.2361803052  MEMB      96              0.0000000000
     50806      1356  PPPE      O22           -39.0988651774      -30.0050949294      -14.7592238253  MEMB      96              0.0000000000
     50807      1356  PPPE      C22           -39.6997095696      -28.7030233871      -12.9267540595  MEMB      96              0.0000000000
     50808      1356  PPPE      H2R           -39.0536398141      -28.1403079898      -12.2298554261  MEMB      96              0.0000000000
     50809      1356  PPPE      H2S           -39.9393110224      -29.6835764318      -12.4628369702  MEMB      96              0.0000000000
     50810      1356  PPPE      C3            -36.1929638096      -27.6068572674      -15.4521047141  MEMB      96              0.0000000000
     50811      1356  PPPE      HX            -35.6899788535      -28.4757169257      -15.1781251352  MEMB      96              0.0000000000
     50812      1356  PPPE      HY            -35.4962250992      -27.4671113603      -16.2818707122  MEMB      96              0.0000000000
     50813      1356  PPPE      O31           -36.0426359692      -26.6525202000      -14.4152370318  MEMB      96              0.0000000000
     50814      1356  PPPE      C31           -35.8271911402      -27.2727336652      -13.2788365562  MEMB      96              0.0000000000
     50815      1356  PPPE      O32           -35.5925295420      -28.4212213407      -13.0791619601  MEMB      96              0.0000000000
     50816      1356  PPPE      C32           -35.6519976063      -26.3055636123      -12.3036952247  MEMB      96              0.0000000000
     50817      1356  PPPE      H2X           -36.5495765396      -25.7056427736      -12.1285586483  MEMB      96              0.0000000000
     50818      1356  PPPE      H2Y           -34.6670435325      -25.9219033833      -12.4729102984  MEMB      96              0.0000000000
     50819      1356  PPPE      C23           -41.0146293152      -28.1091605527      -13.4035836112  MEMB      96              0.0000000000
     50820      1356  PPPE      H3R           -41.6660465037      -28.9695036504      -13.6973852407  MEMB      96              0.0000000000
     50821      1356  PPPE      H3S           -40.8957265393      -27.4315150073      -14.2922159096  MEMB      96              0.0000000000
     50822      1356  PPPE      C24           -41.6743735010      -27.2961842067      -12.3301753564  MEMB      96              0.0000000000
     50823      1356  PPPE      H4R           -41.9329384315      -28.0011936788      -11.5092438007  MEMB      96              0.0000000000
     50824      1356  PPPE      H4S           -42.6114017490      -26.8710484269      -12.7502787507  MEMB      96              0.0000000000
     50825      1356  PPPE      C25           -40.7772668903      -26.1513567178      -11.8432289389  MEMB      96              0.0000000000
     50826      1356  PPPE      H5R           -41.3469360016      -25.2275982464      -11.9689900030  MEMB      96              0.0000000000
     50827      1356  PPPE      H5S           -39.8735189090      -26.0474989860      -12.4866608639  MEMB      96              0.0000000000
     50828      1356  PPPE      C26           -40.4006417589      -26.3405931471      -10.3721950543  MEMB      96              0.0000000000
     50829      1356  PPPE      H6R           -39.6351837413      -27.1449871952      -10.3719457852  MEMB      96              0.0000000000
     50830      1356  PPPE      H6S           -41.3087392255      -26.6931917551       -9.8323719089  MEMB      96              0.0000000000
     50831      1356  PPPE      C27           -39.7798982147      -25.1427919207       -9.6380347033  MEMB      96              0.0000000000
     50832      1356  PPPE      H7R           -40.4891566063      -24.3160468511       -9.4605185201  MEMB      96              0.0000000000
     50833      1356  PPPE      H7S           -38.9848956442      -24.7129492995      -10.2797114683  MEMB      96              0.0000000000
     50834      1356  PPPE      C28           -39.1707455391      -25.5138200839       -8.2689188333  MEMB      96              0.0000000000
     50835      1356  PPPE      H8R           -38.5610975054      -24.6335092872       -7.9670632001  MEMB      96              0.0000000000
     50836      1356  PPPE      H8S           -38.4580174997      -26.3583878985       -8.3828353461  MEMB      96              0.0000000000
     50837      1356  PPPE      C29           -40.1900228812      -25.8039630508       -7.1928886687  MEMB      96              0.0000000000
     50838      1356  PPPE      H91           -40.7905193853      -24.9409418175       -6.8657136840  MEMB      96              0.0000000000
     50839      1356  PPPE      C210          -40.4008510232      -26.9753476653       -6.5706403479  MEMB      96              0.0000000000
     50840      1356  PPPE      H101          -41.0865521879      -26.9633473927       -5.7081618401  MEMB      96              0.0000000000
     50841      1356  PPPE      C211          -39.6648517955      -28.2775916911       -6.8009972635  MEMB      96              0.0000000000
     50842      1356  PPPE      H11R          -39.2673171086      -28.3938922440       -7.8351023263  MEMB      96              0.0000000000
     50843      1356  PPPE      H11S          -40.3173068259      -29.1693971763       -6.6620390018  MEMB      96              0.0000000000
     50844      1356  PPPE      C212          -38.5175250096      -28.3245010211       -5.7802903212  MEMB      96              0.0000000000
     50845      1356  PPPE      H12R          -37.9265045606      -27.3901345038       -5.8140286886  MEMB      96              0.0000000000
     50846      1356  PPPE      H12S          -37.8152018612      -29.0904093978       -6.1767230855  MEMB      96              0.0000000000
     50847      1356  PPPE      C213          -39.0701200723      -28.5393561654       -4.3252241773  MEMB      96              0.0000000000
     50848      1356  PPPE      H13R          -39.5703904839      -29.5348138433       -4.3043823874  MEMB      96              0.0000000000
     50849      1356  PPPE      H13S          -39.8054080648      -27.7542828940       -4.1134547196  MEMB      96              0.0000000000
     50850      1356  PPPE      C214          -38.1015534571      -28.4685542264       -3.1208091372  MEMB      96              0.0000000000
     50851      1356  PPPE      H14R          -37.4017570323      -27.6644477696       -3.1257346798  MEMB      96              0.0000000000
     50852      1356  PPPE      H14S          -37.3867725419      -29.1973279146       -3.2026849764  MEMB      96              0.0000000000
     50853      1356  PPPE      C215          -38.4978002120      -28.9556989461       -1.7501244326  MEMB      96              0.0000000000
     50854      1356  PPPE      H15R          -37.6013603843      -29.2597082120       -1.1351581179  MEMB      96              0.0000000000
     50855      1356  PPPE      H15S          -39.1359738092      -29.8627419131       -1.8039227320  MEMB      96              0.0000000000
     50856      1356  PPPE      C216          -39.3079442185      -27.8798815033       -1.1692120307  MEMB      96              0.0000000000
     50857      1356  PPPE      H16R          -38.8353479679      -26.9041289605       -1.1918718924  MEMB      96              0.0000000000
     50858      1356  PPPE      H16S          -40.3126972953      -27.9558687635       -1.6626068015  MEMB      96              0.0000000000
     50859      1356  PPPE      H16T          -39.3373374297      -28.0172633805       -0.0955067508  MEMB      96              0.0000000000
     50860      1356  PPPE      C33           -35.3142508859      -26.6630218675      -10.9827911542  MEMB      96              0.0000000000
     50861      1356  PPPE      H3X           -34.3589961071      -27.3239703133      -10.9569059315  MEMB      96              0.0000000000
     50862      1356  PPPE      H3Y           -36.2014669702      -27.1617513668      -10.6637880707  MEMB      96              0.0000000000
     50863      1356  PPPE      C34           -35.6111538323      -25.4494857309      -10.0021355535  MEMB      96              0.0000000000
     50864      1356  PPPE      H4X           -36.3393117962      -24.6962450450      -10.0349015523  MEMB      96              0.0000000000
     50865      1356  PPPE      H4Y           -34.8649169480      -24.7683006646       -9.7759183863  MEMB      96              0.0000000000
     50866      1356  PPPE      C35           -35.0529252639      -25.5533777182       -8.7336728958  MEMB      96              0.0000000000
     50867      1356  PPPE      H5X           -34.2952190172      -26.3041082040       -9.3075486128  MEMB      96              0.0000000000
     50868      1356  PPPE      H5Y           -35.8143426387      -26.2590478903       -8.3593925476  MEMB      96              0.0000000000
     50869      1356  PPPE      C36           -34.2163928863      -24.4940541676       -7.5426249574  MEMB      96              0.0000000000
     50870      1356  PPPE      H6X           -34.8603512868      -23.7007044291       -7.5091366213  MEMB      96              0.0000000000
     50871      1356  PPPE      H6Y           -33.2233390394      -24.0136123898       -7.5236004644  MEMB      96              0.0000000000
     50872      1356  PPPE      C37           -33.2369258676      -24.9393672911       -6.3837315401  MEMB      96              0.0000000000
     50873      1356  PPPE      H7X           -32.5719562595      -24.7610644573       -5.3948441055  MEMB      96              0.0000000000
     50874      1356  PPPE      H7Y           -32.8135151534      -25.9863589326       -5.6587676290  MEMB      96              0.0000000000
     50875      1356  PPPE      C38           -36.2608957924      -24.9985878363       -5.6634008455  MEMB      96              0.0000000000
     50876      1356  PPPE      H8X           -36.8313922178      -25.5053679071       -6.2986036517  MEMB      96              0.0000000000
     50877      1356  PPPE      H8Y           -36.5152463926      -24.0781292831       -5.8660565970  MEMB      96              0.0000000000
     50878      1356  PPPE      C39           -36.7312294885      -25.2266335344       -4.0307600021  MEMB      96              0.0000000000
     50879      1356  PPPE      H9X           -36.2736048922      -24.5222189546       -3.2247087629  MEMB      96              0.0000000000
     50880      1356  PPPE      H9Y           -36.5152833855      -26.2537209198       -3.7168352857  MEMB      96              0.0000000000
     50881      1356  PPPE      C310          -38.0979922167      -25.2096955411       -3.7260596374  MEMB      96              0.0000000000
     50882      1356  PPPE      H10X          -38.0718305710      -25.1846853476       -2.5945692509  MEMB      96              0.0000000000
     50883      1356  PPPE      H10Y          -38.4748046660      -26.0652895236       -4.2796476701  MEMB      96              0.0000000000
     50884      1356  PPPE      C311          -38.5689907010      -24.0218694805       -4.3347250095  MEMB      96              0.0000000000
     50885      1356  PPPE      H11X          -38.4244509147      -23.8138830188       -5.4133407955  MEMB      96              0.0000000000
     50886      1356  PPPE      H11Y          -37.7751154065      -23.4447801463       -3.8148764536  MEMB      96              0.0000000000
     50887      1356  PPPE      C312          -39.9852493230      -23.8951287480       -3.8644060912  MEMB      96              0.0000000000
     50888      1356  PPPE      H12X          -40.3311582437      -24.8209526353       -4.3784264993  MEMB      96              0.0000000000
     50889      1356  PPPE      H12Y          -40.6343714582      -23.1612851038       -4.3278180451  MEMB      96              0.0000000000
     50890      1356  PPPE      C313          -40.1688091539      -23.8542103097       -2.2973500855  MEMB      96              0.0000000000
     50891      1356  PPPE      H13X          -39.7493220868      -24.7573822623       -1.8039205602  MEMB      96              0.0000000000
     50892      1356  PPPE      H13Y          -41.2483255746      -23.8053205690       -2.1148715002  MEMB      96              0.0000000000
     50893      1356  PPPE      C314          -39.9778462243      -22.7337448740       -1.3844297787  MEMB      96              0.0000000000
     50894      1356  PPPE      H14X          -40.3148876170      -21.8428066608       -1.9071718410  MEMB      96              0.0000000000
     50895      1356  PPPE      H14Y          -38.9465896625      -22.9328558470       -1.1482857132  MEMB      96              0.0000000000
     50896      1356  PPPE      C315          -40.5424437781      -22.7621160073        0.0050474913  MEMB      96              0.0000000000
     50897      1356  PPPE      H15X          -41.6371377962      -22.9006011766       -0.0702224332  MEMB      96              0.0000000000
     50898      1356  PPPE      H15Y          -40.3222305246      -21.7509343965        0.4230976026  MEMB      96              0.0000000000
     50899      1356  PPPE      C316          -39.8012675728      -23.7835258223        0.8579072030  MEMB      96              0.0000000000
     50900      1356  PPPE      H16X          -38.7102783203      -23.6189805752        0.8881569533  MEMB      96              0.0000000000
     50901      1356  PPPE      H16Y          -40.1914850480      -23.7540336305        1.8660828591  MEMB      96              0.0000000000
     50902      1356  PPPE      H16Z          -39.9022857567      -24.8155733683        0.5096483957  MEMB      96              0.0000000000
     50903      1357  PVPG      C13            31.0964763303      -39.8230809950      -20.5096727814  MEMB      97              0.0000000000
     50904      1357  PVPG      H13A           30.9984165369      -40.4384677524      -19.5930682534  MEMB      97              0.0000000000
     50905      1357  PVPG      H13B           30.2465103888      -40.0495941066      -21.1869770921  MEMB      97              0.0000000000
     50906      1357  PVPG      OC3            32.3183422334      -40.2173879805      -21.1125088017  MEMB      97              0.0000000000
     50907      1357  PVPG      HO3            33.0144570071      -39.7005143225      -20.6647785586  MEMB      97              0.0000000000
     50908      1357  PVPG      C12            31.0976921964      -38.3301610222      -20.0815263428  MEMB      97              0.0000000000
     50909      1357  PVPG      H12A           30.0403712329      -38.0398395797      -19.8830487760  MEMB      97              0.0000000000
     50910      1357  PVPG      OC2            31.5373124930      -37.4705082818      -21.1349245006  MEMB      97              0.0000000000
     50911      1357  PVPG      HO2            31.6977802866      -36.6229175232      -20.7208397416  MEMB      97              0.0000000000
     50912      1357  PVPG      C11            31.9046174510      -38.1572498787      -18.7556347662  MEMB      97              0.0000000000
     50913      1357  PVPG      H11A           31.3888091976      -38.8072773917      -18.0104716963  MEMB      97              0.0000000000
     50914      1357  PVPG      H11B           31.8337841797      -37.1212694862      -18.3566013924  MEMB      97              0.0000000000
     50915      1357  PVPG      P              34.2395578913      -38.3578880644      -17.6412792247  MEMB      97              0.0000000000
     50916      1357  PVPG      O13            33.5441793580      -37.6042900986      -16.5712591002  MEMB      97              0.0000000000
     50917      1357  PVPG      O14            35.5255195653      -37.8660584684      -18.1351845625  MEMB      97              0.0000000000
     50918      1357  PVPG      O12            33.2714262083      -38.5771594955      -18.8849630670  MEMB      97              0.0000000000
     50919      1357  PVPG      O11            34.5113337713      -39.7886645466      -17.1559533506  MEMB      97              0.0000000000
     50920      1357  PVPG      C1             33.8027237696      -40.9622626024      -17.4172133393  MEMB      97              0.0000000000
     50921      1357  PVPG      HA             34.4780706144      -41.6446693264      -17.9847065991  MEMB      97              0.0000000000
     50922      1357  PVPG      HB             32.8687562071      -40.8446542149      -17.9975109026  MEMB      97              0.0000000000
     50923      1357  PVPG      C2             33.5343891575      -41.5153826692      -16.0369543497  MEMB      97              0.0000000000
     50924      1357  PVPG      HS             33.0098156703      -42.5009106913      -16.1757454887  MEMB      97              0.0000000000
     50925      1357  PVPG      O21            32.7756151133      -40.6854622115      -15.1843257315  MEMB      97              0.0000000000
     50926      1357  PVPG      C21            31.5004816372      -40.7307786730      -15.1436065110  MEMB      97              0.0000000000
     50927      1357  PVPG      O22            30.7382396023      -41.4421708212      -15.7752924856  MEMB      97              0.0000000000
     50928      1357  PVPG      C22            31.1139728925      -39.5177953940      -14.3268766213  MEMB      97              0.0000000000
     50929      1357  PVPG      H2R            31.0555141994      -38.6881744939      -15.0626371162  MEMB      97              0.0000000000
     50930      1357  PVPG      H2S            31.9366943346      -39.2827434080      -13.6184400835  MEMB      97              0.0000000000
     50931      1357  PVPG      C3             34.8803838823      -41.6604535677      -15.3281154175  MEMB      97              0.0000000000
     50932      1357  PVPG      HX             35.3800808335      -42.3991322112      -16.0168102398  MEMB      97              0.0000000000
     50933      1357  PVPG      HY             35.6385146982      -40.8803754493      -15.3336938740  MEMB      97              0.0000000000
     50934      1357  PVPG      O31            34.5237861265      -42.1142616135      -13.9844772266  MEMB      97              0.0000000000
     50935      1357  PVPG      C31            34.9786769274      -41.4908287084      -12.9514266825  MEMB      97              0.0000000000
     50936      1357  PVPG      O32            35.8768525151      -40.6715400283      -12.9559745127  MEMB      97              0.0000000000
     50937      1357  PVPG      C32            34.1155974851      -41.8764112615      -11.7399510582  MEMB      97              0.0000000000
     50938      1357  PVPG      H2X            34.5515554579      -42.7352698111      -11.1917981283  MEMB      97              0.0000000000
     50939      1357  PVPG      H2Y            33.1106429608      -42.1764555613      -12.1016768284  MEMB      97              0.0000000000
     50940      1357  PVPG      C23            29.8181614550      -39.7152128782      -13.5426612000  MEMB      97              0.0000000000
     50941      1357  PVPG      H3R            29.8393025105      -40.6477833060      -12.9437181647  MEMB      97              0.0000000000
     50942      1357  PVPG      H3S            28.9461597568      -39.7352879666      -14.2379104286  MEMB      97              0.0000000000
     50943      1357  PVPG      C24            29.5947844069      -38.5643953023      -12.5890014105  MEMB      97              0.0000000000
     50944      1357  PVPG      H4R            28.6003661655      -38.7486360901      -12.1147412848  MEMB      97              0.0000000000
     50945      1357  PVPG      H4S            29.5043946506      -37.6778401219      -13.2692168458  MEMB      97              0.0000000000
     50946      1357  PVPG      C25            30.6286535894      -38.3902955640      -11.4310185574  MEMB      97              0.0000000000
     50947      1357  PVPG      H5R            31.6409594046      -38.2294926456      -11.8121059754  MEMB      97              0.0000000000
     50948      1357  PVPG      H5S            30.5460485357      -39.3596539201      -10.8756088440  MEMB      97              0.0000000000
     50949      1357  PVPG      C26            30.4634416098      -37.3319655358      -10.3158842489  MEMB      97              0.0000000000
     50950      1357  PVPG      H6R            31.0930132568      -37.3904203630       -9.4133337674  MEMB      97              0.0000000000
     50951      1357  PVPG      H6S            29.6346339152      -37.8517642744       -9.8613309831  MEMB      97              0.0000000000
     50952      1357  PVPG      C27            30.4126780864      -35.8184154483      -10.6481136070  MEMB      97              0.0000000000
     50953      1357  PVPG      H7R            29.8985577208      -35.2906550171       -9.8477518343  MEMB      97              0.0000000000
     50954      1357  PVPG      H7S            29.8341765976      -35.4731816213      -11.5048800068  MEMB      97              0.0000000000
     50955      1357  PVPG      C28            31.6404810671      -35.2572105985      -11.3025580370  MEMB      97              0.0000000000
     50956      1357  PVPG      H8R            31.4092038284      -34.2798273834      -11.7891758595  MEMB      97              0.0000000000
     50957      1357  PVPG      H8S            31.8174982716      -35.9929954501      -12.1297582853  MEMB      97              0.0000000000
     50958      1357  PVPG      C29            32.8413084242      -35.2274764008      -10.3841847898  MEMB      97              0.0000000000
     50959      1357  PVPG      H9R            33.6916318638      -34.8363760340      -10.9717729812  MEMB      97              0.0000000000
     50960      1357  PVPG      H9S            33.0148941606      -36.2965159871      -10.1497898570  MEMB      97              0.0000000000
     50961      1357  PVPG      C210           32.7150039794      -34.5027360291       -9.0362693249  MEMB      97              0.0000000000
     50962      1357  PVPG      H10R           31.9377233014      -35.0209647801       -8.4275628426  MEMB      97              0.0000000000
     50963      1357  PVPG      H10S           32.4116570054      -33.4565761292       -9.2219782121  MEMB      97              0.0000000000
     50964      1357  PVPG      C211           33.9984491105      -34.4486118320       -8.2682876649  MEMB      97              0.0000000000
     50965      1357  PVPG      H111           34.5647323574      -33.5193717203       -8.4269236660  MEMB      97              0.0000000000
     50966      1357  PVPG      C212           34.5465432594      -35.4420641699       -7.5449122015  MEMB      97              0.0000000000
     50967      1357  PVPG      H121           35.4888575377      -35.2340399638       -7.0170960201  MEMB      97              0.0000000000
     50968      1357  PVPG      C213           33.9996109813      -36.8393035163       -7.3401568846  MEMB      97              0.0000000000
     50969      1357  PVPG      H13R           34.8022175897      -37.5837444015       -7.5306905126  MEMB      97              0.0000000000
     50970      1357  PVPG      H13S           33.2008756211      -37.0750033520       -8.0805636081  MEMB      97              0.0000000000
     50971      1357  PVPG      C214           33.4104631296      -37.0149923691       -5.9217517008  MEMB      97              0.0000000000
     50972      1357  PVPG      H14R           32.8335481867      -37.9635141543       -5.8288456051  MEMB      97              0.0000000000
     50973      1357  PVPG      H14S           32.6857999056      -36.1804849484       -5.7840560891  MEMB      97              0.0000000000
     50974      1357  PVPG      C215           34.4430502809      -37.0306138781       -4.7836293581  MEMB      97              0.0000000000
     50975      1357  PVPG      H15R           35.2399185174      -36.2755909226       -4.9420359154  MEMB      97              0.0000000000
     50976      1357  PVPG      H15S           34.9490893981      -38.0177831044       -4.7341585281  MEMB      97              0.0000000000
     50977      1357  PVPG      C216           33.8426974174      -36.8467173700       -3.3894015606  MEMB      97              0.0000000000
     50978      1357  PVPG      H16R           34.7069518015      -36.9234683979       -2.6903309412  MEMB      97              0.0000000000
     50979      1357  PVPG      H16S           33.1499724538      -37.6890384379       -3.1551177417  MEMB      97              0.0000000000
     50980      1357  PVPG      C217           33.1871809476      -35.4898216860       -3.1162169353  MEMB      97              0.0000000000
     50981      1357  PVPG      H17R           32.2781197110      -35.3389753119       -3.7391789179  MEMB      97              0.0000000000
     50982      1357  PVPG      H17S           33.9195277816      -34.6819155715       -3.3400423199  MEMB      97              0.0000000000
     50983      1357  PVPG      C218           32.8306195221      -35.4203459502       -1.6400546481  MEMB      97              0.0000000000
     50984      1357  PVPG      H18R           32.1209177116      -36.2489965738       -1.4323310474  MEMB      97              0.0000000000
     50985      1357  PVPG      H18S           33.7749947574      -35.5829004480       -1.0724848408  MEMB      97              0.0000000000
     50986      1357  PVPG      H18T           32.3729162973      -34.4582713082       -1.3283514757  MEMB      97              0.0000000000
     50987      1357  PVPG      C33            33.9722775346      -40.6207023408      -10.8673589007  MEMB      97              0.0000000000
     50988      1357  PVPG      H3X            33.5799067089      -39.7801441608      -11.4927410582  MEMB      97              0.0000000000
     50989      1357  PVPG      H3Y            34.9775587737      -40.3320131297      -10.4800572209  MEMB      97              0.0000000000
     50990      1357  PVPG      C34            33.0928371050      -40.7890204648       -9.6329615106  MEMB      97              0.0000000000
     50991      1357  PVPG      H4X            32.0638579289      -41.1092994057       -9.9052432433  MEMB      97              0.0000000000
     50992      1357  PVPG      H4Y            33.0386164259      -39.7637998451       -9.1978761634  MEMB      97              0.0000000000
     50993      1357  PVPG      C35            33.7391371787      -41.7600741569       -8.6400458345  MEMB      97              0.0000000000
     50994      1357  PVPG      H5X            34.8457491126      -41.6199852080       -8.6518892172  MEMB      97              0.0000000000
     50995      1357  PVPG      H5Y            33.5206610416      -42.8125557163       -8.9354874443  MEMB      97              0.0000000000
     50996      1357  PVPG      C36            33.2979864259      -41.6284139368       -7.1901722529  MEMB      97              0.0000000000
     50997      1357  PVPG      H6X            32.1929076225      -41.5150770016       -7.1372826909  MEMB      97              0.0000000000
     50998      1357  PVPG      H6Y            33.7713710506      -40.7301761633       -6.7282000342  MEMB      97              0.0000000000
     50999      1357  PVPG      C37            33.7114715543      -42.9133854382       -6.4687919872  MEMB      97              0.0000000000
     51000      1357  PVPG      H7X            34.7598959805      -43.1906962367       -6.7174488956  MEMB      97              0.0000000000
     51001      1357  PVPG      H7Y            33.0493892461      -43.7512212034       -6.7577505402  MEMB      97              0.0000000000
     51002      1357  PVPG      C38            33.6658093691      -42.7853139411       -4.9920646462  MEMB      97              0.0000000000
     51003      1357  PVPG      H8X            33.7914804996      -43.7597560270       -4.4684135973  MEMB      97              0.0000000000
     51004      1357  PVPG      H8Y            32.7224968505      -42.3039811805       -4.6500366789  MEMB      97              0.0000000000
     51005      1357  PVPG      C39            34.8105674674      -42.0053941241       -4.5142971242  MEMB      97              0.0000000000
     51006      1357  PVPG      H9X            34.8149511476      -40.9522039639       -4.9212940061  MEMB      97              0.0000000000
     51007      1357  PVPG      H9Y            35.8198001531      -42.4312889033       -4.7777717112  MEMB      97              0.0000000000
     51008      1357  PVPG      C310           34.4796851671      -42.0713034015       -3.0125894823  MEMB      97              0.0000000000
     51009      1357  PVPG      H10X           35.2240331043      -41.4373677820       -3.1573874413  MEMB      97              0.0000000000
     51010      1357  PVPG      H10Y           35.1662039710      -42.5582581145       -2.2991519713  MEMB      97              0.0000000000
     51011      1357  PVPG      C311           33.2183220593      -41.2214815584       -2.4823907739  MEMB      97              0.0000000000
     51012      1357  PVPG      H11X           32.6403294038      -42.1271859819       -2.2397647376  MEMB      97              0.0000000000
     51013      1357  PVPG      H11Y           32.8773155508      -40.4970350525       -3.2437210487  MEMB      97              0.0000000000
     51014      1357  PVPG      C312           32.9165955615      -40.4477062148       -1.1404675251  MEMB      97              0.0000000000
     51015      1357  PVPG      H12X           32.2376857931      -39.5982861841       -1.0437377137  MEMB      97              0.0000000000
     51016      1357  PVPG      H12Y           33.5569853486      -39.6288187761       -0.9194850943  MEMB      97              0.0000000000
     51017      1357  PVPG      C313           32.8456923843      -41.4103253361        0.0036405611  MEMB      97              0.0000000000
     51018      1357  PVPG      H13X           33.8137680081      -41.9916216181        0.0889195779  MEMB      97              0.0000000000
     51019      1357  PVPG      H13Y           31.8817571876      -41.8041999772        0.0301299235  MEMB      97              0.0000000000
     51020      1357  PVPG      C314           32.5482898438      -40.9357997565        1.3833055533  MEMB      97              0.0000000000
     51021      1357  PVPG      H14X           32.0984395013      -39.9598010210        1.4940432637  MEMB      97              0.0000000000
     51022      1357  PVPG      H14Y           33.2275978495      -40.1909631333        1.4672877622  MEMB      97              0.0000000000
     51023      1357  PVPG      C315           32.6780502873      -41.9766114683        2.5169302373  MEMB      97              0.0000000000
     51024      1357  PVPG      H15X           32.7092777776      -41.7089686825        3.5800943134  MEMB      97              0.0000000000
     51025      1357  PVPG      H15Y           33.6413873597      -42.4747669275        2.5954946998  MEMB      97              0.0000000000
     51026      1357  PVPG      C316           31.3570838486      -42.4485588631        2.8608127549  MEMB      97              0.0000000000
     51027      1357  PVPG      H16X           31.3376887046      -43.3638080816        2.3248586328  MEMB      97              0.0000000000
     51028      1357  PVPG      H16Y           31.1842917165      -42.6916735974        3.9309828003  MEMB      97              0.0000000000
     51029      1357  PVPG      H16Z           30.7319465399      -41.6045981895        2.4730783932  MEMB      97              0.0000000000
     51030      1358  PPPE      N             -29.5932252705       40.4863496392      -19.9231771145  MEMB      98              0.0000000000
     51031      1358  PPPE      HN1           -30.4235065395       39.9324425665      -19.6311486494  MEMB      98              0.0000000000
     51032      1358  PPPE      HN2           -29.0787192608       39.9139401045      -20.6241796620  MEMB      98              0.0000000000
     51033      1358  PPPE      HN3           -28.9937559566       40.6628308645      -19.0893274935  MEMB      98              0.0000000000
     51034      1358  PPPE      C12           -30.0244036587       41.7646097017      -20.5984606061  MEMB      98              0.0000000000
     51035      1358  PPPE      H12A          -30.5728042486       41.4870504665      -21.5308396792  MEMB      98              0.0000000000
     51036      1358  PPPE      H12B          -29.1244152865       42.3416062558      -20.8880105621  MEMB      98              0.0000000000
     51037      1358  PPPE      C11           -30.9149287904       42.5841295471      -19.6714570520  MEMB      98              0.0000000000
     51038      1358  PPPE      H11A          -31.0009248705       43.6152835057      -20.0696176880  MEMB      98              0.0000000000
     51039      1358  PPPE      H11B          -30.4792776904       42.7088457314      -18.6504707107  MEMB      98              0.0000000000
     51040      1358  PPPE      P             -33.0642771436       41.9403932687      -18.3453939135  MEMB      98              0.0000000000
     51041      1358  PPPE      O13           -33.4143366008       43.3404857183      -18.0369948153  MEMB      98              0.0000000000
     51042      1358  PPPE      O14           -34.0927921371       40.9163393211      -18.5296880192  MEMB      98              0.0000000000
     51043      1358  PPPE      O11           -31.9862047407       41.4687895888      -17.2924923013  MEMB      98              0.0000000000
     51044      1358  PPPE      O12           -32.1924829181       41.9639530156      -19.6666265730  MEMB      98              0.0000000000
     51045      1358  PPPE      C1            -31.7625120554       40.0936039701      -17.0616780145  MEMB      98              0.0000000000
     51046      1358  PPPE      HA            -30.7862003571       39.9695428723      -16.5531076729  MEMB      98              0.0000000000
     51047      1358  PPPE      HB            -31.7618470914       39.5154852199      -18.0163938040  MEMB      98              0.0000000000
     51048      1358  PPPE      C2            -32.7698698738       39.4116089170      -16.1263337475  MEMB      98              0.0000000000
     51049      1358  PPPE      HS            -33.7943444200       39.4659435455      -16.5342407645  MEMB      98              0.0000000000
     51050      1358  PPPE      O21           -32.6868942195       39.8549306226      -14.7517966689  MEMB      98              0.0000000000
     51051      1358  PPPE      C21           -33.4381938091       40.8688815419      -14.4020698177  MEMB      98              0.0000000000
     51052      1358  PPPE      O22           -34.1807057672       41.4875960433      -15.1293316497  MEMB      98              0.0000000000
     51053      1358  PPPE      C22           -33.2876990478       41.1947287730      -12.9152437646  MEMB      98              0.0000000000
     51054      1358  PPPE      H2R           -32.6570680552       40.4262082202      -12.4310827469  MEMB      98              0.0000000000
     51055      1358  PPPE      H2S           -34.2796921391       41.2362274320      -12.4159614840  MEMB      98              0.0000000000
     51056      1358  PPPE      C3            -32.4206914637       37.9449225140      -16.2024021731  MEMB      98              0.0000000000
     51057      1358  PPPE      HX            -33.1987505450       37.4414021467      -15.6273421057  MEMB      98              0.0000000000
     51058      1358  PPPE      HY            -32.3381170641       37.5301485171      -17.2320372433  MEMB      98              0.0000000000
     51059      1358  PPPE      O31           -31.2144438579       37.6946900548      -15.6053793973  MEMB      98              0.0000000000
     51060      1358  PPPE      C31           -31.1997048079       37.7232514352      -14.2906213419  MEMB      98              0.0000000000
     51061      1358  PPPE      O32           -32.0841333441       37.7539654401      -13.4617126196  MEMB      98              0.0000000000
     51062      1358  PPPE      C32           -29.9307732504       37.4275794346      -14.0179496610  MEMB      98              0.0000000000
     51063      1358  PPPE      H2X           -29.4236924788       38.1691982178      -14.5919646867  MEMB      98              0.0000000000
     51064      1358  PPPE      H2Y           -29.5425419851       36.7176628760      -14.8020563402  MEMB      98              0.0000000000
     51065      1358  PPPE      C23           -32.6315333763       42.5713017486      -12.7759379656  MEMB      98              0.0000000000
     51066      1358  PPPE      H3R           -33.1712837630       43.3272017283      -13.3911892289  MEMB      98              0.0000000000
     51067      1358  PPPE      H3S           -31.5821544661       42.4680230612      -13.1459760184  MEMB      98              0.0000000000
     51068      1358  PPPE      C24           -32.6488786950       43.1082882540      -11.3475303517  MEMB      98              0.0000000000
     51069      1358  PPPE      H4R           -33.6598214885       43.2467306798      -10.9289382584  MEMB      98              0.0000000000
     51070      1358  PPPE      H4S           -32.1203597692       44.0881175267      -11.3780486401  MEMB      98              0.0000000000
     51071      1358  PPPE      C25           -31.8685930247       42.2454255993      -10.4070544963  MEMB      98              0.0000000000
     51072      1358  PPPE      H5R           -30.8991313839       42.3337506152      -10.9124479533  MEMB      98              0.0000000000
     51073      1358  PPPE      H5S           -32.2395993441       41.1962806329      -10.2779019687  MEMB      98              0.0000000000
     51074      1358  PPPE      C26           -31.5585097420       42.8649469440       -9.0882857352  MEMB      98              0.0000000000
     51075      1358  PPPE      H6R           -30.7566384730       43.6210844563       -9.1823064936  MEMB      98              0.0000000000
     51076      1358  PPPE      H6S           -31.1975759016       42.1265836491       -8.4265646907  MEMB      98              0.0000000000
     51077      1358  PPPE      C27           -32.7860426252       43.1542076982       -8.2948674288  MEMB      98              0.0000000000
     51078      1358  PPPE      H7R           -33.5092880496       42.3125496394       -8.4125325169  MEMB      98              0.0000000000
     51079      1358  PPPE      H7S           -33.1840443872       44.0695128464       -8.7491496413  MEMB      98              0.0000000000
     51080      1358  PPPE      C28           -32.5288708889       43.3914313072       -6.8094865916  MEMB      98              0.0000000000
     51081      1358  PPPE      H8R           -33.5375498082       43.5941871503       -6.3986972219  MEMB      98              0.0000000000
     51082      1358  PPPE      H8S           -31.9137715513       44.3089869168       -6.7227527244  MEMB      98              0.0000000000
     51083      1358  PPPE      C29           -31.9117470899       42.2669681337       -6.0336867346  MEMB      98              0.0000000000
     51084      1358  PPPE      H91           -32.2267206661       41.2523805526       -6.3148172147  MEMB      98              0.0000000000
     51085      1358  PPPE      C210          -30.9134292973       42.4023539535       -5.1576981137  MEMB      98              0.0000000000
     51086      1358  PPPE      H101          -30.5519802876       41.5117100374       -4.6388433816  MEMB      98              0.0000000000
     51087      1358  PPPE      C211          -30.1848348696       43.6525961897       -4.7423125562  MEMB      98              0.0000000000
     51088      1358  PPPE      H11R          -30.7740896601       44.5673555487       -4.8688669249  MEMB      98              0.0000000000
     51089      1358  PPPE      H11S          -29.3219276705       43.8605584553       -5.3826778231  MEMB      98              0.0000000000
     51090      1358  PPPE      C212          -29.7106990372       43.5255760920       -3.2974261844  MEMB      98              0.0000000000
     51091      1358  PPPE      H12R          -29.2324687678       44.4824475706       -3.0387155953  MEMB      98              0.0000000000
     51092      1358  PPPE      H12S          -28.9903283354       42.6972574437       -3.1408188721  MEMB      98              0.0000000000
     51093      1358  PPPE      C213          -30.8693541497       43.3737063910       -2.3484614540  MEMB      98              0.0000000000
     51094      1358  PPPE      H13R          -31.3740099349       42.4237241016       -2.6268205513  MEMB      98              0.0000000000
     51095      1358  PPPE      H13S          -31.5517609681       44.2262499305       -2.5411573131  MEMB      98              0.0000000000
     51096      1358  PPPE      C214          -30.5011946847       43.2922022958       -0.8726748310  MEMB      98              0.0000000000
     51097      1358  PPPE      H14R          -30.1620586142       44.2536041956       -0.4221941993  MEMB      98              0.0000000000
     51098      1358  PPPE      H14S          -29.6880134100       42.5390967583       -0.7810612128  MEMB      98              0.0000000000
     51099      1358  PPPE      C215          -31.7224708523       42.8034070469       -0.1114209176  MEMB      98              0.0000000000
     51100      1358  PPPE      H15R          -31.4345261833       42.4487385690        0.8669232965  MEMB      98              0.0000000000
     51101      1358  PPPE      H15S          -32.1069507912       41.8912620472       -0.6017146516  MEMB      98              0.0000000000
     51102      1358  PPPE      C216          -32.8061848078       43.8643990904        0.0368594361  MEMB      98              0.0000000000
     51103      1358  PPPE      H16R          -33.6873546837       43.4576661137        0.5743707317  MEMB      98              0.0000000000
     51104      1358  PPPE      H16S          -32.4201038676       44.7456424916        0.5962037545  MEMB      98              0.0000000000
     51105      1358  PPPE      H16T          -33.1262730226       44.1943973596       -0.9726617863  MEMB      98              0.0000000000
     51106      1358  PPPE      C33           -29.9929530208       36.9786475967      -12.4481256862  MEMB      98              0.0000000000
     51107      1358  PPPE      H3X           -29.0359785954       36.5888780144      -12.0193217373  MEMB      98              0.0000000000
     51108      1358  PPPE      H3Y           -30.3391965602       36.0119065767      -12.1314433501  MEMB      98              0.0000000000
     51109      1358  PPPE      C34           -29.6927418871       37.9434011205      -11.5468391604  MEMB      98              0.0000000000
     51110      1358  PPPE      H4X           -30.6629042290       38.4566903748      -11.4286242633  MEMB      98              0.0000000000
     51111      1358  PPPE      H4Y           -29.0256941434       38.2712430054      -12.3526857509  MEMB      98              0.0000000000
     51112      1358  PPPE      C35           -28.7667610286       37.5702044804      -10.4236070728  MEMB      98              0.0000000000
     51113      1358  PPPE      H5X           -28.9796568036       38.4269445560      -10.2780870670  MEMB      98              0.0000000000
     51114      1358  PPPE      H5Y           -27.7413418857       37.9085589021      -10.2916479066  MEMB      98              0.0000000000
     51115      1358  PPPE      C36           -29.4963249743       36.7139709888       -9.5775279946  MEMB      98              0.0000000000
     51116      1358  PPPE      H6X           -29.1756567606       35.7725192006      -10.0307211269  MEMB      98              0.0000000000
     51117      1358  PPPE      H6Y           -30.5898857994       36.7950111568       -9.7542401718  MEMB      98              0.0000000000
     51118      1358  PPPE      C37           -29.0553879824       37.0401245851       -8.2204643980  MEMB      98              0.0000000000
     51119      1358  PPPE      H7X           -28.0197700334       37.3656324351       -8.1027078187  MEMB      98              0.0000000000
     51120      1358  PPPE      H7Y           -29.0046472672       36.0252751365       -7.9487111928  MEMB      98              0.0000000000
     51121      1358  PPPE      C38           -30.1029792006       37.8863604942       -7.5681801227  MEMB      98              0.0000000000
     51122      1358  PPPE      H8X           -31.1170574749       37.6821402651       -7.9593622842  MEMB      98              0.0000000000
     51123      1358  PPPE      H8Y           -29.9457770103       38.9257987284       -7.7138391046  MEMB      98              0.0000000000
     51124      1358  PPPE      C39           -30.1756195919       37.7683448750       -6.1312940531  MEMB      98              0.0000000000
     51125      1358  PPPE      H9X           -29.2254036670       38.0394838146       -5.5844559375  MEMB      98              0.0000000000
     51126      1358  PPPE      H9Y           -30.4080249011       36.6924531969       -6.0261195930  MEMB      98              0.0000000000
     51127      1358  PPPE      C310          -31.4096833054       38.4435110887       -5.5601823847  MEMB      98              0.0000000000
     51128      1358  PPPE      H10X          -32.2955579936       37.7947249991       -5.7966094611  MEMB      98              0.0000000000
     51129      1358  PPPE      H10Y          -31.5317433135       39.4610396231       -5.9300203581  MEMB      98              0.0000000000
     51130      1358  PPPE      C311          -31.0931033676       38.2159566565       -4.1236625116  MEMB      98              0.0000000000
     51131      1358  PPPE      H11X          -30.0673802993       38.7016407904       -4.1491602238  MEMB      98              0.0000000000
     51132      1358  PPPE      H11Y          -30.8091457725       37.2259499283       -4.1629214986  MEMB      98              0.0000000000
     51133      1358  PPPE      C312          -30.8462763991       39.0457795268       -2.9055724011  MEMB      98              0.0000000000
     51134      1358  PPPE      H12X          -31.3961488356       38.0292252973       -2.7435957389  MEMB      98              0.0000000000
     51135      1358  PPPE      H12Y          -31.3079484722       39.8796842115       -3.5226478426  MEMB      98              0.0000000000
     51136      1358  PPPE      C313          -31.1525508993       39.1808876537       -1.3814924276  MEMB      98              0.0000000000
     51137      1358  PPPE      H13X          -31.9761371632       39.6189731222       -0.7796903005  MEMB      98              0.0000000000
     51138      1358  PPPE      H13Y          -30.7872114137       40.1813820830       -1.1871191557  MEMB      98              0.0000000000
     51139      1358  PPPE      C314          -31.7010773966       37.8903741500       -0.8116023142  MEMB      98              0.0000000000
     51140      1358  PPPE      H14X          -30.7431383820       37.3988938508       -1.0701403080  MEMB      98              0.0000000000
     51141      1358  PPPE      H14Y          -32.6356037503       37.5635091578       -1.3503174674  MEMB      98              0.0000000000
     51142      1358  PPPE      C315          -31.9509770370       37.7796418372        0.6168369052  MEMB      98              0.0000000000
     51143      1358  PPPE      H15X          -32.7405611736       38.5086241921        0.9075163289  MEMB      98              0.0000000000
     51144      1358  PPPE      H15Y          -30.9413325441       38.0514879022        0.9856642918  MEMB      98              0.0000000000
     51145      1358  PPPE      C316          -32.3054370978       36.3434167939        0.9462361265  MEMB      98              0.0000000000
     51146      1358  PPPE      H16X          -32.4522558669       36.3005842061        2.0402408225  MEMB      98              0.0000000000
     51147      1358  PPPE      H16Y          -33.2220294165       35.9966742169        0.4112740284  MEMB      98              0.0000000000
     51148      1358  PPPE      H16Z          -31.4603740045       35.6807666896        0.6503324213  MEMB      98              0.0000000000
     51149      1359  PVPG      C13            39.8610782498      -31.7507040294      -18.6952559531  MEMB      99              0.0000000000
     51150      1359  PVPG      H13A           39.6078140735      -31.8568223477      -17.6255361352  MEMB      99              0.0000000000
     51151      1359  PVPG      H13B           40.6010609325      -30.9328638013      -18.8604759879  MEMB      99              0.0000000000
     51152      1359  PVPG      OC3            38.6892160219      -31.4180817843      -19.4597839103  MEMB      99              0.0000000000
     51153      1359  PVPG      HO3            38.1503112121      -32.2003247572      -19.5764984680  MEMB      99              0.0000000000
     51154      1359  PVPG      C12            40.5950985855      -33.0183136603      -19.1492140909  MEMB      99              0.0000000000
     51155      1359  PVPG      H12A           41.6817422906      -33.0037438438      -18.9391687277  MEMB      99              0.0000000000
     51156      1359  PVPG      OC2            40.6451018744      -32.9086091325      -20.5284748956  MEMB      99              0.0000000000
     51157      1359  PVPG      HO2            40.5685711879      -33.8438050946      -20.8076044799  MEMB      99              0.0000000000
     51158      1359  PVPG      C11            40.0397597158      -34.3772985227      -18.6272315974  MEMB      99              0.0000000000
     51159      1359  PVPG      H11A           38.9256287972      -34.4357052335      -18.6720169501  MEMB      99              0.0000000000
     51160      1359  PVPG      H11B           40.3144231197      -34.3314945103      -17.5414054258  MEMB      99              0.0000000000
     51161      1359  PVPG      P              41.7578542073      -36.3534031910      -18.5440878790  MEMB      99              0.0000000000
     51162      1359  PVPG      O13            42.5995104904      -35.4546462335      -17.7512236155  MEMB      99              0.0000000000
     51163      1359  PVPG      O14            42.3652747730      -37.3187632916      -19.4858937565  MEMB      99              0.0000000000
     51164      1359  PVPG      O12            40.6493039497      -35.4977591858      -19.3062856040  MEMB      99              0.0000000000
     51165      1359  PVPG      O11            40.8152609075      -37.1397739854      -17.5984664900  MEMB      99              0.0000000000
     51166      1359  PVPG      C1             41.2567448210      -37.9463679094      -16.5331183700  MEMB      99              0.0000000000
     51167      1359  PVPG      HA             42.3687670225      -38.0527828284      -16.4747684123  MEMB      99              0.0000000000
     51168      1359  PVPG      HB             40.8764277398      -38.9794838231      -16.7069949292  MEMB      99              0.0000000000
     51169      1359  PVPG      C2             40.6222821007      -37.4862708934      -15.1889415278  MEMB      99              0.0000000000
     51170      1359  PVPG      HS             40.7918037108      -38.3009255218      -14.5287184144  MEMB      99              0.0000000000
     51171      1359  PVPG      O21            39.2280144637      -37.1793132170      -15.3429008125  MEMB      99              0.0000000000
     51172      1359  PVPG      C21            38.2731530394      -37.8627985626      -14.7195890153  MEMB      99              0.0000000000
     51173      1359  PVPG      O22            38.3163081842      -38.7797883773      -13.9755515789  MEMB      99              0.0000000000
     51174      1359  PVPG      C22            36.9253171569      -37.4852014076      -15.0088160339  MEMB      99              0.0000000000
     51175      1359  PVPG      H2R            36.2701640420      -38.2402483941      -14.4966086385  MEMB      99              0.0000000000
     51176      1359  PVPG      H2S            36.8538598341      -37.6443096939      -16.0941367750  MEMB      99              0.0000000000
     51177      1359  PVPG      C3             41.3311284247      -36.2723582859      -14.5333184142  MEMB      99              0.0000000000
     51178      1359  PVPG      HX             42.3724634120      -36.5806648384      -14.2673858323  MEMB      99              0.0000000000
     51179      1359  PVPG      HY             41.3673449240      -35.4798450780      -15.3211458500  MEMB      99              0.0000000000
     51180      1359  PVPG      O31            40.6509885380      -35.8374993691      -13.3167395463  MEMB      99              0.0000000000
     51181      1359  PVPG      C31            41.1797239943      -34.6645558537      -12.9505584658  MEMB      99              0.0000000000
     51182      1359  PVPG      O32            42.1018048066      -34.1521188221      -13.5329755854  MEMB      99              0.0000000000
     51183      1359  PVPG      C32            40.4402007032      -33.9788267056      -11.8227587238  MEMB      99              0.0000000000
     51184      1359  PVPG      H2X            39.5023071583      -33.5927579020      -12.2702361830  MEMB      99              0.0000000000
     51185      1359  PVPG      H2Y            41.0744297060      -33.1107334013      -11.5284562929  MEMB      99              0.0000000000
     51186      1359  PVPG      C23            36.6952989061      -36.0896162360      -14.4724263831  MEMB      99              0.0000000000
     51187      1359  PVPG      H3R            35.6749690893      -35.9287388761      -14.8627096574  MEMB      99              0.0000000000
     51188      1359  PVPG      H3S            37.4004070293      -35.3832398357      -14.9689570557  MEMB      99              0.0000000000
     51189      1359  PVPG      C24            36.7583123485      -35.8772565468      -12.9366132689  MEMB      99              0.0000000000
     51190      1359  PVPG      H4R            36.4703072718      -34.8155423754      -12.7459971459  MEMB      99              0.0000000000
     51191      1359  PVPG      H4S            37.7946720495      -36.0470700334      -12.5658623534  MEMB      99              0.0000000000
     51192      1359  PVPG      C25            35.8205012423      -36.7270822030      -12.0654459342  MEMB      99              0.0000000000
     51193      1359  PVPG      H5R            35.5863142968      -37.6840330287      -12.5723186571  MEMB      99              0.0000000000
     51194      1359  PVPG      H5S            34.8581598385      -36.1836079528      -11.9952860357  MEMB      99              0.0000000000
     51195      1359  PVPG      C26            36.3461795457      -37.0312851672      -10.6483880223  MEMB      99              0.0000000000
     51196      1359  PVPG      H6R            35.5065448967      -37.3887076294      -10.0208459244  MEMB      99              0.0000000000
     51197      1359  PVPG      H6S            36.7948912193      -36.1562963995      -10.1304848480  MEMB      99              0.0000000000
     51198      1359  PVPG      C27            37.4621901778      -38.0481111829      -10.6027223569  MEMB      99              0.0000000000
     51199      1359  PVPG      H7R            38.1841879469      -37.7800924605      -11.4051756201  MEMB      99              0.0000000000
     51200      1359  PVPG      H7S            37.0886062269      -39.0994263244      -10.7252285250  MEMB      99              0.0000000000
     51201      1359  PVPG      C28            38.2489668713      -37.8919093690       -9.3238563878  MEMB      99              0.0000000000
     51202      1359  PVPG      H8R            37.6084733874      -38.3582214489       -8.5367985735  MEMB      99              0.0000000000
     51203      1359  PVPG      H8S            38.5180981079      -36.8596143623       -9.1147378926  MEMB      99              0.0000000000
     51204      1359  PVPG      C29            39.6170296224      -38.4586661226       -9.2330481333  MEMB      99              0.0000000000
     51205      1359  PVPG      H9R            40.4999668883      -38.2808816830       -9.8812939862  MEMB      99              0.0000000000
     51206      1359  PVPG      H9S            39.4339468493      -39.3879304657       -9.6634714911  MEMB      99              0.0000000000
     51207      1359  PVPG      C210           39.9500249010      -38.6286640199       -7.7566826403  MEMB      99              0.0000000000
     51208      1359  PVPG      H10R           40.2130454584      -37.7317901338       -7.3134539874  MEMB      99              0.0000000000
     51209      1359  PVPG      H10S           40.9806254970      -38.9630070327       -8.1121284720  MEMB      99              0.0000000000
     51210      1359  PVPG      C211           39.1370914986      -39.4120413537       -6.6434669718  MEMB      99              0.0000000000
     51211      1359  PVPG      H111           39.1490924816      -40.4955778892       -6.6303741384  MEMB      99              0.0000000000
     51212      1359  PVPG      C212           38.9190470057      -39.3417252386       -5.3871814803  MEMB      99              0.0000000000
     51213      1359  PVPG      H121           38.5750884103      -40.2747876689       -4.8609837812  MEMB      99              0.0000000000
     51214      1359  PVPG      C213           39.5728008955      -38.2351117322       -4.7137642669  MEMB      99              0.0000000000
     51215      1359  PVPG      H13R           40.1856401460      -37.6290276498       -5.3912901025  MEMB      99              0.0000000000
     51216      1359  PVPG      H13S           40.2369500109      -38.3977798028       -3.8683631535  MEMB      99              0.0000000000
     51217      1359  PVPG      C214           38.4685149212      -37.6657185186       -3.9591376030  MEMB      99              0.0000000000
     51218      1359  PVPG      H14R           37.4532921621      -38.0089312186       -4.3044585441  MEMB      99              0.0000000000
     51219      1359  PVPG      H14S           38.5457256869      -36.6222866202       -4.2267976790  MEMB      99              0.0000000000
     51220      1359  PVPG      C215           38.7530796044      -37.8433059875       -2.4410421715  MEMB      99              0.0000000000
     51221      1359  PVPG      H15R           39.7365597809      -37.4455373270       -2.1719709473  MEMB      99              0.0000000000
     51222      1359  PVPG      H15S           38.8282855643      -38.9529493016       -2.2035788671  MEMB      99              0.0000000000
     51223      1359  PVPG      C216           37.6097146463      -37.1785439102       -1.6586843095  MEMB      99              0.0000000000
     51224      1359  PVPG      H16R           36.6090325961      -37.6249113890       -1.7525006402  MEMB      99              0.0000000000
     51225      1359  PVPG      H16S           37.3497241873      -36.1993667120       -2.0775534919  MEMB      99              0.0000000000
     51226      1359  PVPG      C217           37.8386421656      -37.3084417584       -0.1829779387  MEMB      99              0.0000000000
     51227      1359  PVPG      H17R           38.6965491472      -36.7020044508        0.1062316764  MEMB      99              0.0000000000
     51228      1359  PVPG      H17S           38.1545370047      -38.3589224094       -0.0131503085  MEMB      99              0.0000000000
     51229      1359  PVPG      C218           36.5826240461      -36.9557641852        0.5951415252  MEMB      99              0.0000000000
     51230      1359  PVPG      H18R           36.0264138803      -36.0937363201        0.1942226837  MEMB      99              0.0000000000
     51231      1359  PVPG      H18S           35.8840580421      -37.7394612286        0.3978674814  MEMB      99              0.0000000000
     51232      1359  PVPG      H18T           36.7260467776      -36.9063691448        1.6877000970  MEMB      99              0.0000000000
     51233      1359  PVPG      C33            40.1634981137      -34.8605015377      -10.5879033855  MEMB      99              0.0000000000
     51234      1359  PVPG      H3X            41.0844191414      -35.4009671545      -10.2795991821  MEMB      99              0.0000000000
     51235      1359  PVPG      H3Y            39.3935847103      -35.6166300960      -10.8541321955  MEMB      99              0.0000000000
     51236      1359  PVPG      C34            39.7038541675      -33.9906722987       -9.4085155013  MEMB      99              0.0000000000
     51237      1359  PVPG      H4X            38.6781388656      -33.6264632015       -9.6431142606  MEMB      99              0.0000000000
     51238      1359  PVPG      H4Y            40.3818795632      -33.1065313951       -9.3793510629  MEMB      99              0.0000000000
     51239      1359  PVPG      C35            39.6393813614      -34.6795333696       -8.0306927312  MEMB      99              0.0000000000
     51240      1359  PVPG      H5X            38.7207429617      -35.2927736584       -7.9895414106  MEMB      99              0.0000000000
     51241      1359  PVPG      H5Y            39.4808478557      -33.9319291039       -7.2277513363  MEMB      99              0.0000000000
     51242      1359  PVPG      C36            40.8462923310      -35.5243063257       -7.6074010919  MEMB      99              0.0000000000
     51243      1359  PVPG      H6X            41.0859939991      -36.3454851399       -8.3184378281  MEMB      99              0.0000000000
     51244      1359  PVPG      H6Y            40.5675657849      -36.0057436844       -6.6424105762  MEMB      99              0.0000000000
     51245      1359  PVPG      C37            42.0922930185      -34.7069478492       -7.3499852918  MEMB      99              0.0000000000
     51246      1359  PVPG      H7X            42.3629825131      -34.1852944989       -8.2858039772  MEMB      99              0.0000000000
     51247      1359  PVPG      H7Y            42.9168665642      -35.3932986528       -7.0563799303  MEMB      99              0.0000000000
     51248      1359  PVPG      C38            41.8888457322      -33.7164347729       -6.2161666960  MEMB      99              0.0000000000
     51249      1359  PVPG      H8X            41.0619173791      -33.0060384954       -6.4250522908  MEMB      99              0.0000000000
     51250      1359  PVPG      H8Y            42.8165697658      -33.1053920369       -6.1400500910  MEMB      99              0.0000000000
     51251      1359  PVPG      C39            41.5858909429      -34.4767593569       -4.9254885105  MEMB      99              0.0000000000
     51252      1359  PVPG      H9X            42.4756768357      -35.1177257465       -4.6722331291  MEMB      99              0.0000000000
     51253      1359  PVPG      H9Y            40.6448813815      -35.0369435994       -4.8788431489  MEMB      99              0.0000000000
     51254      1359  PVPG      C310           41.2746578524      -33.5714452903       -3.7865559515  MEMB      99              0.0000000000
     51255      1359  PVPG      H10X           40.4937733524      -32.8071274181       -3.8822996219  MEMB      99              0.0000000000
     51256      1359  PVPG      H10Y           42.1691903367      -33.0641943282       -4.0550294047  MEMB      99              0.0000000000
     51257      1359  PVPG      C311           41.3694558936      -34.3643204469       -2.5005710897  MEMB      99              0.0000000000
     51258      1359  PVPG      H11X           42.3051517878      -34.9240306885       -2.7082464083  MEMB      99              0.0000000000
     51259      1359  PVPG      H11Y           40.6994087864      -35.1941729474       -2.3267551916  MEMB      99              0.0000000000
     51260      1359  PVPG      C312           41.2416312542      -33.5548215621       -1.2013307770  MEMB      99              0.0000000000
     51261      1359  PVPG      H12X           41.8021883513      -32.6063111726       -1.4293925066  MEMB      99              0.0000000000
     51262      1359  PVPG      H12Y           41.6496414924      -33.9527278729       -0.2481023433  MEMB      99              0.0000000000
     51263      1359  PVPG      C313           39.8150627898      -33.5506607269       -0.8319547052  MEMB      99              0.0000000000
     51264      1359  PVPG      H13X           39.2827338317      -34.4495478498       -1.0665606557  MEMB      99              0.0000000000
     51265      1359  PVPG      H13Y           39.6764888334      -32.9490202158       -1.7679028075  MEMB      99              0.0000000000
     51266      1359  PVPG      C314           39.4616621070      -33.1095302230        0.6385860215  MEMB      99              0.0000000000
     51267      1359  PVPG      H14X           40.3973846525      -32.6495716490        1.0848489752  MEMB      99              0.0000000000
     51268      1359  PVPG      H14Y           39.3964879957      -33.8998521146        1.3893000172  MEMB      99              0.0000000000
     51269      1359  PVPG      C315           38.1180742734      -32.2681641960        0.7325666558  MEMB      99              0.0000000000
     51270      1359  PVPG      H15X           38.0209730177      -31.3682319514        0.1478904469  MEMB      99              0.0000000000
     51271      1359  PVPG      H15Y           38.1310583952      -31.5165089742        1.5109558420  MEMB      99              0.0000000000
     51272      1359  PVPG      C316           36.7935942868      -32.8080250832        0.2547185803  MEMB      99              0.0000000000
     51273      1359  PVPG      H16X           36.8093629920      -32.9118388202       -0.8457895183  MEMB      99              0.0000000000
     51274      1359  PVPG      H16Y           36.6178344513      -33.6504584033        0.9165878493  MEMB      99              0.0000000000
     51275      1359  PVPG      H16Z           35.9306086464      -32.1058195852        0.3826249096  MEMB      99              0.0000000000
     51276      1360  PVCL2     C3            -38.7086150662       35.8383546561      -19.4013211930  MEMB      100             0.0000000000
     51277      1360  PVCL2     HG31          -38.9345660837       35.3913161978      -18.4072243925  MEMB      100             0.0000000000
     51278      1360  PVCL2     HG32          -37.6604946394       35.6226118841      -19.6865143816  MEMB      100             0.0000000000
     51279      1360  PVCL2     P3            -38.2856696967       38.2921050871      -20.3320653610  MEMB      100             0.0000000000
     51280      1360  PVCL2     OP33          -39.3477658888       39.2740044935      -20.3578049938  MEMB      100             0.0000000000
     51281      1360  PVCL2     OP34          -37.9658888147       37.6289669643      -21.6157966019  MEMB      100             0.0000000000
     51282      1360  PVCL2     OP31          -38.7990057013       37.2341745026      -19.2731516742  MEMB      100             0.0000000000
     51283      1360  PVCL2     OP32          -37.0603772216       38.9575062621      -19.6919919283  MEMB      100             0.0000000000
     51284      1360  PVCL2     C31           -37.2263162719       39.8269035442      -18.5693591388  MEMB      100             0.0000000000
     51285      1360  PVCL2     H31J          -36.7778074999       40.8124044716      -18.8167484294  MEMB      100             0.0000000000
     51286      1360  PVCL2     H31K          -38.2820542296       40.0043476818      -18.2205874327  MEMB      100             0.0000000000
     51287      1360  PVCL2     C2            -39.7504661398       35.2563532953      -20.4015964045  MEMB      100             0.0000000000
     51288      1360  PVCL2     HG22          -39.7029951749       35.8649992870      -21.3261567977  MEMB      100             0.0000000000
     51289      1360  PVCL2     OG12          -39.3859597325       33.9297402346      -20.7559643907  MEMB      100             0.0000000000
     51290      1360  PVCL2     HO12          -39.0662861600       33.5355681959      -19.9478626619  MEMB      100             0.0000000000
     51291      1360  PVCL2     C1            -41.2091504110       35.1270287273      -19.8813832732  MEMB      100             0.0000000000
     51292      1360  PVCL2     HG11          -41.1929752353       34.4689466319      -18.9891041158  MEMB      100             0.0000000000
     51293      1360  PVCL2     HG12          -41.7836685748       34.6217337617      -20.6791985994  MEMB      100             0.0000000000
     51294      1360  PVCL2     P1            -42.3719326191       36.6995621149      -18.1591634940  MEMB      100             0.0000000000
     51295      1360  PVCL2     OP13          -41.3965945322       36.1686326944      -17.1872560414  MEMB      100             0.0000000000
     51296      1360  PVCL2     OP14          -42.8076521104       38.1110116216      -18.0833578957  MEMB      100             0.0000000000
     51297      1360  PVCL2     OP11          -41.9137076485       36.3256065518      -19.6142738570  MEMB      100             0.0000000000
     51298      1360  PVCL2     OP12          -43.6736488351       35.7975092681      -18.0761819164  MEMB      100             0.0000000000
     51299      1360  PVCL2     C11           -44.7370024299       36.1587943379      -18.9552715728  MEMB      100             0.0000000000
     51300      1360  PVCL2     H11J          -44.2833510247       36.3112377307      -19.9440999339  MEMB      100             0.0000000000
     51301      1360  PVCL2     H11K          -45.1276839911       37.1830974236      -18.7456191859  MEMB      100             0.0000000000
     51302      1360  PVCL2     C12           -45.9874812250       35.2019721475      -18.8272668926  MEMB      100             0.0000000000
     51303      1360  PVCL2     H12J          -46.7660854350       35.5774690608      -19.5374867282  MEMB      100             0.0000000000
     51304      1360  PVCL2     O12           -46.4749601777       35.2576862669      -17.5044766442  MEMB      100             0.0000000000
     51305      1360  PVCL2     CA1           -47.1889102848       36.2783429242      -17.1982339414  MEMB      100             0.0000000000
     51306      1360  PVCL2     OA1           -47.5104198523       37.2213194565      -17.9110984605  MEMB      100             0.0000000000
     51307      1360  PVCL2     CA2           -47.4486227336       36.1170623970      -15.6967875746  MEMB      100             0.0000000000
     51308      1360  PVCL2     H2A           -47.1892568776       35.1518076701      -15.2700098826  MEMB      100             0.0000000000
     51309      1360  PVCL2     H2B           -48.5056212795       36.4219954334      -15.4712693936  MEMB      100             0.0000000000
     51310      1360  PVCL2     C13           -45.8439284148       33.6764672034      -19.1122799102  MEMB      100             0.0000000000
     51311      1360  PVCL2     H13J          -45.9326930294       33.3672044060      -20.1590972318  MEMB      100             0.0000000000
     51312      1360  PVCL2     H13K          -46.7123822720       33.1660592853      -18.6770466329  MEMB      100             0.0000000000
     51313      1360  PVCL2     O13           -44.7229532354       33.0914997559      -18.4778728550  MEMB      100             0.0000000000
     51314      1360  PVCL2     CB1           -43.7072650698       32.8724227803      -19.2759312333  MEMB      100             0.0000000000
     51315      1360  PVCL2     OB1           -43.6347000025       33.1501859609      -20.4642264611  MEMB      100             0.0000000000
     51316      1360  PVCL2     CB2           -42.6951228977       32.0907959636      -18.4832320901  MEMB      100             0.0000000000
     51317      1360  PVCL2     H2D           -41.6774191137       32.0184981833      -18.8963957376  MEMB      100             0.0000000000
     51318      1360  PVCL2     H2E           -43.1914309302       31.1359531677      -18.5579411474  MEMB      100             0.0000000000
     51319      1360  PVCL2     C32           -36.4068710586       39.2216647040      -17.4414740010  MEMB      100             0.0000000000
     51320      1360  PVCL2     H32J          -35.3740735167       39.1134115662      -17.8582365884  MEMB      100             0.0000000000
     51321      1360  PVCL2     O32           -37.0027380036       37.9893898610      -17.0535255210  MEMB      100             0.0000000000
     51322      1360  PVCL2     CC1           -36.1998978649       37.0798092981      -16.6675126589  MEMB      100             0.0000000000
     51323      1360  PVCL2     OC1           -34.9903215942       37.0735991448      -16.7334660140  MEMB      100             0.0000000000
     51324      1360  PVCL2     CC2           -37.0306724444       35.8969481275      -16.2023115387  MEMB      100             0.0000000000
     51325      1360  PVCL2     H2R           -36.9856031392       35.1964348523      -17.0316363123  MEMB      100             0.0000000000
     51326      1360  PVCL2     H2S           -38.0670825726       36.2152098426      -16.0296516215  MEMB      100             0.0000000000
     51327      1360  PVCL2     C33           -36.3559522553       40.1466594702      -16.2334118406  MEMB      100             0.0000000000
     51328      1360  PVCL2     H33J          -35.7935711095       39.6458364043      -15.4072454866  MEMB      100             0.0000000000
     51329      1360  PVCL2     H33K          -35.7826313176       41.0143245596      -16.6246811659  MEMB      100             0.0000000000
     51330      1360  PVCL2     O33           -37.6537277866       40.6210347874      -15.8614481555  MEMB      100             0.0000000000
     51331      1360  PVCL2     CD1           -38.1114139964       40.3445343461      -14.6884384649  MEMB      100             0.0000000000
     51332      1360  PVCL2     OD1           -37.6379794895       39.6256327797      -13.8270729589  MEMB      100             0.0000000000
     51333      1360  PVCL2     CD2           -39.2540256926       41.2662385251      -14.4419589774  MEMB      100             0.0000000000
     51334      1360  PVCL2     H2X           -40.0456257971       41.0397579243      -15.1956532671  MEMB      100             0.0000000000
     51335      1360  PVCL2     H2Y           -38.8835964473       42.3125294522      -14.5374210560  MEMB      100             0.0000000000
     51336      1360  PVCL2     CA3           -46.4771645821       36.9577545267      -14.9087838375  MEMB      100             0.0000000000
     51337      1360  PVCL2     H3A           -46.6800420045       37.0851517300      -13.8374688500  MEMB      100             0.0000000000
     51338      1360  PVCL2     H3B           -47.1385392750       37.7050253865      -15.2963073338  MEMB      100             0.0000000000
     51339      1360  PVCL2     CA4           -44.9595588669       37.0184108716      -15.2810149679  MEMB      100             0.0000000000
     51340      1360  PVCL2     H4A           -44.7493114423       37.3035220285      -16.3408903207  MEMB      100             0.0000000000
     51341      1360  PVCL2     H4B           -44.6150390562       35.9864653446      -15.1098396141  MEMB      100             0.0000000000
     51342      1360  PVCL2     CA5           -44.0597343570       37.9020498064      -14.3770561524  MEMB      100             0.0000000000
     51343      1360  PVCL2     H5A           -44.4797938410       37.8554505031      -13.3545021874  MEMB      100             0.0000000000
     51344      1360  PVCL2     H5B           -44.1188062265       38.9655897507      -14.7098862038  MEMB      100             0.0000000000
     51345      1360  PVCL2     CA6           -42.5592273447       37.5154590990      -14.2512559739  MEMB      100             0.0000000000
     51346      1360  PVCL2     H6A           -42.1302739304       38.2735134702      -13.5581139366  MEMB      100             0.0000000000
     51347      1360  PVCL2     H6B           -42.0100961474       37.6518759139      -15.2135219689  MEMB      100             0.0000000000
     51348      1360  PVCL2     CA7           -42.2152066005       36.1011036432      -13.7043261010  MEMB      100             0.0000000000
     51349      1360  PVCL2     H7A           -41.1231881474       36.0820721773      -13.5008354565  MEMB      100             0.0000000000
     51350      1360  PVCL2     H7B           -42.3552634505       35.3531315497      -14.5190579235  MEMB      100             0.0000000000
     51351      1360  PVCL2     CA8           -42.9631553009       35.6347373981      -12.4285676992  MEMB      100             0.0000000000
     51352      1360  PVCL2     H8A           -42.6868569041       34.5832937516      -12.1955478931  MEMB      100             0.0000000000
     51353      1360  PVCL2     H8B           -44.0554138875       35.6571060262      -12.6173783307  MEMB      100             0.0000000000
     51354      1360  PVCL2     CA9           -42.6376472538       36.4275883092      -11.1482231632  MEMB      100             0.0000000000
     51355      1360  PVCL2     H9A           -43.1875689148       37.3877515601      -11.2153518935  MEMB      100             0.0000000000
     51356      1360  PVCL2     H9B           -41.5451709141       36.6436917828      -11.1864273482  MEMB      100             0.0000000000
     51357      1360  PVCL2     CA10          -42.9530157263       35.6598282250       -9.8302884317  MEMB      100             0.0000000000
     51358      1360  PVCL2     H10A          -42.5828044263       34.6244906179       -9.9847128841  MEMB      100             0.0000000000
     51359      1360  PVCL2     H10B          -44.0526061091       35.5431599280       -9.6868825761  MEMB      100             0.0000000000
     51360      1360  PVCL2     CA11          -42.2953534468       36.2252409631       -8.5845842062  MEMB      100             0.0000000000
     51361      1360  PVCL2     H11A          -42.5454801673       37.2632354735       -8.3233056981  MEMB      100             0.0000000000
     51362      1360  PVCL2     CA12          -41.3933765373       35.5877684998       -7.8118359869  MEMB      100             0.0000000000
     51363      1360  PVCL2     H12A          -40.9851690828       36.0967102800       -6.9243518569  MEMB      100             0.0000000000
     51364      1360  PVCL2     CA13          -40.8668010270       34.1924702121       -8.0372982653  MEMB      100             0.0000000000
     51365      1360  PVCL2     H13A          -39.8677430163       34.0445091474       -7.5647342361  MEMB      100             0.0000000000
     51366      1360  PVCL2     H13B          -40.7331287739       34.0135461925       -9.1249049376  MEMB      100             0.0000000000
     51367      1360  PVCL2     CA14          -41.8101305994       33.0989916953       -7.5231641916  MEMB      100             0.0000000000
     51368      1360  PVCL2     H14A          -41.5247059254       32.1925462893       -8.0881777287  MEMB      100             0.0000000000
     51369      1360  PVCL2     H14B          -42.8632176942       33.3076808285       -7.8152992957  MEMB      100             0.0000000000
     51370      1360  PVCL2     CA15          -41.6140370816       32.7367732046       -6.0369360065  MEMB      100             0.0000000000
     51371      1360  PVCL2     H15A          -40.9216372413       31.8679545622       -6.0163334124  MEMB      100             0.0000000000
     51372      1360  PVCL2     H15B          -42.5659763315       32.3935086307       -5.5820982285  MEMB      100             0.0000000000
     51373      1360  PVCL2     CA16          -41.0712603242       33.8708186451       -5.1553470471  MEMB      100             0.0000000000
     51374      1360  PVCL2     H16A          -41.8687990667       34.6463863164       -5.1371513887  MEMB      100             0.0000000000
     51375      1360  PVCL2     H16B          -40.1582350824       34.3259407581       -5.5837943128  MEMB      100             0.0000000000
     51376      1360  PVCL2     CA17          -40.7842015316       33.4672748751       -3.7073038775  MEMB      100             0.0000000000
     51377      1360  PVCL2     H17A          -39.8792558289       32.8234308378       -3.6114396060  MEMB      100             0.0000000000
     51378      1360  PVCL2     H17B          -41.6710377506       32.8737985358       -3.3936960294  MEMB      100             0.0000000000
     51379      1360  PVCL2     CA18          -40.6383027925       34.6507633659       -2.7493619685  MEMB      100             0.0000000000
     51380      1360  PVCL2     H18A          -41.3084659081       35.4938768418       -3.0294986671  MEMB      100             0.0000000000
     51381      1360  PVCL2     H18B          -39.5897365222       35.0131689309       -2.6912569566  MEMB      100             0.0000000000
     51382      1360  PVCL2     H18C          -40.9351159020       34.3157227555       -1.7357247318  MEMB      100             0.0000000000
     51383      1360  PVCL2     CB3           -42.8389225189       32.2932611797      -16.9888673643  MEMB      100             0.0000000000
     51384      1360  PVCL2     H3D           -43.7906185715       31.7904288596      -16.6560159761  MEMB      100             0.0000000000
     51385      1360  PVCL2     H3E           -42.7832227786       33.3788781432      -16.8318988028  MEMB      100             0.0000000000
     51386      1360  PVCL2     CB4           -41.7731346712       31.7167332741      -16.1327683718  MEMB      100             0.0000000000
     51387      1360  PVCL2     H4D           -40.7853589943       31.8794945074      -16.6387766272  MEMB      100             0.0000000000
     51388      1360  PVCL2     H4E           -42.1465566797       30.6563189184      -15.9606423327  MEMB      100             0.0000000000
     51389      1360  PVCL2     CB5           -41.7459408214       32.2630978298      -14.7643547343  MEMB      100             0.0000000000
     51390      1360  PVCL2     H5D           -42.6720137751       31.7926278911      -14.3556932225  MEMB      100             0.0000000000
     51391      1360  PVCL2     H5E           -41.7858270067       33.3345929564      -14.7926251727  MEMB      100             0.0000000000
     51392      1360  PVCL2     CB6           -40.5126296005       32.0268378302      -13.9139747454  MEMB      100             0.0000000000
     51393      1360  PVCL2     H6D           -39.5122957945       32.0190723610      -14.3727765953  MEMB      100             0.0000000000
     51394      1360  PVCL2     H6E           -40.8071534792       31.0401698115      -13.8833632268  MEMB      100             0.0000000000
     51395      1360  PVCL2     CB7           -40.6579790822       32.3541018707      -12.4200303737  MEMB      100             0.0000000000
     51396      1360  PVCL2     H7D           -41.7007683054       32.0556720936      -12.1970316926  MEMB      100             0.0000000000
     51397      1360  PVCL2     H7E           -40.8133527274       33.4080621601      -12.2621800742  MEMB      100             0.0000000000
     51398      1360  PVCL2     CB8           -39.6276176882       31.5758258131      -11.5037379346  MEMB      100             0.0000000000
     51399      1360  PVCL2     H8D           -39.3259880117       30.5263899582      -11.7514788713  MEMB      100             0.0000000000
     51400      1360  PVCL2     H8E           -39.9561921591       31.4360158620      -10.4520079052  MEMB      100             0.0000000000
     51401      1360  PVCL2     CB9           -38.3562479445       32.2522213488      -11.7744078162  MEMB      100             0.0000000000
     51402      1360  PVCL2     H9D           -38.6609280158       33.3097341344      -11.7023734272  MEMB      100             0.0000000000
     51403      1360  PVCL2     H9E           -38.0455171501       31.9769250386      -12.8080046333  MEMB      100             0.0000000000
     51404      1360  PVCL2     CB10          -37.2643079506       31.9128699367      -10.8281289525  MEMB      100             0.0000000000
     51405      1360  PVCL2     H10D          -36.3961443211       32.5367089445      -11.1418224077  MEMB      100             0.0000000000
     51406      1360  PVCL2     H10E          -36.9987197873       30.8316644206      -10.8654890717  MEMB      100             0.0000000000
     51407      1360  PVCL2     CB11          -37.6377553992       32.2272330781       -9.4162463711  MEMB      100             0.0000000000
     51408      1360  PVCL2     H11D          -38.4209646123       31.5543880082       -8.9971559924  MEMB      100             0.0000000000
     51409      1360  PVCL2     H11E          -37.9391132320       33.2960422390       -9.2890267196  MEMB      100             0.0000000000
     51410      1360  PVCL2     CB12          -36.4402194749       31.9108138796       -8.6243660654  MEMB      100             0.0000000000
     51411      1360  PVCL2     H12D          -35.5416020847       32.4747571087       -8.9952023451  MEMB      100             0.0000000000
     51412      1360  PVCL2     H12E          -36.2052327215       30.8330693113       -8.5989585212  MEMB      100             0.0000000000
     51413      1360  PVCL2     CB13          -36.7793711568       32.2265375053       -7.2379095526  MEMB      100             0.0000000000
     51414      1360  PVCL2     H13D          -37.7379162673       32.5796843662       -6.8318037470  MEMB      100             0.0000000000
     51415      1360  PVCL2     H13E          -36.4709885529       33.2448035052       -7.4127629637  MEMB      100             0.0000000000
     51416      1360  PVCL2     CB14          -36.1338941505       31.2279537445       -6.3208274936  MEMB      100             0.0000000000
     51417      1360  PVCL2     H14D          -35.0076285098       31.0972294329       -6.4677542027  MEMB      100             0.0000000000
     51418      1360  PVCL2     H14E          -36.6952053497       30.2940722154       -6.3517212835  MEMB      100             0.0000000000
     51419      1360  PVCL2     CB15          -36.5218960652       31.5136032386       -4.9297658571  MEMB      100             0.0000000000
     51420      1360  PVCL2     H15D          -37.3371066729       32.2167936094       -4.6909941534  MEMB      100             0.0000000000
     51421      1360  PVCL2     H15E          -35.4663448986       31.8460953084       -4.9838389275  MEMB      100             0.0000000000
     51422      1360  PVCL2     CB16          -36.3095705909       30.8182954976       -3.7152802073  MEMB      100             0.0000000000
     51423      1360  PVCL2     H16D          -36.6003394260       29.8718459003       -4.0100077405  MEMB      100             0.0000000000
     51424      1360  PVCL2     H16E          -36.8461628866       31.0456139451       -2.8575459267  MEMB      100             0.0000000000
     51425      1360  PVCL2     H16F          -35.3416067845       30.9761239435       -3.1412217224  MEMB      100             0.0000000000
     51426      1360  PVCL2     CC3           -36.4224982670       35.1522178119      -15.0216652620  MEMB      100             0.0000000000
     51427      1360  PVCL2     H3R           -35.3645046915       35.1095760807      -15.3113839304  MEMB      100             0.0000000000
     51428      1360  PVCL2     H3S           -36.7606049989       34.0949353151      -15.0119137723  MEMB      100             0.0000000000
     51429      1360  PVCL2     CC4           -36.6599061861       35.7789474657      -13.6336906231  MEMB      100             0.0000000000
     51430      1360  PVCL2     H4R           -36.4316779421       36.8677060651      -13.5948960372  MEMB      100             0.0000000000
     51431      1360  PVCL2     H4S           -35.9890394980       35.2484369356      -12.9235615572  MEMB      100             0.0000000000
     51432      1360  PVCL2     CC5           -38.0965477320       35.6046301329      -13.1316961989  MEMB      100             0.0000000000
     51433      1360  PVCL2     H5R           -38.3782340419       34.5549871647      -13.3786814480  MEMB      100             0.0000000000
     51434      1360  PVCL2     H5S           -38.7412157746       36.2655757366      -13.7474855222  MEMB      100             0.0000000000
     51435      1360  PVCL2     CC6           -38.3099134213       35.8939250130      -11.6176337558  MEMB      100             0.0000000000
     51436      1360  PVCL2     H6R           -37.6176488441       35.2729312934      -11.0060831511  MEMB      100             0.0000000000
     51437      1360  PVCL2     H6S           -39.3316258456       35.5501590902      -11.3396687990  MEMB      100             0.0000000000
     51438      1360  PVCL2     CC7           -38.2327797579       37.3728409718      -11.1665915234  MEMB      100             0.0000000000
     51439      1360  PVCL2     H7R           -39.0948064876       37.9375577361      -11.5885221888  MEMB      100             0.0000000000
     51440      1360  PVCL2     H7S           -37.3163381248       37.8762635150      -11.5400523732  MEMB      100             0.0000000000
     51441      1360  PVCL2     CC8           -38.3339885752       37.5607483423       -9.6382650263  MEMB      100             0.0000000000
     51442      1360  PVCL2     H8R           -39.1438461419       36.9189751958       -9.2291008410  MEMB      100             0.0000000000
     51443      1360  PVCL2     H8S           -38.5853143232       38.6221301940       -9.4232410070  MEMB      100             0.0000000000
     51444      1360  PVCL2     CC9           -37.0441582488       37.2399116342       -8.9000230736  MEMB      100             0.0000000000
     51445      1360  PVCL2     H9R           -36.1828070896       37.6623265095       -9.4774769277  MEMB      100             0.0000000000
     51446      1360  PVCL2     H9S           -36.9502238518       36.1291582547       -8.8516070169  MEMB      100             0.0000000000
     51447      1360  PVCL2     CC10          -36.8801065871       37.8856960757       -7.5197787342  MEMB      100             0.0000000000
     51448      1360  PVCL2     H10R          -36.6473523399       38.9541157953       -7.7198339008  MEMB      100             0.0000000000
     51449      1360  PVCL2     H10S          -35.9648070766       37.4637357639       -7.0420578410  MEMB      100             0.0000000000
     51450      1360  PVCL2     CC11          -38.0868157567       37.7923583161       -6.6238863858  MEMB      100             0.0000000000
     51451      1360  PVCL2     H11R          -38.9225215635       38.4227390776       -6.8860845960  MEMB      100             0.0000000000
     51452      1360  PVCL2     CC12          -38.2372789880       37.0097105282       -5.5647057002  MEMB      100             0.0000000000
     51453      1360  PVCL2     H12R          -39.1174574296       36.9696841715       -4.9189916238  MEMB      100             0.0000000000
     51454      1360  PVCL2     CC13          -37.2227406472       36.0971419253       -5.1138227979  MEMB      100             0.0000000000
     51455      1360  PVCL2     H13R          -36.5747293691       35.8341539904       -5.9665366119  MEMB      100             0.0000000000
     51456      1360  PVCL2     H13S          -37.8089549492       35.2318926981       -4.7301799785  MEMB      100             0.0000000000
     51457      1360  PVCL2     CC14          -36.3471584621       36.5719067126       -3.9737705375  MEMB      100             0.0000000000
     51458      1360  PVCL2     H14R          -35.8756067020       35.7762560725       -3.4310706279  MEMB      100             0.0000000000
     51459      1360  PVCL2     H14S          -37.0124996771       36.9936304690       -3.2323001613  MEMB      100             0.0000000000
     51460      1360  PVCL2     CC15          -35.1621007381       37.3826800191       -4.3869805545  MEMB      100             0.0000000000
     51461      1360  PVCL2     H15R          -35.6291262887       38.1705477249       -5.0255022433  MEMB      100             0.0000000000
     51462      1360  PVCL2     H15S          -34.4864280089       36.7590822179       -5.0214204731  MEMB      100             0.0000000000
     51463      1360  PVCL2     CC16          -34.4444887943       37.9695199926       -3.1664402826  MEMB      100             0.0000000000
     51464      1360  PVCL2     H16R          -33.8277414363       37.1771872581       -2.7587136871  MEMB      100             0.0000000000
     51465      1360  PVCL2     H16S          -34.7873688643       38.1257392193       -2.0930881537  MEMB      100             0.0000000000
     51466      1360  PVCL2     CC17          -34.5098753347       39.4795629544       -3.3941303887  MEMB      100             0.0000000000
     51467      1360  PVCL2     H17R          -34.0607845020       39.8155656262       -4.3471267469  MEMB      100             0.0000000000
     51468      1360  PVCL2     H17S          -35.6263141495       39.2238423599       -3.3008048479  MEMB      100             0.0000000000
     51469      1360  PVCL2     CC18          -33.6432382823       40.1944156468       -2.4002621056  MEMB      100             0.0000000000
     51470      1360  PVCL2     H18R          -33.4722940992       39.4175248869       -1.6808505152  MEMB      100             0.0000000000
     51471      1360  PVCL2     H18S          -32.7360695099       40.8588141568       -2.5563871051  MEMB      100             0.0000000000
     51472      1360  PVCL2     H18T          -32.9120086136       39.5769160556       -2.8387678638  MEMB      100             0.0000000000
     51473      1360  PVCL2     CD3           -39.7855909351       41.0839066154      -13.0296680520  MEMB      100             0.0000000000
     51474      1360  PVCL2     H3X           -39.1723875222       41.6273000385      -12.2784799783  MEMB      100             0.0000000000
     51475      1360  PVCL2     H3Y           -39.9189709992       40.0098519416      -12.7862171379  MEMB      100             0.0000000000
     51476      1360  PVCL2     CD4           -41.1754789835       41.5368112822      -12.9518691152  MEMB      100             0.0000000000
     51477      1360  PVCL2     H4X           -41.8025873655       41.0300367840      -13.7177498534  MEMB      100             0.0000000000
     51478      1360  PVCL2     H4Y           -41.2222077863       42.6806525893      -12.9182100680  MEMB      100             0.0000000000
     51479      1360  PVCL2     CD5           -41.8889207843       41.2919887381      -11.6991803520  MEMB      100             0.0000000000
     51480      1360  PVCL2     H5X           -42.7931911293       41.8914481047      -11.7988349890  MEMB      100             0.0000000000
     51481      1360  PVCL2     H5Y           -41.0422640147       41.7036385233      -11.1307899846  MEMB      100             0.0000000000
     51482      1360  PVCL2     CD6           -42.3435417903       39.9594841406      -11.1656076860  MEMB      100             0.0000000000
     51483      1360  PVCL2     H6X           -41.4208507383       39.3682458762      -11.1000399013  MEMB      100             0.0000000000
     51484      1360  PVCL2     H6Y           -43.1467504463       39.6128153364      -11.8501811974  MEMB      100             0.0000000000
     51485      1360  PVCL2     CD7           -43.1132626481       39.8364420897       -9.8556468658  MEMB      100             0.0000000000
     51486      1360  PVCL2     H7X           -43.2900227005       38.7989371108       -9.5403267005  MEMB      100             0.0000000000
     51487      1360  PVCL2     H7Y           -44.0888249186       40.4169764864       -9.8904657331  MEMB      100             0.0000000000
     51488      1360  PVCL2     CD8           -42.4651140490       40.1613740230       -8.5665521165  MEMB      100             0.0000000000
     51489      1360  PVCL2     H8X           -43.2517964530       39.9944021567       -7.8102290089  MEMB      100             0.0000000000
     51490      1360  PVCL2     H8Y           -42.9865110071       41.1246380989       -8.5685013390  MEMB      100             0.0000000000
     51491      1360  PVCL2     CD9           -40.8382887776       40.1057362325       -8.2308251338  MEMB      100             0.0000000000
     51492      1360  PVCL2     H9X           -40.2752478066       40.5205419014       -9.1030403555  MEMB      100             0.0000000000
     51493      1360  PVCL2     H9Y           -40.7046523786       39.0329626941       -8.0938754799  MEMB      100             0.0000000000
     51494      1360  PVCL2     CD10          -39.9320351952       40.6206461611       -6.9425065202  MEMB      100             0.0000000000
     51495      1360  PVCL2     H10X          -39.8822968289       41.6953252848       -6.6086238636  MEMB      100             0.0000000000
     51496      1360  PVCL2     H10Y          -38.8468343689       40.6051900495       -7.1413786291  MEMB      100             0.0000000000
     51497      1360  PVCL2     CD11          -40.2812272250       40.0624847649       -5.5775722132  MEMB      100             0.0000000000
     51498      1360  PVCL2     H11X          -40.4054753045       38.9927589710       -5.5447032485  MEMB      100             0.0000000000
     51499      1360  PVCL2     H11Y          -41.3191066689       40.1020182239       -5.2742277857  MEMB      100             0.0000000000
     51500      1360  PVCL2     CD12          -39.6115419809       40.9178597018       -4.5130584735  MEMB      100             0.0000000000
     51501      1360  PVCL2     H12X          -40.2837660820       41.6278432233       -4.1245346185  MEMB      100             0.0000000000
     51502      1360  PVCL2     H12Y          -38.8209247566       41.6052254371       -4.8696027057  MEMB      100             0.0000000000
     51503      1360  PVCL2     CD13          -39.2665248880       40.1795636832       -3.2805317745  MEMB      100             0.0000000000
     51504      1360  PVCL2     H13X          -38.7885049245       40.9393630678       -2.6241360779  MEMB      100             0.0000000000
     51505      1360  PVCL2     H13Y          -38.5355780915       39.4535100172       -3.6808092678  MEMB      100             0.0000000000
     51506      1360  PVCL2     CD14          -40.4212408900       39.4721203078       -2.5762461913  MEMB      100             0.0000000000
     51507      1360  PVCL2     H14X          -41.1365076484       38.9968645645       -3.2863722611  MEMB      100             0.0000000000
     51508      1360  PVCL2     H14Y          -41.0160635605       40.1971220435       -1.9654960499  MEMB      100             0.0000000000
     51509      1360  PVCL2     CD15          -39.8042531115       38.3594216452       -1.7372765950  MEMB      100             0.0000000000
     51510      1360  PVCL2     H15X          -39.1480074447       38.7952577880       -0.9583079033  MEMB      100             0.0000000000
     51511      1360  PVCL2     H15Y          -39.2499570413       37.6226770681       -2.3449334075  MEMB      100             0.0000000000
     51512      1360  PVCL2     CD16          -40.8182217707       37.6215524452       -0.9915773934  MEMB      100             0.0000000000
     51513      1360  PVCL2     H16X          -41.0648281842       38.3768718278       -0.2238472763  MEMB      100             0.0000000000
     51514      1360  PVCL2     H16Y          -40.4803972017       36.7009742611       -0.4588632584  MEMB      100             0.0000000000
     51515      1360  PVCL2     H16Z          -41.7064626863       37.4135910336       -1.6184692071  MEMB      100             0.0000000000
     51516      1361  TIP3      OH2           -28.8752932017      -30.5067479722       26.8697604045  TIP3      1               0.0000000000
     51517      1361  TIP3      H1            -28.7872129624      -29.5698680800       26.7031849793  TIP3      1               0.0000000000
     51518      1361  TIP3      H2            -29.5101766249      -30.7878912055       26.1925317556  TIP3      1               0.0000000000
     51519      1362  TIP3      OH2           -30.0606439051      -31.2145230445       30.3685972968  TIP3      2               0.0000000000
     51520      1362  TIP3      H1            -29.9104894230      -31.9467933913       30.9765357715  TIP3      2               0.0000000000
     51521      1362  TIP3      H2            -30.2872235343      -31.6975561301       29.5438864465  TIP3      2               0.0000000000
     51522      1363  TIP3      OH2           -31.6222564726      -28.9080786582       30.7797817968  TIP3      3               0.0000000000
     51523      1363  TIP3      H1            -31.2383523528      -29.4970308135       30.1062959901  TIP3      3               0.0000000000
     51524      1363  TIP3      H2            -30.8353315313      -28.6713278183       31.2863464100  TIP3      3               0.0000000000
     51525      1364  TIP3      OH2           -35.2761545451      -36.2818004450       28.2315919868  TIP3      4               0.0000000000
     51526      1364  TIP3      H1            -35.0395584898      -35.3936803335       27.8497756241  TIP3      4               0.0000000000
     51527      1364  TIP3      H2            -35.3022978707      -36.8139371503       27.3970613619  TIP3      4               0.0000000000
     51528      1365  TIP3      OH2           -33.5286223271      -32.3486465582       28.3181691446  TIP3      5               0.0000000000
     51529      1365  TIP3      H1            -32.8417168905      -32.9143826046       28.7152499225  TIP3      5               0.0000000000
     51530      1365  TIP3      H2            -34.0176100128      -33.0170719029       27.8237873214  TIP3      5               0.0000000000
     51531      1366  TIP3      OH2           -22.4266751774      -35.6671260195       33.8191662634  TIP3      6               0.0000000000
     51532      1366  TIP3      H1            -23.2432154326      -35.1591029924       33.6663580939  TIP3      6               0.0000000000
     51533      1366  TIP3      H2            -22.5232029627      -35.9721339055       34.7266310178  TIP3      6               0.0000000000
     51534      1367  TIP3      OH2           -36.4016245030      -37.4503601202       32.2864189092  TIP3      7               0.0000000000
     51535      1367  TIP3      H1            -36.6759024127      -36.7639215358       31.6646156116  TIP3      7               0.0000000000
     51536      1367  TIP3      H2            -37.0372328820      -37.2062404313       33.0154126344  TIP3      7               0.0000000000
     51537      1368  TIP3      OH2           -33.7937247586      -29.7092335010       32.6843895187  TIP3      8               0.0000000000
     51538      1368  TIP3      H1            -34.6095786672      -29.1470863936       32.8249228776  TIP3      8               0.0000000000
     51539      1368  TIP3      H2            -33.2046496748      -29.0579404566       32.2623842492  TIP3      8               0.0000000000
     51540      1369  TIP3      OH2           -36.8204770868      -35.5983974126       30.2228716669  TIP3      9               0.0000000000
     51541      1369  TIP3      H1            -36.3387148048      -34.8877044941       30.7262398144  TIP3      9               0.0000000000
     51542      1369  TIP3      H2            -36.0665452137      -35.8638703075       29.7120319575  TIP3      9               0.0000000000
     51543      1370  TIP3      OH2           -35.4969051029      -27.8012782458       33.3892184644  TIP3      10              0.0000000000
     51544      1370  TIP3      H1            -35.4793743290      -26.8728679080       33.0907107818  TIP3      10              0.0000000000
     51545      1370  TIP3      H2            -36.3631645574      -27.8902443423       33.8231863588  TIP3      10              0.0000000000
     51546      1371  TIP3      OH2           -32.5946229673      -40.0290022523       29.5562684234  TIP3      11              0.0000000000
     51547      1371  TIP3      H1            -32.4856924691      -40.9499901993       29.8244281650  TIP3      11              0.0000000000
     51548      1371  TIP3      H2            -33.2943019030      -39.7725341697       30.1470281938  TIP3      11              0.0000000000
     51549      1372  TIP3      OH2           -24.4090993705      -28.2093401858       34.5431201233  TIP3      12              0.0000000000
     51550      1372  TIP3      H1            -24.6269744621      -28.8307948136       33.8133433867  TIP3      12              0.0000000000
     51551      1372  TIP3      H2            -24.6019593491      -27.3442417349       34.1606130546  TIP3      12              0.0000000000
     51552      1373  TIP3      OH2           -30.2190628657      -31.2318628439       24.3521983285  TIP3      13              0.0000000000
     51553      1373  TIP3      H1            -30.8705309480      -30.6656601288       23.9047158166  TIP3      13              0.0000000000
     51554      1373  TIP3      H2            -29.4886041581      -31.2566348185       23.6780514172  TIP3      13              0.0000000000
     51555      1374  TIP3      OH2           -22.6429031784      -31.7314622683       32.6744547962  TIP3      14              0.0000000000
     51556      1374  TIP3      H1            -23.5408752212      -31.3004961952       32.6660216290  TIP3      14              0.0000000000
     51557      1374  TIP3      H2            -22.4332334278      -31.7397677220       31.7335592665  TIP3      14              0.0000000000
     51558      1375  TIP3      OH2           -35.1168532521      -30.4237433217       27.1557798126  TIP3      15              0.0000000000
     51559      1375  TIP3      H1            -35.4422364881      -30.7847653208       26.3157290301  TIP3      15              0.0000000000
     51560      1375  TIP3      H2            -34.4970942886      -31.1089017045       27.4952659875  TIP3      15              0.0000000000
     51561      1376  TIP3      OH2           -33.6978614465      -26.9074126339       29.7547008792  TIP3      16              0.0000000000
     51562      1376  TIP3      H1            -33.8471131820      -27.5611460418       29.0563647761  TIP3      16              0.0000000000
     51563      1376  TIP3      H2            -33.0374358284      -27.3644933479       30.3028847232  TIP3      16              0.0000000000
     51564      1377  TIP3      OH2           -34.7606996074      -31.6735328428       30.7777788009  TIP3      17              0.0000000000
     51565      1377  TIP3      H1            -34.1990606406      -31.5500564208       29.9956485709  TIP3      17              0.0000000000
     51566      1377  TIP3      H2            -34.4463080727      -31.0114027299       31.4070503629  TIP3      17              0.0000000000
     51567      1378  TIP3      OH2           -33.9177501632      -27.3634672526       35.5343381977  TIP3      18              0.0000000000
     51568      1378  TIP3      H1            -34.1295552586      -26.5188005262       35.9715366903  TIP3      18              0.0000000000
     51569      1378  TIP3      H2            -34.5271642476      -27.4135953948       34.7857079182  TIP3      18              0.0000000000
     51570      1379  TIP3      OH2           -27.9270147851      -31.7972969951       23.0060046474  TIP3      19              0.0000000000
     51571      1379  TIP3      H1            -27.2487334255      -31.7973641014       23.6802381293  TIP3      19              0.0000000000
     51572      1379  TIP3      H2            -27.4867010145      -31.4691886661       22.2028231327  TIP3      19              0.0000000000
     51573      1380  TIP3      OH2           -35.6182154719      -25.1849478448       36.2534080217  TIP3      20              0.0000000000
     51574      1380  TIP3      H1            -35.6294482344      -25.2914258018       35.2852222082  TIP3      20              0.0000000000
     51575      1380  TIP3      H2            -36.5424164717      -25.3033851355       36.5024774601  TIP3      20              0.0000000000
     51576      1381  TIP3      OH2           -22.9219237447      -25.8516199203       21.1533922539  TIP3      21              0.0000000000
     51577      1381  TIP3      H1            -22.9532290744      -24.8755559759       21.3075360638  TIP3      21              0.0000000000
     51578      1381  TIP3      H2            -21.9886140415      -25.9990322417       21.1235387942  TIP3      21              0.0000000000
     51579      1382  TIP3      OH2           -21.9585899260      -25.6360705151       36.1850650307  TIP3      22              0.0000000000
     51580      1382  TIP3      H1            -22.2154264804      -26.5424177189       36.1175087791  TIP3      22              0.0000000000
     51581      1382  TIP3      H2            -22.8176381265      -25.2627589021       36.4498825748  TIP3      22              0.0000000000
     51582      1383  TIP3      OH2           -35.0815478392      -39.1218449781       30.4855324835  TIP3      23              0.0000000000
     51583      1383  TIP3      H1            -36.0150389137      -39.3071919064       30.2778825720  TIP3      23              0.0000000000
     51584      1383  TIP3      H2            -35.1906979647      -38.4059068094       31.1334967576  TIP3      23              0.0000000000
     51585      1384  TIP3      OH2           -30.3952933944      -38.9344190131       34.0268881776  TIP3      24              0.0000000000
     51586      1384  TIP3      H1            -29.8858593749      -39.6668999687       34.4105033469  TIP3      24              0.0000000000
     51587      1384  TIP3      H2            -31.2413936616      -39.3904053912       33.8581576631  TIP3      24              0.0000000000
     51588      1385  TIP3      OH2           -35.0574650642      -34.2488718128       31.7554306785  TIP3      25              0.0000000000
     51589      1385  TIP3      H1            -35.7227946325      -34.1887434718       32.4694736361  TIP3      25              0.0000000000
     51590      1385  TIP3      H2            -35.0122884121      -33.2990847481       31.4793228084  TIP3      25              0.0000000000
     51591      1386  TIP3      OH2           -35.0519214282      -34.1456131366       26.7005539044  TIP3      26              0.0000000000
     51592      1386  TIP3      H1            -35.9660337631      -34.2758112867       26.4631169990  TIP3      26              0.0000000000
     51593      1386  TIP3      H2            -34.6136091105      -34.3224851355       25.8334137439  TIP3      26              0.0000000000
     51594      1387  TIP3      OH2           -29.4971385969      -33.5847893456       25.4703516863  TIP3      27              0.0000000000
     51595      1387  TIP3      H1            -29.9215696435      -32.7924069567       25.0900088783  TIP3      27              0.0000000000
     51596      1387  TIP3      H2            -28.8096570166      -33.7754380934       24.8111243632  TIP3      27              0.0000000000
     51597      1388  TIP3      OH2           -33.9911263341      -36.6000271684       20.3702736483  TIP3      28              0.0000000000
     51598      1388  TIP3      H1            -34.4620066879      -36.9159435879       21.1261636249  TIP3      28              0.0000000000
     51599      1388  TIP3      H2            -34.6260937297      -36.1274955969       19.8156503916  TIP3      28              0.0000000000
     51600      1389  TIP3      OH2           -39.3573092702      -35.9147204855       22.9070712398  TIP3      29              0.0000000000
     51601      1389  TIP3      H1            -38.9468773544      -35.4117295408       22.1997863679  TIP3      29              0.0000000000
     51602      1389  TIP3      H2            -40.1499896951      -35.4182900009       23.1563110430  TIP3      29              0.0000000000
     51603      1390  TIP3      OH2           -29.5982891664      -32.6151119996       32.8015286021  TIP3      30              0.0000000000
     51604      1390  TIP3      H1            -28.8472488488      -33.0761638445       32.3546207797  TIP3      30              0.0000000000
     51605      1390  TIP3      H2            -29.4760198695      -33.1357066813       33.6267862352  TIP3      30              0.0000000000
     51606      1391  TIP3      OH2           -32.5177658305      -36.5329620594       27.6990013834  TIP3      31              0.0000000000
     51607      1391  TIP3      H1            -33.4005006003      -36.5202856755       28.0423184445  TIP3      31              0.0000000000
     51608      1391  TIP3      H2            -31.9636359433      -36.6888709591       28.4746952749  TIP3      31              0.0000000000
     51609      1392  TIP3      OH2           -34.0297238648      -34.9988397205       24.2291145857  TIP3      32              0.0000000000
     51610      1392  TIP3      H1            -33.0791204745      -34.8548241355       24.3606871633  TIP3      32              0.0000000000
     51611      1392  TIP3      H2            -34.2529652739      -34.3326940356       23.5295525244  TIP3      32              0.0000000000
     51612      1393  TIP3      OH2           -35.2727028730      -33.8961140419       21.7789833260  TIP3      33              0.0000000000
     51613      1393  TIP3      H1            -35.9225495763      -34.0549799985       21.0737456413  TIP3      33              0.0000000000
     51614      1393  TIP3      H2            -34.5216877426      -33.4906753044       21.2974285357  TIP3      33              0.0000000000
     51615      1394  TIP3      OH2           -31.1076998548      -33.7691942642       29.6371214728  TIP3      34              0.0000000000
     51616      1394  TIP3      H1            -30.6407422351      -34.3030174432       28.9766578891  TIP3      34              0.0000000000
     51617      1394  TIP3      H2            -31.3527710797      -34.4025547111       30.3196768147  TIP3      34              0.0000000000
     51618      1395  TIP3      OH2           -36.0845997322      -37.6687946722       26.1617299346  TIP3      35              0.0000000000
     51619      1395  TIP3      H1            -36.5053665079      -38.5325641560       25.9313866885  TIP3      35              0.0000000000
     51620      1395  TIP3      H2            -35.4009201144      -37.6169969764       25.4654262783  TIP3      35              0.0000000000
     51621      1396  TIP3      OH2           -32.5513594690      -35.4047027060       32.0047989911  TIP3      36              0.0000000000
     51622      1396  TIP3      H1            -33.4109551577      -34.9371521221       32.1046410436  TIP3      36              0.0000000000
     51623      1396  TIP3      H2            -32.0269734047      -35.1456693430       32.7670191823  TIP3      36              0.0000000000
     51624      1397  TIP3      OH2           -32.0156787338      -29.2536803509       23.6689438341  TIP3      37              0.0000000000
     51625      1397  TIP3      H1            -32.8040646581      -29.6925962226       23.3507010747  TIP3      37              0.0000000000
     51626      1397  TIP3      H2            -32.1830013019      -29.0727793084       24.6093573409  TIP3      37              0.0000000000
     51627      1398  TIP3      OH2           -24.7024446263      -30.0402950734       32.4975989734  TIP3      38              0.0000000000
     51628      1398  TIP3      H1            -24.2155294020      -29.5450054502       31.8387342456  TIP3      38              0.0000000000
     51629      1398  TIP3      H2            -25.6076693238      -30.0365444565       32.0926709618  TIP3      38              0.0000000000
     51630      1399  TIP3      OH2           -32.7073758136      -31.7984908498       36.8021030732  TIP3      39              0.0000000000
     51631      1399  TIP3      H1            -33.3012152675      -32.2570728051       36.1826230189  TIP3      39              0.0000000000
     51632      1399  TIP3      H2            -31.8935512575      -32.2707072251       37.0303472042  TIP3      39              0.0000000000
     51633      1400  TIP3      OH2           -22.4368345706      -28.6635489212       36.0505918954  TIP3      40              0.0000000000
     51634      1400  TIP3      H1            -23.3456814452      -28.2972540717       35.7658418674  TIP3      40              0.0000000000
     51635      1400  TIP3      H2            -21.9882523418      -28.4441278322       35.2323453133  TIP3      40              0.0000000000
     51636      1401  TIP3      OH2           -27.0354120165      -30.7077667730       30.7913538908  TIP3      41              0.0000000000
     51637      1401  TIP3      H1            -27.9652810325      -30.9082986635       30.6854929661  TIP3      41              0.0000000000
     51638      1401  TIP3      H2            -26.5950270656      -31.4659218890       30.4016581562  TIP3      41              0.0000000000
     51639      1402  TIP3      OH2           -34.4789049599      -26.3917508160       26.8394271276  TIP3      42              0.0000000000
     51640      1402  TIP3      H1            -33.9960279380      -25.6018774703       26.6302536077  TIP3      42              0.0000000000
     51641      1402  TIP3      H2            -35.3773640781      -26.1699615991       26.5403328508  TIP3      42              0.0000000000
     51642      1403  TIP3      OH2           -33.0501096539      -28.7239545843       26.3836522604  TIP3      43              0.0000000000
     51643      1403  TIP3      H1            -33.3548782170      -27.8006508277       26.4742793489  TIP3      43              0.0000000000
     51644      1403  TIP3      H2            -33.7972440308      -29.1981554983       26.8088340051  TIP3      43              0.0000000000
     51645      1404  TIP3      OH2           -22.2860049695      -23.1026990615       21.7282763391  TIP3      44              0.0000000000
     51646      1404  TIP3      H1            -21.5928720012      -22.4469412677       21.5518719183  TIP3      44              0.0000000000
     51647      1404  TIP3      H2            -22.9826456696      -22.5021639021       22.0715170384  TIP3      44              0.0000000000
     51648      1405  TIP3      OH2           -38.2238238408      -36.6759776690       34.4206880154  TIP3      45              0.0000000000
     51649      1405  TIP3      H1            -39.1005195411      -36.3325435405       34.1872925217  TIP3      45              0.0000000000
     51650      1405  TIP3      H2            -38.3684450357      -37.5971349666       34.6611087936  TIP3      45              0.0000000000
     51651      1406  TIP3      OH2           -32.6332857957      -26.4134238576       19.9663724730  TIP3      46              0.0000000000
     51652      1406  TIP3      H1            -32.5116492097      -27.1783419221       19.3959553707  TIP3      46              0.0000000000
     51653      1406  TIP3      H2            -32.9812188107      -26.8199932255       20.7615470658  TIP3      46              0.0000000000
     51654      1407  TIP3      OH2           -30.9673975037      -34.4676539086       34.3468814485  TIP3      47              0.0000000000
     51655      1407  TIP3      H1            -30.7460115003      -34.1387160048       35.2255511710  TIP3      47              0.0000000000
     51656      1407  TIP3      H2            -30.3401209060      -35.2374594984       34.4219015048  TIP3      47              0.0000000000
     51657      1408  TIP3      OH2           -33.7770783563      -24.1415832009       23.1610499305  TIP3      48              0.0000000000
     51658      1408  TIP3      H1            -33.5047123270      -23.3469066722       22.6395295790  TIP3      48              0.0000000000
     51659      1408  TIP3      H2            -33.8790931425      -23.7787323812       24.0331302427  TIP3      48              0.0000000000
     51660      1409  TIP3      OH2           -34.9356680294      -37.5097331180       22.8262394056  TIP3      49              0.0000000000
     51661      1409  TIP3      H1            -35.0853951029      -36.5507344876       23.0696789988  TIP3      49              0.0000000000
     51662      1409  TIP3      H2            -33.9915737688      -37.4967213872       23.0258037531  TIP3      49              0.0000000000
     51663      1410  TIP3      OH2           -38.3945652897      -34.3401918783       20.8925481428  TIP3      50              0.0000000000
     51664      1410  TIP3      H1            -38.4003258353      -33.3994150737       21.1895789723  TIP3      50              0.0000000000
     51665      1410  TIP3      H2            -39.3032405343      -34.5402759987       20.6698296380  TIP3      50              0.0000000000
     51666      1411  TIP3      OH2           -37.5647878243      -39.3750690967       29.5826418597  TIP3      51              0.0000000000
     51667      1411  TIP3      H1            -37.9465082408      -39.5724788257       28.6900080517  TIP3      51              0.0000000000
     51668      1411  TIP3      H2            -37.9174479540      -40.2215685231       29.9562661035  TIP3      51              0.0000000000
     51669      1412  TIP3      OH2           -39.4421271245      -22.8222506428       37.3259929659  TIP3      52              0.0000000000
     51670      1412  TIP3      H1            -38.7104793754      -23.2377092953       37.8129529962  TIP3      52              0.0000000000
     51671      1412  TIP3      H2            -39.8070949409      -23.6512800630       36.8546022588  TIP3      52              0.0000000000
     51672      1413  TIP3      OH2           -34.7623196087      -24.0781859858       38.7045109001  TIP3      53              0.0000000000
     51673      1413  TIP3      H1            -33.9685580474      -24.5548642586       39.0105098830  TIP3      53              0.0000000000
     51674      1413  TIP3      H2            -34.7683987180      -24.3235269753       37.7638137333  TIP3      53              0.0000000000
     51675      1414  TIP3      OH2           -32.8088448646      -29.2322664545       37.5070595103  TIP3      54              0.0000000000
     51676      1414  TIP3      H1            -33.1737095877      -28.8615944130       36.6835776145  TIP3      54              0.0000000000
     51677      1414  TIP3      H2            -32.7481970826      -30.1910616650       37.3932962753  TIP3      54              0.0000000000
     51678      1415  TIP3      OH2           -32.8639723656      -32.6254050304       20.7928820280  TIP3      55              0.0000000000
     51679      1415  TIP3      H1            -33.0604693127      -32.7709309094       19.8584021662  TIP3      55              0.0000000000
     51680      1415  TIP3      H2            -31.8972399897      -32.5766227583       20.7736967183  TIP3      55              0.0000000000
     51681      1416  TIP3      OH2           -29.7038328131      -30.6331484482       38.1207894091  TIP3      56              0.0000000000
     51682      1416  TIP3      H1            -28.7488380618      -30.4217450925       38.0583475903  TIP3      56              0.0000000000
     51683      1416  TIP3      H2            -29.7359748750      -31.2371607226       38.8505661778  TIP3      56              0.0000000000
     51684      1417  TIP3      OH2           -23.2259792681      -30.1864998159       19.9978600504  TIP3      57              0.0000000000
     51685      1417  TIP3      H1            -23.9142559111      -30.6635178755       19.4685772058  TIP3      57              0.0000000000
     51686      1417  TIP3      H2            -23.7586281113      -29.3396177621       20.0204536021  TIP3      57              0.0000000000
     51687      1418  TIP3      OH2           -34.2644379798      -35.6100459467       35.8839901155  TIP3      58              0.0000000000
     51688      1418  TIP3      H1            -34.1794011310      -36.3727208998       35.2872334830  TIP3      58              0.0000000000
     51689      1418  TIP3      H2            -34.3834369840      -34.8598137597       35.2981643391  TIP3      58              0.0000000000
     51690      1419  TIP3      OH2           -33.8945638313      -37.2886728042       33.4641844474  TIP3      59              0.0000000000
     51691      1419  TIP3      H1            -33.3870119803      -36.8130009503       32.7697619015  TIP3      59              0.0000000000
     51692      1419  TIP3      H2            -34.7974863447      -37.3351834627       33.0780718082  TIP3      59              0.0000000000
     51693      1420  TIP3      OH2           -33.0164292509      -32.1409092829       32.7779195724  TIP3      60              0.0000000000
     51694      1420  TIP3      H1            -32.1093734060      -32.3057201607       32.4790244373  TIP3      60              0.0000000000
     51695      1420  TIP3      H2            -33.2453760502      -31.1598915889       32.9155252206  TIP3      60              0.0000000000
     51696      1421  TIP3      OH2           -26.6334874349      -31.0435989675       36.9019298149  TIP3      61              0.0000000000
     51697      1421  TIP3      H1            -26.9540492828      -30.5306846743       36.1550775715  TIP3      61              0.0000000000
     51698      1421  TIP3      H2            -25.7848005613      -31.3410156472       36.5362081970  TIP3      61              0.0000000000
     51699      1422  TIP3      OH2           -35.8041923378      -34.4528627912       37.9412941497  TIP3      62              0.0000000000
     51700      1422  TIP3      H1            -36.5651518406      -34.8550448489       37.5462623898  TIP3      62              0.0000000000
     51701      1422  TIP3      H2            -35.1768424900      -34.6907077893       37.2341337603  TIP3      62              0.0000000000
     51702      1423  TIP3      OH2           -33.2489698193      -39.7997475886       33.8580971651  TIP3      63              0.0000000000
     51703      1423  TIP3      H1            -33.3254264416      -38.8195939720       33.7628819355  TIP3      63              0.0000000000
     51704      1423  TIP3      H2            -33.9846184836      -40.1320682763       33.3569163519  TIP3      63              0.0000000000
     51705      1424  TIP3      OH2           -31.9266971345      -35.3666822053       37.4345387094  TIP3      64              0.0000000000
     51706      1424  TIP3      H1            -32.1031877861      -35.7269794971       38.3288047397  TIP3      64              0.0000000000
     51707      1424  TIP3      H2            -32.7063412961      -35.6975392204       36.9493687758  TIP3      64              0.0000000000
     51708      1425  TIP3      OH2           -36.9985832873      -36.6929453456       37.3777649690  TIP3      65              0.0000000000
     51709      1425  TIP3      H1            -37.2250826783      -37.4322802191       36.7588095636  TIP3      65              0.0000000000
     51710      1425  TIP3      H2            -37.0432990910      -37.1286791616       38.2774725274  TIP3      65              0.0000000000
     51711      1426  TIP3      OH2           -32.8127420563      -40.0032428546       36.3768963518  TIP3      66              0.0000000000
     51712      1426  TIP3      H1            -32.2279257011      -40.7868664375       36.4637211658  TIP3      66              0.0000000000
     51713      1426  TIP3      H2            -33.0284058213      -40.1206911968       35.4354838599  TIP3      66              0.0000000000
     51714      1427  TIP3      OH2           -32.5370124119      -38.8433075047       38.6889870955  TIP3      67              0.0000000000
     51715      1427  TIP3      H1            -32.6657982312      -39.2976856539       37.8263701195  TIP3      67              0.0000000000
     51716      1427  TIP3      H2            -33.1151416450      -38.0630370017       38.5476284254  TIP3      67              0.0000000000
     51717      1428  TIP3      OH2           -32.9973703895      -21.9512674790       21.7713594485  TIP3      68              0.0000000000
     51718      1428  TIP3      H1            -32.0656460729      -21.7339329803       21.9148578560  TIP3      68              0.0000000000
     51719      1428  TIP3      H2            -33.2744664865      -21.2374634832       21.1870221134  TIP3      68              0.0000000000
     51720      1429  TIP3      OH2           -22.7218541552      -28.5437773886       31.0971414749  TIP3      69              0.0000000000
     51721      1429  TIP3      H1            -22.1981675894      -28.9254697702       30.4134862972  TIP3      69              0.0000000000
     51722      1429  TIP3      H2            -22.8542364010      -27.6128547739       30.7974058406  TIP3      69              0.0000000000
     51723      1430  TIP3      OH2           -22.2986474581      -31.2735930520       22.3093611920  TIP3      70              0.0000000000
     51724      1430  TIP3      H1            -23.0918330888      -31.1119467537       21.7675256183  TIP3      70              0.0000000000
     51725      1430  TIP3      H2            -22.5402828180      -30.8302637991       23.1468020423  TIP3      70              0.0000000000
     51726      1431  TIP3      OH2           -23.9804660775      -30.8222001779       36.4055708106  TIP3      71              0.0000000000
     51727      1431  TIP3      H1            -23.5280510189      -31.6604977417       36.2792958339  TIP3      71              0.0000000000
     51728      1431  TIP3      H2            -23.4592714643      -30.0330355904       36.1928804967  TIP3      71              0.0000000000
     51729      1432  TIP3      OH2           -22.5200982891      -33.0255219153       36.8666936991  TIP3      72              0.0000000000
     51730      1432  TIP3      H1            -23.4193509837      -33.4139503354       36.6938069984  TIP3      72              0.0000000000
     51731      1432  TIP3      H2            -22.0119861721      -33.8891270522       36.8396932028  TIP3      72              0.0000000000
     51732      1433  TIP3      OH2           -40.2184199440      -35.5978088277       36.5217204208  TIP3      73              0.0000000000
     51733      1433  TIP3      H1            -39.2643077918      -35.4138905520       36.5431732168  TIP3      73              0.0000000000
     51734      1433  TIP3      H2            -40.7245464494      -36.2819655590       37.0050096318  TIP3      73              0.0000000000
     51735      1434  TIP3      OH2           -38.8144976616      -37.1053170371       29.5116853372  TIP3      74              0.0000000000
     51736      1434  TIP3      H1            -38.7819651468      -37.9447228333       30.0414239237  TIP3      74              0.0000000000
     51737      1434  TIP3      H2            -38.6539970615      -36.4084072571       30.1864592733  TIP3      74              0.0000000000
     51738      1435  TIP3      OH2           -22.7249039400      -37.8360725299       36.9360998587  TIP3      75              0.0000000000
     51739      1435  TIP3      H1            -23.6463514844      -37.5507881270       36.8799420415  TIP3      75              0.0000000000
     51740      1435  TIP3      H2            -22.5642952922      -38.3588641777       36.1592416629  TIP3      75              0.0000000000
     51741      1436  TIP3      OH2           -40.3160914833      -36.9735245800       25.0027498316  TIP3      76              0.0000000000
     51742      1436  TIP3      H1            -41.1339318579      -37.5340484135       24.8817812069  TIP3      76              0.0000000000
     51743      1436  TIP3      H2            -39.9114907350      -37.2239318415       24.1374962335  TIP3      76              0.0000000000
     51744      1437  TIP3      OH2            41.0148599465      -39.1186668771       33.1767471391  TIP3      77              0.0000000000
     51745      1437  TIP3      H1             40.2606401430      -39.4391788198       33.6642926401  TIP3      77              0.0000000000
     51746      1437  TIP3      H2             40.5335412825      -38.5686424425       32.5290826011  TIP3      77              0.0000000000
     51747      1438  TIP3      OH2           -35.3089020512      -25.0242406145       33.4844881784  TIP3      78              0.0000000000
     51748      1438  TIP3      H1            -35.6956866578      -24.1794049172       33.2162946378  TIP3      78              0.0000000000
     51749      1438  TIP3      H2            -34.3919691596      -24.9257303690       33.1895329692  TIP3      78              0.0000000000
     51750      1439  TIP3      OH2           -37.9206178858      -21.8624979147       33.4828037354  TIP3      79              0.0000000000
     51751      1439  TIP3      H1            -38.6395531275      -21.3235983015       33.1205444250  TIP3      79              0.0000000000
     51752      1439  TIP3      H2            -38.2306727244      -21.9688670452       34.3788319203  TIP3      79              0.0000000000
     51753      1440  TIP3      OH2           -36.2994162911      -24.4694351379       28.9867189851  TIP3      80              0.0000000000
     51754      1440  TIP3      H1            -36.5905016141      -25.3595323229       29.2298547268  TIP3      80              0.0000000000
     51755      1440  TIP3      H2            -35.5334129087      -24.3086940215       29.5619993919  TIP3      80              0.0000000000
     51756      1441  TIP3      OH2           -33.9138767159      -24.0378951881       30.0069576221  TIP3      81              0.0000000000
     51757      1441  TIP3      H1            -33.5708818811      -24.9005592440       29.7123030390  TIP3      81              0.0000000000
     51758      1441  TIP3      H2            -33.6964128961      -24.0108687017       30.9429256017  TIP3      81              0.0000000000
     51759      1442  TIP3      OH2           -37.9736588477      -39.1554977675       27.1078912203  TIP3      82              0.0000000000
     51760      1442  TIP3      H1            -38.6827254245      -39.5375239116       26.5451106084  TIP3      82              0.0000000000
     51761      1442  TIP3      H2            -37.4884614744      -40.0383295428       27.0938290015  TIP3      82              0.0000000000
     51762      1443  TIP3      OH2           -39.5377990796      -38.3230552632       22.0407147823  TIP3      83              0.0000000000
     51763      1443  TIP3      H1            -38.7454328402      -38.8910382454       21.8665093395  TIP3      83              0.0000000000
     51764      1443  TIP3      H2            -39.6941425976      -38.8074439518       22.8501570097  TIP3      83              0.0000000000
     51765      1444  TIP3      OH2           -33.4592748472      -39.6587219461       26.7217251370  TIP3      84              0.0000000000
     51766      1444  TIP3      H1            -32.5389126777      -39.3379774056       26.6906463799  TIP3      84              0.0000000000
     51767      1444  TIP3      H2            -33.4069767806      -39.9713984402       27.6394625793  TIP3      84              0.0000000000
     51768      1445  TIP3      OH2           -37.1536011444      -37.9884925173       21.1125466767  TIP3      85              0.0000000000
     51769      1445  TIP3      H1            -36.7425665104      -38.6137366882       20.5252408686  TIP3      85              0.0000000000
     51770      1445  TIP3      H2            -36.5817531447      -37.6300234635       21.7928708377  TIP3      85              0.0000000000
     51771      1446  TIP3      OH2           -38.0877891231      -38.9890606342       36.6062752838  TIP3      86              0.0000000000
     51772      1446  TIP3      H1            -38.3837562606      -39.9316592609       36.7159436134  TIP3      86              0.0000000000
     51773      1446  TIP3      H2            -37.1222720681      -39.1876229116       36.7215731476  TIP3      86              0.0000000000
     51774      1447  TIP3      OH2           -35.9938751451      -39.7268714668       38.0953137981  TIP3      87              0.0000000000
     51775      1447  TIP3      H1            -35.1411321240      -40.0664536415       37.7594560115  TIP3      87              0.0000000000
     51776      1447  TIP3      H2            -36.3651799473      -40.5945423512       38.3460021621  TIP3      87              0.0000000000
     51777      1448  TIP3      OH2           -37.6650585841      -23.1831677990       20.8581166027  TIP3      88              0.0000000000
     51778      1448  TIP3      H1            -37.4215956579      -22.5543122754       21.5433360261  TIP3      88              0.0000000000
     51779      1448  TIP3      H2            -36.7103024139      -23.4689176092       20.6777655099  TIP3      88              0.0000000000
     51780      1449  TIP3      OH2           -18.8123479058      -31.3732580113       31.9591097357  TIP3      89              0.0000000000
     51781      1449  TIP3      H1            -18.7091851682      -32.2522909903       32.4638947432  TIP3      89              0.0000000000
     51782      1449  TIP3      H2            -17.8764166334      -31.1274289192       32.0803902155  TIP3      89              0.0000000000
     51783      1450  TIP3      OH2            -7.3507107178      -28.2350429981       28.6146072831  TIP3      90              0.0000000000
     51784      1450  TIP3      H1             -7.8175991288      -29.0137929439       28.9506721998  TIP3      90              0.0000000000
     51785      1450  TIP3      H2             -7.3875233303      -27.5539066413       29.2893801003  TIP3      90              0.0000000000
     51786      1451  TIP3      OH2           -17.3103436974      -37.0616895685       32.3339311915  TIP3      91              0.0000000000
     51787      1451  TIP3      H1            -17.8058533213      -36.8958190628       31.5285593193  TIP3      91              0.0000000000
     51788      1451  TIP3      H2            -18.0470881261      -37.2970915265       32.9358432244  TIP3      91              0.0000000000
     51789      1452  TIP3      OH2           -16.7207914407      -27.7741774340       33.2767977110  TIP3      92              0.0000000000
     51790      1452  TIP3      H1            -16.4335520478      -26.9176438428       32.9928080483  TIP3      92              0.0000000000
     51791      1452  TIP3      H2            -17.4272678080      -27.8596849786       33.9467903929  TIP3      92              0.0000000000
     51792      1453  TIP3      OH2           -20.4314474510      -28.1069546900       24.1666475858  TIP3      93              0.0000000000
     51793      1453  TIP3      H1            -20.8049000325      -27.7909182333       23.3508515507  TIP3      93              0.0000000000
     51794      1453  TIP3      H2            -20.4960312774      -27.3070290095       24.7226001332  TIP3      93              0.0000000000
     51795      1454  TIP3      OH2            -6.9042530080      -26.4747680487       30.9581801015  TIP3      94              0.0000000000
     51796      1454  TIP3      H1             -7.8326278428      -26.3579536564       31.1427996820  TIP3      94              0.0000000000
     51797      1454  TIP3      H2             -6.6076756563      -25.5561648833       30.7628178254  TIP3      94              0.0000000000
     51798      1455  TIP3      OH2            -6.6120063652      -38.2126265886       32.3722491216  TIP3      95              0.0000000000
     51799      1455  TIP3      H1             -7.2745426702      -37.5419685238       32.2821678811  TIP3      95              0.0000000000
     51800      1455  TIP3      H2             -5.8528157656      -37.8283808198       31.8697160943  TIP3      95              0.0000000000
     51801      1456  TIP3      OH2            -7.4311333537      -26.8052729986       26.1032571557  TIP3      96              0.0000000000
     51802      1456  TIP3      H1             -7.7054923187      -27.4549745449       25.4331806280  TIP3      96              0.0000000000
     51803      1456  TIP3      H2             -7.3836599903      -27.2966366022       26.9262335433  TIP3      96              0.0000000000
     51804      1457  TIP3      OH2            -5.6528428973      -28.3429334979       34.5449190659  TIP3      97              0.0000000000
     51805      1457  TIP3      H1             -5.7357361240      -28.7763491462       33.6868266316  TIP3      97              0.0000000000
     51806      1457  TIP3      H2             -5.6967697008      -27.3902247345       34.2579867991  TIP3      97              0.0000000000
     51807      1458  TIP3      OH2            -3.9115190176      -31.7033266577       32.7170443689  TIP3      98              0.0000000000
     51808      1458  TIP3      H1             -4.6875335990      -31.1491637473       32.5388876118  TIP3      98              0.0000000000
     51809      1458  TIP3      H2             -3.5339689032      -31.8325219954       31.8140039114  TIP3      98              0.0000000000
     51810      1459  TIP3      OH2            -7.8595762919      -32.7362429377       34.3153531902  TIP3      99              0.0000000000
     51811      1459  TIP3      H1             -8.1620680052      -32.0920898976       34.9623577194  TIP3      99              0.0000000000
     51812      1459  TIP3      H2             -8.6466871459      -32.6555352662       33.7200659241  TIP3      99              0.0000000000
     51813      1460  TIP3      OH2           -15.0280109470      -27.2326752358       35.5414519635  TIP3      100             0.0000000000
     51814      1460  TIP3      H1            -15.3102492972      -26.4628438152       36.0119315070  TIP3      100             0.0000000000
     51815      1460  TIP3      H2            -15.5654455636      -27.5364109057       34.8100377842  TIP3      100             0.0000000000
     51816      1461  TIP3      OH2           -16.8699705161      -25.0012781370       36.1981249008  TIP3      101             0.0000000000
     51817      1461  TIP3      H1            -16.5617408929      -25.4620639267       35.4466239379  TIP3      101             0.0000000000
     51818      1461  TIP3      H2            -17.6766656877      -25.3898040178       36.6156662767  TIP3      101             0.0000000000
     51819      1462  TIP3      OH2           -17.2316831534      -31.3501658845       24.7802946480  TIP3      102             0.0000000000
     51820      1462  TIP3      H1            -17.5149300576      -30.6064709249       24.2478220548  TIP3      102             0.0000000000
     51821      1462  TIP3      H2            -17.8701974337      -32.0329484428       24.5928135857  TIP3      102             0.0000000000
     51822      1463  TIP3      OH2            -4.1212552600      -25.8660494202       21.1592083691  TIP3      103             0.0000000000
     51823      1463  TIP3      H1             -4.1017043048      -24.9205133776       21.3405171222  TIP3      103             0.0000000000
     51824      1463  TIP3      H2             -3.1892500059      -26.0863724524       21.1309534293  TIP3      103             0.0000000000
     51825      1464  TIP3      OH2           -20.9952182605      -29.0670114178       33.3623605540  TIP3      104             0.0000000000
     51826      1464  TIP3      H1            -21.8754439587      -28.9775679995       32.9073934781  TIP3      104             0.0000000000
     51827      1464  TIP3      H2            -21.1824386963      -29.9082287881       33.8730263109  TIP3      104             0.0000000000
     51828      1465  TIP3      OH2            -3.1738287949      -25.5107372628       36.1513379350  TIP3      105             0.0000000000
     51829      1465  TIP3      H1             -3.2902654341      -26.4638465226       36.1213846785  TIP3      105             0.0000000000
     51830      1465  TIP3      H2             -4.0652933604      -25.2585508113       36.5016494686  TIP3      105             0.0000000000
     51831      1466  TIP3      OH2            -6.0267698999      -33.9429118230       36.5449942068  TIP3      106             0.0000000000
     51832      1466  TIP3      H1             -6.6262733850      -33.7427299872       35.8177398060  TIP3      106             0.0000000000
     51833      1466  TIP3      H2             -5.9940936432      -34.9274842287       36.3480244758  TIP3      106             0.0000000000
     51834      1467  TIP3      OH2           -18.9646224417      -27.4888255612       34.5893086365  TIP3      107             0.0000000000
     51835      1467  TIP3      H1            -18.6836405627      -27.9708985767       35.4401969045  TIP3      107             0.0000000000
     51836      1467  TIP3      H2            -19.7821505703      -28.0166249796       34.4531379600  TIP3      107             0.0000000000
     51837      1468  TIP3      OH2           -16.3307285404      -39.2279485722       30.6275028196  TIP3      108             0.0000000000
     51838      1468  TIP3      H1            -17.2028307645      -39.2559377697       30.2020591149  TIP3      108             0.0000000000
     51839      1468  TIP3      H2            -16.3056385537      -38.3732115531       31.0728923751  TIP3      108             0.0000000000
     51840      1469  TIP3      OH2            -8.2816869164      -35.6596197454       34.8847653202  TIP3      109             0.0000000000
     51841      1469  TIP3      H1             -8.8966936037      -35.8728524066       35.5963116100  TIP3      109             0.0000000000
     51842      1469  TIP3      H2             -8.5625471711      -34.7922920192       34.5766306013  TIP3      109             0.0000000000
     51843      1470  TIP3      OH2            -7.1921457155      -31.1066405626       20.5035459426  TIP3      110             0.0000000000
     51844      1470  TIP3      H1             -7.7458409421      -30.9246777244       19.7358649096  TIP3      110             0.0000000000
     51845      1470  TIP3      H2             -6.8677185842      -30.2597467573       20.8892924078  TIP3      110             0.0000000000
     51846      1471  TIP3      OH2           -16.4609621233      -34.2116840968       31.5412483344  TIP3      111             0.0000000000
     51847      1471  TIP3      H1            -16.8170758152      -34.3279876104       32.4420582828  TIP3      111             0.0000000000
     51848      1471  TIP3      H2            -16.1509094574      -33.3108767190       31.5530308019  TIP3      111             0.0000000000
     51849      1472  TIP3      OH2           -16.1999924454      -33.8770337517       26.6488357678  TIP3      112             0.0000000000
     51850      1472  TIP3      H1            -17.0924662624      -34.2782524041       26.5730984400  TIP3      112             0.0000000000
     51851      1472  TIP3      H2            -15.7438824159      -34.2770951956       25.8941685836  TIP3      112             0.0000000000
     51852      1473  TIP3      OH2           -18.6581736491      -33.8260193279       33.5241439620  TIP3      113             0.0000000000
     51853      1473  TIP3      H1            -18.3427421600      -33.6418519500       34.4201534096  TIP3      113             0.0000000000
     51854      1473  TIP3      H2            -18.8736264653      -34.7821731489       33.6436163433  TIP3      113             0.0000000000
     51855      1474  TIP3      OH2           -18.7840961059      -34.9732520418       26.4973222669  TIP3      114             0.0000000000
     51856      1474  TIP3      H1            -19.7019068269      -34.8423951771       26.2227371469  TIP3      114             0.0000000000
     51857      1474  TIP3      H2            -18.5265281068      -35.8107620010       26.1065264994  TIP3      114             0.0000000000
     51858      1475  TIP3      OH2            -5.9538513690      -21.6679161702       37.2597524099  TIP3      115             0.0000000000
     51859      1475  TIP3      H1             -5.7246114386      -21.2759635276       36.3968961421  TIP3      115             0.0000000000
     51860      1475  TIP3      H2             -5.2500781982      -21.3508069262       37.8487111327  TIP3      115             0.0000000000
     51861      1476  TIP3      OH2           -18.4116979852      -29.0919103176       36.7547579463  TIP3      116             0.0000000000
     51862      1476  TIP3      H1            -17.5958053979      -29.0243710660       37.3199101455  TIP3      116             0.0000000000
     51863      1476  TIP3      H2            -19.0561449918      -28.9647225658       37.4540977477  TIP3      116             0.0000000000
     51864      1477  TIP3      OH2            -5.9428577302      -30.0498063307       32.4909137451  TIP3      117             0.0000000000
     51865      1477  TIP3      H1             -5.3865751008      -29.5714951461       31.8508466058  TIP3      117             0.0000000000
     51866      1477  TIP3      H2             -6.8089126354      -29.9665256096       32.0440941314  TIP3      117             0.0000000000
     51867      1478  TIP3      OH2           -21.0677938062      -31.4482336587       34.7594326032  TIP3      118             0.0000000000
     51868      1478  TIP3      H1            -20.5477144587      -32.1554570556       35.1681004200  TIP3      118             0.0000000000
     51869      1478  TIP3      H2            -21.6563668514      -32.0198165805       34.1797999388  TIP3      118             0.0000000000
     51870      1479  TIP3      OH2            -3.6041694837      -34.3164143200       23.2344060620  TIP3      119             0.0000000000
     51871      1479  TIP3      H1             -4.2251472124      -34.6686525081       22.5742558723  TIP3      119             0.0000000000
     51872      1479  TIP3      H2             -3.5354815205      -33.3792378559       22.9972782854  TIP3      119             0.0000000000
     51873      1480  TIP3      OH2            -3.6024586846      -28.4828308356       36.0128422445  TIP3      120             0.0000000000
     51874      1480  TIP3      H1             -4.4693400195      -28.1127952586       35.6914881468  TIP3      120             0.0000000000
     51875      1480  TIP3      H2             -3.0227448985      -28.3998385126       35.2512124077  TIP3      120             0.0000000000
     51876      1481  TIP3      OH2           -20.0201927346      -31.1707835465       21.2183882459  TIP3      121             0.0000000000
     51877      1481  TIP3      H1            -19.1936608064      -31.0330004488       21.7941071302  TIP3      121             0.0000000000
     51878      1481  TIP3      H2            -20.6890274092      -31.3770626054       21.9243088176  TIP3      121             0.0000000000
     51879      1482  TIP3      OH2            -7.3799682432      -23.9938957680       34.8546339801  TIP3      122             0.0000000000
     51880      1482  TIP3      H1             -8.1262746617      -24.4337141828       34.4233451255  TIP3      122             0.0000000000
     51881      1482  TIP3      H2             -7.2372628194      -23.2233321097       34.2648555213  TIP3      122             0.0000000000
     51882      1483  TIP3      OH2           -19.4537455067      -36.4180584223       34.6750960792  TIP3      123             0.0000000000
     51883      1483  TIP3      H1            -20.2895975409      -36.3481909688       34.2084018298  TIP3      123             0.0000000000
     51884      1483  TIP3      H2            -19.3694362621      -37.4121710223       34.6822653356  TIP3      123             0.0000000000
     51885      1484  TIP3      OH2            -7.0613886867      -28.9015276534       23.7443406272  TIP3      124             0.0000000000
     51886      1484  TIP3      H1             -7.3725773568      -29.6318461964       24.2758909157  TIP3      124             0.0000000000
     51887      1484  TIP3      H2             -6.1455711921      -28.7597279372       23.9866469930  TIP3      124             0.0000000000
     51888      1485  TIP3      OH2           -19.5430936158      -24.9652006256       32.6776443213  TIP3      125             0.0000000000
     51889      1485  TIP3      H1            -19.9172419781      -25.8414458845       32.6782922704  TIP3      125             0.0000000000
     51890      1485  TIP3      H2            -19.9466085491      -24.4641346108       33.4440288420  TIP3      125             0.0000000000
     51891      1486  TIP3      OH2           -18.6128034322      -29.5578866875       22.7802816803  TIP3      126             0.0000000000
     51892      1486  TIP3      H1            -19.1331678630      -29.2219483710       23.5483782689  TIP3      126             0.0000000000
     51893      1486  TIP3      H2            -17.8630413852      -28.9250065342       22.7627385284  TIP3      126             0.0000000000
     51894      1487  TIP3      OH2            -5.8790757033      -36.5693667298       35.1829044454  TIP3      127             0.0000000000
     51895      1487  TIP3      H1             -6.8315006195      -36.4609613909       34.9971469474  TIP3      127             0.0000000000
     51896      1487  TIP3      H2             -5.5400280891      -36.7967172826       34.2912155040  TIP3      127             0.0000000000
     51897      1488  TIP3      OH2           -19.6208893372      -34.3173507969       20.8564060561  TIP3      128             0.0000000000
     51898      1488  TIP3      H1            -19.4494798262      -33.3896165139       21.1150337356  TIP3      128             0.0000000000
     51899      1488  TIP3      H2            -20.5024293719      -34.5214344613       20.9217296046  TIP3      128             0.0000000000
     51900      1489  TIP3      OH2            -6.2297834159      -23.7100797519       30.8882787164  TIP3      129             0.0000000000
     51901      1489  TIP3      H1             -6.3795543702      -23.0004051582       30.2194623047  TIP3      129             0.0000000000
     51902      1489  TIP3      H2             -5.2668951191      -23.5865944807       31.0527458546  TIP3      129             0.0000000000
     51903      1490  TIP3      OH2           -18.7242440148      -39.5751410197       29.5605681159  TIP3      130             0.0000000000
     51904      1490  TIP3      H1            -19.0032857135      -39.5033132131       28.6486200183  TIP3      130             0.0000000000
     51905      1490  TIP3      H2            -19.1698049179      -40.3485445242       29.9025379582  TIP3      130             0.0000000000
     51906      1491  TIP3      OH2           -20.7811018324      -29.2902816646       38.1557038875  TIP3      131             0.0000000000
     51907      1491  TIP3      H1            -20.2187764682      -29.9706745470       37.8107795022  TIP3      131             0.0000000000
     51908      1491  TIP3      H2            -21.3738736008      -28.8247275710       37.5122404805  TIP3      131             0.0000000000
     51909      1492  TIP3      OH2           -16.3742321120      -28.8974705892       20.1451043177  TIP3      132             0.0000000000
     51910      1492  TIP3      H1            -16.1703524471      -29.6469070581       20.7317854771  TIP3      132             0.0000000000
     51911      1492  TIP3      H2            -15.6080084473      -28.9575016904       19.5602395401  TIP3      132             0.0000000000
     51912      1493  TIP3      OH2           -14.1553106022      -29.2810330345       37.5749498320  TIP3      133             0.0000000000
     51913      1493  TIP3      H1            -14.1603513920      -28.9596858359       36.6453190378  TIP3      133             0.0000000000
     51914      1493  TIP3      H2            -13.7161238602      -30.1256122977       37.3296636646  TIP3      133             0.0000000000
     51915      1494  TIP3      OH2           -19.4834397645      -32.0997172854       37.6377817014  TIP3      134             0.0000000000
     51916      1494  TIP3      H1            -19.1255552359      -33.0030060020       37.4951903391  TIP3      134             0.0000000000
     51917      1494  TIP3      H2            -19.6960840346      -32.1121497301       38.6117737996  TIP3      134             0.0000000000
     51918      1495  TIP3      OH2           -10.7361522343      -30.5465008056       38.1168729853  TIP3      135             0.0000000000
     51919      1495  TIP3      H1             -9.8098519522      -30.3642808975       38.1386269662  TIP3      135             0.0000000000
     51920      1495  TIP3      H2            -10.9539332702      -31.2265191913       38.7431174377  TIP3      135             0.0000000000
     51921      1496  TIP3      OH2            -4.6486704551      -30.0722170754       20.4666642891  TIP3      136             0.0000000000
     51922      1496  TIP3      H1             -4.2991067638      -30.7957774078       19.9549298161  TIP3      136             0.0000000000
     51923      1496  TIP3      H2             -4.5319560706      -29.1442466574       20.1470209632  TIP3      136             0.0000000000
     51924      1497  TIP3      OH2            -9.0876494518      -33.9999993230       38.5879757859  TIP3      137             0.0000000000
     51925      1497  TIP3      H1             -8.9194654220      -34.9445692905       38.6166683208  TIP3      137             0.0000000000
     51926      1497  TIP3      H2             -8.2448910016      -33.5907238970       38.7639856437  TIP3      137             0.0000000000
     51927      1498  TIP3      OH2            -7.7845590023      -31.2475472936       36.7365454872  TIP3      138             0.0000000000
     51928      1498  TIP3      H1             -8.1702489326      -30.4287771927       36.2984472767  TIP3      138             0.0000000000
     51929      1498  TIP3      H2             -6.9067881510      -31.2735823964       36.8799743521  TIP3      138             0.0000000000
     51930      1499  TIP3      OH2           -18.8776058595      -36.4620564997       37.5815791367  TIP3      139             0.0000000000
     51931      1499  TIP3      H1            -18.6601919633      -37.1754932714       36.9506637179  TIP3      139             0.0000000000
     51932      1499  TIP3      H2            -18.9658516411      -36.9283125147       38.4316936913  TIP3      139             0.0000000000
     51933      1500  TIP3      OH2           -14.0289509246      -40.0443849404       36.3899012418  TIP3      140             0.0000000000
     51934      1500  TIP3      H1            -13.3407296417      -40.7431974136       36.4265780641  TIP3      140             0.0000000000
     51935      1500  TIP3      H2            -14.1621893833      -40.0926478282       35.4330113788  TIP3      140             0.0000000000
     51936      1501  TIP3      OH2           -20.5238616461      -27.5414353884       21.3303750554  TIP3      141             0.0000000000
     51937      1501  TIP3      H1            -19.6628051875      -27.1332610215       21.5851998657  TIP3      141             0.0000000000
     51938      1501  TIP3      H2            -20.3754781643      -27.6023096874       20.4041808973  TIP3      141             0.0000000000
     51939      1502  TIP3      OH2            -3.5775270143      -22.9908981435       31.1612532049  TIP3      142             0.0000000000
     51940      1502  TIP3      H1             -3.5075351700      -22.8484358219       32.1144003493  TIP3      142             0.0000000000
     51941      1502  TIP3      H2             -2.8546173370      -22.4837854308       30.7745607836  TIP3      142             0.0000000000
     51942      1503  TIP3      OH2            -3.9222997623      -23.4239708903       34.0048633179  TIP3      143             0.0000000000
     51943      1503  TIP3      H1             -4.4214618376      -24.1967526655       33.6945901666  TIP3      143             0.0000000000
     51944      1503  TIP3      H2             -3.4002467891      -23.8414012434       34.7086490993  TIP3      143             0.0000000000
     51945      1504  TIP3      OH2            -5.4582980613      -27.8169253450       38.8838009752  TIP3      144             0.0000000000
     51946      1504  TIP3      H1             -6.4101676947      -27.6267053360       38.9570662783  TIP3      144             0.0000000000
     51947      1504  TIP3      H2             -5.1299528047      -26.8794599103       39.0173924471  TIP3      144             0.0000000000
     51948      1505  TIP3      OH2            -4.1466265157      -29.4276021848       24.0716407906  TIP3      145             0.0000000000
     51949      1505  TIP3      H1             -3.3378406154      -28.9549462557       24.3146183406  TIP3      145             0.0000000000
     51950      1505  TIP3      H2             -4.2093082202      -30.1039187660       24.7814951093  TIP3      145             0.0000000000
     51951      1506  TIP3      OH2            -3.8189041504      -31.3334478644       26.0254774263  TIP3      146             0.0000000000
     51952      1506  TIP3      H1             -4.5269004139      -31.8377191984       26.4399875304  TIP3      146             0.0000000000
     51953      1506  TIP3      H2             -3.1962689473      -31.1889206609       26.7382945028  TIP3      146             0.0000000000
     51954      1507  TIP3      OH2            -3.8907997986      -28.6297571532       31.1780464419  TIP3      147             0.0000000000
     51955      1507  TIP3      H1             -3.3824331245      -28.9043230939       30.4383129606  TIP3      147             0.0000000000
     51956      1507  TIP3      H2             -4.0500378432      -27.6970937678       30.8862249953  TIP3      147             0.0000000000
     51957      1508  TIP3      OH2            -5.5454615501      -25.8213633512       33.3431641505  TIP3      148             0.0000000000
     51958      1508  TIP3      H1             -6.1974815969      -25.3451621024       33.8891677877  TIP3      148             0.0000000000
     51959      1508  TIP3      H2             -6.0521758514      -26.0352763895       32.5394001222  TIP3      148             0.0000000000
     51960      1509  TIP3      OH2            -3.5277124682      -31.4967657439       22.3855675042  TIP3      149             0.0000000000
     51961      1509  TIP3      H1             -4.0750733148      -31.0351951099       21.7437783803  TIP3      149             0.0000000000
     51962      1509  TIP3      H2             -3.5885896982      -30.8315863234       23.1050536261  TIP3      149             0.0000000000
     51963      1510  TIP3      OH2            -5.1913380192      -34.2100373345       20.9283672519  TIP3      150             0.0000000000
     51964      1510  TIP3      H1             -5.0778798884      -33.6067480159       20.2231819683  TIP3      150             0.0000000000
     51965      1510  TIP3      H2             -5.3609126586      -35.0777246201       20.4826759607  TIP3      150             0.0000000000
     51966      1511  TIP3      OH2           -20.9783683537      -30.8294192707       30.4629344805  TIP3      151             0.0000000000
     51967      1511  TIP3      H1            -20.8480702026      -31.0012847748       29.5154930351  TIP3      151             0.0000000000
     51968      1511  TIP3      H2            -20.2245096259      -31.3442193395       30.8657524298  TIP3      151             0.0000000000
     51969      1512  TIP3      OH2            -4.0963935046      -30.6223739226       37.1328671034  TIP3      152             0.0000000000
     51970      1512  TIP3      H1             -3.8864245156      -31.5251438298       36.7441354563  TIP3      152             0.0000000000
     51971      1512  TIP3      H2             -4.0380230753      -29.8593657344       36.4680178046  TIP3      152             0.0000000000
     51972      1513  TIP3      OH2            -3.6716183886      -33.0331345615       36.8832240884  TIP3      153             0.0000000000
     51973      1513  TIP3      H1             -4.4916475488      -33.5592321360       36.7427000258  TIP3      153             0.0000000000
     51974      1513  TIP3      H2             -3.0449006576      -33.7970741385       36.7646323681  TIP3      153             0.0000000000
     51975      1514  TIP3      OH2            -5.9566716583      -36.7510220486       20.0679850931  TIP3      154             0.0000000000
     51976      1514  TIP3      H1             -5.2803455178      -37.1841535440       20.6450811895  TIP3      154             0.0000000000
     51977      1514  TIP3      H2             -6.7432504473      -37.2389521678       20.2714340609  TIP3      154             0.0000000000
     51978      1515  TIP3      OH2            -5.7275169014      -34.5776319534       30.4703415997  TIP3      155             0.0000000000
     51979      1515  TIP3      H1             -4.7668800754      -34.5169633587       30.4681622849  TIP3      155             0.0000000000
     51980      1515  TIP3      H2             -5.8949195929      -34.6249120135       31.4139770608  TIP3      155             0.0000000000
     51981      1516  TIP3      OH2            -5.6524835857      -33.9344855755       33.3416275155  TIP3      156             0.0000000000
     51982      1516  TIP3      H1             -6.5626774324      -33.6820833336       33.5161333627  TIP3      156             0.0000000000
     51983      1516  TIP3      H2             -5.2087719976      -33.1707202022       32.9545161243  TIP3      156             0.0000000000
     51984      1517  TIP3      OH2           -21.3582089398      -35.3885653485       36.8278647710  TIP3      157             0.0000000000
     51985      1517  TIP3      H1            -20.4238531317      -35.7077306756       36.9100972368  TIP3      157             0.0000000000
     51986      1517  TIP3      H2            -21.8009016994      -36.2447333368       37.0436455144  TIP3      157             0.0000000000
     51987      1518  TIP3      OH2            -3.8726304477      -37.7992559992       21.4827189665  TIP3      158             0.0000000000
     51988      1518  TIP3      H1             -3.4277004855      -38.6235824186       21.2103624327  TIP3      158             0.0000000000
     51989      1518  TIP3      H2             -3.0967432595      -37.2763507253       21.7370778197  TIP3      158             0.0000000000
     51990      1519  TIP3      OH2           -22.2317147506      -39.3943803484       32.8399923438  TIP3      159             0.0000000000
     51991      1519  TIP3      H1            -22.0845021177      -39.2527145560       33.7829366220  TIP3      159             0.0000000000
     51992      1519  TIP3      H2            -21.9290265998      -38.5186129494       32.5443709492  TIP3      159             0.0000000000
     51993      1520  TIP3      OH2           -19.3989810219      -26.1037490856       37.1582313852  TIP3      160             0.0000000000
     51994      1520  TIP3      H1            -20.2512738636      -25.7650392048       36.8070004367  TIP3      160             0.0000000000
     51995      1520  TIP3      H2            -19.6045130706      -26.0361494440       38.1168386011  TIP3      160             0.0000000000
     51996      1521  TIP3      OH2           -19.0032000063      -21.8057410795       33.5525232267  TIP3      161             0.0000000000
     51997      1521  TIP3      H1            -19.7224259493      -21.3608887802       33.0450865447  TIP3      161             0.0000000000
     51998      1521  TIP3      H2            -19.4728834219      -21.9013802448       34.3857846333  TIP3      161             0.0000000000
     51999      1522  TIP3      OH2           -16.6540859034      -22.3162581244       32.5403752048  TIP3      162             0.0000000000
     52000      1522  TIP3      H1            -17.4862231318      -21.9752686941       32.9437793782  TIP3      162             0.0000000000
     52001      1522  TIP3      H2            -16.5266521630      -21.6231809696       31.8451942656  TIP3      162             0.0000000000
     52002      1523  TIP3      OH2            -6.8753424340      -21.9060956733       33.0000109604  TIP3      163             0.0000000000
     52003      1523  TIP3      H1             -7.0837547932      -20.9737793454       32.7613631660  TIP3      163             0.0000000000
     52004      1523  TIP3      H2             -6.7840063361      -22.2682490443       32.1033161650  TIP3      163             0.0000000000
     52005      1524  TIP3      OH2            -6.5622337496      -40.2206056259       28.6289481197  TIP3      164             0.0000000000
     52006      1524  TIP3      H1             -5.7698199741      -39.6340274848       28.6446299445  TIP3      164             0.0000000000
     52007      1524  TIP3      H2             -7.2520476365      -39.6887479987       29.0059302996  TIP3      164             0.0000000000
     52008      1525  TIP3      OH2            -4.6239516182      -39.0564819051       27.4476848187  TIP3      165             0.0000000000
     52009      1525  TIP3      H1             -3.9765486460      -39.5866721783       26.9760184685  TIP3      165             0.0000000000
     52010      1525  TIP3      H2             -4.2011741756      -38.2018991118       27.5326427641  TIP3      165             0.0000000000
     52011      1526  TIP3      OH2           -20.1859304576      -39.7676418443       22.6901389952  TIP3      166             0.0000000000
     52012      1526  TIP3      H1            -19.7854571725      -39.1650089054       22.0546755716  TIP3      166             0.0000000000
     52013      1526  TIP3      H2            -20.9064758319      -39.2945627405       23.1316254790  TIP3      166             0.0000000000
     52014      1527  TIP3      OH2            -7.7448436220      -39.6996237346       23.6384840931  TIP3      167             0.0000000000
     52015      1527  TIP3      H1             -8.3675901253      -38.9905740964       23.8845514083  TIP3      167             0.0000000000
     52016      1527  TIP3      H2             -7.9655453394      -40.3809696389       24.3028785768  TIP3      167             0.0000000000
     52017      1528  TIP3      OH2           -20.2866171472      -23.9217145150       23.5265114403  TIP3      168             0.0000000000
     52018      1528  TIP3      H1            -21.0761603902      -23.9302456245       22.9651232659  TIP3      168             0.0000000000
     52019      1528  TIP3      H2            -20.3649180361      -23.0247497640       23.8719851768  TIP3      168             0.0000000000
     52020      1529  TIP3      OH2           -18.4603665848      -38.0939305474       21.2251023365  TIP3      169             0.0000000000
     52021      1529  TIP3      H1            -17.9079142449      -38.5115125608       20.5652900663  TIP3      169             0.0000000000
     52022      1529  TIP3      H2            -17.8359056724      -37.5640019513       21.7458064629  TIP3      169             0.0000000000
     52023      1530  TIP3      OH2           -19.1694793615      -39.1113683274       36.4600417500  TIP3      170             0.0000000000
     52024      1530  TIP3      H1            -19.4795816319      -39.9051061183       36.8632353631  TIP3      170             0.0000000000
     52025      1530  TIP3      H2            -18.2327938839      -39.1221204815       36.7335047001  TIP3      170             0.0000000000
     52026      1531  TIP3      OH2           -17.1025932491      -39.7530513483       38.0263897300  TIP3      171             0.0000000000
     52027      1531  TIP3      H1            -16.2492813888      -40.0840795283       37.7301561472  TIP3      171             0.0000000000
     52028      1531  TIP3      H2            -17.5085306036      -40.5452753820       38.3929369244  TIP3      171             0.0000000000
     52029      1532  TIP3      OH2           -18.5060297686      -23.0076349041       20.6476199618  TIP3      172             0.0000000000
     52030      1532  TIP3      H1            -18.8180441405      -22.7202773615       21.5151265877  TIP3      172             0.0000000000
     52031      1532  TIP3      H2            -17.7397543677      -23.5601774022       20.8022493391  TIP3      172             0.0000000000
     52032      1533  TIP3      OH2            -5.5555924377      -24.4264040550       36.8112659254  TIP3      173             0.0000000000
     52033      1533  TIP3      H1             -6.3992925859      -24.5308980398       36.3168181174  TIP3      173             0.0000000000
     52034      1533  TIP3      H2             -5.6418560912      -23.4780945198       37.0461170276  TIP3      173             0.0000000000
     52035      1534  TIP3      OH2            -0.0098864203      -31.4122948935       31.9128739649  TIP3      174             0.0000000000
     52036      1534  TIP3      H1              0.1380476734      -32.2579034864       32.4526738708  TIP3      174             0.0000000000
     52037      1534  TIP3      H2              0.9105000044      -31.0963146176       32.0911468418  TIP3      174             0.0000000000
     52038      1535  TIP3      OH2             0.9667983723      -27.3038631101       30.4466879149  TIP3      175             0.0000000000
     52039      1535  TIP3      H1              0.8079742354      -28.0823509824       29.9443913321  TIP3      175             0.0000000000
     52040      1535  TIP3      H2              1.9575710910      -27.2688240863       30.4723582600  TIP3      175             0.0000000000
     52041      1536  TIP3      OH2            -1.4942641974      -31.2858557981       28.0339720268  TIP3      176             0.0000000000
     52042      1536  TIP3      H1             -1.4039862603      -32.2099353102       28.3378525877  TIP3      176             0.0000000000
     52043      1536  TIP3      H2             -0.9400876237      -31.3317895090       27.2417079054  TIP3      176             0.0000000000
     52044      1537  TIP3      OH2             8.6070694717      -23.2396490969       28.7722987746  TIP3      177             0.0000000000
     52045      1537  TIP3      H1              9.2274123232      -23.9452746904       28.5551527193  TIP3      177             0.0000000000
     52046      1537  TIP3      H2              8.3503050745      -23.4740805098       29.6783036492  TIP3      177             0.0000000000
     52047      1538  TIP3      OH2             4.1623093074      -32.3204262643       28.3001774489  TIP3      178             0.0000000000
     52048      1538  TIP3      H1              4.8664160690      -32.8554967199       28.7040176882  TIP3      178             0.0000000000
     52049      1538  TIP3      H2              3.6432366815      -33.0430945453       27.8709734799  TIP3      178             0.0000000000
     52050      1539  TIP3      OH2             3.8153885043      -29.7838622681       32.5227577443  TIP3      179             0.0000000000
     52051      1539  TIP3      H1              3.1668830614      -29.1005396156       32.8205308055  TIP3      179             0.0000000000
     52052      1539  TIP3      H2              4.5600125597      -29.1749883148       32.3699937842  TIP3      179             0.0000000000
     52053      1540  TIP3      OH2             2.2187388374      -27.8128437694       33.2896515837  TIP3      180             0.0000000000
     52054      1540  TIP3      H1              2.3091071257      -26.8467107805       33.1153907617  TIP3      180             0.0000000000
     52055      1540  TIP3      H2              1.4365962658      -27.7501522193       33.8967972352  TIP3      180             0.0000000000
     52056      1541  TIP3      OH2            -1.5072090235      -28.0865979135       24.1896337078  TIP3      181             0.0000000000
     52057      1541  TIP3      H1             -1.9298410952      -27.8247041055       23.3420489649  TIP3      181             0.0000000000
     52058      1541  TIP3      H2             -1.6567509661      -27.2614831962       24.6926189246  TIP3      181             0.0000000000
     52059      1542  TIP3      OH2            12.2696306417      -38.2260729113       32.3528626635  TIP3      182             0.0000000000
     52060      1542  TIP3      H1             11.5679182584      -37.5566347330       32.3026277210  TIP3      182             0.0000000000
     52061      1542  TIP3      H2             12.9879834398      -37.7892477700       31.8657229811  TIP3      182             0.0000000000
     52062      1543  TIP3      OH2             2.5821908165      -30.3887343297       27.0945739780  TIP3      183             0.0000000000
     52063      1543  TIP3      H1              2.2508555242      -30.9710285679       26.4069179315  TIP3      183             0.0000000000
     52064      1543  TIP3      H2              3.1966665076      -31.0676022271       27.5130376946  TIP3      183             0.0000000000
     52065      1544  TIP3      OH2             3.8969029469      -27.0554296877       29.8021833201  TIP3      184             0.0000000000
     52066      1544  TIP3      H1              3.9743312121      -27.6083707376       29.0476421468  TIP3      184             0.0000000000
     52067      1544  TIP3      H2              4.6903109667      -27.3050663863       30.3218676949  TIP3      184             0.0000000000
     52068      1545  TIP3      OH2             2.8602445105      -31.5648122249       30.7832103362  TIP3      185             0.0000000000
     52069      1545  TIP3      H1              3.5359947473      -31.5963462770       30.0659676628  TIP3      185             0.0000000000
     52070      1545  TIP3      H2              3.3598313096      -31.0314803505       31.4437141380  TIP3      185             0.0000000000
     52071      1546  TIP3      OH2             3.7606111993      -27.3862775374       35.6302925758  TIP3      186             0.0000000000
     52072      1546  TIP3      H1              3.5878709855      -26.4391716080       35.8769301894  TIP3      186             0.0000000000
     52073      1546  TIP3      H2              3.2446733441      -27.3893439990       34.7952379025  TIP3      186             0.0000000000
     52074      1547  TIP3      OH2             0.8651578770      -31.0507912846       34.6688268733  TIP3      187             0.0000000000
     52075      1547  TIP3      H1              0.8684216457      -30.4264582964       35.4154148219  TIP3      187             0.0000000000
     52076      1547  TIP3      H2             -0.0717998340      -30.9998831964       34.4785772591  TIP3      187             0.0000000000
     52077      1548  TIP3      OH2            13.4980268701      -40.1706785966       22.6026572782  TIP3      188             0.0000000000
     52078      1548  TIP3      H1             12.7012036008      -39.9738947470       23.1494950755  TIP3      188             0.0000000000
     52079      1548  TIP3      H2             13.8322581009      -39.2748190563       22.4146374106  TIP3      188             0.0000000000
     52080      1549  TIP3      OH2            14.6659780815      -25.7534273319       21.2067505569  TIP3      189             0.0000000000
     52081      1549  TIP3      H1             14.8226681320      -24.8120473435       21.3170989837  TIP3      189             0.0000000000
     52082      1549  TIP3      H2             15.5601098763      -26.1124721450       21.0737043815  TIP3      189             0.0000000000
     52083      1550  TIP3      OH2            -2.1737847617      -29.0509541987       33.4306875320  TIP3      190             0.0000000000
     52084      1550  TIP3      H1             -2.9620148105      -28.9937593751       32.8762037151  TIP3      190             0.0000000000
     52085      1550  TIP3      H2             -2.2801274077      -29.9039959519       33.9198448640  TIP3      190             0.0000000000
     52086      1551  TIP3      OH2            15.7254215570      -25.5542772477       36.2437204816  TIP3      191             0.0000000000
     52087      1551  TIP3      H1             15.5167101558      -26.4824617636       36.0473117436  TIP3      191             0.0000000000
     52088      1551  TIP3      H2             14.8022674621      -25.2733334803       36.4729344461  TIP3      191             0.0000000000
     52089      1552  TIP3      OH2             6.5978776804      -25.9696870648       35.0587315478  TIP3      192             0.0000000000
     52090      1552  TIP3      H1              6.6370964495      -25.1111609916       35.5007199891  TIP3      192             0.0000000000
     52091      1552  TIP3      H2              5.7045365921      -26.2913964281       35.2138560036  TIP3      192             0.0000000000
     52092      1553  TIP3      OH2            10.1637989512      -23.0154351596       21.7432252400  TIP3      193             0.0000000000
     52093      1553  TIP3      H1             10.5160570588      -23.8415018583       21.3551466970  TIP3      193             0.0000000000
     52094      1553  TIP3      H2             10.1395903624      -23.2904519587       22.6878992991  TIP3      193             0.0000000000
     52095      1554  TIP3      OH2             9.8142808743      -23.1015748126       24.5694319997  TIP3      194             0.0000000000
     52096      1554  TIP3      H1              8.8613959364      -23.0476004111       24.7054934135  TIP3      194             0.0000000000
     52097      1554  TIP3      H2             10.0882961684      -23.8425698322       25.1275971246  TIP3      194             0.0000000000
     52098      1555  TIP3      OH2            -0.0057946812      -27.7541017500       34.5646798618  TIP3      195             0.0000000000
     52099      1555  TIP3      H1              0.1543177739      -27.9739987159       35.4972169766  TIP3      195             0.0000000000
     52100      1555  TIP3      H2             -0.9216541241      -27.9855558853       34.4333781237  TIP3      195             0.0000000000
     52101      1556  TIP3      OH2            10.4697728479      -35.7593827214       34.7780827841  TIP3      196             0.0000000000
     52102      1556  TIP3      H1              9.9958543483      -35.7569670232       35.6246283880  TIP3      196             0.0000000000
     52103      1556  TIP3      H2             10.4015613760      -34.8095885497       34.5498319975  TIP3      196             0.0000000000
     52104      1557  TIP3      OH2             7.0700754645      -37.1152397147       21.3473020840  TIP3      197             0.0000000000
     52105      1557  TIP3      H1              6.4915741517      -36.9287863868       22.0991578589  TIP3      197             0.0000000000
     52106      1557  TIP3      H2              6.5237976003      -37.8094046251       20.9422103817  TIP3      197             0.0000000000
     52107      1558  TIP3      OH2             2.6885784372      -34.2535088569       31.7107520570  TIP3      198             0.0000000000
     52108      1558  TIP3      H1              2.0246706401      -34.2956447185       32.4176100531  TIP3      198             0.0000000000
     52109      1558  TIP3      H2              2.6966488812      -33.3197926287       31.4502897192  TIP3      198             0.0000000000
     52110      1559  TIP3      OH2             2.7028545692      -33.8531026022       26.6522350268  TIP3      199             0.0000000000
     52111      1559  TIP3      H1              1.8278088092      -34.2928345780       26.6356826725  TIP3      199             0.0000000000
     52112      1559  TIP3      H2              3.1304754373      -34.3378310035       25.9275469420  TIP3      199             0.0000000000
     52113      1560  TIP3      OH2             7.1645201460      -33.3082114880       37.0607378617  TIP3      200             0.0000000000
     52114      1560  TIP3      H1              6.7331283126      -34.1812001123       37.1329924715  TIP3      200             0.0000000000
     52115      1560  TIP3      H2              8.0608361872      -33.4722781941       37.4142488651  TIP3      200             0.0000000000
     52116      1561  TIP3      OH2             0.2666157490      -33.8761214291       33.5000293261  TIP3      201             0.0000000000
     52117      1561  TIP3      H1              0.4483446468      -33.6046894566       34.4163357462  TIP3      201             0.0000000000
     52118      1561  TIP3      H2             -0.1248398378      -34.7753465062       33.5862001766  TIP3      201             0.0000000000
     52119      1562  TIP3      OH2            -1.8104807198      -36.1364628014       22.7933515625  TIP3      202             0.0000000000
     52120      1562  TIP3      H1             -1.2793776182      -35.5159075436       22.2554296383  TIP3      202             0.0000000000
     52121      1562  TIP3      H2             -2.4228890251      -35.5123295828       23.2261343950  TIP3      202             0.0000000000
     52122      1563  TIP3      OH2            12.8474847786      -21.6470441444       37.2620986518  TIP3      203             0.0000000000
     52123      1563  TIP3      H1             13.1301901050      -21.2925542363       36.3995836803  TIP3      203             0.0000000000
     52124      1563  TIP3      H2             13.5478266931      -21.3160553607       37.8412577451  TIP3      203             0.0000000000
     52125      1564  TIP3      OH2             0.5784864087      -29.2682628866       36.8791194311  TIP3      204             0.0000000000
     52126      1564  TIP3      H1              1.2513129658      -28.8151854965       37.3929444887  TIP3      204             0.0000000000
     52127      1564  TIP3      H2             -0.2329468112      -28.9734650776       37.3192123720  TIP3      204             0.0000000000
     52128      1565  TIP3      OH2             5.2483747763      -35.1204265588       31.9115269179  TIP3      205             0.0000000000
     52129      1565  TIP3      H1              4.3134140589      -34.9425738764       32.1121008147  TIP3      205             0.0000000000
     52130      1565  TIP3      H2              5.6447968156      -35.1940052149       32.7970050509  TIP3      205             0.0000000000
     52131      1566  TIP3      OH2             0.7741851772      -29.8948871699       29.5159892638  TIP3      206             0.0000000000
     52132      1566  TIP3      H1              1.5179223757      -29.8974919623       28.8692543187  TIP3      206             0.0000000000
     52133      1566  TIP3      H2              1.0245810329      -30.7453313623       29.9395773097  TIP3      206             0.0000000000
     52134      1567  TIP3      OH2            -2.2395576275      -31.4067458017       34.7488443638  TIP3      207             0.0000000000
     52135      1567  TIP3      H1             -1.8602625834      -31.8666123040       35.5251185735  TIP3      207             0.0000000000
     52136      1567  TIP3      H2             -2.6867192118      -32.1482988219       34.2968937195  TIP3      207             0.0000000000
     52137      1568  TIP3      OH2             4.8493833619      -31.8573084290       36.9212952255  TIP3      208             0.0000000000
     52138      1568  TIP3      H1              4.5637636607      -32.1410569573       36.0302607852  TIP3      208             0.0000000000
     52139      1568  TIP3      H2              5.7808672590      -32.1827078689       36.8635753385  TIP3      208             0.0000000000
     52140      1569  TIP3      OH2            -1.0341720995      -31.4245727487       21.3060903406  TIP3      209             0.0000000000
     52141      1569  TIP3      H1             -0.3961345223      -30.9343353388       21.8277125675  TIP3      209             0.0000000000
     52142      1569  TIP3      H2             -1.8731546535      -31.2698155380       21.7634075161  TIP3      209             0.0000000000
     52143      1570  TIP3      OH2             4.2530889427      -28.5931907665       26.1755173169  TIP3      210             0.0000000000
     52144      1570  TIP3      H1              4.5044185561      -27.7573077542       26.6186360303  TIP3      210             0.0000000000
     52145      1570  TIP3      H2              4.0458978381      -29.1975831206       26.9467789523  TIP3      210             0.0000000000
     52146      1571  TIP3      OH2             5.5059053383      -24.6632188936       32.6319554793  TIP3      211             0.0000000000
     52147      1571  TIP3      H1              5.5192323874      -23.7052696711       32.6139052870  TIP3      211             0.0000000000
     52148      1571  TIP3      H2              5.7241234918      -24.8763502297       33.5575532945  TIP3      211             0.0000000000
     52149      1572  TIP3      OH2            10.9304442816      -27.4852115166       21.5198817875  TIP3      212             0.0000000000
     52150      1572  TIP3      H1             11.2239460133      -27.9298747267       22.3127870027  TIP3      212             0.0000000000
     52151      1572  TIP3      H2              9.9818355804      -27.6597642855       21.5493820126  TIP3      212             0.0000000000
     52152      1573  TIP3      OH2            11.4403476061      -23.9250186898       34.9172734590  TIP3      213             0.0000000000
     52153      1573  TIP3      H1             10.7619260327      -24.4242634081       34.4235017788  TIP3      213             0.0000000000
     52154      1573  TIP3      H2             11.6394328362      -23.2629876821       34.2259748363  TIP3      213             0.0000000000
     52155      1574  TIP3      OH2            15.3386530566      -23.0299266992       21.6153879521  TIP3      214             0.0000000000
     52156      1574  TIP3      H1             16.1412591012      -22.5198258571       21.6517559424  TIP3      214             0.0000000000
     52157      1574  TIP3      H2             14.6888688840      -22.5227854821       22.1411125327  TIP3      214             0.0000000000
     52158      1575  TIP3      OH2             4.9409259581      -26.4484269984       19.9923316304  TIP3      215             0.0000000000
     52159      1575  TIP3      H1              5.2608297829      -27.1603370380       19.4403945919  TIP3      215             0.0000000000
     52160      1575  TIP3      H2              4.7126245955      -26.8339767610       20.8253829695  TIP3      215             0.0000000000
     52161      1576  TIP3      OH2             3.7310659125      -26.9332647530       22.5896847457  TIP3      216             0.0000000000
     52162      1576  TIP3      H1              4.3536064287      -27.3075602057       23.1874920924  TIP3      216             0.0000000000
     52163      1576  TIP3      H2              3.9768541714      -25.9729573269       22.6180404295  TIP3      216             0.0000000000
     52164      1577  TIP3      OH2             0.6272485290      -29.4932408977       23.1597048797  TIP3      217             0.0000000000
     52165      1577  TIP3      H1             -0.3201998552      -29.2897099644       23.4111904476  TIP3      217             0.0000000000
     52166      1577  TIP3      H2              0.7666639870      -28.7770040853       22.5081405101  TIP3      217             0.0000000000
     52167      1578  TIP3      OH2             8.3616356720      -37.0236077622       33.1428212429  TIP3      218             0.0000000000
     52168      1578  TIP3      H1              8.8539245012      -36.8003185268       33.9259887755  TIP3      218             0.0000000000
     52169      1578  TIP3      H2              7.7052263343      -37.7141184153       33.4090978980  TIP3      218             0.0000000000
     52170      1579  TIP3      OH2             6.6304883498      -25.1498723430       23.1889643221  TIP3      219             0.0000000000
     52171      1579  TIP3      H1              5.8514938072      -24.5919844869       23.1688747147  TIP3      219             0.0000000000
     52172      1579  TIP3      H2              7.1511106403      -24.6924514136       22.5042380179  TIP3      219             0.0000000000
     52173      1580  TIP3      OH2            12.8654282132      -36.8896223941       35.1041288950  TIP3      220             0.0000000000
     52174      1580  TIP3      H1             12.0794829147      -36.3011045874       35.0503082416  TIP3      220             0.0000000000
     52175      1580  TIP3      H2             13.3261434743      -36.5735844058       34.3010317692  TIP3      220             0.0000000000
     52176      1581  TIP3      OH2             1.0683506689      -27.1231401553       21.9262498328  TIP3      221             0.0000000000
     52177      1581  TIP3      H1              1.5326889537      -26.2661472501       22.0269508321  TIP3      221             0.0000000000
     52178      1581  TIP3      H2              1.4568571661      -27.3878157570       21.0667240970  TIP3      221             0.0000000000
     52179      1582  TIP3      OH2            -0.7473358931      -34.3378068212       21.0961834560  TIP3      222             0.0000000000
     52180      1582  TIP3      H1             -0.6688429958      -33.3690931619       21.0733785885  TIP3      222             0.0000000000
     52181      1582  TIP3      H2             -1.5646588585      -34.5418108649       20.6442857284  TIP3      222             0.0000000000
     52182      1583  TIP3      OH2            12.6146281803      -23.5909439259       30.9430209148  TIP3      223             0.0000000000
     52183      1583  TIP3      H1             12.5255219682      -22.9988337570       30.1828431870  TIP3      223             0.0000000000
     52184      1583  TIP3      H2             13.5858973833      -23.6394709345       31.0486851848  TIP3      223             0.0000000000
     52185      1584  TIP3      OH2            -1.7895080987      -22.9603808737       37.1943022134  TIP3      224             0.0000000000
     52186      1584  TIP3      H1             -1.0686143802      -23.1846099474       37.7921093414  TIP3      224             0.0000000000
     52187      1584  TIP3      H2             -2.1028075590      -23.8184913678       36.8879086570  TIP3      224             0.0000000000
     52188      1585  TIP3      OH2            11.6652676266      -24.6829916976       20.2990726157  TIP3      225             0.0000000000
     52189      1585  TIP3      H1             11.8629164312      -25.5446172888       20.7454081073  TIP3      225             0.0000000000
     52190      1585  TIP3      H2             12.4599902759      -24.6353622951       19.7698717742  TIP3      225             0.0000000000
     52191      1586  TIP3      OH2            -1.8828744539      -29.2830683556       38.1797996545  TIP3      226             0.0000000000
     52192      1586  TIP3      H1             -1.6112885662      -30.0865038869       37.6992210886  TIP3      226             0.0000000000
     52193      1586  TIP3      H2             -2.4455867203      -28.8497854259       37.5070783004  TIP3      226             0.0000000000
     52194      1587  TIP3      OH2             2.6628338998      -28.8138793367       20.2850292758  TIP3      227             0.0000000000
     52195      1587  TIP3      H1              2.6665655097      -29.7043784512       20.6477098254  TIP3      227             0.0000000000
     52196      1587  TIP3      H2              3.1820593883      -28.9449535404       19.4719036217  TIP3      227             0.0000000000
     52197      1588  TIP3      OH2             4.7801479938      -29.2733554639       37.5710406269  TIP3      228             0.0000000000
     52198      1588  TIP3      H1              4.6239874814      -28.8758202222       36.6657178186  TIP3      228             0.0000000000
     52199      1588  TIP3      H2              5.1039006279      -30.1622263165       37.2953853803  TIP3      228             0.0000000000
     52200      1589  TIP3      OH2             7.9637599188      -27.8107471703       19.9553517732  TIP3      229             0.0000000000
     52201      1589  TIP3      H1              7.6411467619      -27.6206679138       20.8340100697  TIP3      229             0.0000000000
     52202      1589  TIP3      H2              7.7547225344      -28.7315463612       19.7890897830  TIP3      229             0.0000000000
     52203      1590  TIP3      OH2            -0.9324203049      -31.9800583578       37.5002198264  TIP3      230             0.0000000000
     52204      1590  TIP3      H1             -0.4708914301      -32.8208671769       37.3222128105  TIP3      230             0.0000000000
     52205      1590  TIP3      H2             -1.0913517183      -32.0057278296       38.4358030438  TIP3      230             0.0000000000
     52206      1591  TIP3      OH2             3.0093169171      -32.9566063866       34.9093613167  TIP3      231             0.0000000000
     52207      1591  TIP3      H1              2.3817563228      -32.2503509020       35.0700851318  TIP3      231             0.0000000000
     52208      1591  TIP3      H2              3.3963289485      -32.6684070972       34.0702852966  TIP3      231             0.0000000000
     52209      1592  TIP3      OH2             5.4039787266      -31.7697502771       33.6937085803  TIP3      232             0.0000000000
     52210      1592  TIP3      H1              6.1388596803      -31.9013400438       33.0948259107  TIP3      232             0.0000000000
     52211      1592  TIP3      H2              5.0103983933      -30.9537009251       33.3541422200  TIP3      232             0.0000000000
     52212      1593  TIP3      OH2             9.7625320014      -34.0621792029       38.6344328685  TIP3      233             0.0000000000
     52213      1593  TIP3      H1             10.0253333780      -34.9659697580       38.5976545277  TIP3      233             0.0000000000
     52214      1593  TIP3      H2             10.6066177972      -33.5911348183       38.6761395371  TIP3      233             0.0000000000
     52215      1594  TIP3      OH2             8.6174297273      -36.4567670344       36.5148592361  TIP3      234             0.0000000000
     52216      1594  TIP3      H1              7.6291630252      -36.2718330405       36.5300727166  TIP3      234             0.0000000000
     52217      1594  TIP3      H2              8.7598707318      -36.8941447644       37.3480047340  TIP3      234             0.0000000000
     52218      1595  TIP3      OH2            10.1097306101      -37.7802014283       38.4260460853  TIP3      235             0.0000000000
     52219      1595  TIP3      H1             10.1327661182      -38.7254730827       38.6810580893  TIP3      235             0.0000000000
     52220      1595  TIP3      H2              9.8870472539      -37.4037994540       39.3069709194  TIP3      235             0.0000000000
     52221      1596  TIP3      OH2            -1.7620591606      -27.4155682730       21.2893235179  TIP3      236             0.0000000000
     52222      1596  TIP3      H1             -0.8476068726      -27.1484154180       21.4945719028  TIP3      236             0.0000000000
     52223      1596  TIP3      H2             -1.6070965004      -27.9790170372       20.5432318760  TIP3      236             0.0000000000
     52224      1597  TIP3      OH2            15.2828057332      -22.9968452676       31.0844785896  TIP3      237             0.0000000000
     52225      1597  TIP3      H1             15.3826505005      -22.8443141677       32.0362183660  TIP3      237             0.0000000000
     52226      1597  TIP3      H2             16.0350120090      -22.4678241708       30.7665998880  TIP3      237             0.0000000000
     52227      1598  TIP3      OH2            14.8919239619      -23.4324964677       34.0798157124  TIP3      238             0.0000000000
     52228      1598  TIP3      H1             14.4440289026      -24.1978535779       33.6452518702  TIP3      238             0.0000000000
     52229      1598  TIP3      H2             15.4441738926      -23.8940082104       34.7131563860  TIP3      238             0.0000000000
     52230      1599  TIP3      OH2            13.3340330185      -25.6844617346       33.2622267624  TIP3      239             0.0000000000
     52231      1599  TIP3      H1             12.6306056581      -25.4026625622       33.8590915044  TIP3      239             0.0000000000
     52232      1599  TIP3      H2             12.7991833666      -26.1244384170       32.5739781698  TIP3      239             0.0000000000
     52233      1600  TIP3      OH2            -2.3883273361      -31.2659107805       30.4321436626  TIP3      240             0.0000000000
     52234      1600  TIP3      H1             -2.1355698374      -31.1451719507       29.4731377274  TIP3      240             0.0000000000
     52235      1600  TIP3      H2             -1.5580545273      -31.6357620714       30.8440965192  TIP3      240             0.0000000000
     52236      1601  TIP3      OH2            12.9125713624      -36.9947988053       19.9627767612  TIP3      241             0.0000000000
     52237      1601  TIP3      H1             13.5537602144      -37.1024337788       20.7020679152  TIP3      241             0.0000000000
     52238      1601  TIP3      H2             12.0521461641      -37.1478115505       20.3526912992  TIP3      241             0.0000000000
     52239      1602  TIP3      OH2            -2.5824179538      -35.3797545057       36.8929397146  TIP3      242             0.0000000000
     52240      1602  TIP3      H1             -1.6448054737      -35.6087573513       36.8736510782  TIP3      242             0.0000000000
     52241      1602  TIP3      H2             -2.9905116488      -36.2664922467       36.9573457975  TIP3      242             0.0000000000
     52242      1603  TIP3      OH2            15.7287531494      -39.8688416928       38.6129561370  TIP3      243             0.0000000000
     52243      1603  TIP3      H1             15.6811000586      -40.6132898615       37.9903320919  TIP3      243             0.0000000000
     52244      1603  TIP3      H2             15.4706594775      -39.1276796526       38.0790564155  TIP3      243             0.0000000000
     52245      1604  TIP3      OH2            15.0796815296      -37.8499549953       36.8886201448  TIP3      244             0.0000000000
     52246      1604  TIP3      H1             14.1303661071      -37.5414451831       36.9276268008  TIP3      244             0.0000000000
     52247      1604  TIP3      H2             14.9660202840      -38.4464589491       36.1173281513  TIP3      244             0.0000000000
     52248      1605  TIP3      OH2            15.0071702099      -37.9712431803       21.5969612736  TIP3      245             0.0000000000
     52249      1605  TIP3      H1             15.5562330321      -38.6118198915       21.1164406757  TIP3      245             0.0000000000
     52250      1605  TIP3      H2             15.6369899265      -37.2018865059       21.6356847198  TIP3      245             0.0000000000
     52251      1606  TIP3      OH2            12.0818358231      -22.9245816847       26.6651483310  TIP3      246             0.0000000000
     52252      1606  TIP3      H1             12.7805122547      -23.2632908936       26.0828221968  TIP3      246             0.0000000000
     52253      1606  TIP3      H2             12.5919128718      -22.4661323121       27.3428957694  TIP3      246             0.0000000000
     52254      1607  TIP3      OH2            -0.5289404339      -26.0795089086       37.2302535084  TIP3      247             0.0000000000
     52255      1607  TIP3      H1             -1.3281446896      -25.8055839431       36.7522992655  TIP3      247             0.0000000000
     52256      1607  TIP3      H2             -0.7965657482      -26.0669945908       38.1422209447  TIP3      247             0.0000000000
     52257      1608  TIP3      OH2             9.0429916949      -22.2901491646       35.6662288749  TIP3      248             0.0000000000
     52258      1608  TIP3      H1              9.7075355798      -22.9714405148       35.4790249333  TIP3      248             0.0000000000
     52259      1608  TIP3      H2              9.3698836564      -21.9287915888       36.5136076956  TIP3      248             0.0000000000
     52260      1609  TIP3      OH2            13.9886373412      -39.7331104466       34.7760958331  TIP3      249             0.0000000000
     52261      1609  TIP3      H1             13.2037921600      -39.4349693167       34.3158606022  TIP3      249             0.0000000000
     52262      1609  TIP3      H2             14.2254246936      -40.5642859999       34.2915223728  TIP3      249             0.0000000000
     52263      1610  TIP3      OH2             7.0719509851      -22.2422537260       31.7205869059  TIP3      250             0.0000000000
     52264      1610  TIP3      H1              6.5131551495      -21.7595906358       31.1202924168  TIP3      250             0.0000000000
     52265      1610  TIP3      H2              7.1499914259      -21.6510406187       32.4933677317  TIP3      250             0.0000000000
     52266      1611  TIP3      OH2             9.3570485169      -23.4307151635       32.7072579985  TIP3      251             0.0000000000
     52267      1611  TIP3      H1              8.4574876421      -23.2483888044       32.3899553220  TIP3      251             0.0000000000
     52268      1611  TIP3      H2              9.7846055732      -22.5803521656       32.6446213909  TIP3      251             0.0000000000
     52269      1612  TIP3      OH2            11.8995543575      -21.9196492353       32.9692401244  TIP3      252             0.0000000000
     52270      1612  TIP3      H1             11.7885009490      -20.9795524437       32.7534536542  TIP3      252             0.0000000000
     52271      1612  TIP3      H2             12.1194894482      -22.2950741164       32.0907580846  TIP3      252             0.0000000000
     52272      1613  TIP3      OH2            12.4313565061      -40.1914855444       28.6052702447  TIP3      253             0.0000000000
     52273      1613  TIP3      H1             13.1404309315      -39.5472587022       28.6577583934  TIP3      253             0.0000000000
     52274      1613  TIP3      H2             11.6115263787      -39.7475788532       28.8895806733  TIP3      253             0.0000000000
     52275      1614  TIP3      OH2             9.7728365483      -39.7159666837       28.3579243303  TIP3      254             0.0000000000
     52276      1614  TIP3      H1             10.0100281013      -39.6227838215       27.4318069553  TIP3      254             0.0000000000
     52277      1614  TIP3      H2              9.6229818351      -40.6578676305       28.4840391788  TIP3      254             0.0000000000
     52278      1615  TIP3      OH2            11.1929620048      -39.7532126316       23.8780923732  TIP3      255             0.0000000000
     52279      1615  TIP3      H1             10.5633958735      -39.0129941484       23.9210831392  TIP3      255             0.0000000000
     52280      1615  TIP3      H2             10.7441961854      -40.4966099922       24.2748168265  TIP3      255             0.0000000000
     52281      1616  TIP3      OH2            14.0880572320      -23.1621201522       24.7156189931  TIP3      256             0.0000000000
     52282      1616  TIP3      H1             13.8700949187      -23.9011326289       24.1358659239  TIP3      256             0.0000000000
     52283      1616  TIP3      H2             13.9669426618      -22.4180823222       24.1189240449  TIP3      256             0.0000000000
     52284      1617  TIP3      OH2            10.2265223372      -40.3201575786       38.1133489796  TIP3      257             0.0000000000
     52285      1617  TIP3      H1             10.1420981216      -40.9157486698       38.9032912310  TIP3      257             0.0000000000
     52286      1617  TIP3      H2             11.1144593841      -40.6517882985       37.8797898164  TIP3      257             0.0000000000
     52287      1618  TIP3      OH2            13.3619335755      -24.3552663979       36.8386272317  TIP3      258             0.0000000000
     52288      1618  TIP3      H1             12.5594464104      -24.5690794697       36.3057403666  TIP3      258             0.0000000000
     52289      1618  TIP3      H2             13.1491717056      -23.4168337129       37.0241396085  TIP3      258             0.0000000000
     52290      1619  TIP3      OH2            27.4668418380      -23.1153387527       28.7907327247  TIP3      259             0.0000000000
     52291      1619  TIP3      H1             28.0143097814      -23.8994827932       28.5475495693  TIP3      259             0.0000000000
     52292      1619  TIP3      H2             27.1768542658      -23.4331191349       29.6540032426  TIP3      259             0.0000000000
     52293      1620  TIP3      OH2            28.1687636958      -34.3885599938       31.0357738930  TIP3      260             0.0000000000
     52294      1620  TIP3      H1             28.2174875036      -35.3558295278       31.0806143768  TIP3      260             0.0000000000
     52295      1620  TIP3      H2             28.0540371158      -34.2317827990       30.0966768152  TIP3      260             0.0000000000
     52296      1621  TIP3      OH2            21.2336144257      -36.1731048563       28.1960553031  TIP3      261             0.0000000000
     52297      1621  TIP3      H1             21.2675982172      -35.3529795768       27.7146176191  TIP3      261             0.0000000000
     52298      1621  TIP3      H2             20.7501566668      -36.7881494947       27.6015326574  TIP3      261             0.0000000000
     52299      1622  TIP3      OH2            29.0586890545      -36.2253215747       26.6429883539  TIP3      262             0.0000000000
     52300      1622  TIP3      H1             29.6979639290      -36.4561988746       27.3309071418  TIP3      262             0.0000000000
     52301      1622  TIP3      H2             29.5582347087      -35.6082000592       26.0888017889  TIP3      262             0.0000000000
     52302      1623  TIP3      OH2            18.0227576244      -33.7963966040       29.0198478266  TIP3      263             0.0000000000
     52303      1623  TIP3      H1             18.5260067920      -34.4799282038       29.5035352443  TIP3      263             0.0000000000
     52304      1623  TIP3      H2             17.9783282316      -34.2358253388       28.1606225642  TIP3      263             0.0000000000
     52305      1624  TIP3      OH2            34.1594181117      -35.6529769636       33.7660426768  TIP3      264             0.0000000000
     52306      1624  TIP3      H1             33.3602673561      -35.1144559939       33.6431255759  TIP3      264             0.0000000000
     52307      1624  TIP3      H2             34.0603541433      -35.9714147877       34.6759130767  TIP3      264             0.0000000000
     52308      1625  TIP3      OH2            20.0008414853      -37.0696301112       32.3837592298  TIP3      265             0.0000000000
     52309      1625  TIP3      H1             19.6780339744      -36.6461005260       31.5799417890  TIP3      265             0.0000000000
     52310      1625  TIP3      H2             19.2790225379      -37.0175146212       33.0304567553  TIP3      265             0.0000000000
     52311      1626  TIP3      OH2            30.8833678123      -36.9996640624       28.6337303685  TIP3      266             0.0000000000
     52312      1626  TIP3      H1             30.5561846641      -37.5446001754       29.3281029221  TIP3      266             0.0000000000
     52313      1626  TIP3      H2             31.4268582464      -36.3573097884       29.1427906487  TIP3      266             0.0000000000
     52314      1627  TIP3      OH2            19.7070352473      -35.5168136991       30.2426211126  TIP3      267             0.0000000000
     52315      1627  TIP3      H1             20.2963353370      -34.9051583064       30.7385745946  TIP3      267             0.0000000000
     52316      1627  TIP3      H2             20.3050984434      -35.9428613243       29.5976547914  TIP3      267             0.0000000000
     52317      1628  TIP3      OH2            21.0706236067      -27.7653875800       33.3184165048  TIP3      268             0.0000000000
     52318      1628  TIP3      H1             21.0805894938      -26.8255055639       33.1087811396  TIP3      268             0.0000000000
     52319      1628  TIP3      H2             20.2752385806      -27.8682795355       33.8773867284  TIP3      268             0.0000000000
     52320      1629  TIP3      OH2            31.1203488482      -38.2333462175       32.1967709568  TIP3      269             0.0000000000
     52321      1629  TIP3      H1             30.4679888518      -37.5293541555       32.3402503938  TIP3      269             0.0000000000
     52322      1629  TIP3      H2             31.8998340951      -37.7425479623       31.9141278725  TIP3      269             0.0000000000
     52323      1630  TIP3      OH2            24.6761132811      -40.0701556172       31.0420742228  TIP3      270             0.0000000000
     52324      1630  TIP3      H1             24.3351420526      -40.7612760536       30.5089117245  TIP3      270             0.0000000000
     52325      1630  TIP3      H2             23.9139774672      -39.5501370235       30.6222632740  TIP3      270             0.0000000000
     52326      1631  TIP3      OH2            29.1306280048      -24.6600195455       27.5602831640  TIP3      271             0.0000000000
     52327      1631  TIP3      H1             29.4972001785      -25.3848769426       27.0563670340  TIP3      271             0.0000000000
     52328      1631  TIP3      H2             29.5307890680      -23.8716809204       27.1621185476  TIP3      271             0.0000000000
     52329      1632  TIP3      OH2            31.9695917514      -28.2123087999       34.5683901370  TIP3      272             0.0000000000
     52330      1632  TIP3      H1             31.9779049358      -28.8265509306       33.8101084985  TIP3      272             0.0000000000
     52331      1632  TIP3      H2             32.0327918687      -27.3511561589       34.1087386351  TIP3      272             0.0000000000
     52332      1633  TIP3      OH2            33.8527844347      -31.8790082446       32.5443122656  TIP3      273             0.0000000000
     52333      1633  TIP3      H1             33.1295232724      -31.2069399806       32.6810813089  TIP3      273             0.0000000000
     52334      1633  TIP3      H2             34.1775398735      -31.5382728469       31.7005746566  TIP3      273             0.0000000000
     52335      1634  TIP3      OH2            29.7923479289      -32.9277409212       34.3642591348  TIP3      274             0.0000000000
     52336      1634  TIP3      H1             29.7910264712      -32.1487889495       34.9381893733  TIP3      274             0.0000000000
     52337      1634  TIP3      H2             29.1182426330      -32.6354137249       33.6982959874  TIP3      274             0.0000000000
     52338      1635  TIP3      OH2            19.5820500662      -30.9195264486       34.6208530046  TIP3      275             0.0000000000
     52339      1635  TIP3      H1             19.7472835159      -30.4305086206       35.4300291509  TIP3      275             0.0000000000
     52340      1635  TIP3      H2             18.6508208881      -31.0017732782       34.4800902250  TIP3      275             0.0000000000
     52341      1636  TIP3      OH2            20.8814255174      -25.0887436586       36.2790021437  TIP3      276             0.0000000000
     52342      1636  TIP3      H1             21.0224515528      -25.3456451125       35.3377979080  TIP3      276             0.0000000000
     52343      1636  TIP3      H2             20.0143094057      -25.4709795157       36.4202733735  TIP3      276             0.0000000000
     52344      1637  TIP3      OH2            32.3648588362      -40.1587203232       22.6657226216  TIP3      277             0.0000000000
     52345      1637  TIP3      H1             31.5098354872      -39.9782719886       23.1334411331  TIP3      277             0.0000000000
     52346      1637  TIP3      H2             32.6582849384      -39.2567024636       22.4406085344  TIP3      277             0.0000000000
     52347      1638  TIP3      OH2            33.5834937529      -25.8942249957       21.2857062151  TIP3      278             0.0000000000
     52348      1638  TIP3      H1             33.6021853581      -24.8963312556       21.3248926460  TIP3      278             0.0000000000
     52349      1638  TIP3      H2             34.5262344101      -26.0228156659       21.0765213443  TIP3      278             0.0000000000
     52350      1639  TIP3      OH2            16.5869487702      -28.9830470933       33.5789784319  TIP3      279             0.0000000000
     52351      1639  TIP3      H1             16.0358765760      -29.0377233639       32.7855585845  TIP3      279             0.0000000000
     52352      1639  TIP3      H2             16.5172191415      -29.9082764895       33.8844972947  TIP3      279             0.0000000000
     52353      1640  TIP3      OH2            16.2881678310      -26.2045961508       30.3942991105  TIP3      280             0.0000000000
     52354      1640  TIP3      H1             17.2349652789      -26.3419149604       30.4094338447  TIP3      280             0.0000000000
     52355      1640  TIP3      H2             16.1777244062      -25.4235839129       30.9526193685  TIP3      280             0.0000000000
     52356      1641  TIP3      OH2            34.5156706888      -25.5680583961       36.1885027409  TIP3      281             0.0000000000
     52357      1641  TIP3      H1             34.3436504284      -26.5046878420       36.0622839670  TIP3      281             0.0000000000
     52358      1641  TIP3      H2             33.6341509760      -25.2528698892       36.4991554999  TIP3      281             0.0000000000
     52359      1642  TIP3      OH2            25.7851831394      -22.2721557307       25.2606254306  TIP3      282             0.0000000000
     52360      1642  TIP3      H1             25.2169140204      -22.6866772800       24.5769423333  TIP3      282             0.0000000000
     52361      1642  TIP3      H2             25.7044807209      -21.2751197138       25.3419013633  TIP3      282             0.0000000000
     52362      1643  TIP3      OH2            19.5580567239      -23.4287387702       26.5978488706  TIP3      283             0.0000000000
     52363      1643  TIP3      H1             19.7117613237      -23.7491009826       27.5061295464  TIP3      283             0.0000000000
     52364      1643  TIP3      H2             18.6864585692      -23.7899885987       26.4192247166  TIP3      283             0.0000000000
     52365      1644  TIP3      OH2            28.8451240239      -23.0220433150       21.8244235908  TIP3      284             0.0000000000
     52366      1644  TIP3      H1             29.3750781823      -23.6959065026       21.2944361904  TIP3      284             0.0000000000
     52367      1644  TIP3      H2             29.0693080499      -23.3939731381       22.6975907020  TIP3      284             0.0000000000
     52368      1645  TIP3      OH2            28.5588503957      -23.0122290898       24.5509839296  TIP3      285             0.0000000000
     52369      1645  TIP3      H1             27.6969035959      -23.1666062150       24.9149980742  TIP3      285             0.0000000000
     52370      1645  TIP3      H2             28.9717952295      -23.7785599139       25.0200903017  TIP3      285             0.0000000000
     52371      1646  TIP3      OH2            31.7118173443      -34.0861533480       36.6073350873  TIP3      286             0.0000000000
     52372      1646  TIP3      H1             31.2256766666      -33.6157706025       35.9095072972  TIP3      286             0.0000000000
     52373      1646  TIP3      H2             31.6575601119      -34.9978759201       36.2827984563  TIP3      286             0.0000000000
     52374      1647  TIP3      OH2            18.7618105574      -27.5312484921       34.7251595204  TIP3      287             0.0000000000
     52375      1647  TIP3      H1             19.0795957674      -28.1178951528       35.4542086479  TIP3      287             0.0000000000
     52376      1647  TIP3      H2             17.9832097955      -28.0430629746       34.3929768583  TIP3      287             0.0000000000
     52377      1648  TIP3      OH2            21.0718504652      -39.2557740062       30.0624212185  TIP3      288             0.0000000000
     52378      1648  TIP3      H1             20.1535825378      -39.4248588812       30.3092205138  TIP3      288             0.0000000000
     52379      1648  TIP3      H2             21.2942127980      -38.5854819595       30.6976496294  TIP3      288             0.0000000000
     52380      1649  TIP3      OH2            26.2940842043      -39.1034164847       33.9698004007  TIP3      289             0.0000000000
     52381      1649  TIP3      H1             26.6817302870      -39.7661435799       34.5253409372  TIP3      289             0.0000000000
     52382      1649  TIP3      H2             25.3410527913      -39.3604650413       33.9076784288  TIP3      289             0.0000000000
     52383      1650  TIP3      OH2            29.4323334262      -35.7216617513       34.8227485211  TIP3      290             0.0000000000
     52384      1650  TIP3      H1             28.8115059480      -35.8643912838       35.5892411355  TIP3      290             0.0000000000
     52385      1650  TIP3      H2             29.2127677487      -34.8041970062       34.5827749863  TIP3      290             0.0000000000
     52386      1651  TIP3      OH2            30.2328408042      -30.9062989340       20.6185124746  TIP3      291             0.0000000000
     52387      1651  TIP3      H1             30.1280774932      -31.0402666242       19.6747949270  TIP3      291             0.0000000000
     52388      1651  TIP3      H2             31.0397386855      -30.4229103957       20.7397657474  TIP3      291             0.0000000000
     52389      1652  TIP3      OH2            19.1487557952      -33.9613563381       33.4346098869  TIP3      292             0.0000000000
     52390      1652  TIP3      H1             19.3198319549      -33.5195095682       34.2899223987  TIP3      292             0.0000000000
     52391      1652  TIP3      H2             18.7615900725      -34.7812633664       33.7120983508  TIP3      292             0.0000000000
     52392      1653  TIP3      OH2            22.6768707136      -36.7315375495       20.3919951961  TIP3      293             0.0000000000
     52393      1653  TIP3      H1             22.1030182576      -36.7398622456       21.1179491376  TIP3      293             0.0000000000
     52394      1653  TIP3      H2             22.0423778709      -36.1699052945       19.8577115647  TIP3      293             0.0000000000
     52395      1654  TIP3      OH2            16.3273058369      -35.7330174767       22.0444560013  TIP3      294             0.0000000000
     52396      1654  TIP3      H1             17.2859992809      -35.4890511953       21.8938319106  TIP3      294             0.0000000000
     52397      1654  TIP3      H2             16.3117373067      -35.5569401061       22.9940670303  TIP3      294             0.0000000000
     52398      1655  TIP3      OH2            27.4928250693      -32.6191081641       32.9513568671  TIP3      295             0.0000000000
     52399      1655  TIP3      H1             27.6173173315      -33.2418013436       32.2097003069  TIP3      295             0.0000000000
     52400      1655  TIP3      H2             26.7867014904      -33.0198059351       33.5023398817  TIP3      295             0.0000000000
     52401      1656  TIP3      OH2            24.1007286126      -36.1823964134       27.9165538673  TIP3      296             0.0000000000
     52402      1656  TIP3      H1             23.1907098604      -36.5295988447       28.0331778655  TIP3      296             0.0000000000
     52403      1656  TIP3      H2             24.6131942169      -36.6639044228       28.5844341039  TIP3      296             0.0000000000
     52404      1657  TIP3      OH2            18.8510685773      -34.9912484372       26.6064785601  TIP3      297             0.0000000000
     52405      1657  TIP3      H1             18.0381844156      -34.8796142110       26.0994544652  TIP3      297             0.0000000000
     52406      1657  TIP3      H2             19.1947194198      -35.7934631328       26.1846722713  TIP3      297             0.0000000000
     52407      1658  TIP3      OH2            22.5992849465      -34.9372589910       24.1839614741  TIP3      298             0.0000000000
     52408      1658  TIP3      H1             23.5277463647      -34.7367812252       24.3820241895  TIP3      298             0.0000000000
     52409      1658  TIP3      H2             22.3895245662      -34.2000679903       23.5642454561  TIP3      298             0.0000000000
     52410      1659  TIP3      OH2            28.5190294144      -37.4728049950       30.8711108610  TIP3      299             0.0000000000
     52411      1659  TIP3      H1             27.8746398292      -37.2313259646       31.6130149829  TIP3      299             0.0000000000
     52412      1659  TIP3      H2             27.8958341325      -37.4699799428       30.1207165272  TIP3      299             0.0000000000
     52413      1660  TIP3      OH2            21.2591654229      -33.8106212479       21.7571484698  TIP3      300             0.0000000000
     52414      1660  TIP3      H1             20.7125578554      -34.1806675527       21.0304664469  TIP3      300             0.0000000000
     52415      1660  TIP3      H2             22.0734630327      -33.5227428465       21.3045920787  TIP3      300             0.0000000000
     52416      1661  TIP3      OH2            31.6656514826      -21.6443295371       37.3016586702  TIP3      301             0.0000000000
     52417      1661  TIP3      H1             31.9806517092      -21.3225258125       36.4201806057  TIP3      301             0.0000000000
     52418      1661  TIP3      H2             32.4106263591      -21.3236813697       37.8279215674  TIP3      301             0.0000000000
     52419      1662  TIP3      OH2            19.3862335091      -29.0698628446       36.7884048150  TIP3      302             0.0000000000
     52420      1662  TIP3      H1             20.1424896231      -29.0119230889       37.3856854121  TIP3      302             0.0000000000
     52421      1662  TIP3      H2             18.6250573079      -29.1096618306       37.3872935928  TIP3      302             0.0000000000
     52422      1663  TIP3      OH2            20.4316770655      -37.5440164437       26.0669354608  TIP3      303             0.0000000000
     52423      1663  TIP3      H1             20.0842430230      -38.4527974245       26.0120599453  TIP3      303             0.0000000000
     52424      1663  TIP3      H2             21.1471072320      -37.6121737833       25.4046028454  TIP3      303             0.0000000000
     52425      1664  TIP3      OH2            24.2678705044      -35.0515146744       31.7782001079  TIP3      304             0.0000000000
     52426      1664  TIP3      H1             23.3277940995      -35.0524192677       32.1354239594  TIP3      304             0.0000000000
     52427      1664  TIP3      H2             24.5830066185      -35.1701423305       32.6976114491  TIP3      304             0.0000000000
     52428      1665  TIP3      OH2            31.8469140563      -30.1263353947       32.4264084410  TIP3      305             0.0000000000
     52429      1665  TIP3      H1             32.3278409498      -29.4976560469       31.8676080520  TIP3      305             0.0000000000
     52430      1665  TIP3      H2             30.9378818759      -29.9050395991       32.0968381212  TIP3      305             0.0000000000
     52431      1666  TIP3      OH2            34.1228712041      -34.3662155073       23.2187128037  TIP3      306             0.0000000000
     52432      1666  TIP3      H1             33.4504909893      -34.6385107399       22.5834280619  TIP3      306             0.0000000000
     52433      1666  TIP3      H2             34.1323360111      -33.4063513708       23.0472921690  TIP3      306             0.0000000000
     52434      1667  TIP3      OH2            34.0685307394      -28.4907650601       36.0785733237  TIP3      307             0.0000000000
     52435      1667  TIP3      H1             33.1792229476      -28.2987573523       35.6503265041  TIP3      307             0.0000000000
     52436      1667  TIP3      H2             34.6013347040      -28.5600681650       35.2489008582  TIP3      307             0.0000000000
     52437      1668  TIP3      OH2            32.5954445709      -25.7721400230       23.7011184834  TIP3      308             0.0000000000
     52438      1668  TIP3      H1             31.8299828951      -26.2981294634       23.9609926216  TIP3      308             0.0000000000
     52439      1668  TIP3      H2             32.5219326829      -25.6015578355       22.7321083778  TIP3      308             0.0000000000
     52440      1669  TIP3      OH2            23.9644585126      -24.5471651649       32.7868769327  TIP3      309             0.0000000000
     52441      1669  TIP3      H1             24.3930032864      -23.7162291725       32.5022461784  TIP3      309             0.0000000000
     52442      1669  TIP3      H2             24.6088162129      -24.8685604210       33.4340323489  TIP3      309             0.0000000000
     52443      1670  TIP3      OH2            29.8270260641      -27.5430777189       21.5704739142  TIP3      310             0.0000000000
     52444      1670  TIP3      H1             30.0376305389      -27.9699885426       22.3888536454  TIP3      310             0.0000000000
     52445      1670  TIP3      H2             28.8480140433      -27.5962434232       21.5730817947  TIP3      310             0.0000000000
     52446      1671  TIP3      OH2            30.1763442445      -23.8856753890       34.9641271986  TIP3      311             0.0000000000
     52447      1671  TIP3      H1             29.6436370597      -24.4780408857       34.3802530229  TIP3      311             0.0000000000
     52448      1671  TIP3      H2             30.4749114909      -23.2626680165       34.2717678569  TIP3      311             0.0000000000
     52449      1672  TIP3      OH2            34.2684413577      -23.0902243285       21.6819674207  TIP3      312             0.0000000000
     52450      1672  TIP3      H1             34.9880619789      -22.4385849987       21.6210975505  TIP3      312             0.0000000000
     52451      1672  TIP3      H2             33.5484665676      -22.5020430845       22.0377737834  TIP3      312             0.0000000000
     52452      1673  TIP3      OH2            18.2915668610      -36.5985034436       34.2888744911  TIP3      313             0.0000000000
     52453      1673  TIP3      H1             17.3870637230      -36.2651123333       34.1615135199  TIP3      313             0.0000000000
     52454      1673  TIP3      H2             18.1971311688      -37.5129595355       34.6387238329  TIP3      313             0.0000000000
     52455      1674  TIP3      OH2            17.9762530442      -24.9013008404       32.7094769847  TIP3      314             0.0000000000
     52456      1674  TIP3      H1             18.2305594634      -25.8211742940       32.7659873738  TIP3      314             0.0000000000
     52457      1674  TIP3      H2             18.2580783610      -24.5871868326       33.5681709588  TIP3      314             0.0000000000
     52458      1675  TIP3      OH2            23.8224110143      -26.4525355383       19.9884709220  TIP3      315             0.0000000000
     52459      1675  TIP3      H1             24.0895791289      -27.2075658477       19.4468950096  TIP3      315             0.0000000000
     52460      1675  TIP3      H2             23.5701207258      -26.8624003433       20.8219711426  TIP3      315             0.0000000000
     52461      1676  TIP3      OH2            27.2083312494      -36.9082997157       33.0876688472  TIP3      316             0.0000000000
     52462      1676  TIP3      H1             27.7387113113      -36.7859795940       33.8867933853  TIP3      316             0.0000000000
     52463      1676  TIP3      H2             26.6670387483      -37.6750577984       33.4012877628  TIP3      316             0.0000000000
     52464      1677  TIP3      OH2            28.0433835816      -37.4333888451       24.2417211588  TIP3      317             0.0000000000
     52465      1677  TIP3      H1             28.0436661806      -36.7529174538       23.5567446994  TIP3      317             0.0000000000
     52466      1677  TIP3      H2             28.3498022730      -36.8924878785       25.0093237705  TIP3      317             0.0000000000
     52467      1678  TIP3      OH2            25.1333876391      -35.1025320336       25.1660301710  TIP3      318             0.0000000000
     52468      1678  TIP3      H1             26.0808627910      -35.0076787978       25.1956309549  TIP3      318             0.0000000000
     52469      1678  TIP3      H2             24.9107242093      -35.5366746123       26.0024222600  TIP3      318             0.0000000000
     52470      1679  TIP3      OH2            26.8345488003      -37.6243458327       26.5860303783  TIP3      319             0.0000000000
     52471      1679  TIP3      H1             25.8883833917      -37.7076666347       26.7696336908  TIP3      319             0.0000000000
     52472      1679  TIP3      H2             26.8102200245      -37.8191536768       25.6235541052  TIP3      319             0.0000000000
     52473      1680  TIP3      OH2            21.5726955652      -36.7475822726       22.9430081434  TIP3      320             0.0000000000
     52474      1680  TIP3      H1             21.6087820213      -35.8741902751       23.3992009257  TIP3      320             0.0000000000
     52475      1680  TIP3      H2             22.4765536291      -37.0093999912       23.2107005696  TIP3      320             0.0000000000
     52476      1681  TIP3      OH2            31.8154500495      -36.6808523936       35.2102123219  TIP3      321             0.0000000000
     52477      1681  TIP3      H1             30.8747880065      -36.4043282905       35.0836446584  TIP3      321             0.0000000000
     52478      1681  TIP3      H2             32.1125802892      -36.7324526959       34.2827180102  TIP3      321             0.0000000000
     52479      1682  TIP3      OH2            30.4231010390      -32.9595654399       29.1963461382  TIP3      322             0.0000000000
     52480      1682  TIP3      H1             29.5717475398      -33.3166279917       28.9515812599  TIP3      322             0.0000000000
     52481      1682  TIP3      H2             30.8817194163      -33.6179127606       29.7481135729  TIP3      322             0.0000000000
     52482      1683  TIP3      OH2            18.1571514367      -34.2760083484       21.1175127245  TIP3      323             0.0000000000
     52483      1683  TIP3      H1             18.1367784914      -33.3150649011       21.0440538378  TIP3      323             0.0000000000
     52484      1683  TIP3      H2             17.3638760736      -34.5439467259       20.6057707280  TIP3      323             0.0000000000
     52485      1684  TIP3      OH2            31.4815836643      -23.5596750020       30.9261517097  TIP3      324             0.0000000000
     52486      1684  TIP3      H1             31.3713997163      -22.9798951092       30.1750002104  TIP3      324             0.0000000000
     52487      1684  TIP3      H2             32.4503642888      -23.5881719880       31.0549942184  TIP3      324             0.0000000000
     52488      1685  TIP3      OH2            18.1869548920      -39.2560260923       30.7960024771  TIP3      325             0.0000000000
     52489      1685  TIP3      H1             18.1462619178      -39.2965347531       29.8028716339  TIP3      325             0.0000000000
     52490      1685  TIP3      H2             18.4077039450      -40.2284348960       30.6814318328  TIP3      325             0.0000000000
     52491      1686  TIP3      OH2            17.9148566948      -25.5399258012       25.8422860158  TIP3      326             0.0000000000
     52492      1686  TIP3      H1             17.0492154966      -25.1325471568       25.7914287767  TIP3      326             0.0000000000
     52493      1686  TIP3      H2             18.4175390759      -25.1436787017       25.1237585512  TIP3      326             0.0000000000
     52494      1687  TIP3      OH2            17.0317786788      -22.9565112155       36.9279281494  TIP3      327             0.0000000000
     52495      1687  TIP3      H1             17.5415054269      -22.8388674164       37.6668584418  TIP3      327             0.0000000000
     52496      1687  TIP3      H2             16.6245837740      -23.8458494858       36.7995973547  TIP3      327             0.0000000000
     52497      1688  TIP3      OH2            21.7420512101      -24.0905556957       38.7388548331  TIP3      328             0.0000000000
     52498      1688  TIP3      H1             22.5400588862      -24.5391073137       39.0588118800  TIP3      328             0.0000000000
     52499      1688  TIP3      H2             21.7685882404      -24.3055763726       37.7792274423  TIP3      328             0.0000000000
     52500      1689  TIP3      OH2            25.8590994832      -24.6074016567       19.9744606718  TIP3      329             0.0000000000
     52501      1689  TIP3      H1             25.2595909874      -25.2470559951       20.4120854603  TIP3      329             0.0000000000
     52502      1689  TIP3      H2             26.6564894447      -25.1428990072       19.8520554918  TIP3      329             0.0000000000
     52503      1690  TIP3      OH2            30.5177639381      -24.6971533642       20.5086474176  TIP3      330             0.0000000000
     52504      1690  TIP3      H1             30.7230948489      -25.6073640798       20.7391281784  TIP3      330             0.0000000000
     52505      1690  TIP3      H2             31.1339919085      -24.4962157716       19.7946533721  TIP3      330             0.0000000000
     52506      1691  TIP3      OH2            17.0966635489      -29.1211776026       38.0335039771  TIP3      331             0.0000000000
     52507      1691  TIP3      H1             17.2107921587      -30.0704397220       37.7920477130  TIP3      331             0.0000000000
     52508      1691  TIP3      H2             16.2705342688      -29.0053973932       37.5447395370  TIP3      331             0.0000000000
     52509      1692  TIP3      OH2            33.0610142420      -30.2280899799       20.1807103906  TIP3      332             0.0000000000
     52510      1692  TIP3      H1             32.7708162519      -30.6822036115       19.3803767133  TIP3      332             0.0000000000
     52511      1692  TIP3      H2             33.0345019200      -29.3116700101       19.9093994615  TIP3      332             0.0000000000
     52512      1693  TIP3      OH2            22.3366453578      -36.0892613542       32.8731905685  TIP3      333             0.0000000000
     52513      1693  TIP3      H1             23.2259350532      -36.5871741359       32.7673416452  TIP3      333             0.0000000000
     52514      1693  TIP3      H2             21.8668314665      -36.9447012723       33.0461093346  TIP3      333             0.0000000000
     52515      1694  TIP3      OH2            28.6499576793      -34.0594524559       38.8220354753  TIP3      334             0.0000000000
     52516      1694  TIP3      H1             28.8598892833      -34.9382668499       38.5232079502  TIP3      334             0.0000000000
     52517      1694  TIP3      H2             29.4756559057      -33.5699534325       38.6679340668  TIP3      334             0.0000000000
     52518      1695  TIP3      OH2            29.9937421110      -31.2432021582       36.7749026814  TIP3      335             0.0000000000
     52519      1695  TIP3      H1             29.6964476569      -30.4980518933       36.2479573532  TIP3      335             0.0000000000
     52520      1695  TIP3      H2             30.9567877017      -31.2310247209       36.6305009175  TIP3      335             0.0000000000
     52521      1696  TIP3      OH2            20.6853241938      -34.4336588803       37.8931296769  TIP3      336             0.0000000000
     52522      1696  TIP3      H1             19.9805538515      -34.9211140544       37.4904408527  TIP3      336             0.0000000000
     52523      1696  TIP3      H2             21.3745479339      -34.6184196265       37.2123829768  TIP3      336             0.0000000000
     52524      1697  TIP3      OH2            23.8928614206      -39.8195622636       33.8721944612  TIP3      337             0.0000000000
     52525      1697  TIP3      H1             23.6588982359      -38.8501134187       33.7833202311  TIP3      337             0.0000000000
     52526      1697  TIP3      H2             23.1580513584      -40.2190415955       33.3474767817  TIP3      337             0.0000000000
     52527      1698  TIP3      OH2            27.4757578524      -36.3193310923       36.5985426202  TIP3      338             0.0000000000
     52528      1698  TIP3      H1             26.4913982935      -36.2723385943       36.5778857845  TIP3      338             0.0000000000
     52529      1698  TIP3      H2             27.6943951023      -37.0312755796       37.1960819953  TIP3      338             0.0000000000
     52530      1699  TIP3      OH2            29.0354791800      -37.7051412060       38.5112795650  TIP3      339             0.0000000000
     52531      1699  TIP3      H1             29.0113338485      -38.6879566744       38.4226821373  TIP3      339             0.0000000000
     52532      1699  TIP3      H2             28.7727779094      -37.3214063078       39.3565879770  TIP3      339             0.0000000000
     52533      1700  TIP3      OH2            18.8794714924      -36.4134953097       37.6212101175  TIP3      340             0.0000000000
     52534      1700  TIP3      H1             19.2880317295      -36.9751547859       36.9107874030  TIP3      340             0.0000000000
     52535      1700  TIP3      H2             18.9661342938      -36.7782489002       38.5056067210  TIP3      340             0.0000000000
     52536      1701  TIP3      OH2            23.4013561522      -40.5887242159       36.2692067766  TIP3      341             0.0000000000
     52537      1701  TIP3      H1             24.3337941028      -40.9348172365       36.3864658323  TIP3      341             0.0000000000
     52538      1701  TIP3      H2             23.6628919360      -40.2512524825       35.3717269074  TIP3      341             0.0000000000
     52539      1702  TIP3      OH2            24.0096152684      -39.1019011037       38.6424359245  TIP3      342             0.0000000000
     52540      1702  TIP3      H1             24.0578365528      -39.2503551166       37.6906593741  TIP3      342             0.0000000000
     52541      1702  TIP3      H2             23.6657540706      -38.1545406238       38.5558172191  TIP3      342             0.0000000000
     52542      1703  TIP3      OH2            23.5039074427      -21.8093076175       21.8100084807  TIP3      343             0.0000000000
     52543      1703  TIP3      H1             24.4566951020      -21.8873870596       21.7826550226  TIP3      343             0.0000000000
     52544      1703  TIP3      H2             23.3904605025      -21.2692431906       21.0478153841  TIP3      343             0.0000000000
     52545      1704  TIP3      OH2            16.6048078405      -23.8168789354       28.0984542167  TIP3      344             0.0000000000
     52546      1704  TIP3      H1             16.3224627655      -24.7241494565       28.2858738118  TIP3      344             0.0000000000
     52547      1704  TIP3      H2             16.9188707194      -23.5071156263       28.9721688115  TIP3      344             0.0000000000
     52548      1705  TIP3      OH2            34.1757062683      -22.9329848610       31.0723163566  TIP3      345             0.0000000000
     52549      1705  TIP3      H1             34.2502081856      -22.8588641064       32.0421901386  TIP3      345             0.0000000000
     52550      1705  TIP3      H2             34.9507608616      -22.4141339273       30.7902897308  TIP3      345             0.0000000000
     52551      1706  TIP3      OH2            33.7609325555      -23.4231340494       34.0052145109  TIP3      346             0.0000000000
     52552      1706  TIP3      H1             33.2942272413      -24.2083461275       33.6557920244  TIP3      346             0.0000000000
     52553      1706  TIP3      H2             34.3093903672      -23.8324505432       34.6920792392  TIP3      346             0.0000000000
     52554      1707  TIP3      OH2            33.5331323065      -29.5135419303       24.2577828072  TIP3      347             0.0000000000
     52555      1707  TIP3      H1             34.4003849516      -29.2262094182       24.6321988054  TIP3      347             0.0000000000
     52556      1707  TIP3      H2             33.3861587318      -30.2704311065       24.8955645719  TIP3      347             0.0000000000
     52557      1708  TIP3      OH2            33.8838180507      -31.3122794969       25.9985205565  TIP3      348             0.0000000000
     52558      1708  TIP3      H1             33.1367718426      -31.8317790917       26.3989227836  TIP3      348             0.0000000000
     52559      1708  TIP3      H2             34.4319344351      -31.1486905955       26.7881713189  TIP3      348             0.0000000000
     52560      1709  TIP3      OH2            33.7486557882      -28.6250991451       31.0447738572  TIP3      349             0.0000000000
     52561      1709  TIP3      H1             34.5202415182      -28.9199139078       30.5758016924  TIP3      349             0.0000000000
     52562      1709  TIP3      H2             33.8203397738      -27.6598199724       30.8695234359  TIP3      349             0.0000000000
     52563      1710  TIP3      OH2            32.2014186513      -25.7072084878       33.2593918822  TIP3      350             0.0000000000
     52564      1710  TIP3      H1             31.4859927312      -25.3704111740       33.8163838105  TIP3      350             0.0000000000
     52565      1710  TIP3      H2             31.6276660268      -26.0972154816       32.5537589806  TIP3      350             0.0000000000
     52566      1711  TIP3      OH2            34.3018516707      -31.3696700523       22.3928010572  TIP3      351             0.0000000000
     52567      1711  TIP3      H1             33.6517973389      -31.1286222761       21.6939796398  TIP3      351             0.0000000000
     52568      1711  TIP3      H2             34.0027052786      -30.8550561765       23.1434666737  TIP3      351             0.0000000000
     52569      1712  TIP3      OH2            32.7913906032      -34.3293832743       20.7681431872  TIP3      352             0.0000000000
     52570      1712  TIP3      H1             32.4866655834      -33.4930990435       20.3626547291  TIP3      352             0.0000000000
     52571      1712  TIP3      H2             32.2068739353      -35.0377536283       20.5227816999  TIP3      352             0.0000000000
     52572      1713  TIP3      OH2            31.8112111559      -32.8411377743       26.6261069178  TIP3      353             0.0000000000
     52573      1713  TIP3      H1             31.5038368625      -33.7536584286       26.5220277910  TIP3      353             0.0000000000
     52574      1713  TIP3      H2             31.3122725525      -32.5445290303       27.4096557637  TIP3      353             0.0000000000
     52575      1714  TIP3      OH2            16.7284229573      -30.6769274094       30.5342407383  TIP3      354             0.0000000000
     52576      1714  TIP3      H1             16.9407376241      -30.8961617875       29.6277425056  TIP3      354             0.0000000000
     52577      1714  TIP3      H2             17.5370548781      -30.9144265373       31.0133613208  TIP3      354             0.0000000000
     52578      1715  TIP3      OH2            32.5537082634      -30.8417965556       36.3898766770  TIP3      355             0.0000000000
     52579      1715  TIP3      H1             33.1665186762      -31.6160185562       36.3679767351  TIP3      355             0.0000000000
     52580      1715  TIP3      H2             33.1473736836      -30.0951787476       36.1990550960  TIP3      355             0.0000000000
     52581      1716  TIP3      OH2            34.0966799866      -32.9147540232       36.8515326626  TIP3      356             0.0000000000
     52582      1716  TIP3      H1             33.2138515944      -33.3262177719       36.7376589535  TIP3      356             0.0000000000
     52583      1716  TIP3      H2             34.6443486230      -33.7226740974       36.8647966377  TIP3      356             0.0000000000
     52584      1717  TIP3      OH2            31.7636819068      -36.8540364863       19.8809977608  TIP3      357             0.0000000000
     52585      1717  TIP3      H1             32.3973122004      -37.1179428250       20.6354686999  TIP3      357             0.0000000000
     52586      1717  TIP3      H2             30.9633304141      -37.1002909923       20.3774787523  TIP3      357             0.0000000000
     52587      1718  TIP3      OH2            31.4091039457      -35.2577232137       25.0827959460  TIP3      358             0.0000000000
     52588      1718  TIP3      H1             31.7190168950      -36.1819020010       25.1169328241  TIP3      358             0.0000000000
     52589      1718  TIP3      H2             32.1354906786      -34.8247857764       24.6333019136  TIP3      358             0.0000000000
     52590      1719  TIP3      OH2            32.0335917616      -34.7178234835       30.4894351700  TIP3      359             0.0000000000
     52591      1719  TIP3      H1             32.9709222236      -34.4779270966       30.4666588971  TIP3      359             0.0000000000
     52592      1719  TIP3      H2             31.8044920146      -34.5684993389       31.4239925563  TIP3      359             0.0000000000
     52593      1720  TIP3      OH2            32.0511085681      -33.9374273634       33.2516369731  TIP3      360             0.0000000000
     52594      1720  TIP3      H1             31.1728179132      -33.6605002279       33.5857285016  TIP3      360             0.0000000000
     52595      1720  TIP3      H2             32.4668784176      -33.0812129390       33.0450788783  TIP3      360             0.0000000000
     52596      1721  TIP3      OH2            32.0635220047      -38.0379956583       25.0359683723  TIP3      361             0.0000000000
     52597      1721  TIP3      H1             32.2153119971      -38.3838367214       25.9418573824  TIP3      361             0.0000000000
     52598      1721  TIP3      H2             31.3669237222      -38.5569223216       24.6196900637  TIP3      361             0.0000000000
     52599      1722  TIP3      OH2            17.2227117560      -36.7490554401       29.9995296125  TIP3      362             0.0000000000
     52600      1722  TIP3      H1             17.5654935019      -37.6567531653       30.0269955750  TIP3      362             0.0000000000
     52601      1722  TIP3      H2             18.0357349139      -36.2326908006       30.0915716968  TIP3      362             0.0000000000
     52602      1723  TIP3      OH2            33.9765544756      -37.7735043220       21.3423070730  TIP3      363             0.0000000000
     52603      1723  TIP3      H1             34.2510586963      -38.7110446490       21.2681901322  TIP3      363             0.0000000000
     52604      1723  TIP3      H2             34.5169951047      -37.2344422953       21.9687105899  TIP3      363             0.0000000000
     52605      1724  TIP3      OH2            15.9614167123      -37.1682624505       25.0311228293  TIP3      364             0.0000000000
     52606      1724  TIP3      H1             15.2128556820      -37.6988007926       24.7426539382  TIP3      364             0.0000000000
     52607      1724  TIP3      H2             16.5743438676      -37.3291174391       24.3143631068  TIP3      364             0.0000000000
     52608      1725  TIP3      OH2            30.9295805745      -22.9712611338       26.6636373275  TIP3      365             0.0000000000
     52609      1725  TIP3      H1             31.6171310910      -23.2337458238       26.0271621495  TIP3      365             0.0000000000
     52610      1725  TIP3      H2             31.4390914141      -22.4489523374       27.2966283760  TIP3      365             0.0000000000
     52611      1726  TIP3      OH2            16.1310026819      -38.9870968195       33.2286134957  TIP3      366             0.0000000000
     52612      1726  TIP3      H1             15.4343363557      -39.4944909360       33.6578181938  TIP3      366             0.0000000000
     52613      1726  TIP3      H2             15.7282781256      -38.5932925087       32.4462640165  TIP3      366             0.0000000000
     52614      1727  TIP3      OH2            18.2550566619      -25.6678111333       37.4263885724  TIP3      367             0.0000000000
     52615      1727  TIP3      H1             17.5728243972      -25.9161865483       36.7362924683  TIP3      367             0.0000000000
     52616      1727  TIP3      H2             18.0245571616      -26.3479948588       38.0840473051  TIP3      367             0.0000000000
     52617      1728  TIP3      OH2            21.2804193620      -25.0554085779       33.4463051283  TIP3      368             0.0000000000
     52618      1728  TIP3      H1             20.9109468126      -24.1882160710       33.2462642490  TIP3      368             0.0000000000
     52619      1728  TIP3      H2             22.2102715618      -24.9274649792       33.1875236817  TIP3      368             0.0000000000
     52620      1729  TIP3      OH2            25.7108816737      -23.3579628780       36.7633305519  TIP3      369             0.0000000000
     52621      1729  TIP3      H1             25.7473074886      -24.2507138226       37.1258665688  TIP3      369             0.0000000000
     52622      1729  TIP3      H2             26.4328628826      -23.3849912172       36.0559796347  TIP3      369             0.0000000000
     52623      1730  TIP3      OH2            27.8597747841      -22.3878885925       35.8099038543  TIP3      370             0.0000000000
     52624      1730  TIP3      H1             28.5873995395      -22.8932283955       35.3845452778  TIP3      370             0.0000000000
     52625      1730  TIP3      H2             28.3600509528      -21.9021435987       36.4719933462  TIP3      370             0.0000000000
     52626      1731  TIP3      OH2            18.6203035101      -21.9439298195       33.5324432055  TIP3      371             0.0000000000
     52627      1731  TIP3      H1             18.0780883164      -21.2606698752       33.0814702041  TIP3      371             0.0000000000
     52628      1731  TIP3      H2             18.3322805311      -21.8960730294       34.4268476748  TIP3      371             0.0000000000
     52629      1732  TIP3      OH2            25.8415039902      -22.3280135394       31.7759644495  TIP3      372             0.0000000000
     52630      1732  TIP3      H1             25.4303269107      -21.7786632834       31.0731707155  TIP3      372             0.0000000000
     52631      1732  TIP3      H2             26.0257906574      -21.6510777584       32.4580682975  TIP3      372             0.0000000000
     52632      1733  TIP3      OH2            28.1436562784      -23.3500590512       32.8378835110  TIP3      373             0.0000000000
     52633      1733  TIP3      H1             27.3144843307      -23.2746978966       32.3402050988  TIP3      373             0.0000000000
     52634      1733  TIP3      H2             28.6289745749      -22.5579357538       32.5970799865  TIP3      373             0.0000000000
     52635      1734  TIP3      OH2            30.7112729564      -21.8518419669       33.0182421316  TIP3      374             0.0000000000
     52636      1734  TIP3      H1             30.6877550245      -20.9114675780       32.7569231110  TIP3      374             0.0000000000
     52637      1734  TIP3      H2             30.9498788610      -22.2585509798       32.1563910058  TIP3      374             0.0000000000
     52638      1735  TIP3      OH2            18.0546110887      -23.2095399637       30.4267112103  TIP3      375             0.0000000000
     52639      1735  TIP3      H1             18.0826966642      -23.5749960370       31.3319019114  TIP3      375             0.0000000000
     52640      1735  TIP3      H2             18.9391083417      -23.4285253505       30.0495303598  TIP3      375             0.0000000000
     52641      1736  TIP3      OH2            20.1642076403      -24.3927717779       29.1773814820  TIP3      376             0.0000000000
     52642      1736  TIP3      H1             20.0376921073      -25.3481760012       29.2474662377  TIP3      376             0.0000000000
     52643      1736  TIP3      H2             21.0815844463      -24.2549336475       29.5028395168  TIP3      376             0.0000000000
     52644      1737  TIP3      OH2            22.7388373903      -23.9615730599       30.0011324492  TIP3      377             0.0000000000
     52645      1737  TIP3      H1             23.0522647892      -24.8023016136       29.6456025583  TIP3      377             0.0000000000
     52646      1737  TIP3      H2             22.9008064872      -24.0334404387       30.9432946645  TIP3      377             0.0000000000
     52647      1738  TIP3      OH2            26.4356394463      -38.0571467857       29.3451192236  TIP3      378             0.0000000000
     52648      1738  TIP3      H1             25.6524393468      -38.6288153711       29.4538668459  TIP3      378             0.0000000000
     52649      1738  TIP3      H2             26.8699772602      -38.5214738683       28.5933782794  TIP3      378             0.0000000000
     52650      1739  TIP3      OH2            31.8072945587      -40.1481499581       28.6336691955  TIP3      379             0.0000000000
     52651      1739  TIP3      H1             32.5560004665      -39.5435262423       28.4696738980  TIP3      379             0.0000000000
     52652      1739  TIP3      H2             31.3721658116      -39.4192176770       29.0308482131  TIP3      379             0.0000000000
     52653      1740  TIP3      OH2            33.2171960527      -38.8665939446       27.2125195216  TIP3      380             0.0000000000
     52654      1740  TIP3      H1             33.8917609812      -39.5168469767       27.0315527267  TIP3      380             0.0000000000
     52655      1740  TIP3      H2             33.6832465298      -38.0446041204       27.5105787538  TIP3      380             0.0000000000
     52656      1741  TIP3      OH2            17.2375197067      -39.0914925893       26.3231178749  TIP3      381             0.0000000000
     52657      1741  TIP3      H1             17.0522450346      -40.0050417917       26.5946571143  TIP3      381             0.0000000000
     52658      1741  TIP3      H2             18.1055636828      -39.5916609145       26.1461336523  TIP3      381             0.0000000000
     52659      1742  TIP3      OH2            17.0130444051      -39.8305491440       21.6079697145  TIP3      382             0.0000000000
     52660      1742  TIP3      H1             17.8327411348      -39.3576933607       21.8398812814  TIP3      382             0.0000000000
     52661      1742  TIP3      H2             16.6751802003      -39.7746847910       22.5404569707  TIP3      382             0.0000000000
     52662      1743  TIP3      OH2            22.2967888121      -40.1473693597       26.1550008290  TIP3      383             0.0000000000
     52663      1743  TIP3      H1             23.1942010734      -39.6971832646       26.1048052693  TIP3      383             0.0000000000
     52664      1743  TIP3      H2             22.5929428112      -40.3754596474       27.0525675563  TIP3      383             0.0000000000
     52665      1744  TIP3      OH2            28.2519594348      -39.3314382941       28.1178557331  TIP3      384             0.0000000000
     52666      1744  TIP3      H1             28.6283043604      -39.3889526333       27.2048790884  TIP3      384             0.0000000000
     52667      1744  TIP3      H2             27.9497278634      -40.2914511673       28.2155851320  TIP3      384             0.0000000000
     52668      1745  TIP3      OH2            29.9618244204      -39.6954974691       23.7258517497  TIP3      385             0.0000000000
     52669      1745  TIP3      H1             29.3355340916      -38.9728160666       23.9458294780  TIP3      385             0.0000000000
     52670      1745  TIP3      H2             29.6872121062      -40.4276508984       24.3021449440  TIP3      385             0.0000000000
     52671      1746  TIP3      OH2            17.4545161952      -23.8239135269       23.4938961060  TIP3      386             0.0000000000
     52672      1746  TIP3      H1             16.6376359570      -24.0000307069       23.0039043696  TIP3      386             0.0000000000
     52673      1746  TIP3      H2             17.2803518196      -23.0231913158       23.9785222307  TIP3      386             0.0000000000
     52674      1747  TIP3      OH2            19.4589395468      -38.1720441016       21.5021718361  TIP3      387             0.0000000000
     52675      1747  TIP3      H1             19.4704482362      -38.2042162396       20.4950853036  TIP3      387             0.0000000000
     52676      1747  TIP3      H2             19.8518376678      -37.2933908335       21.6397454127  TIP3      387             0.0000000000
     52677      1748  TIP3      OH2            25.1545025411      -37.4572013520       23.0871398976  TIP3      388             0.0000000000
     52678      1748  TIP3      H1             24.8374149268      -38.1729492835       23.6761462865  TIP3      388             0.0000000000
     52679      1748  TIP3      H2             24.6224668677      -36.7458537226       23.5242755330  TIP3      388             0.0000000000
     52680      1749  TIP3      OH2            26.1867368515      -22.7089261643       21.5274988536  TIP3      389             0.0000000000
     52681      1749  TIP3      H1             27.1708101500      -22.6778890068       21.4070231694  TIP3      389             0.0000000000
     52682      1749  TIP3      H2             25.9897041000      -23.3980390936       20.8312184787  TIP3      389             0.0000000000
     52683      1750  TIP3      OH2            32.9561424634      -23.1638065454       24.7074545800  TIP3      390             0.0000000000
     52684      1750  TIP3      H1             32.7006159376      -23.8909861802       24.1243642524  TIP3      390             0.0000000000
     52685      1750  TIP3      H2             32.8243672697      -22.3800465683       24.1293909489  TIP3      390             0.0000000000
     52686      1751  TIP3      OH2            18.2121809084      -38.2839549660       36.0379756413  TIP3      391             0.0000000000
     52687      1751  TIP3      H1             17.8063387325      -39.1558557324       36.2757134036  TIP3      391             0.0000000000
     52688      1751  TIP3      H2             19.0890157721      -38.7014496348       36.2434946886  TIP3      391             0.0000000000
     52689      1752  TIP3      OH2            20.8894112560      -39.5519383523       37.9646846395  TIP3      392             0.0000000000
     52690      1752  TIP3      H1             21.6504325659      -40.2055960650       38.0698435729  TIP3      392             0.0000000000
     52691      1752  TIP3      H2             20.3179082410      -40.1312152733       38.5302550045  TIP3      392             0.0000000000
     52692      1753  TIP3      OH2            19.3096070770      -22.7189531349       20.6859617232  TIP3      393             0.0000000000
     52693      1753  TIP3      H1             18.8319332088      -22.8598891508       21.5307845908  TIP3      393             0.0000000000
     52694      1753  TIP3      H2             19.8400210312      -23.5557407043       20.7487745116  TIP3      393             0.0000000000
     52695      1754  TIP3      OH2            29.0257143181      -40.3079253133       38.3736135955  TIP3      394             0.0000000000
     52696      1754  TIP3      H1             29.1334261254      -41.0951783748       38.9153453247  TIP3      394             0.0000000000
     52697      1754  TIP3      H2             29.7905602649      -40.5060805413       37.7736227922  TIP3      394             0.0000000000
     52698      1755  TIP3      OH2            32.1331720774      -24.4769267826       36.8513670963  TIP3      395             0.0000000000
     52699      1755  TIP3      H1             31.3492270322      -24.5656609240       36.2720294638  TIP3      395             0.0000000000
     52700      1755  TIP3      H2             32.0543468337      -23.5251489950       37.0684708252  TIP3      395             0.0000000000
     52701      1756  TIP3      OH2            38.1277300821      -31.3909179295       31.9722639053  TIP3      396             0.0000000000
     52702      1756  TIP3      H1             38.2179755790      -31.9484669391       32.7881428503  TIP3      396             0.0000000000
     52703      1756  TIP3      H2             38.8458745766      -30.7625442240       32.2596877097  TIP3      396             0.0000000000
     52704      1757  TIP3      OH2            38.4777209484      -27.6551337446       30.7277058420  TIP3      397             0.0000000000
     52705      1757  TIP3      H1             38.4183620607      -28.3133772761       30.0305985077  TIP3      397             0.0000000000
     52706      1757  TIP3      H2             39.4043888285      -27.3046174525       30.5825740285  TIP3      397             0.0000000000
     52707      1758  TIP3      OH2            35.2710098478      -33.6498725627       25.9609428670  TIP3      398             0.0000000000
     52708      1758  TIP3      H1             34.8632280852      -32.7772862252       25.8121053418  TIP3      398             0.0000000000
     52709      1758  TIP3      H2             34.8454431215      -34.1757925177       25.2646771380  TIP3      398             0.0000000000
     52710      1759  TIP3      OH2            35.8787328106      -31.5333986970       28.2309684419  TIP3      399             0.0000000000
     52711      1759  TIP3      H1             36.3201816902      -32.3565153846       28.4538238069  TIP3      399             0.0000000000
     52712      1759  TIP3      H2             36.4903703867      -31.3095617201       27.4731965309  TIP3      399             0.0000000000
     52713      1760  TIP3      OH2            36.5019664034      -33.9028803542       29.0955300827  TIP3      400             0.0000000000
     52714      1760  TIP3      H1             37.2844463709      -34.4391910399       29.3703689495  TIP3      400             0.0000000000
     52715      1760  TIP3      H2             36.6688435946      -34.1229924733       28.1522480175  TIP3      400             0.0000000000
     52716      1761  TIP3      OH2            39.5660211393      -27.4068151104       33.6863333084  TIP3      401             0.0000000000
     52717      1761  TIP3      H1             39.6796512785      -26.7475468902       32.9697425699  TIP3      401             0.0000000000
     52718      1761  TIP3      H2             38.6785951494      -27.7319397234       33.6857294568  TIP3      401             0.0000000000
     52719      1762  TIP3      OH2            35.6092820007      -27.9025078250       24.2933776527  TIP3      402             0.0000000000
     52720      1762  TIP3      H1             36.1834996500      -27.8073190583       23.4610063337  TIP3      402             0.0000000000
     52721      1762  TIP3      H2             36.2196107125      -27.2942562402       24.7585419360  TIP3      402             0.0000000000
     52722      1763  TIP3      OH2            40.4320750097      -30.1843978379       27.2685353533  TIP3      403             0.0000000000
     52723      1763  TIP3      H1             40.0833024566      -30.6109416429       26.4342082192  TIP3      403             0.0000000000
     52724      1763  TIP3      H2             40.9186850916      -31.0016951550       27.4602487150  TIP3      403             0.0000000000
     52725      1764  TIP3      OH2            38.3222643408      -31.2809124989       34.8063625883  TIP3      404             0.0000000000
     52726      1764  TIP3      H1             38.5686850256      -30.5306463780       35.4104288269  TIP3      404             0.0000000000
     52727      1764  TIP3      H2             37.5041884750      -30.9028963927       34.5016680300  TIP3      404             0.0000000000
     52728      1765  TIP3      OH2            40.3128444293      -24.5304347399       36.6216178187  TIP3      405             0.0000000000
     52729      1765  TIP3      H1             40.2755126468      -24.8845064060       35.6464394989  TIP3      405             0.0000000000
     52730      1765  TIP3      H2             39.5199329810      -25.1087005752       36.7229720397  TIP3      405             0.0000000000
     52731      1766  TIP3      OH2            39.7586018266      -31.5012748383       25.1767563205  TIP3      406             0.0000000000
     52732      1766  TIP3      H1             39.3771074977      -30.8407943809       24.5444598394  TIP3      406             0.0000000000
     52733      1766  TIP3      H2             39.0067749747      -32.1275597108       25.0990401015  TIP3      406             0.0000000000
     52734      1767  TIP3      OH2            35.1004023711      -29.0099436899       33.6195580670  TIP3      407             0.0000000000
     52735      1767  TIP3      H1             34.8488099330      -29.0475638555       32.6891961959  TIP3      407             0.0000000000
     52736      1767  TIP3      H2             35.4063165006      -29.9072196573       33.8592939725  TIP3      407             0.0000000000
     52737      1768  TIP3      OH2            35.1829463831      -26.2626956976       30.4736191417  TIP3      408             0.0000000000
     52738      1768  TIP3      H1             36.1493790123      -26.3126978634       30.4252890904  TIP3      408             0.0000000000
     52739      1768  TIP3      H2             35.0574974503      -25.4477496968       30.9726353206  TIP3      408             0.0000000000
     52740      1769  TIP3      OH2            38.4489842580      -23.2691370172       26.5572624955  TIP3      409             0.0000000000
     52741      1769  TIP3      H1             38.5231831265      -23.7141915489       27.4479280727  TIP3      409             0.0000000000
     52742      1769  TIP3      H2             37.6157085407      -23.7834245368       26.3261894639  TIP3      409             0.0000000000
     52743      1770  TIP3      OH2            37.4177804512      -28.4332430704       34.4199388200  TIP3      410             0.0000000000
     52744      1770  TIP3      H1             37.7623300317      -28.1258416001       35.2872855464  TIP3      410             0.0000000000
     52745      1770  TIP3      H2             36.5203227676      -28.0635023922       34.3894413627  TIP3      410             0.0000000000
     52746      1771  TIP3      OH2            40.2435244863      -34.2218861793       31.7528523225  TIP3      411             0.0000000000
     52747      1771  TIP3      H1             39.7263870455      -34.3002328718       32.5435215329  TIP3      411             0.0000000000
     52748      1771  TIP3      H2             40.3923713226      -33.2917116827       31.6006534240  TIP3      411             0.0000000000
     52749      1772  TIP3      OH2            39.4596161255      -34.4536423163       25.2461011205  TIP3      412             0.0000000000
     52750      1772  TIP3      H1             39.3111295661      -34.4707423795       26.2006840236  TIP3      412             0.0000000000
     52751      1772  TIP3      H2             40.4421139762      -34.4203431230       25.4056102542  TIP3      412             0.0000000000
     52752      1773  TIP3      OH2            37.9042719225      -33.8870738869       33.4279907754  TIP3      413             0.0000000000
     52753      1773  TIP3      H1             38.1853587876      -33.5619945090       34.3291458328  TIP3      413             0.0000000000
     52754      1773  TIP3      H2             37.7147171998      -34.8244875356       33.7062219758  TIP3      413             0.0000000000
     52755      1774  TIP3      OH2            34.6467912697      -36.7720731867       27.4451911019  TIP3      414             0.0000000000
     52756      1774  TIP3      H1             35.3109846524      -36.8717998112       28.1407542992  TIP3      414             0.0000000000
     52757      1774  TIP3      H2             35.1384165528      -37.0791069172       26.6715074551  TIP3      414             0.0000000000
     52758      1775  TIP3      OH2            35.9425175312      -36.1688295143       22.5883939452  TIP3      415             0.0000000000
     52759      1775  TIP3      H1             36.5456954203      -35.4096536323       22.4059429117  TIP3      415             0.0000000000
     52760      1775  TIP3      H2             35.3365525119      -35.6161894382       23.1762573038  TIP3      415             0.0000000000
     52761      1776  TIP3      OH2            40.1143723777      -34.1233688465       21.6654761342  TIP3      416             0.0000000000
     52762      1776  TIP3      H1             39.4908351966      -34.0806826982       20.9567709128  TIP3      416             0.0000000000
     52763      1776  TIP3      H2             40.8089086111      -33.4850558880       21.4179373084  TIP3      416             0.0000000000
     52764      1777  TIP3      OH2            38.0315098176      -29.4219966733       36.7441805169  TIP3      417             0.0000000000
     52765      1777  TIP3      H1             38.8388008721      -29.1022110047       37.2422512384  TIP3      417             0.0000000000
     52766      1777  TIP3      H2             37.4176699846      -29.0967851926       37.3954011368  TIP3      417             0.0000000000
     52767      1778  TIP3      OH2            38.5074393131      -29.7790201872       29.5521895189  TIP3      418             0.0000000000
     52768      1778  TIP3      H1             39.2372731426      -29.8216065368       28.8752619867  TIP3      418             0.0000000000
     52769      1778  TIP3      H2             38.5444591565      -30.5524147161       30.1167724232  TIP3      418             0.0000000000
     52770      1779  TIP3      OH2            35.6126256940      -31.5150410171       34.6564448666  TIP3      419             0.0000000000
     52771      1779  TIP3      H1             35.7610768496      -31.8121735623       35.5917546012  TIP3      419             0.0000000000
     52772      1779  TIP3      H2             34.8549323655      -32.0561696963       34.3849463177  TIP3      419             0.0000000000
     52773      1780  TIP3      OH2            36.6304809966      -31.4257632669       21.2145280759  TIP3      420             0.0000000000
     52774      1780  TIP3      H1             37.3187954365      -30.9386665755       21.7223422416  TIP3      420             0.0000000000
     52775      1780  TIP3      H2             35.7999557813      -31.2384834083       21.6716625564  TIP3      420             0.0000000000
     52776      1781  TIP3      OH2            37.2128266496      -36.6314058673       34.4966162581  TIP3      421             0.0000000000
     52777      1781  TIP3      H1             36.3176411633      -36.4241789436       34.1728523974  TIP3      421             0.0000000000
     52778      1781  TIP3      H2             37.0990048429      -37.6036471028       34.6099410707  TIP3      421             0.0000000000
     52779      1782  TIP3      OH2            36.6062819361      -24.9437674289       32.8586192174  TIP3      422             0.0000000000
     52780      1782  TIP3      H1             37.2017226327      -25.6893275896       32.6344320962  TIP3      422             0.0000000000
     52781      1782  TIP3      H2             37.1430621330      -24.6019859996       33.5918208025  TIP3      422             0.0000000000
     52782      1783  TIP3      OH2            37.8286571187      -29.3147574024       22.3888727833  TIP3      423             0.0000000000
     52783      1783  TIP3      H1             37.5515539137      -29.2574270644       23.3236564921  TIP3      423             0.0000000000
     52784      1783  TIP3      H2             38.6758130057      -28.8584164613       22.5570617317  TIP3      423             0.0000000000
     52785      1784  TIP3      OH2            39.2221971918      -26.3881062052       21.2075867891  TIP3      424             0.0000000000
     52786      1784  TIP3      H1             39.2460696520      -26.4576436234       22.1728107390  TIP3      424             0.0000000000
     52787      1784  TIP3      H2             39.2696615400      -27.4026616235       21.0722642515  TIP3      424             0.0000000000
     52788      1785  TIP3      OH2            36.9984406448      -34.3937445105       20.8195420794  TIP3      425             0.0000000000
     52789      1785  TIP3      H1             37.0962942274      -33.4577187762       21.1563414015  TIP3      425             0.0000000000
     52790      1785  TIP3      H2             36.0697436997      -34.3952055710       20.6847095739  TIP3      425             0.0000000000
     52791      1786  TIP3      OH2            36.5925065749      -24.7999483496       25.8406648013  TIP3      426             0.0000000000
     52792      1786  TIP3      H1             35.7042764794      -25.0172148919       25.5944999640  TIP3      426             0.0000000000
     52793      1786  TIP3      H2             37.1633817944      -25.0742049630       25.0817909913  TIP3      426             0.0000000000
     52794      1787  TIP3      OH2            36.0621386252      -22.9437268607       37.0598969150  TIP3      427             0.0000000000
     52795      1787  TIP3      H1             36.5310963803      -23.1995735534       37.8434502583  TIP3      427             0.0000000000
     52796      1787  TIP3      H2             35.5561664264      -23.7585294152       36.8958422774  TIP3      427             0.0000000000
     52797      1788  TIP3      OH2            35.7728740770      -29.1802927653       38.2037201417  TIP3      428             0.0000000000
     52798      1788  TIP3      H1             36.1208919680      -30.0328573807       37.7994148929  TIP3      428             0.0000000000
     52799      1788  TIP3      H2             35.2004455828      -28.9256248969       37.4435416210  TIP3      428             0.0000000000
     52800      1789  TIP3      OH2            39.6336546376      -28.7751014116       20.4704093898  TIP3      429             0.0000000000
     52801      1789  TIP3      H1             40.0997667837      -29.5639037065       20.8370083271  TIP3      429             0.0000000000
     52802      1789  TIP3      H2             40.4517231144      -28.6561821689       19.8910097550  TIP3      429             0.0000000000
     52803      1790  TIP3      OH2            36.7188557366      -31.9399651270       37.4511230831  TIP3      430             0.0000000000
     52804      1790  TIP3      H1             37.2307856674      -32.7541698920       37.3570325176  TIP3      430             0.0000000000
     52805      1790  TIP3      H2             36.5739932235      -31.9814456197       38.4140839711  TIP3      430             0.0000000000
     52806      1791  TIP3      OH2            39.5747595410      -34.4822820812       38.0094935736  TIP3      431             0.0000000000
     52807      1791  TIP3      H1             38.7536186949      -34.8743692208       37.6729038140  TIP3      431             0.0000000000
     52808      1791  TIP3      H2             40.1578255956      -34.5557398063       37.2248736445  TIP3      431             0.0000000000
     52809      1792  TIP3      OH2            35.8113702690      -27.3738242588       21.2030372384  TIP3      432             0.0000000000
     52810      1792  TIP3      H1             36.7470011374      -27.2226830989       21.5645512874  TIP3      432             0.0000000000
     52811      1792  TIP3      H2             36.0912660448      -28.0021703656       20.5341002148  TIP3      432             0.0000000000
     52812      1793  TIP3      OH2            35.4918273444      -23.7563296577       28.1629778637  TIP3      433             0.0000000000
     52813      1793  TIP3      H1             35.2444957657      -24.6738270905       28.3216510288  TIP3      433             0.0000000000
     52814      1793  TIP3      H2             35.7761813456      -23.4809947882       29.0453136292  TIP3      433             0.0000000000
     52815      1794  TIP3      OH2            35.6966942454      -30.9870218134       30.7170283871  TIP3      434             0.0000000000
     52816      1794  TIP3      H1             35.6689406707      -30.7767205442       29.7181843018  TIP3      434             0.0000000000
     52817      1794  TIP3      H2             36.5234797580      -30.5461375439       30.9600548801  TIP3      434             0.0000000000
     52818      1795  TIP3      OH2            35.1928555638      -35.4151755443       36.7532494463  TIP3      435             0.0000000000
     52819      1795  TIP3      H1             36.1173426480      -35.6245733362       36.9388374462  TIP3      435             0.0000000000
     52820      1795  TIP3      H2             34.7318761519      -36.2038298444       37.0689398882  TIP3      435             0.0000000000
     52821      1796  TIP3      OH2            34.8144769880      -34.1748841526       30.8510084028  TIP3      436             0.0000000000
     52822      1796  TIP3      H1             35.1181833292      -34.4280897341       29.9299452411  TIP3      436             0.0000000000
     52823      1796  TIP3      H2             34.7663613559      -33.2333667054       30.7879064189  TIP3      436             0.0000000000
     52824      1797  TIP3      OH2            36.7594088972      -25.4796101085       37.6761004945  TIP3      437             0.0000000000
     52825      1797  TIP3      H1             36.3050016103      -25.7911024910       36.8569803365  TIP3      437             0.0000000000
     52826      1797  TIP3      H2             36.7656635787      -26.2101806584       38.2786089701  TIP3      437             0.0000000000
     52827      1798  TIP3      OH2            40.3867005632      -24.5076574414       34.0757945330  TIP3      438             0.0000000000
     52828      1798  TIP3      H1             39.7529843980      -24.2602807931       33.3685503682  TIP3      438             0.0000000000
     52829      1798  TIP3      H2             40.9769270665      -24.9553841455       33.3998014958  TIP3      438             0.0000000000
     52830      1799  TIP3      OH2            37.5171648882      -21.7802278409       33.4648252658  TIP3      439             0.0000000000
     52831      1799  TIP3      H1             36.8097481056      -21.2573521483       33.0589309824  TIP3      439             0.0000000000
     52832      1799  TIP3      H2             37.1745679751      -21.9679325034       34.3445384751  TIP3      439             0.0000000000
     52833      1800  TIP3      OH2            39.9760874077      -22.1037510902       32.7088545280  TIP3      440             0.0000000000
     52834      1800  TIP3      H1             39.0429376436      -22.1169595629       32.9685063152  TIP3      440             0.0000000000
     52835      1800  TIP3      H2             39.9569556069      -21.7252575504       31.8043302728  TIP3      440             0.0000000000
     52836      1801  TIP3      OH2            36.8858532732      -23.1261945478       30.4749495618  TIP3      441             0.0000000000
     52837      1801  TIP3      H1             36.9601325102      -23.6195153583       31.3142728690  TIP3      441             0.0000000000
     52838      1801  TIP3      H2             37.7400334704      -23.4566170033       30.0854330563  TIP3      441             0.0000000000
     52839      1802  TIP3      OH2            38.5489116434      -24.4326836613       28.9787842591  TIP3      442             0.0000000000
     52840      1802  TIP3      H1             38.7537107411      -25.3362628928       29.2489931171  TIP3      442             0.0000000000
     52841      1802  TIP3      H2             39.4101765634      -24.1779490980       29.4790554143  TIP3      442             0.0000000000
     52842      1803  TIP3      OH2            36.3113958405      -23.8221462818       23.4061650348  TIP3      443             0.0000000000
     52843      1803  TIP3      H1             35.4630541760      -23.9122914152       22.9551461956  TIP3      443             0.0000000000
     52844      1803  TIP3      H2             36.1356626617      -23.0089047343       23.8977058808  TIP3      443             0.0000000000
     52845      1804  TIP3      OH2            38.2079699398      -38.0842833331       21.1705288126  TIP3      444             0.0000000000
     52846      1804  TIP3      H1             38.8178641098      -38.6478606506       20.6595806604  TIP3      444             0.0000000000
     52847      1804  TIP3      H2             38.8408415182      -37.6541648116       21.8127342708  TIP3      444             0.0000000000
     52848      1805  TIP3      OH2            38.2524616019      -22.8101769101       20.5813736845  TIP3      445             0.0000000000
     52849      1805  TIP3      H1             37.6242729317      -22.7702331845       21.3774872300  TIP3      445             0.0000000000
     52850      1805  TIP3      H2             38.5954390354      -23.7001286458       20.7976886655  TIP3      445             0.0000000000
     52851      1806  TIP3      OH2           -28.7709497411      -11.6394430525       26.7255146229  TIP3      446             0.0000000000
     52852      1806  TIP3      H1            -28.8345058047      -10.6730592013       26.8115814615  TIP3      446             0.0000000000
     52853      1806  TIP3      H2            -29.5857671752      -11.8977945120       26.2750942403  TIP3      446             0.0000000000
     52854      1807  TIP3      OH2           -29.8343291461      -12.4722403738       30.2703970592  TIP3      447             0.0000000000
     52855      1807  TIP3      H1            -30.1147707216      -13.0521985189       30.9838210226  TIP3      447             0.0000000000
     52856      1807  TIP3      H2            -30.3258482473      -12.8241756877       29.5053736637  TIP3      447             0.0000000000
     52857      1808  TIP3      OH2           -26.2371995249       -9.4996384467       28.5664887774  TIP3      448             0.0000000000
     52858      1808  TIP3      H1            -26.6901681861      -10.1670420988       29.0594465135  TIP3      448             0.0000000000
     52859      1808  TIP3      H2            -26.2226979945       -8.7551162065       29.1782101676  TIP3      448             0.0000000000
     52860      1809  TIP3      OH2           -36.6944289093       -8.2481611958       30.3595795217  TIP3      449             0.0000000000
     52861      1809  TIP3      H1            -37.0367623740       -9.1628658206       30.1901497266  TIP3      449             0.0000000000
     52862      1809  TIP3      H2            -35.7416263342       -8.4902381477       30.4312754344  TIP3      449             0.0000000000
     52863      1810  TIP3      OH2           -31.5350847239       -9.9629551421       30.7187750388  TIP3      450             0.0000000000
     52864      1810  TIP3      H1            -31.2872239495      -10.6450915288       30.0864171054  TIP3      450             0.0000000000
     52865      1810  TIP3      H2            -30.7707491863       -9.8185525668       31.2795413023  TIP3      450             0.0000000000
     52866      1811  TIP3      OH2           -22.9904977313      -18.2898251361       31.5526217077  TIP3      451             0.0000000000
     52867      1811  TIP3      H1            -22.7978483837      -17.6873818193       32.2714001166  TIP3      451             0.0000000000
     52868      1811  TIP3      H2            -22.4569390162      -17.8963842974       30.8539678356  TIP3      451             0.0000000000
     52869      1812  TIP3      OH2           -28.3938768916      -15.4816615053       31.1242610794  TIP3      452             0.0000000000
     52870      1812  TIP3      H1            -28.2543246077      -16.4685795136       31.0602450003  TIP3      452             0.0000000000
     52871      1812  TIP3      H2            -28.5120114986      -15.4095979457       30.1387078267  TIP3      452             0.0000000000
     52872      1813  TIP3      OH2           -35.4316193508       -8.8515435397       33.5198502928  TIP3      453             0.0000000000
     52873      1813  TIP3      H1            -35.4813707865       -8.0170233745       33.0452705295  TIP3      453             0.0000000000
     52874      1813  TIP3      H2            -36.3376433995       -9.0805146536       33.7835488504  TIP3      453             0.0000000000
     52875      1814  TIP3      OH2           -39.2390260488       -9.2186789900       24.1939184684  TIP3      454             0.0000000000
     52876      1814  TIP3      H1            -39.7144419224       -9.0996400547       23.3730236639  TIP3      454             0.0000000000
     52877      1814  TIP3      H2            -39.3944029009       -8.4443000460       24.7363510727  TIP3      454             0.0000000000
     52878      1815  TIP3      OH2           -25.7288294109       -7.5850936379       31.0225445432  TIP3      455             0.0000000000
     52879      1815  TIP3      H1            -26.7159951426       -7.5532544684       31.0988076517  TIP3      455             0.0000000000
     52880      1815  TIP3      H2            -25.4740330005       -6.7144061077       30.7022647505  TIP3      455             0.0000000000
     52881      1816  TIP3      OH2           -25.4961147517      -19.3076649263       32.4272596119  TIP3      456             0.0000000000
     52882      1816  TIP3      H1            -26.1833260168      -18.6930115329       32.2079157911  TIP3      456             0.0000000000
     52883      1816  TIP3      H2            -24.7256487301      -19.0212163015       31.8707983400  TIP3      456             0.0000000000
     52884      1817  TIP3      OH2           -24.6540798165       -9.3393497540       34.6097541692  TIP3      457             0.0000000000
     52885      1817  TIP3      H1            -24.5314896788       -9.9578326874       33.8371919765  TIP3      457             0.0000000000
     52886      1817  TIP3      H2            -24.4918234440       -8.4975148374       34.1061428602  TIP3      457             0.0000000000
     52887      1818  TIP3      OH2           -26.7325574564      -12.2383265341       25.2350839788  TIP3      458             0.0000000000
     52888      1818  TIP3      H1            -27.4468981502      -11.9640840926       25.8713695809  TIP3      458             0.0000000000
     52889      1818  TIP3      H2            -26.2839459532      -12.9086043158       25.7650125851  TIP3      458             0.0000000000
     52890      1819  TIP3      OH2           -26.5536439278      -14.0580273153       34.6358950720  TIP3      459             0.0000000000
     52891      1819  TIP3      H1            -26.5696298888      -13.2646546559       35.1935722221  TIP3      459             0.0000000000
     52892      1819  TIP3      H2            -27.4761013471      -14.2037285242       34.5138744071  TIP3      459             0.0000000000
     52893      1820  TIP3      OH2           -33.7725474254       -8.1725369917       29.8441935947  TIP3      460             0.0000000000
     52894      1820  TIP3      H1            -33.8191267933       -8.7558427429       29.0677764456  TIP3      460             0.0000000000
     52895      1820  TIP3      H2            -32.9943939825       -8.5411390744       30.2960383699  TIP3      460             0.0000000000
     52896      1821  TIP3      OH2           -28.3398829541       -7.2188344871       31.5464802924  TIP3      461             0.0000000000
     52897      1821  TIP3      H1            -28.7359386131       -6.6086399956       32.1603389713  TIP3      461             0.0000000000
     52898      1821  TIP3      H2            -28.6396769287       -8.0781080040       31.9170486658  TIP3      461             0.0000000000
     52899      1822  TIP3      OH2           -33.7803033049       -8.3385270827       35.5744700892  TIP3      462             0.0000000000
     52900      1822  TIP3      H1            -34.2689026471       -7.5999269846       35.9897745554  TIP3      462             0.0000000000
     52901      1822  TIP3      H2            -34.4346029778       -8.5909573749       34.8523074671  TIP3      462             0.0000000000
     52902      1823  TIP3      OH2           -27.8579358760      -13.0154317431       23.1070928187  TIP3      463             0.0000000000
     52903      1823  TIP3      H1            -27.3719818105      -12.9593666248       23.9738671018  TIP3      463             0.0000000000
     52904      1823  TIP3      H2            -27.1094980637      -13.1308936374       22.5491912134  TIP3      463             0.0000000000
     52905      1824  TIP3      OH2           -35.6402640515       -6.2496198041       36.2388555961  TIP3      464             0.0000000000
     52906      1824  TIP3      H1            -35.5899375619       -6.4883666463       35.2956022707  TIP3      464             0.0000000000
     52907      1824  TIP3      H2            -36.5270718987       -6.5348895964       36.5277432874  TIP3      464             0.0000000000
     52908      1825  TIP3      OH2           -23.0071789413       -6.9446699832       21.0548500045  TIP3      465             0.0000000000
     52909      1825  TIP3      H1            -22.9672156734       -6.0302746002       21.3715007560  TIP3      465             0.0000000000
     52910      1825  TIP3      H2            -22.0802712077       -7.2084890716       21.0981599404  TIP3      465             0.0000000000
     52911      1826  TIP3      OH2           -39.7074293884      -10.2718718422       33.6231428114  TIP3      466             0.0000000000
     52912      1826  TIP3      H1            -40.3344811941      -10.1975576252       32.8739861892  TIP3      466             0.0000000000
     52913      1826  TIP3      H2            -39.8604969344      -11.2044124932       33.8061490612  TIP3      466             0.0000000000
     52914      1827  TIP3      OH2           -40.1881401361       -7.4153796107       30.6293360680  TIP3      467             0.0000000000
     52915      1827  TIP3      H1            -39.3203177769       -7.4830757932       30.1659441126  TIP3      467             0.0000000000
     52916      1827  TIP3      H2            -40.4572461608       -6.4522443814       30.6466577048  TIP3      467             0.0000000000
     52917      1828  TIP3      OH2           -21.9282906028       -6.7220436962       36.3512512381  TIP3      468             0.0000000000
     52918      1828  TIP3      H1            -22.1705993248       -7.6074425821       35.9839217192  TIP3      468             0.0000000000
     52919      1828  TIP3      H2            -22.8663365316       -6.3374444115       36.4268739472  TIP3      468             0.0000000000
     52920      1829  TIP3      OH2           -31.0411197411       -7.2605454447       35.1812376887  TIP3      469             0.0000000000
     52921      1829  TIP3      H1            -31.0475904919       -6.3096674767       35.3931005394  TIP3      469             0.0000000000
     52922      1829  TIP3      H2            -32.0009414892       -7.4319570808       35.1625836379  TIP3      469             0.0000000000
     52923      1830  TIP3      OH2           -36.9896404794       -4.8642568193       26.4275620554  TIP3      470             0.0000000000
     52924      1830  TIP3      H1            -36.8074230379       -4.9051431315       27.4254296172  TIP3      470             0.0000000000
     52925      1830  TIP3      H2            -37.9396566262       -4.8509047037       26.5184854307  TIP3      470             0.0000000000
     52926      1831  TIP3      OH2           -24.9895743326      -15.1509161436       36.6350302934  TIP3      471             0.0000000000
     52927      1831  TIP3      H1            -25.2960614226      -14.7551315278       35.8260556553  TIP3      471             0.0000000000
     52928      1831  TIP3      H2            -24.8113161413      -16.0685080101       36.3286556403  TIP3      471             0.0000000000
     52929      1832  TIP3      OH2           -37.9402643489       -8.6358376023       34.6715676992  TIP3      472             0.0000000000
     52930      1832  TIP3      H1            -37.5310173848       -9.1676118696       35.3813442230  TIP3      472             0.0000000000
     52931      1832  TIP3      H2            -38.5704357887       -9.3284558801       34.3210409288  TIP3      472             0.0000000000
     52932      1833  TIP3      OH2           -27.2353120778      -16.8597083154       34.7780590970  TIP3      473             0.0000000000
     52933      1833  TIP3      H1            -27.6672803834      -17.0489042388       35.6314709374  TIP3      473             0.0000000000
     52934      1833  TIP3      H2            -27.2565765458      -15.9254531864       34.6811360106  TIP3      473             0.0000000000
     52935      1834  TIP3      OH2           -25.9551122120      -12.2309513814       20.3348272139  TIP3      474             0.0000000000
     52936      1834  TIP3      H1            -26.0920035798      -12.1858207828       19.3725416129  TIP3      474             0.0000000000
     52937      1834  TIP3      H2            -25.2514714209      -11.5481912188       20.5406400341  TIP3      474             0.0000000000
     52938      1835  TIP3      OH2           -30.3778649633      -14.5512678129       36.8727927386  TIP3      475             0.0000000000
     52939      1835  TIP3      H1            -31.0275962406      -15.2338024773       37.1709750880  TIP3      475             0.0000000000
     52940      1835  TIP3      H2            -29.6174672051      -14.7455661043       37.4385861831  TIP3      475             0.0000000000
     52941      1836  TIP3      OH2           -28.4888451646      -15.2598311542       28.2799655068  TIP3      476             0.0000000000
     52942      1836  TIP3      H1            -28.7355711311      -14.6956568328       27.5283016446  TIP3      476             0.0000000000
     52943      1836  TIP3      H2            -28.3477345918      -16.1071275623       27.8107869125  TIP3      476             0.0000000000
     52944      1837  TIP3      OH2           -29.7118393404      -13.7347877279       32.7594849755  TIP3      477             0.0000000000
     52945      1837  TIP3      H1            -29.4208324830      -14.4687957133       32.1612219609  TIP3      477             0.0000000000
     52946      1837  TIP3      H2            -30.0428605849      -14.2875273576       33.5372811127  TIP3      477             0.0000000000
     52947      1838  TIP3      OH2           -32.4288855769      -17.6692255962       27.6543110069  TIP3      478             0.0000000000
     52948      1838  TIP3      H1            -33.3672284120      -17.7294405373       27.8788151600  TIP3      478             0.0000000000
     52949      1838  TIP3      H2            -31.9666506509      -17.8429460925       28.4779595485  TIP3      478             0.0000000000
     52950      1839  TIP3      OH2           -28.1038871787      -18.3265764127       30.9082079387  TIP3      479             0.0000000000
     52951      1839  TIP3      H1            -28.7475738635      -18.4265759217       31.6406600412  TIP3      479             0.0000000000
     52952      1839  TIP3      H2            -28.5402429559      -18.7056860017       30.1440604930  TIP3      479             0.0000000000
     52953      1840  TIP3      OH2           -24.8576875892      -11.0821083732       32.5332026451  TIP3      480             0.0000000000
     52954      1840  TIP3      H1            -24.1628269569      -10.7931247135       31.8888407042  TIP3      480             0.0000000000
     52955      1840  TIP3      H2            -25.6108450008      -11.0711058606       31.9231501900  TIP3      480             0.0000000000
     52956      1841  TIP3      OH2           -28.1239044834      -17.5879401477       21.8650671852  TIP3      481             0.0000000000
     52957      1841  TIP3      H1            -29.0697892996      -17.4376883682       21.6543323511  TIP3      481             0.0000000000
     52958      1841  TIP3      H2            -27.8403583336      -16.7324636377       22.2201690344  TIP3      481             0.0000000000
     52959      1842  TIP3      OH2           -30.2880122583      -10.0598003387       35.1814039085  TIP3      482             0.0000000000
     52960      1842  TIP3      H1            -30.9875159386      -10.6195897313       35.5600459665  TIP3      482             0.0000000000
     52961      1842  TIP3      H2            -30.7847228106       -9.2491391069       34.8948937040  TIP3      482             0.0000000000
     52962      1843  TIP3      OH2           -27.4093329624      -15.6594651694       23.5313156001  TIP3      483             0.0000000000
     52963      1843  TIP3      H1            -26.5148864472      -15.8443926917       23.9015497079  TIP3      483             0.0000000000
     52964      1843  TIP3      H2            -27.3069448174      -14.8719881025       23.0218188005  TIP3      483             0.0000000000
     52965      1844  TIP3      OH2           -29.8746155502       -8.9266654810       22.6635469911  TIP3      484             0.0000000000
     52966      1844  TIP3      H1            -30.1014030439       -8.0544993567       23.0598861914  TIP3      484             0.0000000000
     52967      1844  TIP3      H2            -30.6074569165       -9.4768234696       22.9632141498  TIP3      484             0.0000000000
     52968      1845  TIP3      OH2           -28.1920138651       -7.7915295667       34.9286771389  TIP3      485             0.0000000000
     52969      1845  TIP3      H1            -29.0506189630       -7.4937857542       34.5657142248  TIP3      485             0.0000000000
     52970      1845  TIP3      H2            -28.2173881252       -7.2852259599       35.7644471888  TIP3      485             0.0000000000
     52971      1846  TIP3      OH2           -22.5468425020       -9.5227624893       36.0558376565  TIP3      486             0.0000000000
     52972      1846  TIP3      H1            -23.3062587219       -9.4813632881       35.4214352587  TIP3      486             0.0000000000
     52973      1846  TIP3      H2            -21.9003744791       -9.7598555921       35.3280717853  TIP3      486             0.0000000000
     52974      1847  TIP3      OH2           -27.1049036905      -12.1016419680       30.9965553220  TIP3      487             0.0000000000
     52975      1847  TIP3      H1            -27.9520297123      -11.9928359658       30.5005474162  TIP3      487             0.0000000000
     52976      1847  TIP3      H2            -26.5576900908      -12.5397906907       30.2724309672  TIP3      487             0.0000000000
     52977      1848  TIP3      OH2           -34.4739896866       -7.5709570603       26.7012721395  TIP3      488             0.0000000000
     52978      1848  TIP3      H1            -33.9833335756       -6.7290482675       26.7085280898  TIP3      488             0.0000000000
     52979      1848  TIP3      H2            -35.3698102631       -7.2631656715       26.6099886207  TIP3      488             0.0000000000
     52980      1849  TIP3      OH2           -34.3953098297       -4.8302056334       25.9093335904  TIP3      489             0.0000000000
     52981      1849  TIP3      H1            -35.3389287226       -4.7048148221       26.1054185068  TIP3      489             0.0000000000
     52982      1849  TIP3      H2            -33.9887748428       -4.0474265687       26.3256716160  TIP3      489             0.0000000000
     52983      1850  TIP3      OH2           -29.0440681788       -9.6662200878       32.4563383601  TIP3      490             0.0000000000
     52984      1850  TIP3      H1            -29.4529601469       -9.8949777554       33.3015362681  TIP3      490             0.0000000000
     52985      1850  TIP3      H2            -28.3917575594      -10.3319416230       32.2271979822  TIP3      490             0.0000000000
     52986      1851  TIP3      OH2           -26.8663649769       -9.0073167799       21.4540785463  TIP3      491             0.0000000000
     52987      1851  TIP3      H1            -26.4638306519       -8.9980615616       22.3482163633  TIP3      491             0.0000000000
     52988      1851  TIP3      H2            -27.7478610678       -8.6219185759       21.6102196247  TIP3      491             0.0000000000
     52989      1852  TIP3      OH2           -25.9292972971      -10.1355411123       23.6495787879  TIP3      492             0.0000000000
     52990      1852  TIP3      H1            -26.1803466700      -10.7267892448       24.3861844402  TIP3      492             0.0000000000
     52991      1852  TIP3      H2            -25.0420904112       -9.8646909503       23.9668911900  TIP3      492             0.0000000000
     52992      1853  TIP3      OH2           -37.7700032615       -5.6899038017       32.9841804141  TIP3      493             0.0000000000
     52993      1853  TIP3      H1            -37.5402360998       -6.6305271754       32.9217230896  TIP3      493             0.0000000000
     52994      1853  TIP3      H2            -38.1182592861       -5.5168138162       33.8674031550  TIP3      493             0.0000000000
     52995      1854  TIP3      OH2           -32.9470322631       -7.7068083986       19.8681179276  TIP3      494             0.0000000000
     52996      1854  TIP3      H1            -32.3185742825       -8.2974503147       19.4331439287  TIP3      494             0.0000000000
     52997      1854  TIP3      H2            -32.8914191107       -7.9339428494       20.8140612803  TIP3      494             0.0000000000
     52998      1855  TIP3      OH2           -33.9614569193       -7.9701932868       22.4561604299  TIP3      495             0.0000000000
     52999      1855  TIP3      H1            -33.5893813302       -8.5105454128       23.1853046563  TIP3      495             0.0000000000
     53000      1855  TIP3      H2            -33.6680498564       -7.0826936259       22.7455437966  TIP3      495             0.0000000000
     53001      1856  TIP3      OH2           -37.3803815049      -10.6289407618       22.7421928629  TIP3      496             0.0000000000
     53002      1856  TIP3      H1            -37.9875617127      -10.5281314822       23.5257656345  TIP3      496             0.0000000000
     53003      1856  TIP3      H2            -36.7304611439       -9.9644681452       22.8315415205  TIP3      496             0.0000000000
     53004      1857  TIP3      OH2           -29.4201428546      -18.0820991445       33.1726028535  TIP3      497             0.0000000000
     53005      1857  TIP3      H1            -28.8019356445      -18.0481190014       33.9140198731  TIP3      497             0.0000000000
     53006      1857  TIP3      H2            -29.9280059761      -18.8820202554       33.4295907221  TIP3      497             0.0000000000
     53007      1858  TIP3      OH2           -31.3647829330      -16.8426193469       25.1732590615  TIP3      498             0.0000000000
     53008      1858  TIP3      H1            -30.6961217863      -16.1674298030       25.1769871550  TIP3      498             0.0000000000
     53009      1858  TIP3      H2            -31.7720582727      -16.9070801595       26.0477205971  TIP3      498             0.0000000000
     53010      1859  TIP3      OH2           -30.5815033630      -15.5581198762       34.2995773440  TIP3      499             0.0000000000
     53011      1859  TIP3      H1            -30.9766410266      -15.2403294815       35.1435040073  TIP3      499             0.0000000000
     53012      1859  TIP3      H2            -30.5283076595      -16.5249784173       34.4760235196  TIP3      499             0.0000000000
     53013      1860  TIP3      OH2           -24.7643365200      -17.7708513432       35.2300654380  TIP3      500             0.0000000000
     53014      1860  TIP3      H1            -25.6947672533      -17.5901510892       35.0375938617  TIP3      500             0.0000000000
     53015      1860  TIP3      H2            -24.4214367647      -17.8709746630       34.3222818039  TIP3      500             0.0000000000
     53016      1861  TIP3      OH2           -26.2368238435      -14.0642799806       29.4273429122  TIP3      501             0.0000000000
     53017      1861  TIP3      H1            -26.8981890713      -14.5252069791       28.8766279914  TIP3      501             0.0000000000
     53018      1861  TIP3      H2            -25.6268311305      -14.7729902703       29.6935038587  TIP3      501             0.0000000000
     53019      1862  TIP3      OH2           -36.7218347196       -7.8925434092       21.6616063585  TIP3      502             0.0000000000
     53020      1862  TIP3      H1            -35.9477747141       -7.5136450659       22.1052905426  TIP3      502             0.0000000000
     53021      1862  TIP3      H2            -36.2649745794       -8.7048721447       21.3695536422  TIP3      502             0.0000000000
     53022      1863  TIP3      OH2           -38.5702359304       -6.8949700712       25.4411070322  TIP3      503             0.0000000000
     53023      1863  TIP3      H1            -39.3984776837       -6.5304360470       25.8338366637  TIP3      503             0.0000000000
     53024      1863  TIP3      H2            -38.0219341728       -6.1278832892       25.5076267170  TIP3      503             0.0000000000
     53025      1864  TIP3      OH2           -39.2450722404       -4.2809073558       37.2837470451  TIP3      504             0.0000000000
     53026      1864  TIP3      H1            -38.8420530241       -4.6613674139       38.0625178946  TIP3      504             0.0000000000
     53027      1864  TIP3      H2            -39.8617170340       -4.9760363888       37.0120700958  TIP3      504             0.0000000000
     53028      1865  TIP3      OH2           -34.6224698943       -5.1712295541       38.6320825365  TIP3      505             0.0000000000
     53029      1865  TIP3      H1            -33.9660036424       -5.7553806336       39.0261502327  TIP3      505             0.0000000000
     53030      1865  TIP3      H2            -34.7630718656       -5.5636939097       37.7485740627  TIP3      505             0.0000000000
     53031      1866  TIP3      OH2           -30.6919549051       -5.7156851997       20.0302542333  TIP3      506             0.0000000000
     53032      1866  TIP3      H1            -31.3053971636       -6.3098449423       20.4289177241  TIP3      506             0.0000000000
     53033      1866  TIP3      H2            -29.9094334382       -6.2402954720       19.8977433142  TIP3      506             0.0000000000
     53034      1867  TIP3      OH2           -28.0593847118       -7.0147859977       37.3746699963  TIP3      507             0.0000000000
     53035      1867  TIP3      H1            -28.5602648337       -7.5776532315       37.9217604665  TIP3      507             0.0000000000
     53036      1867  TIP3      H2            -27.4954814612       -6.5662311578       38.0565080438  TIP3      507             0.0000000000
     53037      1868  TIP3      OH2           -26.1065637663       -5.9276942651       20.2772810321  TIP3      508             0.0000000000
     53038      1868  TIP3      H1            -25.7692210743       -6.6465591343       20.8094588958  TIP3      508             0.0000000000
     53039      1868  TIP3      H2            -25.3302153516       -5.6304031721       19.8205138631  TIP3      508             0.0000000000
     53040      1869  TIP3      OH2           -35.0646479422       -9.9963276546       20.2418653896  TIP3      509             0.0000000000
     53041      1869  TIP3      H1            -35.0676031214      -10.8305841531       20.7779281539  TIP3      509             0.0000000000
     53042      1869  TIP3      H2            -34.3747898333      -10.2772450907       19.5964172933  TIP3      509             0.0000000000
     53043      1870  TIP3      OH2           -32.5486830699      -10.3448933276       37.3525373255  TIP3      510             0.0000000000
     53044      1870  TIP3      H1            -33.2344290450      -10.0698194252       36.6833130908  TIP3      510             0.0000000000
     53045      1870  TIP3      H2            -32.7575119793      -11.3014575060       37.4160464722  TIP3      510             0.0000000000
     53046      1871  TIP3      OH2           -29.6616191626       -9.0219638732       19.9564378088  TIP3      511             0.0000000000
     53047      1871  TIP3      H1            -30.0440928343       -8.7397266099       20.8067018049  TIP3      511             0.0000000000
     53048      1871  TIP3      H2            -30.0708197042       -9.8537632666       19.7449289128  TIP3      511             0.0000000000
     53049      1872  TIP3      OH2           -27.1135471203      -10.4716829549       34.9391510647  TIP3      512             0.0000000000
     53050      1872  TIP3      H1            -26.3386031022       -9.9017337773       34.7292901907  TIP3      512             0.0000000000
     53051      1872  TIP3      H2            -27.8084364852       -9.7851808617       34.8746341898  TIP3      512             0.0000000000
     53052      1873  TIP3      OH2           -29.5429840803      -11.5555012114       38.2436136091  TIP3      513             0.0000000000
     53053      1873  TIP3      H1            -28.6158486010      -11.8025126698       38.1351466965  TIP3      513             0.0000000000
     53054      1873  TIP3      H2            -29.8379851660      -12.3754194807       38.7336671881  TIP3      513             0.0000000000
     53055      1874  TIP3      OH2           -23.6153973204      -11.3489321043       20.1983633189  TIP3      514             0.0000000000
     53056      1874  TIP3      H1            -23.6428704390      -11.8269529301       19.3511649628  TIP3      514             0.0000000000
     53057      1874  TIP3      H2            -23.3513259719      -10.4514289239       19.9596802994  TIP3      514             0.0000000000
     53058      1875  TIP3      OH2           -32.2814862109      -12.8431213751       33.7718888553  TIP3      515             0.0000000000
     53059      1875  TIP3      H1            -31.6790799125      -13.1266133543       33.0882413928  TIP3      515             0.0000000000
     53060      1875  TIP3      H2            -32.7996119027      -12.1523838943       33.3387186116  TIP3      515             0.0000000000
     53061      1876  TIP3      OH2           -27.9387276604      -15.1157715937       38.5535874334  TIP3      516             0.0000000000
     53062      1876  TIP3      H1            -27.7378864635      -16.0649839653       38.6052199397  TIP3      516             0.0000000000
     53063      1876  TIP3      H2            -27.0585206481      -14.7400015041       38.7163748728  TIP3      516             0.0000000000
     53064      1877  TIP3      OH2           -26.6180574590      -12.3159184732       36.8100523361  TIP3      517             0.0000000000
     53065      1877  TIP3      H1            -26.8511172923      -11.6254003475       36.1654995027  TIP3      517             0.0000000000
     53066      1877  TIP3      H2            -25.6602364523      -12.5033795543       36.6378816220  TIP3      517             0.0000000000
     53067      1878  TIP3      OH2           -27.4363440772      -18.8774874157       38.5326081492  TIP3      518             0.0000000000
     53068      1878  TIP3      H1            -27.6080963022      -19.8257258201       38.4780842697  TIP3      518             0.0000000000
     53069      1878  TIP3      H2            -27.8622229176      -18.6084530581       39.3549216691  TIP3      518             0.0000000000
     53070      1879  TIP3      OH2           -37.8174358039      -17.6834380404       37.5483921333  TIP3      519             0.0000000000
     53071      1879  TIP3      H1            -37.4231520234      -18.3280755767       36.9254150879  TIP3      519             0.0000000000
     53072      1879  TIP3      H2            -37.7608839858      -18.1079422232       38.3943297426  TIP3      519             0.0000000000
     53073      1880  TIP3      OH2           -33.1165051093       -3.0455141353       21.7767019577  TIP3      520             0.0000000000
     53074      1880  TIP3      H1            -32.1438606323       -3.0657871129       21.9697071095  TIP3      520             0.0000000000
     53075      1880  TIP3      H2            -33.1618295635       -2.4310216274       21.0640363380  TIP3      520             0.0000000000
     53076      1881  TIP3      OH2           -39.3231011225       -8.2640795569       21.1337301935  TIP3      521             0.0000000000
     53077      1881  TIP3      H1            -38.4911883274       -8.4671734177       21.5803586841  TIP3      521             0.0000000000
     53078      1881  TIP3      H2            -39.4971346342       -9.1435058087       20.7226366538  TIP3      521             0.0000000000
     53079      1882  TIP3      OH2            40.9787912905       -2.7081913341       25.7784707021  TIP3      522             0.0000000000
     53080      1882  TIP3      H1             40.0779113724       -3.0982221205       25.7605440752  TIP3      522             0.0000000000
     53081      1882  TIP3      H2             41.1693008570       -3.1075984166       26.6488396077  TIP3      522             0.0000000000
     53082      1883  TIP3      OH2           -39.1445227454       -5.8287129867       28.4896429940  TIP3      523             0.0000000000
     53083      1883  TIP3      H1            -40.0691895559       -5.9435953395       28.1965611649  TIP3      523             0.0000000000
     53084      1883  TIP3      H2            -39.2744697791       -4.9065761801       28.8849282231  TIP3      523             0.0000000000
     53085      1884  TIP3      OH2           -22.8045993556       -4.6074264178       34.0940313540  TIP3      524             0.0000000000
     53086      1884  TIP3      H1            -23.2937842805       -5.2788928785       33.6072652068  TIP3      524             0.0000000000
     53087      1884  TIP3      H2            -22.2666484016       -5.0499862597       34.6973573207  TIP3      524             0.0000000000
     53088      1885  TIP3      OH2           -24.3783893076       -8.8188168202       39.2766948830  TIP3      525             0.0000000000
     53089      1885  TIP3      H1            -25.3476164919       -8.7454305039       39.4665450172  TIP3      525             0.0000000000
     53090      1885  TIP3      H2            -24.0414741132       -7.9175767050       39.4735861243  TIP3      525             0.0000000000
     53091      1886  TIP3      OH2           -22.8682286455       -9.6953869633       31.0434240989  TIP3      526             0.0000000000
     53092      1886  TIP3      H1            -22.1248842118      -10.1471998366       30.6037848026  TIP3      526             0.0000000000
     53093      1886  TIP3      H2            -22.7915848679       -8.7796247730       30.7714471786  TIP3      526             0.0000000000
     53094      1887  TIP3      OH2           -24.4240772687       -6.9309605238       33.3700692313  TIP3      527             0.0000000000
     53095      1887  TIP3      H1            -25.0925018568       -6.3903502292       33.8089334532  TIP3      527             0.0000000000
     53096      1887  TIP3      H2            -24.9137653673       -7.2326755309       32.5629045906  TIP3      527             0.0000000000
     53097      1888  TIP3      OH2           -22.4737550174      -12.6082436416       22.4356298089  TIP3      528             0.0000000000
     53098      1888  TIP3      H1            -22.8632838301      -12.1942695563       21.6556781391  TIP3      528             0.0000000000
     53099      1888  TIP3      H2            -22.3483001994      -11.9052227405       23.0828196578  TIP3      528             0.0000000000
     53100      1889  TIP3      OH2           -24.1950270693      -15.3000733510       20.9422876308  TIP3      529             0.0000000000
     53101      1889  TIP3      H1            -23.8658111839      -14.7272400271       20.2566296468  TIP3      529             0.0000000000
     53102      1889  TIP3      H2            -24.1501059739      -16.1735633308       20.4938501586  TIP3      529             0.0000000000
     53103      1890  TIP3      OH2           -23.9846532206      -11.9307733665       36.3645914187  TIP3      530             0.0000000000
     53104      1890  TIP3      H1            -23.4724013961      -12.7838870331       36.3649810761  TIP3      530             0.0000000000
     53105      1890  TIP3      H2            -23.2529964002      -11.3245299901       36.1877038410  TIP3      530             0.0000000000
     53106      1891  TIP3      OH2           -24.7771595566      -17.9713029391       20.0594695922  TIP3      531             0.0000000000
     53107      1891  TIP3      H1            -24.1767307533      -18.3515833403       20.7127435149  TIP3      531             0.0000000000
     53108      1891  TIP3      H2            -25.6398143836      -18.3465758059       20.2864358934  TIP3      531             0.0000000000
     53109      1892  TIP3      OH2           -25.1700188608      -16.3406268728       24.9844808832  TIP3      532             0.0000000000
     53110      1892  TIP3      H1            -24.8674169523      -17.2483450719       25.1038599662  TIP3      532             0.0000000000
     53111      1892  TIP3      H2            -24.3684544955      -15.9557941144       24.6085202524  TIP3      532             0.0000000000
     53112      1893  TIP3      OH2           -24.6046299991      -15.0819908302       33.1365635883  TIP3      533             0.0000000000
     53113      1893  TIP3      H1            -25.2583126991      -14.7898025878       33.7455617236  TIP3      533             0.0000000000
     53114      1893  TIP3      H2            -23.9580070267      -14.3435974833       33.0025463121  TIP3      533             0.0000000000
     53115      1894  TIP3      OH2           -40.1309475135      -16.8056604430       36.5643257401  TIP3      534             0.0000000000
     53116      1894  TIP3      H1            -39.2212740209      -16.7564104201       36.9571272624  TIP3      534             0.0000000000
     53117      1894  TIP3      H2            -40.5909714328      -17.4166244085       37.1280068621  TIP3      534             0.0000000000
     53118      1895  TIP3      OH2           -22.7105608048      -18.9845548678       37.0081116319  TIP3      535             0.0000000000
     53119      1895  TIP3      H1            -23.6134017047      -18.6493158396       36.8833620403  TIP3      535             0.0000000000
     53120      1895  TIP3      H2            -22.5662706346      -19.4053460204       36.1534467616  TIP3      535             0.0000000000
     53121      1896  TIP3      OH2            41.1058224024      -19.9330265551       33.3105003027  TIP3      536             0.0000000000
     53122      1896  TIP3      H1             40.4515856172      -20.5989164216       33.6033400127  TIP3      536             0.0000000000
     53123      1896  TIP3      H2             40.6271973570      -19.7340504996       32.5028546656  TIP3      536             0.0000000000
     53124      1897  TIP3      OH2           -38.2469151402       -7.1617349859       37.2145551070  TIP3      537             0.0000000000
     53125      1897  TIP3      H1            -39.0777869006       -6.9775714949       36.7835169442  TIP3      537             0.0000000000
     53126      1897  TIP3      H2            -38.4729829346       -7.1910100897       38.1600730304  TIP3      537             0.0000000000
     53127      1898  TIP3      OH2           -35.2490031380       -6.1909185649       33.5117683932  TIP3      538             0.0000000000
     53128      1898  TIP3      H1            -35.6393447617       -5.3553513587       33.1651940042  TIP3      538             0.0000000000
     53129      1898  TIP3      H2            -34.3444528358       -6.0378144830       33.2056486023  TIP3      538             0.0000000000
     53130      1899  TIP3      OH2           -37.6743061430       -2.8352365656       33.6728565046  TIP3      539             0.0000000000
     53131      1899  TIP3      H1            -38.3500995189       -2.5326608865       32.9462455629  TIP3      539             0.0000000000
     53132      1899  TIP3      H2            -38.3340861467       -3.1825441958       34.2694798311  TIP3      539             0.0000000000
     53133      1900  TIP3      OH2           -35.4357578850       -3.4226072669       32.5961774246  TIP3      540             0.0000000000
     53134      1900  TIP3      H1            -36.3396544273       -3.1884982151       32.8754065115  TIP3      540             0.0000000000
     53135      1900  TIP3      H2            -35.3688994797       -2.8223092637       31.8107293663  TIP3      540             0.0000000000
     53136      1901  TIP3      OH2           -37.9479621771       -4.3461476113       30.1234383107  TIP3      541             0.0000000000
     53137      1901  TIP3      H1            -38.3336199033       -4.5091438551       31.0127190490  TIP3      541             0.0000000000
     53138      1901  TIP3      H2            -37.1959114533       -4.8856332887       29.9317088729  TIP3      541             0.0000000000
     53139      1902  TIP3      OH2           -36.2372548143       -5.7376428107       28.8963982016  TIP3      542             0.0000000000
     53140      1902  TIP3      H1            -36.4671658975       -6.5769984195       29.3337610447  TIP3      542             0.0000000000
     53141      1902  TIP3      H2            -35.4699201851       -5.4201416059       29.4567883641  TIP3      542             0.0000000000
     53142      1903  TIP3      OH2           -33.8563350242       -5.1648304910       29.9283411299  TIP3      543             0.0000000000
     53143      1903  TIP3      H1            -33.5364624553       -6.0374173043       29.6785943615  TIP3      543             0.0000000000
     53144      1903  TIP3      H2            -33.6433309090       -5.0647095291       30.8711959580  TIP3      543             0.0000000000
     53145      1904  TIP3      OH2           -39.3209404813       -4.9762851220       23.5559801140  TIP3      544             0.0000000000
     53146      1904  TIP3      H1            -40.0467858704       -4.9474900090       22.9156180257  TIP3      544             0.0000000000
     53147      1904  TIP3      H2            -39.3266441505       -4.0145526632       23.8076042711  TIP3      544             0.0000000000
     53148      1905  TIP3      OH2           -38.0759545657      -20.2338867633       36.4872872385  TIP3      545             0.0000000000
     53149      1905  TIP3      H1            -38.3025008582      -21.1045221105       36.7974345047  TIP3      545             0.0000000000
     53150      1905  TIP3      H2            -37.0980025568      -20.2439384779       36.6653758167  TIP3      545             0.0000000000
     53151      1906  TIP3      OH2           -36.0954405622      -20.9869850411       37.9639006102  TIP3      546             0.0000000000
     53152      1906  TIP3      H1            -35.1543631019      -21.1605597841       37.7615694185  TIP3      546             0.0000000000
     53153      1906  TIP3      H2            -36.3552168077      -21.7532577984       38.4786867143  TIP3      546             0.0000000000
     53154      1907  TIP3      OH2           -37.4405074935       -4.2706521383       20.6914339189  TIP3      547             0.0000000000
     53155      1907  TIP3      H1            -37.6986667000       -3.7421602541       21.4685047688  TIP3      547             0.0000000000
     53156      1907  TIP3      H2            -36.5517254772       -4.5974306059       20.8122382748  TIP3      547             0.0000000000
     53157      1908  TIP3      OH2           -24.3770088991       -5.5724351870       36.8450111171  TIP3      548             0.0000000000
     53158      1908  TIP3      H1            -25.1950668395       -5.6654028583       36.3148004969  TIP3      548             0.0000000000
     53159      1908  TIP3      H2            -24.5254534671       -4.6087032998       36.9791306120  TIP3      548             0.0000000000
     53160      1909  TIP3      OH2            -4.0895503921      -18.3436684263       31.5066758801  TIP3      549             0.0000000000
     53161      1909  TIP3      H1             -3.9252314745      -17.7771992049       32.2886757928  TIP3      549             0.0000000000
     53162      1909  TIP3      H2             -3.5627669773      -17.8851982861       30.8409730403  TIP3      549             0.0000000000
     53163      1910  TIP3      OH2            -9.4917288624      -15.6456762030       30.9876370452  TIP3      550             0.0000000000
     53164      1910  TIP3      H1             -9.4717891836      -16.6054959188       31.0310819491  TIP3      550             0.0000000000
     53165      1910  TIP3      H2             -9.7072126421      -15.4069998959       30.0862640182  TIP3      550             0.0000000000
     53166      1911  TIP3      OH2            -8.6383140031      -17.2695244359       26.6828106555  TIP3      551             0.0000000000
     53167      1911  TIP3      H1             -8.0302344833      -17.6608679102       27.3433765008  TIP3      551             0.0000000000
     53168      1911  TIP3      H2             -8.0729984494      -16.8061585040       26.0815413829  TIP3      551             0.0000000000
     53169      1912  TIP3      OH2            -3.6723324631      -16.8947954851       33.7946945766  TIP3      552             0.0000000000
     53170      1912  TIP3      H1             -4.3457333424      -16.1948111000       33.6635878199  TIP3      552             0.0000000000
     53171      1912  TIP3      H2             -3.6548059155      -17.0539297614       34.7448551379  TIP3      552             0.0000000000
     53172      1913  TIP3      OH2           -17.5680259780      -18.4336285335       32.4354720422  TIP3      553             0.0000000000
     53173      1913  TIP3      H1            -17.8620984486      -18.0908537811       31.5839176643  TIP3      553             0.0000000000
     53174      1913  TIP3      H2            -18.3389136297      -18.3682779387       33.0097763765  TIP3      553             0.0000000000
     53175      1914  TIP3      OH2            -6.8753314021      -18.0547054189       28.6607686744  TIP3      554             0.0000000000
     53176      1914  TIP3      H1             -7.1424637716      -18.8180346694       29.1958536003  TIP3      554             0.0000000000
     53177      1914  TIP3      H2             -6.2433674540      -17.5724375836       29.2226340872  TIP3      554             0.0000000000
     53178      1915  TIP3      OH2            -6.5818863458      -19.3298686005       32.3180713154  TIP3      555             0.0000000000
     53179      1915  TIP3      H1             -7.3082821863      -18.7095088864       32.2902411168  TIP3      555             0.0000000000
     53180      1915  TIP3      H2             -5.8603320032      -18.9304576312       31.8028568841  TIP3      555             0.0000000000
     53181      1916  TIP3      OH2           -11.2527314145      -14.1978848246       21.4720971843  TIP3      556             0.0000000000
     53182      1916  TIP3      H1            -10.5356614721      -13.7627400184       21.9737580109  TIP3      556             0.0000000000
     53183      1916  TIP3      H2            -10.9300821497      -14.4217800029       20.6101097818  TIP3      556             0.0000000000
     53184      1917  TIP3      OH2            -3.9448117396      -13.0189889338       32.6346785706  TIP3      557             0.0000000000
     53185      1917  TIP3      H1             -4.6154672331      -12.3040912040       32.6448453045  TIP3      557             0.0000000000
     53186      1917  TIP3      H2             -3.4535543130      -12.8053268843       31.8225621407  TIP3      557             0.0000000000
     53187      1918  TIP3      OH2            -8.9056920495      -13.1710744784       22.9366109826  TIP3      558             0.0000000000
     53188      1918  TIP3      H1             -8.4657453286      -12.7570335978       23.6951879176  TIP3      558             0.0000000000
     53189      1918  TIP3      H2             -8.6312017322      -12.5413642561       22.2122018544  TIP3      558             0.0000000000
     53190      1919  TIP3      OH2           -16.8481905344       -6.1434222758       36.2237086337  TIP3      559             0.0000000000
     53191      1919  TIP3      H1            -16.5799725574       -6.4845055701       35.3257452849  TIP3      559             0.0000000000
     53192      1919  TIP3      H2            -17.5325113919       -6.6670879741       36.3930207510  TIP3      559             0.0000000000
     53193      1920  TIP3      OH2            -4.1067356425       -6.8326560526       21.1195654793  TIP3      560             0.0000000000
     53194      1920  TIP3      H1             -4.2169943166       -5.8967477879       21.4067167190  TIP3      560             0.0000000000
     53195      1920  TIP3      H2             -3.3834751656       -7.0914259802       21.6951916263  TIP3      560             0.0000000000
     53196      1921  TIP3      OH2           -21.2622645851      -10.1198287674       33.7075831523  TIP3      561             0.0000000000
     53197      1921  TIP3      H1            -21.6049732828      -10.1819908398       32.7784152329  TIP3      561             0.0000000000
     53198      1921  TIP3      H2            -21.0840724037      -11.0882265313       33.7310714643  TIP3      561             0.0000000000
     53199      1922  TIP3      OH2            -3.1886455637       -6.6869588771       36.1548955334  TIP3      562             0.0000000000
     53200      1922  TIP3      H1             -3.2934943358       -7.6465934497       36.0865310910  TIP3      562             0.0000000000
     53201      1922  TIP3      H2             -4.0610019406       -6.4220811330       36.4769899920  TIP3      562             0.0000000000
     53202      1923  TIP3      OH2           -18.2870453695       -4.4444141997       26.6468494873  TIP3      563             0.0000000000
     53203      1923  TIP3      H1            -17.9792876825       -4.9494068571       27.4282709157  TIP3      563             0.0000000000
     53204      1923  TIP3      H2            -18.9673126920       -5.0234237164       26.2869134680  TIP3      563             0.0000000000
     53205      1924  TIP3      OH2            -6.0026275237      -15.2252619629       36.5652933388  TIP3      564             0.0000000000
     53206      1924  TIP3      H1             -6.5386461663      -14.6965201894       35.9407189778  TIP3      564             0.0000000000
     53207      1924  TIP3      H2             -6.0808884597      -16.1336876829       36.2439086297  TIP3      564             0.0000000000
     53208      1925  TIP3      OH2           -19.1583288081       -8.6045837240       34.9505964766  TIP3      565             0.0000000000
     53209      1925  TIP3      H1            -18.5602866006       -9.2898090231       35.3462645226  TIP3      565             0.0000000000
     53210      1925  TIP3      H2            -19.6568473795       -9.2078446069       34.3206600449  TIP3      565             0.0000000000
     53211      1926  TIP3      OH2            -8.2400378327      -16.7442250907       34.8576611582  TIP3      566             0.0000000000
     53212      1926  TIP3      H1             -8.8891188370      -17.0187264643       35.5522596227  TIP3      566             0.0000000000
     53213      1926  TIP3      H2             -8.5605865168      -15.8826929795       34.5754601147  TIP3      566             0.0000000000
     53214      1927  TIP3      OH2           -11.6960606571      -18.1731486069       21.3619989698  TIP3      567             0.0000000000
     53215      1927  TIP3      H1            -12.3000060242      -18.0807422049       22.1503266858  TIP3      567             0.0000000000
     53216      1927  TIP3      H2            -12.2223370862      -18.8974151484       20.9351890377  TIP3      567             0.0000000000
     53217      1928  TIP3      OH2           -11.5747590426      -14.6053393728       36.8898700328  TIP3      568             0.0000000000
     53218      1928  TIP3      H1            -12.1241835253      -15.3109453838       37.2384747021  TIP3      568             0.0000000000
     53219      1928  TIP3      H2            -10.7612656469      -14.5948597953       37.4075184324  TIP3      568             0.0000000000
     53220      1929  TIP3      OH2           -15.0525349864      -17.7418133315       20.3309322620  TIP3      569             0.0000000000
     53221      1929  TIP3      H1            -15.5051824030      -18.0879209067       21.0975374905  TIP3      569             0.0000000000
     53222      1929  TIP3      H2            -15.7527642554      -17.2819464003       19.8581969231  TIP3      569             0.0000000000
     53223      1930  TIP3      OH2           -13.7221077101      -16.4907029064       31.9679026560  TIP3      570             0.0000000000
     53224      1930  TIP3      H1            -14.5190275044      -16.0142080856       32.1671648131  TIP3      570             0.0000000000
     53225      1930  TIP3      H2            -13.1449441958      -16.2776832373       32.7373351778  TIP3      570             0.0000000000
     53226      1931  TIP3      OH2            -5.9030110477      -11.2552690437       32.3825639513  TIP3      571             0.0000000000
     53227      1931  TIP3      H1             -5.3387247116      -10.6481178342       31.8736225776  TIP3      571             0.0000000000
     53228      1931  TIP3      H2             -6.8036637587      -11.0456065024       32.1018016469  TIP3      571             0.0000000000
     53229      1932  TIP3      OH2            -9.3741675581      -18.1057645931       22.9518130683  TIP3      572             0.0000000000
     53230      1932  TIP3      H1            -10.2972473045      -18.0028384856       22.6062939926  TIP3      572             0.0000000000
     53231      1932  TIP3      H2             -8.9479647676      -17.2103868416       23.1479762627  TIP3      572             0.0000000000
     53232      1933  TIP3      OH2            -8.3847451297      -15.7278623018       23.2029283529  TIP3      573             0.0000000000
     53233      1933  TIP3      H1             -7.6698558407      -15.7577540874       23.9047849016  TIP3      573             0.0000000000
     53234      1933  TIP3      H2             -8.4491301774      -14.7298724252       23.0829773968  TIP3      573             0.0000000000
     53235      1934  TIP3      OH2            -3.7392673117      -15.4189442257       23.3365008923  TIP3      574             0.0000000000
     53236      1934  TIP3      H1             -4.1329663249      -15.8183880762       22.5457944226  TIP3      574             0.0000000000
     53237      1934  TIP3      H2             -3.4916881362      -14.5619378604       22.9782128639  TIP3      574             0.0000000000
     53238      1935  TIP3      OH2            -3.6360957723       -9.6288772833       36.0625172365  TIP3      575             0.0000000000
     53239      1935  TIP3      H1             -4.5141842492       -9.4061973249       35.7027551428  TIP3      575             0.0000000000
     53240      1935  TIP3      H2             -3.0973106112       -9.6946660996       35.2415384317  TIP3      575             0.0000000000
     53241      1936  TIP3      OH2           -13.7351991442       -5.6991147785       32.7450433008  TIP3      576             0.0000000000
     53242      1936  TIP3      H1            -13.2994053170       -4.8656457425       32.5152413543  TIP3      576             0.0000000000
     53243      1936  TIP3      H2            -13.1739070262       -6.0401382882       33.4639516946  TIP3      576             0.0000000000
     53244      1937  TIP3      OH2            -3.3625630432       -4.2389910119       21.7990824415  TIP3      577             0.0000000000
     53245      1937  TIP3      H1             -2.7259423644       -3.5556548132       21.5260324511  TIP3      577             0.0000000000
     53246      1937  TIP3      H2             -4.1203764356       -3.6656693043       22.0540272833  TIP3      577             0.0000000000
     53247      1938  TIP3      OH2           -19.7229037422       -6.0677183791       32.7195796381  TIP3      578             0.0000000000
     53248      1938  TIP3      H1            -19.4191621850       -6.9815445897       32.7135658626  TIP3      578             0.0000000000
     53249      1938  TIP3      H2            -19.4444446313       -5.7239246328       33.5628072608  TIP3      578             0.0000000000
     53250      1939  TIP3      OH2           -12.1523133382      -15.7974267420       34.3282312458  TIP3      579             0.0000000000
     53251      1939  TIP3      H1            -11.9951725382      -15.0877936515       35.0009685310  TIP3      579             0.0000000000
     53252      1939  TIP3      H2            -11.4328276125      -16.4189134453       34.4429213711  TIP3      579             0.0000000000
     53253      1940  TIP3      OH2            -5.8964276444      -17.8586123777       35.1917952999  TIP3      580             0.0000000000
     53254      1940  TIP3      H1             -6.8189442551      -17.5285800037       35.0570873437  TIP3      580             0.0000000000
     53255      1940  TIP3      H2             -5.5772305258      -17.8897598267       34.2733227377  TIP3      580             0.0000000000
     53256      1941  TIP3      OH2            -7.3163445570      -14.0626011310       29.2194199584  TIP3      581             0.0000000000
     53257      1941  TIP3      H1             -8.0957433114      -14.5197928160       28.9127947357  TIP3      581             0.0000000000
     53258      1941  TIP3      H2             -6.8063463744      -14.7528438829       29.7168978911  TIP3      581             0.0000000000
     53259      1942  TIP3      OH2           -18.6946768872      -20.7029270970       29.6059773312  TIP3      582             0.0000000000
     53260      1942  TIP3      H1            -18.9376950664      -20.6339925859       28.6931843138  TIP3      582             0.0000000000
     53261      1942  TIP3      H2            -19.2322111865      -21.4469111559       29.9215747297  TIP3      582             0.0000000000
     53262      1943  TIP3      OH2           -20.6084133795       -4.1119780094       37.3476614867  TIP3      583             0.0000000000
     53263      1943  TIP3      H1            -19.8249982347       -4.3883637235       37.8422781163  TIP3      583             0.0000000000
     53264      1943  TIP3      H2            -21.0690845562       -4.8441227092       36.8645160470  TIP3      583             0.0000000000
     53265      1944  TIP3      OH2           -16.0675041389       -5.2917179986       38.6969523259  TIP3      584             0.0000000000
     53266      1944  TIP3      H1            -15.2030931537       -5.5888930003       39.0626887650  TIP3      584             0.0000000000
     53267      1944  TIP3      H2            -15.8711501597       -5.4050096289       37.7419400515  TIP3      584             0.0000000000
     53268      1945  TIP3      OH2           -11.8037193399       -5.6924740403       20.0913136652  TIP3      585             0.0000000000
     53269      1945  TIP3      H1            -12.4367290228       -6.3475162254       20.4361364984  TIP3      585             0.0000000000
     53270      1945  TIP3      H2            -11.0484382943       -6.2662131665       19.9093185732  TIP3      585             0.0000000000
     53271      1946  TIP3      OH2           -15.4468507467      -16.8027611969       35.9558141186  TIP3      586             0.0000000000
     53272      1946  TIP3      H1            -15.3263453389      -17.4961415913       35.2757781193  TIP3      586             0.0000000000
     53273      1946  TIP3      H2            -15.4583308699      -16.0027846843       35.4067552713  TIP3      586             0.0000000000
     53274      1947  TIP3      OH2           -15.1468447483      -18.2114330511       33.5056468033  TIP3      587             0.0000000000
     53275      1947  TIP3      H1            -14.4858858488      -18.0669060037       32.7881327024  TIP3      587             0.0000000000
     53276      1947  TIP3      H2            -15.8983837613      -18.5523962730       32.9818477047  TIP3      587             0.0000000000
     53277      1948  TIP3      OH2            -9.0945795999      -15.2008270488       38.7417838775  TIP3      588             0.0000000000
     53278      1948  TIP3      H1             -8.8652483041      -16.1132791569       38.5848079521  TIP3      588             0.0000000000
     53279      1948  TIP3      H2             -8.2700420081      -14.7054731736       38.6539740999  TIP3      588             0.0000000000
     53280      1949  TIP3      OH2           -12.9820124334      -16.8135094948       37.4761764759  TIP3      589             0.0000000000
     53281      1949  TIP3      H1            -13.3543851782      -16.8123675025       38.3563491112  TIP3      589             0.0000000000
     53282      1949  TIP3      H2            -13.7854301190      -16.7634455574       36.9033889193  TIP3      589             0.0000000000
     53283      1950  TIP3      OH2           -10.2225203924      -17.4725841004       36.6085611350  TIP3      590             0.0000000000
     53284      1950  TIP3      H1            -11.2025154717      -17.4621409332       36.5922497895  TIP3      590             0.0000000000
     53285      1950  TIP3      H2            -10.0237633053      -18.1759737565       37.2165432611  TIP3      590             0.0000000000
     53286      1951  TIP3      OH2           -14.1883492226       -3.0178330055       21.8005086586  TIP3      591             0.0000000000
     53287      1951  TIP3      H1            -13.2056384512       -3.0080343156       21.9035932644  TIP3      591             0.0000000000
     53288      1951  TIP3      H2            -14.3964916887       -2.4199967378       21.1073357714  TIP3      591             0.0000000000
     53289      1952  TIP3      OH2            -3.8756305347       -4.5617320864       34.1055486989  TIP3      592             0.0000000000
     53290      1952  TIP3      H1             -4.4251739037       -5.2003181413       33.5757859470  TIP3      592             0.0000000000
     53291      1952  TIP3      H2             -3.4081462299       -5.0854553027       34.7307689789  TIP3      592             0.0000000000
     53292      1953  TIP3      OH2            -3.7893315873      -12.5252517730       25.9949484986  TIP3      593             0.0000000000
     53293      1953  TIP3      H1             -4.5840450249      -12.9422066855       26.3837193549  TIP3      593             0.0000000000
     53294      1953  TIP3      H2             -3.2400094560      -12.2827192265       26.7550098727  TIP3      593             0.0000000000
     53295      1954  TIP3      OH2            -4.0132503031       -9.7153474647       31.0462161768  TIP3      594             0.0000000000
     53296      1954  TIP3      H1             -3.2426417549      -10.0983452310       30.5949805681  TIP3      594             0.0000000000
     53297      1954  TIP3      H2             -3.9528327052       -8.7619533084       30.8415687501  TIP3      594             0.0000000000
     53298      1955  TIP3      OH2            -5.3060732604      -15.3724693559       20.9182482318  TIP3      595             0.0000000000
     53299      1955  TIP3      H1             -5.0831610091      -14.6570029748       20.2836630488  TIP3      595             0.0000000000
     53300      1955  TIP3      H2             -5.2348222093      -16.1813167962       20.4119077688  TIP3      595             0.0000000000
     53301      1956  TIP3      OH2            -6.0123757085      -13.9565041405       26.5903569664  TIP3      596             0.0000000000
     53302      1956  TIP3      H1             -6.1769293238      -14.9091241425       26.5235199618  TIP3      596             0.0000000000
     53303      1956  TIP3      H2             -6.3745558342      -13.7133368641       27.4531233623  TIP3      596             0.0000000000
     53304      1957  TIP3      OH2            -5.1136991381      -12.0017680717       36.2633752215  TIP3      597             0.0000000000
     53305      1957  TIP3      H1             -4.5204987330      -12.7611824168       36.4117409101  TIP3      597             0.0000000000
     53306      1957  TIP3      H2             -4.5462931410      -11.2187709067       36.2412213185  TIP3      597             0.0000000000
     53307      1958  TIP3      OH2            -3.6048796922      -14.1124860937       36.8873200556  TIP3      598             0.0000000000
     53308      1958  TIP3      H1             -4.5149077517      -14.4839315438       36.7668949377  TIP3      598             0.0000000000
     53309      1958  TIP3      H2             -3.0451594795      -14.8784479862       36.8231582318  TIP3      598             0.0000000000
     53310      1959  TIP3      OH2            -5.9933171514      -17.9628508616       20.0333516859  TIP3      599             0.0000000000
     53311      1959  TIP3      H1             -5.2695238631      -18.3086780686       20.6368965352  TIP3      599             0.0000000000
     53312      1959  TIP3      H2             -6.7019490247      -18.5122965368       20.3232286105  TIP3      599             0.0000000000
     53313      1960  TIP3      OH2            -6.3422186334      -16.4071458484       24.9326308701  TIP3      600             0.0000000000
     53314      1960  TIP3      H1             -5.9904311758      -17.2677742661       25.2011199485  TIP3      600             0.0000000000
     53315      1960  TIP3      H2             -5.5186078281      -15.9514699274       24.6690947901  TIP3      600             0.0000000000
     53316      1961  TIP3      OH2            -5.7372647900      -15.8138206135       30.4873058625  TIP3      601             0.0000000000
     53317      1961  TIP3      H1             -4.7665214751      -15.6107953108       30.4424956284  TIP3      601             0.0000000000
     53318      1961  TIP3      H2             -5.8557298970      -15.7034394305       31.4375177842  TIP3      601             0.0000000000
     53319      1962  TIP3      OH2            -5.6699734062      -15.1097141185       33.2674847057  TIP3      602             0.0000000000
     53320      1962  TIP3      H1             -6.5282300240      -14.7839494957       33.5743523186  TIP3      602             0.0000000000
     53321      1962  TIP3      H2             -5.1821284694      -14.2804126601       33.0355411301  TIP3      602             0.0000000000
     53322      1963  TIP3      OH2            -3.3935616452      -21.1019656617       38.5955805820  TIP3      603             0.0000000000
     53323      1963  TIP3      H1             -2.9675159572      -21.7347632442       37.9878412649  TIP3      603             0.0000000000
     53324      1963  TIP3      H2             -3.2544350702      -20.2574648892       38.1320723467  TIP3      603             0.0000000000
     53325      1964  TIP3      OH2            -3.8349438670      -18.9943640677       36.9615822574  TIP3      604             0.0000000000
     53326      1964  TIP3      H1             -4.7625747926      -18.7130827451       36.8913683575  TIP3      604             0.0000000000
     53327      1964  TIP3      H2             -3.7708948136      -19.4996778235       36.1366400958  TIP3      604             0.0000000000
     53328      1965  TIP3      OH2            -3.9007647493      -18.9972814092       21.5137709505  TIP3      605             0.0000000000
     53329      1965  TIP3      H1             -3.3934759159      -19.7467236813       21.1857684635  TIP3      605             0.0000000000
     53330      1965  TIP3      H2             -3.1389638705      -18.4205240700       21.7511088785  TIP3      605             0.0000000000
     53331      1966  TIP3      OH2           -20.0501643141       -8.2977239741       37.9803284845  TIP3      606             0.0000000000
     53332      1966  TIP3      H1            -20.6950646536       -7.9610897314       37.3368870173  TIP3      606             0.0000000000
     53333      1966  TIP3      H2            -19.7281507267       -7.6443022063       38.6596432753  TIP3      606             0.0000000000
     53334      1967  TIP3      OH2           -16.4893588995       -6.1498863519       33.4833511829  TIP3      607             0.0000000000
     53335      1967  TIP3      H1            -16.7583368751       -5.2816197019       33.1542084338  TIP3      607             0.0000000000
     53336      1967  TIP3      H2            -15.5351691742       -6.1103447548       33.2102523914  TIP3      607             0.0000000000
     53337      1968  TIP3      OH2           -12.0868876463       -4.6518965594       36.4345183069  TIP3      608             0.0000000000
     53338      1968  TIP3      H1            -11.9629980042       -5.1289584506       37.2917510211  TIP3      608             0.0000000000
     53339      1968  TIP3      H2            -11.1941127490       -4.5013414149       36.1351227310  TIP3      608             0.0000000000
     53340      1969  TIP3      OH2            -4.8506400259      -20.8434373303       34.8256915607  TIP3      609             0.0000000000
     53341      1969  TIP3      H1             -5.6639215619      -20.5889323945       34.3701014180  TIP3      609             0.0000000000
     53342      1969  TIP3      H2             -4.6141796839      -21.6394307833       34.3036631921  TIP3      609             0.0000000000
     53343      1970  TIP3      OH2           -19.0417245343       -2.9695378957       33.4938395793  TIP3      610             0.0000000000
     53344      1970  TIP3      H1            -19.7555474614       -2.4545932670       33.0797571685  TIP3      610             0.0000000000
     53345      1970  TIP3      H2            -19.3964343973       -3.0920631174       34.3638179385  TIP3      610             0.0000000000
     53346      1971  TIP3      OH2           -16.5740903073       -3.3874130448       32.5268210110  TIP3      611             0.0000000000
     53347      1971  TIP3      H1            -17.4560628129       -3.1988601064       32.9219549993  TIP3      611             0.0000000000
     53348      1971  TIP3      H2            -16.5682234152       -2.7324511160       31.7925600133  TIP3      611             0.0000000000
     53349      1972  TIP3      OH2           -11.9153950574       -3.4117644646       31.7880943647  TIP3      612             0.0000000000
     53350      1972  TIP3      H1            -12.2924000765       -2.8482825172       31.0879069961  TIP3      612             0.0000000000
     53351      1972  TIP3      H2            -11.6677230373       -2.7329900422       32.4481098466  TIP3      612             0.0000000000
     53352      1973  TIP3      OH2           -19.6151548898       -4.2590187017       30.4196509186  TIP3      613             0.0000000000
     53353      1973  TIP3      H1            -19.6738507294       -4.7155185169       31.2786784999  TIP3      613             0.0000000000
     53354      1973  TIP3      H2            -18.7982644950       -4.6324223011       30.0365068295  TIP3      613             0.0000000000
     53355      1974  TIP3      OH2           -17.5062956653       -5.5302717003       29.1332441628  TIP3      614             0.0000000000
     53356      1974  TIP3      H1            -17.6538674173       -6.4693285663       29.2553330743  TIP3      614             0.0000000000
     53357      1974  TIP3      H2            -16.6282713435       -5.4305097990       29.5275875306  TIP3      614             0.0000000000
     53358      1975  TIP3      OH2            -6.2573964388      -21.3342097384       29.1935366566  TIP3      615             0.0000000000
     53359      1975  TIP3      H1             -5.6859071569      -20.7957220269       28.6300752158  TIP3      615             0.0000000000
     53360      1975  TIP3      H2             -7.1607862522      -21.0648889860       28.9378698388  TIP3      615             0.0000000000
     53361      1976  TIP3      OH2           -20.2665212663      -21.0365146457       22.6660384769  TIP3      616             0.0000000000
     53362      1976  TIP3      H1            -19.8183071072      -20.3584734610       22.1316013860  TIP3      616             0.0000000000
     53363      1976  TIP3      H2            -20.9076267473      -20.5007235978       23.1667462811  TIP3      616             0.0000000000
     53364      1977  TIP3      OH2           -20.3177416190       -5.0623706056       23.5809679433  TIP3      617             0.0000000000
     53365      1977  TIP3      H1            -21.0723487703       -5.1024246909       22.9880516857  TIP3      617             0.0000000000
     53366      1977  TIP3      H2            -20.3810229696       -4.1490674849       23.8523297944  TIP3      617             0.0000000000
     53367      1978  TIP3      OH2           -18.4231339304      -19.1561351097       21.1637084052  TIP3      618             0.0000000000
     53368      1978  TIP3      H1            -17.8896824198      -19.7588570899       20.6421511533  TIP3      618             0.0000000000
     53369      1978  TIP3      H2            -17.8180962869      -18.7309025932       21.7880637305  TIP3      618             0.0000000000
     53370      1979  TIP3      OH2           -11.5716152935       -3.6009164172       21.8582109768  TIP3      619             0.0000000000
     53371      1979  TIP3      H1            -10.5944319804       -3.5613885451       21.8862661848  TIP3      619             0.0000000000
     53372      1979  TIP3      H2            -11.6924920999       -4.3412970031       21.2313506179  TIP3      619             0.0000000000
     53373      1980  TIP3      OH2           -19.1351464080      -20.3459131071       36.3380006301  TIP3      620             0.0000000000
     53374      1980  TIP3      H1            -19.5270348043      -21.0253150836       36.8826904429  TIP3      620             0.0000000000
     53375      1980  TIP3      H2            -18.2663431682      -20.2468174342       36.7769224164  TIP3      620             0.0000000000
     53376      1981  TIP3      OH2           -17.1190924370      -20.8991877536       38.0249167593  TIP3      621             0.0000000000
     53377      1981  TIP3      H1            -16.2405022056      -21.2265415992       37.8256208290  TIP3      621             0.0000000000
     53378      1981  TIP3      H2            -17.5632757279      -21.6588666129       38.4619349014  TIP3      621             0.0000000000
     53379      1982  TIP3      OH2           -18.5178445078       -4.0674930053       20.6501998655  TIP3      622             0.0000000000
     53380      1982  TIP3      H1            -18.8222311130       -3.9049935360       21.5427401082  TIP3      622             0.0000000000
     53381      1982  TIP3      H2            -17.8147759761       -4.7217679633       20.7753088733  TIP3      622             0.0000000000
     53382      1983  TIP3      OH2             8.9003870031      -11.6905811297       26.7691158819  TIP3      623             0.0000000000
     53383      1983  TIP3      H1              8.8204451883      -10.7326321618       26.8516314957  TIP3      623             0.0000000000
     53384      1983  TIP3      H2              8.1438026118      -11.9195890973       26.2017494545  TIP3      623             0.0000000000
     53385      1984  TIP3      OH2             7.7364703715      -12.3757734360       30.2632262467  TIP3      624             0.0000000000
     53386      1984  TIP3      H1              7.7059156199      -13.0095859750       30.9961471465  TIP3      624             0.0000000000
     53387      1984  TIP3      H2              7.4066500702      -12.9418938565       29.5452488828  TIP3      624             0.0000000000
     53388      1985  TIP3      OH2             1.1804333570       -8.3018946625       30.1625465544  TIP3      625             0.0000000000
     53389      1985  TIP3      H1              0.6008088664       -9.1051638712       30.0691015638  TIP3      625             0.0000000000
     53390      1985  TIP3      H2              1.7821126511       -8.6838002132       30.7581932833  TIP3      625             0.0000000000
     53391      1986  TIP3      OH2            -2.3553865520      -14.6877340724       25.9102515902  TIP3      626             0.0000000000
     53392      1986  TIP3      H1             -2.8137156146      -13.8388242112       25.7541569745  TIP3      626             0.0000000000
     53393      1986  TIP3      H2             -2.8108339627      -15.2392392367       25.2425499853  TIP3      626             0.0000000000
     53394      1987  TIP3      OH2            -1.5822667715      -12.4521848794       28.0376991186  TIP3      627             0.0000000000
     53395      1987  TIP3      H1             -1.3839728238      -13.3278777155       28.4257862204  TIP3      627             0.0000000000
     53396      1987  TIP3      H2             -0.9521687344      -12.4266789149       27.3058700382  TIP3      627             0.0000000000
     53397      1988  TIP3      OH2             6.0546214362       -9.9851452685       30.7446024608  TIP3      628             0.0000000000
     53398      1988  TIP3      H1              6.4908761748      -10.6348877949       30.1567253757  TIP3      628             0.0000000000
     53399      1988  TIP3      H2              6.8901132611       -9.8223199074       31.2729515252  TIP3      628             0.0000000000
     53400      1989  TIP3      OH2            14.5976335532      -17.9830261575       31.4612991540  TIP3      629             0.0000000000
     53401      1989  TIP3      H1             15.0882489572      -17.9431806337       32.3269426017  TIP3      629             0.0000000000
     53402      1989  TIP3      H2             15.3658862700      -18.0583357039       30.8425493560  TIP3      629             0.0000000000
     53403      1990  TIP3      OH2             9.4634441876      -15.5472261314       31.0439999127  TIP3      630             0.0000000000
     53404      1990  TIP3      H1              9.3483533628      -16.5186439752       31.0844111111  TIP3      630             0.0000000000
     53405      1990  TIP3      H2              9.1336110157      -15.4098740380       30.1259104419  TIP3      630             0.0000000000
     53406      1991  TIP3      OH2            10.1503518867      -17.3413614278       26.7380843324  TIP3      631             0.0000000000
     53407      1991  TIP3      H1             10.8311485587      -17.7267798550       27.3132176828  TIP3      631             0.0000000000
     53408      1991  TIP3      H2             10.6758176264      -16.8442004930       26.1133872472  TIP3      631             0.0000000000
     53409      1992  TIP3      OH2            -1.0099357400      -15.0186274178       29.0077362428  TIP3      632             0.0000000000
     53410      1992  TIP3      H1             -0.3267758201      -15.5281597076       29.5176227368  TIP3      632             0.0000000000
     53411      1992  TIP3      H2             -0.9112613684      -15.3952064985       28.1290402662  TIP3      632             0.0000000000
     53412      1993  TIP3      OH2            15.0057550098      -16.8233897356       33.6942167149  TIP3      633             0.0000000000
     53413      1993  TIP3      H1             14.6070481373      -16.0184935291       34.0340582516  TIP3      633             0.0000000000
     53414      1993  TIP3      H2             15.3361650373      -17.1069323374       34.5905572190  TIP3      633             0.0000000000
     53415      1994  TIP3      OH2             3.7951861453      -10.8482159382       32.4756935248  TIP3      634             0.0000000000
     53416      1994  TIP3      H1              3.0996963361      -10.2928920515       32.8737880496  TIP3      634             0.0000000000
     53417      1994  TIP3      H2              4.5851656044      -10.3134399260       32.4060600217  TIP3      634             0.0000000000
     53418      1995  TIP3      OH2            11.9483299361      -18.0200079548       28.6951303304  TIP3      635             0.0000000000
     53419      1995  TIP3      H1             11.7068565526      -18.8257005772       29.1663765002  TIP3      635             0.0000000000
     53420      1995  TIP3      H2             12.6643753892      -17.6477403849       29.1985926634  TIP3      635             0.0000000000
     53421      1996  TIP3      OH2             2.2368888740       -8.8888977132       33.2973506954  TIP3      636             0.0000000000
     53422      1996  TIP3      H1              2.1868669643       -7.9227917723       33.1663596200  TIP3      636             0.0000000000
     53423      1996  TIP3      H2              1.4178240709       -9.0124604789       33.8632077480  TIP3      636             0.0000000000
     53424      1997  TIP3      OH2            -1.4863641258       -9.2252142648       24.1486214706  TIP3      637             0.0000000000
     53425      1997  TIP3      H1             -1.9737454885       -9.0422151090       23.3398174391  TIP3      637             0.0000000000
     53426      1997  TIP3      H2             -1.6904477115       -8.4850080258       24.7293092545  TIP3      637             0.0000000000
     53427      1998  TIP3      OH2            12.3221942690      -19.2130003060       32.4302856565  TIP3      638             0.0000000000
     53428      1998  TIP3      H1             11.4756639483      -18.7849697903       32.2174721500  TIP3      638             0.0000000000
     53429      1998  TIP3      H2             12.9683926596      -18.9960186758       31.7426820426  TIP3      638             0.0000000000
     53430      1999  TIP3      OH2            13.1125302455       -9.3727522175       34.5539097423  TIP3      639             0.0000000000
     53431      1999  TIP3      H1             13.2318156194       -9.9718340281       33.8150932166  TIP3      639             0.0000000000
     53432      1999  TIP3      H2             13.1948879661       -8.4930484512       34.1449514356  TIP3      639             0.0000000000
     53433      2000  TIP3      OH2             7.5129778277      -12.5032304079       24.2346528723  TIP3      640             0.0000000000
     53434      2000  TIP3      H1              6.8727374920      -11.8006460518       24.0170127266  TIP3      640             0.0000000000
     53435      2000  TIP3      H2              8.2898449078      -12.2912696791       23.7002504716  TIP3      640             0.0000000000
     53436      2001  TIP3      OH2             7.6001219618      -13.9687022846       21.3154550808  TIP3      641             0.0000000000
     53437      2001  TIP3      H1              8.2955271212      -13.7200687603       22.0013452961  TIP3      641             0.0000000000
     53438      2001  TIP3      H2              8.1551377495      -14.2340487929       20.5762338387  TIP3      641             0.0000000000
     53439      2002  TIP3      OH2            14.6960307540      -13.1958938675       32.2882438458  TIP3      642             0.0000000000
     53440      2002  TIP3      H1             14.3998162357      -12.3554605147       32.7655071503  TIP3      642             0.0000000000
     53441      2002  TIP3      H2             15.5042702682      -12.7807622828       31.9406330531  TIP3      642             0.0000000000
     53442      2003  TIP3      OH2            10.9994701031      -12.2077528832       25.2325321599  TIP3      643             0.0000000000
     53443      2003  TIP3      H1             10.2246281197      -11.9918474767       25.8081323901  TIP3      643             0.0000000000
     53444      2003  TIP3      H2             11.4350655537      -12.9164732080       25.7186757480  TIP3      643             0.0000000000
     53445      2004  TIP3      OH2            10.8720053031      -14.0433641658       34.2600763380  TIP3      644             0.0000000000
     53446      2004  TIP3      H1             10.8881954664      -13.3041534382       34.9027466090  TIP3      644             0.0000000000
     53447      2004  TIP3      H2             10.1543067589      -13.7209733237       33.6742027168  TIP3      644             0.0000000000
     53448      2005  TIP3      OH2             2.6158141926      -11.5530388379       27.1940125549  TIP3      645             0.0000000000
     53449      2005  TIP3      H1              2.2549490804      -11.9433210457       26.3553803230  TIP3      645             0.0000000000
     53450      2005  TIP3      H2              3.2023064623      -12.2849781403       27.4611844498  TIP3      645             0.0000000000
     53451      2006  TIP3      OH2             5.4685602954       -7.7344792712       29.3288885292  TIP3      646             0.0000000000
     53452      2006  TIP3      H1              5.1288536873       -8.3119437682       28.6119221529  TIP3      646             0.0000000000
     53453      2006  TIP3      H2              5.6682328902       -8.2550788996       30.1601842718  TIP3      646             0.0000000000
     53454      2007  TIP3      OH2             3.8815809738       -8.3793542005       35.5015511289  TIP3      647             0.0000000000
     53455      2007  TIP3      H1              3.4922593314       -7.5870594450       35.9083899737  TIP3      647             0.0000000000
     53456      2007  TIP3      H2              3.2341070824       -8.5712167416       34.7934412587  TIP3      647             0.0000000000
     53457      2008  TIP3      OH2             9.8245842465      -13.0505972862       22.8748048646  TIP3      648             0.0000000000
     53458      2008  TIP3      H1             10.3909983398      -12.8745894301       23.6893184653  TIP3      648             0.0000000000
     53459      2008  TIP3      H2             10.3409106829      -12.5227405354       22.2274429595  TIP3      648             0.0000000000
     53460      2009  TIP3      OH2             0.8301028752      -12.1926972730       34.7003486790  TIP3      649             0.0000000000
     53461      2009  TIP3      H1              0.8234327428      -11.5676929366       35.4277595437  TIP3      649             0.0000000000
     53462      2009  TIP3      H2             -0.0880888732      -12.1757976477       34.4087867502  TIP3      649             0.0000000000
     53463      2010  TIP3      OH2             2.1229131505       -6.4654224149       36.3049715546  TIP3      650             0.0000000000
     53464      2010  TIP3      H1              2.0931894201       -6.4148859496       35.3337103236  TIP3      650             0.0000000000
     53465      2010  TIP3      H2              1.1621239372       -6.4330531007       36.4810757781  TIP3      650             0.0000000000
     53466      2011  TIP3      OH2            13.5490499437      -21.3190276882       22.6260554263  TIP3      651             0.0000000000
     53467      2011  TIP3      H1             12.6791182542      -21.1952961131       23.1078032505  TIP3      651             0.0000000000
     53468      2011  TIP3      H2             13.7422920208      -20.3891273536       22.4965360808  TIP3      651             0.0000000000
     53469      2012  TIP3      OH2             1.5957353097      -12.4925275635       24.7146743666  TIP3      652             0.0000000000
     53470      2012  TIP3      H1              1.2404746261      -11.7285235542       24.2307216576  TIP3      652             0.0000000000
     53471      2012  TIP3      H2              0.9329428787      -13.1832748883       24.5413026510  TIP3      652             0.0000000000
     53472      2013  TIP3      OH2            14.8466629316       -7.0411680718       21.3269377688  TIP3      653             0.0000000000
     53473      2013  TIP3      H1             14.6906695293       -6.0491413440       21.3433748316  TIP3      653             0.0000000000
     53474      2013  TIP3      H2             15.7018172021       -7.0001124798       20.8791922069  TIP3      653             0.0000000000
     53475      2014  TIP3      OH2            -2.3190379267      -10.1382369702       33.6490640275  TIP3      654             0.0000000000
     53476      2014  TIP3      H1             -2.7950764835      -10.1685766408       32.7978579656  TIP3      654             0.0000000000
     53477      2014  TIP3      H2             -2.2770323825      -11.0934464303       33.8732322572  TIP3      654             0.0000000000
     53478      2015  TIP3      OH2            15.7023560197       -6.6764285188       36.1470781748  TIP3      655             0.0000000000
     53479      2015  TIP3      H1             15.5799802105       -7.6496626270       36.0689638252  TIP3      655             0.0000000000
     53480      2015  TIP3      H2             14.8217292852       -6.4902210236       36.5094134216  TIP3      655             0.0000000000
     53481      2016  TIP3      OH2             6.5008320945       -7.1930566838       34.9036572906  TIP3      656             0.0000000000
     53482      2016  TIP3      H1              6.7199323245       -6.4010315539       35.4370639750  TIP3      656             0.0000000000
     53483      2016  TIP3      H2              5.6802901440       -7.5159411008       35.2823764765  TIP3      656             0.0000000000
     53484      2017  TIP3      OH2             0.1589978908       -4.5328307975       27.2025703066  TIP3      657             0.0000000000
     53485      2017  TIP3      H1              0.7357611297       -5.0612237032       27.8320583792  TIP3      657             0.0000000000
     53486      2017  TIP3      H2             -0.4400369023       -5.1749725330       26.7844083566  TIP3      657             0.0000000000
     53487      2018  TIP3      OH2            12.8084118246      -15.1837975551       36.6150662577  TIP3      658             0.0000000000
     53488      2018  TIP3      H1             12.3620693404      -14.7392779954       35.8935249412  TIP3      658             0.0000000000
     53489      2018  TIP3      H2             12.8231072327      -16.1133550833       36.3508673317  TIP3      658             0.0000000000
     53490      2019  TIP3      OH2            -0.0738984798       -8.7330039993       34.6464022489  TIP3      659             0.0000000000
     53491      2019  TIP3      H1              0.1554953626       -9.1954616174       35.4748374619  TIP3      659             0.0000000000
     53492      2019  TIP3      H2             -0.9024799895       -9.1842393517       34.3800389661  TIP3      659             0.0000000000
     53493      2020  TIP3      OH2             7.2070657210      -20.5721943574       33.9588302739  TIP3      660             0.0000000000
     53494      2020  TIP3      H1              7.6318281663      -21.0720868527       34.6941118495  TIP3      660             0.0000000000
     53495      2020  TIP3      H2              6.2721174171      -20.7890339409       34.1240671150  TIP3      660             0.0000000000
     53496      2021  TIP3      OH2            10.5817005240      -16.7731201886       34.7923027231  TIP3      661             0.0000000000
     53497      2021  TIP3      H1             10.0274508995      -17.0266062021       35.5823115222  TIP3      661             0.0000000000
     53498      2021  TIP3      H2             10.3125297922      -15.8618799619       34.6147797808  TIP3      661             0.0000000000
     53499      2022  TIP3      OH2            11.1943266729      -11.9241167326       20.5356942390  TIP3      662             0.0000000000
     53500      2022  TIP3      H1             11.4717539169      -12.3305695505       19.6964691302  TIP3      662             0.0000000000
     53501      2022  TIP3      H2             12.1047402276      -11.6729450736       20.7982833368  TIP3      662             0.0000000000
     53502      2023  TIP3      OH2             8.2020910005      -14.7385624755       25.3986906836  TIP3      663             0.0000000000
     53503      2023  TIP3      H1              7.8014060530      -13.8831375835       25.1290441173  TIP3      663             0.0000000000
     53504      2023  TIP3      H2              8.9364102924      -14.8787528983       24.7993156943  TIP3      663             0.0000000000
     53505      2024  TIP3      OH2             7.2757403284      -14.5396609770       36.8628656478  TIP3      664             0.0000000000
     53506      2024  TIP3      H1              6.7359995276      -15.2910928941       37.1972448782  TIP3      664             0.0000000000
     53507      2024  TIP3      H2              8.1044321976      -14.6392066240       37.3582793694  TIP3      664             0.0000000000
     53508      2025  TIP3      OH2             9.3335838024      -15.2403926008       28.2669262963  TIP3      665             0.0000000000
     53509      2025  TIP3      H1              8.8972969063      -14.7437393033       27.5504513956  TIP3      665             0.0000000000
     53510      2025  TIP3      H2              9.3087906783      -16.1140986424       27.8139806195  TIP3      665             0.0000000000
     53511      2026  TIP3      OH2             3.7343754941      -17.3295276976       20.4786409058  TIP3      666             0.0000000000
     53512      2026  TIP3      H1              3.4226165307      -18.0978781356       21.0127035604  TIP3      666             0.0000000000
     53513      2026  TIP3      H2              3.0544810272      -17.4249195846       19.7970816095  TIP3      666             0.0000000000
     53514      2027  TIP3      OH2             8.5771649913      -13.6806763610       32.8820053762  TIP3      667             0.0000000000
     53515      2027  TIP3      H1              8.7362220664      -14.3593303641       32.2123835246  TIP3      667             0.0000000000
     53516      2027  TIP3      H2              7.9912443817      -14.1520007749       33.5072863328  TIP3      667             0.0000000000
     53517      2028  TIP3      OH2             9.6825997869      -18.3910585277       30.9060495963  TIP3      668             0.0000000000
     53518      2028  TIP3      H1              8.9896852551      -18.3951281778       31.6107642837  TIP3      668             0.0000000000
     53519      2028  TIP3      H2              9.1341969052      -18.6861511711       30.1449849540  TIP3      668             0.0000000000
     53520      2029  TIP3      OH2             2.4022818302      -14.7044480288       21.6433747510  TIP3      669             0.0000000000
     53521      2029  TIP3      H1              1.7783364589      -15.3116198423       21.1635378847  TIP3      669             0.0000000000
     53522      2029  TIP3      H2              3.2608107874      -14.8689894993       21.3014514242  TIP3      669             0.0000000000
     53523      2030  TIP3      OH2             0.5657801763      -10.2744916001       36.7788919423  TIP3      670             0.0000000000
     53524      2030  TIP3      H1              1.2508264467      -10.1585651503       37.4267040295  TIP3      670             0.0000000000
     53525      2030  TIP3      H2             -0.2410909329      -10.2417060024       37.3456948216  TIP3      670             0.0000000000
     53526      2031  TIP3      OH2             6.7010360657      -14.8970208565       29.6643313806  TIP3      671             0.0000000000
     53527      2031  TIP3      H1              7.0416269976      -15.5189847171       29.0146350462  TIP3      671             0.0000000000
     53528      2031  TIP3      H2              6.3095714400      -15.4915197859       30.3324695982  TIP3      671             0.0000000000
     53529      2032  TIP3      OH2             5.2387395180      -16.5334627240       31.9639435573  TIP3      672             0.0000000000
     53530      2032  TIP3      H1              4.3195846162      -16.1967716046       32.1192229006  TIP3      672             0.0000000000
     53531      2032  TIP3      H2              5.6984096274      -16.2249145806       32.7549963609  TIP3      672             0.0000000000
     53532      2033  TIP3      OH2             5.7853553781      -10.3554650276       23.6047822656  TIP3      673             0.0000000000
     53533      2033  TIP3      H1              4.9624626359      -10.8489567631       23.4097158446  TIP3      673             0.0000000000
     53534      2033  TIP3      H2              5.6276064803      -10.2354575169       24.5619213832  TIP3      673             0.0000000000
     53535      2034  TIP3      OH2            12.9117964616      -11.3560812945       32.2385447087  TIP3      674             0.0000000000
     53536      2034  TIP3      H1             13.4773432816      -10.5911181107       31.9747272311  TIP3      674             0.0000000000
     53537      2034  TIP3      H2             12.0313129040      -10.9410228673       32.1205728987  TIP3      674             0.0000000000
     53538      2035  TIP3      OH2             9.5133411859      -17.3191853068       21.5761714201  TIP3      675             0.0000000000
     53539      2035  TIP3      H1              8.7436159945      -17.7032424289       21.9944773387  TIP3      675             0.0000000000
     53540      2035  TIP3      H2              9.9950081554      -16.7980736638       22.2977057003  TIP3      675             0.0000000000
     53541      2036  TIP3      OH2             7.2316286015      -10.1492613398       34.9422234571  TIP3      676             0.0000000000
     53542      2036  TIP3      H1              6.8914912974      -10.5217408893       35.7594431936  TIP3      676             0.0000000000
     53543      2036  TIP3      H2              7.0250043556       -9.2009987170       34.9918804659  TIP3      676             0.0000000000
     53544      2037  TIP3      OH2            10.3302753695      -15.6486419845       23.4379764824  TIP3      677             0.0000000000
     53545      2037  TIP3      H1             11.2041249917      -15.7929120252       23.8591891729  TIP3      677             0.0000000000
     53546      2037  TIP3      H2             10.4828439562      -14.7771505251       23.0354532149  TIP3      677             0.0000000000
     53547      2038  TIP3      OH2             0.9468556979      -11.0149143106       29.5421353865  TIP3      678             0.0000000000
     53548      2038  TIP3      H1              1.5399244679      -11.1434760693       28.7761894038  TIP3      678             0.0000000000
     53549      2038  TIP3      H2              0.8853925143      -11.9101262017       29.9379648560  TIP3      678             0.0000000000
     53550      2039  TIP3      OH2            -2.1872787531      -12.5468176447       34.7718624972  TIP3      679             0.0000000000
     53551      2039  TIP3      H1             -1.9305673011      -13.0273507866       35.5704926412  TIP3      679             0.0000000000
     53552      2039  TIP3      H2             -2.7349867469      -13.1995554162       34.2985736097  TIP3      679             0.0000000000
     53553      2040  TIP3      OH2             4.8710008721      -13.0084506464       36.9327782442  TIP3      680             0.0000000000
     53554      2040  TIP3      H1              4.5307277759      -13.3147154947       36.0665986390  TIP3      680             0.0000000000
     53555      2040  TIP3      H2              5.7956219905      -13.3219852228       36.9221621940  TIP3      680             0.0000000000
     53556      2041  TIP3      OH2            10.5667429262      -11.9148567250       30.8515726991  TIP3      681             0.0000000000
     53557      2041  TIP3      H1              9.5987868927      -11.9763816222       30.7080617242  TIP3      681             0.0000000000
     53558      2041  TIP3      H2             10.8258514866      -12.7250146336       30.4256080981  TIP3      681             0.0000000000
     53559      2042  TIP3      OH2             3.1770785696       -7.4094149413       27.0833476416  TIP3      682             0.0000000000
     53560      2042  TIP3      H1              3.8063893880       -6.8264028172       26.5944225822  TIP3      682             0.0000000000
     53561      2042  TIP3      H2              2.3962040765       -7.3881346038       26.5091707303  TIP3      682             0.0000000000
     53562      2043  TIP3      OH2            -1.0192132921      -12.5661063686       21.3490329352  TIP3      683             0.0000000000
     53563      2043  TIP3      H1             -0.4090391938      -12.0707347517       21.9093410121  TIP3      683             0.0000000000
     53564      2043  TIP3      H2             -1.8717186454      -12.3885015626       21.7542463832  TIP3      683             0.0000000000
     53565      2044  TIP3      OH2             4.6809744887       -9.8924857009       26.5105079914  TIP3      684             0.0000000000
     53566      2044  TIP3      H1              4.4155191092       -8.9760986401       26.3572687261  TIP3      684             0.0000000000
     53567      2044  TIP3      H2              3.8637311365      -10.3643333386       26.7420730920  TIP3      684             0.0000000000
     53568      2045  TIP3      OH2             5.1200471030       -5.7238161094       32.7040016363  TIP3      685             0.0000000000
     53569      2045  TIP3      H1              5.5276962378       -4.8382028247       32.5996067677  TIP3      685             0.0000000000
     53570      2045  TIP3      H2              5.6918608884       -6.0063078520       33.4588108830  TIP3      685             0.0000000000
     53571      2046  TIP3      OH2             3.2536682138       -4.7483994882       25.8827952348  TIP3      686             0.0000000000
     53572      2046  TIP3      H1              2.5456999927       -4.7453817015       26.4605374431  TIP3      686             0.0000000000
     53573      2046  TIP3      H2              3.8405742338       -4.0420883822       26.2590472529  TIP3      686             0.0000000000
     53574      2047  TIP3      OH2             8.4876076620       -9.7624373088       32.3683312081  TIP3      687             0.0000000000
     53575      2047  TIP3      H1              8.3228236176       -9.8369597556       33.3240433466  TIP3      687             0.0000000000
     53576      2047  TIP3      H2              9.2800786563      -10.2984737604       32.2475975331  TIP3      687             0.0000000000
     53577      2048  TIP3      OH2            10.9004293520       -8.8103878047       21.4545150107  TIP3      688             0.0000000000
     53578      2048  TIP3      H1             11.2574958040       -9.0519472142       22.3412450191  TIP3      688             0.0000000000
     53579      2048  TIP3      H2              9.9870468020       -8.6867863456       21.6763722592  TIP3      688             0.0000000000
     53580      2049  TIP3      OH2            15.4639784102       -4.2619448290       21.7258221221  TIP3      689             0.0000000000
     53581      2049  TIP3      H1             16.1403421134       -3.5823548207       21.5841441464  TIP3      689             0.0000000000
     53582      2049  TIP3      H2             14.6842373310       -3.7327239110       22.0291356029  TIP3      689             0.0000000000
     53583      2050  TIP3      OH2            11.7757248864      -10.0457549860       23.6683091035  TIP3      690             0.0000000000
     53584      2050  TIP3      H1             11.4579880486      -10.7575384517       24.2559272134  TIP3      690             0.0000000000
     53585      2050  TIP3      H2             12.6861921838       -9.9575385299       23.9680871206  TIP3      690             0.0000000000
     53586      2051  TIP3      OH2            -0.7494869294       -6.0563970749       32.6897504930  TIP3      691             0.0000000000
     53587      2051  TIP3      H1             -0.6757740130       -7.0026441238       32.7602542560  TIP3      691             0.0000000000
     53588      2051  TIP3      H2             -0.6170188156       -5.7640924038       33.5942229275  TIP3      691             0.0000000000
     53589      2052  TIP3      OH2             0.3605222289      -10.7206670229       22.8422868464  TIP3      692             0.0000000000
     53590      2052  TIP3      H1             -0.3002487833      -10.3921311701       23.5076090674  TIP3      692             0.0000000000
     53591      2052  TIP3      H2              0.9244488851       -9.9424634084       22.7358596698  TIP3      692             0.0000000000
     53592      2053  TIP3      OH2             8.2950331236      -18.0841772177       33.2360320797  TIP3      693             0.0000000000
     53593      2053  TIP3      H1              8.9221425129      -18.0376415307       33.9582287464  TIP3      693             0.0000000000
     53594      2053  TIP3      H2              7.8363823240      -18.9310089908       33.4254010613  TIP3      693             0.0000000000
     53595      2054  TIP3      OH2             6.8312752001      -15.6961007001       34.2834073569  TIP3      694             0.0000000000
     53596      2054  TIP3      H1              6.8250143690      -15.1744397091       35.1104453797  TIP3      694             0.0000000000
     53597      2054  TIP3      H2              7.4141195358      -16.4409457986       34.4517307341  TIP3      694             0.0000000000
     53598      2055  TIP3      OH2            12.9726452084      -17.7799648335       35.1673286946  TIP3      695             0.0000000000
     53599      2055  TIP3      H1             12.0062339326      -17.5754139430       35.0989184425  TIP3      695             0.0000000000
     53600      2055  TIP3      H2             13.2422014669      -17.9533715098       34.2705260976  TIP3      695             0.0000000000
     53601      2056  TIP3      OH2            11.4573193990      -14.0340148648       29.2668268186  TIP3      696             0.0000000000
     53602      2056  TIP3      H1             10.6686508693      -14.5038424733       28.8629835496  TIP3      696             0.0000000000
     53603      2056  TIP3      H2             11.9284192411      -14.8261192635       29.5593457406  TIP3      696             0.0000000000
     53604      2057  TIP3      OH2             0.9573342568       -8.1561379873       21.8383713778  TIP3      697             0.0000000000
     53605      2057  TIP3      H1              1.6043332349       -7.4796286499       22.0858583548  TIP3      697             0.0000000000
     53606      2057  TIP3      H2              1.4875362302       -8.5451256996       21.1151762811  TIP3      697             0.0000000000
     53607      2058  TIP3      OH2            -0.6131079449      -15.3762995287       20.8218118123  TIP3      698             0.0000000000
     53608      2058  TIP3      H1             -0.7348691602      -14.4778937235       21.1505992617  TIP3      698             0.0000000000
     53609      2058  TIP3      H2             -1.5036882258      -15.7243780456       20.7240980235  TIP3      698             0.0000000000
     53610      2059  TIP3      OH2            -1.6423013787       -4.1099555535       37.0721630782  TIP3      699             0.0000000000
     53611      2059  TIP3      H1             -1.1421777876       -4.2867831976       37.8873642335  TIP3      699             0.0000000000
     53612      2059  TIP3      H2             -2.1093053710       -4.9483952648       36.9325694153  TIP3      699             0.0000000000
     53613      2060  TIP3      OH2             2.8895834237       -5.5596958422       38.7887478412  TIP3      700             0.0000000000
     53614      2060  TIP3      H1              3.8443489915       -5.5138680113       38.9565847467  TIP3      700             0.0000000000
     53615      2060  TIP3      H2              2.9128081213       -5.3654016167       37.8008844727  TIP3      700             0.0000000000
     53616      2061  TIP3      OH2            11.6172868427       -5.9919874714       20.2922132833  TIP3      701             0.0000000000
     53617      2061  TIP3      H1             11.9707772473       -6.6945943273       20.8292800273  TIP3      701             0.0000000000
     53618      2061  TIP3      H2             12.3514491675       -5.6954427907       19.7600747664  TIP3      701             0.0000000000
     53619      2062  TIP3      OH2            -1.7200177785      -10.3507023185       38.0688451896  TIP3      702             0.0000000000
     53620      2062  TIP3      H1             -1.6779482735      -11.2805907908       37.7696712962  TIP3      702             0.0000000000
     53621      2062  TIP3      H2             -2.5102280901      -10.0650888375       37.5694395200  TIP3      702             0.0000000000
     53622      2063  TIP3      OH2             2.4720596386      -10.0029596352       20.0803994295  TIP3      703             0.0000000000
     53623      2063  TIP3      H1              2.5267997039      -10.6002031134       20.8185797754  TIP3      703             0.0000000000
     53624      2063  TIP3      H2              3.2420892402       -9.9676697566       19.5085654241  TIP3      703             0.0000000000
     53625      2064  TIP3      OH2             4.8186724833      -10.3169439494       37.5282649574  TIP3      704             0.0000000000
     53626      2064  TIP3      H1              4.5939724665      -10.0559346620       36.6147434023  TIP3      704             0.0000000000
     53627      2064  TIP3      H2              5.0323554014      -11.2774325454       37.4024623005  TIP3      704             0.0000000000
     53628      2065  TIP3      OH2             7.7643021406       -8.5648992990       20.3609028444  TIP3      705             0.0000000000
     53629      2065  TIP3      H1              7.6214073114       -8.3707206171       21.2935517171  TIP3      705             0.0000000000
     53630      2065  TIP3      H2              7.2986169439       -9.3608060906       20.4502618593  TIP3      705             0.0000000000
     53631      2066  TIP3      OH2            10.5988586157      -10.4716047280       34.9168298838  TIP3      706             0.0000000000
     53632      2066  TIP3      H1             11.3829138995       -9.8864903073       34.8008383086  TIP3      706             0.0000000000
     53633      2066  TIP3      H2              9.8869676231       -9.8222930177       34.9141046744  TIP3      706             0.0000000000
     53634      2067  TIP3      OH2            -0.8595073097      -13.0710535180       37.5235323783  TIP3      707             0.0000000000
     53635      2067  TIP3      H1             -0.4937056450      -13.9408115507       37.3407477501  TIP3      707             0.0000000000
     53636      2067  TIP3      H2             -1.2252920641      -13.1266557167       38.4134730263  TIP3      707             0.0000000000
     53637      2068  TIP3      OH2             3.8542615587      -12.0896773489       22.8535125793  TIP3      708             0.0000000000
     53638      2068  TIP3      H1              3.1741369148      -12.5424509290       23.4017529159  TIP3      708             0.0000000000
     53639      2068  TIP3      H2              4.1383703904      -12.8293399136       22.3227764137  TIP3      708             0.0000000000
     53640      2069  TIP3      OH2             3.0970169902      -14.0929751086       34.9151578409  TIP3      709             0.0000000000
     53641      2069  TIP3      H1              2.3698274432      -13.4696193688       35.0747890485  TIP3      709             0.0000000000
     53642      2069  TIP3      H2              3.3435094708      -13.8432083557       34.0073308067  TIP3      709             0.0000000000
     53643      2070  TIP3      OH2             4.8468861783      -13.6333861598       20.6370397147  TIP3      710             0.0000000000
     53644      2070  TIP3      H1              4.6780865074      -14.1139720553       19.8333201792  TIP3      710             0.0000000000
     53645      2070  TIP3      H2              5.7969975688      -13.6905411198       20.8818029925  TIP3      710             0.0000000000
     53646      2071  TIP3      OH2             8.0862409535      -11.6482596178       38.1649078800  TIP3      711             0.0000000000
     53647      2071  TIP3      H1              9.0453952724      -11.5782616742       38.1074188028  TIP3      711             0.0000000000
     53648      2071  TIP3      H2              7.9110450672      -12.3793210473       38.7802459604  TIP3      711             0.0000000000
     53649      2072  TIP3      OH2             5.3899631826      -12.9264332827       33.7162457598  TIP3      712             0.0000000000
     53650      2072  TIP3      H1              6.0701988386      -13.0974169293       33.0716705171  TIP3      712             0.0000000000
     53651      2072  TIP3      H2              4.9706513590      -12.1231136686       33.3837597692  TIP3      712             0.0000000000
     53652      2073  TIP3      OH2             9.7738493117      -15.1526106620       38.6514923715  TIP3      713             0.0000000000
     53653      2073  TIP3      H1              9.9968999646      -16.0933391278       38.5799632814  TIP3      713             0.0000000000
     53654      2073  TIP3      H2             10.6466810095      -14.7363800173       38.6406831071  TIP3      713             0.0000000000
     53655      2074  TIP3      OH2            11.0892396274      -12.3307810734       36.8309653352  TIP3      714             0.0000000000
     53656      2074  TIP3      H1             10.8648075678      -11.6230755410       36.1870505149  TIP3      714             0.0000000000
     53657      2074  TIP3      H2             12.0277158408      -12.4218246792       36.6696016621  TIP3      714             0.0000000000
     53658      2075  TIP3      OH2             5.8459026046      -16.6651421505       37.4381149542  TIP3      715             0.0000000000
     53659      2075  TIP3      H1              5.5939920267      -16.8566545052       38.3515733064  TIP3      715             0.0000000000
     53660      2075  TIP3      H2              5.0576200889      -16.8521444105       36.9092778928  TIP3      715             0.0000000000
     53661      2076  TIP3      OH2             8.5818001924      -17.5041017104       36.5372809385  TIP3      716             0.0000000000
     53662      2076  TIP3      H1              7.6282538284      -17.4505205175       36.6829027171  TIP3      716             0.0000000000
     53663      2076  TIP3      H2              8.8808740403      -18.1369744125       37.2189783104  TIP3      716             0.0000000000
     53664      2077  TIP3      OH2            10.1740851752      -18.8622078637       38.4668003581  TIP3      717             0.0000000000
     53665      2077  TIP3      H1             10.1269135417      -19.8395273980       38.4964348642  TIP3      717             0.0000000000
     53666      2077  TIP3      H2              9.9206389759      -18.5826309154       39.3765264302  TIP3      717             0.0000000000
     53667      2078  TIP3      OH2            -1.5904978746       -8.6498791255       21.4331004798  TIP3      718             0.0000000000
     53668      2078  TIP3      H1             -0.6356435981       -8.4680074091       21.6531022215  TIP3      718             0.0000000000
     53669      2078  TIP3      H2             -1.5094956767       -9.3973771451       20.8225690456  TIP3      718             0.0000000000
     53670      2079  TIP3      OH2            15.4843967632       -4.2470240186       31.1065987168  TIP3      719             0.0000000000
     53671      2079  TIP3      H1             15.2561279856       -3.9783443162       32.0009451484  TIP3      719             0.0000000000
     53672      2079  TIP3      H2             15.9993543939       -3.5296560136       30.7362518108  TIP3      719             0.0000000000
     53673      2080  TIP3      OH2            15.1014653349       -4.6047538022       34.0006714395  TIP3      720             0.0000000000
     53674      2080  TIP3      H1             14.4054230984       -5.2139966830       33.6046444226  TIP3      720             0.0000000000
     53675      2080  TIP3      H2             15.3246630823       -5.1137581875       34.7721945261  TIP3      720             0.0000000000
     53676      2081  TIP3      OH2            14.7784246025      -10.4096578305       24.0625860996  TIP3      721             0.0000000000
     53677      2081  TIP3      H1             15.6248170867      -10.2234365244       24.4454270448  TIP3      721             0.0000000000
     53678      2081  TIP3      H2             14.6442939965      -11.2282341919       24.6361493797  TIP3      721             0.0000000000
     53679      2082  TIP3      OH2            15.0253424164      -12.3583877481       26.0113787792  TIP3      722             0.0000000000
     53680      2082  TIP3      H1             14.3546656766      -13.0057969825       26.3020088634  TIP3      722             0.0000000000
     53681      2082  TIP3      H2             15.6628539753      -12.3740909088       26.7265972169  TIP3      722             0.0000000000
     53682      2083  TIP3      OH2            14.7925216275       -9.7950181843       30.8746673544  TIP3      723             0.0000000000
     53683      2083  TIP3      H1             15.7001126084      -10.0333881848       30.7116857563  TIP3      723             0.0000000000
     53684      2083  TIP3      H2             14.8736391691       -8.8113084354       30.9065343485  TIP3      723             0.0000000000
     53685      2084  TIP3      OH2            12.8728838994      -13.9585789796       26.6363753859  TIP3      724             0.0000000000
     53686      2084  TIP3      H1             12.7216911061      -14.9082665243       26.5012696114  TIP3      724             0.0000000000
     53687      2084  TIP3      H2             12.3972316951      -13.7519254578       27.4344584115  TIP3      724             0.0000000000
     53688      2085  TIP3      OH2            -2.1229827143      -11.8611247851       30.6466684809  TIP3      725             0.0000000000
     53689      2085  TIP3      H1             -1.9801187942      -11.9690907557       29.6758588337  TIP3      725             0.0000000000
     53690      2085  TIP3      H2             -1.2373472756      -12.0480214985       30.9755692772  TIP3      725             0.0000000000
     53691      2086  TIP3      OH2            12.8858701884      -18.1550895834       19.9275118972  TIP3      726             0.0000000000
     53692      2086  TIP3      H1             13.4821526311      -18.1590952355       20.7034295475  TIP3      726             0.0000000000
     53693      2086  TIP3      H2             12.0577362080      -18.2770661376       20.3623532973  TIP3      726             0.0000000000
     53694      2087  TIP3      OH2            13.1682635265      -15.7925423822       30.0085463619  TIP3      727             0.0000000000
     53695      2087  TIP3      H1             14.1187982358      -15.5673114098       30.1182512416  TIP3      727             0.0000000000
     53696      2087  TIP3      H2             12.5155738031      -15.5177976995       30.6847883567  TIP3      727             0.0000000000
     53697      2088  TIP3      OH2            13.2156215770      -14.8236269489       33.7406659773  TIP3      728             0.0000000000
     53698      2088  TIP3      H1             12.2466414764      -14.5829298585       33.8446609578  TIP3      728             0.0000000000
     53699      2088  TIP3      H2             13.6288346617      -13.9849426173       33.3810066083  TIP3      728             0.0000000000
     53700      2089  TIP3      OH2            15.6074130723      -21.1051769745       38.6227605402  TIP3      729             0.0000000000
     53701      2089  TIP3      H1             15.7594769246      -21.7186720672       37.9027895468  TIP3      729             0.0000000000
     53702      2089  TIP3      H2             15.5669017662      -20.2460980200       38.1260818412  TIP3      729             0.0000000000
     53703      2090  TIP3      OH2            13.2299053910      -19.1494493795       25.0250320692  TIP3      730             0.0000000000
     53704      2090  TIP3      H1             13.3837040998      -19.5393130226       25.9067397747  TIP3      730             0.0000000000
     53705      2090  TIP3      H2             12.5332985067      -19.7158886188       24.6547834106  TIP3      730             0.0000000000
     53706      2091  TIP3      OH2            -3.1034927360      -15.2568746485       30.6202467082  TIP3      731             0.0000000000
     53707      2091  TIP3      H1             -2.4506263659      -15.5225089706       29.9350387528  TIP3      731             0.0000000000
     53708      2091  TIP3      H2             -2.5816150309      -14.5361097831       30.9987784601  TIP3      731             0.0000000000
     53709      2092  TIP3      OH2            15.0302657762      -18.9782080561       36.9610346590  TIP3      732             0.0000000000
     53710      2092  TIP3      H1             14.0956571343      -18.6952410129       36.9698264946  TIP3      732             0.0000000000
     53711      2092  TIP3      H2             15.0748209045      -19.4909578052       36.1426621855  TIP3      732             0.0000000000
     53712      2093  TIP3      OH2            14.8816440465      -18.9586664973       21.5726962338  TIP3      733             0.0000000000
     53713      2093  TIP3      H1             15.1391226545      -19.8869214478       21.5938543155  TIP3      733             0.0000000000
     53714      2093  TIP3      H2             15.5457366709      -18.2659584347       21.8014670192  TIP3      733             0.0000000000
     53715      2094  TIP3      OH2            -0.5027174157       -7.1609719126       37.2681492723  TIP3      734             0.0000000000
     53716      2094  TIP3      H1             -1.3131479331       -6.9228483656       36.7728143540  TIP3      734             0.0000000000
     53717      2094  TIP3      H2             -0.8375175487       -7.1943319523       38.1687940450  TIP3      734             0.0000000000
     53718      2095  TIP3      OH2             2.4310345893       -6.2251294105       33.3770100326  TIP3      735             0.0000000000
     53719      2095  TIP3      H1              2.0497349626       -5.3261813698       33.2468333394  TIP3      735             0.0000000000
     53720      2095  TIP3      H2              3.3736486638       -6.0135567333       33.2458129261  TIP3      735             0.0000000000
     53721      2096  TIP3      OH2            14.0419965324      -20.8130413695       34.7601608794  TIP3      736             0.0000000000
     53722      2096  TIP3      H1             13.1695737521      -20.5959597328       34.3989054769  TIP3      736             0.0000000000
     53723      2096  TIP3      H2             14.2051869554      -21.6683822971       34.2926930320  TIP3      736             0.0000000000
     53724      2097  TIP3      OH2            -0.1631953623       -2.9147312130       33.5320046131  TIP3      737             0.0000000000
     53725      2097  TIP3      H1             -0.8741383174       -2.3994234538       33.0972817601  TIP3      737             0.0000000000
     53726      2097  TIP3      H2             -0.5727079199       -3.0865933781       34.3848178367  TIP3      737             0.0000000000
     53727      2098  TIP3      OH2             2.2702699645       -3.5121949484       32.4874184332  TIP3      738             0.0000000000
     53728      2098  TIP3      H1              1.4421845551       -3.2213252642       32.9469426180  TIP3      738             0.0000000000
     53729      2098  TIP3      H2              2.3015815938       -2.7906778162       31.8102285944  TIP3      738             0.0000000000
     53730      2099  TIP3      OH2            -0.7545336757       -4.3608395458       30.3614589286  TIP3      739             0.0000000000
     53731      2099  TIP3      H1             -0.8316055031       -4.7043354417       31.2813707100  TIP3      739             0.0000000000
     53732      2099  TIP3      H2              0.1092271436       -4.6287713181       30.0775263958  TIP3      739             0.0000000000
     53733      2100  TIP3      OH2             1.4903710693       -5.7274832722       28.9582714726  TIP3      740             0.0000000000
     53734      2100  TIP3      H1              1.1036665817       -6.4928814063       29.4235763323  TIP3      740             0.0000000000
     53735      2100  TIP3      H2              2.1703169516       -5.3598502238       29.5935472596  TIP3      740             0.0000000000
     53736      2101  TIP3      OH2             3.7612926802       -5.2623884233       29.9692419227  TIP3      741             0.0000000000
     53737      2101  TIP3      H1              4.4091410969       -5.8940857858       29.6694025622  TIP3      741             0.0000000000
     53738      2101  TIP3      H2              4.0117579123       -5.0405929936       30.8917249726  TIP3      741             0.0000000000
     53739      2102  TIP3      OH2             7.5144700283      -19.4602175471       29.1910508706  TIP3      742             0.0000000000
     53740      2102  TIP3      H1              6.7472367419      -20.0147436273       29.3003515842  TIP3      742             0.0000000000
     53741      2102  TIP3      H2              7.9977911446      -19.8987928949       28.4838379049  TIP3      742             0.0000000000
     53742      2103  TIP3      OH2            12.5491189644      -21.3628905876       29.2023297226  TIP3      743             0.0000000000
     53743      2103  TIP3      H1             13.1739124563      -20.8396682479       28.6453427497  TIP3      743             0.0000000000
     53744      2103  TIP3      H2             11.6707397281      -21.0435389479       28.9209613088  TIP3      743             0.0000000000
     53745      2104  TIP3      OH2            14.2511198801      -20.1948837008       27.4491236626  TIP3      744             0.0000000000
     53746      2104  TIP3      H1             14.9254903975      -20.7284872409       27.0188228825  TIP3      744             0.0000000000
     53747      2104  TIP3      H2             14.7162149270      -19.3474685726       27.4979715491  TIP3      744             0.0000000000
     53748      2105  TIP3      OH2             9.9397578578      -20.8563797958       28.3534758723  TIP3      745             0.0000000000
     53749      2105  TIP3      H1              9.9810895498      -20.7716526932       27.3928707608  TIP3      745             0.0000000000
     53750      2105  TIP3      H2              9.5917220457      -21.7668233074       28.4811449441  TIP3      745             0.0000000000
     53751      2106  TIP3      OH2            11.2745874626      -20.8672479413       23.9449530459  TIP3      746             0.0000000000
     53752      2106  TIP3      H1             10.5560886724      -20.2287679791       23.9063803143  TIP3      746             0.0000000000
     53753      2106  TIP3      H2             10.8030905111      -21.6706053082       24.2582633135  TIP3      746             0.0000000000
     53754      2107  TIP3      OH2            -1.3874061659       -5.0343463190       23.6370412586  TIP3      747             0.0000000000
     53755      2107  TIP3      H1             -2.1689556155       -5.1214262280       23.0314598759  TIP3      747             0.0000000000
     53756      2107  TIP3      H2             -1.5997192970       -4.1086278514       23.8192466585  TIP3      747             0.0000000000
     53757      2108  TIP3      OH2             0.1848185469       -4.3583768106       20.7459533729  TIP3      748             0.0000000000
     53758      2108  TIP3      H1              0.1117785889       -3.7606627116       21.4943187877  TIP3      748             0.0000000000
     53759      2108  TIP3      H2              1.1429981564       -4.5781505184       20.6952532915  TIP3      748             0.0000000000
     53760      2109  TIP3      OH2            10.1085044782      -21.5650124807       38.1788238314  TIP3      749             0.0000000000
     53761      2109  TIP3      H1             10.1974311405      -22.0810855471       39.0091191667  TIP3      749             0.0000000000
     53762      2109  TIP3      H2             11.0181265847      -21.6321231272       37.8290310727  TIP3      749             0.0000000000
     53763      2110  TIP3      OH2            27.7674333275      -11.6758190816       26.7793269467  TIP3      750             0.0000000000
     53764      2110  TIP3      H1             27.7307032198      -10.6984481099       26.7516812951  TIP3      750             0.0000000000
     53765      2110  TIP3      H2             27.0272360906      -11.9127845747       26.2226873649  TIP3      750             0.0000000000
     53766      2111  TIP3      OH2            26.5738410281      -12.3731109770       30.3743725078  TIP3      751             0.0000000000
     53767      2111  TIP3      H1             26.6147292321      -13.1411914575       30.9215543629  TIP3      751             0.0000000000
     53768      2111  TIP3      H2             26.3319065350      -12.8226784284       29.5417427617  TIP3      751             0.0000000000
     53769      2112  TIP3      OH2            19.8723628979       -8.2901527016       30.3272100870  TIP3      752             0.0000000000
     53770      2112  TIP3      H1             19.5544321416       -9.1772498988       30.1098709922  TIP3      752             0.0000000000
     53771      2112  TIP3      H2             20.8223150102       -8.4426210590       30.5231767389  TIP3      752             0.0000000000
     53772      2113  TIP3      OH2            28.1816220996      -15.5459461534       31.1085644511  TIP3      753             0.0000000000
     53773      2113  TIP3      H1             28.2989667958      -16.5019817345       31.0036840245  TIP3      753             0.0000000000
     53774      2113  TIP3      H2             28.0706822606      -15.3590441629       30.1320656274  TIP3      753             0.0000000000
     53775      2114  TIP3      OH2            28.9878044647      -17.3514923040       26.6802658764  TIP3      754             0.0000000000
     53776      2114  TIP3      H1             29.6535226330      -17.6785677537       27.3125701172  TIP3      754             0.0000000000
     53777      2114  TIP3      H2             29.5750937988      -16.8378099152       26.1030204098  TIP3      754             0.0000000000
     53778      2115  TIP3      OH2            27.4789260272       -9.1277852358       25.9087754158  TIP3      755             0.0000000000
     53779      2115  TIP3      H1             27.1840911136       -9.3373870845       25.0223153802  TIP3      755             0.0000000000
     53780      2115  TIP3      H2             27.1740731179       -8.2070072022       25.9289386860  TIP3      755             0.0000000000
     53781      2116  TIP3      OH2            22.8782245560      -10.8793491973       32.7858993251  TIP3      756             0.0000000000
     53782      2116  TIP3      H1             22.0265674528      -10.3366589526       32.8251957114  TIP3      756             0.0000000000
     53783      2116  TIP3      H2             23.3457208001      -10.1975559336       32.2573541061  TIP3      756             0.0000000000
     53784      2117  TIP3      OH2            21.0991645557       -8.8965850727       33.4427269630  TIP3      757             0.0000000000
     53785      2117  TIP3      H1             21.1020663307       -8.0049480845       33.0545739952  TIP3      757             0.0000000000
     53786      2117  TIP3      H2             20.2279542453       -9.0740724005       33.8534284906  TIP3      757             0.0000000000
     53787      2118  TIP3      OH2            30.8736536813       -7.6329789372       30.9590652649  TIP3      758             0.0000000000
     53788      2118  TIP3      H1             29.9192529981       -7.5760159575       31.0585325916  TIP3      758             0.0000000000
     53789      2118  TIP3      H2             31.1044046165       -6.7074877694       30.7940890123  TIP3      758             0.0000000000
     53790      2119  TIP3      OH2            31.1141363515      -19.2990054543       32.3862452106  TIP3      759             0.0000000000
     53791      2119  TIP3      H1             30.4113233155      -18.7194254338       32.1156556097  TIP3      759             0.0000000000
     53792      2119  TIP3      H2             31.8946441711      -18.9438389091       31.8847029366  TIP3      759             0.0000000000
     53793      2120  TIP3      OH2            24.1223249343      -21.2435926122       29.8260325414  TIP3      760             0.0000000000
     53794      2120  TIP3      H1             23.9633547006      -22.1975720090       29.7006015274  TIP3      760             0.0000000000
     53795      2120  TIP3      H2             23.2433773706      -20.9092326076       30.0812674261  TIP3      760             0.0000000000
     53796      2121  TIP3      OH2            26.4201866899      -13.9792711998       21.4056348163  TIP3      761             0.0000000000
     53797      2121  TIP3      H1             27.2236253243      -13.8544443016       21.9097598527  TIP3      761             0.0000000000
     53798      2121  TIP3      H2             26.7879689176      -14.5215464337       20.6872567286  TIP3      761             0.0000000000
     53799      2122  TIP3      OH2            20.8166382123       -6.1048826225       36.1521564463  TIP3      762             0.0000000000
     53800      2122  TIP3      H1             21.0549359948       -6.5891809848       35.3472644952  TIP3      762             0.0000000000
     53801      2122  TIP3      H2             20.0844666929       -6.6069454512       36.5544459028  TIP3      762             0.0000000000
     53802      2123  TIP3      OH2            32.4520317851      -21.3394565786       22.7484179849  TIP3      763             0.0000000000
     53803      2123  TIP3      H1             31.5411260417      -21.1699554820       23.0869839217  TIP3      763             0.0000000000
     53804      2123  TIP3      H2             32.6555341551      -20.4586131326       22.3903867518  TIP3      763             0.0000000000
     53805      2124  TIP3      OH2            33.4623808951       -6.7831418412       21.1554826524  TIP3      764             0.0000000000
     53806      2124  TIP3      H1             33.8596227018       -5.9317371545       21.3530303099  TIP3      764             0.0000000000
     53807      2124  TIP3      H2             34.3336075504       -7.2978242546       21.1292238978  TIP3      764             0.0000000000
     53808      2125  TIP3      OH2            16.3153138928       -7.3422852381       30.2761770076  TIP3      765             0.0000000000
     53809      2125  TIP3      H1             17.2327816456       -7.5230540701       30.4848341588  TIP3      765             0.0000000000
     53810      2125  TIP3      H2             16.0870540520       -6.6476346869       30.9310810727  TIP3      765             0.0000000000
     53811      2126  TIP3      OH2            34.6221094850       -6.6988674166       36.1018560347  TIP3      766             0.0000000000
     53812      2126  TIP3      H1             34.3267737067       -7.6390828873       36.0802667812  TIP3      766             0.0000000000
     53813      2126  TIP3      H2             33.7307253236       -6.3923725058       36.4633704559  TIP3      766             0.0000000000
     53814      2127  TIP3      OH2            26.1107536992      -20.5735157059       33.9797172839  TIP3      767             0.0000000000
     53815      2127  TIP3      H1             26.5112922350      -21.0938479763       34.6870868617  TIP3      767             0.0000000000
     53816      2127  TIP3      H2             25.1424374025      -20.8051484269       34.0355630344  TIP3      767             0.0000000000
     53817      2128  TIP3      OH2            30.5366364946      -17.3332971292       35.8248548389  TIP3      768             0.0000000000
     53818      2128  TIP3      H1             29.6303016447      -17.5281163302       36.1354221088  TIP3      768             0.0000000000
     53819      2128  TIP3      H2             30.7238136054      -16.4358733123       35.4626126151  TIP3      768             0.0000000000
     53820      2129  TIP3      OH2            25.7800422100      -18.1722897086       21.2864764188  TIP3      769             0.0000000000
     53821      2129  TIP3      H1             25.4264261960      -18.0487771326       22.1777174991  TIP3      769             0.0000000000
     53822      2129  TIP3      H2             25.4664893171      -18.9931914728       20.9343176480  TIP3      769             0.0000000000
     53823      2130  TIP3      OH2            26.1815360906      -14.5840372349       36.7969801244  TIP3      770             0.0000000000
     53824      2130  TIP3      H1             25.5906969026      -15.2258479278       37.2625398995  TIP3      770             0.0000000000
     53825      2130  TIP3      H2             26.9390580661      -14.6070070245       37.4225533086  TIP3      770             0.0000000000
     53826      2131  TIP3      OH2            28.0805047981      -15.2541739795       28.2662971666  TIP3      771             0.0000000000
     53827      2131  TIP3      H1             27.8227855791      -14.6799841494       27.5409311357  TIP3      771             0.0000000000
     53828      2131  TIP3      H2             28.1910429683      -16.1138398813       27.8158419092  TIP3      771             0.0000000000
     53829      2132  TIP3      OH2            27.2139184069      -13.6397488652       32.9177059026  TIP3      772             0.0000000000
     53830      2132  TIP3      H1             27.6327784135      -14.2017549606       32.2035354463  TIP3      772             0.0000000000
     53831      2132  TIP3      H2             26.8429447486      -14.3098382737       33.5023968870  TIP3      772             0.0000000000
     53832      2133  TIP3      OH2            28.4834389942      -18.3905435954       30.9947061315  TIP3      773             0.0000000000
     53833      2133  TIP3      H1             27.7111049552      -18.4273262856       31.5669114225  TIP3      773             0.0000000000
     53834      2133  TIP3      H2             28.0476612618      -18.6667821707       30.1541685155  TIP3      773             0.0000000000
     53835      2134  TIP3      OH2            31.7523458367       -2.7408413507       37.2720416027  TIP3      774             0.0000000000
     53836      2134  TIP3      H1             32.0599077652       -2.4259031011       36.3986109837  TIP3      774             0.0000000000
     53837      2134  TIP3      H2             32.4769058934       -2.4517599713       37.8310650178  TIP3      774             0.0000000000
     53838      2135  TIP3      OH2            25.5228535738      -14.8673434548       29.7023985571  TIP3      775             0.0000000000
     53839      2135  TIP3      H1             25.9477628639      -15.4296696577       29.0322774085  TIP3      775             0.0000000000
     53840      2135  TIP3      H2             25.1580347737      -15.5335030826       30.2976459802  TIP3      775             0.0000000000
     53841      2136  TIP3      OH2            24.1481466925      -16.4040741253       31.9371338109  TIP3      776             0.0000000000
     53842      2136  TIP3      H1             23.2020915010      -16.2384858425       32.0702457269  TIP3      776             0.0000000000
     53843      2136  TIP3      H2             24.5397935857      -16.2621507815       32.7829846081  TIP3      776             0.0000000000
     53844      2137  TIP3      OH2            25.8658558194      -10.2761640057       34.8917726219  TIP3      777             0.0000000000
     53845      2137  TIP3      H1             25.8335091336      -10.4163763006       35.8544614962  TIP3      777             0.0000000000
     53846      2137  TIP3      H2             25.9589658182       -9.2765719862       34.9218322211  TIP3      777             0.0000000000
     53847      2138  TIP3      OH2            23.8324453888      -12.9002061224       36.8170929230  TIP3      778             0.0000000000
     53848      2138  TIP3      H1             23.3277646351      -13.3837475846       36.1552465490  TIP3      778             0.0000000000
     53849      2138  TIP3      H2             24.6476439293      -13.3937202820       37.0360735162  TIP3      778             0.0000000000
     53850      2139  TIP3      OH2            32.1699637087       -6.6249013387       23.5411209389  TIP3      779             0.0000000000
     53851      2139  TIP3      H1             32.0402208781       -7.4532016852       24.0329464569  TIP3      779             0.0000000000
     53852      2139  TIP3      H2             32.7655540586       -6.9391873635       22.8400644010  TIP3      779             0.0000000000
     53853      2140  TIP3      OH2            27.4620417252       -9.7421278760       32.4256443548  TIP3      780             0.0000000000
     53854      2140  TIP3      H1             27.2169980824       -9.7933450578       33.3443242832  TIP3      780             0.0000000000
     53855      2140  TIP3      H2             28.1733520953      -10.3693496479       32.2567233908  TIP3      780             0.0000000000
     53856      2141  TIP3      OH2            29.7731145482       -8.4962549380       21.6475706432  TIP3      781             0.0000000000
     53857      2141  TIP3      H1             30.1144925493       -9.1368569308       22.2980757861  TIP3      781             0.0000000000
     53858      2141  TIP3      H2             28.8598930201       -8.8370914381       21.5439589592  TIP3      781             0.0000000000
     53859      2142  TIP3      OH2            30.2240834882       -5.0910721911       34.9419055435  TIP3      782             0.0000000000
     53860      2142  TIP3      H1             29.6167939880       -5.6185305174       34.4208643206  TIP3      782             0.0000000000
     53861      2142  TIP3      H2             30.5199774836       -4.4303758071       34.2905549184  TIP3      782             0.0000000000
     53862      2143  TIP3      OH2            17.9884602372       -6.0271795549       32.7536024945  TIP3      783             0.0000000000
     53863      2143  TIP3      H1             18.2256691689       -6.9636668592       32.6352897204  TIP3      783             0.0000000000
     53864      2143  TIP3      H2             18.3333715125       -5.9033833519       33.6043603058  TIP3      783             0.0000000000
     53865      2144  TIP3      OH2            23.7426116365       -7.6215605420       19.9026643805  TIP3      784             0.0000000000
     53866      2144  TIP3      H1             24.1641701107       -8.3324304725       19.4196729073  TIP3      784             0.0000000000
     53867      2144  TIP3      H2             23.5745650807       -7.9635370675       20.8112564325  TIP3      784             0.0000000000
     53868      2145  TIP3      OH2            22.7947384554       -8.0011849271       22.4285432947  TIP3      785             0.0000000000
     53869      2145  TIP3      H1             22.9500317137       -8.5258212100       23.2228790017  TIP3      785             0.0000000000
     53870      2145  TIP3      H2             22.7935298440       -7.0726190279       22.7505043850  TIP3      785             0.0000000000
     53871      2146  TIP3      OH2            27.1428502922      -18.0038847754       33.3616535572  TIP3      786             0.0000000000
     53872      2146  TIP3      H1             27.7852858487      -18.2944202980       33.9576528632  TIP3      786             0.0000000000
     53873      2146  TIP3      H2             26.6377643463      -18.8739446150       33.3223583636  TIP3      786             0.0000000000
     53874      2147  TIP3      OH2            27.8798318280      -18.4960250589       24.2728614401  TIP3      787             0.0000000000
     53875      2147  TIP3      H1             28.0973491917      -17.9172135433       23.5195946919  TIP3      787             0.0000000000
     53876      2147  TIP3      H2             28.4136983535      -18.0420432558       24.9696975448  TIP3      787             0.0000000000
     53877      2148  TIP3      OH2            25.8211832059      -15.5566992665       34.3001807834  TIP3      788             0.0000000000
     53878      2148  TIP3      H1             25.7067822945      -15.2162754843       35.2115384829  TIP3      788             0.0000000000
     53879      2148  TIP3      H2             26.0711206895      -16.4882471714       34.4301603642  TIP3      788             0.0000000000
     53880      2149  TIP3      OH2            25.9639431057      -19.6771392951       26.0152578875  TIP3      789             0.0000000000
     53881      2149  TIP3      H1             25.6221664362      -19.0692573688       26.7065217679  TIP3      789             0.0000000000
     53882      2149  TIP3      H2             26.6281721334      -19.0735909833       25.6283008913  TIP3      789             0.0000000000
     53883      2150  TIP3      OH2            22.7896015113       -5.3506885639       23.1171610529  TIP3      790             0.0000000000
     53884      2150  TIP3      H1             23.0939727775       -4.5696766232       22.6313938021  TIP3      790             0.0000000000
     53885      2150  TIP3      H2             22.6222797248       -4.9966188407       24.0094644014  TIP3      790             0.0000000000
     53886      2151  TIP3      OH2            19.7965620386       -8.0691866555       21.7091248957  TIP3      791             0.0000000000
     53887      2151  TIP3      H1             20.4637182014       -7.5214144568       22.1577116302  TIP3      791             0.0000000000
     53888      2151  TIP3      H2             20.3857438984       -8.6412815553       21.1887090008  TIP3      791             0.0000000000
     53889      2152  TIP3      OH2            31.4539906973       -4.7846998089       30.8840599816  TIP3      792             0.0000000000
     53890      2152  TIP3      H1             31.3650773142       -4.1046563129       30.1879768460  TIP3      792             0.0000000000
     53891      2152  TIP3      H2             32.4236548078       -4.7428887792       31.0449302417  TIP3      792             0.0000000000
     53892      2153  TIP3      OH2            17.9700838133       -6.9393942204       25.3284443362  TIP3      793             0.0000000000
     53893      2153  TIP3      H1             17.1956765413       -6.3694284824       25.4086032368  TIP3      793             0.0000000000
     53894      2153  TIP3      H2             18.5878709817       -6.2437155879       25.0078492097  TIP3      793             0.0000000000
     53895      2154  TIP3      OH2            17.2811814352       -4.2225107049       37.0165082426  TIP3      794             0.0000000000
     53896      2154  TIP3      H1             17.6965541004       -4.3105400818       37.9254980890  TIP3      794             0.0000000000
     53897      2154  TIP3      H2             16.6375266462       -4.9659596840       37.0933248372  TIP3      794             0.0000000000
     53898      2155  TIP3      OH2            25.9190172378       -5.7139213498       20.1242250252  TIP3      795             0.0000000000
     53899      2155  TIP3      H1             25.2136026599       -6.3306212030       20.3638477624  TIP3      795             0.0000000000
     53900      2155  TIP3      H2             26.6144644214       -6.3095968515       19.8762465834  TIP3      795             0.0000000000
     53901      2156  TIP3      OH2            30.2576806435       -6.8537457986       19.4803560958  TIP3      796             0.0000000000
     53902      2156  TIP3      H1             30.4722129701       -7.3911255434       20.3064213139  TIP3      796             0.0000000000
     53903      2156  TIP3      H2             31.0152956284       -6.3904157233       19.0753207245  TIP3      796             0.0000000000
     53904      2157  TIP3      OH2            21.4116512058      -10.0083921816       20.1055636965  TIP3      797             0.0000000000
     53905      2157  TIP3      H1             21.4527681246      -10.7518734865       20.7728860029  TIP3      797             0.0000000000
     53906      2157  TIP3      H2             22.1719698924      -10.1902616812       19.5609269630  TIP3      797             0.0000000000
     53907      2158  TIP3      OH2            23.9220228269      -10.3150407156       37.3844691630  TIP3      798             0.0000000000
     53908      2158  TIP3      H1             23.3111195063      -10.0696657708       36.6758461103  TIP3      798             0.0000000000
     53909      2158  TIP3      H2             23.8449147134      -11.2958535393       37.4460733280  TIP3      798             0.0000000000
     53910      2159  TIP3      OH2            26.8229840542       -8.8845482848       19.9551785513  TIP3      799             0.0000000000
     53911      2159  TIP3      H1             26.4659227794       -8.7820875347       20.8422625431  TIP3      799             0.0000000000
     53912      2159  TIP3      H2             26.6563233199       -9.8186311898       19.7571703735  TIP3      799             0.0000000000
     53913      2160  TIP3      OH2            23.6627424852      -13.6818232432       20.7170630479  TIP3      800             0.0000000000
     53914      2160  TIP3      H1             23.4999665695      -13.9678530491       19.8227063012  TIP3      800             0.0000000000
     53915      2160  TIP3      H2             24.6336579791      -13.7191029257       20.8212969311  TIP3      800             0.0000000000
     53916      2161  TIP3      OH2            26.9235211931      -11.6511222964       38.0750009833  TIP3      801             0.0000000000
     53917      2161  TIP3      H1             27.8932201364      -11.5628724938       38.0548665297  TIP3      801             0.0000000000
     53918      2161  TIP3      H2             26.7597790204      -12.3240146462       38.7671956674  TIP3      801             0.0000000000
     53919      2162  TIP3      OH2            23.7272532571      -13.4241096763       33.2146022839  TIP3      802             0.0000000000
     53920      2162  TIP3      H1             24.5657936611      -13.5428383002       32.7260970409  TIP3      802             0.0000000000
     53921      2162  TIP3      H2             23.2957659657      -12.5234710158       33.0639443113  TIP3      802             0.0000000000
     53922      2163  TIP3      OH2            28.6335883470      -15.1776322502       38.5578513320  TIP3      803             0.0000000000
     53923      2163  TIP3      H1             28.8634191033      -16.1051764627       38.6648598120  TIP3      803             0.0000000000
     53924      2163  TIP3      H2             29.4812143772      -14.7165714636       38.6834206513  TIP3      803             0.0000000000
     53925      2164  TIP3      OH2            23.4745002954      -20.9725451082       33.9122618854  TIP3      804             0.0000000000
     53926      2164  TIP3      H1             23.2838316951      -20.0282254969       33.7314869946  TIP3      804             0.0000000000
     53927      2164  TIP3      H2             22.7168337903      -21.2984326022       33.3932040767  TIP3      804             0.0000000000
     53928      2165  TIP3      OH2            24.7660661658      -16.7472867005       37.4104257269  TIP3      805             0.0000000000
     53929      2165  TIP3      H1             24.4651796941      -16.7606336608       38.3459783801  TIP3      805             0.0000000000
     53930      2165  TIP3      H2             23.9049761924      -16.8722179662       36.9748686455  TIP3      805             0.0000000000
     53931      2166  TIP3      OH2            27.5235324607      -17.5276383936       36.4015880414  TIP3      806             0.0000000000
     53932      2166  TIP3      H1             26.5656955366      -17.3901204949       36.6532504480  TIP3      806             0.0000000000
     53933      2166  TIP3      H2             27.7690639597      -18.0675693781       37.1994629361  TIP3      806             0.0000000000
     53934      2167  TIP3      OH2            28.8839050424      -18.8552447119       38.4127518146  TIP3      807             0.0000000000
     53935      2167  TIP3      H1             29.0457129668      -19.8076927996       38.5080531211  TIP3      807             0.0000000000
     53936      2167  TIP3      H2             28.8387565352      -18.5678102831       39.3657546617  TIP3      807             0.0000000000
     53937      2168  TIP3      OH2            23.8067709089      -21.5729135963       36.6105054352  TIP3      808             0.0000000000
     53938      2168  TIP3      H1             24.3204298101      -22.3767733893       36.4422655321  TIP3      808             0.0000000000
     53939      2168  TIP3      H2             23.5124252991      -21.3807997990       35.6855116203  TIP3      808             0.0000000000
     53940      2169  TIP3      OH2            17.2948135386       -8.3499628296       21.0249607726  TIP3      809             0.0000000000
     53941      2169  TIP3      H1             18.2128361694       -8.3398363674       21.4470577372  TIP3      809             0.0000000000
     53942      2169  TIP3      H2             17.3836716499       -9.1487205718       20.4746986401  TIP3      809             0.0000000000
     53943      2170  TIP3      OH2            16.5932728113       -4.8661062250       28.1988345647  TIP3      810             0.0000000000
     53944      2170  TIP3      H1             16.1278810955       -5.6619435213       28.5014988925  TIP3      810             0.0000000000
     53945      2170  TIP3      H2             16.8468323075       -4.5229956497       29.0881548103  TIP3      810             0.0000000000
     53946      2171  TIP3      OH2            34.2081896356       -4.1692380492       31.1286234450  TIP3      811             0.0000000000
     53947      2171  TIP3      H1             34.1694256554       -3.9364508212       32.0650104205  TIP3      811             0.0000000000
     53948      2171  TIP3      H2             34.8958878895       -3.6035705250       30.7578585042  TIP3      811             0.0000000000
     53949      2172  TIP3      OH2            33.9463674985       -4.6657326809       33.9577360368  TIP3      812             0.0000000000
     53950      2172  TIP3      H1             33.2680282120       -5.3261012015       33.6322380308  TIP3      812             0.0000000000
     53951      2172  TIP3      H2             34.1032054407       -5.0380416405       34.8166328500  TIP3      812             0.0000000000
     53952      2173  TIP3      OH2            32.2228155072       -8.8405514478       38.6876031489  TIP3      813             0.0000000000
     53953      2173  TIP3      H1             31.3522899200       -8.9613537538       39.0665839531  TIP3      813             0.0000000000
     53954      2173  TIP3      H2             32.5646282166       -8.0439757380       39.1114910185  TIP3      813             0.0000000000
     53955      2174  TIP3      OH2            32.1728276429       -6.6615662894       33.2318336525  TIP3      814             0.0000000000
     53956      2174  TIP3      H1             31.4768567750       -6.5925662433       33.8928532619  TIP3      814             0.0000000000
     53957      2174  TIP3      H2             31.7313485805       -7.3019882375       32.6264382176  TIP3      814             0.0000000000
     53958      2175  TIP3      OH2            31.8453339575      -18.0164165825       20.0813290857  TIP3      815             0.0000000000
     53959      2175  TIP3      H1             32.4287624432      -18.3758279416       20.7557283333  TIP3      815             0.0000000000
     53960      2175  TIP3      H2             30.9506248317      -18.3054327902       20.2722766862  TIP3      815             0.0000000000
     53961      2176  TIP3      OH2            33.7870814924      -18.9918881529       36.9939549488  TIP3      816             0.0000000000
     53962      2176  TIP3      H1             32.8823699206      -18.7415624816       36.8753844795  TIP3      816             0.0000000000
     53963      2176  TIP3      H2             34.0024443060      -19.4610674851       36.1622634363  TIP3      816             0.0000000000
     53964      2177  TIP3      OH2            33.8841061520      -19.1009178191       21.6578749309  TIP3      817             0.0000000000
     53965      2177  TIP3      H1             34.3222757843      -19.7365847233       21.0950385657  TIP3      817             0.0000000000
     53966      2177  TIP3      H2             34.5426490032      -18.3811626897       21.6657706119  TIP3      817             0.0000000000
     53967      2178  TIP3      OH2            16.0768984233      -20.3929520083       33.0637703775  TIP3      818             0.0000000000
     53968      2178  TIP3      H1             15.4333670983      -20.5927394332       33.7593512752  TIP3      818             0.0000000000
     53969      2178  TIP3      H2             15.7194707896      -19.7176874916       32.4979849184  TIP3      818             0.0000000000
     53970      2179  TIP3      OH2            18.3275448688       -6.9282284624       37.2078896369  TIP3      819             0.0000000000
     53971      2179  TIP3      H1             17.4623373162       -7.1150423912       36.8064092119  TIP3      819             0.0000000000
     53972      2179  TIP3      H2             18.1429602679       -7.2754992143       38.1101500762  TIP3      819             0.0000000000
     53973      2180  TIP3      OH2            32.7675326758      -20.8586550921       34.8345070061  TIP3      820             0.0000000000
     53974      2180  TIP3      H1             32.0443093335      -20.5680039585       34.2832664229  TIP3      820             0.0000000000
     53975      2180  TIP3      H2             33.1100460081      -21.5811925984       34.2631578191  TIP3      820             0.0000000000
     53976      2181  TIP3      OH2            18.5936382257       -2.9002455915       33.4459603454  TIP3      821             0.0000000000
     53977      2181  TIP3      H1             17.9717247777       -2.4122761638       32.8558724942  TIP3      821             0.0000000000
     53978      2181  TIP3      H2             18.2401593270       -2.5237067929       34.2357561479  TIP3      821             0.0000000000
     53979      2182  TIP3      OH2            21.1464582652       -3.1916312393       32.6108919099  TIP3      822             0.0000000000
     53980      2182  TIP3      H1             20.2390709994       -3.1860704562       32.8743016863  TIP3      822             0.0000000000
     53981      2182  TIP3      H2             21.1399349690       -2.8092467923       31.7255961006  TIP3      822             0.0000000000
     53982      2183  TIP3      OH2            30.7334045867       -3.0013688923       32.9551094982  TIP3      823             0.0000000000
     53983      2183  TIP3      H1             30.7012226672       -2.0703258479       32.7264288887  TIP3      823             0.0000000000
     53984      2183  TIP3      H2             30.9714661459       -3.4413020942       32.1047869024  TIP3      823             0.0000000000
     53985      2184  TIP3      OH2            18.0999144227       -4.3135425977       30.4333401090  TIP3      824             0.0000000000
     53986      2184  TIP3      H1             18.0754428332       -4.7191450157       31.3156603147  TIP3      824             0.0000000000
     53987      2184  TIP3      H2             18.9591856321       -4.5992243414       30.0781243152  TIP3      824             0.0000000000
     53988      2185  TIP3      OH2            26.3055748887      -19.4534483522       29.1089373422  TIP3      825             0.0000000000
     53989      2185  TIP3      H1             25.5751875589      -20.0573882658       29.3357997212  TIP3      825             0.0000000000
     53990      2185  TIP3      H2             26.8647698765      -19.9927317235       28.5450593192  TIP3      825             0.0000000000
     53991      2186  TIP3      OH2            17.2279248677      -20.8234895895       22.3932772974  TIP3      826             0.0000000000
     53992      2186  TIP3      H1             18.0582785602      -20.3126416958       22.3698452153  TIP3      826             0.0000000000
     53993      2186  TIP3      H2             16.9029960590      -20.5732147233       23.3154598377  TIP3      826             0.0000000000
     53994      2187  TIP3      OH2            23.2362305880      -20.9248286144       26.6901885331  TIP3      827             0.0000000000
     53995      2187  TIP3      H1             24.0824372069      -20.4938640481       26.7307308448  TIP3      827             0.0000000000
     53996      2187  TIP3      H2             23.0417189595      -21.0962739122       27.6199098459  TIP3      827             0.0000000000
     53997      2188  TIP3      OH2            28.7297759135      -20.8352411842       28.3363907036  TIP3      828             0.0000000000
     53998      2188  TIP3      H1             28.8535856292      -20.7735387193       27.3947088142  TIP3      828             0.0000000000
     53999      2188  TIP3      H2             28.4567475487      -21.7739172677       28.5070264818  TIP3      828             0.0000000000
     54000      2189  TIP3      OH2            30.1126873398      -20.8562121583       23.9303889727  TIP3      829             0.0000000000
     54001      2189  TIP3      H1             29.4227713855      -20.1933173607       23.8954522288  TIP3      829             0.0000000000
     54002      2189  TIP3      H2             29.7105606301      -21.6796591519       24.2567364201  TIP3      829             0.0000000000
     54003      2190  TIP3      OH2            17.3359493377       -5.0712242974       23.6249337756  TIP3      830             0.0000000000
     54004      2190  TIP3      H1             16.6491538265       -5.0275173157       22.9354655958  TIP3      830             0.0000000000
     54005      2190  TIP3      H2             17.3845660597       -4.1238220083       23.8203421684  TIP3      830             0.0000000000
     54006      2191  TIP3      OH2            19.0773236921      -19.1664358025       21.3699883707  TIP3      831             0.0000000000
     54007      2191  TIP3      H1             19.4027093981      -19.2476270655       20.4949147783  TIP3      831             0.0000000000
     54008      2191  TIP3      H2             19.7686437464      -18.6283219893       21.8909141013  TIP3      831             0.0000000000
     54009      2192  TIP3      OH2            18.5236084464      -20.2481008702       36.5398960976  TIP3      832             0.0000000000
     54010      2192  TIP3      H1             18.2170471592      -21.0787195124       36.8493275510  TIP3      832             0.0000000000
     54011      2192  TIP3      H2             19.4958603713      -20.2133721802       36.6021182251  TIP3      832             0.0000000000
     54012      2193  TIP3      OH2            19.1479873239       -4.1914083586       20.6372669112  TIP3      833             0.0000000000
     54013      2193  TIP3      H1             18.8806917990       -3.8635730779       21.5003681683  TIP3      833             0.0000000000
     54014      2193  TIP3      H2             19.9311949850       -4.7066511125       20.8239132460  TIP3      833             0.0000000000
     54015      2194  TIP3      OH2            28.8745695708      -21.6642079770       38.2249613837  TIP3      834             0.0000000000
     54016      2194  TIP3      H1             29.2019065497      -22.0448132957       39.0585308423  TIP3      834             0.0000000000
     54017      2194  TIP3      H2             29.7819235062      -21.5581679200       37.7978130468  TIP3      834             0.0000000000
     54018      2195  TIP3      OH2            32.1994256708       -5.5092171607       36.7887061696  TIP3      835             0.0000000000
     54019      2195  TIP3      H1             31.3485640106       -5.6788792469       36.3182041041  TIP3      835             0.0000000000
     54020      2195  TIP3      H2             32.0291412780       -4.5807579489       37.0459391501  TIP3      835             0.0000000000
     54021      2196  TIP3      OH2            39.7829226308      -17.7762180304       28.7352729975  TIP3      836             0.0000000000
     54022      2196  TIP3      H1             40.0663791009      -16.8928953381       28.3857255221  TIP3      836             0.0000000000
     54023      2196  TIP3      H2             39.5915123834      -18.0558792281       27.8271529802  TIP3      836             0.0000000000
     54024      2197  TIP3      OH2            39.8493921197       -8.6748785695       33.4946680954  TIP3      837             0.0000000000
     54025      2197  TIP3      H1             39.7233562519       -7.9138840672       32.9534908120  TIP3      837             0.0000000000
     54026      2197  TIP3      H2             38.9789348135       -8.9523372825       33.8118726671  TIP3      837             0.0000000000
     54027      2198  TIP3      OH2            38.4775215510      -12.1952014112       34.7299760968  TIP3      838             0.0000000000
     54028      2198  TIP3      H1             38.5030086997      -11.5227106525       35.4012603625  TIP3      838             0.0000000000
     54029      2198  TIP3      H2             37.5764108386      -12.1665110975       34.3816831538  TIP3      838             0.0000000000
     54030      2199  TIP3      OH2            39.8316251940       -6.4508599923       36.2688194829  TIP3      839             0.0000000000
     54031      2199  TIP3      H1             39.8360542417       -6.4613340815       35.3005816449  TIP3      839             0.0000000000
     54032      2199  TIP3      H2             38.9133439024       -6.4891445570       36.5675965171  TIP3      839             0.0000000000
     54033      2200  TIP3      OH2            37.5575244315       -8.6337081323       34.7508874070  TIP3      840             0.0000000000
     54034      2200  TIP3      H1             37.8247311752       -9.2680272128       35.4460415053  TIP3      840             0.0000000000
     54035      2200  TIP3      H2             36.8397004212       -9.1872531179       34.3612797040  TIP3      840             0.0000000000
     54036      2201  TIP3      OH2            40.2731383519      -20.3283743181       30.6295426109  TIP3      841             0.0000000000
     54037      2201  TIP3      H1             39.3982107265      -20.4310873076       30.1802971885  TIP3      841             0.0000000000
     54038      2201  TIP3      H2             40.2199738316      -19.4057205405       30.8862973221  TIP3      841             0.0000000000
     54039      2202  TIP3      OH2            40.2902520058      -15.4157489885       31.6888945888  TIP3      842             0.0000000000
     54040      2202  TIP3      H1             39.6824915991      -15.4074894944       32.4157499959  TIP3      842             0.0000000000
     54041      2202  TIP3      H2             40.4504958349      -14.4845609914       31.4751575003  TIP3      842             0.0000000000
     54042      2203  TIP3      OH2            40.0024837737      -14.9624427287       21.7022795688  TIP3      843             0.0000000000
     54043      2203  TIP3      H1             39.4856515209      -15.2456037984       20.9717912181  TIP3      843             0.0000000000
     54044      2203  TIP3      H2             40.9133917822      -14.7105678780       21.4450002514  TIP3      843             0.0000000000
     54045      2204  TIP3      OH2            38.2567198382      -10.3809994342       36.7990421806  TIP3      844             0.0000000000
     54046      2204  TIP3      H1             38.7527613243       -9.8344229112       37.2964761561  TIP3      844             0.0000000000
     54047      2204  TIP3      H2             37.3595769976      -10.2753204948       37.2425688778  TIP3      844             0.0000000000
     54048      2205  TIP3      OH2            38.9797687764      -18.9590589188       26.0486702375  TIP3      845             0.0000000000
     54049      2205  TIP3      H1             38.7190758708      -19.8784672427       26.1058000764  TIP3      845             0.0000000000
     54050      2205  TIP3      H2             39.8659090309      -18.8132758653       25.7175396290  TIP3      845             0.0000000000
     54051      2206  TIP3      OH2            36.7274612268       -6.1466866238       32.9109837264  TIP3      846             0.0000000000
     54052      2206  TIP3      H1             37.0952743927       -7.0005045796       32.6052548322  TIP3      846             0.0000000000
     54053      2206  TIP3      H2             37.4329628026       -5.6477712515       33.2471893199  TIP3      846             0.0000000000
     54054      2207  TIP3      OH2           -41.2086909028      -18.4642965623       22.5179788890  TIP3      847             0.0000000000
     54055      2207  TIP3      H1            -41.2608403065      -17.5933144971       23.0105781900  TIP3      847             0.0000000000
     54056      2207  TIP3      H2            -40.2489876419      -18.5592961819       22.6973140995  TIP3      847             0.0000000000
     54057      2208  TIP3      OH2            38.7624043970       -7.9276559318       21.5300496285  TIP3      848             0.0000000000
     54058      2208  TIP3      H1             39.3094127011       -7.5429952293       22.2227061458  TIP3      848             0.0000000000
     54059      2208  TIP3      H2             39.2290841786       -8.7332599644       21.2399834090  TIP3      848             0.0000000000
     54060      2209  TIP3      OH2            37.9090460871      -20.7562662697       29.6235656771  TIP3      849             0.0000000000
     54061      2209  TIP3      H1             37.5523168677      -20.5496419790       28.7502089406  TIP3      849             0.0000000000
     54062      2209  TIP3      H2             37.3591439943      -21.4841803083       29.9597324255  TIP3      849             0.0000000000
     54063      2210  TIP3      OH2            35.9867852560      -10.2482988629       38.0171290498  TIP3      850             0.0000000000
     54064      2210  TIP3      H1             35.9942454531      -11.2089215293       37.8260182838  TIP3      850             0.0000000000
     54065      2210  TIP3      H2             35.0846051668      -10.1383131642       37.6158526865  TIP3      850             0.0000000000
     54066      2211  TIP3      OH2            40.3230322391       -9.9240282029       20.1514671505  TIP3      851             0.0000000000
     54067      2211  TIP3      H1             40.2987821976      -10.7388990251       20.7101145306  TIP3      851             0.0000000000
     54068      2211  TIP3      H2             40.9239700186      -10.2395549031       19.4725884341  TIP3      851             0.0000000000
     54069      2212  TIP3      OH2            39.5089093488      -15.3927479128       37.8203877234  TIP3      852             0.0000000000
     54070      2212  TIP3      H1             38.7718478281      -15.9985448939       37.6764669199  TIP3      852             0.0000000000
     54071      2212  TIP3      H2             40.2204183935      -15.8414090163       37.3079120067  TIP3      852             0.0000000000
     54072      2213  TIP3      OH2            36.0014751624       -8.3196526674       21.0549975950  TIP3      853             0.0000000000
     54073      2213  TIP3      H1             36.8198937796       -8.3923456541       21.5914964037  TIP3      853             0.0000000000
     54074      2213  TIP3      H2             35.9424061204       -9.2086764017       20.6824018825  TIP3      853             0.0000000000
     54075      2214  TIP3      OH2            34.5179139155       -3.0970461031       26.4142253254  TIP3      854             0.0000000000
     54076      2214  TIP3      H1             34.0393172986       -3.5868519566       25.7439163387  TIP3      854             0.0000000000
     54077      2214  TIP3      H2             35.0208478843       -3.7853355643       26.9011267825  TIP3      854             0.0000000000
     54078      2215  TIP3      OH2            35.4972846599       -4.9772011785       28.1455840775  TIP3      855             0.0000000000
     54079      2215  TIP3      H1             35.2093448187       -5.8676019119       28.3377995799  TIP3      855             0.0000000000
     54080      2215  TIP3      H2             35.7707104622       -4.6238124922       28.9996976129  TIP3      855             0.0000000000
     54081      2216  TIP3      OH2            37.1594560556       -7.0326165655       37.1337741804  TIP3      856             0.0000000000
     54082      2216  TIP3      H1             36.2264786196       -7.1152925831       36.8259549603  TIP3      856             0.0000000000
     54083      2216  TIP3      H2             36.9410890449       -7.1918995019       38.0722065187  TIP3      856             0.0000000000
     54084      2217  TIP3      OH2            40.1159864238       -6.0615774671       33.5012089358  TIP3      857             0.0000000000
     54085      2217  TIP3      H1             39.6801418163       -5.2701670983       33.1147677077  TIP3      857             0.0000000000
     54086      2217  TIP3      H2             40.9455375520       -5.6139806643       33.4174618445  TIP3      857             0.0000000000
     54087      2218  TIP3      OH2            37.5178940227      -20.8273206136       26.7944259695  TIP3      858             0.0000000000
     54088      2218  TIP3      H1             36.6384163834      -21.0184630422       26.4618675125  TIP3      858             0.0000000000
     54089      2218  TIP3      H2             37.9143109227      -21.6968231504       26.9872055588  TIP3      858             0.0000000000
     54090      2219  TIP3      OH2            36.3977526187      -21.0201239638       22.6404649821  TIP3      859             0.0000000000
     54091      2219  TIP3      H1             36.6736698593      -20.2470992156       22.1599297538  TIP3      859             0.0000000000
     54092      2219  TIP3      H2             35.7216129156      -20.5497681192       23.1888906921  TIP3      859             0.0000000000
     54093      2220  TIP3      OH2            38.2301294841      -19.1081252223       21.0037724642  TIP3      860             0.0000000000
     54094      2220  TIP3      H1             38.6564940413      -19.8849133948       20.7922843376  TIP3      860             0.0000000000
     54095      2220  TIP3      H2             38.6560927913      -18.6929428053       21.8322738380  TIP3      860             0.0000000000
     54096      2221  TIP3      OH2            39.3252556792      -20.8490450021       37.7326907344  TIP3      861             0.0000000000
     54097      2221  TIP3      H1             40.1179824648      -21.1893947947       37.2671670798  TIP3      861             0.0000000000
     54098      2221  TIP3      H2             38.7422473742      -21.5966538081       38.0436960126  TIP3      861             0.0000000000
     54099      2222  TIP3      OH2            38.0675700644       -4.2825367845       20.6329208798  TIP3      862             0.0000000000
     54100      2222  TIP3      H1             37.7134812724       -3.7951798132       21.4075580471  TIP3      862             0.0000000000
     54101      2222  TIP3      H2             38.8742174972       -4.6280155654       20.9393524960  TIP3      862             0.0000000000
     54102      2223  TIP3      OH2           -30.0182404167        6.4467653375       30.2758963329  TIP3      863             0.0000000000
     54103      2223  TIP3      H1            -29.9687459262        5.8077602858       30.9987224687  TIP3      863             0.0000000000
     54104      2223  TIP3      H2            -30.3426549822        5.9179980886       29.5349736516  TIP3      863             0.0000000000
     54105      2224  TIP3      OH2           -41.5001177575        5.0557396383       25.6111128018  TIP3      864             0.0000000000
     54106      2224  TIP3      H1            -40.6165241721        5.2693394088       25.7768551510  TIP3      864             0.0000000000
     54107      2224  TIP3      H2            -41.3049309479        4.0888180792       25.4991096743  TIP3      864             0.0000000000
     54108      2225  TIP3      OH2           -31.5525251925        8.8406495537       30.8383624023  TIP3      865             0.0000000000
     54109      2225  TIP3      H1            -31.2962297087        8.2489140603       30.1032766407  TIP3      865             0.0000000000
     54110      2225  TIP3      H2            -30.7068487997        9.0139216529       31.2126634384  TIP3      865             0.0000000000
     54111      2226  TIP3      OH2           -28.4481423880        3.3199268277       31.0572940917  TIP3      866             0.0000000000
     54112      2226  TIP3      H1            -28.2825600272        2.3618618864       31.0328106527  TIP3      866             0.0000000000
     54113      2226  TIP3      H2            -28.5308714396        3.4678920465       30.0925279701  TIP3      866             0.0000000000
     54114      2227  TIP3      OH2           -35.1497284747        1.3606241888       28.3548303560  TIP3      867             0.0000000000
     54115      2227  TIP3      H1            -35.1177550035        2.2308464515       27.9374826644  TIP3      867             0.0000000000
     54116      2227  TIP3      H2            -35.6661200469        0.8252602529       27.7319053250  TIP3      867             0.0000000000
     54117      2228  TIP3      OH2           -38.3252392829        3.9750999016       29.1301935422  TIP3      868             0.0000000000
     54118      2228  TIP3      H1            -37.8504159971        3.2233782938       29.5299110812  TIP3      868             0.0000000000
     54119      2228  TIP3      H2            -38.5666829577        3.6805633509       28.2546569265  TIP3      868             0.0000000000
     54120      2229  TIP3      OH2           -33.4869517499        5.3504956353       28.3057455141  TIP3      869             0.0000000000
     54121      2229  TIP3      H1            -32.8511224400        4.8068451881       28.7834429184  TIP3      869             0.0000000000
     54122      2229  TIP3      H2            -34.0493074978        4.6926866823       27.8448037974  TIP3      869             0.0000000000
     54123      2230  TIP3      OH2           -36.4044349530        0.2882005834       32.4325316459  TIP3      870             0.0000000000
     54124      2230  TIP3      H1            -36.5976343278        0.7510414674       31.5972558743  TIP3      870             0.0000000000
     54125      2230  TIP3      H2            -37.1662895865        0.5357333787       32.9625232306  TIP3      870             0.0000000000
     54126      2231  TIP3      OH2           -36.8424479611        2.1742973355       30.3147741672  TIP3      871             0.0000000000
     54127      2231  TIP3      H1            -36.1866776699        2.8005809935       30.6948552306  TIP3      871             0.0000000000
     54128      2231  TIP3      H2            -36.2784823133        1.6868543545       29.6644104127  TIP3      871             0.0000000000
     54129      2232  TIP3      OH2           -24.7978158588        9.5006351037       34.5210226599  TIP3      872             0.0000000000
     54130      2232  TIP3      H1            -24.4539949343        8.8836471056       33.8526703140  TIP3      872             0.0000000000
     54131      2232  TIP3      H2            -24.3927058512       10.3498956573       34.2549779520  TIP3      872             0.0000000000
     54132      2233  TIP3      OH2           -30.2556822832        6.2995021087       24.0181991515  TIP3      873             0.0000000000
     54133      2233  TIP3      H1            -30.7527365015        7.1017612090       24.2889826261  TIP3      873             0.0000000000
     54134      2233  TIP3      H2            -29.3165218565        6.5295516196       23.8364802168  TIP3      873             0.0000000000
     54135      2234  TIP3      OH2           -30.0950778513        5.0638927179       21.3677346067  TIP3      874             0.0000000000
     54136      2234  TIP3      H1            -29.3453925096        4.8270187407       21.9688745037  TIP3      874             0.0000000000
     54137      2234  TIP3      H2            -29.8418203104        4.3368703945       20.7314660335  TIP3      874             0.0000000000
     54138      2235  TIP3      OH2           -22.8353628640        5.7830421272       32.5575623026  TIP3      875             0.0000000000
     54139      2235  TIP3      H1            -23.4226386678        6.5433241396       32.6786883690  TIP3      875             0.0000000000
     54140      2235  TIP3      H2            -22.2792209381        6.0947333738       31.8241471770  TIP3      875             0.0000000000
     54141      2236  TIP3      OH2           -26.8255438679        4.7800208741       34.3392329314  TIP3      876             0.0000000000
     54142      2236  TIP3      H1            -26.7857096798        5.5574730064       34.9207192274  TIP3      876             0.0000000000
     54143      2236  TIP3      H2            -27.4371597405        5.1073367864       33.6559455319  TIP3      876             0.0000000000
     54144      2237  TIP3      OH2           -35.1577042641        7.2012947075       27.1551675287  TIP3      877             0.0000000000
     54145      2237  TIP3      H1            -35.4216436703        6.8748327770       26.3069430950  TIP3      877             0.0000000000
     54146      2237  TIP3      H2            -34.4964571447        6.5889091667       27.5240067719  TIP3      877             0.0000000000
     54147      2238  TIP3      OH2           -28.3560211264       11.5766117684       31.5399472683  TIP3      878             0.0000000000
     54148      2238  TIP3      H1            -28.6902194064       12.2990534089       32.0879721215  TIP3      878             0.0000000000
     54149      2238  TIP3      H2            -28.6690128899       10.7147003873       31.8675321378  TIP3      878             0.0000000000
     54150      2239  TIP3      OH2           -31.4615319593       12.2655969365       34.8863911207  TIP3      879             0.0000000000
     54151      2239  TIP3      H1            -31.1037852019       12.8969458334       35.5500353150  TIP3      879             0.0000000000
     54152      2239  TIP3      H2            -32.2642188266       11.8500536533       35.2462335773  TIP3      879             0.0000000000
     54153      2240  TIP3      OH2           -24.9637179700        3.6566399757       36.6387679866  TIP3      880             0.0000000000
     54154      2240  TIP3      H1            -25.3261552372        4.0683898405       35.8478801224  TIP3      880             0.0000000000
     54155      2240  TIP3      H2            -24.7996250153        2.7270471821       36.3067556801  TIP3      880             0.0000000000
     54156      2241  TIP3      OH2           -27.2239189024        2.0177394409       34.7766313660  TIP3      881             0.0000000000
     54157      2241  TIP3      H1            -27.6165349326        1.8475498363       35.6364148666  TIP3      881             0.0000000000
     54158      2241  TIP3      H2            -27.2684987546        2.9581427558       34.5960842984  TIP3      881             0.0000000000
     54159      2242  TIP3      OH2           -26.4914962212        6.9452925356       20.5785428674  TIP3      882             0.0000000000
     54160      2242  TIP3      H1            -26.3591714189        6.5944342170       19.6886740698  TIP3      882             0.0000000000
     54161      2242  TIP3      H2            -25.5767627747        7.2100089186       20.8040531394  TIP3      882             0.0000000000
     54162      2243  TIP3      OH2           -30.9106175587        0.7480517490       21.2534195087  TIP3      883             0.0000000000
     54163      2243  TIP3      H1            -31.0251529606        0.7166133348       22.1991710987  TIP3      883             0.0000000000
     54164      2243  TIP3      H2            -31.0099221200       -0.1635363719       20.9689693414  TIP3      883             0.0000000000
     54165      2244  TIP3      OH2           -34.9864108597        3.5466248540       31.7979818767  TIP3      884             0.0000000000
     54166      2244  TIP3      H1            -35.7233223247        3.5051245290       32.4322702897  TIP3      884             0.0000000000
     54167      2244  TIP3      H2            -35.0651291338        4.4513138050       31.4464711130  TIP3      884             0.0000000000
     54168      2245  TIP3      OH2           -34.8040624787        3.6812857479       26.7230126757  TIP3      885             0.0000000000
     54169      2245  TIP3      H1            -35.7702232599        3.5486486722       26.6391818989  TIP3      885             0.0000000000
     54170      2245  TIP3      H2            -34.5315119272        3.3407037520       25.8630390232  TIP3      885             0.0000000000
     54171      2246  TIP3      OH2           -30.4149443591        4.2947608999       36.8481473292  TIP3      886             0.0000000000
     54172      2246  TIP3      H1            -30.9666227368        3.5531006622       37.1987695481  TIP3      886             0.0000000000
     54173      2246  TIP3      H2            -29.5973447961        4.2212387326       37.3713735322  TIP3      886             0.0000000000
     54174      2247  TIP3      OH2           -28.5309657892        3.5788051106       28.2725904098  TIP3      887             0.0000000000
     54175      2247  TIP3      H1            -28.6993309179        4.1653997475       27.5283031976  TIP3      887             0.0000000000
     54176      2247  TIP3      H2            -28.3864960556        2.7295796894       27.8362152419  TIP3      887             0.0000000000
     54177      2248  TIP3      OH2           -37.3905084269        3.8043697232       33.4970410574  TIP3      888             0.0000000000
     54178      2248  TIP3      H1            -37.3102988820        4.1959079596       34.3730987065  TIP3      888             0.0000000000
     54179      2248  TIP3      H2            -37.7756441770        2.9417469818       33.6830864906  TIP3      888             0.0000000000
     54180      2249  TIP3      OH2           -34.1221824758        0.9352200226       20.2255262618  TIP3      889             0.0000000000
     54181      2249  TIP3      H1            -34.3172989422        0.8274640206       21.1707383378  TIP3      889             0.0000000000
     54182      2249  TIP3      H2            -34.5834606150        1.7051876414       19.8726368553  TIP3      889             0.0000000000
     54183      2250  TIP3      OH2           -41.5066970470        0.9892350599       27.5694589331  TIP3      890             0.0000000000
     54184      2250  TIP3      H1            -40.7019132949        1.0848626510       28.1366659560  TIP3      890             0.0000000000
     54185      2250  TIP3      H2            -40.9725681517        0.6700854830       26.8214692588  TIP3      890             0.0000000000
     54186      2251  TIP3      OH2           -38.8927797461        1.8562894007       22.5023415591  TIP3      891             0.0000000000
     54187      2251  TIP3      H1            -39.1203645586        2.4762021389       21.8161823815  TIP3      891             0.0000000000
     54188      2251  TIP3      H2            -39.8377661404        1.7525189824       22.8775436295  TIP3      891             0.0000000000
     54189      2252  TIP3      OH2           -29.3006499516        5.2319493475       32.8739269211  TIP3      892             0.0000000000
     54190      2252  TIP3      H1            -28.9194691594        4.5616576649       32.2519167095  TIP3      892             0.0000000000
     54191      2252  TIP3      H2            -29.7281399866        4.6493175284       33.5251058817  TIP3      892             0.0000000000
     54192      2253  TIP3      OH2           -37.0466036864        3.4165226390       25.8202685135  TIP3      893             0.0000000000
     54193      2253  TIP3      H1            -37.9563422004        3.4566316952       26.3091551632  TIP3      893             0.0000000000
     54194      2253  TIP3      H2            -37.0952201207        2.4819982472       26.0946876482  TIP3      893             0.0000000000
     54195      2254  TIP3      OH2           -34.0559922080        2.7436704758       24.1292399607  TIP3      894             0.0000000000
     54196      2254  TIP3      H1            -33.1074348519        2.8236163948       24.3831620003  TIP3      894             0.0000000000
     54197      2254  TIP3      H2            -34.1533594611        3.4641078820       23.5021318454  TIP3      894             0.0000000000
     54198      2255  TIP3      OH2           -35.3745789649        3.7291299853       21.7693181898  TIP3      895             0.0000000000
     54199      2255  TIP3      H1            -35.8461626518        3.6941982713       20.9229671094  TIP3      895             0.0000000000
     54200      2255  TIP3      H2            -34.5637526154        4.1962387139       21.4158821231  TIP3      895             0.0000000000
     54201      2256  TIP3      OH2           -31.1638894932        3.9458810571       29.6078167572  TIP3      896             0.0000000000
     54202      2256  TIP3      H1            -30.5962261363        3.3823150277       29.0590933247  TIP3      896             0.0000000000
     54203      2256  TIP3      H2            -31.3459464799        3.3405378224       30.3486821114  TIP3      896             0.0000000000
     54204      2257  TIP3      OH2           -35.6827963115        0.1118862781       25.9748206413  TIP3      897             0.0000000000
     54205      2257  TIP3      H1            -36.2419161096       -0.7050995238       26.0100111228  TIP3      897             0.0000000000
     54206      2257  TIP3      H2            -35.0898432624       -0.1148292545       25.2754742225  TIP3      897             0.0000000000
     54207      2258  TIP3      OH2           -32.5294252701        2.3509321030       31.9713604144  TIP3      898             0.0000000000
     54208      2258  TIP3      H1            -33.3958916558        2.7818104753       32.1101959540  TIP3      898             0.0000000000
     54209      2258  TIP3      H2            -31.9946310046        2.5671186811       32.7504534582  TIP3      898             0.0000000000
     54210      2259  TIP3      OH2           -31.9591234604        8.2883154802       23.6530107726  TIP3      899             0.0000000000
     54211      2259  TIP3      H1            -32.9367691836        8.2037637663       23.4843470776  TIP3      899             0.0000000000
     54212      2259  TIP3      H2            -32.1147872247        8.6631462171       24.5516032010  TIP3      899             0.0000000000
     54213      2260  TIP3      OH2           -24.8077808509        7.6658971990       32.4385151029  TIP3      900             0.0000000000
     54214      2260  TIP3      H1            -24.1925089754        8.1290740415       31.8704264633  TIP3      900             0.0000000000
     54215      2260  TIP3      H2            -25.6695036691        7.7634694369       32.0123739267  TIP3      900             0.0000000000
     54216      2261  TIP3      OH2           -30.3592108885        8.4338409888       35.0493574768  TIP3      901             0.0000000000
     54217      2261  TIP3      H1            -30.8293732931        7.9728812690       35.7892746453  TIP3      901             0.0000000000
     54218      2261  TIP3      H2            -31.0516046821        8.8524938514       34.5323736087  TIP3      901             0.0000000000
     54219      2262  TIP3      OH2           -29.9733990969        9.8764162406       22.6204824190  TIP3      902             0.0000000000
     54220      2262  TIP3      H1            -30.0335031229       10.7805548272       23.0303632601  TIP3      902             0.0000000000
     54221      2262  TIP3      H2            -30.7055391016        9.4561240377       23.0532148688  TIP3      902             0.0000000000
     54222      2263  TIP3      OH2           -39.9072488196        6.1937799755       34.7967960757  TIP3      903             0.0000000000
     54223      2263  TIP3      H1            -39.5220293989        5.9213875835       35.6627884638  TIP3      903             0.0000000000
     54224      2263  TIP3      H2            -40.2415132844        5.3417658504       34.5038909829  TIP3      903             0.0000000000
     54225      2264  TIP3      OH2           -32.8343044945        5.8826878237       36.9049439907  TIP3      904             0.0000000000
     54226      2264  TIP3      H1            -33.1801483768        5.5345841942       36.0650809535  TIP3      904             0.0000000000
     54227      2264  TIP3      H2            -31.9310138899        5.5053161444       36.9287344252  TIP3      904             0.0000000000
     54228      2265  TIP3      OH2           -22.5526993547        3.3874871062       23.2847764898  TIP3      905             0.0000000000
     54229      2265  TIP3      H1            -23.0342403572        2.9892240408       22.5315927451  TIP3      905             0.0000000000
     54230      2265  TIP3      H2            -22.3911105006        4.2893001730       22.9411026292  TIP3      905             0.0000000000
     54231      2266  TIP3      OH2           -38.7117263632        6.1372248459       21.4502463251  TIP3      906             0.0000000000
     54232      2266  TIP3      H1            -38.1315825831        6.8474986711       21.7679043530  TIP3      906             0.0000000000
     54233      2266  TIP3      H2            -39.5885926808        6.4942066336       21.7113190256  TIP3      906             0.0000000000
     54234      2267  TIP3      OH2           -29.0513920720        9.2355555675       32.5873989131  TIP3      907             0.0000000000
     54235      2267  TIP3      H1            -29.4480911113        8.7411410533       33.2990606463  TIP3      907             0.0000000000
     54236      2267  TIP3      H2            -28.5059990133        8.5184082894       32.1880305251  TIP3      907             0.0000000000
     54237      2268  TIP3      OH2           -38.1621473228        1.1013750734       34.3197872853  TIP3      908             0.0000000000
     54238      2268  TIP3      H1            -39.0732217994        1.4182359399       34.2312741694  TIP3      908             0.0000000000
     54239      2268  TIP3      H2            -38.3015665378        0.2118731832       34.5914130416  TIP3      908             0.0000000000
     54240      2269  TIP3      OH2           -32.4880731388       11.2000158607       20.1022000521  TIP3      909             0.0000000000
     54241      2269  TIP3      H1            -32.5422810456       10.5401307429       19.4098058453  TIP3      909             0.0000000000
     54242      2269  TIP3      H2            -33.0998518268       10.9141219443       20.8001045066  TIP3      909             0.0000000000
     54243      2270  TIP3      OH2           -30.9403880788        3.1879546408       34.2776468831  TIP3      910             0.0000000000
     54244      2270  TIP3      H1            -30.8775876220        3.6832000976       35.1154832264  TIP3      910             0.0000000000
     54245      2270  TIP3      H2            -30.3257381401        2.4502222828       34.4156203180  TIP3      910             0.0000000000
     54246      2271  TIP3      OH2           -34.9637783760        0.3818967838       22.7069132809  TIP3      911             0.0000000000
     54247      2271  TIP3      H1            -34.8725389719        1.1882643710       23.2242402308  TIP3      911             0.0000000000
     54248      2271  TIP3      H2            -34.1346885046       -0.0294133748       23.0343050342  TIP3      911             0.0000000000
     54249      2272  TIP3      OH2           -38.2866037998        3.5076718230       20.8963211634  TIP3      912             0.0000000000
     54250      2272  TIP3      H1            -38.4641222746        4.4654675769       21.0012711274  TIP3      912             0.0000000000
     54251      2272  TIP3      H2            -39.1775344575        3.2198792824       20.5617660597  TIP3      912             0.0000000000
     54252      2273  TIP3      OH2           -37.3185141838       -1.9319962615       29.7373676399  TIP3      913             0.0000000000
     54253      2273  TIP3      H1            -37.6850660507       -1.8162908384       28.8309342953  TIP3      913             0.0000000000
     54254      2273  TIP3      H2            -37.9564152540       -2.6132655664       30.0523822681  TIP3      913             0.0000000000
     54255      2274  TIP3      OH2           -30.6820633929       13.1815476762       20.0310203304  TIP3      914             0.0000000000
     54256      2274  TIP3      H1            -31.3585559092       12.5736356974       20.3810581847  TIP3      914             0.0000000000
     54257      2274  TIP3      H2            -29.9205408195       12.6146624566       19.9304339775  TIP3      914             0.0000000000
     54258      2275  TIP3      OH2           -35.0994272460        8.8636977982       20.1849396725  TIP3      915             0.0000000000
     54259      2275  TIP3      H1            -35.0754479071        8.0664089903       20.6996813294  TIP3      915             0.0000000000
     54260      2275  TIP3      H2            -34.5226244018        8.7379263458       19.4373300445  TIP3      915             0.0000000000
     54261      2276  TIP3      OH2           -32.5929496355        8.5215535583       37.3590023925  TIP3      916             0.0000000000
     54262      2276  TIP3      H1            -33.2608880591        8.6997367873       36.6947603843  TIP3      916             0.0000000000
     54263      2276  TIP3      H2            -32.7306198847        7.5391807280       37.4698848757  TIP3      916             0.0000000000
     54264      2277  TIP3      OH2           -29.8567941967        9.9374344749       19.8922943475  TIP3      917             0.0000000000
     54265      2277  TIP3      H1            -29.9405687169       10.1256782230       20.8434679365  TIP3      917             0.0000000000
     54266      2277  TIP3      H2            -29.9196598657        9.0064644201       19.7554235554  TIP3      917             0.0000000000
     54267      2278  TIP3      OH2           -27.1345951008        8.3705899369       34.8685805463  TIP3      918             0.0000000000
     54268      2278  TIP3      H1            -26.2882469178        8.9089687548       34.7972608949  TIP3      918             0.0000000000
     54269      2278  TIP3      H2            -27.8043385721        9.0308750973       34.9306115029  TIP3      918             0.0000000000
     54270      2279  TIP3      OH2           -38.6638898245        5.7163022304       37.4331448570  TIP3      919             0.0000000000
     54271      2279  TIP3      H1            -38.1710463042        4.8708798198       37.4371696105  TIP3      919             0.0000000000
     54272      2279  TIP3      H2            -38.8693193310        5.7399148356       38.3796452028  TIP3      919             0.0000000000
     54273      2280  TIP3      OH2           -34.6836601608        4.7163270910       34.8450078589  TIP3      920             0.0000000000
     54274      2280  TIP3      H1            -35.3103202093        5.4086584321       35.0973208241  TIP3      920             0.0000000000
     54275      2280  TIP3      H2            -34.3285777570        5.0737151781       34.0140543315  TIP3      920             0.0000000000
     54276      2281  TIP3      OH2           -32.8406038369        5.2139535530       20.7806540711  TIP3      921             0.0000000000
     54277      2281  TIP3      H1            -33.1064643941        4.9484069839       19.8691162658  TIP3      921             0.0000000000
     54278      2281  TIP3      H2            -31.9046917986        4.9790415706       20.7442412530  TIP3      921             0.0000000000
     54279      2282  TIP3      OH2           -29.6731083380        7.2820211818       38.1550782746  TIP3      922             0.0000000000
     54280      2282  TIP3      H1            -28.7024622334        7.2377786259       38.1007394660  TIP3      922             0.0000000000
     54281      2282  TIP3      H2            -29.8457754907        6.5318827494       38.7570155336  TIP3      922             0.0000000000
     54282      2283  TIP3      OH2           -23.6019480783        7.4944896432       20.2311755778  TIP3      923             0.0000000000
     54283      2283  TIP3      H1            -23.7223513782        7.0243943770       19.3975547926  TIP3      923             0.0000000000
     54284      2283  TIP3      H2            -23.4257558052        8.4133736010       19.9872299985  TIP3      923             0.0000000000
     54285      2284  TIP3      OH2           -34.2965019307        2.0569354519       35.9097372120  TIP3      924             0.0000000000
     54286      2284  TIP3      H1            -34.1269587616        1.3768600271       35.2167263053  TIP3      924             0.0000000000
     54287      2284  TIP3      H2            -34.3663545763        2.8817735021       35.3770130787  TIP3      924             0.0000000000
     54288      2285  TIP3      OH2           -34.0208783076        0.6149780708       33.5680342238  TIP3      925             0.0000000000
     54289      2285  TIP3      H1            -33.3729028148        0.7523617149       32.8324529063  TIP3      925             0.0000000000
     54290      2285  TIP3      H2            -34.7544503298        0.3014863385       32.9932589048  TIP3      925             0.0000000000
     54291      2286  TIP3      OH2           -32.3085309368        6.0181158343       33.7410134241  TIP3      926             0.0000000000
     54292      2286  TIP3      H1            -31.6496206707        5.7299087047       33.0927160680  TIP3      926             0.0000000000
     54293      2286  TIP3      H2            -32.7447883898        6.7466222417       33.2884992844  TIP3      926             0.0000000000
     54294      2287  TIP3      OH2           -27.9716845609        3.6811639666       38.6742006723  TIP3      927             0.0000000000
     54295      2287  TIP3      H1            -27.7177825781        2.7553869307       38.5483801237  TIP3      927             0.0000000000
     54296      2287  TIP3      H2            -27.0982090300        4.1128435062       38.6628595408  TIP3      927             0.0000000000
     54297      2288  TIP3      OH2           -26.6526796068        6.5094020419       36.8091401205  TIP3      928             0.0000000000
     54298      2288  TIP3      H1            -26.8535838228        7.2223277202       36.1771684850  TIP3      928             0.0000000000
     54299      2288  TIP3      H2            -25.6859160984        6.4279302383       36.6365252767  TIP3      928             0.0000000000
     54300      2289  TIP3      OH2           -35.8237455312        3.2967050465       37.8461673078  TIP3      929             0.0000000000
     54301      2289  TIP3      H1            -36.6316264373        2.7898187668       37.6693223791  TIP3      929             0.0000000000
     54302      2289  TIP3      H2            -35.1799338067        2.9671919049       37.1965481114  TIP3      929             0.0000000000
     54303      2290  TIP3      OH2           -31.8194088979        2.2342011981       37.4496498897  TIP3      930             0.0000000000
     54304      2290  TIP3      H1            -32.1262961972        1.9912063312       38.3345173026  TIP3      930             0.0000000000
     54305      2290  TIP3      H2            -32.6084748882        2.0343511538       36.9040021797  TIP3      930             0.0000000000
     54306      2291  TIP3      OH2           -37.7137662886        1.2498817445       37.5536933865  TIP3      931             0.0000000000
     54307      2291  TIP3      H1            -37.5332090061        0.6221307629       36.8867635828  TIP3      931             0.0000000000
     54308      2291  TIP3      H2            -37.7820422563        0.8596254497       38.4578588272  TIP3      931             0.0000000000
     54309      2292  TIP3      OH2           -39.4169908616       10.3945361535       21.3532425593  TIP3      932             0.0000000000
     54310      2292  TIP3      H1            -38.4698329815       10.4762080961       21.5124227080  TIP3      932             0.0000000000
     54311      2292  TIP3      H2            -39.4289930521        9.7752900518       20.6087400697  TIP3      932             0.0000000000
     54312      2293  TIP3      OH2            40.7074329218       15.7723548170       26.3081228434  TIP3      933             0.0000000000
     54313      2293  TIP3      H1             39.9662395989       15.3601101330       25.8646446451  TIP3      933             0.0000000000
     54314      2293  TIP3      H2             40.9780893956       15.1423284218       26.9737206124  TIP3      933             0.0000000000
     54315      2294  TIP3      OH2           -24.3602078662        9.9850916172       38.7570252181  TIP3      934             0.0000000000
     54316      2294  TIP3      H1            -25.2498877831        9.9885793553       39.1113813956  TIP3      934             0.0000000000
     54317      2294  TIP3      H2            -23.9509690513       10.8208018993       39.0412606998  TIP3      934             0.0000000000
     54318      2295  TIP3      OH2           -22.4049367096        6.2261938042       22.4657760323  TIP3      935             0.0000000000
     54319      2295  TIP3      H1            -22.8474803396        6.5990942230       21.6718897031  TIP3      935             0.0000000000
     54320      2295  TIP3      H2            -22.4412191726        6.9793997899       23.0591249324  TIP3      935             0.0000000000
     54321      2296  TIP3      OH2           -24.0395443298        6.8774576343       36.2836206058  TIP3      936             0.0000000000
     54322      2296  TIP3      H1            -23.3873001073        6.1471800138       36.3634721825  TIP3      936             0.0000000000
     54323      2296  TIP3      H2            -23.4260667981        7.6299049446       36.1825053386  TIP3      936             0.0000000000
     54324      2297  TIP3      OH2           -22.5083336606        4.7338883902       36.9044299326  TIP3      937             0.0000000000
     54325      2297  TIP3      H1            -23.3770237867        4.3109421478       36.7344153505  TIP3      937             0.0000000000
     54326      2297  TIP3      H2            -21.9372401310        3.9433650360       36.8097819731  TIP3      937             0.0000000000
     54327      2298  TIP3      OH2           -25.1055182452        2.4818219540       25.0656009007  TIP3      938             0.0000000000
     54328      2298  TIP3      H1            -24.8717702018        1.5467308115       25.0989427991  TIP3      938             0.0000000000
     54329      2298  TIP3      H2            -24.3563415575        2.8839893317       24.6235445282  TIP3      938             0.0000000000
     54330      2299  TIP3      OH2           -24.5485241330        3.0474210704       30.4500921015  TIP3      939             0.0000000000
     54331      2299  TIP3      H1            -23.5905682074        3.2427287885       30.4633358489  TIP3      939             0.0000000000
     54332      2299  TIP3      H2            -24.7371060790        3.0970482021       31.4028364279  TIP3      939             0.0000000000
     54333      2300  TIP3      OH2           -24.5493127686        3.7591173749       33.1296952683  TIP3      940             0.0000000000
     54334      2300  TIP3      H1            -25.3404511533        4.0416439956       33.6162882057  TIP3      940             0.0000000000
     54335      2300  TIP3      H2            -24.0160707690        4.5730939796       33.0442986531  TIP3      940             0.0000000000
     54336      2301  TIP3      OH2           -40.1111689359        2.0826015515       36.5396203749  TIP3      941             0.0000000000
     54337      2301  TIP3      H1            -39.2687520072        2.1277269983       37.0203816728  TIP3      941             0.0000000000
     54338      2301  TIP3      H2            -40.6511110253        1.5031698769       37.1036920206  TIP3      941             0.0000000000
     54339      2302  TIP3      OH2           -22.4563838298       -2.0118619041       38.2864435420  TIP3      942             0.0000000000
     54340      2302  TIP3      H1            -22.2243244014       -2.5610552098       37.5201621156  TIP3      942             0.0000000000
     54341      2302  TIP3      H2            -22.2443651601       -1.1429481609       37.9038000674  TIP3      942             0.0000000000
     54342      2303  TIP3      OH2           -39.1688433297        0.7999270961       30.5461559188  TIP3      943             0.0000000000
     54343      2303  TIP3      H1            -38.7114551336       -0.0465372061       30.2950259302  TIP3      943             0.0000000000
     54344      2303  TIP3      H2            -38.4804003716        1.3710041941       30.1621131848  TIP3      943             0.0000000000
     54345      2304  TIP3      OH2           -40.4675955251        3.7249038123       30.4111321019  TIP3      944             0.0000000000
     54346      2304  TIP3      H1            -39.8176704686        3.3544118850       29.7927507294  TIP3      944             0.0000000000
     54347      2304  TIP3      H2            -39.9408859369        4.4003459583       30.8265211562  TIP3      944             0.0000000000
     54348      2305  TIP3      OH2           -40.4669122977        0.3105078315       23.0345362829  TIP3      945             0.0000000000
     54349      2305  TIP3      H1            -40.9567847156        0.3091715801       23.9248456298  TIP3      945             0.0000000000
     54350      2305  TIP3      H2            -39.7059925673        0.3802764710       23.6520176812  TIP3      945             0.0000000000
     54351      2306  TIP3      OH2            41.2196609512       -0.9423842483       32.8496678650  TIP3      946             0.0000000000
     54352      2306  TIP3      H1             40.6068341547       -1.5679304068       33.4129078062  TIP3      946             0.0000000000
     54353      2306  TIP3      H2             40.5354598824       -0.8819536331       32.2011254653  TIP3      946             0.0000000000
     54354      2307  TIP3      OH2           -37.5767353551       -2.5456015598       27.2315893891  TIP3      947             0.0000000000
     54355      2307  TIP3      H1            -38.3156307619       -2.2627168182       26.6391436669  TIP3      947             0.0000000000
     54356      2307  TIP3      H2            -37.1702752673       -3.2414787276       26.7545128420  TIP3      947             0.0000000000
     54357      2308  TIP3      OH2           -39.4391301135       -2.5185254144       22.0767518090  TIP3      948             0.0000000000
     54358      2308  TIP3      H1            -38.8229626980       -1.7858688399       22.0157806031  TIP3      948             0.0000000000
     54359      2308  TIP3      H2            -39.8103298094       -2.0578452148       22.8685914264  TIP3      948             0.0000000000
     54360      2309  TIP3      OH2           -37.0565868229        0.1431189253       21.1993064676  TIP3      949             0.0000000000
     54361      2309  TIP3      H1            -37.2604651737       -0.8326746877       21.2226263876  TIP3      949             0.0000000000
     54362      2309  TIP3      H2            -36.6660610960        0.0397491468       22.0914519189  TIP3      949             0.0000000000
     54363      2310  TIP3      OH2           -38.6999917236       -1.8283676522       37.0561598445  TIP3      950             0.0000000000
     54364      2310  TIP3      H1            -38.7675156309       -2.7889551152       37.0809519738  TIP3      950             0.0000000000
     54365      2310  TIP3      H2            -38.2930771525       -1.6182055947       36.1286676916  TIP3      950             0.0000000000
     54366      2311  TIP3      OH2           -35.4801773004       -2.3758686397       38.5165184496  TIP3      951             0.0000000000
     54367      2311  TIP3      H1            -34.8332090816       -2.6099165328       37.8170529544  TIP3      951             0.0000000000
     54368      2311  TIP3      H2            -36.0743676668       -3.1662077066       38.6520114155  TIP3      951             0.0000000000
     54369      2312  TIP3      OH2           -18.6911122765        6.0613698648       31.7989061975  TIP3      952             0.0000000000
     54370      2312  TIP3      H1            -18.6758859653        5.4446980309       32.5696764270  TIP3      952             0.0000000000
     54371      2312  TIP3      H2            -18.0777514142        6.7189379771       32.1718241468  TIP3      952             0.0000000000
     54372      2313  TIP3      OH2            -7.4012717303        9.4220438670       28.5623570827  TIP3      953             0.0000000000
     54373      2313  TIP3      H1             -7.8289722671        8.6957576812       29.0293495328  TIP3      953             0.0000000000
     54374      2313  TIP3      H2             -7.3886797192       10.1056804851       29.2524176623  TIP3      953             0.0000000000
     54375      2314  TIP3      OH2           -21.1706051467        4.1900883155       25.8348290663  TIP3      954             0.0000000000
     54376      2314  TIP3      H1            -21.6615430830        5.0090337387       25.8019605818  TIP3      954             0.0000000000
     54377      2314  TIP3      H2            -21.7155695442        3.6084207072       25.2741797657  TIP3      954             0.0000000000
     54378      2315  TIP3      OH2           -20.3794162974        6.4038450603       28.0089826987  TIP3      955             0.0000000000
     54379      2315  TIP3      H1            -20.2501449293        5.5187181569       28.4163954288  TIP3      955             0.0000000000
     54380      2315  TIP3      H2            -19.7574740017        6.3847948979       27.2724393102  TIP3      955             0.0000000000
     54381      2316  TIP3      OH2            -8.6808037376        1.4853574041       26.6667620741  TIP3      956             0.0000000000
     54382      2316  TIP3      H1             -8.0397521912        1.1866680236       27.3333702516  TIP3      956             0.0000000000
     54383      2316  TIP3      H2             -8.1352485865        2.0221533638       26.0722163267  TIP3      956             0.0000000000
     54384      2317  TIP3      OH2           -19.7757577890        3.7775762910       29.0684764284  TIP3      957             0.0000000000
     54385      2317  TIP3      H1            -19.0602223431        3.2446071528       29.4480657199  TIP3      957             0.0000000000
     54386      2317  TIP3      H2            -19.7684838451        3.4868792782       28.1413886784  TIP3      957             0.0000000000
     54387      2318  TIP3      OH2            -3.9174561790        1.7719592020       33.8685250478  TIP3      958             0.0000000000
     54388      2318  TIP3      H1             -4.1644612731        2.6712379164       33.5974363597  TIP3      958             0.0000000000
     54389      2318  TIP3      H2             -3.4428256289        1.8336876263       34.7094868536  TIP3      958             0.0000000000
     54390      2319  TIP3      OH2           -17.6338137209        0.2259425497       32.3460542622  TIP3      959             0.0000000000
     54391      2319  TIP3      H1            -17.7561010954        0.8558007481       31.6270398307  TIP3      959             0.0000000000
     54392      2319  TIP3      H2            -18.2621765841        0.5375619894       33.0339361400  TIP3      959             0.0000000000
     54393      2320  TIP3      OH2            -6.9141015176        0.8190637099       28.6797291510  TIP3      960             0.0000000000
     54394      2320  TIP3      H1             -7.1818308216        0.0707279604       29.2387192351  TIP3      960             0.0000000000
     54395      2320  TIP3      H2             -6.2385597521        1.2468919387       29.2087372682  TIP3      960             0.0000000000
     54396      2321  TIP3      OH2            -6.8696966975       11.2374070740       30.9872016440  TIP3      961             0.0000000000
     54397      2321  TIP3      H1             -7.8393817384       11.3462407029       31.0529191224  TIP3      961             0.0000000000
     54398      2321  TIP3      H2             -6.6250407424       12.1534664816       30.7575196207  TIP3      961             0.0000000000
     54399      2322  TIP3      OH2            -6.4935013236       -0.1678050087       32.5505328439  TIP3      962             0.0000000000
     54400      2322  TIP3      H1             -7.3588007426        0.0431882263       32.1592380570  TIP3      962             0.0000000000
     54401      2322  TIP3      H2             -5.8770751663       -0.1347950303       31.7954831300  TIP3      962             0.0000000000
     54402      2323  TIP3      OH2           -13.6081767686       -2.4136174390       29.7778486049  TIP3      963             0.0000000000
     54403      2323  TIP3      H1            -13.7344862090       -3.3635726766       29.7502075564  TIP3      963             0.0000000000
     54404      2323  TIP3      H2            -14.4509153599       -2.0511095232       30.1101905619  TIP3      963             0.0000000000
     54405      2324  TIP3      OH2            -8.6218245529       13.0312690310       27.6006893846  TIP3      964             0.0000000000
     54406      2324  TIP3      H1             -8.2110087282       12.3295178129       27.0694138675  TIP3      964             0.0000000000
     54407      2324  TIP3      H2             -8.2625379679       13.8076249313       27.1369863263  TIP3      964             0.0000000000
     54408      2325  TIP3      OH2            -7.3957245486       10.9019731732       26.0170764186  TIP3      965             0.0000000000
     54409      2325  TIP3      H1             -7.7317342589       10.2234870343       25.4316527997  TIP3      965             0.0000000000
     54410      2325  TIP3      H2             -7.4051703459       10.4700747727       26.8965151324  TIP3      965             0.0000000000
     54411      2326  TIP3      OH2            -5.8218160122        9.5286901635       34.5251851917  TIP3      966             0.0000000000
     54412      2326  TIP3      H1             -5.6550044619        8.9193928742       33.7860314615  TIP3      966             0.0000000000
     54413      2326  TIP3      H2             -5.6212697904       10.3949160882       34.1293651239  TIP3      966             0.0000000000
     54414      2327  TIP3      OH2            -3.9900356550        5.8558699744       32.6700647317  TIP3      967             0.0000000000
     54415      2327  TIP3      H1             -4.5862022407        6.6150562310       32.6142677833  TIP3      967             0.0000000000
     54416      2327  TIP3      H2             -3.4310121576        5.9329095132       31.8651592548  TIP3      967             0.0000000000
     54417      2328  TIP3      OH2            -7.9469714780        4.8129665218       34.4154073730  TIP3      968             0.0000000000
     54418      2328  TIP3      H1             -7.9753398732        5.6800595991       34.8898725044  TIP3      968             0.0000000000
     54419      2328  TIP3      H2             -8.5413325240        5.0782919192       33.6789080143  TIP3      968             0.0000000000
     54420      2329  TIP3      OH2            -9.5324386963       11.5943507186       31.5216376437  TIP3      969             0.0000000000
     54421      2329  TIP3      H1             -9.7919199541       12.2392519392       32.1913033221  TIP3      969             0.0000000000
     54422      2329  TIP3      H2             -9.7904605485       10.7447124811       31.9440679680  TIP3      969             0.0000000000
     54423      2330  TIP3      OH2           -16.8779821347       12.6932160932       36.2882354979  TIP3      970             0.0000000000
     54424      2330  TIP3      H1            -16.6255281167       12.3269700817       35.4031638018  TIP3      970             0.0000000000
     54425      2330  TIP3      H2            -17.7203536449       12.2842843284       36.4463415843  TIP3      970             0.0000000000
     54426      2331  TIP3      OH2            -4.1655036427       11.9878987882       20.9999412971  TIP3      971             0.0000000000
     54427      2331  TIP3      H1             -3.9859241116       12.8644189317       21.4108993878  TIP3      971             0.0000000000
     54428      2331  TIP3      H2             -3.2671406705       11.6150872932       21.1364840056  TIP3      971             0.0000000000
     54429      2332  TIP3      OH2            -3.1916361576       12.1767727313       36.1211546597  TIP3      972             0.0000000000
     54430      2332  TIP3      H1             -3.2745552780       11.2098093964       36.1213543748  TIP3      972             0.0000000000
     54431      2332  TIP3      H2             -4.0552079248       12.4230878621       36.5472187788  TIP3      972             0.0000000000
     54432      2333  TIP3      OH2            -5.9634437302        3.7821605180       37.2251133307  TIP3      973             0.0000000000
     54433      2333  TIP3      H1             -6.1581991918        4.5006241396       36.5836293772  TIP3      973             0.0000000000
     54434      2333  TIP3      H2             -5.6671221898        2.8786868316       36.9407538224  TIP3      973             0.0000000000
     54435      2334  TIP3      OH2           -16.2479996081       -1.5065649935       30.6116966067  TIP3      974             0.0000000000
     54436      2334  TIP3      H1            -17.1341972652       -1.5628363804       30.1914395929  TIP3      974             0.0000000000
     54437      2334  TIP3      H2            -16.2811939701       -0.6064274435       31.0015805276  TIP3      974             0.0000000000
     54438      2335  TIP3      OH2           -11.6022033662       -1.8308578701       33.9494881071  TIP3      975             0.0000000000
     54439      2335  TIP3      H1            -11.2363540591       -2.1735121655       34.7529453778  TIP3      975             0.0000000000
     54440      2335  TIP3      H2            -12.5775814643       -1.8928538642       34.0526405988  TIP3      975             0.0000000000
     54441      2336  TIP3      OH2            -8.3587730894        2.0683568401       34.8998922217  TIP3      976             0.0000000000
     54442      2336  TIP3      H1             -9.0251751925        1.7430301866       35.5341763822  TIP3      976             0.0000000000
     54443      2336  TIP3      H2             -8.8062305131        2.8067384730       34.4419011327  TIP3      976             0.0000000000
     54444      2337  TIP3      OH2            -7.5281844865        6.8180971245       20.6039040345  TIP3      977             0.0000000000
     54445      2337  TIP3      H1             -7.5251707089        6.6701354962       19.6599358330  TIP3      977             0.0000000000
     54446      2337  TIP3      H2             -6.6718885145        7.2286408845       20.7894825323  TIP3      977             0.0000000000
     54447      2338  TIP3      OH2           -12.2346565374        0.7123256867       21.1537650080  TIP3      978             0.0000000000
     54448      2338  TIP3      H1            -12.1746060341        0.7669165932       22.1605663342  TIP3      978             0.0000000000
     54449      2338  TIP3      H2            -12.0804268759       -0.2382626046       21.0626458234  TIP3      978             0.0000000000
     54450      2339  TIP3      OH2           -18.5626380892        3.8269395303       33.5220174967  TIP3      979             0.0000000000
     54451      2339  TIP3      H1            -18.4403204776        4.2089805186       34.4024676678  TIP3      979             0.0000000000
     54452      2339  TIP3      H2            -18.9335083967        2.9556517791       33.7091432957  TIP3      979             0.0000000000
     54453      2340  TIP3      OH2           -15.7223309286        1.5916296568       20.7837368975  TIP3      980             0.0000000000
     54454      2340  TIP3      H1            -15.8692939823        0.7334934542       21.2844684151  TIP3      980             0.0000000000
     54455      2340  TIP3      H2            -16.2979476367        1.6116619416       19.9999586230  TIP3      980             0.0000000000
     54456      2341  TIP3      OH2           -21.8925520292        0.8559441695       27.4786281013  TIP3      981             0.0000000000
     54457      2341  TIP3      H1            -21.2143339382        0.9026671304       28.1737792352  TIP3      981             0.0000000000
     54458      2341  TIP3      H2            -21.4090240857        0.5420755539       26.7110392845  TIP3      981             0.0000000000
     54459      2342  TIP3      OH2            -9.1565400269        0.3870909316       30.9625699533  TIP3      982             0.0000000000
     54460      2342  TIP3      H1             -9.9236612677        0.4939574790       31.5641445263  TIP3      982             0.0000000000
     54461      2342  TIP3      H2             -9.6906897265        0.2118493877       30.1739526163  TIP3      982             0.0000000000
     54462      2343  TIP3      OH2            -5.9409690970       16.0274527863       37.2700565322  TIP3      983             0.0000000000
     54463      2343  TIP3      H1             -5.7286361034       16.4118747222       36.3967397306  TIP3      983             0.0000000000
     54464      2343  TIP3      H2             -5.2297582180       16.3478031189       37.8414192140  TIP3      983             0.0000000000
     54465      2344  TIP3      OH2            -5.9796597445        7.6216031179       32.4709092236  TIP3      984             0.0000000000
     54466      2344  TIP3      H1             -5.3598570090        8.1007992314       31.8835766367  TIP3      984             0.0000000000
     54467      2344  TIP3      H2             -6.7939586083        7.7708899157       31.9535418447  TIP3      984             0.0000000000
     54468      2345  TIP3      OH2            -9.2141807482        1.4287791837       21.6003072467  TIP3      985             0.0000000000
     54469      2345  TIP3      H1            -10.1636393632        1.4562252619       21.7992126246  TIP3      985             0.0000000000
     54470      2345  TIP3      H2             -8.9940614365        2.1361357944       22.2484550265  TIP3      985             0.0000000000
     54471      2346  TIP3      OH2           -21.0335764711        6.2466679529       34.7301009264  TIP3      986             0.0000000000
     54472      2346  TIP3      H1            -20.7669613419        5.8875895747       35.5867573271  TIP3      986             0.0000000000
     54473      2346  TIP3      H2            -21.6335986356        5.6212157636       34.3218927295  TIP3      986             0.0000000000
     54474      2347  TIP3      OH2            -9.3652112300       11.1365787792       34.8589696600  TIP3      987             0.0000000000
     54475      2347  TIP3      H1            -10.2891735900       11.3743001320       34.6715556023  TIP3      987             0.0000000000
     54476      2347  TIP3      H2             -9.3752855103       11.5010888387       35.7800919194  TIP3      987             0.0000000000
     54477      2348  TIP3      OH2            -3.6578721478        3.3485023347       23.2405473035  TIP3      988             0.0000000000
     54478      2348  TIP3      H1             -4.2085366171        3.0319602988       22.5286306023  TIP3      988             0.0000000000
     54479      2348  TIP3      H2             -3.5142748731        4.2679482814       22.9963647183  TIP3      988             0.0000000000
     54480      2349  TIP3      OH2            -3.6560478743        9.1971297159       36.0675617184  TIP3      989             0.0000000000
     54481      2349  TIP3      H1             -4.5337609509        9.4247744434       35.6844411247  TIP3      989             0.0000000000
     54482      2349  TIP3      H2             -3.0540445180        9.2061367911       35.2950579593  TIP3      989             0.0000000000
     54483      2350  TIP3      OH2            -5.3741119876       12.2028580623       23.6358756652  TIP3      990             0.0000000000
     54484      2350  TIP3      H1             -5.7164330670       11.3884935446       24.0279351745  TIP3      990             0.0000000000
     54485      2350  TIP3      H2             -5.0514077882       11.9521051359       22.7737464303  TIP3      990             0.0000000000
     54486      2351  TIP3      OH2            -8.1737542323        7.0425208183       30.7594957876  TIP3      991             0.0000000000
     54487      2351  TIP3      H1             -9.0857492779        6.7766514713       30.6517592283  TIP3      991             0.0000000000
     54488      2351  TIP3      H2             -7.7376108843        6.2832206215       30.3089635936  TIP3      991             0.0000000000
     54489      2352  TIP3      OH2           -10.2416097157        9.1642947653       32.3911530698  TIP3      992             0.0000000000
     54490      2352  TIP3      H1            -10.5552141293        9.0337636203       33.3010725170  TIP3      992             0.0000000000
     54491      2352  TIP3      H2             -9.5372204861        8.5195035795       32.2660431203  TIP3      992             0.0000000000
     54492      2353  TIP3      OH2            -7.8860950399       10.1884671966       21.4933190644  TIP3      993             0.0000000000
     54493      2353  TIP3      H1             -7.6126210228        9.7487254251       22.3195991914  TIP3      993             0.0000000000
     54494      2353  TIP3      H2             -8.8697447988       10.1621869418       21.5608420877  TIP3      993             0.0000000000
     54495      2354  TIP3      OH2            -7.3819925818       13.7479253017       34.8919586240  TIP3      994             0.0000000000
     54496      2354  TIP3      H1             -8.1069092967       13.2807472749       34.4513311765  TIP3      994             0.0000000000
     54497      2354  TIP3      H2             -7.2553770790       14.4916157202       34.2750676345  TIP3      994             0.0000000000
     54498      2355  TIP3      OH2            -3.5140758487       14.6770940527       21.5639866832  TIP3      995             0.0000000000
     54499      2355  TIP3      H1             -2.6721512069       15.1846096093       21.6428505388  TIP3      995             0.0000000000
     54500      2355  TIP3      H2             -4.0844993656       15.2262222139       22.1472143152  TIP3      995             0.0000000000
     54501      2356  TIP3      OH2           -19.3874590054        0.9987088925       34.2910459696  TIP3      996             0.0000000000
     54502      2356  TIP3      H1            -20.3024145556        1.3344179705       34.2961337627  TIP3      996             0.0000000000
     54503      2356  TIP3      H2            -19.5355468130        0.1527125589       34.7565661747  TIP3      996             0.0000000000
     54504      2357  TIP3      OH2            -7.0892750641        8.8512508365       23.7609998238  TIP3      997             0.0000000000
     54505      2357  TIP3      H1             -7.2950221992        8.0630881253       24.2746370133  TIP3      997             0.0000000000
     54506      2357  TIP3      H2             -6.1467428822        8.9513120530       23.9437808975  TIP3      997             0.0000000000
     54507      2358  TIP3      OH2           -19.4079101223       12.8834915526       32.7072079249  TIP3      998             0.0000000000
     54508      2358  TIP3      H1            -19.4993978042       11.9206075061       32.8112177432  TIP3      998             0.0000000000
     54509      2358  TIP3      H2            -19.4415281853       13.0880687225       33.6644142707  TIP3      998             0.0000000000
     54510      2359  TIP3      OH2           -14.0286261328       11.2174613455       19.9060141938  TIP3      999             0.0000000000
     54511      2359  TIP3      H1            -13.5582230891       10.5313573952       19.4441528839  TIP3      999             0.0000000000
     54512      2359  TIP3      H2            -14.0744287160       10.9021662833       20.8195843155  TIP3      999             0.0000000000
     54513      2360  TIP3      OH2           -16.0975426018        0.1891492554       22.8129437892  TIP3      1000            0.0000000000
     54514      2360  TIP3      H1            -16.2052427894        1.0771597056       23.2163523967  TIP3      1000            0.0000000000
     54515      2360  TIP3      H2            -15.2237657971       -0.0451797114       23.1808902621  TIP3      1000            0.0000000000
     54516      2361  TIP3      OH2            -5.9615316218        1.1673725783       35.2091868903  TIP3      1001            0.0000000000
     54517      2361  TIP3      H1             -6.8878434522        0.9717102016       34.9569506468  TIP3      1001            0.0000000000
     54518      2361  TIP3      H2             -5.4993725551        0.8821222520       34.3489457903  TIP3      1001            0.0000000000
     54519      2362  TIP3      OH2            -7.3370661451        4.8157503471       29.3528622948  TIP3      1002            0.0000000000
     54520      2362  TIP3      H1             -8.1056974083        4.4159275676       28.9032723117  TIP3      1002            0.0000000000
     54521      2362  TIP3      H2             -6.8456229931        4.0733436134       29.6993953254  TIP3      1002            0.0000000000
     54522      2363  TIP3      OH2           -17.8779773613       10.7195327763       21.8018012487  TIP3      1003            0.0000000000
     54523      2363  TIP3      H1            -17.2828427093       11.4157545364       22.0786062979  TIP3      1003            0.0000000000
     54524      2363  TIP3      H2            -17.3856508857       10.2285825597       21.1389824324  TIP3      1003            0.0000000000
     54525      2364  TIP3      OH2            -6.2688311954       14.0757707933       30.8938294440  TIP3      1004            0.0000000000
     54526      2364  TIP3      H1             -6.3426031318       14.7286561550       30.1702724241  TIP3      1004            0.0000000000
     54527      2364  TIP3      H2             -5.2949150913       14.1025971305       31.0559629010  TIP3      1004            0.0000000000
     54528      2365  TIP3      OH2           -18.7620119311       -1.8109024227       29.6774765356  TIP3      1005            0.0000000000
     54529      2365  TIP3      H1            -18.9145601729       -1.7968057504       28.7070632006  TIP3      1005            0.0000000000
     54530      2365  TIP3      H2            -19.1925713297       -2.6549214024       29.9401168732  TIP3      1005            0.0000000000
     54531      2366  TIP3      OH2            -9.2666154930       11.9654216683       37.4113342705  TIP3      1006            0.0000000000
     54532      2366  TIP3      H1             -9.7736476751       11.2034659382       37.7581726276  TIP3      1006            0.0000000000
     54533      2366  TIP3      H2             -8.5955403483       12.1760985521       38.0821309547  TIP3      1006            0.0000000000
     54534      2367  TIP3      OH2            -7.1600283496       12.9410531753       20.2691372868  TIP3      1007            0.0000000000
     54535      2367  TIP3      H1             -7.0448865327       12.1456046599       20.8434486738  TIP3      1007            0.0000000000
     54536      2367  TIP3      H2             -6.3741471837       13.2404390523       19.9438039279  TIP3      1007            0.0000000000
     54537      2368  TIP3      OH2           -20.8306537076        8.3747657513       38.1829574266  TIP3      1008            0.0000000000
     54538      2368  TIP3      H1            -20.3512085055        7.7065970823       37.6584587911  TIP3      1008            0.0000000000
     54539      2368  TIP3      H2            -21.2754990586        8.8864109981       37.4916913737  TIP3      1008            0.0000000000
     54540      2369  TIP3      OH2            -8.2547976670        8.3426133743       34.8614580743  TIP3      1009            0.0000000000
     54541      2369  TIP3      H1             -7.4873707050        8.9615199862       34.8124629183  TIP3      1009            0.0000000000
     54542      2369  TIP3      H2             -8.9390672741        9.0349671171       34.9490117502  TIP3      1009            0.0000000000
     54543      2370  TIP3      OH2           -19.8739478275        5.6577492724       37.4916848239  TIP3      1010            0.0000000000
     54544      2370  TIP3      H1            -19.3159957956        4.8824985222       37.3757736148  TIP3      1010            0.0000000000
     54545      2370  TIP3      H2            -20.0214854324        5.7350753190       38.4262635567  TIP3      1010            0.0000000000
     54546      2371  TIP3      OH2           -10.7943959844        7.2653440915       38.1759513907  TIP3      1011            0.0000000000
     54547      2371  TIP3      H1             -9.8346250099        7.2988123643       38.1418001027  TIP3      1011            0.0000000000
     54548      2371  TIP3      H2            -10.9675351488        6.4610595556       38.6774368703  TIP3      1011            0.0000000000
     54549      2372  TIP3      OH2            -4.7865392795        7.4823104588       20.2338311165  TIP3      1012            0.0000000000
     54550      2372  TIP3      H1             -4.8620247044        7.0032033227       19.4021365246  TIP3      1012            0.0000000000
     54551      2372  TIP3      H2             -4.5061002625        8.3617709777       19.9808507717  TIP3      1012            0.0000000000
     54552      2373  TIP3      OH2            -9.0226234568        3.6713482510       38.4815210139  TIP3      1013            0.0000000000
     54553      2373  TIP3      H1             -8.8804599448        2.7548401428       38.7175970965  TIP3      1013            0.0000000000
     54554      2373  TIP3      H2             -8.2285646321        4.1472559364       38.7823470219  TIP3      1013            0.0000000000
     54555      2374  TIP3      OH2            -7.7335356884        6.3645210432       36.6913263277  TIP3      1014            0.0000000000
     54556      2374  TIP3      H1             -8.0394369762        7.1979064239       36.2394456271  TIP3      1014            0.0000000000
     54557      2374  TIP3      H2             -6.7742214476        6.5544113034       36.6791255204  TIP3      1014            0.0000000000
     54558      2375  TIP3      OH2           -14.2923517230       -2.1136659079       33.8867203497  TIP3      1015            0.0000000000
     54559      2375  TIP3      H1            -14.3586760914       -1.1556985629       33.6979439449  TIP3      1015            0.0000000000
     54560      2375  TIP3      H2            -15.0345516203       -2.4605612517       33.3536343936  TIP3      1015            0.0000000000
     54561      2376  TIP3      OH2            -8.6549462199        0.0175671017       38.5242449937  TIP3      1016            0.0000000000
     54562      2376  TIP3      H1             -8.7522492896       -0.9459811825       38.5032677899  TIP3      1016            0.0000000000
     54563      2376  TIP3      H2             -8.9860867008        0.2589908456       39.3950233979  TIP3      1016            0.0000000000
     54564      2377  TIP3      OH2           -18.9116786458        1.2413464471       37.5632274084  TIP3      1017            0.0000000000
     54565      2377  TIP3      H1            -18.6311893449        0.5413616551       36.9564577275  TIP3      1017            0.0000000000
     54566      2377  TIP3      H2            -18.9344335910        0.8137171386       38.4300124315  TIP3      1017            0.0000000000
     54567      2378  TIP3      OH2           -14.0214405305       -2.7436766528       36.5288823370  TIP3      1018            0.0000000000
     54568      2378  TIP3      H1            -13.3551619312       -3.4632856731       36.4931448953  TIP3      1018            0.0000000000
     54569      2378  TIP3      H2            -14.1503057238       -2.5200530803       35.5793797948  TIP3      1018            0.0000000000
     54570      2379  TIP3      OH2            -3.5489977770       14.7287882927       31.1049722579  TIP3      1019            0.0000000000
     54571      2379  TIP3      H1             -3.4733256995       14.8647425547       32.0615909525  TIP3      1019            0.0000000000
     54572      2379  TIP3      H2             -2.8346775491       15.2769586220       30.7604740074  TIP3      1019            0.0000000000
     54573      2380  TIP3      OH2            -3.9381569633       14.2699165667       34.0346214485  TIP3      1020            0.0000000000
     54574      2380  TIP3      H1             -4.4461262336       13.5138533007       33.6750992189  TIP3      1020            0.0000000000
     54575      2380  TIP3      H2             -3.4209427200       13.8357420534       34.7338047878  TIP3      1020            0.0000000000
     54576      2381  TIP3      OH2            -5.5096645746       10.0309519990       38.6799170574  TIP3      1021            0.0000000000
     54577      2381  TIP3      H1             -6.3812269773        9.9932893171       39.1142440170  TIP3      1021            0.0000000000
     54578      2381  TIP3      H2             -5.1077563719       10.8071411602       39.1240243733  TIP3      1021            0.0000000000
     54579      2382  TIP3      OH2            -4.0130921551        9.0880407162       31.0200075964  TIP3      1022            0.0000000000
     54580      2382  TIP3      H1             -3.2182933573        8.7495714615       30.5937468364  TIP3      1022            0.0000000000
     54581      2382  TIP3      H2             -3.9307313852       10.0529966203       30.8072841696  TIP3      1022            0.0000000000
     54582      2383  TIP3      OH2            -5.5307687415       12.0022304908       33.2922187608  TIP3      1023            0.0000000000
     54583      2383  TIP3      H1             -6.2118509938       12.3819555341       33.8719638127  TIP3      1023            0.0000000000
     54584      2383  TIP3      H2             -6.0680986854       11.6356951881       32.5550124564  TIP3      1023            0.0000000000
     54585      2384  TIP3      OH2            -5.2027043219        3.4961455625       20.9175526108  TIP3      1024            0.0000000000
     54586      2384  TIP3      H1             -5.0291747149        4.1983763359       20.2827201477  TIP3      1024            0.0000000000
     54587      2384  TIP3      H2             -5.2448723557        2.6692725544       20.4438547026  TIP3      1024            0.0000000000
     54588      2385  TIP3      OH2           -21.0009778261        6.9694572119       30.5867403802  TIP3      1025            0.0000000000
     54589      2385  TIP3      H1            -20.7818624304        6.8734463411       29.6422968701  TIP3      1025            0.0000000000
     54590      2385  TIP3      H2            -20.1278747381        6.8281921925       31.0269770693  TIP3      1025            0.0000000000
     54591      2386  TIP3      OH2            -5.1394307357        6.8079315550       36.2361096419  TIP3      1026            0.0000000000
     54592      2386  TIP3      H1             -4.4480802807        6.1300946537       36.4071159983  TIP3      1026            0.0000000000
     54593      2386  TIP3      H2             -4.5997858548        7.6442700003       36.2696465735  TIP3      1026            0.0000000000
     54594      2387  TIP3      OH2            -3.5605682008        4.7696539636       36.8206579258  TIP3      1027            0.0000000000
     54595      2387  TIP3      H1             -4.4320992910        4.3859292006       36.8679668280  TIP3      1027            0.0000000000
     54596      2387  TIP3      H2             -2.9790474055        4.0067028326       36.8030015183  TIP3      1027            0.0000000000
     54597      2388  TIP3      OH2            -5.9714970773        0.8766322085       20.1667327162  TIP3      1028            0.0000000000
     54598      2388  TIP3      H1             -5.2148131622        0.5316994523       20.7290706578  TIP3      1028            0.0000000000
     54599      2388  TIP3      H2             -6.6503961059        0.3357697988       20.5921599085  TIP3      1028            0.0000000000
     54600      2389  TIP3      OH2            -6.3116319255        2.4635571737       25.0672209699  TIP3      1029            0.0000000000
     54601      2389  TIP3      H1             -6.0294052268        1.5299627688       25.1051389392  TIP3      1029            0.0000000000
     54602      2389  TIP3      H2             -5.5564142335        2.8926768586       24.6337938646  TIP3      1029            0.0000000000
     54603      2390  TIP3      OH2            -5.7256456889        3.8316142580       33.5041127568  TIP3      1030            0.0000000000
     54604      2390  TIP3      H1             -6.5919405124        4.2138039523       33.2892173116  TIP3      1030            0.0000000000
     54605      2390  TIP3      H2             -5.1313845919        4.4738542861       32.9993183224  TIP3      1030            0.0000000000
     54606      2391  TIP3      OH2           -21.3461311445        2.3430325188       36.8174680997  TIP3      1031            0.0000000000
     54607      2391  TIP3      H1            -20.4328986411        2.0397858918       36.9451177618  TIP3      1031            0.0000000000
     54608      2391  TIP3      H2            -21.8920358802        1.5447201608       36.9862319775  TIP3      1031            0.0000000000
     54609      2392  TIP3      OH2            -3.3671034118       -2.2152912563       38.6158792825  TIP3      1032            0.0000000000
     54610      2392  TIP3      H1             -3.0200022172       -2.8843539017       38.0010347574  TIP3      1032            0.0000000000
     54611      2392  TIP3      H2             -3.2539365632       -1.4024188365       38.0863010313  TIP3      1032            0.0000000000
     54612      2393  TIP3      OH2            -5.7241192661       -0.2626654386       25.1001322872  TIP3      1033            0.0000000000
     54613      2393  TIP3      H1             -5.5279211571       -0.7464901021       25.9137429099  TIP3      1033            0.0000000000
     54614      2393  TIP3      H2             -6.3146455631       -0.8587805570       24.6135053514  TIP3      1033            0.0000000000
     54615      2394  TIP3      OH2           -20.1356687798        0.5512429577       29.5614531637  TIP3      1034            0.0000000000
     54616      2394  TIP3      H1            -19.7133385350       -0.2547796819       29.9231712417  TIP3      1034            0.0000000000
     54617      2394  TIP3      H2            -19.7203368367        1.2455496371       30.0682190161  TIP3      1034            0.0000000000
     54618      2395  TIP3      OH2           -21.8944799027        3.5675456239       30.6631342939  TIP3      1035            0.0000000000
     54619      2395  TIP3      H1            -21.3344866995        3.3437238368       29.9021714199  TIP3      1035            0.0000000000
     54620      2395  TIP3      H2            -21.4765667405        4.3806617391       30.9556735718  TIP3      1035            0.0000000000
     54621      2396  TIP3      OH2            -3.8608134304       -0.1191490203       36.9806166066  TIP3      1036            0.0000000000
     54622      2396  TIP3      H1             -4.7894415606        0.1268411537       36.9102946772  TIP3      1036            0.0000000000
     54623      2396  TIP3      H2             -3.7052776046       -0.5928323725       36.1474508573  TIP3      1036            0.0000000000
     54624      2397  TIP3      OH2            -3.8592742670       -0.1774764116       21.5389278532  TIP3      1037            0.0000000000
     54625      2397  TIP3      H1             -3.3832120159       -0.9123911495       21.1269494263  TIP3      1037            0.0000000000
     54626      2397  TIP3      H2             -3.1374376937        0.4597159021       21.6996209027  TIP3      1037            0.0000000000
     54627      2398  TIP3      OH2            -6.7833272489       14.8270015051       26.6605281427  TIP3      1038            0.0000000000
     54628      2398  TIP3      H1             -6.0843482159       14.4621189306       26.0916061164  TIP3      1038            0.0000000000
     54629      2398  TIP3      H2             -6.2724717487       15.2707756341       27.3461731381  TIP3      1038            0.0000000000
     54630      2399  TIP3      OH2           -19.0244383935       16.0159165962       33.5265479409  TIP3      1039            0.0000000000
     54631      2399  TIP3      H1            -19.8208519287       16.3370111444       33.0964591824  TIP3      1039            0.0000000000
     54632      2399  TIP3      H2            -19.3562614065       15.6126003003       34.3439763587  TIP3      1039            0.0000000000
     54633      2400  TIP3      OH2            -9.5091601094       14.2570239325       32.6607635816  TIP3      1040            0.0000000000
     54634      2400  TIP3      H1            -10.4331337719       14.4774630747       32.4908633060  TIP3      1040            0.0000000000
     54635      2400  TIP3      H2             -9.0648033722       15.1193666095       32.6541753704  TIP3      1040            0.0000000000
     54636      2401  TIP3      OH2            -6.9577924554       15.8113829839       32.9673215617  TIP3      1041            0.0000000000
     54637      2401  TIP3      H1             -7.0343038433       16.7666473700       32.7340128969  TIP3      1041            0.0000000000
     54638      2401  TIP3      H2             -6.7315077708       15.4222235669       32.0980296893  TIP3      1041            0.0000000000
     54639      2402  TIP3      OH2            -6.3218664678       -2.4008483012       29.1674465005  TIP3      1042            0.0000000000
     54640      2402  TIP3      H1             -5.6584401309       -1.9177845959       28.6591690292  TIP3      1042            0.0000000000
     54641      2402  TIP3      H2             -7.2131172118       -2.1913360565       28.9133261551  TIP3      1042            0.0000000000
     54642      2403  TIP3      OH2            -4.6286490368       -1.2898106157       27.4014336589  TIP3      1043            0.0000000000
     54643      2403  TIP3      H1             -3.9598304417       -1.8636494017       27.0264099509  TIP3      1043            0.0000000000
     54644      2403  TIP3      H2             -4.1187855726       -0.4859585092       27.5600936386  TIP3      1043            0.0000000000
     54645      2404  TIP3      OH2           -19.1213345333       -1.9552530451       26.9764927099  TIP3      1044            0.0000000000
     54646      2404  TIP3      H1            -19.8213576853       -2.1675951949       26.3654119752  TIP3      1044            0.0000000000
     54647      2404  TIP3      H2            -18.5504477676       -2.7491563650       26.8735378998  TIP3      1044            0.0000000000
     54648      2405  TIP3      OH2           -20.1796479810       -2.1181849036       22.7555252157  TIP3      1045            0.0000000000
     54649      2405  TIP3      H1            -19.8145372527       -1.5038912713       22.0997396114  TIP3      1045            0.0000000000
     54650      2405  TIP3      H2            -20.9058717447       -1.6061690692       23.1212520260  TIP3      1045            0.0000000000
     54651      2406  TIP3      OH2           -14.5740279557       -2.1452695249       26.7353463268  TIP3      1046            0.0000000000
     54652      2406  TIP3      H1            -13.7053187463       -1.7248314666       26.7131216406  TIP3      1046            0.0000000000
     54653      2406  TIP3      H2            -14.6408698179       -2.2652908455       27.6819972463  TIP3      1046            0.0000000000
     54654      2407  TIP3      OH2           -20.3099614919       13.7585392358       23.6780817426  TIP3      1047            0.0000000000
     54655      2407  TIP3      H1            -20.9523895924       13.6878529337       22.9426503288  TIP3      1047            0.0000000000
     54656      2407  TIP3      H2            -20.2751043873       14.7056630296       23.8295950293  TIP3      1047            0.0000000000
     54657      2408  TIP3      OH2           -18.4000961300       -0.2283085457       21.1288787063  TIP3      1048            0.0000000000
     54658      2408  TIP3      H1            -17.9535331706       -0.9252184635       20.6554520142  TIP3      1048            0.0000000000
     54659      2408  TIP3      H2            -17.8191335267        0.0202153295       21.8634428299  TIP3      1048            0.0000000000
     54660      2409  TIP3      OH2           -13.4189294180        0.0352015624       23.5484261864  TIP3      1049            0.0000000000
     54661      2409  TIP3      H1            -13.1795689252       -0.5879655034       24.2625981996  TIP3      1049            0.0000000000
     54662      2409  TIP3      H2            -13.3820971168        0.8700858634       24.0611754093  TIP3      1049            0.0000000000
     54663      2410  TIP3      OH2            -4.7482259228       14.5657806234       24.7483089599  TIP3      1050            0.0000000000
     54664      2410  TIP3      H1             -4.9984913949       13.8016172408       24.1783024332  TIP3      1050            0.0000000000
     54665      2410  TIP3      H2             -4.8212318949       15.2985292212       24.1308019390  TIP3      1050            0.0000000000
     54666      2411  TIP3      OH2           -19.1551027755       -1.3937194238       36.4261535485  TIP3      1051            0.0000000000
     54667      2411  TIP3      H1            -19.5067419390       -2.1903554779       36.7770651643  TIP3      1051            0.0000000000
     54668      2411  TIP3      H2            -18.2163445279       -1.3904847981       36.7271535345  TIP3      1051            0.0000000000
     54669      2412  TIP3      OH2           -17.2266716347       -2.1281257292       37.9799136133  TIP3      1052            0.0000000000
     54670      2412  TIP3      H1            -16.2704078497       -2.2972058823       37.7880435053  TIP3      1052            0.0000000000
     54671      2412  TIP3      H2            -17.4515519326       -2.8732090186       38.5246143590  TIP3      1052            0.0000000000
     54672      2413  TIP3      OH2            -5.5608143159       13.2929185664       36.8004583473  TIP3      1053            0.0000000000
     54673      2413  TIP3      H1             -6.4035752494       13.1726634513       36.3125098685  TIP3      1053            0.0000000000
     54674      2413  TIP3      H2             -5.6771980226       14.2322887751       37.0488095307  TIP3      1053            0.0000000000
     54675      2414  TIP3      OH2            14.8971245888        0.4404627665       31.5880205829  TIP3      1054            0.0000000000
     54676      2414  TIP3      H1             14.8889585737        1.1260439624       32.2787357002  TIP3      1054            0.0000000000
     54677      2414  TIP3      H2             15.1959861883        0.9319747458       30.8051850024  TIP3      1054            0.0000000000
     54678      2415  TIP3      OH2            15.2549971329        1.9658924100       33.8134326945  TIP3      1055            0.0000000000
     54679      2415  TIP3      H1             14.5360419814        2.6247312430       33.6854270633  TIP3      1055            0.0000000000
     54680      2415  TIP3      H2             15.1652423199        1.7884356363       34.7553703750  TIP3      1055            0.0000000000
     54681      2416  TIP3      OH2            14.8189273444        5.7904348068       32.5416137922  TIP3      1056            0.0000000000
     54682      2416  TIP3      H1             14.3916163993        6.6536369436       32.6818168843  TIP3      1056            0.0000000000
     54683      2416  TIP3      H2             15.4273789554        6.0956329472       31.8515298669  TIP3      1056            0.0000000000
     54684      2417  TIP3      OH2             1.9998757845       12.6544423341       36.2448136624  TIP3      1057            0.0000000000
     54685      2417  TIP3      H1              2.1456370874       12.2894646474       35.3655405156  TIP3      1057            0.0000000000
     54686      2417  TIP3      H2              1.1548314565       12.2611506836       36.5083444350  TIP3      1057            0.0000000000
     54687      2418  TIP3      OH2            -2.3673876672        8.7451714752       33.6559861657  TIP3      1058            0.0000000000
     54688      2418  TIP3      H1             -2.7906082062        8.6734100252       32.7942897269  TIP3      1058            0.0000000000
     54689      2418  TIP3      H2             -2.2466442759        7.8088612036       33.8613450676  TIP3      1058            0.0000000000
     54690      2419  TIP3      OH2            -2.5843263096       11.4269049364       30.5438732209  TIP3      1059            0.0000000000
     54691      2419  TIP3      H1             -1.6358915598       11.4051579554       30.3711748588  TIP3      1059            0.0000000000
     54692      2419  TIP3      H2             -2.6691444088       12.3095830150       30.9298877624  TIP3      1059            0.0000000000
     54693      2420  TIP3      OH2            12.8685577897        3.6243655150       36.5593144756  TIP3      1060            0.0000000000
     54694      2420  TIP3      H1             12.3393891477        4.1299488190       35.9286483609  TIP3      1060            0.0000000000
     54695      2420  TIP3      H2             12.7720389829        2.7133041905       36.2604744704  TIP3      1060            0.0000000000
     54696      2421  TIP3      OH2             2.5917568789       -1.4695505693       30.6203868107  TIP3      1061            0.0000000000
     54697      2421  TIP3      H1              1.6894006918       -1.5540141984       30.2288368402  TIP3      1061            0.0000000000
     54698      2421  TIP3      H2              2.4935945315       -0.6098613002       31.0254928939  TIP3      1061            0.0000000000
     54699      2422  TIP3      OH2            10.6435518245        2.1186224235       34.8889076804  TIP3      1062            0.0000000000
     54700      2422  TIP3      H1              9.9802335008        1.8266917018       35.5752727266  TIP3      1062            0.0000000000
     54701      2422  TIP3      H2             10.2509461660        2.9467919345       34.6120944944  TIP3      1062            0.0000000000
     54702      2423  TIP3      OH2             3.7673086128        1.1304215634       20.3408607566  TIP3      1063            0.0000000000
     54703      2423  TIP3      H1              3.3343460249        0.7332377208       21.1080256890  TIP3      1063            0.0000000000
     54704      2423  TIP3      H2              3.0488050528        1.5381872152       19.8672703290  TIP3      1063            0.0000000000
     54705      2424  TIP3      OH2            12.8983630404       16.0880490573       37.2536406902  TIP3      1064            0.0000000000
     54706      2424  TIP3      H1             13.1353219340       16.4427369232       36.3828403729  TIP3      1064            0.0000000000
     54707      2424  TIP3      H2             13.6330720001       16.3226860849       37.8361269515  TIP3      1064            0.0000000000
     54708      2425  TIP3      OH2            15.3860568462        3.3768594280       23.1608036120  TIP3      1065            0.0000000000
     54709      2425  TIP3      H1             14.5816863538        3.0664865769       22.7008879720  TIP3      1065            0.0000000000
     54710      2425  TIP3      H2             15.2329232131        4.3187077554       23.0023311967  TIP3      1065            0.0000000000
     54711      2426  TIP3      OH2            11.4618737513       13.7325929949       34.9092265692  TIP3      1066            0.0000000000
     54712      2426  TIP3      H1             10.6888229766       13.3064385419       34.5076321815  TIP3      1066            0.0000000000
     54713      2426  TIP3      H2             11.5950084504       14.4550159045       34.2804455998  TIP3      1066            0.0000000000
     54714      2427  TIP3      OH2            15.4485892411       14.6954714625       21.6361407792  TIP3      1067            0.0000000000
     54715      2427  TIP3      H1             16.0942894816       15.3182158923       21.5762855546  TIP3      1067            0.0000000000
     54716      2427  TIP3      H2             14.6881232126       15.1175227776       22.1055025991  TIP3      1067            0.0000000000
     54717      2428  TIP3      OH2            -0.8926410882       12.8169718377       32.7629949244  TIP3      1068            0.0000000000
     54718      2428  TIP3      H1             -0.6290070712       11.8921388136       32.7498682921  TIP3      1068            0.0000000000
     54719      2428  TIP3      H2             -0.6175357816       13.1064188137       33.6377442583  TIP3      1068            0.0000000000
     54720      2429  TIP3      OH2             5.0366550039       11.2401543589       19.9227029352  TIP3      1069            0.0000000000
     54721      2429  TIP3      H1              5.1826475941       10.4312227445       19.4533263557  TIP3      1069            0.0000000000
     54722      2429  TIP3      H2              4.6653480050       10.9261284526       20.7819950069  TIP3      1069            0.0000000000
     54723      2430  TIP3      OH2             3.9850250689       10.8475779679       22.4157913543  TIP3      1070            0.0000000000
     54724      2430  TIP3      H1              4.0545063424       10.3294775016       23.2199345295  TIP3      1070            0.0000000000
     54725      2430  TIP3      H2              3.9405056090       11.7740205781       22.7231434909  TIP3      1070            0.0000000000
     54726      2431  TIP3      OH2             6.8066818019        3.1217556139       34.2940849283  TIP3      1071            0.0000000000
     54727      2431  TIP3      H1              6.8475735245        3.7218003904       35.0665461415  TIP3      1071            0.0000000000
     54728      2431  TIP3      H2              7.3761163642        2.3732001675       34.5055289952  TIP3      1071            0.0000000000
     54729      2432  TIP3      OH2            12.9580826981        1.0054103387       35.1903239045  TIP3      1072            0.0000000000
     54730      2432  TIP3      H1             12.0292732708        1.3234785915       35.0748598103  TIP3      1072            0.0000000000
     54731      2432  TIP3      H2             13.2568400022        1.0158206214       34.2749610432  TIP3      1072            0.0000000000
     54732      2433  TIP3      OH2             0.2226700611       -1.9249908967       29.5957469884  TIP3      1073            0.0000000000
     54733      2433  TIP3      H1             -0.1418788314       -1.7165474111       28.7342840664  TIP3      1073            0.0000000000
     54734      2433  TIP3      H2             -0.3651119446       -2.6105932582       29.9811119537  TIP3      1073            0.0000000000
     54735      2434  TIP3      OH2            -1.7719587760       14.7313424188       37.1515300118  TIP3      1074            0.0000000000
     54736      2434  TIP3      H1             -1.0831578657       14.5157362358       37.8027002696  TIP3      1074            0.0000000000
     54737      2434  TIP3      H2             -2.1548566400       13.8735675640       36.9379655674  TIP3      1074            0.0000000000
     54738      2435  TIP3      OH2             2.9280478209       13.4966811051       38.7099681642  TIP3      1075            0.0000000000
     54739      2435  TIP3      H1              3.7770608240       13.1405449350       38.9834196210  TIP3      1075            0.0000000000
     54740      2435  TIP3      H2              2.9580614098       13.3808049523       37.7376412033  TIP3      1075            0.0000000000
     54741      2436  TIP3      OH2             7.0656069845       13.1313960916       19.9478440056  TIP3      1076            0.0000000000
     54742      2436  TIP3      H1              6.4061919864       12.5827925847       20.4137345346  TIP3      1076            0.0000000000
     54743      2436  TIP3      H2              7.8316160390       12.5686046697       19.9512956576  TIP3      1076            0.0000000000
     54744      2437  TIP3      OH2             9.5032958019       12.0289794752       37.5018879565  TIP3      1077            0.0000000000
     54745      2437  TIP3      H1              9.1532731470       11.1311517623       37.6526839424  TIP3      1077            0.0000000000
     54746      2437  TIP3      H2             10.2606363533       12.1416534623       38.0628691924  TIP3      1077            0.0000000000
     54747      2438  TIP3      OH2            11.5966164221       12.9326388658       20.3258412489  TIP3      1078            0.0000000000
     54748      2438  TIP3      H1             11.9328693707       12.1942184916       20.8585841737  TIP3      1078            0.0000000000
     54749      2438  TIP3      H2             12.3809696864       13.1928922075       19.8505929958  TIP3      1078            0.0000000000
     54750      2439  TIP3      OH2            14.5419722637        7.4532270484       20.0834083405  TIP3      1079            0.0000000000
     54751      2439  TIP3      H1             13.9032742793        6.9744787221       19.5006828715  TIP3      1079            0.0000000000
     54752      2439  TIP3      H2             14.2018812256        8.3496513248       19.9751826013  TIP3      1079            0.0000000000
     54753      2440  TIP3      OH2             3.3740801397        2.0798383546       35.9411845127  TIP3      1080            0.0000000000
     54754      2440  TIP3      H1              3.6071339421        1.3287531217       35.3563348554  TIP3      1080            0.0000000000
     54755      2440  TIP3      H2              3.4269088915        2.8632872717       35.3689051564  TIP3      1080            0.0000000000
     54756      2441  TIP3      OH2             5.8445214591        2.2985848491       37.4685780224  TIP3      1081            0.0000000000
     54757      2441  TIP3      H1              5.5703742543        1.9482286181       38.3248390869  TIP3      1081            0.0000000000
     54758      2441  TIP3      H2              5.1167189616        2.0003446835       36.8943165401  TIP3      1081            0.0000000000
     54759      2442  TIP3      OH2             8.6143936625        1.4455924034       36.5278415041  TIP3      1082            0.0000000000
     54760      2442  TIP3      H1              7.6437199553        1.3678464012       36.6121749958  TIP3      1082            0.0000000000
     54761      2442  TIP3      H2              8.8476731488        0.7180468259       37.1243817177  TIP3      1082            0.0000000000
     54762      2443  TIP3      OH2            10.1121722165        0.0128897226       38.4645596076  TIP3      1083            0.0000000000
     54763      2443  TIP3      H1             10.1504116129       -0.9407169502       38.4826737138  TIP3      1083            0.0000000000
     54764      2443  TIP3      H2              9.8888257842        0.2762643121       39.3784333450  TIP3      1083            0.0000000000
     54765      2444  TIP3      OH2            15.2636243246       14.8367670581       31.0685459713  TIP3      1084            0.0000000000
     54766      2444  TIP3      H1             15.3462357393       14.7886021834       32.0260456398  TIP3      1084            0.0000000000
     54767      2444  TIP3      H2             16.0867943046       15.2541418661       30.7953445901  TIP3      1084            0.0000000000
     54768      2445  TIP3      OH2            14.8653072550       14.3066125600       34.0525255381  TIP3      1085            0.0000000000
     54769      2445  TIP3      H1             14.5010328866       13.5218316611       33.5849203104  TIP3      1085            0.0000000000
     54770      2445  TIP3      H2             15.4513777671       13.8530486275       34.6626465378  TIP3      1085            0.0000000000
     54771      2446  TIP3      OH2            15.2028402207        4.7715926927       36.9173740277  TIP3      1086            0.0000000000
     54772      2446  TIP3      H1             14.3176981964        4.3833500397       36.7687515661  TIP3      1086            0.0000000000
     54773      2446  TIP3      H2             15.7547336997        3.9846279985       36.8614410274  TIP3      1086            0.0000000000
     54774      2447  TIP3      OH2            12.9852500001        0.8344828804       20.0132946391  TIP3      1087            0.0000000000
     54775      2447  TIP3      H1             13.4995392053        0.4933705266       20.7585289973  TIP3      1087            0.0000000000
     54776      2447  TIP3      H2             12.0756751144        0.5667111603       20.2538276962  TIP3      1087            0.0000000000
     54777      2448  TIP3      OH2            13.1871177070        3.0841491067       30.4715588029  TIP3      1088            0.0000000000
     54778      2448  TIP3      H1             14.1441893191        3.2565461195       30.4525099836  TIP3      1088            0.0000000000
     54779      2448  TIP3      H2             12.9750021251        3.1439067759       31.4034298914  TIP3      1088            0.0000000000
     54780      2449  TIP3      OH2            13.1818743446        3.7355582391       33.2854681153  TIP3      1089            0.0000000000
     54781      2449  TIP3      H1             12.3453487758        4.0933637037       33.5919523086  TIP3      1089            0.0000000000
     54782      2449  TIP3      H2             13.6663340025        4.5624303107       33.0119148110  TIP3      1089            0.0000000000
     54783      2450  TIP3      OH2            15.6590522010       -2.1798593352       38.6293527011  TIP3      1090            0.0000000000
     54784      2450  TIP3      H1             15.7899924081       -2.8605680062       37.9813690692  TIP3      1090            0.0000000000
     54785      2450  TIP3      H2             15.5353863551       -1.3620306171       38.1049003803  TIP3      1090            0.0000000000
     54786      2451  TIP3      OH2            15.0364263509       -0.1815613993       36.9535724355  TIP3      1091            0.0000000000
     54787      2451  TIP3      H1             14.1174010832        0.1635454591       36.9083784510  TIP3      1091            0.0000000000
     54788      2451  TIP3      H2             15.0255283602       -0.6268038448       36.1051104533  TIP3      1091            0.0000000000
     54789      2452  TIP3      OH2            15.0365234596       -0.1629625374       21.5923717580  TIP3      1092            0.0000000000
     54790      2452  TIP3      H1             15.4012884014       -0.9427827455       21.1374136042  TIP3      1092            0.0000000000
     54791      2452  TIP3      H2             15.7588558025        0.4340088947       21.6646427173  TIP3      1092            0.0000000000
     54792      2453  TIP3      OH2            -2.6970900529       -1.4692518975       33.0979910086  TIP3      1093            0.0000000000
     54793      2453  TIP3      H1             -3.4321855003       -1.7503599537       33.6433372298  TIP3      1093            0.0000000000
     54794      2453  TIP3      H2             -3.1287943301       -0.8138954531       32.5238564874  TIP3      1093            0.0000000000
     54795      2454  TIP3      OH2            -0.5260875248       11.7370824849       37.2391341385  TIP3      1094            0.0000000000
     54796      2454  TIP3      H1             -1.3656574193       11.8669637587       36.7714974165  TIP3      1094            0.0000000000
     54797      2454  TIP3      H2             -0.8098907377       11.6479357141       38.1492652081  TIP3      1094            0.0000000000
     54798      2455  TIP3      OH2            14.1044361566       -2.0122193402       34.7315405908  TIP3      1095            0.0000000000
     54799      2455  TIP3      H1             13.2334755147       -1.6672969162       34.4666872537  TIP3      1095            0.0000000000
     54800      2455  TIP3      H2             14.1676526166       -2.8419627533       34.2255068281  TIP3      1095            0.0000000000
     54801      2456  TIP3      OH2             9.4364252474       14.2980685470       32.4695792438  TIP3      1096            0.0000000000
     54802      2456  TIP3      H1              8.4651378500       14.3878218361       32.6121584288  TIP3      1096            0.0000000000
     54803      2456  TIP3      H2              9.7476262424       15.1562361671       32.7531461516  TIP3      1096            0.0000000000
     54804      2457  TIP3      OH2            11.8733350577       15.8240879459       32.9534456679  TIP3      1097            0.0000000000
     54805      2457  TIP3      H1             11.8084926021       16.7819250706       32.7437721069  TIP3      1097            0.0000000000
     54806      2457  TIP3      H2             12.1223699119       15.4555200240       32.1014763123  TIP3      1097            0.0000000000
     54807      2458  TIP3      OH2            -0.2410274773       -1.9757205431       26.8264858972  TIP3      1098            0.0000000000
     54808      2458  TIP3      H1             -1.0920938863       -2.1572947205       26.4375760395  TIP3      1098            0.0000000000
     54809      2458  TIP3      H2              0.1746395605       -2.7810202562       27.1249563828  TIP3      1098            0.0000000000
     54810      2459  TIP3      OH2            -1.3799936893       -2.1635875796       22.7476988493  TIP3      1099            0.0000000000
     54811      2459  TIP3      H1             -0.9450554501       -1.5216460956       22.1514615330  TIP3      1099            0.0000000000
     54812      2459  TIP3      H2             -2.0095500977       -1.5556434670       23.1705235066  TIP3      1099            0.0000000000
     54813      2460  TIP3      OH2            -0.3562636110       -1.4194310338       36.4805633615  TIP3      1100            0.0000000000
     54814      2460  TIP3      H1             -0.6568015978       -2.2590939281       36.8345367332  TIP3      1100            0.0000000000
     54815      2460  TIP3      H2              0.5919027918       -1.4250393635       36.7387808539  TIP3      1100            0.0000000000
     54816      2461  TIP3      OH2             1.7311963359       -2.0496866282       38.0136244052  TIP3      1101            0.0000000000
     54817      2461  TIP3      H1              2.6314611904       -2.3434985375       37.7669968004  TIP3      1101            0.0000000000
     54818      2461  TIP3      H2              1.3271288505       -2.7985393458       38.4749807023  TIP3      1101            0.0000000000
     54819      2462  TIP3      OH2             0.2639626432       14.6653621995       20.6559503966  TIP3      1102            0.0000000000
     54820      2462  TIP3      H1              0.0622444635       15.0350453846       21.5305352111  TIP3      1102            0.0000000000
     54821      2462  TIP3      H2              1.0960767463       14.1945130249       20.7943026193  TIP3      1102            0.0000000000
     54822      2463  TIP3      OH2            19.0567105500        5.9916457528       31.7668734068  TIP3      1103            0.0000000000
     54823      2463  TIP3      H1             18.9549039695        5.5288139067       32.6080423353  TIP3      1103            0.0000000000
     54824      2463  TIP3      H2             19.6385543443        6.7262465065       32.0352913331  TIP3      1103            0.0000000000
     54825      2464  TIP3      OH2            19.9684148761       10.5744376647       30.2936352580  TIP3      1104            0.0000000000
     54826      2464  TIP3      H1             19.5191922411        9.7314796539       30.0760680129  TIP3      1104            0.0000000000
     54827      2464  TIP3      H2             20.8962684127       10.3130498065       30.4010509137  TIP3      1104            0.0000000000
     54828      2465  TIP3      OH2            16.6154338246        4.1589511593       25.6092792577  TIP3      1105            0.0000000000
     54829      2465  TIP3      H1             16.1047543098        4.9783580720       25.8423750958  TIP3      1105            0.0000000000
     54830      2465  TIP3      H2             15.8503216064        3.6026384181       25.3876218988  TIP3      1105            0.0000000000
     54831      2466  TIP3      OH2            21.1816141984        1.4346636573       28.3358481947  TIP3      1106            0.0000000000
     54832      2466  TIP3      H1             21.4067849026        2.2365999824       27.8358615184  TIP3      1106            0.0000000000
     54833      2466  TIP3      H2             20.9076386858        0.7974832336       27.6395908792  TIP3      1106            0.0000000000
     54834      2467  TIP3      OH2            17.9210954400        3.7772792007       29.0486636981  TIP3      1107            0.0000000000
     54835      2467  TIP3      H1             18.5929977596        3.2338912155       29.4777441319  TIP3      1107            0.0000000000
     54836      2467  TIP3      H2             17.9365616479        3.5344867636       28.1286125106  TIP3      1107            0.0000000000
     54837      2468  TIP3      OH2            23.0287481517        5.3552201860       28.2950393708  TIP3      1108            0.0000000000
     54838      2468  TIP3      H1             23.6992827375        4.8474280369       28.7825911586  TIP3      1108            0.0000000000
     54839      2468  TIP3      H2             22.5151769465        4.6652263487       27.8464426622  TIP3      1108            0.0000000000
     54840      2469  TIP3      OH2            20.1753488756        0.4985779166       32.4588295903  TIP3      1109            0.0000000000
     54841      2469  TIP3      H1             19.8950453086        0.6842406267       31.5243952779  TIP3      1109            0.0000000000
     54842      2469  TIP3      H2             19.3424040726        0.3115310203       32.9335599672  TIP3      1109            0.0000000000
     54843      2470  TIP3      OH2            22.6126181083        7.9365476152       32.5643223575  TIP3      1110            0.0000000000
     54844      2470  TIP3      H1             21.9739924661        8.6254417045       32.7995897810  TIP3      1110            0.0000000000
     54845      2470  TIP3      H2             23.4390485170        8.4232921879       32.3775647286  TIP3      1110            0.0000000000
     54846      2471  TIP3      OH2            19.7193912220        2.1701714200       30.4299151485  TIP3      1111            0.0000000000
     54847      2471  TIP3      H1             20.3913562925        2.8797163801       30.5749509992  TIP3      1111            0.0000000000
     54848      2471  TIP3      H2             20.1853702186        1.7303563554       29.6639695206  TIP3      1111            0.0000000000
     54849      2472  TIP3      OH2            21.0919966368        9.9590501793       33.3840838197  TIP3      1112            0.0000000000
     54850      2472  TIP3      H1             21.0359058659       10.8818975250       33.0696857348  TIP3      1112            0.0000000000
     54851      2472  TIP3      H2             20.2119634957        9.8571891745       33.8293561450  TIP3      1112            0.0000000000
     54852      2473  TIP3      OH2            31.1361826769       -0.1565531021       32.5310105335  TIP3      1113            0.0000000000
     54853      2473  TIP3      H1             30.3306906709        0.0184889875       32.0340889271  TIP3      1113            0.0000000000
     54854      2473  TIP3      H2             31.8118313309       -0.1622289011       31.7937707124  TIP3      1113            0.0000000000
     54855      2474  TIP3      OH2            33.6520961113        5.7421902859       32.5737526746  TIP3      1114            0.0000000000
     54856      2474  TIP3      H1             33.1577133300        6.5523243798       32.7610739312  TIP3      1114            0.0000000000
     54857      2474  TIP3      H2             34.2354259936        6.0440819087       31.8708179964  TIP3      1114            0.0000000000
     54858      2475  TIP3      OH2            21.4739548364        7.3361163505       27.1556435967  TIP3      1115            0.0000000000
     54859      2475  TIP3      H1             21.1430145042        6.9466784640       26.3289445536  TIP3      1115            0.0000000000
     54860      2475  TIP3      H2             22.0487723928        6.6225240059       27.5010809870  TIP3      1115            0.0000000000
     54861      2476  TIP3      OH2            22.7509192538       10.6538733774       29.8710406727  TIP3      1116            0.0000000000
     54862      2476  TIP3      H1             22.7822866089       10.1653320717       29.0328765157  TIP3      1116            0.0000000000
     54863      2476  TIP3      H2             23.5733777878       10.3471324244       30.2791549543  TIP3      1116            0.0000000000
     54864      2477  TIP3      OH2            21.7993271006        6.0248691064       30.8334650041  TIP3      1117            0.0000000000
     54865      2477  TIP3      H1             22.3874382002        6.1520586886       30.0610077026  TIP3      1117            0.0000000000
     54866      2477  TIP3      H2             22.2282196902        6.6935749289       31.4291423113  TIP3      1117            0.0000000000
     54867      2478  TIP3      OH2            22.7391354769       10.4983269142       35.5219027683  TIP3      1118            0.0000000000
     54868      2478  TIP3      H1             22.3351969246       11.2454593906       35.9949592389  TIP3      1118            0.0000000000
     54869      2478  TIP3      H2             22.1058358404       10.2911498474       34.8006531561  TIP3      1118            0.0000000000
     54870      2479  TIP3      OH2            19.6673155283        6.6063562603       34.7169174470  TIP3      1119            0.0000000000
     54871      2479  TIP3      H1             19.6868685754        7.3267531627       35.3831644109  TIP3      1119            0.0000000000
     54872      2479  TIP3      H2             18.7307117341        6.7404982201       34.4540246651  TIP3      1119            0.0000000000
     54873      2480  TIP3      OH2            20.9689252663       12.5317604644       36.2628382396  TIP3      1120            0.0000000000
     54874      2480  TIP3      H1             20.9578473296       12.4114917686       35.2925096654  TIP3      1120            0.0000000000
     54875      2480  TIP3      H2             20.0408603467       12.3806631246       36.5209265073  TIP3      1120            0.0000000000
     54876      2481  TIP3      OH2            20.4719267225        6.3069827151       24.7276444696  TIP3      1121            0.0000000000
     54877      2481  TIP3      H1             20.2053059996        7.1328499079       24.2968402751  TIP3      1121            0.0000000000
     54878      2481  TIP3      H2             19.7365443042        5.7302572936       24.5987989990  TIP3      1121            0.0000000000
     54879      2482  TIP3      OH2            25.4556944703       11.7604100747       34.9961114144  TIP3      1122            0.0000000000
     54880      2482  TIP3      H1             25.5359150279       12.5817203679       35.5101891437  TIP3      1122            0.0000000000
     54881      2482  TIP3      H2             24.6176474943       11.3433973393       35.2549663381  TIP3      1122            0.0000000000
     54882      2483  TIP3      OH2            25.8099534509       15.5011382146       24.7886018618  TIP3      1123            0.0000000000
     54883      2483  TIP3      H1             25.8357653559       15.3705848479       23.8292875386  TIP3      1123            0.0000000000
     54884      2483  TIP3      H2             25.8965042244       16.4573839707       24.9497850888  TIP3      1123            0.0000000000
     54885      2484  TIP3      OH2            19.5412980127       14.3247824692       26.5733528321  TIP3      1124            0.0000000000
     54886      2484  TIP3      H1             19.6993834591       13.9820800034       27.4920072484  TIP3      1124            0.0000000000
     54887      2484  TIP3      H2             18.6684524821       13.9396292409       26.4433439921  TIP3      1124            0.0000000000
     54888      2485  TIP3      OH2            31.4473954299        3.5859270089       36.5896515336  TIP3      1125            0.0000000000
     54889      2485  TIP3      H1             31.3355432694        4.2010553218       35.8625458109  TIP3      1125            0.0000000000
     54890      2485  TIP3      H2             31.8703195425        2.7628088148       36.3017148433  TIP3      1125            0.0000000000
     54891      2486  TIP3      OH2            18.8062026342       10.0337945668       34.6070015590  TIP3      1126            0.0000000000
     54892      2486  TIP3      H1             18.9496005163        9.6360489769       35.4812578271  TIP3      1126            0.0000000000
     54893      2486  TIP3      H2             17.9281677132        9.6925067458       34.3591163024  TIP3      1126            0.0000000000
     54894      2487  TIP3      OH2            28.7768810162        2.2993096001       34.9878046584  TIP3      1127            0.0000000000
     54895      2487  TIP3      H1             28.6373743462        2.0364153284       35.9297809535  TIP3      1127            0.0000000000
     54896      2487  TIP3      H2             29.0428394743        3.2282148544       34.9258287016  TIP3      1127            0.0000000000
     54897      2488  TIP3      OH2            21.4240559491        3.4847165932       31.7455240130  TIP3      1128            0.0000000000
     54898      2488  TIP3      H1             20.9656401710        3.8754831404       32.4393012643  TIP3      1128            0.0000000000
     54899      2488  TIP3      H2             21.6819887112        4.3748729236       31.3658220966  TIP3      1128            0.0000000000
     54900      2489  TIP3      OH2            21.5295275551        3.6842963724       26.6288094288  TIP3      1129            0.0000000000
     54901      2489  TIP3      H1             20.6080390820        3.3906880438       26.5729701178  TIP3      1129            0.0000000000
     54902      2489  TIP3      H2             21.9707648766        3.3126524753       25.8246235442  TIP3      1129            0.0000000000
     54903      2490  TIP3      OH2            18.8757872036        4.1139155113       33.6685882410  TIP3      1130            0.0000000000
     54904      2490  TIP3      H1             19.1516315301        4.4553339332       34.5568718968  TIP3      1130            0.0000000000
     54905      2490  TIP3      H2             18.2885786897        3.3617232621       33.8254939162  TIP3      1130            0.0000000000
     54906      2491  TIP3      OH2            16.0582205210        1.1083236535       27.3660084282  TIP3      1131            0.0000000000
     54907      2491  TIP3      H1             16.4407780087        0.7912427257       28.2142298542  TIP3      1131            0.0000000000
     54908      2491  TIP3      H2             16.2321488846        0.3823148270       26.7528014228  TIP3      1131            0.0000000000
     54909      2492  TIP3      OH2            17.2527842522        1.6959399864       22.9432968847  TIP3      1132            0.0000000000
     54910      2492  TIP3      H1             17.5157793947        2.1791253689       22.1217263710  TIP3      1132            0.0000000000
     54911      2492  TIP3      H2             16.3640413445        2.1328609931       23.1286077319  TIP3      1132            0.0000000000
     54912      2493  TIP3      OH2            18.9489913680        2.7415267715       26.2097113375  TIP3      1133            0.0000000000
     54913      2493  TIP3      H1             17.9818304695        2.8443647057       26.4116829201  TIP3      1133            0.0000000000
     54914      2493  TIP3      H2             19.1500145484        1.7849283417       26.3864410889  TIP3      1133            0.0000000000
     54915      2494  TIP3      OH2            22.5033817859        2.8280298505       24.2379887381  TIP3      1134            0.0000000000
     54916      2494  TIP3      H1             23.4880602426        2.8060490708       24.3061005128  TIP3      1134            0.0000000000
     54917      2494  TIP3      H2             22.3876233695        3.4060324548       23.4700487543  TIP3      1134            0.0000000000
     54918      2495  TIP3      OH2            21.1702951057        4.0916023700       21.7437255563  TIP3      1135            0.0000000000
     54919      2495  TIP3      H1             20.7847992212        3.5228070105       21.0563114567  TIP3      1135            0.0000000000
     54920      2495  TIP3      H2             22.0724206149        4.0622392506       21.3697756343  TIP3      1135            0.0000000000
     54921      2496  TIP3      OH2            31.6262970399       16.1287395235       37.2811737789  TIP3      1136            0.0000000000
     54922      2496  TIP3      H1             32.0204004656       16.3614806300       36.4175226209  TIP3      1136            0.0000000000
     54923      2496  TIP3      H2             32.4650489822       16.2867535801       37.7497415693  TIP3      1136            0.0000000000
     54924      2497  TIP3      OH2            19.3847539963        8.5299304079       36.8392838752  TIP3      1137            0.0000000000
     54925      2497  TIP3      H1             20.1054786797        8.7698484218       37.4446868852  TIP3      1137            0.0000000000
     54926      2497  TIP3      H2             18.6060391775        8.5744726705       37.4061650272  TIP3      1137            0.0000000000
     54927      2498  TIP3      OH2            20.3772388090        0.1372291360       25.9909368061  TIP3      1138            0.0000000000
     54928      2498  TIP3      H1             20.0616024816       -0.8030038137       26.0279717617  TIP3      1138            0.0000000000
     54929      2498  TIP3      H2             21.1850672172        0.0129726315       25.4521899358  TIP3      1138            0.0000000000
     54930      2499  TIP3      OH2            19.7651498903        7.8962623481       29.4672138839  TIP3      1139            0.0000000000
     54931      2499  TIP3      H1             20.4472126210        7.7824256220       28.7897754889  TIP3      1139            0.0000000000
     54932      2499  TIP3      H2             19.7557069448        7.0302271054       29.9121324202  TIP3      1139            0.0000000000
     54933      2500  TIP3      OH2            16.8382283774        6.1406320324       34.6770114446  TIP3      1140            0.0000000000
     54934      2500  TIP3      H1             16.8250399499        5.9021548998       35.6275545226  TIP3      1140            0.0000000000
     54935      2500  TIP3      H2             16.0314314414        5.7443494022       34.3166892028  TIP3      1140            0.0000000000
     54936      2501  TIP3      OH2            22.0675928931       11.3141828795       26.8862500268  TIP3      1141            0.0000000000
     54937      2501  TIP3      H1             22.5903114836       12.1013226237       26.6590718217  TIP3      1141            0.0000000000
     54938      2501  TIP3      H2             21.2007753832       11.5691325975       26.5630465784  TIP3      1141            0.0000000000
     54939      2502  TIP3      OH2            17.8184080303        6.1226429560       21.4438501196  TIP3      1142            0.0000000000
     54940      2502  TIP3      H1             18.4075213664        6.7877085979       21.8467900755  TIP3      1142            0.0000000000
     54941      2502  TIP3      H2             16.9419149480        6.4924515802       21.6438665140  TIP3      1142            0.0000000000
     54942      2503  TIP3      OH2            23.9626620322       13.2030697071       32.7715284636  TIP3      1143            0.0000000000
     54943      2503  TIP3      H1             24.3982706420       14.0314519110       32.5188815027  TIP3      1143            0.0000000000
     54944      2503  TIP3      H2             24.5811535977       12.8304478175       33.4369391114  TIP3      1143            0.0000000000
     54945      2504  TIP3      OH2            22.1505313533       14.0062074676       25.8949244110  TIP3      1144            0.0000000000
     54946      2504  TIP3      H1             21.2044430065       14.1351605644       26.1029151694  TIP3      1144            0.0000000000
     54947      2504  TIP3      H2             22.5496695021       14.8253513843       26.2407743027  TIP3      1144            0.0000000000
     54948      2505  TIP3      OH2            30.0242713014       13.8808037335       34.9266628069  TIP3      1145            0.0000000000
     54949      2505  TIP3      H1             29.6759902485       13.1849214141       34.3669641484  TIP3      1145            0.0000000000
     54950      2505  TIP3      H2             30.5760367894       14.3978696423       34.3109165105  TIP3      1145            0.0000000000
     54951      2506  TIP3      OH2            18.3521259042        1.0656916653       34.2577861003  TIP3      1146            0.0000000000
     54952      2506  TIP3      H1             17.4105262012        1.3759074763       34.2639190960  TIP3      1146            0.0000000000
     54953      2506  TIP3      H2             18.2457663261        0.2335916175       34.7654296050  TIP3      1146            0.0000000000
     54954      2507  TIP3      OH2            18.0352399498       12.8515472837       32.7162382938  TIP3      1147            0.0000000000
     54955      2507  TIP3      H1             18.1550270450       11.8839363230       32.6585823319  TIP3      1147            0.0000000000
     54956      2507  TIP3      H2             18.2293330453       13.0424757267       33.6237226203  TIP3      1147            0.0000000000
     54957      2508  TIP3      OH2            23.4115975222       11.3341383686       20.0017153334  TIP3      1148            0.0000000000
     54958      2508  TIP3      H1             23.4427058903       10.4682487259       19.6327876965  TIP3      1148            0.0000000000
     54959      2508  TIP3      H2             23.4104804856       11.0465726099       20.9833888343  TIP3      1148            0.0000000000
     54960      2509  TIP3      OH2            22.7410815855       10.8750385981       22.4314766142  TIP3      1149            0.0000000000
     54961      2509  TIP3      H1             22.9622319922       10.3472878462       23.2371329615  TIP3      1149            0.0000000000
     54962      2509  TIP3      H2             22.8208449270       11.7854047210       22.8327268923  TIP3      1149            0.0000000000
     54963      2510  TIP3      OH2            19.1963170475        8.1602065917       22.7843417334  TIP3      1150            0.0000000000
     54964      2510  TIP3      H1             18.5568303953        8.4184726982       23.4915286232  TIP3      1150            0.0000000000
     54965      2510  TIP3      H2             19.8239299923        8.8757833494       22.8910204031  TIP3      1150            0.0000000000
     54966      2511  TIP3      OH2            22.6684167573       13.5745658292       23.0457460099  TIP3      1151            0.0000000000
     54967      2511  TIP3      H1             23.1091331684       14.3914361388       22.7278122749  TIP3      1151            0.0000000000
     54968      2511  TIP3      H2             22.7431178651       13.7988199754       24.0192516297  TIP3      1151            0.0000000000
     54969      2512  TIP3      OH2            19.9130838026       10.9172057113       21.7608484941  TIP3      1152            0.0000000000
     54970      2512  TIP3      H1             20.3619077826       11.5113196119       22.3879238267  TIP3      1152            0.0000000000
     54971      2512  TIP3      H2             20.7315875073       10.5494774381       21.5007186467  TIP3      1152            0.0000000000
     54972      2513  TIP3      OH2            18.0876514030        3.3491822399       21.0689491771  TIP3      1153            0.0000000000
     54973      2513  TIP3      H1             18.1874708787        4.3370775869       21.0781144728  TIP3      1153            0.0000000000
     54974      2513  TIP3      H2             17.2434887557        3.2531461929       20.6363181164  TIP3      1153            0.0000000000
     54975      2514  TIP3      OH2            18.9234647913       -1.7664307137       29.7259724205  TIP3      1154            0.0000000000
     54976      2514  TIP3      H1             18.7907511527       -1.7470137929       28.7527255650  TIP3      1154            0.0000000000
     54977      2514  TIP3      H2             18.5403983191       -2.6308106951       29.9415082207  TIP3      1154            0.0000000000
     54978      2515  TIP3      OH2            17.9703061778       12.1537191137       25.8241979365  TIP3      1155            0.0000000000
     54979      2515  TIP3      H1             17.0549082750       12.4688946324       25.7806915118  TIP3      1155            0.0000000000
     54980      2515  TIP3      H2             18.4337779754       12.5983595021       25.1322176243  TIP3      1155            0.0000000000
     54981      2516  TIP3      OH2            17.1719485257       14.7649443745       37.0868782197  TIP3      1156            0.0000000000
     54982      2516  TIP3      H1             17.7322539620       14.5622125830       37.8664129198  TIP3      1156            0.0000000000
     54983      2516  TIP3      H2             16.7334609196       13.9267029989       36.9320708995  TIP3      1156            0.0000000000
     54984      2517  TIP3      OH2            21.8081341738       13.6402868841       38.7429727371  TIP3      1157            0.0000000000
     54985      2517  TIP3      H1             22.5824458591       13.1526894777       39.0458485505  TIP3      1157            0.0000000000
     54986      2517  TIP3      H2             21.7716894892       13.4152910251       37.7891303664  TIP3      1157            0.0000000000
     54987      2518  TIP3      OH2            25.7716993963       12.9014495786       19.8274982979  TIP3      1158            0.0000000000
     54988      2518  TIP3      H1             25.3466500160       12.6268488404       20.6455794422  TIP3      1158            0.0000000000
     54989      2518  TIP3      H2             26.7649752811       12.7659561982       19.9684403637  TIP3      1158            0.0000000000
     54990      2519  TIP3      OH2            21.9144916419        8.7924386207       20.1729502995  TIP3      1159            0.0000000000
     54991      2519  TIP3      H1             21.8052873529        7.9554976546       20.7360358238  TIP3      1159            0.0000000000
     54992      2519  TIP3      H2             22.3049522969        8.4060504052       19.3746242287  TIP3      1159            0.0000000000
     54993      2520  TIP3      OH2            26.7670062137        9.7697991532       20.0634898759  TIP3      1160            0.0000000000
     54994      2520  TIP3      H1             26.7748986651        9.9536745302       21.0159664730  TIP3      1160            0.0000000000
     54995      2520  TIP3      H2             26.8099170131        8.8003049106       19.9476023055  TIP3      1160            0.0000000000
     54996      2521  TIP3      OH2            18.0095738790        5.7338318926       37.4730658388  TIP3      1161            0.0000000000
     54997      2521  TIP3      H1             18.3710546464        4.8569778804       37.4302097343  TIP3      1161            0.0000000000
     54998      2521  TIP3      H2             17.7188369063        5.7721145476       38.3999901532  TIP3      1161            0.0000000000
     54999      2522  TIP3      OH2            22.4277354495        6.8817019290       22.4014363482  TIP3      1162            0.0000000000
     55000      2522  TIP3      H1             22.2007436801        6.3643592136       23.1955261994  TIP3      1162            0.0000000000
     55001      2522  TIP3      H2             22.9120221424        6.1669605858       21.9081707308  TIP3      1162            0.0000000000
     55002      2523  TIP3      OH2            21.6232442571        4.6571503688       34.6890212938  TIP3      1163            0.0000000000
     55003      2523  TIP3      H1             21.3088930324        5.4646620121       35.1368333452  TIP3      1163            0.0000000000
     55004      2523  TIP3      H2             22.2948258668        5.0743191262       34.1050688433  TIP3      1163            0.0000000000
     55005      2524  TIP3      OH2            23.6837896789        5.3109240839       20.7033002366  TIP3      1164            0.0000000000
     55006      2524  TIP3      H1             23.5291178323        4.8448564548       19.8670232255  TIP3      1164            0.0000000000
     55007      2524  TIP3      H2             24.6179264725        5.0904354740       20.8346896178  TIP3      1164            0.0000000000
     55008      2525  TIP3      OH2            20.7174507640        3.3341246098       37.7520523707  TIP3      1165            0.0000000000
     55009      2525  TIP3      H1             19.9607485280        2.7246643614       37.6809388815  TIP3      1165            0.0000000000
     55010      2525  TIP3      H2             21.4553786282        2.9246504379       37.2591389194  TIP3      1165            0.0000000000
     55011      2526  TIP3      OH2            29.0870424820        0.0080450922       38.4532484087  TIP3      1166            0.0000000000
     55012      2526  TIP3      H1             28.9700223164       -0.9667247367       38.4637854014  TIP3      1166            0.0000000000
     55013      2526  TIP3      H2             28.7695833248        0.2638902832       39.3512855807  TIP3      1166            0.0000000000
     55014      2527  TIP3      OH2            18.7674924641        1.2224536807       37.5295667975  TIP3      1167            0.0000000000
     55015      2527  TIP3      H1             19.0929902510        0.4940718053       37.0114058501  TIP3      1167            0.0000000000
     55016      2527  TIP3      H2             18.7834368318        0.8731102125       38.4554366602  TIP3      1167            0.0000000000
     55017      2528  TIP3      OH2            23.5045977408       15.6615550343       21.5226861200  TIP3      1168            0.0000000000
     55018      2528  TIP3      H1             24.3958016940       15.8465870565       21.9361222749  TIP3      1168            0.0000000000
     55019      2528  TIP3      H2             23.3617003886       16.5499978083       21.1925577318  TIP3      1168            0.0000000000
     55020      2529  TIP3      OH2            17.1690287679       10.4668426666       21.1744135614  TIP3      1169            0.0000000000
     55021      2529  TIP3      H1             18.0162685056       10.4918468166       21.6048247778  TIP3      1169            0.0000000000
     55022      2529  TIP3      H2             17.0337369293        9.7318756724       20.5775784728  TIP3      1169            0.0000000000
     55023      2530  TIP3      OH2            15.8839107781       15.8106746114       26.2140524218  TIP3      1170            0.0000000000
     55024      2530  TIP3      H1             15.1523427554       15.3263143462       25.8136462024  TIP3      1170            0.0000000000
     55025      2530  TIP3      H2             16.1066779723       15.1638341773       26.9274862645  TIP3      1170            0.0000000000
     55026      2531  TIP3      OH2            16.6558239548       13.8937013633       28.1056211511  TIP3      1171            0.0000000000
     55027      2531  TIP3      H1             16.2867644620       13.0285539748       28.3523342998  TIP3      1171            0.0000000000
     55028      2531  TIP3      H2             16.8840246320       14.2431852563       28.9906015793  TIP3      1171            0.0000000000
     55029      2532  TIP3      OH2            32.3899277016        3.4997233863       20.9217760888  TIP3      1172            0.0000000000
     55030      2532  TIP3      H1             32.6394787059        4.1729366470       20.2863275884  TIP3      1172            0.0000000000
     55031      2532  TIP3      H2             32.4335524136        2.6596578891       20.4597817581  TIP3      1172            0.0000000000
     55032      2533  TIP3      OH2            32.5511986300        6.8128650206       36.3136195649  TIP3      1173            0.0000000000
     55033      2533  TIP3      H1             33.2359485111        6.1342747494       36.3825000372  TIP3      1173            0.0000000000
     55034      2533  TIP3      H2             32.9979370853        7.6795499102       36.1711293766  TIP3      1173            0.0000000000
     55035      2534  TIP3      OH2            34.1112406970        4.7602845571       36.9829831067  TIP3      1174            0.0000000000
     55036      2534  TIP3      H1             33.2493906338        4.3639215907       36.7588194906  TIP3      1174            0.0000000000
     55037      2534  TIP3      H2             34.6630467898        3.9773436505       36.7512050882  TIP3      1174            0.0000000000
     55038      2535  TIP3      OH2            32.0599501858        2.9844948531       30.5327053373  TIP3      1175            0.0000000000
     55039      2535  TIP3      H1             32.9731919278        3.2816483549       30.3987520184  TIP3      1175            0.0000000000
     55040      2535  TIP3      H2             31.8645484454        3.2642601743       31.4283960565  TIP3      1175            0.0000000000
     55041      2536  TIP3      OH2            31.8701019898        3.6830147596       33.2337499014  TIP3      1176            0.0000000000
     55042      2536  TIP3      H1             31.2156803721        4.2372576639       33.6294387460  TIP3      1176            0.0000000000
     55043      2536  TIP3      H2             32.5554154169        4.4188369885       33.0670460068  TIP3      1176            0.0000000000
     55044      2537  TIP3      OH2            16.3714410996        2.2220391793       36.6936116026  TIP3      1177            0.0000000000
     55045      2537  TIP3      H1             17.2688214831        2.0687456730       37.0383315139  TIP3      1177            0.0000000000
     55046      2537  TIP3      H2             15.8613235093        1.4736919814       37.0856519534  TIP3      1177            0.0000000000
     55047      2538  TIP3      OH2            17.4911210183        0.5539787703       29.6914837714  TIP3      1178            0.0000000000
     55048      2538  TIP3      H1             17.9902294386       -0.2726474856       29.8666832838  TIP3      1178            0.0000000000
     55049      2538  TIP3      H2             18.0673234953        1.2608254668       29.9764891624  TIP3      1178            0.0000000000
     55050      2539  TIP3      OH2            15.9368727962        3.4879077295       30.7565964011  TIP3      1179            0.0000000000
     55051      2539  TIP3      H1             16.3514794702        3.3674860484       29.8805810550  TIP3      1179            0.0000000000
     55052      2539  TIP3      H2             16.2086981802        4.4076780514       30.8992266882  TIP3      1179            0.0000000000
     55053      2540  TIP3      OH2            16.2264328265       -0.1210028092       24.7553664115  TIP3      1180            0.0000000000
     55054      2540  TIP3      H1             15.2636484640       -0.0493624690       24.6442741572  TIP3      1180            0.0000000000
     55055      2540  TIP3      H2             16.5753990711        0.2857855439       23.9677641909  TIP3      1180            0.0000000000
     55056      2541  TIP3      OH2            16.2093581634       -1.4527786442       33.1205428229  TIP3      1181            0.0000000000
     55057      2541  TIP3      H1             15.4465417282       -1.6517782006       33.6997527559  TIP3      1181            0.0000000000
     55058      2541  TIP3      H2             15.7052995923       -0.9090071037       32.4511816983  TIP3      1181            0.0000000000
     55059      2542  TIP3      OH2            18.3877908695       11.7204600271       37.2360657605  TIP3      1182            0.0000000000
     55060      2542  TIP3      H1             17.5762557507       11.8469695257       36.7463592472  TIP3      1182            0.0000000000
     55061      2542  TIP3      H2             18.1083086479       11.6141175429       38.1449877431  TIP3      1182            0.0000000000
     55062      2543  TIP3      OH2            21.3075577654       12.6794882467       33.4977201698  TIP3      1183            0.0000000000
     55063      2543  TIP3      H1             20.9168157336       13.5219838398       33.2082517170  TIP3      1183            0.0000000000
     55064      2543  TIP3      H2             22.2162859192       12.8122169205       33.1723468192  TIP3      1183            0.0000000000
     55065      2544  TIP3      OH2            25.5818243899       14.1401687631       36.4287207835  TIP3      1184            0.0000000000
     55066      2544  TIP3      H1             25.7433205454       13.7773162968       37.3213594026  TIP3      1184            0.0000000000
     55067      2544  TIP3      H2             26.4756640897       14.4260122523       36.1349914703  TIP3      1184            0.0000000000
     55068      2545  TIP3      OH2            27.8738958095       15.4080885029       35.6854589637  TIP3      1185            0.0000000000
     55069      2545  TIP3      H1             28.6011788545       14.7888646107       35.4389107327  TIP3      1185            0.0000000000
     55070      2545  TIP3      H2             28.2676673688       15.7873061152       36.4924057677  TIP3      1185            0.0000000000
     55071      2546  TIP3      OH2            32.8341536143       -2.0796232371       34.8249946544  TIP3      1186            0.0000000000
     55072      2546  TIP3      H1             32.0823050341       -1.7400161498       34.3561619219  TIP3      1186            0.0000000000
     55073      2546  TIP3      H2             33.1054190777       -2.8059024199       34.2551134072  TIP3      1186            0.0000000000
     55074      2547  TIP3      OH2            18.6587523496       15.8636258859       33.5103355499  TIP3      1187            0.0000000000
     55075      2547  TIP3      H1             18.0103211204       16.4495119738       33.0698801892  TIP3      1187            0.0000000000
     55076      2547  TIP3      H2             18.3300215338       15.7457619039       34.4003977080  TIP3      1187            0.0000000000
     55077      2548  TIP3      OH2            21.1486710463       15.4668341519       32.5234235166  TIP3      1188            0.0000000000
     55078      2548  TIP3      H1             20.2808572879       15.6962939338       32.9369998738  TIP3      1188            0.0000000000
     55079      2548  TIP3      H2             21.0758250551       16.1540856721       31.8228672077  TIP3      1188            0.0000000000
     55080      2549  TIP3      OH2            25.8704905102       15.4140886401       31.7525516428  TIP3      1189            0.0000000000
     55081      2549  TIP3      H1             25.4286792152       15.9734848191       31.0898924422  TIP3      1189            0.0000000000
     55082      2549  TIP3      H2             25.9966955737       16.0581150115       32.4787919741  TIP3      1189            0.0000000000
     55083      2550  TIP3      OH2            28.1821405454       14.2747762443       32.6596781052  TIP3      1190            0.0000000000
     55084      2550  TIP3      H1             27.2791486714       14.5001497087       32.3774492134  TIP3      1190            0.0000000000
     55085      2550  TIP3      H2             28.6224508471       15.1369328618       32.6638083920  TIP3      1190            0.0000000000
     55086      2551  TIP3      OH2            30.6340207368       15.8318019148       32.9245534167  TIP3      1191            0.0000000000
     55087      2551  TIP3      H1             30.6950424456       16.7879624330       32.8180258901  TIP3      1191            0.0000000000
     55088      2551  TIP3      H2             31.0145578052       15.4833126025       32.1293617605  TIP3      1191            0.0000000000
     55089      2552  TIP3      OH2            18.1760967350       14.6441792381       30.4444567326  TIP3      1192            0.0000000000
     55090      2552  TIP3      H1             18.0522901064       14.1049843414       31.2588379398  TIP3      1192            0.0000000000
     55091      2552  TIP3      H2             18.9315258491       14.1979236117       30.0276220061  TIP3      1192            0.0000000000
     55092      2553  TIP3      OH2            20.2386693807       13.2390453488       29.0395986187  TIP3      1193            0.0000000000
     55093      2553  TIP3      H1             20.0224423547       12.3281628979       29.3361581331  TIP3      1193            0.0000000000
     55094      2553  TIP3      H2             21.0576362330       13.4281793162       29.5417374069  TIP3      1193            0.0000000000
     55095      2554  TIP3      OH2            22.8540310255       13.7563958071       29.9334601675  TIP3      1194            0.0000000000
     55096      2554  TIP3      H1             22.9768404687       12.8258053857       29.6861902162  TIP3      1194            0.0000000000
     55097      2554  TIP3      H2             22.8605261375       13.7326588231       30.9018082765  TIP3      1194            0.0000000000
     55098      2555  TIP3      OH2            31.3652056482       -2.4739322140       29.2784945931  TIP3      1195            0.0000000000
     55099      2555  TIP3      H1             31.9951221619       -2.0002869526       28.6789061817  TIP3      1195            0.0000000000
     55100      2555  TIP3      H2             30.5603164924       -2.1197926731       28.8663859831  TIP3      1195            0.0000000000
     55101      2556  TIP3      OH2            33.1350880997       -1.2893234740       27.6152487190  TIP3      1196            0.0000000000
     55102      2556  TIP3      H1             33.7271997141       -1.8444963182       27.0441413731  TIP3      1196            0.0000000000
     55103      2556  TIP3      H2             33.5388962936       -0.4365724947       27.5232134250  TIP3      1196            0.0000000000
     55104      2557  TIP3      OH2            18.6549960129       -1.9231341918       26.8753235855  TIP3      1197            0.0000000000
     55105      2557  TIP3      H1             17.8360592236       -2.1972163963       26.4369227657  TIP3      1197            0.0000000000
     55106      2557  TIP3      H2             19.1629747793       -2.7444018681       26.8853069936  TIP3      1197            0.0000000000
     55107      2558  TIP3      OH2            17.4039868597       -2.1655019069       22.6739891716  TIP3      1198            0.0000000000
     55108      2558  TIP3      H1             17.8994883651       -1.5595474360       22.1058239980  TIP3      1198            0.0000000000
     55109      2558  TIP3      H2             16.8127607126       -1.6281583797       23.2165868980  TIP3      1198            0.0000000000
     55110      2559  TIP3      OH2            26.1591569824       15.1035835434       21.8958487490  TIP3      1199            0.0000000000
     55111      2559  TIP3      H1             27.1148587720       15.3073917595       21.8662380142  TIP3      1199            0.0000000000
     55112      2559  TIP3      H2             26.0688461893       14.5160576375       21.1520318955  TIP3      1199            0.0000000000
     55113      2560  TIP3      OH2            18.6619697712       -1.6132672918       36.2602359907  TIP3      1200            0.0000000000
     55114      2560  TIP3      H1             18.1805569498       -2.0787981745       36.9628420301  TIP3      1200            0.0000000000
     55115      2560  TIP3      H2             19.4863489496       -1.3981565111       36.7465235621  TIP3      1200            0.0000000000
     55116      2561  TIP3      OH2            19.3095493023       14.8375953684       20.7180287074  TIP3      1201            0.0000000000
     55117      2561  TIP3      H1             18.8635632880       14.5263137163       21.4998482012  TIP3      1201            0.0000000000
     55118      2561  TIP3      H2             19.9164222457       14.0926933030       20.7561906046  TIP3      1201            0.0000000000
     55119      2562  TIP3      OH2            28.9987970273       -2.6765933500       38.1827893401  TIP3      1202            0.0000000000
     55120      2562  TIP3      H1             29.0476711876       -3.2340670838       38.9623653772  TIP3      1202            0.0000000000
     55121      2562  TIP3      H2             29.8843390163       -2.7733808323       37.8114841618  TIP3      1202            0.0000000000
     55122      2563  TIP3      OH2            37.9164947436        6.0038241218       31.8328702902  TIP3      1203            0.0000000000
     55123      2563  TIP3      H1             37.7932526890        5.4336925173       32.6159560658  TIP3      1203            0.0000000000
     55124      2563  TIP3      H2             38.4395126028        6.7629983103       32.0018376464  TIP3      1203            0.0000000000
     55125      2564  TIP3      OH2            38.7627333249       10.4901945016       30.4972449053  TIP3      1204            0.0000000000
     55126      2564  TIP3      H1             38.4219905159        9.7611108688       29.9845477345  TIP3      1204            0.0000000000
     55127      2564  TIP3      H2             39.7197506186       10.3886073314       30.4043930792  TIP3      1204            0.0000000000
     55128      2565  TIP3      OH2            39.9486266274        9.8017455529       33.3790874391  TIP3      1205            0.0000000000
     55129      2565  TIP3      H1             40.0390590750       10.7518860076       33.0931525109  TIP3      1205            0.0000000000
     55130      2565  TIP3      H2             39.1111851991        9.9521549693       33.8825504829  TIP3      1205            0.0000000000
     55131      2566  TIP3      OH2            38.3391007826        6.7473652253       34.7823414282  TIP3      1206            0.0000000000
     55132      2566  TIP3      H1             38.3724198812        7.3556854460       35.5546054300  TIP3      1206            0.0000000000
     55133      2566  TIP3      H2             37.3783790426        6.7771873480       34.5397339973  TIP3      1206            0.0000000000
     55134      2567  TIP3      OH2            39.7442754275       12.4664610358       36.2617832483  TIP3      1207            0.0000000000
     55135      2567  TIP3      H1             39.7692945524       12.4235307088       35.2990131821  TIP3      1207            0.0000000000
     55136      2567  TIP3      H2             38.8121226636       12.3865488378       36.4934588127  TIP3      1207            0.0000000000
     55137      2568  TIP3      OH2            38.3669774763       14.3267364579       26.5545669903  TIP3      1208            0.0000000000
     55138      2568  TIP3      H1             38.5581417112       13.9536987871       27.4608009047  TIP3      1208            0.0000000000
     55139      2568  TIP3      H2             37.5233598096       13.8863940929       26.3959965193  TIP3      1208            0.0000000000
     55140      2569  TIP3      OH2            37.6618530438        9.7855965520       34.5343257767  TIP3      1209            0.0000000000
     55141      2569  TIP3      H1             37.7841112040        9.8087136553       35.4931539889  TIP3      1209            0.0000000000
     55142      2569  TIP3      H2             36.6876593966        9.8101323431       34.4247974476  TIP3      1209            0.0000000000
     55143      2570  TIP3      OH2            40.1173125107        4.0513761264       32.6747673372  TIP3      1210            0.0000000000
     55144      2570  TIP3      H1             39.5085293973        3.2809257829       32.5348113979  TIP3      1210            0.0000000000
     55145      2570  TIP3      H2             40.3113540826        4.1265388238       31.7030079674  TIP3      1210            0.0000000000
     55146      2571  TIP3      OH2            38.2909221786        8.3880869842       36.9033717184  TIP3      1211            0.0000000000
     55147      2571  TIP3      H1             39.0088451218        8.8323236893       37.4048413757  TIP3      1211            0.0000000000
     55148      2571  TIP3      H2             37.5004021053        8.8185997599       37.2833269604  TIP3      1211            0.0000000000
     55149      2572  TIP3      OH2            35.6418924722        6.2580072816       34.7654163912  TIP3      1212            0.0000000000
     55150      2572  TIP3      H1             35.7064890324        5.7443411459       35.5752446461  TIP3      1212            0.0000000000
     55151      2572  TIP3      H2             34.9547732238        5.6965078913       34.3203691556  TIP3      1212            0.0000000000
     55152      2573  TIP3      OH2            36.6880965226        6.2648356485       21.3136697179  TIP3      1213            0.0000000000
     55153      2573  TIP3      H1             37.3064246330        6.7803799822       21.8548248587  TIP3      1213            0.0000000000
     55154      2573  TIP3      H2             35.8511373022        6.4618689816       21.7438046532  TIP3      1213            0.0000000000
     55155      2574  TIP3      OH2            37.0352986191       12.8712277260       32.6880745090  TIP3      1214            0.0000000000
     55156      2574  TIP3      H1             36.9915040268       11.9196681159       32.7403901498  TIP3      1214            0.0000000000
     55157      2574  TIP3      H2             36.9803177944       13.1357563079       33.6201789569  TIP3      1214            0.0000000000
     55158      2575  TIP3      OH2            38.0937832797        8.1141134532       22.9034527895  TIP3      1215            0.0000000000
     55159      2575  TIP3      H1             37.4012070400        8.4068880707       23.5076015856  TIP3      1215            0.0000000000
     55160      2575  TIP3      H2             38.5895155399        8.9013653424       22.6966115005  TIP3      1215            0.0000000000
     55161      2576  TIP3      OH2            38.7042182792       10.7085328315       21.7782096334  TIP3      1216            0.0000000000
     55162      2576  TIP3      H1             39.3395511268       11.3093508099       22.0882928294  TIP3      1216            0.0000000000
     55163      2576  TIP3      H2             39.1862556472       10.2418770660       21.0567057806  TIP3      1216            0.0000000000
     55164      2577  TIP3      OH2            36.8334547291       12.1944679683       25.8402470270  TIP3      1217            0.0000000000
     55165      2577  TIP3      H1             35.9262683203       12.5113411122       25.7564619783  TIP3      1217            0.0000000000
     55166      2577  TIP3      H2             37.3151603242       12.5836085494       25.1166059010  TIP3      1217            0.0000000000
     55167      2578  TIP3      OH2            35.8371633806        8.6517437989       37.8102196058  TIP3      1218            0.0000000000
     55168      2578  TIP3      H1             35.9458552359        7.8430618140       37.2786015875  TIP3      1218            0.0000000000
     55169      2578  TIP3      H2             35.0222961439        9.0115442515       37.3804484674  TIP3      1218            0.0000000000
     55170      2579  TIP3      OH2            40.2914830127        8.8572062770       20.1667686431  TIP3      1219            0.0000000000
     55171      2579  TIP3      H1             40.3168000199        8.0541289367       20.7058391458  TIP3      1219            0.0000000000
     55172      2579  TIP3      H2             40.9181504296        8.6794104463       19.4519211195  TIP3      1219            0.0000000000
     55173      2580  TIP3      OH2            36.8981714758        5.7742578209       37.6422913552  TIP3      1220            0.0000000000
     55174      2580  TIP3      H1             37.1814165646        4.9230205871       37.2150008807  TIP3      1220            0.0000000000
     55175      2580  TIP3      H2             36.5071056102        5.2957133492       38.3749403229  TIP3      1220            0.0000000000
     55176      2581  TIP3      OH2            39.4627838174        3.3980475474       37.8641967744  TIP3      1221            0.0000000000
     55177      2581  TIP3      H1             38.7703616165        2.7453317898       37.6464036054  TIP3      1221            0.0000000000
     55178      2581  TIP3      H2             40.2149685120        3.0253405902       37.3483948875  TIP3      1221            0.0000000000
     55179      2582  TIP3      OH2            36.0252854769       10.4425799598       21.2674394655  TIP3      1222            0.0000000000
     55180      2582  TIP3      H1             36.9548767767       10.4326524577       21.5098113605  TIP3      1222            0.0000000000
     55181      2582  TIP3      H2             35.9255335427        9.7442560310       20.6058255436  TIP3      1222            0.0000000000
     55182      2583  TIP3      OH2            37.1760639982       11.5897223243       37.2292798117  TIP3      1223            0.0000000000
     55183      2583  TIP3      H1             36.4054354658       11.9485864112       36.7337086628  TIP3      1223            0.0000000000
     55184      2583  TIP3      H2             36.8982982658       11.7765711489       38.1285196616  TIP3      1223            0.0000000000
     55185      2584  TIP3      OH2            40.1336139209       12.6120351623       33.4025231273  TIP3      1224            0.0000000000
     55186      2584  TIP3      H1             39.7668216322       13.5086431021       33.2250398465  TIP3      1224            0.0000000000
     55187      2584  TIP3      H2             41.0655709580       12.7958171305       33.2319146134  TIP3      1224            0.0000000000
     55188      2585  TIP3      OH2            39.7106696984       15.2472670290       32.3027345495  TIP3      1225            0.0000000000
     55189      2585  TIP3      H1             39.1720467342       15.6241818686       33.0165470438  TIP3      1225            0.0000000000
     55190      2585  TIP3      H2             40.0296194850       16.0616228919       31.8475488573  TIP3      1225            0.0000000000
     55191      2586  TIP3      OH2            39.0371259104       13.3180836449       29.0822383080  TIP3      1226            0.0000000000
     55192      2586  TIP3      H1             38.8710450890       12.3800697233       29.2763716151  TIP3      1226            0.0000000000
     55193      2586  TIP3      H2             39.8895279067       13.3966035561       29.5178182086  TIP3      1226            0.0000000000
     55194      2587  TIP3      OH2           -28.8627289376       26.0581995265       26.8457803874  TIP3      1227            0.0000000000
     55195      2587  TIP3      H1            -28.8237263875       27.0343332039       26.7298299251  TIP3      1227            0.0000000000
     55196      2587  TIP3      H2            -29.5137471696       25.8186207046       26.1642976904  TIP3      1227            0.0000000000
     55197      2588  TIP3      OH2           -26.2459525327       28.2735669217       28.6010356538  TIP3      1228            0.0000000000
     55198      2588  TIP3      H1            -26.6633351554       27.5318094386       29.0498563496  TIP3      1228            0.0000000000
     55199      2588  TIP3      H2            -26.2590142145       28.9697485536       29.2762438062  TIP3      1228            0.0000000000
     55200      2589  TIP3      OH2           -29.1311168231       33.4466926807       28.8368141435  TIP3      1229            0.0000000000
     55201      2589  TIP3      H1            -28.5625230653       32.6784390413       28.5416034735  TIP3      1229            0.0000000000
     55202      2589  TIP3      H2            -29.3866060169       33.0618823256       29.6902444943  TIP3      1229            0.0000000000
     55203      2590  TIP3      OH2           -22.7412167251       19.3190594784       31.6264288972  TIP3      1230            0.0000000000
     55204      2590  TIP3      H1            -22.8693407742       20.0303682465       32.2634320695  TIP3      1230            0.0000000000
     55205      2590  TIP3      H2            -22.5278268766       19.7654780601       30.7967648031  TIP3      1230            0.0000000000
     55206      2591  TIP3      OH2           -28.3180680412       22.1560864074       31.0094413557  TIP3      1231            0.0000000000
     55207      2591  TIP3      H1            -28.3141779660       21.1969928325       31.1153794889  TIP3      1231            0.0000000000
     55208      2591  TIP3      H2            -28.5717869351       22.2857263478       30.0897869968  TIP3      1231            0.0000000000
     55209      2592  TIP3      OH2           -22.3485102948       20.9963909725       33.9036075755  TIP3      1232            0.0000000000
     55210      2592  TIP3      H1            -23.1924449118       21.4493500891       33.6281388923  TIP3      1232            0.0000000000
     55211      2592  TIP3      H2            -22.6328996808       20.5491633538       34.7094603227  TIP3      1232            0.0000000000
     55212      2593  TIP3      OH2           -29.0827685705       28.6311971314       25.8953726465  TIP3      1233            0.0000000000
     55213      2593  TIP3      H1            -29.3892269222       28.3503741542       25.0266603932  TIP3      1233            0.0000000000
     55214      2593  TIP3      H2            -29.4242733820       29.5490463775       25.9442139017  TIP3      1233            0.0000000000
     55215      2594  TIP3      OH2           -36.8471812201       21.0766280096       30.3069067038  TIP3      1234            0.0000000000
     55216      2594  TIP3      H1            -36.2339275287       21.6652773066       30.7302907073  TIP3      1234            0.0000000000
     55217      2594  TIP3      H2            -36.3183892426       20.6164753614       29.6455459481  TIP3      1234            0.0000000000
     55218      2595  TIP3      OH2           -25.7523000780       30.0789597708       30.8794747553  TIP3      1235            0.0000000000
     55219      2595  TIP3      H1            -26.6972736512       30.1919553732       31.1246599978  TIP3      1235            0.0000000000
     55220      2595  TIP3      H2            -25.4757600140       30.9962061971       30.8414271218  TIP3      1235            0.0000000000
     55221      2596  TIP3      OH2           -27.4424337496       31.8938506623       27.5572744500  TIP3      1236            0.0000000000
     55222      2596  TIP3      H1            -27.0534662490       31.1311537505       27.0598570245  TIP3      1236            0.0000000000
     55223      2596  TIP3      H2            -27.0729114402       32.6429633057       27.0945455861  TIP3      1236            0.0000000000
     55224      2597  TIP3      OH2           -26.3541608767       29.7921020071       26.0817128296  TIP3      1237            0.0000000000
     55225      2597  TIP3      H1            -26.5486012214       29.0817172024       25.4528248587  TIP3      1237            0.0000000000
     55226      2597  TIP3      H2            -26.2315613183       29.2748743530       26.9008849564  TIP3      1237            0.0000000000
     55227      2598  TIP3      OH2           -24.6425611792       28.3234703640       34.5518340088  TIP3      1238            0.0000000000
     55228      2598  TIP3      H1            -24.4915006917       27.7721269868       33.7620941194  TIP3      1238            0.0000000000
     55229      2598  TIP3      H2            -24.4518682120       29.2260033894       34.2209656699  TIP3      1238            0.0000000000
     55230      2599  TIP3      OH2           -22.7713846586       24.6665189739       32.6363119460  TIP3      1239            0.0000000000
     55231      2599  TIP3      H1            -23.3965022478       25.4159756658       32.6032232440  TIP3      1239            0.0000000000
     55232      2599  TIP3      H2            -22.2960966996       24.9070704380       31.7999394569  TIP3      1239            0.0000000000
     55233      2600  TIP3      OH2           -26.7485380611       25.5059140900       25.2516101941  TIP3      1240            0.0000000000
     55234      2600  TIP3      H1            -27.4823522796       25.7300314458       25.8538926145  TIP3      1240            0.0000000000
     55235      2600  TIP3      H2            -26.2190746112       24.8460943786       25.7305802443  TIP3      1240            0.0000000000
     55236      2601  TIP3      OH2           -26.6677970037       23.8241256740       34.3389852072  TIP3      1241            0.0000000000
     55237      2601  TIP3      H1            -27.0941412192       24.4861412791       34.8920302470  TIP3      1241            0.0000000000
     55238      2601  TIP3      H2            -27.4532826740       23.8217005179       33.7165815246  TIP3      1241            0.0000000000
     55239      2602  TIP3      OH2           -28.3848976262       30.4407692665       31.5266872176  TIP3      1242            0.0000000000
     55240      2602  TIP3      H1            -28.6045915067       31.1002261536       32.1958548629  TIP3      1242            0.0000000000
     55241      2602  TIP3      H2            -28.6290869239       29.5938353018       31.9725878570  TIP3      1242            0.0000000000
     55242      2603  TIP3      OH2           -27.7384141269       24.5614421582       22.8937180781  TIP3      1243            0.0000000000
     55243      2603  TIP3      H1            -27.3233869705       24.9392825732       23.6995645796  TIP3      1243            0.0000000000
     55244      2603  TIP3      H2            -27.5230219360       25.2186358418       22.2011861824  TIP3      1243            0.0000000000
     55245      2604  TIP3      OH2           -30.0756154969       31.4453698559       26.3434222391  TIP3      1244            0.0000000000
     55246      2604  TIP3      H1            -29.7014362523       31.7129980281       27.1864811945  TIP3      1244            0.0000000000
     55247      2604  TIP3      H2            -30.7427913274       32.1187415138       26.1490202389  TIP3      1244            0.0000000000
     55248      2605  TIP3      OH2           -35.6450377977       31.2143024639       36.2131308854  TIP3      1245            0.0000000000
     55249      2605  TIP3      H1            -35.5785276813       31.0885231916       35.2178665661  TIP3      1245            0.0000000000
     55250      2605  TIP3      H2            -36.5534389758       30.8933807862       36.4044236361  TIP3      1245            0.0000000000
     55251      2606  TIP3      OH2           -31.0812360392       30.6212833734       34.9421462942  TIP3      1246            0.0000000000
     55252      2606  TIP3      H1            -30.9828050551       31.4076866356       35.5027096623  TIP3      1246            0.0000000000
     55253      2606  TIP3      H2            -31.9005976450       30.2112778546       35.2381057761  TIP3      1246            0.0000000000
     55254      2607  TIP3      OH2           -30.6330595816       34.3617056100       24.8230548587  TIP3      1247            0.0000000000
     55255      2607  TIP3      H1            -30.7051249433       34.2314461279       23.8589435254  TIP3      1247            0.0000000000
     55256      2607  TIP3      H2            -30.6203547718       35.3109266536       24.8808701957  TIP3      1247            0.0000000000
     55257      2608  TIP3      OH2           -27.6442612189       33.5063793343       21.7785899386  TIP3      1248            0.0000000000
     55258      2608  TIP3      H1            -27.1315369599       32.7847595723       21.3498412701  TIP3      1248            0.0000000000
     55259      2608  TIP3      H2            -27.5476523813       33.2827879745       22.7190733112  TIP3      1248            0.0000000000
     55260      2609  TIP3      OH2           -27.9457643533       33.5210596562       24.6960794032  TIP3      1249            0.0000000000
     55261      2609  TIP3      H1            -28.9162263511       33.4643261424       24.7178486783  TIP3      1249            0.0000000000
     55262      2609  TIP3      H2            -27.6535838485       32.6704294319       25.0505850766  TIP3      1249            0.0000000000
     55263      2610  TIP3      OH2           -24.8772992734       22.6271693466       36.4723305743  TIP3      1250            0.0000000000
     55264      2610  TIP3      H1            -25.5471306424       22.7685720636       35.7810528461  TIP3      1250            0.0000000000
     55265      2610  TIP3      H2            -24.9265569579       21.6303421261       36.3512250989  TIP3      1250            0.0000000000
     55266      2611  TIP3      OH2           -27.0549755926       20.9977842963       34.9536354152  TIP3      1251            0.0000000000
     55267      2611  TIP3      H1            -27.8075127518       20.6894136499       35.5293256008  TIP3      1251            0.0000000000
     55268      2611  TIP3      H2            -27.4714148401       21.7577885036       34.5191301796  TIP3      1251            0.0000000000
     55269      2612  TIP3      OH2           -26.2916147914       25.6241663722       20.6762436775  TIP3      1252            0.0000000000
     55270      2612  TIP3      H1            -26.4277326940       25.5666689844       19.7183946437  TIP3      1252            0.0000000000
     55271      2612  TIP3      H2            -25.5132964678       26.1794685312       20.7481462786  TIP3      1252            0.0000000000
     55272      2613  TIP3      OH2           -30.6711819899       19.5131561659       21.2840749722  TIP3      1253            0.0000000000
     55273      2613  TIP3      H1            -31.1764799887       19.6000843817       22.1295526068  TIP3      1253            0.0000000000
     55274      2613  TIP3      H2            -31.1402217334       18.7314839867       20.9578257118  TIP3      1253            0.0000000000
     55275      2614  TIP3      OH2           -28.4547253404       22.4650755554       28.2334333739  TIP3      1254            0.0000000000
     55276      2614  TIP3      H1            -28.7112010109       23.0594732365       27.5165487336  TIP3      1254            0.0000000000
     55277      2614  TIP3      H2            -28.3331995237       21.6000700751       27.8114689052  TIP3      1254            0.0000000000
     55278      2615  TIP3      OH2           -33.9767791853       19.9573473013       20.3140716551  TIP3      1255            0.0000000000
     55279      2615  TIP3      H1            -34.3512014953       19.5980954126       21.1295417089  TIP3      1255            0.0000000000
     55280      2615  TIP3      H2            -34.7014149060       20.4200510421       19.9027087631  TIP3      1255            0.0000000000
     55281      2616  TIP3      OH2           -40.2672081552       19.7744075245       26.9720339687  TIP3      1256            0.0000000000
     55282      2616  TIP3      H1            -40.0183544401       19.6163597838       27.9143171177  TIP3      1256            0.0000000000
     55283      2616  TIP3      H2            -39.9992354555       18.9974956909       26.4550369682  TIP3      1256            0.0000000000
     55284      2617  TIP3      OH2           -39.3349335909       20.5633069988       22.9714141300  TIP3      1257            0.0000000000
     55285      2617  TIP3      H1            -38.9508647200       21.0969908615       22.2502266679  TIP3      1257            0.0000000000
     55286      2617  TIP3      H2            -40.1790880616       21.0205228570       23.1176372049  TIP3      1257            0.0000000000
     55287      2618  TIP3      OH2           -24.7851113272       26.5197558135       32.4776844925  TIP3      1258            0.0000000000
     55288      2618  TIP3      H1            -24.2153496681       27.0277846562       31.8787022592  TIP3      1258            0.0000000000
     55289      2618  TIP3      H2            -25.6474586212       26.5840793904       32.0017550748  TIP3      1258            0.0000000000
     55290      2619  TIP3      OH2           -28.3096661956       20.2408282467       21.9976631313  TIP3      1259            0.0000000000
     55291      2619  TIP3      H1            -29.2798586321       20.3456889022       21.7961390329  TIP3      1259            0.0000000000
     55292      2619  TIP3      H2            -28.0692016952       21.1380430003       22.3758496741  TIP3      1259            0.0000000000
     55293      2620  TIP3      OH2           -27.2794644157       22.0115777016       23.4184229082  TIP3      1260            0.0000000000
     55294      2620  TIP3      H1            -26.4789876246       21.9978277134       23.9820422571  TIP3      1260            0.0000000000
     55295      2620  TIP3      H2            -27.3532768533       22.9475195778       23.0907448489  TIP3      1260            0.0000000000
     55296      2621  TIP3      OH2           -28.2353077013       29.9610489496       34.8692745339  TIP3      1261            0.0000000000
     55297      2621  TIP3      H1            -29.1287690898       30.2317318531       34.6223212614  TIP3      1261            0.0000000000
     55298      2621  TIP3      H2            -28.1682939854       30.3213201725       35.7630725604  TIP3      1261            0.0000000000
     55299      2622  TIP3      OH2           -22.5075512599       22.2556394597       23.2725302441  TIP3      1262            0.0000000000
     55300      2622  TIP3      H1            -23.0456110790       21.9322585863       22.5364934975  TIP3      1262            0.0000000000
     55301      2622  TIP3      H2            -22.3812890449       23.1949674711       23.0063480967  TIP3      1262            0.0000000000
     55302      2623  TIP3      OH2           -27.0197854975       25.8840906091       30.7260543682  TIP3      1263            0.0000000000
     55303      2623  TIP3      H1            -27.9429814580       25.6160185685       30.6850370688  TIP3      1263            0.0000000000
     55304      2623  TIP3      H2            -26.5778459412       25.0918060391       30.3619679426  TIP3      1263            0.0000000000
     55305      2624  TIP3      OH2           -32.6425245448       32.0869105631       32.8494202187  TIP3      1264            0.0000000000
     55306      2624  TIP3      H1            -32.1385356591       32.8316094674       32.4926619007  TIP3      1264            0.0000000000
     55307      2624  TIP3      H2            -31.9919564861       31.6630768214       33.4362473231  TIP3      1264            0.0000000000
     55308      2625  TIP3      OH2           -29.0286999405       28.0940650087       32.4395782267  TIP3      1265            0.0000000000
     55309      2625  TIP3      H1            -29.4333005337       27.8250617773       33.2834937977  TIP3      1265            0.0000000000
     55310      2625  TIP3      H2            -28.4738953493       27.3352429249       32.2448871001  TIP3      1265            0.0000000000
     55311      2626  TIP3      OH2           -26.8406434923       29.1105502832       21.6605530444  TIP3      1266            0.0000000000
     55312      2626  TIP3      H1            -26.4945620656       28.5532793578       22.3237264045  TIP3      1266            0.0000000000
     55313      2626  TIP3      H2            -27.7624243290       28.8451771874       21.5071004805  TIP3      1266            0.0000000000
     55314      2627  TIP3      OH2           -38.6294680741       31.7465608258       32.7527793247  TIP3      1267            0.0000000000
     55315      2627  TIP3      H1            -38.3487359259       30.8032003228       32.5741189170  TIP3      1267            0.0000000000
     55316      2627  TIP3      H2            -38.2831641542       31.8989030294       33.6124014287  TIP3      1267            0.0000000000
     55317      2628  TIP3      OH2           -29.5765723115       19.7014651890       33.3326275376  TIP3      1268            0.0000000000
     55318      2628  TIP3      H1            -28.7451487573       19.6785224462       33.8108085556  TIP3      1268            0.0000000000
     55319      2628  TIP3      H2            -29.7841837767       18.7545461721       33.2948348964  TIP3      1268            0.0000000000
     55320      2629  TIP3      OH2           -24.6778344637       20.0544639798       35.1891333910  TIP3      1269            0.0000000000
     55321      2629  TIP3      H1            -25.6662691390       20.1343476675       35.0727520522  TIP3      1269            0.0000000000
     55322      2629  TIP3      H2            -24.4991662077       19.7866985485       34.2691101065  TIP3      1269            0.0000000000
     55323      2630  TIP3      OH2           -26.1673700731       23.6720566142       29.2274160305  TIP3      1270            0.0000000000
     55324      2630  TIP3      H1            -26.9744499277       23.2078344088       28.9456314727  TIP3      1270            0.0000000000
     55325      2630  TIP3      H2            -25.6830979392       22.9639317197       29.7217298645  TIP3      1270            0.0000000000
     55326      2631  TIP3      OH2           -36.6820021524       29.7868796782       21.5988021778  TIP3      1271            0.0000000000
     55327      2631  TIP3      H1            -36.1358029315       30.1583450636       22.2944199425  TIP3      1271            0.0000000000
     55328      2631  TIP3      H2            -36.2741955691       29.0084732296       21.1831470818  TIP3      1271            0.0000000000
     55329      2632  TIP3      OH2           -38.4312926868       22.2327841742       20.9609627349  TIP3      1272            0.0000000000
     55330      2632  TIP3      H1            -38.4139235899       23.1904288144       21.1342969288  TIP3      1272            0.0000000000
     55331      2632  TIP3      H2            -39.2913005184       21.9914274127       20.6115850283  TIP3      1272            0.0000000000
     55332      2633  TIP3      OH2           -39.4872448676       33.5337039172       37.2237895636  TIP3      1273            0.0000000000
     55333      2633  TIP3      H1            -38.8224848811       33.3530547601       37.9019931449  TIP3      1273            0.0000000000
     55334      2633  TIP3      H2            -39.8265512585       32.7097259291       36.8597381542  TIP3      1273            0.0000000000
     55335      2634  TIP3      OH2           -34.8258801743       32.5245351399       38.5583681273  TIP3      1274            0.0000000000
     55336      2634  TIP3      H1            -34.1251945437       32.1467201573       39.1494053188  TIP3      1274            0.0000000000
     55337      2634  TIP3      H2            -34.5768267426       32.0257929438       37.7950133127  TIP3      1274            0.0000000000
     55338      2635  TIP3      OH2           -30.7539684634       32.0150964389       20.1206280379  TIP3      1275            0.0000000000
     55339      2635  TIP3      H1            -31.2075227266       31.2402788520       20.4234304597  TIP3      1275            0.0000000000
     55340      2635  TIP3      H2            -29.9274708601       31.5391752914       19.8575818287  TIP3      1275            0.0000000000
     55341      2636  TIP3      OH2           -28.2732446768       30.9329783455       37.5259506429  TIP3      1276            0.0000000000
     55342      2636  TIP3      H1            -28.4801548377       30.0036511383       37.6585352579  TIP3      1276            0.0000000000
     55343      2636  TIP3      H2            -27.4272030930       31.0153668208       37.9859304603  TIP3      1276            0.0000000000
     55344      2637  TIP3      OH2           -27.0202029877       27.2388096681       34.9381952550  TIP3      1277            0.0000000000
     55345      2637  TIP3      H1            -26.3569928605       27.9362105791       34.7447171747  TIP3      1277            0.0000000000
     55346      2637  TIP3      H2            -27.8295908120       27.8043753148       34.9234184057  TIP3      1277            0.0000000000
     55347      2638  TIP3      OH2           -23.4771054472       26.3015039050       20.1982247350  TIP3      1278            0.0000000000
     55348      2638  TIP3      H1            -23.8624423218       25.9467984664       19.3994952192  TIP3      1278            0.0000000000
     55349      2638  TIP3      H2            -23.5044388585       27.2740287038       20.0096602834  TIP3      1278            0.0000000000
     55350      2639  TIP3      OH2           -34.3343094192       20.9355174578       35.9444974361  TIP3      1279            0.0000000000
     55351      2639  TIP3      H1            -34.1756987134       20.2106530016       35.3201739816  TIP3      1279            0.0000000000
     55352      2639  TIP3      H2            -34.2641532127       21.7138054542       35.3759809260  TIP3      1279            0.0000000000
     55353      2640  TIP3      OH2           -33.9401923285       19.3044251713       33.3966204007  TIP3      1280            0.0000000000
     55354      2640  TIP3      H1            -33.3798297345       19.7972578362       32.7808185762  TIP3      1280            0.0000000000
     55355      2640  TIP3      H2            -34.8300186022       19.2366706170       33.0153242513  TIP3      1280            0.0000000000
     55356      2641  TIP3      OH2           -27.9008868464       22.5621231328       38.5522341901  TIP3      1281            0.0000000000
     55357      2641  TIP3      H1            -27.7894885761       21.6151910004       38.6221120416  TIP3      1281            0.0000000000
     55358      2641  TIP3      H2            -27.0738976224       22.9659611354       38.7524692124  TIP3      1281            0.0000000000
     55359      2642  TIP3      OH2           -26.9226033639       25.3696097216       36.7961489710  TIP3      1282            0.0000000000
     55360      2642  TIP3      H1            -27.3036838910       26.0938002005       36.2031471185  TIP3      1282            0.0000000000
     55361      2642  TIP3      H2            -26.1718848458       25.7601419942       37.0940339351  TIP3      1282            0.0000000000
     55362      2643  TIP3      OH2           -35.8775255499       22.1570833896       37.8668924141  TIP3      1283            0.0000000000
     55363      2643  TIP3      H1            -36.6447727788       21.5957822458       37.6622266113  TIP3      1283            0.0000000000
     55364      2643  TIP3      H2            -35.2185879376       21.8201754612       37.2369000785  TIP3      1283            0.0000000000
     55365      2644  TIP3      OH2           -33.1053014459       16.7313322713       33.8723549577  TIP3      1284            0.0000000000
     55366      2644  TIP3      H1            -33.2217621793       17.6914121086       33.7687970556  TIP3      1284            0.0000000000
     55367      2644  TIP3      H2            -33.8515837877       16.3768093296       33.3862160384  TIP3      1284            0.0000000000
     55368      2645  TIP3      OH2           -31.8311545893       20.9497401675       37.4225889589  TIP3      1285            0.0000000000
     55369      2645  TIP3      H1            -32.1068901154       20.9144817458       38.3474580110  TIP3      1285            0.0000000000
     55370      2645  TIP3      H2            -32.6527858219       21.0115113481       36.9169742931  TIP3      1285            0.0000000000
     55371      2646  TIP3      OH2           -29.0733676603       20.1333462978       36.5169553506  TIP3      1286            0.0000000000
     55372      2646  TIP3      H1            -30.0271755293       20.3488338580       36.6399970923  TIP3      1286            0.0000000000
     55373      2646  TIP3      H2            -28.8972921305       19.5859488518       37.2659287865  TIP3      1286            0.0000000000
     55374      2647  TIP3      OH2           -37.6617397801       20.0698360763       37.5368182150  TIP3      1287            0.0000000000
     55375      2647  TIP3      H1            -37.5137006677       19.3134120158       36.9310770485  TIP3      1287            0.0000000000
     55376      2647  TIP3      H2            -37.8012308922       19.6082409420       38.3952785441  TIP3      1287            0.0000000000
     55377      2648  TIP3      OH2           -32.9047613640       16.1346742137       36.5401191982  TIP3      1288            0.0000000000
     55378      2648  TIP3      H1            -32.2214826580       15.4669813591       36.5119744530  TIP3      1288            0.0000000000
     55379      2648  TIP3      H2            -33.0229305450       16.3130644969       35.5792151986  TIP3      1288            0.0000000000
     55380      2649  TIP3      OH2           -32.4863013905       17.7436076143       38.6270138118  TIP3      1289            0.0000000000
     55381      2649  TIP3      H1            -32.6936711958       17.2303077896       37.8072691626  TIP3      1289            0.0000000000
     55382      2649  TIP3      H2            -33.1007322323       18.4935285456       38.5117976607  TIP3      1289            0.0000000000
     55383      2650  TIP3      OH2           -33.1173955104       34.6314118152       21.7868031681  TIP3      1290            0.0000000000
     55384      2650  TIP3      H1            -32.1259373268       34.6890212262       21.9148924014  TIP3      1290            0.0000000000
     55385      2650  TIP3      H2            -33.1907905180       35.3323208864       21.1302882244  TIP3      1290            0.0000000000
     55386      2651  TIP3      OH2           -39.3926074298       29.3666458397       21.2441021906  TIP3      1291            0.0000000000
     55387      2651  TIP3      H1            -38.4943592138       29.3040391742       21.5830632313  TIP3      1291            0.0000000000
     55388      2651  TIP3      H2            -39.4487120695       28.6186475175       20.6439144384  TIP3      1291            0.0000000000
     55389      2652  TIP3      OH2            40.9616621210       36.1480975490       26.2269113736  TIP3      1292            0.0000000000
     55390      2652  TIP3      H1             40.2760853873       35.5077251590       25.8366801296  TIP3      1292            0.0000000000
     55391      2652  TIP3      H2             41.3512286855       35.2765957203       26.4381549024  TIP3      1292            0.0000000000
     55392      2653  TIP3      OH2           -39.4369734672       32.2103000482       28.2672367599  TIP3      1293            0.0000000000
     55393      2653  TIP3      H1            -40.1740759536       31.6085307201       28.4897034204  TIP3      1293            0.0000000000
     55394      2653  TIP3      H2            -39.4386282914       32.9050912562       28.9919385405  TIP3      1293            0.0000000000
     55395      2654  TIP3      OH2           -24.3266765847       28.7862331937       38.7385179964  TIP3      1294            0.0000000000
     55396      2654  TIP3      H1            -25.2413928419       28.8830357462       39.0610936137  TIP3      1294            0.0000000000
     55397      2654  TIP3      H2            -23.9889129980       29.6541001739       39.0240776441  TIP3      1294            0.0000000000
     55398      2655  TIP3      OH2           -22.6539585693       25.1997752242       25.9969399524  TIP3      1295            0.0000000000
     55399      2655  TIP3      H1            -23.4329102599       24.7904770849       26.4148324656  TIP3      1295            0.0000000000
     55400      2655  TIP3      H2            -22.0754677133       25.4367886287       26.7497559290  TIP3      1295            0.0000000000
     55401      2656  TIP3      OH2           -22.2816853738       25.1627543451       22.3608458168  TIP3      1296            0.0000000000
     55402      2656  TIP3      H1            -22.9560754108       25.4642371396       21.7177552419  TIP3      1296            0.0000000000
     55403      2656  TIP3      H2            -22.4771695524       25.7538940746       23.1116608569  TIP3      1296            0.0000000000
     55404      2657  TIP3      OH2           -24.0963543601       22.3180430629       20.9274808422  TIP3      1297            0.0000000000
     55405      2657  TIP3      H1            -23.9261036415       23.0225429470       20.2858924468  TIP3      1297            0.0000000000
     55406      2657  TIP3      H2            -24.1002163963       21.5204032533       20.3845647276  TIP3      1297            0.0000000000
     55407      2658  TIP3      OH2           -24.9261695529       23.7592193430       26.5694525154  TIP3      1298            0.0000000000
     55408      2658  TIP3      H1            -25.0057317691       22.7961932046       26.5321023834  TIP3      1298            0.0000000000
     55409      2658  TIP3      H2            -25.1944253014       23.9524924072       27.4814428584  TIP3      1298            0.0000000000
     55410      2659  TIP3      OH2           -23.1590663572       26.0373920291       35.8993144827  TIP3      1299            0.0000000000
     55411      2659  TIP3      H1            -22.8595219193       25.2787837584       36.4380699948  TIP3      1299            0.0000000000
     55412      2659  TIP3      H2            -23.2140966976       26.8772920608       36.4154427317  TIP3      1299            0.0000000000
     55413      2660  TIP3      OH2           -22.6262118087       23.5794905756       36.9238989674  TIP3      1300            0.0000000000
     55414      2660  TIP3      H1            -23.4935410186       23.1544304233       36.7338599386  TIP3      1300            0.0000000000
     55415      2660  TIP3      H2            -22.2897620718       22.6940850527       36.6832214475  TIP3      1300            0.0000000000
     55416      2661  TIP3      OH2           -24.7749556579       19.8276425380       20.1999983239  TIP3      1301            0.0000000000
     55417      2661  TIP3      H1            -23.9707787133       19.4080783292       20.5843424681  TIP3      1301            0.0000000000
     55418      2661  TIP3      H2            -25.2139540471       19.0681057090       19.7986998530  TIP3      1301            0.0000000000
     55419      2662  TIP3      OH2           -25.1859228400       21.3113392230       24.9088550656  TIP3      1302            0.0000000000
     55420      2662  TIP3      H1            -24.8628067148       20.4453279568       25.2159979683  TIP3      1302            0.0000000000
     55421      2662  TIP3      H2            -24.3574369016       21.7563027341       24.6971963493  TIP3      1302            0.0000000000
     55422      2663  TIP3      OH2           -24.5772612472       21.9187636367       30.4773661024  TIP3      1303            0.0000000000
     55423      2663  TIP3      H1            -23.6215010324       22.1096964488       30.4516662651  TIP3      1303            0.0000000000
     55424      2663  TIP3      H2            -24.7541161815       21.9239326741       31.4158754673  TIP3      1303            0.0000000000
     55425      2664  TIP3      OH2           -24.4475369483       22.6590993757       33.4494324735  TIP3      1304            0.0000000000
     55426      2664  TIP3      H1            -25.4067551229       22.8563586100       33.5316890600  TIP3      1304            0.0000000000
     55427      2664  TIP3      H2            -24.1022659262       23.4306912428       32.9352604581  TIP3      1304            0.0000000000
     55428      2665  TIP3      OH2           -40.1352181788       21.0173809101       36.6270378132  TIP3      1305            0.0000000000
     55429      2665  TIP3      H1            -39.2231111008       20.8602517337       36.9219163417  TIP3      1305            0.0000000000
     55430      2665  TIP3      H2            -40.6021533008       20.2679109470       37.0261235879  TIP3      1305            0.0000000000
     55431      2666  TIP3      OH2           -39.0027583705       19.4783581135       29.5307639720  TIP3      1306            0.0000000000
     55432      2666  TIP3      H1            -38.5918855360       18.6914964352       29.9082937292  TIP3      1306            0.0000000000
     55433      2666  TIP3      H2            -38.5495547595       20.1548928182       30.0583146376  TIP3      1306            0.0000000000
     55434      2667  TIP3      OH2           -40.5931497032       22.7784802779       29.9502589370  TIP3      1307            0.0000000000
     55435      2667  TIP3      H1            -40.0327185104       22.0225581009       29.7567214286  TIP3      1307            0.0000000000
     55436      2667  TIP3      H2            -40.2032484076       23.1246132170       30.7552896548  TIP3      1307            0.0000000000
     55437      2668  TIP3      OH2           -22.6629930560       18.8381230112       36.9182492325  TIP3      1308            0.0000000000
     55438      2668  TIP3      H1            -23.6294573729       18.9767423383       36.9214167963  TIP3      1308            0.0000000000
     55439      2668  TIP3      H2            -22.6091369687       18.1643074179       36.2190707413  TIP3      1308            0.0000000000
     55440      2669  TIP3      OH2           -40.4168393847       18.5615509473       24.6747840683  TIP3      1309            0.0000000000
     55441      2669  TIP3      H1            -41.3085632138       18.9229908779       24.5836692564  TIP3      1309            0.0000000000
     55442      2669  TIP3      H2            -39.9258818081       19.1029727389       24.0277373060  TIP3      1309            0.0000000000
     55443      2670  TIP3      OH2            40.9718046512       17.5180204828       33.0829665318  TIP3      1310            0.0000000000
     55444      2670  TIP3      H1             40.4357333973       17.1860685244       33.8103582781  TIP3      1310            0.0000000000
     55445      2670  TIP3      H2             40.4427214432       18.1219946889       32.5781429534  TIP3      1310            0.0000000000
     55446      2671  TIP3      OH2           -38.2506952518       30.8234130901       37.2536187623  TIP3      1311            0.0000000000
     55447      2671  TIP3      H1            -39.0502801537       30.6510656280       36.7060944252  TIP3      1311            0.0000000000
     55448      2671  TIP3      H2            -38.4721668031       30.4210420819       38.1091919190  TIP3      1311            0.0000000000
     55449      2672  TIP3      OH2           -35.2342082277       31.7537381114       33.7312039435  TIP3      1312            0.0000000000
     55450      2672  TIP3      H1            -35.7206376533       32.3120426370       33.1011505636  TIP3      1312            0.0000000000
     55451      2672  TIP3      H2            -34.4576751638       31.5359982365       33.1553384752  TIP3      1312            0.0000000000
     55452      2673  TIP3      OH2           -31.0012638273       32.9689818098       36.4149036535  TIP3      1313            0.0000000000
     55453      2673  TIP3      H1            -30.8002469356       32.6500505068       37.3219001567  TIP3      1313            0.0000000000
     55454      2673  TIP3      H2            -30.1124728891       33.2713461560       36.1162144632  TIP3      1313            0.0000000000
     55455      2674  TIP3      OH2           -28.6782794033       34.1814436008       35.7317020579  TIP3      1314            0.0000000000
     55456      2674  TIP3      H1            -27.9101021902       33.6663174003       35.4376788591  TIP3      1314            0.0000000000
     55457      2674  TIP3      H2            -28.2607649636       34.6577768427       36.4794391150  TIP3      1314            0.0000000000
     55458      2675  TIP3      OH2           -37.7227190654       34.6152136936       33.4529451874  TIP3      1315            0.0000000000
     55459      2675  TIP3      H1            -38.4783833647       35.1253162643       33.0304934723  TIP3      1315            0.0000000000
     55460      2675  TIP3      H2            -38.2219057906       34.6866459882       34.3075559894  TIP3      1315            0.0000000000
     55461      2676  TIP3      OH2           -35.3372981772       34.4191279529       32.5676348833  TIP3      1316            0.0000000000
     55462      2676  TIP3      H1            -36.2851823343       34.4610424831       32.8672988583  TIP3      1316            0.0000000000
     55463      2676  TIP3      H2            -35.4287176788       34.9520672559       31.7546760941  TIP3      1316            0.0000000000
     55464      2677  TIP3      OH2           -30.6534917580       34.2859886210       31.7063190720  TIP3      1317            0.0000000000
     55465      2677  TIP3      H1            -31.1923639673       34.8150865187       31.1003611938  TIP3      1317            0.0000000000
     55466      2677  TIP3      H2            -30.5248320448       34.9286924669       32.4485682384  TIP3      1317            0.0000000000
     55467      2678  TIP3      OH2           -28.3547366441       33.0855703084       32.6450781047  TIP3      1318            0.0000000000
     55468      2678  TIP3      H1            -29.2623926199       33.3421923458       32.4426090946  TIP3      1318            0.0000000000
     55469      2678  TIP3      H2            -27.9212547832       33.9428909954       32.7061722511  TIP3      1318            0.0000000000
     55470      2679  TIP3      OH2           -38.3682124626       33.1623169167       30.2634226858  TIP3      1319            0.0000000000
     55471      2679  TIP3      H1            -38.4281081644       32.9494498218       31.2205149322  TIP3      1319            0.0000000000
     55472      2679  TIP3      H2            -37.4351689681       33.0302079520       30.0639967184  TIP3      1319            0.0000000000
     55473      2680  TIP3      OH2           -33.6741161596       32.6368521084       29.9515759906  TIP3      1320            0.0000000000
     55474      2680  TIP3      H1            -33.6400629259       31.7092060285       29.6595384184  TIP3      1320            0.0000000000
     55475      2680  TIP3      H2            -33.7390144037       32.5172903750       30.9113471717  TIP3      1320            0.0000000000
     55476      2681  TIP3      OH2           -39.0079356945       32.4687708136       23.3491731368  TIP3      1321            0.0000000000
     55477      2681  TIP3      H1            -39.8494379135       32.4649020655       22.8781128787  TIP3      1321            0.0000000000
     55478      2681  TIP3      H2            -39.1571467103       33.3263950137       23.7510554075  TIP3      1321            0.0000000000
     55479      2682  TIP3      OH2           -37.1814600301       18.7484708957       21.0568028286  TIP3      1322            0.0000000000
     55480      2682  TIP3      H1            -36.8410041066       17.9169510901       20.6980444888  TIP3      1322            0.0000000000
     55481      2682  TIP3      H2            -36.6348710155       18.8330970913       21.8429134028  TIP3      1322            0.0000000000
     55482      2683  TIP3      OH2           -32.1862930449       18.9019200028       23.5945720399  TIP3      1323            0.0000000000
     55483      2683  TIP3      H1            -32.0814870181       18.2430577862       24.2960889336  TIP3      1323            0.0000000000
     55484      2683  TIP3      H2            -32.3366038550       19.7184550278       24.0903285891  TIP3      1323            0.0000000000
     55485      2684  TIP3      OH2           -30.4412324422       33.9875960824       21.9815578644  TIP3      1324            0.0000000000
     55486      2684  TIP3      H1            -29.4732983222       34.1704868195       21.8670431677  TIP3      1324            0.0000000000
     55487      2684  TIP3      H2            -30.5357228199       33.3664626528       21.2291337540  TIP3      1324            0.0000000000
     55488      2685  TIP3      OH2           -37.2494886420       33.5546983622       20.5795533001  TIP3      1325            0.0000000000
     55489      2685  TIP3      H1            -37.7793680755       33.9077952107       21.3437401582  TIP3      1325            0.0000000000
     55490      2685  TIP3      H2            -36.7148597476       32.9217944009       20.9725597342  TIP3      1325            0.0000000000
     55491      2686  TIP3      OH2            -9.9833359738       26.0249822880       26.8162084552  TIP3      1326            0.0000000000
     55492      2686  TIP3      H1            -10.0065596913       26.9907678108       26.8045163013  TIP3      1326            0.0000000000
     55493      2686  TIP3      H2            -10.6872864851       25.7916809039       26.1775098714  TIP3      1326            0.0000000000
     55494      2687  TIP3      OH2           -11.0844541546       25.2794283242       30.2944747733  TIP3      1327            0.0000000000
     55495      2687  TIP3      H1            -11.1677520233       24.6306032115       31.0076883439  TIP3      1327            0.0000000000
     55496      2687  TIP3      H2            -11.4364992762       24.8129461753       29.5304796588  TIP3      1327            0.0000000000
     55497      2688  TIP3      OH2           -18.7169256481       24.8384665805       31.8262158660  TIP3      1328            0.0000000000
     55498      2688  TIP3      H1            -18.6668775646       24.3865441076       32.6639347158  TIP3      1328            0.0000000000
     55499      2688  TIP3      H2            -18.1135897349       25.6095535004       32.0042926858  TIP3      1328            0.0000000000
     55500      2689  TIP3      OH2           -21.1900646648       23.0045122049       25.8028735579  TIP3      1329            0.0000000000
     55501      2689  TIP3      H1            -21.6462033444       23.8769999663       25.7665365980  TIP3      1329            0.0000000000
     55502      2689  TIP3      H2            -21.7702208066       22.4511369852       25.2661308612  TIP3      1329            0.0000000000
     55503      2690  TIP3      OH2           -20.5566809230       25.1625493018       27.9601425228  TIP3      1330            0.0000000000
     55504      2690  TIP3      H1            -20.2294785241       24.3961225677       28.4505979401  TIP3      1330            0.0000000000
     55505      2690  TIP3      H2            -19.7981198012       25.3640831660       27.4159686964  TIP3      1330            0.0000000000
     55506      2691  TIP3      OH2           -10.2609950386       33.3550725997       28.7978234106  TIP3      1331            0.0000000000
     55507      2691  TIP3      H1             -9.5913897223       32.6947614415       28.5296418538  TIP3      1331            0.0000000000
     55508      2691  TIP3      H2            -10.4789889040       33.0518259716       29.6722335678  TIP3      1331            0.0000000000
     55509      2692  TIP3      OH2           -12.7152109213       27.6983285308       30.7504621549  TIP3      1332            0.0000000000
     55510      2692  TIP3      H1            -12.3933722564       27.0580582496       30.1049532815  TIP3      1332            0.0000000000
     55511      2692  TIP3      H2            -11.9349013776       27.8299001145       31.2917770576  TIP3      1332            0.0000000000
     55512      2693  TIP3      OH2            -4.1782370409       19.4339757512       31.4537612495  TIP3      1333            0.0000000000
     55513      2693  TIP3      H1             -3.8969612702       19.8333096129       32.3147654458  TIP3      1333            0.0000000000
     55514      2693  TIP3      H2             -3.4292115516       19.7168526704       30.9191158235  TIP3      1333            0.0000000000
     55515      2694  TIP3      OH2           -19.7867745629       22.6573365589       29.0482456655  TIP3      1334            0.0000000000
     55516      2694  TIP3      H1            -19.1067812722       22.0887541423       29.4148248342  TIP3      1334            0.0000000000
     55517      2694  TIP3      H2            -19.7895448675       22.3756559537       28.1162934021  TIP3      1334            0.0000000000
     55518      2695  TIP3      OH2           -14.6210150738       24.1876282994       28.2546643146  TIP3      1335            0.0000000000
     55519      2695  TIP3      H1            -14.0434554697       23.6399745196       28.7978219454  TIP3      1335            0.0000000000
     55520      2695  TIP3      H2            -15.2129668521       23.5393299755       27.8765483835  TIP3      1335            0.0000000000
     55521      2696  TIP3      OH2            -3.7098776561       20.8033764772       33.7437744175  TIP3      1336            0.0000000000
     55522      2696  TIP3      H1             -4.3419269455       21.5337594141       33.7248596872  TIP3      1336            0.0000000000
     55523      2696  TIP3      H2             -3.5861978490       20.6152109092       34.6890388815  TIP3      1336            0.0000000000
     55524      2697  TIP3      OH2           -17.5464207301       19.4126188506       32.4591075910  TIP3      1337            0.0000000000
     55525      2697  TIP3      H1            -17.8053609561       19.4817063521       31.5072471238  TIP3      1337            0.0000000000
     55526      2697  TIP3      H2            -18.2956063018       19.0955766973       33.0053560183  TIP3      1337            0.0000000000
     55527      2698  TIP3      OH2            -6.7431186846       19.7669171931       28.6817550187  TIP3      1338            0.0000000000
     55528      2698  TIP3      H1             -7.1777305463       18.9819869729       29.0937045982  TIP3      1338            0.0000000000
     55529      2698  TIP3      H2             -6.1503375174       20.0162791406       29.3545796160  TIP3      1338            0.0000000000
     55530      2699  TIP3      OH2           -18.0145399778       21.0101517667       30.4019667594  TIP3      1339            0.0000000000
     55531      2699  TIP3      H1            -17.2832866178       21.6804066606       30.5649640351  TIP3      1339            0.0000000000
     55532      2699  TIP3      H2            -17.5481520100       20.6168087652       29.6108369760  TIP3      1339            0.0000000000
     55533      2700  TIP3      OH2            -6.5798036581       18.3711219152       32.3094565347  TIP3      1340            0.0000000000
     55534      2700  TIP3      H1             -7.3116793620       18.9986546249       32.3118243006  TIP3      1340            0.0000000000
     55535      2700  TIP3      H2             -5.8358713877       18.7907612758       31.8367712913  TIP3      1340            0.0000000000
     55536      2701  TIP3      OH2           -11.2872603925       25.3010661731       24.3705186311  TIP3      1341            0.0000000000
     55537      2701  TIP3      H1            -11.9759071518       25.8724919922       23.9858404036  TIP3      1341            0.0000000000
     55538      2701  TIP3      H2            -10.6128916384       25.3076348668       23.6653648007  TIP3      1341            0.0000000000
     55539      2702  TIP3      OH2           -11.2306337874       23.8530600173       21.2585034275  TIP3      1342            0.0000000000
     55540      2702  TIP3      H1            -10.6079696267       23.7911933747       22.0360351140  TIP3      1342            0.0000000000
     55541      2702  TIP3      H2            -10.9249210188       23.0649002910       20.7882720826  TIP3      1342            0.0000000000
     55542      2703  TIP3      OH2            -4.0869060984       24.6228424806       32.4309286821  TIP3      1343            0.0000000000
     55543      2703  TIP3      H1             -4.4776258362       25.4865096637       32.7023841088  TIP3      1343            0.0000000000
     55544      2703  TIP3      H2             -3.3927597147       25.0060922556       31.8481553805  TIP3      1343            0.0000000000
     55545      2704  TIP3      OH2            -7.8847144663       25.4382301729       25.2390900278  TIP3      1344            0.0000000000
     55546      2704  TIP3      H1             -8.6360652007       25.7385625335       25.8058949476  TIP3      1344            0.0000000000
     55547      2704  TIP3      H2             -7.4289474197       24.7666517204       25.7235973510  TIP3      1344            0.0000000000
     55548      2705  TIP3      OH2            -7.8821764795       23.6886073340       34.2887795812  TIP3      1345            0.0000000000
     55549      2705  TIP3      H1             -7.9273019884       24.4616946684       34.8765854663  TIP3      1345            0.0000000000
     55550      2705  TIP3      H2             -8.6165194883       23.9571113452       33.7069919970  TIP3      1345            0.0000000000
     55551      2706  TIP3      OH2           -15.8451526472       24.8201783443       30.8544624169  TIP3      1346            0.0000000000
     55552      2706  TIP3      H1            -15.3755020645       25.0568174997       30.0355569538  TIP3      1346            0.0000000000
     55553      2706  TIP3      H2            -15.6142155860       25.6105478078       31.3754173209  TIP3      1346            0.0000000000
     55554      2707  TIP3      OH2            -9.8545349177       30.5361562460       31.4847194034  TIP3      1347            0.0000000000
     55555      2707  TIP3      H1             -9.5366790550       31.0566849690       32.2151509157  TIP3      1347            0.0000000000
     55556      2707  TIP3      H2             -9.6595878232       29.6167946319       31.8344434573  TIP3      1347            0.0000000000
     55557      2708  TIP3      OH2            -8.9939736039       24.6562372113       22.9291847787  TIP3      1348            0.0000000000
     55558      2708  TIP3      H1             -8.4369747835       24.8567547556       23.7212313810  TIP3      1348            0.0000000000
     55559      2708  TIP3      H2             -8.5522537422       25.1548706206       22.2243210819  TIP3      1348            0.0000000000
     55560      2709  TIP3      OH2           -18.1215308390       25.4061861867       34.8134262617  TIP3      1349            0.0000000000
     55561      2709  TIP3      H1            -17.9867733590       26.2323676095       35.3421182044  TIP3      1349            0.0000000000
     55562      2709  TIP3      H2            -18.9325636124       25.6936370626       34.3638969678  TIP3      1349            0.0000000000
     55563      2710  TIP3      OH2           -11.2977596390       31.4214478086       26.3858282441  TIP3      1350            0.0000000000
     55564      2710  TIP3      H1            -10.8393258981       31.7273013687       27.1724948333  TIP3      1350            0.0000000000
     55565      2710  TIP3      H2            -11.8531975001       32.1535556336       26.1339577455  TIP3      1350            0.0000000000
     55566      2711  TIP3      OH2            -5.3426364260       16.4315268419       22.6834000147  TIP3      1351            0.0000000000
     55567      2711  TIP3      H1             -6.2256815246       16.5444326271       23.0651495288  TIP3      1351            0.0000000000
     55568      2711  TIP3      H2             -5.0215702704       17.3301806056       22.4851675529  TIP3      1351            0.0000000000
     55569      2712  TIP3      OH2           -21.3941851845       27.5367177332       33.6953499718  TIP3      1352            0.0000000000
     55570      2712  TIP3      H1            -21.5108080970       27.5375803829       32.7383877674  TIP3      1352            0.0000000000
     55571      2712  TIP3      H2            -21.0530952303       26.6579286789       33.8296276727  TIP3      1352            0.0000000000
     55572      2713  TIP3      OH2           -12.3234772176       30.7776770393       34.8487842374  TIP3      1353            0.0000000000
     55573      2713  TIP3      H1            -12.1631127794       31.3659971761       35.6391064670  TIP3      1353            0.0000000000
     55574      2713  TIP3      H2            -13.0296396132       30.2045169619       35.2349273403  TIP3      1353            0.0000000000
     55575      2714  TIP3      OH2            -5.9827078691       22.4983693874       36.6083817379  TIP3      1354            0.0000000000
     55576      2714  TIP3      H1             -6.5064089030       22.9514937358       35.9213644704  TIP3      1354            0.0000000000
     55577      2714  TIP3      H2             -6.0264217639       21.5777919705       36.2919809338  TIP3      1354            0.0000000000
     55578      2715  TIP3      OH2            -8.2381372129       20.9214620609       34.8591734801  TIP3      1355            0.0000000000
     55579      2715  TIP3      H1             -8.9081586365       20.6793092702       35.5380873814  TIP3      1355            0.0000000000
     55580      2715  TIP3      H2             -8.5187278955       21.7970625570       34.5678665092  TIP3      1355            0.0000000000
     55581      2716  TIP3      OH2            -7.5928191714       25.7705263004       20.5802329868  TIP3      1356            0.0000000000
     55582      2716  TIP3      H1             -7.4644234551       25.4643408715       19.6820041021  TIP3      1356            0.0000000000
     55583      2716  TIP3      H2             -6.7005738926       26.1126171477       20.7997088278  TIP3      1356            0.0000000000
     55584      2717  TIP3      OH2           -11.8521241183       19.5235320328       21.2837478618  TIP3      1357            0.0000000000
     55585      2717  TIP3      H1            -12.2803218950       19.6296072207       22.1476081494  TIP3      1357            0.0000000000
     55586      2717  TIP3      H2            -12.2990320987       18.7331238520       20.9735575202  TIP3      1357            0.0000000000
     55587      2718  TIP3      OH2           -16.4141833509       22.3635744243       31.7087307527  TIP3      1358            0.0000000000
     55588      2718  TIP3      H1            -16.5799239475       22.5415754728       32.6107105045  TIP3      1358            0.0000000000
     55589      2718  TIP3      H2            -16.0643209590       23.2490681509       31.4028746713  TIP3      1358            0.0000000000
     55590      2719  TIP3      OH2           -18.6969684082       23.0217791822       33.8869810343  TIP3      1359            0.0000000000
     55591      2719  TIP3      H1            -18.3310282255       23.4174436793       34.7037271298  TIP3      1359            0.0000000000
     55592      2719  TIP3      H2            -19.1458974752       22.2545769688       34.2047418348  TIP3      1359            0.0000000000
     55593      2720  TIP3      OH2           -21.8090837244       19.8288353703       27.4087649425  TIP3      1360            0.0000000000
     55594      2720  TIP3      H1            -21.2025967973       19.6554808641       28.1377010984  TIP3      1360            0.0000000000
     55595      2720  TIP3      H2            -21.4134542240       19.3291602646       26.6974407188  TIP3      1360            0.0000000000
     55596      2721  TIP3      OH2           -20.5387882498       20.4964432924       22.8766393666  TIP3      1361            0.0000000000
     55597      2721  TIP3      H1            -20.0615141576       21.0749757571       22.2710721200  TIP3      1361            0.0000000000
     55598      2721  TIP3      H2            -21.2323751505       21.0818127853       23.2153573345  TIP3      1361            0.0000000000
     55599      2722  TIP3      OH2           -10.3903642428       24.0627380524       32.8809785058  TIP3      1362            0.0000000000
     55600      2722  TIP3      H1            -10.1721239353       23.3530103000       32.2622893612  TIP3      1362            0.0000000000
     55601      2722  TIP3      H2            -10.8814625759       23.5225933568       33.5240002328  TIP3      1362            0.0000000000
     55602      2723  TIP3      OH2           -16.5531990738       23.0886670313       21.5081579736  TIP3      1363            0.0000000000
     55603      2723  TIP3      H1            -17.0140087259       22.2969477235       21.1707075289  TIP3      1363            0.0000000000
     55604      2723  TIP3      H2            -15.6231875675       22.8387780408       21.4870485924  TIP3      1363            0.0000000000
     55605      2724  TIP3      OH2           -18.3203784892       27.2724817310       36.8231494520  TIP3      1364            0.0000000000
     55606      2724  TIP3      H1            -17.5915928946       27.6504813534       37.3280636005  TIP3      1364            0.0000000000
     55607      2724  TIP3      H2            -19.0975108958       27.5517782587       37.3165412327  TIP3      1364            0.0000000000
     55608      2725  TIP3      OH2           -13.0893607651       27.2840166635       23.6273634022  TIP3      1365            0.0000000000
     55609      2725  TIP3      H1            -13.9328902408       26.8841257363       23.3628117306  TIP3      1365            0.0000000000
     55610      2725  TIP3      H2            -13.2969218338       27.4465103649       24.5701948690  TIP3      1365            0.0000000000
     55611      2726  TIP3      OH2            -9.2045889637       20.1843383660       21.7323961133  TIP3      1366            0.0000000000
     55612      2726  TIP3      H1            -10.1859614035       20.2729186344       21.7486127900  TIP3      1366            0.0000000000
     55613      2726  TIP3      H2             -8.9513816508       20.9769035198       22.2669864960  TIP3      1366            0.0000000000
     55614      2727  TIP3      OH2           -11.6243574563       27.5917789040       34.9221097521  TIP3      1367            0.0000000000
     55615      2727  TIP3      H1            -11.9116065651       27.1626958640       35.7447295562  TIP3      1367            0.0000000000
     55616      2727  TIP3      H2            -11.8555157808       28.5041238039       35.0387284959  TIP3      1367            0.0000000000
     55617      2728  TIP3      OH2            -8.4922030704       22.0266361188       23.4552184092  TIP3      1368            0.0000000000
     55618      2728  TIP3      H1             -7.6367871822       21.9167541099       23.8928476706  TIP3      1368            0.0000000000
     55619      2728  TIP3      H2             -8.4555943008       22.8950324463       23.0310402999  TIP3      1368            0.0000000000
     55620      2729  TIP3      OH2           -11.0564411734       28.8580240344       22.5544417124  TIP3      1369            0.0000000000
     55621      2729  TIP3      H1            -11.2960675084       29.6466847012       23.1013363136  TIP3      1369            0.0000000000
     55622      2729  TIP3      H2            -11.7054040635       28.2353734931       22.9587403537  TIP3      1369            0.0000000000
     55623      2730  TIP3      OH2           -20.8841448937       24.9716742196       34.6668195678  TIP3      1370            0.0000000000
     55624      2730  TIP3      H1            -20.8181107357       24.8377186180       35.5919578792  TIP3      1370            0.0000000000
     55625      2730  TIP3      H2            -21.6587351570       24.5586306617       34.2407832600  TIP3      1370            0.0000000000
     55626      2731  TIP3      OH2           -13.9720976217       24.6768319439       36.9623468017  TIP3      1371            0.0000000000
     55627      2731  TIP3      H1            -14.3015244498       24.4081547710       36.0905661751  TIP3      1371            0.0000000000
     55628      2731  TIP3      H2            -13.0422679865       24.4412118657       36.9224581951  TIP3      1371            0.0000000000
     55629      2732  TIP3      OH2            -9.3489976460       30.0728412200       34.8248998280  TIP3      1372            0.0000000000
     55630      2732  TIP3      H1            -10.2725344792       30.1524603322       34.6517939317  TIP3      1372            0.0000000000
     55631      2732  TIP3      H2             -9.2623302078       30.2644032076       35.7803041808  TIP3      1372            0.0000000000
     55632      2733  TIP3      OH2            -3.6366477783       22.2244191400       23.2742204724  TIP3      1373            0.0000000000
     55633      2733  TIP3      H1             -4.1888615348       21.8906264718       22.5498062372  TIP3      1373            0.0000000000
     55634      2733  TIP3      H2             -3.5418774513       23.1580812048       23.0006557489  TIP3      1373            0.0000000000
     55635      2734  TIP3      OH2            -8.2018233079       25.7759632137       30.7854653024  TIP3      1374            0.0000000000
     55636      2734  TIP3      H1             -9.1547957421       25.6620647951       30.6429601350  TIP3      1374            0.0000000000
     55637      2734  TIP3      H2             -7.7673864464       25.0915677501       30.2949734147  TIP3      1374            0.0000000000
     55638      2735  TIP3      OH2           -19.8157512477       25.1856436550       21.2059040267  TIP3      1375            0.0000000000
     55639      2735  TIP3      H1            -19.2978610434       25.6487918052       21.9145458858  TIP3      1375            0.0000000000
     55640      2735  TIP3      H2            -20.7035344665       25.2623146979       21.6708259606  TIP3      1375            0.0000000000
     55641      2736  TIP3      OH2           -14.1899137550       27.8401324370       26.3383363316  TIP3      1376            0.0000000000
     55642      2736  TIP3      H1            -14.4472274424       28.7726069799       26.4210317913  TIP3      1376            0.0000000000
     55643      2736  TIP3      H2            -14.8895450240       27.3932002114       26.8304169152  TIP3      1376            0.0000000000
     55644      2737  TIP3      OH2           -14.1835530683       32.1171270694       32.7093051515  TIP3      1377            0.0000000000
     55645      2737  TIP3      H1            -13.7291437281       32.8898855917       32.3385544926  TIP3      1377            0.0000000000
     55646      2737  TIP3      H2            -13.8576694237       31.5370472462       33.4218181455  TIP3      1377            0.0000000000
     55647      2738  TIP3      OH2           -10.2554602520       28.0957911284       32.4580651698  TIP3      1378            0.0000000000
     55648      2738  TIP3      H1            -10.5318271013       27.7914530659       33.3343972111  TIP3      1378            0.0000000000
     55649      2738  TIP3      H2             -9.5743938672       27.4297040431       32.2252610797  TIP3      1378            0.0000000000
     55650      2739  TIP3      OH2            -7.9762907876       28.8971470527       21.4564362389  TIP3      1379            0.0000000000
     55651      2739  TIP3      H1             -7.5865489111       28.7277522593       22.3314464197  TIP3      1379            0.0000000000
     55652      2739  TIP3      H2             -8.9107061431       28.9737713604       21.6734052657  TIP3      1379            0.0000000000
     55653      2740  TIP3      OH2           -19.3961954346       19.9728477228       34.2767076388  TIP3      1380            0.0000000000
     55654      2740  TIP3      H1            -20.3595419601       20.1234481808       34.2905846678  TIP3      1380            0.0000000000
     55655      2740  TIP3      H2            -19.4181916535       19.0574311166       34.6926282803  TIP3      1380            0.0000000000
     55656      2741  TIP3      OH2           -13.7042836749       30.1012389489       20.0315931708  TIP3      1381            0.0000000000
     55657      2741  TIP3      H1            -13.6958218362       29.4063140554       19.4029363603  TIP3      1381            0.0000000000
     55658      2741  TIP3      H2            -14.2282892485       29.8098199877       20.8026164663  TIP3      1381            0.0000000000
     55659      2742  TIP3      OH2           -18.5462996383       27.0170868968       22.7561458772  TIP3      1382            0.0000000000
     55660      2742  TIP3      H1            -19.1027573653       27.2856902397       23.5214573208  TIP3      1382            0.0000000000
     55661      2742  TIP3      H2            -17.8911094779       27.7324517354       22.7359307967  TIP3      1382            0.0000000000
     55662      2743  TIP3      OH2           -12.1834839009       31.3804961429       23.1579543932  TIP3      1383            0.0000000000
     55663      2743  TIP3      H1            -13.0064562512       31.8886216320       23.2217534655  TIP3      1383            0.0000000000
     55664      2743  TIP3      H2            -11.6565872493       31.8984718522       22.5355896592  TIP3      1383            0.0000000000
     55665      2744  TIP3      OH2            -5.8895049983       19.8585370828       35.2011808054  TIP3      1384            0.0000000000
     55666      2744  TIP3      H1             -6.8211852480       20.1638049108       35.0567427037  TIP3      1384            0.0000000000
     55667      2744  TIP3      H2             -5.5621766254       19.7926851917       34.2895240893  TIP3      1384            0.0000000000
     55668      2745  TIP3      OH2            -7.3943546033       23.5662788863       29.1975154315  TIP3      1385            0.0000000000
     55669      2745  TIP3      H1             -8.2681301287       23.3301565613       28.8447151057  TIP3      1385            0.0000000000
     55670      2745  TIP3      H2             -7.3739429633       22.9801461168       29.9614800432  TIP3      1385            0.0000000000
     55671      2746  TIP3      OH2           -19.5115494661       22.2922420840       20.8528606093  TIP3      1386            0.0000000000
     55672      2746  TIP3      H1            -19.5848573814       23.1942247726       21.1874697280  TIP3      1386            0.0000000000
     55673      2746  TIP3      H2            -20.4183080623       22.0144598564       20.6847226827  TIP3      1386            0.0000000000
     55674      2747  TIP3      OH2           -11.8288468900       32.0086849678       20.1431953832  TIP3      1387            0.0000000000
     55675      2747  TIP3      H1            -12.5129450998       31.3629912723       20.3782454959  TIP3      1387            0.0000000000
     55676      2747  TIP3      H2            -11.0420268904       31.5276044506       19.8999825299  TIP3      1387            0.0000000000
     55677      2748  TIP3      OH2            -9.4007137676       30.8924103868       37.4416957847  TIP3      1388            0.0000000000
     55678      2748  TIP3      H1             -9.6989007947       30.0092179461       37.7469156922  TIP3      1388            0.0000000000
     55679      2748  TIP3      H2             -8.6311186104       31.0221175258       38.0114446573  TIP3      1388            0.0000000000
     55680      2749  TIP3      OH2           -20.8480448749       27.1862704477       38.1791976384  TIP3      1389            0.0000000000
     55681      2749  TIP3      H1            -20.3835945874       26.4951636201       37.6895437350  TIP3      1389            0.0000000000
     55682      2749  TIP3      H2            -21.2762049250       27.7650163285       37.5305889484  TIP3      1389            0.0000000000
     55683      2750  TIP3      OH2           -16.4161445476       27.3048006526       19.9725363965  TIP3      1390            0.0000000000
     55684      2750  TIP3      H1            -16.0908940383       27.0555414553       20.8762770333  TIP3      1390            0.0000000000
     55685      2750  TIP3      H2            -15.6537270129       27.7816363462       19.5793612483  TIP3      1390            0.0000000000
     55686      2751  TIP3      OH2           -13.9293431820       27.3476488852       37.4856945488  TIP3      1391            0.0000000000
     55687      2751  TIP3      H1            -14.2830720647       27.6255048563       36.6336072308  TIP3      1391            0.0000000000
     55688      2751  TIP3      H2            -13.8892112223       26.3691476995       37.4085748563  TIP3      1391            0.0000000000
     55689      2752  TIP3      OH2           -10.9940368202       28.6249705207       19.7645254551  TIP3      1392            0.0000000000
     55690      2752  TIP3      H1            -11.0835342590       29.0372821291       20.7011169394  TIP3      1392            0.0000000000
     55691      2752  TIP3      H2            -11.1469105376       27.7506911344       20.0986535114  TIP3      1392            0.0000000000
     55692      2753  TIP3      OH2            -8.2123199913       27.2649695776       34.9806515506  TIP3      1393            0.0000000000
     55693      2753  TIP3      H1             -7.4917806135       27.8585483501       34.7022060946  TIP3      1393            0.0000000000
     55694      2753  TIP3      H2             -8.9560762194       27.8678617389       34.8990645080  TIP3      1393            0.0000000000
     55695      2754  TIP3      OH2           -19.6162095734       24.8586754796       37.6070419945  TIP3      1394            0.0000000000
     55696      2754  TIP3      H1            -18.8459738802       24.2526124611       37.5125691857  TIP3      1394            0.0000000000
     55697      2754  TIP3      H2            -19.7569381290       24.9273072807       38.5859639355  TIP3      1394            0.0000000000
     55698      2755  TIP3      OH2           -15.1983734305       25.7269493684       22.4280396195  TIP3      1395            0.0000000000
     55699      2755  TIP3      H1            -15.5483061793       25.2508345800       23.2076215628  TIP3      1395            0.0000000000
     55700      2755  TIP3      H2            -14.7818620746       24.9836527688       21.9757268145  TIP3      1395            0.0000000000
     55701      2756  TIP3      OH2           -16.0053575747       23.4912633608       34.7859542244  TIP3      1396            0.0000000000
     55702      2756  TIP3      H1            -16.4008584944       24.3214568457       35.0928636376  TIP3      1396            0.0000000000
     55703      2756  TIP3      H2            -15.4209730655       23.8850141343       34.1042514042  TIP3      1396            0.0000000000
     55704      2757  TIP3      OH2           -13.9419625113       24.1333090050       20.6353363816  TIP3      1397            0.0000000000
     55705      2757  TIP3      H1            -14.1395258201       23.2673268737       20.2508148916  TIP3      1397            0.0000000000
     55706      2757  TIP3      H2            -13.0578242737       23.9315280664       21.0535556942  TIP3      1397            0.0000000000
     55707      2758  TIP3      OH2           -10.8115048715       26.1117083470       38.1897503952  TIP3      1398            0.0000000000
     55708      2758  TIP3      H1             -9.8456003508       26.1108780845       38.0823018711  TIP3      1398            0.0000000000
     55709      2758  TIP3      H2            -10.9375065976       25.3488861311       38.7604505359  TIP3      1398            0.0000000000
     55710      2759  TIP3      OH2            -4.7585693295       26.3062390396       20.1809306155  TIP3      1399            0.0000000000
     55711      2759  TIP3      H1             -4.8828602959       25.9200821153       19.3080531114  TIP3      1399            0.0000000000
     55712      2759  TIP3      H2             -4.5935718784       27.2413101682       19.9653261629  TIP3      1399            0.0000000000
     55713      2760  TIP3      OH2           -13.4538584890       24.7825786038       33.7260832263  TIP3      1400            0.0000000000
     55714      2760  TIP3      H1            -12.7521848188       24.5891114766       33.0889806803  TIP3      1400            0.0000000000
     55715      2760  TIP3      H2            -13.8370224584       25.6049432797       33.3889756145  TIP3      1400            0.0000000000
     55716      2761  TIP3      OH2            -9.0796429509       22.5921110220       38.6296868353  TIP3      1401            0.0000000000
     55717      2761  TIP3      H1             -8.8702646420       21.6566020742       38.6178201352  TIP3      1401            0.0000000000
     55718      2761  TIP3      H2             -8.2093140630       23.0008602162       38.7066245393  TIP3      1401            0.0000000000
     55719      2762  TIP3      OH2            -7.7578083431       25.3553404327       36.7948447245  TIP3      1402            0.0000000000
     55720      2762  TIP3      H1             -7.9900085510       26.0901250622       36.1770784564  TIP3      1402            0.0000000000
     55721      2762  TIP3      H2             -6.7926582954       25.3331504461       36.6381840438  TIP3      1402            0.0000000000
     55722      2763  TIP3      OH2           -17.0782505412       22.2219146088       37.6855434919  TIP3      1403            0.0000000000
     55723      2763  TIP3      H1            -17.6760853355       21.4635374480       37.7022004484  TIP3      1403            0.0000000000
     55724      2763  TIP3      H2            -16.2811196940       21.8556318002       37.2599639551  TIP3      1403            0.0000000000
     55725      2764  TIP3      OH2           -10.1998571054       20.2490233022       36.5964409352  TIP3      1404            0.0000000000
     55726      2764  TIP3      H1            -11.1742207863       20.2706537649       36.5044889071  TIP3      1404            0.0000000000
     55727      2764  TIP3      H2            -10.0104276592       19.5226633507       37.1752292850  TIP3      1404            0.0000000000
     55728      2765  TIP3      OH2           -18.9411763611       20.1110578723       37.5164249148  TIP3      1405            0.0000000000
     55729      2765  TIP3      H1            -18.6492020289       19.3352908654       36.9920082194  TIP3      1405            0.0000000000
     55730      2765  TIP3      H2            -18.9051968356       19.6669441845       38.3908625837  TIP3      1405            0.0000000000
     55731      2766  TIP3      OH2           -14.1162698062       34.6400431272       21.7862626860  TIP3      1406            0.0000000000
     55732      2766  TIP3      H1            -13.1796500511       34.7887675820       21.9356609270  TIP3      1406            0.0000000000
     55733      2766  TIP3      H2            -14.4095715643       35.2636111575       21.1538440258  TIP3      1406            0.0000000000
     55734      2767  TIP3      OH2            -3.8349685110       25.2342964268       26.0146499651  TIP3      1407            0.0000000000
     55735      2767  TIP3      H1             -4.5935890324       24.7562465345       26.3849853477  TIP3      1407            0.0000000000
     55736      2767  TIP3      H2             -3.2373745731       25.4622688220       26.7566006932  TIP3      1407            0.0000000000
     55737      2768  TIP3      OH2            -3.5166756336       25.0976622626       22.3903118751  TIP3      1408            0.0000000000
     55738      2768  TIP3      H1             -4.0685745138       25.4887467709       21.6810951921  TIP3      1408            0.0000000000
     55739      2768  TIP3      H2             -3.5696133080       25.7903905752       23.0776364844  TIP3      1408            0.0000000000
     55740      2769  TIP3      OH2            -5.1955677270       22.3157055827       20.9369131802  TIP3      1409            0.0000000000
     55741      2769  TIP3      H1             -5.0791627749       22.9899929523       20.2574679760  TIP3      1409            0.0000000000
     55742      2769  TIP3      H2             -5.3212104247       21.5213365540       20.4223570873  TIP3      1409            0.0000000000
     55743      2770  TIP3      OH2            -5.8564978599       23.6325108944       26.8074762876  TIP3      1410            0.0000000000
     55744      2770  TIP3      H1             -6.2137845534       22.7964394080       26.4010650172  TIP3      1410            0.0000000000
     55745      2770  TIP3      H2             -6.5437736493       24.0577692896       27.3312890921  TIP3      1410            0.0000000000
     55746      2771  TIP3      OH2           -21.0113464965       25.6958451617       30.5927244823  TIP3      1411            0.0000000000
     55747      2771  TIP3      H1            -20.7942949192       25.8236672272       29.6423902776  TIP3      1411            0.0000000000
     55748      2771  TIP3      H2            -20.1195522557       25.7778265248       30.9775089384  TIP3      1411            0.0000000000
     55749      2772  TIP3      OH2            -5.1747915663       25.7102214443       36.2817965217  TIP3      1412            0.0000000000
     55750      2772  TIP3      H1             -4.5355675663       24.9766199127       36.3968036550  TIP3      1412            0.0000000000
     55751      2772  TIP3      H2             -4.5929678169       26.4766509124       36.1421632512  TIP3      1412            0.0000000000
     55752      2773  TIP3      OH2            -3.6512210273       23.6342359651       36.8125602123  TIP3      1413            0.0000000000
     55753      2773  TIP3      H1             -4.5347511689       23.2028161781       36.7766026497  TIP3      1413            0.0000000000
     55754      2773  TIP3      H2             -3.0650164391       22.8785735557       36.8533931117  TIP3      1413            0.0000000000
     55755      2774  TIP3      OH2            -5.9909789157       19.4570767916       19.9649107219  TIP3      1414            0.0000000000
     55756      2774  TIP3      H1             -5.2941834372       19.4599945834       20.6893240007  TIP3      1414            0.0000000000
     55757      2774  TIP3      H2             -6.8196072807       19.5181586990       20.4542397826  TIP3      1414            0.0000000000
     55758      2775  TIP3      OH2            -6.2536559142       21.3772508711       25.1485762936  TIP3      1415            0.0000000000
     55759      2775  TIP3      H1             -6.0558147815       20.4094769905       25.1055747375  TIP3      1415            0.0000000000
     55760      2775  TIP3      H2             -5.5269991104       21.7010684845       24.5991809280  TIP3      1415            0.0000000000
     55761      2776  TIP3      OH2            -5.6586015184       21.4632896515       30.9460826746  TIP3      1416            0.0000000000
     55762      2776  TIP3      H1             -4.6717076318       21.6655088453       30.9448673286  TIP3      1416            0.0000000000
     55763      2776  TIP3      H2             -5.9083952888       21.9322436659       31.7821304602  TIP3      1416            0.0000000000
     55764      2777  TIP3      OH2            -5.7092344594       22.6274021230       33.1835209118  TIP3      1417            0.0000000000
     55765      2777  TIP3      H1             -6.5188080326       22.9343283086       33.6511984614  TIP3      1417            0.0000000000
     55766      2777  TIP3      H2             -5.1716485947       23.4598473814       33.1289491638  TIP3      1417            0.0000000000
     55767      2778  TIP3      OH2           -21.3212258926       21.1667789215       36.8995645754  TIP3      1418            0.0000000000
     55768      2778  TIP3      H1            -20.4365746705       20.7123824650       36.9332840312  TIP3      1418            0.0000000000
     55769      2778  TIP3      H2            -21.8556538638       20.3079409439       37.0057509141  TIP3      1418            0.0000000000
     55770      2779  TIP3      OH2            -3.4106027289       16.6256432398       38.5814071090  TIP3      1419            0.0000000000
     55771      2779  TIP3      H1             -3.0241342155       15.9616642376       37.9841824828  TIP3      1419            0.0000000000
     55772      2779  TIP3      H2             -3.2373925130       17.4621637978       38.1123333285  TIP3      1419            0.0000000000
     55773      2780  TIP3      OH2            -5.6420654881       18.5541401217       25.0592910242  TIP3      1420            0.0000000000
     55774      2780  TIP3      H1             -5.5288829524       18.1490323561       25.9317587047  TIP3      1420            0.0000000000
     55775      2780  TIP3      H2             -6.3288678188       18.0056449884       24.6856798981  TIP3      1420            0.0000000000
     55776      2781  TIP3      OH2           -20.1883567819       19.4165240387       29.6485893011  TIP3      1421            0.0000000000
     55777      2781  TIP3      H1            -19.7470229448       18.5868912600       29.8658566100  TIP3      1421            0.0000000000
     55778      2781  TIP3      H2            -19.6341156476       20.1128744338       29.9768886682  TIP3      1421            0.0000000000
     55779      2782  TIP3      OH2           -21.7970417217       22.3728328656       30.7738797274  TIP3      1422            0.0000000000
     55780      2782  TIP3      H1            -21.3891505810       22.2124368304       29.8923453796  TIP3      1422            0.0000000000
     55781      2782  TIP3      H2            -21.5075124889       23.2861210050       30.9278447699  TIP3      1422            0.0000000000
     55782      2783  TIP3      OH2            -3.8325632875       18.7464926266       36.9814245065  TIP3      1423            0.0000000000
     55783      2783  TIP3      H1             -4.7678284669       19.0038727821       36.8946843856  TIP3      1423            0.0000000000
     55784      2783  TIP3      H2             -3.7625690065       18.2347503932       36.1486841354  TIP3      1423            0.0000000000
     55785      2784  TIP3      OH2            -3.9142751994       18.6498587216       21.5279028394  TIP3      1424            0.0000000000
     55786      2784  TIP3      H1             -3.3485320280       17.9432106945       21.1816090721  TIP3      1424            0.0000000000
     55787      2784  TIP3      H2             -3.1978504725       19.2789560401       21.7508059411  TIP3      1424            0.0000000000
     55788      2785  TIP3      OH2           -21.5200310496       17.4500062041       33.1160342106  TIP3      1425            0.0000000000
     55789      2785  TIP3      H1            -22.2210791792       17.0890471278       33.6782605648  TIP3      1425            0.0000000000
     55790      2785  TIP3      H2            -22.0768788927       17.9363635772       32.4650835951  TIP3      1425            0.0000000000
     55791      2786  TIP3      OH2           -12.0831783069       32.9205360408       36.3268648301  TIP3      1426            0.0000000000
     55792      2786  TIP3      H1            -11.9803731163       32.6441066924       37.2831973947  TIP3      1426            0.0000000000
     55793      2786  TIP3      H2            -11.1917191991       33.3292343013       36.1840295133  TIP3      1426            0.0000000000
     55794      2787  TIP3      OH2            -9.8350767309       34.1276551950       35.7451185861  TIP3      1427            0.0000000000
     55795      2787  TIP3      H1             -9.0228436362       33.6741045981       35.4567147224  TIP3      1427            0.0000000000
     55796      2787  TIP3      H2             -9.4062815199       34.7007379781       36.4160321800  TIP3      1427            0.0000000000
     55797      2788  TIP3      OH2            -4.8536969903       16.8350401183       34.8664056407  TIP3      1428            0.0000000000
     55798      2788  TIP3      H1             -5.6161749005       17.1577854316       34.3705272003  TIP3      1428            0.0000000000
     55799      2788  TIP3      H2             -4.5977255888       16.0918894816       34.2819125898  TIP3      1428            0.0000000000
     55800      2789  TIP3      OH2           -11.9132603369       34.1730031513       31.8696310495  TIP3      1429            0.0000000000
     55801      2789  TIP3      H1            -12.2648380361       34.7383036578       31.1099026787  TIP3      1429            0.0000000000
     55802      2789  TIP3      H2            -11.6598067079       34.9687549741       32.4323713029  TIP3      1429            0.0000000000
     55803      2790  TIP3      OH2            -9.7006495248       33.1341084225       32.8281927848  TIP3      1430            0.0000000000
     55804      2790  TIP3      H1            -10.3488181256       33.5273125872       32.2486901406  TIP3      1430            0.0000000000
     55805      2790  TIP3      H2             -9.0353306049       33.8590910548       32.7097001195  TIP3      1430            0.0000000000
     55806      2791  TIP3      OH2            -6.3050951297       16.3441426684       29.2155516800  TIP3      1431            0.0000000000
     55807      2791  TIP3      H1             -5.7045105070       16.8743050096       28.6403998951  TIP3      1431            0.0000000000
     55808      2791  TIP3      H2             -7.1695483653       16.6836873559       28.9478366912  TIP3      1431            0.0000000000
     55809      2792  TIP3      OH2            -4.5955544475       17.5305239323       27.4820639523  TIP3      1432            0.0000000000
     55810      2792  TIP3      H1             -3.9219182402       16.9941510925       27.0343730442  TIP3      1432            0.0000000000
     55811      2792  TIP3      H2             -4.1553418428       18.4005567526       27.5423404568  TIP3      1432            0.0000000000
     55812      2793  TIP3      OH2           -18.3917017579       18.6579662411       21.1527088208  TIP3      1433            0.0000000000
     55813      2793  TIP3      H1            -17.9557373985       17.9454834459       20.6645259440  TIP3      1433            0.0000000000
     55814      2793  TIP3      H2            -17.7575060781       18.9228820801       21.8208974044  TIP3      1433            0.0000000000
     55815      2794  TIP3      OH2           -19.1437920336       17.5474613328       36.3998289575  TIP3      1434            0.0000000000
     55816      2794  TIP3      H1            -19.5207994026       16.7235784488       36.7532013446  TIP3      1434            0.0000000000
     55817      2794  TIP3      H2            -18.2343001377       17.3720979209       36.7355395801  TIP3      1434            0.0000000000
     55818      2795  TIP3      OH2           -17.1646256559       16.7980866719       37.9888950600  TIP3      1435            0.0000000000
     55819      2795  TIP3      H1            -16.2862961942       16.4798114149       37.7195371563  TIP3      1435            0.0000000000
     55820      2795  TIP3      H2            -17.4983293014       16.0031835755       38.4237242740  TIP3      1435            0.0000000000
     55821      2796  TIP3      OH2             7.8880019499       25.1907973550       30.1621413606  TIP3      1436            0.0000000000
     55822      2796  TIP3      H1              7.7170696156       24.7744788979       31.0177528790  TIP3      1436            0.0000000000
     55823      2796  TIP3      H2              7.2614769744       24.8243613006       29.5631667195  TIP3      1436            0.0000000000
     55824      2797  TIP3      OH2             0.1421491991       24.9167122779       31.8234673107  TIP3      1437            0.0000000000
     55825      2797  TIP3      H1              0.1971139598       24.2577389534       32.5520839289  TIP3      1437            0.0000000000
     55826      2797  TIP3      H2              0.8391840287       25.5241730706       32.0862718021  TIP3      1437            0.0000000000
     55827      2798  TIP3      OH2             1.0962424645       29.4115664888       30.3856116682  TIP3      1438            0.0000000000
     55828      2798  TIP3      H1              0.7074822951       28.5912105567       30.0274131833  TIP3      1438            0.0000000000
     55829      2798  TIP3      H2              2.0170475832       29.1675471651       30.4331686363  TIP3      1438            0.0000000000
     55830      2799  TIP3      OH2            -2.4540346796       22.9812453450       25.9444901556  TIP3      1439            0.0000000000
     55831      2799  TIP3      H1             -2.7490297533       23.8906328065       25.7144220434  TIP3      1439            0.0000000000
     55832      2799  TIP3      H2             -2.8532799426       22.4650720781       25.2171200297  TIP3      1439            0.0000000000
     55833      2800  TIP3      OH2            -1.6608376568       25.1567138145       27.9355976903  TIP3      1440            0.0000000000
     55834      2800  TIP3      H1             -1.3259210152       24.4450113862       28.4864162948  TIP3      1440            0.0000000000
     55835      2800  TIP3      H2             -0.9102183843       25.3143884295       27.3352194730  TIP3      1440            0.0000000000
     55836      2801  TIP3      OH2            14.6441607626       19.4759393453       31.4515042542  TIP3      1441            0.0000000000
     55837      2801  TIP3      H1             14.9471826404       19.9010819694       32.2852631960  TIP3      1441            0.0000000000
     55838      2801  TIP3      H2             15.3564915020       19.7311382054       30.8537192998  TIP3      1441            0.0000000000
     55839      2802  TIP3      OH2             9.4309484880       22.1490555089       31.0959463550  TIP3      1442            0.0000000000
     55840      2802  TIP3      H1              9.4081874894       21.1660615338       31.1362378524  TIP3      1442            0.0000000000
     55841      2802  TIP3      H2              9.1041240777       22.3768967057       30.2169756007  TIP3      1442            0.0000000000
     55842      2803  TIP3      OH2            10.3806311408       20.1319036948       26.6539614223  TIP3      1443            0.0000000000
     55843      2803  TIP3      H1             10.9968510790       19.7829122112       27.3514135543  TIP3      1443            0.0000000000
     55844      2803  TIP3      H2             10.9601047235       20.5050222863       25.9572775624  TIP3      1443            0.0000000000
     55845      2804  TIP3      OH2             4.2407243809       24.2007224319       28.2734638434  TIP3      1444            0.0000000000
     55846      2804  TIP3      H1              4.8233014577       23.6570943382       28.8183923215  TIP3      1444            0.0000000000
     55847      2804  TIP3      H2              3.6371187302       23.5405673007       27.9042530106  TIP3      1444            0.0000000000
     55848      2805  TIP3      OH2            15.2023136252       20.8228573704       33.7501611445  TIP3      1445            0.0000000000
     55849      2805  TIP3      H1             14.4296579816       21.3984949577       33.6090626759  TIP3      1445            0.0000000000
     55850      2805  TIP3      H2             15.2427769842       20.5640557773       34.6899283824  TIP3      1445            0.0000000000
     55851      2806  TIP3      OH2             3.8337309439       26.8207792146       32.6033441596  TIP3      1446            0.0000000000
     55852      2806  TIP3      H1              3.1469679393       27.4836840530       32.7923285147  TIP3      1446            0.0000000000
     55853      2806  TIP3      H2              4.5966130456       27.3886932032       32.3068337628  TIP3      1446            0.0000000000
     55854      2807  TIP3      OH2            11.9606446460       19.8123831582       28.7229788334  TIP3      1447            0.0000000000
     55855      2807  TIP3      H1             11.7360197526       18.9118998561       29.0872214290  TIP3      1447            0.0000000000
     55856      2807  TIP3      H2             12.6551983188       20.0048140577       29.3535474626  TIP3      1447            0.0000000000
     55857      2808  TIP3      OH2             2.2362010344       28.7889093908       33.3904360571  TIP3      1448            0.0000000000
     55858      2808  TIP3      H1              2.1974323097       29.6980282977       33.0496639456  TIP3      1448            0.0000000000
     55859      2808  TIP3      H2              1.3571287510       28.7210445429       33.8285498237  TIP3      1448            0.0000000000
     55860      2809  TIP3      OH2            12.2844902876       18.3862812019       32.3932545127  TIP3      1449            0.0000000000
     55861      2809  TIP3      H1             11.5257835279       18.9728512597       32.2717995527  TIP3      1449            0.0000000000
     55862      2809  TIP3      H2             12.9825911811       18.7525733181       31.8179212730  TIP3      1449            0.0000000000
     55863      2810  TIP3      OH2            13.1335106497       28.3653098653       34.5661201182  TIP3      1450            0.0000000000
     55864      2810  TIP3      H1             13.1551954805       27.7389831072       33.8151193843  TIP3      1450            0.0000000000
     55865      2810  TIP3      H2             13.2016985572       29.2302704783       34.1354624314  TIP3      1450            0.0000000000
     55866      2811  TIP3      OH2             7.5963920101       23.9156586508       21.2225788628  TIP3      1451            0.0000000000
     55867      2811  TIP3      H1              8.1098029545       23.8693412874       22.0893086410  TIP3      1451            0.0000000000
     55868      2811  TIP3      H2              7.4154415693       23.0087435722       20.9031014053  TIP3      1451            0.0000000000
     55869      2812  TIP3      OH2            14.8394590856       24.6115517097       32.5371794307  TIP3      1452            0.0000000000
     55870      2812  TIP3      H1             14.3011831461       25.4213414337       32.7124701264  TIP3      1452            0.0000000000
     55871      2812  TIP3      H2             15.4075791174       24.9541036969       31.8269364083  TIP3      1452            0.0000000000
     55872      2813  TIP3      OH2            10.9431105163       23.6566318206       34.3410957253  TIP3      1453            0.0000000000
     55873      2813  TIP3      H1             10.8640307966       24.4393118799       34.8963478303  TIP3      1453            0.0000000000
     55874      2813  TIP3      H2             10.2729209997       23.9391416753       33.6626332107  TIP3      1453            0.0000000000
     55875      2814  TIP3      OH2             2.5828512484       26.1525540892       27.1567229066  TIP3      1454            0.0000000000
     55876      2814  TIP3      H1              2.2591991718       25.7770942719       26.3144113900  TIP3      1454            0.0000000000
     55877      2814  TIP3      H2              3.2298941141       25.4883968503       27.4801764524  TIP3      1454            0.0000000000
     55878      2815  TIP3      OH2             2.9485213026       25.0035177565       30.7968506823  TIP3      1455            0.0000000000
     55879      2815  TIP3      H1              3.5285390562       25.0311446589       30.0219185559  TIP3      1455            0.0000000000
     55880      2815  TIP3      H2              3.3900913198       25.6004474908       31.4450844879  TIP3      1455            0.0000000000
     55881      2816  TIP3      OH2             3.8206314183       29.2559421442       35.5762636128  TIP3      1456            0.0000000000
     55882      2816  TIP3      H1              3.5246648915       30.0957937916       35.9553504251  TIP3      1456            0.0000000000
     55883      2816  TIP3      H2              3.2647564631       29.1415683536       34.7838634170  TIP3      1456            0.0000000000
     55884      2817  TIP3      OH2             9.8920931752       24.5353432106       22.8195520973  TIP3      1457            0.0000000000
     55885      2817  TIP3      H1             10.3018039597       24.9089612469       23.6383335108  TIP3      1457            0.0000000000
     55886      2817  TIP3      H2             10.2482061104       25.2815348857       22.2745442164  TIP3      1457            0.0000000000
     55887      2818  TIP3      OH2             0.7984110442       25.5145060446       34.6924798468  TIP3      1458            0.0000000000
     55888      2818  TIP3      H1              0.8279616830       26.1648586920       35.4150871749  TIP3      1458            0.0000000000
     55889      2818  TIP3      H2             -0.1368352816       25.5937485020       34.4328179545  TIP3      1458            0.0000000000
     55890      2819  TIP3      OH2             2.1554274507       31.4097362720       36.2636684353  TIP3      1459            0.0000000000
     55891      2819  TIP3      H1              2.0988879521       31.2402308031       35.3000275946  TIP3      1459            0.0000000000
     55892      2819  TIP3      H2              1.2310470016       31.3113058239       36.5204797744  TIP3      1459            0.0000000000
     55893      2820  TIP3      OH2            13.5820849883       16.4346677188       22.6761951370  TIP3      1460            0.0000000000
     55894      2820  TIP3      H1             12.6761643886       16.4942926114       23.0760357963  TIP3      1460            0.0000000000
     55895      2820  TIP3      H2             13.7500466440       17.3362227701       22.4286981362  TIP3      1460            0.0000000000
     55896      2821  TIP3      OH2             1.5959588012       25.1842771125       24.8213494854  TIP3      1461            0.0000000000
     55897      2821  TIP3      H1              1.2876835316       25.9437845591       24.2683537766  TIP3      1461            0.0000000000
     55898      2821  TIP3      H2              0.9055627711       24.5422025619       24.6091684640  TIP3      1461            0.0000000000
     55899      2822  TIP3      OH2            15.6866315035       30.9949459512       36.2225233442  TIP3      1462            0.0000000000
     55900      2822  TIP3      H1             15.5827164662       30.0578764752       36.0518419953  TIP3      1462            0.0000000000
     55901      2822  TIP3      H2             14.7883595626       31.3135915158       36.4916017688  TIP3      1462            0.0000000000
     55902      2823  TIP3      OH2            12.8956798040       22.5564749517       36.4875488881  TIP3      1463            0.0000000000
     55903      2823  TIP3      H1             12.2279123945       22.9298894915       35.8833754782  TIP3      1463            0.0000000000
     55904      2823  TIP3      H2             12.7473940819       21.5987923380       36.3501635060  TIP3      1463            0.0000000000
     55905      2824  TIP3      OH2            -0.1131508310       28.9362031096       34.6131917395  TIP3      1464            0.0000000000
     55906      2824  TIP3      H1              0.1209395385       28.5247897680       35.4687091647  TIP3      1464            0.0000000000
     55907      2824  TIP3      H2             -0.9599666962       28.5331828268       34.3613664744  TIP3      1464            0.0000000000
     55908      2825  TIP3      OH2            10.5955106577       20.9202825319       34.8424393355  TIP3      1465            0.0000000000
     55909      2825  TIP3      H1              9.9904569767       20.6717163826       35.5861069253  TIP3      1465            0.0000000000
     55910      2825  TIP3      H2             10.3453577070       21.8156436396       34.5789223441  TIP3      1465            0.0000000000
     55911      2826  TIP3      OH2            11.2834186167       25.4982151186       20.5596743676  TIP3      1466            0.0000000000
     55912      2826  TIP3      H1             11.4230325225       25.6689828202       19.6391200340  TIP3      1466            0.0000000000
     55913      2826  TIP3      H2             12.0679092155       26.0893033719       20.8235189565  TIP3      1466            0.0000000000
     55914      2827  TIP3      OH2             2.7896237379       22.4341193309       31.8127925200  TIP3      1467            0.0000000000
     55915      2827  TIP3      H1              1.9817085752       22.2170438239       32.3284872033  TIP3      1467            0.0000000000
     55916      2827  TIP3      H2              2.6227963983       23.2973776103       31.4131196537  TIP3      1467            0.0000000000
     55917      2828  TIP3      OH2             8.2998706335       23.0671819308       25.3886781605  TIP3      1468            0.0000000000
     55918      2828  TIP3      H1              7.7362947951       23.8233759377       25.1317674812  TIP3      1468            0.0000000000
     55919      2828  TIP3      H2              8.8121865807       22.9279120977       24.5687246614  TIP3      1468            0.0000000000
     55920      2829  TIP3      OH2             7.2521248060       23.1682834088       36.9084788741  TIP3      1469            0.0000000000
     55921      2829  TIP3      H1              6.7212723524       22.4374219181       37.2297691580  TIP3      1469            0.0000000000
     55922      2829  TIP3      H2              8.0986691684       23.0250844310       37.3626902482  TIP3      1469            0.0000000000
     55923      2830  TIP3      OH2             9.3241295161       22.6828554382       28.6237885561  TIP3      1470            0.0000000000
     55924      2830  TIP3      H1              8.7988927516       23.2769375875       28.0219408273  TIP3      1470            0.0000000000
     55925      2830  TIP3      H2              9.2152374655       21.6956796272       28.6007757255  TIP3      1470            0.0000000000
     55926      2831  TIP3      OH2             0.3047160742       22.7003601787       33.5396718548  TIP3      1471            0.0000000000
     55927      2831  TIP3      H1              0.4168035142       22.9883495752       34.4445750364  TIP3      1471            0.0000000000
     55928      2831  TIP3      H2             -0.0534156759       21.7898969286       33.5810556587  TIP3      1471            0.0000000000
     55929      2832  TIP3      OH2            -3.0422866353       19.7157701062       27.4426377998  TIP3      1472            0.0000000000
     55930      2832  TIP3      H1             -2.3491187803       19.7135982493       28.1260909487  TIP3      1472            0.0000000000
     55931      2832  TIP3      H2             -2.5530778240       19.3592358185       26.6754334780  TIP3      1472            0.0000000000
     55932      2833  TIP3      OH2             8.4907454947       24.0302351896       32.9440551481  TIP3      1473            0.0000000000
     55933      2833  TIP3      H1              8.7870606978       23.3863799670       32.2819245392  TIP3      1473            0.0000000000
     55934      2833  TIP3      H2              7.9400604576       23.5103439489       33.5383351859  TIP3      1473            0.0000000000
     55935      2834  TIP3      OH2             9.6443913639       19.3948796639       30.8225789129  TIP3      1474            0.0000000000
     55936      2834  TIP3      H1              9.0501534166       19.3396344333       31.6142701519  TIP3      1474            0.0000000000
     55937      2834  TIP3      H2              9.1030373154       18.9382823519       30.1652273529  TIP3      1474            0.0000000000
     55938      2835  TIP3      OH2             2.4630507977       22.5865575506       21.6586966068  TIP3      1475            0.0000000000
     55939      2835  TIP3      H1              1.6941013414       22.8046618575       21.1180739516  TIP3      1475            0.0000000000
     55940      2835  TIP3      H2              3.2556765441       23.0165144396       21.2949617407  TIP3      1475            0.0000000000
     55941      2836  TIP3      OH2             0.5222343897       27.4425289901       36.8204726703  TIP3      1476            0.0000000000
     55942      2836  TIP3      H1              1.2519498676       27.6154220705       37.4462558625  TIP3      1476            0.0000000000
     55943      2836  TIP3      H2             -0.2358015023       27.4674207420       37.4159878715  TIP3      1476            0.0000000000
     55944      2837  TIP3      OH2             6.5924352989       22.7546219136       29.5611451617  TIP3      1477            0.0000000000
     55945      2837  TIP3      H1              7.0567588439       22.0977250898       29.0837466268  TIP3      1477            0.0000000000
     55946      2837  TIP3      H2              6.3055841590       22.2805266076       30.3726944190  TIP3      1477            0.0000000000
     55947      2838  TIP3      OH2             5.2249055872       21.1918802496       31.9701283698  TIP3      1478            0.0000000000
     55948      2838  TIP3      H1              4.3170250981       21.5789469034       32.0698641680  TIP3      1478            0.0000000000
     55949      2838  TIP3      H2              5.6711308046       21.4519149736       32.7875582913  TIP3      1478            0.0000000000
     55950      2839  TIP3      OH2            12.9220619132       26.5056564263       32.4551253455  TIP3      1479            0.0000000000
     55951      2839  TIP3      H1             13.4888902766       27.0459583361       31.8716511696  TIP3      1479            0.0000000000
     55952      2839  TIP3      H2             12.0496841571       26.6276507895       32.0332459175  TIP3      1479            0.0000000000
     55953      2840  TIP3      OH2             9.6202421715       20.3584408803       21.6907616903  TIP3      1480            0.0000000000
     55954      2840  TIP3      H1              8.6609873653       20.1326583205       21.6840728135  TIP3      1480            0.0000000000
     55955      2840  TIP3      H2              9.9036007738       20.9519392288       22.3888805071  TIP3      1480            0.0000000000
     55956      2841  TIP3      OH2            10.3329737045       22.1313702015       23.6284083104  TIP3      1481            0.0000000000
     55957      2841  TIP3      H1             11.2677367149       21.8851016002       23.8167671767  TIP3      1481            0.0000000000
     55958      2841  TIP3      H2             10.4752965583       22.9358262582       23.0786974718  TIP3      1481            0.0000000000
     55959      2842  TIP3      OH2             0.8482152567       26.6477812369       29.3985592516  TIP3      1482            0.0000000000
     55960      2842  TIP3      H1              1.6138681209       26.6373435229       28.7970952800  TIP3      1482            0.0000000000
     55961      2842  TIP3      H2              0.9519433824       25.8503397682       29.9481329518  TIP3      1482            0.0000000000
     55962      2843  TIP3      OH2            -2.0850224441       25.0853863809       34.7355806040  TIP3      1483            0.0000000000
     55963      2843  TIP3      H1             -1.9740291753       24.7233955189       35.6256840469  TIP3      1483            0.0000000000
     55964      2843  TIP3      H2             -2.7404050424       24.5103675382       34.3313317188  TIP3      1483            0.0000000000
     55965      2844  TIP3      OH2             4.8536190396       24.6383893579       36.9665037990  TIP3      1484            0.0000000000
     55966      2844  TIP3      H1              4.5509522361       24.4414135294       36.0634506007  TIP3      1484            0.0000000000
     55967      2844  TIP3      H2              5.7920220474       24.3965517173       36.8974793027  TIP3      1484            0.0000000000
     55968      2845  TIP3      OH2            15.1176412051       28.0175346030       36.1737713940  TIP3      1485            0.0000000000
     55969      2845  TIP3      H1             14.3507048807       28.3178724964       35.6050847927  TIP3      1485            0.0000000000
     55970      2845  TIP3      H2             15.8140064282       28.0144648632       35.4273862029  TIP3      1485            0.0000000000
     55971      2846  TIP3      OH2            -0.9355661826       24.9877036601       21.4426145102  TIP3      1486            0.0000000000
     55972      2846  TIP3      H1             -0.4437156599       25.7239751295       21.8367696571  TIP3      1486            0.0000000000
     55973      2846  TIP3      H2             -1.8403335080       25.3087490937       21.6826077940  TIP3      1486            0.0000000000
     55974      2847  TIP3      OH2             3.2849794683       32.8650921975       25.9411733241  TIP3      1487            0.0000000000
     55975      2847  TIP3      H1              2.3570393808       32.9685797115       26.1351382159  TIP3      1487            0.0000000000
     55976      2847  TIP3      H2              3.6861574854       33.6875955190       26.2955549858  TIP3      1487            0.0000000000
     55977      2848  TIP3      OH2            15.4551068105       33.5256809006       21.6435551395  TIP3      1488            0.0000000000
     55978      2848  TIP3      H1             16.1556063885       34.1655759688       21.6135387281  TIP3      1488            0.0000000000
     55979      2848  TIP3      H2             14.7028177725       34.0003871291       22.0376717880  TIP3      1488            0.0000000000
     55980      2849  TIP3      OH2             4.9576762880       30.1248714149       19.9570750046  TIP3      1489            0.0000000000
     55981      2849  TIP3      H1              5.3072858039       29.4309812551       19.3922280048  TIP3      1489            0.0000000000
     55982      2849  TIP3      H2              4.7003630602       29.7495312070       20.8097359695  TIP3      1489            0.0000000000
     55983      2850  TIP3      OH2             4.0040391994       29.6486310095       22.4403745679  TIP3      1490            0.0000000000
     55984      2850  TIP3      H1              4.0766362625       29.2298660236       23.3027562912  TIP3      1490            0.0000000000
     55985      2850  TIP3      H2              3.9620931677       30.5902022607       22.7043797797  TIP3      1490            0.0000000000
     55986      2851  TIP3      OH2             0.4745403238       26.9599531333       22.9974807964  TIP3      1491            0.0000000000
     55987      2851  TIP3      H1             -0.3333290615       27.3329568898       23.4091722962  TIP3      1491            0.0000000000
     55988      2851  TIP3      H2              0.8486125244       27.7889927154       22.6449541177  TIP3      1491            0.0000000000
     55989      2852  TIP3      OH2             8.2813855852       19.6094425846       33.2173410552  TIP3      1492            0.0000000000
     55990      2852  TIP3      H1              8.9238156030       19.6652242145       33.9376885903  TIP3      1492            0.0000000000
     55991      2852  TIP3      H2              7.8275141239       18.7700014491       33.4379498649  TIP3      1492            0.0000000000
     55992      2853  TIP3      OH2             6.8035130301       22.0263098327       34.3009465728  TIP3      1493            0.0000000000
     55993      2853  TIP3      H1              6.8477680494       22.5804535762       35.1015436303  TIP3      1493            0.0000000000
     55994      2853  TIP3      H2              7.4248272174       21.3043072624       34.4457615015  TIP3      1493            0.0000000000
     55995      2854  TIP3      OH2             7.2060975396       18.0352927488       26.2045444799  TIP3      1494            0.0000000000
     55996      2854  TIP3      H1              6.6971411765       18.6700858976       26.6995247478  TIP3      1494            0.0000000000
     55997      2854  TIP3      H2              7.7076958695       18.5412569227       25.5620746786  TIP3      1494            0.0000000000
     55998      2855  TIP3      OH2            12.9915850884       19.9413931743       35.1859580030  TIP3      1495            0.0000000000
     55999      2855  TIP3      H1             12.0205191240       20.1347056158       35.0870815707  TIP3      1495            0.0000000000
     56000      2855  TIP3      H2             13.2244753863       19.8018446505       34.2545673811  TIP3      1495            0.0000000000
     56001      2856  TIP3      OH2            11.4973289077       23.6100444391       29.2278846433  TIP3      1496            0.0000000000
     56002      2856  TIP3      H1             10.5524629495       23.3589464226       29.1842662665  TIP3      1496            0.0000000000
     56003      2856  TIP3      H2             11.7860850298       23.0928031118       30.0216599218  TIP3      1496            0.0000000000
     56004      2857  TIP3      OH2             1.0881786384       29.4593441240       21.8854314109  TIP3      1497            0.0000000000
     56005      2857  TIP3      H1              1.5742020313       30.2639806565       22.0802217126  TIP3      1497            0.0000000000
     56006      2857  TIP3      H2              1.4596730871       29.1563643157       21.0480359910  TIP3      1497            0.0000000000
     56007      2858  TIP3      OH2            -0.5373839559       22.2358380648       20.8501195625  TIP3      1498            0.0000000000
     56008      2858  TIP3      H1             -0.7102772126       23.1736158778       21.1478949570  TIP3      1498            0.0000000000
     56009      2858  TIP3      H2             -1.4869057361       22.0087747582       20.6961173830  TIP3      1498            0.0000000000
     56010      2859  TIP3      OH2            -1.5849894845       33.6083608833       37.0854265229  TIP3      1499            0.0000000000
     56011      2859  TIP3      H1             -1.1037689902       33.3884025762       37.9015987179  TIP3      1499            0.0000000000
     56012      2859  TIP3      H2             -2.1184410608       32.8089625741       36.9631033313  TIP3      1499            0.0000000000
     56013      2860  TIP3      OH2             3.0051354364       32.5858646095       38.6533874833  TIP3      1500            0.0000000000
     56014      2860  TIP3      H1              3.6482104188       32.0048574708       39.0942473058  TIP3      1500            0.0000000000
     56015      2860  TIP3      H2              2.8826304985       32.1643464075       37.7821376421  TIP3      1500            0.0000000000
     56016      2861  TIP3      OH2             2.7993331600       27.7135000500       20.3240153998  TIP3      1501            0.0000000000
     56017      2861  TIP3      H1              2.4549544948       26.8863570413       20.6447766708  TIP3      1501            0.0000000000
     56018      2861  TIP3      H2              3.1303415005       27.6244773301       19.4114244782  TIP3      1501            0.0000000000
     56019      2862  TIP3      OH2             4.8894568398       27.3432529026       37.5096169336  TIP3      1502            0.0000000000
     56020      2862  TIP3      H1              4.6200447126       27.6861524485       36.6354526276  TIP3      1502            0.0000000000
     56021      2862  TIP3      H2              5.0106786424       26.3966666848       37.3344842064  TIP3      1502            0.0000000000
     56022      2863  TIP3      OH2             7.8569516269       28.7446109884       19.9381956451  TIP3      1503            0.0000000000
     56023      2863  TIP3      H1              7.7477851948       28.9344256373       20.8693487882  TIP3      1503            0.0000000000
     56024      2863  TIP3      H2              7.7787487246       27.8220842278       19.7876608354  TIP3      1503            0.0000000000
     56025      2864  TIP3      OH2            -0.8833379990       24.6121666277       37.4807017826  TIP3      1504            0.0000000000
     56026      2864  TIP3      H1             -0.4882480030       23.7474528751       37.3996608048  TIP3      1504            0.0000000000
     56027      2864  TIP3      H2             -1.1120042363       24.6233519199       38.4345423982  TIP3      1504            0.0000000000
     56028      2865  TIP3      OH2             3.1988560072       25.4989935405       22.8217579185  TIP3      1505            0.0000000000
     56029      2865  TIP3      H1              3.0307094351       25.0579593499       23.6849257552  TIP3      1505            0.0000000000
     56030      2865  TIP3      H2              3.4051561263       24.7104641118       22.3513465773  TIP3      1505            0.0000000000
     56031      2866  TIP3      OH2             3.0634268947       23.6148023309       34.9050883913  TIP3      1506            0.0000000000
     56032      2866  TIP3      H1              2.3865802666       24.2762933323       35.0808120079  TIP3      1506            0.0000000000
     56033      2866  TIP3      H2              3.3952970967       23.8980491887       34.0353792350  TIP3      1506            0.0000000000
     56034      2867  TIP3      OH2             4.8374975493       23.8818580952       20.6611397993  TIP3      1507            0.0000000000
     56035      2867  TIP3      H1              4.7033659906       23.6876425878       19.7049388548  TIP3      1507            0.0000000000
     56036      2867  TIP3      H2              5.8212332777       23.8415206019       20.7554105294  TIP3      1507            0.0000000000
     56037      2868  TIP3      OH2            13.8209394734       26.3062029451       20.1478050470  TIP3      1508            0.0000000000
     56038      2868  TIP3      H1             14.1648935400       25.8775940816       19.3554594309  TIP3      1508            0.0000000000
     56039      2868  TIP3      H2             14.3262086823       27.1323034346       20.0406427075  TIP3      1508            0.0000000000
     56040      2869  TIP3      OH2             5.3771254690       24.7602136915       33.6980004247  TIP3      1509            0.0000000000
     56041      2869  TIP3      H1              6.1190427457       24.6688177225       33.0893771993  TIP3      1509            0.0000000000
     56042      2869  TIP3      H2              5.0257558644       25.6189205509       33.3833685182  TIP3      1509            0.0000000000
     56043      2870  TIP3      OH2             9.7658653588       22.5433431536       38.7199310125  TIP3      1510            0.0000000000
     56044      2870  TIP3      H1             10.0183906383       21.6268521476       38.5386763109  TIP3      1510            0.0000000000
     56045      2870  TIP3      H2             10.6213475304       22.9928061076       38.6546998821  TIP3      1510            0.0000000000
     56046      2871  TIP3      OH2            11.1035961402       25.3915394085       36.8148973846  TIP3      1511            0.0000000000
     56047      2871  TIP3      H1             10.8022188085       26.0799072261       36.2106189795  TIP3      1511            0.0000000000
     56048      2871  TIP3      H2             12.0423147899       25.2863372568       36.5955739158  TIP3      1511            0.0000000000
     56049      2872  TIP3      OH2             8.5718645586       20.2726570523       36.6015557838  TIP3      1512            0.0000000000
     56050      2872  TIP3      H1              7.6117687848       20.1805127849       36.6476614512  TIP3      1512            0.0000000000
     56051      2872  TIP3      H2              8.8686628521       19.5191369240       37.1552089317  TIP3      1512            0.0000000000
     56052      2873  TIP3      OH2            10.1778180994       18.8693752194       38.4765775085  TIP3      1513            0.0000000000
     56053      2873  TIP3      H1             10.1062814029       17.8753933788       38.4424845493  TIP3      1513            0.0000000000
     56054      2873  TIP3      H2              9.8687415630       19.0709929893       39.3672426416  TIP3      1513            0.0000000000
     56055      2874  TIP3      OH2            14.9950503090       33.0823788916       34.0107493288  TIP3      1514            0.0000000000
     56056      2874  TIP3      H1             14.4054622990       32.4016280210       33.7015161231  TIP3      1514            0.0000000000
     56057      2874  TIP3      H2             15.4265664318       32.7015988069       34.7696479531  TIP3      1514            0.0000000000
     56058      2875  TIP3      OH2            13.2215311707       28.9963115510       38.7262160321  TIP3      1515            0.0000000000
     56059      2875  TIP3      H1             12.3279614474       28.9761951477       39.1116640803  TIP3      1515            0.0000000000
     56060      2875  TIP3      H2             13.5962903895       29.8253860299       39.1608634060  TIP3      1515            0.0000000000
     56061      2876  TIP3      OH2            15.1309825191       25.1561950378       26.0029750909  TIP3      1516            0.0000000000
     56062      2876  TIP3      H1             14.2985412172       24.8609492406       26.3427468227  TIP3      1516            0.0000000000
     56063      2876  TIP3      H2             15.6402937911       25.4707767855       26.7433464881  TIP3      1516            0.0000000000
     56064      2877  TIP3      OH2            14.8317018534       27.9934628415       31.0083982754  TIP3      1517            0.0000000000
     56065      2877  TIP3      H1             15.6556642504       27.6315440238       30.6508152942  TIP3      1517            0.0000000000
     56066      2877  TIP3      H2             14.9248530891       28.9383500679       30.8351532635  TIP3      1517            0.0000000000
     56067      2878  TIP3      OH2            13.3433656966       22.3815920367       20.8050636969  TIP3      1518            0.0000000000
     56068      2878  TIP3      H1             13.9363550160       23.0234144593       20.3521314069  TIP3      1518            0.0000000000
     56069      2878  TIP3      H2             13.6258851737       21.5147351699       20.4859299438  TIP3      1518            0.0000000000
     56070      2879  TIP3      OH2            12.7309702013       23.8787176940       26.3659501168  TIP3      1519            0.0000000000
     56071      2879  TIP3      H1             12.6156138049       22.9177801540       26.1561513547  TIP3      1519            0.0000000000
     56072      2879  TIP3      H2             12.3221252200       24.3434389154       27.1285935746  TIP3      1519            0.0000000000
     56073      2880  TIP3      OH2            -2.1615745966       25.6263478520       30.6052595203  TIP3      1520            0.0000000000
     56074      2880  TIP3      H1             -1.9417468304       25.8278319485       29.6776999571  TIP3      1520            0.0000000000
     56075      2880  TIP3      H2             -1.2714359074       25.7272908237       31.0081887388  TIP3      1520            0.0000000000
     56076      2881  TIP3      OH2            13.7248869891       25.7859439647       36.4916672637  TIP3      1521            0.0000000000
     56077      2881  TIP3      H1             14.2856185217       24.9769495718       36.3677158184  TIP3      1521            0.0000000000
     56078      2881  TIP3      H2             14.2935027582       26.4574266620       36.0466007226  TIP3      1521            0.0000000000
     56079      2882  TIP3      OH2            15.2272552691       23.6453652155       36.9224715658  TIP3      1522            0.0000000000
     56080      2882  TIP3      H1             14.3403938137       23.2072629799       36.9325084988  TIP3      1522            0.0000000000
     56081      2882  TIP3      H2             15.8462089636       22.8770229598       36.9713428939  TIP3      1522            0.0000000000
     56082      2883  TIP3      OH2            12.9992717216       19.7382532638       19.9722634636  TIP3      1523            0.0000000000
     56083      2883  TIP3      H1             13.5100371344       19.4428824823       20.7661537193  TIP3      1523            0.0000000000
     56084      2883  TIP3      H2             12.1410704386       19.3417208689       20.2467183515  TIP3      1523            0.0000000000
     56085      2884  TIP3      OH2            12.5424274633       21.3643892219       25.1666707163  TIP3      1524            0.0000000000
     56086      2884  TIP3      H1             12.8273758908       20.4023529292       25.0882053246  TIP3      1524            0.0000000000
     56087      2884  TIP3      H2             13.2928299119       21.7032339342       24.6127192899  TIP3      1524            0.0000000000
     56088      2885  TIP3      OH2            13.1774333649       22.0047968619       30.3633757762  TIP3      1525            0.0000000000
     56089      2885  TIP3      H1             14.1606522462       22.0250238322       30.5204945778  TIP3      1525            0.0000000000
     56090      2885  TIP3      H2             12.9546548569       21.9640034323       31.3364465082  TIP3      1525            0.0000000000
     56091      2886  TIP3      OH2            13.2472935520       22.6232419858       33.3120049942  TIP3      1526            0.0000000000
     56092      2886  TIP3      H1             12.3186366168       22.8693794943       33.5616244179  TIP3      1526            0.0000000000
     56093      2886  TIP3      H2             13.6004399459       23.4893966428       32.9873316469  TIP3      1526            0.0000000000
     56094      2887  TIP3      OH2            15.4938238735       16.6203997023       38.5960322813  TIP3      1527            0.0000000000
     56095      2887  TIP3      H1             15.8521088635       15.9645233453       37.9791974764  TIP3      1527            0.0000000000
     56096      2887  TIP3      H2             15.6220498788       17.4469763564       38.0935182447  TIP3      1527            0.0000000000
     56097      2888  TIP3      OH2            13.0540280384       18.6837105398       25.2023345801  TIP3      1528            0.0000000000
     56098      2888  TIP3      H1             13.4120399938       18.0925011837       25.9126823944  TIP3      1528            0.0000000000
     56099      2888  TIP3      H2             12.6119123761       17.9987557956       24.6463433906  TIP3      1528            0.0000000000
     56100      2889  TIP3      OH2            -3.1929789598       22.5697721126       30.4201428927  TIP3      1529            0.0000000000
     56101      2889  TIP3      H1             -2.4243200926       22.0937457004       30.0212151767  TIP3      1529            0.0000000000
     56102      2889  TIP3      H2             -2.6156502748       23.1465088542       30.9978549689  TIP3      1529            0.0000000000
     56103      2890  TIP3      OH2            15.0139557560       18.7577868761       36.9709944274  TIP3      1530            0.0000000000
     56104      2890  TIP3      H1             14.0700126693       18.9892514527       36.9198949808  TIP3      1530            0.0000000000
     56105      2890  TIP3      H2             15.0723064014       18.1971662811       36.1750367361  TIP3      1530            0.0000000000
     56106      2891  TIP3      OH2            15.0229524711       18.7147182412       21.3373799891  TIP3      1531            0.0000000000
     56107      2891  TIP3      H1             15.4777772237       17.8774928318       21.2867808951  TIP3      1531            0.0000000000
     56108      2891  TIP3      H2             15.6588016251       19.3430070825       21.7339101796  TIP3      1531            0.0000000000
     56109      2892  TIP3      OH2             2.4570761333       31.5987603470       33.5457792970  TIP3      1532            0.0000000000
     56110      2892  TIP3      H1              2.0218513886       32.3816170010       33.1764588508  TIP3      1532            0.0000000000
     56111      2892  TIP3      H2              3.3383877842       31.6003729366       33.1387777379  TIP3      1532            0.0000000000
     56112      2893  TIP3      OH2            14.0505224583       16.8545928070       34.7507495009  TIP3      1533            0.0000000000
     56113      2893  TIP3      H1             13.1813887809       17.1267027789       34.4068921816  TIP3      1533            0.0000000000
     56114      2893  TIP3      H2             14.1945140068       16.0081945159       34.2613843082  TIP3      1533            0.0000000000
     56115      2894  TIP3      OH2            -0.0948296238       34.8508874796       33.5754384498  TIP3      1534            0.0000000000
     56116      2894  TIP3      H1             -0.8639659003       35.1843289158       33.0878652557  TIP3      1534            0.0000000000
     56117      2894  TIP3      H2             -0.5591106711       34.4886364221       34.3486254748  TIP3      1534            0.0000000000
     56118      2895  TIP3      OH2             2.3654479538       34.4167444926       32.6341528907  TIP3      1535            0.0000000000
     56119      2895  TIP3      H1              1.4132321408       34.4556455435       32.9207573465  TIP3      1535            0.0000000000
     56120      2895  TIP3      H2              2.2320579574       34.8753199441       31.7830782459  TIP3      1535            0.0000000000
     56121      2896  TIP3      OH2             1.3634285789       32.1912700961       29.2843353333  TIP3      1536            0.0000000000
     56122      2896  TIP3      H1              1.1775920775       31.2334613672       29.2651010458  TIP3      1536            0.0000000000
     56123      2896  TIP3      H2              2.2933044237       32.2684840222       29.5464734816  TIP3      1536            0.0000000000
     56124      2897  TIP3      OH2             3.9206740681       32.5781912847       29.9702523296  TIP3      1537            0.0000000000
     56125      2897  TIP3      H1              4.2299293489       31.7232360982       29.6220918195  TIP3      1537            0.0000000000
     56126      2897  TIP3      H2              4.0310498177       32.4925385162       30.9119845037  TIP3      1537            0.0000000000
     56127      2898  TIP3      OH2             7.4662972251       18.3539431718       29.0480025930  TIP3      1538            0.0000000000
     56128      2898  TIP3      H1              6.8129000829       17.6980104126       29.3278256504  TIP3      1538            0.0000000000
     56129      2898  TIP3      H2              8.0209231990       17.7638154819       28.5086808089  TIP3      1538            0.0000000000
     56130      2899  TIP3      OH2            14.2326446517       17.5840548264       27.4273210931  TIP3      1539            0.0000000000
     56131      2899  TIP3      H1             14.9132043622       17.0007689036       27.0317597163  TIP3      1539            0.0000000000
     56132      2899  TIP3      H2             14.7484813389       18.3704982465       27.5820855007  TIP3      1539            0.0000000000
     56133      2900  TIP3      OH2             9.7779318991       16.9224963420       28.3201640106  TIP3      1540            0.0000000000
     56134      2900  TIP3      H1             10.0409419095       16.8907990926       27.3959591829  TIP3      1540            0.0000000000
     56135      2900  TIP3      H2              9.6983318013       15.9675366762       28.4772156056  TIP3      1540            0.0000000000
     56136      2901  TIP3      OH2            11.2468375845       16.9362767386       24.0988231193  TIP3      1541            0.0000000000
     56137      2901  TIP3      H1             10.5051993145       17.4693103351       23.7939069197  TIP3      1541            0.0000000000
     56138      2901  TIP3      H2             10.8351077590       16.0681969062       24.1745607234  TIP3      1541            0.0000000000
     56139      2902  TIP3      OH2             0.8217340674       18.8876349162       20.9554016488  TIP3      1542            0.0000000000
     56140      2902  TIP3      H1              0.8413603383       17.9214801396       20.6953687448  TIP3      1542            0.0000000000
     56141      2902  TIP3      H2              0.9272801204       18.7317555802       21.9211130976  TIP3      1542            0.0000000000
     56142      2903  TIP3      OH2             0.3582918228       33.6215076920       20.6299702782  TIP3      1543            0.0000000000
     56143      2903  TIP3      H1             -0.0258102714       33.8647591600       21.4868952677  TIP3      1543            0.0000000000
     56144      2903  TIP3      H2              1.0736370995       33.0201452582       20.8178987135  TIP3      1543            0.0000000000
     56145      2904  TIP3      OH2            10.1830496872       16.2534549988       38.2471513547  TIP3      1544            0.0000000000
     56146      2904  TIP3      H1             10.1452655553       15.6036245519       38.9533038799  TIP3      1544            0.0000000000
     56147      2904  TIP3      H2             10.9961435522       16.0355415306       37.7601219809  TIP3      1544            0.0000000000
     56148      2905  TIP3      OH2            13.3043151008       32.1298664261       36.8601085373  TIP3      1545            0.0000000000
     56149      2905  TIP3      H1             12.4973375338       32.0868192963       36.3138322195  TIP3      1545            0.0000000000
     56150      2905  TIP3      H2             13.1846447826       33.0951834992       37.0134153543  TIP3      1545            0.0000000000
     56151      2906  TIP3      OH2            28.1099542368       22.1258342520       31.0546641959  TIP3      1546            0.0000000000
     56152      2906  TIP3      H1             28.3575039752       21.1924044164       31.0449542105  TIP3      1546            0.0000000000
     56153      2906  TIP3      H2             28.1076345425       22.3521521062       30.1115111867  TIP3      1546            0.0000000000
     56154      2907  TIP3      OH2            24.1037673561       16.4789303370       29.8077581716  TIP3      1547            0.0000000000
     56155      2907  TIP3      H1             23.9572761018       15.5153008982       29.7280748879  TIP3      1547            0.0000000000
     56156      2907  TIP3      H2             23.2494016169       16.8276130401       30.1260292781  TIP3      1547            0.0000000000
     56157      2908  TIP3      OH2            20.7689383784       31.4078324293       36.3471612522  TIP3      1548            0.0000000000
     56158      2908  TIP3      H1             20.6524709019       30.6992975453       35.6936333889  TIP3      1548            0.0000000000
     56159      2908  TIP3      H2             19.9054503365       31.1618002249       36.7747965580  TIP3      1548            0.0000000000
     56160      2909  TIP3      OH2            16.3254570850       27.5871340729       33.6436099146  TIP3      1549            0.0000000000
     56161      2909  TIP3      H1             16.0909663628       27.5026828064       32.7196727102  TIP3      1549            0.0000000000
     56162      2909  TIP3      H2             16.7151830033       26.7155257744       33.8768631877  TIP3      1549            0.0000000000
     56163      2910  TIP3      OH2            19.6128682737       33.0663226487       26.5606613892  TIP3      1550            0.0000000000
     56164      2910  TIP3      H1             19.6877535115       32.8330554770       27.5082489564  TIP3      1550            0.0000000000
     56165      2910  TIP3      H2             18.6969744422       32.8127894418       26.3667360439  TIP3      1550            0.0000000000
     56166      2911  TIP3      OH2            26.1234002674       17.0800358490       33.9148001588  TIP3      1551            0.0000000000
     56167      2911  TIP3      H1             26.5195751030       16.6510178101       34.6920248652  TIP3      1551            0.0000000000
     56168      2911  TIP3      H2             25.1637785829       16.9011718304       34.0554175154  TIP3      1551            0.0000000000
     56169      2912  TIP3      OH2            30.1614391863       25.7399528278       20.5956089854  TIP3      1552            0.0000000000
     56170      2912  TIP3      H1             30.2201976886       25.4832572203       19.6867831975  TIP3      1552            0.0000000000
     56171      2912  TIP3      H2             31.0437823945       26.0864182849       20.7975428097  TIP3      1552            0.0000000000
     56172      2913  TIP3      OH2            25.8298747264       19.5437328208       21.2734672221  TIP3      1553            0.0000000000
     56173      2913  TIP3      H1             25.4160212924       19.6673292518       22.1486763103  TIP3      1553            0.0000000000
     56174      2913  TIP3      H2             25.4623412225       18.7198126181       20.9643359375  TIP3      1553            0.0000000000
     56175      2914  TIP3      OH2            26.0386777227       23.2482278823       37.0049678996  TIP3      1554            0.0000000000
     56176      2914  TIP3      H1             25.6023626203       22.4150826743       37.2598057834  TIP3      1554            0.0000000000
     56177      2914  TIP3      H2             26.9500847404       23.0177636230       37.3398712906  TIP3      1554            0.0000000000
     56178      2915  TIP3      OH2            27.3005085426       24.0563035082       32.9240781637  TIP3      1555            0.0000000000
     56179      2915  TIP3      H1             27.6526791746       23.4454404780       32.2389257979  TIP3      1555            0.0000000000
     56180      2915  TIP3      H2             26.8715089600       23.4438120394       33.5152645823  TIP3      1555            0.0000000000
     56181      2916  TIP3      OH2            28.5365891420       19.1922736930       30.9047023800  TIP3      1556            0.0000000000
     56182      2916  TIP3      H1             27.8398991286       19.3178291737       31.5898001301  TIP3      1556            0.0000000000
     56183      2916  TIP3      H2             27.9738490515       19.0816854482       30.1261172139  TIP3      1556            0.0000000000
     56184      2917  TIP3      OH2            16.4827417212       25.1413439409       34.8599869875  TIP3      1557            0.0000000000
     56185      2917  TIP3      H1             17.0428709181       24.7440888201       35.5594883622  TIP3      1557            0.0000000000
     56186      2917  TIP3      H2             16.2122611491       24.4664116801       34.2452569377  TIP3      1557            0.0000000000
     56187      2918  TIP3      OH2            23.6285980399       24.4626410499       36.9362432513  TIP3      1558            0.0000000000
     56188      2918  TIP3      H1             23.2178339217       24.3014069136       36.0516555719  TIP3      1558            0.0000000000
     56189      2918  TIP3      H2             24.4767793719       23.9419150534       36.9571288230  TIP3      1558            0.0000000000
     56190      2919  TIP3      OH2            34.0873129260       27.9563788041       36.0611146373  TIP3      1559            0.0000000000
     56191      2919  TIP3      H1             33.2479871498       28.3424420459       35.7633759666  TIP3      1559            0.0000000000
     56192      2919  TIP3      H2             34.6170871876       28.0974734696       35.2614169915  TIP3      1559            0.0000000000
     56193      2920  TIP3      OH2            29.5495358743       25.9019006264       30.6218833692  TIP3      1560            0.0000000000
     56194      2920  TIP3      H1             28.6346910738       25.6139318876       30.7094518217  TIP3      1560            0.0000000000
     56195      2920  TIP3      H2             30.0351249930       25.0763534876       30.4675455981  TIP3      1560            0.0000000000
     56196      2921  TIP3      OH2            18.0530311893       31.6761479653       32.7303259070  TIP3      1561            0.0000000000
     56197      2921  TIP3      H1             18.1712921436       30.7188800438       32.7380596564  TIP3      1561            0.0000000000
     56198      2921  TIP3      H2             18.1283319732       31.9504232560       33.6419136089  TIP3      1561            0.0000000000
     56199      2922  TIP3      OH2            23.7866775748       30.2268799306       19.9967375006  TIP3      1562            0.0000000000
     56200      2922  TIP3      H1             24.0915079677       29.4913318942       19.4093974063  TIP3      1562            0.0000000000
     56201      2922  TIP3      H2             23.6180839677       29.6679020965       20.7938592071  TIP3      1562            0.0000000000
     56202      2923  TIP3      OH2            22.7368358205       29.8015335757       22.4226095002  TIP3      1563            0.0000000000
     56203      2923  TIP3      H1             22.9847881367       29.1224015664       23.1058795235  TIP3      1563            0.0000000000
     56204      2923  TIP3      H2             22.8366448011       30.5972845240       22.9371015162  TIP3      1563            0.0000000000
     56205      2924  TIP3      OH2            27.1233349836       19.6044797504       33.2041866831  TIP3      1564            0.0000000000
     56206      2924  TIP3      H1             27.7747582159       19.7085103719       33.9011085889  TIP3      1564            0.0000000000
     56207      2924  TIP3      H2             26.6779934400       18.7590482011       33.4137780677  TIP3      1564            0.0000000000
     56208      2925  TIP3      OH2            25.6370099161       22.0600204100       34.3343389568  TIP3      1565            0.0000000000
     56209      2925  TIP3      H1             25.7689009457       22.5250341995       35.1546305113  TIP3      1565            0.0000000000
     56210      2925  TIP3      H2             26.2417746658       21.2975306563       34.3903845633  TIP3      1565            0.0000000000
     56211      2926  TIP3      OH2            25.9002004675       17.9628989701       26.1395116977  TIP3      1566            0.0000000000
     56212      2926  TIP3      H1             25.5978930518       18.6286522859       26.7751484560  TIP3      1566            0.0000000000
     56213      2926  TIP3      H2             26.5613671013       18.5013380308       25.6769868421  TIP3      1566            0.0000000000
     56214      2927  TIP3      OH2            22.7782509697       32.5011965202       23.1167237237  TIP3      1567            0.0000000000
     56215      2927  TIP3      H1             23.1220436380       33.3977871377       22.8776130813  TIP3      1567            0.0000000000
     56216      2927  TIP3      H2             22.6704283307       32.6879496988       24.0738450529  TIP3      1567            0.0000000000
     56217      2928  TIP3      OH2            19.8640455524       29.7837138888       21.5857463570  TIP3      1568            0.0000000000
     56218      2928  TIP3      H1             20.4989507809       30.1055308370       22.2243409616  TIP3      1568            0.0000000000
     56219      2928  TIP3      H2             20.2834212645       28.9803651352       21.2217212786  TIP3      1568            0.0000000000
     56220      2929  TIP3      OH2            17.9494329289       30.9660952196       25.8229269403  TIP3      1569            0.0000000000
     56221      2929  TIP3      H1             17.0881860547       31.3989776127       25.7686659703  TIP3      1569            0.0000000000
     56222      2929  TIP3      H2             18.4167167148       31.4446035083       25.1201881378  TIP3      1569            0.0000000000
     56223      2930  TIP3      OH2            17.2769668516       33.5450089157       37.0426025896  TIP3      1570            0.0000000000
     56224      2930  TIP3      H1             17.7313030973       33.3861694524       37.8886105898  TIP3      1570            0.0000000000
     56225      2930  TIP3      H2             16.6751895936       32.7950379593       36.9531400261  TIP3      1570            0.0000000000
     56226      2931  TIP3      OH2            21.7653140450       32.4609369203       38.7315936319  TIP3      1571            0.0000000000
     56227      2931  TIP3      H1             22.5617089837       32.0761220498       39.1080086889  TIP3      1571            0.0000000000
     56228      2931  TIP3      H2             21.7727669744       32.2233533131       37.8072161169  TIP3      1571            0.0000000000
     56229      2932  TIP3      OH2            25.8376364457       32.0200465003       20.1797320641  TIP3      1572            0.0000000000
     56230      2932  TIP3      H1             25.3021652822       31.2379345530       20.3412579553  TIP3      1572            0.0000000000
     56231      2932  TIP3      H2             26.6345124193       31.5536737692       19.8474668139  TIP3      1572            0.0000000000
     56232      2933  TIP3      OH2            23.6278155421       27.5631470395       37.4606928981  TIP3      1573            0.0000000000
     56233      2933  TIP3      H1             23.1538650586       27.8079551119       36.6399294219  TIP3      1573            0.0000000000
     56234      2933  TIP3      H2             23.2125982407       26.6941271138       37.6688865168  TIP3      1573            0.0000000000
     56235      2934  TIP3      OH2            26.8188492236       25.9945163321       38.0450852064  TIP3      1574            0.0000000000
     56236      2934  TIP3      H1             27.7906592576       26.1828379961       38.1114136590  TIP3      1574            0.0000000000
     56237      2934  TIP3      H2             26.7971806897       25.3613815477       38.7965476430  TIP3      1574            0.0000000000
     56238      2935  TIP3      OH2            33.0203900743       26.2738167159       20.1619169272  TIP3      1575            0.0000000000
     56239      2935  TIP3      H1             32.8074959729       25.8557491089       19.3255901832  TIP3      1575            0.0000000000
     56240      2935  TIP3      H2             33.1031644254       27.2236258984       20.0079794313  TIP3      1575            0.0000000000
     56241      2936  TIP3      OH2            28.6154336916       22.6205179578       38.5465737969  TIP3      1576            0.0000000000
     56242      2936  TIP3      H1             28.7962079945       21.6649366297       38.6107529632  TIP3      1576            0.0000000000
     56243      2936  TIP3      H2             29.4807701878       22.9906976138       38.7644655649  TIP3      1576            0.0000000000
     56244      2937  TIP3      OH2            23.4673738525       16.7806251121       33.8754345091  TIP3      1577            0.0000000000
     56245      2937  TIP3      H1             23.2673422960       17.7274351205       33.7121515683  TIP3      1577            0.0000000000
     56246      2937  TIP3      H2             22.7104179406       16.4267704574       33.3722886785  TIP3      1577            0.0000000000
     56247      2938  TIP3      OH2            27.3945970093       20.2171512583       36.5041788824  TIP3      1578            0.0000000000
     56248      2938  TIP3      H1             26.4577008258       20.2365943768       36.6909666627  TIP3      1578            0.0000000000
     56249      2938  TIP3      H2             27.7655757386       19.6118145434       37.1837998573  TIP3      1578            0.0000000000
     56250      2939  TIP3      OH2            28.9927730067       18.8784480284       38.4957970713  TIP3      1579            0.0000000000
     56251      2939  TIP3      H1             28.9907938968       17.8956182662       38.4830812024  TIP3      1579            0.0000000000
     56252      2939  TIP3      H2             28.7593323635       19.1030446025       39.4030342378  TIP3      1579            0.0000000000
     56253      2940  TIP3      OH2            23.7223597533       16.1248271170       36.5790528881  TIP3      1580            0.0000000000
     56254      2940  TIP3      H1             24.3642903176       15.3880364198       36.5189524907  TIP3      1580            0.0000000000
     56255      2940  TIP3      H2             23.5528493157       16.3039338781       35.6323873367  TIP3      1580            0.0000000000
     56256      2941  TIP3      OH2            23.5122317230       34.4951031822       21.5954103911  TIP3      1581            0.0000000000
     56257      2941  TIP3      H1             24.4356710867       34.7415313984       21.9112091218  TIP3      1581            0.0000000000
     56258      2941  TIP3      H2             23.2815260356       35.3639181723       21.2015807099  TIP3      1581            0.0000000000
     56259      2942  TIP3      OH2            17.1399006038       29.3593722019       21.0718692399  TIP3      1582            0.0000000000
     56260      2942  TIP3      H1             17.9870814056       29.2809376709       21.5485674413  TIP3      1582            0.0000000000
     56261      2942  TIP3      H2             17.1317185361       28.4555779922       20.6926870832  TIP3      1582            0.0000000000
     56262      2943  TIP3      OH2            32.3007359243       28.7972128165       38.6843306323  TIP3      1583            0.0000000000
     56263      2943  TIP3      H1             31.4101956823       28.7625973340       39.0386408251  TIP3      1583            0.0000000000
     56264      2943  TIP3      H2             32.6430683706       29.6525379615       39.0144775756  TIP3      1583            0.0000000000
     56265      2944  TIP3      OH2            16.7252694441       25.7027410863       30.5620202248  TIP3      1584            0.0000000000
     56266      2944  TIP3      H1             16.9661386285       25.7751011054       29.6280495655  TIP3      1584            0.0000000000
     56267      2944  TIP3      H2             17.5753010478       25.7357818594       31.0167344220  TIP3      1584            0.0000000000
     56268      2945  TIP3      OH2            16.2747637360       21.1482144148       36.7488560060  TIP3      1585            0.0000000000
     56269      2945  TIP3      H1             17.2153626330       20.9647223068       36.9227033026  TIP3      1585            0.0000000000
     56270      2945  TIP3      H2             15.8765561783       20.3089010573       37.0790994209  TIP3      1585            0.0000000000
     56271      2946  TIP3      OH2            15.7494046254       22.5037425867       30.5100080309  TIP3      1586            0.0000000000
     56272      2946  TIP3      H1             16.4643979173       22.1319959866       29.9399267821  TIP3      1586            0.0000000000
     56273      2946  TIP3      H2             16.2733359124       23.1830150430       30.9610889091  TIP3      1586            0.0000000000
     56274      2947  TIP3      OH2            16.1269769974       17.3636960040       33.0519629457  TIP3      1587            0.0000000000
     56275      2947  TIP3      H1             15.4685506139       17.1495108176       33.7320973034  TIP3      1587            0.0000000000
     56276      2947  TIP3      H2             15.6917339558       18.0098401921       32.4857914396  TIP3      1587            0.0000000000
     56277      2948  TIP3      OH2            18.3717942080       30.6488859902       37.1991326175  TIP3      1588            0.0000000000
     56278      2948  TIP3      H1             17.5148153376       30.6914381934       36.7445032960  TIP3      1588            0.0000000000
     56279      2948  TIP3      H2             18.1215224387       30.4781975557       38.1127188110  TIP3      1588            0.0000000000
     56280      2949  TIP3      OH2            21.1067222842       31.4446281565       32.6702839543  TIP3      1589            0.0000000000
     56281      2949  TIP3      H1             20.7081922261       32.3476256911       32.6983256154  TIP3      1589            0.0000000000
     56282      2949  TIP3      H2             22.0956863451       31.4825558248       32.5630094473  TIP3      1589            0.0000000000
     56283      2950  TIP3      OH2            18.6841692415       34.6650124102       33.5565532830  TIP3      1590            0.0000000000
     56284      2950  TIP3      H1             18.0710610887       35.2954065178       33.0659548697  TIP3      1590            0.0000000000
     56285      2950  TIP3      H2             18.2519987910       34.6691712258       34.4158476038  TIP3      1590            0.0000000000
     56286      2951  TIP3      OH2            21.1293416900       34.3540544038       32.6402412694  TIP3      1591            0.0000000000
     56287      2951  TIP3      H1             20.1955350064       34.5792020937       32.9125554771  TIP3      1591            0.0000000000
     56288      2951  TIP3      H2             21.1173067548       34.8793511790       31.8063629720  TIP3      1591            0.0000000000
     56289      2952  TIP3      OH2            30.6354799203       34.7487309195       32.9552511813  TIP3      1592            0.0000000000
     56290      2952  TIP3      H1             30.6790809137       35.6939031129       32.7440690814  TIP3      1592            0.0000000000
     56291      2952  TIP3      H2             30.9833320133       34.3142117661       32.1777274263  TIP3      1592            0.0000000000
     56292      2953  TIP3      OH2            20.2280195211       32.1414575175       29.0897155537  TIP3      1593            0.0000000000
     56293      2953  TIP3      H1             20.0477055185       31.2180186588       29.2572350935  TIP3      1593            0.0000000000
     56294      2953  TIP3      H2             21.0473862481       32.2953086216       29.5532126098  TIP3      1593            0.0000000000
     56295      2954  TIP3      OH2            26.3654765133       18.2282638680       29.1404188193  TIP3      1594            0.0000000000
     56296      2954  TIP3      H1             25.6130727176       17.6500721661       29.3626735950  TIP3      1594            0.0000000000
     56297      2954  TIP3      H2             26.8428162210       17.7482355663       28.4579901799  TIP3      1594            0.0000000000
     56298      2955  TIP3      OH2            16.6995725622       17.2256812041       22.8261297115  TIP3      1595            0.0000000000
     56299      2955  TIP3      H1             17.3634206490       17.8293221650       22.4773324146  TIP3      1595            0.0000000000
     56300      2955  TIP3      H2             16.4867967543       17.6675265280       23.6861539316  TIP3      1595            0.0000000000
     56301      2956  TIP3      OH2            23.1759521234       16.7552262882       26.7629239008  TIP3      1596            0.0000000000
     56302      2956  TIP3      H1             24.0428366485       17.1825226859       26.6632017543  TIP3      1596            0.0000000000
     56303      2956  TIP3      H2             23.0776824136       16.6487375780       27.7069922998  TIP3      1596            0.0000000000
     56304      2957  TIP3      OH2            17.5011018066       32.6805071616       23.5477142602  TIP3      1597            0.0000000000
     56305      2957  TIP3      H1             16.6782617490       32.5784205532       23.0184871697  TIP3      1597            0.0000000000
     56306      2957  TIP3      H2             17.3665011507       33.5682329035       23.8958272398  TIP3      1597            0.0000000000
     56307      2958  TIP3      OH2            19.2671087679       18.2251666809       21.3456145237  TIP3      1598            0.0000000000
     56308      2958  TIP3      H1             19.8481629375       18.1428503331       20.5582647672  TIP3      1598            0.0000000000
     56309      2958  TIP3      H2             19.8504054690       18.9481521004       21.7476180575  TIP3      1598            0.0000000000
     56310      2959  TIP3      OH2            26.1099632604       33.9686585530       21.9320034920  TIP3      1599            0.0000000000
     56311      2959  TIP3      H1             27.0592195018       34.1660595771       21.8756727346  TIP3      1599            0.0000000000
     56312      2959  TIP3      H2             26.0569727279       33.3368501179       21.1821521930  TIP3      1599            0.0000000000
     56313      2960  TIP3      OH2            18.5598195001       17.4753585550       36.5141945413  TIP3      1600            0.0000000000
     56314      2960  TIP3      H1             18.2285270529       16.6407850995       36.8774137878  TIP3      1600            0.0000000000
     56315      2960  TIP3      H2             19.5110023589       17.4509096345       36.6637594538  TIP3      1600            0.0000000000
     56316      2961  TIP3      OH2            19.1606919044       33.5362620011       20.5815087205  TIP3      1601            0.0000000000
     56317      2961  TIP3      H1             18.8464891221       33.8941058279       21.4486510022  TIP3      1601            0.0000000000
     56318      2961  TIP3      H2             19.8753915791       33.0156518556       20.8872147886  TIP3      1601            0.0000000000
     56319      2962  TIP3      OH2            28.9484768340       16.1328598043       38.1685079036  TIP3      1602            0.0000000000
     56320      2962  TIP3      H1             29.0545874771       15.6598238831       39.0067813744  TIP3      1602            0.0000000000
     56321      2962  TIP3      H2             29.8679246093       16.0832500140       37.7923032455  TIP3      1602            0.0000000000
     56322      2963  TIP3      OH2            37.8689818075       24.9637553087       31.8259734138  TIP3      1603            0.0000000000
     56323      2963  TIP3      H1             37.8667270800       24.2848031469       32.5307238049  TIP3      1603            0.0000000000
     56324      2963  TIP3      H2             38.5496925435       25.5684506712       32.1126983800  TIP3      1603            0.0000000000
     56325      2964  TIP3      OH2            38.6249602393       29.2191495905       30.6256416837  TIP3      1604            0.0000000000
     56326      2964  TIP3      H1             38.3969549633       28.4851040510       30.0452961679  TIP3      1604            0.0000000000
     56327      2964  TIP3      H2             39.6042876856       29.1852149504       30.4946158753  TIP3      1604            0.0000000000
     56328      2965  TIP3      OH2            39.5265839632       20.5282837468       28.6274657868  TIP3      1605            0.0000000000
     56329      2965  TIP3      H1             40.1055377774       21.1382587385       28.1216777184  TIP3      1605            0.0000000000
     56330      2965  TIP3      H2             39.6562528529       19.7998307871       28.0046807028  TIP3      1605            0.0000000000
     56331      2966  TIP3      OH2            38.9171358473       19.1121098941       32.3436437492  TIP3      1606            0.0000000000
     56332      2966  TIP3      H1             38.7308923512       19.7338110753       31.6328807650  TIP3      1606            0.0000000000
     56333      2966  TIP3      H2             38.3098291829       19.3985113889       33.0612364737  TIP3      1606            0.0000000000
     56334      2967  TIP3      OH2            39.9610349568       28.7977608746       33.4147822361  TIP3      1607            0.0000000000
     56335      2967  TIP3      H1             39.9692512667       29.7090637553       33.0826523178  TIP3      1607            0.0000000000
     56336      2967  TIP3      H2             39.0899322096       28.7619019811       33.8598974677  TIP3      1607            0.0000000000
     56337      2968  TIP3      OH2            40.2106430975       26.1506743012       27.2120293056  TIP3      1608            0.0000000000
     56338      2968  TIP3      H1             39.9554453882       25.7788783208       26.3377825492  TIP3      1608            0.0000000000
     56339      2968  TIP3      H2             40.8753988877       25.5104877314       27.5123539304  TIP3      1608            0.0000000000
     56340      2969  TIP3      OH2            38.4632077639       25.4829143083       34.7516954655  TIP3      1609            0.0000000000
     56341      2969  TIP3      H1             38.5745715654       26.1920547703       35.4105653717  TIP3      1609            0.0000000000
     56342      2969  TIP3      H2             37.5564597649       25.6194332181       34.4312458327  TIP3      1609            0.0000000000
     56343      2970  TIP3      OH2            39.7775118341       31.4333336751       36.3178859104  TIP3      1610            0.0000000000
     56344      2970  TIP3      H1             39.8268467445       31.2230924609       35.3359090969  TIP3      1610            0.0000000000
     56345      2970  TIP3      H2             38.8581892880       31.1352530245       36.4400700618  TIP3      1610            0.0000000000
     56346      2971  TIP3      OH2            39.3205313466       25.2463488738       24.7316882595  TIP3      1611            0.0000000000
     56347      2971  TIP3      H1             38.9976962829       25.9777211830       24.1898686611  TIP3      1611            0.0000000000
     56348      2971  TIP3      H2             38.6500980229       24.5636286804       24.6017356631  TIP3      1611            0.0000000000
     56349      2972  TIP3      OH2            35.4012778415       27.5946673239       33.6012968801  TIP3      1612            0.0000000000
     56350      2972  TIP3      H1             34.8998478834       27.5181011745       32.7830730696  TIP3      1612            0.0000000000
     56351      2972  TIP3      H2             35.4086242392       26.6505506456       33.8654329237  TIP3      1612            0.0000000000
     56352      2973  TIP3      OH2            37.5823220940       32.1650170121       25.9142484820  TIP3      1613            0.0000000000
     56353      2973  TIP3      H1             38.2284916550       32.1280340760       26.6408449427  TIP3      1613            0.0000000000
     56354      2973  TIP3      H2             37.0149571619       32.8915220521       26.1541374714  TIP3      1613            0.0000000000
     56355      2974  TIP3      OH2            37.6527059467       28.8947623466       34.6271896218  TIP3      1614            0.0000000000
     56356      2974  TIP3      H1             37.8202043887       28.5080243175       35.4950179580  TIP3      1614            0.0000000000
     56357      2974  TIP3      H2             36.7722117512       28.5568870904       34.3871336824  TIP3      1614            0.0000000000
     56358      2975  TIP3      OH2            40.3028183399       17.3752427454       30.5058542110  TIP3      1615            0.0000000000
     56359      2975  TIP3      H1             39.3974084726       17.3035756808       30.1554712081  TIP3      1615            0.0000000000
     56360      2975  TIP3      H2             40.2573079241       18.2287399601       30.9749529955  TIP3      1615            0.0000000000
     56361      2976  TIP3      OH2            40.4084281104       22.4632541709       32.4337852464  TIP3      1616            0.0000000000
     56362      2976  TIP3      H1             39.4659812417       22.2789512438       32.5608761333  TIP3      1616            0.0000000000
     56363      2976  TIP3      H2             40.2876525826       23.0181808589       31.6528354364  TIP3      1616            0.0000000000
     56364      2977  TIP3      OH2            40.0626284753       22.6049306889       26.4491797793  TIP3      1617            0.0000000000
     56365      2977  TIP3      H1             39.2737852222       22.0781034299       26.4837169161  TIP3      1617            0.0000000000
     56366      2977  TIP3      H2             40.7077385319       22.1210751720       25.9155008814  TIP3      1617            0.0000000000
     56367      2978  TIP3      OH2            38.0534059186       22.6444353186       33.5600189831  TIP3      1618            0.0000000000
     56368      2978  TIP3      H1             38.0905513182       23.0471447968       34.4330339276  TIP3      1618            0.0000000000
     56369      2978  TIP3      H2             37.6314044461       21.7884872357       33.6929889695  TIP3      1618            0.0000000000
     56370      2979  TIP3      OH2            40.0923255593       22.7444295117       21.7458464933  TIP3      1619            0.0000000000
     56371      2979  TIP3      H1             39.5192203878       22.3928799446       21.0466887512  TIP3      1619            0.0000000000
     56372      2979  TIP3      H2             40.8920389220       23.0166271045       21.3061429527  TIP3      1619            0.0000000000
     56373      2980  TIP3      OH2            38.2652608373       27.3622046205       36.8280303056  TIP3      1620            0.0000000000
     56374      2980  TIP3      H1             38.9660386449       27.6261812887       37.4369627066  TIP3      1620            0.0000000000
     56375      2980  TIP3      H2             37.4663488219       27.5335257992       37.3759599426  TIP3      1620            0.0000000000
     56376      2981  TIP3      OH2            38.5149319276       26.6827774394       29.3898477538  TIP3      1621            0.0000000000
     56377      2981  TIP3      H1             39.3019869492       26.6346373519       28.8031227593  TIP3      1621            0.0000000000
     56378      2981  TIP3      H2             38.5750227341       25.8586616864       29.9095790890  TIP3      1621            0.0000000000
     56379      2982  TIP3      OH2            35.5582441603       25.1383516541       34.7319583909  TIP3      1622            0.0000000000
     56380      2982  TIP3      H1             35.7503540242       24.7017111504       35.5774980112  TIP3      1622            0.0000000000
     56381      2982  TIP3      H2             34.9323676792       24.5168115566       34.2929435123  TIP3      1622            0.0000000000
     56382      2983  TIP3      OH2            36.6665284145       25.0399855543       21.4367362066  TIP3      1623            0.0000000000
     56383      2983  TIP3      H1             37.2874552187       25.6736672554       21.8390602362  TIP3      1623            0.0000000000
     56384      2983  TIP3      H2             35.8162785940       25.3920477213       21.7247932650  TIP3      1623            0.0000000000
     56385      2984  TIP3      OH2            37.2418403611       19.8460809240       34.2833725525  TIP3      1624            0.0000000000
     56386      2984  TIP3      H1             36.3346048382       20.1783009579       34.2751570560  TIP3      1624            0.0000000000
     56387      2984  TIP3      H2             37.1010993408       18.9746301866       34.7180054679  TIP3      1624            0.0000000000
     56388      2985  TIP3      OH2            38.0667645837       26.9648164817       22.9319337538  TIP3      1625            0.0000000000
     56389      2985  TIP3      H1             37.3658166126       27.3527046513       23.4658255294  TIP3      1625            0.0000000000
     56390      2985  TIP3      H2             38.6066350772       27.7346389295       22.6888955054  TIP3      1625            0.0000000000
     56391      2986  TIP3      OH2            38.7282682672       29.5078520995       21.8181635417  TIP3      1626            0.0000000000
     56392      2986  TIP3      H1             39.3049491424       30.2328687686       22.1032247605  TIP3      1626            0.0000000000
     56393      2986  TIP3      H2             39.2573870860       29.1115950789       21.1029584089  TIP3      1626            0.0000000000
     56394      2987  TIP3      OH2            37.0323122821       22.3274521318       21.0356280211  TIP3      1627            0.0000000000
     56395      2987  TIP3      H1             36.9290497795       23.2870579875       21.1131125382  TIP3      1627            0.0000000000
     56396      2987  TIP3      H2             36.2148785412       22.0077506644       20.6210843430  TIP3      1627            0.0000000000
     56397      2988  TIP3      OH2            37.8271181186       17.0292773010       29.6542314744  TIP3      1628            0.0000000000
     56398      2988  TIP3      H1             37.6363864504       17.0743868771       28.6894648321  TIP3      1628            0.0000000000
     56399      2988  TIP3      H2             37.4432114704       16.1861832626       29.9236308271  TIP3      1628            0.0000000000
     56400      2989  TIP3      OH2            35.9394758910       27.3523031176       38.1114109246  TIP3      1629            0.0000000000
     56401      2989  TIP3      H1             36.0641323502       26.4495159923       37.7761541496  TIP3      1629            0.0000000000
     56402      2989  TIP3      H2             35.1653871648       27.6550654429       37.5759422014  TIP3      1629            0.0000000000
     56403      2990  TIP3      OH2            40.2110926563       27.6594839614       20.1438164043  TIP3      1630            0.0000000000
     56404      2990  TIP3      H1             40.3818903896       26.9231157588       20.7369609668  TIP3      1630            0.0000000000
     56405      2990  TIP3      H2             40.9219963374       27.5793948039       19.4973632616  TIP3      1630            0.0000000000
     56406      2991  TIP3      OH2            36.7057399826       24.5919690341       37.4672079570  TIP3      1631            0.0000000000
     56407      2991  TIP3      H1             37.2362230929       23.7890623392       37.3677399190  TIP3      1631            0.0000000000
     56408      2991  TIP3      H2             36.5689306357       24.6296584915       38.4197330324  TIP3      1631            0.0000000000
     56409      2992  TIP3      OH2            39.4757520024       22.2124529999       37.9243439440  TIP3      1632            0.0000000000
     56410      2992  TIP3      H1             38.7683047873       21.6269563563       37.6380890395  TIP3      1632            0.0000000000
     56411      2992  TIP3      H2             40.2036787307       21.8991169984       37.3219925172  TIP3      1632            0.0000000000
     56412      2993  TIP3      OH2            36.0039699973       29.2594815625       21.1931669310  TIP3      1633            0.0000000000
     56413      2993  TIP3      H1             36.9132988896       29.3589403092       21.5163327436  TIP3      1633            0.0000000000
     56414      2993  TIP3      H2             36.0090048133       28.5559412872       20.5597597355  TIP3      1633            0.0000000000
     56415      2994  TIP3      OH2            33.7033410198       34.0154680968       26.8684844321  TIP3      1634            0.0000000000
     56416      2994  TIP3      H1             33.7250213264       34.0533017043       25.8818543081  TIP3      1634            0.0000000000
     56417      2994  TIP3      H2             34.6561761097       34.0826100087       27.0557426390  TIP3      1634            0.0000000000
     56418      2995  TIP3      OH2            37.2329753574       30.7371670752       37.3100915869  TIP3      1635            0.0000000000
     56419      2995  TIP3      H1             36.4161188826       30.6847889862       36.7332952433  TIP3      1635            0.0000000000
     56420      2995  TIP3      H2             36.8150416265       30.4214465789       38.1198906720  TIP3      1635            0.0000000000
     56421      2996  TIP3      OH2            40.1844286140       31.4938893762       33.5965321887  TIP3      1636            0.0000000000
     56422      2996  TIP3      H1             39.7641629501       32.3182507155       33.2357975262  TIP3      1636            0.0000000000
     56423      2996  TIP3      H2             41.0502569744       31.5925247030       33.1500123988  TIP3      1636            0.0000000000
     56424      2997  TIP3      OH2            37.3954872914       34.6055337393       33.4594454317  TIP3      1637            0.0000000000
     56425      2997  TIP3      H1             36.8076887271       35.2946422522       33.1245327244  TIP3      1637            0.0000000000
     56426      2997  TIP3      H2             37.0696784733       34.4868691381       34.3367363875  TIP3      1637            0.0000000000
     56427      2998  TIP3      OH2            39.5687758792       33.6568889895       32.6005436758  TIP3      1638            0.0000000000
     56428      2998  TIP3      H1             38.9911533948       34.2703716237       33.1413978200  TIP3      1638            0.0000000000
     56429      2998  TIP3      H2             39.8896204123       34.5328358632       32.2362456663  TIP3      1638            0.0000000000
     56430      2999  TIP3      OH2            36.4963898229       32.8752751354       31.2068470519  TIP3      1639            0.0000000000
     56431      2999  TIP3      H1             36.9333651383       32.6459741589       31.9835900769  TIP3      1639            0.0000000000
     56432      2999  TIP3      H2             37.1944368224       33.2025678265       30.5949612492  TIP3      1639            0.0000000000
     56433      3000  TIP3      OH2            39.9901880739       30.7173940737       29.2259615798  TIP3      1640            0.0000000000
     56434      3000  TIP3      H1             39.0011028814       30.8231000063       29.2826614653  TIP3      1640            0.0000000000
     56435      3000  TIP3      H2             40.1225964195       31.5812622677       29.6185750506  TIP3      1640            0.0000000000
     56436      3001  TIP3      OH2            37.3906551364       16.8650312138       27.0202820054  TIP3      1641            0.0000000000
     56437      3001  TIP3      H1             36.7605046206       16.7112588302       26.3094986340  TIP3      1641            0.0000000000
     56438      3001  TIP3      H2             38.0112282206       16.1228767077       26.8956949612  TIP3      1641            0.0000000000
     56439      3002  TIP3      OH2            39.4285654892       16.8404349949       38.0587568909  TIP3      1642            0.0000000000
     56440      3002  TIP3      H1             40.2729565366       16.5328374831       37.6544459258  TIP3      1642            0.0000000000
     56441      3002  TIP3      H2             38.9937967431       16.0281441278       38.3248263947  TIP3      1642            0.0000000000
     56442      3003  TIP3      OH2            38.0620187614       33.5079009698       20.5990786625  TIP3      1643            0.0000000000
     56443      3003  TIP3      H1             37.7254891663       33.9250170367       21.4233024886  TIP3      1643            0.0000000000
     56444      3003  TIP3      H2             38.8273528125       33.0151316132       20.8579959649  TIP3      1643            0.0000000000
     56445      3004  TIP3      OH2           -22.7982209697       38.1656869044       31.5215427695  TIP3      1644            0.0000000000
     56446      3004  TIP3      H1            -22.8772265693       38.8163899026       32.2287330992  TIP3      1644            0.0000000000
     56447      3004  TIP3      H2            -22.5302376923       38.6807034620       30.7646764219  TIP3      1644            0.0000000000
     56448      3005  TIP3      OH2           -35.3238614881       39.1224239579       28.3490387244  TIP3      1645            0.0000000000
     56449      3005  TIP3      H1            -35.1885600811       39.9343140728       27.8580890222  TIP3      1645            0.0000000000
     56450      3005  TIP3      H2            -35.7342731411       38.5390927417       27.6843772315  TIP3      1645            0.0000000000
     56451      3006  TIP3      OH2           -26.2487636932       38.6419905464       26.6868826308  TIP3      1646            0.0000000000
     56452      3006  TIP3      H1            -26.6530667940       38.9614209073       27.4966552165  TIP3      1646            0.0000000000
     56453      3006  TIP3      H2            -26.5834204205       39.4569958087       26.1599674340  TIP3      1646            0.0000000000
     56454      3007  TIP3      OH2           -22.5367698383       39.6864034940       33.6829561816  TIP3      1647            0.0000000000
     56455      3007  TIP3      H1            -23.2047450768       40.3522553987       33.3969691074  TIP3      1647            0.0000000000
     56456      3007  TIP3      H2            -22.4257742774       40.0218063774       34.5175510413  TIP3      1647            0.0000000000
     56457      3008  TIP3      OH2           -36.3658423388       37.9828600907       32.2979838510  TIP3      1648            0.0000000000
     56458      3008  TIP3      H1            -36.6708220591       38.5912309514       31.5936116179  TIP3      1648            0.0000000000
     56459      3008  TIP3      H2            -37.0207708797       38.2390494543       33.0011941570  TIP3      1648            0.0000000000
     56460      3009  TIP3      OH2           -25.2341827189       38.1137207455       28.8670516728  TIP3      1649            0.0000000000
     56461      3009  TIP3      H1            -25.8997006960       37.8278708055       29.5086835151  TIP3      1649            0.0000000000
     56462      3009  TIP3      H2            -25.0884940577       38.9946419606       29.2703576946  TIP3      1649            0.0000000000
     56463      3010  TIP3      OH2           -36.6956039440       39.8366187933       30.5395099565  TIP3      1650            0.0000000000
     56464      3010  TIP3      H1            -36.1479334976       40.5899413676       30.7187793419  TIP3      1650            0.0000000000
     56465      3010  TIP3      H2            -36.2965444129       39.4586159302       29.6968767453  TIP3      1650            0.0000000000
     56466      3011  TIP3      OH2           -25.3196744099       36.9883771564       32.4225235640  TIP3      1651            0.0000000000
     56467      3011  TIP3      H1            -26.0579005220       37.6155738579       32.3130157455  TIP3      1651            0.0000000000
     56468      3011  TIP3      H2            -24.7187071488       37.5171024364       31.8842823781  TIP3      1651            0.0000000000
     56469      3012  TIP3      OH2           -32.4505825781       35.3244113432       29.8104053400  TIP3      1652            0.0000000000
     56470      3012  TIP3      H1            -32.6465536110       34.3706162791       29.7559337862  TIP3      1652            0.0000000000
     56471      3012  TIP3      H2            -33.3285774994       35.6559882583       30.1236117111  TIP3      1652            0.0000000000
     56472      3013  TIP3      OH2           -34.9666968449       36.3211228276       30.6389381480  TIP3      1653            0.0000000000
     56473      3013  TIP3      H1            -35.8450181690       36.0817318926       30.2252134139  TIP3      1653            0.0000000000
     56474      3013  TIP3      H2            -35.2068480345       37.1140002176       31.1298217319  TIP3      1653            0.0000000000
     56475      3014  TIP3      OH2           -30.4843754249       35.8969305623       33.9279309329  TIP3      1654            0.0000000000
     56476      3014  TIP3      H1            -30.0342837394       35.5139986480       34.6922557496  TIP3      1654            0.0000000000
     56477      3014  TIP3      H2            -31.4391418626       35.7519885975       34.0977782390  TIP3      1654            0.0000000000
     56478      3015  TIP3      OH2           -27.6368536487       39.4134487407       34.5264237583  TIP3      1655            0.0000000000
     56479      3015  TIP3      H1            -27.7273180505       39.4424901610       35.4952892920  TIP3      1655            0.0000000000
     56480      3015  TIP3      H2            -27.4431605466       40.3700253200       34.3801210885  TIP3      1655            0.0000000000
     56481      3016  TIP3      OH2           -30.9521363013       38.5083355634       21.2780846847  TIP3      1656            0.0000000000
     56482      3016  TIP3      H1            -31.0344756082       38.3682274601       22.2226591779  TIP3      1656            0.0000000000
     56483      3016  TIP3      H2            -30.9892907702       37.6043310830       20.9230772211  TIP3      1656            0.0000000000
     56484      3017  TIP3      OH2           -34.0663951317       39.1350603567       20.5905986214  TIP3      1657            0.0000000000
     56485      3017  TIP3      H1            -34.4470603970       38.3148554389       20.9412852535  TIP3      1657            0.0000000000
     56486      3017  TIP3      H2            -34.6247216129       39.1896316196       19.7610311527  TIP3      1657            0.0000000000
     56487      3018  TIP3      OH2           -39.6433411935       38.5170707361       27.0300939666  TIP3      1658            0.0000000000
     56488      3018  TIP3      H1            -39.9191316800       38.5133736344       27.9595316775  TIP3      1658            0.0000000000
     56489      3018  TIP3      H2            -40.3041365548       37.9985875907       26.5732477658  TIP3      1658            0.0000000000
     56490      3019  TIP3      OH2           -38.5792175080       38.8339529711       22.9476674097  TIP3      1659            0.0000000000
     56491      3019  TIP3      H1            -38.6341039777       39.4076316234       22.0954416084  TIP3      1659            0.0000000000
     56492      3019  TIP3      H2            -39.5168917375       39.1947564663       23.0448180342  TIP3      1659            0.0000000000
     56493      3020  TIP3      OH2           -32.4161511664       38.7253367353       27.6634676722  TIP3      1660            0.0000000000
     56494      3020  TIP3      H1            -33.3431036802       38.9206510914       27.9452952466  TIP3      1660            0.0000000000
     56495      3020  TIP3      H2            -31.9439110908       38.8115490975       28.5082558358  TIP3      1660            0.0000000000
     56496      3021  TIP3      OH2           -37.5397109417       40.0125725208       26.3354733424  TIP3      1661            0.0000000000
     56497      3021  TIP3      H1            -38.4779842301       40.1989507648       26.1263244157  TIP3      1661            0.0000000000
     56498      3021  TIP3      H2            -37.4001822326       39.1442819321       25.9328853800  TIP3      1661            0.0000000000
     56499      3022  TIP3      OH2           -34.0542863003      -41.0509158922       24.2956414891  TIP3      1662            0.0000000000
     56500      3022  TIP3      H1            -33.1013756466      -40.9840601059       24.6423255945  TIP3      1662            0.0000000000
     56501      3022  TIP3      H2            -34.1610870784      -40.0939361462       24.2760802525  TIP3      1662            0.0000000000
     56502      3023  TIP3      OH2           -29.0926413618       37.6263850459       30.8489133135  TIP3      1663            0.0000000000
     56503      3023  TIP3      H1            -28.8724065114       38.1793356361       31.6665523833  TIP3      1663            0.0000000000
     56504      3023  TIP3      H2            -28.2967213363       38.0868262162       30.4852825995  TIP3      1663            0.0000000000
     56505      3024  TIP3      OH2           -36.2045874525       37.7367094068       25.7949872261  TIP3      1664            0.0000000000
     56506      3024  TIP3      H1            -36.5065435460       36.8756738013       26.1507672949  TIP3      1664            0.0000000000
     56507      3024  TIP3      H2            -35.2650021060       37.7611216943       25.6271056002  TIP3      1664            0.0000000000
     56508      3025  TIP3      OH2           -32.5420616182       39.8916831573       31.9273887288  TIP3      1665            0.0000000000
     56509      3025  TIP3      H1            -33.2840874694       40.4760731369       32.0507297133  TIP3      1665            0.0000000000
     56510      3025  TIP3      H2            -31.9609905465       40.2368315507       32.6371304687  TIP3      1665            0.0000000000
     56511      3026  TIP3      OH2           -28.0961396932       39.0667796611       21.8652066972  TIP3      1666            0.0000000000
     56512      3026  TIP3      H1            -29.0229054844       39.1743986788       21.6383838715  TIP3      1666            0.0000000000
     56513      3026  TIP3      H2            -27.7430315603       39.9258459386       22.1267432263  TIP3      1666            0.0000000000
     56514      3027  TIP3      OH2           -37.8461515831       39.2531652966       34.0318773727  TIP3      1667            0.0000000000
     56515      3027  TIP3      H1            -38.8123992319       39.3411626829       34.2217900675  TIP3      1667            0.0000000000
     56516      3027  TIP3      H2            -37.9321094678       38.3844063690       34.5388478485  TIP3      1667            0.0000000000
     56517      3028  TIP3      OH2           -29.6571941430       38.4687000120       33.3053311875  TIP3      1668            0.0000000000
     56518      3028  TIP3      H1            -28.8021311708       38.6187573299       33.8000873593  TIP3      1668            0.0000000000
     56519      3028  TIP3      H2            -29.8527092833       37.5488096649       33.4846994275  TIP3      1668            0.0000000000
     56520      3029  TIP3      OH2           -28.7362248955       37.8439407859       23.9881864563  TIP3      1669            0.0000000000
     56521      3029  TIP3      H1            -28.4769215059       38.5002033530       23.2919621318  TIP3      1669            0.0000000000
     56522      3029  TIP3      H2            -28.2024296447       38.2828265519       24.6596565418  TIP3      1669            0.0000000000
     56523      3030  TIP3      OH2           -31.7889633362       39.9243420160       25.0354426673  TIP3      1670            0.0000000000
     56524      3030  TIP3      H1            -30.8777826584       40.3314990474       25.0975361823  TIP3      1670            0.0000000000
     56525      3030  TIP3      H2            -31.8397416989       39.7917356882       26.0135508925  TIP3      1670            0.0000000000
     56526      3031  TIP3      OH2           -31.1446839405      -41.2069063885       34.7343819980  TIP3      1671            0.0000000000
     56527      3031  TIP3      H1            -31.0185687037      -40.2973842305       35.0691626371  TIP3      1671            0.0000000000
     56528      3031  TIP3      H2            -30.2785028712      -41.4439903465       34.3342028648  TIP3      1671            0.0000000000
     56529      3032  TIP3      OH2           -30.6152735907       36.8397805644       26.2111456876  TIP3      1672            0.0000000000
     56530      3032  TIP3      H1            -31.0894059396       37.5388598492       26.7184588375  TIP3      1672            0.0000000000
     56531      3032  TIP3      H2            -30.0911480584       37.3591704504       25.5304447100  TIP3      1672            0.0000000000
     56532      3033  TIP3      OH2           -34.9130353672       37.9345301335       22.9230948745  TIP3      1673            0.0000000000
     56533      3033  TIP3      H1            -35.0984791731       38.8285787099       23.2092528712  TIP3      1673            0.0000000000
     56534      3033  TIP3      H2            -33.9297623987       37.8310937145       22.9678568428  TIP3      1673            0.0000000000
     56535      3034  TIP3      OH2           -24.2442797424       38.0517968994       34.6028516173  TIP3      1674            0.0000000000
     56536      3034  TIP3      H1            -25.2083238133       38.2605457738       34.8335295316  TIP3      1674            0.0000000000
     56537      3034  TIP3      H2            -24.4188378217       38.5608739254       33.7670237519  TIP3      1674            0.0000000000
     56538      3035  TIP3      OH2           -36.9325940583       35.3037708705       29.4854727886  TIP3      1675            0.0000000000
     56539      3035  TIP3      H1            -37.4495617317       35.8145073197       28.7873441560  TIP3      1675            0.0000000000
     56540      3035  TIP3      H2            -37.7355363557       35.0204709916       29.9608912313  TIP3      1675            0.0000000000
     56541      3036  TIP3      OH2           -34.6765052453       39.6387100174       35.8581341681  TIP3      1676            0.0000000000
     56542      3036  TIP3      H1            -34.2538843336       38.9906969161       35.2669237150  TIP3      1676            0.0000000000
     56543      3036  TIP3      H2            -34.4065693276       40.4773746545       35.4766926185  TIP3      1676            0.0000000000
     56544      3037  TIP3      OH2           -33.9228088673       38.1822156512       33.4429621562  TIP3      1677            0.0000000000
     56545      3037  TIP3      H1            -33.3515642413       38.6047045998       32.7644580510  TIP3      1677            0.0000000000
     56546      3037  TIP3      H2            -34.7960467943       38.0773111047       33.0061040177  TIP3      1677            0.0000000000
     56547      3038  TIP3      OH2           -33.1598648875       35.6275935544       33.9426889446  TIP3      1678            0.0000000000
     56548      3038  TIP3      H1            -33.2549705777       36.5831852879       33.7306909721  TIP3      1678            0.0000000000
     56549      3038  TIP3      H2            -33.8425366468       35.2704340273       33.3415327130  TIP3      1678            0.0000000000
     56550      3039  TIP3      OH2           -31.6619253990       39.5175824945       37.5823452967  TIP3      1679            0.0000000000
     56551      3039  TIP3      H1            -32.0057785076       39.6548699781       38.4936608294  TIP3      1679            0.0000000000
     56552      3039  TIP3      H2            -32.5060212083       39.6068913350       37.1244262799  TIP3      1679            0.0000000000
     56553      3040  TIP3      OH2           -29.1107420552       39.1243362471       36.6111979871  TIP3      1680            0.0000000000
     56554      3040  TIP3      H1            -30.0894476795       39.1065502564       36.6647289909  TIP3      1680            0.0000000000
     56555      3040  TIP3      H2            -28.8251813769       38.4309524107       37.2036568204  TIP3      1680            0.0000000000
     56556      3041  TIP3      OH2           -27.3948615171       37.2987248638       38.1577518506  TIP3      1681            0.0000000000
     56557      3041  TIP3      H1            -27.6916650011       36.4040142127       38.3828864045  TIP3      1681            0.0000000000
     56558      3041  TIP3      H2            -27.6575766104       37.8233056208       38.9650885144  TIP3      1681            0.0000000000
     56559      3042  TIP3      OH2           -37.3286188032       39.2521339380       37.5729488085  TIP3      1682            0.0000000000
     56560      3042  TIP3      H1            -37.4756968473       38.5147211790       36.8884333796  TIP3      1682            0.0000000000
     56561      3042  TIP3      H2            -37.5940640623       38.6715441865       38.2895188106  TIP3      1682            0.0000000000
     56562      3043  TIP3      OH2           -33.0135441648       34.8115140684       36.4947217306  TIP3      1683            0.0000000000
     56563      3043  TIP3      H1            -32.1595125118       34.3223348354       36.4990842729  TIP3      1683            0.0000000000
     56564      3043  TIP3      H2            -32.9699572961       35.2256382089       35.5995527717  TIP3      1683            0.0000000000
     56565      3044  TIP3      OH2           -32.7421726825       36.4377135032       38.6201538835  TIP3      1684            0.0000000000
     56566      3044  TIP3      H1            -32.6890262494       36.1444611456       37.7099348955  TIP3      1684            0.0000000000
     56567      3044  TIP3      H2            -33.0814325344       37.3689012439       38.5635566890  TIP3      1684            0.0000000000
     56568      3045  TIP3      OH2           -24.7737020611       38.6076284259       20.0246336838  TIP3      1685            0.0000000000
     56569      3045  TIP3      H1            -24.1750999374       38.2822677502       20.7311751246  TIP3      1685            0.0000000000
     56570      3045  TIP3      H2            -25.6116656728       38.2285208416       20.2767655492  TIP3      1685            0.0000000000
     56571      3046  TIP3      OH2           -26.2326805585       39.8618176254       24.6871837321  TIP3      1686            0.0000000000
     56572      3046  TIP3      H1            -25.4598215088       39.3081266271       25.0171238575  TIP3      1686            0.0000000000
     56573      3046  TIP3      H2            -25.4996048714       40.5142092135       24.4702992600  TIP3      1686            0.0000000000
     56574      3047  TIP3      OH2           -24.2142096133      -40.4602123065       30.5376902064  TIP3      1687            0.0000000000
     56575      3047  TIP3      H1            -23.2858575545      -40.4350043667       30.6808256846  TIP3      1687            0.0000000000
     56576      3047  TIP3      H2            -24.7209185393      -40.7229518521       31.3697657885  TIP3      1687            0.0000000000
     56577      3048  TIP3      OH2           -39.6602210394       39.7492354886       36.1204007309  TIP3      1688            0.0000000000
     56578      3048  TIP3      H1            -39.0378905675       39.7492152782       36.8484633042  TIP3      1688            0.0000000000
     56579      3048  TIP3      H2            -40.3768818129       39.1797254226       36.5119099274  TIP3      1688            0.0000000000
     56580      3049  TIP3      OH2           -22.0709292941       35.4878680417       38.6899768648  TIP3      1689            0.0000000000
     56581      3049  TIP3      H1            -21.9960324020       34.7841194348       38.0049885121  TIP3      1689            0.0000000000
     56582      3049  TIP3      H2            -22.1519486290       36.2646574290       38.1218891757  TIP3      1689            0.0000000000
     56583      3050  TIP3      OH2           -38.4973475673       38.7098342502       29.3923306425  TIP3      1690            0.0000000000
     56584      3050  TIP3      H1            -38.4208233309       37.7986142026       29.7309850704  TIP3      1690            0.0000000000
     56585      3050  TIP3      H2            -38.3740520937       39.1331839978       30.2387144312  TIP3      1690            0.0000000000
     56586      3051  TIP3      OH2           -22.7273982980       37.3910459828       37.0412039351  TIP3      1691            0.0000000000
     56587      3051  TIP3      H1            -23.6998597316       37.5592727731       37.1534837146  TIP3      1691            0.0000000000
     56588      3051  TIP3      H2            -22.7248770972       36.6551176758       36.3692058183  TIP3      1691            0.0000000000
     56589      3052  TIP3      OH2           -22.6964526631       37.5176351171       21.4514975551  TIP3      1692            0.0000000000
     56590      3052  TIP3      H1            -22.2050320779       36.7272024829       21.2126493837  TIP3      1692            0.0000000000
     56591      3052  TIP3      H2            -22.0043350356       38.1360303565       21.7402881459  TIP3      1692            0.0000000000
     56592      3053  TIP3      OH2           -40.2083516260       37.5704967223       24.5344668535  TIP3      1693            0.0000000000
     56593      3053  TIP3      H1            -41.1667306006       37.7635991854       24.3511258980  TIP3      1693            0.0000000000
     56594      3053  TIP3      H2            -39.8085562310       38.1810770214       23.9670534061  TIP3      1693            0.0000000000
     56595      3054  TIP3      OH2            40.7688343034       35.4903855059       33.5001795750  TIP3      1694            0.0000000000
     56596      3054  TIP3      H1             40.2086309633       35.8867609923       34.1285538467  TIP3      1694            0.0000000000
     56597      3054  TIP3      H2             40.7145419372       36.2854464621       32.9149011279  TIP3      1694            0.0000000000
     56598      3055  TIP3      OH2           -30.5598900130       36.8072130862       28.9779325302  TIP3      1695            0.0000000000
     56599      3055  TIP3      H1            -31.2450779265       36.3052529218       29.4994900860  TIP3      1695            0.0000000000
     56600      3055  TIP3      H2            -30.3313175159       36.2099666023       28.3247962792  TIP3      1695            0.0000000000
     56601      3056  TIP3      OH2           -37.8391288684       35.7322869363       27.3127391524  TIP3      1696            0.0000000000
     56602      3056  TIP3      H1            -38.4940282987       35.7611648308       26.6079390068  TIP3      1696            0.0000000000
     56603      3056  TIP3      H2            -37.3294436841       34.9566576832       27.0286593648  TIP3      1696            0.0000000000
     56604      3057  TIP3      OH2           -38.4512336836       35.4672893744       22.4035743779  TIP3      1697            0.0000000000
     56605      3057  TIP3      H1            -38.5548210193       36.2626293339       21.8458943673  TIP3      1697            0.0000000000
     56606      3057  TIP3      H2            -39.2790713757       35.6839423252       22.9156974151  TIP3      1697            0.0000000000
     56607      3058  TIP3      OH2           -33.4514530002       35.7788016658       26.7063758404  TIP3      1698            0.0000000000
     56608      3058  TIP3      H1            -32.5076160658       36.0187329773       26.6986963282  TIP3      1698            0.0000000000
     56609      3058  TIP3      H2            -33.5349979806       35.4311413738       27.6113164197  TIP3      1698            0.0000000000
     56610      3059  TIP3      OH2           -27.2801751889       35.1382925482       28.2246985943  TIP3      1699            0.0000000000
     56611      3059  TIP3      H1            -27.3831440772       35.2874405525       27.2718808120  TIP3      1699            0.0000000000
     56612      3059  TIP3      H2            -27.9748731423       34.4677199788       28.4961229183  TIP3      1699            0.0000000000
     56613      3060  TIP3      OH2           -26.5713918488       35.7865417424       24.2975444934  TIP3      1700            0.0000000000
     56614      3060  TIP3      H1            -27.1308909312       36.3412373613       23.7418866341  TIP3      1700            0.0000000000
     56615      3060  TIP3      H2            -26.8671290273       34.8686558460       24.1230682890  TIP3      1700            0.0000000000
     56616      3061  TIP3      OH2           -36.7724041495       37.0005185080       21.4969999637  TIP3      1701            0.0000000000
     56617      3061  TIP3      H1            -36.8850184511       36.9488406663       20.5276104150  TIP3      1701            0.0000000000
     56618      3061  TIP3      H2            -36.7901417731       37.9640554963       21.5842988984  TIP3      1701            0.0000000000
     56619      3062  TIP3      OH2           -32.4570218677       37.7427848482       23.6461987993  TIP3      1702            0.0000000000
     56620      3062  TIP3      H1            -32.0011767830       37.1198485905       24.2359664647  TIP3      1702            0.0000000000
     56621      3062  TIP3      H2            -32.1865153380       38.5857026399       24.0846451335  TIP3      1702            0.0000000000
     56622      3063  TIP3      OH2           -37.4103486489       35.2315638313       36.9411865473  TIP3      1703            0.0000000000
     56623      3063  TIP3      H1            -38.4024146496       35.4407394160       36.7853515607  TIP3      1703            0.0000000000
     56624      3063  TIP3      H2            -37.2218298537       36.2004519795       36.7225995814  TIP3      1703            0.0000000000
     56625      3064  TIP3      OH2           -35.5450272973       35.5306598841       38.4746781816  TIP3      1704            0.0000000000
     56626      3064  TIP3      H1            -34.9457230846       35.2801715737       37.7763805626  TIP3      1704            0.0000000000
     56627      3064  TIP3      H2            -36.3649775809       34.9933738603       38.4742317771  TIP3      1704            0.0000000000
     56628      3065  TIP3      OH2           -27.6172668989       34.8086841358       38.1439287294  TIP3      1705            0.0000000000
     56629      3065  TIP3      H1            -27.4714814857       34.4862996410       39.0461722481  TIP3      1705            0.0000000000
     56630      3065  TIP3      H2            -26.7003238658       34.8831070434       37.7828283975  TIP3      1705            0.0000000000
     56631      3066  TIP3      OH2           -16.4188825935       39.0316353997       28.2726800808  TIP3      1706            0.0000000000
     56632      3066  TIP3      H1            -16.3829613650       39.9470009543       27.9455568214  TIP3      1706            0.0000000000
     56633      3066  TIP3      H2            -16.9107517592       38.5304944290       27.6291257458  TIP3      1706            0.0000000000
     56634      3067  TIP3      OH2            -8.6659787390       39.1668368436       26.5319136002  TIP3      1707            0.0000000000
     56635      3067  TIP3      H1             -8.1183922532       38.9477958526       27.3272306731  TIP3      1707            0.0000000000
     56636      3067  TIP3      H2             -8.0830887357       39.8184124097       26.1405023033  TIP3      1707            0.0000000000
     56637      3068  TIP3      OH2           -17.5681888223       38.0222992244       32.3404174651  TIP3      1708            0.0000000000
     56638      3068  TIP3      H1            -17.8408116123       38.5816895354       31.6056139243  TIP3      1708            0.0000000000
     56639      3068  TIP3      H2            -18.2296503793       38.2597658493       33.0169130476  TIP3      1708            0.0000000000
     56640      3069  TIP3      OH2            -6.9539817015       38.5163703375       28.5444960758  TIP3      1709            0.0000000000
     56641      3069  TIP3      H1             -7.2005346171       37.8250022130       29.1747753191  TIP3      1709            0.0000000000
     56642      3069  TIP3      H2             -6.3857085044       39.0803115125       29.1324816373  TIP3      1709            0.0000000000
     56643      3070  TIP3      OH2           -13.5280461497       35.2441825434       29.9736629234  TIP3      1710            0.0000000000
     56644      3070  TIP3      H1            -13.7878691574       34.3831058162       29.6358398215  TIP3      1710            0.0000000000
     56645      3070  TIP3      H2            -14.4040067410       35.7029587163       30.0120054919  TIP3      1710            0.0000000000
     56646      3071  TIP3      OH2           -16.2817483314       36.2084209782       30.5662381916  TIP3      1711            0.0000000000
     56647      3071  TIP3      H1            -17.1445613171       36.1860692371       30.1586253263  TIP3      1711            0.0000000000
     56648      3071  TIP3      H2            -16.3026487601       37.0662092502       31.0227655821  TIP3      1711            0.0000000000
     56649      3072  TIP3      OH2           -11.5798323419       35.7480346409       33.9165431664  TIP3      1712            0.0000000000
     56650      3072  TIP3      H1            -11.1636684132       35.5592158780       34.7751314073  TIP3      1712            0.0000000000
     56651      3072  TIP3      H2            -12.5424738748       35.8610298697       34.1038647169  TIP3      1712            0.0000000000
     56652      3073  TIP3      OH2            -8.3410600574       39.7693071978       34.7975470989  TIP3      1713            0.0000000000
     56653      3073  TIP3      H1             -8.8190836829       39.5438212622       35.6162677792  TIP3      1713            0.0000000000
     56654      3073  TIP3      H2             -8.5307014723       40.6677224571       34.5794757748  TIP3      1713            0.0000000000
     56655      3074  TIP3      OH2           -12.1018870181       38.5515193299       21.2667474761  TIP3      1714            0.0000000000
     56656      3074  TIP3      H1            -12.2262006614       38.3653935406       22.2466035360  TIP3      1714            0.0000000000
     56657      3074  TIP3      H2            -12.0809328782       37.5920147344       21.0244977814  TIP3      1714            0.0000000000
     56658      3075  TIP3      OH2           -15.1118344399       38.9554976550       20.3301955625  TIP3      1715            0.0000000000
     56659      3075  TIP3      H1            -15.5424861847       38.4305045611       21.0665202336  TIP3      1715            0.0000000000
     56660      3075  TIP3      H2            -15.9357440015       39.2101492671       19.8614030451  TIP3      1715            0.0000000000
     56661      3076  TIP3      OH2           -20.6464494031       39.1975702422       22.7360355862  TIP3      1716            0.0000000000
     56662      3076  TIP3      H1            -20.1162422678       39.8949915834       22.3227899204  TIP3      1716            0.0000000000
     56663      3076  TIP3      H2            -21.2731957684       39.7884147411       23.1816991767  TIP3      1716            0.0000000000
     56664      3077  TIP3      OH2           -13.5871947203       38.5325064984       27.7962523446  TIP3      1717            0.0000000000
     56665      3077  TIP3      H1            -14.4929234947       38.8590970159       28.0135415328  TIP3      1717            0.0000000000
     56666      3077  TIP3      H2            -13.0845326887       38.7715976942       28.5999856353  TIP3      1717            0.0000000000
     56667      3078  TIP3      OH2           -18.5649415257       40.4791575610       26.4241986902  TIP3      1718            0.0000000000
     56668      3078  TIP3      H1            -19.5331572640       40.6184192900       26.2849444522  TIP3      1718            0.0000000000
     56669      3078  TIP3      H2            -18.5141463991       39.5730225103       26.1580571232  TIP3      1718            0.0000000000
     56670      3079  TIP3      OH2           -14.8517403937      -40.9917660572       23.5229445140  TIP3      1719            0.0000000000
     56671      3079  TIP3      H1            -14.3495960835      -40.9070296877       24.3830243590  TIP3      1719            0.0000000000
     56672      3079  TIP3      H2            -15.4799239526      -40.2684334743       23.7215203674  TIP3      1719            0.0000000000
     56673      3080  TIP3      OH2            -9.2319103463       38.0044458291       30.9138520034  TIP3      1720            0.0000000000
     56674      3080  TIP3      H1             -9.8872933932       38.2587632335       31.6036304736  TIP3      1720            0.0000000000
     56675      3080  TIP3      H2             -9.7814580324       37.9337699088       30.1283167163  TIP3      1720            0.0000000000
     56676      3081  TIP3      OH2           -14.0146256469       39.7821812065       32.2440587175  TIP3      1721            0.0000000000
     56677      3081  TIP3      H1            -14.4771158889       40.6003254512       32.0294539057  TIP3      1721            0.0000000000
     56678      3081  TIP3      H2            -13.1997665864       40.2549453956       32.5729983974  TIP3      1721            0.0000000000
     56679      3082  TIP3      OH2            -9.2597333940       38.8342194760       22.0445406714  TIP3      1722            0.0000000000
     56680      3082  TIP3      H1            -10.2324495390       38.8256982615       21.9396083692  TIP3      1722            0.0000000000
     56681      3082  TIP3      H2             -8.8590473144       39.5170399830       22.6194913780  TIP3      1722            0.0000000000
     56682      3083  TIP3      OH2           -19.4076157027       38.7174678302       34.4124761735  TIP3      1723            0.0000000000
     56683      3083  TIP3      H1            -20.2322729684       39.0938227534       34.1193141085  TIP3      1723            0.0000000000
     56684      3083  TIP3      H2            -19.4945599000       37.8019331387       34.7294205694  TIP3      1723            0.0000000000
     56685      3084  TIP3      OH2           -10.6380271180       38.4914626927       33.2445247100  TIP3      1724            0.0000000000
     56686      3084  TIP3      H1             -9.8788101765       38.5885522386       33.8364541219  TIP3      1724            0.0000000000
     56687      3084  TIP3      H2            -10.9842216081       37.6226114560       33.4450321286  TIP3      1724            0.0000000000
     56688      3085  TIP3      OH2            -9.9979869762       38.2011740254       24.4233201347  TIP3      1725            0.0000000000
     56689      3085  TIP3      H1             -9.5707612760       38.4266883279       23.5983235990  TIP3      1725            0.0000000000
     56690      3085  TIP3      H2             -9.2971751272       38.4516988940       25.0633628455  TIP3      1725            0.0000000000
     56691      3086  TIP3      OH2           -12.3300634261       39.6858777610       24.9412984848  TIP3      1726            0.0000000000
     56692      3086  TIP3      H1            -11.7176272985       40.4117859947       25.1713580321  TIP3      1726            0.0000000000
     56693      3086  TIP3      H2            -12.7478978250       39.5925671626       25.8245647231  TIP3      1726            0.0000000000
     56694      3087  TIP3      OH2           -12.4084582436      -40.9491140885       34.2871124132  TIP3      1727            0.0000000000
     56695      3087  TIP3      H1            -12.1799500063      -40.0952506565       34.7330900725  TIP3      1727            0.0000000000
     56696      3087  TIP3      H2            -11.5034051027      -41.3098206688       34.2710983402  TIP3      1727            0.0000000000
     56697      3088  TIP3      OH2           -11.7882217050       36.9058964387       26.0976405563  TIP3      1728            0.0000000000
     56698      3088  TIP3      H1            -12.1186976135       37.5537818391       26.7472349796  TIP3      1728            0.0000000000
     56699      3088  TIP3      H2            -11.1224036271       37.4269121499       25.5970821008  TIP3      1728            0.0000000000
     56700      3089  TIP3      OH2           -15.7969557098       39.6184051622       35.8520750198  TIP3      1729            0.0000000000
     56701      3089  TIP3      H1            -15.3664793535       39.0222150409       35.2208773210  TIP3      1729            0.0000000000
     56702      3089  TIP3      H2            -15.5855713635       40.4716633719       35.4376539076  TIP3      1729            0.0000000000
     56703      3090  TIP3      OH2           -15.1231165824       37.9811720188       33.4887316819  TIP3      1730            0.0000000000
     56704      3090  TIP3      H1            -14.5507543198       38.5663318391       32.8938581880  TIP3      1730            0.0000000000
     56705      3090  TIP3      H2            -15.9794079805       38.1120628531       33.0255037153  TIP3      1730            0.0000000000
     56706      3091  TIP3      OH2           -14.2324539521       35.5689236287       33.8567619102  TIP3      1731            0.0000000000
     56707      3091  TIP3      H1            -14.4068795304       36.5543296862       33.7836418738  TIP3      1731            0.0000000000
     56708      3091  TIP3      H2            -15.0093308644       35.2906535360       33.3635486610  TIP3      1731            0.0000000000
     56709      3092  TIP3      OH2           -12.8202702510       39.5026388966       37.5822193775  TIP3      1732            0.0000000000
     56710      3092  TIP3      H1            -13.1889761865       39.6978103021       38.4725853192  TIP3      1732            0.0000000000
     56711      3092  TIP3      H2            -13.6448382322       39.5975556345       37.0856680827  TIP3      1732            0.0000000000
     56712      3093  TIP3      OH2           -10.2525644422       39.0801740432       36.5712407741  TIP3      1733            0.0000000000
     56713      3093  TIP3      H1            -11.2254271701       39.0846883021       36.6795773634  TIP3      1733            0.0000000000
     56714      3093  TIP3      H2             -9.9404242650       38.4038874481       37.1757187767  TIP3      1733            0.0000000000
     56715      3094  TIP3      OH2           -18.9327982909       38.9459059029       37.6078929623  TIP3      1734            0.0000000000
     56716      3094  TIP3      H1            -18.5784088938       38.2735815182       36.9781302902  TIP3      1734            0.0000000000
     56717      3094  TIP3      H2            -18.8781528670       38.4664411880       38.4671100907  TIP3      1734            0.0000000000
     56718      3095  TIP3      OH2           -14.0976032359       34.9139956807       36.5111464322  TIP3      1735            0.0000000000
     56719      3095  TIP3      H1            -13.3294443591       34.3230475328       36.5389402654  TIP3      1735            0.0000000000
     56720      3095  TIP3      H2            -14.1476456603       35.2130284562       35.5809632013  TIP3      1735            0.0000000000
     56721      3096  TIP3      OH2           -13.6602779108       36.5910020235       38.6296028029  TIP3      1736            0.0000000000
     56722      3096  TIP3      H1            -13.8525399659       36.1197674052       37.7967345718  TIP3      1736            0.0000000000
     56723      3096  TIP3      H2            -14.2538811922       37.3660003732       38.5796459934  TIP3      1736            0.0000000000
     56724      3097  TIP3      OH2            -6.0301745962       38.7256488268       20.2037559462  TIP3      1737            0.0000000000
     56725      3097  TIP3      H1             -5.3136198745       38.2222411441       20.6486964829  TIP3      1737            0.0000000000
     56726      3097  TIP3      H2             -6.7112509889       38.0323858824       20.2041219530  TIP3      1737            0.0000000000
     56727      3098  TIP3      OH2            -6.3489752513       40.0527898485       25.0266570646  TIP3      1738            0.0000000000
     56728      3098  TIP3      H1             -5.9463823871       39.1934754867       25.1907508230  TIP3      1738            0.0000000000
     56729      3098  TIP3      H2             -5.5852242944       40.5762745121       24.7028215238  TIP3      1738            0.0000000000
     56730      3099  TIP3      OH2            -5.4149919102      -41.0627671705       30.9170701932  TIP3      1739            0.0000000000
     56731      3099  TIP3      H1             -4.7709186999      -40.4404581964       30.5448949460  TIP3      1739            0.0000000000
     56732      3099  TIP3      H2             -5.9221512013      -40.4696541383       31.4827876231  TIP3      1739            0.0000000000
     56733      3100  TIP3      OH2           -21.2823905311       39.9841455633       36.9107501550  TIP3      1740            0.0000000000
     56734      3100  TIP3      H1            -20.2997892086       39.8756695436       37.0567161445  TIP3      1740            0.0000000000
     56735      3100  TIP3      H2            -21.6127804958       39.3004638254       37.5279241061  TIP3      1740            0.0000000000
     56736      3101  TIP3      OH2           -11.4154311919       37.1450721018       29.1169288738  TIP3      1741            0.0000000000
     56737      3101  TIP3      H1            -12.1234845035       36.5164175971       29.3174642535  TIP3      1741            0.0000000000
     56738      3101  TIP3      H2            -10.8824689828       36.6357988991       28.5004163934  TIP3      1741            0.0000000000
     56739      3102  TIP3      OH2            -8.8987137472       35.7047245515       28.3579944204  TIP3      1742            0.0000000000
     56740      3102  TIP3      H1             -8.9048985589       35.8198655520       27.3987321155  TIP3      1742            0.0000000000
     56741      3102  TIP3      H2             -9.2919285649       34.8157508765       28.4678998336  TIP3      1742            0.0000000000
     56742      3103  TIP3      OH2           -13.4259705045       37.7762304465       23.4853634718  TIP3      1743            0.0000000000
     56743      3103  TIP3      H1            -13.1831362711       37.1295990021       24.1871355899  TIP3      1743            0.0000000000
     56744      3103  TIP3      H2            -13.4008074286       38.5316360905       24.1017652296  TIP3      1743            0.0000000000
     56745      3104  TIP3      OH2           -19.2005258076       36.3505689619       36.4575914189  TIP3      1744            0.0000000000
     56746      3104  TIP3      H1            -19.5530081993       35.5005484738       36.7809199080  TIP3      1744            0.0000000000
     56747      3104  TIP3      H2            -18.2599936902       36.2327712947       36.7230971790  TIP3      1744            0.0000000000
     56748      3105  TIP3      OH2           -17.1374639476       35.6823040234       38.0261213824  TIP3      1745            0.0000000000
     56749      3105  TIP3      H1            -16.2478511181       35.3579472447       37.8116417139  TIP3      1745            0.0000000000
     56750      3105  TIP3      H2            -17.5391536874       34.8847949200       38.3962149284  TIP3      1745            0.0000000000
     56751      3106  TIP3      OH2             2.3478463110       38.5051483525       28.4471606812  TIP3      1746            0.0000000000
     56752      3106  TIP3      H1              2.5692858393       39.4130441703       28.0717573222  TIP3      1746            0.0000000000
     56753      3106  TIP3      H2              1.9306409434       38.2534564502       27.5925013396  TIP3      1746            0.0000000000
     56754      3107  TIP3      OH2            10.1448858397       39.2705314165       26.6879203726  TIP3      1747            0.0000000000
     56755      3107  TIP3      H1             10.8078675212       38.9136994791       27.3255061481  TIP3      1747            0.0000000000
     56756      3107  TIP3      H2             10.7292614016       39.7503927055       26.1057670010  TIP3      1747            0.0000000000
     56757      3108  TIP3      OH2             1.3002746120       37.9958140562       32.4450522310  TIP3      1748            0.0000000000
     56758      3108  TIP3      H1              1.0529940640       38.5102876682       31.6247084966  TIP3      1748            0.0000000000
     56759      3108  TIP3      H2              0.5651656164       38.2597839359       33.0020024986  TIP3      1748            0.0000000000
     56760      3109  TIP3      OH2            12.0068945660       38.4069004088       28.6110611233  TIP3      1749            0.0000000000
     56761      3109  TIP3      H1             11.7274746745       37.7785393670       29.2765279978  TIP3      1749            0.0000000000
     56762      3109  TIP3      H2             12.5398871329       39.0305488478       29.1507678923  TIP3      1749            0.0000000000
     56763      3110  TIP3      OH2             0.7841920303       39.6050544032       30.4893534386  TIP3      1750            0.0000000000
     56764      3110  TIP3      H1              1.3020728959       40.4277264336       30.6730225682  TIP3      1750            0.0000000000
     56765      3110  TIP3      H2              1.1834502648       39.3025034687       29.6611829525  TIP3      1750            0.0000000000
     56766      3111  TIP3      OH2             5.2793159023       35.3471973154       29.9173428703  TIP3      1751            0.0000000000
     56767      3111  TIP3      H1              5.1643822471       34.3887089173       29.7449924741  TIP3      1751            0.0000000000
     56768      3111  TIP3      H2              4.3732259668       35.6460395094       30.0178122614  TIP3      1751            0.0000000000
     56769      3112  TIP3      OH2             7.1042212191       36.1023660369       34.1685349422  TIP3      1752            0.0000000000
     56770      3112  TIP3      H1              7.7880150288       35.5225306308       34.6030107160  TIP3      1752            0.0000000000
     56771      3112  TIP3      H2              6.3662039645       35.5698771665       33.8778391640  TIP3      1752            0.0000000000
     56772      3113  TIP3      OH2            10.6511535854       39.9149631577       34.9664626285  TIP3      1753            0.0000000000
     56773      3113  TIP3      H1              9.9863440874       39.4502850730       35.5431698380  TIP3      1753            0.0000000000
     56774      3113  TIP3      H2             10.2051210163       40.5326548962       34.4151364456  TIP3      1753            0.0000000000
     56775      3114  TIP3      OH2             3.8110241699       38.9115749649       19.8862687181  TIP3      1754            0.0000000000
     56776      3114  TIP3      H1              3.5997191680       38.5387353159       20.7860911900  TIP3      1754            0.0000000000
     56777      3114  TIP3      H2              2.9964436118       39.3758261936       19.8012567739  TIP3      1754            0.0000000000
     56778      3115  TIP3      OH2            -1.8305882722       38.9697727421       22.6456025598  TIP3      1755            0.0000000000
     56779      3115  TIP3      H1             -1.2741056216       39.6859264492       22.2853253114  TIP3      1755            0.0000000000
     56780      3115  TIP3      H2             -2.3484025392       39.6187446005       23.1423001810  TIP3      1755            0.0000000000
     56781      3116  TIP3      OH2             5.0077032631       37.3890367856       27.7781546511  TIP3      1756            0.0000000000
     56782      3116  TIP3      H1              4.3384538197       38.1070579402       27.8175770693  TIP3      1756            0.0000000000
     56783      3116  TIP3      H2              5.6842877967       38.0284218281       28.1183501624  TIP3      1756            0.0000000000
     56784      3117  TIP3      OH2             3.2885024306      -41.0373872978       23.8088212136  TIP3      1757            0.0000000000
     56785      3117  TIP3      H1              4.2311721487      -41.1594083106       24.0253616603  TIP3      1757            0.0000000000
     56786      3117  TIP3      H2              3.3374738336      -40.2249758079       23.2905248817  TIP3      1757            0.0000000000
     56787      3118  TIP3      OH2             9.6635994333       38.0475289207       30.8580576854  TIP3      1758            0.0000000000
     56788      3118  TIP3      H1              9.0177592246       38.2021038208       31.5878589148  TIP3      1758            0.0000000000
     56789      3118  TIP3      H2              9.0783753196       37.9015070853       30.1167944908  TIP3      1758            0.0000000000
     56790      3119  TIP3      OH2             5.0688464520       39.7325941522       32.2076694656  TIP3      1759            0.0000000000
     56791      3119  TIP3      H1              4.3913000308       40.4284670732       32.1360403166  TIP3      1759            0.0000000000
     56792      3119  TIP3      H2              5.7319746196       40.2560515639       32.7054107065  TIP3      1759            0.0000000000
     56793      3120  TIP3      OH2             9.6642700680       39.1950588411       21.7612433265  TIP3      1760            0.0000000000
     56794      3120  TIP3      H1              8.6850115735       39.0611739487       21.7343016795  TIP3      1760            0.0000000000
     56795      3120  TIP3      H2              9.8686526544       39.9748991736       22.2485639444  TIP3      1760            0.0000000000
     56796      3121  TIP3      OH2            -0.5103017469       38.7760036426       34.6413880444  TIP3      1761            0.0000000000
     56797      3121  TIP3      H1             -1.3418942718       39.0450448776       34.1613509748  TIP3      1761            0.0000000000
     56798      3121  TIP3      H2             -0.6829684005       37.8058864684       34.6094622393  TIP3      1761            0.0000000000
     56799      3122  TIP3      OH2             8.1815955298       38.4772620163       33.2321246363  TIP3      1762            0.0000000000
     56800      3122  TIP3      H1              8.9509438352       38.4718024298       33.8189850107  TIP3      1762            0.0000000000
     56801      3122  TIP3      H2              7.8982816713       37.5517750258       33.3776469259  TIP3      1762            0.0000000000
     56802      3123  TIP3      OH2             8.9973639269       38.1453761565       24.3431890445  TIP3      1763            0.0000000000
     56803      3123  TIP3      H1              9.2810472619       38.4572251715       23.4770087144  TIP3      1763            0.0000000000
     56804      3123  TIP3      H2              9.6278697788       38.4745574061       24.9820910611  TIP3      1763            0.0000000000
     56805      3124  TIP3      OH2             6.6294309817       39.0810287707       24.5921247969  TIP3      1764            0.0000000000
     56806      3124  TIP3      H1              7.1064724569       39.8944721649       24.7486484605  TIP3      1764            0.0000000000
     56807      3124  TIP3      H2              6.0366482386       39.3021321058       25.3469340074  TIP3      1764            0.0000000000
     56808      3125  TIP3      OH2             6.7609560940      -40.6913223277       34.3464857775  TIP3      1765            0.0000000000
     56809      3125  TIP3      H1              6.7307155166      -39.9580406190       35.0032882445  TIP3      1765            0.0000000000
     56810      3125  TIP3      H2              7.4551049411      -41.3205466289       34.4939991507  TIP3      1765            0.0000000000
     56811      3126  TIP3      OH2             7.2889813409       36.8222506314       26.2015868937  TIP3      1766            0.0000000000
     56812      3126  TIP3      H1              6.7029771673       37.4689694679       26.6291447409  TIP3      1766            0.0000000000
     56813      3126  TIP3      H2              7.7012672798       37.3766162114       25.4989407204  TIP3      1766            0.0000000000
     56814      3127  TIP3      OH2             3.1755111769       38.3563425043       22.1697110964  TIP3      1767            0.0000000000
     56815      3127  TIP3      H1              2.8044163074       38.9785938014       22.8512611184  TIP3      1767            0.0000000000
     56816      3127  TIP3      H2              3.5649502966       37.7342501766       22.8160856121  TIP3      1767            0.0000000000
     56817      3128  TIP3      OH2            13.0275028825       38.9474028951       35.1622193562  TIP3      1768            0.0000000000
     56818      3128  TIP3      H1             12.0620498659       38.8666217491       35.0523525081  TIP3      1768            0.0000000000
     56819      3128  TIP3      H2             13.3001277474       38.5688738608       34.3123825362  TIP3      1768            0.0000000000
     56820      3129  TIP3      OH2             3.1871316798       39.7385769457       35.8774757344  TIP3      1769            0.0000000000
     56821      3129  TIP3      H1              3.5655971330       39.1802729898       35.1877844726  TIP3      1769            0.0000000000
     56822      3129  TIP3      H2              3.4326939573       40.6187711728       35.4836132278  TIP3      1769            0.0000000000
     56823      3130  TIP3      OH2             3.7703743075       38.0126946151       33.5213116831  TIP3      1770            0.0000000000
     56824      3130  TIP3      H1              4.2990797057       38.6065487432       32.8878806061  TIP3      1770            0.0000000000
     56825      3130  TIP3      H2              2.9315598428       38.0695895572       32.9882141352  TIP3      1770            0.0000000000
     56826      3131  TIP3      OH2             4.5232730712       35.5603487725       33.6448937968  TIP3      1771            0.0000000000
     56827      3131  TIP3      H1              4.4317296029       36.5292438102       33.3993406872  TIP3      1771            0.0000000000
     56828      3131  TIP3      H2              3.7558633321       35.2016274465       33.1322054630  TIP3      1771            0.0000000000
     56829      3132  TIP3      OH2             5.9133463875       39.7374585139       37.4006676160  TIP3      1772            0.0000000000
     56830      3132  TIP3      H1              5.6450096823       39.7665208622       38.3399900831  TIP3      1772            0.0000000000
     56831      3132  TIP3      H2              5.0843537159       39.8885509741       36.9289499002  TIP3      1772            0.0000000000
     56832      3133  TIP3      OH2             8.6065136980       39.1729023936       36.5554957549  TIP3      1773            0.0000000000
     56833      3133  TIP3      H1              7.6411683630       39.1078098976       36.6769210842  TIP3      1773            0.0000000000
     56834      3133  TIP3      H2              8.9088065978       38.4037844187       37.0919126887  TIP3      1773            0.0000000000
     56835      3134  TIP3      OH2             0.5113683135       37.7646071191       38.1954797292  TIP3      1774            0.0000000000
     56836      3134  TIP3      H1              0.1874143762       37.4537628339       37.2916531092  TIP3      1774            0.0000000000
     56837      3134  TIP3      H2             -0.2156524843       38.1249639920       38.7732500263  TIP3      1774            0.0000000000
     56838      3135  TIP3      OH2             4.8911334519       34.4368384030       36.6855362260  TIP3      1775            0.0000000000
     56839      3135  TIP3      H1              5.7604007759       33.9883513010       36.7493554296  TIP3      1775            0.0000000000
     56840      3135  TIP3      H2              4.6653024683       34.2866864828       35.7574135580  TIP3      1775            0.0000000000
     56841      3136  TIP3      OH2             5.2627427643       36.6142707736       38.5571745099  TIP3      1776            0.0000000000
     56842      3136  TIP3      H1              4.9805531980       35.9933997886       37.9098961296  TIP3      1776            0.0000000000
     56843      3136  TIP3      H2              4.6331166210       37.3834336320       38.6084602837  TIP3      1776            0.0000000000
     56844      3137  TIP3      OH2            12.7748473617       38.7475587847       20.0724563405  TIP3      1777            0.0000000000
     56845      3137  TIP3      H1             13.5033546559       38.2996042078       20.6158409623  TIP3      1777            0.0000000000
     56846      3137  TIP3      H2             12.0922169564       38.0872813768       20.3263778372  TIP3      1777            0.0000000000
     56847      3138  TIP3      OH2            13.3949138482      -41.0394625332       30.8938956797  TIP3      1778            0.0000000000
     56848      3138  TIP3      H1             14.1150821675      -40.5264207018       30.5002269566  TIP3      1778            0.0000000000
     56849      3138  TIP3      H2             12.9296254159      -40.4670467413       31.4846812934  TIP3      1778            0.0000000000
     56850      3139  TIP3      OH2            -2.4998103647       39.6318925122       37.4009997653  TIP3      1779            0.0000000000
     56851      3139  TIP3      H1             -1.9121374577       39.7641209611       36.6882082956  TIP3      1779            0.0000000000
     56852      3139  TIP3      H2             -3.1643553046       38.9689196206       37.0730360739  TIP3      1779            0.0000000000
     56853      3140  TIP3      OH2            14.9983356312       37.5966936241       21.4613905451  TIP3      1780            0.0000000000
     56854      3140  TIP3      H1             15.4628465584       36.7934248253       21.1764610465  TIP3      1780            0.0000000000
     56855      3140  TIP3      H2             15.7613564519       38.1469755045       21.7309128514  TIP3      1780            0.0000000000
     56856      3141  TIP3      OH2             7.4611783862       37.1295570442       29.1474519649  TIP3      1781            0.0000000000
     56857      3141  TIP3      H1              6.7408051179       36.4921610242       29.3336428410  TIP3      1781            0.0000000000
     56858      3141  TIP3      H2              7.9336408139       36.6370273408       28.4614920132  TIP3      1781            0.0000000000
     56859      3142  TIP3      OH2             4.2782285116       35.3641671109       26.6692064554  TIP3      1782            0.0000000000
     56860      3142  TIP3      H1              5.0327691323       36.0021676011       26.6110086303  TIP3      1782            0.0000000000
     56861      3142  TIP3      H2              4.1944106332       35.4613369770       27.6211721258  TIP3      1782            0.0000000000
     56862      3143  TIP3      OH2             0.4528206360       37.4500377090       21.1606102777  TIP3      1783            0.0000000000
     56863      3143  TIP3      H1              0.9578829083       36.8424716949       20.6325376039  TIP3      1783            0.0000000000
     56864      3143  TIP3      H2              1.0774796429       37.7907307495       21.7951516732  TIP3      1783            0.0000000000
     56865      3144  TIP3      OH2            -0.2900424296       36.2827788055       36.3245878675  TIP3      1784            0.0000000000
     56866      3144  TIP3      H1             -0.7669291663       35.5111879090       36.7411317597  TIP3      1784            0.0000000000
     56867      3144  TIP3      H2              0.5742482224       36.1205686952       36.7609696184  TIP3      1784            0.0000000000
     56868      3145  TIP3      OH2             1.7818862931       35.5653241617       37.8868999938  TIP3      1785            0.0000000000
     56869      3145  TIP3      H1              2.6527628135       35.1915519737       37.8649388212  TIP3      1785            0.0000000000
     56870      3145  TIP3      H2              1.3157094619       34.8803799488       38.4334917962  TIP3      1785            0.0000000000
     56871      3146  TIP3      OH2            33.6401748564       38.1532958606       31.4613345892  TIP3      1786            0.0000000000
     56872      3146  TIP3      H1             33.7306488917       38.7752649565       32.2330656639  TIP3      1786            0.0000000000
     56873      3146  TIP3      H2             34.1425911357       38.6650981890       30.8317516459  TIP3      1786            0.0000000000
     56874      3147  TIP3      OH2            29.1394148527       39.4635058329       26.9140263484  TIP3      1787            0.0000000000
     56875      3147  TIP3      H1             29.7200765727       38.7624519147       27.2658644508  TIP3      1787            0.0000000000
     56876      3147  TIP3      H2             29.5059881799       39.6321127502       26.0300256051  TIP3      1787            0.0000000000
     56877      3148  TIP3      OH2            33.7092431933       39.4963878178       33.6289211050  TIP3      1788            0.0000000000
     56878      3148  TIP3      H1             33.4985893590       40.4412554592       33.6074245285  TIP3      1788            0.0000000000
     56879      3148  TIP3      H2             34.0131251569       39.4078899935       34.5417337083  TIP3      1788            0.0000000000
     56880      3149  TIP3      OH2            30.6161484739       38.7041189651       28.8811514454  TIP3      1789            0.0000000000
     56881      3149  TIP3      H1             30.6132789823       37.7520907227       29.1343275107  TIP3      1789            0.0000000000
     56882      3149  TIP3      H2             31.5361776936       38.8962904307       29.1536688782  TIP3      1789            0.0000000000
     56883      3150  TIP3      OH2            31.1015962051       37.2525751706       32.3173595673  TIP3      1790            0.0000000000
     56884      3150  TIP3      H1             30.3963585505       37.8941495461       32.2579116721  TIP3      1790            0.0000000000
     56885      3150  TIP3      H2             31.8775572015       37.6582586822       31.8806367082  TIP3      1790            0.0000000000
     56886      3151  TIP3      OH2            26.1097258913       36.0751015555       34.0513813187  TIP3      1791            0.0000000000
     56887      3151  TIP3      H1             26.5084773285       35.4592414448       34.6700341515  TIP3      1791            0.0000000000
     56888      3151  TIP3      H2             25.1938620337       35.7583645750       34.0292925214  TIP3      1791            0.0000000000
     56889      3152  TIP3      OH2            29.3610382583       39.7134495374       34.7968907029  TIP3      1792            0.0000000000
     56890      3152  TIP3      H1             28.8371514738       39.5775421900       35.6169093567  TIP3      1792            0.0000000000
     56891      3152  TIP3      H2             29.2422677095       40.6482299067       34.6287031548  TIP3      1792            0.0000000000
     56892      3153  TIP3      OH2            17.0371139446       39.2657766035       22.8039437941  TIP3      1793            0.0000000000
     56893      3153  TIP3      H1             17.5193874938       39.8712979958       22.2282137801  TIP3      1793            0.0000000000
     56894      3153  TIP3      H2             16.4013233304       39.8554508200       23.2086120199  TIP3      1793            0.0000000000
     56895      3154  TIP3      OH2            28.4894188682       38.2137082343       30.8683873723  TIP3      1794            0.0000000000
     56896      3154  TIP3      H1             27.8558153370       38.1614784565       31.6250638294  TIP3      1794            0.0000000000
     56897      3154  TIP3      H2             27.9983800004       37.8144706008       30.1388924903  TIP3      1794            0.0000000000
     56898      3155  TIP3      OH2            28.3112524278       39.4933320260       21.6104019337  TIP3      1795            0.0000000000
     56899      3155  TIP3      H1             27.5214995414       39.0037397958       21.9957174614  TIP3      1795            0.0000000000
     56900      3155  TIP3      H2             28.7384219022       39.7393090718       22.4781284564  TIP3      1795            0.0000000000
     56901      3156  TIP3      OH2            27.1299781188       38.4886423580       33.1387020600  TIP3      1796            0.0000000000
     56902      3156  TIP3      H1             27.7835029636       38.5431845329       33.8579223250  TIP3      1796            0.0000000000
     56903      3156  TIP3      H2             26.6953709910       37.6337032484       33.3890313792  TIP3      1796            0.0000000000
     56904      3157  TIP3      OH2            25.6211674874      -41.3081552743       34.9914027889  TIP3      1797            0.0000000000
     56905      3157  TIP3      H1             25.5817116288      -40.3362789870       35.0554924546  TIP3      1797            0.0000000000
     56906      3157  TIP3      H2             26.3482924551      -41.4597556563       34.3578991981  TIP3      1797            0.0000000000
     56907      3158  TIP3      OH2            31.8032384965       38.7534601017       35.2357509972  TIP3      1798            0.0000000000
     56908      3158  TIP3      H1             30.8751011450       39.0023198507       35.0818849242  TIP3      1798            0.0000000000
     56909      3158  TIP3      H2             32.1166399224       38.7109393562       34.3118265138  TIP3      1798            0.0000000000
     56910      3159  TIP3      OH2            23.3715465978       35.6180918781       33.8878688784  TIP3      1799            0.0000000000
     56911      3159  TIP3      H1             23.3446614845       36.5778396433       33.7271978828  TIP3      1799            0.0000000000
     56912      3159  TIP3      H2             22.6974081884       35.2784755152       33.2787843791  TIP3      1799            0.0000000000
     56913      3160  TIP3      OH2            24.9548374316       39.5652621508       37.6974413823  TIP3      1800            0.0000000000
     56914      3160  TIP3      H1             24.5381760933       39.6641230151       38.5499081622  TIP3      1800            0.0000000000
     56915      3160  TIP3      H2             24.1785997876       39.5605854444       37.1204499640  TIP3      1800            0.0000000000
     56916      3161  TIP3      OH2            27.4862816956       39.1140657835       36.5685980546  TIP3      1801            0.0000000000
     56917      3161  TIP3      H1             26.5102112494       39.0758687097       36.6493964726  TIP3      1801            0.0000000000
     56918      3161  TIP3      H2             27.7646205012       38.4428710679       37.2011668539  TIP3      1801            0.0000000000
     56919      3162  TIP3      OH2            29.0307204230       37.7139676480       38.4937582598  TIP3      1802            0.0000000000
     56920      3162  TIP3      H1             28.9866307869       36.7579868013       38.5107874801  TIP3      1802            0.0000000000
     56921      3162  TIP3      H2             28.7844642990       37.9768188204       39.3977742633  TIP3      1802            0.0000000000
     56922      3163  TIP3      OH2            23.5981227107       34.8244542551       36.4734261457  TIP3      1803            0.0000000000
     56923      3163  TIP3      H1             24.4261015764       34.3280810877       36.5395888631  TIP3      1803            0.0000000000
     56924      3163  TIP3      H2             23.6363233391       35.2274868722       35.5807698900  TIP3      1803            0.0000000000
     56925      3164  TIP3      OH2            24.0969102230       36.6759133505       38.5554534054  TIP3      1804            0.0000000000
     56926      3164  TIP3      H1             23.8630705022       36.0816326984       37.8215797397  TIP3      1804            0.0000000000
     56927      3164  TIP3      H2             23.3941463404       37.3143328100       38.5448380495  TIP3      1804            0.0000000000
     56928      3165  TIP3      OH2            31.5049444001       38.7614562591       20.2407607363  TIP3      1805            0.0000000000
     56929      3165  TIP3      H1             32.3945704984       38.3426960037       20.4897159562  TIP3      1805            0.0000000000
     56930      3165  TIP3      H2             31.1445575839       37.8550781375       20.1886754132  TIP3      1805            0.0000000000
     56931      3166  TIP3      OH2            31.4933103711       40.1110242487       25.2086051847  TIP3      1806            0.0000000000
     56932      3166  TIP3      H1             31.6758878354       39.1718329569       25.1595998401  TIP3      1806            0.0000000000
     56933      3166  TIP3      H2             32.1097444574       40.6081534146       24.6452850745  TIP3      1806            0.0000000000
     56934      3167  TIP3      OH2            32.1540023520      -40.9935730976       30.9492064076  TIP3      1807            0.0000000000
     56935      3167  TIP3      H1             32.9544702397      -40.5297912914       30.6223282639  TIP3      1807            0.0000000000
     56936      3167  TIP3      H2             31.8598110752      -40.4077653899       31.6385059535  TIP3      1807            0.0000000000
     56937      3168  TIP3      OH2            33.8832815235       37.5219925673       36.9140057038  TIP3      1808            0.0000000000
     56938      3168  TIP3      H1             32.9422368146       37.8508928278       36.9244952067  TIP3      1808            0.0000000000
     56939      3168  TIP3      H2             33.8899083572       36.9682588627       36.1310606947  TIP3      1808            0.0000000000
     56940      3169  TIP3      OH2            33.0302879675       36.0816001982       28.2306005682  TIP3      1809            0.0000000000
     56941      3169  TIP3      H1             33.3308584102       35.6618612636       27.4004216712  TIP3      1809            0.0000000000
     56942      3169  TIP3      H2             33.1728721544       37.0011166662       27.9880536955  TIP3      1809            0.0000000000
     56943      3170  TIP3      OH2            39.4217656939       38.1483471646       28.2149250666  TIP3      1810            0.0000000000
     56944      3170  TIP3      H1             39.7482386224       39.0614584589       28.0746351013  TIP3      1810            0.0000000000
     56945      3170  TIP3      H2             39.6187091307       38.1390421005       27.2492121924  TIP3      1810            0.0000000000
     56946      3171  TIP3      OH2            38.6096194028       36.6021355710       32.9957470960  TIP3      1811            0.0000000000
     56947      3171  TIP3      H1             39.1256122191       37.3094893172       32.4551875075  TIP3      1811            0.0000000000
     56948      3171  TIP3      H2             38.3273427750       37.3840666416       33.4395503131  TIP3      1811            0.0000000000
     56949      3172  TIP3      OH2            38.4600700428       40.8983535969       31.6956899214  TIP3      1812            0.0000000000
     56950      3172  TIP3      H1             39.1371419139       40.9693448573       31.0476223490  TIP3      1812            0.0000000000
     56951      3172  TIP3      H2             38.0971708386       40.2344258928       30.9463282048  TIP3      1812            0.0000000000
     56952      3173  TIP3      OH2            39.8633011363       35.6726649899       31.3535563837  TIP3      1813            0.0000000000
     56953      3173  TIP3      H1             39.2858225073       36.1289467305       30.6909141746  TIP3      1813            0.0000000000
     56954      3173  TIP3      H2             40.3398067811       36.5218841834       31.2358322068  TIP3      1813            0.0000000000
     56955      3174  TIP3      OH2            32.9517989149       38.7107769668       27.5930366654  TIP3      1814            0.0000000000
     56956      3174  TIP3      H1             33.7317415493       38.7089331111       28.2350405334  TIP3      1814            0.0000000000
     56957      3174  TIP3      H2             33.7268801836       38.5625856374       26.9888783702  TIP3      1814            0.0000000000
     56958      3175  TIP3      OH2            36.1644934108       38.8752589024       22.2753747045  TIP3      1815            0.0000000000
     56959      3175  TIP3      H1             36.7421169809       39.5914002682       21.9411925176  TIP3      1815            0.0000000000
     56960      3175  TIP3      H2             35.6014791395       39.5417979126       22.5344308411  TIP3      1815            0.0000000000
     56961      3176  TIP3      OH2            37.6063601984       40.7472176646       26.4665656377  TIP3      1816            0.0000000000
     56962      3176  TIP3      H1             36.7245884107       40.7077556465       26.1887720808  TIP3      1816            0.0000000000
     56963      3176  TIP3      H2             38.0160994658       39.8665330252       26.2383608296  TIP3      1816            0.0000000000
     56964      3177  TIP3      OH2            39.1348833735       37.5882142024       26.0235872496  TIP3      1817            0.0000000000
     56965      3177  TIP3      H1             39.0120781535       36.6572012783       25.8614250396  TIP3      1817            0.0000000000
     56966      3177  TIP3      H2             40.0336879240       37.6954547307       25.6304654823  TIP3      1817            0.0000000000
     56967      3178  TIP3      OH2            36.5384986186       38.2996402722       34.9865837953  TIP3      1818            0.0000000000
     56968      3178  TIP3      H1             36.3398114527       38.9558697831       34.2317908103  TIP3      1818            0.0000000000
     56969      3178  TIP3      H2             37.1278906715       37.6236195765       34.6422365299  TIP3      1818            0.0000000000
     56970      3179  TIP3      OH2           -40.1671811255       37.7639894559       21.7044529794  TIP3      1819            0.0000000000
     56971      3179  TIP3      H1            -40.8091196384       38.4723499861       22.0735839460  TIP3      1819            0.0000000000
     56972      3179  TIP3      H2            -40.0184343957       37.5303427998       22.6540576632  TIP3      1819            0.0000000000
     56973      3180  TIP3      OH2            37.9918908609       36.5091807775       30.0143378150  TIP3      1820            0.0000000000
     56974      3180  TIP3      H1             37.7004939082       36.7142827578       29.0963146072  TIP3      1820            0.0000000000
     56975      3180  TIP3      H2             37.4260005392       35.7481505415       30.3927890756  TIP3      1820            0.0000000000
     56976      3181  TIP3      OH2            37.3494901633       37.6033691631       37.6744016047  TIP3      1821            0.0000000000
     56977      3181  TIP3      H1             37.8136251221       38.0853923672       36.9323447115  TIP3      1821            0.0000000000
     56978      3181  TIP3      H2             37.3971629832       38.3920951111       38.2888669237  TIP3      1821            0.0000000000
     56979      3182  TIP3      OH2            34.5124658140       39.9045941601       37.5114097437  TIP3      1822            0.0000000000
     56980      3182  TIP3      H1             35.4546336130       39.9556942019       37.2269797696  TIP3      1822            0.0000000000
     56981      3182  TIP3      H2             34.3848657420       38.9997908372       37.1592456845  TIP3      1822            0.0000000000
     56982      3183  TIP3      OH2            36.3239213217       38.0513609004       29.6644876899  TIP3      1823            0.0000000000
     56983      3183  TIP3      H1             36.8650294583       37.4597461556       30.1920736138  TIP3      1823            0.0000000000
     56984      3183  TIP3      H2             36.7370146755       38.8930239357       29.9777142894  TIP3      1823            0.0000000000
     56985      3184  TIP3      OH2            34.0236877493       37.5023267358       23.5543923811  TIP3      1824            0.0000000000
     56986      3184  TIP3      H1             33.8596561731       37.3940642398       24.5220912543  TIP3      1824            0.0000000000
     56987      3184  TIP3      H2             35.0153592633       37.3582992364       23.6216449624  TIP3      1824            0.0000000000
     56988      3185  TIP3      OH2            34.8632078613       36.0767312617       32.9850688436  TIP3      1825            0.0000000000
     56989      3185  TIP3      H1             34.2197755353       35.9306860355       33.7003096187  TIP3      1825            0.0000000000
     56990      3185  TIP3      H2             34.5044951835       36.8385484171       32.5090007122  TIP3      1825            0.0000000000
     56991      3186  TIP3      OH2            37.7353097435       35.8318838076       27.0872892692  TIP3      1826            0.0000000000
     56992      3186  TIP3      H1             36.9098971352       35.7618944192       26.5391962351  TIP3      1826            0.0000000000
     56993      3186  TIP3      H2             38.0948812234       35.1429178894       26.4933752902  TIP3      1826            0.0000000000
     56994      3187  TIP3      OH2            36.0461092069       35.7356786990       21.7119760348  TIP3      1827            0.0000000000
     56995      3187  TIP3      H1             36.9352507741       36.1671310245       21.8431233636  TIP3      1827            0.0000000000
     56996      3187  TIP3      H2             35.6306676306       35.9196770253       22.5291713350  TIP3      1827            0.0000000000
     56997      3188  TIP3      OH2            37.7322373965       37.2617995604       20.8043821370  TIP3      1828            0.0000000000
     56998      3188  TIP3      H1             38.4445872689       36.7055078955       20.4802883433  TIP3      1828            0.0000000000
     56999      3188  TIP3      H2             38.3651022790       37.6786354127       21.4232034920  TIP3      1828            0.0000000000
     57000      3189  TIP3      OH2            37.5683578904       35.8890082301       35.9412465790  TIP3      1829            0.0000000000
     57001      3189  TIP3      H1             36.7265486198       35.9505769612       36.4619549846  TIP3      1829            0.0000000000
     57002      3189  TIP3      H2             38.2296524417       36.4543896757       36.4355724622  TIP3      1829            0.0000000000
     57003      3190  TIP3      OH2            39.5234428315       35.6263891866       38.0842482441  TIP3      1830            0.0000000000
     57004      3190  TIP3      H1             40.4163088495       35.5489033233       37.6456824702  TIP3      1830            0.0000000000
     57005      3190  TIP3      H2             39.4554312356       34.9132704464       38.7006721199  TIP3      1830            0.0000000000
     57006      3191  TIP3      OH2           -26.3594428253      -30.8907424963       39.5295562550  TIP3      1831            0.0000000000
     57007      3191  TIP3      H1            -26.4547163831      -31.0739664713       38.5539867320  TIP3      1831            0.0000000000
     57008      3191  TIP3      H2            -25.5278834934      -30.4470700314       39.5871665015  TIP3      1831            0.0000000000
     57009      3192  TIP3      OH2           -30.8800083459      -37.0182223017       40.1201605301  TIP3      1832            0.0000000000
     57010      3192  TIP3      H1            -31.1474810138      -36.9977777854       41.0328901020  TIP3      1832            0.0000000000
     57011      3192  TIP3      H2            -31.1374443738      -37.8921501576       39.7727869631  TIP3      1832            0.0000000000
     57012      3193  TIP3      OH2           -33.9906004156      -36.6057182746       39.1279075578  TIP3      1833            0.0000000000
     57013      3193  TIP3      H1            -34.4010475434      -36.9307554855       39.9520722193  TIP3      1833            0.0000000000
     57014      3193  TIP3      H2            -34.6839019337      -36.0885620568       38.6891043712  TIP3      1833            0.0000000000
     57015      3194  TIP3      OH2           -39.2453862624      -35.9250255336       41.7170203495  TIP3      1834            0.0000000000
     57016      3194  TIP3      H1            -38.8391171133      -35.3109224718       41.1204529430  TIP3      1834            0.0000000000
     57017      3194  TIP3      H2            -40.0269060495      -35.4640898506       42.0526979051  TIP3      1834            0.0000000000
     57018      3195  TIP3      OH2           -22.3400934258      -34.3509434332       42.0404693503  TIP3      1835            0.0000000000
     57019      3195  TIP3      H1            -23.0221720021      -34.6957989856       41.4346597187  TIP3      1835            0.0000000000
     57020      3195  TIP3      H2            -22.4194920294      -33.4059563212       41.8452358084  TIP3      1835            0.0000000000
     57021      3196  TIP3      OH2           -32.7652367062      -26.3986450470       38.8182649712  TIP3      1836            0.0000000000
     57022      3196  TIP3      H1            -32.4642924905      -27.1435036223       38.2516433233  TIP3      1836            0.0000000000
     57023      3196  TIP3      H2            -32.9903656762      -26.8489869764       39.6480980694  TIP3      1836            0.0000000000
     57024      3197  TIP3      OH2           -33.8335089898      -26.8819079986       41.3014776051  TIP3      1837            0.0000000000
     57025      3197  TIP3      H1            -33.5890325461      -27.3743545544       42.0892454152  TIP3      1837            0.0000000000
     57026      3197  TIP3      H2            -33.7197143362      -25.9492464079       41.5904116893  TIP3      1837            0.0000000000
     57027      3198  TIP3      OH2           -33.7626551605      -24.1424487837       42.0222444299  TIP3      1838            0.0000000000
     57028      3198  TIP3      H1            -33.5374215904      -23.3414364777       41.4786451006  TIP3      1838            0.0000000000
     57029      3198  TIP3      H2            -33.8671704259      -23.7772323703       42.8948278678  TIP3      1838            0.0000000000
     57030      3199  TIP3      OH2           -35.0137782247      -37.4429191352       41.5495806442  TIP3      1839            0.0000000000
     57031      3199  TIP3      H1            -35.0820893126      -36.5779997807       41.9894424613  TIP3      1839            0.0000000000
     57032      3199  TIP3      H2            -34.1320414855      -37.6930885868       41.8535095939  TIP3      1839            0.0000000000
     57033      3200  TIP3      OH2           -36.6747597740      -26.8950371397       40.7108075994  TIP3      1840            0.0000000000
     57034      3200  TIP3      H1            -36.0004909814      -26.2572522762       40.9442331924  TIP3      1840            0.0000000000
     57035      3200  TIP3      H2            -36.2356253912      -27.3967441284       40.0007851856  TIP3      1840            0.0000000000
     57036      3201  TIP3      OH2           -38.4938150015      -34.4145464644       39.6516588173  TIP3      1841            0.0000000000
     57037      3201  TIP3      H1            -38.2995673802      -33.4751081766       39.9439478982  TIP3      1841            0.0000000000
     57038      3201  TIP3      H2            -39.4356605230      -34.4000664457       39.6130855261  TIP3      1841            0.0000000000
     57039      3202  TIP3      OH2           -30.6322275111      -24.5226115706       39.0589299710  TIP3      1842            0.0000000000
     57040      3202  TIP3      H1            -31.3052833293      -25.2145191272       39.2089696781  TIP3      1842            0.0000000000
     57041      3202  TIP3      H2            -29.9477158075      -25.0923765421       38.6482212930  TIP3      1842            0.0000000000
     57042      3203  TIP3      OH2           -32.8622606035      -32.6203882369       39.6156751931  TIP3      1843            0.0000000000
     57043      3203  TIP3      H1            -33.1112496071      -32.7761427413       38.6946778962  TIP3      1843            0.0000000000
     57044      3203  TIP3      H2            -31.9127618935      -32.5354779859       39.6155570416  TIP3      1843            0.0000000000
     57045      3204  TIP3      OH2           -23.3690528698      -30.2545093159       38.9475277625  TIP3      1844            0.0000000000
     57046      3204  TIP3      H1            -23.9030879283      -30.6639812513       38.2387980002  TIP3      1844            0.0000000000
     57047      3204  TIP3      H2            -23.5165756117      -29.2960635623       38.8567441413  TIP3      1844            0.0000000000
     57048      3205  TIP3      OH2           -33.0265892748      -21.9779060096       40.6118435033  TIP3      1845            0.0000000000
     57049      3205  TIP3      H1            -32.0813604045      -21.8110331761       40.7819007883  TIP3      1845            0.0000000000
     57050      3205  TIP3      H2            -33.2267760475      -21.2763468019       39.9856560293  TIP3      1845            0.0000000000
     57051      3206  TIP3      OH2           -22.3604737577      -31.4402902848       41.2090923819  TIP3      1846            0.0000000000
     57052      3206  TIP3      H1            -22.9875404769      -31.0906308350       40.5573720887  TIP3      1846            0.0000000000
     57053      3206  TIP3      H2            -22.4429990130      -30.8200274265       41.9463675279  TIP3      1846            0.0000000000
     57054      3207  TIP3      OH2           -23.8595168056      -34.2306859430       39.7171598323  TIP3      1847            0.0000000000
     57055      3207  TIP3      H1            -24.0577435681      -33.5367109587       39.0936655251  TIP3      1847            0.0000000000
     57056      3207  TIP3      H2            -24.2858245717      -35.0085722111       39.3234786145  TIP3      1847            0.0000000000
     57057      3208  TIP3      OH2           -38.8160369605      -38.6874320460       41.9667859819  TIP3      1848            0.0000000000
     57058      3208  TIP3      H1            -38.6600883799      -39.1645622327       41.1239411704  TIP3      1848            0.0000000000
     57059      3208  TIP3      H2            -39.6674313185      -39.1705761305       42.0873216613  TIP3      1848            0.0000000000
     57060      3209  TIP3      OH2           -37.2266645669      -37.8139155827       39.7843212736  TIP3      1849            0.0000000000
     57061      3209  TIP3      H1            -36.7456001359      -38.6153695825       39.4812463175  TIP3      1849            0.0000000000
     57062      3209  TIP3      H2            -36.7275191931      -37.6709494090       40.6374187930  TIP3      1849            0.0000000000
     57063      3210  TIP3      OH2           -30.3809833723      -22.6173549258       40.8818959677  TIP3      1850            0.0000000000
     57064      3210  TIP3      H1            -29.4862668127      -22.3642456211       40.6749723345  TIP3      1850            0.0000000000
     57065      3210  TIP3      H2            -30.5874145754      -23.2000965971       40.1014163704  TIP3      1850            0.0000000000
     57066      3211  TIP3      OH2           -37.4705432306      -23.0033743413       39.4626779126  TIP3      1851            0.0000000000
     57067      3211  TIP3      H1            -37.6288052755      -22.7628950634       40.3863161911  TIP3      1851            0.0000000000
     57068      3211  TIP3      H2            -36.6454530729      -23.5329354976       39.5829454785  TIP3      1851            0.0000000000
     57069      3212  TIP3      OH2            -4.1269682403      -25.8357750098       40.0740155208  TIP3      1852            0.0000000000
     57070      3212  TIP3      H1             -4.0376704122      -24.8592961032       40.1146412311  TIP3      1852            0.0000000000
     57071      3212  TIP3      H2             -3.1963793832      -26.0813764348       39.9447920193  TIP3      1852            0.0000000000
     57072      3213  TIP3      OH2            -8.6474098612      -23.0205728451       40.6264885450  TIP3      1853            0.0000000000
     57073      3213  TIP3      H1             -8.3134188705      -23.7795890619       40.1463662999  TIP3      1853            0.0000000000
     57074      3213  TIP3      H2             -8.6895066203      -23.2654494473       41.5451311632  TIP3      1853            0.0000000000
     57075      3214  TIP3      OH2            -7.3775394679      -30.9952017977       39.5140632603  TIP3      1854            0.0000000000
     57076      3214  TIP3      H1             -7.6987913029      -31.0572665152       38.5841685018  TIP3      1854            0.0000000000
     57077      3214  TIP3      H2             -6.6926286092      -30.3488355885       39.5082412685  TIP3      1854            0.0000000000
     57078      3215  TIP3      OH2           -19.9036194803      -31.4499510966       40.1601231751  TIP3      1855            0.0000000000
     57079      3215  TIP3      H1            -19.2739714353      -30.9466609086       40.7395543197  TIP3      1855            0.0000000000
     57080      3215  TIP3      H2            -20.7422121016      -31.2641385499       40.6371932534  TIP3      1855            0.0000000000
     57081      3216  TIP3      OH2            -3.4388699113      -23.0983273641       40.6232626872  TIP3      1856            0.0000000000
     57082      3216  TIP3      H1             -2.7259747079      -22.4654550766       40.4362798046  TIP3      1856            0.0000000000
     57083      3216  TIP3      H2             -4.1509955831      -22.4767287549       40.8268699134  TIP3      1856            0.0000000000
     57084      3217  TIP3      OH2           -18.5044653341      -29.6430107905       41.6936771872  TIP3      1857            0.0000000000
     57085      3217  TIP3      H1            -19.1356563853      -29.3150687717       42.3378534287  TIP3      1857            0.0000000000
     57086      3217  TIP3      H2            -17.9758158716      -28.8573201341       41.4757691916  TIP3      1857            0.0000000000
     57087      3218  TIP3      OH2           -16.1474099496      -37.3991605301       41.5586894811  TIP3      1858            0.0000000000
     57088      3218  TIP3      H1            -16.2242059676      -36.5467280149       41.9812671017  TIP3      1858            0.0000000000
     57089      3218  TIP3      H2            -15.2864222400      -37.6915822329       41.8638415005  TIP3      1858            0.0000000000
     57090      3219  TIP3      OH2           -17.8527077944      -27.0242272702       40.7023474677  TIP3      1859            0.0000000000
     57091      3219  TIP3      H1            -17.2701795003      -26.2832820792       40.9164048408  TIP3      1859            0.0000000000
     57092      3219  TIP3      H2            -17.4004109466      -27.4369452867       39.9362267834  TIP3      1859            0.0000000000
     57093      3220  TIP3      OH2           -19.5096073908      -34.2395724553       39.6751220260  TIP3      1860            0.0000000000
     57094      3220  TIP3      H1            -19.5599053659      -33.3796599139       40.1020758550  TIP3      1860            0.0000000000
     57095      3220  TIP3      H2            -20.4036014487      -34.5843590665       39.6532632632  TIP3      1860            0.0000000000
     57096      3221  TIP3      OH2           -16.4032474300      -28.8623651781       39.0461724507  TIP3      1861            0.0000000000
     57097      3221  TIP3      H1            -16.1370674898      -29.6505735693       39.5511164040  TIP3      1861            0.0000000000
     57098      3221  TIP3      H2            -15.6318558854      -28.9365507885       38.4045475765  TIP3      1861            0.0000000000
     57099      3222  TIP3      OH2            -4.7242589800      -30.2626850407       39.4092651865  TIP3      1862            0.0000000000
     57100      3222  TIP3      H1             -4.7925346925      -30.6116685998       38.4736370437  TIP3      1862            0.0000000000
     57101      3222  TIP3      H2             -4.6036555994      -29.3313650019       38.9979198808  TIP3      1862            0.0000000000
     57102      3223  TIP3      OH2           -20.6070282516      -27.3686689368       40.1625050153  TIP3      1863            0.0000000000
     57103      3223  TIP3      H1            -19.6669930457      -27.1820990966       40.3711661161  TIP3      1863            0.0000000000
     57104      3223  TIP3      H2            -20.5459412624      -27.9855683981       39.4282089999  TIP3      1863            0.0000000000
     57105      3224  TIP3      OH2            -4.1779721592      -30.5771417402       41.9058529601  TIP3      1864            0.0000000000
     57106      3224  TIP3      H1             -4.2549481810      -30.4874938978       40.9181527108  TIP3      1864            0.0000000000
     57107      3224  TIP3      H2             -3.2405997625      -30.3580184233       42.1670350531  TIP3      1864            0.0000000000
     57108      3225  TIP3      OH2            -5.0125382939      -34.0078394230       39.7487322883  TIP3      1865            0.0000000000
     57109      3225  TIP3      H1             -5.2209283389      -33.6338577424       38.9096330486  TIP3      1865            0.0000000000
     57110      3225  TIP3      H2             -5.3124128733      -34.9414764510       39.4896752811  TIP3      1865            0.0000000000
     57111      3226  TIP3      OH2            -5.9547176088      -36.7230516942       38.9267149084  TIP3      1866            0.0000000000
     57112      3226  TIP3      H1             -5.3159925435      -37.1172650875       39.5242561520  TIP3      1866            0.0000000000
     57113      3226  TIP3      H2             -6.7768731645      -37.1830851271       39.1191339923  TIP3      1866            0.0000000000
     57114      3227  TIP3      OH2           -18.4081257100      -37.9483949952       40.0001135661  TIP3      1867            0.0000000000
     57115      3227  TIP3      H1            -17.9101956379      -38.5799095246       39.4714690443  TIP3      1867            0.0000000000
     57116      3227  TIP3      H2            -17.7661233760      -37.6689918765       40.6775249286  TIP3      1867            0.0000000000
     57117      3228  TIP3      OH2           -18.4696597202      -22.9092831090       39.4819774784  TIP3      1868            0.0000000000
     57118      3228  TIP3      H1            -18.8424078457      -22.7734057314       40.3625525693  TIP3      1868            0.0000000000
     57119      3228  TIP3      H2            -17.8052491940      -23.5776753636       39.6604790046  TIP3      1868            0.0000000000
     57120      3229  TIP3      OH2            13.5049950286      -40.1269351460       41.6997955890  TIP3      1869            0.0000000000
     57121      3229  TIP3      H1             12.5962228867      -39.9938326223       41.9087518641  TIP3      1869            0.0000000000
     57122      3229  TIP3      H2             13.7996115922      -39.3223633276       41.2622152208  TIP3      1869            0.0000000000
     57123      3230  TIP3      OH2            14.7154564435      -25.7480236174       39.8844440013  TIP3      1870            0.0000000000
     57124      3230  TIP3      H1             14.8084857961      -24.8442239788       40.2149646920  TIP3      1870            0.0000000000
     57125      3230  TIP3      H2             15.5834581417      -26.1432226168       40.0139856532  TIP3      1870            0.0000000000
     57126      3231  TIP3      OH2            10.1639113126      -23.0223643602       40.6984729046  TIP3      1871            0.0000000000
     57127      3231  TIP3      H1             10.5187689805      -23.7875818980       40.1961651407  TIP3      1871            0.0000000000
     57128      3231  TIP3      H2             10.1789245937      -23.3595858747       41.6000683610  TIP3      1871            0.0000000000
     57129      3232  TIP3      OH2            -1.1401570279      -31.5402570951       40.3759776806  TIP3      1872            0.0000000000
     57130      3232  TIP3      H1             -0.3748205443      -30.9787282478       40.6903883838  TIP3      1872            0.0000000000
     57131      3232  TIP3      H2             -1.7640283443      -30.8786799110       40.5525265270  TIP3      1872            0.0000000000
     57132      3233  TIP3      OH2            15.4215889950      -23.0968882575       40.5163070684  TIP3      1873            0.0000000000
     57133      3233  TIP3      H1             16.0674120998      -22.4001935378       40.5262160161  TIP3      1873            0.0000000000
     57134      3233  TIP3      H2             14.6763880003      -22.5599103423       40.8855099593  TIP3      1873            0.0000000000
     57135      3234  TIP3      OH2             5.1931668675      -26.4819988881       38.8753158551  TIP3      1874            0.0000000000
     57136      3234  TIP3      H1              5.1710895757      -27.1871016933       38.2198556149  TIP3      1874            0.0000000000
     57137      3234  TIP3      H2              4.6387159677      -26.7824322645       39.6165243103  TIP3      1874            0.0000000000
     57138      3235  TIP3      OH2             3.8690971835      -26.9161887908       41.3066663225  TIP3      1875            0.0000000000
     57139      3235  TIP3      H1              4.1256374463      -27.3409357767       42.1338938820  TIP3      1875            0.0000000000
     57140      3235  TIP3      H2              3.9587801400      -25.9753566064       41.5644540338  TIP3      1875            0.0000000000
     57141      3236  TIP3      OH2             0.4056586905      -29.6214922635       41.6577493807  TIP3      1876            0.0000000000
     57142      3236  TIP3      H1             -0.1889337215      -29.3090360813       42.3676309988  TIP3      1876            0.0000000000
     57143      3236  TIP3      H2              0.8892048320      -28.7809372764       41.5269587428  TIP3      1876            0.0000000000
     57144      3237  TIP3      OH2             1.0045491727      -27.0814021581       40.6992629884  TIP3      1877            0.0000000000
     57145      3237  TIP3      H1              1.5377092799      -26.3035728884       40.9618541902  TIP3      1877            0.0000000000
     57146      3237  TIP3      H2              1.4940717964      -27.3384554395       39.9084791369  TIP3      1877            0.0000000000
     57147      3238  TIP3      OH2            -0.6153453510      -34.2563430486       39.7455336233  TIP3      1878            0.0000000000
     57148      3238  TIP3      H1             -0.6835822563      -33.3471070659       40.0254552175  TIP3      1878            0.0000000000
     57149      3238  TIP3      H2             -1.5174779943      -34.5750747294       39.5806356198  TIP3      1878            0.0000000000
     57150      3239  TIP3      OH2             7.1420574750      -24.5402777987       39.0596008855  TIP3      1879            0.0000000000
     57151      3239  TIP3      H1              6.3614670281      -25.1283411203       39.1727620895  TIP3      1879            0.0000000000
     57152      3239  TIP3      H2              7.8261956401      -25.1153203655       38.7225579659  TIP3      1879            0.0000000000
     57153      3240  TIP3      OH2            11.6280700470      -24.7314886380       39.1463578727  TIP3      1880            0.0000000000
     57154      3240  TIP3      H1             11.9153254189      -25.5069298060       39.6402414445  TIP3      1880            0.0000000000
     57155      3240  TIP3      H2             12.3959100362      -24.5589536150       38.5986153331  TIP3      1880            0.0000000000
     57156      3241  TIP3      OH2             2.5515322418      -28.7223444865       38.9247989858  TIP3      1881            0.0000000000
     57157      3241  TIP3      H1              2.4340719018      -29.3290189122       39.5808929552  TIP3      1881            0.0000000000
     57158      3241  TIP3      H2              3.3111299617      -28.8517787149       38.2891873673  TIP3      1881            0.0000000000
     57159      3242  TIP3      OH2             4.0172517784      -31.0183356725       41.7758977148  TIP3      1882            0.0000000000
     57160      3242  TIP3      H1              3.3409980255      -31.4450793139       42.3315241141  TIP3      1882            0.0000000000
     57161      3242  TIP3      H2              4.3930558636      -31.7298453097       41.2053173366  TIP3      1882            0.0000000000
     57162      3243  TIP3      OH2             4.7430532758      -32.3746487000       39.5691800758  TIP3      1883            0.0000000000
     57163      3243  TIP3      H1              4.6757670414      -32.8358970949       38.6850350856  TIP3      1883            0.0000000000
     57164      3243  TIP3      H2              5.7046015307      -32.6014224118       39.6875827836  TIP3      1883            0.0000000000
     57165      3244  TIP3      OH2            -1.7568410977      -27.4606040786       40.2520398166  TIP3      1884            0.0000000000
     57166      3244  TIP3      H1             -0.8197431159      -27.1713236678       40.3392868602  TIP3      1884            0.0000000000
     57167      3244  TIP3      H2             -1.7210173394      -27.9031650754       39.3853273141  TIP3      1884            0.0000000000
     57168      3245  TIP3      OH2            12.9266618984      -36.8804046959       38.8345853234  TIP3      1885            0.0000000000
     57169      3245  TIP3      H1             13.5432923809      -37.1327325830       39.5539548515  TIP3      1885            0.0000000000
     57170      3245  TIP3      H2             12.0923209328      -37.2056162947       39.1541132567  TIP3      1885            0.0000000000
     57171      3246  TIP3      OH2            14.9953803083      -37.8427459571       40.3484304842  TIP3      1886            0.0000000000
     57172      3246  TIP3      H1             15.4030669614      -38.6967126307       40.0564019362  TIP3      1886            0.0000000000
     57173      3246  TIP3      H2             15.7206028980      -37.2873727771       40.6376598291  TIP3      1886            0.0000000000
     57174      3247  TIP3      OH2            28.7486820463      -31.9174018686       41.7757496581  TIP3      1887            0.0000000000
     57175      3247  TIP3      H1             29.2983706983      -31.6860224871       42.5106748405  TIP3      1887            0.0000000000
     57176      3247  TIP3      H2             29.0992344453      -31.4042437238       41.0353289855  TIP3      1887            0.0000000000
     57177      3248  TIP3      OH2            33.6290157116      -25.8900180150       40.0354236229  TIP3      1888            0.0000000000
     57178      3248  TIP3      H1             33.6188682322      -24.9044709914       40.1601978312  TIP3      1888            0.0000000000
     57179      3248  TIP3      H2             34.5695587571      -25.9197854653       39.8785756646  TIP3      1888            0.0000000000
     57180      3249  TIP3      OH2            28.8842219335      -23.0311359988       40.6152512086  TIP3      1889            0.0000000000
     57181      3249  TIP3      H1             29.3890997731      -23.7747524452       40.2231816595  TIP3      1889            0.0000000000
     57182      3249  TIP3      H2             29.0805188533      -23.2109380170       41.5566841096  TIP3      1889            0.0000000000
     57183      3250  TIP3      OH2            25.9632866803      -37.2886639960       40.3157104260  TIP3      1890            0.0000000000
     57184      3250  TIP3      H1             25.3187318887      -36.8793356136       40.9405914227  TIP3      1890            0.0000000000
     57185      3250  TIP3      H2             25.3226233379      -37.7308594095       39.7168659883  TIP3      1890            0.0000000000
     57186      3251  TIP3      OH2            23.1495481386      -36.7720433584       38.7987099722  TIP3      1891            0.0000000000
     57187      3251  TIP3      H1             22.6700097775      -36.9121093853       39.6258459298  TIP3      1891            0.0000000000
     57188      3251  TIP3      H2             22.4817050659      -36.0852390336       38.5238290670  TIP3      1891            0.0000000000
     57189      3252  TIP3      OH2            28.4252087097      -36.5346971554       40.7911269003  TIP3      1892            0.0000000000
     57190      3252  TIP3      H1             27.5365998133      -36.1551504107       40.5632823312  TIP3      1892            0.0000000000
     57191      3252  TIP3      H2             28.7959560508      -35.6378920775       41.0740122729  TIP3      1892            0.0000000000
     57192      3253  TIP3      OH2            29.2013585097      -34.4870764453       42.3762244285  TIP3      1893            0.0000000000
     57193      3253  TIP3      H1             30.1255301576      -34.6524044100       42.5905502133  TIP3      1893            0.0000000000
     57194      3253  TIP3      H2             29.2254651256      -33.6861753396       41.7996554968  TIP3      1893            0.0000000000
     57195      3254  TIP3      OH2            33.9549247526      -34.3076600639       42.2222886493  TIP3      1894            0.0000000000
     57196      3254  TIP3      H1             33.5564213160      -34.6838364501       41.4092733868  TIP3      1894            0.0000000000
     57197      3254  TIP3      H2             34.2090869556      -33.4666563823       41.7977065882  TIP3      1894            0.0000000000
     57198      3255  TIP3      OH2            34.2367069608      -23.1120583445       40.5301274418  TIP3      1895            0.0000000000
     57199      3255  TIP3      H1             34.9478333348      -22.4680124662       40.4545143115  TIP3      1895            0.0000000000
     57200      3255  TIP3      H2             33.5563814464      -22.5210096976       40.8727426177  TIP3      1895            0.0000000000
     57201      3256  TIP3      OH2            19.2263629155      -29.6098221710       41.7855615420  TIP3      1896            0.0000000000
     57202      3256  TIP3      H1             18.5486738979      -29.2565837822       42.3462654802  TIP3      1896            0.0000000000
     57203      3256  TIP3      H2             19.7754239319      -28.8631687989       41.5358523107  TIP3      1896            0.0000000000
     57204      3257  TIP3      OH2            22.6724902939      -36.7841569870       42.1783447324  TIP3      1897            0.0000000000
     57205      3257  TIP3      H1             21.6909565618      -36.6087761017       42.1223304740  TIP3      1897            0.0000000000
     57206      3257  TIP3      H2             22.5653851712      -37.7361776220       42.0259365523  TIP3      1897            0.0000000000
     57207      3258  TIP3      OH2            19.8179375134      -26.9207243891       40.6026922501  TIP3      1898            0.0000000000
     57208      3258  TIP3      H1             20.5158005607      -26.3544992695       40.9650335558  TIP3      1898            0.0000000000
     57209      3258  TIP3      H2             20.3528224729      -27.4790024042       39.9943370738  TIP3      1898            0.0000000000
     57210      3259  TIP3      OH2            21.4267803127      -28.7667248141       39.0220916005  TIP3      1899            0.0000000000
     57211      3259  TIP3      H1             21.4996038147      -29.5932233689       39.5307175520  TIP3      1899            0.0000000000
     57212      3259  TIP3      H2             22.0761845099      -28.9872866087       38.3286203972  TIP3      1899            0.0000000000
     57213      3260  TIP3      OH2            33.1578722623      -30.1099486786       39.0820207916  TIP3      1900            0.0000000000
     57214      3260  TIP3      H1             32.8376113403      -30.6879339697       38.3312270339  TIP3      1900            0.0000000000
     57215      3260  TIP3      H2             32.9232076665      -29.2829062508       38.6696139843  TIP3      1900            0.0000000000
     57216      3261  TIP3      OH2            17.1598111045      -27.1919351148       40.0195964499  TIP3      1901            0.0000000000
     57217      3261  TIP3      H1             18.0615453102      -27.2816641795       40.3859845568  TIP3      1901            0.0000000000
     57218      3261  TIP3      H2             17.1056148266      -28.0084096228       39.4625366067  TIP3      1901            0.0000000000
     57219      3262  TIP3      OH2            34.2709126790      -31.3282550222       41.2117033513  TIP3      1902            0.0000000000
     57220      3262  TIP3      H1             33.5753055726      -31.1838701180       40.5294015295  TIP3      1902            0.0000000000
     57221      3262  TIP3      H2             34.0691742102      -30.7781234177       41.9665029394  TIP3      1902            0.0000000000
     57222      3263  TIP3      OH2            32.5756820329      -34.2040227441       39.7639726605  TIP3      1903            0.0000000000
     57223      3263  TIP3      H1             32.5670097335      -33.5857185815       39.0361706821  TIP3      1903            0.0000000000
     57224      3263  TIP3      H2             32.3299988307      -35.0334237954       39.3110135691  TIP3      1903            0.0000000000
     57225      3264  TIP3      OH2            31.7469454911      -36.7046787252       38.9945705707  TIP3      1904            0.0000000000
     57226      3264  TIP3      H1             32.3868313128      -37.1778659497       39.5267960074  TIP3      1904            0.0000000000
     57227      3264  TIP3      H2             30.9505510713      -37.2387900046       39.0642934174  TIP3      1904            0.0000000000
     57228      3265  TIP3      OH2            17.0851738893      -39.5814376014       41.2320989715  TIP3      1905            0.0000000000
     57229      3265  TIP3      H1             17.8783778617      -39.1108213449       41.0155089711  TIP3      1905            0.0000000000
     57230      3265  TIP3      H2             16.7850104674      -39.2586121672       42.0936181657  TIP3      1905            0.0000000000
     57231      3266  TIP3      OH2            18.3598510391      -37.4845309287       40.0982004347  TIP3      1906            0.0000000000
     57232      3266  TIP3      H1             18.9839714542      -37.7450052599       39.4211493938  TIP3      1906            0.0000000000
     57233      3266  TIP3      H2             19.1350191384      -37.3441243506       40.7366346739  TIP3      1906            0.0000000000
     57234      3267  TIP3      OH2            26.1840910588      -22.5729890265       40.8347367843  TIP3      1907            0.0000000000
     57235      3267  TIP3      H1             27.1718230383      -22.4837838412       40.9439887116  TIP3      1907            0.0000000000
     57236      3267  TIP3      H2             25.9597386694      -23.4534647365       40.4809323968  TIP3      1907            0.0000000000
     57237      3268  TIP3      OH2            19.5486064560      -22.6748395628       39.8086940321  TIP3      1908            0.0000000000
     57238      3268  TIP3      H1             19.0692576388      -22.5814858219       40.6596443535  TIP3      1908            0.0000000000
     57239      3268  TIP3      H2             20.2365631523      -23.3831172904       39.8921563768  TIP3      1908            0.0000000000
     57240      3269  TIP3      OH2            40.1528012972      -33.8637241534       40.6248803006  TIP3      1909            0.0000000000
     57241      3269  TIP3      H1             39.4903074315      -34.0740676983       39.9308209999  TIP3      1909            0.0000000000
     57242      3269  TIP3      H2             40.8597223538      -33.4759462547       40.1326221118  TIP3      1909            0.0000000000
     57243      3270  TIP3      OH2            36.6357157023      -31.8466270560       40.1134577328  TIP3      1910            0.0000000000
     57244      3270  TIP3      H1             37.2555943717      -31.2049734666       40.5308618426  TIP3      1910            0.0000000000
     57245      3270  TIP3      H2             35.8444960947      -31.4093424787       40.4923050665  TIP3      1910            0.0000000000
     57246      3271  TIP3      OH2            36.8736866373      -29.5772137229       40.8072384647  TIP3      1911            0.0000000000
     57247      3271  TIP3      H1             36.9674067907      -29.6883364400       41.8240304390  TIP3      1911            0.0000000000
     57248      3271  TIP3      H2             37.7900955866      -29.2432658954       40.9242865579  TIP3      1911            0.0000000000
     57249      3272  TIP3      OH2           -41.1033345484      -37.5626607103       41.5314553833  TIP3      1912            0.0000000000
     57250      3272  TIP3      H1            -41.2473694671      -36.7154496179       41.9632592514  TIP3      1912            0.0000000000
     57251      3272  TIP3      H2            -40.1806945522      -37.6897032312       41.8506950240  TIP3      1912            0.0000000000
     57252      3273  TIP3      OH2            39.2525280255      -27.1424676795       39.9982645409  TIP3      1913            0.0000000000
     57253      3273  TIP3      H1             39.6028070673      -26.6048381539       40.7215525886  TIP3      1913            0.0000000000
     57254      3273  TIP3      H2             39.8744484090      -27.7116183633       39.5597460832  TIP3      1913            0.0000000000
     57255      3274  TIP3      OH2            37.0257705231      -34.3910978649       39.7715551961  TIP3      1914            0.0000000000
     57256      3274  TIP3      H1             37.0315237927      -33.4335617316       39.9828310502  TIP3      1914            0.0000000000
     57257      3274  TIP3      H2             36.1027799744      -34.5305473367       39.5886851659  TIP3      1914            0.0000000000
     57258      3275  TIP3      OH2            39.5565761041      -29.5381539254       38.7118719627  TIP3      1915            0.0000000000
     57259      3275  TIP3      H1             39.9451349888      -29.5808604189       39.5850759808  TIP3      1915            0.0000000000
     57260      3275  TIP3      H2             40.4366310668      -29.2152882827       38.4010457819  TIP3      1915            0.0000000000
     57261      3276  TIP3      OH2            36.0940361484      -27.0905054248       39.7293560507  TIP3      1916            0.0000000000
     57262      3276  TIP3      H1             36.9545990689      -27.0334551602       40.2090856376  TIP3      1916            0.0000000000
     57263      3276  TIP3      H2             36.2484250411      -27.8680114752       39.1313708372  TIP3      1916            0.0000000000
     57264      3277  TIP3      OH2            38.2232702541      -22.2687455086       39.5935600531  TIP3      1917            0.0000000000
     57265      3277  TIP3      H1             37.5844593652      -22.5223584196       40.3124495851  TIP3      1917            0.0000000000
     57266      3277  TIP3      H2             38.6602933556      -23.1529410845       39.6072670459  TIP3      1917            0.0000000000
     57267      3278  TIP3      OH2           -30.0478610530      -13.8597438644       40.1149013958  TIP3      1918            0.0000000000
     57268      3278  TIP3      H1            -29.4211559549      -13.9269999189       40.8630478425  TIP3      1918            0.0000000000
     57269      3278  TIP3      H2            -29.7844304529      -14.6163987440       39.5802007858  TIP3      1918            0.0000000000
     57270      3279  TIP3      OH2           -27.8621350708      -13.0243714161       41.7642001577  TIP3      1919            0.0000000000
     57271      3279  TIP3      H1            -27.2865212516      -12.8208452982       42.5069446293  TIP3      1919            0.0000000000
     57272      3279  TIP3      H2            -27.4073747148      -12.5615078363       41.0505718000  TIP3      1919            0.0000000000
     57273      3280  TIP3      OH2           -22.8619879567       -6.7806974275       39.7338069667  TIP3      1920            0.0000000000
     57274      3280  TIP3      H1            -22.9066883361       -5.9927518867       40.3117413850  TIP3      1920            0.0000000000
     57275      3280  TIP3      H2            -22.1045647900       -7.2742610521       40.1195169145  TIP3      1920            0.0000000000
     57276      3281  TIP3      OH2           -26.4381473453      -11.8601870989       39.4632950530  TIP3      1921            0.0000000000
     57277      3281  TIP3      H1            -26.3564062339      -12.3270955669       38.6051779851  TIP3      1921            0.0000000000
     57278      3281  TIP3      H2            -25.5176352470      -11.6771029367       39.6853616388  TIP3      1921            0.0000000000
     57279      3282  TIP3      OH2           -27.3672093523      -15.6163803178       42.3784613446  TIP3      1922            0.0000000000
     57280      3282  TIP3      H1            -26.4685262699      -15.8019659295       42.6582439419  TIP3      1922            0.0000000000
     57281      3282  TIP3      H2            -27.3077465763      -14.8441539211       41.8022707253  TIP3      1922            0.0000000000
     57282      3283  TIP3      OH2           -26.7835915069       -8.8253040902       40.2538463296  TIP3      1923            0.0000000000
     57283      3283  TIP3      H1            -26.4259345301       -8.9995564969       41.1509528127  TIP3      1923            0.0000000000
     57284      3283  TIP3      H2            -27.7203245733       -8.6979671667       40.4955522187  TIP3      1923            0.0000000000
     57285      3284  TIP3      OH2           -22.4437609653       -4.3147243310       40.7262014445  TIP3      1924            0.0000000000
     57286      3284  TIP3      H1            -21.7119862162       -3.8901331651       41.1901156366  TIP3      1924            0.0000000000
     57287      3284  TIP3      H2            -23.1872769968       -3.7313702209       41.0024743289  TIP3      1924            0.0000000000
     57288      3285  TIP3      OH2           -32.5028372458       -7.6321269573       38.8466652855  TIP3      1925            0.0000000000
     57289      3285  TIP3      H1            -32.6748862683       -8.3454646817       38.2297639785  TIP3      1925            0.0000000000
     57290      3285  TIP3      H2            -33.0196780093       -7.9131037396       39.6475044992  TIP3      1925            0.0000000000
     57291      3286  TIP3      OH2           -33.7448673991       -8.0234235851       41.2313184496  TIP3      1926            0.0000000000
     57292      3286  TIP3      H1            -33.6302030546       -8.5076348703       42.0695776016  TIP3      1926            0.0000000000
     57293      3286  TIP3      H2            -33.7406686845       -7.1280127620       41.5765127689  TIP3      1926            0.0000000000
     57294      3287  TIP3      OH2           -36.7913108510       -8.0977204711       40.5743721285  TIP3      1927            0.0000000000
     57295      3287  TIP3      H1            -36.1504237492       -7.4980453042       40.9688649474  TIP3      1927            0.0000000000
     57296      3287  TIP3      H2            -36.1806066603       -8.6342386816       40.0514079339  TIP3      1927            0.0000000000
     57297      3288  TIP3      OH2           -26.1185249177       -6.0868133903       39.0041094064  TIP3      1928            0.0000000000
     57298      3288  TIP3      H1            -25.7991941882       -6.6160071243       39.7426518388  TIP3      1928            0.0000000000
     57299      3288  TIP3      H2            -25.3400444775       -5.6478053006       38.6402289224  TIP3      1928            0.0000000000
     57300      3289  TIP3      OH2           -29.5685428027       -8.7950834573       39.6035164713  TIP3      1929            0.0000000000
     57301      3289  TIP3      H1            -30.2631886806       -8.5106848455       40.2219239309  TIP3      1929            0.0000000000
     57302      3289  TIP3      H2            -29.8364753504       -9.7234580984       39.5623752133  TIP3      1929            0.0000000000
     57303      3290  TIP3      OH2           -39.2901097595       -8.1366802701       39.9395946364  TIP3      1930            0.0000000000
     57304      3290  TIP3      H1            -38.4203415594       -8.1645683112       40.4419817848  TIP3      1930            0.0000000000
     57305      3290  TIP3      H2            -39.1971118043       -8.9757408485       39.6038035148  TIP3      1930            0.0000000000
     57306      3291  TIP3      OH2           -24.7830520447      -17.8713553688       38.9368266800  TIP3      1931            0.0000000000
     57307      3291  TIP3      H1            -24.1738300776      -18.3202044534       39.5285490742  TIP3      1931            0.0000000000
     57308      3291  TIP3      H2            -25.6078478060      -18.3718182206       39.0508188669  TIP3      1931            0.0000000000
     57309      3292  TIP3      OH2           -36.8650464087       -4.4204164502       39.3993703548  TIP3      1932            0.0000000000
     57310      3292  TIP3      H1            -37.2927135791       -4.0754240788       40.2119410290  TIP3      1932            0.0000000000
     57311      3292  TIP3      H2            -36.2693066951       -5.0890213796       39.7847100784  TIP3      1932            0.0000000000
     57312      3293  TIP3      OH2            -8.5375243612      -15.6271758321       42.3401430886  TIP3      1933            0.0000000000
     57313      3293  TIP3      H1             -7.6587043528      -15.7992015184       42.6931948592  TIP3      1933            0.0000000000
     57314      3293  TIP3      H2             -8.4415175864      -14.8633784747       41.7834386985  TIP3      1933            0.0000000000
     57315      3294  TIP3      OH2           -11.8057635441       -5.6979157505       38.9058023518  TIP3      1934            0.0000000000
     57316      3294  TIP3      H1            -12.4409907953       -6.3275490208       39.2742099452  TIP3      1934            0.0000000000
     57317      3294  TIP3      H2            -11.0675014291       -6.2774360518       38.7137706889  TIP3      1934            0.0000000000
     57318      3295  TIP3      OH2           -13.9693585257      -13.9016620205       39.5903274450  TIP3      1935            0.0000000000
     57319      3295  TIP3      H1            -14.1835092786      -13.8057037933       38.6484271156  TIP3      1935            0.0000000000
     57320      3295  TIP3      H2            -13.0494942128      -13.6172132577       39.6116413447  TIP3      1935            0.0000000000
     57321      3296  TIP3      OH2            -4.6444409077      -11.3839031882       39.0683047174  TIP3      1936            0.0000000000
     57322      3296  TIP3      H1             -4.9385748101      -11.8020250368       38.2350232809  TIP3      1936            0.0000000000
     57323      3296  TIP3      H2             -4.6392047718      -10.4656422085       38.7979744576  TIP3      1936            0.0000000000
     57324      3297  TIP3      OH2           -14.1228157479       -3.1284819988       40.6121336564  TIP3      1937            0.0000000000
     57325      3297  TIP3      H1            -13.1955388927       -2.9366073259       40.7696661293  TIP3      1937            0.0000000000
     57326      3297  TIP3      H2            -14.4004192161       -2.4278083210       40.0168117325  TIP3      1937            0.0000000000
     57327      3298  TIP3      OH2           -20.6688885976       -8.4834699010       40.3191163126  TIP3      1938            0.0000000000
     57328      3298  TIP3      H1            -19.7175120022       -8.4195803375       40.4829782617  TIP3      1938            0.0000000000
     57329      3298  TIP3      H2            -20.6098711475       -9.1080637334       39.5600914410  TIP3      1938            0.0000000000
     57330      3299  TIP3      OH2            -3.5492542222      -12.6091428382       41.2659900913  TIP3      1939            0.0000000000
     57331      3299  TIP3      H1             -4.0283652602      -12.2096168771       40.5108677945  TIP3      1939            0.0000000000
     57332      3299  TIP3      H2             -3.5076153726      -11.9060614516       41.9139805480  TIP3      1939            0.0000000000
     57333      3300  TIP3      OH2            -5.1477071440      -15.3350244828       39.7965730229  TIP3      1940            0.0000000000
     57334      3300  TIP3      H1             -5.0948105792      -14.6840915314       39.0918810117  TIP3      1940            0.0000000000
     57335      3300  TIP3      H2             -5.3347134913      -16.1718321687       39.3265449823  TIP3      1940            0.0000000000
     57336      3301  TIP3      OH2            -5.9414411252      -17.9152133650       38.9121574574  TIP3      1941            0.0000000000
     57337      3301  TIP3      H1             -5.3398037037      -18.3308450401       39.5400365747  TIP3      1941            0.0000000000
     57338      3301  TIP3      H2             -6.7657385686      -18.3675575954       39.1237413361  TIP3      1941            0.0000000000
     57339      3302  TIP3      OH2           -18.4269882787      -19.1582432527       39.9534275170  TIP3      1942            0.0000000000
     57340      3302  TIP3      H1            -17.8879666660      -19.7412406853       39.4160437685  TIP3      1942            0.0000000000
     57341      3302  TIP3      H2            -17.8120298759      -18.8362308611       40.6312831889  TIP3      1942            0.0000000000
     57342      3303  TIP3      OH2           -18.7186133512       -4.2588573692       39.5068533316  TIP3      1943            0.0000000000
     57343      3303  TIP3      H1            -18.6899634676       -3.8430922765       40.3964463109  TIP3      1943            0.0000000000
     57344      3303  TIP3      H2            -17.7947436424       -4.6389949393       39.6070144272  TIP3      1943            0.0000000000
     57345      3304  TIP3      OH2             7.6044936546      -13.9073010386       40.1202257846  TIP3      1944            0.0000000000
     57346      3304  TIP3      H1              8.2786564610      -13.8821299299       40.8246942494  TIP3      1944            0.0000000000
     57347      3304  TIP3      H2              7.9518768026      -14.6185234575       39.5723568955  TIP3      1944            0.0000000000
     57348      3305  TIP3      OH2             9.8786616224      -13.0909931917       41.7811344867  TIP3      1945            0.0000000000
     57349      3305  TIP3      H1             10.4142498297      -12.8188452065       42.5296698433  TIP3      1945            0.0000000000
     57350      3305  TIP3      H2             10.2225656758      -12.5386987081       41.0522576652  TIP3      1945            0.0000000000
     57351      3306  TIP3      OH2            13.5698168668      -21.2919387027       41.6827017430  TIP3      1946            0.0000000000
     57352      3306  TIP3      H1             12.6357504352      -21.1868919035       41.8901452070  TIP3      1946            0.0000000000
     57353      3306  TIP3      H2             13.7783632616      -20.4486508635       41.2441654222  TIP3      1946            0.0000000000
     57354      3307  TIP3      OH2            11.3630900807      -12.0673673375       39.5218095718  TIP3      1947            0.0000000000
     57355      3307  TIP3      H1             11.3177392732      -12.1928187804       38.5427195285  TIP3      1947            0.0000000000
     57356      3307  TIP3      H2             12.1634863804      -11.5429444509       39.5917282230  TIP3      1947            0.0000000000
     57357      3308  TIP3      OH2             6.8645286194      -18.0947238294       40.0697833468  TIP3      1948            0.0000000000
     57358      3308  TIP3      H1              6.6226576125      -18.0822479701       41.0064817249  TIP3      1948            0.0000000000
     57359      3308  TIP3      H2              6.6576869969      -19.0014396422       39.8124535036  TIP3      1948            0.0000000000
     57360      3309  TIP3      OH2             9.5731009799      -17.5665671089       40.6725819455  TIP3      1949            0.0000000000
     57361      3309  TIP3      H1              8.6219764111      -17.4213559592       40.5902495501  TIP3      1949            0.0000000000
     57362      3309  TIP3      H2              9.9001193989      -16.7433041859       41.0996245843  TIP3      1949            0.0000000000
     57363      3310  TIP3      OH2            10.3413161443      -15.6257490441       42.3560898506  TIP3      1950            0.0000000000
     57364      3310  TIP3      H1             11.2439330386      -15.7668159104       42.6656247872  TIP3      1950            0.0000000000
     57365      3310  TIP3      H2             10.3865223622      -14.8191668586       41.8141025354  TIP3      1950            0.0000000000
     57366      3311  TIP3      OH2             7.6725179307       -8.8880812483       41.4357909180  TIP3      1951            0.0000000000
     57367      3311  TIP3      H1              7.5726904337       -8.0991230963       41.9771329196  TIP3      1951            0.0000000000
     57368      3311  TIP3      H2              7.1564717283       -9.5785988679       41.8593846619  TIP3      1951            0.0000000000
     57369      3312  TIP3      OH2            15.3824098133       -4.2346738103       40.5667363829  TIP3      1952            0.0000000000
     57370      3312  TIP3      H1             16.1433863428       -3.6368430558       40.5262385401  TIP3      1952            0.0000000000
     57371      3312  TIP3      H2             14.7300407539       -3.6050904662       40.8668170462  TIP3      1952            0.0000000000
     57372      3313  TIP3      OH2             4.7898669127       -7.6613544194       38.8160674057  TIP3      1953            0.0000000000
     57373      3313  TIP3      H1              5.3305868002       -8.2541673152       38.2378790158  TIP3      1953            0.0000000000
     57374      3313  TIP3      H2              5.1179836827       -7.9931129124       39.6689992243  TIP3      1953            0.0000000000
     57375      3314  TIP3      OH2             3.9945207149       -7.9822437300       41.4651512225  TIP3      1954            0.0000000000
     57376      3314  TIP3      H1              4.1738435339       -8.5409172795       42.2571789057  TIP3      1954            0.0000000000
     57377      3314  TIP3      H2              4.0883441397       -7.0829464614       41.8257989683  TIP3      1954            0.0000000000
     57378      3315  TIP3      OH2             0.4014946972      -10.7437883836       41.7515814062  TIP3      1955            0.0000000000
     57379      3315  TIP3      H1             -0.2991586718      -10.4759494856       42.3586422312  TIP3      1955            0.0000000000
     57380      3315  TIP3      H2              0.8854581655       -9.9665725584       41.5364475702  TIP3      1955            0.0000000000
     57381      3316  TIP3      OH2             0.9253095483       -8.1219349918       40.7238342113  TIP3      1956            0.0000000000
     57382      3316  TIP3      H1              1.4593466053       -7.3874550614       41.0828278795  TIP3      1956            0.0000000000
     57383      3316  TIP3      H2              1.2033233740       -8.7015074577       40.0058990227  TIP3      1956            0.0000000000
     57384      3317  TIP3      OH2             2.6047687464      -10.0123788226       39.0185210865  TIP3      1957            0.0000000000
     57385      3317  TIP3      H1              2.6853384616      -10.8568896182       39.5399501682  TIP3      1957            0.0000000000
     57386      3317  TIP3      H2              3.2851261194      -10.2460847753       38.3181355742  TIP3      1957            0.0000000000
     57387      3318  TIP3      OH2             7.7991592609       -8.8661502842       38.7331672335  TIP3      1958            0.0000000000
     57388      3318  TIP3      H1              7.7730144059       -8.8160866848       39.7030385592  TIP3      1958            0.0000000000
     57389      3318  TIP3      H2              7.7996779613       -9.8428955587       38.6287187804  TIP3      1958            0.0000000000
     57390      3319  TIP3      OH2             3.6467936322      -11.9504321494       41.2660687042  TIP3      1959            0.0000000000
     57391      3319  TIP3      H1              3.3268632456      -12.4887365250       42.0145878660  TIP3      1959            0.0000000000
     57392      3319  TIP3      H2              4.0328676549      -12.6979183676       40.7440989305  TIP3      1959            0.0000000000
     57393      3320  TIP3      OH2             4.8217341872      -13.7646096832       39.5949396999  TIP3      1960            0.0000000000
     57394      3320  TIP3      H1              4.6493947087      -13.8721483349       38.6408663390  TIP3      1960            0.0000000000
     57395      3320  TIP3      H2              5.7924604658      -13.6891032032       39.6756878963  TIP3      1960            0.0000000000
     57396      3321  TIP3      OH2            -1.7612861759       -8.4940397186       40.1201367274  TIP3      1961            0.0000000000
     57397      3321  TIP3      H1             -0.8351699784       -8.3780946566       40.3593019433  TIP3      1961            0.0000000000
     57398      3321  TIP3      H2             -1.7537978678       -9.1608405916       39.4114449249  TIP3      1961            0.0000000000
     57399      3322  TIP3      OH2            13.6311944950      -15.3404871386       39.8112494423  TIP3      1962            0.0000000000
     57400      3322  TIP3      H1             13.7927904780      -14.7385124867       39.0777520104  TIP3      1962            0.0000000000
     57401      3322  TIP3      H2             13.5364324109      -16.1850251081       39.3314747055  TIP3      1962            0.0000000000
     57402      3323  TIP3      OH2            12.9380433177      -17.9256298701       38.9266978393  TIP3      1963            0.0000000000
     57403      3323  TIP3      H1             13.5291528682      -18.3344400949       39.5757150683  TIP3      1963            0.0000000000
     57404      3323  TIP3      H2             12.0877213184      -18.3435481837       39.1274038072  TIP3      1963            0.0000000000
     57405      3324  TIP3      OH2            15.0135951895      -19.0752832653       40.5449178099  TIP3      1964            0.0000000000
     57406      3324  TIP3      H1             15.3876330677      -19.7573960473       39.9593930201  TIP3      1964            0.0000000000
     57407      3324  TIP3      H2             15.7014017772      -18.4044359306       40.5027571842  TIP3      1964            0.0000000000
     57408      3325  TIP3      OH2             0.2668454842       -4.1042969489       39.4660604363  TIP3      1965            0.0000000000
     57409      3325  TIP3      H1              0.0228457796       -3.8341856178       40.3724075606  TIP3      1965            0.0000000000
     57410      3325  TIP3      H2              1.0459211575       -4.6397690632       39.6153406887  TIP3      1965            0.0000000000
     57411      3326  TIP3      OH2            26.4806946647      -13.8707354985       40.1654828919  TIP3      1966            0.0000000000
     57412      3326  TIP3      H1             27.1328866210      -13.9358607404       40.8638097237  TIP3      1966            0.0000000000
     57413      3326  TIP3      H2             26.7637104372      -14.5665370853       39.5696635199  TIP3      1966            0.0000000000
     57414      3327  TIP3      OH2            33.5480949776       -6.8823640081       40.0344629412  TIP3      1967            0.0000000000
     57415      3327  TIP3      H1             33.6905469713       -5.9300991563       40.1458320009  TIP3      1967            0.0000000000
     57416      3327  TIP3      H2             34.4069459570       -7.2962636279       39.9373997799  TIP3      1967            0.0000000000
     57417      3328  TIP3      OH2            25.7730997787      -18.1444494164       40.0621604280  TIP3      1968            0.0000000000
     57418      3328  TIP3      H1             25.4805150577      -18.0471441099       40.9830004016  TIP3      1968            0.0000000000
     57419      3328  TIP3      H2             25.4227538130      -18.9893366942       39.8354980761  TIP3      1968            0.0000000000
     57420      3329  TIP3      OH2            28.4840139529      -17.5332433940       40.7051406187  TIP3      1969            0.0000000000
     57421      3329  TIP3      H1             27.5330980596      -17.4089093329       40.5717188363  TIP3      1969            0.0000000000
     57422      3329  TIP3      H2             28.7627029853      -16.6852233779       41.0450413682  TIP3      1969            0.0000000000
     57423      3330  TIP3      OH2            34.3030232098       -4.2370301125       40.5995441716  TIP3      1970            0.0000000000
     57424      3330  TIP3      H1             34.9674017044       -3.5728179118       40.4013949568  TIP3      1970            0.0000000000
     57425      3330  TIP3      H2             33.5458190296       -3.6741431078       40.8497920174  TIP3      1970            0.0000000000
     57426      3331  TIP3      OH2            19.8168609697       -8.1027520670       40.6275668516  TIP3      1971            0.0000000000
     57427      3331  TIP3      H1             20.4923487982       -7.5068836876       40.9741143794  TIP3      1971            0.0000000000
     57428      3331  TIP3      H2             20.3368740653       -8.6260046505       39.9877304609  TIP3      1971            0.0000000000
     57429      3332  TIP3      OH2            30.4855947029       -5.8738523167       39.1407290776  TIP3      1972            0.0000000000
     57430      3332  TIP3      H1             30.7713749958       -6.6316865173       39.6623034931  TIP3      1972            0.0000000000
     57431      3332  TIP3      H2             31.2497814665       -5.7215207294       38.5803985031  TIP3      1972            0.0000000000
     57432      3333  TIP3      OH2            21.4641091908       -9.9473194305       39.1159216239  TIP3      1973            0.0000000000
     57433      3333  TIP3      H1             21.5204786445      -10.7801845748       39.5899101722  TIP3      1973            0.0000000000
     57434      3333  TIP3      H2             22.0827282451      -10.0737854438       38.3894939535  TIP3      1973            0.0000000000
     57435      3334  TIP3      OH2            17.0967603285       -8.4258254804       40.1042592775  TIP3      1974            0.0000000000
     57436      3334  TIP3      H1             18.0418698654       -8.3654442702       40.3738559454  TIP3      1974            0.0000000000
     57437      3334  TIP3      H2             17.1543342934       -9.1588467401       39.4745626706  TIP3      1974            0.0000000000
     57438      3335  TIP3      OH2            19.1802913716       -4.0905625628       39.4387755538  TIP3      1975            0.0000000000
     57439      3335  TIP3      H1             18.8932650923       -3.8594088667       40.3458543083  TIP3      1975            0.0000000000
     57440      3335  TIP3      H2             19.8770577014       -4.7337859825       39.6534335844  TIP3      1975            0.0000000000
     57441      3336  TIP3      OH2           -40.9802987561      -18.7540512403       41.2609152644  TIP3      1976            0.0000000000
     57442      3336  TIP3      H1            -41.1411185696      -17.8782719771       41.7119260632  TIP3      1976            0.0000000000
     57443      3336  TIP3      H2            -40.1732725488      -18.8422455555       41.8106919191  TIP3      1976            0.0000000000
     57444      3337  TIP3      OH2            38.6444710328       -7.9200215991       40.6416851296  TIP3      1977            0.0000000000
     57445      3337  TIP3      H1             39.4307850281       -7.4456076773       40.9823423361  TIP3      1977            0.0000000000
     57446      3337  TIP3      H2             39.1640738051       -8.5305314146       40.1078918688  TIP3      1977            0.0000000000
     57447      3338  TIP3      OH2            40.4943677241      -10.0323514353       40.2110538214  TIP3      1978            0.0000000000
     57448      3338  TIP3      H1             40.4097918346      -11.0111171007       40.2036138484  TIP3      1978            0.0000000000
     57449      3338  TIP3      H2             41.2808482408       -9.8203788954       39.6686893061  TIP3      1978            0.0000000000
     57450      3339  TIP3      OH2            36.0952831052       -8.2788543157       40.0686537781  TIP3      1979            0.0000000000
     57451      3339  TIP3      H1             36.9922982404       -8.5280856614       40.3033795533  TIP3      1979            0.0000000000
     57452      3339  TIP3      H2             35.8467794449       -9.0913426172       39.5293959081  TIP3      1979            0.0000000000
     57453      3340  TIP3      OH2           -30.1397090053        4.8779248076       40.1980071729  TIP3      1980            0.0000000000
     57454      3340  TIP3      H1            -29.3894020829        4.9740351062       40.8193978034  TIP3      1980            0.0000000000
     57455      3340  TIP3      H2            -29.7651958043        4.2515924843       39.5660286930  TIP3      1980            0.0000000000
     57456      3341  TIP3      OH2           -27.8362958926        5.7820237436       41.7722080278  TIP3      1981            0.0000000000
     57457      3341  TIP3      H1            -27.2599779840        5.9845197022       42.5028808580  TIP3      1981            0.0000000000
     57458      3341  TIP3      H2            -27.4426504348        6.2711569975       41.0186714148  TIP3      1981            0.0000000000
     57459      3342  TIP3      OH2           -26.3990879249        6.8317066070       39.5273078952  TIP3      1982            0.0000000000
     57460      3342  TIP3      H1            -26.4180755329        6.6845035132       38.5538731608  TIP3      1982            0.0000000000
     57461      3342  TIP3      H2            -25.5251028906        7.2422590149       39.5931488565  TIP3      1982            0.0000000000
     57462      3343  TIP3      OH2           -38.8704222844        2.9452059828       41.2592686626  TIP3      1983            0.0000000000
     57463      3343  TIP3      H1            -38.8187651849        2.2137700886       40.6456842198  TIP3      1983            0.0000000000
     57464      3343  TIP3      H2            -39.4962503822        2.4508066878       41.8524728266  TIP3      1983            0.0000000000
     57465      3344  TIP3      OH2           -35.3445789035        4.0194924049       40.6394300854  TIP3      1984            0.0000000000
     57466      3344  TIP3      H1            -35.8463993872        3.5997393936       39.9284651645  TIP3      1984            0.0000000000
     57467      3344  TIP3      H2            -34.4996901482        4.1494933742       40.1865287181  TIP3      1984            0.0000000000
     57468      3345  TIP3      OH2           -22.5810461949        3.4105996721       42.1405751479  TIP3      1985            0.0000000000
     57469      3345  TIP3      H1            -23.0164638417        3.0126628440       41.3704404424  TIP3      1985            0.0000000000
     57470      3345  TIP3      H2            -22.4136660464        4.3265235552       41.8247763158  TIP3      1985            0.0000000000
     57471      3346  TIP3      OH2           -38.4384909953        3.7108821483       39.0880933149  TIP3      1986            0.0000000000
     57472      3346  TIP3      H1            -38.3485152789        4.2254989610       39.9314408108  TIP3      1986            0.0000000000
     57473      3346  TIP3      H2            -39.1752995931        3.2176270119       39.4939332697  TIP3      1986            0.0000000000
     57474      3347  TIP3      OH2           -30.7442276538       13.0773449765       38.7517920294  TIP3      1987            0.0000000000
     57475      3347  TIP3      H1            -31.2968626818       12.5742372102       39.3660384044  TIP3      1987            0.0000000000
     57476      3347  TIP3      H2            -29.9023930519       12.6167583701       38.8293103752  TIP3      1987            0.0000000000
     57477      3348  TIP3      OH2           -29.8363609690        9.9782312746       38.6912917468  TIP3      1988            0.0000000000
     57478      3348  TIP3      H1            -29.9967255234       10.0775111641       39.6469739308  TIP3      1988            0.0000000000
     57479      3348  TIP3      H2            -29.9268622174        8.9969365296       38.6878050088  TIP3      1988            0.0000000000
     57480      3349  TIP3      OH2           -32.9282239000        5.0516161928       39.6100095500  TIP3      1989            0.0000000000
     57481      3349  TIP3      H1            -33.0548769882        5.0050589615       38.6451653353  TIP3      1989            0.0000000000
     57482      3349  TIP3      H2            -31.9592352426        5.1750838556       39.6774626819  TIP3      1989            0.0000000000
     57483      3350  TIP3      OH2           -23.5740450581        7.4233749474       39.0899861867  TIP3      1990            0.0000000000
     57484      3350  TIP3      H1            -23.7626475690        7.0345677953       38.2173582161  TIP3      1990            0.0000000000
     57485      3350  TIP3      H2            -23.4365355244        8.3716834781       38.8346653851  TIP3      1990            0.0000000000
     57486      3351  TIP3      OH2           -22.4397166093        6.2082744737       41.2769003069  TIP3      1991            0.0000000000
     57487      3351  TIP3      H1            -22.8661203742        6.6221612423       40.4924117798  TIP3      1991            0.0000000000
     57488      3351  TIP3      H2            -22.3819593471        6.9576827840       41.8844816637  TIP3      1991            0.0000000000
     57489      3352  TIP3      OH2           -40.5390473217       -1.3975633028       40.8879940683  TIP3      1992            0.0000000000
     57490      3352  TIP3      H1            -39.6026097807       -1.5431245019       40.6434748207  TIP3      1992            0.0000000000
     57491      3352  TIP3      H2            -40.2007878475       -1.5069004808       41.8344904093  TIP3      1992            0.0000000000
     57492      3353  TIP3      OH2           -36.8912096891       -0.1301671424       39.5881571532  TIP3      1993            0.0000000000
     57493      3353  TIP3      H1            -36.5804891131       -1.0186314877       39.6715476939  TIP3      1993            0.0000000000
     57494      3353  TIP3      H2            -36.6698462992        0.1205672362       40.5292987771  TIP3      1993            0.0000000000
     57495      3354  TIP3      OH2            -3.7566298528       12.0747680736       39.4329735929  TIP3      1994            0.0000000000
     57496      3354  TIP3      H1             -4.0893091091       12.7107124175       40.1170162026  TIP3      1994            0.0000000000
     57497      3354  TIP3      H2             -3.1586814716       11.5932328423       40.0236497484  TIP3      1994            0.0000000000
     57498      3355  TIP3      OH2            -8.7477252126       14.6940412267       40.7166333423  TIP3      1995            0.0000000000
     57499      3355  TIP3      H1             -8.3232797740       13.9916688056       40.1732771219  TIP3      1995            0.0000000000
     57500      3355  TIP3      H2             -8.6585846789       14.3337963039       41.6031978911  TIP3      1995            0.0000000000
     57501      3356  TIP3      OH2            -7.5308568976        6.7988165026       39.4677353962  TIP3      1996            0.0000000000
     57502      3356  TIP3      H1             -7.5139199075        6.6288292504       38.5211803063  TIP3      1996            0.0000000000
     57503      3356  TIP3      H2             -6.7099479009        7.2934153562       39.6302474819  TIP3      1996            0.0000000000
     57504      3357  TIP3      OH2           -20.5890171946        1.5810862190       41.6177261234  TIP3      1997            0.0000000000
     57505      3357  TIP3      H1            -20.0658350790        2.2333338259       41.1203472507  TIP3      1997            0.0000000000
     57506      3357  TIP3      H2            -21.2500358069        2.1669031462       42.0396736255  TIP3      1997            0.0000000000
     57507      3358  TIP3      OH2            -7.9296515814       10.1473145632       40.3077682013  TIP3      1998            0.0000000000
     57508      3358  TIP3      H1             -7.5674782934        9.8519712624       41.1543949662  TIP3      1998            0.0000000000
     57509      3358  TIP3      H2             -8.8777983832       10.0726414804       40.4257037461  TIP3      1998            0.0000000000
     57510      3359  TIP3      OH2            -3.4720858624       14.6264657572       40.5653942611  TIP3      1999            0.0000000000
     57511      3359  TIP3      H1             -2.7326350990       15.2245043163       40.4657119771  TIP3      1999            0.0000000000
     57512      3359  TIP3      H2             -4.1702939328       15.1974503542       40.9017257701  TIP3      1999            0.0000000000
     57513      3360  TIP3      OH2           -19.5428486577        3.3830544758       39.7884544025  TIP3      2000            0.0000000000
     57514      3360  TIP3      H1            -19.5904304109        4.3221878369       39.9776652089  TIP3      2000            0.0000000000
     57515      3360  TIP3      H2            -20.4307650525        3.1304758883       39.4864502702  TIP3      2000            0.0000000000
     57516      3361  TIP3      OH2            -7.2564592862       12.8594851015       39.1014776533  TIP3      2001            0.0000000000
     57517      3361  TIP3      H1             -6.8804740901       12.1897778659       39.7050009376  TIP3      2001            0.0000000000
     57518      3361  TIP3      H2             -6.4637840252       13.1598391147       38.6216439233  TIP3      2001            0.0000000000
     57519      3362  TIP3      OH2           -10.7502966829        9.9013430931       38.8367174661  TIP3      2002            0.0000000000
     57520      3362  TIP3      H1            -11.2302447422       10.1087854787       39.6384475286  TIP3      2002            0.0000000000
     57521      3362  TIP3      H2            -11.1003330548        9.0029225341       38.6222898006  TIP3      2002            0.0000000000
     57522      3363  TIP3      OH2            -4.6332502392        7.4329163888       39.0426884682  TIP3      2003            0.0000000000
     57523      3363  TIP3      H1             -4.9130473998        7.0642330242       38.2044518985  TIP3      2003            0.0000000000
     57524      3363  TIP3      H2             -4.6207861827        8.3926580357       38.8242887821  TIP3      2003            0.0000000000
     57525      3364  TIP3      OH2            -3.4949735178        6.3045368677       41.2558943123  TIP3      2004            0.0000000000
     57526      3364  TIP3      H1             -4.0398947470        6.6416860974       40.5187691403  TIP3      2004            0.0000000000
     57527      3364  TIP3      H2             -3.5994587586        6.9808471017       41.9251759695  TIP3      2004            0.0000000000
     57528      3365  TIP3      OH2            -5.9346493437        0.9164329131       38.8555982959  TIP3      2005            0.0000000000
     57529      3365  TIP3      H1             -5.3323638726        0.6011917054       39.5370310551  TIP3      2005            0.0000000000
     57530      3365  TIP3      H2             -6.7561800878        0.4747562204       39.1155909865  TIP3      2005            0.0000000000
     57531      3366  TIP3      OH2           -18.4398259301       -0.3226576740       40.0264130631  TIP3      2006            0.0000000000
     57532      3366  TIP3      H1            -17.8420213223       -0.8271539338       39.4655384265  TIP3      2006            0.0000000000
     57533      3366  TIP3      H2            -17.8327074029        0.0968928572       40.6600578973  TIP3      2006            0.0000000000
     57534      3367  TIP3      OH2             6.9795173619        0.6990901719       40.1441294647  TIP3      2007            0.0000000000
     57535      3367  TIP3      H1              6.5599008819        0.7165265456       41.0034744755  TIP3      2007            0.0000000000
     57536      3367  TIP3      H2              6.5845833970       -0.1106347068       39.7606844375  TIP3      2007            0.0000000000
     57537      3368  TIP3      OH2             3.7954568580        1.2013339333       39.1874712351  TIP3      2008            0.0000000000
     57538      3368  TIP3      H1              3.3718959332        0.6827368680       39.8832449280  TIP3      2008            0.0000000000
     57539      3368  TIP3      H2              3.0721222137        1.5173186061       38.6235052994  TIP3      2008            0.0000000000
     57540      3369  TIP3      OH2             9.5778091660        1.3241994895       40.7788091013  TIP3      2009            0.0000000000
     57541      3369  TIP3      H1              8.6358248578        1.4395362829       40.5478114113  TIP3      2009            0.0000000000
     57542      3369  TIP3      H2              9.9000326955        2.1959132027       41.0139472093  TIP3      2009            0.0000000000
     57543      3370  TIP3      OH2             7.8303521646       10.0646977342       41.3581270969  TIP3      2010            0.0000000000
     57544      3370  TIP3      H1              7.5823607640       10.8011253687       41.9216471368  TIP3      2010            0.0000000000
     57545      3370  TIP3      H2              7.2454820213        9.3883958921       41.7540489084  TIP3      2010            0.0000000000
     57546      3371  TIP3      OH2            15.1861044873        3.4132500604       42.1369774337  TIP3      2011            0.0000000000
     57547      3371  TIP3      H1             14.6629520171        3.0636552311       41.3789821675  TIP3      2011            0.0000000000
     57548      3371  TIP3      H2             15.2836240414        4.3324410289       41.8000045424  TIP3      2011            0.0000000000
     57549      3372  TIP3      OH2            15.3866448101       14.6695363944       40.6031305502  TIP3      2012            0.0000000000
     57550      3372  TIP3      H1             16.1241471089       15.2521301913       40.3984673741  TIP3      2012            0.0000000000
     57551      3372  TIP3      H2             14.6831625459       15.2685451668       40.8766174852  TIP3      2012            0.0000000000
     57552      3373  TIP3      OH2             5.0579990595       11.2936674289       38.9275932034  TIP3      2013            0.0000000000
     57553      3373  TIP3      H1              5.2088386378       10.6051242257       38.2455136809  TIP3      2013            0.0000000000
     57554      3373  TIP3      H2              4.6327491568       10.8062759667       39.6322316447  TIP3      2013            0.0000000000
     57555      3374  TIP3      OH2             7.1453660456       13.1212661853       39.0986252072  TIP3      2014            0.0000000000
     57556      3374  TIP3      H1              6.3967955846       12.5062906037       39.1688404389  TIP3      2014            0.0000000000
     57557      3374  TIP3      H2              7.8123182103       12.6071167110       38.6299737036  TIP3      2014            0.0000000000
     57558      3375  TIP3      OH2             7.8830997083        9.9842663190       38.7680675114  TIP3      2015            0.0000000000
     57559      3375  TIP3      H1              7.7502868296       10.0341966880       39.7329876212  TIP3      2015            0.0000000000
     57560      3375  TIP3      H2              7.8150600556        9.0228433945       38.5932333702  TIP3      2015            0.0000000000
     57561      3376  TIP3      OH2             4.8881716035        5.0495290925       39.6225074853  TIP3      2016            0.0000000000
     57562      3376  TIP3      H1              4.6765959035        5.0085510929       38.6717790299  TIP3      2016            0.0000000000
     57563      3376  TIP3      H2              5.8333178083        5.2154956461       39.6129727805  TIP3      2016            0.0000000000
     57564      3377  TIP3      OH2            -1.7588349229       10.3392995714       40.1513076149  TIP3      2017            0.0000000000
     57565      3377  TIP3      H1             -0.8320723328       10.4996736024       40.3406494229  TIP3      2017            0.0000000000
     57566      3377  TIP3      H2             -1.7241262098        9.7358671742       39.4005499703  TIP3      2017            0.0000000000
     57567      3378  TIP3      OH2            15.2556657593        6.1119704215       41.2063584515  TIP3      2018            0.0000000000
     57568      3378  TIP3      H1             14.7926570767        6.5933804399       40.5110314964  TIP3      2018            0.0000000000
     57569      3378  TIP3      H2             15.3155755064        6.7832926943       41.9029133974  TIP3      2018            0.0000000000
     57570      3379  TIP3      OH2            13.7422008303        3.4848910179       39.8079480149  TIP3      2019            0.0000000000
     57571      3379  TIP3      H1             13.7454202995        4.1407235949       39.0988179126  TIP3      2019            0.0000000000
     57572      3379  TIP3      H2             13.5113120382        2.6639648912       39.3169519157  TIP3      2019            0.0000000000
     57573      3380  TIP3      OH2            12.9470552064        0.9422481833       38.9427828385  TIP3      2020            0.0000000000
     57574      3380  TIP3      H1             13.5558436290        0.4955954630       39.5643615919  TIP3      2020            0.0000000000
     57575      3380  TIP3      H2             12.0988699720        0.4943858884       39.0938779243  TIP3      2020            0.0000000000
     57576      3381  TIP3      OH2            15.0416482461       -0.1556426214       40.5017136990  TIP3      2021            0.0000000000
     57577      3381  TIP3      H1             15.4312947922       -0.9187085572       40.0264788644  TIP3      2021            0.0000000000
     57578      3381  TIP3      H2             15.7585150822        0.4794659750       40.5428241450  TIP3      2021            0.0000000000
     57579      3382  TIP3      OH2            -1.4337943518       -2.2412106761       41.5148250346  TIP3      2022            0.0000000000
     57580      3382  TIP3      H1             -0.9815265097       -1.6379354053       40.9115314351  TIP3      2022            0.0000000000
     57581      3382  TIP3      H2             -2.0561342495       -1.6930511211       41.9838659724  TIP3      2022            0.0000000000
     57582      3383  TIP3      OH2            28.9751139663       14.6539961828       40.6879809279  TIP3      2023            0.0000000000
     57583      3383  TIP3      H1             29.3955575579       13.9349473279       40.1914606867  TIP3      2023            0.0000000000
     57584      3383  TIP3      H2             29.0396106801       14.3559177765       41.5990177440  TIP3      2023            0.0000000000
     57585      3384  TIP3      OH2            17.1083923278        1.5959919286       41.6829278111  TIP3      2024            0.0000000000
     57586      3384  TIP3      H1             17.6078788894        2.2034786818       41.1069748800  TIP3      2024            0.0000000000
     57587      3384  TIP3      H2             16.4160928846        2.2119854417       41.9920130155  TIP3      2024            0.0000000000
     57588      3385  TIP3      OH2            21.2421551193        3.9099541454       40.6351460052  TIP3      2025            0.0000000000
     57589      3385  TIP3      H1             20.6913450119        3.5957082676       39.8932888832  TIP3      2025            0.0000000000
     57590      3385  TIP3      H2             22.0453817498        4.1049276451       40.1422145277  TIP3      2025            0.0000000000
     57591      3386  TIP3      OH2            28.4349105245        1.2750022155       40.8175192274  TIP3      2026            0.0000000000
     57592      3386  TIP3      H1             27.5169960810        1.4478837094       40.5799410597  TIP3      2026            0.0000000000
     57593      3386  TIP3      H2             28.7871356508        2.1463705753       41.0426170805  TIP3      2026            0.0000000000
     57594      3387  TIP3      OH2            17.8677900442        6.2028562062       40.2525093308  TIP3      2027            0.0000000000
     57595      3387  TIP3      H1             18.4337401145        6.8227906980       40.7304255609  TIP3      2027            0.0000000000
     57596      3387  TIP3      H2             16.9901831064        6.4750337696       40.5637814419  TIP3      2027            0.0000000000
     57597      3388  TIP3      OH2            23.9566233345       11.2964328688       38.8310378886  TIP3      2028            0.0000000000
     57598      3388  TIP3      H1             24.0638947305       10.5271173816       38.2651101439  TIP3      2028            0.0000000000
     57599      3388  TIP3      H2             23.5336042772       10.9110342087       39.6382201117  TIP3      2028            0.0000000000
     57600      3389  TIP3      OH2            22.7415456607       10.8303987431       41.2700091860  TIP3      2029            0.0000000000
     57601      3389  TIP3      H1             22.9590066729       10.3342479239       42.0733766604  TIP3      2029            0.0000000000
     57602      3389  TIP3      H2             22.8443794410       11.7404503590       41.6133530012  TIP3      2029            0.0000000000
     57603      3390  TIP3      OH2            25.5472814534       12.5786645489       42.1291219220  TIP3      2030            0.0000000000
     57604      3390  TIP3      H1             24.6643990770       12.9806333059       42.0428048276  TIP3      2030            0.0000000000
     57605      3390  TIP3      H2             26.0319631556       13.0152882204       41.4170814952  TIP3      2030            0.0000000000
     57606      3391  TIP3      OH2            22.9385039066       13.5774151272       42.0183325072  TIP3      2031            0.0000000000
     57607      3391  TIP3      H1             22.9842797748       14.3834714124       41.4526399481  TIP3      2031            0.0000000000
     57608      3391  TIP3      H2             22.6472638063       13.9286602052       42.8657285007  TIP3      2031            0.0000000000
     57609      3392  TIP3      OH2            19.8354021679       10.7537808017       40.6341315158  TIP3      2032            0.0000000000
     57610      3392  TIP3      H1             20.5184332528       11.3456419141       40.9654231339  TIP3      2032            0.0000000000
     57611      3392  TIP3      H2             20.3519449549       10.2285308345       39.9999883220  TIP3      2032            0.0000000000
     57612      3393  TIP3      OH2            18.1927618384        3.4093354368       39.7469417944  TIP3      2033            0.0000000000
     57613      3393  TIP3      H1             18.1358357521        4.3570013730       40.0029534633  TIP3      2033            0.0000000000
     57614      3393  TIP3      H2             17.2779021416        3.1827397279       39.5543863451  TIP3      2033            0.0000000000
     57615      3394  TIP3      OH2            25.9610475783       13.1757139903       39.0136515451  TIP3      2034            0.0000000000
     57616      3394  TIP3      H1             25.2377794734       12.5291029395       39.2130356211  TIP3      2034            0.0000000000
     57617      3394  TIP3      H2             26.6494897183       12.5740845677       38.7096413288  TIP3      2034            0.0000000000
     57618      3395  TIP3      OH2            21.4184934600        8.8705201145       38.9850474618  TIP3      2035            0.0000000000
     57619      3395  TIP3      H1             21.5050981917        8.0967810640       39.5536127705  TIP3      2035            0.0000000000
     57620      3395  TIP3      H2             22.1160680099        8.7264521243       38.3408851665  TIP3      2035            0.0000000000
     57621      3396  TIP3      OH2            23.5326640109       15.8215645948       40.6860703685  TIP3      2036            0.0000000000
     57622      3396  TIP3      H1             24.5082497848       15.8728602803       40.7487799641  TIP3      2036            0.0000000000
     57623      3396  TIP3      H2             23.3306622109       16.4050973258       39.9418260574  TIP3      2036            0.0000000000
     57624      3397  TIP3      OH2            34.3416022632        6.5048265294       41.0657234711  TIP3      2037            0.0000000000
     57625      3397  TIP3      H1             33.4859630021        6.5450715718       40.5986475049  TIP3      2037            0.0000000000
     57626      3397  TIP3      H2             34.0810327025        6.8960580360       41.9292320574  TIP3      2037            0.0000000000
     57627      3398  TIP3      OH2            17.4528881015       -2.1212371213       41.5983754384  TIP3      2038            0.0000000000
     57628      3398  TIP3      H1             17.8770968524       -1.5149566468       40.9764878380  TIP3      2038            0.0000000000
     57629      3398  TIP3      H2             16.7562083117       -1.5898667260       41.9789210872  TIP3      2038            0.0000000000
     57630      3399  TIP3      OH2            19.3287109046       -0.2050241844       39.9590646539  TIP3      2039            0.0000000000
     57631      3399  TIP3      H1             19.8641711731       -0.8507507069       39.5018938454  TIP3      2039            0.0000000000
     57632      3399  TIP3      H2             19.8849599234        0.0872193483       40.6966224327  TIP3      2039            0.0000000000
     57633      3400  TIP3      OH2            26.1985267959       15.0455767753       40.8706354632  TIP3      2040            0.0000000000
     57634      3400  TIP3      H1             27.0945150444       15.3477162493       40.6481827659  TIP3      2040            0.0000000000
     57635      3400  TIP3      H2             25.9938700439       14.5282443441       40.0544833369  TIP3      2040            0.0000000000
     57636      3401  TIP3      OH2            19.0594114514       14.6644970236       39.4961274132  TIP3      2041            0.0000000000
     57637      3401  TIP3      H1             18.8988064349       15.0016447773       40.3826758632  TIP3      2041            0.0000000000
     57638      3401  TIP3      H2             19.9178005541       14.2045374052       39.5968247015  TIP3      2041            0.0000000000
     57639      3402  TIP3      OH2            36.8222466090        5.9034748275       40.6734114145  TIP3      2042            0.0000000000
     57640      3402  TIP3      H1             37.4090313373        6.5938588641       41.0904772573  TIP3      2042            0.0000000000
     57641      3402  TIP3      H2             35.8969646989        6.1228706675       40.9951972035  TIP3      2042            0.0000000000
     57642      3403  TIP3      OH2            37.9328176967        8.1074156506       41.6321177440  TIP3      2043            0.0000000000
     57643      3403  TIP3      H1             37.4645310371        8.4341900103       42.4196928318  TIP3      2043            0.0000000000
     57644      3403  TIP3      H2             38.6003348358        8.8236258364       41.5589050509  TIP3      2043            0.0000000000
     57645      3404  TIP3      OH2            38.7268812735       10.6558695078       40.6653134509  TIP3      2044            0.0000000000
     57646      3404  TIP3      H1             39.2665583219       11.4046197247       40.9484186696  TIP3      2044            0.0000000000
     57647      3404  TIP3      H2             39.2410082570       10.3126456553       39.9191792745  TIP3      2044            0.0000000000
     57648      3405  TIP3      OH2            40.1962262224        8.8067602117       38.9747254920  TIP3      2045            0.0000000000
     57649      3405  TIP3      H1             40.4463063082        8.0945493872       39.5768031065  TIP3      2045            0.0000000000
     57650      3405  TIP3      H2             40.9764326424        8.7962378813       38.3984694859  TIP3      2045            0.0000000000
     57651      3406  TIP3      OH2            36.0209995231       10.1616793034       40.2210655024  TIP3      2046            0.0000000000
     57652      3406  TIP3      H1             36.9064136592       10.5588846665       40.3713775744  TIP3      2046            0.0000000000
     57653      3406  TIP3      H2             35.9893946540        9.9018461594       39.3018174071  TIP3      2046            0.0000000000
     57654      3407  TIP3      OH2           -27.6305158476       33.5360227328       40.6612980472  TIP3      2047            0.0000000000
     57655      3407  TIP3      H1            -27.1335916449       32.8283228464       40.2249988461  TIP3      2047            0.0000000000
     57656      3407  TIP3      H2            -27.5432086574       33.3018398560       41.6022640614  TIP3      2047            0.0000000000
     57657      3408  TIP3      OH2           -26.2772492434       25.6088013066       39.5325566039  TIP3      2048            0.0000000000
     57658      3408  TIP3      H1            -26.5610894736       25.5088482408       38.6181685057  TIP3      2048            0.0000000000
     57659      3408  TIP3      H2            -25.5111886334       26.1829049427       39.6043366916  TIP3      2048            0.0000000000
     57660      3409  TIP3      OH2           -30.8058002754       19.5708726566       40.1294821421  TIP3      2049            0.0000000000
     57661      3409  TIP3      H1            -31.0816593795       19.6063578845       41.0451626128  TIP3      2049            0.0000000000
     57662      3409  TIP3      H2            -31.1283815929       18.7294362461       39.7866021321  TIP3      2049            0.0000000000
     57663      3410  TIP3      OH2           -33.9913992158       19.9815354765       39.1846780453  TIP3      2050            0.0000000000
     57664      3410  TIP3      H1            -34.4189132372       19.6016764643       39.9506834907  TIP3      2050            0.0000000000
     57665      3410  TIP3      H2            -34.6961208776       20.4618184194       38.7167667989  TIP3      2050            0.0000000000
     57666      3411  TIP3      OH2           -27.3590912367       22.0440647136       42.3375979625  TIP3      2051            0.0000000000
     57667      3411  TIP3      H1            -26.4901880126       21.9289844342       42.7053360313  TIP3      2051            0.0000000000
     57668      3411  TIP3      H2            -27.3728081195       22.8497575491       41.8146839670  TIP3      2051            0.0000000000
     57669      3412  TIP3      OH2           -23.3841995871       23.0879224930       42.3499245423  TIP3      2052            0.0000000000
     57670      3412  TIP3      H1            -23.8222579678       22.5516326441       41.6402560433  TIP3      2052            0.0000000000
     57671      3412  TIP3      H2            -22.7304814494       23.7116537985       41.9204962665  TIP3      2052            0.0000000000
     57672      3413  TIP3      OH2           -26.7714236327       28.9866565650       40.3071423799  TIP3      2053            0.0000000000
     57673      3413  TIP3      H1            -26.4815405004       28.6964925983       41.1837338379  TIP3      2053            0.0000000000
     57674      3413  TIP3      H2            -27.7309011539       28.9185605547       40.4313389020  TIP3      2053            0.0000000000
     57675      3414  TIP3      OH2           -33.5682645665       29.7067993337       41.2281279652  TIP3      2054            0.0000000000
     57676      3414  TIP3      H1            -33.6065111838       29.2298610462       42.0569755828  TIP3      2054            0.0000000000
     57677      3414  TIP3      H2            -33.7161474117       30.6057620378       41.5726383095  TIP3      2054            0.0000000000
     57678      3415  TIP3      OH2           -31.0435863285       31.4184854492       42.0568810677  TIP3      2055            0.0000000000
     57679      3415  TIP3      H1            -31.8880849506       31.8967378489       42.0573570265  TIP3      2055            0.0000000000
     57680      3415  TIP3      H2            -30.5190822294       31.9283219279       41.4262101352  TIP3      2055            0.0000000000
     57681      3416  TIP3      OH2           -33.7699009278       32.4219728812       41.9952803831  TIP3      2056            0.0000000000
     57682      3416  TIP3      H1            -33.5310612333       33.2260460306       41.4700341962  TIP3      2056            0.0000000000
     57683      3416  TIP3      H2            -33.8559838637       32.8024795029       42.8757257198  TIP3      2056            0.0000000000
     57684      3417  TIP3      OH2           -38.4064127125       22.2585280684       39.7817047438  TIP3      2057            0.0000000000
     57685      3417  TIP3      H1            -38.4370599188       23.1929937718       39.9649196561  TIP3      2057            0.0000000000
     57686      3417  TIP3      H2            -39.2779063663       21.9752090938       39.5098392177  TIP3      2057            0.0000000000
     57687      3418  TIP3      OH2           -30.6598419422       32.0209763064       38.9385166615  TIP3      2058            0.0000000000
     57688      3418  TIP3      H1            -31.2756362214       31.3670101902       39.3029007128  TIP3      2058            0.0000000000
     57689      3418  TIP3      H2            -29.8956412079       31.4733710763       38.7085769248  TIP3      2058            0.0000000000
     57690      3419  TIP3      OH2           -23.5248431938       26.2242203056       39.0667096387  TIP3      2059            0.0000000000
     57691      3419  TIP3      H1            -23.7250935707       25.9746165698       38.2029953717  TIP3      2059            0.0000000000
     57692      3419  TIP3      H2            -23.4372895176       27.2199939336       38.9615935506  TIP3      2059            0.0000000000
     57693      3420  TIP3      OH2           -33.0579909782       34.6102816024       40.6690237990  TIP3      2060            0.0000000000
     57694      3420  TIP3      H1            -32.0945719911       34.7552899927       40.7594099038  TIP3      2060            0.0000000000
     57695      3420  TIP3      H2            -33.2323916099       35.3160036666       40.0093385304  TIP3      2060            0.0000000000
     57696      3421  TIP3      OH2           -22.3506848557       25.1338446991       41.1687056016  TIP3      2061            0.0000000000
     57697      3421  TIP3      H1            -22.9301468665       25.5797646244       40.5113520839  TIP3      2061            0.0000000000
     57698      3421  TIP3      H2            -22.3999572468       25.7940420561       41.8959329122  TIP3      2061            0.0000000000
     57699      3422  TIP3      OH2           -23.6928291944       22.2889364280       39.7370303291  TIP3      2062            0.0000000000
     57700      3422  TIP3      H1            -24.0579417361       22.9949227605       39.1746965206  TIP3      2062            0.0000000000
     57701      3422  TIP3      H2            -24.2542155218       21.5297223225       39.3670446442  TIP3      2062            0.0000000000
     57702      3423  TIP3      OH2           -24.7644566527       19.8990636578       38.9361353717  TIP3      2063            0.0000000000
     57703      3423  TIP3      H1            -24.1959812863       19.3665710097       39.5259344366  TIP3      2063            0.0000000000
     57704      3423  TIP3      H2            -25.5941112026       19.4165396928       39.0894484034  TIP3      2063            0.0000000000
     57705      3424  TIP3      OH2           -22.6406726045       18.7648740741       40.4415361990  TIP3      2064            0.0000000000
     57706      3424  TIP3      H1            -22.3114745985       17.9554451176       40.0030295490  TIP3      2064            0.0000000000
     57707      3424  TIP3      H2            -21.8251322092       19.2286037078       40.5193196921  TIP3      2064            0.0000000000
     57708      3425  TIP3      OH2           -37.1973892287       18.7019121223       39.9475723173  TIP3      2065            0.0000000000
     57709      3425  TIP3      H1            -36.8257629589       17.9343265947       39.4936402497  TIP3      2065            0.0000000000
     57710      3425  TIP3      H2            -36.6415840386       18.8594338797       40.7054281373  TIP3      2065            0.0000000000
     57711      3426  TIP3      OH2           -30.3756590199       33.8748076256       40.8884125876  TIP3      2066            0.0000000000
     57712      3426  TIP3      H1            -29.4810779770       34.2038543624       40.6981436466  TIP3      2066            0.0000000000
     57713      3426  TIP3      H2            -30.5820419679       33.4101433888       40.0444895994  TIP3      2066            0.0000000000
     57714      3427  TIP3      OH2           -37.3935024775       33.4906947035       39.4349972529  TIP3      2067            0.0000000000
     57715      3427  TIP3      H1            -37.6433738742       33.8561529525       40.2998316625  TIP3      2067            0.0000000000
     57716      3427  TIP3      H2            -36.6088789072       32.9839759209       39.7081264833  TIP3      2067            0.0000000000
     57717      3428  TIP3      OH2            -9.0384164077       24.6835355023       41.7925699249  TIP3      2068            0.0000000000
     57718      3428  TIP3      H1             -8.4278660163       24.8218383703       42.5125850138  TIP3      2068            0.0000000000
     57719      3428  TIP3      H2             -8.5937812744       25.1163356592       41.0392337710  TIP3      2068            0.0000000000
     57720      3429  TIP3      OH2            -5.2736224594       16.5673636984       41.8194107635  TIP3      2069            0.0000000000
     57721      3429  TIP3      H1             -6.2301823980       16.4353381590       41.8234526449  TIP3      2069            0.0000000000
     57722      3429  TIP3      H2             -5.1180041673       17.2090830603       41.1240615355  TIP3      2069            0.0000000000
     57723      3430  TIP3      OH2            -7.5242320249       25.5936400687       39.5178398100  TIP3      2070            0.0000000000
     57724      3430  TIP3      H1             -7.5568153313       25.4941658268       38.5404455521  TIP3      2070            0.0000000000
     57725      3430  TIP3      H2             -6.7636318621       26.1685458358       39.6158825947  TIP3      2070            0.0000000000
     57726      3431  TIP3      OH2           -20.5221506689       20.3884156732       41.4432876520  TIP3      2071            0.0000000000
     57727      3431  TIP3      H1            -19.7847792455       20.9557499510       41.1142615162  TIP3      2071            0.0000000000
     57728      3431  TIP3      H2            -20.6007929258       20.5625668076       42.4033779890  TIP3      2071            0.0000000000
     57729      3432  TIP3      OH2           -16.5072378456       22.8564942133       40.5670754660  TIP3      2072            0.0000000000
     57730      3432  TIP3      H1            -16.9707037956       22.3875730884       39.8744142248  TIP3      2072            0.0000000000
     57731      3432  TIP3      H2            -15.6485148241       22.9484338365       40.1548736241  TIP3      2072            0.0000000000
     57732      3433  TIP3      OH2           -11.0650726903       28.8244862408       41.4736119598  TIP3      2073            0.0000000000
     57733      3433  TIP3      H1            -11.3115314744       29.6414242723       41.9424565824  TIP3      2073            0.0000000000
     57734      3433  TIP3      H2            -11.7104932549       28.1964540956       41.7997853884  TIP3      2073            0.0000000000
     57735      3434  TIP3      OH2            -3.6938244631       22.2314044940       42.1734608893  TIP3      2074            0.0000000000
     57736      3434  TIP3      H1             -4.1753426632       21.9233189142       41.3822585147  TIP3      2074            0.0000000000
     57737      3434  TIP3      H2             -3.4890155985       23.1260203348       41.8284639069  TIP3      2074            0.0000000000
     57738      3435  TIP3      OH2           -19.8813206703       24.9891871375       40.2400645458  TIP3      2075            0.0000000000
     57739      3435  TIP3      H1            -19.2514759641       25.6366432549       40.6468765521  TIP3      2075            0.0000000000
     57740      3435  TIP3      H2            -20.7032864003       25.3925483532       40.5918733340  TIP3      2075            0.0000000000
     57741      3436  TIP3      OH2           -12.1924517416       31.4212019638       42.0907137847  TIP3      2076            0.0000000000
     57742      3436  TIP3      H1            -13.0159208058       31.9179400155       42.0082893163  TIP3      2076            0.0000000000
     57743      3436  TIP3      H2            -11.6679454400       31.8893252248       41.4118987073  TIP3      2076            0.0000000000
     57744      3437  TIP3      OH2           -19.6080371106       22.2812462151       39.6517824332  TIP3      2077            0.0000000000
     57745      3437  TIP3      H1            -19.5147093695       23.1869964825       40.0711229107  TIP3      2077            0.0000000000
     57746      3437  TIP3      H2            -20.5092419663       22.0094626073       39.6019382400  TIP3      2077            0.0000000000
     57747      3438  TIP3      OH2           -11.8074949226       32.0199521190       38.8820540002  TIP3      2078            0.0000000000
     57748      3438  TIP3      H1            -12.4436477076       31.3897414385       39.2555905766  TIP3      2078            0.0000000000
     57749      3438  TIP3      H2            -11.0346665590       31.4391511691       38.7526224441  TIP3      2078            0.0000000000
     57750      3439  TIP3      OH2           -10.9562845447       28.8325875709       38.7328532401  TIP3      2079            0.0000000000
     57751      3439  TIP3      H1            -11.0859365166       28.8927661311       39.6998976166  TIP3      2079            0.0000000000
     57752      3439  TIP3      H2            -11.0919293330       27.8626423226       38.6385674732  TIP3      2079            0.0000000000
     57753      3440  TIP3      OH2           -14.9945978524       25.6759195072       41.4221409494  TIP3      2080            0.0000000000
     57754      3440  TIP3      H1            -15.6200017569       25.2206693385       42.0065619038  TIP3      2080            0.0000000000
     57755      3440  TIP3      H2            -14.9184873616       25.0664614172       40.6903199072  TIP3      2080            0.0000000000
     57756      3441  TIP3      OH2            -3.5035836006       25.0941425790       41.1984305471  TIP3      2081            0.0000000000
     57757      3441  TIP3      H1             -4.0907911080       25.4508951840       40.5330873376  TIP3      2081            0.0000000000
     57758      3441  TIP3      H2             -3.5446707143       25.7058272031       41.9443156435  TIP3      2081            0.0000000000
     57759      3442  TIP3      OH2            -5.0785471663       22.3464981039       39.7678585232  TIP3      2082            0.0000000000
     57760      3442  TIP3      H1             -5.1226385681       23.0145028463       39.0791378535  TIP3      2082            0.0000000000
     57761      3442  TIP3      H2             -5.4049217756       21.5392450982       39.3283495104  TIP3      2082            0.0000000000
     57762      3443  TIP3      OH2            -5.9525087522       19.7982379851       38.8970664985  TIP3      2083            0.0000000000
     57763      3443  TIP3      H1             -5.3451331797       19.3865032933       39.5052648644  TIP3      2083            0.0000000000
     57764      3443  TIP3      H2             -6.7758692574       19.3656163209       39.1339857620  TIP3      2083            0.0000000000
     57765      3444  TIP3      OH2           -11.4640168648       33.7837571556       40.9518722114  TIP3      2084            0.0000000000
     57766      3444  TIP3      H1            -10.6513433485       34.2330806184       40.7040547458  TIP3      2084            0.0000000000
     57767      3444  TIP3      H2            -11.7494496395       33.4291067375       40.0781240818  TIP3      2084            0.0000000000
     57768      3445  TIP3      OH2             7.5448005713       23.6539030298       40.2575001705  TIP3      2085            0.0000000000
     57769      3445  TIP3      H1              8.3187026338       23.8411587759       40.8020332663  TIP3      2085            0.0000000000
     57770      3445  TIP3      H2              7.9348152020       23.1642963799       39.5257035529  TIP3      2085            0.0000000000
     57771      3446  TIP3      OH2             9.9611090896       24.6012345031       41.7896460139  TIP3      2086            0.0000000000
     57772      3446  TIP3      H1             10.4552865556       24.9612617931       42.5316299073  TIP3      2086            0.0000000000
     57773      3446  TIP3      H2             10.2360704314       25.1564110501       41.0333555802  TIP3      2086            0.0000000000
     57774      3447  TIP3      OH2            13.6276196671       16.5594177509       41.7997627615  TIP3      2087            0.0000000000
     57775      3447  TIP3      H1             12.6582698717       16.4489120790       41.8340672407  TIP3      2087            0.0000000000
     57776      3447  TIP3      H2             13.7921647602       17.2733110087       41.1581285964  TIP3      2087            0.0000000000
     57777      3448  TIP3      OH2            14.7646009722       30.7358100468       39.9241989370  TIP3      2088            0.0000000000
     57778      3448  TIP3      H1             14.7511686765       31.7029758692       40.1506055113  TIP3      2088            0.0000000000
     57779      3448  TIP3      H2             15.7032202309       30.5593373042       39.9963961093  TIP3      2088            0.0000000000
     57780      3449  TIP3      OH2            11.2639255388       25.7454853480       39.5315236530  TIP3      2089            0.0000000000
     57781      3449  TIP3      H1             11.2498453924       25.4940690259       38.5776554385  TIP3      2089            0.0000000000
     57782      3449  TIP3      H2             12.1563287798       26.0317617463       39.6695792115  TIP3      2089            0.0000000000
     57783      3450  TIP3      OH2             2.4786451366       22.8205858157       40.6232888874  TIP3      2090            0.0000000000
     57784      3450  TIP3      H1              1.8371755428       22.4308724370       40.0014104351  TIP3      2090            0.0000000000
     57785      3450  TIP3      H2              3.2609868292       23.0215861303       40.0932125300  TIP3      2090            0.0000000000
     57786      3451  TIP3      OH2             9.5646091319       20.1194964586       40.7941715936  TIP3      2091            0.0000000000
     57787      3451  TIP3      H1              8.6366997680       20.2884830899       40.5758390359  TIP3      2091            0.0000000000
     57788      3451  TIP3      H2              9.8686138730       21.0202235424       40.9814827325  TIP3      2091            0.0000000000
     57789      3452  TIP3      OH2            10.2947721541       22.2001565148       42.2178014197  TIP3      2092            0.0000000000
     57790      3452  TIP3      H1             11.2380334369       22.2991311438       42.1752666416  TIP3      2092            0.0000000000
     57791      3452  TIP3      H2             10.1572245913       23.0337731872       41.6868559464  TIP3      2092            0.0000000000
     57792      3453  TIP3      OH2            15.0463159665       22.2253152031       42.2041829787  TIP3      2093            0.0000000000
     57793      3453  TIP3      H1             14.7055621192       21.8948799171       41.3574495037  TIP3      2093            0.0000000000
     57794      3453  TIP3      H2             15.3617407064       23.0938340230       41.8588069319  TIP3      2093            0.0000000000
     57795      3454  TIP3      OH2            -1.0441924551       25.1175366396       40.1537077595  TIP3      2094            0.0000000000
     57796      3454  TIP3      H1             -0.4123141111       25.6111533491       40.7240834368  TIP3      2094            0.0000000000
     57797      3454  TIP3      H2             -1.8826138792       25.3245987966       40.5957469997  TIP3      2094            0.0000000000
     57798      3455  TIP3      OH2            15.4044161640       33.4830917877       40.5435681743  TIP3      2095            0.0000000000
     57799      3455  TIP3      H1             16.1504165734       34.0810605044       40.4195438974  TIP3      2095            0.0000000000
     57800      3455  TIP3      H2             14.6910822731       34.0540435637       40.8613432156  TIP3      2095            0.0000000000
     57801      3456  TIP3      OH2             0.3113293866       26.9956855883       41.6910714845  TIP3      2096            0.0000000000
     57802      3456  TIP3      H1             -0.2267137324       27.3221423100       42.4035589940  TIP3      2096            0.0000000000
     57803      3456  TIP3      H2              0.9213300657       27.7382245124       41.5146936800  TIP3      2096            0.0000000000
     57804      3457  TIP3      OH2             4.0378952381       32.4144284442       42.0654487033  TIP3      2097            0.0000000000
     57805      3457  TIP3      H1              4.1227043124       33.1991045188       41.4935040002  TIP3      2097            0.0000000000
     57806      3457  TIP3      H2              3.8195363611       32.7821355528       42.9278196048  TIP3      2097            0.0000000000
     57807      3458  TIP3      OH2             1.0283051270       29.5423470778       40.6441773074  TIP3      2098            0.0000000000
     57808      3458  TIP3      H1              1.6246147072       30.2206089547       40.9952837956  TIP3      2098            0.0000000000
     57809      3458  TIP3      H2              1.5251827194       29.1033024771       39.9413293438  TIP3      2098            0.0000000000
     57810      3459  TIP3      OH2             2.5030205434       27.6706378837       38.9619743032  TIP3      2099            0.0000000000
     57811      3459  TIP3      H1              2.6952289808       26.9610285940       39.5944424554  TIP3      2099            0.0000000000
     57812      3459  TIP3      H2              3.2973284794       27.6149724700       38.3893029197  TIP3      2099            0.0000000000
     57813      3460  TIP3      OH2             3.7641072330       25.7169505344       41.3267586414  TIP3      2100            0.0000000000
     57814      3460  TIP3      H1              3.2771301241       25.2555943714       42.0230070636  TIP3      2100            0.0000000000
     57815      3460  TIP3      H2              3.9751885427       25.0008555320       40.7113147782  TIP3      2100            0.0000000000
     57816      3461  TIP3      OH2             4.8140345709       23.8685796036       39.5882055048  TIP3      2101            0.0000000000
     57817      3461  TIP3      H1              4.6710709253       23.8518359391       38.6147777184  TIP3      2101            0.0000000000
     57818      3461  TIP3      H2              5.7786528437       24.0149782698       39.6698361659  TIP3      2101            0.0000000000
     57819      3462  TIP3      OH2            13.9308920019       25.7755527886       39.2419563723  TIP3      2102            0.0000000000
     57820      3462  TIP3      H1             13.7715396015       25.5787494999       38.2790351228  TIP3      2102            0.0000000000
     57821      3462  TIP3      H2             13.6019391751       26.6301392212       39.5710272282  TIP3      2102            0.0000000000
     57822      3463  TIP3      OH2             4.7180507189       34.6548411057       40.6172130848  TIP3      2103            0.0000000000
     57823      3463  TIP3      H1              5.6585110047       34.7793839478       40.7285199222  TIP3      2103            0.0000000000
     57824      3463  TIP3      H2              4.4506698097       35.3404478095       40.0021680167  TIP3      2103            0.0000000000
     57825      3464  TIP3      OH2            15.3453750832       25.0392693915       41.2995395064  TIP3      2104            0.0000000000
     57826      3464  TIP3      H1             14.7725024354       25.3495368946       40.5844355597  TIP3      2104            0.0000000000
     57827      3464  TIP3      H2             15.3356197908       25.7510722396       41.9572670407  TIP3      2104            0.0000000000
     57828      3465  TIP3      OH2            13.6074971804       22.3702521671       39.8003998781  TIP3      2105            0.0000000000
     57829      3465  TIP3      H1             13.7928945650       22.9968650045       39.1009175163  TIP3      2105            0.0000000000
     57830      3465  TIP3      H2             13.5312227534       21.5290016873       39.3000193156  TIP3      2105            0.0000000000
     57831      3466  TIP3      OH2            12.9005440264       19.8827395955       38.9929623930  TIP3      2106            0.0000000000
     57832      3466  TIP3      H1             13.5432486543       19.3679713760       39.5152870229  TIP3      2106            0.0000000000
     57833      3466  TIP3      H2             12.1045700844       19.3282540996       39.0545807475  TIP3      2106            0.0000000000
     57834      3467  TIP3      OH2            15.0347188871       18.6948239739       40.5727340469  TIP3      2107            0.0000000000
     57835      3467  TIP3      H1             15.3736174282       17.9453852607       40.0177496281  TIP3      2107            0.0000000000
     57836      3467  TIP3      H2             15.7504922731       19.3293969342       40.4303792115  TIP3      2107            0.0000000000
     57837      3468  TIP3      OH2             0.3237384324       33.5785164559       39.4450031911  TIP3      2108            0.0000000000
     57838      3468  TIP3      H1              0.0089427830       33.7931033101       40.3394440009  TIP3      2108            0.0000000000
     57839      3468  TIP3      H2              1.0940462761       33.0113986923       39.6285039364  TIP3      2108            0.0000000000
     57840      3469  TIP3      OH2            25.7601113586       19.5385264320       39.9981357239  TIP3      2109            0.0000000000
     57841      3469  TIP3      H1             25.5634588533       19.6312797767       40.9473285132  TIP3      2109            0.0000000000
     57842      3469  TIP3      H2             25.4711225984       18.6620815179       39.7834065944  TIP3      2109            0.0000000000
     57843      3470  TIP3      OH2            21.6059297220       27.8040055072       39.1899794790  TIP3      2110            0.0000000000
     57844      3470  TIP3      H1             21.3584574329       26.9377712653       39.5312242627  TIP3      2110            0.0000000000
     57845      3470  TIP3      H2             21.9876452840       27.5984968769       38.3400929596  TIP3      2110            0.0000000000
     57846      3471  TIP3      OH2            19.1095314382       33.4897483054       39.4627594107  TIP3      2111            0.0000000000
     57847      3471  TIP3      H1             18.9457037285       33.8588412412       40.3292625704  TIP3      2111            0.0000000000
     57848      3471  TIP3      H2             19.9618731856       33.0377493681       39.6112200125  TIP3      2111            0.0000000000
     57849      3472  TIP3      OH2            40.0867968298       22.8328559641       40.6045753803  TIP3      2112            0.0000000000
     57850      3472  TIP3      H1             39.5508492750       22.4159283472       39.9038682604  TIP3      2112            0.0000000000
     57851      3472  TIP3      H2             40.9249381139       22.9996036090       40.1726047127  TIP3      2112            0.0000000000
     57852      3473  TIP3      OH2            38.1472654996       26.9356071807       41.8211846147  TIP3      2113            0.0000000000
     57853      3473  TIP3      H1             37.3839276018       27.2417317573       42.3260352954  TIP3      2113            0.0000000000
     57854      3473  TIP3      H2             38.5350470156       27.7311869002       41.4887665782  TIP3      2113            0.0000000000
     57855      3474  TIP3      OH2           -41.0107046358       19.1399506049       41.6330324332  TIP3      2114            0.0000000000
     57856      3474  TIP3      H1            -41.0632411940       20.0317626499       41.9688713962  TIP3      2114            0.0000000000
     57857      3474  TIP3      H2            -40.1019135137       18.9046960721       41.8213942144  TIP3      2114            0.0000000000
     57858      3475  TIP3      OH2            38.7277028812       29.6814615986       40.5796681751  TIP3      2115            0.0000000000
     57859      3475  TIP3      H1             39.4328037598       30.1327172871       41.0055956501  TIP3      2115            0.0000000000
     57860      3475  TIP3      H2             39.1575875926       29.0662990643       39.9408336991  TIP3      2115            0.0000000000
     57861      3476  TIP3      OH2            37.0330250688       22.2497032600       39.7405021430  TIP3      2116            0.0000000000
     57862      3476  TIP3      H1             37.0145433661       23.1667765985       40.0278318639  TIP3      2116            0.0000000000
     57863      3476  TIP3      H2             36.1288078390       22.0175258518       39.5626656204  TIP3      2116            0.0000000000
     57864      3477  TIP3      OH2            40.0424043490       27.7125088817       38.9416809407  TIP3      2117            0.0000000000
     57865      3477  TIP3      H1             40.2516880006       26.9825664639       39.5471121658  TIP3      2117            0.0000000000
     57866      3477  TIP3      H2             40.8523509646       27.6145381014       38.4033992831  TIP3      2117            0.0000000000
     57867      3478  TIP3      OH2            36.0116464091       29.2871188223       40.1179058269  TIP3      2118            0.0000000000
     57868      3478  TIP3      H1             36.9373617242       29.2871068655       40.3512176549  TIP3      2118            0.0000000000
     57869      3478  TIP3      H2             35.9528683061       28.6025000905       39.4122933289  TIP3      2118            0.0000000000
     57870      3479  TIP3      OH2            38.0776421270       33.6564315235       39.3379741953  TIP3      2119            0.0000000000
     57871      3479  TIP3      H1             37.4944316173       33.8764673797       40.1646380639  TIP3      2119            0.0000000000
     57872      3479  TIP3      H2             38.5871945207       32.8456765024       39.2694674283  TIP3      2119            0.0000000000
     57873      3480  TIP3      OH2           -31.7012334657       38.1831068120       40.0767341376  TIP3      2120            0.0000000000
     57874      3480  TIP3      H1            -31.1173069142       38.5014105995       40.7966132245  TIP3      2120            0.0000000000
     57875      3480  TIP3      H2            -31.1554055315       37.4926164644       39.7138654306  TIP3      2120            0.0000000000
     57876      3481  TIP3      OH2           -33.9679818341       39.0194246421       39.2297410991  TIP3      2121            0.0000000000
     57877      3481  TIP3      H1            -34.4049570842       38.4163469161       39.8752731840  TIP3      2121            0.0000000000
     57878      3481  TIP3      H2            -34.6987696328       39.2017715172       38.6405231553  TIP3      2121            0.0000000000
     57879      3482  TIP3      OH2           -39.4844321852       40.8509468350       40.8911160582  TIP3      2122            0.0000000000
     57880      3482  TIP3      H1            -38.8065943530       40.1385418141       40.9929544672  TIP3      2122            0.0000000000
     57881      3482  TIP3      H2            -40.0402330642       40.3824673723       41.5741710801  TIP3      2122            0.0000000000
     57882      3483  TIP3      OH2           -29.8360065613       39.4220750139       40.7766809514  TIP3      2123            0.0000000000
     57883      3483  TIP3      H1            -29.4125872282       39.2333032168       39.9188648971  TIP3      2123            0.0000000000
     57884      3483  TIP3      H2            -28.9202260284       39.4858715905       41.0669399130  TIP3      2123            0.0000000000
     57885      3484  TIP3      OH2           -34.9930725737       37.9916948180       41.9241694710  TIP3      2124            0.0000000000
     57886      3484  TIP3      H1            -34.9399782240       38.9548826689       41.9767339699  TIP3      2124            0.0000000000
     57887      3484  TIP3      H2            -34.0446613576       37.7738107263       41.8065819469  TIP3      2124            0.0000000000
     57888      3485  TIP3      OH2           -24.4250623226       38.6591281480       38.5654621152  TIP3      2125            0.0000000000
     57889      3485  TIP3      H1            -24.0965025374       38.2653448596       39.4251362736  TIP3      2125            0.0000000000
     57890      3485  TIP3      H2            -25.3673722852       38.4240426650       38.7650751293  TIP3      2125            0.0000000000
     57891      3486  TIP3      OH2           -22.6414841857       37.5717794077       40.3562452596  TIP3      2126            0.0000000000
     57892      3486  TIP3      H1            -22.2356561553       36.7414889819       40.0264119496  TIP3      2126            0.0000000000
     57893      3486  TIP3      H2            -21.8837817676       38.1069224449       40.6226489276  TIP3      2126            0.0000000000
     57894      3487  TIP3      OH2           -39.0067254164       35.2179841126       41.7859139463  TIP3      2127            0.0000000000
     57895      3487  TIP3      H1            -38.7109755758       35.7682263568       41.0318824604  TIP3      2127            0.0000000000
     57896      3487  TIP3      H2            -39.7554312999       35.8400516544       41.9773242718  TIP3      2127            0.0000000000
     57897      3488  TIP3      OH2           -36.0992385425       37.6799793887       39.6253590669  TIP3      2128            0.0000000000
     57898      3488  TIP3      H1            -36.6425060836       36.8959821151       39.3664409800  TIP3      2128            0.0000000000
     57899      3488  TIP3      H2            -36.3822576107       37.7848207291       40.5411094956  TIP3      2128            0.0000000000
     57900      3489  TIP3      OH2           -11.8703910757       38.3085880755       40.1235800004  TIP3      2129            0.0000000000
     57901      3489  TIP3      H1            -12.3194167666       38.3583371631       40.9685579608  TIP3      2129            0.0000000000
     57902      3489  TIP3      H2            -12.2803261342       37.5086945922       39.7521237770  TIP3      2129            0.0000000000
     57903      3490  TIP3      OH2           -15.1135679150       38.8350476407       39.1655626413  TIP3      2130            0.0000000000
     57904      3490  TIP3      H1            -15.5063239647       38.4677578765       39.9708458406  TIP3      2130            0.0000000000
     57905      3490  TIP3      H2            -15.8343000444       39.2622472538       38.6979179781  TIP3      2130            0.0000000000
     57906      3491  TIP3      OH2           -20.5715853126       39.2584328651       41.5628195024  TIP3      2131            0.0000000000
     57907      3491  TIP3      H1            -20.0897244595       39.9399213187       41.0903733864  TIP3      2131            0.0000000000
     57908      3491  TIP3      H2            -21.1967743757       39.8257219758       42.0685338054  TIP3      2131            0.0000000000
     57909      3492  TIP3      OH2            -9.2941102986       39.0605782139       41.0238696590  TIP3      2132            0.0000000000
     57910      3492  TIP3      H1            -10.1251182277       39.0974880573       40.5015649876  TIP3      2132            0.0000000000
     57911      3492  TIP3      H2             -8.8733605794       39.9121145565       40.8884998136  TIP3      2132            0.0000000000
     57912      3493  TIP3      OH2            -3.9223356844       37.3252412608       40.3013470205  TIP3      2133            0.0000000000
     57913      3493  TIP3      H1             -3.3882911025       36.6716351003       39.9150056519  TIP3      2133            0.0000000000
     57914      3493  TIP3      H2             -3.3186970951       38.0401320987       40.5983347321  TIP3      2133            0.0000000000
     57915      3494  TIP3      OH2           -18.3800662485       37.5165478802       39.9710298761  TIP3      2134            0.0000000000
     57916      3494  TIP3      H1            -17.9265465333       36.8118921416       39.4815234283  TIP3      2134            0.0000000000
     57917      3494  TIP3      H2            -17.7813314906       37.7467954402       40.6831793599  TIP3      2134            0.0000000000
     57918      3495  TIP3      OH2             6.8493168901       38.4627598051       40.0964257961  TIP3      2135            0.0000000000
     57919      3495  TIP3      H1              6.6364527093       38.4972564304       41.0303017842  TIP3      2135            0.0000000000
     57920      3495  TIP3      H2              6.6256260274       37.5754311017       39.8134724553  TIP3      2135            0.0000000000
     57921      3496  TIP3      OH2             3.7398050426       38.7334468403       38.9516393793  TIP3      2136            0.0000000000
     57922      3496  TIP3      H1              3.4276269785       38.5420200478       39.8735531610  TIP3      2136            0.0000000000
     57923      3496  TIP3      H2              3.0853077079       39.3686627702       38.6898564772  TIP3      2136            0.0000000000
     57924      3497  TIP3      OH2            -2.8773536943       39.2960518340       41.2696117773  TIP3      2137            0.0000000000
     57925      3497  TIP3      H1             -2.0495918023       39.6111366914       40.9085867788  TIP3      2137            0.0000000000
     57926      3497  TIP3      H2             -2.6453775380       39.6510978813       42.1442245592  TIP3      2137            0.0000000000
     57927      3498  TIP3      OH2             2.8987491602       38.0759380418       41.1706374673  TIP3      2138            0.0000000000
     57928      3498  TIP3      H1              2.6144378997       38.8075054805       41.7855709595  TIP3      2138            0.0000000000
     57929      3498  TIP3      H2              3.6823208325       37.7728775118       41.6504674461  TIP3      2138            0.0000000000
     57930      3499  TIP3      OH2            12.8174584548       38.6738583506       38.9284385218  TIP3      2139            0.0000000000
     57931      3499  TIP3      H1             13.5100436520       38.3162411327       39.4985848300  TIP3      2139            0.0000000000
     57932      3499  TIP3      H2             12.0662799720       38.1144678292       39.1335557031  TIP3      2139            0.0000000000
     57933      3500  TIP3      OH2             0.4694801980       37.1818019739       40.5653634380  TIP3      2140            0.0000000000
     57934      3500  TIP3      H1              0.7982015247       36.8687679104       39.6917406372  TIP3      2140            0.0000000000
     57935      3500  TIP3      H2              1.1966686247       37.7683642945       40.8108441315  TIP3      2140            0.0000000000
     57936      3501  TIP3      OH2            25.8330297077       38.4413428480       40.1793072720  TIP3      2141            0.0000000000
     57937      3501  TIP3      H1             25.3871307629       38.4065004049       41.0162119177  TIP3      2141            0.0000000000
     57938      3501  TIP3      H2             25.4600136542       37.6180183245       39.7724899947  TIP3      2141            0.0000000000
     57939      3502  TIP3      OH2            28.4886588514       39.0462972614       40.7201434400  TIP3      2142            0.0000000000
     57940      3502  TIP3      H1             27.5176404607       39.1017729437       40.5638395739  TIP3      2142            0.0000000000
     57941      3502  TIP3      H2             28.8140251586       39.8448413671       41.0998579088  TIP3      2142            0.0000000000
     57942      3503  TIP3      OH2            31.6836455046       38.7476424256       39.0008103366  TIP3      2143            0.0000000000
     57943      3503  TIP3      H1             32.3839505263       38.2402644972       39.4710369120  TIP3      2143            0.0000000000
     57944      3503  TIP3      H2             30.9264547174       38.1680336592       39.0946146775  TIP3      2143            0.0000000000
     57945      3504  TIP3      OH2            33.7695660686       37.3502030400       39.8050921571  TIP3      2144            0.0000000000
     57946      3504  TIP3      H1             34.3219464229       36.5855410959       39.8853939580  TIP3      2144            0.0000000000
     57947      3504  TIP3      H2             34.2456576314       38.0339515180       40.2969809247  TIP3      2144            0.0000000000
     57948      3505  TIP3      OH2            36.9051595278       40.2828457858       41.4232417699  TIP3      2145            0.0000000000
     57949      3505  TIP3      H1             36.5222431099       39.9802573800       40.6065879448  TIP3      2145            0.0000000000
     57950      3505  TIP3      H2             36.0662356316       40.1497562153       41.9575011880  TIP3      2145            0.0000000000
     57951      3506  TIP3      OH2           -41.0015186306       36.5269386745       41.3988656264  TIP3      2146            0.0000000000
     57952      3506  TIP3      H1            -41.2534365171       37.5069466005       41.5244611648  TIP3      2146            0.0000000000
     57953      3506  TIP3      H2            -40.1731940412       37.0266234870       41.1343032585  TIP3      2146            0.0000000000
     57954      3507  TIP3      OH2            36.3021444776       34.8740676099       40.7222339404  TIP3      2147            0.0000000000
     57955      3507  TIP3      H1             36.7520798120       35.7655966788       40.7983308917  TIP3      2147            0.0000000000
     57956      3507  TIP3      H2             35.7535824114       35.2942407417       41.4935892825  TIP3      2147            0.0000000000
     57957      3508  TIP3      OH2            38.2086464627       36.2080565373       40.1274838333  TIP3      2148            0.0000000000
     57958      3508  TIP3      H1             38.6327983553       36.6730218507       39.3773577408  TIP3      2148            0.0000000000
     57959      3508  TIP3      H2             38.3686125447       36.9969364807       40.6886463610  TIP3      2148            0.0000000000
     57960      3509  TIP3      OH2           -29.9466856604      -31.2613720937       52.7932664702  TIP3      2149            0.0000000000
     57961      3509  TIP3      H1            -29.9864623207      -31.8923410649       53.5267253773  TIP3      2149            0.0000000000
     57962      3509  TIP3      H2            -30.3186477171      -31.7742765941       52.0595129693  TIP3      2149            0.0000000000
     57963      3510  TIP3      OH2           -26.1265205914      -28.4606908260       51.1758378800  TIP3      2150            0.0000000000
     57964      3510  TIP3      H1            -26.7056350716      -29.0941170953       51.6050314058  TIP3      2150            0.0000000000
     57965      3510  TIP3      H2            -26.2419797338      -27.6573171139       51.6896075488  TIP3      2150            0.0000000000
     57966      3511  TIP3      OH2           -36.6924667895      -27.1488415548       52.8627930683  TIP3      2151            0.0000000000
     57967      3511  TIP3      H1            -37.0090508785      -27.9859449320       52.5376602944  TIP3      2151            0.0000000000
     57968      3511  TIP3      H2            -35.7278604505      -27.2995297077       52.9102553030  TIP3      2151            0.0000000000
     57969      3512  TIP3      OH2           -31.5908504536      -28.8581890344       53.2404675040  TIP3      2152            0.0000000000
     57970      3512  TIP3      H1            -31.2393965242      -29.4997917689       52.6084275509  TIP3      2152            0.0000000000
     57971      3512  TIP3      H2            -30.8054440794      -28.7020121701       53.7897410533  TIP3      2152            0.0000000000
     57972      3513  TIP3      OH2           -35.2889457454      -36.3347451132       50.8043166581  TIP3      2153            0.0000000000
     57973      3513  TIP3      H1            -35.2251575806      -35.4939470505       50.3258365236  TIP3      2153            0.0000000000
     57974      3513  TIP3      H2            -35.6937374326      -36.9029544097       50.1142011498  TIP3      2153            0.0000000000
     57975      3514  TIP3      OH2           -38.5867168772      -34.0304006573       51.5313147439  TIP3      2154            0.0000000000
     57976      3514  TIP3      H1            -37.9229356536      -34.5804873068       51.9554597155  TIP3      2154            0.0000000000
     57977      3514  TIP3      H2            -38.5462085385      -34.2583246572       50.5836150500  TIP3      2154            0.0000000000
     57978      3515  TIP3      OH2           -36.3869451921      -37.3834537848       54.8460196456  TIP3      2155            0.0000000000
     57979      3515  TIP3      H1            -36.7148513588      -36.8476427061       54.0948401304  TIP3      2155            0.0000000000
     57980      3515  TIP3      H2            -37.0881487004      -37.1918040552       55.5249661945  TIP3      2155            0.0000000000
     57981      3516  TIP3      OH2           -33.8883205476      -29.7563346130       55.0767771787  TIP3      2156            0.0000000000
     57982      3516  TIP3      H1            -34.5872532575      -29.1203846451       55.3419731588  TIP3      2156            0.0000000000
     57983      3516  TIP3      H2            -33.1715647117      -29.1573164056       54.8257433899  TIP3      2156            0.0000000000
     57984      3517  TIP3      OH2           -36.8397566379      -35.5757766232       52.8805290622  TIP3      2157            0.0000000000
     57985      3517  TIP3      H1            -36.2148122030      -34.8866289598       53.1872544598  TIP3      2157            0.0000000000
     57986      3517  TIP3      H2            -36.3335324322      -35.9668182619       52.1333066118  TIP3      2157            0.0000000000
     57987      3518  TIP3      OH2           -35.4587366522      -27.7904480045       55.8969286336  TIP3      2158            0.0000000000
     57988      3518  TIP3      H1            -35.4927847439      -26.8676926163       55.5820581014  TIP3      2158            0.0000000000
     57989      3518  TIP3      H2            -36.3381160077      -27.8515990974       56.3336032859  TIP3      2158            0.0000000000
     57990      3519  TIP3      OH2           -32.4731584835      -40.0376680087       52.1002945032  TIP3      2159            0.0000000000
     57991      3519  TIP3      H1            -32.4871232190      -40.9894132458       52.2800210697  TIP3      2159            0.0000000000
     57992      3519  TIP3      H2            -33.2492608783      -39.7502396096       52.6018802415  TIP3      2159            0.0000000000
     57993      3520  TIP3      OH2           -24.6653766880      -28.1844990157       57.0503495428  TIP3      2160            0.0000000000
     57994      3520  TIP3      H1            -24.5198146745      -28.8354824411       56.3298654407  TIP3      2160            0.0000000000
     57995      3520  TIP3      H2            -24.4318509458      -27.3391304305       56.6450024086  TIP3      2160            0.0000000000
     57996      3521  TIP3      OH2           -30.1976294168      -31.3140368718       46.8025360289  TIP3      2161            0.0000000000
     57997      3521  TIP3      H1            -30.8546003375      -30.7074889653       46.4396274951  TIP3      2161            0.0000000000
     57998      3521  TIP3      H2            -29.4627693075      -31.2256432082       46.1729006426  TIP3      2161            0.0000000000
     57999      3522  TIP3      OH2           -30.0833490932      -32.7573273933       43.8326554171  TIP3      2162            0.0000000000
     58000      3522  TIP3      H1            -29.3941068424      -32.7556981149       44.5325132067  TIP3      2162            0.0000000000
     58001      3522  TIP3      H2            -29.7665269952      -33.4473709828       43.2463460293  TIP3      2162            0.0000000000
     58002      3523  TIP3      OH2           -22.6838936753      -31.8338454409       55.1458689363  TIP3      2163            0.0000000000
     58003      3523  TIP3      H1            -23.4589711846      -31.2417759126       55.1584259269  TIP3      2163            0.0000000000
     58004      3523  TIP3      H2            -22.2926163674      -31.6282204863       54.2806203198  TIP3      2163            0.0000000000
     58005      3524  TIP3      OH2           -26.6921253250      -31.0585963851       47.7649563035  TIP3      2164            0.0000000000
     58006      3524  TIP3      H1            -27.4742226244      -30.8335622940       48.2943074886  TIP3      2164            0.0000000000
     58007      3524  TIP3      H2            -26.3180418991      -31.8003511314       48.2432757500  TIP3      2164            0.0000000000
     58008      3525  TIP3      OH2           -33.8223516602      -27.0718281617       52.3635798438  TIP3      2165            0.0000000000
     58009      3525  TIP3      H1            -33.7898607377      -27.5674810529       51.5393182728  TIP3      2165            0.0000000000
     58010      3525  TIP3      H2            -32.9964188786      -27.3683132987       52.7973403669  TIP3      2165            0.0000000000
     58011      3526  TIP3      OH2           -34.6590856728      -31.7194978441       53.3928598384  TIP3      2166            0.0000000000
     58012      3526  TIP3      H1            -34.1803801963      -31.5416218749       52.5750562292  TIP3      2166            0.0000000000
     58013      3526  TIP3      H2            -34.3919719999      -30.9770089731       53.9732728443  TIP3      2166            0.0000000000
     58014      3527  TIP3      OH2           -33.8514345365      -27.2550357793       58.0371760464  TIP3      2167            0.0000000000
     58015      3527  TIP3      H1            -34.2220023448      -26.4744013039       58.5075436284  TIP3      2167            0.0000000000
     58016      3527  TIP3      H2            -34.4924365746      -27.4145224611       57.3136991830  TIP3      2167            0.0000000000
     58017      3528  TIP3      OH2           -27.8589680965      -31.9362726471       45.4229882752  TIP3      2168            0.0000000000
     58018      3528  TIP3      H1            -27.3192454065      -31.7169508472       46.2096386254  TIP3      2168            0.0000000000
     58019      3528  TIP3      H2            -27.4571513342      -31.4087442003       44.7261329182  TIP3      2168            0.0000000000
     58020      3529  TIP3      OH2           -35.6118699716      -25.2415323254       58.7282332118  TIP3      2169            0.0000000000
     58021      3529  TIP3      H1            -35.6511803798      -25.2917014481       57.7580609961  TIP3      2169            0.0000000000
     58022      3529  TIP3      H2            -36.5421210524      -25.2671686865       59.0037217436  TIP3      2169            0.0000000000
     58023      3530  TIP3      OH2           -36.9871489659      -23.4339489459       49.0893262399  TIP3      2170            0.0000000000
     58024      3530  TIP3      H1            -36.8790576499      -23.7773586622       50.0020856027  TIP3      2170            0.0000000000
     58025      3530  TIP3      H2            -37.8707965163      -23.7672738328       48.8815369463  TIP3      2170            0.0000000000
     58026      3531  TIP3      OH2           -37.8102826686      -27.6558681632       57.1038410964  TIP3      2171            0.0000000000
     58027      3531  TIP3      H1            -37.5946981853      -28.0267305471       57.9694209709  TIP3      2171            0.0000000000
     58028      3531  TIP3      H2            -38.6831135265      -28.0221996628       56.9169925866  TIP3      2171            0.0000000000
     58029      3532  TIP3      OH2           -35.0968436795      -39.2010103734       53.0511595438  TIP3      2172            0.0000000000
     58030      3532  TIP3      H1            -36.0027413368      -39.2094289666       52.6717483985  TIP3      2172            0.0000000000
     58031      3532  TIP3      H2            -35.2010483652      -38.3711880425       53.5477078192  TIP3      2172            0.0000000000
     58032      3533  TIP3      OH2           -30.3721878171      -39.0006202113       56.5513044268  TIP3      2173            0.0000000000
     58033      3533  TIP3      H1            -29.9282651489      -39.7042472765       57.0327810380  TIP3      2173            0.0000000000
     58034      3533  TIP3      H2            -31.2495061161      -39.4206520681       56.3855746129  TIP3      2173            0.0000000000
     58035      3534  TIP3      OH2           -35.0041027104      -34.2158233026       54.3056455093  TIP3      2174            0.0000000000
     58036      3534  TIP3      H1            -35.7185351401      -34.2186517860       54.9566851572  TIP3      2174            0.0000000000
     58037      3534  TIP3      H2            -35.0114079126      -33.2966627350       53.9465971650  TIP3      2174            0.0000000000
     58038      3535  TIP3      OH2           -30.4578229876      -33.3631213083       59.3935561800  TIP3      2175            0.0000000000
     58039      3535  TIP3      H1            -30.9721899537      -34.1621602099       59.6802636625  TIP3      2175            0.0000000000
     58040      3535  TIP3      H2            -29.6022243973      -33.5097455574       59.8100507975  TIP3      2175            0.0000000000
     58041      3536  TIP3      OH2           -39.8937668531      -36.7215751809       49.4675897086  TIP3      2176            0.0000000000
     58042      3536  TIP3      H1            -40.0080661045      -36.9121996625       50.4323203086  TIP3      2176            0.0000000000
     58043      3536  TIP3      H2            -39.9768813308      -37.5660710797       49.0234077307  TIP3      2176            0.0000000000
     58044      3537  TIP3      OH2           -29.3083067671      -32.5341169466       55.3134368565  TIP3      2177            0.0000000000
     58045      3537  TIP3      H1            -28.8566406370      -33.1968296328       54.7951054474  TIP3      2177            0.0000000000
     58046      3537  TIP3      H2            -29.6919262212      -33.0467380524       56.0465384644  TIP3      2177            0.0000000000
     58047      3538  TIP3      OH2           -32.4523512730      -36.5275049618       50.2038612348  TIP3      2178            0.0000000000
     58048      3538  TIP3      H1            -33.3889814937      -36.5202614612       50.4978294609  TIP3      2178            0.0000000000
     58049      3538  TIP3      H2            -31.9779428098      -36.7169312144       51.0294409889  TIP3      2178            0.0000000000
     58050      3539  TIP3      OH2           -37.6546835289      -34.9655383575       49.0063424567  TIP3      2179            0.0000000000
     58051      3539  TIP3      H1            -38.5438955642      -34.8546749143       48.6433413143  TIP3      2179            0.0000000000
     58052      3539  TIP3      H2            -37.3590229743      -35.8078135568       48.6306970665  TIP3      2179            0.0000000000
     58053      3540  TIP3      OH2           -33.9890440318      -34.9895179621       46.6545281386  TIP3      2180            0.0000000000
     58054      3540  TIP3      H1            -33.0648029523      -34.8104665254       46.9002508994  TIP3      2180            0.0000000000
     58055      3540  TIP3      H2            -34.2379091561      -34.2793309991       46.0412192565  TIP3      2180            0.0000000000
     58056      3541  TIP3      OH2           -35.3205856695      -33.7759934093       44.2531532134  TIP3      2181            0.0000000000
     58057      3541  TIP3      H1            -35.8600997024      -34.1191551542       43.5311521026  TIP3      2181            0.0000000000
     58058      3541  TIP3      H2            -34.4941651407      -33.5276750443       43.8111978556  TIP3      2181            0.0000000000
     58059      3542  TIP3      OH2           -31.1338680076      -33.7531950721       52.1132077204  TIP3      2182            0.0000000000
     58060      3542  TIP3      H1            -30.6300217983      -34.3420486870       51.5564252865  TIP3      2182            0.0000000000
     58061      3542  TIP3      H2            -31.3478664915      -34.3175694529       52.8721481523  TIP3      2182            0.0000000000
     58062      3543  TIP3      OH2           -36.1800649960      -37.6211022412       48.5031625371  TIP3      2183            0.0000000000
     58063      3543  TIP3      H1            -36.4643760870      -38.5440574107       48.4782950827  TIP3      2183            0.0000000000
     58064      3543  TIP3      H2            -35.3913501901      -37.6896336763       47.9520184446  TIP3      2183            0.0000000000
     58065      3544  TIP3      OH2           -32.5232838906      -35.4642317563       54.4837471193  TIP3      2184            0.0000000000
     58066      3544  TIP3      H1            -33.3526280241      -34.9574671192       54.5889112064  TIP3      2184            0.0000000000
     58067      3544  TIP3      H2            -32.0008228303      -35.1249307519       55.2339065608  TIP3      2184            0.0000000000
     58068      3545  TIP3      OH2           -31.9757748533      -29.2167499896       46.1877501375  TIP3      2185            0.0000000000
     58069      3545  TIP3      H1            -32.7609250861      -29.7034559984       45.8558614407  TIP3      2185            0.0000000000
     58070      3545  TIP3      H2            -32.1501253430      -29.1254924162       47.1412131171  TIP3      2185            0.0000000000
     58071      3546  TIP3      OH2           -24.7972173848      -30.0024881297       54.9965251537  TIP3      2186            0.0000000000
     58072      3546  TIP3      H1            -24.1962755747      -29.5861208000       54.3529573257  TIP3      2186            0.0000000000
     58073      3546  TIP3      H2            -25.6437807522      -29.9884310469       54.5209135155  TIP3      2186            0.0000000000
     58074      3547  TIP3      OH2           -30.4773932513      -28.9882149464       57.4318215450  TIP3      2187            0.0000000000
     58075      3547  TIP3      H1            -30.8072321466      -29.4054389736       58.2416310150  TIP3      2187            0.0000000000
     58076      3547  TIP3      H2            -30.7067217265      -28.0647585818       57.5449134914  TIP3      2187            0.0000000000
     58077      3548  TIP3      OH2           -29.8484625068      -27.9518993361       45.1808134372  TIP3      2188            0.0000000000
     58078      3548  TIP3      H1            -30.1300768317      -27.1035646696       45.5298226470  TIP3      2188            0.0000000000
     58079      3548  TIP3      H2            -30.6219146375      -28.4781211933       45.4251022753  TIP3      2188            0.0000000000
     58080      3549  TIP3      OH2           -32.8531642079      -31.9085526510       59.4428971209  TIP3      2189            0.0000000000
     58081      3549  TIP3      H1            -33.1519576071      -32.1473079091       58.5560269892  TIP3      2189            0.0000000000
     58082      3549  TIP3      H2            -31.9128693455      -32.1884530178       59.4245075015  TIP3      2189            0.0000000000
     58083      3550  TIP3      OH2           -22.4737392066      -28.5364098117       58.5690048175  TIP3      2190            0.0000000000
     58084      3550  TIP3      H1            -23.3506946250      -28.2607794963       58.2168604028  TIP3      2190            0.0000000000
     58085      3550  TIP3      H2            -21.9356812811      -28.5283572302       57.7539732167  TIP3      2190            0.0000000000
     58086      3551  TIP3      OH2           -26.9984802822      -30.6882154751       53.1862622548  TIP3      2191            0.0000000000
     58087      3551  TIP3      H1            -27.9431461862      -30.9300778618       53.1941415455  TIP3      2191            0.0000000000
     58088      3551  TIP3      H2            -26.5673885001      -31.4966701571       52.8847803693  TIP3      2191            0.0000000000
     58089      3552  TIP3      OH2           -34.4769340538      -26.3863210044       49.3545370046  TIP3      2192            0.0000000000
     58090      3552  TIP3      H1            -33.9811301445      -25.5752402854       49.1540463012  TIP3      2192            0.0000000000
     58091      3552  TIP3      H2            -35.3631243473      -26.1368622478       49.0520620406  TIP3      2192            0.0000000000
     58092      3553  TIP3      OH2           -33.0881223516      -28.7277972362       48.8845433073  TIP3      2193            0.0000000000
     58093      3553  TIP3      H1            -33.3555838047      -27.7893890899       48.9651312305  TIP3      2193            0.0000000000
     58094      3553  TIP3      H2            -33.7892802699      -29.1942656367       49.3277225821  TIP3      2193            0.0000000000
     58095      3554  TIP3      OH2           -32.6425784642      -24.5141328451       55.1820009676  TIP3      2194            0.0000000000
     58096      3554  TIP3      H1            -32.1577552588      -23.7020616322       54.9671337613  TIP3      2194            0.0000000000
     58097      3554  TIP3      H2            -32.0660899947      -24.8263860488       55.8989849383  TIP3      2194            0.0000000000
     58098      3555  TIP3      OH2           -34.3644551572      -23.6944301340       48.4089700522  TIP3      2195            0.0000000000
     58099      3555  TIP3      H1            -35.3301484756      -23.5786755122       48.5713445073  TIP3      2195            0.0000000000
     58100      3555  TIP3      H2            -34.0232144053      -22.8641028450       48.7965257167  TIP3      2195            0.0000000000
     58101      3556  TIP3      OH2           -29.0254358552      -28.4993430950       54.8970373312  TIP3      2196            0.0000000000
     58102      3556  TIP3      H1            -29.4301472682      -28.7128278854       55.7627868471  TIP3      2196            0.0000000000
     58103      3556  TIP3      H2            -28.4227840038      -29.2413007382       54.7683131564  TIP3      2196            0.0000000000
     58104      3557  TIP3      OH2           -38.2086452037      -36.7425236668       56.7991946852  TIP3      2197            0.0000000000
     58105      3557  TIP3      H1            -39.0894810159      -36.3368584234       56.7839315722  TIP3      2197            0.0000000000
     58106      3557  TIP3      H2            -38.3482474025      -37.5803774898       57.2550327155  TIP3      2197            0.0000000000
     58107      3558  TIP3      OH2           -25.9429324704      -28.8832061447       46.1996743347  TIP3      2198            0.0000000000
     58108      3558  TIP3      H1            -26.2246861824      -29.6019384096       46.7929014364  TIP3      2198            0.0000000000
     58109      3558  TIP3      H2            -25.0262667315      -28.7278063708       46.4509322140  TIP3      2198            0.0000000000
     58110      3559  TIP3      OH2           -38.6318108593      -24.9309315789       55.2454085069  TIP3      2199            0.0000000000
     58111      3559  TIP3      H1            -38.3063334903      -25.8412898195       55.2431080191  TIP3      2199            0.0000000000
     58112      3559  TIP3      H2            -38.3162644878      -24.5934789439       56.0990979016  TIP3      2199            0.0000000000
     58113      3560  TIP3      OH2           -33.7542972661      -26.8232694722       44.8908151591  TIP3      2200            0.0000000000
     58114      3560  TIP3      H1            -33.6255275397      -27.4065699296       45.6525352641  TIP3      2200            0.0000000000
     58115      3560  TIP3      H2            -33.8260823015      -25.9380920914       45.2862399855  TIP3      2200            0.0000000000
     58116      3561  TIP3      OH2           -29.4295219129      -36.8124343422       55.7009014125  TIP3      2201            0.0000000000
     58117      3561  TIP3      H1            -28.7555028557      -36.8733419369       56.3709607440  TIP3      2201            0.0000000000
     58118      3561  TIP3      H2            -29.8300309280      -37.7111358338       55.8248457018  TIP3      2201            0.0000000000
     58119      3562  TIP3      OH2           -31.4744371751      -35.6354884886       47.6758717006  TIP3      2202            0.0000000000
     58120      3562  TIP3      H1            -30.7178251992      -35.0381030667       47.6863990641  TIP3      2202            0.0000000000
     58121      3562  TIP3      H2            -31.7780786195      -35.7053546127       48.6003378345  TIP3      2202            0.0000000000
     58122      3563  TIP3      OH2           -30.9938694436      -34.5982877500       56.8592150246  TIP3      2203            0.0000000000
     58123      3563  TIP3      H1            -30.8468615342      -34.0308990352       57.6413272220  TIP3      2203            0.0000000000
     58124      3563  TIP3      H2            -30.3290357792      -35.3041427720       56.9207613822  TIP3      2203            0.0000000000
     58125      3564  TIP3      OH2           -30.5956275200      -38.5462738115       48.5981896941  TIP3      2204            0.0000000000
     58126      3564  TIP3      H1            -30.9841570031      -37.8850719867       49.2006393690  TIP3      2204            0.0000000000
     58127      3564  TIP3      H2            -29.9801343912      -38.0045862047       48.0867771014  TIP3      2204            0.0000000000
     58128      3565  TIP3      OH2           -33.9785814686      -24.0649835319       45.6430893358  TIP3      2205            0.0000000000
     58129      3565  TIP3      H1            -33.5211732915      -23.3384930931       45.2087043678  TIP3      2205            0.0000000000
     58130      3565  TIP3      H2            -33.9221818708      -23.8393286616       46.6019472549  TIP3      2205            0.0000000000
     58131      3566  TIP3      OH2           -34.9497580728      -37.4038157013       45.2151728577  TIP3      2206            0.0000000000
     58132      3566  TIP3      H1            -35.0373375972      -36.5408128844       45.6494169361  TIP3      2206            0.0000000000
     58133      3566  TIP3      H2            -34.0722574211      -37.6755068725       45.5437439698  TIP3      2206            0.0000000000
     58134      3567  TIP3      OH2           -36.7279377091      -26.9321599498       44.2419904345  TIP3      2207            0.0000000000
     58135      3567  TIP3      H1            -36.0866519437      -26.3371523631       44.6307333539  TIP3      2207            0.0000000000
     58136      3567  TIP3      H2            -36.2145606302      -27.4733208186       43.6535076480  TIP3      2207            0.0000000000
     58137      3568  TIP3      OH2           -37.6259500585      -39.4131192790       52.1455443140  TIP3      2208            0.0000000000
     58138      3568  TIP3      H1            -37.8399140993      -39.4319345596       51.1809171601  TIP3      2208            0.0000000000
     58139      3568  TIP3      H2            -37.9924812248      -40.2674202779       52.4247294665  TIP3      2208            0.0000000000
     58140      3569  TIP3      OH2           -38.6666958789      -25.6200461234       48.3152188915  TIP3      2209            0.0000000000
     58141      3569  TIP3      H1            -39.5025365566      -25.1558821421       48.3009101944  TIP3      2209            0.0000000000
     58142      3569  TIP3      H2            -38.1417155852      -25.1585731536       47.6582551694  TIP3      2209            0.0000000000
     58143      3570  TIP3      OH2           -34.5330029030      -23.8921546524       60.8388736203  TIP3      2210            0.0000000000
     58144      3570  TIP3      H1            -34.1489714856      -24.5084349362       61.4958135313  TIP3      2210            0.0000000000
     58145      3570  TIP3      H2            -34.7899735261      -24.4673381544       60.1049221746  TIP3      2210            0.0000000000
     58146      3571  TIP3      OH2           -32.7586004265      -29.1829432592       59.9603490609  TIP3      2211            0.0000000000
     58147      3571  TIP3      H1            -33.1800974576      -28.9083631086       59.1336760151  TIP3      2211            0.0000000000
     58148      3571  TIP3      H2            -32.7193973296      -30.1600544710       59.9022044733  TIP3      2211            0.0000000000
     58149      3572  TIP3      OH2           -27.1038453664      -29.3228704134       57.3858509474  TIP3      2212            0.0000000000
     58150      3572  TIP3      H1            -26.3112592738      -28.7545646466       57.2941208513  TIP3      2212            0.0000000000
     58151      3572  TIP3      H2            -27.8418612299      -28.7139846313       57.4047769962  TIP3      2212            0.0000000000
     58152      3573  TIP3      OH2           -33.9275523910      -30.8395368639       45.0888249984  TIP3      2213            0.0000000000
     58153      3573  TIP3      H1            -34.4876216077      -31.3578273237       45.6747568171  TIP3      2213            0.0000000000
     58154      3573  TIP3      H2            -33.6868404585      -31.4879316981       44.3861131235  TIP3      2213            0.0000000000
     58155      3574  TIP3      OH2           -34.7314708383      -33.0155843875       57.3204441437  TIP3      2214            0.0000000000
     58156      3574  TIP3      H1            -35.3102739393      -32.3053139311       57.6140558962  TIP3      2214            0.0000000000
     58157      3574  TIP3      H2            -34.2893704776      -32.6400810803       56.5385797950  TIP3      2214            0.0000000000
     58158      3575  TIP3      OH2           -32.9317619677      -32.5734541590       43.2032358273  TIP3      2215            0.0000000000
     58159      3575  TIP3      H1            -33.0298278472      -32.7715259245       42.2613561706  TIP3      2215            0.0000000000
     58160      3575  TIP3      H2            -31.9546585450      -32.5176970773       43.3317831237  TIP3      2215            0.0000000000
     58161      3576  TIP3      OH2           -29.6278815783      -30.4353709765       60.6757622571  TIP3      2216            0.0000000000
     58162      3576  TIP3      H1            -28.6730693572      -30.4516731876       60.5949294998  TIP3      2216            0.0000000000
     58163      3576  TIP3      H2            -29.8213891225      -31.1743943632       61.2690855890  TIP3      2216            0.0000000000
     58164      3577  TIP3      OH2           -34.3374326755      -35.6370530916       58.4099007063  TIP3      2217            0.0000000000
     58165      3577  TIP3      H1            -34.1853539669      -36.3512646615       57.7711863336  TIP3      2217            0.0000000000
     58166      3577  TIP3      H2            -34.3327249132      -34.8471915657       57.8365791030  TIP3      2217            0.0000000000
     58167      3578  TIP3      OH2           -33.8972951042      -37.2573753803       55.9587708188  TIP3      2218            0.0000000000
     58168      3578  TIP3      H1            -33.3856851739      -36.7988374803       55.2483337592  TIP3      2218            0.0000000000
     58169      3578  TIP3      H2            -34.7918154721      -37.3479313908       55.5515462052  TIP3      2218            0.0000000000
     58170      3579  TIP3      OH2           -32.3932634334      -31.8087912774       56.1603027773  TIP3      2219            0.0000000000
     58171      3579  TIP3      H1            -31.6019698192      -31.9515291077       55.6270513287  TIP3      2219            0.0000000000
     58172      3579  TIP3      H2            -32.6768140202      -30.9215370467       55.8887382130  TIP3      2219            0.0000000000
     58173      3580  TIP3      OH2           -26.6255418941      -31.1819002299       59.3605581697  TIP3      2220            0.0000000000
     58174      3580  TIP3      H1            -26.8909176340      -30.5423895623       58.6649924922  TIP3      2220            0.0000000000
     58175      3580  TIP3      H2            -25.6806777921      -31.2661704874       59.1108681419  TIP3      2220            0.0000000000
     58176      3581  TIP3      OH2           -35.8417270873      -34.5030884865       60.4142472732  TIP3      2221            0.0000000000
     58177      3581  TIP3      H1            -36.6415948075      -34.9137653311       60.0267588466  TIP3      2221            0.0000000000
     58178      3581  TIP3      H2            -35.1924209894      -34.7306756132       59.7003915330  TIP3      2221            0.0000000000
     58179      3582  TIP3      OH2           -33.1997170138      -39.7816343482       56.3377842255  TIP3      2222            0.0000000000
     58180      3582  TIP3      H1            -33.2732067734      -38.8056740775       56.2359710481  TIP3      2222            0.0000000000
     58181      3582  TIP3      H2            -33.9529203469      -40.1248991046       55.8612603765  TIP3      2222            0.0000000000
     58182      3583  TIP3      OH2           -31.8708704826      -35.4396824687       59.9653080035  TIP3      2223            0.0000000000
     58183      3583  TIP3      H1            -32.1123562060      -35.7625659190       60.8486954602  TIP3      2223            0.0000000000
     58184      3583  TIP3      H2            -32.6373500147      -35.6850554119       59.4149075663  TIP3      2223            0.0000000000
     58185      3584  TIP3      OH2           -37.6038506888      -36.5200896187       60.1353465683  TIP3      2224            0.0000000000
     58186      3584  TIP3      H1            -37.5239108126      -37.1906314026       59.4230348592  TIP3      2224            0.0000000000
     58187      3584  TIP3      H2            -37.9669092167      -37.0815725090       60.8299087883  TIP3      2224            0.0000000000
     58188      3585  TIP3      OH2           -32.8279800158      -40.0117588153       58.8888594869  TIP3      2225            0.0000000000
     58189      3585  TIP3      H1            -32.2130942403      -40.7758847457       58.9600194923  TIP3      2225            0.0000000000
     58190      3585  TIP3      H2            -33.0235553804      -40.1362310302       57.9404198445  TIP3      2225            0.0000000000
     58191      3586  TIP3      OH2           -32.5115382839      -38.7903821793       61.1795770368  TIP3      2226            0.0000000000
     58192      3586  TIP3      H1            -32.6390717362      -39.2984398227       60.3426804809  TIP3      2226            0.0000000000
     58193      3586  TIP3      H2            -33.1247353379      -38.0543890319       61.0354248536  TIP3      2226            0.0000000000
     58194      3587  TIP3      OH2            40.7488210246      -21.9069835894       48.7413637524  TIP3      2227            0.0000000000
     58195      3587  TIP3      H1             39.9776218942      -22.3383821453       48.3614070046  TIP3      2227            0.0000000000
     58196      3587  TIP3      H2             40.9590474566      -22.5304713503       49.4629013216  TIP3      2227            0.0000000000
     58197      3588  TIP3      OH2           -39.7931635872      -23.8318303300       50.6004831030  TIP3      2228            0.0000000000
     58198      3588  TIP3      H1            -40.2590763127      -24.6610871070       50.7945010177  TIP3      2228            0.0000000000
     58199      3588  TIP3      H2            -39.6225343325      -23.4620721589       51.4930045389  TIP3      2228            0.0000000000
     58200      3589  TIP3      OH2           -22.8161961586      -23.4300780610       56.4908377827  TIP3      2229            0.0000000000
     58201      3589  TIP3      H1            -23.2781241900      -24.2054148135       56.1413257844  TIP3      2229            0.0000000000
     58202      3589  TIP3      H2            -22.2957245668      -23.8358769301       57.1979666841  TIP3      2229            0.0000000000
     58203      3590  TIP3      OH2           -24.2647089879      -27.7366302239       61.2877669120  TIP3      2230            0.0000000000
     58204      3590  TIP3      H1            -25.1905268229      -27.7539433304       61.5567692417  TIP3      2230            0.0000000000
     58205      3590  TIP3      H2            -23.9616064225      -26.8755359278       61.5894250518  TIP3      2230            0.0000000000
     58206      3591  TIP3      OH2           -23.0064108162      -29.4146032424       46.6082974506  TIP3      2231            0.0000000000
     58207      3591  TIP3      H1            -22.1849001554      -28.9594299824       46.8427855516  TIP3      2231            0.0000000000
     58208      3591  TIP3      H2            -23.0464756203      -30.0964526453       47.3100911322  TIP3      2231            0.0000000000
     58209      3592  TIP3      OH2           -22.7006168624      -31.3482470435       48.5084704005  TIP3      2232            0.0000000000
     58210      3592  TIP3      H1            -23.4204463644      -31.8198987546       48.9440401614  TIP3      2232            0.0000000000
     58211      3592  TIP3      H2            -22.0836964189      -31.1410382708       49.2400133474  TIP3      2232            0.0000000000
     58212      3593  TIP3      OH2           -22.9464047074      -28.5528328454       53.4673549639  TIP3      2233            0.0000000000
     58213      3593  TIP3      H1            -22.1352798787      -28.9807706033       53.1253835994  TIP3      2233            0.0000000000
     58214      3593  TIP3      H2            -22.7195533665      -27.6160643954       53.3187541721  TIP3      2233            0.0000000000
     58215      3594  TIP3      OH2           -24.3941509425      -25.7112932022       55.7445855557  TIP3      2234            0.0000000000
     58216      3594  TIP3      H1            -25.0454645899      -25.3490021746       56.3664979397  TIP3      2234            0.0000000000
     58217      3594  TIP3      H2            -24.9415896297      -26.1101312751       55.0644770812  TIP3      2234            0.0000000000
     58218      3595  TIP3      OH2           -22.3356677655      -31.3927115789       44.8365637944  TIP3      2235            0.0000000000
     58219      3595  TIP3      H1            -22.9584269905      -31.0992900725       44.1682942097  TIP3      2235            0.0000000000
     58220      3595  TIP3      H2            -22.4630051221      -30.7556920215       45.5686634513  TIP3      2235            0.0000000000
     58221      3596  TIP3      OH2           -23.9877084435      -30.8711012563       58.8490804977  TIP3      2236            0.0000000000
     58222      3596  TIP3      H1            -23.3808744700      -31.6156033827       58.8411302092  TIP3      2236            0.0000000000
     58223      3596  TIP3      H2            -23.4054026528      -30.0869366189       58.7352113760  TIP3      2236            0.0000000000
     58224      3597  TIP3      OH2           -22.2259383956      -39.8954832809       61.1162587003  TIP3      2237            0.0000000000
     58225      3597  TIP3      H1            -21.9188999933      -40.5566271359       60.4721825369  TIP3      2237            0.0000000000
     58226      3597  TIP3      H2            -22.0673496721      -39.0904270816       60.6384763367  TIP3      2237            0.0000000000
     58227      3598  TIP3      OH2           -39.1086920065      -37.1241817132       52.1718006983  TIP3      2238            0.0000000000
     58228      3598  TIP3      H1            -38.5796192119      -37.9197837547       52.3757622020  TIP3      2238            0.0000000000
     58229      3598  TIP3      H2            -38.5128725350      -36.4440571904       52.5107177769  TIP3      2238            0.0000000000
     58230      3599  TIP3      OH2           -40.8054803032      -33.8339386115       52.5383031583  TIP3      2239            0.0000000000
     58231      3599  TIP3      H1            -40.0891568353      -34.4295587622       52.1984295757  TIP3      2239            0.0000000000
     58232      3599  TIP3      H2            -40.2369749337      -33.4317346116       53.2127845968  TIP3      2239            0.0000000000
     58233      3600  TIP3      OH2           -40.2684726416      -38.0598965202       47.2505186432  TIP3      2240            0.0000000000
     58234      3600  TIP3      H1            -41.1808018751      -37.8104649913       46.9677819890  TIP3      2240            0.0000000000
     58235      3600  TIP3      H2            -39.8138785045      -37.4248951518       46.6870047986  TIP3      2240            0.0000000000
     58236      3601  TIP3      OH2            41.2986188481      -39.1566969587       55.5996371405  TIP3      2241            0.0000000000
     58237      3601  TIP3      H1             40.7399637323      -39.5752616575       56.2392062657  TIP3      2241            0.0000000000
     58238      3601  TIP3      H2             40.8091181935      -38.6197179058       54.9555621282  TIP3      2241            0.0000000000
     58239      3602  TIP3      OH2           -35.2929790687      -25.0516966695       55.9947498147  TIP3      2242            0.0000000000
     58240      3602  TIP3      H1            -35.6664297343      -24.1918367606       55.7170359582  TIP3      2242            0.0000000000
     58241      3602  TIP3      H2            -34.3760113899      -24.9226279881       55.6721215468  TIP3      2242            0.0000000000
     58242      3603  TIP3      OH2           -37.9358987513      -21.8548178335       55.9790260122  TIP3      2243            0.0000000000
     58243      3603  TIP3      H1            -38.6347257182      -21.2991847940       55.6052733874  TIP3      2243            0.0000000000
     58244      3603  TIP3      H2            -38.2235220121      -21.9884636622       56.8928399544  TIP3      2243            0.0000000000
     58245      3604  TIP3      OH2           -35.4626945031      -22.3271545875       55.0465586192  TIP3      2244            0.0000000000
     58246      3604  TIP3      H1            -36.2997918741      -22.0479999872       55.4776615037  TIP3      2244            0.0000000000
     58247      3604  TIP3      H2            -35.4338074526      -21.6598047926       54.3221395106  TIP3      2244            0.0000000000
     58248      3605  TIP3      OH2           -30.7597652711      -22.3254032154       54.2769370875  TIP3      2245            0.0000000000
     58249      3605  TIP3      H1            -31.1483904929      -21.7545522931       53.5888089337  TIP3      2245            0.0000000000
     58250      3605  TIP3      H2            -30.5217139883      -21.6976230526       54.9511233485  TIP3      2245            0.0000000000
     58251      3606  TIP3      OH2           -38.4305119178      -23.1572725509       52.9241868272  TIP3      2246            0.0000000000
     58252      3606  TIP3      H1            -38.4686264294      -23.6025170452       53.7943009570  TIP3      2246            0.0000000000
     58253      3606  TIP3      H2            -37.6136061180      -23.5117121229       52.5275557604  TIP3      2246            0.0000000000
     58254      3607  TIP3      OH2           -36.3298268580      -24.4446960066       51.5549482787  TIP3      2247            0.0000000000
     58255      3607  TIP3      H1            -36.5227457547      -25.3522867388       51.8264032552  TIP3      2247            0.0000000000
     58256      3607  TIP3      H2            -35.4851795433      -24.2688408511       52.0241412159  TIP3      2247            0.0000000000
     58257      3608  TIP3      OH2           -33.7688916875      -23.9449361378       52.4322655961  TIP3      2248            0.0000000000
     58258      3608  TIP3      H1            -33.5562691739      -24.8597662098       52.1725932659  TIP3      2248            0.0000000000
     58259      3608  TIP3      H2            -33.7139031000      -23.9966207605       53.4070686037  TIP3      2248            0.0000000000
     58260      3609  TIP3      OH2           -30.3602042720      -38.2708980201       51.5304330887  TIP3      2249            0.0000000000
     58261      3609  TIP3      H1            -30.9382804888      -38.9725603337       51.8915139922  TIP3      2249            0.0000000000
     58262      3609  TIP3      H2            -29.6905176666      -38.7936969464       51.0569000578  TIP3      2249            0.0000000000
     58263      3610  TIP3      OH2           -37.9975908532      -39.3193166210       49.5788897836  TIP3      2250            0.0000000000
     58264      3610  TIP3      H1            -38.6651297699      -39.6324598749       48.9550879130  TIP3      2250            0.0000000000
     58265      3610  TIP3      H2            -37.4260162437      -40.1107247068       49.5263338277  TIP3      2250            0.0000000000
     58266      3611  TIP3      OH2           -39.4491499054      -39.3281701474       44.8118228074  TIP3      2251            0.0000000000
     58267      3611  TIP3      H1            -38.5881593007      -38.9124860211       44.5793486026  TIP3      2251            0.0000000000
     58268      3611  TIP3      H2            -39.6913570531      -39.1050286471       45.7301209237  TIP3      2251            0.0000000000
     58269      3612  TIP3      OH2           -33.3937384675      -39.6906619565       49.2239705754  TIP3      2252            0.0000000000
     58270      3612  TIP3      H1            -32.4846412364      -39.3721815325       49.1800788265  TIP3      2252            0.0000000000
     58271      3612  TIP3      H2            -33.4307644472      -39.9468332341       50.1426669035  TIP3      2252            0.0000000000
     58272      3613  TIP3      OH2           -27.9930946903      -39.6974595860       50.8170812435  TIP3      2253            0.0000000000
     58273      3613  TIP3      H1            -27.7444177003      -39.6803100429       49.8967827143  TIP3      2253            0.0000000000
     58274      3613  TIP3      H2            -28.0527062493      -40.6519911385       50.9767185222  TIP3      2253            0.0000000000
     58275      3614  TIP3      OH2           -37.2290424562      -37.9294210478       43.7844621811  TIP3      2254            0.0000000000
     58276      3614  TIP3      H1            -36.7976862952      -38.5617811635       43.1962588694  TIP3      2254            0.0000000000
     58277      3614  TIP3      H2            -36.5153142190      -37.6360346042       44.3360775398  TIP3      2254            0.0000000000
     58278      3615  TIP3      OH2           -32.3478732292      -37.7086833183       46.1345381799  TIP3      2255            0.0000000000
     58279      3615  TIP3      H1            -32.0103960479      -38.2989110246       46.8265312014  TIP3      2255            0.0000000000
     58280      3615  TIP3      H2            -32.2364266565      -36.8390943864       46.5689635396  TIP3      2255            0.0000000000
     58281      3616  TIP3      OH2           -23.7245687217      -23.1419809711       47.2604501004  TIP3      2256            0.0000000000
     58282      3616  TIP3      H1            -23.7493446174      -23.9117755025       46.6654100733  TIP3      2256            0.0000000000
     58283      3616  TIP3      H2            -23.6904585285      -22.3825822256       46.6539167666  TIP3      2256            0.0000000000
     58284      3617  TIP3      OH2           -38.0494187174      -39.0401394570       59.0062281981  TIP3      2257            0.0000000000
     58285      3617  TIP3      H1            -38.4101187729      -39.8992786664       59.2654672706  TIP3      2257            0.0000000000
     58286      3617  TIP3      H2            -37.1089730826      -39.1784208528       59.2216598782  TIP3      2257            0.0000000000
     58287      3618  TIP3      OH2           -35.9588886405      -39.7322540027       60.5910301647  TIP3      2258            0.0000000000
     58288      3618  TIP3      H1            -35.1178713222      -40.0813095990       60.2385227771  TIP3      2258            0.0000000000
     58289      3618  TIP3      H2            -36.3612766830      -40.5792273917       60.8400552156  TIP3      2258            0.0000000000
     58290      3619  TIP3      OH2           -37.4108359616      -22.9958706042       43.1256410135  TIP3      2259            0.0000000000
     58291      3619  TIP3      H1            -37.6807541104      -22.7375040275       44.0165740829  TIP3      2259            0.0000000000
     58292      3619  TIP3      H2            -36.6516998392      -23.5539190162       43.2940594834  TIP3      2259            0.0000000000
     58293      3620  TIP3      OH2           -10.9468688166      -31.2407048192       52.8390117851  TIP3      2260            0.0000000000
     58294      3620  TIP3      H1            -11.1478649904      -31.8716952906       53.5417016949  TIP3      2260            0.0000000000
     58295      3620  TIP3      H2            -11.3903182937      -31.6378618173       52.0769130272  TIP3      2260            0.0000000000
     58296      3621  TIP3      OH2           -18.6951649330      -31.6173126099       54.3066315429  TIP3      2261            0.0000000000
     58297      3621  TIP3      H1            -18.7036081464      -32.2708630976       55.0427948464  TIP3      2261            0.0000000000
     58298      3621  TIP3      H2            -18.0100345184      -31.0139789076       54.6198718627  TIP3      2261            0.0000000000
     58299      3622  TIP3      OH2           -17.8066049232      -27.1512654243       52.9297295505  TIP3      2262            0.0000000000
     58300      3622  TIP3      H1            -18.1561906548      -27.9748887579       52.5455326637  TIP3      2262            0.0000000000
     58301      3622  TIP3      H2            -16.8684136649      -27.3536796562       52.9230980371  TIP3      2262            0.0000000000
     58302      3623  TIP3      OH2           -21.1904306807      -33.5833122709       48.2774185278  TIP3      2263            0.0000000000
     58303      3623  TIP3      H1            -21.6194072442      -32.7084866966       48.2680685598  TIP3      2263            0.0000000000
     58304      3623  TIP3      H2            -21.7812084171      -34.1246537136       47.7542007607  TIP3      2263            0.0000000000
     58305      3624  TIP3      OH2           -20.4865072965      -31.3849029590       50.4704072642  TIP3      2264            0.0000000000
     58306      3624  TIP3      H1            -20.2205713944      -32.1986802714       50.9426544070  TIP3      2264            0.0000000000
     58307      3624  TIP3      H2            -19.7775593304      -31.2605503198       49.8179165938  TIP3      2264            0.0000000000
     58308      3625  TIP3      OH2           -10.1602841285      -23.0669983097       51.3150697165  TIP3      2265            0.0000000000
     58309      3625  TIP3      H1             -9.6397047980      -23.8414017173       50.9899243321  TIP3      2265            0.0000000000
     58310      3625  TIP3      H2            -10.4958873713      -23.3864567823       52.1569454672  TIP3      2265            0.0000000000
     58311      3626  TIP3      OH2           -16.4806797366      -36.3005435498       50.8082323725  TIP3      2266            0.0000000000
     58312      3626  TIP3      H1            -16.3709192608      -35.4956631639       50.2874304223  TIP3      2266            0.0000000000
     58313      3626  TIP3      H2            -16.8601456962      -36.8948231004       50.1198159100  TIP3      2266            0.0000000000
     58314      3627  TIP3      OH2           -19.7483227309      -33.8274808717       51.5313274368  TIP3      2267            0.0000000000
     58315      3627  TIP3      H1            -19.1681131308      -34.4757285840       51.9810075488  TIP3      2267            0.0000000000
     58316      3627  TIP3      H2            -19.7624616749      -34.2355780179       50.6439640482  TIP3      2267            0.0000000000
     58317      3628  TIP3      OH2            -3.6394352409      -35.7533656878       56.2934937997  TIP3      2268            0.0000000000
     58318      3628  TIP3      H1             -4.3354253992      -35.0834966892       56.1504985318  TIP3      2268            0.0000000000
     58319      3628  TIP3      H2             -3.6609666567      -35.9439193768       57.2275564741  TIP3      2268            0.0000000000
     58320      3629  TIP3      OH2           -17.5804216579      -37.4394528679       54.8233415135  TIP3      2269            0.0000000000
     58321      3629  TIP3      H1            -17.8437148557      -36.8477257609       54.0883768195  TIP3      2269            0.0000000000
     58322      3629  TIP3      H2            -18.2374751285      -37.1819891696       55.5180126493  TIP3      2269            0.0000000000
     58323      3630  TIP3      OH2           -15.1034354371      -29.7758950897       54.9768003734  TIP3      2270            0.0000000000
     58324      3630  TIP3      H1            -15.7678087587      -29.1226872158       55.2821589066  TIP3      2270            0.0000000000
     58325      3630  TIP3      H2            -14.3417737843      -29.2004550596       54.8763399372  TIP3      2270            0.0000000000
     58326      3631  TIP3      OH2           -18.0216029017      -35.5943435293       52.8610347328  TIP3      2271            0.0000000000
     58327      3631  TIP3      H1            -17.3914665745      -34.9183809111       53.1997294200  TIP3      2271            0.0000000000
     58328      3631  TIP3      H2            -17.4967334370      -35.9904799326       52.1206289992  TIP3      2271            0.0000000000
     58329      3632  TIP3      OH2           -16.6776019301      -27.7859883869       55.7384345041  TIP3      2272            0.0000000000
     58330      3632  TIP3      H1            -16.6329978558      -26.8448792899       55.5596115587  TIP3      2272            0.0000000000
     58331      3632  TIP3      H2            -17.4413714000      -27.8439213146       56.3679794367  TIP3      2272            0.0000000000
     58332      3633  TIP3      OH2           -20.4814248890      -28.1121280651       46.6752719554  TIP3      2273            0.0000000000
     58333      3633  TIP3      H1            -20.7837493071      -27.8207659949       45.7927801116  TIP3      2273            0.0000000000
     58334      3633  TIP3      H2            -20.4513734300      -27.2830483712       47.1922517798  TIP3      2273            0.0000000000
     58335      3634  TIP3      OH2            -6.8653513509      -26.4624286796       53.4783087922  TIP3      2274            0.0000000000
     58336      3634  TIP3      H1             -7.8140100598      -26.4128237042       53.5742963222  TIP3      2274            0.0000000000
     58337      3634  TIP3      H2             -6.6109767111      -25.5433789399       53.2679652240  TIP3      2274            0.0000000000
     58338      3635  TIP3      OH2            -6.4273027613      -38.2449297648       54.9103201069  TIP3      2275            0.0000000000
     58339      3635  TIP3      H1             -7.1899698809      -37.6522234079       54.8942133607  TIP3      2275            0.0000000000
     58340      3635  TIP3      H2             -5.8154741026      -37.8021207888       54.3159185578  TIP3      2275            0.0000000000
     58341      3636  TIP3      OH2           -13.6630114986      -40.0678471963       52.0963280533  TIP3      2276            0.0000000000
     58342      3636  TIP3      H1            -13.6449999594      -41.0071746769       52.3192842819  TIP3      2276            0.0000000000
     58343      3636  TIP3      H2            -14.4103469441      -39.7580203074       52.6188312956  TIP3      2276            0.0000000000
     58344      3637  TIP3      OH2            -8.5802379539      -24.6733177084       50.0741523916  TIP3      2277            0.0000000000
     58345      3637  TIP3      H1             -8.2022339411      -25.3957596332       49.5846252524  TIP3      2277            0.0000000000
     58346      3637  TIP3      H2             -8.2227991631      -23.8700857026       49.6434563934  TIP3      2277            0.0000000000
     58347      3638  TIP3      OH2            -5.8138028596      -28.1674971942       57.0813989475  TIP3      2278            0.0000000000
     58348      3638  TIP3      H1             -5.6912349183      -28.8409234152       56.3780000743  TIP3      2278            0.0000000000
     58349      3638  TIP3      H2             -5.5946735800      -27.3291049557       56.6424857162  TIP3      2278            0.0000000000
     58350      3639  TIP3      OH2            -3.9119715415      -31.8756100103       55.1276869819  TIP3      2279            0.0000000000
     58351      3639  TIP3      H1             -4.5976441577      -31.1760032288       55.1588752153  TIP3      2279            0.0000000000
     58352      3639  TIP3      H2             -3.4438420636      -31.6392454270       54.3037170310  TIP3      2279            0.0000000000
     58353      3640  TIP3      OH2            -7.8246054488      -30.9708537512       47.7779209386  TIP3      2280            0.0000000000
     58354      3640  TIP3      H1             -8.6155934248      -30.8563698913       48.3302459237  TIP3      2280            0.0000000000
     58355      3640  TIP3      H2             -7.4103184686      -31.7386103549       48.2126124278  TIP3      2280            0.0000000000
     58356      3641  TIP3      OH2           -18.0740363244      -31.1140468436       57.1994386003  TIP3      2281            0.0000000000
     58357      3641  TIP3      H1            -17.9850480124      -30.4176570344       57.8807333790  TIP3      2281            0.0000000000
     58358      3641  TIP3      H2            -18.9928054542      -30.9607953472       56.9512678653  TIP3      2281            0.0000000000
     58359      3642  TIP3      OH2            -5.3668061337      -40.1626632565       45.1810592451  TIP3      2282            0.0000000000
     58360      3642  TIP3      H1             -6.2076504055      -39.9586901860       45.5969391988  TIP3      2282            0.0000000000
     58361      3642  TIP3      H2             -5.0396601861      -39.3001903285       44.8925366436  TIP3      2282            0.0000000000
     58362      3643  TIP3      OH2           -17.3373854832      -31.3168752102       47.3143346238  TIP3      2283            0.0000000000
     58363      3643  TIP3      H1            -17.5762135432      -30.6070296446       46.7088313276  TIP3      2283            0.0000000000
     58364      3643  TIP3      H2            -17.8976711760      -32.0427022697       47.0375892263  TIP3      2283            0.0000000000
     58365      3644  TIP3      OH2            -4.2153266757      -25.8203576903       43.6993688483  TIP3      2284            0.0000000000
     58366      3644  TIP3      H1             -4.0355486299      -24.8518959384       43.7096685665  TIP3      2284            0.0000000000
     58367      3644  TIP3      H2             -3.2676898706      -26.0849146065       43.5803871005  TIP3      2284            0.0000000000
     58368      3645  TIP3      OH2           -21.2305137463      -28.9795982562       56.1382528028  TIP3      2285            0.0000000000
     58369      3645  TIP3      H1            -21.6461933032      -29.0443973829       55.2659544787  TIP3      2285            0.0000000000
     58370      3645  TIP3      H2            -21.1521861913      -29.9285857395       56.3648403763  TIP3      2285            0.0000000000
     58371      3646  TIP3      OH2           -21.3962757059      -26.2521258987       52.9612559435  TIP3      2286            0.0000000000
     58372      3646  TIP3      H1            -20.4333758876      -26.3292667097       52.9036699210  TIP3      2286            0.0000000000
     58373      3646  TIP3      H2            -21.5016348144      -25.4233200929       53.4411202807  TIP3      2286            0.0000000000
     58374      3647  TIP3      OH2           -18.2058703035      -23.3597600451       49.1259405651  TIP3      2287            0.0000000000
     58375      3647  TIP3      H1            -18.0017609929      -23.8114621238       49.9451937101  TIP3      2287            0.0000000000
     58376      3647  TIP3      H2            -19.0342744069      -23.7822185622       48.8834171211  TIP3      2287            0.0000000000
     58377      3648  TIP3      OH2            -8.2879078446      -23.1557453601       44.3894255984  TIP3      2288            0.0000000000
     58378      3648  TIP3      H1             -8.4084809486      -23.8763837405       43.7827435910  TIP3      2288            0.0000000000
     58379      3648  TIP3      H2             -8.8126864245      -23.3524386885       45.1740525511  TIP3      2288            0.0000000000
     58380      3649  TIP3      OH2            -5.9595608651      -34.0692091212       59.0367077272  TIP3      2289            0.0000000000
     58381      3649  TIP3      H1             -6.5373358462      -33.5698368050       58.4432591317  TIP3      2289            0.0000000000
     58382      3649  TIP3      H2             -6.1127575736      -34.9768185422       58.7816966883  TIP3      2289            0.0000000000
     58383      3650  TIP3      OH2           -18.9179720439      -27.6407435163       57.1156864993  TIP3      2290            0.0000000000
     58384      3650  TIP3      H1            -18.6762365539      -28.0015220663       57.9943789574  TIP3      2290            0.0000000000
     58385      3650  TIP3      H2            -19.7688609494      -28.0680439261       56.8997826310  TIP3      2290            0.0000000000
     58386      3651  TIP3      OH2           -16.2551764527      -39.1935704025       53.0522340222  TIP3      2291            0.0000000000
     58387      3651  TIP3      H1            -17.1538087028      -39.2218242921       52.6671192460  TIP3      2291            0.0000000000
     58388      3651  TIP3      H2            -16.3229063873      -38.3607665768       53.5545456475  TIP3      2291            0.0000000000
     58389      3652  TIP3      OH2           -16.2015550081      -34.2037471032       54.1781972032  TIP3      2292            0.0000000000
     58390      3652  TIP3      H1            -16.8071204275      -34.2611850695       54.9499420014  TIP3      2292            0.0000000000
     58391      3652  TIP3      H2            -16.1955972227      -33.2601890976       54.0090924245  TIP3      2292            0.0000000000
     58392      3653  TIP3      OH2           -18.5182878349      -33.9498823873       55.9956133908  TIP3      2293            0.0000000000
     58393      3653  TIP3      H1            -18.4197926541      -33.5747362517       56.8876336575  TIP3      2293            0.0000000000
     58394      3653  TIP3      H2            -18.9533274775      -34.7886161602       56.2049841985  TIP3      2293            0.0000000000
     58395      3654  TIP3      OH2           -18.7862738129      -34.9740343442       49.0602192261  TIP3      2294            0.0000000000
     58396      3654  TIP3      H1            -19.6621489526      -34.8545807583       48.6541040469  TIP3      2294            0.0000000000
     58397      3654  TIP3      H2            -18.5027434043      -35.8234591412       48.6791990611  TIP3      2294            0.0000000000
     58398      3655  TIP3      OH2            -5.8987143517      -21.7095392968       59.7495976373  TIP3      2295            0.0000000000
     58399      3655  TIP3      H1             -5.7238457910      -21.2871106182       58.9050171054  TIP3      2295            0.0000000000
     58400      3655  TIP3      H2             -5.2591484475      -21.3033992907       60.3385418123  TIP3      2295            0.0000000000
     58401      3656  TIP3      OH2           -18.3254039658      -29.1773648873       59.3018295063  TIP3      2296            0.0000000000
     58402      3656  TIP3      H1            -17.6121311562      -28.9140351305       59.8996140855  TIP3      2296            0.0000000000
     58403      3656  TIP3      H2            -19.0990358051      -29.0157930877       59.8841579472  TIP3      2296            0.0000000000
     58404      3657  TIP3      OH2           -17.2233067630      -37.6200204807       48.5138873387  TIP3      2297            0.0000000000
     58405      3657  TIP3      H1            -17.6156427360      -38.5126594139       48.4935466290  TIP3      2297            0.0000000000
     58406      3657  TIP3      H2            -16.5006978963      -37.7163033886       47.8965031031  TIP3      2297            0.0000000000
     58407      3658  TIP3      OH2            -5.9412572717      -30.0413999318       54.9380023564  TIP3      2298            0.0000000000
     58408      3658  TIP3      H1             -5.3442601022      -29.5513991481       54.3411660851  TIP3      2298            0.0000000000
     58409      3658  TIP3      H2             -6.8062162685      -29.9606284256       54.4873526347  TIP3      2298            0.0000000000
     58410      3659  TIP3      OH2           -18.0035839068      -29.8605258109       51.9563683091  TIP3      2299            0.0000000000
     58411      3659  TIP3      H1            -17.2784360525      -29.9030294652       51.3129308267  TIP3      2299            0.0000000000
     58412      3659  TIP3      H2            -17.9627723655      -30.7042017789       52.4311543845  TIP3      2299            0.0000000000
     58413      3660  TIP3      OH2           -21.0054227583      -31.4281288561       57.2711669740  TIP3      2300            0.0000000000
     58414      3660  TIP3      H1            -20.7791463374      -31.8929390700       58.0901541086  TIP3      2300            0.0000000000
     58415      3660  TIP3      H2            -21.6048858849      -32.0495939157       56.7999045660  TIP3      2300            0.0000000000
     58416      3661  TIP3      OH2            -3.6467777012      -28.5439939774       58.5832748257  TIP3      2301            0.0000000000
     58417      3661  TIP3      H1             -4.5089847442      -28.2327003165       58.2230761777  TIP3      2301            0.0000000000
     58418      3661  TIP3      H2             -3.0906365853      -28.5003744970       57.7840935743  TIP3      2301            0.0000000000
     58419      3662  TIP3      OH2            -4.4642834861      -25.4140464646       46.2035366009  TIP3      2302            0.0000000000
     58420      3662  TIP3      H1             -4.5805814309      -26.1832919212       46.7941275333  TIP3      2302            0.0000000000
     58421      3662  TIP3      H2             -4.5700405395      -25.5597348737       45.2255876157  TIP3      2302            0.0000000000
     58422      3663  TIP3      OH2            -8.1309490281      -30.6789754469       53.2609780397  TIP3      2303            0.0000000000
     58423      3663  TIP3      H1             -9.0763753081      -30.8986612549       53.1913402526  TIP3      2303            0.0000000000
     58424      3663  TIP3      H2             -7.7103907172      -31.4570316591       52.8450174831  TIP3      2303            0.0000000000
     58425      3664  TIP3      OH2           -19.8531210297      -31.5275590991       43.8890399420  TIP3      2304            0.0000000000
     58426      3664  TIP3      H1            -19.2498246595      -30.9023030968       44.3286101537  TIP3      2304            0.0000000000
     58427      3664  TIP3      H2            -20.7344375314      -31.2740004628       44.2234682136  TIP3      2304            0.0000000000
     58428      3665  TIP3      OH2            -7.4145350300      -24.0250207035       57.3778574656  TIP3      2305            0.0000000000
     58429      3665  TIP3      H1             -8.1499947287      -24.4219225368       56.9033693300  TIP3      2305            0.0000000000
     58430      3665  TIP3      H2             -7.2120072709      -23.2526342384       56.8080552398  TIP3      2305            0.0000000000
     58431      3666  TIP3      OH2           -19.3823457442      -36.7500278793       56.7649926781  TIP3      2306            0.0000000000
     58432      3666  TIP3      H1            -20.2692426545      -36.3645451248       56.8239063411  TIP3      2306            0.0000000000
     58433      3666  TIP3      H2            -19.4538229415      -37.5647042383       57.2984060464  TIP3      2306            0.0000000000
     58434      3667  TIP3      OH2            -6.9810095836      -28.6672738895       46.2564942863  TIP3      2307            0.0000000000
     58435      3667  TIP3      H1             -7.3944206906      -29.4922329070       46.6902820155  TIP3      2307            0.0000000000
     58436      3667  TIP3      H2             -6.0789334455      -28.9356177386       46.4996166068  TIP3      2307            0.0000000000
     58437      3668  TIP3      OH2           -19.6817757070      -24.9215986845       55.2011414540  TIP3      2308            0.0000000000
     58438      3668  TIP3      H1            -19.4903589044      -25.8679757949       55.2636389373  TIP3      2308            0.0000000000
     58439      3668  TIP3      H2            -19.4906236806      -24.6013211331       56.0931510123  TIP3      2308            0.0000000000
     58440      3669  TIP3      OH2           -18.4702042539      -29.5559724492       45.3692570436  TIP3      2309            0.0000000000
     58441      3669  TIP3      H1            -19.1402194969      -29.2129688649       46.0007787316  TIP3      2309            0.0000000000
     58442      3669  TIP3      H2            -17.9110205444      -28.7965236479       45.2208736321  TIP3      2309            0.0000000000
     58443      3670  TIP3      OH2            -9.8049605637      -37.3964724115       46.7611676613  TIP3      2310            0.0000000000
     58444      3670  TIP3      H1             -9.6453105474      -36.8047537447       46.0144381525  TIP3      2310            0.0000000000
     58445      3670  TIP3      H2             -9.2948355930      -36.9165375083       47.4359648828  TIP3      2310            0.0000000000
     58446      3671  TIP3      OH2           -11.8164506143      -38.5202584686       48.5211702845  TIP3      2311            0.0000000000
     58447      3671  TIP3      H1            -12.1485707951      -37.9281357706       49.2152864715  TIP3      2311            0.0000000000
     58448      3671  TIP3      H2            -11.1135837316      -37.9891212323       48.1159234722  TIP3      2311            0.0000000000
     58449      3672  TIP3      OH2           -16.1588865529      -37.4147796597       45.2971797551  TIP3      2312            0.0000000000
     58450      3672  TIP3      H1            -16.1928928527      -36.5112135777       45.6231553523  TIP3      2312            0.0000000000
     58451      3672  TIP3      H2            -15.2538674412      -37.6598440662       45.4934609884  TIP3      2312            0.0000000000
     58452      3673  TIP3      OH2            -7.3488210972      -32.9179971971       51.7550115417  TIP3      2313            0.0000000000
     58453      3673  TIP3      H1             -8.1251693380      -33.3714299862       51.3942773577  TIP3      2313            0.0000000000
     58454      3673  TIP3      H2             -6.8178781913      -33.6173992275       52.2033764324  TIP3      2313            0.0000000000
     58455      3674  TIP3      OH2           -19.5271539801      -34.3462165876       43.4659139718  TIP3      2314            0.0000000000
     58456      3674  TIP3      H1            -19.5656216820      -33.3859169100       43.5946886959  TIP3      2314            0.0000000000
     58457      3674  TIP3      H2            -20.4207102853      -34.5422261977       43.1569288940  TIP3      2314            0.0000000000
     58458      3675  TIP3      OH2            -6.2563491351      -23.6562821818       53.3488750968  TIP3      2315            0.0000000000
     58459      3675  TIP3      H1             -6.3255044323      -22.9556833025       52.6740609473  TIP3      2315            0.0000000000
     58460      3675  TIP3      H2             -5.2922165815      -23.6068193780       53.5413093178  TIP3      2315            0.0000000000
     58461      3676  TIP3      OH2           -18.8124839713      -39.4236998037       52.1668005901  TIP3      2316            0.0000000000
     58462      3676  TIP3      H1            -18.9845848750      -39.3968269152       51.1887922019  TIP3      2316            0.0000000000
     58463      3676  TIP3      H2            -19.1207156847      -40.3120150558       52.4060214073  TIP3      2316            0.0000000000
     58464      3677  TIP3      OH2           -19.8235827445      -25.6237599178       48.2548299101  TIP3      2317            0.0000000000
     58465      3677  TIP3      H1            -20.6371164945      -25.1196327700       48.2864742458  TIP3      2317            0.0000000000
     58466      3677  TIP3      H2            -19.2559266655      -25.1248657891       47.6615730686  TIP3      2317            0.0000000000
     58467      3678  TIP3      OH2           -15.9226024521      -24.0735517642       61.1856256560  TIP3      2318            0.0000000000
     58468      3678  TIP3      H1            -15.1518418094      -24.5004307143       61.5728013243  TIP3      2318            0.0000000000
     58469      3678  TIP3      H2            -15.9283039622      -24.3176788948       60.2562717037  TIP3      2318            0.0000000000
     58470      3679  TIP3      OH2           -20.6610376299      -29.2042961191       60.5982455555  TIP3      2319            0.0000000000
     58471      3679  TIP3      H1            -20.4980909723      -30.1023225210       60.2629842711  TIP3      2319            0.0000000000
     58472      3679  TIP3      H2            -21.3897149440      -28.8973505292       60.0256249224  TIP3      2319            0.0000000000
     58473      3680  TIP3      OH2           -19.8432277546      -31.9997217177       59.9823643782  TIP3      2320            0.0000000000
     58474      3680  TIP3      H1            -19.3794185288      -32.8361725131       59.8608130585  TIP3      2320            0.0000000000
     58475      3680  TIP3      H2            -19.9554921399      -31.9729266642       60.9493525583  TIP3      2320            0.0000000000
     58476      3681  TIP3      OH2           -15.8869221432      -32.9807431836       57.3021277324  TIP3      2321            0.0000000000
     58477      3681  TIP3      H1            -16.4722396977      -32.2709390415       57.5823509609  TIP3      2321            0.0000000000
     58478      3681  TIP3      H2            -15.4611796720      -32.6370185075       56.5184053262  TIP3      2321            0.0000000000
     58479      3682  TIP3      OH2           -15.0086053943      -37.3136764746       55.8765008035  TIP3      2322            0.0000000000
     58480      3682  TIP3      H1            -14.5341413463      -36.7824153095       55.2395246181  TIP3      2322            0.0000000000
     58481      3682  TIP3      H2            -15.9275934416      -37.3343990908       55.5433944336  TIP3      2322            0.0000000000
     58482      3683  TIP3      OH2           -14.4030324229      -39.8126707662       56.4598493659  TIP3      2323            0.0000000000
     58483      3683  TIP3      H1            -14.4063550075      -38.8455882543       56.2794682734  TIP3      2323            0.0000000000
     58484      3683  TIP3      H2            -15.0778370795      -40.1208752455       55.8637633105  TIP3      2323            0.0000000000
     58485      3684  TIP3      OH2            -8.6287273354      -37.7057428305       61.0410631605  TIP3      2324            0.0000000000
     58486      3684  TIP3      H1             -8.7786855790      -38.6652543716       60.9606726856  TIP3      2324            0.0000000000
     58487      3684  TIP3      H2             -8.9984221245      -37.4393614967       61.8887506484  TIP3      2324            0.0000000000
     58488      3685  TIP3      OH2           -18.8396241052      -36.4883025498       60.0839808652  TIP3      2325            0.0000000000
     58489      3685  TIP3      H1            -18.6372066865      -37.2052276948       59.4640590857  TIP3      2325            0.0000000000
     58490      3685  TIP3      H2            -18.9349954348      -36.9478750277       60.9218501509  TIP3      2325            0.0000000000
     58491      3686  TIP3      OH2           -20.5909204745      -27.3862541865       43.8503244978  TIP3      2326            0.0000000000
     58492      3686  TIP3      H1            -19.6586732462      -27.1827501497       43.9744997340  TIP3      2326            0.0000000000
     58493      3686  TIP3      H2            -20.5823982489      -27.9044335992       43.0404673882  TIP3      2326            0.0000000000
     58494      3687  TIP3      OH2           -21.8681104087      -21.9024757288       48.8167600539  TIP3      2327            0.0000000000
     58495      3687  TIP3      H1            -22.5794780917      -22.3549935942       48.3312904279  TIP3      2327            0.0000000000
     58496      3687  TIP3      H2            -21.5997434380      -22.5827570113       49.4558309279  TIP3      2327            0.0000000000
     58497      3688  TIP3      OH2           -21.0856982649      -23.8226031472       50.6299824245  TIP3      2328            0.0000000000
     58498      3688  TIP3      H1            -21.3789281488      -24.7081155328       50.8558059486  TIP3      2328            0.0000000000
     58499      3688  TIP3      H2            -20.8387922910      -23.4710476766       51.5116633953  TIP3      2328            0.0000000000
     58500      3689  TIP3      OH2            -3.5503567202      -22.9714350200       53.6099052684  TIP3      2329            0.0000000000
     58501      3689  TIP3      H1             -3.4852836073      -22.8900525816       54.5802055605  TIP3      2329            0.0000000000
     58502      3689  TIP3      H2             -2.8093771564      -22.4514400727       53.2878852400  TIP3      2329            0.0000000000
     58503      3690  TIP3      OH2            -3.9121950455      -23.4203438323       56.4772662106  TIP3      2330            0.0000000000
     58504      3690  TIP3      H1             -4.4350887841      -24.1863694058       56.1643948727  TIP3      2330            0.0000000000
     58505      3690  TIP3      H2             -3.4433300549      -23.8038349710       57.2370721650  TIP3      2330            0.0000000000
     58506      3691  TIP3      OH2            -5.4973372693      -27.6811629619       61.1500721809  TIP3      2331            0.0000000000
     58507      3691  TIP3      H1             -6.3585952966      -27.7673610090       61.5598056417  TIP3      2331            0.0000000000
     58508      3691  TIP3      H2             -5.1080956755      -26.8963036229       61.6003716031  TIP3      2331            0.0000000000
     58509      3692  TIP3      OH2            -4.2142864462      -29.3272530592       46.6383336062  TIP3      2332            0.0000000000
     58510      3692  TIP3      H1             -3.2942849068      -29.0211494852       46.8339878512  TIP3      2332            0.0000000000
     58511      3692  TIP3      H2             -4.2101039042      -30.1067059775       47.2673549379  TIP3      2332            0.0000000000
     58512      3693  TIP3      OH2            -3.8202055508      -31.2813571280       48.5015533729  TIP3      2333            0.0000000000
     58513      3693  TIP3      H1             -4.5705447693      -31.8021581848       48.8880502155  TIP3      2333            0.0000000000
     58514      3693  TIP3      H2             -3.2161396685      -31.1698134339       49.2612943864  TIP3      2333            0.0000000000
     58515      3694  TIP3      OH2            -4.0655636764      -28.6110924867       53.4691254057  TIP3      2334            0.0000000000
     58516      3694  TIP3      H1             -3.2319948647      -28.9699995687       53.1236583357  TIP3      2334            0.0000000000
     58517      3694  TIP3      H2             -3.9016690618      -27.6518724701       53.3411684696  TIP3      2334            0.0000000000
     58518      3695  TIP3      OH2            -5.5531182649      -25.6936698255       55.7523380633  TIP3      2335            0.0000000000
     58519      3695  TIP3      H1             -6.2048447755      -25.3498081780       56.3883315340  TIP3      2335            0.0000000000
     58520      3695  TIP3      H2             -6.0886093964      -26.0933480509       55.0422886010  TIP3      2335            0.0000000000
     58521      3696  TIP3      OH2            -3.4098088771      -31.3600151476       44.7936911415  TIP3      2336            0.0000000000
     58522      3696  TIP3      H1             -4.1621681406      -31.1859444725       44.2551023723  TIP3      2336            0.0000000000
     58523      3696  TIP3      H2             -3.5769013547      -30.8621672317       45.6225824188  TIP3      2336            0.0000000000
     58524      3697  TIP3      OH2            -5.9841633286      -32.8296539957       49.1047427692  TIP3      2337            0.0000000000
     58525      3697  TIP3      H1             -6.1810158257      -33.7801104180       49.0303117591  TIP3      2337            0.0000000000
     58526      3697  TIP3      H2             -6.3564991776      -32.5999682427       49.9742218285  TIP3      2337            0.0000000000
     58527      3698  TIP3      OH2           -20.9918764199      -30.7503022882       53.1150711337  TIP3      2338            0.0000000000
     58528      3698  TIP3      H1            -20.8049012647      -30.8242403943       52.1540627754  TIP3      2338            0.0000000000
     58529      3698  TIP3      H2            -20.1038664197      -30.9127134105       53.4854703897  TIP3      2338            0.0000000000
     58530      3699  TIP3      OH2            -5.1598093153      -30.8686168484       58.7557118585  TIP3      2339            0.0000000000
     58531      3699  TIP3      H1             -4.5404582218      -31.5978946758       58.9334671869  TIP3      2339            0.0000000000
     58532      3699  TIP3      H2             -4.5891829484      -30.0765894404       58.7642487267  TIP3      2339            0.0000000000
     58533      3700  TIP3      OH2            -3.6020239094      -32.9720574340       59.3219844800  TIP3      2340            0.0000000000
     58534      3700  TIP3      H1             -4.5143145010      -33.3486460894       59.2787753188  TIP3      2340            0.0000000000
     58535      3700  TIP3      H2             -3.0594505353      -33.7550201031       59.3584987478  TIP3      2340            0.0000000000
     58536      3701  TIP3      OH2            -6.3163769027      -35.2452976230       47.5633006853  TIP3      2341            0.0000000000
     58537      3701  TIP3      H1             -6.0328709314      -36.1769021813       47.6270166558  TIP3      2341            0.0000000000
     58538      3701  TIP3      H2             -5.5582663506      -34.8307598901       47.1415425104  TIP3      2341            0.0000000000
     58539      3702  TIP3      OH2            -5.7185988971      -34.6633631980       52.9983521385  TIP3      2342            0.0000000000
     58540      3702  TIP3      H1             -4.7455013502      -34.4703311013       52.9507479006  TIP3      2342            0.0000000000
     58541      3702  TIP3      H2             -5.8581972288      -34.5418546323       53.9451947068  TIP3      2342            0.0000000000
     58542      3703  TIP3      OH2            -5.6965659446      -33.9434305694       55.7263477780  TIP3      2343            0.0000000000
     58543      3703  TIP3      H1             -6.4946381838      -33.5865370815       56.1311354256  TIP3      2343            0.0000000000
     58544      3703  TIP3      H2             -5.1705133337      -33.1294374145       55.5317492602  TIP3      2343            0.0000000000
     58545      3704  TIP3      OH2            -5.7342575698      -37.9895465548       47.5811669077  TIP3      2344            0.0000000000
     58546      3704  TIP3      H1             -5.5292389969      -38.4275175926       48.4247339222  TIP3      2344            0.0000000000
     58547      3704  TIP3      H2             -6.2955718140      -38.6168974409       47.1346369490  TIP3      2344            0.0000000000
     58548      3705  TIP3      OH2           -20.2350502646      -37.1516657693       52.1803444426  TIP3      2345            0.0000000000
     58549      3705  TIP3      H1            -19.6940207525      -37.9427548626       52.3537960782  TIP3      2345            0.0000000000
     58550      3705  TIP3      H2            -19.6777595017      -36.4538663110       52.5285952380  TIP3      2345            0.0000000000
     58551      3706  TIP3      OH2           -21.8942908823      -34.1636065888       53.1764072933  TIP3      2346            0.0000000000
     58552      3706  TIP3      H1            -21.3386335465      -34.4032038580       52.4199741593  TIP3      2346            0.0000000000
     58553      3706  TIP3      H2            -21.4828984548      -33.3532434547       53.4751913590  TIP3      2346            0.0000000000
     58554      3707  TIP3      OH2           -21.5367874198      -37.9394357122       47.2060420983  TIP3      2347            0.0000000000
     58555      3707  TIP3      H1            -22.4561416646      -37.6961254926       47.1261123895  TIP3      2347            0.0000000000
     58556      3707  TIP3      H2            -21.0802031703      -37.4232496238       46.5376007724  TIP3      2347            0.0000000000
     58557      3708  TIP3      OH2            -6.7775019451      -22.9972755690       49.1513958915  TIP3      2348            0.0000000000
     58558      3708  TIP3      H1             -6.0198058448      -23.1695931420       48.5628113216  TIP3      2348            0.0000000000
     58559      3708  TIP3      H2             -6.3136097060      -22.4626299709       49.8258340537  TIP3      2348            0.0000000000
     58560      3709  TIP3      OH2           -19.4029403638      -26.0325276783       59.7458118708  TIP3      2349            0.0000000000
     58561      3709  TIP3      H1            -20.2148669988      -25.7831785493       59.2970350556  TIP3      2349            0.0000000000
     58562      3709  TIP3      H2            -19.6588848379      -26.0545732772       60.6722941254  TIP3      2349            0.0000000000
     58563      3710  TIP3      OH2            -4.8766335477      -39.7304718952       57.2775817439  TIP3      2350            0.0000000000
     58564      3710  TIP3      H1             -5.6942593740      -39.4248834852       56.8795111561  TIP3      2350            0.0000000000
     58565      3710  TIP3      H2             -4.6171043919      -40.4980969045       56.7617496957  TIP3      2350            0.0000000000
     58566      3711  TIP3      OH2           -19.0359245584      -21.8185760187       55.9744575326  TIP3      2351            0.0000000000
     58567      3711  TIP3      H1            -19.7469834509      -21.3010284296       55.5751775646  TIP3      2351            0.0000000000
     58568      3711  TIP3      H2            -19.3476973772      -21.9485109988       56.8787487003  TIP3      2351            0.0000000000
     58569      3712  TIP3      OH2            -9.5698465247      -23.4263469928       55.2397695127  TIP3      2352            0.0000000000
     58570      3712  TIP3      H1            -10.4313988893      -23.1828065860       54.9074846758  TIP3      2352            0.0000000000
     58571      3712  TIP3      H2             -9.0683115257      -22.5956903118       55.1479214485  TIP3      2352            0.0000000000
     58572      3713  TIP3      OH2            -7.0141014424      -21.9168841911       55.4495407192  TIP3      2353            0.0000000000
     58573      3713  TIP3      H1             -7.0340241246      -20.9468099502       55.2805658568  TIP3      2353            0.0000000000
     58574      3713  TIP3      H2             -6.7305071418      -22.2738897165       54.5959877795  TIP3      2353            0.0000000000
     58575      3714  TIP3      OH2           -19.6321412116      -23.1968989606       52.9044645141  TIP3      2354            0.0000000000
     58576      3714  TIP3      H1            -19.6428229858      -23.5791360230       53.8032240601  TIP3      2354            0.0000000000
     58577      3714  TIP3      H2            -18.7802173918      -23.4800277056       52.5603659938  TIP3      2354            0.0000000000
     58578      3715  TIP3      OH2            -6.5188816280      -40.2228628040       51.1211859259  TIP3      2355            0.0000000000
     58579      3715  TIP3      H1             -5.7436891924      -39.6219307783       51.1007064713  TIP3      2355            0.0000000000
     58580      3715  TIP3      H2             -7.2448078046      -39.7182380810       51.4571541384  TIP3      2355            0.0000000000
     58581      3716  TIP3      OH2            -4.5568225777      -38.9797977872       49.9517316398  TIP3      2356            0.0000000000
     58582      3716  TIP3      H1             -3.9584528668      -39.6024519616       49.5221467662  TIP3      2356            0.0000000000
     58583      3716  TIP3      H2             -4.1025115042      -38.1151691020       50.0456301671  TIP3      2356            0.0000000000
     58584      3717  TIP3      OH2           -19.1356088232      -39.2315251729       49.5368153388  TIP3      2357            0.0000000000
     58585      3717  TIP3      H1            -19.8468403407      -39.6012307813       49.0076676649  TIP3      2357            0.0000000000
     58586      3717  TIP3      H2            -18.5910833450      -40.0375618164       49.5879422007  TIP3      2357            0.0000000000
     58587      3718  TIP3      OH2           -14.5785945288      -39.6938064333       49.2385140169  TIP3      2358            0.0000000000
     58588      3718  TIP3      H1            -13.6593130325      -39.4108750664       49.1769923686  TIP3      2358            0.0000000000
     58589      3718  TIP3      H2            -14.5842086234      -39.9713291553       50.1561502668  TIP3      2358            0.0000000000
     58590      3719  TIP3      OH2            -7.9154128747      -39.7294146114       46.1477585149  TIP3      2359            0.0000000000
     58591      3719  TIP3      H1             -8.3766606280      -38.9409476771       46.5029317226  TIP3      2359            0.0000000000
     58592      3719  TIP3      H2             -7.8787446714      -40.3888487350       46.8921852519  TIP3      2359            0.0000000000
     58593      3720  TIP3      OH2            -4.9402810410      -23.0952238088       47.2442658942  TIP3      2360            0.0000000000
     58594      3720  TIP3      H1             -4.8030461753      -23.8374206580       46.6576211278  TIP3      2360            0.0000000000
     58595      3720  TIP3      H2             -4.8267228972      -22.3400881147       46.6170003429  TIP3      2360            0.0000000000
     58596      3721  TIP3      OH2           -19.1570838925      -39.1088044289       58.8719613491  TIP3      2361            0.0000000000
     58597      3721  TIP3      H1            -19.5033420088      -39.8857995322       59.3108711299  TIP3      2361            0.0000000000
     58598      3721  TIP3      H2            -18.2482079274      -39.1185347010       59.2451977616  TIP3      2361            0.0000000000
     58599      3722  TIP3      OH2           -17.1417547970      -39.7850062304       60.4945983518  TIP3      2362            0.0000000000
     58600      3722  TIP3      H1            -16.2442564705      -40.0520567891       60.2402127322  TIP3      2362            0.0000000000
     58601      3722  TIP3      H2            -17.5137066656      -40.5641451359       60.9071015435  TIP3      2362            0.0000000000
     58602      3723  TIP3      OH2            -8.7173978273      -40.4057945576       60.7312255558  TIP3      2363            0.0000000000
     58603      3723  TIP3      H1             -8.6282773282      -40.9785549043       61.4926246035  TIP3      2363            0.0000000000
     58604      3723  TIP3      H2             -7.8611072363      -40.5168356548       60.2879856130  TIP3      2363            0.0000000000
     58605      3724  TIP3      OH2            -5.5649670841      -24.4258342437       59.3605137056  TIP3      2364            0.0000000000
     58606      3724  TIP3      H1             -6.3483458179      -24.5353170650       58.7833599191  TIP3      2364            0.0000000000
     58607      3724  TIP3      H2             -5.6572612015      -23.4618015075       59.5178549923  TIP3      2364            0.0000000000
     58608      3725  TIP3      OH2             0.0965618250      -31.5844650234       54.3556529146  TIP3      2365            0.0000000000
     58609      3725  TIP3      H1              0.1831245457      -32.2752427811       55.0470227781  TIP3      2365            0.0000000000
     58610      3725  TIP3      H2              0.8442791554      -31.0257238045       54.5856509892  TIP3      2365            0.0000000000
     58611      3726  TIP3      OH2            11.4313923053      -28.3183590228       51.0665476487  TIP3      2366            0.0000000000
     58612      3726  TIP3      H1             11.0213905128      -29.0162368894       51.5769712194  TIP3      2366            0.0000000000
     58613      3726  TIP3      H2             11.4734860931      -27.6116130741       51.7426413009  TIP3      2366            0.0000000000
     58614      3727  TIP3      OH2             1.0310137458      -27.2060435541       52.9117686330  TIP3      2367            0.0000000000
     58615      3727  TIP3      H1              0.7198626333      -28.0412259387       52.5257942469  TIP3      2367            0.0000000000
     58616      3727  TIP3      H2              1.9974931885      -27.3397931930       52.9140440948  TIP3      2367            0.0000000000
     58617      3728  TIP3      OH2            -2.3226229101      -33.5947489535       48.3313073072  TIP3      2368            0.0000000000
     58618      3728  TIP3      H1             -2.7562281044      -32.7156330455       48.2962472416  TIP3      2368            0.0000000000
     58619      3728  TIP3      H2             -2.9039678650      -34.1067691421       47.7661839520  TIP3      2368            0.0000000000
     58620      3729  TIP3      OH2            -1.6459710967      -31.3625263596       50.4755207718  TIP3      2369            0.0000000000
     58621      3729  TIP3      H1             -1.3760677598      -32.1752188987       50.9448769035  TIP3      2369            0.0000000000
     58622      3729  TIP3      H2             -0.9152419879      -31.2788614652       49.8477243882  TIP3      2369            0.0000000000
     58623      3730  TIP3      OH2             8.5028881348      -23.1683692858       51.3062425016  TIP3      2370            0.0000000000
     58624      3730  TIP3      H1              9.1752226707      -23.8442798981       51.0268751440  TIP3      2370            0.0000000000
     58625      3730  TIP3      H2              8.3397009963      -23.4783677768       52.1962505409  TIP3      2370            0.0000000000
     58626      3731  TIP3      OH2            14.7589523867      -37.2496477556       54.0255556270  TIP3      2371            0.0000000000
     58627      3731  TIP3      H1             14.8633369355      -36.6354830870       54.7626777648  TIP3      2371            0.0000000000
     58628      3731  TIP3      H2             15.2796629309      -36.8118699206       53.3326579106  TIP3      2371            0.0000000000
     58629      3732  TIP3      OH2            -0.9615247861      -33.9066383654       51.5435815949  TIP3      2372            0.0000000000
     58630      3732  TIP3      H1             -0.3068960992      -34.4715160648       52.0132818105  TIP3      2372            0.0000000000
     58631      3732  TIP3      H2             -0.8581916796      -34.1896661918       50.6281008494  TIP3      2372            0.0000000000
     58632      3733  TIP3      OH2             4.1934126968      -32.3433707924       50.8419253885  TIP3      2373            0.0000000000
     58633      3733  TIP3      H1              4.8611979741      -32.9125710211       51.2609884337  TIP3      2373            0.0000000000
     58634      3733  TIP3      H2              3.6479923842      -33.0056625129       50.3590751493  TIP3      2373            0.0000000000
     58635      3734  TIP3      OH2             8.6748187161      -27.9220726263       48.3658586869  TIP3      2374            0.0000000000
     58636      3734  TIP3      H1              8.2358945249      -28.2534378105       47.5769323481  TIP3      2374            0.0000000000
     58637      3734  TIP3      H2              8.2849358027      -27.0298191947       48.4816961525  TIP3      2374            0.0000000000
     58638      3735  TIP3      OH2             3.8281556051      -29.7752369551       55.0444966002  TIP3      2375            0.0000000000
     58639      3735  TIP3      H1              3.1113888373      -29.1448331470       55.2865838633  TIP3      2375            0.0000000000
     58640      3735  TIP3      H2              4.5312043631      -29.1515849152       54.8622288434  TIP3      2375            0.0000000000
     58641      3736  TIP3      OH2            11.9258985189      -36.9037733086       51.1621256284  TIP3      2376            0.0000000000
     58642      3736  TIP3      H1             11.7024510335      -37.6797447012       51.6830641963  TIP3      2376            0.0000000000
     58643      3736  TIP3      H2             12.5929660576      -36.4511394708       51.6820188837  TIP3      2376            0.0000000000
     58644      3737  TIP3      OH2             0.8473155081      -35.5181058923       52.7614129653  TIP3      2377            0.0000000000
     58645      3737  TIP3      H1              1.4731159901      -34.9116916762       53.2121894094  TIP3      2377            0.0000000000
     58646      3737  TIP3      H2              1.3922133757      -35.9968621590       52.1438529663  TIP3      2377            0.0000000000
     58647      3738  TIP3      OH2             2.2811817166      -27.7705712139       55.9184668267  TIP3      2378            0.0000000000
     58648      3738  TIP3      H1              2.2273364179      -26.8887155264       55.5193377194  TIP3      2378            0.0000000000
     58649      3738  TIP3      H2              1.3767414426      -27.8328859267       56.3319350535  TIP3      2378            0.0000000000
     58650      3739  TIP3      OH2            -1.7688468582      -28.1071241551       46.6723334512  TIP3      2379            0.0000000000
     58651      3739  TIP3      H1             -1.8399351916      -27.8053958454       45.7573259786  TIP3      2379            0.0000000000
     58652      3739  TIP3      H2             -1.5558314882      -27.3045396369       47.1837945572  TIP3      2379            0.0000000000
     58653      3740  TIP3      OH2            11.9886110315      -26.4809283319       53.4344421349  TIP3      2380            0.0000000000
     58654      3740  TIP3      H1             11.0223820362      -26.3541829740       53.5418802668  TIP3      2380            0.0000000000
     58655      3740  TIP3      H2             12.2528321963      -25.5613538739       53.2475173918  TIP3      2380            0.0000000000
     58656      3741  TIP3      OH2            12.2967831162      -38.1884134850       54.8980989904  TIP3      2381            0.0000000000
     58657      3741  TIP3      H1             11.5465959583      -37.5869621176       54.7752802717  TIP3      2381            0.0000000000
     58658      3741  TIP3      H2             12.9893939990      -37.7679109892       54.3599442424  TIP3      2381            0.0000000000
     58659      3742  TIP3      OH2            10.2335628861      -24.6848980791       50.0664055788  TIP3      2382            0.0000000000
     58660      3742  TIP3      H1             10.6497352688      -25.3994669691       49.5492434610  TIP3      2382            0.0000000000
     58661      3742  TIP3      H2             10.6404175687      -23.9076325096       49.6368185951  TIP3      2382            0.0000000000
     58662      3743  TIP3      OH2            11.4678184079      -26.7799531442       48.5556510846  TIP3      2383            0.0000000000
     58663      3743  TIP3      H1             11.1286394744      -27.4530317955       47.9496845136  TIP3      2383            0.0000000000
     58664      3743  TIP3      H2             11.4686678222      -27.2601555403       49.4073852189  TIP3      2383            0.0000000000
     58665      3744  TIP3      OH2            13.0181123310      -28.1889113817       57.0009849548  TIP3      2384            0.0000000000
     58666      3744  TIP3      H1             13.2400724707      -28.8112164145       56.2984201585  TIP3      2384            0.0000000000
     58667      3744  TIP3      H2             13.2880220969      -27.3348833298       56.6264829469  TIP3      2384            0.0000000000
     58668      3745  TIP3      OH2             7.5659853632      -31.2582383062       46.7893213470  TIP3      2385            0.0000000000
     58669      3745  TIP3      H1              6.8466267882      -30.6960437383       46.4447562745  TIP3      2385            0.0000000000
     58670      3745  TIP3      H2              8.2385548797      -31.2000149312       46.1195265479  TIP3      2385            0.0000000000
     58671      3746  TIP3      OH2             2.5922314565      -30.4121713518       49.6598613111  TIP3      2386            0.0000000000
     58672      3746  TIP3      H1              2.3045471780      -30.7828753802       48.7978461811  TIP3      2386            0.0000000000
     58673      3746  TIP3      H2              3.2111952167      -31.1039540567       49.9845924916  TIP3      2386            0.0000000000
     58674      3747  TIP3      OH2             3.9104073831      -27.0607343883       52.3672658907  TIP3      2387            0.0000000000
     58675      3747  TIP3      H1              3.9070219315      -27.5247811613       51.5232390775  TIP3      2387            0.0000000000
     58676      3747  TIP3      H2              4.7283382891      -27.3478669836       52.7879900534  TIP3      2387            0.0000000000
     58677      3748  TIP3      OH2             2.9700033802      -31.6905930038       53.3108340941  TIP3      2388            0.0000000000
     58678      3748  TIP3      H1              3.5171993581      -31.5441622565       52.5186527809  TIP3      2388            0.0000000000
     58679      3748  TIP3      H2              3.3053817105      -31.0056561186       53.9324314664  TIP3      2388            0.0000000000
     58680      3749  TIP3      OH2             9.3642060626      -26.1544299215       54.0630476784  TIP3      2389            0.0000000000
     58681      3749  TIP3      H1              9.0248425403      -25.4742124372       54.6570343148  TIP3      2389            0.0000000000
     58682      3749  TIP3      H2              9.0422984618      -26.9765300307       54.4491329645  TIP3      2389            0.0000000000
     58683      3750  TIP3      OH2             3.8604964855      -27.3072241699       58.0417220149  TIP3      2390            0.0000000000
     58684      3750  TIP3      H1              3.5554157156      -26.4956014218       58.4644044103  TIP3      2390            0.0000000000
     58685      3750  TIP3      H2              3.2429883730      -27.4347691321       57.2864887314  TIP3      2390            0.0000000000
     58686      3751  TIP3      OH2             0.8093349282      -31.0939148405       57.2038834024  TIP3      2391            0.0000000000
     58687      3751  TIP3      H1              0.8416256177      -30.4137535694       57.8984965009  TIP3      2391            0.0000000000
     58688      3751  TIP3      H2             -0.1211200641      -30.9959543917       56.9464980812  TIP3      2391            0.0000000000
     58689      3752  TIP3      OH2             7.5806319796      -25.1736056660       48.9166376046  TIP3      2392            0.0000000000
     58690      3752  TIP3      H1              8.0269781126      -24.8528095876       49.7045526459  TIP3      2392            0.0000000000
     58691      3752  TIP3      H2              7.0120198715      -24.4379058479       48.6534308919  TIP3      2392            0.0000000000
     58692      3753  TIP3      OH2            13.5597095202      -40.1207165795       45.3445971728  TIP3      2393            0.0000000000
     58693      3753  TIP3      H1             12.6197460632      -39.9985891348       45.5729368990  TIP3      2393            0.0000000000
     58694      3753  TIP3      H2             13.7798923024      -39.3353923258       44.8445171070  TIP3      2393            0.0000000000
     58695      3754  TIP3      OH2             1.5931135098      -31.3362487635       47.2573652599  TIP3      2394            0.0000000000
     58696      3754  TIP3      H1              1.2834483753      -30.5977685061       46.7060234901  TIP3      2394            0.0000000000
     58697      3754  TIP3      H2              0.9251219149      -32.0146651650       47.0859136326  TIP3      2394            0.0000000000
     58698      3755  TIP3      OH2            14.7081144274      -25.7594491615       43.6570692918  TIP3      2395            0.0000000000
     58699      3755  TIP3      H1             14.8296680647      -24.8015169142       43.7968779491  TIP3      2395            0.0000000000
     58700      3755  TIP3      H2             15.6231703951      -26.0946983725       43.6065315641  TIP3      2395            0.0000000000
     58701      3756  TIP3      OH2            -2.3204585975      -28.9778691532       56.1390881713  TIP3      2396            0.0000000000
     58702      3756  TIP3      H1             -2.7882513606      -29.0470294343       55.2882302136  TIP3      2396            0.0000000000
     58703      3756  TIP3      H2             -2.2910268390      -29.9242331521       56.3815306324  TIP3      2396            0.0000000000
     58704      3757  TIP3      OH2            -2.5690986181      -26.2291702345       52.9709184534  TIP3      2397            0.0000000000
     58705      3757  TIP3      H1             -1.6047919074      -26.3247533959       52.9456155876  TIP3      2397            0.0000000000
     58706      3757  TIP3      H2             -2.6660125148      -25.4124225495       53.4816884799  TIP3      2397            0.0000000000
     58707      3758  TIP3      OH2            15.6866492455      -25.5412398421       58.6026266822  TIP3      2398            0.0000000000
     58708      3758  TIP3      H1             15.5543242396      -26.5134623578       58.6130438628  TIP3      2398            0.0000000000
     58709      3758  TIP3      H2             14.8291713039      -25.2816226531       59.0145451125  TIP3      2398            0.0000000000
     58710      3759  TIP3      OH2             7.0835923775      -22.2545539228       47.2863860613  TIP3      2399            0.0000000000
     58711      3759  TIP3      H1              6.9806851393      -22.3026760561       46.3212904252  TIP3      2399            0.0000000000
     58712      3759  TIP3      H2              7.0654479970      -21.2902899061       47.4607139681  TIP3      2399            0.0000000000
     58713      3760  TIP3      OH2            10.0893191522      -23.0201495438       44.2668932810  TIP3      2400            0.0000000000
     58714      3760  TIP3      H1             10.5216299946      -23.7874007051       43.8278251838  TIP3      2400            0.0000000000
     58715      3760  TIP3      H2             10.1548098800      -23.2893559853       45.2006724117  TIP3      2400            0.0000000000
     58716      3761  TIP3      OH2             9.8156932040      -23.0908689577       47.0538761186  TIP3      2401            0.0000000000
     58717      3761  TIP3      H1              8.8561844754      -23.0284449500       47.2278445243  TIP3      2401            0.0000000000
     58718      3761  TIP3      H2             10.0505483235      -23.8390350448       47.6164738446  TIP3      2401            0.0000000000
     58719      3762  TIP3      OH2            -0.0514159847      -27.6881385619       57.0897154715  TIP3      2402            0.0000000000
     58720      3762  TIP3      H1              0.1560016391      -28.0353624656       57.9807029773  TIP3      2402            0.0000000000
     58721      3762  TIP3      H2             -0.9425368569      -28.0406248775       56.8937341359  TIP3      2402            0.0000000000
     58722      3763  TIP3      OH2             2.7145349678      -34.2126114709       54.2758593024  TIP3      2403            0.0000000000
     58723      3763  TIP3      H1              1.9946670019      -34.2582264221       54.9385479953  TIP3      2403            0.0000000000
     58724      3763  TIP3      H2              2.6638627368      -33.2825470963       53.9478083857  TIP3      2403            0.0000000000
     58725      3764  TIP3      OH2             2.7085733124      -34.0832679554       49.1657882834  TIP3      2404            0.0000000000
     58726      3764  TIP3      H1              1.7719245924      -34.3311554242       49.0679247745  TIP3      2404            0.0000000000
     58727      3764  TIP3      H2              3.0898338692      -34.4184172311       48.3321175414  TIP3      2404            0.0000000000
     58728      3765  TIP3      OH2             7.2137011172      -33.3934648169       59.4653920618  TIP3      2405            0.0000000000
     58729      3765  TIP3      H1              6.7402507715      -34.1860550306       59.7240569493  TIP3      2405            0.0000000000
     58730      3765  TIP3      H2              8.0969385193      -33.5294203750       59.8358473159  TIP3      2405            0.0000000000
     58731      3766  TIP3      OH2             0.3468486741      -33.9160190155       56.0044616006  TIP3      2406            0.0000000000
     58732      3766  TIP3      H1              0.4192050537      -33.5524831978       56.8992790520  TIP3      2406            0.0000000000
     58733      3766  TIP3      H2             -0.0600398709      -34.7843368822       56.1639436216  TIP3      2406            0.0000000000
     58734      3767  TIP3      OH2            -3.0039392379      -36.8603616620       49.9320920836  TIP3      2407            0.0000000000
     58735      3767  TIP3      H1             -2.3575505681      -36.8079312643       50.6460558388  TIP3      2407            0.0000000000
     58736      3767  TIP3      H2             -2.5305243731      -37.2146634387       49.1818198053  TIP3      2407            0.0000000000
     58737      3768  TIP3      OH2             0.0256570487      -35.0261816572       49.0801994386  TIP3      2408            0.0000000000
     58738      3768  TIP3      H1             -0.8213388016      -34.8127759959       48.6299807606  TIP3      2408            0.0000000000
     58739      3768  TIP3      H2              0.3623794487      -35.7915691706       48.6091897490  TIP3      2408            0.0000000000
     58740      3769  TIP3      OH2             3.7045692608      -34.9042726882       46.7119998629  TIP3      2409            0.0000000000
     58741      3769  TIP3      H1              4.6587800669      -34.8327039377       46.8426357002  TIP3      2409            0.0000000000
     58742      3769  TIP3      H2              3.4918226723      -34.2778319425       46.0151804019  TIP3      2409            0.0000000000
     58743      3770  TIP3      OH2             9.6729999247      -37.3553468941       53.4295412466  TIP3      2410            0.0000000000
     58744      3770  TIP3      H1              8.9873917673      -37.2145687956       54.1057892765  TIP3      2410            0.0000000000
     58745      3770  TIP3      H2              9.1768030806      -37.5388334407       52.6258990756  TIP3      2410            0.0000000000
     58746      3771  TIP3      OH2            12.8601681629      -21.6476243717       59.7740102201  TIP3      2411            0.0000000000
     58747      3771  TIP3      H1             13.1412075056      -21.2752338196       58.9194672257  TIP3      2411            0.0000000000
     58748      3771  TIP3      H2             13.5794253890      -21.3477573088       60.3580759017  TIP3      2411            0.0000000000
     58749      3772  TIP3      OH2             0.5456659637      -29.0840720980       59.3008106069  TIP3      2412            0.0000000000
     58750      3772  TIP3      H1              1.2632088922      -28.9506991945       59.9421375730  TIP3      2412            0.0000000000
     58751      3772  TIP3      H2             -0.2459683646      -29.0542524435       59.8889066591  TIP3      2412            0.0000000000
     58752      3773  TIP3      OH2             6.4972734646      -33.8325831789       52.0765396889  TIP3      2413            0.0000000000
     58753      3773  TIP3      H1              7.1254637444      -34.3435779812       51.5350164251  TIP3      2413            0.0000000000
     58754      3773  TIP3      H2              6.3908538346      -34.3507752865       52.8890834260  TIP3      2413            0.0000000000
     58755      3774  TIP3      OH2             5.2174228033      -35.3730307941       54.4790033103  TIP3      2414            0.0000000000
     58756      3774  TIP3      H1              4.3254768615      -34.9801162815       54.6060574773  TIP3      2414            0.0000000000
     58757      3774  TIP3      H2              5.6702504441      -35.1476889809       55.2945860743  TIP3      2414            0.0000000000
     58758      3775  TIP3      OH2             5.7401347284      -29.2042288563       46.1925374298  TIP3      2415            0.0000000000
     58759      3775  TIP3      H1              4.9779083513      -29.7114782217       45.8563301835  TIP3      2415            0.0000000000
     58760      3775  TIP3      H2              5.5500690698      -29.1108037439       47.1436909013  TIP3      2415            0.0000000000
     58761      3776  TIP3      OH2             0.8698425784      -29.8315318195       51.9632640162  TIP3      2416            0.0000000000
     58762      3776  TIP3      H1              1.5796240858      -29.9318640110       51.3019124279  TIP3      2416            0.0000000000
     58763      3776  TIP3      H2              0.8923361965      -30.6935169428       52.4162232640  TIP3      2416            0.0000000000
     58764      3777  TIP3      OH2            -2.1118938726      -31.4392448855       57.2192509139  TIP3      2417            0.0000000000
     58765      3777  TIP3      H1             -1.9636211516      -31.8546759309       58.0888413585  TIP3      2417            0.0000000000
     58766      3777  TIP3      H2             -2.7621758851      -32.0378812172       56.8112120720  TIP3      2417            0.0000000000
     58767      3778  TIP3      OH2             4.8816022828      -31.9494420011       59.4565553397  TIP3      2418            0.0000000000
     58768      3778  TIP3      H1              4.5471331883      -32.1394930199       58.5668867344  TIP3      2418            0.0000000000
     58769      3778  TIP3      H2              5.8360619230      -32.1686443198       59.3840114587  TIP3      2418            0.0000000000
     58770      3779  TIP3      OH2            15.2584545401      -28.3553378598       58.5598529991  TIP3      2419            0.0000000000
     58771      3779  TIP3      H1             14.3385212415      -28.3352429406       58.2231329691  TIP3      2419            0.0000000000
     58772      3779  TIP3      H2             15.7920050528      -28.5291455540       57.7672823550  TIP3      2419            0.0000000000
     58773      3780  TIP3      OH2            13.5416100768      -25.5023751921       46.1609052557  TIP3      2420            0.0000000000
     58774      3780  TIP3      H1             13.1371000424      -26.3021821754       46.5153825251  TIP3      2420            0.0000000000
     58775      3780  TIP3      H2             13.8185925565      -25.7379491332       45.2579080144  TIP3      2420            0.0000000000
     58776      3781  TIP3      OH2             3.2451134965      -26.4116322142       49.2939969607  TIP3      2421            0.0000000000
     58777      3781  TIP3      H1              3.7567648158      -25.5909139836       49.1909461643  TIP3      2421            0.0000000000
     58778      3781  TIP3      H2              2.3552365690      -26.1407874447       49.0427918895  TIP3      2421            0.0000000000
     58779      3782  TIP3      OH2            -1.0175597931      -31.3729347864       43.7285550987  TIP3      2422            0.0000000000
     58780      3782  TIP3      H1             -0.3970019955      -30.9377545503       44.3558377285  TIP3      2422            0.0000000000
     58781      3782  TIP3      H2             -1.8353930967      -31.3179247769       44.2761093963  TIP3      2422            0.0000000000
     58782      3783  TIP3      OH2             4.6770775153      -28.7161198225       48.9124607535  TIP3      2423            0.0000000000
     58783      3783  TIP3      H1              4.3726651657      -27.7932360647       49.0036199710  TIP3      2423            0.0000000000
     58784      3783  TIP3      H2              3.9320914110      -29.1936584086       49.3215027246  TIP3      2423            0.0000000000
     58785      3784  TIP3      OH2             5.1472456122      -24.5585117352       55.2490566426  TIP3      2424            0.0000000000
     58786      3784  TIP3      H1              5.5270180388      -23.7022804837       55.0208711271  TIP3      2424            0.0000000000
     58787      3784  TIP3      H2              5.6833830707      -24.8326413890       55.9967788347  TIP3      2424            0.0000000000
     58788      3785  TIP3      OH2            11.4133702491      -23.9381294372       57.3973985998  TIP3      2425            0.0000000000
     58789      3785  TIP3      H1             10.7466457607      -24.4296493692       56.8997153494  TIP3      2425            0.0000000000
     58790      3785  TIP3      H2             11.6375695707      -23.2432032351       56.7431921907  TIP3      2425            0.0000000000
     58791      3786  TIP3      OH2            15.4554471842      -23.0923608839       44.2876162631  TIP3      2426            0.0000000000
     58792      3786  TIP3      H1             16.1127455341      -22.4370117215       44.0283208465  TIP3      2426            0.0000000000
     58793      3786  TIP3      H2             14.7034353479      -22.5079523894       44.5461233401  TIP3      2426            0.0000000000
     58794      3787  TIP3      OH2            -0.5100248516      -36.6832700498       56.8008727474  TIP3      2427            0.0000000000
     58795      3787  TIP3      H1             -1.4134312339      -36.3342738339       56.7361089031  TIP3      2427            0.0000000000
     58796      3787  TIP3      H2             -0.6272525710      -37.5265461510       57.2360372498  TIP3      2427            0.0000000000
     58797      3788  TIP3      OH2            -0.9353104657      -24.9838972962       55.2225216357  TIP3      2428            0.0000000000
     58798      3788  TIP3      H1             -0.5556521887      -25.8648269641       55.2028282281  TIP3      2428            0.0000000000
     58799      3788  TIP3      H2             -0.6633931323      -24.6720230328       56.1039283703  TIP3      2428            0.0000000000
     58800      3789  TIP3      OH2             3.8357344893      -26.8490893548       44.9405666410  TIP3      2429            0.0000000000
     58801      3789  TIP3      H1              4.1600958632      -27.3843966442       45.6810262609  TIP3      2429            0.0000000000
     58802      3789  TIP3      H2              3.9528119698      -25.9386393175       45.2383172032  TIP3      2429            0.0000000000
     58803      3790  TIP3      OH2             0.3759369914      -29.5896081953       45.4158715443  TIP3      2430            0.0000000000
     58804      3790  TIP3      H1             -0.3118117801      -29.1952915517       45.9895127846  TIP3      2430            0.0000000000
     58805      3790  TIP3      H2              0.9520320589      -28.8461841099       45.2013820541  TIP3      2430            0.0000000000
     58806      3791  TIP3      OH2             8.2239750161      -36.9264311928       55.7387585512  TIP3      2431            0.0000000000
     58807      3791  TIP3      H1              8.9157892624      -36.8649427595       56.4083514034  TIP3      2431            0.0000000000
     58808      3791  TIP3      H2              7.8605757664      -37.8115738253       55.8937912076  TIP3      2431            0.0000000000
     58809      3792  TIP3      OH2             9.0374600624      -37.3416434108       46.8374356939  TIP3      2432            0.0000000000
     58810      3792  TIP3      H1              9.2035901739      -36.8307925932       46.0386445412  TIP3      2432            0.0000000000
     58811      3792  TIP3      H2              9.5736828324      -36.9057880529       47.5095598352  TIP3      2432            0.0000000000
     58812      3793  TIP3      OH2             6.6401036504      -25.2021434412       45.6258934676  TIP3      2433            0.0000000000
     58813      3793  TIP3      H1              5.8815254988      -24.6286192408       45.7386452198  TIP3      2433            0.0000000000
     58814      3793  TIP3      H2              7.2381537807      -24.6808220797       45.0753677899  TIP3      2433            0.0000000000
     58815      3794  TIP3      OH2             7.2021326048      -38.5570590028       48.6421360598  TIP3      2434            0.0000000000
     58816      3794  TIP3      H1              6.7366810542      -37.8791630054       49.1618970964  TIP3      2434            0.0000000000
     58817      3794  TIP3      H2              7.7439335378      -37.9800039214       48.0813773859  TIP3      2434            0.0000000000
     58818      3795  TIP3      OH2            -0.6655285957      -34.2728355878       43.3264738851  TIP3      2435            0.0000000000
     58819      3795  TIP3      H1             -0.7400934215      -33.3976508615       43.7099541489  TIP3      2435            0.0000000000
     58820      3795  TIP3      H2             -1.5721322887      -34.5810624742       43.2487929172  TIP3      2435            0.0000000000
     58821      3796  TIP3      OH2            12.6085773542      -23.6704970652       53.3800758342  TIP3      2436            0.0000000000
     58822      3796  TIP3      H1             12.5220067160      -22.9841401890       52.6905605004  TIP3      2436            0.0000000000
     58823      3796  TIP3      H2             13.5745730180      -23.6102060859       53.5564075509  TIP3      2436            0.0000000000
     58824      3797  TIP3      OH2            11.7185790552      -24.7240019488       42.8741332760  TIP3      2437            0.0000000000
     58825      3797  TIP3      H1             11.9453785135      -25.5609055286       43.2933628712  TIP3      2437            0.0000000000
     58826      3797  TIP3      H2             12.4411483615      -24.5316609600       42.2671075773  TIP3      2437            0.0000000000
     58827      3798  TIP3      OH2            -1.7634539017      -29.1720919398       60.5780439532  TIP3      2438            0.0000000000
     58828      3798  TIP3      H1             -1.6576155224      -30.0922436227       60.2808823274  TIP3      2438            0.0000000000
     58829      3798  TIP3      H2             -2.5334528261      -28.9003267396       60.0335141723  TIP3      2438            0.0000000000
     58830      3799  TIP3      OH2             4.8987239906      -29.2007258403       60.0332578935  TIP3      2439            0.0000000000
     58831      3799  TIP3      H1              4.5858148630      -28.8948775410       59.1562723377  TIP3      2439            0.0000000000
     58832      3799  TIP3      H2              5.0319031456      -30.1588463279       59.8736453715  TIP3      2439            0.0000000000
     58833      3800  TIP3      OH2            10.5921130446      -29.3153978673       57.2376542875  TIP3      2440            0.0000000000
     58834      3800  TIP3      H1             11.4087788437      -28.7761350899       57.3217766873  TIP3      2440            0.0000000000
     58835      3800  TIP3      H2              9.9240409314      -28.6898742195       57.4869668744  TIP3      2440            0.0000000000
     58836      3801  TIP3      OH2            -0.8533084599      -31.9242853180       59.9993538219  TIP3      2441            0.0000000000
     58837      3801  TIP3      H1             -0.5236280621      -32.8218993173       59.8714739321  TIP3      2441            0.0000000000
     58838      3801  TIP3      H2             -1.1484055170      -31.9491665608       60.9297512666  TIP3      2441            0.0000000000
     58839      3802  TIP3      OH2             3.6709402662      -30.8567617790       44.9921508708  TIP3      2442            0.0000000000
     58840      3802  TIP3      H1              3.2808766226      -31.3653399743       45.7228363131  TIP3      2442            0.0000000000
     58841      3802  TIP3      H2              4.0670169396      -31.5330353425       44.4360032488  TIP3      2442            0.0000000000
     58842      3803  TIP3      OH2             3.0769593675      -32.9478369046       57.3676595245  TIP3      2443            0.0000000000
     58843      3803  TIP3      H1              2.4023625584      -32.2971624865       57.6135923956  TIP3      2443            0.0000000000
     58844      3803  TIP3      H2              3.3440962024      -32.6426641851       56.4986238680  TIP3      2443            0.0000000000
     58845      3804  TIP3      OH2            -1.8125011266      -27.4086566086       43.7992235922  TIP3      2444            0.0000000000
     58846      3804  TIP3      H1             -0.8809351604      -27.1789673910       44.0081159003  TIP3      2444            0.0000000000
     58847      3804  TIP3      H2             -1.6388851401      -27.9023016693       42.9960162047  TIP3      2444            0.0000000000
     58848      3805  TIP3      OH2            -2.1813594018      -23.8448630921       50.6511188644  TIP3      2445            0.0000000000
     58849      3805  TIP3      H1             -2.5566047723      -24.7043324943       50.8400199100  TIP3      2445            0.0000000000
     58850      3805  TIP3      H2             -1.9866026946      -23.4702321391       51.5052238142  TIP3      2445            0.0000000000
     58851      3806  TIP3      OH2            15.3242164492      -23.0169061577       53.5789298556  TIP3      2446            0.0000000000
     58852      3806  TIP3      H1             15.3724086038      -22.8615626866       54.5373088797  TIP3      2446            0.0000000000
     58853      3806  TIP3      H2             16.0394597811      -22.4464613869       53.2719081675  TIP3      2446            0.0000000000
     58854      3807  TIP3      OH2            14.9467631590      -23.4263726762       56.5313512782  TIP3      2447            0.0000000000
     58855      3807  TIP3      H1             14.4534241836      -24.1806534346       56.1440638442  TIP3      2447            0.0000000000
     58856      3807  TIP3      H2             15.4294064568      -23.8902356968       57.2379979915  TIP3      2447            0.0000000000
     58857      3808  TIP3      OH2            13.4030178950      -27.7041184109       61.1983371426  TIP3      2448            0.0000000000
     58858      3808  TIP3      H1             12.5062619291      -27.7676793447       61.5236851148  TIP3      2448            0.0000000000
     58859      3808  TIP3      H2             13.7529624111      -26.9001245116       61.6233364057  TIP3      2448            0.0000000000
     58860      3809  TIP3      OH2            14.8091686301      -28.5824195155       53.4644701502  TIP3      2449            0.0000000000
     58861      3809  TIP3      H1             15.6520139545      -28.9640837048       53.1636201644  TIP3      2449            0.0000000000
     58862      3809  TIP3      H2             14.9470899833      -27.6286142330       53.3171632961  TIP3      2449            0.0000000000
     58863      3810  TIP3      OH2            13.3604747316      -25.6830778726       55.7763620911  TIP3      2450            0.0000000000
     58864      3810  TIP3      H1             12.6652100938      -25.3698156560       56.3748139592  TIP3      2450            0.0000000000
     58865      3810  TIP3      H2             12.8264643838      -26.0945944368       55.0654043623  TIP3      2450            0.0000000000
     58866      3811  TIP3      OH2            -2.1345750239      -30.7173744999       53.1355034649  TIP3      2451            0.0000000000
     58867      3811  TIP3      H1             -1.9622367337      -30.8262531460       52.1739801133  TIP3      2451            0.0000000000
     58868      3811  TIP3      H2             -1.2473842388      -30.9153112589       53.4915722499  TIP3      2451            0.0000000000
     58869      3812  TIP3      OH2            15.3516777537      -39.7767483215       61.0371992764  TIP3      2452            0.0000000000
     58870      3812  TIP3      H1             15.7475045777      -40.5174006266       60.5145722718  TIP3      2452            0.0000000000
     58871      3812  TIP3      H2             15.6251522378      -39.0262216630       60.5170500767  TIP3      2452            0.0000000000
     58872      3813  TIP3      OH2            13.1815656681      -38.0017962058       47.5507854972  TIP3      2453            0.0000000000
     58873      3813  TIP3      H1             13.3603900009      -38.4397611439       48.4096112306  TIP3      2453            0.0000000000
     58874      3813  TIP3      H2             12.5399400017      -38.6159184810       47.1460517870  TIP3      2453            0.0000000000
     58875      3814  TIP3      OH2            -3.0820995025      -34.1169292421       53.1590377131  TIP3      2454            0.0000000000
     58876      3814  TIP3      H1             -2.4900488641      -34.4013276216       52.4372992068  TIP3      2454            0.0000000000
     58877      3814  TIP3      H2             -2.5796149391      -33.3496380503       53.4637873082  TIP3      2454            0.0000000000
     58878      3815  TIP3      OH2            12.0707203926      -22.9431176901       49.1988937383  TIP3      2455            0.0000000000
     58879      3815  TIP3      H1             12.7499783059      -23.2426404471       48.5646969228  TIP3      2455            0.0000000000
     58880      3815  TIP3      H2             12.5859275331      -22.4360028695       49.8429036714  TIP3      2455            0.0000000000
     58881      3816  TIP3      OH2             6.7360885870      -23.6057123412       58.8665942982  TIP3      2456            0.0000000000
     58882      3816  TIP3      H1              6.8463948068      -23.9343633053       59.7854318022  TIP3      2456            0.0000000000
     58883      3816  TIP3      H2              7.6218211473      -23.2795262734       58.6385482191  TIP3      2456            0.0000000000
     58884      3817  TIP3      OH2             9.0251365603      -22.3187417404       58.2016292659  TIP3      2457            0.0000000000
     58885      3817  TIP3      H1              9.7473577017      -22.9203061259       57.9653063266  TIP3      2457            0.0000000000
     58886      3817  TIP3      H2              9.3945609422      -21.8947075850       59.0042976972  TIP3      2457            0.0000000000
     58887      3818  TIP3      OH2            13.9975663083      -39.6154662572       57.2656613191  TIP3      2458            0.0000000000
     58888      3818  TIP3      H1             13.1340387736      -39.3934002752       56.9030938224  TIP3      2458            0.0000000000
     58889      3818  TIP3      H2             14.1667943787      -40.4751171945       56.9139097871  TIP3      2458            0.0000000000
     58890      3819  TIP3      OH2             7.0295948235      -22.2919846809       54.2229197292  TIP3      2459            0.0000000000
     58891      3819  TIP3      H1              6.5574969024      -21.7529371584       53.5866403933  TIP3      2459            0.0000000000
     58892      3819  TIP3      H2              7.1378395204      -21.6689473202       54.9775499071  TIP3      2459            0.0000000000
     58893      3820  TIP3      OH2             9.3452643743      -23.4647265992       55.1822615317  TIP3      2460            0.0000000000
     58894      3820  TIP3      H1              8.4510581402      -23.2097668116       54.8999250944  TIP3      2460            0.0000000000
     58895      3820  TIP3      H2              9.7836096158      -22.5995328480       55.1462869495  TIP3      2460            0.0000000000
     58896      3821  TIP3      OH2            11.8828259576      -21.9148762675       55.4760067933  TIP3      2461            0.0000000000
     58897      3821  TIP3      H1             11.8199773636      -20.9540123186       55.2521451501  TIP3      2461            0.0000000000
     58898      3821  TIP3      H2             12.1023250117      -22.2751710538       54.5971920605  TIP3      2461            0.0000000000
     58899      3822  TIP3      OH2            12.4134876887      -40.1977171860       51.3007578451  TIP3      2462            0.0000000000
     58900      3822  TIP3      H1             13.1274541465      -39.5804920479       51.0536691708  TIP3      2462            0.0000000000
     58901      3822  TIP3      H2             11.5772580699      -39.7200051523       51.3713644118  TIP3      2462            0.0000000000
     58902      3823  TIP3      OH2            14.3134537576      -39.0045157616       49.9862986633  TIP3      2463            0.0000000000
     58903      3823  TIP3      H1             14.9108629852      -39.5804249338       49.4926783089  TIP3      2463            0.0000000000
     58904      3823  TIP3      H2             14.7707066510      -38.1391819026       50.0330663762  TIP3      2463            0.0000000000
     58905      3824  TIP3      OH2             9.8469104650      -39.7067905554       50.8704495220  TIP3      2464            0.0000000000
     58906      3824  TIP3      H1              9.9648895834      -39.6374056911       49.9179562901  TIP3      2464            0.0000000000
     58907      3824  TIP3      H2              9.6435153513      -40.6431219955       50.9967391278  TIP3      2464            0.0000000000
     58908      3825  TIP3      OH2            11.1509156197      -39.5731910578       46.3144772146  TIP3      2465            0.0000000000
     58909      3825  TIP3      H1             10.3757976899      -39.0157170795       46.3820909354  TIP3      2465            0.0000000000
     58910      3825  TIP3      H2             10.8882889907      -40.4270211428       46.7238365043  TIP3      2465            0.0000000000
     58911      3826  TIP3      OH2            -1.6281455600      -24.0163190965       46.1791728619  TIP3      2466            0.0000000000
     58912      3826  TIP3      H1             -2.2465661594      -23.9412208867       45.4652834201  TIP3      2466            0.0000000000
     58913      3826  TIP3      H2             -1.4908814291      -23.0908900415       46.4286114066  TIP3      2466            0.0000000000
     58914      3827  TIP3      OH2             7.3349356640      -22.7120443977       44.5322668506  TIP3      2467            0.0000000000
     58915      3827  TIP3      H1              8.2475010056      -22.4147623019       44.3425529678  TIP3      2467            0.0000000000
     58916      3827  TIP3      H2              7.1125321193      -23.1420470631       43.7047900428  TIP3      2467            0.0000000000
     58917      3828  TIP3      OH2            14.0534548752      -23.1263716921       47.2406299075  TIP3      2468            0.0000000000
     58918      3828  TIP3      H1             13.8628747483      -23.9083757770       46.6635498238  TIP3      2468            0.0000000000
     58919      3828  TIP3      H2             13.9978770669      -22.3975393447       46.5906605635  TIP3      2468            0.0000000000
     58920      3829  TIP3      OH2            10.1422522702      -40.3991994965       60.6870626306  TIP3      2469            0.0000000000
     58921      3829  TIP3      H1             10.1999982054      -40.9634809751       61.4618422345  TIP3      2469            0.0000000000
     58922      3829  TIP3      H2             11.0274631813      -40.4779739719       60.3102926635  TIP3      2469            0.0000000000
     58923      3830  TIP3      OH2            13.3257418231      -24.3723408442       59.2948131497  TIP3      2470            0.0000000000
     58924      3830  TIP3      H1             12.4974708207      -24.5642532860       58.8045623079  TIP3      2470            0.0000000000
     58925      3830  TIP3      H2             13.1933609549      -23.4308306491       59.5321676246  TIP3      2470            0.0000000000
     58926      3831  TIP3      OH2            27.8706521543      -30.4973281165       49.2472379642  TIP3      2471            0.0000000000
     58927      3831  TIP3      H1             27.7977912235      -29.5229462242       49.2556414071  TIP3      2471            0.0000000000
     58928      3831  TIP3      H2             27.0808850783      -30.7518623763       48.7474713264  TIP3      2471            0.0000000000
     58929      3832  TIP3      OH2            19.0354983214      -31.6172272754       54.3289397256  TIP3      2472            0.0000000000
     58930      3832  TIP3      H1             19.0365460596      -32.2864764645       55.0458909419  TIP3      2472            0.0000000000
     58931      3832  TIP3      H2             19.6920020422      -30.9797107828       54.6302298649  TIP3      2472            0.0000000000
     58932      3833  TIP3      OH2            30.2470019904      -28.3044491601       51.0662914933  TIP3      2473            0.0000000000
     58933      3833  TIP3      H1             29.9202779622      -29.0330576808       51.6059948196  TIP3      2473            0.0000000000
     58934      3833  TIP3      H2             30.3225490704      -27.6183833477       51.7524675450  TIP3      2473            0.0000000000
     58935      3834  TIP3      OH2            19.9252448369      -27.1532884602       52.8739789593  TIP3      2474            0.0000000000
     58936      3834  TIP3      H1             19.5561268780      -27.9986728832       52.5557735852  TIP3      2474            0.0000000000
     58937      3834  TIP3      H2             20.8540601170      -27.3732007794       52.9587111208  TIP3      2474            0.0000000000
     58938      3835  TIP3      OH2            33.4885602567      -37.1081645046       53.9537554301  TIP3      2475            0.0000000000
     58939      3835  TIP3      H1             33.7377984548      -36.6930895561       54.8160247973  TIP3      2475            0.0000000000
     58940      3835  TIP3      H2             34.2893450518      -36.9665376724       53.4389693827  TIP3      2475            0.0000000000
     58941      3836  TIP3      OH2            28.2068603806      -34.3901645156       53.5651907588  TIP3      2476            0.0000000000
     58942      3836  TIP3      H1             28.2765679662      -35.3632900983       53.5859766726  TIP3      2476            0.0000000000
     58943      3836  TIP3      H2             28.0163921103      -34.2655764267       52.6185627555  TIP3      2476            0.0000000000
     58944      3837  TIP3      OH2            20.1034653409      -35.9548379894       50.7963487663  TIP3      2477            0.0000000000
     58945      3837  TIP3      H1             20.9071629867      -35.3984132242       50.8164483631  TIP3      2477            0.0000000000
     58946      3837  TIP3      H2             20.4979586061      -36.6973974650       50.2880356241  TIP3      2477            0.0000000000
     58947      3838  TIP3      OH2            29.0181544496      -36.2424335575       49.1528554912  TIP3      2478            0.0000000000
     58948      3838  TIP3      H1             29.6325321744      -36.5777587079       49.8455117492  TIP3      2478            0.0000000000
     58949      3838  TIP3      H2             29.5692562133      -35.6815195420       48.6208038720  TIP3      2478            0.0000000000
     58950      3839  TIP3      OH2            34.0658173848      -35.7708028571       56.2609911722  TIP3      2479            0.0000000000
     58951      3839  TIP3      H1             33.3848966143      -35.0663970791       56.1853044198  TIP3      2479            0.0000000000
     58952      3839  TIP3      H2             34.0239174701      -35.9406913415       57.2175156235  TIP3      2479            0.0000000000
     58953      3840  TIP3      OH2            20.0329553256      -37.2379992389       54.9334769100  TIP3      2480            0.0000000000
     58954      3840  TIP3      H1             19.7585624813      -36.7658376066       54.1306075826  TIP3      2480            0.0000000000
     58955      3840  TIP3      H2             19.3400469841      -37.1128146864       55.5888418330  TIP3      2480            0.0000000000
     58956      3841  TIP3      OH2            27.4402807645      -27.9447647465       48.4203412691  TIP3      2481            0.0000000000
     58957      3841  TIP3      H1             27.1570434501      -28.2116728262       47.5478018505  TIP3      2481            0.0000000000
     58958      3841  TIP3      H2             27.2038914782      -27.0037072486       48.4585100662  TIP3      2481            0.0000000000
     58959      3842  TIP3      OH2            30.8361061341      -36.8979256718       51.1500373116  TIP3      2482            0.0000000000
     58960      3842  TIP3      H1             30.5500702035      -37.6622311984       51.6716899322  TIP3      2482            0.0000000000
     58961      3842  TIP3      H2             31.4118858116      -36.4414221433       51.7575421919  TIP3      2482            0.0000000000
     58962      3843  TIP3      OH2            19.6179622146      -35.5020752739       53.1477836356  TIP3      2483            0.0000000000
     58963      3843  TIP3      H1             20.3195712610      -34.8435439291       53.2736469516  TIP3      2483            0.0000000000
     58964      3843  TIP3      H2             19.9738558639      -35.8882984749       52.3133763541  TIP3      2483            0.0000000000
     58965      3844  TIP3      OH2            17.2759090222      -28.1364757384       46.6888490072  TIP3      2484            0.0000000000
     58966      3844  TIP3      H1             16.9237552595      -27.8682347586       45.8305842347  TIP3      2484            0.0000000000
     58967      3844  TIP3      H2             17.2415865846      -27.3085111038       47.2027360018  TIP3      2484            0.0000000000
     58968      3845  TIP3      OH2            30.8505648169      -26.4779698461       53.4715426712  TIP3      2485            0.0000000000
     58969      3845  TIP3      H1             29.8902065564      -26.3556966395       53.5509682645  TIP3      2485            0.0000000000
     58970      3845  TIP3      H2             31.1140499061      -25.5674760973       53.2460117794  TIP3      2485            0.0000000000
     58971      3846  TIP3      OH2            31.1456370115      -38.2211556225       54.8547083089  TIP3      2486            0.0000000000
     58972      3846  TIP3      H1             30.4137048186      -37.5863546562       54.7739404114  TIP3      2486            0.0000000000
     58973      3846  TIP3      H2             31.8533261130      -37.7853242007       54.3510349240  TIP3      2486            0.0000000000
     58974      3847  TIP3      OH2            24.4489451420      -40.3764757204       52.6019459011  TIP3      2487            0.0000000000
     58975      3847  TIP3      H1             24.1031944513      -41.1881663858       52.2267569500  TIP3      2487            0.0000000000
     58976      3847  TIP3      H2             23.6331074664      -39.8597386310       52.7708761531  TIP3      2487            0.0000000000
     58977      3848  TIP3      OH2            29.0011519989      -24.6521844682       49.9513399919  TIP3      2488            0.0000000000
     58978      3848  TIP3      H1             29.5153976943      -25.4166112636       49.6201261348  TIP3      2488            0.0000000000
     58979      3848  TIP3      H2             29.5393144657      -23.9030331744       49.6917251808  TIP3      2488            0.0000000000
     58980      3849  TIP3      OH2            30.2994362895      -26.7434359915       48.5572466159  TIP3      2489            0.0000000000
     58981      3849  TIP3      H1             30.0303218492      -27.4706759498       47.9840486300  TIP3      2489            0.0000000000
     58982      3849  TIP3      H2             30.3547193369      -27.2400718026       49.4011595174  TIP3      2489            0.0000000000
     58983      3850  TIP3      OH2            31.9465117233      -28.2044970738       57.0179914068  TIP3      2490            0.0000000000
     58984      3850  TIP3      H1             32.0460082347      -28.8647429163       56.3113534582  TIP3      2490            0.0000000000
     58985      3850  TIP3      H2             32.1546386812      -27.3633491518       56.5880764926  TIP3      2490            0.0000000000
     58986      3851  TIP3      OH2            33.7317593628      -31.9108958261       55.0783918581  TIP3      2491            0.0000000000
     58987      3851  TIP3      H1             33.1119977791      -31.1519725122       55.1714715108  TIP3      2491            0.0000000000
     58988      3851  TIP3      H2             34.2571204236      -31.6069273041       54.3233213255  TIP3      2491            0.0000000000
     58989      3852  TIP3      OH2            29.8148547744      -31.2577373763       47.6857335439  TIP3      2492            0.0000000000
     58990      3852  TIP3      H1             29.1578928573      -30.8129195540       48.2993583234  TIP3      2492            0.0000000000
     58991      3852  TIP3      H2             30.3380741166      -31.6881651413       48.3747107987  TIP3      2492            0.0000000000
     58992      3853  TIP3      OH2            29.7539261714      -32.9014153404       56.8594555889  TIP3      2493            0.0000000000
     58993      3853  TIP3      H1             29.8038402155      -32.1023875490       57.4101933381  TIP3      2493            0.0000000000
     58994      3853  TIP3      H2             29.1106449793      -32.5890308318       56.1855018430  TIP3      2493            0.0000000000
     58995      3854  TIP3      OH2            29.0435239651      -32.0509911885       45.3527068636  TIP3      2494            0.0000000000
     58996      3854  TIP3      H1             29.1458918413      -31.5802114076       46.2300964062  TIP3      2494            0.0000000000
     58997      3854  TIP3      H2             28.9979042963      -31.2909180219       44.7451826236  TIP3      2494            0.0000000000
     58998      3855  TIP3      OH2            32.4494327466      -40.1169088817       45.3434086141  TIP3      2495            0.0000000000
     58999      3855  TIP3      H1             31.4905890963      -40.0336336794       45.5765454204  TIP3      2495            0.0000000000
     59000      3855  TIP3      H2             32.6407222005      -39.3076700674       44.8745997873  TIP3      2495            0.0000000000
     59001      3856  TIP3      OH2            33.4933793273      -25.7100651146       43.5486169638  TIP3      2496            0.0000000000
     59002      3856  TIP3      H1             33.6770886176      -24.7997525906       43.8233088953  TIP3      2496            0.0000000000
     59003      3856  TIP3      H2             34.3700882745      -26.1096276404       43.7021350518  TIP3      2496            0.0000000000
     59004      3857  TIP3      OH2            16.5082117235      -28.9495542794       56.1179600804  TIP3      2497            0.0000000000
     59005      3857  TIP3      H1             16.0566243699      -29.0396454866       55.2739426501  TIP3      2497            0.0000000000
     59006      3857  TIP3      H2             16.6103389193      -29.8902190136       56.3743841021  TIP3      2497            0.0000000000
     59007      3858  TIP3      OH2            16.3090561632      -26.2436028053       52.9165296649  TIP3      2498            0.0000000000
     59008      3858  TIP3      H1             17.2630240620      -26.3412444022       52.9308681660  TIP3      2498            0.0000000000
     59009      3858  TIP3      H2             16.1906183989      -25.4328438570       53.4345974912  TIP3      2498            0.0000000000
     59010      3859  TIP3      OH2            34.5174385411      -25.5432830481       58.5853440139  TIP3      2499            0.0000000000
     59011      3859  TIP3      H1             34.4083228211      -26.5086648751       58.6273705649  TIP3      2499            0.0000000000
     59012      3859  TIP3      H2             33.6889162853      -25.2629343240       59.0224659337  TIP3      2499            0.0000000000
     59013      3860  TIP3      OH2            26.1746590872      -22.1079369656       47.1944261298  TIP3      2500            0.0000000000
     59014      3860  TIP3      H1             25.6870450913      -22.3763388317       46.3857642756  TIP3      2500            0.0000000000
     59015      3860  TIP3      H2             25.6510981140      -21.3209748355       47.4746480185  TIP3      2500            0.0000000000
     59016      3861  TIP3      OH2            19.5428508143      -23.3421019121       49.1655721223  TIP3      2501            0.0000000000
     59017      3861  TIP3      H1             19.7200642097      -23.8113961601       50.0066411603  TIP3      2501            0.0000000000
     59018      3861  TIP3      H2             18.7220340525      -23.7776818920       48.8868048615  TIP3      2501            0.0000000000
     59019      3862  TIP3      OH2            29.0404298521      -23.0038285428       44.3164219349  TIP3      2502            0.0000000000
     59020      3862  TIP3      H1             29.3416858694      -23.7828291052       43.8299731673  TIP3      2502            0.0000000000
     59021      3862  TIP3      H2             28.9748103331      -23.3821735174       45.1921396836  TIP3      2502            0.0000000000
     59022      3863  TIP3      OH2            28.6185616209      -23.0522945783       47.1553860379  TIP3      2503            0.0000000000
     59023      3863  TIP3      H1             27.6497720726      -23.2580199115       47.1938040884  TIP3      2503            0.0000000000
     59024      3863  TIP3      H2             28.9531506103      -23.8698324840       47.5917282352  TIP3      2503            0.0000000000
     59025      3864  TIP3      OH2            31.6618319214      -34.0638193547       59.1145445219  TIP3      2504            0.0000000000
     59026      3864  TIP3      H1             31.2144446141      -33.5828918729       58.4019326913  TIP3      2504            0.0000000000
     59027      3864  TIP3      H2             31.6695683958      -34.9810390619       58.7838090623  TIP3      2504            0.0000000000
     59028      3865  TIP3      OH2            20.2696032348      -39.2993402836       53.7423891449  TIP3      2505            0.0000000000
     59029      3865  TIP3      H1             20.4107344590      -39.3140191180       52.7915489261  TIP3      2505            0.0000000000
     59030      3865  TIP3      H2             21.0050793281      -38.7420670090       54.0560655786  TIP3      2505            0.0000000000
     59031      3866  TIP3      OH2            26.5132246683      -39.4716468691       56.2202273972  TIP3      2506            0.0000000000
     59032      3866  TIP3      H1             26.6706660400      -39.9093953357       57.0823504117  TIP3      2506            0.0000000000
     59033      3866  TIP3      H2             25.5535937790      -39.4931127648       56.3612970856  TIP3      2506            0.0000000000
     59034      3867  TIP3      OH2            29.3848923094      -35.7184546172       57.2999940550  TIP3      2507            0.0000000000
     59035      3867  TIP3      H1             28.8503906565      -35.8616920295       58.1147029837  TIP3      2507            0.0000000000
     59036      3867  TIP3      H2             29.2527655907      -34.7788845652       57.0815621527  TIP3      2507            0.0000000000
     59037      3868  TIP3      OH2            26.1691431285      -36.5189794038       43.7130104584  TIP3      2508            0.0000000000
     59038      3868  TIP3      H1             25.6819835000      -36.5868129360       44.5709778492  TIP3      2508            0.0000000000
     59039      3868  TIP3      H2             25.9405058880      -37.3519414110       43.2631735182  TIP3      2508            0.0000000000
     59040      3869  TIP3      OH2            21.5705096580      -34.1762584398       54.2505492919  TIP3      2509            0.0000000000
     59041      3869  TIP3      H1             20.8629957588      -34.2563941215       54.9239147985  TIP3      2509            0.0000000000
     59042      3869  TIP3      H2             21.5189095527      -33.2633564631       53.9651326313  TIP3      2509            0.0000000000
     59043      3870  TIP3      OH2            27.1151105573      -33.5102109339       47.9690483100  TIP3      2510            0.0000000000
     59044      3870  TIP3      H1             26.5831142341      -32.8052159606       47.5860825448  TIP3      2510            0.0000000000
     59045      3870  TIP3      H2             27.7117684888      -33.7350491473       47.2488910513  TIP3      2510            0.0000000000
     59046      3871  TIP3      OH2            28.1955137887      -34.0753799185       50.7374865699  TIP3      2511            0.0000000000
     59047      3871  TIP3      H1             27.7897006946      -33.5429415672       50.0373683704  TIP3      2511            0.0000000000
     59048      3871  TIP3      H2             28.1642877208      -34.9672330929       50.3418960220  TIP3      2511            0.0000000000
     59049      3872  TIP3      OH2            19.2396963073      -33.9327765382       56.0367609954  TIP3      2512            0.0000000000
     59050      3872  TIP3      H1             19.2170156792      -33.5472429382       56.9225249448  TIP3      2512            0.0000000000
     59051      3872  TIP3      H2             18.7931817664      -34.7864914541       56.1643115079  TIP3      2512            0.0000000000
     59052      3873  TIP3      OH2            15.8590206732      -36.8328442402       49.9260066137  TIP3      2513            0.0000000000
     59053      3873  TIP3      H1             16.5136814020      -36.8233629589       50.6521854579  TIP3      2513            0.0000000000
     59054      3873  TIP3      H2             16.3341261352      -37.1954737541       49.1617344771  TIP3      2513            0.0000000000
     59055      3874  TIP3      OH2            27.3417289143      -32.5003036043       55.3964295815  TIP3      2514            0.0000000000
     59056      3874  TIP3      H1             27.6070809994      -33.1704342052       54.7418684445  TIP3      2514            0.0000000000
     59057      3874  TIP3      H2             26.8144174596      -33.0297405260       56.0114001753  TIP3      2514            0.0000000000
     59058      3875  TIP3      OH2            18.9156412864      -34.8543122322       48.8486205608  TIP3      2515            0.0000000000
     59059      3875  TIP3      H1             17.9811798849      -34.8948895313       48.6591158330  TIP3      2515            0.0000000000
     59060      3875  TIP3      H2             19.2029393746      -35.7657175309       48.6804296713  TIP3      2515            0.0000000000
     59061      3876  TIP3      OH2            22.5631080820      -34.9654429126       46.6135274676  TIP3      2516            0.0000000000
     59062      3876  TIP3      H1             23.4878327446      -34.8133511406       46.8913748980  TIP3      2516            0.0000000000
     59063      3876  TIP3      H2             22.3613534915      -34.2349792569       46.0230314171  TIP3      2516            0.0000000000
     59064      3877  TIP3      OH2            28.5232750024      -37.3048066978       53.3919508840  TIP3      2517            0.0000000000
     59065      3877  TIP3      H1             27.8371386891      -37.2666914242       54.0972386893  TIP3      2517            0.0000000000
     59066      3877  TIP3      H2             28.0102660143      -37.5679519488       52.6160226399  TIP3      2517            0.0000000000
     59067      3878  TIP3      OH2            31.7307280434      -21.6810717561       59.7688476409  TIP3      2518            0.0000000000
     59068      3878  TIP3      H1             31.9870793214      -21.2581604738       58.9225197057  TIP3      2518            0.0000000000
     59069      3878  TIP3      H2             32.4198156778      -21.3191692635       60.3418280165  TIP3      2518            0.0000000000
     59070      3879  TIP3      OH2            20.0803086160      -37.4772833396       48.3496394517  TIP3      2519            0.0000000000
     59071      3879  TIP3      H1             19.9838470378      -38.4268022206       48.4295914508  TIP3      2519            0.0000000000
     59072      3879  TIP3      H2             21.0028098151      -37.4872558578       48.0273277020  TIP3      2519            0.0000000000
     59073      3880  TIP3      OH2            24.0656670586      -35.3917749195       54.4608397413  TIP3      2520            0.0000000000
     59074      3880  TIP3      H1             23.1963431226      -34.9678370329       54.5958354775  TIP3      2520            0.0000000000
     59075      3880  TIP3      H2             24.6015695517      -35.1045396354       55.2243521087  TIP3      2520            0.0000000000
     59076      3881  TIP3      OH2            31.7755034853      -30.0317314271       54.9720026416  TIP3      2521            0.0000000000
     59077      3881  TIP3      H1             32.3557026265      -29.5457509607       54.3657531889  TIP3      2521            0.0000000000
     59078      3881  TIP3      H2             30.9236500735      -29.9580251694       54.5005859325  TIP3      2521            0.0000000000
     59079      3882  TIP3      OH2            28.5824302833      -36.4308180096       44.3572675770  TIP3      2522            0.0000000000
     59080      3882  TIP3      H1             27.6060400492      -36.3001737893       44.2038399591  TIP3      2522            0.0000000000
     59081      3882  TIP3      H2             28.7407434126      -35.5302097203       44.6595491875  TIP3      2522            0.0000000000
     59082      3883  TIP3      OH2            29.1398445204      -34.5024103911       46.0740447347  TIP3      2523            0.0000000000
     59083      3883  TIP3      H1             29.9464615443      -34.9073707397       46.4240828105  TIP3      2523            0.0000000000
     59084      3883  TIP3      H2             29.1248754431      -33.7204893651       45.4494027728  TIP3      2523            0.0000000000
     59085      3884  TIP3      OH2            19.7284955816      -29.8574195154       51.9867014497  TIP3      2524            0.0000000000
     59086      3884  TIP3      H1             20.3984582243      -29.9179939030       51.2961041038  TIP3      2524            0.0000000000
     59087      3884  TIP3      H2             19.7678966500      -30.7264604468       52.4105940959  TIP3      2524            0.0000000000
     59088      3885  TIP3      OH2            16.7000672183      -31.4197293632       57.2340097927  TIP3      2525            0.0000000000
     59089      3885  TIP3      H1             16.9348758271      -31.8090319771       58.0954474416  TIP3      2525            0.0000000000
     59090      3885  TIP3      H2             16.0777569786      -32.0565037283       56.8710593054  TIP3      2525            0.0000000000
     59091      3886  TIP3      OH2            33.7246987304      -34.2374984535       45.8111603869  TIP3      2526            0.0000000000
     59092      3886  TIP3      H1             33.7119092120      -34.7527025469       44.9799359372  TIP3      2526            0.0000000000
     59093      3886  TIP3      H2             34.2751147228      -33.4674960445       45.4922221855  TIP3      2526            0.0000000000
     59094      3887  TIP3      OH2            34.0515713260      -28.4774598801       58.6171597340  TIP3      2527            0.0000000000
     59095      3887  TIP3      H1             33.1864197428      -28.3036716170       58.1812303479  TIP3      2527            0.0000000000
     59096      3887  TIP3      H2             34.6103991996      -28.5274315194       57.8064614788  TIP3      2527            0.0000000000
     59097      3888  TIP3      OH2            32.3672737389      -25.5019225906       46.1715663968  TIP3      2528            0.0000000000
     59098      3888  TIP3      H1             32.0363606923      -26.3498584156       46.4981482640  TIP3      2528            0.0000000000
     59099      3888  TIP3      H2             32.6772505420      -25.7375667588       45.2795546280  TIP3      2528            0.0000000000
     59100      3889  TIP3      OH2            29.5614348845      -30.6808398586       53.2450650700  TIP3      2529            0.0000000000
     59101      3889  TIP3      H1             28.6320444498      -30.9292044808       53.2104015850  TIP3      2529            0.0000000000
     59102      3889  TIP3      H2             29.9865044667      -31.4651830280       52.8594593934  TIP3      2529            0.0000000000
     59103      3890  TIP3      OH2            17.7925696452      -31.5548670048       43.9904557170  TIP3      2530            0.0000000000
     59104      3890  TIP3      H1             18.4242668608      -30.9012443959       44.3021506395  TIP3      2530            0.0000000000
     59105      3890  TIP3      H2             16.9342481577      -31.1828021443       44.2107396936  TIP3      2530            0.0000000000
     59106      3891  TIP3      OH2            22.2103664812      -23.7053014927       48.4804335485  TIP3      2531            0.0000000000
     59107      3891  TIP3      H1             21.2417303561      -23.6049596714       48.5534864995  TIP3      2531            0.0000000000
     59108      3891  TIP3      H2             22.5136564904      -22.8625753484       48.8263219004  TIP3      2531            0.0000000000
     59109      3892  TIP3      OH2            30.2812682554      -23.9657726396       57.3858920951  TIP3      2532            0.0000000000
     59110      3892  TIP3      H1             29.5976278743      -24.4339441550       56.8884431076  TIP3      2532            0.0000000000
     59111      3892  TIP3      H2             30.4911189924      -23.2347764984       56.7543861027  TIP3      2532            0.0000000000
     59112      3893  TIP3      OH2            34.2712771070      -23.0793873774       44.2775994082  TIP3      2533            0.0000000000
     59113      3893  TIP3      H1             34.9726346735      -22.4586657428       44.0300525876  TIP3      2533            0.0000000000
     59114      3893  TIP3      H2             33.5596790348      -22.4600115075       44.5115805343  TIP3      2533            0.0000000000
     59115      3894  TIP3      OH2            18.3289752543      -36.7008600559       56.8449015475  TIP3      2534            0.0000000000
     59116      3894  TIP3      H1             17.4212530967      -36.4004099214       56.8010167093  TIP3      2534            0.0000000000
     59117      3894  TIP3      H2             18.2277682211      -37.5915875810       57.2428987130  TIP3      2534            0.0000000000
     59118      3895  TIP3      OH2            17.9902587506      -24.8869119740       55.2248424949  TIP3      2535            0.0000000000
     59119      3895  TIP3      H1             18.2188332117      -25.8259756381       55.2422837310  TIP3      2535            0.0000000000
     59120      3895  TIP3      H2             18.2469291734      -24.6102737721       56.1149339609  TIP3      2535            0.0000000000
     59121      3896  TIP3      OH2            27.0738085297      -36.8667542686       55.8081437991  TIP3      2536            0.0000000000
     59122      3896  TIP3      H1             27.8290781568      -36.8772707849       56.4041841338  TIP3      2536            0.0000000000
     59123      3896  TIP3      H2             26.7463706461      -37.7941843047       55.8540536712  TIP3      2536            0.0000000000
     59124      3897  TIP3      OH2            27.9103249697      -37.3598000497       46.8489625376  TIP3      2537            0.0000000000
     59125      3897  TIP3      H1             28.0846257499      -36.8580819713       46.0361076234  TIP3      2537            0.0000000000
     59126      3897  TIP3      H2             28.3950672671      -36.9033661029       47.5415043687  TIP3      2537            0.0000000000
     59127      3898  TIP3      OH2            24.9791567422      -35.3493030403       47.7384950987  TIP3      2538            0.0000000000
     59128      3898  TIP3      H1             25.8805210384      -35.0084786208       47.7575729997  TIP3      2538            0.0000000000
     59129      3898  TIP3      H2             24.7706854086      -35.6541025690       48.6216577709  TIP3      2538            0.0000000000
     59130      3899  TIP3      OH2            25.6083806932      -34.5596124161       56.8410786798  TIP3      2539            0.0000000000
     59131      3899  TIP3      H1             25.6871335726      -34.0156157111       57.6329964296  TIP3      2539            0.0000000000
     59132      3899  TIP3      H2             26.2522177019      -35.2773377781       56.9429185797  TIP3      2539            0.0000000000
     59133      3900  TIP3      OH2            26.0947447285      -38.5205154153       48.6680452354  TIP3      2540            0.0000000000
     59134      3900  TIP3      H1             25.6661160671      -37.8569607627       49.2073843349  TIP3      2540            0.0000000000
     59135      3900  TIP3      H2             26.6197985580      -37.9700207737       48.0614310572  TIP3      2540            0.0000000000
     59136      3901  TIP3      OH2            21.3981675793      -36.8727179595       45.3417104818  TIP3      2541            0.0000000000
     59137      3901  TIP3      H1             21.5885676101      -36.0942123349       45.8755921141  TIP3      2541            0.0000000000
     59138      3901  TIP3      H2             22.1640399802      -37.4232668568       45.5782108823  TIP3      2541            0.0000000000
     59139      3902  TIP3      OH2            31.8324694348      -36.6336278732       57.6849610906  TIP3      2542            0.0000000000
     59140      3902  TIP3      H1             30.8789193288      -36.4152899076       57.5737718752  TIP3      2542            0.0000000000
     59141      3902  TIP3      H2             32.1045333434      -36.7739779063       56.7681350445  TIP3      2542            0.0000000000
     59142      3903  TIP3      OH2            30.4141503279      -32.9273253896       51.6436033047  TIP3      2543            0.0000000000
     59143      3903  TIP3      H1             29.5465805879      -33.3433135321       51.4646703380  TIP3      2543            0.0000000000
     59144      3903  TIP3      H2             30.8295332195      -33.5843146859       52.2309365356  TIP3      2543            0.0000000000
     59145      3904  TIP3      OH2            18.1852109472      -34.3628542334       43.4811190322  TIP3      2544            0.0000000000
     59146      3904  TIP3      H1             18.1708109873      -33.3957463516       43.5873474415  TIP3      2544            0.0000000000
     59147      3904  TIP3      H2             17.2994114576      -34.5383027969       43.1483728241  TIP3      2544            0.0000000000
     59148      3905  TIP3      OH2            31.4772711304      -23.6657875189       53.3771737655  TIP3      2545            0.0000000000
     59149      3905  TIP3      H1             31.3761814332      -22.9795697302       52.6962818584  TIP3      2545            0.0000000000
     59150      3905  TIP3      H2             32.4388052179      -23.6105316977       53.5650803686  TIP3      2545            0.0000000000
     59151      3906  TIP3      OH2            18.4851657803      -39.4037046507       52.0622118632  TIP3      2546            0.0000000000
     59152      3906  TIP3      H1             18.6073725796      -39.5017201291       51.1068991603  TIP3      2546            0.0000000000
     59153      3906  TIP3      H2             18.5085915391      -40.2939883489       52.4473889089  TIP3      2546            0.0000000000
     59154      3907  TIP3      OH2            17.8810393450      -25.5903328465       48.3423646334  TIP3      2547            0.0000000000
     59155      3907  TIP3      H1             17.0361516530      -25.1333489504       48.2752243252  TIP3      2547            0.0000000000
     59156      3907  TIP3      H2             18.4189050593      -25.1612735068       47.6590881572  TIP3      2547            0.0000000000
     59157      3908  TIP3      OH2            17.1326007094      -22.9826295219       59.6129474552  TIP3      2548            0.0000000000
     59158      3908  TIP3      H1             17.7319967990      -23.2019647228       60.3398838725  TIP3      2548            0.0000000000
     59159      3908  TIP3      H2             16.7037267749      -23.8291841446       59.4259430376  TIP3      2548            0.0000000000
     59160      3909  TIP3      OH2            17.9447291514      -32.0017354127       59.9602939989  TIP3      2549            0.0000000000
     59161      3909  TIP3      H1             18.3694465953      -32.8582317746       59.9069760407  TIP3      2549            0.0000000000
     59162      3909  TIP3      H2             17.7134144078      -31.9451463536       60.9039252299  TIP3      2549            0.0000000000
     59163      3910  TIP3      OH2            22.2657639992      -35.6284896760       58.3933639879  TIP3      2550            0.0000000000
     59164      3910  TIP3      H1             22.3672969986      -36.3501562441       57.7415092057  TIP3      2550            0.0000000000
     59165      3910  TIP3      H2             22.2465069303      -34.8574986824       57.8170817970  TIP3      2550            0.0000000000
     59166      3911  TIP3      OH2            22.2695436404      -36.7918518628       55.7967407934  TIP3      2551            0.0000000000
     59167      3911  TIP3      H1             23.0410727410      -36.8081991042       55.1881907481  TIP3      2551            0.0000000000
     59168      3911  TIP3      H2             21.6047781207      -37.3564781027       55.3291567731  TIP3      2551            0.0000000000
     59169      3912  TIP3      OH2            28.6198392095      -34.0327171470       61.1889089953  TIP3      2552            0.0000000000
     59170      3912  TIP3      H1             28.8172880726      -34.9748871005       61.1095320689  TIP3      2552            0.0000000000
     59171      3912  TIP3      H2             29.4917066571      -33.6173780059       61.1889725161  TIP3      2552            0.0000000000
     59172      3913  TIP3      OH2            20.7251735173      -34.3937288925       60.3225121733  TIP3      2553            0.0000000000
     59173      3913  TIP3      H1             19.9493908993      -34.9395813039       60.1171572994  TIP3      2553            0.0000000000
     59174      3913  TIP3      H2             21.3867160807      -34.7699549318       59.7104582177  TIP3      2553            0.0000000000
     59175      3914  TIP3      OH2            22.7878244070      -39.3732302747       54.9919982454  TIP3      2554            0.0000000000
     59176      3914  TIP3      H1             23.1085097536      -38.8473631029       55.7488679513  TIP3      2554            0.0000000000
     59177      3914  TIP3      H2             22.6113947169      -40.1364456322       55.5821615272  TIP3      2554            0.0000000000
     59178      3915  TIP3      OH2            27.3957507097      -36.3958239516       59.0007404018  TIP3      2555            0.0000000000
     59179      3915  TIP3      H1             26.4686683669      -36.3121531796       59.2094116263  TIP3      2555            0.0000000000
     59180      3915  TIP3      H2             27.7342091950      -36.9515825065       59.7321873549  TIP3      2555            0.0000000000
     59181      3916  TIP3      OH2            28.9941305847      -37.6922551475       60.9746536769  TIP3      2556            0.0000000000
     59182      3916  TIP3      H1             28.9787120397      -38.6708895289       60.9886093328  TIP3      2556            0.0000000000
     59183      3916  TIP3      H2             28.7582599162      -37.4231326956       61.8978047514  TIP3      2556            0.0000000000
     59184      3917  TIP3      OH2            18.3918529692      -36.2273342037       59.8768574556  TIP3      2557            0.0000000000
     59185      3917  TIP3      H1             18.8518646654      -36.9420271277       59.3954840495  TIP3      2557            0.0000000000
     59186      3917  TIP3      H2             18.5173625446      -36.5810869223       60.7746286770  TIP3      2557            0.0000000000
     59187      3918  TIP3      OH2            23.5086132324      -40.7964682823       60.2360277206  TIP3      2558            0.0000000000
     59188      3918  TIP3      H1             24.1958485696      -41.2131503725       59.6802910423  TIP3      2558            0.0000000000
     59189      3918  TIP3      H2             23.0912699029      -40.5295646212       59.3496329495  TIP3      2558            0.0000000000
     59190      3919  TIP3      OH2            24.2550302684      -38.6304587379       61.2170468405  TIP3      2559            0.0000000000
     59191      3919  TIP3      H1             23.9308721735      -39.3157521863       60.5790472282  TIP3      2559            0.0000000000
     59192      3919  TIP3      H2             23.5357443291      -37.9795793467       61.1383519934  TIP3      2559            0.0000000000
     59193      3920  TIP3      OH2            17.1204050308      -27.2991739715       43.7632053997  TIP3      2560            0.0000000000
     59194      3920  TIP3      H1             18.0448584888      -27.2212748598       44.0257197897  TIP3      2560            0.0000000000
     59195      3920  TIP3      H2             17.1307322175      -27.9455213396       43.0596935745  TIP3      2560            0.0000000000
     59196      3921  TIP3      OH2            15.8387845109      -21.9355688756       48.7699389119  TIP3      2561            0.0000000000
     59197      3921  TIP3      H1             15.1281243630      -22.4223830368       48.2934409754  TIP3      2561            0.0000000000
     59198      3921  TIP3      H2             16.1189783246      -22.5914504401       49.4356838843  TIP3      2561            0.0000000000
     59199      3922  TIP3      OH2            16.6232005109      -23.8132331522       50.6482107402  TIP3      2562            0.0000000000
     59200      3922  TIP3      H1             16.3170517318      -24.7114039430       50.8305705316  TIP3      2562            0.0000000000
     59201      3922  TIP3      H2             16.9057741575      -23.4998918801       51.5271852156  TIP3      2562            0.0000000000
     59202      3923  TIP3      OH2            34.1674345156      -22.9864230814       53.5825998167  TIP3      2563            0.0000000000
     59203      3923  TIP3      H1             34.2042380363      -22.8393499049       54.5483830956  TIP3      2563            0.0000000000
     59204      3923  TIP3      H2             34.9212303177      -22.4474566226       53.2992339524  TIP3      2563            0.0000000000
     59205      3924  TIP3      OH2            33.7623971192      -23.4281148654       56.5383595756  TIP3      2564            0.0000000000
     59206      3924  TIP3      H1             33.3185723238      -24.1995585795       56.1416716780  TIP3      2564            0.0000000000
     59207      3924  TIP3      H2             34.2925313405      -23.8781456044       57.2171333935  TIP3      2564            0.0000000000
     59208      3925  TIP3      OH2            33.5444321489      -29.4146892383       46.6361515300  TIP3      2565            0.0000000000
     59209      3925  TIP3      H1             34.3672370791      -28.9426096325       46.8320548463  TIP3      2565            0.0000000000
     59210      3925  TIP3      H2             33.5402618278      -30.0837983189       47.3407086964  TIP3      2565            0.0000000000
     59211      3926  TIP3      OH2            33.8794093447      -31.3527209653       48.4886318406  TIP3      2566            0.0000000000
     59212      3926  TIP3      H1             33.1519537911      -31.7822893603       48.9601604316  TIP3      2566            0.0000000000
     59213      3926  TIP3      H2             34.5126028249      -31.1479775815       49.2230303149  TIP3      2566            0.0000000000
     59214      3927  TIP3      OH2            33.6778345241      -28.6109582034       53.4994722551  TIP3      2567            0.0000000000
     59215      3927  TIP3      H1             34.4864904523      -28.9862025032       53.1333159037  TIP3      2567            0.0000000000
     59216      3927  TIP3      H2             33.7711693834      -27.6422860762       53.3329702346  TIP3      2567            0.0000000000
     59217      3928  TIP3      OH2            32.1945449680      -25.6831261992       55.7613920534  TIP3      2568            0.0000000000
     59218      3928  TIP3      H1             31.5084900565      -25.3575931239       56.3624740047  TIP3      2568            0.0000000000
     59219      3928  TIP3      H2             31.6527595013      -26.0844555387       55.0433334754  TIP3      2568            0.0000000000
     59220      3929  TIP3      OH2            33.6111698651      -31.5318624373       45.0003191561  TIP3      2569            0.0000000000
     59221      3929  TIP3      H1             33.5593259137      -31.0529786925       44.1798787049  TIP3      2569            0.0000000000
     59222      3929  TIP3      H2             34.1041362205      -30.8529345888       45.5565869055  TIP3      2569            0.0000000000
     59223      3930  TIP3      OH2            31.6355554030      -32.8728315765       48.9756866592  TIP3      2570            0.0000000000
     59224      3930  TIP3      H1             31.5579565127      -33.8131466178       49.1454026412  TIP3      2570            0.0000000000
     59225      3930  TIP3      H2             31.3898190332      -32.5564572483       49.8860669457  TIP3      2570            0.0000000000
     59226      3931  TIP3      OH2            16.8040439829      -30.5341384141       53.1190876291  TIP3      2571            0.0000000000
     59227      3931  TIP3      H1             16.9356986407      -30.8095452453       52.2051034121  TIP3      2571            0.0000000000
     59228      3931  TIP3      H2             17.6040569392      -30.9040681619       53.5466316332  TIP3      2571            0.0000000000
     59229      3932  TIP3      OH2            32.5490026471      -30.8449797144       58.7679951027  TIP3      2572            0.0000000000
     59230      3932  TIP3      H1             33.1555810293      -31.5972455288       58.9073020415  TIP3      2572            0.0000000000
     59231      3932  TIP3      H2             33.1402053281      -30.0700025968       58.7487219407  TIP3      2572            0.0000000000
     59232      3933  TIP3      OH2            34.0630082787      -32.9784209910       59.3769921026  TIP3      2573            0.0000000000
     59233      3933  TIP3      H1             33.1690103322      -33.3551048378       59.2591098636  TIP3      2573            0.0000000000
     59234      3933  TIP3      H2             34.6551509300      -33.7260646727       59.3485224174  TIP3      2573            0.0000000000
     59235      3934  TIP3      OH2            31.7454975837      -36.7844288335       42.5563044508  TIP3      2574            0.0000000000
     59236      3934  TIP3      H1             32.4027061060      -37.1874733269       43.1374485375  TIP3      2574            0.0000000000
     59237      3934  TIP3      H2             30.9372584875      -37.2549246611       42.7499083838  TIP3      2574            0.0000000000
     59238      3935  TIP3      OH2            31.4567567417      -35.2393990884       47.4564208660  TIP3      2575            0.0000000000
     59239      3935  TIP3      H1             31.6299592446      -36.1973832893       47.6915897726  TIP3      2575            0.0000000000
     59240      3935  TIP3      H2             32.3903422285      -35.0043540706       47.3004232341  TIP3      2575            0.0000000000
     59241      3936  TIP3      OH2            31.8512242389      -34.6480802164       53.0670809954  TIP3      2576            0.0000000000
     59242      3936  TIP3      H1             32.6504639222      -34.1074361752       53.0246021369  TIP3      2576            0.0000000000
     59243      3936  TIP3      H2             31.6647938457      -34.5289403640       54.0230890253  TIP3      2576            0.0000000000
     59244      3937  TIP3      OH2            32.0403995695      -33.9395616756       55.7055252958  TIP3      2577            0.0000000000
     59245      3937  TIP3      H1             31.1794617780      -33.6466884603       56.0909626881  TIP3      2577            0.0000000000
     59246      3937  TIP3      H2             32.5232919583      -33.0843709134       55.5723398370  TIP3      2577            0.0000000000
     59247      3938  TIP3      OH2            31.9846868704      -37.9310672620       47.6051849433  TIP3      2578            0.0000000000
     59248      3938  TIP3      H1             32.2258060443      -38.4253255345       48.4294284534  TIP3      2578            0.0000000000
     59249      3938  TIP3      H2             31.4343485770      -38.6228961533       47.1617218142  TIP3      2578            0.0000000000
     59250      3939  TIP3      OH2            17.4700768738      -37.0855848719       52.1591214672  TIP3      2579            0.0000000000
     59251      3939  TIP3      H1             17.9767402160      -37.9147722881       52.3765169948  TIP3      2579            0.0000000000
     59252      3939  TIP3      H2             18.0641173510      -36.4109006142       52.5133541508  TIP3      2579            0.0000000000
     59253      3940  TIP3      OH2            16.1653150131      -37.9296070930       47.2013883157  TIP3      2580            0.0000000000
     59254      3940  TIP3      H1             15.2268997074      -37.6814327755       47.1366239022  TIP3      2580            0.0000000000
     59255      3940  TIP3      H2             16.6100243242      -37.3939832344       46.5440369973  TIP3      2580            0.0000000000
     59256      3941  TIP3      OH2            30.9442493929      -22.7915621948       49.1006967815  TIP3      2581            0.0000000000
     59257      3941  TIP3      H1             31.5807094002      -23.4095628025       48.6723373213  TIP3      2581            0.0000000000
     59258      3941  TIP3      H2             31.4038732670      -22.5588407588       49.9464121882  TIP3      2581            0.0000000000
     59259      3942  TIP3      OH2            16.1688929334      -39.1765052747       55.5253207125  TIP3      2582            0.0000000000
     59260      3942  TIP3      H1             15.5348725956      -39.3889835803       56.2343725737  TIP3      2582            0.0000000000
     59261      3942  TIP3      H2             15.6961992034      -38.5461706388       54.9662603990  TIP3      2582            0.0000000000
     59262      3943  TIP3      OH2            18.3533161735      -26.0213576914       59.7344275322  TIP3      2583            0.0000000000
     59263      3943  TIP3      H1             17.5183053797      -25.8624672231       59.2690336581  TIP3      2583            0.0000000000
     59264      3943  TIP3      H2             18.0808791327      -26.0564343411       60.6476589594  TIP3      2583            0.0000000000
     59265      3944  TIP3      OH2            25.5747607520      -23.5509868448       58.9065344836  TIP3      2584            0.0000000000
     59266      3944  TIP3      H1             25.7117009780      -23.9324140517       59.8022185249  TIP3      2584            0.0000000000
     59267      3944  TIP3      H2             26.4767076190      -23.3003063943       58.6314270480  TIP3      2584            0.0000000000
     59268      3945  TIP3      OH2            27.8896925992      -22.3336806509       58.1836393167  TIP3      2585            0.0000000000
     59269      3945  TIP3      H1             28.6183637274      -22.9190654685       57.9550568820  TIP3      2585            0.0000000000
     59270      3945  TIP3      H2             28.2428109334      -21.8979195447       58.9861232416  TIP3      2585            0.0000000000
     59271      3946  TIP3      OH2            32.7983781577      -39.5246160808       57.2547632127  TIP3      2586            0.0000000000
     59272      3946  TIP3      H1             31.9371885302      -39.3436821226       56.8912051473  TIP3      2586            0.0000000000
     59273      3946  TIP3      H2             32.9727101897      -40.4247708874       56.9858516815  TIP3      2586            0.0000000000
     59274      3947  TIP3      OH2            18.6830082075      -21.8094118950       56.0001084324  TIP3      2587            0.0000000000
     59275      3947  TIP3      H1             17.9612912116      -21.3054807281       55.5765651548  TIP3      2587            0.0000000000
     59276      3947  TIP3      H2             18.3342891799      -21.9825882140       56.8820504514  TIP3      2587            0.0000000000
     59277      3948  TIP3      OH2            21.1910886056      -22.1551898073       55.0283198249  TIP3      2588            0.0000000000
     59278      3948  TIP3      H1             20.3015863435      -22.0786711758       55.4507851553  TIP3      2588            0.0000000000
     59279      3948  TIP3      H2             21.0513339096      -21.6041698089       54.2497911024  TIP3      2588            0.0000000000
     59280      3949  TIP3      OH2            25.8935821430      -22.2768276881       54.2042234795  TIP3      2589            0.0000000000
     59281      3949  TIP3      H1             25.4013152234      -21.7352296413       53.5995346717  TIP3      2589            0.0000000000
     59282      3949  TIP3      H2             26.0316261282      -21.6900919158       54.9780747751  TIP3      2589            0.0000000000
     59283      3950  TIP3      OH2            30.7994612544      -21.9079574653       55.4944297016  TIP3      2590            0.0000000000
     59284      3950  TIP3      H1             30.6754167591      -20.9552250367       55.2545396659  TIP3      2590            0.0000000000
     59285      3950  TIP3      H2             30.9466748167      -22.2848393879       54.6071453403  TIP3      2590            0.0000000000
     59286      3951  TIP3      OH2            18.0984520296      -23.1510752875       52.9147776669  TIP3      2591            0.0000000000
     59287      3951  TIP3      H1             18.0625580607      -23.5825674215       53.7924683876  TIP3      2591            0.0000000000
     59288      3951  TIP3      H2             18.9390028215      -23.4846370304       52.5287872777  TIP3      2591            0.0000000000
     59289      3952  TIP3      OH2            20.2006586181      -24.4226813440       51.6317470718  TIP3      2592            0.0000000000
     59290      3952  TIP3      H1             20.0643772662      -25.3722303366       51.7880920125  TIP3      2592            0.0000000000
     59291      3952  TIP3      H2             21.0900770519      -24.2734313020       52.0188877526  TIP3      2592            0.0000000000
     59292      3953  TIP3      OH2            22.7724390026      -23.9585627802       52.4384145506  TIP3      2593            0.0000000000
     59293      3953  TIP3      H1             23.0053304614      -24.8448657744       52.1492642543  TIP3      2593            0.0000000000
     59294      3953  TIP3      H2             22.8597245357      -23.9750488479       53.3959393839  TIP3      2593            0.0000000000
     59295      3954  TIP3      OH2            26.2288411830      -38.2647663278       51.5912976156  TIP3      2594            0.0000000000
     59296      3954  TIP3      H1             25.6397208284      -38.9804852976       51.8802696439  TIP3      2594            0.0000000000
     59297      3954  TIP3      H2             26.8400643919      -38.7720476005       51.0402565583  TIP3      2594            0.0000000000
     59298      3955  TIP3      OH2            31.2740124246      -40.2370837134       51.1473784571  TIP3      2595            0.0000000000
     59299      3955  TIP3      H1             31.9801662757      -39.5737465958       51.0476100871  TIP3      2595            0.0000000000
     59300      3955  TIP3      H2             30.4553580114      -39.7744981994       51.3982403931  TIP3      2595            0.0000000000
     59301      3956  TIP3      OH2            33.1787071452      -38.9169022329       49.9730253722  TIP3      2596            0.0000000000
     59302      3956  TIP3      H1             33.7689813504      -39.5966306676       49.5600683899  TIP3      2596            0.0000000000
     59303      3956  TIP3      H2             33.6695803346      -38.0850316884       50.0000134459  TIP3      2596            0.0000000000
     59304      3957  TIP3      OH2            18.1142076025      -39.8676677364       49.5595082624  TIP3      2597            0.0000000000
     59305      3957  TIP3      H1             17.6651990814      -39.8574549708       48.7130744152  TIP3      2597            0.0000000000
     59306      3957  TIP3      H2             18.9207379669      -40.3392510054       49.3335179102  TIP3      2597            0.0000000000
     59307      3958  TIP3      OH2            17.2528866151      -39.6208348198       45.4084396596  TIP3      2598            0.0000000000
     59308      3958  TIP3      H1             17.7787828112      -39.1443498491       44.7227245390  TIP3      2598            0.0000000000
     59309      3958  TIP3      H2             16.5866219828      -39.0523033625       45.7668310092  TIP3      2598            0.0000000000
     59310      3959  TIP3      OH2            24.0494012598      -40.0094739608       49.5844792148  TIP3      2599            0.0000000000
     59311      3959  TIP3      H1             24.2412314298      -39.1343183904       49.2348937633  TIP3      2599            0.0000000000
     59312      3959  TIP3      H2             23.2210250450      -39.8598396846       50.0649402426  TIP3      2599            0.0000000000
     59313      3960  TIP3      OH2            28.7038208683      -39.7019918448       50.8373552387  TIP3      2600            0.0000000000
     59314      3960  TIP3      H1             28.8585037781      -39.6634485982       49.8914321792  TIP3      2600            0.0000000000
     59315      3960  TIP3      H2             28.5080644524      -40.6437396805       50.9807125458  TIP3      2600            0.0000000000
     59316      3961  TIP3      OH2            29.9802819014      -39.6358985558       46.2608909612  TIP3      2601            0.0000000000
     59317      3961  TIP3      H1             29.2407043567      -39.0415669462       46.4236378181  TIP3      2601            0.0000000000
     59318      3961  TIP3      H2             29.7329863301      -40.4414117536       46.7494497262  TIP3      2601            0.0000000000
     59319      3962  TIP3      OH2            17.3384350782      -23.9281506665       46.1539527895  TIP3      2602            0.0000000000
     59320      3962  TIP3      H1             16.6631506223      -23.9422415918       45.4539277244  TIP3      2602            0.0000000000
     59321      3962  TIP3      H2             17.3510786077      -22.9977470844       46.3797773302  TIP3      2602            0.0000000000
     59322      3963  TIP3      OH2            18.7448725026      -37.9769064825       44.0415620105  TIP3      2603            0.0000000000
     59323      3963  TIP3      H1             19.3266326013      -38.4985750626       43.4366629648  TIP3      2603            0.0000000000
     59324      3963  TIP3      H2             19.5504874255      -37.5636691551       44.4444453367  TIP3      2603            0.0000000000
     59325      3964  TIP3      OH2            24.8761153030      -37.3168269699       46.2589316919  TIP3      2604            0.0000000000
     59326      3964  TIP3      H1             24.6263566069      -38.1298149771       46.7644717147  TIP3      2604            0.0000000000
     59327      3964  TIP3      H2             24.3094207426      -36.6660882935       46.7026614524  TIP3      2604            0.0000000000
     59328      3965  TIP3      OH2            32.8744813433      -23.1616053001       47.1858471526  TIP3      2605            0.0000000000
     59329      3965  TIP3      H1             32.7612665138      -24.0051519162       46.6631262705  TIP3      2605            0.0000000000
     59330      3965  TIP3      H2             32.9469766693      -22.5180137625       46.4446790779  TIP3      2605            0.0000000000
     59331      3966  TIP3      OH2            18.2382332264      -38.9643170369       58.6977513330  TIP3      2606            0.0000000000
     59332      3966  TIP3      H1             18.0617866443      -39.7834089412       59.2489854127  TIP3      2606            0.0000000000
     59333      3966  TIP3      H2             19.1330022690      -38.9811220099       59.0807944043  TIP3      2606            0.0000000000
     59334      3967  TIP3      OH2            18.9249435295      -39.9922467981       60.7052060883  TIP3      2607            0.0000000000
     59335      3967  TIP3      H1             19.8983957044      -39.9398196170       60.3800792040  TIP3      2607            0.0000000000
     59336      3967  TIP3      H2             19.4664507087      -40.6694811208       61.1829628645  TIP3      2607            0.0000000000
     59337      3968  TIP3      OH2            29.0155172322      -40.3891746455       60.7069027389  TIP3      2608            0.0000000000
     59338      3968  TIP3      H1             29.0791605069      -40.9809345404       61.4622652444  TIP3      2608            0.0000000000
     59339      3968  TIP3      H2             29.8893434707      -40.5064898625       60.3075551468  TIP3      2608            0.0000000000
     59340      3969  TIP3      OH2            32.1495680826      -24.3896111006       59.3339945562  TIP3      2609            0.0000000000
     59341      3969  TIP3      H1             31.3530106736      -24.5091500258       58.7808678830  TIP3      2609            0.0000000000
     59342      3969  TIP3      H2             32.0793738263      -23.4327626956       59.5343182247  TIP3      2609            0.0000000000
     59343      3970  TIP3      OH2            37.8949206944      -32.0110044268       54.2821336698  TIP3      2610            0.0000000000
     59344      3970  TIP3      H1             37.9184046661      -32.4519019281       55.1511286459  TIP3      2610            0.0000000000
     59345      3970  TIP3      H2             38.4670335076      -31.2599671445       54.5118720931  TIP3      2610            0.0000000000
     59346      3971  TIP3      OH2            40.0659114857      -26.8946238316       51.6888179726  TIP3      2611            0.0000000000
     59347      3971  TIP3      H1             39.1544808332      -27.2181445864       51.8655012775  TIP3      2611            0.0000000000
     59348      3971  TIP3      H2             40.1658361625      -27.1137986344       52.6463457501  TIP3      2611            0.0000000000
     59349      3972  TIP3      OH2            35.2960667106      -33.6278390756       48.3403361925  TIP3      2612            0.0000000000
     59350      3972  TIP3      H1             35.0016482166      -32.6928503899       48.2545140679  TIP3      2612            0.0000000000
     59351      3972  TIP3      H2             34.8369978013      -34.1336607319       47.6796622417  TIP3      2612            0.0000000000
     59352      3973  TIP3      OH2            35.9624509518      -31.4084810224       50.4975879241  TIP3      2613            0.0000000000
     59353      3973  TIP3      H1             36.3282899885      -32.1889188733       50.9539726036  TIP3      2613            0.0000000000
     59354      3973  TIP3      H2             36.7368137691      -31.2368015799       49.8938460510  TIP3      2613            0.0000000000
     59355      3974  TIP3      OH2            39.6783551453      -36.1019560700       51.0012305549  TIP3      2614            0.0000000000
     59356      3974  TIP3      H1             40.1641716289      -35.4082944349       50.4865663661  TIP3      2614            0.0000000000
     59357      3974  TIP3      H2             39.6767556258      -36.7888515938       50.3413733638  TIP3      2614            0.0000000000
     59358      3975  TIP3      OH2            36.7038932702      -33.9428117990       51.5273084953  TIP3      2615            0.0000000000
     59359      3975  TIP3      H1             37.4425511196      -34.4180390152       51.9756376622  TIP3      2615            0.0000000000
     59360      3975  TIP3      H2             36.8819331074      -34.1960668176       50.5984396846  TIP3      2615            0.0000000000
     59361      3976  TIP3      OH2            39.0153157094      -37.2608990024       54.8338184119  TIP3      2616            0.0000000000
     59362      3976  TIP3      H1             38.7037272577      -36.7584279923       54.0341884205  TIP3      2616            0.0000000000
     59363      3976  TIP3      H2             38.2904212385      -37.0046591766       55.4498781272  TIP3      2616            0.0000000000
     59364      3977  TIP3      OH2            38.4521325123      -35.4915978355       53.0565419158  TIP3      2617            0.0000000000
     59365      3977  TIP3      H1             39.1817363943      -34.8374967832       53.1852219174  TIP3      2617            0.0000000000
     59366      3977  TIP3      H2             38.9312505489      -35.8931836379       52.2737381338  TIP3      2617            0.0000000000
     59367      3978  TIP3      OH2            40.2495144543      -27.2161643541       56.4020180487  TIP3      2618            0.0000000000
     59368      3978  TIP3      H1             40.0287883917      -26.7504443663       55.5715804935  TIP3      2618            0.0000000000
     59369      3978  TIP3      H2             39.4227203025      -27.7172182531       56.5343670268  TIP3      2618            0.0000000000
     59370      3979  TIP3      OH2            36.0827504389      -28.1241152345       46.6692196153  TIP3      2619            0.0000000000
     59371      3979  TIP3      H1             35.6624556636      -27.8390333205       45.8549340362  TIP3      2619            0.0000000000
     59372      3979  TIP3      H2             36.0894035311      -27.2897915294       47.1773381567  TIP3      2619            0.0000000000
     59373      3980  TIP3      OH2            40.2467912510      -31.7471420656       49.1279408494  TIP3      2620            0.0000000000
     59374      3980  TIP3      H1             39.9830358527      -31.0116400600       48.5091204458  TIP3      2620            0.0000000000
     59375      3980  TIP3      H2             40.9162997831      -31.2403533144       49.5825359789  TIP3      2620            0.0000000000
     59376      3981  TIP3      OH2            37.8251490989      -31.2476067826       57.1688385318  TIP3      2621            0.0000000000
     59377      3981  TIP3      H1             38.2301287502      -30.6373571810       57.8203496434  TIP3      2621            0.0000000000
     59378      3981  TIP3      H2             37.0826105926      -30.7146987323       56.9104956800  TIP3      2621            0.0000000000
     59379      3982  TIP3      OH2            39.5603618802      -26.0154945056       58.6124141966  TIP3      2622            0.0000000000
     59380      3982  TIP3      H1             39.8291591702      -25.4624056139       57.8490865783  TIP3      2622            0.0000000000
     59381      3982  TIP3      H2             38.8705497288      -25.4551849339       58.9906940729  TIP3      2622            0.0000000000
     59382      3983  TIP3      OH2            38.9584589136      -31.4804389893       47.1382999615  TIP3      2623            0.0000000000
     59383      3983  TIP3      H1             38.8115260560      -30.6361056687       46.6712593272  TIP3      2623            0.0000000000
     59384      3983  TIP3      H2             38.3349718866      -32.1454186931       46.9298577681  TIP3      2623            0.0000000000
     59385      3984  TIP3      OH2            34.8962209069      -28.8992003159       56.2281135606  TIP3      2624            0.0000000000
     59386      3984  TIP3      H1             34.8455016968      -29.0076079402       55.2745453672  TIP3      2624            0.0000000000
     59387      3984  TIP3      H2             35.3441601054      -29.7590067817       56.4151415423  TIP3      2624            0.0000000000
     59388      3985  TIP3      OH2            34.8597419252      -26.1282380180       53.0857693256  TIP3      2625            0.0000000000
     59389      3985  TIP3      H1             35.8066710232      -26.3075292866       52.9956555654  TIP3      2625            0.0000000000
     59390      3985  TIP3      H2             34.9268820653      -25.2751059653       53.5166786004  TIP3      2625            0.0000000000
     59391      3986  TIP3      OH2            38.3718446491      -23.3574876199       49.0893353520  TIP3      2626            0.0000000000
     59392      3986  TIP3      H1             38.5833243744      -23.7707996366       49.9564428013  TIP3      2626            0.0000000000
     59393      3986  TIP3      H2             37.5634967768      -23.8341921434       48.8586518748  TIP3      2626            0.0000000000
     59394      3987  TIP3      OH2            37.4839633136      -27.6038114450       57.5158476891  TIP3      2627            0.0000000000
     59395      3987  TIP3      H1             37.8505623777      -28.1869769170       58.2029738050  TIP3      2627            0.0000000000
     59396      3987  TIP3      H2             36.8222749901      -28.1122872895       57.0157926988  TIP3      2627            0.0000000000
     59397      3988  TIP3      OH2            40.3439961466      -39.1216199949       53.1357054486  TIP3      2628            0.0000000000
     59398      3988  TIP3      H1             39.5135215634      -39.2464325511       52.6141802130  TIP3      2628            0.0000000000
     59399      3988  TIP3      H2             40.2841655417      -38.2062808823       53.4028601377  TIP3      2628            0.0000000000
     59400      3989  TIP3      OH2            40.3624371178      -34.1595417254       54.9337527676  TIP3      2629            0.0000000000
     59401      3989  TIP3      H1             39.4170100892      -34.2766880735       55.0944219854  TIP3      2629            0.0000000000
     59402      3989  TIP3      H2             40.2677586529      -33.5467984204       54.1787540963  TIP3      2629            0.0000000000
     59403      3990  TIP3      OH2            40.3725048115      -34.2841436490       49.1741302577  TIP3      2630            0.0000000000
     59404      3990  TIP3      H1             39.4118262748      -34.3054041241       49.0316767902  TIP3      2630            0.0000000000
     59405      3990  TIP3      H2             40.7703774832      -34.3472646449       48.3024259073  TIP3      2630            0.0000000000
     59406      3991  TIP3      OH2            38.0001655334      -33.9638486764       56.0202905265  TIP3      2631            0.0000000000
     59407      3991  TIP3      H1             38.1019629911      -33.5188602481       56.8860530691  TIP3      2631            0.0000000000
     59408      3991  TIP3      H2             37.6315340101      -34.8168146329       56.2314191121  TIP3      2631            0.0000000000
     59409      3992  TIP3      OH2            34.7319821022      -36.7596330953       49.9942905171  TIP3      2632            0.0000000000
     59410      3992  TIP3      H1             35.4470582572      -36.9119306611       50.6379501995  TIP3      2632            0.0000000000
     59411      3992  TIP3      H2             35.1347568388      -37.1875308391       49.2025250062  TIP3      2632            0.0000000000
     59412      3993  TIP3      OH2            37.7010649264      -35.0147330286       49.1271632031  TIP3      2633            0.0000000000
     59413      3993  TIP3      H1             36.8928808664      -34.8242022911       48.6213494582  TIP3      2633            0.0000000000
     59414      3993  TIP3      H2             38.0756253354      -35.8017196414       48.6965960798  TIP3      2633            0.0000000000
     59415      3994  TIP3      OH2            39.6877643338      -34.3042521837       44.2412603956  TIP3      2634            0.0000000000
     59416      3994  TIP3      H1             39.2236658406      -34.3054472576       43.4058058182  TIP3      2634            0.0000000000
     59417      3994  TIP3      H2             40.5375592778      -33.9894283320       43.8852384437  TIP3      2634            0.0000000000
     59418      3995  TIP3      OH2            38.0416031705      -29.2243507381       59.3566681476  TIP3      2635            0.0000000000
     59419      3995  TIP3      H1             38.8322706827      -29.0135889165       59.8563522960  TIP3      2635            0.0000000000
     59420      3995  TIP3      H2             37.3432494509      -29.0156584743       60.0167389049  TIP3      2635            0.0000000000
     59421      3996  TIP3      OH2            39.0058397665      -37.6183463456       48.4565584641  TIP3      2636            0.0000000000
     59422      3996  TIP3      H1             38.8330570238      -38.5633744838       48.5199042312  TIP3      2636            0.0000000000
     59423      3996  TIP3      H2             39.9574936242      -37.6024534764       48.2480019685  TIP3      2636            0.0000000000
     59424      3997  TIP3      OH2            38.3537573284      -30.4284439108       52.0413602544  TIP3      2637            0.0000000000
     59425      3997  TIP3      H1             39.0887709802      -30.0691846644       51.4970376665  TIP3      2637            0.0000000000
     59426      3997  TIP3      H2             38.7776690257      -31.1026102041       52.5588435471  TIP3      2637            0.0000000000
     59427      3998  TIP3      OH2            35.3876931462      -31.3778101502       57.2708551543  TIP3      2638            0.0000000000
     59428      3998  TIP3      H1             35.7409442144      -31.8362513421       58.0702563293  TIP3      2638            0.0000000000
     59429      3998  TIP3      H2             34.8896848530      -32.0660774464       56.8204046228  TIP3      2638            0.0000000000
     59430      3999  TIP3      OH2            36.0864679258      -31.2676845492       45.0192780263  TIP3      2639            0.0000000000
     59431      3999  TIP3      H1             36.9698748568      -31.1067882774       44.6272710809  TIP3      2639            0.0000000000
     59432      3999  TIP3      H2             35.6839079543      -31.4730916607       44.1734507553  TIP3      2639            0.0000000000
     59433      4000  TIP3      OH2            37.2236656641      -36.7824958562       56.7034780312  TIP3      2640            0.0000000000
     59434      4000  TIP3      H1             36.3528124859      -36.3349444154       56.7731331269  TIP3      2640            0.0000000000
     59435      4000  TIP3      H2             37.0607309719      -37.5269625531       57.2941645808  TIP3      2640            0.0000000000
     59436      4001  TIP3      OH2            36.6321253035      -24.7702611176       55.4247828388  TIP3      2641            0.0000000000
     59437      4001  TIP3      H1             37.0214381854      -25.6748676236       55.3298144460  TIP3      2641            0.0000000000
     59438      4001  TIP3      H2             37.1181582887      -24.5461124488       56.2248392942  TIP3      2641            0.0000000000
     59439      4002  TIP3      OH2            38.4842591217      -29.4114382420       45.9086442337  TIP3      2642            0.0000000000
     59440      4002  TIP3      H1             37.5300816334      -29.2599573199       46.1045343666  TIP3      2642            0.0000000000
     59441      4002  TIP3      H2             38.6999312174      -28.6826375851       45.3271707289  TIP3      2642            0.0000000000
     59442      4003  TIP3      OH2           -41.0294303101      -37.2298843151       45.0070693929  TIP3      2643            0.0000000000
     59443      4003  TIP3      H1            -41.1298751027      -36.4448839899       45.5362882547  TIP3      2643            0.0000000000
     59444      4003  TIP3      H2            -40.2118106825      -37.6864568406       45.2753178590  TIP3      2643            0.0000000000
     59445      4004  TIP3      OH2            39.1697781228      -26.9181548053       45.2086038024  TIP3      2644            0.0000000000
     59446      4004  TIP3      H1             39.3772925183      -26.0401856846       44.8453939066  TIP3      2644            0.0000000000
     59447      4004  TIP3      H2             39.1422439740      -27.2043642072       44.2664376722  TIP3      2644            0.0000000000
     59448      4005  TIP3      OH2            36.9462203678      -34.6912210992       43.6518426339  TIP3      2645            0.0000000000
     59449      4005  TIP3      H1             37.0528958420      -33.7580404482       43.8356663968  TIP3      2645            0.0000000000
     59450      4005  TIP3      H2             36.1576528341      -34.7077044468       43.1045278262  TIP3      2645            0.0000000000
     59451      4006  TIP3      OH2            36.7606727077      -25.6072435561       48.3344505848  TIP3      2646            0.0000000000
     59452      4006  TIP3      H1             35.9031254328      -25.1671343346       48.2800595977  TIP3      2646            0.0000000000
     59453      4006  TIP3      H2             37.2797983812      -25.1440908843       47.6591702006  TIP3      2646            0.0000000000
     59454      4007  TIP3      OH2            36.1002281693      -23.0422058671       59.5308197466  TIP3      2647            0.0000000000
     59455      4007  TIP3      H1             36.5893136317      -23.1902073797       60.3556989248  TIP3      2647            0.0000000000
     59456      4007  TIP3      H2             35.5524052141      -23.8308184231       59.4345041468  TIP3      2647            0.0000000000
     59457      4008  TIP3      OH2            35.8340861025      -29.0948667356       60.5051200724  TIP3      2648            0.0000000000
     59458      4008  TIP3      H1             36.0348334035      -30.0415328486       60.3329352429  TIP3      2648            0.0000000000
     59459      4008  TIP3      H2             35.0818694518      -28.9106013735       59.9446625658  TIP3      2648            0.0000000000
     59460      4009  TIP3      OH2            36.5034862680      -31.9707759200       60.0878356102  TIP3      2649            0.0000000000
     59461      4009  TIP3      H1             37.0927685264      -32.7072572468       59.8508224728  TIP3      2649            0.0000000000
     59462      4009  TIP3      H2             36.4687747877      -31.9637357686       61.0472239813  TIP3      2649            0.0000000000
     59463      4010  TIP3      OH2            39.5589247097      -34.5657387310       60.6283026494  TIP3      2650            0.0000000000
     59464      4010  TIP3      H1             38.7428228307      -34.9181740171       60.2384475515  TIP3      2650            0.0000000000
     59465      4010  TIP3      H2             40.1551237805      -34.8974213411       59.9784412528  TIP3      2650            0.0000000000
     59466      4011  TIP3      OH2            35.0805597179      -27.6263166522       44.1396304962  TIP3      2651            0.0000000000
     59467      4011  TIP3      H1             36.0085682687      -27.4074321609       44.4499974722  TIP3      2651            0.0000000000
     59468      4011  TIP3      H2             35.5170664495      -27.9251551198       43.3243439696  TIP3      2651            0.0000000000
     59469      4012  TIP3      OH2            34.6381873519      -21.9372770934       48.7691994536  TIP3      2652            0.0000000000
     59470      4012  TIP3      H1             34.0529883536      -22.5323655522       48.2721863805  TIP3      2652            0.0000000000
     59471      4012  TIP3      H2             35.0186528096      -22.5725762813       49.4211501817  TIP3      2652            0.0000000000
     59472      4013  TIP3      OH2            35.4855146349      -23.7730704585       50.6264452953  TIP3      2653            0.0000000000
     59473      4013  TIP3      H1             35.1810235094      -24.6714644701       50.8262524066  TIP3      2653            0.0000000000
     59474      4013  TIP3      H2             35.7855251919      -23.4806951873       51.5107876178  TIP3      2653            0.0000000000
     59475      4014  TIP3      OH2            35.5684654838      -30.7579174781       53.1197455507  TIP3      2654            0.0000000000
     59476      4014  TIP3      H1             35.7832686436      -30.8116369150       52.1580965189  TIP3      2654            0.0000000000
     59477      4014  TIP3      H2             36.4610009581      -30.9477929420       53.4407961129  TIP3      2654            0.0000000000
     59478      4015  TIP3      OH2            36.3311196539      -37.1277575445       52.1955034973  TIP3      2655            0.0000000000
     59479      4015  TIP3      H1             36.8642522282      -37.9345752063       52.3310958702  TIP3      2655            0.0000000000
     59480      4015  TIP3      H2             36.9713576031      -36.4526857222       52.4863992426  TIP3      2655            0.0000000000
     59481      4016  TIP3      OH2            34.8734390226      -34.0651907338       53.3035562173  TIP3      2656            0.0000000000
     59482      4016  TIP3      H1             35.4375502265      -34.2376618390       52.5064040551  TIP3      2656            0.0000000000
     59483      4016  TIP3      H2             35.2354591621      -33.1708335044       53.4688140848  TIP3      2656            0.0000000000
     59484      4017  TIP3      OH2            35.0577715797      -37.8440076486       47.2896383672  TIP3      2657            0.0000000000
     59485      4017  TIP3      H1             34.1150904088      -37.7362461317       47.1100088148  TIP3      2657            0.0000000000
     59486      4017  TIP3      H2             35.4808530432      -37.4363740880       46.5272874059  TIP3      2657            0.0000000000
     59487      4018  TIP3      OH2            37.1847018094      -25.8786969728       59.7820371625  TIP3      2658            0.0000000000
     59488      4018  TIP3      H1             36.3669446351      -25.9031760427       59.2607654126  TIP3      2658            0.0000000000
     59489      4018  TIP3      H2             36.8896505843      -26.1415174135       60.6481491484  TIP3      2658            0.0000000000
     59490      4019  TIP3      OH2            40.1520461103      -24.7709281192       56.0295017380  TIP3      2659            0.0000000000
     59491      4019  TIP3      H1             39.7978975585      -24.0006190848       55.5853315641  TIP3      2659            0.0000000000
     59492      4019  TIP3      H2             41.0624620155      -24.8623360559       55.6710505018  TIP3      2659            0.0000000000
     59493      4020  TIP3      OH2            37.5638167086      -21.7562785543       56.0175747906  TIP3      2660            0.0000000000
     59494      4020  TIP3      H1             36.8117576368      -21.3104923430       55.5763156829  TIP3      2660            0.0000000000
     59495      4020  TIP3      H2             37.1674201329      -21.9926863657       56.8673908459  TIP3      2660            0.0000000000
     59496      4021  TIP3      OH2            39.8598252431      -22.4148402364       54.8781156402  TIP3      2661            0.0000000000
     59497      4021  TIP3      H1             39.1236712586      -22.0818501994       55.4363250050  TIP3      2661            0.0000000000
     59498      4021  TIP3      H2             39.9890887497      -21.6691361549       54.2565254162  TIP3      2661            0.0000000000
     59499      4022  TIP3      OH2            36.9315059102      -22.9986105336       52.9337487369  TIP3      2662            0.0000000000
     59500      4022  TIP3      H1             36.9052570930      -23.4905637334       53.7791075679  TIP3      2662            0.0000000000
     59501      4022  TIP3      H2             37.7388298816      -23.4343192373       52.5592831555  TIP3      2662            0.0000000000
     59502      4023  TIP3      OH2            39.2265911450      -24.3127754936       51.4233513389  TIP3      2663            0.0000000000
     59503      4023  TIP3      H1             38.9291505054      -25.1759322852       51.7580218549  TIP3      2663            0.0000000000
     59504      4023  TIP3      H2             39.9587550654      -24.1988026079       52.0492706784  TIP3      2663            0.0000000000
     59505      4024  TIP3      OH2            37.2256215666      -39.1982635181       49.7671040135  TIP3      2664            0.0000000000
     59506      4024  TIP3      H1             36.7076381599      -39.5504915853       49.0340959080  TIP3      2664            0.0000000000
     59507      4024  TIP3      H2             37.9157421224      -39.8763977773       49.7254750278  TIP3      2664            0.0000000000
     59508      4025  TIP3      OH2            36.1689079850      -23.9273792100       46.1793492247  TIP3      2665            0.0000000000
     59509      4025  TIP3      H1             35.4991257912      -23.9538443171       45.4754173489  TIP3      2665            0.0000000000
     59510      4025  TIP3      H2             36.2161869142      -22.9838400004       46.3435190549  TIP3      2665            0.0000000000
     59511      4026  TIP3      OH2            38.0662613114      -22.7927133509       43.1757450308  TIP3      2666            0.0000000000
     59512      4026  TIP3      H1             37.6930519578      -22.6875695569       44.0618808590  TIP3      2666            0.0000000000
     59513      4026  TIP3      H2             38.6817710641      -23.5217153938       43.3831959093  TIP3      2666            0.0000000000
     59514      4027  TIP3      OH2           -28.8387228216      -11.6732020854       49.3091322831  TIP3      2667            0.0000000000
     59515      4027  TIP3      H1            -28.8314160871      -10.6937772084       49.2496216016  TIP3      2667            0.0000000000
     59516      4027  TIP3      H2            -29.5372437949      -11.9139532942       48.6799864372  TIP3      2667            0.0000000000
     59517      4028  TIP3      OH2           -29.9114800005      -12.4209302425       52.7964339376  TIP3      2668            0.0000000000
     59518      4028  TIP3      H1            -29.9880227284      -13.0371524421       53.5314960321  TIP3      2668            0.0000000000
     59519      4028  TIP3      H2            -30.3033831833      -12.8783542272       52.0415925538  TIP3      2668            0.0000000000
     59520      4029  TIP3      OH2           -26.3286223264       -9.4632763776       51.1038953143  TIP3      2669            0.0000000000
     59521      4029  TIP3      H1            -26.6899190482      -10.2094815345       51.5888133573  TIP3      2669            0.0000000000
     59522      4029  TIP3      H2            -26.2338937336       -8.7557051405       51.7573597438  TIP3      2669            0.0000000000
     59523      4030  TIP3      OH2           -36.6777166803       -8.2930601210       52.8553759343  TIP3      2670            0.0000000000
     59524      4030  TIP3      H1            -37.0080969420       -9.1705828804       52.5542896999  TIP3      2670            0.0000000000
     59525      4030  TIP3      H2            -35.7285776663       -8.4926195901       52.8976257416  TIP3      2670            0.0000000000
     59526      4031  TIP3      OH2           -31.5639774317       -9.9742773292       53.2444923392  TIP3      2671            0.0000000000
     59527      4031  TIP3      H1            -31.2579022270      -10.6606521414       52.6333523309  TIP3      2671            0.0000000000
     59528      4031  TIP3      H2            -30.7752147292       -9.8371207028       53.7922363866  TIP3      2671            0.0000000000
     59529      4032  TIP3      OH2           -28.3100165507      -15.5763281144       53.5162482169  TIP3      2672            0.0000000000
     59530      4032  TIP3      H1            -28.3966100102      -16.5443261635       53.6153059702  TIP3      2672            0.0000000000
     59531      4032  TIP3      H2            -28.6259423851      -15.3864308648       52.6085493911  TIP3      2672            0.0000000000
     59532      4033  TIP3      OH2           -27.5598806484      -17.2892795551       49.2604905045  TIP3      2673            0.0000000000
     59533      4033  TIP3      H1            -26.8859715645      -17.7511761121       49.7482086585  TIP3      2673            0.0000000000
     59534      4033  TIP3      H2            -27.0598475557      -16.8233798026       48.5710375583  TIP3      2673            0.0000000000
     59535      4034  TIP3      OH2           -33.5336439315      -13.5075726426       50.8435673797  TIP3      2674            0.0000000000
     59536      4034  TIP3      H1            -32.8360263145      -14.0428000110       51.2594101634  TIP3      2674            0.0000000000
     59537      4034  TIP3      H2            -34.0223046835      -14.1810162443       50.3715051887  TIP3      2674            0.0000000000
     59538      4035  TIP3      OH2           -22.5242350606      -16.9136487652       56.2174194356  TIP3      2675            0.0000000000
     59539      4035  TIP3      H1            -23.1772697387      -16.2011026901       56.1818493022  TIP3      2675            0.0000000000
     59540      4035  TIP3      H2            -22.4928969020      -17.0947037172       57.1677570773  TIP3      2675            0.0000000000
     59541      4036  TIP3      OH2           -29.1374026693       -9.0818347334       48.4168476404  TIP3      2676            0.0000000000
     59542      4036  TIP3      H1            -29.3677345194       -9.3479784727       47.5125788003  TIP3      2676            0.0000000000
     59543      4036  TIP3      H2            -29.4022282735       -8.1555152739       48.4215991143  TIP3      2676            0.0000000000
     59544      4037  TIP3      OH2           -33.8755025339      -10.9122595732       55.1044796459  TIP3      2677            0.0000000000
     59545      4037  TIP3      H1            -34.5997988019      -10.2845008379       55.2985081163  TIP3      2677            0.0000000000
     59546      4037  TIP3      H2            -33.1723655242      -10.3215686355       54.8073770889  TIP3      2677            0.0000000000
     59547      4038  TIP3      OH2           -35.4879624892       -8.8976975504       55.9436990673  TIP3      2678            0.0000000000
     59548      4038  TIP3      H1            -35.4991903372       -7.9980524657       55.5642002154  TIP3      2678            0.0000000000
     59549      4038  TIP3      H2            -36.3671023175       -9.0045180655       56.3215045212  TIP3      2678            0.0000000000
     59550      4039  TIP3      OH2           -39.4318869341       -9.2771329837       46.6936580901  TIP3      2679            0.0000000000
     59551      4039  TIP3      H1            -39.5950484181       -9.0149674700       45.7754605051  TIP3      2679            0.0000000000
     59552      4039  TIP3      H2            -39.3067190060       -8.4440487189       47.1677309563  TIP3      2679            0.0000000000
     59553      4040  TIP3      OH2           -25.7448457956       -7.6358246994       53.4760906807  TIP3      2680            0.0000000000
     59554      4040  TIP3      H1            -26.6979624290       -7.5666414027       53.5606405868  TIP3      2680            0.0000000000
     59555      4040  TIP3      H2            -25.4519943267       -6.7391497065       53.2378923228  TIP3      2680            0.0000000000
     59556      4041  TIP3      OH2           -32.4564825186      -21.2747048254       52.3620706992  TIP3      2681            0.0000000000
     59557      4041  TIP3      H1            -32.5838208297      -22.2351293358       52.2474147162  TIP3      2681            0.0000000000
     59558      4041  TIP3      H2            -33.3417845869      -20.9532697557       52.6203331059  TIP3      2681            0.0000000000
     59559      4042  TIP3      OH2           -26.1954683464       -8.0160496380       48.5419970645  TIP3      2682            0.0000000000
     59560      4042  TIP3      H1            -26.6278334896       -8.6619346024       47.9695283539  TIP3      2682            0.0000000000
     59561      4042  TIP3      H2            -26.3038747850       -8.4103924170       49.4222491590  TIP3      2682            0.0000000000
     59562      4043  TIP3      OH2           -24.6896815863       -9.3263085973       57.0391016029  TIP3      2683            0.0000000000
     59563      4043  TIP3      H1            -24.4980183650       -9.9710213201       56.3240040305  TIP3      2683            0.0000000000
     59564      4043  TIP3      H2            -24.4213653813       -8.4809605701       56.6342301593  TIP3      2683            0.0000000000
     59565      4044  TIP3      OH2           -30.1523508127      -12.3691245727       46.8342230622  TIP3      2684            0.0000000000
     59566      4044  TIP3      H1            -30.8685739214      -11.8598995453       46.4240875148  TIP3      2684            0.0000000000
     59567      4044  TIP3      H2            -29.4588232461      -12.3325319745       46.1512327786  TIP3      2684            0.0000000000
     59568      4045  TIP3      OH2           -30.1125912272      -13.9314547475       43.8679474886  TIP3      2685            0.0000000000
     59569      4045  TIP3      H1            -29.4005641468      -13.9327052943       44.5137526864  TIP3      2685            0.0000000000
     59570      4045  TIP3      H2            -29.7888013179      -14.5724092822       43.2325621894  TIP3      2685            0.0000000000
     59571      4046  TIP3      OH2           -22.8099035530      -13.0409422336       55.0802911523  TIP3      2686            0.0000000000
     59572      4046  TIP3      H1            -23.4240832284      -12.2867679756       55.1694662727  TIP3      2686            0.0000000000
     59573      4046  TIP3      H2            -22.2879245397      -12.8002611428       54.2961887434  TIP3      2686            0.0000000000
     59574      4047  TIP3      OH2           -26.7183518682      -12.2137112017       47.7191110241  TIP3      2687            0.0000000000
     59575      4047  TIP3      H1            -27.4548985532      -11.9766981118       48.3317210634  TIP3      2687            0.0000000000
     59576      4047  TIP3      H2            -26.2488493800      -12.8760793022       48.2475281228  TIP3      2687            0.0000000000
     59577      4048  TIP3      OH2           -26.8094920007      -14.0710178961       56.8149647484  TIP3      2688            0.0000000000
     59578      4048  TIP3      H1            -26.7816535829      -13.2904789461       57.3935617611  TIP3      2688            0.0000000000
     59579      4048  TIP3      H2            -27.4532404778      -13.7409130249       56.1585845850  TIP3      2688            0.0000000000
     59580      4049  TIP3      OH2           -35.0957301937      -11.5336222429       49.6490523712  TIP3      2689            0.0000000000
     59581      4049  TIP3      H1            -35.4449860755      -11.9084130452       48.8313739093  TIP3      2689            0.0000000000
     59582      4049  TIP3      H2            -34.4922859444      -12.2269804137       49.9904850402  TIP3      2689            0.0000000000
     59583      4050  TIP3      OH2           -33.7950806209       -8.1737904906       52.3512645052  TIP3      2690            0.0000000000
     59584      4050  TIP3      H1            -33.7940680395       -8.6947712219       51.5389532613  TIP3      2690            0.0000000000
     59585      4050  TIP3      H2            -33.0016064551       -8.5152994672       52.7995661473  TIP3      2690            0.0000000000
     59586      4051  TIP3      OH2           -34.7649243393      -12.7919138615       53.2773172681  TIP3      2691            0.0000000000
     59587      4051  TIP3      H1            -34.1737129658      -12.6654053887       52.5234692764  TIP3      2691            0.0000000000
     59588      4051  TIP3      H2            -34.4395648429      -12.1553652990       53.9467361820  TIP3      2691            0.0000000000
     59589      4052  TIP3      OH2           -33.8186191447       -8.3677501655       58.0063902119  TIP3      2692            0.0000000000
     59590      4052  TIP3      H1            -34.2087244169       -7.6252224466       58.5021064777  TIP3      2692            0.0000000000
     59591      4052  TIP3      H2            -34.4854054513       -8.5667022900       57.3133895991  TIP3      2692            0.0000000000
     59592      4053  TIP3      OH2           -27.8452202219      -13.0407123903       45.4105868466  TIP3      2693            0.0000000000
     59593      4053  TIP3      H1            -27.3069501356      -12.8379519855       46.2180046247  TIP3      2693            0.0000000000
     59594      4053  TIP3      H2            -27.4494297205      -12.4797861361       44.7308631834  TIP3      2693            0.0000000000
     59595      4054  TIP3      OH2           -35.6376486782       -6.3304825017       58.7543924622  TIP3      2694            0.0000000000
     59596      4054  TIP3      H1            -35.6449420932       -6.4605525897       57.7879144656  TIP3      2694            0.0000000000
     59597      4054  TIP3      H2            -36.5502448201       -6.5044378529       59.0425267975  TIP3      2694            0.0000000000
     59598      4055  TIP3      OH2           -39.6291670804      -10.3705683696       55.9464462824  TIP3      2695            0.0000000000
     59599      4055  TIP3      H1            -40.4089154908      -10.1007171274       55.4200454157  TIP3      2695            0.0000000000
     59600      4055  TIP3      H2            -40.0145217839      -11.1082993591       56.4063518450  TIP3      2695            0.0000000000
     59601      4056  TIP3      OH2           -40.2537877302       -7.3404663501       52.9083715954  TIP3      2696            0.0000000000
     59602      4056  TIP3      H1            -39.3019434803       -7.5096890969       52.9469941845  TIP3      2696            0.0000000000
     59603      4056  TIP3      H2            -40.3500213392       -6.5677640119       53.4763426838  TIP3      2696            0.0000000000
     59604      4057  TIP3      OH2           -31.0717605300       -7.1844621148       57.5377506499  TIP3      2697            0.0000000000
     59605      4057  TIP3      H1            -31.0094907456       -6.2989221996       57.9580168799  TIP3      2697            0.0000000000
     59606      4057  TIP3      H2            -31.9686867408       -7.4833117606       57.7486151340  TIP3      2697            0.0000000000
     59607      4058  TIP3      OH2           -30.6434992970       -3.3813060825       47.3022659903  TIP3      2698            0.0000000000
     59608      4058  TIP3      H1            -30.7713427965       -3.4806892353       46.3553455705  TIP3      2698            0.0000000000
     59609      4058  TIP3      H2            -30.6637764480       -2.4190022305       47.4633976690  TIP3      2698            0.0000000000
     59610      4059  TIP3      OH2           -36.9983986766       -4.5551001553       49.0921050824  TIP3      2699            0.0000000000
     59611      4059  TIP3      H1            -36.8844484047       -4.9100405582       49.9997830643  TIP3      2699            0.0000000000
     59612      4059  TIP3      H2            -37.8805329958       -4.8961844812       48.8718586873  TIP3      2699            0.0000000000
     59613      4060  TIP3      OH2           -35.1540849487      -20.4539220444       53.2361337930  TIP3      2700            0.0000000000
     59614      4060  TIP3      H1            -36.0024288535      -20.4716121608       52.7224500541  TIP3      2700            0.0000000000
     59615      4060  TIP3      H2            -35.1703504918      -19.5299589747       53.5426772078  TIP3      2700            0.0000000000
     59616      4061  TIP3      OH2           -27.2239271192      -16.8865049989       57.2441622359  TIP3      2701            0.0000000000
     59617      4061  TIP3      H1            -27.6857913249      -17.0110043184       58.1025643369  TIP3      2701            0.0000000000
     59618      4061  TIP3      H2            -27.2550886296      -15.9232433819       57.1179249164  TIP3      2701            0.0000000000
     59619      4062  TIP3      OH2           -29.4315273239      -14.7201932273       47.9855634288  TIP3      2702            0.0000000000
     59620      4062  TIP3      H1            -29.9001158025      -13.9318086566       47.6346096646  TIP3      2702            0.0000000000
     59621      4062  TIP3      H2            -28.8208219614      -14.9076715820       47.2587641395  TIP3      2702            0.0000000000
     59622      4063  TIP3      OH2           -30.4534373846      -14.5658456243       59.3994596619  TIP3      2703            0.0000000000
     59623      4063  TIP3      H1            -30.9833631951      -15.3027574653       59.7148462084  TIP3      2703            0.0000000000
     59624      4063  TIP3      H2            -29.5990451602      -14.6621524635       59.8517384578  TIP3      2703            0.0000000000
     59625      4064  TIP3      OH2           -28.4579082995      -15.2793506001       50.7939356320  TIP3      2704            0.0000000000
     59626      4064  TIP3      H1            -28.7552795195      -14.6803215813       50.0686892076  TIP3      2704            0.0000000000
     59627      4064  TIP3      H2            -28.3969818332      -16.0876677323       50.2359725636  TIP3      2704            0.0000000000
     59628      4065  TIP3      OH2           -29.2318621201      -13.6694944569       55.3455475831  TIP3      2705            0.0000000000
     59629      4065  TIP3      H1            -28.8921283417      -14.3600828224       54.7608089761  TIP3      2705            0.0000000000
     59630      4065  TIP3      H2            -29.7190689917      -14.1621818635       56.0308099827  TIP3      2705            0.0000000000
     59631      4066  TIP3      OH2           -28.1040077067      -18.2479447107       53.2996907285  TIP3      2706            0.0000000000
     59632      4066  TIP3      H1            -28.7018968400      -18.3622054354       54.0943382368  TIP3      2706            0.0000000000
     59633      4066  TIP3      H2            -28.6070307049      -18.7411875984       52.6318677015  TIP3      2706            0.0000000000
     59634      4067  TIP3      OH2           -31.1993444505      -14.9483096760       52.0887563630  TIP3      2707            0.0000000000
     59635      4067  TIP3      H1            -30.5980252605      -15.4553081494       51.5316679669  TIP3      2707            0.0000000000
     59636      4067  TIP3      H2            -31.3027602188      -15.4645729541       52.8884270052  TIP3      2707            0.0000000000
     59637      4068  TIP3      OH2           -31.9597380440      -10.3466208004       46.1998095189  TIP3      2708            0.0000000000
     59638      4068  TIP3      H1            -32.7406589100      -10.8025260931       45.8547033149  TIP3      2708            0.0000000000
     59639      4068  TIP3      H2            -32.1750103112      -10.2759909094       47.1470032210  TIP3      2708            0.0000000000
     59640      4069  TIP3      OH2           -24.7919195211      -11.1802806978       54.9814560846  TIP3      2709            0.0000000000
     59641      4069  TIP3      H1            -24.2098511227      -10.6984655235       54.3635927284  TIP3      2709            0.0000000000
     59642      4069  TIP3      H2            -25.6508448917      -11.0987755906       54.5192047571  TIP3      2709            0.0000000000
     59643      4070  TIP3      OH2           -30.4669557977      -10.1369082558       57.4193692917  TIP3      2710            0.0000000000
     59644      4070  TIP3      H1            -30.8294059639      -10.5339088485       58.2245769258  TIP3      2710            0.0000000000
     59645      4070  TIP3      H2            -30.6985819514       -9.1974010488       57.5357836799  TIP3      2710            0.0000000000
     59646      4071  TIP3      OH2           -27.3863224483      -15.6797511154       46.0652374098  TIP3      2711            0.0000000000
     59647      4071  TIP3      H1            -26.4739152976      -15.7892654055       46.3733207167  TIP3      2711            0.0000000000
     59648      4071  TIP3      H2            -27.3482113704      -14.8947697215       45.4930154057  TIP3      2711            0.0000000000
     59649      4072  TIP3      OH2           -36.8497297971      -11.0003236216       52.0011907677  TIP3      2712            0.0000000000
     59650      4072  TIP3      H1            -36.1667964326      -11.0416174889       51.3189171748  TIP3      2712            0.0000000000
     59651      4072  TIP3      H2            -36.7730737578      -11.8543809061       52.4470406167  TIP3      2712            0.0000000000
     59652      4073  TIP3      OH2           -29.8433038200       -8.8978612726       45.3298283079  TIP3      2713            0.0000000000
     59653      4073  TIP3      H1            -30.2183441141       -8.0435143069       45.5515886171  TIP3      2713            0.0000000000
     59654      4073  TIP3      H2            -30.6056344101       -9.5050548876       45.4172684094  TIP3      2713            0.0000000000
     59655      4074  TIP3      OH2           -32.8319604902      -13.0028975478       59.4691820275  TIP3      2714            0.0000000000
     59656      4074  TIP3      H1            -33.1821989098      -13.2832516690       58.6027379188  TIP3      2714            0.0000000000
     59657      4074  TIP3      H2            -31.9082303577      -13.2887841495       59.3939189826  TIP3      2714            0.0000000000
     59658      4075  TIP3      OH2           -22.4883880161       -9.6097693789       58.5782780915  TIP3      2715            0.0000000000
     59659      4075  TIP3      H1            -23.3756182808       -9.4343313776       58.2136561262  TIP3      2715            0.0000000000
     59660      4075  TIP3      H2            -21.9384445670       -9.6914499722       57.7925970508  TIP3      2715            0.0000000000
     59661      4076  TIP3      OH2           -23.8884343506       -6.8490965803       46.2887679408  TIP3      2716            0.0000000000
     59662      4076  TIP3      H1            -24.6293595399       -7.4457405413       46.5302840567  TIP3      2716            0.0000000000
     59663      4076  TIP3      H2            -24.0021629399       -6.8330105723       45.3253949919  TIP3      2716            0.0000000000
     59664      4077  TIP3      OH2           -26.9998605116      -11.8543509410       53.2929033173  TIP3      2717            0.0000000000
     59665      4077  TIP3      H1            -27.9470606555      -12.0513815571       53.1638587861  TIP3      2717            0.0000000000
     59666      4077  TIP3      H2            -26.5782567414      -12.6029724791       52.8328953894  TIP3      2717            0.0000000000
     59667      4078  TIP3      OH2           -34.4728160290       -7.5389370813       49.3242616047  TIP3      2718            0.0000000000
     59668      4078  TIP3      H1            -33.9943933465       -6.7098909328       49.1688525786  TIP3      2718            0.0000000000
     59669      4078  TIP3      H2            -35.3642016238       -7.2714294806       49.0573499549  TIP3      2718            0.0000000000
     59670      4079  TIP3      OH2           -33.0591290513       -9.8618501368       48.8883996783  TIP3      2719            0.0000000000
     59671      4079  TIP3      H1            -33.3747392957       -8.9402214628       48.9753338960  TIP3      2719            0.0000000000
     59672      4079  TIP3      H2            -33.7855098422      -10.3327932462       49.3380604422  TIP3      2719            0.0000000000
     59673      4080  TIP3      OH2           -34.3466243689       -4.8736258206       48.4418668774  TIP3      2720            0.0000000000
     59674      4080  TIP3      H1            -35.3184100537       -4.7421802279       48.5688388620  TIP3      2720            0.0000000000
     59675      4080  TIP3      H2            -34.0229209673       -4.0202938196       48.7856993052  TIP3      2720            0.0000000000
     59676      4081  TIP3      OH2           -29.0302517188       -9.6037606937       54.9081855871  TIP3      2721            0.0000000000
     59677      4081  TIP3      H1            -29.4210007529       -9.8302002981       55.7810914795  TIP3      2721            0.0000000000
     59678      4081  TIP3      H2            -28.4524280282      -10.3617826559       54.7411738190  TIP3      2721            0.0000000000
     59679      4082  TIP3      OH2           -25.9662296532       -9.9765058639       46.2786925114  TIP3      2722            0.0000000000
     59680      4082  TIP3      H1            -26.2002139024      -10.7775777273       46.7784564630  TIP3      2722            0.0000000000
     59681      4082  TIP3      H2            -25.0076574337       -9.9480756216       46.4139879236  TIP3      2722            0.0000000000
     59682      4083  TIP3      OH2           -38.6089768865       -6.0563270841       55.2398396255  TIP3      2723            0.0000000000
     59683      4083  TIP3      H1            -38.3082699512       -6.9740546558       55.1946998001  TIP3      2723            0.0000000000
     59684      4083  TIP3      H2            -38.3101497183       -5.7454216142       56.1022691281  TIP3      2723            0.0000000000
     59685      4084  TIP3      OH2           -33.8442921903       -7.9881709006       44.9243457554  TIP3      2724            0.0000000000
     59686      4084  TIP3      H1            -33.6167551329       -8.5277035618       45.6925861788  TIP3      2724            0.0000000000
     59687      4084  TIP3      H2            -33.7627192375       -7.0685235053       45.2558534124  TIP3      2724            0.0000000000
     59688      4085  TIP3      OH2           -29.3799107805      -18.1455944421       55.6440555733  TIP3      2725            0.0000000000
     59689      4085  TIP3      H1            -28.7916136966      -17.9769597819       56.4124965319  TIP3      2725            0.0000000000
     59690      4085  TIP3      H2            -29.9020618183      -18.9000469362       55.9619503807  TIP3      2725            0.0000000000
     59691      4086  TIP3      OH2           -28.6451159376      -18.5066217715       46.7714380957  TIP3      2726            0.0000000000
     59692      4086  TIP3      H1            -28.5343963800      -17.9129602834       46.0230686666  TIP3      2726            0.0000000000
     59693      4086  TIP3      H2            -28.1947836108      -18.0411784217       47.4787899560  TIP3      2726            0.0000000000
     59694      4087  TIP3      OH2           -30.9185161538      -15.7020870661       56.8197330092  TIP3      2727            0.0000000000
     59695      4087  TIP3      H1            -30.8419399132      -15.1143967178       57.5874037033  TIP3      2727            0.0000000000
     59696      4087  TIP3      H2            -30.3010313451      -16.4201246170       56.9600706181  TIP3      2727            0.0000000000
     59697      4088  TIP3      OH2           -33.7280121359       -5.2611814129       45.6450949655  TIP3      2728            0.0000000000
     59698      4088  TIP3      H1            -33.5155804699       -4.4551005844       45.1700962084  TIP3      2728            0.0000000000
     59699      4088  TIP3      H2            -33.9100081255       -4.9562786739       46.5618055134  TIP3      2728            0.0000000000
     59700      4089  TIP3      OH2           -24.7495625170      -17.8401677183       57.7025994830  TIP3      2729            0.0000000000
     59701      4089  TIP3      H1            -25.6754979700      -17.5397362655       57.5748968732  TIP3      2729            0.0000000000
     59702      4089  TIP3      H2            -24.4368010904      -17.8732742590       56.7862385785  TIP3      2729            0.0000000000
     59703      4090  TIP3      OH2           -26.1676031814      -14.0389866454       51.7019453548  TIP3      2730            0.0000000000
     59704      4090  TIP3      H1            -26.9992025621      -14.4568250298       51.4090857405  TIP3      2730            0.0000000000
     59705      4090  TIP3      H2            -25.6236557655      -14.6616642604       52.2213447979  TIP3      2730            0.0000000000
     59706      4091  TIP3      OH2           -36.7825963981       -8.0787537721       44.2486229736  TIP3      2731            0.0000000000
     59707      4091  TIP3      H1            -36.1053516186       -7.5047403714       44.6253590442  TIP3      2731            0.0000000000
     59708      4091  TIP3      H2            -36.2699736878       -8.6333360222       43.6447089052  TIP3      2731            0.0000000000
     59709      4092  TIP3      OH2           -37.5447087953      -20.6823972569       52.1413596157  TIP3      2732            0.0000000000
     59710      4092  TIP3      H1            -37.8262254390      -20.6232861873       51.2033779528  TIP3      2732            0.0000000000
     59711      4092  TIP3      H2            -38.0306035713      -21.4773067027       52.4263098705  TIP3      2732            0.0000000000
     59712      4093  TIP3      OH2           -38.6415945092       -6.7677849982       48.3135544870  TIP3      2733            0.0000000000
     59713      4093  TIP3      H1            -39.4898253606       -6.3138967757       48.3037623931  TIP3      2733            0.0000000000
     59714      4093  TIP3      H2            -38.1601662927       -6.2582410622       47.6437896245  TIP3      2733            0.0000000000
     59715      4094  TIP3      OH2           -38.5270674438       -3.1060231365       60.2007462931  TIP3      2734            0.0000000000
     59716      4094  TIP3      H1            -38.3342099754       -3.9535892889       60.6524123309  TIP3      2734            0.0000000000
     59717      4094  TIP3      H2            -39.2526689881       -3.6275696838       59.8115981357  TIP3      2734            0.0000000000
     59718      4095  TIP3      OH2           -34.7325573109       -5.1651489400       61.2146776739  TIP3      2735            0.0000000000
     59719      4095  TIP3      H1            -33.9892975107       -5.7012999497       61.5183225056  TIP3      2735            0.0000000000
     59720      4095  TIP3      H2            -34.8337265454       -5.4905044451       60.2934573937  TIP3      2735            0.0000000000
     59721      4096  TIP3      OH2           -28.2126096751       -6.7986627016       59.9662328216  TIP3      2736            0.0000000000
     59722      4096  TIP3      H1            -28.5669375238       -7.6780491960       60.1982316657  TIP3      2736            0.0000000000
     59723      4096  TIP3      H2            -27.4596355692       -6.7296437976       60.5510823581  TIP3      2736            0.0000000000
     59724      4097  TIP3      OH2           -32.7084822236      -10.3382306617       59.9936483250  TIP3      2737            0.0000000000
     59725      4097  TIP3      H1            -33.1785283941      -10.0418796829       59.1966769369  TIP3      2737            0.0000000000
     59726      4097  TIP3      H2            -32.7698606585      -11.3124890203       59.8990117230  TIP3      2737            0.0000000000
     59727      4098  TIP3      OH2           -27.1054369281      -10.4836750898       57.4041369350  TIP3      2738            0.0000000000
     59728      4098  TIP3      H1            -26.3178550755       -9.8996688145       57.3080451986  TIP3      2738            0.0000000000
     59729      4098  TIP3      H2            -27.8336960446       -9.8519005246       57.4334554849  TIP3      2738            0.0000000000
     59730      4099  TIP3      OH2           -34.7434272778      -14.1564757132       57.3267932192  TIP3      2739            0.0000000000
     59731      4099  TIP3      H1            -35.2448540763      -13.4120834796       57.6802269442  TIP3      2739            0.0000000000
     59732      4099  TIP3      H2            -34.2890193712      -13.7869457027       56.5522193907  TIP3      2739            0.0000000000
     59733      4100  TIP3      OH2           -29.6379299530      -11.5836717301       60.7572866380  TIP3      2740            0.0000000000
     59734      4100  TIP3      H1            -28.6859033652      -11.5715978209       60.5819425447  TIP3      2740            0.0000000000
     59735      4100  TIP3      H2            -29.7823010248      -12.3885724932       61.2542483134  TIP3      2740            0.0000000000
     59736      4101  TIP3      OH2           -32.3473262285      -12.9353428272       56.1984515358  TIP3      2741            0.0000000000
     59737      4101  TIP3      H1            -31.6140227527      -13.0712050281       55.5974556674  TIP3      2741            0.0000000000
     59738      4101  TIP3      H2            -32.7209346085      -12.0850157702       55.8990665507  TIP3      2741            0.0000000000
     59739      4102  TIP3      OH2           -27.9818643889      -15.1568047424       61.1662789778  TIP3      2742            0.0000000000
     59740      4102  TIP3      H1            -27.7066856164      -16.0815785025       61.1142221667  TIP3      2742            0.0000000000
     59741      4102  TIP3      H2            -27.1161793725      -14.7207639982       61.1585522565  TIP3      2742            0.0000000000
     59742      4103  TIP3      OH2           -26.6093293943      -12.3565414904       59.3133517851  TIP3      2743            0.0000000000
     59743      4103  TIP3      H1            -26.8686754341      -11.6408029246       58.6919995161  TIP3      2743            0.0000000000
     59744      4103  TIP3      H2            -25.6692548386      -12.4217803058       59.1281674249  TIP3      2743            0.0000000000
     59745      4104  TIP3      OH2           -29.1633284691      -17.4379979047       59.0782205817  TIP3      2744            0.0000000000
     59746      4104  TIP3      H1            -30.1145812791      -17.5043979128       59.1569540905  TIP3      2744            0.0000000000
     59747      4104  TIP3      H2            -28.8115472816      -18.1386216575       59.6673935404  TIP3      2744            0.0000000000
     59748      4105  TIP3      OH2           -27.5372103868      -18.8545519032       60.9944835761  TIP3      2745            0.0000000000
     59749      4105  TIP3      H1            -27.5677682756      -19.8169405831       61.0108274292  TIP3      2745            0.0000000000
     59750      4105  TIP3      H2            -27.8226091921      -18.6360695503       61.8917113636  TIP3      2745            0.0000000000
     59751      4106  TIP3      OH2           -32.4966175766      -19.9533181089       61.0662810769  TIP3      2746            0.0000000000
     59752      4106  TIP3      H1            -32.7014484898      -20.4919494356       60.2945568378  TIP3      2746            0.0000000000
     59753      4106  TIP3      H2            -33.1432308779      -19.2447320216       61.0190010726  TIP3      2746            0.0000000000
     59754      4107  TIP3      OH2           -39.4850895567       -8.4330737698       43.7672921689  TIP3      2747            0.0000000000
     59755      4107  TIP3      H1            -38.5394554768       -8.3070213634       44.0270245384  TIP3      2747            0.0000000000
     59756      4107  TIP3      H2            -39.3866891503       -9.1338130841       43.1317395782  TIP3      2747            0.0000000000
     59757      4108  TIP3      OH2            40.7526280714       -3.2147550595       48.6232547253  TIP3      2748            0.0000000000
     59758      4108  TIP3      H1             39.8849924146       -3.5516015669       48.3903423702  TIP3      2748            0.0000000000
     59759      4108  TIP3      H2             40.9504190739       -3.7150572997       49.4422396006  TIP3      2748            0.0000000000
     59760      4109  TIP3      OH2           -39.8807746622       -4.9329420775       50.6204349525  TIP3      2749            0.0000000000
     59761      4109  TIP3      H1            -40.2419399927       -5.8177828107       50.7838843165  TIP3      2749            0.0000000000
     59762      4109  TIP3      H2            -39.6257275994       -4.6215546997       51.5130432115  TIP3      2749            0.0000000000
     59763      4110  TIP3      OH2           -22.3234803009       -4.2132501351       53.5931043969  TIP3      2750            0.0000000000
     59764      4110  TIP3      H1            -22.3920848542       -4.0012366128       54.5273675239  TIP3      2750            0.0000000000
     59765      4110  TIP3      H2            -21.6772528663       -3.5752703952       53.2814231728  TIP3      2750            0.0000000000
     59766      4111  TIP3      OH2           -23.0792227402      -10.4217733364       46.7696525007  TIP3      2751            0.0000000000
     59767      4111  TIP3      H1            -22.1390716030      -10.2614326065       46.6990361138  TIP3      2751            0.0000000000
     59768      4111  TIP3      H2            -23.0747118141      -11.2909842632       47.2306523765  TIP3      2751            0.0000000000
     59769      4112  TIP3      OH2           -22.6408187491      -12.4294965464       48.5027526442  TIP3      2752            0.0000000000
     59770      4112  TIP3      H1            -23.4193439807      -12.9325132834       48.8522459349  TIP3      2752            0.0000000000
     59771      4112  TIP3      H2            -22.0807005131      -12.3561730460       49.2952543717  TIP3      2752            0.0000000000
     59772      4113  TIP3      OH2           -22.9475439194       -9.7355041683       53.5099529854  TIP3      2753            0.0000000000
     59773      4113  TIP3      H1            -22.1180000802      -10.1145493196       53.1839451948  TIP3      2753            0.0000000000
     59774      4113  TIP3      H2            -22.7906314913       -8.7871806967       53.3516220133  TIP3      2753            0.0000000000
     59775      4114  TIP3      OH2           -24.3845563841       -6.9160257175       55.7430427961  TIP3      2754            0.0000000000
     59776      4114  TIP3      H1            -25.0077536078       -6.4964521714       56.3586933085  TIP3      2754            0.0000000000
     59777      4114  TIP3      H2            -24.9456557344       -7.2709805906       55.0409174417  TIP3      2754            0.0000000000
     59778      4115  TIP3      OH2           -24.8487922973      -13.9700444115       49.0932201936  TIP3      2755            0.0000000000
     59779      4115  TIP3      H1            -25.0136393825      -14.9209326833       49.0367050264  TIP3      2755            0.0000000000
     59780      4115  TIP3      H2            -25.1969023764      -13.7023692673       49.9641186698  TIP3      2755            0.0000000000
     59781      4116  TIP3      OH2           -25.1536177512      -16.3663930265       47.5785897290  TIP3      2756            0.0000000000
     59782      4116  TIP3      H1            -24.8756825484      -17.2906062890       47.6368295578  TIP3      2756            0.0000000000
     59783      4116  TIP3      H2            -24.4062405406      -15.9572658845       47.1224366097  TIP3      2756            0.0000000000
     59784      4117  TIP3      OH2           -24.5195139205      -15.7826180240       52.9976561787  TIP3      2757            0.0000000000
     59785      4117  TIP3      H1            -23.5512010694      -15.6107924232       52.9586672461  TIP3      2757            0.0000000000
     59786      4117  TIP3      H2            -24.6188537669      -15.6852427562       53.9759057258  TIP3      2757            0.0000000000
     59787      4118  TIP3      OH2           -24.5389309033      -15.0910968372       55.6377110880  TIP3      2758            0.0000000000
     59788      4118  TIP3      H1            -25.3431280130      -14.8247220363       56.1381494179  TIP3      2758            0.0000000000
     59789      4118  TIP3      H2            -24.0285892624      -14.2439981632       55.5776097693  TIP3      2758            0.0000000000
     59790      4119  TIP3      OH2           -40.1698360922      -16.7270242474       59.1064822584  TIP3      2759            0.0000000000
     59791      4119  TIP3      H1            -39.2829066502      -16.7659918913       59.4713140211  TIP3      2759            0.0000000000
     59792      4119  TIP3      H2            -40.6541761849      -17.3823179839       59.6181760132  TIP3      2759            0.0000000000
     59793      4120  TIP3      OH2           -22.7205438474      -19.0277179241       59.4825255425  TIP3      2760            0.0000000000
     59794      4120  TIP3      H1            -23.6244815907      -18.6849282412       59.3893405865  TIP3      2760            0.0000000000
     59795      4120  TIP3      H2            -22.6010572779      -19.4758391296       58.6413087334  TIP3      2760            0.0000000000
     59796      4121  TIP3      OH2           -40.1728079839      -19.0618562818       47.3422277093  TIP3      2761            0.0000000000
     59797      4121  TIP3      H1            -41.1081983185      -18.9875953171       47.0396808708  TIP3      2761            0.0000000000
     59798      4121  TIP3      H2            -39.7987917404      -18.5442389837       46.6538890822  TIP3      2761            0.0000000000
     59799      4122  TIP3      OH2            41.0421786524      -20.1397203770       55.7642077092  TIP3      2762            0.0000000000
     59800      4122  TIP3      H1             40.3446021485      -20.6095694397       56.2278689629  TIP3      2762            0.0000000000
     59801      4122  TIP3      H2             40.5675786131      -19.7924246258       55.0068635571  TIP3      2762            0.0000000000
     59802      4123  TIP3      OH2           -38.1794209274       -7.2931470433       59.7709905475  TIP3      2763            0.0000000000
     59803      4123  TIP3      H1            -38.9896560498       -7.0520250756       59.3052676463  TIP3      2763            0.0000000000
     59804      4123  TIP3      H2            -38.4767355459       -7.2331386236       60.6847465402  TIP3      2763            0.0000000000
     59805      4124  TIP3      OH2           -35.3069775777       -6.1755027318       56.0050310411  TIP3      2764            0.0000000000
     59806      4124  TIP3      H1            -35.6635060925       -5.3166751582       55.7139370282  TIP3      2764            0.0000000000
     59807      4124  TIP3      H2            -34.3915838054       -6.0742878003       55.6897660422  TIP3      2764            0.0000000000
     59808      4125  TIP3      OH2           -30.9837075277       -4.7449820581       58.9273576351  TIP3      2765            0.0000000000
     59809      4125  TIP3      H1            -30.8081488413       -5.0941095585       59.8344614048  TIP3      2765            0.0000000000
     59810      4125  TIP3      H2            -30.1029923819       -4.5002325540       58.6553649407  TIP3      2765            0.0000000000
     59811      4126  TIP3      OH2           -37.8803381595       -3.0533918812       56.0747160317  TIP3      2766            0.0000000000
     59812      4126  TIP3      H1            -38.5399566775       -2.5177119510       55.5799191404  TIP3      2766            0.0000000000
     59813      4126  TIP3      H2            -38.2661344504       -3.0989565740       56.9488885364  TIP3      2766            0.0000000000
     59814      4127  TIP3      OH2           -35.4371598054       -3.3998642804       55.0485522508  TIP3      2767            0.0000000000
     59815      4127  TIP3      H1            -36.2988522575       -3.1976971629       55.4689490445  TIP3      2767            0.0000000000
     59816      4127  TIP3      H2            -35.4025360236       -2.7697366115       54.3011796486  TIP3      2767            0.0000000000
     59817      4128  TIP3      OH2           -38.5284757624       -4.6251087501       52.8357214381  TIP3      2768            0.0000000000
     59818      4128  TIP3      H1            -38.4425074537       -4.7295979795       53.7945338369  TIP3      2768            0.0000000000
     59819      4128  TIP3      H2            -37.6042586481       -4.6278225590       52.5183646542  TIP3      2768            0.0000000000
     59820      4129  TIP3      OH2           -36.3148983872       -5.5928389578       51.5575845687  TIP3      2769            0.0000000000
     59821      4129  TIP3      H1            -36.5180554489       -6.5173376682       51.7799769294  TIP3      2769            0.0000000000
     59822      4129  TIP3      H2            -35.4988143428       -5.4534979988       52.0532263411  TIP3      2769            0.0000000000
     59823      4130  TIP3      OH2           -37.8898837515      -20.8094812333       49.3971849492  TIP3      2770            0.0000000000
     59824      4130  TIP3      H1            -38.7412255951      -20.9912884016       48.9532597016  TIP3      2770            0.0000000000
     59825      4130  TIP3      H2            -37.4370847180      -21.6605925241       49.3758950399  TIP3      2770            0.0000000000
     59826      4131  TIP3      OH2           -33.3900088690      -21.0480121205       49.2150634065  TIP3      2771            0.0000000000
     59827      4131  TIP3      H1            -32.5874658019      -20.4973629810       49.1612229625  TIP3      2771            0.0000000000
     59828      4131  TIP3      H2            -33.5040148908      -21.0905009391       50.1608806479  TIP3      2771            0.0000000000
     59829      4132  TIP3      OH2           -26.4379941541      -20.8850617287       46.5699064357  TIP3      2772            0.0000000000
     59830      4132  TIP3      H1            -27.1507097973      -20.2428244408       46.4099466175  TIP3      2772            0.0000000000
     59831      4132  TIP3      H2            -26.9233977491      -21.6862395385       46.7522166267  TIP3      2772            0.0000000000
     59832      4133  TIP3      OH2           -39.0628516203       -5.0947951286       46.1723180410  TIP3      2773            0.0000000000
     59833      4133  TIP3      H1            -39.7844823339       -5.1973890703       45.5062005327  TIP3      2773            0.0000000000
     59834      4133  TIP3      H2            -39.1009917675       -4.1473327890       46.3881271878  TIP3      2773            0.0000000000
     59835      4134  TIP3      OH2           -37.2833671854       -4.3627988621       43.1742403813  TIP3      2774            0.0000000000
     59836      4134  TIP3      H1            -37.6201409349       -3.9265829396       43.9864196147  TIP3      2774            0.0000000000
     59837      4134  TIP3      H2            -36.4805667975       -4.7892384016       43.4253852769  TIP3      2774            0.0000000000
     59838      4135  TIP3      OH2           -17.8050735443       -8.2805295722       52.7775624412  TIP3      2775            0.0000000000
     59839      4135  TIP3      H1            -18.1639479903       -9.1460777284       52.6029532449  TIP3      2775            0.0000000000
     59840      4135  TIP3      H2            -16.8790228324       -8.4799496762       52.9664611168  TIP3      2775            0.0000000000
     59841      4136  TIP3      OH2           -21.1613307437      -14.6971932754       48.2781795421  TIP3      2776            0.0000000000
     59842      4136  TIP3      H1            -21.6544938495      -13.8577493124       48.3304598023  TIP3      2776            0.0000000000
     59843      4136  TIP3      H2            -21.7645320059      -15.2619125404       47.7978045988  TIP3      2776            0.0000000000
     59844      4137  TIP3      OH2           -20.4268313013      -12.4169366097       50.4589769931  TIP3      2777            0.0000000000
     59845      4137  TIP3      H1            -20.3002813150      -13.2737039238       50.8921223540  TIP3      2777            0.0000000000
     59846      4137  TIP3      H2            -19.7481409603      -12.4737221922       49.7815315418  TIP3      2777            0.0000000000
     59847      4138  TIP3      OH2           -12.7310787929       -9.9948131808       53.2702605143  TIP3      2778            0.0000000000
     59848      4138  TIP3      H1            -12.4258242674      -10.6431797756       52.6309400371  TIP3      2778            0.0000000000
     59849      4138  TIP3      H2            -11.9537168187       -9.8497335216       53.8099108181  TIP3      2778            0.0000000000
     59850      4139  TIP3      OH2            -9.5489500810      -15.5538016096       53.5584604504  TIP3      2779            0.0000000000
     59851      4139  TIP3      H1             -9.4463645442      -16.5247076452       53.5786899543  TIP3      2779            0.0000000000
     59852      4139  TIP3      H2             -9.6724000748      -15.4054055182       52.6166119971  TIP3      2779            0.0000000000
     59853      4140  TIP3      OH2            -8.7045015241      -17.3682112912       49.2110771156  TIP3      2780            0.0000000000
     59854      4140  TIP3      H1             -8.0293742658      -17.6741248605       49.8415300923  TIP3      2780            0.0000000000
     59855      4140  TIP3      H2             -8.1876705208      -16.8304333638       48.5930095754  TIP3      2780            0.0000000000
     59856      4141  TIP3      OH2            -6.8294708170      -18.0968558073       51.1098125875  TIP3      2781            0.0000000000
     59857      4141  TIP3      H1             -7.1575006726      -18.7819992635       51.7072944271  TIP3      2781            0.0000000000
     59858      4141  TIP3      H2             -6.2948731462      -17.5364045677       51.6864268031  TIP3      2781            0.0000000000
     59859      4142  TIP3      OH2           -16.6263676678       -8.9513637308       55.8014680204  TIP3      2782            0.0000000000
     59860      4142  TIP3      H1            -16.6154898366       -7.9988945544       55.6367846664  TIP3      2782            0.0000000000
     59861      4142  TIP3      H2            -17.4191114119       -9.0028930211       56.3757381562  TIP3      2782            0.0000000000
     59862      4143  TIP3      OH2           -20.5364993828       -9.4402965234       46.4749044860  TIP3      2783            0.0000000000
     59863      4143  TIP3      H1            -20.7913726162       -9.2430866358       45.5370317577  TIP3      2783            0.0000000000
     59864      4143  TIP3      H2            -19.8041000866       -8.8405623311       46.6033593563  TIP3      2783            0.0000000000
     59865      4144  TIP3      OH2            -6.5602030689      -19.3336609692       54.8003582101  TIP3      2784            0.0000000000
     59866      4144  TIP3      H1             -7.3144310578      -18.7265260348       54.7985816169  TIP3      2784            0.0000000000
     59867      4144  TIP3      H2             -5.8830498115      -18.8699213657       54.3168584037  TIP3      2784            0.0000000000
     59868      4145  TIP3      OH2            -5.8235445375       -9.3177137353       57.0543553020  TIP3      2785            0.0000000000
     59869      4145  TIP3      H1             -5.6746906118       -9.9789899320       56.3536597832  TIP3      2785            0.0000000000
     59870      4145  TIP3      H2             -5.5830787208       -8.4687390909       56.6581543099  TIP3      2785            0.0000000000
     59871      4146  TIP3      OH2            -3.9392105665      -13.0052611881       55.1045796229  TIP3      2786            0.0000000000
     59872      4146  TIP3      H1             -4.5974508337      -12.2852631214       55.1507438765  TIP3      2786            0.0000000000
     59873      4146  TIP3      H2             -3.4322269877      -12.7783115728       54.2996643869  TIP3      2786            0.0000000000
     59874      4147  TIP3      OH2            -7.9526257633      -14.0402641972       56.8772362942  TIP3      2787            0.0000000000
     59875      4147  TIP3      H1             -7.9038815176      -13.2323016203       57.4012769717  TIP3      2787            0.0000000000
     59876      4147  TIP3      H2             -8.5887068340      -13.7375800917       56.1885853699  TIP3      2787            0.0000000000
     59877      4148  TIP3      OH2            -9.0003547947      -13.0178312529       45.4558644500  TIP3      2788            0.0000000000
     59878      4148  TIP3      H1             -8.4370344939      -12.8718128782       46.2221953395  TIP3      2788            0.0000000000
     59879      4148  TIP3      H2             -8.6007390002      -12.5349083966       44.7343114615  TIP3      2788            0.0000000000
     59880      4149  TIP3      OH2           -16.7893219946       -6.3316283732       58.7806477632  TIP3      2789            0.0000000000
     59881      4149  TIP3      H1            -16.7394175896       -6.4739221624       57.8228703553  TIP3      2789            0.0000000000
     59882      4149  TIP3      H2            -17.7155281765       -6.5058267088       58.9971897461  TIP3      2789            0.0000000000
     59883      4150  TIP3      OH2            -5.3336782750      -21.2977878435       45.3168125999  TIP3      2790            0.0000000000
     59884      4150  TIP3      H1             -6.2665324951      -21.1174875553       45.5453975880  TIP3      2790            0.0000000000
     59885      4150  TIP3      H2             -5.0857484241      -20.4496042920       44.9501862588  TIP3      2790            0.0000000000
     59886      4151  TIP3      OH2           -21.1399796516      -10.1597414818       56.0987021809  TIP3      2791            0.0000000000
     59887      4151  TIP3      H1            -21.6735154715      -10.1727972057       55.2834213674  TIP3      2791            0.0000000000
     59888      4151  TIP3      H2            -21.1615496802      -11.0835715499       56.3768652437  TIP3      2791            0.0000000000
     59889      4152  TIP3      OH2           -21.4204795523       -7.3353276909       52.8792671170  TIP3      2792            0.0000000000
     59890      4152  TIP3      H1            -20.4685030477       -7.4589299056       52.9460264455  TIP3      2792            0.0000000000
     59891      4152  TIP3      H2            -21.5398232922       -6.5768989466       53.4812644758  TIP3      2792            0.0000000000
     59892      4153  TIP3      OH2           -11.9703834940       -3.3513795070       47.2063464746  TIP3      2793            0.0000000000
     59893      4153  TIP3      H1            -11.9275558231       -3.4055010322       46.2657633986  TIP3      2793            0.0000000000
     59894      4153  TIP3      H2            -11.8273047515       -2.4128956766       47.4255706943  TIP3      2793            0.0000000000
     59895      4154  TIP3      OH2           -18.1462348966       -4.4879219139       49.1041368867  TIP3      2794            0.0000000000
     59896      4154  TIP3      H1            -17.9699364243       -4.8848244723       49.9901530416  TIP3      2794            0.0000000000
     59897      4154  TIP3      H2            -19.0033183280       -4.8821601484       48.9151559833  TIP3      2794            0.0000000000
     59898      4155  TIP3      OH2            -6.1621446474      -15.2067971090       59.1349142525  TIP3      2795            0.0000000000
     59899      4155  TIP3      H1             -6.4905634468      -14.7332553731       58.3570667667  TIP3      2795            0.0000000000
     59900      4155  TIP3      H2             -5.9924361145      -16.0981413137       58.7792864323  TIP3      2795            0.0000000000
     59901      4156  TIP3      OH2           -18.9158747269       -8.8037841613       57.1293230536  TIP3      2796            0.0000000000
     59902      4156  TIP3      H1            -18.7111729537       -9.1727578920       58.0007896354  TIP3      2796            0.0000000000
     59903      4156  TIP3      H2            -19.7773846255       -9.2102374048       56.9050096592  TIP3      2796            0.0000000000
     59904      4157  TIP3      OH2           -11.6162741801      -20.7240427720       56.3632698672  TIP3      2797            0.0000000000
     59905      4157  TIP3      H1            -11.1896494526      -21.0196728060       57.1859030347  TIP3      2797            0.0000000000
     59906      4157  TIP3      H2            -12.5533556054      -20.7103927815       56.5769468753  TIP3      2797            0.0000000000
     59907      4158  TIP3      OH2            -8.3425490510      -16.8586293197       57.3284464353  TIP3      2798            0.0000000000
     59908      4158  TIP3      H1             -8.8349272991      -16.9726409094       58.1509273139  TIP3      2798            0.0000000000
     59909      4158  TIP3      H2             -8.4589843089      -15.9202379263       57.0795843407  TIP3      2798            0.0000000000
     59910      4159  TIP3      OH2           -10.7346014010      -14.7720796615       47.8558543318  TIP3      2799            0.0000000000
     59911      4159  TIP3      H1            -11.0469200591      -13.8941248455       47.6174972856  TIP3      2799            0.0000000000
     59912      4159  TIP3      H2             -9.9420178007      -14.8972131522       47.3042456474  TIP3      2799            0.0000000000
     59913      4160  TIP3      OH2           -21.8650785595      -17.9306234389       49.9301578801  TIP3      2800            0.0000000000
     59914      4160  TIP3      H1            -21.2156433296      -18.0169948250       50.6410631236  TIP3      2800            0.0000000000
     59915      4160  TIP3      H2            -21.4289895521      -18.4139429595       49.1985296943  TIP3      2800            0.0000000000
     59916      4161  TIP3      OH2           -10.3152117448      -13.6626670435       55.4350760209  TIP3      2801            0.0000000000
     59917      4161  TIP3      H1            -10.1073952723      -14.3060767284       54.7301893056  TIP3      2801            0.0000000000
     59918      4161  TIP3      H2            -10.8716672904      -14.1635610337       56.0442739756  TIP3      2801            0.0000000000
     59919      4162  TIP3      OH2           -15.1996845008      -16.0704051893       46.9048966074  TIP3      2802            0.0000000000
     59920      4162  TIP3      H1            -14.2245351161      -16.0473031208       46.9341697118  TIP3      2802            0.0000000000
     59921      4162  TIP3      H2            -15.3920899536      -15.5202299619       46.1331253411  TIP3      2802            0.0000000000
     59922      4163  TIP3      OH2            -9.2177402441      -18.4336268774       53.4212024706  TIP3      2803            0.0000000000
     59923      4163  TIP3      H1             -9.8969773720      -18.3818152382       54.1258357974  TIP3      2803            0.0000000000
     59924      4163  TIP3      H2             -9.7572200909      -18.6953516487       52.6539330844  TIP3      2803            0.0000000000
     59925      4164  TIP3      OH2           -12.2907284268      -14.9151307945       52.1068386399  TIP3      2804            0.0000000000
     59926      4164  TIP3      H1            -11.8178619799      -15.4949420143       51.5124886641  TIP3      2804            0.0000000000
     59927      4164  TIP3      H2            -12.5031305404      -15.4822416849       52.8559243248  TIP3      2804            0.0000000000
     59928      4165  TIP3      OH2           -13.6569356790      -16.5518412004       54.4671139181  TIP3      2805            0.0000000000
     59929      4165  TIP3      H1            -14.4926033838      -16.0972845534       54.6040157360  TIP3      2805            0.0000000000
     59930      4165  TIP3      H2            -13.1306106151      -16.2902326909       55.2264344114  TIP3      2805            0.0000000000
     59931      4166  TIP3      OH2            -5.9336300453      -11.1986034373       54.9273106258  TIP3      2806            0.0000000000
     59932      4166  TIP3      H1             -5.3192893239      -10.6939330668       54.3630831239  TIP3      2806            0.0000000000
     59933      4166  TIP3      H2             -6.7856786297      -11.0811040321       54.5063337273  TIP3      2806            0.0000000000
     59934      4167  TIP3      OH2            -8.5370563021      -15.6404532120       46.0590006628  TIP3      2807            0.0000000000
     59935      4167  TIP3      H1             -7.6330076832      -15.7852339642       46.3801358938  TIP3      2807            0.0000000000
     59936      4167  TIP3      H2             -8.5020460534      -14.8714337888       45.4706260621  TIP3      2807            0.0000000000
     59937      4168  TIP3      OH2            -3.6972558735      -15.4431719127       45.8240026823  TIP3      2808            0.0000000000
     59938      4168  TIP3      H1             -4.1348626022      -15.8217255851       45.0387810024  TIP3      2808            0.0000000000
     59939      4168  TIP3      H2             -3.5340754973      -14.5542644900       45.4656327741  TIP3      2808            0.0000000000
     59940      4169  TIP3      OH2            -3.6301389182       -9.7177060714       58.5557607510  TIP3      2809            0.0000000000
     59941      4169  TIP3      H1             -4.5038862637       -9.3922032586       58.2272799412  TIP3      2809            0.0000000000
     59942      4169  TIP3      H2             -3.0971412817       -9.6553950669       57.7480068355  TIP3      2809            0.0000000000
     59943      4170  TIP3      OH2           -15.4869529673       -4.8650029318       48.4324759245  TIP3      2810            0.0000000000
     59944      4170  TIP3      H1            -16.4358331355       -4.7206198454       48.5553891278  TIP3      2810            0.0000000000
     59945      4170  TIP3      H2            -15.1410980070       -4.0237997544       48.7617002169  TIP3      2810            0.0000000000
     59946      4171  TIP3      OH2           -19.7017290427       -6.0276200928       55.1991909482  TIP3      2811            0.0000000000
     59947      4171  TIP3      H1            -19.5128105590       -6.9731068142       55.2467016938  TIP3      2811            0.0000000000
     59948      4171  TIP3      H2            -19.4670679948       -5.7667038813       56.0948441647  TIP3      2811            0.0000000000
     59949      4172  TIP3      OH2           -14.9206888221       -7.9504487946       44.9330921554  TIP3      2812            0.0000000000
     59950      4172  TIP3      H1            -14.7962711520       -8.5100890014       45.7087026780  TIP3      2812            0.0000000000
     59951      4172  TIP3      H2            -14.9511574859       -7.0477859406       45.2576369146  TIP3      2812            0.0000000000
     59952      4173  TIP3      OH2           -10.6352596526      -18.0283551574       55.7482582781  TIP3      2813            0.0000000000
     59953      4173  TIP3      H1             -9.9090865623      -17.9792016829       56.3786722177  TIP3      2813            0.0000000000
     59954      4173  TIP3      H2            -11.0184770404      -18.9194385704       55.8803171549  TIP3      2813            0.0000000000
     59955      4174  TIP3      OH2           -12.6454337577      -16.7640807477       47.6498834466  TIP3      2814            0.0000000000
     59956      4174  TIP3      H1            -11.8606212713      -16.1716564267       47.6845569068  TIP3      2814            0.0000000000
     59957      4174  TIP3      H2            -12.9219452569      -16.8087150387       48.5745461169  TIP3      2814            0.0000000000
     59958      4175  TIP3      OH2           -11.7422419773      -19.6855662307       48.5420669690  TIP3      2815            0.0000000000
     59959      4175  TIP3      H1            -12.0881304189      -19.0666284890       49.2059122835  TIP3      2815            0.0000000000
     59960      4175  TIP3      H2            -11.1168341999      -19.0958471114       48.1119256139  TIP3      2815            0.0000000000
     59961      4176  TIP3      OH2            -5.8808415490      -17.8711453044       57.6989614293  TIP3      2816            0.0000000000
     59962      4176  TIP3      H1             -6.7983284270      -17.5522212108       57.5644154763  TIP3      2816            0.0000000000
     59963      4176  TIP3      H2             -5.5775407211      -17.8590447759       56.7810429139  TIP3      2816            0.0000000000
     59964      4177  TIP3      OH2            -7.3025607772      -14.0887246682       51.6778745375  TIP3      2817            0.0000000000
     59965      4177  TIP3      H1             -8.1245513866      -14.5225468180       51.4473897079  TIP3      2817            0.0000000000
     59966      4177  TIP3      H2             -6.8490570252      -14.7441230133       52.2434902830  TIP3      2817            0.0000000000
     59967      4178  TIP3      OH2           -18.6974155117      -20.7172494953       52.1390508883  TIP3      2818            0.0000000000
     59968      4178  TIP3      H1            -18.9607253842      -20.6353516940       51.1994739289  TIP3      2818            0.0000000000
     59969      4178  TIP3      H2            -19.2026494791      -21.4932073855       52.4418307903  TIP3      2818            0.0000000000
     59970      4179  TIP3      OH2           -19.6123622469       -6.4610927240       48.4101745580  TIP3      2819            0.0000000000
     59971      4179  TIP3      H1            -20.4226258104       -5.8974212445       48.4383554400  TIP3      2819            0.0000000000
     59972      4179  TIP3      H2            -19.1059180895       -6.0815424852       47.6587342367  TIP3      2819            0.0000000000
     59973      4180  TIP3      OH2            -9.1177152077      -15.1735550118       61.1585088235  TIP3      2820            0.0000000000
     59974      4180  TIP3      H1             -8.8995650151      -16.1085679691       61.1189481580  TIP3      2820            0.0000000000
     59975      4180  TIP3      H2             -8.2417173930      -14.7593531799       61.2136474182  TIP3      2820            0.0000000000
     59976      4181  TIP3      OH2           -18.8303171458      -17.6243852869       60.0360404507  TIP3      2821            0.0000000000
     59977      4181  TIP3      H1            -18.6467721849      -18.3634021829       59.4375114214  TIP3      2821            0.0000000000
     59978      4181  TIP3      H2            -18.9366136155      -18.0671549576       60.8728984909  TIP3      2821            0.0000000000
     59979      4182  TIP3      OH2           -14.0460192831      -21.6432575509       59.0261695828  TIP3      2822            0.0000000000
     59980      4182  TIP3      H1            -13.3017444414      -22.2430400207       59.0440389327  TIP3      2822            0.0000000000
     59981      4182  TIP3      H2            -14.1671585116      -21.3796310109       58.1131848052  TIP3      2822            0.0000000000
     59982      4183  TIP3      OH2           -20.5691113908       -8.5286016094       43.9098555667  TIP3      2823            0.0000000000
     59983      4183  TIP3      H1            -19.6284714265       -8.3522480984       43.9446451024  TIP3      2823            0.0000000000
     59984      4183  TIP3      H2            -20.6423055656       -9.0412722386       43.0754916860  TIP3      2823            0.0000000000
     59985      4184  TIP3      OH2           -20.9828161644       -5.0781260803       50.6057848099  TIP3      2824            0.0000000000
     59986      4184  TIP3      H1            -21.4701446559       -5.8413060881       50.9185068649  TIP3      2824            0.0000000000
     59987      4184  TIP3      H2            -20.8155603603       -4.6129845611       51.4582386024  TIP3      2824            0.0000000000
     59988      4185  TIP3      OH2            -3.4336493853       -4.2055864598       53.5694485645  TIP3      2825            0.0000000000
     59989      4185  TIP3      H1             -3.5380458467       -3.9834898676       54.4980085936  TIP3      2825            0.0000000000
     59990      4185  TIP3      H2             -2.8056149347       -3.5466121400       53.2676604532  TIP3      2825            0.0000000000
     59991      4186  TIP3      OH2            -5.3906605533       -8.9073674395       61.2626236514  TIP3      2826            0.0000000000
     59992      4186  TIP3      H1             -6.3311038131       -8.8822376716       61.4685033773  TIP3      2826            0.0000000000
     59993      4186  TIP3      H2             -5.1092127463       -8.0398892779       61.5501613319  TIP3      2826            0.0000000000
     59994      4187  TIP3      OH2            -4.1481835569      -10.5584456000       46.6489419415  TIP3      2827            0.0000000000
     59995      4187  TIP3      H1             -3.3110384675      -10.1109440556       46.8488285730  TIP3      2827            0.0000000000
     59996      4187  TIP3      H2             -4.1681886229      -11.2663335970       47.3278056164  TIP3      2827            0.0000000000
     59997      4188  TIP3      OH2            -3.7830519886      -12.4728954181       48.4854100807  TIP3      2828            0.0000000000
     59998      4188  TIP3      H1             -4.5591511919      -12.9549462261       48.8581204250  TIP3      2828            0.0000000000
     59999      4188  TIP3      H2             -3.2446929513      -12.2876365954       49.2771468026  TIP3      2828            0.0000000000
     60000      4189  TIP3      OH2            -4.0886471923       -9.7311139271       53.4685674298  TIP3      2829            0.0000000000
     60001      4189  TIP3      H1             -3.2463590896      -10.0857870943       53.1338880571  TIP3      2829            0.0000000000
     60002      4189  TIP3      H2             -3.8898128398       -8.7808035866       53.3408199035  TIP3      2829            0.0000000000
     60003      4190  TIP3      OH2            -5.5367227490       -6.8364000780       55.7366061468  TIP3      2830            0.0000000000
     60004      4190  TIP3      H1             -6.1937801126       -6.5085741663       56.3552525062  TIP3      2830            0.0000000000
     60005      4190  TIP3      H2             -6.0748977473       -7.2228384903       55.0433000482  TIP3      2830            0.0000000000
     60006      4191  TIP3      OH2            -3.5070846621      -12.5864287181       44.8705928920  TIP3      2831            0.0000000000
     60007      4191  TIP3      H1             -4.1077518378      -12.2674314355       44.1952250129  TIP3      2831            0.0000000000
     60008      4191  TIP3      H2             -3.6073260887      -11.9161096804       45.5718413060  TIP3      2831            0.0000000000
     60009      4192  TIP3      OH2            -5.2618890144      -15.3740083931       43.4312446258  TIP3      2832            0.0000000000
     60010      4192  TIP3      H1             -5.0538840597      -14.7219352142       42.7459968262  TIP3      2832            0.0000000000
     60011      4192  TIP3      H2             -5.2902198768      -16.2009335705       42.9431388652  TIP3      2832            0.0000000000
     60012      4193  TIP3      OH2            -5.9276984702      -13.9606658078       49.1269192820  TIP3      2833            0.0000000000
     60013      4193  TIP3      H1             -6.1733461712      -14.8956850268       48.9954934336  TIP3      2833            0.0000000000
     60014      4193  TIP3      H2             -6.3667709463      -13.7357265826       49.9557791569  TIP3      2833            0.0000000000
     60015      4194  TIP3      OH2           -20.9621619514      -11.8318062876       53.1319055826  TIP3      2834            0.0000000000
     60016      4194  TIP3      H1            -20.8328115692      -11.9975560980       52.1765126503  TIP3      2834            0.0000000000
     60017      4194  TIP3      H2            -20.1091616259      -12.0709389334       53.4937625554  TIP3      2834            0.0000000000
     60018      4195  TIP3      OH2            -5.1589954891      -12.0074267265       58.7833941942  TIP3      2835            0.0000000000
     60019      4195  TIP3      H1             -4.5470718404      -12.7522023304       58.9274625757  TIP3      2835            0.0000000000
     60020      4195  TIP3      H2             -4.5553939436      -11.2362179185       58.7419426829  TIP3      2835            0.0000000000
     60021      4196  TIP3      OH2            -3.5954190238      -14.1069089165       59.3763272284  TIP3      2836            0.0000000000
     60022      4196  TIP3      H1             -4.4945067191      -14.4782529157       59.2456088340  TIP3      2836            0.0000000000
     60023      4196  TIP3      H2             -3.0658884325      -14.9237510750       59.3387183923  TIP3      2836            0.0000000000
     60024      4197  TIP3      OH2            -6.3053976813      -16.3822952774       47.5887310040  TIP3      2837            0.0000000000
     60025      4197  TIP3      H1             -6.0266159975      -17.3229790182       47.6318104138  TIP3      2837            0.0000000000
     60026      4197  TIP3      H2             -5.5387804987      -15.9820111114       47.1461722152  TIP3      2837            0.0000000000
     60027      4198  TIP3      OH2            -5.6794059065      -15.8969685066       52.9954065558  TIP3      2838            0.0000000000
     60028      4198  TIP3      H1             -4.7684656757      -15.5626285874       52.9598560797  TIP3      2838            0.0000000000
     60029      4198  TIP3      H2             -5.9157242668      -15.6828178793       53.9216926073  TIP3      2838            0.0000000000
     60030      4199  TIP3      OH2            -5.6545707699      -15.0943088761       55.7095317551  TIP3      2839            0.0000000000
     60031      4199  TIP3      H1             -6.5015568113      -14.8122149898       56.1074437595  TIP3      2839            0.0000000000
     60032      4199  TIP3      H2             -5.1730843659      -14.2521752234       55.5675249931  TIP3      2839            0.0000000000
     60033      4200  TIP3      OH2            -5.7036335561      -19.0902380413       47.6115718144  TIP3      2840            0.0000000000
     60034      4200  TIP3      H1             -5.4744603144      -19.5615811826       48.4131507788  TIP3      2840            0.0000000000
     60035      4200  TIP3      H2             -6.2789606793      -19.7176475612       47.1253728146  TIP3      2840            0.0000000000
     60036      4201  TIP3      OH2            -3.8361148662      -18.9954523294       59.4566073385  TIP3      2841            0.0000000000
     60037      4201  TIP3      H1             -4.7667193134      -18.7125338980       59.4164308839  TIP3      2841            0.0000000000
     60038      4201  TIP3      H2             -3.7664303159      -19.4930751717       58.6366766365  TIP3      2841            0.0000000000
     60039      4202  TIP3      OH2           -21.5307584320      -18.9460189083       47.2331210704  TIP3      2842            0.0000000000
     60040      4202  TIP3      H1            -22.4676547440      -18.8345129856       47.0730764195  TIP3      2842            0.0000000000
     60041      4202  TIP3      H2            -21.1003237374      -18.5308996323       46.4914195992  TIP3      2842            0.0000000000
     60042      4203  TIP3      OH2            -6.6902106241       -4.0894950669       49.1776693796  TIP3      2843            0.0000000000
     60043      4203  TIP3      H1             -6.0476670694       -4.4002930032       48.5571950576  TIP3      2843            0.0000000000
     60044      4203  TIP3      H2             -6.2211159677       -3.5456651493       49.8256050077  TIP3      2843            0.0000000000
     60045      4204  TIP3      OH2           -19.3474988487       -7.1743425000       59.7377693832  TIP3      2844            0.0000000000
     60046      4204  TIP3      H1            -20.1839035529       -6.9993430973       59.2851145640  TIP3      2844            0.0000000000
     60047      4204  TIP3      H2            -19.6308820921       -7.2198779796       60.6547002285  TIP3      2844            0.0000000000
     60048      4205  TIP3      OH2           -16.4597465315       -6.1767182664       55.9458274095  TIP3      2845            0.0000000000
     60049      4205  TIP3      H1            -16.8078740172       -5.3048002183       55.7130679938  TIP3      2845            0.0000000000
     60050      4205  TIP3      H2            -15.5252355316       -6.0657077698       55.7352782841  TIP3      2845            0.0000000000
     60051      4206  TIP3      OH2            -9.8471536130       -3.4924332014       58.2791868965  TIP3      2846            0.0000000000
     60052      4206  TIP3      H1             -9.1525135079       -4.0540664033       57.9317675511  TIP3      2846            0.0000000000
     60053      4206  TIP3      H2             -9.4360825956       -3.0514486499       59.0341028353  TIP3      2846            0.0000000000
     60054      4207  TIP3      OH2           -19.0470968281       -2.9233243860       56.0025447234  TIP3      2847            0.0000000000
     60055      4207  TIP3      H1            -19.7492848915       -2.4369631855       55.5619678555  TIP3      2847            0.0000000000
     60056      4207  TIP3      H2            -19.3754288284       -3.1346918255       56.8863244961  TIP3      2847            0.0000000000
     60057      4208  TIP3      OH2           -16.5724217931       -3.3838654783       55.0017175776  TIP3      2848            0.0000000000
     60058      4208  TIP3      H1            -17.4281221294       -3.2013382174       55.4573300623  TIP3      2848            0.0000000000
     60059      4208  TIP3      H2            -16.6104219994       -2.7300690607       54.2793918981  TIP3      2848            0.0000000000
     60060      4209  TIP3      OH2           -19.5789981115       -4.2550119096       52.9401599660  TIP3      2849            0.0000000000
     60061      4209  TIP3      H1            -19.6390392796       -4.7538197089       53.7822908626  TIP3      2849            0.0000000000
     60062      4209  TIP3      H2            -18.7937604590       -4.6431050206       52.5089707184  TIP3      2849            0.0000000000
     60063      4210  TIP3      OH2           -17.5381920722       -5.5965981470       51.5829826040  TIP3      2850            0.0000000000
     60064      4210  TIP3      H1            -17.6614370086       -6.5169954573       51.8574999703  TIP3      2850            0.0000000000
     60065      4210  TIP3      H2            -16.6599099954       -5.3884568228       51.9791599009  TIP3      2850            0.0000000000
     60066      4211  TIP3      OH2           -14.9513389437       -5.0965045157       52.4644294417  TIP3      2851            0.0000000000
     60067      4211  TIP3      H1            -14.6779797048       -5.9690585939       52.1564932979  TIP3      2851            0.0000000000
     60068      4211  TIP3      H2            -14.8484976471       -5.1472035091       53.4184037052  TIP3      2851            0.0000000000
     60069      4212  TIP3      OH2           -11.3881176709      -19.4320071880       51.5795956303  TIP3      2852            0.0000000000
     60070      4212  TIP3      H1            -12.0821465457      -20.0277465270       51.8844180341  TIP3      2852            0.0000000000
     60071      4212  TIP3      H2            -10.8436663651      -19.9685678205       51.0033724620  TIP3      2852            0.0000000000
     60072      4213  TIP3      OH2            -6.2634746030      -21.3713415316       51.6561166074  TIP3      2853            0.0000000000
     60073      4213  TIP3      H1             -5.6916027240      -20.7642105177       51.1725326821  TIP3      2853            0.0000000000
     60074      4213  TIP3      H2             -7.1616198439      -21.0323438074       51.4519560933  TIP3      2853            0.0000000000
     60075      4214  TIP3      OH2           -19.1104508821      -20.8001782247       49.4342927280  TIP3      2854            0.0000000000
     60076      4214  TIP3      H1            -19.8929366743      -21.0352391677       48.9070051341  TIP3      2854            0.0000000000
     60077      4214  TIP3      H2            -18.5874228531      -21.6213519339       49.3647680930  TIP3      2854            0.0000000000
     60078      4215  TIP3      OH2           -20.2909828070      -21.0465385978       45.1609002921  TIP3      2855            0.0000000000
     60079      4215  TIP3      H1            -19.8136465270      -20.4017465250       44.6256665594  TIP3      2855            0.0000000000
     60080      4215  TIP3      H2            -20.8520637099      -20.5103644763       45.7274304111  TIP3      2855            0.0000000000
     60081      4216  TIP3      OH2            -8.8562554836      -20.8542935183       50.8366351858  TIP3      2856            0.0000000000
     60082      4216  TIP3      H1             -8.8775697073      -20.7716819824       49.8814896691  TIP3      2856            0.0000000000
     60083      4216  TIP3      H2             -9.2733108653      -21.7420166814       50.9927562856  TIP3      2856            0.0000000000
     60084      4217  TIP3      OH2            -7.6215308993      -20.8381965435       46.5672369379  TIP3      2857            0.0000000000
     60085      4217  TIP3      H1             -8.3407843279      -20.2430812935       46.3193934090  TIP3      2857            0.0000000000
     60086      4217  TIP3      H2             -8.0880492977      -21.6496741808       46.7368589798  TIP3      2857            0.0000000000
     60087      4218  TIP3      OH2           -20.4345589084       -5.1321779739       46.2235250140  TIP3      2858            0.0000000000
     60088      4218  TIP3      H1            -21.0194722692       -5.0815631464       45.4457866950  TIP3      2858            0.0000000000
     60089      4218  TIP3      H2            -20.3337786002       -4.1696646234       46.3721140083  TIP3      2858            0.0000000000
     60090      4219  TIP3      OH2           -13.4078868453      -18.8513848898       46.0931048467  TIP3      2859            0.0000000000
     60091      4219  TIP3      H1            -13.1990606693      -19.4398852365       46.8167765647  TIP3      2859            0.0000000000
     60092      4219  TIP3      H2            -13.4043446971      -17.9917637222       46.5545084180  TIP3      2859            0.0000000000
     60093      4220  TIP3      OH2           -19.1325877257      -20.2005101630       58.9431137866  TIP3      2860            0.0000000000
     60094      4220  TIP3      H1            -19.4816075511      -21.0112563083       59.3194391112  TIP3      2860            0.0000000000
     60095      4220  TIP3      H2            -18.2020519735      -20.2759023928       59.2412849879  TIP3      2860            0.0000000000
     60096      4221  TIP3      OH2           -17.1308758199      -20.9539773160       60.4617254708  TIP3      2861            0.0000000000
     60097      4221  TIP3      H1            -16.2342333675      -21.2619164784       60.2891412754  TIP3      2861            0.0000000000
     60098      4221  TIP3      H2            -17.5081311531      -21.7126165961       60.9570193832  TIP3      2861            0.0000000000
     60099      4222  TIP3      OH2           -18.6072962463       -4.1521502169       43.1134876741  TIP3      2862            0.0000000000
     60100      4222  TIP3      H1            -18.7569959325       -3.7993935338       43.9963899375  TIP3      2862            0.0000000000
     60101      4222  TIP3      H2            -17.7920227452       -4.6541333105       43.2907259464  TIP3      2862            0.0000000000
     60102      4223  TIP3      OH2             8.8619682383      -11.6689114919       49.3197069023  TIP3      2863            0.0000000000
     60103      4223  TIP3      H1              8.8874425033      -10.6883739506       49.2599346134  TIP3      2863            0.0000000000
     60104      4223  TIP3      H2              8.1668112357      -11.8980641801       48.6759303712  TIP3      2863            0.0000000000
     60105      4224  TIP3      OH2             7.7464490462      -12.4203752185       52.7921236276  TIP3      2864            0.0000000000
     60106      4224  TIP3      H1              7.7186408413      -13.0650017763       53.5155586006  TIP3      2864            0.0000000000
     60107      4224  TIP3      H2              7.3924731092      -12.9271402745       52.0411162441  TIP3      2864            0.0000000000
     60108      4225  TIP3      OH2             0.0837652354      -12.7126452965       54.3613981541  TIP3      2865            0.0000000000
     60109      4225  TIP3      H1              0.1904651688      -13.4300336913       55.0215104509  TIP3      2865            0.0000000000
     60110      4225  TIP3      H2              0.8642351819      -12.1845783328       54.5770135384  TIP3      2865            0.0000000000
     60111      4226  TIP3      OH2            11.4328600879       -9.4680784244       51.0561529525  TIP3      2866            0.0000000000
     60112      4226  TIP3      H1             11.0065195746      -10.1781528799       51.5486824901  TIP3      2866            0.0000000000
     60113      4226  TIP3      H2             11.4484288061       -8.7701976048       51.7281379161  TIP3      2866            0.0000000000
     60114      4227  TIP3      OH2             1.0291923721       -8.3010643625       52.8664328660  TIP3      2867            0.0000000000
     60115      4227  TIP3      H1              0.7052574181       -9.1575836027       52.5393739961  TIP3      2867            0.0000000000
     60116      4227  TIP3      H2              1.9836607135       -8.4824492111       52.9031575623  TIP3      2867            0.0000000000
     60117      4228  TIP3      OH2            -2.3109783488      -14.7569248913       48.3830672366  TIP3      2868            0.0000000000
     60118      4228  TIP3      H1             -2.7542638475      -13.8818308460       48.3007193273  TIP3      2868            0.0000000000
     60119      4228  TIP3      H2             -2.8882530938      -15.2493480171       47.7659588404  TIP3      2868            0.0000000000
     60120      4229  TIP3      OH2            -1.6406317364      -12.5279416457       50.4731030059  TIP3      2869            0.0000000000
     60121      4229  TIP3      H1             -1.3696926076      -13.3135517076       50.9598479312  TIP3      2869            0.0000000000
     60122      4229  TIP3      H2             -0.9430018642      -12.3623306654       49.8371531897  TIP3      2869            0.0000000000
     60123      4230  TIP3      OH2             6.1114208928      -10.0200988662       53.2692728384  TIP3      2870            0.0000000000
     60124      4230  TIP3      H1              6.4697868234      -10.6415159345       52.6234031965  TIP3      2870            0.0000000000
     60125      4230  TIP3      H2              6.9090954057       -9.8551389127       53.7945559225  TIP3      2870            0.0000000000
     60126      4231  TIP3      OH2            14.7436262662      -18.3391796822       53.9978192882  TIP3      2871            0.0000000000
     60127      4231  TIP3      H1             14.8903000899      -17.7614254725       54.7791324296  TIP3      2871            0.0000000000
     60128      4231  TIP3      H2             15.2976297748      -17.9128774790       53.3320730825  TIP3      2871            0.0000000000
     60129      4232  TIP3      OH2             9.2890194609      -15.5454431811       53.5809663029  TIP3      2872            0.0000000000
     60130      4232  TIP3      H1              9.4520657221      -16.5049333236       53.5832904805  TIP3      2872            0.0000000000
     60131      4232  TIP3      H2              9.1820596924      -15.4026965503       52.6204618106  TIP3      2872            0.0000000000
     60132      4233  TIP3      OH2             2.4239028473      -17.5035283200       50.8053748003  TIP3      2873            0.0000000000
     60133      4233  TIP3      H1              2.5424109039      -16.6364995211       50.3788048219  TIP3      2873            0.0000000000
     60134      4233  TIP3      H2              2.0258182929      -18.0458103112       50.1348450738  TIP3      2873            0.0000000000
     60135      4234  TIP3      OH2            10.1491947542      -17.3657237190       49.1722215620  TIP3      2874            0.0000000000
     60136      4234  TIP3      H1             10.8033781474      -17.6813229322       49.8380185054  TIP3      2874            0.0000000000
     60137      4234  TIP3      H2             10.7108174824      -16.7956043687       48.6271966659  TIP3      2874            0.0000000000
     60138      4235  TIP3      OH2             4.1497825514      -13.5102463082       50.8172691614  TIP3      2875            0.0000000000
     60139      4235  TIP3      H1              4.8516399257      -14.0288003430       51.2620972170  TIP3      2875            0.0000000000
     60140      4235  TIP3      H2              3.6986336059      -14.2378672469       50.3798929725  TIP3      2875            0.0000000000
     60141      4236  TIP3      OH2            15.1664760177      -16.9529528697       56.2460563138  TIP3      2876            0.0000000000
     60142      4236  TIP3      H1             14.5689255230      -16.1808794864       56.1808289679  TIP3      2876            0.0000000000
     60143      4236  TIP3      H2             15.2320243028      -17.0214627898       57.2147990019  TIP3      2876            0.0000000000
     60144      4237  TIP3      OH2             8.5939248664       -9.0755207907       48.3858983676  TIP3      2877            0.0000000000
     60145      4237  TIP3      H1              8.2982846042       -9.3400396244       47.5069099511  TIP3      2877            0.0000000000
     60146      4237  TIP3      H2              8.2947713300       -8.1445501483       48.4462627915  TIP3      2877            0.0000000000
     60147      4238  TIP3      OH2             3.8401078608      -10.8915288701       55.0708991103  TIP3      2878            0.0000000000
     60148      4238  TIP3      H1              3.1196733940      -10.2659923157       55.2989195365  TIP3      2878            0.0000000000
     60149      4238  TIP3      H2              4.5447489011      -10.2912252583       54.7954466041  TIP3      2878            0.0000000000
     60150      4239  TIP3      OH2            11.9444675609      -18.0318413638       51.1615097889  TIP3      2879            0.0000000000
     60151      4239  TIP3      H1             11.7304677050      -18.7995789048       51.6992169193  TIP3      2879            0.0000000000
     60152      4239  TIP3      H2             12.6125710311      -17.5897711518       51.7115477453  TIP3      2879            0.0000000000
     60153      4240  TIP3      OH2             2.2801166320       -8.9151186311       55.9015250161  TIP3      2880            0.0000000000
     60154      4240  TIP3      H1              2.2327174444       -8.0050642904       55.5617837357  TIP3      2880            0.0000000000
     60155      4240  TIP3      H2              1.3948639730       -8.9898032564       56.3343056407  TIP3      2880            0.0000000000
     60156      4241  TIP3      OH2            -1.6314141970       -9.3006457920       46.6646079037  TIP3      2881            0.0000000000
     60157      4241  TIP3      H1             -1.9062045720       -8.9595953400       45.7863363462  TIP3      2881            0.0000000000
     60158      4241  TIP3      H2             -1.5651924862       -8.4753383499       47.1911140151  TIP3      2881            0.0000000000
     60159      4242  TIP3      OH2            12.2759682136      -19.3372653709       54.8312227493  TIP3      2882            0.0000000000
     60160      4242  TIP3      H1             11.5493894326      -18.7049199194       54.7538720405  TIP3      2882            0.0000000000
     60161      4242  TIP3      H2             12.9927296374      -18.9197645640       54.3119732552  TIP3      2882            0.0000000000
     60162      4243  TIP3      OH2            10.2067164470       -5.8197210058       50.0519780104  TIP3      2883            0.0000000000
     60163      4243  TIP3      H1             10.6260680137       -6.5696162208       49.5826903146  TIP3      2883            0.0000000000
     60164      4243  TIP3      H2             10.6115938448       -5.0961363050       49.5983641620  TIP3      2883            0.0000000000
     60165      4244  TIP3      OH2            11.4742674342       -7.9449750585       48.5397739708  TIP3      2884            0.0000000000
     60166      4244  TIP3      H1             11.1128573919       -8.6377800410       47.9615106225  TIP3      2884            0.0000000000
     60167      4244  TIP3      H2             11.4761728356       -8.3991436714       49.4053477886  TIP3      2884            0.0000000000
     60168      4245  TIP3      OH2             7.5520384583      -12.4291259791       46.8134093244  TIP3      2885            0.0000000000
     60169      4245  TIP3      H1              6.8504377865      -11.8659767139       46.4377859317  TIP3      2885            0.0000000000
     60170      4245  TIP3      H2              8.2463328335      -12.3316213484       46.1351620051  TIP3      2885            0.0000000000
     60171      4246  TIP3      OH2             7.6512980192      -13.8802950227       43.9178120708  TIP3      2886            0.0000000000
     60172      4246  TIP3      H1              8.3747365475      -13.9225074818       44.5487758156  TIP3      2886            0.0000000000
     60173      4246  TIP3      H2              7.8869901811      -14.5304300483       43.2525670481  TIP3      2886            0.0000000000
     60174      4247  TIP3      OH2            14.9366034978      -13.0251173086       55.0905273747  TIP3      2887            0.0000000000
     60175      4247  TIP3      H1             14.2767426851      -12.3057541146       55.1910358715  TIP3      2887            0.0000000000
     60176      4247  TIP3      H2             15.3843290680      -12.7690447916       54.2886590019  TIP3      2887            0.0000000000
     60177      4248  TIP3      OH2            10.9771423744      -12.2416781747       47.7368215991  TIP3      2888            0.0000000000
     60178      4248  TIP3      H1             10.2554549980      -11.9760403811       48.3540984246  TIP3      2888            0.0000000000
     60179      4248  TIP3      H2             11.4712853805      -12.8952967348       48.2702463461  TIP3      2888            0.0000000000
     60180      4249  TIP3      OH2            10.9277521216      -14.0482734607       56.8446763793  TIP3      2889            0.0000000000
     60181      4249  TIP3      H1             10.9171343917      -13.2471940687       57.3862844786  TIP3      2889            0.0000000000
     60182      4249  TIP3      H2             10.2857976293      -13.7689246195       56.1593878949  TIP3      2889            0.0000000000
     60183      4250  TIP3      OH2             2.5384843978      -11.6185081328       49.6656351786  TIP3      2890            0.0000000000
     60184      4250  TIP3      H1              2.3720403586      -11.8405377461       48.7269880380  TIP3      2890            0.0000000000
     60185      4250  TIP3      H2              3.2773334954      -12.2001642121       49.9902477208  TIP3      2890            0.0000000000
     60186      4251  TIP3      OH2             3.9495038260       -8.1249730026       52.3270688577  TIP3      2891            0.0000000000
     60187      4251  TIP3      H1              3.9123463959       -8.6904774915       51.5429357652  TIP3      2891            0.0000000000
     60188      4251  TIP3      H2              4.7082343376       -8.5198231324       52.7991669046  TIP3      2891            0.0000000000
     60189      4252  TIP3      OH2             2.9168070879      -12.7723309907       53.2769011312  TIP3      2892            0.0000000000
     60190      4252  TIP3      H1              3.5211205881      -12.7065281327       52.5222124238  TIP3      2892            0.0000000000
     60191      4252  TIP3      H2              3.3174084999      -12.1654845609       53.9396361345  TIP3      2892            0.0000000000
     60192      4253  TIP3      OH2             9.3216019773       -7.2510739964       54.0260009348  TIP3      2893            0.0000000000
     60193      4253  TIP3      H1              9.0452080120       -6.6289213757       54.6842938213  TIP3      2893            0.0000000000
     60194      4253  TIP3      H2              9.0973368093       -8.1219814125       54.4291243436  TIP3      2893            0.0000000000
     60195      4254  TIP3      OH2             3.8807527186       -8.3952511690       58.0065976816  TIP3      2894            0.0000000000
     60196      4254  TIP3      H1              3.4977214201       -7.6374373400       58.4900299444  TIP3      2894            0.0000000000
     60197      4254  TIP3      H2              3.2093856785       -8.5798264326       57.3077011806  TIP3      2894            0.0000000000
     60198      4255  TIP3      OH2             9.8696764016      -13.0537143688       45.3894112557  TIP3      2895            0.0000000000
     60199      4255  TIP3      H1             10.3804506123      -12.8440178839       46.2104561789  TIP3      2895            0.0000000000
     60200      4255  TIP3      H2             10.2695477884      -12.4759449284       44.7312200462  TIP3      2895            0.0000000000
     60201      4256  TIP3      OH2             0.8018735437      -12.1948245981       57.1584232867  TIP3      2896            0.0000000000
     60202      4256  TIP3      H1              0.8765948806      -11.5523921491       57.8864216169  TIP3      2896            0.0000000000
     60203      4256  TIP3      H2             -0.1305284970      -12.1139489599       56.9329263212  TIP3      2896            0.0000000000
     60204      4257  TIP3      OH2             7.5889518961       -6.2801885164       48.8558450254  TIP3      2897            0.0000000000
     60205      4257  TIP3      H1              8.0401844778       -6.0186443928       49.6671442218  TIP3      2897            0.0000000000
     60206      4257  TIP3      H2              6.9901174726       -5.5656361401       48.6337428421  TIP3      2897            0.0000000000
     60207      4258  TIP3      OH2             2.1234939396       -6.3663486144       58.7673866511  TIP3      2898            0.0000000000
     60208      4258  TIP3      H1              2.0772808709       -6.4620479582       57.7991784508  TIP3      2898            0.0000000000
     60209      4258  TIP3      H2              1.1885440879       -6.4900123242       59.0280880611  TIP3      2898            0.0000000000
     60210      4259  TIP3      OH2            13.5797720489      -21.2988987014       45.3048228859  TIP3      2899            0.0000000000
     60211      4259  TIP3      H1             12.6275496600      -21.1708070910       45.5314315435  TIP3      2899            0.0000000000
     60212      4259  TIP3      H2             13.8054422029      -20.4489687098       44.8927457639  TIP3      2899            0.0000000000
     60213      4260  TIP3      OH2             1.5381392209      -12.5028227478       47.2534433475  TIP3      2900            0.0000000000
     60214      4260  TIP3      H1              1.3227817540      -11.7098451922       46.6974881541  TIP3      2900            0.0000000000
     60215      4260  TIP3      H2              0.8596088822      -13.0835679682       46.8934311860  TIP3      2900            0.0000000000
     60216      4261  TIP3      OH2            -2.3137492056      -10.1193158654       56.1286199886  TIP3      2901            0.0000000000
     60217      4261  TIP3      H1             -2.7859988473      -10.1749245140       55.2819183248  TIP3      2901            0.0000000000
     60218      4261  TIP3      H2             -2.2768354158      -11.0666727090       56.3639877401  TIP3      2901            0.0000000000
     60219      4262  TIP3      OH2            -2.5750894738       -7.4019248068       52.9597398038  TIP3      2902            0.0000000000
     60220      4262  TIP3      H1             -1.6146820991       -7.4876428554       52.9192843172  TIP3      2902            0.0000000000
     60221      4262  TIP3      H2             -2.6925046594       -6.5599849354       53.4298710417  TIP3      2902            0.0000000000
     60222      4263  TIP3      OH2            15.6972941921       -6.6979418314       58.6326417676  TIP3      2903            0.0000000000
     60223      4263  TIP3      H1             15.5487823134       -7.6460957832       58.6017707738  TIP3      2903            0.0000000000
     60224      4263  TIP3      H2             14.8315235240       -6.3972877610       59.0069230674  TIP3      2903            0.0000000000
     60225      4264  TIP3      OH2             6.5565982124       -7.0789750355       57.4190449577  TIP3      2904            0.0000000000
     60226      4264  TIP3      H1              6.7271166625       -6.3337185220       58.0166633535  TIP3      2904            0.0000000000
     60227      4264  TIP3      H2              5.7506225788       -7.4916637003       57.7753972473  TIP3      2904            0.0000000000
     60228      4265  TIP3      OH2             0.6993457591       -4.5432586138       49.0963418911  TIP3      2905            0.0000000000
     60229      4265  TIP3      H1              0.8289770669       -4.9061457882       49.9983288311  TIP3      2905            0.0000000000
     60230      4265  TIP3      H2             -0.1680496259       -4.9125287879       48.8858513206  TIP3      2905            0.0000000000
     60231      4266  TIP3      OH2            12.7780953207      -15.1979391226       59.1375589884  TIP3      2906            0.0000000000
     60232      4266  TIP3      H1             12.3649294403      -14.7525252122       58.3849178779  TIP3      2906            0.0000000000
     60233      4266  TIP3      H2             12.8357575562      -16.1079671830       58.8116234662  TIP3      2906            0.0000000000
     60234      4267  TIP3      OH2            -0.0526671945       -8.7852370489       57.0953143163  TIP3      2907            0.0000000000
     60235      4267  TIP3      H1              0.1518513386       -9.1421806238       57.9855842791  TIP3      2907            0.0000000000
     60236      4267  TIP3      H2             -0.9228196076       -9.1883905331       56.8900010662  TIP3      2907            0.0000000000
     60237      4268  TIP3      OH2             7.2723750560      -20.6250496418       56.4288271785  TIP3      2908            0.0000000000
     60238      4268  TIP3      H1              7.6558296555      -21.0461416605       57.2180835075  TIP3      2908            0.0000000000
     60239      4268  TIP3      H2              6.3031061806      -20.7792547621       56.5899012639  TIP3      2908            0.0000000000
     60240      4269  TIP3      OH2            10.5572262734      -16.8078477346       57.3061113367  TIP3      2909            0.0000000000
     60241      4269  TIP3      H1             10.0128055050      -17.0170441676       58.1018746218  TIP3      2909            0.0000000000
     60242      4269  TIP3      H2             10.3785688783      -15.8789342249       57.0886777680  TIP3      2909            0.0000000000
     60243      4270  TIP3      OH2             6.8849695352      -18.0898947298       43.7311424061  TIP3      2910            0.0000000000
     60244      4270  TIP3      H1              6.5857379063      -18.1047382333       44.6679017708  TIP3      2910            0.0000000000
     60245      4270  TIP3      H2              6.6402831924      -18.9877189673       43.5166250182  TIP3      2910            0.0000000000
     60246      4271  TIP3      OH2             2.7425275314      -15.3620997810       54.2983663017  TIP3      2911            0.0000000000
     60247      4271  TIP3      H1              1.9733779103      -15.3719633904       54.8849458604  TIP3      2911            0.0000000000
     60248      4271  TIP3      H2              2.6846709222      -14.4503239005       53.9489964606  TIP3      2911            0.0000000000
     60249      4272  TIP3      OH2             2.8058260594      -15.4153838410       49.1519772611  TIP3      2912            0.0000000000
     60250      4272  TIP3      H1              1.8673748419      -15.6923670704       49.0807681519  TIP3      2912            0.0000000000
     60251      4272  TIP3      H2              3.2119786293      -15.6306304606       48.2909779099  TIP3      2912            0.0000000000
     60252      4273  TIP3      OH2             8.2111345684      -14.7509904426       47.9332555264  TIP3      2913            0.0000000000
     60253      4273  TIP3      H1              7.7987774938      -13.9199360659       47.6072193874  TIP3      2913            0.0000000000
     60254      4273  TIP3      H2              8.9032598484      -14.8919216153       47.2676672481  TIP3      2913            0.0000000000
     60255      4274  TIP3      OH2             7.2737109334      -14.5429682993       59.3487759296  TIP3      2914            0.0000000000
     60256      4274  TIP3      H1              6.7119863608      -15.2746632779       59.6925992460  TIP3      2914            0.0000000000
     60257      4274  TIP3      H2              8.0820830437      -14.6402751689       59.8755651654  TIP3      2914            0.0000000000
     60258      4275  TIP3      OH2             9.2274543358      -15.2467367530       50.7841785234  TIP3      2915            0.0000000000
     60259      4275  TIP3      H1              8.9658865747      -14.6788361006       50.0393643102  TIP3      2915            0.0000000000
     60260      4275  TIP3      H2              9.3402795136      -16.0927822082       50.3102681574  TIP3      2915            0.0000000000
     60261      4276  TIP3      OH2             0.3662758454      -15.0842075913       55.9906258090  TIP3      2916            0.0000000000
     60262      4276  TIP3      H1              0.4139430922      -14.6693939475       56.8666788255  TIP3      2916            0.0000000000
     60263      4276  TIP3      H2             -0.1343454264      -15.8881083291       56.1365769269  TIP3      2916            0.0000000000
     60264      4277  TIP3      OH2             8.4321977861      -13.6520532190       55.3490227988  TIP3      2917            0.0000000000
     60265      4277  TIP3      H1              8.8108246772      -14.3359119422       54.7610104510  TIP3      2917            0.0000000000
     60266      4277  TIP3      H2              7.9730309495      -14.1860965086       56.0213534910  TIP3      2917            0.0000000000
     60267      4278  TIP3      OH2             5.2435301921      -17.6585910844       50.1653481002  TIP3      2918            0.0000000000
     60268      4278  TIP3      H1              4.3223722790      -17.6680918947       50.4755339589  TIP3      2918            0.0000000000
     60269      4278  TIP3      H2              5.7415905980      -17.8177670010       50.9783216245  TIP3      2918            0.0000000000
     60270      4279  TIP3      OH2             0.1601899892      -16.0088587654       48.9049217847  TIP3      2919            0.0000000000
     60271      4279  TIP3      H1             -0.8127202493      -15.9504895155       48.6950802919  TIP3      2919            0.0000000000
     60272      4279  TIP3      H2              0.2990026756      -16.9436957097       48.6828364057  TIP3      2919            0.0000000000
     60273      4280  TIP3      OH2             9.6452372376      -18.4478936331       53.4149575831  TIP3      2920            0.0000000000
     60274      4280  TIP3      H1              8.9651281048      -18.3894028819       54.1217358488  TIP3      2920            0.0000000000
     60275      4280  TIP3      H2              9.1355724523      -18.6931455463       52.6293623534  TIP3      2920            0.0000000000
     60276      4281  TIP3      OH2            12.9421134402       -2.8317939533       59.7102407095  TIP3      2921            0.0000000000
     60277      4281  TIP3      H1             13.1246998488       -2.3492931492       58.9100508528  TIP3      2921            0.0000000000
     60278      4281  TIP3      H2             13.5711037362       -2.4828156208       60.3696851242  TIP3      2921            0.0000000000
     60279      4282  TIP3      OH2             0.5263507311      -10.3246826312       59.3144094151  TIP3      2922            0.0000000000
     60280      4282  TIP3      H1              1.2338928331      -10.0825495184       59.9384933228  TIP3      2922            0.0000000000
     60281      4282  TIP3      H2             -0.2654889992      -10.1835754179       59.8841675685  TIP3      2922            0.0000000000
     60282      4283  TIP3      OH2             6.5523810297      -14.9146673312       52.0861401788  TIP3      2923            0.0000000000
     60283      4283  TIP3      H1              7.1145629435      -15.4737662908       51.5373263370  TIP3      2923            0.0000000000
     60284      4283  TIP3      H2              6.3814710680      -15.4694578522       52.8608614592  TIP3      2923            0.0000000000
     60285      4284  TIP3      OH2             5.1767582576      -16.6056805792       54.5013823935  TIP3      2924            0.0000000000
     60286      4284  TIP3      H1              4.3500975709      -16.0684079016       54.5511766878  TIP3      2924            0.0000000000
     60287      4284  TIP3      H2              5.7095327223      -16.2319482273       55.2329813924  TIP3      2924            0.0000000000
     60288      4285  TIP3      OH2             5.7710062592      -10.3417215987       46.1892531433  TIP3      2925            0.0000000000
     60289      4285  TIP3      H1              4.9953552433      -10.8159682027       45.8243926899  TIP3      2925            0.0000000000
     60290      4285  TIP3      H2              5.5634520083      -10.2534136281       47.1342237975  TIP3      2925            0.0000000000
     60291      4286  TIP3      OH2            12.9205732633      -11.1848967636       54.9972543224  TIP3      2926            0.0000000000
     60292      4286  TIP3      H1             13.4981471155      -10.6804461033       54.3919038849  TIP3      2926            0.0000000000
     60293      4286  TIP3      H2             12.0663422006      -11.1085679978       54.5292615453  TIP3      2926            0.0000000000
     60294      4287  TIP3      OH2             9.6122163896      -17.5778268830       44.3499522477  TIP3      2927            0.0000000000
     60295      4287  TIP3      H1              8.6609294377      -17.4377086482       44.1976516040  TIP3      2927            0.0000000000
     60296      4287  TIP3      H2              9.9046486692      -16.7017899547       44.6708343647  TIP3      2927            0.0000000000
     60297      4288  TIP3      OH2             7.2648808029      -10.1261449103       57.4091465530  TIP3      2928            0.0000000000
     60298      4288  TIP3      H1              6.9160947892      -10.5315194017       58.2133796026  TIP3      2928            0.0000000000
     60299      4288  TIP3      H2              7.0410439127       -9.1923200306       57.5285156377  TIP3      2928            0.0000000000
     60300      4289  TIP3      OH2            10.3431494349      -15.6502554199       46.0191742665  TIP3      2929            0.0000000000
     60301      4289  TIP3      H1             11.2355278492      -15.7824615609       46.3945690623  TIP3      2929            0.0000000000
     60302      4289  TIP3      H2             10.4133714252      -14.8228449313       45.5146134533  TIP3      2929            0.0000000000
     60303      4290  TIP3      OH2             0.8271454158      -11.0229382790       51.9379940289  TIP3      2930            0.0000000000
     60304      4290  TIP3      H1              1.5710210889      -11.0482217356       51.3146543335  TIP3      2930            0.0000000000
     60305      4290  TIP3      H2              0.9382251367      -11.8341079034       52.4672879583  TIP3      2930            0.0000000000
     60306      4291  TIP3      OH2            -2.1151649849      -12.6114802160       57.2544507533  TIP3      2931            0.0000000000
     60307      4291  TIP3      H1             -1.9866344596      -13.0481153927       58.1026722826  TIP3      2931            0.0000000000
     60308      4291  TIP3      H2             -2.7747045572      -13.1865751664       56.8240384526  TIP3      2931            0.0000000000
     60309      4292  TIP3      OH2             4.8476617188      -13.0141241873       59.4326056747  TIP3      2932            0.0000000000
     60310      4292  TIP3      H1              4.5792894560      -13.2993514424       58.5521070889  TIP3      2932            0.0000000000
     60311      4292  TIP3      H2              5.7728572383      -13.3294455840       59.4551585131  TIP3      2932            0.0000000000
     60312      4293  TIP3      OH2            15.1769380177      -15.5095541507       45.7875889279  TIP3      2933            0.0000000000
     60313      4293  TIP3      H1             14.6560286499      -15.8226321800       45.0338489152  TIP3      2933            0.0000000000
     60314      4293  TIP3      H2             15.3120026101      -14.5830187646       45.4914640655  TIP3      2933            0.0000000000
     60315      4294  TIP3      OH2            15.1865421622       -9.6840249773       58.5499301982  TIP3      2934            0.0000000000
     60316      4294  TIP3      H1             14.3394801715       -9.4125473487       58.1681165169  TIP3      2934            0.0000000000
     60317      4294  TIP3      H2             15.7918598750       -9.6718899635       57.7909351179  TIP3      2934            0.0000000000
     60318      4295  TIP3      OH2            13.5267196455       -6.6520022294       46.1517634999  TIP3      2935            0.0000000000
     60319      4295  TIP3      H1             13.1599409575       -7.4741029778       46.5132361826  TIP3      2935            0.0000000000
     60320      4295  TIP3      H2             13.7853496052       -6.8858432268       45.2562524784  TIP3      2935            0.0000000000
     60321      4296  TIP3      OH2            10.7048050501      -11.8564317588       53.2709902681  TIP3      2936            0.0000000000
     60322      4296  TIP3      H1              9.7636592355      -12.0710571308       53.1557368755  TIP3      2936            0.0000000000
     60323      4296  TIP3      H2             11.1343692680      -12.6193560964       52.8360767424  TIP3      2936            0.0000000000
     60324      4297  TIP3      OH2             3.2319927590       -7.5182427271       49.3652967347  TIP3      2937            0.0000000000
     60325      4297  TIP3      H1              3.7403309373       -6.7252948640       49.1344589302  TIP3      2937            0.0000000000
     60326      4297  TIP3      H2              2.3477245100       -7.2859359708       49.0495248375  TIP3      2937            0.0000000000
     60327      4298  TIP3      OH2            -0.9744062144      -12.6949029936       43.9375494583  TIP3      2938            0.0000000000
     60328      4298  TIP3      H1             -0.4163476999      -12.0096487774       44.3207330880  TIP3      2938            0.0000000000
     60329      4298  TIP3      H2             -1.8767277235      -12.4259120190       44.1947939762  TIP3      2938            0.0000000000
     60330      4299  TIP3      OH2             4.6372837733       -9.8688829221       48.8759436654  TIP3      2939            0.0000000000
     60331      4299  TIP3      H1              4.3624155824       -8.9336109167       48.9703094025  TIP3      2939            0.0000000000
     60332      4299  TIP3      H2              3.9295816049      -10.3211914626       49.3520806019  TIP3      2939            0.0000000000
     60333      4300  TIP3      OH2             5.1176326892       -5.6784952436       55.2521708468  TIP3      2940            0.0000000000
     60334      4300  TIP3      H1              5.5402270006       -4.8370704520       55.0504958562  TIP3      2940            0.0000000000
     60335      4300  TIP3      H2              5.6901223732       -6.0253644308       55.9700153005  TIP3      2940            0.0000000000
     60336      4301  TIP3      OH2             3.3457085845       -4.8480943482       48.4358448712  TIP3      2941            0.0000000000
     60337      4301  TIP3      H1              2.3738808710       -4.7117457586       48.5510408376  TIP3      2941            0.0000000000
     60338      4301  TIP3      H2              3.7021807580       -4.0173711813       48.7758145463  TIP3      2941            0.0000000000
     60339      4302  TIP3      OH2             8.6802831801       -9.6540415354       54.9628331179  TIP3      2942            0.0000000000
     60340      4302  TIP3      H1              8.2691961791       -9.8942317113       55.8187988728  TIP3      2942            0.0000000000
     60341      4302  TIP3      H2              9.2717612061      -10.3949054626       54.7615952104  TIP3      2942            0.0000000000
     60342      4303  TIP3      OH2            11.7575359493      -10.0002514584       46.2757713004  TIP3      2943            0.0000000000
     60343      4303  TIP3      H1             11.4983658208      -10.7859066390       46.7877564384  TIP3      2943            0.0000000000
     60344      4303  TIP3      H2             12.7040829475       -9.9220601264       46.4486732126  TIP3      2943            0.0000000000
     60345      4304  TIP3      OH2            -0.8704671803       -6.0458787515       55.2094376704  TIP3      2944            0.0000000000
     60346      4304  TIP3      H1             -0.5973382640       -6.9720202365       55.2069670224  TIP3      2944            0.0000000000
     60347      4304  TIP3      H2             -0.6053537462       -5.7842025499       56.0972407661  TIP3      2944            0.0000000000
     60348      4305  TIP3      OH2             3.8502941565       -7.9766151337       44.8801831926  TIP3      2945            0.0000000000
     60349      4305  TIP3      H1              4.1317172061       -8.5205360102       45.6338118446  TIP3      2945            0.0000000000
     60350      4305  TIP3      H2              3.9479745133       -7.0724984997       45.2664750281  TIP3      2945            0.0000000000
     60351      4306  TIP3      OH2             0.3809959716      -10.7334208142       45.4487582586  TIP3      2946            0.0000000000
     60352      4306  TIP3      H1             -0.3243986613      -10.2984099112       45.9851783900  TIP3      2946            0.0000000000
     60353      4306  TIP3      H2              0.9015113191       -9.9644997565       45.1572386875  TIP3      2946            0.0000000000
     60354      4307  TIP3      OH2             8.2353175218      -18.0804779783       55.7304586555  TIP3      2947            0.0000000000
     60355      4307  TIP3      H1              8.9280314776      -18.0101735128       56.3982212349  TIP3      2947            0.0000000000
     60356      4307  TIP3      H2              7.8455945189      -18.9496440116       55.9400418536  TIP3      2947            0.0000000000
     60357      4308  TIP3      OH2             8.9665454896      -18.4727167522       46.8681552008  TIP3      2948            0.0000000000
     60358      4308  TIP3      H1              9.2101528123      -18.0343110240       46.0285761862  TIP3      2948            0.0000000000
     60359      4308  TIP3      H2              9.5498672864      -18.0274844152       47.4922599469  TIP3      2948            0.0000000000
     60360      4309  TIP3      OH2             6.1459942530      -16.6996590803       47.6555515297  TIP3      2949            0.0000000000
     60361      4309  TIP3      H1              6.9683774919      -16.1700856692       47.6733675246  TIP3      2949            0.0000000000
     60362      4309  TIP3      H2              5.9605462958      -16.8693904469       48.5900015681  TIP3      2949            0.0000000000
     60363      4310  TIP3      OH2             6.7931431319      -15.6961725083       56.8053986892  TIP3      2950            0.0000000000
     60364      4310  TIP3      H1              6.8447154661      -15.1613808813       57.6265001919  TIP3      2950            0.0000000000
     60365      4310  TIP3      H2              7.3976865770      -16.4315397147       56.9609299197  TIP3      2950            0.0000000000
     60366      4311  TIP3      OH2             7.0851019714      -19.6805848782       48.5527738898  TIP3      2951            0.0000000000
     60367      4311  TIP3      H1              6.7415312185      -19.0175361292       49.1626323812  TIP3      2951            0.0000000000
     60368      4311  TIP3      H2              7.7557122209      -19.1345546322       48.0829529912  TIP3      2951            0.0000000000
     60369      4312  TIP3      OH2             3.9846793380       -5.2740203559       45.6153933028  TIP3      2952            0.0000000000
     60370      4312  TIP3      H1              4.1839077887       -4.4414028373       45.1680123097  TIP3      2952            0.0000000000
     60371      4312  TIP3      H2              3.8048951765       -4.9970534153       46.5393439668  TIP3      2952            0.0000000000
     60372      4313  TIP3      OH2            12.9383334991      -17.8411802604       57.6941719001  TIP3      2953            0.0000000000
     60373      4313  TIP3      H1             12.0101887132      -17.5303541665       57.5638576799  TIP3      2953            0.0000000000
     60374      4313  TIP3      H2             13.2546204984      -17.8470141308       56.7746201191  TIP3      2953            0.0000000000
     60375      4314  TIP3      OH2            11.5380112244      -14.0560129175       51.7300839973  TIP3      2954            0.0000000000
     60376      4314  TIP3      H1             10.7246346711      -14.5042130674       51.4330486275  TIP3      2954            0.0000000000
     60377      4314  TIP3      H2             12.0085560367      -14.7611484559       52.2248681001  TIP3      2954            0.0000000000
     60378      4315  TIP3      OH2             0.9574874460       -8.1042950266       44.2593727472  TIP3      2955            0.0000000000
     60379      4315  TIP3      H1              1.6016940860       -7.5079314617       44.6677462373  TIP3      2955            0.0000000000
     60380      4315  TIP3      H2              1.5057759473       -8.6014188102       43.6549830827  TIP3      2955            0.0000000000
     60381      4316  TIP3      OH2            -0.9316160716       -6.7839615487       48.3044798999  TIP3      2956            0.0000000000
     60382      4316  TIP3      H1             -1.7647989356       -6.3004481315       48.2979346941  TIP3      2956            0.0000000000
     60383      4316  TIP3      H2             -0.4474234843       -6.2839560136       47.6303535229  TIP3      2956            0.0000000000
     60384      4317  TIP3      OH2            -1.5433532030       -4.1699046459       59.5969405090  TIP3      2957            0.0000000000
     60385      4317  TIP3      H1             -1.0640631133       -4.3409287728       60.4241090622  TIP3      2957            0.0000000000
     60386      4317  TIP3      H2             -2.0934098410       -4.9508501418       59.4774140268  TIP3      2957            0.0000000000
     60387      4318  TIP3      OH2             2.9568576415       -5.1883113685       61.2320213192  TIP3      2958            0.0000000000
     60388      4318  TIP3      H1              3.7211746118       -5.7085209894       61.5245100574  TIP3      2958            0.0000000000
     60389      4318  TIP3      H2              2.9048871450       -5.4658716225       60.2888386897  TIP3      2958            0.0000000000
     60390      4319  TIP3      OH2            -1.7827402256      -10.3328817164       60.5735750200  TIP3      2959            0.0000000000
     60391      4319  TIP3      H1             -1.6915633586      -11.2582228911       60.3081333010  TIP3      2959            0.0000000000
     60392      4319  TIP3      H2             -2.5572446487      -10.0520516154       60.0397058144  TIP3      2959            0.0000000000
     60393      4320  TIP3      OH2             4.9074895833      -10.3239044253       59.9881817139  TIP3      2960            0.0000000000
     60394      4320  TIP3      H1              4.5621431942      -10.0431630022       59.1208350431  TIP3      2960            0.0000000000
     60395      4320  TIP3      H2              5.0176450434      -11.2959610664       59.8818805131  TIP3      2960            0.0000000000
     60396      4321  TIP3      OH2            10.6064452924      -10.4647731730       57.3897119329  TIP3      2961            0.0000000000
     60397      4321  TIP3      H1             11.3551366121       -9.8762239972       57.2601716287  TIP3      2961            0.0000000000
     60398      4321  TIP3      H2              9.8621172166       -9.8475793540       57.4304012396  TIP3      2961            0.0000000000
     60399      4322  TIP3      OH2             3.7578807430      -11.9802334928       45.0280470861  TIP3      2962            0.0000000000
     60400      4322  TIP3      H1              3.2630820022      -12.5092893219       45.6614413854  TIP3      2962            0.0000000000
     60401      4322  TIP3      H2              4.0264653593      -12.6516296612       44.3739846298  TIP3      2962            0.0000000000
     60402      4323  TIP3      OH2             8.0462183430      -11.6416079548       60.7313662960  TIP3      2963            0.0000000000
     60403      4323  TIP3      H1              9.0025968483      -11.5882044222       60.6041663302  TIP3      2963            0.0000000000
     60404      4323  TIP3      H2              7.8958371865      -12.4059956654       61.3002373177  TIP3      2963            0.0000000000
     60405      4324  TIP3      OH2            14.1940151403      -11.4184947309       42.6927195970  TIP3      2964            0.0000000000
     60406      4324  TIP3      H1             13.9177706019      -11.8199948535       41.8678967379  TIP3      2964            0.0000000000
     60407      4324  TIP3      H2             14.2269066767      -10.4797238285       42.4830155819  TIP3      2964            0.0000000000
     60408      4325  TIP3      OH2             3.7938612257      -18.4586184117       55.9272898093  TIP3      2965            0.0000000000
     60409      4325  TIP3      H1              4.3236661596      -17.9195357369       55.2946508923  TIP3      2965            0.0000000000
     60410      4325  TIP3      H2              2.9258436861      -18.4523775653       55.5242335701  TIP3      2965            0.0000000000
     60411      4326  TIP3      OH2             5.3904857187      -12.9010998190       56.2403964463  TIP3      2966            0.0000000000
     60412      4326  TIP3      H1              6.0956438164      -13.0908114733       55.6169845064  TIP3      2966            0.0000000000
     60413      4326  TIP3      H2              4.9647698286      -12.1076007110       55.8804823357  TIP3      2966            0.0000000000
     60414      4327  TIP3      OH2             9.7578553479      -15.1601611956       61.1473462807  TIP3      2967            0.0000000000
     60415      4327  TIP3      H1              9.9881119564      -16.0990243017       61.1148709437  TIP3      2967            0.0000000000
     60416      4327  TIP3      H2             10.6315863176      -14.7370716273       61.1749934161  TIP3      2967            0.0000000000
     60417      4328  TIP3      OH2            11.0952515583      -12.3615970181       59.3202791728  TIP3      2968            0.0000000000
     60418      4328  TIP3      H1             10.8370202949      -11.6421195363       58.7076571409  TIP3      2968            0.0000000000
     60419      4328  TIP3      H2             12.0526657461      -12.4148440662       59.1451692195  TIP3      2968            0.0000000000
     60420      4329  TIP3      OH2             4.6435151339      -20.9635060627       56.3008788100  TIP3      2969            0.0000000000
     60421      4329  TIP3      H1              4.4377397104      -20.0000098609       56.2986139140  TIP3      2969            0.0000000000
     60422      4329  TIP3      H2              3.8607558117      -21.3407278158       55.9081983561  TIP3      2969            0.0000000000
     60423      4330  TIP3      OH2             5.8738719352      -16.6889224187       59.9601538875  TIP3      2970            0.0000000000
     60424      4330  TIP3      H1              5.5705961558      -16.8274948254       60.8646750470  TIP3      2970            0.0000000000
     60425      4330  TIP3      H2              5.0644610918      -16.8257913392       59.4366880432  TIP3      2970            0.0000000000
     60426      4331  TIP3      OH2             8.5920654450      -17.5357939703       59.0267839089  TIP3      2971            0.0000000000
     60427      4331  TIP3      H1              7.6308878286      -17.4608433290       59.1753675660  TIP3      2971            0.0000000000
     60428      4331  TIP3      H2              8.8914405499      -18.1354850172       59.7340889757  TIP3      2971            0.0000000000
     60429      4332  TIP3      OH2            10.1539529235      -18.8642626579       60.9636719207  TIP3      2972            0.0000000000
     60430      4332  TIP3      H1             10.1347437027      -19.8421108564       60.9967020412  TIP3      2972            0.0000000000
     60431      4332  TIP3      H2              9.9143632714      -18.5889154661       61.8786029153  TIP3      2972            0.0000000000
     60432      4333  TIP3      OH2            -1.7651805732       -8.5312520859       43.8493225678  TIP3      2973            0.0000000000
     60433      4333  TIP3      H1             -0.8175720188       -8.3626547152       44.0315575210  TIP3      2973            0.0000000000
     60434      4333  TIP3      H2             -1.7708369135       -9.0944846722       43.0748579055  TIP3      2973            0.0000000000
     60435      4334  TIP3      OH2            -3.0072951688       -3.0710622243       48.7716203078  TIP3      2974            0.0000000000
     60436      4334  TIP3      H1             -3.6892817736       -3.5239671256       48.2760926895  TIP3      2974            0.0000000000
     60437      4334  TIP3      H2             -2.7483660624       -3.7292344206       49.4465024149  TIP3      2974            0.0000000000
     60438      4335  TIP3      OH2            -2.1970717947       -4.9593343167       50.6144074636  TIP3      2975            0.0000000000
     60439      4335  TIP3      H1             -2.5588229233       -5.8220490372       50.8617661416  TIP3      2975            0.0000000000
     60440      4335  TIP3      H2             -1.9903323055       -4.6044481827       51.5027052533  TIP3      2975            0.0000000000
     60441      4336  TIP3      OH2            14.6718977631      -10.5333054274       46.6745549869  TIP3      2976            0.0000000000
     60442      4336  TIP3      H1             15.5459099894      -10.1272118741       46.8406528743  TIP3      2976            0.0000000000
     60443      4336  TIP3      H2             14.6958303997      -11.2637995734       47.3082337542  TIP3      2976            0.0000000000
     60444      4337  TIP3      OH2            14.7861519870       -9.7234442281       53.4672758233  TIP3      2977            0.0000000000
     60445      4337  TIP3      H1             15.6196014140      -10.0583395249       53.1252932694  TIP3      2977            0.0000000000
     60446      4337  TIP3      H2             14.9076110976       -8.7655472638       53.3087354792  TIP3      2977            0.0000000000
     60447      4338  TIP3      OH2            15.2596082309      -12.6495593751       44.9256652640  TIP3      2978            0.0000000000
     60448      4338  TIP3      H1             14.8007741766      -12.2617236235       44.1568557832  TIP3      2978            0.0000000000
     60449      4338  TIP3      H2             15.3012892373      -11.9035566692       45.5398497526  TIP3      2978            0.0000000000
     60450      4339  TIP3      OH2            13.6518429255      -15.3961029756       43.4215953050  TIP3      2979            0.0000000000
     60451      4339  TIP3      H1             13.8028121121      -14.7172326247       42.7524645240  TIP3      2979            0.0000000000
     60452      4339  TIP3      H2             13.5237162869      -16.2192655720       42.9218061895  TIP3      2979            0.0000000000
     60453      4340  TIP3      OH2            12.8418778526      -13.9463860616       49.0775328450  TIP3      2980            0.0000000000
     60454      4340  TIP3      H1             12.7161765478      -14.9088586319       49.0251672623  TIP3      2980            0.0000000000
     60455      4340  TIP3      H2             12.5045202358      -13.7431027152       49.9611374826  TIP3      2980            0.0000000000
     60456      4341  TIP3      OH2            -2.1232289802      -11.8568457437       53.1274378294  TIP3      2981            0.0000000000
     60457      4341  TIP3      H1             -1.9560849075      -11.9583575650       52.1692210297  TIP3      2981            0.0000000000
     60458      4341  TIP3      H2             -1.2488363130      -12.0885518246       53.5143068539  TIP3      2981            0.0000000000
     60459      4342  TIP3      OH2            13.7161763571      -11.9855016821       58.8644820854  TIP3      2982            0.0000000000
     60460      4342  TIP3      H1             14.2906962072      -12.7688164703       58.8481041301  TIP3      2982            0.0000000000
     60461      4342  TIP3      H2             14.3351005388      -11.2416165052       58.7335502248  TIP3      2982            0.0000000000
     60462      4343  TIP3      OH2            12.9425911675      -17.9661218463       42.5164989677  TIP3      2983            0.0000000000
     60463      4343  TIP3      H1             13.5299645520      -18.3706102088       43.1858806746  TIP3      2983            0.0000000000
     60464      4343  TIP3      H2             12.0598153108      -18.3222367366       42.7246855087  TIP3      2983            0.0000000000
     60465      4344  TIP3      OH2            12.5356623303      -16.3722216736       47.5438730255  TIP3      2984            0.0000000000
     60466      4344  TIP3      H1             12.8429803863      -17.3020169339       47.6622716584  TIP3      2984            0.0000000000
     60467      4344  TIP3      H2             13.3314583574      -15.9783151565       47.1508515726  TIP3      2984            0.0000000000
     60468      4345  TIP3      OH2            13.1439042132      -15.8464720439       52.9728237337  TIP3      2985            0.0000000000
     60469      4345  TIP3      H1             14.0976112184      -15.6221108405       52.9515333887  TIP3      2985            0.0000000000
     60470      4345  TIP3      H2             12.9528899810      -15.7071425044       53.9154833430  TIP3      2985            0.0000000000
     60471      4346  TIP3      OH2            13.2253283677      -15.1124065844       55.7287482964  TIP3      2986            0.0000000000
     60472      4346  TIP3      H1             12.3551936669      -14.8272583005       56.0838688138  TIP3      2986            0.0000000000
     60473      4346  TIP3      H2             13.6624390817      -14.2464545807       55.5715362772  TIP3      2986            0.0000000000
     60474      4347  TIP3      OH2            -2.5240383238      -16.5877501536       59.2548082921  TIP3      2987            0.0000000000
     60475      4347  TIP3      H1             -1.6159280543      -16.7796178444       59.4974090367  TIP3      2987            0.0000000000
     60476      4347  TIP3      H2             -3.0031108410      -17.3855658584       59.5680199094  TIP3      2987            0.0000000000
     60477      4348  TIP3      OH2            15.5053395316      -21.0802270217       61.0886471744  TIP3      2988            0.0000000000
     60478      4348  TIP3      H1             15.8760105605      -21.7370672757       60.4798619578  TIP3      2988            0.0000000000
     60479      4348  TIP3      H2             15.6080043370      -20.2555079583       60.5713364422  TIP3      2988            0.0000000000
     60480      4349  TIP3      OH2            13.1673041912      -19.0987219393       47.5852722650  TIP3      2989            0.0000000000
     60481      4349  TIP3      H1             13.4013723957      -19.5354984340       48.4338986555  TIP3      2989            0.0000000000
     60482      4349  TIP3      H2             12.5781595932      -19.7414804622       47.1360577165  TIP3      2989            0.0000000000
     60483      4350  TIP3      OH2            15.0046302749      -18.9864605659       59.4928755956  TIP3      2990            0.0000000000
     60484      4350  TIP3      H1             14.0715981672      -18.6957662146       59.4198313835  TIP3      2990            0.0000000000
     60485      4350  TIP3      H2             15.0841400428      -19.4819285552       58.6665378930  TIP3      2990            0.0000000000
     60486      4351  TIP3      OH2            15.0127732282      -19.0637894525       44.1397211683  TIP3      2991            0.0000000000
     60487      4351  TIP3      H1             15.4638153003      -19.7640640301       43.6428306890  TIP3      2991            0.0000000000
     60488      4351  TIP3      H2             15.6986360894      -18.3836680432       44.1757334935  TIP3      2991            0.0000000000
     60489      4352  TIP3      OH2            -0.5071879456       -7.1849322707       59.7262855483  TIP3      2992            0.0000000000
     60490      4352  TIP3      H1             -1.3395250173       -6.9693100327       59.2899341034  TIP3      2992            0.0000000000
     60491      4352  TIP3      H2             -0.7610828491       -7.2226259918       60.6576159076  TIP3      2992            0.0000000000
     60492      4353  TIP3      OH2             2.4366968515       -6.1873117883       56.0289587743  TIP3      2993            0.0000000000
     60493      4353  TIP3      H1              2.0592281011       -5.3477699035       55.7285067658  TIP3      2993            0.0000000000
     60494      4353  TIP3      H2              3.3474353367       -6.0730830323       55.6789620199  TIP3      2993            0.0000000000
     60495      4354  TIP3      OH2            14.0302448877      -20.8625082572       57.2968552891  TIP3      2994            0.0000000000
     60496      4354  TIP3      H1             13.1976882820      -20.5702712888       56.8855394793  TIP3      2994            0.0000000000
     60497      4354  TIP3      H2             14.2110279935      -21.6816025512       56.7849155872  TIP3      2994            0.0000000000
     60498      4355  TIP3      OH2            -0.2035455466       -2.9499526059       56.0157337210  TIP3      2995            0.0000000000
     60499      4355  TIP3      H1             -0.9186426110       -2.4374055757       55.5993151452  TIP3      2995            0.0000000000
     60500      4355  TIP3      H2             -0.5343306499       -3.1030051821       56.9108365855  TIP3      2995            0.0000000000
     60501      4356  TIP3      OH2             2.3039314828       -3.3810316292       55.0849512389  TIP3      2996            0.0000000000
     60502      4356  TIP3      H1              1.4136727519       -3.2085761476       55.4733233617  TIP3      2996            0.0000000000
     60503      4356  TIP3      H2              2.2663379371       -2.8120377131       54.2884631971  TIP3      2996            0.0000000000
     60504      4357  TIP3      OH2            -0.7082163031       -4.2850920420       52.9162173572  TIP3      2997            0.0000000000
     60505      4357  TIP3      H1             -0.7706671363       -4.7441512546       53.7758872031  TIP3      2997            0.0000000000
     60506      4357  TIP3      H2              0.1029355638       -4.6422919412       52.5174987404  TIP3      2997            0.0000000000
     60507      4358  TIP3      OH2             1.3912427820       -5.5773894009       51.5665388102  TIP3      2998            0.0000000000
     60508      4358  TIP3      H1              1.2065548375       -6.5003735582       51.8107829184  TIP3      2998            0.0000000000
     60509      4358  TIP3      H2              2.2320807703       -5.4177194433       52.0383770520  TIP3      2998            0.0000000000
     60510      4359  TIP3      OH2             3.9555271787       -5.0924730586       52.4330508029  TIP3      2999            0.0000000000
     60511      4359  TIP3      H1              4.1505711098       -6.0118889689       52.1942552086  TIP3      2999            0.0000000000
     60512      4359  TIP3      H2              3.9871096567       -5.1439156500       53.4029921627  TIP3      2999            0.0000000000
     60513      4360  TIP3      OH2             7.4386724150      -19.4395658142       51.6022057416  TIP3      3000            0.0000000000
     60514      4360  TIP3      H1              6.7824579199      -20.0856876258       51.8415390163  TIP3      3000            0.0000000000
     60515      4360  TIP3      H2              8.0085717587      -19.9324225009       50.9963914144  TIP3      3000            0.0000000000
     60516      4361  TIP3      OH2            12.5654192805      -21.3868148924       51.6656579011  TIP3      3001            0.0000000000
     60517      4361  TIP3      H1             13.1798306694      -20.7977302189       51.1552312972  TIP3      3001            0.0000000000
     60518      4361  TIP3      H2             11.6851675802      -21.0267401123       51.4298098025  TIP3      3001            0.0000000000
     60519      4362  TIP3      OH2            14.2329266604      -20.1596386820       49.9449628541  TIP3      3002            0.0000000000
     60520      4362  TIP3      H1             14.9261203710      -20.7144692254       49.5202022607  TIP3      3002            0.0000000000
     60521      4362  TIP3      H2             14.7235978703      -19.3106200660       50.0527554980  TIP3      3002            0.0000000000
     60522      4363  TIP3      OH2             9.9764722879      -20.8623882021       50.8557130628  TIP3      3003            0.0000000000
     60523      4363  TIP3      H1              9.9459380037      -20.7570141717       49.8972189471  TIP3      3003            0.0000000000
     60524      4363  TIP3      H2              9.6136502967      -21.7721855251       50.9771156649  TIP3      3003            0.0000000000
     60525      4364  TIP3      OH2            11.2437224182      -20.8369229601       46.5116103793  TIP3      3004            0.0000000000
     60526      4364  TIP3      H1             10.4973144754      -20.2413823979       46.3516204035  TIP3      3004            0.0000000000
     60527      4364  TIP3      H2             10.8097789030      -21.6927390879       46.7401511615  TIP3      3004            0.0000000000
     60528      4365  TIP3      OH2            -1.5387194126       -5.0977807306       46.2014586439  TIP3      3005            0.0000000000
     60529      4365  TIP3      H1             -2.1732385696       -5.1330611935       45.4605985946  TIP3      3005            0.0000000000
     60530      4365  TIP3      H2             -1.4860001461       -4.1414459184       46.3205044271  TIP3      3005            0.0000000000
     60531      4366  TIP3      OH2             5.5116664608      -18.8344077930       46.0394444429  TIP3      3006            0.0000000000
     60532      4366  TIP3      H1              5.6498655906      -19.4425212310       46.7758701096  TIP3      3006            0.0000000000
     60533      4366  TIP3      H2              5.4904735507      -17.9975833080       46.5473860648  TIP3      3006            0.0000000000
     60534      4367  TIP3      OH2            14.1216908458       -4.2437223535       47.1659422764  TIP3      3007            0.0000000000
     60535      4367  TIP3      H1             13.8553739173       -5.0581657972       46.6756823145  TIP3      3007            0.0000000000
     60536      4367  TIP3      H2             13.9330776228       -3.5506858219       46.5472652902  TIP3      3007            0.0000000000
     60537      4368  TIP3      OH2             0.3395664404       -4.1719902578       43.1356780962  TIP3      3008            0.0000000000
     60538      4368  TIP3      H1              0.0154051512       -3.8659082816       43.9993502635  TIP3      3008            0.0000000000
     60539      4368  TIP3      H2              1.1156983978       -4.6612701985       43.3655830666  TIP3      3008            0.0000000000
     60540      4369  TIP3      OH2            10.1090940663      -21.5526803806       60.6784643476  TIP3      3009            0.0000000000
     60541      4369  TIP3      H1             10.1955486567      -22.0805926361       61.4991303056  TIP3      3009            0.0000000000
     60542      4369  TIP3      H2             11.0200925524      -21.6210313118       60.3310216177  TIP3      3009            0.0000000000
     60543      4370  TIP3      OH2            13.3374965434       -5.5147117028       59.2787314545  TIP3      3010            0.0000000000
     60544      4370  TIP3      H1             12.5015864203       -5.6823109872       58.8203755348  TIP3      3010            0.0000000000
     60545      4370  TIP3      H2             13.1915768446       -4.5960159026       59.5893917701  TIP3      3010            0.0000000000
     60546      4371  TIP3      OH2            26.6400809334      -12.4001695969       52.7900972711  TIP3      3011            0.0000000000
     60547      4371  TIP3      H1             26.5852839084      -13.0325757322       53.5091306048  TIP3      3011            0.0000000000
     60548      4371  TIP3      H2             26.2494258538      -12.8727144906       52.0423072627  TIP3      3011            0.0000000000
     60549      4372  TIP3      OH2            19.9081794143       -8.3005533273       52.8620195707  TIP3      3012            0.0000000000
     60550      4372  TIP3      H1             19.5747593475       -9.1520027370       52.5627966983  TIP3      3012            0.0000000000
     60551      4372  TIP3      H2             20.8695310208       -8.4661136293       52.9594036424  TIP3      3012            0.0000000000
     60552      4373  TIP3      OH2            16.4025140159      -14.7269768187       48.4041632024  TIP3      3013            0.0000000000
     60553      4373  TIP3      H1             16.0682774972      -13.8377551279       48.2533965789  TIP3      3013            0.0000000000
     60554      4373  TIP3      H2             15.9657550454      -15.2640020498       47.7256158298  TIP3      3013            0.0000000000
     60555      4374  TIP3      OH2            33.5513256309      -18.2773583617       53.9690029175  TIP3      3014            0.0000000000
     60556      4374  TIP3      H1             33.7537259680      -17.7768817845       54.7909919694  TIP3      3014            0.0000000000
     60557      4374  TIP3      H2             34.1756079680      -17.9079135262       53.3423408808  TIP3      3014            0.0000000000
     60558      4375  TIP3      OH2            28.1171615933      -15.5385900955       53.5583534568  TIP3      3015            0.0000000000
     60559      4375  TIP3      H1             28.3250637930      -16.4893672945       53.5803822052  TIP3      3015            0.0000000000
     60560      4375  TIP3      H2             28.0827301483      -15.3704157710       52.5918387947  TIP3      3015            0.0000000000
     60561      4376  TIP3      OH2            29.0471659607      -17.4438585359       49.1187605321  TIP3      3016            0.0000000000
     60562      4376  TIP3      H1             29.6715291689      -17.6290635224       49.8666298402  TIP3      3016            0.0000000000
     60563      4376  TIP3      H2             29.5330765295      -16.7419659077       48.6620858817  TIP3      3016            0.0000000000
     60564      4377  TIP3      OH2            34.0550033905      -16.8972802622       56.2535996507  TIP3      3017            0.0000000000
     60565      4377  TIP3      H1             33.3516253765      -16.2227008361       56.2004727710  TIP3      3017            0.0000000000
     60566      4377  TIP3      H2             34.0565180775      -17.0886845015       57.2021212608  TIP3      3017            0.0000000000
     60567      4378  TIP3      OH2            27.4245371777       -9.0548398825       48.4234721333  TIP3      3018            0.0000000000
     60568      4378  TIP3      H1             27.2004537353       -9.3621546680       47.5335770902  TIP3      3018            0.0000000000
     60569      4378  TIP3      H2             27.1663764182       -8.1364196823       48.4108719143  TIP3      3018            0.0000000000
     60570      4379  TIP3      OH2            22.6929529933      -10.9067639033       55.0765041197  TIP3      3019            0.0000000000
     60571      4379  TIP3      H1             21.9877687243      -10.2738727590       55.3149100186  TIP3      3019            0.0000000000
     60572      4379  TIP3      H2             23.4124894436      -10.3273089601       54.8447974389  TIP3      3019            0.0000000000
     60573      4380  TIP3      OH2            30.8600401275      -18.1035340183       51.1225152344  TIP3      3020            0.0000000000
     60574      4380  TIP3      H1             30.5636975900      -18.7670037037       51.7573916203  TIP3      3020            0.0000000000
     60575      4380  TIP3      H2             31.4115041635      -17.5566864575       51.7163509442  TIP3      3020            0.0000000000
     60576      4381  TIP3      OH2            21.0579895673       -8.9099463828       55.8019177002  TIP3      3021            0.0000000000
     60577      4381  TIP3      H1             21.0970766007       -7.9585990677       55.6096684398  TIP3      3021            0.0000000000
     60578      4381  TIP3      H2             20.3027116146       -8.9923006201       56.4034606019  TIP3      3021            0.0000000000
     60579      4382  TIP3      OH2            17.1271143677       -9.2699268508       46.6948574574  TIP3      3022            0.0000000000
     60580      4382  TIP3      H1             16.9820878734       -8.9741034375       45.7967856325  TIP3      3022            0.0000000000
     60581      4382  TIP3      H2             17.2772606602       -8.4473018576       47.1954859595  TIP3      3022            0.0000000000
     60582      4383  TIP3      OH2            30.8551001205       -7.6255635486       53.4706445620  TIP3      3023            0.0000000000
     60583      4383  TIP3      H1             29.9036639331       -7.5854020839       53.5705765730  TIP3      3023            0.0000000000
     60584      4383  TIP3      H2             31.1126051026       -6.7103860384       53.2596005542  TIP3      3023            0.0000000000
     60585      4384  TIP3      OH2            31.1189539504      -19.3722125283       54.7690961438  TIP3      3024            0.0000000000
     60586      4384  TIP3      H1             30.4105035869      -18.7103181459       54.7917424744  TIP3      3024            0.0000000000
     60587      4384  TIP3      H2             31.8678093579      -18.8962785975       54.3609339029  TIP3      3024            0.0000000000
     60588      4385  TIP3      OH2            30.3292932577       -7.9511268408       48.5617957738  TIP3      3025            0.0000000000
     60589      4385  TIP3      H1             29.9781306638       -8.6258369560       47.9595261839  TIP3      3025            0.0000000000
     60590      4385  TIP3      H2             30.3022330596       -8.3973615850       49.4097972322  TIP3      3025            0.0000000000
     60591      4386  TIP3      OH2            26.3878719073      -12.4669590166       46.7899982354  TIP3      3026            0.0000000000
     60592      4386  TIP3      H1             25.7232845772      -11.8491587811       46.4590892459  TIP3      3026            0.0000000000
     60593      4386  TIP3      H2             27.1088530653      -12.3389858026       46.1567096615  TIP3      3026            0.0000000000
     60594      4387  TIP3      OH2            29.7350710207      -14.0545982150       56.8294336880  TIP3      3027            0.0000000000
     60595      4387  TIP3      H1             29.7930365186      -13.2562365167       57.3681832084  TIP3      3027            0.0000000000
     60596      4387  TIP3      H2             29.0939085907      -13.7517958142       56.1543640726  TIP3      3027            0.0000000000
     60597      4388  TIP3      OH2            22.7857946219       -8.1852345160       52.3359531327  TIP3      3028            0.0000000000
     60598      4388  TIP3      H1             22.8064899000       -8.7230194898       51.5396593725  TIP3      3028            0.0000000000
     60599      4388  TIP3      H2             23.5844392679       -8.4721093553       52.8036410642  TIP3      3028            0.0000000000
     60600      4389  TIP3      OH2            28.7502191499      -13.0454199975       45.4283267554  TIP3      3029            0.0000000000
     60601      4389  TIP3      H1             29.2818348823      -12.8422380252       46.2077510405  TIP3      3029            0.0000000000
     60602      4389  TIP3      H2             29.1206390466      -12.5056582947       44.7176497985  TIP3      3029            0.0000000000
     60603      4390  TIP3      OH2            32.4258167525      -21.2427657193       45.4378165752  TIP3      3030            0.0000000000
     60604      4390  TIP3      H1             31.4725574232      -21.1468264884       45.4063437365  TIP3      3030            0.0000000000
     60605      4390  TIP3      H2             32.6757884845      -20.5009972336       44.8326936443  TIP3      3030            0.0000000000
     60606      4391  TIP3      OH2            16.2971471240       -7.3832064608       52.9362671609  TIP3      3031            0.0000000000
     60607      4391  TIP3      H1             17.2529614766       -7.4847433555       52.9260071189  TIP3      3031            0.0000000000
     60608      4391  TIP3      H2             16.1951392688       -6.5661170892       53.4397655926  TIP3      3031            0.0000000000
     60609      4392  TIP3      OH2            19.5544104965       -4.5126312935       49.1009418502  TIP3      3032            0.0000000000
     60610      4392  TIP3      H1             19.6928602546       -4.9066493900       49.9884813051  TIP3      3032            0.0000000000
     60611      4392  TIP3      H2             18.7188070729       -4.9437034283       48.8555252114  TIP3      3032            0.0000000000
     60612      4393  TIP3      OH2            26.1008928641      -20.6271681732       56.4132891614  TIP3      3033            0.0000000000
     60613      4393  TIP3      H1             26.5176327862      -21.0756134383       57.1745279203  TIP3      3033            0.0000000000
     60614      4393  TIP3      H2             25.1509977438      -20.8155050145       56.5741010689  TIP3      3033            0.0000000000
     60615      4394  TIP3      OH2            29.3548052713      -16.8450781586       57.2502242432  TIP3      3034            0.0000000000
     60616      4394  TIP3      H1             28.8852558939      -17.0212026701       58.0979809933  TIP3      3034            0.0000000000
     60617      4394  TIP3      H2             29.2756921616      -15.8922232087       57.1297131681  TIP3      3034            0.0000000000
     60618      4395  TIP3      OH2            27.0743337630      -14.7252286755       47.9252999832  TIP3      3035            0.0000000000
     60619      4395  TIP3      H1             26.6534875956      -13.8892207233       47.6121815861  TIP3      3035            0.0000000000
     60620      4395  TIP3      H2             27.7655900931      -14.8758423752       47.2693778526  TIP3      3035            0.0000000000
     60621      4396  TIP3      OH2            26.1615181773      -14.5200832746       59.4209149373  TIP3      3036            0.0000000000
     60622      4396  TIP3      H1             25.6000209007      -15.2665359950       59.7039624042  TIP3      3036            0.0000000000
     60623      4396  TIP3      H2             26.9913546476      -14.6866669515       59.8787536997  TIP3      3036            0.0000000000
     60624      4397  TIP3      OH2            28.0285121161      -15.2687522763       50.7855450486  TIP3      3037            0.0000000000
     60625      4397  TIP3      H1             27.7990241933      -14.6993125686       50.0364703944  TIP3      3037            0.0000000000
     60626      4397  TIP3      H2             28.2179479450      -16.0874946445       50.3149681977  TIP3      3037            0.0000000000
     60627      4398  TIP3      OH2            15.8404714178      -17.9790792042       49.9854060453  TIP3      3038            0.0000000000
     60628      4398  TIP3      H1             16.5359401699      -18.0179739180       50.6665804868  TIP3      3038            0.0000000000
     60629      4398  TIP3      H2             16.3057507487      -18.3169999743       49.1916390139  TIP3      3038            0.0000000000
     60630      4399  TIP3      OH2            27.3323690031      -13.6497664808       55.3765062101  TIP3      3039            0.0000000000
     60631      4399  TIP3      H1             27.6407412747      -14.3402556318       54.7581252341  TIP3      3039            0.0000000000
     60632      4399  TIP3      H2             26.8608473762      -14.1585137638       56.0513308449  TIP3      3039            0.0000000000
     60633      4400  TIP3      OH2            22.5605689108      -16.0950964229       46.6630263456  TIP3      3040            0.0000000000
     60634      4400  TIP3      H1             23.4925172896      -15.9666278785       46.8459304790  TIP3      3040            0.0000000000
     60635      4400  TIP3      H2             22.3366597334      -15.4090763270       46.0381763267  TIP3      3040            0.0000000000
     60636      4401  TIP3      OH2            28.5000044115      -18.4515880561       53.4160733627  TIP3      3041            0.0000000000
     60637      4401  TIP3      H1             27.8297419524      -18.3854739410       54.1343373709  TIP3      3041            0.0000000000
     60638      4401  TIP3      H2             27.9778771870      -18.6713135880       52.6459169706  TIP3      3041            0.0000000000
     60639      4402  TIP3      OH2            25.4198159842      -14.9275875869       52.0771138315  TIP3      3042            0.0000000000
     60640      4402  TIP3      H1             25.9791210004      -15.4578770730       51.4973959559  TIP3      3042            0.0000000000
     60641      4402  TIP3      H2             25.2799736377      -15.4683581148       52.8464832875  TIP3      3042            0.0000000000
     60642      4403  TIP3      OH2            20.3708400163      -18.7846569266       48.4575005093  TIP3      3043            0.0000000000
     60643      4403  TIP3      H1             20.0731810677      -19.7069561748       48.5245617186  TIP3      3043            0.0000000000
     60644      4403  TIP3      H2             21.1962484033      -18.8183609386       47.9728880579  TIP3      3043            0.0000000000
     60645      4404  TIP3      OH2            24.5906674326      -10.4033426192       46.1968045989  TIP3      3044            0.0000000000
     60646      4404  TIP3      H1             23.8037244467      -10.8523398324       45.8771602673  TIP3      3044            0.0000000000
     60647      4404  TIP3      H2             24.3758739942      -10.2430675794       47.1400068468  TIP3      3044            0.0000000000
     60648      4405  TIP3      OH2            28.3960906245      -17.5819321638       44.3966812568  TIP3      3045            0.0000000000
     60649      4405  TIP3      H1             27.4887792862      -17.3664447296       44.1805880990  TIP3      3045            0.0000000000
     60650      4405  TIP3      H2             28.7589510158      -16.7050590559       44.6568594714  TIP3      3045            0.0000000000
     60651      4406  TIP3      OH2            26.1662369574      -10.1246161760       57.4341467711  TIP3      3046            0.0000000000
     60652      4406  TIP3      H1             25.7352904947      -10.5590260614       58.1771077144  TIP3      3046            0.0000000000
     60653      4406  TIP3      H2             25.8625490712       -9.2181706613       57.4926110948  TIP3      3046            0.0000000000
     60654      4407  TIP3      OH2            29.1851680155      -15.6738248758       46.0467497629  TIP3      3047            0.0000000000
     60655      4407  TIP3      H1             30.1035115055      -15.7319397526       46.3541772776  TIP3      3047            0.0000000000
     60656      4407  TIP3      H2             29.2066300778      -14.8380092729       45.5437410947  TIP3      3047            0.0000000000
     60657      4408  TIP3      OH2            26.7297519785       -8.9165569251       45.2601869035  TIP3      3048            0.0000000000
     60658      4408  TIP3      H1             26.4125631466       -8.0577559154       45.5446416377  TIP3      3048            0.0000000000
     60659      4408  TIP3      H2             25.9686652690       -9.4987923764       45.4246457088  TIP3      3048            0.0000000000
     60660      4409  TIP3      OH2            32.3671841214       -6.6633196475       46.1877172938  TIP3      3049            0.0000000000
     60661      4409  TIP3      H1             31.9677944178       -7.4765672043       46.5328051298  TIP3      3049            0.0000000000
     60662      4409  TIP3      H2             32.6142377115       -6.8663217850       45.2922342985  TIP3      3049            0.0000000000
     60663      4410  TIP3      OH2            22.1114093919       -7.5358113782       49.3221082813  TIP3      3050            0.0000000000
     60664      4410  TIP3      H1             22.5838321935       -6.7038910526       49.1595963803  TIP3      3050            0.0000000000
     60665      4410  TIP3      H2             21.2125407425       -7.2861194280       49.0564934015  TIP3      3050            0.0000000000
     60666      4411  TIP3      OH2            23.4718955398       -9.8802283313       48.8472512771  TIP3      3051            0.0000000000
     60667      4411  TIP3      H1             23.2086121022       -8.9456683019       48.9819098722  TIP3      3051            0.0000000000
     60668      4411  TIP3      H2             22.7925750027      -10.3438895840       49.3452107422  TIP3      3051            0.0000000000
     60669      4412  TIP3      OH2            23.9647191587       -5.6762664189       55.2826688272  TIP3      3052            0.0000000000
     60670      4412  TIP3      H1             24.3988515549       -4.8590169487       54.9913004148  TIP3      3052            0.0000000000
     60671      4412  TIP3      H2             24.5455433237       -5.9959982558       55.9799842951  TIP3      3052            0.0000000000
     60672      4413  TIP3      OH2            22.2080784400       -4.8808259710       48.4478676430  TIP3      3053            0.0000000000
     60673      4413  TIP3      H1             21.2428551024       -4.7220700156       48.5271541081  TIP3      3053            0.0000000000
     60674      4413  TIP3      H2             22.5377560907       -4.0448079632       48.7800743708  TIP3      3053            0.0000000000
     60675      4414  TIP3      OH2            27.5904147442       -9.5971760926       54.9780119255  TIP3      3054            0.0000000000
     60676      4414  TIP3      H1             27.1110970350       -9.8793606536       55.7814076311  TIP3      3054            0.0000000000
     60677      4414  TIP3      H2             28.1086697769      -10.3781339783       54.7391214263  TIP3      3054            0.0000000000
     60678      4415  TIP3      OH2            34.2893377490       -4.2135870937       44.1985544148  TIP3      3055            0.0000000000
     60679      4415  TIP3      H1             34.9952259006       -3.5735349228       44.1154026086  TIP3      3055            0.0000000000
     60680      4415  TIP3      H2             33.5661281366       -3.6572503663       44.5250618817  TIP3      3055            0.0000000000
     60681      4416  TIP3      OH2            18.3689973137      -17.8163456449       56.8244031692  TIP3      3056            0.0000000000
     60682      4416  TIP3      H1             17.4626692175      -17.4828671604       56.7571821673  TIP3      3056            0.0000000000
     60683      4416  TIP3      H2             18.2461449419      -18.6660032774       57.2558462408  TIP3      3056            0.0000000000
     60684      4417  TIP3      OH2            30.5266353226       -9.9243273813       46.3897566786  TIP3      3057            0.0000000000
     60685      4417  TIP3      H1             30.3118237500      -10.7351956449       46.8458164425  TIP3      3057            0.0000000000
     60686      4417  TIP3      H2             31.4861631483       -9.8887561596       46.4721875390  TIP3      3057            0.0000000000
     60687      4418  TIP3      OH2            17.9991803461       -6.0341319268       55.2113636761  TIP3      3058            0.0000000000
     60688      4418  TIP3      H1             18.2689626361       -6.9568552387       55.2323854614  TIP3      3058            0.0000000000
     60689      4418  TIP3      H2             18.2234290036       -5.7473874922       56.1064945935  TIP3      3058            0.0000000000
     60690      4419  TIP3      OH2            27.0723035182      -18.0878468449       55.6944753701  TIP3      3059            0.0000000000
     60691      4419  TIP3      H1             27.7588632037      -17.9642412091       56.3782421745  TIP3      3059            0.0000000000
     60692      4419  TIP3      H2             26.6972976887      -18.9564247305       55.9439346396  TIP3      3059            0.0000000000
     60693      4420  TIP3      OH2            28.0217635572      -18.6553704755       46.8648992316  TIP3      3060            0.0000000000
     60694      4420  TIP3      H1             28.0602657626      -18.0391426013       46.0720698556  TIP3      3060            0.0000000000
     60695      4420  TIP3      H2             28.3888768603      -17.9758923622       47.4898022994  TIP3      3060            0.0000000000
     60696      4421  TIP3      OH2            26.1246888212      -19.6992168555       48.5601093814  TIP3      3061            0.0000000000
     60697      4421  TIP3      H1             25.6072136871      -19.1074833259       49.1611635422  TIP3      3061            0.0000000000
     60698      4421  TIP3      H2             26.5681260258      -18.9672451467       48.0969670937  TIP3      3061            0.0000000000
     60699      4422  TIP3      OH2            31.4429251605       -4.8258887381       53.3777995101  TIP3      3062            0.0000000000
     60700      4422  TIP3      H1             31.3613212113       -4.1119856249       52.7156711867  TIP3      3062            0.0000000000
     60701      4422  TIP3      H2             32.4059081878       -4.7363768569       53.5755033939  TIP3      3062            0.0000000000
     60702      4423  TIP3      OH2            18.9578730693      -20.6496799482       52.1924794645  TIP3      3063            0.0000000000
     60703      4423  TIP3      H1             18.8024349579      -20.6296417106       51.2278630584  TIP3      3063            0.0000000000
     60704      4423  TIP3      H2             18.5684426758      -21.5063434597       52.4374561660  TIP3      3063            0.0000000000
     60705      4424  TIP3      OH2            17.9455004770       -6.7318004046       48.3379467803  TIP3      3064            0.0000000000
     60706      4424  TIP3      H1             17.0779922572       -6.3082339815       48.2849607545  TIP3      3064            0.0000000000
     60707      4424  TIP3      H2             18.4170116346       -6.2832491436       47.6264572436  TIP3      3064            0.0000000000
     60708      4425  TIP3      OH2            17.1615086597       -4.1197656224       59.6388133267  TIP3      3065            0.0000000000
     60709      4425  TIP3      H1             17.7588878465       -4.3664199127       60.3677553306  TIP3      3065            0.0000000000
     60710      4425  TIP3      H2             16.7380738520       -4.9626830542       59.3900845446  TIP3      3065            0.0000000000
     60711      4426  TIP3      OH2            28.3666790041       -6.8500308324       59.9041747574  TIP3      3066            0.0000000000
     60712      4426  TIP3      H1             28.0028802201       -7.6900780347       60.2116582979  TIP3      3066            0.0000000000
     60713      4426  TIP3      H2             29.0783012199       -6.6584894845       60.5474000599  TIP3      3066            0.0000000000
     60714      4427  TIP3      OH2            17.0439170177      -10.3343793179       60.6110447216  TIP3      3067            0.0000000000
     60715      4427  TIP3      H1             17.2500367263      -11.2181923060       60.2880198144  TIP3      3067            0.0000000000
     60716      4427  TIP3      H2             16.3415143763      -10.0373706451       60.0209313320  TIP3      3067            0.0000000000
     60717      4428  TIP3      OH2            29.4862809744      -10.4878696861       57.4349776742  TIP3      3068            0.0000000000
     60718      4428  TIP3      H1             30.2376121818       -9.8981188076       57.2901755962  TIP3      3068            0.0000000000
     60719      4428  TIP3      H2             28.7428694978       -9.8740073034       57.4539077718  TIP3      3068            0.0000000000
     60720      4429  TIP3      OH2            26.9187243575      -11.5438286224       60.7950512303  TIP3      3069            0.0000000000
     60721      4429  TIP3      H1             27.8475250546      -11.6108852834       60.5338069559  TIP3      3069            0.0000000000
     60722      4429  TIP3      H2             26.7399602321      -12.3993444264       61.2193273028  TIP3      3069            0.0000000000
     60723      4430  TIP3      OH2            22.3019100737      -16.8499425952       58.4545116816  TIP3      3070            0.0000000000
     60724      4430  TIP3      H1             22.4047868689      -17.5526607681       57.8127135704  TIP3      3070            0.0000000000
     60725      4430  TIP3      H2             22.2910178594      -16.0533811103       57.9050875613  TIP3      3070            0.0000000000
     60726      4431  TIP3      OH2            28.5609053136      -15.1683632333       61.1449432678  TIP3      3071            0.0000000000
     60727      4431  TIP3      H1             28.8170244865      -16.1012788291       61.1006350379  TIP3      3071            0.0000000000
     60728      4431  TIP3      H2             29.4260712892      -14.7560793041       61.1553371051  TIP3      3071            0.0000000000
     60729      4432  TIP3      OH2            23.4101803450      -20.9287878857       56.3866248033  TIP3      3072            0.0000000000
     60730      4432  TIP3      H1             23.2929839537      -19.9870219783       56.2194373268  TIP3      3072            0.0000000000
     60731      4432  TIP3      H2             22.6990895364      -21.3484616604       55.8592417401  TIP3      3072            0.0000000000
     60732      4433  TIP3      OH2            24.7242356145      -16.7454667774       59.9160421780  TIP3      3073            0.0000000000
     60733      4433  TIP3      H1             24.4692270472      -16.7899813691       60.8499367127  TIP3      3073            0.0000000000
     60734      4433  TIP3      H2             23.8762271199      -16.8005324423       59.4446728995  TIP3      3073            0.0000000000
     60735      4434  TIP3      OH2            27.4508944247      -17.5154932615       59.0472072349  TIP3      3074            0.0000000000
     60736      4434  TIP3      H1             26.4870732569      -17.4343957991       59.1774535557  TIP3      3074            0.0000000000
     60737      4434  TIP3      H2             27.7483728275      -18.1285091195       59.7393308665  TIP3      3074            0.0000000000
     60738      4435  TIP3      OH2            28.9831105494      -18.8685409392       60.9678177690  TIP3      3075            0.0000000000
     60739      4435  TIP3      H1             28.9786652620      -19.8417210413       60.9878594039  TIP3      3075            0.0000000000
     60740      4435  TIP3      H2             28.7776085149      -18.5906767834       61.8883322130  TIP3      3075            0.0000000000
     60741      4436  TIP3      OH2            23.6879738825      -21.5908498083       59.0654434108  TIP3      3076            0.0000000000
     60742      4436  TIP3      H1             24.3385210831      -22.3280150907       59.0243681840  TIP3      3076            0.0000000000
     60743      4436  TIP3      H2             23.5707906674      -21.4292606147       58.1124061626  TIP3      3076            0.0000000000
     60744      4437  TIP3      OH2            23.9737605000      -19.9546012082       61.1417567558  TIP3      3077            0.0000000000
     60745      4437  TIP3      H1             23.8807715083      -20.4645564792       60.2953369986  TIP3      3077            0.0000000000
     60746      4437  TIP3      H2             23.4076359135      -19.1917719996       60.9945346091  TIP3      3077            0.0000000000
     60747      4438  TIP3      OH2            15.8706000058       -3.0691984224       48.7472471689  TIP3      3078            0.0000000000
     60748      4438  TIP3      H1             15.1196451632       -3.5613519512       48.3360353064  TIP3      3078            0.0000000000
     60749      4438  TIP3      H2             16.1130185593       -3.7132429351       49.4440837305  TIP3      3078            0.0000000000
     60750      4439  TIP3      OH2            16.6167249082       -4.9144725752       50.6289791085  TIP3      3079            0.0000000000
     60751      4439  TIP3      H1             16.3403840296       -5.8299024782       50.8114611768  TIP3      3079            0.0000000000
     60752      4439  TIP3      H2             16.9058945881       -4.6003042285       51.5066930838  TIP3      3079            0.0000000000
     60753      4440  TIP3      OH2            34.1567253899       -4.1343653101       53.5766397510  TIP3      3080            0.0000000000
     60754      4440  TIP3      H1             34.2123851533       -4.0080691629       54.5390664985  TIP3      3080            0.0000000000
     60755      4440  TIP3      H2             34.9058459872       -3.6044711029       53.2755379052  TIP3      3080            0.0000000000
     60756      4441  TIP3      OH2            33.7984216360       -4.5770848510       56.5058658417  TIP3      3081            0.0000000000
     60757      4441  TIP3      H1             33.2792304668       -5.3268373983       56.1456792308  TIP3      3081            0.0000000000
     60758      4441  TIP3      H2             34.2541529592       -4.9835162685       57.2474122987  TIP3      3081            0.0000000000
     60759      4442  TIP3      OH2            32.2018251774       -8.8334191439       61.1500714715  TIP3      3082            0.0000000000
     60760      4442  TIP3      H1             31.3438339775       -8.9106587166       61.5889940603  TIP3      3082            0.0000000000
     60761      4442  TIP3      H2             32.5906170061       -8.0729166138       61.6346504860  TIP3      3082            0.0000000000
     60762      4443  TIP3      OH2            33.6726462493       -9.6911973868       53.5071126782  TIP3      3083            0.0000000000
     60763      4443  TIP3      H1             34.4885547685      -10.0723086244       53.1769457231  TIP3      3083            0.0000000000
     60764      4443  TIP3      H2             33.7857209788       -8.7470534318       53.3275737394  TIP3      3083            0.0000000000
     60765      4444  TIP3      OH2            32.1859931400       -6.7373552724       55.7525380235  TIP3      3084            0.0000000000
     60766      4444  TIP3      H1             31.4925477104       -6.5347478377       56.3833095535  TIP3      3084            0.0000000000
     60767      4444  TIP3      H2             31.6946462129       -7.2816431836       55.1005212987  TIP3      3084            0.0000000000
     60768      4445  TIP3      OH2            32.0244261485      -15.8272851819       52.9630256664  TIP3      3085            0.0000000000
     60769      4445  TIP3      H1             32.9656280042      -15.6532927171       52.9721975541  TIP3      3085            0.0000000000
     60770      4445  TIP3      H2             31.7857050531      -15.7051121178       53.9015878311  TIP3      3085            0.0000000000
     60771      4446  TIP3      OH2            32.0991779455      -15.0759512468       55.6897922263  TIP3      3086            0.0000000000
     60772      4446  TIP3      H1             31.2392585884      -14.8573618569       56.1285987989  TIP3      3086            0.0000000000
     60773      4446  TIP3      H2             32.4782852746      -14.1949891553       55.5963349839  TIP3      3086            0.0000000000
     60774      4447  TIP3      OH2            16.2860434491      -16.5814092035       59.2929936790  TIP3      3087            0.0000000000
     60775      4447  TIP3      H1             17.2261628729      -16.7428254790       59.4615455170  TIP3      3087            0.0000000000
     60776      4447  TIP3      H2             15.8705956431      -17.4123290151       59.5846773323  TIP3      3087            0.0000000000
     60777      4448  TIP3      OH2            32.0224963649      -19.0907855155       47.5636156054  TIP3      3088            0.0000000000
     60778      4448  TIP3      H1             32.2334736031      -19.4102152338       48.4640551774  TIP3      3088            0.0000000000
     60779      4448  TIP3      H2             31.3840191521      -19.6546895551       47.1040646463  TIP3      3088            0.0000000000
     60780      4449  TIP3      OH2            17.5348524615      -18.2711308857       52.1403416946  TIP3      3089            0.0000000000
     60781      4449  TIP3      H1             17.9995260694      -19.1158171938       52.3559572354  TIP3      3089            0.0000000000
     60782      4449  TIP3      H2             18.0896893396      -17.6216970627       52.5591200888  TIP3      3089            0.0000000000
     60783      4450  TIP3      OH2            15.8295698661      -15.3018089282       53.0915309021  TIP3      3090            0.0000000000
     60784      4450  TIP3      H1             16.3905806810      -15.5789827623       52.3607804308  TIP3      3090            0.0000000000
     60785      4450  TIP3      H2             16.2149262592      -14.5073549056       53.4727197822  TIP3      3090            0.0000000000
     60786      4451  TIP3      OH2            16.1651655974      -19.0054412087       47.2696137402  TIP3      3091            0.0000000000
     60787      4451  TIP3      H1             15.2283743514      -18.8243774263       47.1139359910  TIP3      3091            0.0000000000
     60788      4451  TIP3      H2             16.6053131099      -18.5759121721       46.5358511529  TIP3      3091            0.0000000000
     60789      4452  TIP3      OH2            16.1327279661      -20.3712998229       55.5403859548  TIP3      3092            0.0000000000
     60790      4452  TIP3      H1             15.4603497416      -20.5557185985       56.2196291017  TIP3      3092            0.0000000000
     60791      4452  TIP3      H2             15.6916040881      -19.6892331995       54.9993259223  TIP3      3092            0.0000000000
     60792      4453  TIP3      OH2            18.3141600494       -7.2012731096       59.7210728443  TIP3      3093            0.0000000000
     60793      4453  TIP3      H1             17.4993275403       -6.9347507129       59.2794402795  TIP3      3093            0.0000000000
     60794      4453  TIP3      H2             18.0872787925       -7.2190837568       60.6530417039  TIP3      3093            0.0000000000
     60795      4454  TIP3      OH2            21.2419396780       -6.1908179547       55.9404963486  TIP3      3094            0.0000000000
     60796      4454  TIP3      H1             20.9011894519       -5.3163506367       55.7050283827  TIP3      3094            0.0000000000
     60797      4454  TIP3      H2             22.1905802326       -6.0882309624       55.7230883478  TIP3      3094            0.0000000000
     60798      4455  TIP3      OH2            32.8539016875      -20.8765142453       57.2950509551  TIP3      3095            0.0000000000
     60799      4455  TIP3      H1             32.0397657669      -20.5747881239       56.8654006232  TIP3      3095            0.0000000000
     60800      4455  TIP3      H2             33.0682050374      -21.6741370417       56.7699567908  TIP3      3095            0.0000000000
     60801      4456  TIP3      OH2            18.6912294652       -2.9290166704       55.9933272973  TIP3      3096            0.0000000000
     60802      4456  TIP3      H1             17.9481810711       -2.4464270902       55.5849057752  TIP3      3096            0.0000000000
     60803      4456  TIP3      H2             18.3624302513       -3.1165747481       56.8814426856  TIP3      3096            0.0000000000
     60804      4457  TIP3      OH2            21.1796865737       -3.3167511879       55.0453375594  TIP3      3097            0.0000000000
     60805      4457  TIP3      H1             20.2933750847       -3.2169754349       55.4653927687  TIP3      3097            0.0000000000
     60806      4457  TIP3      H2             21.1002706227       -2.7548567515       54.2549281741  TIP3      3097            0.0000000000
     60807      4458  TIP3      OH2            18.1062613554       -4.3146551991       52.8936791933  TIP3      3098            0.0000000000
     60808      4458  TIP3      H1             18.0715359445       -4.7190309966       53.7847858438  TIP3      3098            0.0000000000
     60809      4458  TIP3      H2             18.9491667452       -4.6567105444       52.5352823634  TIP3      3098            0.0000000000
     60810      4459  TIP3      OH2            20.2161978877       -5.5641885039       51.5819596494  TIP3      3099            0.0000000000
     60811      4459  TIP3      H1             20.0672795242       -6.4943818536       51.7991636146  TIP3      3099            0.0000000000
     60812      4459  TIP3      H2             21.0807210195       -5.4209388057       52.0294275897  TIP3      3099            0.0000000000
     60813      4460  TIP3      OH2            22.7776649224       -5.1112583938       52.4178619410  TIP3      3100            0.0000000000
     60814      4460  TIP3      H1             23.0050128405       -6.0265868535       52.1939193998  TIP3      3100            0.0000000000
     60815      4460  TIP3      H2             22.8638931098       -5.1176674716       53.3839825450  TIP3      3100            0.0000000000
     60816      4461  TIP3      OH2            26.2515497301      -19.4344314425       51.5066620912  TIP3      3101            0.0000000000
     60817      4461  TIP3      H1             25.6136992902      -20.0417913360       51.8829863192  TIP3      3101            0.0000000000
     60818      4461  TIP3      H2             26.8810110281      -19.9876605360       51.0446848574  TIP3      3101            0.0000000000
     60819      4462  TIP3      OH2            31.4001471865      -21.4564526592       51.5632363193  TIP3      3102            0.0000000000
     60820      4462  TIP3      H1             32.0437605908      -20.7814640307       51.2453592767  TIP3      3102            0.0000000000
     60821      4462  TIP3      H2             30.5434170923      -21.0019908020       51.4907745643  TIP3      3102            0.0000000000
     60822      4463  TIP3      OH2            33.0380070963      -20.1680586022       49.8346518282  TIP3      3103            0.0000000000
     60823      4463  TIP3      H1             33.8385251941      -20.6978092884       49.5957258823  TIP3      3103            0.0000000000
     60824      4463  TIP3      H2             33.5161002073      -19.3367257450       50.1065059349  TIP3      3103            0.0000000000
     60825      4464  TIP3      OH2            18.6257852355      -20.7963441781       49.4145254608  TIP3      3104            0.0000000000
     60826      4464  TIP3      H1             17.8196607563      -21.0345925038       48.9229668563  TIP3      3104            0.0000000000
     60827      4464  TIP3      H2             19.1167488752      -21.6406296983       49.3904006588  TIP3      3104            0.0000000000
     60828      4465  TIP3      OH2            23.1888650105      -20.9180732183       49.2169654925  TIP3      3105            0.0000000000
     60829      4465  TIP3      H1             24.0465158933      -20.5084191553       49.2077146055  TIP3      3105            0.0000000000
     60830      4465  TIP3      H2             23.0201061016      -21.0985097704       50.1538119140  TIP3      3105            0.0000000000
     60831      4466  TIP3      OH2            28.7225552332      -20.8627974227       50.8524701342  TIP3      3106            0.0000000000
     60832      4466  TIP3      H1             28.8594974838      -20.7764572289       49.9277215095  TIP3      3106            0.0000000000
     60833      4466  TIP3      H2             28.5011280327      -21.7947672682       51.0313988014  TIP3      3106            0.0000000000
     60834      4467  TIP3      OH2            30.0560561068      -20.8181518841       46.7474811088  TIP3      3107            0.0000000000
     60835      4467  TIP3      H1             29.6276008706      -20.1835358370       46.1163513529  TIP3      3107            0.0000000000
     60836      4467  TIP3      H2             29.8297123276      -21.7621784655       46.5247219477  TIP3      3107            0.0000000000
     60837      4468  TIP3      OH2            17.3251208524       -5.0762005029       46.1847970815  TIP3      3108            0.0000000000
     60838      4468  TIP3      H1             16.6796064894       -5.1358577721       45.4704274270  TIP3      3108            0.0000000000
     60839      4468  TIP3      H2             17.3487606864       -4.1329653213       46.3559343049  TIP3      3108            0.0000000000
     60840      4469  TIP3      OH2            32.9116644504       -4.2616140863       47.2058385129  TIP3      3109            0.0000000000
     60841      4469  TIP3      H1             32.6954389186       -5.0745773136       46.6850879660  TIP3      3109            0.0000000000
     60842      4469  TIP3      H2             32.8602747290       -3.5369595420       46.5889581404  TIP3      3109            0.0000000000
     60843      4470  TIP3      OH2            19.2007598756       -4.1633450074       43.1113503929  TIP3      3110            0.0000000000
     60844      4470  TIP3      H1             18.9047963150       -3.8890765336       43.9841275331  TIP3      3110            0.0000000000
     60845      4470  TIP3      H2             19.9522837357       -4.7158750714       43.3218717983  TIP3      3110            0.0000000000
     60846      4471  TIP3      OH2            28.9655293607      -21.6026999664       60.6425535289  TIP3      3111            0.0000000000
     60847      4471  TIP3      H1             29.0432877393      -22.0782253426       61.4924723469  TIP3      3111            0.0000000000
     60848      4471  TIP3      H2             29.8939085968      -21.5851876036       60.3244360232  TIP3      3111            0.0000000000
     60849      4472  TIP3      OH2            32.1552989030       -5.5100857206       59.2950227746  TIP3      3112            0.0000000000
     60850      4472  TIP3      H1             31.3333136971       -5.7159491783       58.8359207970  TIP3      3112            0.0000000000
     60851      4472  TIP3      H2             32.0506633318       -4.5844283892       59.5401290089  TIP3      3112            0.0000000000
     60852      4473  TIP3      OH2            38.7069525522       -8.3428977114       52.9008429698  TIP3      3113            0.0000000000
     60853      4473  TIP3      H1             38.4095972961       -9.1721326353       52.5187424677  TIP3      3113            0.0000000000
     60854      4473  TIP3      H2             39.6881993467       -8.4512348388       52.9179650553  TIP3      3113            0.0000000000
     60855      4474  TIP3      OH2            39.9626242038      -17.4805008478       50.8275150367  TIP3      3114            0.0000000000
     60856      4474  TIP3      H1             40.2447205164      -16.6980778928       50.3587574378  TIP3      3114            0.0000000000
     60857      4474  TIP3      H2             39.6966689323      -18.0761710952       50.1068212513  TIP3      3114            0.0000000000
     60858      4475  TIP3      OH2            39.6706495323       -8.8583949845       55.7412417028  TIP3      3115            0.0000000000
     60859      4475  TIP3      H1             39.8433569893       -7.9020185499       55.6435661868  TIP3      3115            0.0000000000
     60860      4475  TIP3      H2             39.0352115116       -8.8957448460       56.4602035423  TIP3      3115            0.0000000000
     60861      4476  TIP3      OH2            40.3409203560      -11.5732228976       49.6856723133  TIP3      3116            0.0000000000
     60862      4476  TIP3      H1             39.9941089088      -11.9108939556       48.8383111388  TIP3      3116            0.0000000000
     60863      4476  TIP3      H2             40.9250143057      -12.2544385447       49.9906189337  TIP3      3116            0.0000000000
     60864      4477  TIP3      OH2            39.3224237279      -12.5324174335       47.2671399299  TIP3      3117            0.0000000000
     60865      4477  TIP3      H1             39.0438379940      -11.7441206384       46.7796928994  TIP3      3117            0.0000000000
     60866      4477  TIP3      H2             38.6356126757      -13.1659613170       47.0719259400  TIP3      3117            0.0000000000
     60867      4478  TIP3      OH2            35.1712933444       -7.3469360599       52.8887124636  TIP3      3118            0.0000000000
     60868      4478  TIP3      H1             36.1185601601       -7.4926831789       52.9610342446  TIP3      3118            0.0000000000
     60869      4478  TIP3      H2             35.0479068191       -6.5638828110       53.4479768540  TIP3      3118            0.0000000000
     60870      4479  TIP3      OH2            38.4014931491       -4.5681169013       49.0756208316  TIP3      3119            0.0000000000
     60871      4479  TIP3      H1             38.5455261372       -4.8976314553       49.9875568235  TIP3      3119            0.0000000000
     60872      4479  TIP3      H2             37.5403826357       -4.9498701037       48.8837744655  TIP3      3119            0.0000000000
     60873      4480  TIP3      OH2            40.2725678165      -20.3543071652       53.1324157906  TIP3      3120            0.0000000000
     60874      4480  TIP3      H1             39.4073437358      -20.4395517675       52.6557732317  TIP3      3120            0.0000000000
     60875      4480  TIP3      H2             40.2440087926      -19.4434568694       53.4086444585  TIP3      3120            0.0000000000
     60876      4481  TIP3      OH2            34.7004534183      -18.0608540042       49.9845961485  TIP3      3121            0.0000000000
     60877      4481  TIP3      H1             35.3767336010      -17.9916025121       50.6687078927  TIP3      3121            0.0000000000
     60878      4481  TIP3      H2             35.2053144510      -18.3269161714       49.2018768391  TIP3      3121            0.0000000000
     60879      4482  TIP3      OH2            39.0374010334      -18.7404852554       48.5194281626  TIP3      3122            0.0000000000
     60880      4482  TIP3      H1             38.8716970441      -19.6964305377       48.5791016703  TIP3      3122            0.0000000000
     60881      4482  TIP3      H2             39.9861230477      -18.7862210620       48.2822137730  TIP3      3122            0.0000000000
     60882      4483  TIP3      OH2            36.8346806496       -6.0564993828       55.2393627499  TIP3      3123            0.0000000000
     60883      4483  TIP3      H1             37.1279386223       -6.9733906080       55.2517378819  TIP3      3123            0.0000000000
     60884      4483  TIP3      H2             37.1216979851       -5.7447187159       56.1082057181  TIP3      3123            0.0000000000
     60885      4484  TIP3      OH2           -41.3262800345      -18.4891704593       45.2551786202  TIP3      3124            0.0000000000
     60886      4484  TIP3      H1            -41.1621217216      -17.6093847060       45.6132278776  TIP3      3124            0.0000000000
     60887      4484  TIP3      H2            -40.4371264658      -18.9193040597       45.2966150307  TIP3      3124            0.0000000000
     60888      4485  TIP3      OH2            38.6627585555       -7.9522890949       44.1237332023  TIP3      3125            0.0000000000
     60889      4485  TIP3      H1             39.3440779234       -7.4870151744       44.6416441511  TIP3      3125            0.0000000000
     60890      4485  TIP3      H2             39.2441754222       -8.6229971196       43.7460008002  TIP3      3125            0.0000000000
     60891      4486  TIP3      OH2            37.8831057598      -20.7010041243       52.1182315549  TIP3      3126            0.0000000000
     60892      4486  TIP3      H1             37.6127137868      -20.5991604936       51.1875478745  TIP3      3126            0.0000000000
     60893      4486  TIP3      H2             37.4094768694      -21.5032566146       52.4190141967  TIP3      3126            0.0000000000
     60894      4487  TIP3      OH2            36.7962311160       -6.7778223517       48.3157296228  TIP3      3127            0.0000000000
     60895      4487  TIP3      H1             35.9496060005       -6.3123535593       48.2889184976  TIP3      3127            0.0000000000
     60896      4487  TIP3      H2             37.3128277309       -6.2519551242       47.6978152440  TIP3      3127            0.0000000000
     60897      4488  TIP3      OH2            36.0223179169       -4.1269541968       59.5889782313  TIP3      3128            0.0000000000
     60898      4488  TIP3      H1             36.6163868893       -4.3390826602       60.3176268501  TIP3      3128            0.0000000000
     60899      4488  TIP3      H2             35.5692527750       -4.9485903232       59.4371836304  TIP3      3128            0.0000000000
     60900      4489  TIP3      OH2            39.4552555210      -15.4675406353       60.4279455752  TIP3      3129            0.0000000000
     60901      4489  TIP3      H1             38.7576520986      -16.0922118128       60.1730154325  TIP3      3129            0.0000000000
     60902      4489  TIP3      H2             40.1657212672      -15.7736142367       59.8324532079  TIP3      3129            0.0000000000
     60903      4490  TIP3      OH2            37.7962083023      -17.6249366720       60.0581855972  TIP3      3130            0.0000000000
     60904      4490  TIP3      H1             37.9689952821      -18.3611616183       59.4672163101  TIP3      3130            0.0000000000
     60905      4490  TIP3      H2             37.6348748129      -18.0595318635       60.9167214479  TIP3      3130            0.0000000000
     60906      4491  TIP3      OH2            34.6637071386       -3.0155815577       48.8062846548  TIP3      3131            0.0000000000
     60907      4491  TIP3      H1             33.9805265923       -3.5302464697       48.3271533903  TIP3      3131            0.0000000000
     60908      4491  TIP3      H2             35.0015884884       -3.7084911190       49.4070669463  TIP3      3131            0.0000000000
     60909      4492  TIP3      OH2            35.4811879918       -4.9411359331       50.6238469550  TIP3      3132            0.0000000000
     60910      4492  TIP3      H1             35.1513992922       -5.8333735221       50.8101973604  TIP3      3132            0.0000000000
     60911      4492  TIP3      H2             35.7620620399       -4.6451571016       51.5079073156  TIP3      3132            0.0000000000
     60912      4493  TIP3      OH2            34.9878349476      -20.3825200758       55.5215296576  TIP3      3133            0.0000000000
     60913      4493  TIP3      H1             34.3339925097      -20.5100320480       56.2339989066  TIP3      3133            0.0000000000
     60914      4493  TIP3      H2             34.5431417362      -19.6950380898       55.0026096416  TIP3      3133            0.0000000000
     60915      4494  TIP3      OH2            37.2232566162       -7.1542616759       59.7470917161  TIP3      3134            0.0000000000
     60916      4494  TIP3      H1             36.4082576241       -7.0029726159       59.2646675183  TIP3      3134            0.0000000000
     60917      4494  TIP3      H2             36.9527960759       -7.2037848767       60.6609708207  TIP3      3134            0.0000000000
     60918      4495  TIP3      OH2            40.1592290945       -6.1866073545       56.0118960207  TIP3      3135            0.0000000000
     60919      4495  TIP3      H1             39.7662604544       -5.3491055674       55.7106986802  TIP3      3135            0.0000000000
     60920      4495  TIP3      H2             41.0630192406       -6.0491519503       55.6814681657  TIP3      3135            0.0000000000
     60921      4496  TIP3      OH2            37.5514493883       -2.9362195703       56.0138708450  TIP3      3136            0.0000000000
     60922      4496  TIP3      H1             36.8080233652       -2.4709789524       55.5934355817  TIP3      3136            0.0000000000
     60923      4496  TIP3      H2             37.1740156671       -3.1019791681       56.8913392269  TIP3      3136            0.0000000000
     60924      4497  TIP3      OH2            39.7097556909       -3.7163151191       54.7617263072  TIP3      3137            0.0000000000
     60925      4497  TIP3      H1             39.1037532055       -3.3151623252       55.4258839605  TIP3      3137            0.0000000000
     60926      4497  TIP3      H2             39.9779162128       -2.9021165565       54.3062385205  TIP3      3137            0.0000000000
     60927      4498  TIP3      OH2            36.9300855973       -4.2991022582       52.9312528987  TIP3      3138            0.0000000000
     60928      4498  TIP3      H1             36.9400977706       -4.7342298084       53.8012248291  TIP3      3138            0.0000000000
     60929      4498  TIP3      H2             37.7901579665       -4.5838381316       52.5460651286  TIP3      3138            0.0000000000
     60930      4499  TIP3      OH2            39.0884702245       -5.6061936715       51.5826539698  TIP3      3139            0.0000000000
     60931      4499  TIP3      H1             38.9081966570       -6.5368680747       51.7954786962  TIP3      3139            0.0000000000
     60932      4499  TIP3      H2             39.9176982743       -5.4328253127       52.0530908819  TIP3      3139            0.0000000000
     60933      4500  TIP3      OH2            37.4625121404      -20.8084670467       49.4208175432  TIP3      3140            0.0000000000
     60934      4500  TIP3      H1             36.6988548221      -21.0750068415       48.9117244327  TIP3      3140            0.0000000000
     60935      4500  TIP3      H2             37.9995712552      -21.6241861752       49.4410379325  TIP3      3140            0.0000000000
     60936      4501  TIP3      OH2            36.2347093189      -21.0465011761       45.1158514465  TIP3      3141            0.0000000000
     60937      4501  TIP3      H1             36.7758951574      -20.4012463397       44.6239318320  TIP3      3141            0.0000000000
     60938      4501  TIP3      H2             35.6927087695      -20.4770972579       45.6763707608  TIP3      3141            0.0000000000
     60939      4502  TIP3      OH2            36.2665859420       -5.0401398981       46.0278464936  TIP3      3142            0.0000000000
     60940      4502  TIP3      H1             35.4489783327       -5.0810061170       45.5143370230  TIP3      3142            0.0000000000
     60941      4502  TIP3      H2             36.2059315353       -4.1666401641       46.4424650739  TIP3      3142            0.0000000000
     60942      4503  TIP3      OH2            39.3791702478      -20.8632668563       60.5161999001  TIP3      3143            0.0000000000
     60943      4503  TIP3      H1             40.2608849809      -21.1931856100       60.2770647375  TIP3      3143            0.0000000000
     60944      4503  TIP3      H2             38.9908402120      -21.6549624626       60.9211880983  TIP3      3143            0.0000000000
     60945      4504  TIP3      OH2           -28.8257708751        7.1673803827       49.2500883683  TIP3      3144            0.0000000000
     60946      4504  TIP3      H1            -28.8098381388        8.1428709244       49.3312107435  TIP3      3144            0.0000000000
     60947      4504  TIP3      H2            -29.5892631433        7.0406024765       48.6854186118  TIP3      3144            0.0000000000
     60948      4505  TIP3      OH2           -29.9331019886        6.4279380792       52.7558748960  TIP3      3145            0.0000000000
     60949      4505  TIP3      H1            -29.9911699170        5.8190940590       53.4996197430  TIP3      3145            0.0000000000
     60950      4505  TIP3      H2            -30.3624214221        5.9456017449       52.0435109871  TIP3      3145            0.0000000000
     60951      4506  TIP3      OH2           -37.5959538772        6.0686192376       54.3426357453  TIP3      3146            0.0000000000
     60952      4506  TIP3      H1            -37.5338389439        5.4372103792       55.0770064918  TIP3      3146            0.0000000000
     60953      4506  TIP3      H2            -36.9278207722        6.7343103387       54.5544647255  TIP3      3146            0.0000000000
     60954      4507  TIP3      OH2           -39.9558382893        4.2934814818       48.0470299238  TIP3      3147            0.0000000000
     60955      4507  TIP3      H1            -40.5042781907        5.0446707100       48.3057753590  TIP3      3147            0.0000000000
     60956      4507  TIP3      H2            -40.5891843592        3.6071786158       47.8320726649  TIP3      3147            0.0000000000
     60957      4508  TIP3      OH2           -39.1913789575        6.2861428768       50.5266477034  TIP3      3148            0.0000000000
     60958      4508  TIP3      H1            -38.9891723817        5.4507656607       50.9995527304  TIP3      3148            0.0000000000
     60959      4508  TIP3      H2            -38.5120903353        6.3459306280       49.8452992260  TIP3      3148            0.0000000000
     60960      4509  TIP3      OH2           -22.9111674802        0.4789104655       54.0724460958  TIP3      3149            0.0000000000
     60961      4509  TIP3      H1            -22.8140180875        1.1109830227       54.7980704163  TIP3      3149            0.0000000000
     60962      4509  TIP3      H2            -22.4256849322        0.9051165789       53.3590773435  TIP3      3149            0.0000000000
     60963      4510  TIP3      OH2           -28.4078661012        3.2602611567       53.5552525773  TIP3      3150            0.0000000000
     60964      4510  TIP3      H1            -28.2630010666        2.2972636316       53.5453004669  TIP3      3150            0.0000000000
     60965      4510  TIP3      H2            -28.5397910109        3.4798062221       52.6233642531  TIP3      3150            0.0000000000
     60966      4511  TIP3      OH2           -35.3698103620        1.4456004972       50.8055619436  TIP3      3151            0.0000000000
     60967      4511  TIP3      H1            -35.1634612563        2.2673748606       50.3023363739  TIP3      3151            0.0000000000
     60968      4511  TIP3      H2            -35.6913172401        0.8430050593       50.0923558894  TIP3      3151            0.0000000000
     60969      4512  TIP3      OH2           -27.5576855722        1.6550145288       49.1735815874  TIP3      3152            0.0000000000
     60970      4512  TIP3      H1            -26.9779058502        1.1533216177       49.7930042539  TIP3      3152            0.0000000000
     60971      4512  TIP3      H2            -26.8702055597        1.9078720590       48.5543249303  TIP3      3152            0.0000000000
     60972      4513  TIP3      OH2           -38.5415869684        3.8894116785       51.6011224235  TIP3      3153            0.0000000000
     60973      4513  TIP3      H1            -37.9672129565        3.2152199798       51.9790870857  TIP3      3153            0.0000000000
     60974      4513  TIP3      H2            -38.6263857376        3.5365645454       50.6905221110  TIP3      3153            0.0000000000
     60975      4514  TIP3      OH2           -33.5219445532        5.3438131741       50.8262930262  TIP3      3154            0.0000000000
     60976      4514  TIP3      H1            -32.8909380638        4.7937380459       51.2994214275  TIP3      3154            0.0000000000
     60977      4514  TIP3      H2            -34.0462392800        4.6856371448       50.3283288808  TIP3      3154            0.0000000000
     60978      4515  TIP3      OH2           -22.4581872300        2.0047384887       56.3102651468  TIP3      3155            0.0000000000
     60979      4515  TIP3      H1            -23.1788008843        2.6540399607       56.1598839722  TIP3      3155            0.0000000000
     60980      4515  TIP3      H2            -22.5614091599        1.7989572120       57.2438646961  TIP3      3155            0.0000000000
     60981      4516  TIP3      OH2           -36.2065477660        0.3633585074       54.8571048743  TIP3      3156            0.0000000000
     60982      4516  TIP3      H1            -36.5798135766        0.8478148935       54.1004575120  TIP3      3156            0.0000000000
     60983      4516  TIP3      H2            -36.9498256517        0.4374079199       55.5043595623  TIP3      3156            0.0000000000
     60984      4517  TIP3      OH2           -36.6936350231        2.2242201722       52.9921345548  TIP3      3157            0.0000000000
     60985      4517  TIP3      H1            -36.0536508127        2.9091115069       53.2051646665  TIP3      3157            0.0000000000
     60986      4517  TIP3      H2            -36.3123162697        1.8074723032       52.1676163888  TIP3      3157            0.0000000000
     60987      4518  TIP3      OH2           -30.1066194102        6.5444630105       46.7578281695  TIP3      3158            0.0000000000
     60988      4518  TIP3      H1            -30.8836969124        7.0504460272       46.4063042285  TIP3      3158            0.0000000000
     60989      4518  TIP3      H2            -29.4690949639        6.6482550700       46.0328657429  TIP3      3158            0.0000000000
     60990      4519  TIP3      OH2           -30.1324379745        4.8169638004       43.9555906367  TIP3      3159            0.0000000000
     60991      4519  TIP3      H1            -29.3250235562        4.9931633351       44.4435555938  TIP3      3159            0.0000000000
     60992      4519  TIP3      H2            -29.8107787798        4.3016903570       43.2052774756  TIP3      3159            0.0000000000
     60993      4520  TIP3      OH2           -22.8168047338        5.8259361908       55.1318165507  TIP3      3160            0.0000000000
     60994      4520  TIP3      H1            -23.4448403882        6.5744522132       55.1813662100  TIP3      3160            0.0000000000
     60995      4520  TIP3      H2            -22.3190441571        6.0894365955       54.3443601926  TIP3      3160            0.0000000000
     60996      4521  TIP3      OH2           -26.8388336779        6.4150779281       47.7241970617  TIP3      3161            0.0000000000
     60997      4521  TIP3      H1            -27.3837725788        6.9599608359       48.3545616315  TIP3      3161            0.0000000000
     60998      4521  TIP3      H2            -26.1473115619        6.0462315098       48.3067243071  TIP3      3161            0.0000000000
     60999      4522  TIP3      OH2           -26.8120369364        4.7997920105       56.8661296318  TIP3      3162            0.0000000000
     61000      4522  TIP3      H1            -26.7686424913        5.6235737392       57.3629500820  TIP3      3162            0.0000000000
     61001      4522  TIP3      H2            -27.4196135997        5.1029390516       56.1554673556  TIP3      3162            0.0000000000
     61002      4523  TIP3      OH2           -35.0838149367        7.3197054512       49.6169217715  TIP3      3163            0.0000000000
     61003      4523  TIP3      H1            -35.4085679592        6.8716432476       48.8084306768  TIP3      3163            0.0000000000
     61004      4523  TIP3      H2            -34.5037761593        6.6368439895       50.0242790070  TIP3      3163            0.0000000000
     61005      4524  TIP3      OH2           -27.8198031976        5.7458436506       45.4555204860  TIP3      3164            0.0000000000
     61006      4524  TIP3      H1            -27.2554861150        6.1023140339       46.2024145154  TIP3      3164            0.0000000000
     61007      4524  TIP3      H2            -27.5383955319        6.3312660971       44.7230213960  TIP3      3164            0.0000000000
     61008      4525  TIP3      OH2           -36.0933862231        6.3417677737       47.2532200242  TIP3      3165            0.0000000000
     61009      4525  TIP3      H1            -36.4073193360        7.1013135155       46.7560548289  TIP3      3165            0.0000000000
     61010      4525  TIP3      H2            -36.7675098978        5.6708620542       47.0714343142  TIP3      3165            0.0000000000
     61011      4526  TIP3      OH2           -39.6162492850        8.4898259537       55.8757787690  TIP3      3166            0.0000000000
     61012      4526  TIP3      H1            -40.4232235374        8.7253129936       55.3779419823  TIP3      3166            0.0000000000
     61013      4526  TIP3      H2            -39.9743119889        7.7804704106       56.4431620896  TIP3      3166            0.0000000000
     61014      4527  TIP3      OH2           -40.2378641642       11.5592752606       52.9101580859  TIP3      3167            0.0000000000
     61015      4527  TIP3      H1            -39.3135231183       11.3083161418       52.9504379420  TIP3      3167            0.0000000000
     61016      4527  TIP3      H2            -40.3693486666       12.2667437842       53.5570699210  TIP3      3167            0.0000000000
     61017      4528  TIP3      OH2           -30.5535932505       15.4800718796       47.2495608212  TIP3      3168            0.0000000000
     61018      4528  TIP3      H1            -30.7945772756       15.4040402033       46.3183750122  TIP3      3168            0.0000000000
     61019      4528  TIP3      H2            -30.6785597598       16.4304349635       47.4491043310  TIP3      3168            0.0000000000
     61020      4529  TIP3      OH2           -27.9120559569       14.6367382386       47.1309995096  TIP3      3169            0.0000000000
     61021      4529  TIP3      H1            -28.8849458862       14.6937030395       47.2336435478  TIP3      3169            0.0000000000
     61022      4529  TIP3      H2            -27.6598925422       13.8570167222       47.6257181929  TIP3      3169            0.0000000000
     61023      4530  TIP3      OH2           -24.9369416471        3.6356156995       59.1126976024  TIP3      3170            0.0000000000
     61024      4530  TIP3      H1            -25.3459198030        4.1169851846       58.3723257766  TIP3      3170            0.0000000000
     61025      4530  TIP3      H2            -24.8879422645        2.7342363551       58.7524593577  TIP3      3170            0.0000000000
     61026      4531  TIP3      OH2           -35.1119649761       -1.4635695016       53.1280400175  TIP3      3171            0.0000000000
     61027      4531  TIP3      H1            -35.9227909017       -1.6183255541       52.6174111354  TIP3      3171            0.0000000000
     61028      4531  TIP3      H2            -35.2075817472       -0.6062236214       53.5638186499  TIP3      3171            0.0000000000
     61029      4532  TIP3      OH2           -30.4342029179       -1.7577191003       56.4564692678  TIP3      3172            0.0000000000
     61030      4532  TIP3      H1            -30.1029344051       -2.1812185241       57.2475065960  TIP3      3172            0.0000000000
     61031      4532  TIP3      H2            -31.3933302132       -1.8955575138       56.5374329925  TIP3      3172            0.0000000000
     61032      4533  TIP3      OH2           -27.1888830279        2.0002747752       57.3341877399  TIP3      3173            0.0000000000
     61033      4533  TIP3      H1            -27.6946220010        1.8890581618       58.1490937604  TIP3      3173            0.0000000000
     61034      4533  TIP3      H2            -27.3104740746        2.9238767024       57.0576990733  TIP3      3173            0.0000000000
     61035      4534  TIP3      OH2           -34.9664796716        3.5610582042       54.2998391927  TIP3      3174            0.0000000000
     61036      4534  TIP3      H1            -35.6854071016        3.4987616729       54.9596619857  TIP3      3174            0.0000000000
     61037      4534  TIP3      H2            -35.0408315589        4.4414867621       53.9269126527  TIP3      3174            0.0000000000
     61038      4535  TIP3      OH2           -34.9185701841        3.6410749051       49.1856750808  TIP3      3175            0.0000000000
     61039      4535  TIP3      H1            -35.8814751178        3.4737072426       49.0374720864  TIP3      3175            0.0000000000
     61040      4535  TIP3      H2            -34.6132721886        3.3288933911       48.3160228052  TIP3      3175            0.0000000000
     61041      4536  TIP3      OH2           -30.4594854617        4.4530856761       47.9088491916  TIP3      3176            0.0000000000
     61042      4536  TIP3      H1            -30.4196988778        5.4507967059       47.8294130014  TIP3      3176            0.0000000000
     61043      4536  TIP3      H2            -30.1721129527        4.4475443580       46.9724834265  TIP3      3176            0.0000000000
     61044      4537  TIP3      OH2           -30.4320721346        4.2599986701       59.3901644007  TIP3      3177            0.0000000000
     61045      4537  TIP3      H1            -31.0032580128        3.5527035302       59.7262981973  TIP3      3177            0.0000000000
     61046      4537  TIP3      H2            -29.6096113436        4.1943505683       59.8995036198  TIP3      3177            0.0000000000
     61047      4538  TIP3      OH2           -28.4355815705        3.5714386177       50.7553211987  TIP3      3178            0.0000000000
     61048      4538  TIP3      H1            -28.7974576965        4.2232729090       50.1556608026  TIP3      3178            0.0000000000
     61049      4538  TIP3      H2            -28.3695820084        2.6933488562       50.3340907738  TIP3      3178            0.0000000000
     61050      4539  TIP3      OH2           -37.3577068037        3.8232177145       56.0190503159  TIP3      3179            0.0000000000
     61051      4539  TIP3      H1            -37.3107818214        4.1691149825       56.9231447764  TIP3      3179            0.0000000000
     61052      4539  TIP3      H2            -37.7237965094        2.9423969580       56.2296596159  TIP3      3179            0.0000000000
     61053      4540  TIP3      OH2           -40.3332890963       -0.9881793256       49.8315924468  TIP3      3180            0.0000000000
     61054      4540  TIP3      H1            -40.1819369855       -0.2187708657       50.4230329300  TIP3      3180            0.0000000000
     61055      4540  TIP3      H2            -40.2981627992       -0.2831236957       49.0962295744  TIP3      3180            0.0000000000
     61056      4541  TIP3      OH2           -39.8126996855        2.1618589222       46.1000451061  TIP3      3181            0.0000000000
     61057      4541  TIP3      H1            -39.2661197969        2.4854530076       45.3327797862  TIP3      3181            0.0000000000
     61058      4541  TIP3      H2            -40.6479688296        2.4214048480       45.7645951421  TIP3      3181            0.0000000000
     61059      4542  TIP3      OH2           -29.3084419586        5.1827786999       55.3564839213  TIP3      3182            0.0000000000
     61060      4542  TIP3      H1            -28.9151348990        4.5347352593       54.7391358993  TIP3      3182            0.0000000000
     61061      4542  TIP3      H2            -29.7297989320        4.6214143304       56.0275290229  TIP3      3182            0.0000000000
     61062      4543  TIP3      OH2           -32.4067643266        1.1823775892       50.2094926355  TIP3      3183            0.0000000000
     61063      4543  TIP3      H1            -33.3625249307        1.1765196158       50.4356935006  TIP3      3183            0.0000000000
     61064      4543  TIP3      H2            -32.0159648327        1.0008255039       51.0753235275  TIP3      3183            0.0000000000
     61065      4544  TIP3      OH2           -37.3892283749        3.1383996667       48.7950658070  TIP3      3184            0.0000000000
     61066      4544  TIP3      H1            -38.3680677448        3.1100297997       48.6847653556  TIP3      3184            0.0000000000
     61067      4544  TIP3      H2            -37.2484928651        2.1703017369       48.6873054357  TIP3      3184            0.0000000000
     61068      4545  TIP3      OH2           -34.0290250891        2.8418449913       46.7398924613  TIP3      3185            0.0000000000
     61069      4545  TIP3      H1            -33.0692880550        2.8274974539       46.8002435806  TIP3      3185            0.0000000000
     61070      4545  TIP3      H2            -34.2408197260        3.4025407510       45.9750374272  TIP3      3185            0.0000000000
     61071      4546  TIP3      OH2           -28.0775145958        0.3931670615       53.4048696700  TIP3      3186            0.0000000000
     61072      4546  TIP3      H1            -28.7390879119        0.4772031594       54.1248565249  TIP3      3186            0.0000000000
     61073      4546  TIP3      H2            -28.6238537885        0.1853091136       52.6441045687  TIP3      3186            0.0000000000
     61074      4547  TIP3      OH2           -35.3336022907        4.0077601587       44.2319370255  TIP3      3187            0.0000000000
     61075      4547  TIP3      H1            -35.8260940371        3.5536575454       43.5263093677  TIP3      3187            0.0000000000
     61076      4547  TIP3      H2            -34.4760210376        4.1717860947       43.8023669097  TIP3      3187            0.0000000000
     61077      4548  TIP3      OH2           -31.1640691572        3.9215930289       52.0544858744  TIP3      3188            0.0000000000
     61078      4548  TIP3      H1            -30.5956707217        3.3401993682       51.5643969167  TIP3      3188            0.0000000000
     61079      4548  TIP3      H2            -31.3366227067        3.4112163486       52.8685409602  TIP3      3188            0.0000000000
     61080      4549  TIP3      OH2           -36.0860184975        0.0500093209       48.5828010458  TIP3      3189            0.0000000000
     61081      4549  TIP3      H1            -36.4689515566       -0.8453579190       48.4857402445  TIP3      3189            0.0000000000
     61082      4549  TIP3      H2            -35.3762702658        0.0133927651       47.9202326310  TIP3      3189            0.0000000000
     61083      4550  TIP3      OH2           -32.5196020049        2.2988459293       54.4744280394  TIP3      3190            0.0000000000
     61084      4550  TIP3      H1            -33.3573327500        2.7872319589       54.5828617299  TIP3      3190            0.0000000000
     61085      4550  TIP3      H2            -31.9876583390        2.5769414077       55.2417390111  TIP3      3190            0.0000000000
     61086      4551  TIP3      OH2           -31.9446584837        8.4298413556       46.2004081570  TIP3      3191            0.0000000000
     61087      4551  TIP3      H1            -32.7590669511        8.0284448779       45.8318828574  TIP3      3191            0.0000000000
     61088      4551  TIP3      H2            -32.1513131143        8.5993838185       47.1146012445  TIP3      3191            0.0000000000
     61089      4552  TIP3      OH2           -24.8155622325        7.6478448512       54.9639426574  TIP3      3192            0.0000000000
     61090      4552  TIP3      H1            -24.2130505191        8.1695052515       54.4011251026  TIP3      3192            0.0000000000
     61091      4552  TIP3      H2            -25.6648719456        7.7585764202       54.4932487266  TIP3      3192            0.0000000000
     61092      4553  TIP3      OH2           -30.4883112927        8.7030011915       57.4186095985  TIP3      3193            0.0000000000
     61093      4553  TIP3      H1            -30.7741088429        8.3219820145       58.2546283517  TIP3      3193            0.0000000000
     61094      4553  TIP3      H2            -30.6592715396        9.6440106681       57.5167740205  TIP3      3193            0.0000000000
     61095      4554  TIP3      OH2           -27.3424467111        3.2281038423       46.0267175083  TIP3      3194            0.0000000000
     61096      4554  TIP3      H1            -26.4019620134        3.0140262933       46.2502590560  TIP3      3194            0.0000000000
     61097      4554  TIP3      H2            -27.2220570848        3.9548031965       45.3716631272  TIP3      3194            0.0000000000
     61098      4555  TIP3      OH2           -39.8379614690        6.2225693259       57.2273221938  TIP3      3195            0.0000000000
     61099      4555  TIP3      H1            -39.6944329505        5.8350672456       58.0984077768  TIP3      3195            0.0000000000
     61100      4555  TIP3      H2            -40.5033238677        5.6509046837       56.8406888324  TIP3      3195            0.0000000000
     61101      4556  TIP3      OH2           -32.8606441642        5.7937373295       59.4653475981  TIP3      3196            0.0000000000
     61102      4556  TIP3      H1            -33.1374369064        5.5486766131       58.5749042065  TIP3      3196            0.0000000000
     61103      4556  TIP3      H2            -31.9138692525        5.5602743489       59.4296371184  TIP3      3196            0.0000000000
     61104      4557  TIP3      OH2           -22.5666724966        3.3954282665       45.7740066248  TIP3      3197            0.0000000000
     61105      4557  TIP3      H1            -23.0089985822        3.0244866914       45.0024887446  TIP3      3197            0.0000000000
     61106      4557  TIP3      H2            -22.3841334646        4.3188306185       45.4702229665  TIP3      3197            0.0000000000
     61107      4558  TIP3      OH2           -27.0020527268        6.9785117472       53.2727221492  TIP3      3198            0.0000000000
     61108      4558  TIP3      H1            -27.9528234249        6.8088812742       53.1668598937  TIP3      3198            0.0000000000
     61109      4558  TIP3      H2            -26.5857121599        6.2360468304       52.8095816971  TIP3      3198            0.0000000000
     61110      4559  TIP3      OH2           -38.0547736403        1.2209517193       57.3767875016  TIP3      3199            0.0000000000
     61111      4559  TIP3      H1            -38.8834563473        1.4373151828       56.8973613882  TIP3      3199            0.0000000000
     61112      4559  TIP3      H2            -38.1276094379        0.2395827297       57.3277807472  TIP3      3199            0.0000000000
     61113      4560  TIP3      OH2           -38.7559906761       12.7586662121       55.3441639095  TIP3      3200            0.0000000000
     61114      4560  TIP3      H1            -38.3677274263       11.8744368545       55.2711284338  TIP3      3200            0.0000000000
     61115      4560  TIP3      H2            -38.3384932924       13.1156520851       56.1480791959  TIP3      3200            0.0000000000
     61116      4561  TIP3      OH2           -29.4838258933        0.7857847328       55.7406491793  TIP3      3201            0.0000000000
     61117      4561  TIP3      H1            -28.7343757005        0.8273504110       56.3482692339  TIP3      3201            0.0000000000
     61118      4561  TIP3      H2            -29.8566212904       -0.1056245345       55.9113329526  TIP3      3201            0.0000000000
     61119      4562  TIP3      OH2           -31.4592094765        2.0115037139       47.6531355101  TIP3      3202            0.0000000000
     61120      4562  TIP3      H1            -30.8563698429        2.7199357766       47.7310853310  TIP3      3202            0.0000000000
     61121      4562  TIP3      H2            -31.8593236935        1.9335376191       48.5465908381  TIP3      3202            0.0000000000
     61122      4563  TIP3      OH2           -30.9224871260        3.1795823911       56.7825713442  TIP3      3203            0.0000000000
     61123      4563  TIP3      H1            -30.8899304727        3.6963107405       57.6089721896  TIP3      3203            0.0000000000
     61124      4563  TIP3      H2            -30.3339170475        2.4193332841       56.9081068941  TIP3      3203            0.0000000000
     61125      4564  TIP3      OH2           -30.5971670607       -0.8330124758       48.5774788932  TIP3      3204            0.0000000000
     61126      4564  TIP3      H1            -31.0300525123       -0.2167387671       49.1969680579  TIP3      3204            0.0000000000
     61127      4564  TIP3      H2            -29.9839025927       -0.2580734756       48.1077016848  TIP3      3204            0.0000000000
     61128      4565  TIP3      OH2           -34.9634836682        0.2705214035       45.5731674435  TIP3      3205            0.0000000000
     61129      4565  TIP3      H1            -34.9951597408        1.2354324998       45.6314566526  TIP3      3205            0.0000000000
     61130      4565  TIP3      H2            -34.0208526897        0.0823215671       45.4882629486  TIP3      3205            0.0000000000
     61131      4566  TIP3      OH2           -24.6904243077        1.1384998113       57.5863121214  TIP3      3206            0.0000000000
     61132      4566  TIP3      H1            -25.6604621539        1.2824655822       57.4984497120  TIP3      3206            0.0000000000
     61133      4566  TIP3      H2            -24.4493685659        0.9749363896       56.6690646770  TIP3      3206            0.0000000000
     61134      4567  TIP3      OH2           -26.1268615895        4.7571659845       51.6330163308  TIP3      3207            0.0000000000
     61135      4567  TIP3      H1            -26.9906890440        4.3370335736       51.5145648770  TIP3      3207            0.0000000000
     61136      4567  TIP3      H2            -25.6636360351        4.1384771692       52.2547031166  TIP3      3207            0.0000000000
     61137      4568  TIP3      OH2           -36.9903805380       -2.4971262790       51.5499713130  TIP3      3208            0.0000000000
     61138      4568  TIP3      H1            -37.5938159870       -1.9285780453       51.0237183635  TIP3      3208            0.0000000000
     61139      4568  TIP3      H2            -37.6691973039       -2.7602313977       52.2134837632  TIP3      3208            0.0000000000
     61140      4569  TIP3      OH2           -32.8023272669        8.4953192528       60.0065598237  TIP3      3209            0.0000000000
     61141      4569  TIP3      H1            -33.1516646390        8.7664492711       59.1559940136  TIP3      3209            0.0000000000
     61142      4569  TIP3      H2            -32.6856143562        7.5311701036       59.9022571178  TIP3      3209            0.0000000000
     61143      4570  TIP3      OH2           -33.9389740959        6.8491684919       45.0646821391  TIP3      3210            0.0000000000
     61144      4570  TIP3      H1            -34.4628565328        6.3293985360       45.6857030335  TIP3      3210            0.0000000000
     61145      4570  TIP3      H2            -33.6848691487        6.1847058032       44.3880340257  TIP3      3210            0.0000000000
     61146      4571  TIP3      OH2           -34.7188858462        4.7044954679       57.3482388591  TIP3      3211            0.0000000000
     61147      4571  TIP3      H1            -35.2998980918        5.4085320155       57.6503707252  TIP3      3211            0.0000000000
     61148      4571  TIP3      H2            -34.2791810673        5.0533799160       56.5511780131  TIP3      3211            0.0000000000
     61149      4572  TIP3      OH2           -32.9254094943        5.0968845836       43.2278617727  TIP3      3212            0.0000000000
     61150      4572  TIP3      H1            -33.0626174410        4.9353206544       42.2869865099  TIP3      3212            0.0000000000
     61151      4572  TIP3      H2            -31.9572393132        5.2215217447       43.3067290212  TIP3      3212            0.0000000000
     61152      4573  TIP3      OH2           -29.6566620549        7.1985072953       60.6457642216  TIP3      3213            0.0000000000
     61153      4573  TIP3      H1            -28.7029200527        7.3197544888       60.6050747410  TIP3      3213            0.0000000000
     61154      4573  TIP3      H2            -29.8096478712        6.5062468216       61.2959891481  TIP3      3213            0.0000000000
     61155      4574  TIP3      OH2           -34.2837040337        2.0828483269       58.4161791557  TIP3      3214            0.0000000000
     61156      4574  TIP3      H1            -34.1754431654        1.3646409071       57.7640698004  TIP3      3214            0.0000000000
     61157      4574  TIP3      H2            -34.4068443719        2.8692861761       57.8676147590  TIP3      3214            0.0000000000
     61158      4575  TIP3      OH2           -33.8722011856        0.5238373152       55.9993059492  TIP3      3215            0.0000000000
     61159      4575  TIP3      H1            -33.3453210496        0.8840119682       55.2600528158  TIP3      3215            0.0000000000
     61160      4575  TIP3      H2            -34.7339756545        0.3297179079       55.5650985227  TIP3      3215            0.0000000000
     61161      4576  TIP3      OH2           -32.3583176378        5.9406298159       56.1798155775  TIP3      3216            0.0000000000
     61162      4576  TIP3      H1            -31.5802811249        5.7541171938       55.6296533264  TIP3      3216            0.0000000000
     61163      4576  TIP3      H2            -32.6385608937        6.8059286352       55.8819337319  TIP3      3216            0.0000000000
     61164      4577  TIP3      OH2           -27.9430524714        3.7253788866       61.1431037144  TIP3      3217            0.0000000000
     61165      4577  TIP3      H1            -27.7391801750        2.7783155672       61.1040433240  TIP3      3217            0.0000000000
     61166      4577  TIP3      H2            -27.0565230276        4.1104938515       61.1879422953  TIP3      3217            0.0000000000
     61167      4578  TIP3      OH2           -35.8308976037        3.3236434753       60.3035801590  TIP3      3218            0.0000000000
     61168      4578  TIP3      H1            -36.6025290083        2.7232957825       60.1859315051  TIP3      3218            0.0000000000
     61169      4578  TIP3      H2            -35.1709578359        2.9015212729       59.7161818055  TIP3      3218            0.0000000000
     61170      4579  TIP3      OH2           -37.6705146593        1.2397529795       60.0381458927  TIP3      3219            0.0000000000
     61171      4579  TIP3      H1            -37.4800215362        0.4892492155       59.4586565545  TIP3      3219            0.0000000000
     61172      4579  TIP3      H2            -37.7347986842        0.8133188620       60.9223887845  TIP3      3219            0.0000000000
     61173      4580  TIP3      OH2           -24.3321432854        9.8686650282       61.3494720914  TIP3      3220            0.0000000000
     61174      4580  TIP3      H1            -25.2586866962        9.9855333751       61.5909230487  TIP3      3220            0.0000000000
     61175      4580  TIP3      H2            -23.9718455841       10.7413064707       61.5763421480  TIP3      3220            0.0000000000
     61176      4581  TIP3      OH2           -22.6645155857        6.3813456426       48.4943563458  TIP3      3221            0.0000000000
     61177      4581  TIP3      H1            -23.4085786316        5.9102890147       48.9043133555  TIP3      3221            0.0000000000
     61178      4581  TIP3      H2            -22.0916782289        6.5907594396       49.2488073046  TIP3      3221            0.0000000000
     61179      4582  TIP3      OH2           -22.9556253173        9.1276089541       53.4424019980  TIP3      3222            0.0000000000
     61180      4582  TIP3      H1            -22.0985585460        8.7389675036       53.1990814019  TIP3      3222            0.0000000000
     61181      4582  TIP3      H2            -22.8001541572       10.0798766857       53.3768692622  TIP3      3222            0.0000000000
     61182      4583  TIP3      OH2           -22.3836541180        6.2333172239       44.8669915560  TIP3      3223            0.0000000000
     61183      4583  TIP3      H1            -22.9457463652        6.6199148518       44.1970837357  TIP3      3223            0.0000000000
     61184      4583  TIP3      H2            -22.3789523132        6.8963336840       45.5759485839  TIP3      3223            0.0000000000
     61185      4584  TIP3      OH2           -24.9625888816        4.9002449446       49.0486417030  TIP3      3224            0.0000000000
     61186      4584  TIP3      H1            -24.9577720973        3.9387632455       49.0728926131  TIP3      3224            0.0000000000
     61187      4584  TIP3      H2            -25.1520359193        5.1521016524       49.9820779694  TIP3      3224            0.0000000000
     61188      4585  TIP3      OH2           -39.9166473792        6.9244793313       53.1063741325  TIP3      3225            0.0000000000
     61189      4585  TIP3      H1            -39.6696953577        6.9024300129       52.1615095588  TIP3      3225            0.0000000000
     61190      4585  TIP3      H2            -39.0282047888        6.8294538540       53.5104377806  TIP3      3225            0.0000000000
     61191      4586  TIP3      OH2           -22.4737164807        4.7796022138       59.4240137736  TIP3      3226            0.0000000000
     61192      4586  TIP3      H1            -23.3629442172        4.4154968791       59.2419219536  TIP3      3226            0.0000000000
     61193      4586  TIP3      H2            -21.9235252158        3.9850789126       59.3369572867  TIP3      3226            0.0000000000
     61194      4587  TIP3      OH2           -25.2221585752        2.4780242678       47.5012280631  TIP3      3227            0.0000000000
     61195      4587  TIP3      H1            -24.8452668109        1.5920263979       47.6553914417  TIP3      3227            0.0000000000
     61196      4587  TIP3      H2            -24.3921762654        2.8778974186       47.1609201317  TIP3      3227            0.0000000000
     61197      4588  TIP3      OH2           -24.5642325721        3.0585201692       52.9767355167  TIP3      3228            0.0000000000
     61198      4588  TIP3      H1            -23.5964617071        3.2535211094       52.9642713833  TIP3      3228            0.0000000000
     61199      4588  TIP3      H2            -24.7406858317        3.1220742595       53.9300950330  TIP3      3228            0.0000000000
     61200      4589  TIP3      OH2           -24.5086016994        3.7781859469       55.7208098552  TIP3      3229            0.0000000000
     61201      4589  TIP3      H1            -25.3616884985        4.0842437745       56.0828739015  TIP3      3229            0.0000000000
     61202      4589  TIP3      H2            -24.0346542009        4.6218451627       55.5307108224  TIP3      3229            0.0000000000
     61203      4590  TIP3      OH2           -39.9607068945        2.2994281375       59.7429418926  TIP3      3230            0.0000000000
     61204      4590  TIP3      H1            -39.0590734478        1.9606670603       59.5434477077  TIP3      3230            0.0000000000
     61205      4590  TIP3      H2            -40.5376324099        1.5298164032       59.6440815304  TIP3      3230            0.0000000000
     61206      4591  TIP3      OH2           -22.1724812338       -2.1604314824       61.0937558665  TIP3      3231            0.0000000000
     61207      4591  TIP3      H1            -21.8861756758       -2.8529701234       60.5014159021  TIP3      3231            0.0000000000
     61208      4591  TIP3      H2            -22.0830011552       -1.3653764310       60.5785549049  TIP3      3231            0.0000000000
     61209      4592  TIP3      OH2           -38.5175442065        1.2292250531       51.8270829110  TIP3      3232            0.0000000000
     61210      4592  TIP3      H1            -38.5336332672        0.2916808110       52.0395155523  TIP3      3232            0.0000000000
     61211      4592  TIP3      H2            -38.4616741711        1.6118816700       52.6984705732  TIP3      3232            0.0000000000
     61212      4593  TIP3      OH2           -40.8792991457        3.7963517091       52.9978550279  TIP3      3233            0.0000000000
     61213      4593  TIP3      H1            -40.2509077169        3.3928376934       52.3760842396  TIP3      3233            0.0000000000
     61214      4593  TIP3      H2            -40.3167021768        4.4453656806       53.4281063124  TIP3      3233            0.0000000000
     61215      4594  TIP3      OH2           -40.4122061031       -0.2570944123       47.0441021682  TIP3      3234            0.0000000000
     61216      4594  TIP3      H1            -41.3158110965        0.0537070950       47.1418414941  TIP3      3234            0.0000000000
     61217      4594  TIP3      H2            -39.9548783537        0.4107116066       46.5030842276  TIP3      3234            0.0000000000
     61218      4595  TIP3      OH2            40.8908827243       -1.7806949194       55.8382840394  TIP3      3235            0.0000000000
     61219      4595  TIP3      H1             40.1226420469       -1.8134266219       56.4093352580  TIP3      3235            0.0000000000
     61220      4595  TIP3      H2             40.6106930403       -1.1648675011       55.1041131872  TIP3      3235            0.0000000000
     61221      4596  TIP3      OH2           -25.7854805321       15.8253583967       55.4646122851  TIP3      3236            0.0000000000
     61222      4596  TIP3      H1            -25.9015396726       16.7762968422       55.2396115515  TIP3      3236            0.0000000000
     61223      4596  TIP3      H2            -25.6392255897       15.4764822264       54.5860925139  TIP3      3236            0.0000000000
     61224      4597  TIP3      OH2           -30.2814625144       -0.5556792820       51.5596664874  TIP3      3237            0.0000000000
     61225      4597  TIP3      H1            -30.9450979225       -1.1804946723       51.8851682213  TIP3      3237            0.0000000000
     61226      4597  TIP3      H2            -29.7450584121       -1.1164031718       51.0030044620  TIP3      3237            0.0000000000
     61227      4598  TIP3      OH2           -37.8610061998       -1.9922363141       49.2494586127  TIP3      3238            0.0000000000
     61228      4598  TIP3      H1            -38.7530855287       -2.2118069487       48.9109345751  TIP3      3238            0.0000000000
     61229      4598  TIP3      H2            -37.4417697583       -2.8697158901       49.3639031506  TIP3      3238            0.0000000000
     61230      4599  TIP3      OH2           -38.8810356095       -2.2516285214       45.6233209338  TIP3      3239            0.0000000000
     61231      4599  TIP3      H1            -38.6765664399       -1.7334242149       44.8128513617  TIP3      3239            0.0000000000
     61232      4599  TIP3      H2            -39.6788445789       -1.7449624250       45.8351800209  TIP3      3239            0.0000000000
     61233      4600  TIP3      OH2           -33.4035988970       -2.0452657254       49.2268156168  TIP3      3240            0.0000000000
     61234      4600  TIP3      H1            -32.5362722141       -1.6275305351       49.1536415082  TIP3      3240            0.0000000000
     61235      4600  TIP3      H2            -33.4601943832       -2.2652875096       50.1557537496  TIP3      3240            0.0000000000
     61236      4601  TIP3      OH2           -36.0952527344       -0.1903128691       43.2552534414  TIP3      3241            0.0000000000
     61237      4601  TIP3      H1            -36.6167935842       -0.9686456503       43.1927273671  TIP3      3241            0.0000000000
     61238      4601  TIP3      H2            -36.4450915860        0.0909326010       44.1457898951  TIP3      3241            0.0000000000
     61239      4602  TIP3      OH2           -37.9213653731       -1.2725260997       58.7101276459  TIP3      3242            0.0000000000
     61240      4602  TIP3      H1            -38.3383435363       -1.9868480304       59.2567586743  TIP3      3242            0.0000000000
     61241      4602  TIP3      H2            -37.0822620904       -1.3639115673       59.2167212953  TIP3      3242            0.0000000000
     61242      4603  TIP3      OH2           -36.0150759051       -2.0649057226       60.5155868521  TIP3      3243            0.0000000000
     61243      4603  TIP3      H1            -35.1497728838       -2.4081827303       60.2878063356  TIP3      3243            0.0000000000
     61244      4603  TIP3      H2            -36.4655156794       -2.8266474142       60.9216826351  TIP3      3243            0.0000000000
     61245      4604  TIP3      OH2           -18.7097640883        6.0962276719       54.3372477410  TIP3      3244            0.0000000000
     61246      4604  TIP3      H1            -18.6963862532        5.4547540760       55.0814059462  TIP3      3244            0.0000000000
     61247      4604  TIP3      H2            -18.0279652708        6.7102657095       54.6365706059  TIP3      3244            0.0000000000
     61248      4605  TIP3      OH2            -7.4214159660        9.4010751791       51.1017236534  TIP3      3245            0.0000000000
     61249      4605  TIP3      H1             -7.8535319256        8.6934291356       51.5753057960  TIP3      3245            0.0000000000
     61250      4605  TIP3      H2             -7.3804333573       10.1146800169       51.7622530410  TIP3      3245            0.0000000000
     61251      4606  TIP3      OH2           -17.7696529984       10.6031686233       52.9313467455  TIP3      3246            0.0000000000
     61252      4606  TIP3      H1            -18.1877076204        9.8040946394       52.5906968791  TIP3      3246            0.0000000000
     61253      4606  TIP3      H2            -16.8405914236       10.3501068110       52.9794030193  TIP3      3246            0.0000000000
     61254      4607  TIP3      OH2           -21.1979857619        4.1206680010       48.3234700869  TIP3      3247            0.0000000000
     61255      4607  TIP3      H1            -21.6313806831        5.0018192227       48.2718911107  TIP3      3247            0.0000000000
     61256      4607  TIP3      H2            -21.7570095607        3.5880848289       47.7468633445  TIP3      3247            0.0000000000
     61257      4608  TIP3      OH2           -20.4035226482        6.3708480255       50.5172013934  TIP3      3248            0.0000000000
     61258      4608  TIP3      H1            -20.2419014463        5.5053011260       50.9440524884  TIP3      3248            0.0000000000
     61259      4608  TIP3      H2            -19.8035597125        6.3546057053       49.7484788163  TIP3      3248            0.0000000000
     61260      4609  TIP3      OH2           -10.1188658597       14.6208754016       51.4051238267  TIP3      3249            0.0000000000
     61261      4609  TIP3      H1             -9.6387781837       13.8462793333       51.0131611515  TIP3      3249            0.0000000000
     61262      4609  TIP3      H2            -10.4663304788       14.2139782378       52.1883879653  TIP3      3249            0.0000000000
     61263      4610  TIP3      OH2            -4.1202566931        0.4892458865       54.0194338974  TIP3      3250            0.0000000000
     61264      4610  TIP3      H1             -3.9593122586        1.1017899736       54.7744049573  TIP3      3250            0.0000000000
     61265      4610  TIP3      H2             -3.5601740544        0.9032016964       53.3558286713  TIP3      3250            0.0000000000
     61266      4611  TIP3      OH2           -16.4575261813        1.3980932885       50.8010192561  TIP3      3251            0.0000000000
     61267      4611  TIP3      H1            -16.3405533999        2.2369765193       50.3135398877  TIP3      3251            0.0000000000
     61268      4611  TIP3      H2            -16.8618921382        0.8380107670       50.1037876358  TIP3      3251            0.0000000000
     61269      4612  TIP3      OH2            -8.7347845858        1.5126767241       49.1622282120  TIP3      3252            0.0000000000
     61270      4612  TIP3      H1             -8.0862000893        1.1862322880       49.8285914739  TIP3      3252            0.0000000000
     61271      4612  TIP3      H2             -8.1575883092        2.0389907844       48.5905000340  TIP3      3252            0.0000000000
     61272      4613  TIP3      OH2           -19.7958918242        3.8377089980       51.5293280213  TIP3      3253            0.0000000000
     61273      4613  TIP3      H1            -19.1784513190        3.2330490840       51.9894265734  TIP3      3253            0.0000000000
     61274      4613  TIP3      H2            -19.7458414715        3.4692887312       50.6261070059  TIP3      3253            0.0000000000
     61275      4614  TIP3      OH2            -3.7031697546        1.9371342292       56.1645119782  TIP3      3254            0.0000000000
     61276      4614  TIP3      H1             -4.3334057415        2.6762438008       56.1606781306  TIP3      3254            0.0000000000
     61277      4614  TIP3      H2             -3.6146121303        1.7955860646       57.1230028098  TIP3      3254            0.0000000000
     61278      4615  TIP3      OH2           -17.5613582181        0.2765419435       54.8361005133  TIP3      3255            0.0000000000
     61279      4615  TIP3      H1            -17.8250758805        0.8604286297       54.0945753598  TIP3      3255            0.0000000000
     61280      4615  TIP3      H2            -18.2231701476        0.5374192873       55.5186443731  TIP3      3255            0.0000000000
     61281      4616  TIP3      OH2           -10.1762768489        9.7958044097       48.3514097486  TIP3      3256            0.0000000000
     61282      4616  TIP3      H1            -10.5607899888        9.4630106376       47.5478129808  TIP3      3256            0.0000000000
     61283      4616  TIP3      H2            -10.5581133393       10.6723162254       48.4555228625  TIP3      3256            0.0000000000
     61284      4617  TIP3      OH2            -6.9220708904        0.8458011477       51.1939282012  TIP3      3257            0.0000000000
     61285      4617  TIP3      H1             -7.1118637812        0.0368636543       51.6824788902  TIP3      3257            0.0000000000
     61286      4617  TIP3      H2             -6.2196571045        1.2477130956       51.7203959086  TIP3      3257            0.0000000000
     61287      4618  TIP3      OH2           -18.0200964721        2.1342761836       52.8453672981  TIP3      3258            0.0000000000
     61288      4618  TIP3      H1            -17.3733329146        2.7936222984       53.2015520982  TIP3      3258            0.0000000000
     61289      4618  TIP3      H2            -17.4745047160        1.7273336841       52.1315279352  TIP3      3258            0.0000000000
     61290      4619  TIP3      OH2           -20.3890187710        9.6122432044       46.6373302286  TIP3      3259            0.0000000000
     61291      4619  TIP3      H1            -20.8019896159        9.9051891625       45.8342123321  TIP3      3259            0.0000000000
     61292      4619  TIP3      H2            -20.4491430221       10.3966331420       47.2017974601  TIP3      3259            0.0000000000
     61293      4620  TIP3      OH2            -6.8794111629       11.2195971530       53.4631453679  TIP3      3260            0.0000000000
     61294      4620  TIP3      H1             -7.8416688180       11.3301925532       53.5546375965  TIP3      3260            0.0000000000
     61295      4620  TIP3      H2             -6.6170334173       12.1364561875       53.2493539686  TIP3      3260            0.0000000000
     61296      4621  TIP3      OH2            -6.5864789754       -0.4796882767       54.8383580881  TIP3      3261            0.0000000000
     61297      4621  TIP3      H1             -7.2947984905        0.1622000737       54.7831343476  TIP3      3261            0.0000000000
     61298      4621  TIP3      H2             -5.8513381926       -0.0760655924       54.3378032672  TIP3      3261            0.0000000000
     61299      4622  TIP3      OH2           -13.5922231601       -2.3923629073       52.2852744900  TIP3      3262            0.0000000000
     61300      4622  TIP3      H1            -13.7295236240       -3.3484474023       52.2377256845  TIP3      3262            0.0000000000
     61301      4622  TIP3      H2            -14.4549918023       -2.0711605967       52.6144682428  TIP3      3262            0.0000000000
     61302      4623  TIP3      OH2            -8.6565753103       13.0069647825       50.0605903986  TIP3      3263            0.0000000000
     61303      4623  TIP3      H1             -8.1997355553       12.2940922925       49.5620553475  TIP3      3263            0.0000000000
     61304      4623  TIP3      H2             -8.2116705764       13.7857613764       49.6577136069  TIP3      3263            0.0000000000
     61305      4624  TIP3      OH2            -7.4194010277       10.9446478845       48.5901520836  TIP3      3264            0.0000000000
     61306      4624  TIP3      H1             -7.7175488268       10.2619598450       47.9608630981  TIP3      3264            0.0000000000
     61307      4624  TIP3      H2             -7.3934779798       10.4322254494       49.4148750731  TIP3      3264            0.0000000000
     61308      4625  TIP3      OH2            -5.8136840590        9.5189648399       57.0403526909  TIP3      3265            0.0000000000
     61309      4625  TIP3      H1             -5.6494383589        8.8814320688       56.3133056404  TIP3      3265            0.0000000000
     61310      4625  TIP3      H2             -5.5978950297       10.3747002996       56.6287102844  TIP3      3265            0.0000000000
     61311      4626  TIP3      OH2           -11.3386862301        6.3808126933       46.7802458690  TIP3      3266            0.0000000000
     61312      4626  TIP3      H1            -12.0047447884        7.0189120970       46.5087574263  TIP3      3266            0.0000000000
     61313      4626  TIP3      H2            -10.5985139339        6.5261844216       46.1848887124  TIP3      3266            0.0000000000
     61314      4627  TIP3      OH2            -3.9269707888        5.8483613071       55.1399073681  TIP3      3267            0.0000000000
     61315      4627  TIP3      H1             -4.6059463304        6.5565329362       55.1623980015  TIP3      3267            0.0000000000
     61316      4627  TIP3      H2             -3.4740856344        6.0572371649       54.3104551906  TIP3      3267            0.0000000000
     61317      4628  TIP3      OH2            -7.8336373273        6.6959771251       47.7837357717  TIP3      3268            0.0000000000
     61318      4628  TIP3      H1             -8.6087371310        6.8798201424       48.3291691947  TIP3      3268            0.0000000000
     61319      4628  TIP3      H2             -7.3978406352        5.9508611586       48.2266224552  TIP3      3268            0.0000000000
     61320      4629  TIP3      OH2            -7.9008613767        4.8280551343       56.8144378827  TIP3      3269            0.0000000000
     61321      4629  TIP3      H1             -7.9277600316        5.5866884250       57.4281280362  TIP3      3269            0.0000000000
     61322      4629  TIP3      H2             -8.6204016706        5.0894823913       56.2119049789  TIP3      3269            0.0000000000
     61323      4630  TIP3      OH2            -9.5243606437       11.5734604330       54.0034161675  TIP3      3270            0.0000000000
     61324      4630  TIP3      H1             -9.7802914241       12.2289014411       54.6693510397  TIP3      3270            0.0000000000
     61325      4630  TIP3      H2             -9.7856135821       10.7593488647       54.4513337425  TIP3      3270            0.0000000000
     61326      4631  TIP3      OH2           -18.0796537746        6.6705947234       57.1025412681  TIP3      3271            0.0000000000
     61327      4631  TIP3      H1            -17.9703310152        7.2795048211       57.8402345163  TIP3      3271            0.0000000000
     61328      4631  TIP3      H2            -19.0288220096        6.7272726263       56.9281347267  TIP3      3271            0.0000000000
     61329      4632  TIP3      OH2            -5.2678431559       -2.4353568830       45.3051848544  TIP3      3272            0.0000000000
     61330      4632  TIP3      H1             -6.1923400325       -2.3083409837       45.5929675799  TIP3      3272            0.0000000000
     61331      4632  TIP3      H2             -5.0892214570       -1.5848533779       44.8867855927  TIP3      3272            0.0000000000
     61332      4633  TIP3      OH2            -3.8893399687       11.9659637264       44.1324045621  TIP3      3273            0.0000000000
     61333      4633  TIP3      H1             -4.0604856138       12.8127435550       43.7073335290  TIP3      3273            0.0000000000
     61334      4633  TIP3      H2             -3.2183602375       11.5933029184       43.5487310025  TIP3      3273            0.0000000000
     61335      4634  TIP3      OH2            -3.2196953929       12.1706120131       58.5833138377  TIP3      3274            0.0000000000
     61336      4634  TIP3      H1             -3.2632563537       11.2104137860       58.6269814976  TIP3      3274            0.0000000000
     61337      4634  TIP3      H2             -4.0581818581       12.4225714769       59.0203596616  TIP3      3274            0.0000000000
     61338      4635  TIP3      OH2            -8.8074152906       14.8004071712       44.3456313136  TIP3      3275            0.0000000000
     61339      4635  TIP3      H1             -8.3636490904       14.0482216570       43.8663121170  TIP3      3275            0.0000000000
     61340      4635  TIP3      H2             -8.7410242362       14.3999330842       45.2258539699  TIP3      3275            0.0000000000
     61341      4636  TIP3      OH2            -9.0428615835       14.5890156333       47.0579689861  TIP3      3276            0.0000000000
     61342      4636  TIP3      H1             -9.9908196929       14.6824575159       47.2217512134  TIP3      3276            0.0000000000
     61343      4636  TIP3      H2             -8.7798784204       13.8598802588       47.6314783676  TIP3      3276            0.0000000000
     61344      4637  TIP3      OH2            -6.0530247603        3.6612647782       59.1040195818  TIP3      3277            0.0000000000
     61345      4637  TIP3      H1             -6.5119837849        4.1243923490       58.4015949087  TIP3      3277            0.0000000000
     61346      4637  TIP3      H2             -6.0375604227        2.7494302597       58.7909024244  TIP3      3277            0.0000000000
     61347      4638  TIP3      OH2           -18.9483845166       10.0754112074       57.1241562548  TIP3      3278            0.0000000000
     61348      4638  TIP3      H1            -18.7079113828        9.7074999548       57.9734376968  TIP3      3278            0.0000000000
     61349      4638  TIP3      H2            -19.7827438714        9.6610564145       56.8936403835  TIP3      3278            0.0000000000
     61350      4639  TIP3      OH2           -16.2449892250       -1.4890252380       53.0768381472  TIP3      3279            0.0000000000
     61351      4639  TIP3      H1            -17.1404454404       -1.5852331367       52.6751292447  TIP3      3279            0.0000000000
     61352      4639  TIP3      H2            -16.3527840546       -0.6277606279       53.5190279287  TIP3      3279            0.0000000000
     61353      4640  TIP3      OH2           -11.6167473212       -1.7257356233       56.4573439079  TIP3      3280            0.0000000000
     61354      4640  TIP3      H1            -11.1970810762       -2.2239426495       57.1768265788  TIP3      3280            0.0000000000
     61355      4640  TIP3      H2            -12.5698999616       -1.9372692925       56.5529457551  TIP3      3280            0.0000000000
     61356      4641  TIP3      OH2            -8.3702839037        2.0142462476       57.3075838773  TIP3      3281            0.0000000000
     61357      4641  TIP3      H1             -8.8491711142        1.8949825813       58.1370049502  TIP3      3281            0.0000000000
     61358      4641  TIP3      H2             -8.4622120641        2.9553007885       57.0914076370  TIP3      3281            0.0000000000
     61359      4642  TIP3      OH2           -16.2410495396        3.4821440170       54.2201784245  TIP3      3282            0.0000000000
     61360      4642  TIP3      H1            -16.8733286656        3.4826722608       54.9668191737  TIP3      3282            0.0000000000
     61361      4642  TIP3      H2            -16.1726483026        4.3983390631       53.9844486301  TIP3      3282            0.0000000000
     61362      4643  TIP3      OH2           -16.1716865912        3.5944342564       49.1416842679  TIP3      3283            0.0000000000
     61363      4643  TIP3      H1            -17.1136322138        3.3578532940       49.0045883601  TIP3      3283            0.0000000000
     61364      4643  TIP3      H2            -15.7882287485        3.3385587930       48.3022257052  TIP3      3283            0.0000000000
     61365      4644  TIP3      OH2           -18.4792018866        3.7912724386       56.0023997621  TIP3      3284            0.0000000000
     61366      4644  TIP3      H1            -18.4361736914        4.1947914783       56.8871110282  TIP3      3284            0.0000000000
     61367      4644  TIP3      H2            -18.9227139529        2.9516112556       56.2005644123  TIP3      3284            0.0000000000
     61368      4645  TIP3      OH2           -20.5017762586        1.6719955388       45.3859430705  TIP3      3285            0.0000000000
     61369      4645  TIP3      H1            -20.1018532893        2.2195293499       44.7044517582  TIP3      3285            0.0000000000
     61370      4645  TIP3      H2            -21.2859567048        2.1963203069       45.6412756216  TIP3      3285            0.0000000000
     61371      4646  TIP3      OH2           -13.5908837328        1.1748222112       50.1880095713  TIP3      3286            0.0000000000
     61372      4646  TIP3      H1            -14.5191868761        1.1735011367       50.4931930733  TIP3      3286            0.0000000000
     61373      4646  TIP3      H2            -13.0999466605        1.0373370541       51.0150876451  TIP3      3286            0.0000000000
     61374      4647  TIP3      OH2           -18.7921762989        2.7335870850       49.0186754463  TIP3      3287            0.0000000000
     61375      4647  TIP3      H1            -19.6864123850        2.8864525758       48.6519844774  TIP3      3287            0.0000000000
     61376      4647  TIP3      H2            -18.5414748796        1.8751326945       48.6356034212  TIP3      3287            0.0000000000
     61377      4648  TIP3      OH2            -5.9531363980       16.0126031146       59.7661865876  TIP3      3288            0.0000000000
     61378      4648  TIP3      H1             -5.6961949396       16.4007320153       58.9011452481  TIP3      3288            0.0000000000
     61379      4648  TIP3      H2             -5.2633311867       16.3834780375       60.3405609568  TIP3      3288            0.0000000000
     61380      4649  TIP3      OH2           -17.3147124457        0.0816424619       48.4889778881  TIP3      3289            0.0000000000
     61381      4649  TIP3      H1            -17.6338526683       -0.8394891615       48.5129367794  TIP3      3289            0.0000000000
     61382      4649  TIP3      H2            -16.5120937490        0.0132195031       47.9553036517  TIP3      3289            0.0000000000
     61383      4650  TIP3      OH2            -5.9249149617        7.6662383945       54.9721000433  TIP3      3290            0.0000000000
     61384      4650  TIP3      H1             -5.3569869641        8.1697733441       54.3623464736  TIP3      3290            0.0000000000
     61385      4650  TIP3      H2             -6.7797205216        7.7408030793       54.5065235745  TIP3      3290            0.0000000000
     61386      4651  TIP3      OH2           -20.9687686794        6.2824793763       57.2754624617  TIP3      3291            0.0000000000
     61387      4651  TIP3      H1            -20.8457053073        5.7984887921       58.0969850167  TIP3      3291            0.0000000000
     61388      4651  TIP3      H2            -21.6251423585        5.7364266098       56.7993101030  TIP3      3291            0.0000000000
     61389      4652  TIP3      OH2            -9.3694692017       11.1859352093       57.3389824451  TIP3      3292            0.0000000000
     61390      4652  TIP3      H1            -10.2979715426       11.3539558816       57.1524431035  TIP3      3292            0.0000000000
     61391      4652  TIP3      H2             -9.3392371409       11.4726598932       58.2809549170  TIP3      3292            0.0000000000
     61392      4653  TIP3      OH2            -3.6558571204        9.2082484639       58.5575353218  TIP3      3293            0.0000000000
     61393      4653  TIP3      H1             -4.5332631618        9.4438915465       58.1687961361  TIP3      3293            0.0000000000
     61394      4653  TIP3      H2             -3.0778374558        9.1810055323       57.7683023215  TIP3      3293            0.0000000000
     61395      4654  TIP3      OH2            -5.3450362167       12.2010032172       46.2295603875  TIP3      3294            0.0000000000
     61396      4654  TIP3      H1             -5.7218283609       11.3618725393       46.5025124621  TIP3      3294            0.0000000000
     61397      4654  TIP3      H2             -5.0236286095       12.0162549749       45.3075819082  TIP3      3294            0.0000000000
     61398      4655  TIP3      OH2            -8.1238509855        7.0121548175       53.2732383977  TIP3      3295            0.0000000000
     61399      4655  TIP3      H1             -9.0548519690        6.8182976567       53.1319513148  TIP3      3295            0.0000000000
     61400      4655  TIP3      H2             -7.6961363791        6.2502054699       52.8336887369  TIP3      3295            0.0000000000
     61401      4656  TIP3      OH2            -7.4222987523       13.7343785864       57.4033373333  TIP3      3296            0.0000000000
     61402      4656  TIP3      H1             -8.1129174007       13.2475348709       56.9247582807  TIP3      3296            0.0000000000
     61403      4656  TIP3      H2             -7.2272167109       14.4592446016       56.7668482896  TIP3      3296            0.0000000000
     61404      4657  TIP3      OH2           -19.3794702876        0.9972196494       56.7982149701  TIP3      3297            0.0000000000
     61405      4657  TIP3      H1            -20.2822739629        1.3558742189       56.7633623249  TIP3      3297            0.0000000000
     61406      4657  TIP3      H2            -19.4717096886        0.1682753226       57.2894128063  TIP3      3297            0.0000000000
     61407      4658  TIP3      OH2            -7.0940264460        8.8896286055       46.2543558947  TIP3      3298            0.0000000000
     61408      4658  TIP3      H1             -7.3308513410        8.0897657120       46.7759736298  TIP3      3298            0.0000000000
     61409      4658  TIP3      H2             -6.1362801794        8.9323776329       46.4039242055  TIP3      3298            0.0000000000
     61410      4659  TIP3      OH2           -19.7101964693       12.8270305953       55.2184653193  TIP3      3299            0.0000000000
     61411      4659  TIP3      H1            -19.4679712735       11.8979966314       55.2307122639  TIP3      3299            0.0000000000
     61412      4659  TIP3      H2            -19.4718753599       13.1193973804       56.1091210856  TIP3      3299            0.0000000000
     61413      4660  TIP3      OH2           -18.4925972791        8.1153134400       45.3723016961  TIP3      3300            0.0000000000
     61414      4660  TIP3      H1            -19.1321150789        8.4631729751       46.0238607105  TIP3      3300            0.0000000000
     61415      4660  TIP3      H2            -17.9500633415        8.8832511363       45.1968806127  TIP3      3300            0.0000000000
     61416      4661  TIP3      OH2           -10.6331538815        0.8059340151       55.7607111869  TIP3      3301            0.0000000000
     61417      4661  TIP3      H1             -9.9057242555        0.8371179914       56.3771806525  TIP3      3301            0.0000000000
     61418      4661  TIP3      H2            -10.9879544147       -0.0967063720       55.9043473427  TIP3      3301            0.0000000000
     61419      4662  TIP3      OH2            -9.8185850430        0.3873975805       46.7790874260  TIP3      3302            0.0000000000
     61420      4662  TIP3      H1             -9.6402716495        0.9235514215       46.0056087321  TIP3      3302            0.0000000000
     61421      4662  TIP3      H2             -9.3082136367        0.8122068331       47.4873250397  TIP3      3302            0.0000000000
     61422      4663  TIP3      OH2           -12.1185129334       12.4840445200       45.6855394868  TIP3      3303            0.0000000000
     61423      4663  TIP3      H1            -12.9367910660       12.9869032140       45.7500184173  TIP3      3303            0.0000000000
     61424      4663  TIP3      H2            -11.6170131162       12.9907614742       45.0378821844  TIP3      3303            0.0000000000
     61425      4664  TIP3      OH2           -12.6754664737        2.1839346931       47.6451339265  TIP3      3304            0.0000000000
     61426      4664  TIP3      H1            -11.8345104117        2.6409341416       47.7158641088  TIP3      3304            0.0000000000
     61427      4664  TIP3      H2            -12.9038607590        1.9538089153       48.5668274371  TIP3      3304            0.0000000000
     61428      4665  TIP3      OH2           -11.7664485438       -0.7855224399       48.5684462112  TIP3      3305            0.0000000000
     61429      4665  TIP3      H1            -12.1214596455       -0.1553409487       49.2159713501  TIP3      3305            0.0000000000
     61430      4665  TIP3      H2            -11.0801357994       -0.2699884259       48.0935671744  TIP3      3305            0.0000000000
     61431      4666  TIP3      OH2            -5.9344787590        1.0143266605       57.6566697765  TIP3      3306            0.0000000000
     61432      4666  TIP3      H1             -6.8642090599        1.2980239188       57.5433516108  TIP3      3306            0.0000000000
     61433      4666  TIP3      H2             -5.6154400890        0.9869782484       56.7468252079  TIP3      3306            0.0000000000
     61434      4667  TIP3      OH2            -7.3365430388        4.8032936807       51.7622894894  TIP3      3307            0.0000000000
     61435      4667  TIP3      H1             -8.1000285389        4.3358215506       51.4137386035  TIP3      3307            0.0000000000
     61436      4667  TIP3      H2             -6.8145128262        4.1027381293       52.2243047749  TIP3      3307            0.0000000000
     61437      4668  TIP3      OH2            -6.2255416973       14.0692878362       53.3991804018  TIP3      3308            0.0000000000
     61438      4668  TIP3      H1             -6.3394076929       14.7236189565       52.6815345614  TIP3      3308            0.0000000000
     61439      4668  TIP3      H2             -5.2592536163       14.1131833122       53.5514233036  TIP3      3308            0.0000000000
     61440      4669  TIP3      OH2           -18.7490054241       -1.8275446661       52.1642068814  TIP3      3309            0.0000000000
     61441      4669  TIP3      H1            -18.9544873462       -1.7911745365       51.2028934225  TIP3      3309            0.0000000000
     61442      4669  TIP3      H2            -19.1582916565       -2.6817326567       52.4111494622  TIP3      3309            0.0000000000
     61443      4670  TIP3      OH2           -16.0164485362       13.4719142936       61.3603400337  TIP3      3310            0.0000000000
     61444      4670  TIP3      H1            -15.1338694323       13.1850355519       61.6196283823  TIP3      3310            0.0000000000
     61445      4670  TIP3      H2            -15.9421768538       13.4098823057       60.4019610940  TIP3      3310            0.0000000000
     61446      4671  TIP3      OH2            -9.3530917884       11.9884373393       59.9081002913  TIP3      3311            0.0000000000
     61447      4671  TIP3      H1             -9.7016203504       11.1609472702       60.2435865789  TIP3      3311            0.0000000000
     61448      4671  TIP3      H2             -8.6291781553       12.2045297050       60.5257935765  TIP3      3311            0.0000000000
     61449      4672  TIP3      OH2            -7.5107614160       13.0830762256       43.0397968796  TIP3      3312            0.0000000000
     61450      4672  TIP3      H1             -7.0488457981       12.2582203006       43.2936193234  TIP3      3312            0.0000000000
     61451      4672  TIP3      H2             -6.7766451861       13.2795998811       42.4106853346  TIP3      3312            0.0000000000
     61452      4673  TIP3      OH2           -20.6179679423        8.5164744259       60.5497445410  TIP3      3313            0.0000000000
     61453      4673  TIP3      H1            -20.4781132538        7.5974872851       60.2908794050  TIP3      3313            0.0000000000
     61454      4673  TIP3      H2            -21.3859991313        8.7985815488       60.0421671295  TIP3      3313            0.0000000000
     61455      4674  TIP3      OH2            -8.2615015039        8.3893564180       57.3263005147  TIP3      3314            0.0000000000
     61456      4674  TIP3      H1             -7.4527586827        8.9485259860       57.3097752793  TIP3      3314            0.0000000000
     61457      4674  TIP3      H2             -8.9572165886        9.0556017020       57.4578632381  TIP3      3314            0.0000000000
     61458      4675  TIP3      OH2           -15.0257230461        0.4229731919       55.9157462800  TIP3      3315            0.0000000000
     61459      4675  TIP3      H1            -14.5420465362        0.9181341594       55.2448779743  TIP3      3315            0.0000000000
     61460      4675  TIP3      H2            -15.9332940368        0.3781086125       55.5542340751  TIP3      3315            0.0000000000
     61461      4676  TIP3      OH2            -9.0930205258        3.6436898882       61.1413322531  TIP3      3316            0.0000000000
     61462      4676  TIP3      H1             -8.8272872277        2.7320527251       61.0676178789  TIP3      3316            0.0000000000
     61463      4676  TIP3      H2             -8.2574694942        4.1382543016       61.1846958437  TIP3      3316            0.0000000000
     61464      4677  TIP3      OH2            -7.7593501547        6.4951024876       59.2961517936  TIP3      3317            0.0000000000
     61465      4677  TIP3      H1             -8.0603055167        7.2070028621       58.7006037931  TIP3      3317            0.0000000000
     61466      4677  TIP3      H2             -6.8058174902        6.4686709853       59.0844054556  TIP3      3317            0.0000000000
     61467      4678  TIP3      OH2           -16.9969397372        3.3266793795       60.2990869975  TIP3      3318            0.0000000000
     61468      4678  TIP3      H1            -17.7332061731        2.7198655745       60.1465975957  TIP3      3318            0.0000000000
     61469      4678  TIP3      H2            -16.2815491135        2.9511360714       59.7732550528  TIP3      3318            0.0000000000
     61470      4679  TIP3      OH2           -14.2660663136       -2.1133619891       56.3750868617  TIP3      3319            0.0000000000
     61471      4679  TIP3      H1            -14.3967598944       -1.1420943340       56.2492429822  TIP3      3319            0.0000000000
     61472      4679  TIP3      H2            -15.0219751484       -2.4644027630       55.8785160131  TIP3      3319            0.0000000000
     61473      4680  TIP3      OH2            -8.6529199200        0.0194392810       61.0163687073  TIP3      3320            0.0000000000
     61474      4680  TIP3      H1             -8.7703911447       -0.9516301744       60.9551917815  TIP3      3320            0.0000000000
     61475      4680  TIP3      H2             -8.9933526545        0.2591820769       61.8775844177  TIP3      3320            0.0000000000
     61476      4681  TIP3      OH2           -18.9687611540        1.2202011954       60.0399846146  TIP3      3321            0.0000000000
     61477      4681  TIP3      H1            -18.6291608856        0.5011777816       59.4802100609  TIP3      3321            0.0000000000
     61478      4681  TIP3      H2            -18.9093450031        0.8326137833       60.9359133094  TIP3      3321            0.0000000000
     61479      4682  TIP3      OH2           -14.0612982779       -2.7746125906       59.0411406569  TIP3      3322            0.0000000000
     61480      4682  TIP3      H1            -13.3576132848       -3.4366513976       59.0289883792  TIP3      3322            0.0000000000
     61481      4682  TIP3      H2            -14.1486511106       -2.5261677349       58.0993397783  TIP3      3322            0.0000000000
     61482      4683  TIP3      OH2           -21.9362214584       15.7713818968       48.7707496069  TIP3      3323            0.0000000000
     61483      4683  TIP3      H1            -22.5737389415       15.2829472166       48.2511138330  TIP3      3323            0.0000000000
     61484      4683  TIP3      H2            -21.5590521497       15.1284406474       49.3821556344  TIP3      3323            0.0000000000
     61485      4684  TIP3      OH2            -3.6065993197       14.7199598508       53.5868513362  TIP3      3324            0.0000000000
     61486      4684  TIP3      H1             -3.5399422079       14.8346043595       54.5557808099  TIP3      3324            0.0000000000
     61487      4684  TIP3      H2             -2.8770559255       15.2604495828       53.2799681866  TIP3      3324            0.0000000000
     61488      4685  TIP3      OH2            -3.9602254939       14.2818664166       56.5205065774  TIP3      3325            0.0000000000
     61489      4685  TIP3      H1             -4.4325552022       13.5090978173       56.1561661930  TIP3      3325            0.0000000000
     61490      4685  TIP3      H2             -3.4097416491       13.8563188594       57.2080008797  TIP3      3325            0.0000000000
     61491      4686  TIP3      OH2            -5.4821849201       10.0414244080       61.1476047317  TIP3      3326            0.0000000000
     61492      4686  TIP3      H1             -6.3507193663        9.9480077725       61.5559766741  TIP3      3326            0.0000000000
     61493      4686  TIP3      H2             -5.0883847723       10.8091699948       61.6178960892  TIP3      3326            0.0000000000
     61494      4687  TIP3      OH2            -4.2118251446        8.3196404491       46.6303241229  TIP3      3327            0.0000000000
     61495      4687  TIP3      H1             -3.3480098743        8.7296254751       46.8303782643  TIP3      3327            0.0000000000
     61496      4687  TIP3      H2             -4.1839752473        7.6001237321       47.2986991610  TIP3      3327            0.0000000000
     61497      4688  TIP3      OH2            -3.7616675309        6.4078512763       48.4987391730  TIP3      3328            0.0000000000
     61498      4688  TIP3      H1             -4.5384877461        5.9269352804       48.8587859828  TIP3      3328            0.0000000000
     61499      4688  TIP3      H2             -3.2081591730        6.5591630597       49.2786166506  TIP3      3328            0.0000000000
     61500      4689  TIP3      OH2            -4.0503730776        9.1123234263       53.4821215668  TIP3      3329            0.0000000000
     61501      4689  TIP3      H1             -3.2257295135        8.7634323540       53.1170031810  TIP3      3329            0.0000000000
     61502      4689  TIP3      H2             -3.9341070591       10.0704201643       53.3221502768  TIP3      3329            0.0000000000
     61503      4690  TIP3      OH2            -5.5243841409       12.0088579277       55.7760130581  TIP3      3330            0.0000000000
     61504      4690  TIP3      H1             -6.2033440027       12.3745420163       56.3652749856  TIP3      3330            0.0000000000
     61505      4690  TIP3      H2             -6.0559544808       11.6263132974       55.0493295078  TIP3      3330            0.0000000000
     61506      4691  TIP3      OH2            -3.4502471653        6.3023995433       44.8366903221  TIP3      3331            0.0000000000
     61507      4691  TIP3      H1             -4.0903124163        6.5740764148       44.1813207470  TIP3      3331            0.0000000000
     61508      4691  TIP3      H2             -3.5946359330        6.9373266487       45.5559115478  TIP3      3331            0.0000000000
     61509      4692  TIP3      OH2            -6.0047327430        4.8926991585       49.0975437856  TIP3      3332            0.0000000000
     61510      4692  TIP3      H1             -6.1393929863        3.9316800657       49.0203246059  TIP3      3332            0.0000000000
     61511      4692  TIP3      H2             -6.3415938775        5.1042194313       49.9820408114  TIP3      3332            0.0000000000
     61512      4693  TIP3      OH2           -20.9873021095        7.0135735608       53.0888536688  TIP3      3333            0.0000000000
     61513      4693  TIP3      H1            -20.8033573120        6.8711588943       52.1371125635  TIP3      3333            0.0000000000
     61514      4693  TIP3      H2            -20.1308375400        6.7870130173       53.5057862085  TIP3      3333            0.0000000000
     61515      4694  TIP3      OH2            -5.1389774566        6.8407308036       58.8052994686  TIP3      3334            0.0000000000
     61516      4694  TIP3      H1             -4.5495818913        6.0773065083       58.9209640450  TIP3      3334            0.0000000000
     61517      4694  TIP3      H2             -4.5551433830        7.6306505862       58.7525919565  TIP3      3334            0.0000000000
     61518      4695  TIP3      OH2            -6.3314372825        2.4684695925       47.6000648036  TIP3      3335            0.0000000000
     61519      4695  TIP3      H1             -6.0183433651        1.5387987541       47.6310030048  TIP3      3335            0.0000000000
     61520      4695  TIP3      H2             -5.6090750182        2.8970193286       47.1251504168  TIP3      3335            0.0000000000
     61521      4696  TIP3      OH2            -5.7272410568        3.0394483001       52.9845811395  TIP3      3336            0.0000000000
     61522      4696  TIP3      H1             -4.7580176751        3.2303148451       52.9519486487  TIP3      3336            0.0000000000
     61523      4696  TIP3      H2             -5.8742035585        3.1336200437       53.9419477503  TIP3      3336            0.0000000000
     61524      4697  TIP3      OH2            -5.6540383466        3.7360605610       55.7094257835  TIP3      3337            0.0000000000
     61525      4697  TIP3      H1             -6.5089769946        4.0350554672       56.0970164808  TIP3      3337            0.0000000000
     61526      4697  TIP3      H2             -5.2027450766        4.5998724771       55.5684066636  TIP3      3337            0.0000000000
     61527      4698  TIP3      OH2           -21.3982284677        2.2328093408       59.2568309453  TIP3      3338            0.0000000000
     61528      4698  TIP3      H1            -20.4488688131        2.0798223480       59.4808213733  TIP3      3338            0.0000000000
     61529      4698  TIP3      H2            -21.8309601238        1.4584082226       59.6212874648  TIP3      3338            0.0000000000
     61530      4699  TIP3      OH2            -3.2910787797       -2.2053113663       61.1403392522  TIP3      3339            0.0000000000
     61531      4699  TIP3      H1             -3.0048099557       -2.8758832224       60.5045571323  TIP3      3339            0.0000000000
     61532      4699  TIP3      H2             -3.2548606958       -1.3876820272       60.6366282574  TIP3      3339            0.0000000000
     61533      4700  TIP3      OH2            -5.6595717209       -0.2608333125       47.5721798498  TIP3      3340            0.0000000000
     61534      4700  TIP3      H1             -5.4824258448       -0.7028536842       48.4316911890  TIP3      3340            0.0000000000
     61535      4700  TIP3      H2             -6.3026733144       -0.8769445418       47.1521312345  TIP3      3340            0.0000000000
     61536      4701  TIP3      OH2           -20.1992541406        0.5606903546       52.1750144335  TIP3      3341            0.0000000000
     61537      4701  TIP3      H1            -19.7201295119       -0.2534984767       52.4066659823  TIP3      3341            0.0000000000
     61538      4701  TIP3      H2            -19.6358748123        1.2655093643       52.5183897825  TIP3      3341            0.0000000000
     61539      4702  TIP3      OH2           -21.9114518004        3.5503060035       53.1580301615  TIP3      3342            0.0000000000
     61540      4702  TIP3      H1            -21.3201087230        3.3067571645       52.4240686580  TIP3      3342            0.0000000000
     61541      4702  TIP3      H2            -21.4680360794        4.3472375137       53.4670375615  TIP3      3342            0.0000000000
     61542      4703  TIP3      OH2            -3.8128171744       -0.1826572693       44.1472799942  TIP3      3343            0.0000000000
     61543      4703  TIP3      H1             -3.4189538449       -0.9151292649       43.6552684857  TIP3      3343            0.0000000000
     61544      4703  TIP3      H2             -3.1514549701        0.5170198431       44.1584863066  TIP3      3343            0.0000000000
     61545      4704  TIP3      OH2           -21.5432448494       -0.1535768475       47.2210524993  TIP3      3344            0.0000000000
     61546      4704  TIP3      H1            -22.4681688026        0.0281702682       47.0831848357  TIP3      3344            0.0000000000
     61547      4704  TIP3      H2            -21.0795863867        0.3216567401       46.5114147771  TIP3      3344            0.0000000000
     61548      4705  TIP3      OH2            -6.7878053996       14.7812231801       49.1812137696  TIP3      3345            0.0000000000
     61549      4705  TIP3      H1             -6.0841011319       14.4856024067       48.5641073730  TIP3      3345            0.0000000000
     61550      4705  TIP3      H2             -6.2640082250       15.2801405437       49.8250458508  TIP3      3345            0.0000000000
     61551      4706  TIP3      OH2            -9.7993039304       15.4213021245       58.1355627542  TIP3      3346            0.0000000000
     61552      4706  TIP3      H1             -9.1077225606       14.7646833362       57.9872168741  TIP3      3346            0.0000000000
     61553      4706  TIP3      H2             -9.4943125114       15.8018807624       58.9891127820  TIP3      3346            0.0000000000
     61554      4707  TIP3      OH2           -19.1620511292       15.9073986069       55.8867972548  TIP3      3347            0.0000000000
     61555      4707  TIP3      H1            -19.9007226379       16.4400021522       55.5736302165  TIP3      3347            0.0000000000
     61556      4707  TIP3      H2            -19.3966094380       15.6898949726       56.8050065993  TIP3      3347            0.0000000000
     61557      4708  TIP3      OH2            -9.5351407010       14.2425252182       55.1186003661  TIP3      3348            0.0000000000
     61558      4708  TIP3      H1            -10.4423970810       14.5076916441       54.9694087119  TIP3      3348            0.0000000000
     61559      4708  TIP3      H2             -9.0642496774       15.0937388706       55.1731972655  TIP3      3348            0.0000000000
     61560      4709  TIP3      OH2            -6.9690152505       15.8044562338       55.4702201423  TIP3      3349            0.0000000000
     61561      4709  TIP3      H1             -7.0463921724       16.7615822948       55.2508763855  TIP3      3349            0.0000000000
     61562      4709  TIP3      H2             -6.7382938171       15.4361949602       54.5975132568  TIP3      3349            0.0000000000
     61563      4710  TIP3      OH2           -19.5974438229       14.6061057144       52.9309604778  TIP3      3350            0.0000000000
     61564      4710  TIP3      H1            -19.6051545764       14.1729260029       53.8075863618  TIP3      3350            0.0000000000
     61565      4710  TIP3      H2            -18.7815965886       14.2625749320       52.5224739406  TIP3      3350            0.0000000000
     61566      4711  TIP3      OH2           -17.4862570419       13.2934574888       51.6487036190  TIP3      3351            0.0000000000
     61567      4711  TIP3      H1            -17.6720400434       12.3550726873       51.7826525582  TIP3      3351            0.0000000000
     61568      4711  TIP3      H2            -16.6391311368       13.4043686137       52.0717269402  TIP3      3351            0.0000000000
     61569      4712  TIP3      OH2           -11.4330279515       -0.5881115726       51.5829675866  TIP3      3352            0.0000000000
     61570      4712  TIP3      H1            -12.1143649895       -1.2194252765       51.8597741981  TIP3      3352            0.0000000000
     61571      4712  TIP3      H2            -10.8893016838       -1.0968455366       50.9843433563  TIP3      3352            0.0000000000
     61572      4713  TIP3      OH2            -4.6339089159       -1.3094713104       49.9283654387  TIP3      3353            0.0000000000
     61573      4713  TIP3      H1             -3.9301432726       -1.8650875605       49.5311522722  TIP3      3353            0.0000000000
     61574      4713  TIP3      H2             -4.1476544570       -0.4740748992       50.0815258618  TIP3      3353            0.0000000000
     61575      4714  TIP3      OH2           -19.0405851976       -1.9255918868       49.4287806552  TIP3      3354            0.0000000000
     61576      4714  TIP3      H1            -19.8513412548       -2.1103222635       48.9260148942  TIP3      3354            0.0000000000
     61577      4714  TIP3      H2            -18.5706666827       -2.7817480536       49.4026233244  TIP3      3354            0.0000000000
     61578      4715  TIP3      OH2           -14.5898562490       -2.0017027871       49.2563543024  TIP3      3355            0.0000000000
     61579      4715  TIP3      H1            -13.6861739079       -1.6494534988       49.1541335634  TIP3      3355            0.0000000000
     61580      4715  TIP3      H2            -14.5914754609       -2.2714375978       50.1728377889  TIP3      3355            0.0000000000
     61581      4716  TIP3      OH2            -7.6015459197       -1.9813528163       46.5514767161  TIP3      3356            0.0000000000
     61582      4716  TIP3      H1             -8.3264525322       -1.3668513512       46.3534837804  TIP3      3356            0.0000000000
     61583      4716  TIP3      H2             -8.0723066014       -2.8034365689       46.7146877612  TIP3      3356            0.0000000000
     61584      4717  TIP3      OH2           -20.3502935090       13.7717764518       46.1096044388  TIP3      3357            0.0000000000
     61585      4717  TIP3      H1            -21.0318711095       13.7754569869       45.4383515834  TIP3      3357            0.0000000000
     61586      4717  TIP3      H2            -20.3578561724       14.6773353471       46.4268557520  TIP3      3357            0.0000000000
     61587      4718  TIP3      OH2           -18.4360359373       -0.3105032221       43.6429043528  TIP3      3358            0.0000000000
     61588      4718  TIP3      H1            -17.8700447495       -0.8675642584       43.1294374951  TIP3      3358            0.0000000000
     61589      4718  TIP3      H2            -17.8262409437        0.0838033317       44.2714372863  TIP3      3358            0.0000000000
     61590      4719  TIP3      OH2            -4.8046177236       14.5929798313       47.2489823692  TIP3      3359            0.0000000000
     61591      4719  TIP3      H1             -4.9635712854       13.7934954167       46.6838965569  TIP3      3359            0.0000000000
     61592      4719  TIP3      H2             -4.8173766388       15.2836113904       46.5733502875  TIP3      3359            0.0000000000
     61593      4720  TIP3      OH2           -19.1920872378       -1.4331880495       58.8672797978  TIP3      3360            0.0000000000
     61594      4720  TIP3      H1            -19.5038456326       -2.1946185908       59.3649802930  TIP3      3360            0.0000000000
     61595      4720  TIP3      H2            -18.2670342552       -1.4331441369       59.2173176475  TIP3      3360            0.0000000000
     61596      4721  TIP3      OH2           -17.2191390790       -2.0772241520       60.5056872320  TIP3      3361            0.0000000000
     61597      4721  TIP3      H1            -16.3114054299       -2.3668442299       60.2694076832  TIP3      3361            0.0000000000
     61598      4721  TIP3      H2            -17.5561542739       -2.8724994190       60.9608918869  TIP3      3361            0.0000000000
     61599      4722  TIP3      OH2            -8.6762396488       -2.6616889510       60.7052858522  TIP3      3362            0.0000000000
     61600      4722  TIP3      H1             -8.6589848653       -3.2597750864       61.4668767171  TIP3      3362            0.0000000000
     61601      4722  TIP3      H2             -7.8126640417       -2.7853920417       60.3041036189  TIP3      3362            0.0000000000
     61602      4723  TIP3      OH2            -5.5705426527       13.2845118918       59.3748214886  TIP3      3363            0.0000000000
     61603      4723  TIP3      H1             -6.3494319347       13.1710649385       58.7834270117  TIP3      3363            0.0000000000
     61604      4723  TIP3      H2             -5.6572473162       14.2513359713       59.5164790683  TIP3      3363            0.0000000000
     61605      4724  TIP3      OH2             1.0066160446       10.5579345019       52.9422606339  TIP3      3364            0.0000000000
     61606      4724  TIP3      H1              0.6892993387        9.7462847192       52.5566514904  TIP3      3364            0.0000000000
     61607      4724  TIP3      H2              1.9605958109       10.3999108751       52.9833955230  TIP3      3364            0.0000000000
     61608      4725  TIP3      OH2            -2.3225446212        4.1137526331       48.3326271418  TIP3      3365            0.0000000000
     61609      4725  TIP3      H1             -2.7572399891        4.9942666677       48.2825714245  TIP3      3365            0.0000000000
     61610      4725  TIP3      H2             -2.9161356025        3.6072812110       47.7836136302  TIP3      3365            0.0000000000
     61611      4726  TIP3      OH2            -1.5750434708        6.3966472211       50.5102369859  TIP3      3366            0.0000000000
     61612      4726  TIP3      H1             -1.3911499120        5.5297690381       50.8813554805  TIP3      3366            0.0000000000
     61613      4726  TIP3      H2             -0.9401669220        6.4578603744       49.7804930849  TIP3      3366            0.0000000000
     61614      4727  TIP3      OH2             6.1719127587        8.9306740865       53.1540514731  TIP3      3367            0.0000000000
     61615      4727  TIP3      H1              6.4437366970        8.1895408275       52.6147183582  TIP3      3367            0.0000000000
     61616      4727  TIP3      H2              6.8405387584        8.9769361223       53.8406981408  TIP3      3367            0.0000000000
     61617      4728  TIP3      OH2            14.7583728807        0.4532085358       54.0624599084  TIP3      3368            0.0000000000
     61618      4728  TIP3      H1             14.8861247660        1.1210902729       54.7739059462  TIP3      3368            0.0000000000
     61619      4728  TIP3      H2             15.2586771612        0.8800306358       53.3438021269  TIP3      3368            0.0000000000
     61620      4729  TIP3      OH2             9.2685303773        3.2789460432       53.5494272676  TIP3      3369            0.0000000000
     61621      4729  TIP3      H1              9.4404596517        2.3286203463       53.5709631273  TIP3      3369            0.0000000000
     61622      4729  TIP3      H2              9.1776009746        3.4677205825       52.6097502516  TIP3      3369            0.0000000000
     61623      4730  TIP3      OH2            10.1467789295        1.5284436477       49.2032994619  TIP3      3370            0.0000000000
     61624      4730  TIP3      H1             10.8148952620        1.1363084341       49.7850106611  TIP3      3370            0.0000000000
     61625      4730  TIP3      H2             10.6902397752        2.0022987183       48.5613141608  TIP3      3370            0.0000000000
     61626      4731  TIP3      OH2            15.1374503515        1.8967458096       56.3016933408  TIP3      3371            0.0000000000
     61627      4731  TIP3      H1             14.5172897857        2.6494168011       56.1584591542  TIP3      3371            0.0000000000
     61628      4731  TIP3      H2             15.1933055961        1.8412947925       57.2542005667  TIP3      3371            0.0000000000
     61629      4732  TIP3      OH2             2.2827329323        9.9348701002       55.8864986425  TIP3      3372            0.0000000000
     61630      4732  TIP3      H1              2.2710267735       10.8438063377       55.6030482832  TIP3      3372            0.0000000000
     61631      4732  TIP3      H2              1.4161766367        9.8706480898       56.3457736736  TIP3      3372            0.0000000000
     61632      4733  TIP3      OH2            -1.7295531545        9.5947898690       46.7066234663  TIP3      3373            0.0000000000
     61633      4733  TIP3      H1             -1.9069262021        9.8939183368       45.8008020560  TIP3      3373            0.0000000000
     61634      4733  TIP3      H2             -1.5689961221       10.4197284683       47.1969854434  TIP3      3373            0.0000000000
     61635      4734  TIP3      OH2             7.8495707331        5.0637852352       43.8611998387  TIP3      3374            0.0000000000
     61636      4734  TIP3      H1              8.4043670636        4.8690232581       44.6045739623  TIP3      3374            0.0000000000
     61637      4734  TIP3      H2              7.8624689049        4.2698603401       43.2980941869  TIP3      3374            0.0000000000
     61638      4735  TIP3      OH2            14.9008660586        5.7872325699       55.0532062591  TIP3      3375            0.0000000000
     61639      4735  TIP3      H1             14.2718811400        6.5247934618       55.1808424991  TIP3      3375            0.0000000000
     61640      4735  TIP3      H2             15.4312934725        6.0791647995       54.2878520533  TIP3      3375            0.0000000000
     61641      4736  TIP3      OH2            10.9615972649        4.8225975741       56.8163280867  TIP3      3376            0.0000000000
     61642      4736  TIP3      H1             10.9464286314        5.5981829529       57.3851090154  TIP3      3376            0.0000000000
     61643      4736  TIP3      H2             10.2449647507        5.0688685214       56.2017600926  TIP3      3376            0.0000000000
     61644      4737  TIP3      OH2             7.6235553851       12.5605384487       48.8459846658  TIP3      3377            0.0000000000
     61645      4737  TIP3      H1              8.0360719478       12.8411691710       49.6745496569  TIP3      3377            0.0000000000
     61646      4737  TIP3      H2              6.9731167913       13.2535238450       48.6648158837  TIP3      3377            0.0000000000
     61647      4738  TIP3      OH2            -2.3777734024        8.7407365465       56.1177576269  TIP3      3378            0.0000000000
     61648      4738  TIP3      H1             -2.8118353105        8.6631134938       55.2501447140  TIP3      3378            0.0000000000
     61649      4738  TIP3      H2             -2.2561478989        7.7973506670       56.3773341144  TIP3      3378            0.0000000000
     61650      4739  TIP3      OH2            -2.5345061237       11.4475529149       52.9853871168  TIP3      3379            0.0000000000
     61651      4739  TIP3      H1             -1.5759649204       11.3958854568       52.9095748188  TIP3      3379            0.0000000000
     61652      4739  TIP3      H2             -2.6898228197       12.2851251079       53.4424013534  TIP3      3379            0.0000000000
     61653      4740  TIP3      OH2             9.8230972601       14.6167270775       47.0633952399  TIP3      3380            0.0000000000
     61654      4740  TIP3      H1              8.8799911608       14.6828762436       47.2516779349  TIP3      3380            0.0000000000
     61655      4740  TIP3      H2             10.0817411190       13.9123521454       47.6662330016  TIP3      3380            0.0000000000
     61656      4741  TIP3      OH2            12.7880633262        3.6200449231       59.1117786861  TIP3      3381            0.0000000000
     61657      4741  TIP3      H1             12.3573047706        4.1047832224       58.3864104050  TIP3      3381            0.0000000000
     61658      4741  TIP3      H2             12.7633248814        2.7290039066       58.7758491647  TIP3      3381            0.0000000000
     61659      4742  TIP3      OH2            -0.0595365178       10.0301634285       57.1092679561  TIP3      3382            0.0000000000
     61660      4742  TIP3      H1              0.1706584239        9.6920221201       57.9798281234  TIP3      3382            0.0000000000
     61661      4742  TIP3      H2             -0.9153195332        9.6283460490       56.8847030720  TIP3      3382            0.0000000000
     61662      4743  TIP3      OH2             2.5303024470       -1.6332719084       53.0545285685  TIP3      3383            0.0000000000
     61663      4743  TIP3      H1              1.6644078912       -1.6435948228       52.6440647728  TIP3      3383            0.0000000000
     61664      4743  TIP3      H2              2.5852288696       -0.7525544842       53.4424669032  TIP3      3383            0.0000000000
     61665      4744  TIP3      OH2            -3.0008702838        0.8623067286       49.9999178946  TIP3      3384            0.0000000000
     61666      4744  TIP3      H1             -2.3240110173        0.8174506364       50.6874502359  TIP3      3384            0.0000000000
     61667      4744  TIP3      H2             -2.5586393820        0.5009619857       49.2065956330  TIP3      3384            0.0000000000
     61668      4745  TIP3      OH2             8.4924145544        5.2009963447       55.4148807845  TIP3      3385            0.0000000000
     61669      4745  TIP3      H1              8.7263540314        4.5395500791       54.7412336525  TIP3      3385            0.0000000000
     61670      4745  TIP3      H2              8.0159337217        4.6831433118       56.0721931678  TIP3      3385            0.0000000000
     61671      4746  TIP3      OH2             3.7111643907        2.7071942688       46.6564879361  TIP3      3386            0.0000000000
     61672      4746  TIP3      H1              4.6299875621        2.8693608364       46.9003152575  TIP3      3386            0.0000000000
     61673      4746  TIP3      H2              3.4977411178        3.4236359553       46.0639197002  TIP3      3386            0.0000000000
     61674      4747  TIP3      OH2            12.8728562709       16.0901305332       59.7622469656  TIP3      3387            0.0000000000
     61675      4747  TIP3      H1             13.1440160110       16.4605664734       58.8995731823  TIP3      3387            0.0000000000
     61676      4747  TIP3      H2             13.5977751199       16.3542554369       60.3560649686  TIP3      3387            0.0000000000
     61677      4748  TIP3      OH2             6.6262607631        3.9071046055       52.1025792844  TIP3      3388            0.0000000000
     61678      4748  TIP3      H1              7.0412524302        3.3210056601       51.4746435817  TIP3      3388            0.0000000000
     61679      4748  TIP3      H2              6.3788144375        3.3703243782       52.8507151371  TIP3      3388            0.0000000000
     61680      4749  TIP3      OH2            12.9337224463        7.5781631578       54.9184665010  TIP3      3389            0.0000000000
     61681      4749  TIP3      H1             13.5145149007        8.1625826197       54.4232430466  TIP3      3389            0.0000000000
     61682      4749  TIP3      H2             12.0626018028        7.7517578371       54.5557203225  TIP3      3389            0.0000000000
     61683      4750  TIP3      OH2            10.3408008402        3.1983738026       45.9914617961  TIP3      3390            0.0000000000
     61684      4750  TIP3      H1             11.2205593928        3.0669156529       46.3943269653  TIP3      3390            0.0000000000
     61685      4750  TIP3      H2             10.4252903021        4.0109910705       45.4980805234  TIP3      3390            0.0000000000
     61686      4751  TIP3      OH2            -2.1627081128        6.2803155419       57.2530753573  TIP3      3391            0.0000000000
     61687      4751  TIP3      H1             -1.9513228117        5.8238417719       58.0801261453  TIP3      3391            0.0000000000
     61688      4751  TIP3      H2             -2.7756274610        5.6493029555       56.8430620387  TIP3      3391            0.0000000000
     61689      4752  TIP3      OH2            15.1397402077        3.3653763166       45.8007375215  TIP3      3392            0.0000000000
     61690      4752  TIP3      H1             14.6267556643        3.0919953103       45.0184738980  TIP3      3392            0.0000000000
     61691      4752  TIP3      H2             15.2707717787        4.3025068734       45.5216900466  TIP3      3392            0.0000000000
     61692      4753  TIP3      OH2            13.5301303778       12.1977821570       46.2387468996  TIP3      3393            0.0000000000
     61693      4753  TIP3      H1             13.1557255736       11.3676470337       46.5273583056  TIP3      3393            0.0000000000
     61694      4753  TIP3      H2             13.8009569242       12.0508435055       45.3196593138  TIP3      3393            0.0000000000
     61695      4754  TIP3      OH2             3.8715770043       10.7907964966       44.9495915000  TIP3      3394            0.0000000000
     61696      4754  TIP3      H1              4.0714494583       10.3103726653       45.7544825811  TIP3      3394            0.0000000000
     61697      4754  TIP3      H2              3.9013110790       11.7071793624       45.2387457293  TIP3      3394            0.0000000000
     61698      4755  TIP3      OH2            11.5684225572        4.7957884370       51.6966095068  TIP3      3395            0.0000000000
     61699      4755  TIP3      H1             10.7705842294        4.3360429731       51.4531496850  TIP3      3395            0.0000000000
     61700      4755  TIP3      H2             12.0498456783        4.1138715982       52.2336268553  TIP3      3395            0.0000000000
     61701      4756  TIP3      OH2            -0.9914262752       12.0476111936       48.2160314482  TIP3      3396            0.0000000000
     61702      4756  TIP3      H1             -1.7793005461       12.5874710670       48.3206277693  TIP3      3396            0.0000000000
     61703      4756  TIP3      H2             -0.3884367988       12.5969340891       47.7156271179  TIP3      3396            0.0000000000
     61704      4757  TIP3      OH2            -1.7297904002       14.7444108644       59.6478233664  TIP3      3397            0.0000000000
     61705      4757  TIP3      H1             -1.1153958728       14.5058860484       60.3531938150  TIP3      3397            0.0000000000
     61706      4757  TIP3      H2             -2.1105464008       13.8794907549       59.4074669114  TIP3      3397            0.0000000000
     61707      4758  TIP3      OH2            -1.9252403006        8.4985635296       60.6004756199  TIP3      3398            0.0000000000
     61708      4758  TIP3      H1             -1.6246688745        7.6574667284       60.2478590952  TIP3      3398            0.0000000000
     61709      4758  TIP3      H2             -2.5842890416        8.7985719175       59.9695554701  TIP3      3398            0.0000000000
     61710      4759  TIP3      OH2             4.8716329962        8.5464760276       60.1946427488  TIP3      3399            0.0000000000
     61711      4759  TIP3      H1              4.5664247232        8.8239342071       59.3089627555  TIP3      3399            0.0000000000
     61712      4759  TIP3      H2              5.0748300718        7.6279603054       59.9828197828  TIP3      3399            0.0000000000
     61713      4760  TIP3      OH2             4.5327619836       -2.2200762410       56.2767864162  TIP3      3400            0.0000000000
     61714      4760  TIP3      H1              4.4837831488       -1.2592267857       56.2735334925  TIP3      3400            0.0000000000
     61715      4760  TIP3      H2              3.7429139649       -2.5153451924       55.8169710560  TIP3      3400            0.0000000000
     61716      4761  TIP3      OH2             0.0529737665        1.2319507034       60.0254517136  TIP3      3401            0.0000000000
     61717      4761  TIP3      H1              0.2171415261        0.4830003833       59.4431216831  TIP3      3401            0.0000000000
     61718      4761  TIP3      H2             -0.0682030535        0.8222770602       60.8877383878  TIP3      3401            0.0000000000
     61719      4762  TIP3      OH2            -1.7361379239       10.3763839436       43.7937484472  TIP3      3402            0.0000000000
     61720      4762  TIP3      H1             -0.7875140007       10.4848930746       43.9657795427  TIP3      3402            0.0000000000
     61721      4762  TIP3      H2             -1.7465590952        9.7649253958       43.0535574601  TIP3      3402            0.0000000000
     61722      4763  TIP3      OH2            15.0578954472        6.4236199122       48.4956444208  TIP3      3403            0.0000000000
     61723      4763  TIP3      H1             14.2978669241        5.9197393707       48.8679401940  TIP3      3403            0.0000000000
     61724      4763  TIP3      H2             15.6299866003        6.5660103239       49.2661098707  TIP3      3403            0.0000000000
     61725      4764  TIP3      OH2            12.9050995902        4.8929639238       49.0950826473  TIP3      3404            0.0000000000
     61726      4764  TIP3      H1             12.6854323783        3.9505723129       49.0202958201  TIP3      3404            0.0000000000
     61727      4764  TIP3      H2             12.4932853400        5.1254127799       49.9366808655  TIP3      3404            0.0000000000
     61728      4765  TIP3      OH2            -2.1026281272        6.9432798015       53.1034428066  TIP3      3405            0.0000000000
     61729      4765  TIP3      H1             -1.9450022649        6.8810134384       52.1378517111  TIP3      3405            0.0000000000
     61730      4765  TIP3      H2             -1.2348420697        6.8342362794       53.4935319045  TIP3      3405            0.0000000000
     61731      4766  TIP3      OH2            15.2268051168        4.7342297306       59.4089883870  TIP3      3406            0.0000000000
     61732      4766  TIP3      H1             14.3273622660        4.3877683162       59.2533880509  TIP3      3406            0.0000000000
     61733      4766  TIP3      H2             15.7625165114        3.9397063559       59.3239553254  TIP3      3406            0.0000000000
     61734      4767  TIP3      OH2            12.5508337625        2.4446607605       47.5064828998  TIP3      3407            0.0000000000
     61735      4767  TIP3      H1             12.8192233245        1.5198606217       47.6661233840  TIP3      3407            0.0000000000
     61736      4767  TIP3      H2             13.3306535123        2.9057079456       47.1760870745  TIP3      3407            0.0000000000
     61737      4768  TIP3      OH2            13.1528294679        3.0548850356       52.9883973228  TIP3      3408            0.0000000000
     61738      4768  TIP3      H1             14.1245574543        3.2191667256       52.9569202861  TIP3      3408            0.0000000000
     61739      4768  TIP3      H2             12.9852693857        3.1142240390       53.9401141196  TIP3      3408            0.0000000000
     61740      4769  TIP3      OH2            13.2046204416        3.7621091277       55.7436446408  TIP3      3409            0.0000000000
     61741      4769  TIP3      H1             12.3433330866        4.0628234798       56.1119595573  TIP3      3409            0.0000000000
     61742      4769  TIP3      H2             13.6627114657        4.6058845114       55.5267117481  TIP3      3409            0.0000000000
     61743      4770  TIP3      OH2            15.5051888291       -2.2302106503       61.0783164990  TIP3      3410            0.0000000000
     61744      4770  TIP3      H1             15.8686247050       -2.8890619355       60.4726484103  TIP3      3410            0.0000000000
     61745      4770  TIP3      H2             15.6041241536       -1.3930371010       60.5978978738  TIP3      3410            0.0000000000
     61746      4771  TIP3      OH2            13.2423041336       -0.2706108346       47.4940839200  TIP3      3411            0.0000000000
     61747      4771  TIP3      H1             13.3277168657       -0.6215669694       48.4091817856  TIP3      3411            0.0000000000
     61748      4771  TIP3      H2             12.5295875949       -0.8562459568       47.1387924698  TIP3      3411            0.0000000000
     61749      4772  TIP3      OH2            -3.0371146455        3.5846639605       53.1133910226  TIP3      3412            0.0000000000
     61750      4772  TIP3      H1             -2.4802989175        3.2821771891       52.3919644583  TIP3      3412            0.0000000000
     61751      4772  TIP3      H2             -2.5968544849        4.3719691154       53.4569701841  TIP3      3412            0.0000000000
     61752      4773  TIP3      OH2            15.0001596023       -0.1003672766       59.4449612216  TIP3      3413            0.0000000000
     61753      4773  TIP3      H1             14.0695263579        0.1548208032       59.4130766063  TIP3      3413            0.0000000000
     61754      4773  TIP3      H2             15.1079999311       -0.6305901930       58.6485629729  TIP3      3413            0.0000000000
     61755      4774  TIP3      OH2            -2.6615907407       -0.1607890128       47.2103843330  TIP3      3414            0.0000000000
     61756      4774  TIP3      H1             -3.6169688334        0.0027394659       47.1027868073  TIP3      3414            0.0000000000
     61757      4774  TIP3      H2             -2.2482248058        0.3148791930       46.5044251717  TIP3      3414            0.0000000000
     61758      4775  TIP3      OH2            -2.7311292263       -1.5062540678       55.5137045111  TIP3      3415            0.0000000000
     61759      4775  TIP3      H1             -3.3902501521       -1.6890219092       56.1891941373  TIP3      3415            0.0000000000
     61760      4775  TIP3      H2             -3.1971935548       -0.8307360070       54.9779555246  TIP3      3415            0.0000000000
     61761      4776  TIP3      OH2            -0.2018369323       -1.9305426030       49.4236153290  TIP3      3416            0.0000000000
     61762      4776  TIP3      H1             -0.9949060415       -2.1500946923       48.9178367388  TIP3      3416            0.0000000000
     61763      4776  TIP3      H2              0.2735772210       -2.7773382651       49.3972072388  TIP3      3416            0.0000000000
     61764      4777  TIP3      OH2            -1.3963326069       -2.1964663753       45.1894793836  TIP3      3417            0.0000000000
     61765      4777  TIP3      H1             -0.9387220531       -1.5615250087       44.6286549690  TIP3      3417            0.0000000000
     61766      4777  TIP3      H2             -2.0248018039       -1.6756650791       45.7122075602  TIP3      3417            0.0000000000
     61767      4778  TIP3      OH2            11.2889176730       -1.9654373751       46.5590102656  TIP3      3418            0.0000000000
     61768      4778  TIP3      H1             10.5586395593       -1.3523088975       46.3977159468  TIP3      3418            0.0000000000
     61769      4778  TIP3      H2             10.8420727629       -2.7986163980       46.7290360683  TIP3      3418            0.0000000000
     61770      4779  TIP3      OH2            14.1594329031       14.5955457280       47.1678973488  TIP3      3419            0.0000000000
     61771      4779  TIP3      H1             13.8567995892       13.7789523026       46.7000181779  TIP3      3419            0.0000000000
     61772      4779  TIP3      H2             13.8945830017       15.2569851583       46.5439399179  TIP3      3419            0.0000000000
     61773      4780  TIP3      OH2            -0.3437014977       -1.4551379734       58.9377912098  TIP3      3420            0.0000000000
     61774      4780  TIP3      H1             -0.6622720316       -2.2447349484       59.3900460873  TIP3      3420            0.0000000000
     61775      4780  TIP3      H2              0.5908277306       -1.4601520031       59.2498922246  TIP3      3420            0.0000000000
     61776      4781  TIP3      OH2             1.6987465076       -2.0802493775       60.4617655926  TIP3      3421            0.0000000000
     61777      4781  TIP3      H1              2.5951938616       -2.3742457764       60.2735158564  TIP3      3421            0.0000000000
     61778      4781  TIP3      H2              1.3100562317       -2.8337409663       60.9503024596  TIP3      3421            0.0000000000
     61779      4782  TIP3      OH2            13.3310089190       13.3599589223       59.2760670434  TIP3      3422            0.0000000000
     61780      4782  TIP3      H1             12.4992331191       13.1256563090       58.8525378781  TIP3      3422            0.0000000000
     61781      4782  TIP3      H2             13.1817962279       14.2883307936       59.5466930979  TIP3      3422            0.0000000000
     61782      4783  TIP3      OH2            18.9668953143        6.1046033929       54.3735957320  TIP3      3423            0.0000000000
     61783      4783  TIP3      H1             19.0498232668        5.4289232959       55.0751090047  TIP3      3423            0.0000000000
     61784      4783  TIP3      H2             19.7027132577        6.6958209897       54.5844582338  TIP3      3423            0.0000000000
     61785      4784  TIP3      OH2            19.8923541908       10.5622681937       52.8655966611  TIP3      3424            0.0000000000
     61786      4784  TIP3      H1             19.5523216266        9.7124094089       52.5305373677  TIP3      3424            0.0000000000
     61787      4784  TIP3      H2             20.8381142025       10.3635019593       52.9012085129  TIP3      3424            0.0000000000
     61788      4785  TIP3      OH2            16.5575023775        4.1468085969       48.2016711141  TIP3      3425            0.0000000000
     61789      4785  TIP3      H1             16.1107594534        5.0262061778       48.3155732010  TIP3      3425            0.0000000000
     61790      4785  TIP3      H2             15.8556010542        3.6579749301       47.7940057885  TIP3      3425            0.0000000000
     61791      4786  TIP3      OH2            17.2272703951        6.3597627720       50.4799645088  TIP3      3426            0.0000000000
     61792      4786  TIP3      H1             17.4886979866        5.5349737871       50.9413540161  TIP3      3426            0.0000000000
     61793      4786  TIP3      H2             17.9348558972        6.4567557166       49.8303068580  TIP3      3426            0.0000000000
     61794      4787  TIP3      OH2            27.3109833346       14.4149016229       51.2567416957  TIP3      3427            0.0000000000
     61795      4787  TIP3      H1             28.1085690109       13.8658920491       51.0901448348  TIP3      3427            0.0000000000
     61796      4787  TIP3      H2             27.2305403240       14.2813777279       52.2139588167  TIP3      3427            0.0000000000
     61797      4788  TIP3      OH2            24.9644745282        8.8359561931       53.2686808985  TIP3      3428            0.0000000000
     61798      4788  TIP3      H1             25.3123192822        8.2480213884       52.5823416944  TIP3      3428            0.0000000000
     61799      4788  TIP3      H2             25.7600680431        9.0170744481       53.7977574580  TIP3      3428            0.0000000000
     61800      4789  TIP3      OH2            33.5839511949        0.5221701071       54.0870805507  TIP3      3429            0.0000000000
     61801      4789  TIP3      H1             33.7377984558        1.1118347542       54.8263707322  TIP3      3429            0.0000000000
     61802      4789  TIP3      H2             34.1039900157        0.9608967094       53.3995574719  TIP3      3429            0.0000000000
     61803      4790  TIP3      OH2            17.9013572034        3.8301970389       51.5607764076  TIP3      3430            0.0000000000
     61804      4790  TIP3      H1             18.5580072767        3.2515379541       51.9869584883  TIP3      3430            0.0000000000
     61805      4790  TIP3      H2             17.9898674750        3.5107778437       50.6545133382  TIP3      3430            0.0000000000
     61806      4791  TIP3      OH2            23.0464586414        5.3655412614       50.8123168399  TIP3      3431            0.0000000000
     61807      4791  TIP3      H1             23.7084565790        4.8047370486       51.2426965062  TIP3      3431            0.0000000000
     61808      4791  TIP3      H2             22.5390453028        4.6882199335       50.3456683736  TIP3      3431            0.0000000000
     61809      4792  TIP3      OH2            20.1585202202        0.3200096754       54.8405176195  TIP3      3432            0.0000000000
     61810      4792  TIP3      H1             19.8576002466        0.8718668174       54.0946518383  TIP3      3432            0.0000000000
     61811      4792  TIP3      H2             19.4716940936        0.5189537618       55.5230318597  TIP3      3432            0.0000000000
     61812      4793  TIP3      OH2            27.4643492125        9.7788165570       48.4189217091  TIP3      3433            0.0000000000
     61813      4793  TIP3      H1             27.1832715147        9.4668800805       47.5515440465  TIP3      3433            0.0000000000
     61814      4793  TIP3      H2             27.1607562137       10.6839904710       48.4901744211  TIP3      3433            0.0000000000
     61815      4794  TIP3      OH2            22.6836611196        7.9416547169       55.0867014110  TIP3      3434            0.0000000000
     61816      4794  TIP3      H1             21.9737201704        8.5843117192       55.2926509707  TIP3      3434            0.0000000000
     61817      4794  TIP3      H2             23.3933149404        8.5379901526       54.7992081110  TIP3      3434            0.0000000000
     61818      4795  TIP3      OH2            30.7759437227        0.7973239119       51.2033962369  TIP3      3435            0.0000000000
     61819      4795  TIP3      H1             30.5566268111        0.0318678962       51.7327427286  TIP3      3435            0.0000000000
     61820      4795  TIP3      H2             31.4297651836        1.3179975919       51.7050924916  TIP3      3435            0.0000000000
     61821      4796  TIP3      OH2            19.7334516400        2.1596667089       52.8269641074  TIP3      3436            0.0000000000
     61822      4796  TIP3      H1             20.3594736863        2.8341227610       53.1878777647  TIP3      3436            0.0000000000
     61823      4796  TIP3      H2             20.2387204530        1.7386829447       52.1173414412  TIP3      3436            0.0000000000
     61824      4797  TIP3      OH2            21.0922052539        9.9481493622       55.9081011282  TIP3      3437            0.0000000000
     61825      4797  TIP3      H1             21.0608742980       10.8613843558       55.5534663784  TIP3      3437            0.0000000000
     61826      4797  TIP3      H2             20.2318557842        9.8334060016       56.3313156940  TIP3      3437            0.0000000000
     61827      4798  TIP3      OH2            31.1334054756       -0.4944036317       54.9253044374  TIP3      3438            0.0000000000
     61828      4798  TIP3      H1             30.3857078104        0.0895127481       54.7654109683  TIP3      3438            0.0000000000
     61829      4798  TIP3      H2             31.8215889716       -0.1138616942       54.3562386651  TIP3      3438            0.0000000000
     61830      4799  TIP3      OH2            29.0658308501       13.0076441273       49.9681351533  TIP3      3439            0.0000000000
     61831      4799  TIP3      H1             29.5853990261       12.2932845245       49.5747236813  TIP3      3439            0.0000000000
     61832      4799  TIP3      H2             29.4988594254       13.8133206141       49.6681071324  TIP3      3439            0.0000000000
     61833      4800  TIP3      OH2            21.4556742932        7.3068795231       49.6404257345  TIP3      3440            0.0000000000
     61834      4800  TIP3      H1             21.1549981498        6.9202599145       48.7799181272  TIP3      3440            0.0000000000
     61835      4800  TIP3      H2             22.0643925752        6.6202887693       49.9922634558  TIP3      3440            0.0000000000
     61836      4801  TIP3      OH2            22.7830209605       10.6841804629       52.3541020650  TIP3      3441            0.0000000000
     61837      4801  TIP3      H1             22.7376122404       10.1358988252       51.5612256458  TIP3      3441            0.0000000000
     61838      4801  TIP3      H2             23.5829361531       10.3308844849       52.7797425688  TIP3      3441            0.0000000000
     61839      4802  TIP3      OH2            21.8225075349        6.0199441090       53.3267453611  TIP3      3442            0.0000000000
     61840      4802  TIP3      H1             22.3625253320        6.1652621100       52.5292859526  TIP3      3442            0.0000000000
     61841      4802  TIP3      H2             22.1688560793        6.7051953900       53.9406861435  TIP3      3442            0.0000000000
     61842      4803  TIP3      OH2            28.1735416515       11.6047796269       53.9988419840  TIP3      3443            0.0000000000
     61843      4803  TIP3      H1             27.9563461894       12.2562489950       54.6771992573  TIP3      3443            0.0000000000
     61844      4803  TIP3      H2             27.9613453031       10.7546741359       54.4338012886  TIP3      3443            0.0000000000
     61845      4804  TIP3      OH2            22.7385678101       10.4774459430       58.0139887360  TIP3      3444            0.0000000000
     61846      4804  TIP3      H1             22.3459488955       11.2230114510       58.5102824627  TIP3      3444            0.0000000000
     61847      4804  TIP3      H2             22.0765432091       10.2727455260       57.3156768535  TIP3      3444            0.0000000000
     61848      4805  TIP3      OH2            19.6752069688        6.6788662929       57.1937177200  TIP3      3445            0.0000000000
     61849      4805  TIP3      H1             19.6824244433        7.3173604031       57.9043873254  TIP3      3445            0.0000000000
     61850      4805  TIP3      H2             18.7322366297        6.7233412029       56.9462963558  TIP3      3445            0.0000000000
     61851      4806  TIP3      OH2            26.5622937298       12.4477308223       49.2363693996  TIP3      3446            0.0000000000
     61852      4806  TIP3      H1             27.1620661119       12.7658570965       49.9368020988  TIP3      3446            0.0000000000
     61853      4806  TIP3      H2             25.9409699244       13.1397175093       49.4243041220  TIP3      3446            0.0000000000
     61854      4807  TIP3      OH2            20.9579032998       12.4585826154       58.7607379476  TIP3      3447            0.0000000000
     61855      4807  TIP3      H1             20.9490106923       12.4279102982       57.7863067491  TIP3      3447            0.0000000000
     61856      4807  TIP3      H2             20.0324924164       12.4224887700       59.0132198303  TIP3      3447            0.0000000000
     61857      4808  TIP3      OH2            20.4652711181        6.3372107398       47.2713151578  TIP3      3448            0.0000000000
     61858      4808  TIP3      H1             20.1726687755        7.1119031950       46.7426668928  TIP3      3448            0.0000000000
     61859      4808  TIP3      H2             19.7859032111        5.6925285556       47.0590206702  TIP3      3448            0.0000000000
     61860      4809  TIP3      OH2            16.5898699573        8.7563555574       56.0595979099  TIP3      3449            0.0000000000
     61861      4809  TIP3      H1             16.0920448205        8.6480567771       55.2476353652  TIP3      3449            0.0000000000
     61862      4809  TIP3      H2             16.5689382375        7.8446197808       56.4033973573  TIP3      3449            0.0000000000
     61863      4810  TIP3      OH2            25.4598366991       11.7728270896       57.4620798862  TIP3      3450            0.0000000000
     61864      4810  TIP3      H1             25.5270983049       12.5721013341       58.0166444042  TIP3      3450            0.0000000000
     61865      4810  TIP3      H2             24.6250344672       11.3540798699       57.7467745749  TIP3      3450            0.0000000000
     61866      4811  TIP3      OH2            25.8658841486       15.4442381058       47.2500251650  TIP3      3451            0.0000000000
     61867      4811  TIP3      H1             25.8408275218       15.5387729591       46.2676439637  TIP3      3451            0.0000000000
     61868      4811  TIP3      H2             25.9338546997       16.4204450709       47.4759488340  TIP3      3451            0.0000000000
     61869      4812  TIP3      OH2            19.5766380540       14.3393760691       49.1021840804  TIP3      3452            0.0000000000
     61870      4812  TIP3      H1             19.7160979585       13.9367622456       49.9918402831  TIP3      3452            0.0000000000
     61871      4812  TIP3      H2             18.7202688033       13.9315968003       48.8754412069  TIP3      3452            0.0000000000
     61872      4813  TIP3      OH2            28.5989536692       14.5384138899       46.9822016039  TIP3      3453            0.0000000000
     61873      4813  TIP3      H1             27.7478416703       14.8113496349       47.3109920926  TIP3      3453            0.0000000000
     61874      4813  TIP3      H2             28.9905550759       13.9315907696       47.6247122118  TIP3      3453            0.0000000000
     61875      4814  TIP3      OH2            21.4875749537       -1.4085075784       53.0267718009  TIP3      3454            0.0000000000
     61876      4814  TIP3      H1             20.5773218853       -1.5879987197       52.7004418157  TIP3      3454            0.0000000000
     61877      4814  TIP3      H2             21.3429152576       -0.6306776545       53.5803594506  TIP3      3454            0.0000000000
     61878      4815  TIP3      OH2            21.5296786668        3.4752129462       54.2600603889  TIP3      3455            0.0000000000
     61879      4815  TIP3      H1             20.8386226966        3.4846364056       54.9443251219  TIP3      3455            0.0000000000
     61880      4815  TIP3      H2             21.5379153843        4.4067814091       53.9454226390  TIP3      3455            0.0000000000
     61881      4816  TIP3      OH2            26.9420095534        4.0703967542       47.8681319710  TIP3      3456            0.0000000000
     61882      4816  TIP3      H1             26.6436405900        4.9454351182       47.6437022994  TIP3      3456            0.0000000000
     61883      4816  TIP3      H2             27.7348348086        3.9300227719       47.3404055302  TIP3      3456            0.0000000000
     61884      4817  TIP3      OH2            19.1931782409        3.7813597294       56.0103320052  TIP3      3457            0.0000000000
     61885      4817  TIP3      H1             19.2573193457        4.1738592804       56.8958155201  TIP3      3457            0.0000000000
     61886      4817  TIP3      H2             18.7660054663        2.9322603072       56.2017205635  TIP3      3457            0.0000000000
     61887      4818  TIP3      OH2            15.9306029193        1.0019432178       49.9148876448  TIP3      3458            0.0000000000
     61888      4818  TIP3      H1             16.4644947580        0.8285768866       50.7207250449  TIP3      3458            0.0000000000
     61889      4818  TIP3      H2             16.2915444921        0.3715046621       49.2871720319  TIP3      3458            0.0000000000
     61890      4819  TIP3      OH2            17.0950811735        2.1971582141       44.6899275154  TIP3      3459            0.0000000000
     61891      4819  TIP3      H1             17.9076081118        2.7094555964       44.5490942938  TIP3      3459            0.0000000000
     61892      4819  TIP3      H2             16.5416756590        2.7417877464       45.3151895145  TIP3      3459            0.0000000000
     61893      4820  TIP3      OH2            18.8879606044        2.7256240657       49.0317060432  TIP3      3460            0.0000000000
     61894      4820  TIP3      H1             18.0107459502        2.8939515021       48.6637272975  TIP3      3460            0.0000000000
     61895      4820  TIP3      H2             19.2491582058        1.8968147953       48.6845408427  TIP3      3460            0.0000000000
     61896      4821  TIP3      OH2            22.5883656843        2.7239238918       46.5991301556  TIP3      3461            0.0000000000
     61897      4821  TIP3      H1             23.4941373333        2.9056193618       46.8777019542  TIP3      3461            0.0000000000
     61898      4821  TIP3      H2             22.3200055127        3.4641793645       46.0354822264  TIP3      3461            0.0000000000
     61899      4822  TIP3      OH2            28.5022267770        0.4064351526       53.4466923941  TIP3      3462            0.0000000000
     61900      4822  TIP3      H1             27.8086098760        0.4460179696       54.1213407106  TIP3      3462            0.0000000000
     61901      4822  TIP3      H2             28.0026071514        0.2012642807       52.6494229249  TIP3      3462            0.0000000000
     61902      4823  TIP3      OH2            21.2415369431        3.8824459460       44.2649659558  TIP3      3463            0.0000000000
     61903      4823  TIP3      H1             20.6820956836        3.6167036550       43.5201189144  TIP3      3463            0.0000000000
     61904      4823  TIP3      H2             22.0264578528        4.1318812407       43.7809877946  TIP3      3463            0.0000000000
     61905      4824  TIP3      OH2            20.3365900023        0.0858645033       48.4049259242  TIP3      3464            0.0000000000
     61906      4824  TIP3      H1             20.1075196453       -0.8516252965       48.5516186327  TIP3      3464            0.0000000000
     61907      4824  TIP3      H2             21.2017327229        0.0260159562       47.9671855985  TIP3      3464            0.0000000000
     61908      4825  TIP3      OH2            24.0035517655        2.2855932028       54.5057790713  TIP3      3465            0.0000000000
     61909      4825  TIP3      H1             23.1846470338        2.8029630611       54.6060510134  TIP3      3465            0.0000000000
     61910      4825  TIP3      H2             24.5533376792        2.5902973747       55.2337733749  TIP3      3465            0.0000000000
     61911      4826  TIP3      OH2            19.7439186843        7.8602370938       51.9968193057  TIP3      3466            0.0000000000
     61912      4826  TIP3      H1             20.4161386468        7.7861889586       51.2907010032  TIP3      3466            0.0000000000
     61913      4826  TIP3      H2             19.7924393058        6.9927987222       52.4328951700  TIP3      3466            0.0000000000
     61914      4827  TIP3      OH2            16.7870664583        6.2109267753       57.1823092094  TIP3      3467            0.0000000000
     61915      4827  TIP3      H1             16.8529352941        5.8950721067       58.1074517225  TIP3      3467            0.0000000000
     61916      4827  TIP3      H2             16.0531887953        5.6841705527       56.8336753512  TIP3      3467            0.0000000000
     61917      4828  TIP3      OH2            28.3574022296       11.1440517700       57.3826029560  TIP3      3468            0.0000000000
     61918      4828  TIP3      H1             27.4430663572       11.3632086556       57.1483787610  TIP3      3468            0.0000000000
     61919      4828  TIP3      H2             28.3873364353       11.3755108101       58.3070142646  TIP3      3468            0.0000000000
     61920      4829  TIP3      OH2            32.3763945388       12.1453235630       46.2431098694  TIP3      3469            0.0000000000
     61921      4829  TIP3      H1             31.9869357072       11.3311482337       46.5417995984  TIP3      3469            0.0000000000
     61922      4829  TIP3      H2             32.6198927846       11.9974784902       45.3286176143  TIP3      3469            0.0000000000
     61923      4830  TIP3      OH2            22.0847035872       11.3189485632       49.3286302575  TIP3      3470            0.0000000000
     61924      4830  TIP3      H1             22.5337951163       12.1511341858       49.1825507089  TIP3      3470            0.0000000000
     61925      4830  TIP3      H2             21.1743660081       11.5435979559       49.0803773431  TIP3      3470            0.0000000000
     61926      4831  TIP3      OH2            17.8081964756        6.0863232565       44.0435411444  TIP3      3471            0.0000000000
     61927      4831  TIP3      H1             18.4328818018        6.8031410752       44.2594210062  TIP3      3471            0.0000000000
     61928      4831  TIP3      H2             16.9851722302        6.5471986079       44.2015115674  TIP3      3471            0.0000000000
     61929      4832  TIP3      OH2            23.5436410247        9.0201357790       48.9564410740  TIP3      3472            0.0000000000
     61930      4832  TIP3      H1             23.1591139220        9.9047404257       48.9777774810  TIP3      3472            0.0000000000
     61931      4832  TIP3      H2             22.7865198659        8.5014482370       49.2974826308  TIP3      3472            0.0000000000
     61932      4833  TIP3      OH2            23.9617863075       13.1935161185       55.2950868600  TIP3      3473            0.0000000000
     61933      4833  TIP3      H1             24.4313327219       13.9927540137       55.0107806290  TIP3      3473            0.0000000000
     61934      4833  TIP3      H2             24.5710929752       12.8246205477       55.9623394088  TIP3      3473            0.0000000000
     61935      4834  TIP3      OH2            22.2412865705       14.0077648698       48.4190498978  TIP3      3474            0.0000000000
     61936      4834  TIP3      H1             21.2591279473       14.0858175942       48.5517196723  TIP3      3474            0.0000000000
     61937      4834  TIP3      H2             22.4976870007       14.8586946203       48.8219250948  TIP3      3474            0.0000000000
     61938      4835  TIP3      OH2            27.5068497231        9.1609096898       54.8925371928  TIP3      3475            0.0000000000
     61939      4835  TIP3      H1             27.1766081203        9.0337222461       55.7934580506  TIP3      3475            0.0000000000
     61940      4835  TIP3      H2             28.1518282066        8.4604002539       54.7789873253  TIP3      3475            0.0000000000
     61941      4836  TIP3      OH2            18.3599941949        1.0082308619       56.7902123947  TIP3      3476            0.0000000000
     61942      4836  TIP3      H1             17.4540978366        1.3635763690       56.7701692792  TIP3      3476            0.0000000000
     61943      4836  TIP3      H2             18.2675924849        0.1658824985       57.2575406064  TIP3      3476            0.0000000000
     61944      4837  TIP3      OH2            18.0099280976       12.8505522435       55.2279242675  TIP3      3477            0.0000000000
     61945      4837  TIP3      H1             18.2310452123       11.9050100468       55.1804209146  TIP3      3477            0.0000000000
     61946      4837  TIP3      H2             18.2379174961       13.1136776111       56.1180632126  TIP3      3477            0.0000000000
     61947      4838  TIP3      OH2            22.7241078318       10.8952399572       44.9142564038  TIP3      3478            0.0000000000
     61948      4838  TIP3      H1             22.9400282938       10.3038609104       45.6493282478  TIP3      3478            0.0000000000
     61949      4838  TIP3      H2             22.7463106675       11.7922319573       45.2628854631  TIP3      3478            0.0000000000
     61950      4839  TIP3      OH2            19.2863806290        8.0871644199       45.4445380233  TIP3      3479            0.0000000000
     61951      4839  TIP3      H1             18.5838457935        8.4973025502       45.9595872837  TIP3      3479            0.0000000000
     61952      4839  TIP3      H2             19.7630684993        8.8804710706       45.1518001872  TIP3      3479            0.0000000000
     61953      4840  TIP3      OH2            25.5592173987       12.6269983494       45.6384809613  TIP3      3480            0.0000000000
     61954      4840  TIP3      H1             24.6344543869       12.9315834501       45.4480899424  TIP3      3480            0.0000000000
     61955      4840  TIP3      H2             26.0483963520       12.9685792585       44.8595467833  TIP3      3480            0.0000000000
     61956      4841  TIP3      OH2            23.0412884686       13.6036817381       45.7654264819  TIP3      3481            0.0000000000
     61957      4841  TIP3      H1             23.0238428917       14.3901025788       45.1572623949  TIP3      3481            0.0000000000
     61958      4841  TIP3      H2             22.5539398288       13.9240283255       46.5577984914  TIP3      3481            0.0000000000
     61959      4842  TIP3      OH2            21.5029723564        0.2643391842       45.3953708026  TIP3      3482            0.0000000000
     61960      4842  TIP3      H1             21.5924216816        1.2092443665       45.6154590300  TIP3      3482            0.0000000000
     61961      4842  TIP3      H2             22.4347850307        0.0205711757       45.5037362306  TIP3      3482            0.0000000000
     61962      4843  TIP3      OH2            31.8151988458        1.0739544939       57.6796723176  TIP3      3483            0.0000000000
     61963      4843  TIP3      H1             30.8639689842        1.2461537771       57.6096885422  TIP3      3483            0.0000000000
     61964      4843  TIP3      H2             32.1089698282        0.9656971099       56.7773688167  TIP3      3483            0.0000000000
     61965      4844  TIP3      OH2            19.8318230887       10.7662204076       44.2852042198  TIP3      3484            0.0000000000
     61966      4844  TIP3      H1             20.5169241016       11.3482062693       44.6261159826  TIP3      3484            0.0000000000
     61967      4844  TIP3      H2             20.3107643903       10.2505563041       43.6198300750  TIP3      3484            0.0000000000
     61968      4845  TIP3      OH2            31.5079730889       14.0127830222       53.3039250758  TIP3      3485            0.0000000000
     61969      4845  TIP3      H1             31.3501631704       14.7615846115       52.7412076477  TIP3      3485            0.0000000000
     61970      4845  TIP3      H2             32.4168009877       14.1033057473       53.6081981145  TIP3      3485            0.0000000000
     61971      4846  TIP3      OH2            18.9977281599       -1.8284404522       52.1620242786  TIP3      3486            0.0000000000
     61972      4846  TIP3      H1             18.7616657667       -1.7892417201       51.2090009928  TIP3      3486            0.0000000000
     61973      4846  TIP3      H2             18.5406702936       -2.6573364390       52.4187197057  TIP3      3486            0.0000000000
     61974      4847  TIP3      OH2            17.9594431338       12.1242616758       48.3425232784  TIP3      3487            0.0000000000
     61975      4847  TIP3      H1             17.0950250078       12.5362912220       48.2539621681  TIP3      3487            0.0000000000
     61976      4847  TIP3      H2             18.4145379889       12.5601021731       47.6094568248  TIP3      3487            0.0000000000
     61977      4848  TIP3      OH2            17.1489560911       14.7291441156       59.5906936512  TIP3      3488            0.0000000000
     61978      4848  TIP3      H1             17.7277349176       14.5628975043       60.3634287304  TIP3      3488            0.0000000000
     61979      4848  TIP3      H2             16.7185657351       13.8808505751       59.4496002398  TIP3      3488            0.0000000000
     61980      4849  TIP3      OH2            21.7961565410       13.6358444842       61.2117411027  TIP3      3489            0.0000000000
     61981      4849  TIP3      H1             22.5596135120       13.1479080593       61.5354605996  TIP3      3489            0.0000000000
     61982      4849  TIP3      H2             21.7887539375       13.4044649562       60.2692123285  TIP3      3489            0.0000000000
     61983      4850  TIP3      OH2            18.0369598898        5.7704048381       60.0005085128  TIP3      3490            0.0000000000
     61984      4850  TIP3      H1             18.3491273618        4.8680495007       59.8922403736  TIP3      3490            0.0000000000
     61985      4850  TIP3      H2             17.6516542015        5.7819654587       60.8787546565  TIP3      3490            0.0000000000
     61986      4851  TIP3      OH2            22.6063958140        6.8355294215       45.0105285341  TIP3      3491            0.0000000000
     61987      4851  TIP3      H1             22.1306238158        6.3498764871       45.6932351902  TIP3      3491            0.0000000000
     61988      4851  TIP3      H2             22.8724375925        6.1826990562       44.3729997653  TIP3      3491            0.0000000000
     61989      4852  TIP3      OH2            21.8540934830        4.6789449169       57.3408310052  TIP3      3492            0.0000000000
     61990      4852  TIP3      H1             21.2845288609        5.4066529997       57.6367749625  TIP3      3492            0.0000000000
     61991      4852  TIP3      H2             22.2580419440        5.0656639631       56.5485550745  TIP3      3492            0.0000000000
     61992      4853  TIP3      OH2            22.2945549108        2.0838460442       58.3895372296  TIP3      3493            0.0000000000
     61993      4853  TIP3      H1             22.3858556417        1.3587325401       57.7437573868  TIP3      3493            0.0000000000
     61994      4853  TIP3      H2             22.2143915495        2.8919938258       57.8429527544  TIP3      3493            0.0000000000
     61995      4854  TIP3      OH2            22.6866247921        0.4392829106       55.9176809142  TIP3      3494            0.0000000000
     61996      4854  TIP3      H1             23.1854593350        0.9249278465       55.2325012817  TIP3      3494            0.0000000000
     61997      4854  TIP3      H2             21.7758295252        0.3666473042       55.5632234813  TIP3      3494            0.0000000000
     61998      4855  TIP3      OH2            24.1741992152        5.8842252014       56.1000128681  TIP3      3495            0.0000000000
     61999      4855  TIP3      H1             24.9695076821        5.7548708746       55.5856159860  TIP3      3495            0.0000000000
     62000      4855  TIP3      H2             23.8592362717        6.7657311406       55.8397147525  TIP3      3495            0.0000000000
     62001      4856  TIP3      OH2            28.6088203966        3.6597815311       61.2209597070  TIP3      3496            0.0000000000
     62002      4856  TIP3      H1             28.8694856667        2.7600401368       61.0789795702  TIP3      3496            0.0000000000
     62003      4856  TIP3      H2             29.4590778439        4.1217507367       61.1985475468  TIP3      3496            0.0000000000
     62004      4857  TIP3      OH2            20.7431052633        3.3251991311       60.3232910402  TIP3      3497            0.0000000000
     62005      4857  TIP3      H1             19.9751766501        2.7377700809       60.1581030902  TIP3      3497            0.0000000000
     62006      4857  TIP3      H2             21.3966867529        2.9193252228       59.7218477607  TIP3      3497            0.0000000000
     62007      4858  TIP3      OH2            23.4561308783       -2.1251487840       56.2665927855  TIP3      3498            0.0000000000
     62008      4858  TIP3      H1             23.2974786558       -1.1596875639       56.2591221802  TIP3      3498            0.0000000000
     62009      4858  TIP3      H2             22.6463930746       -2.4745138059       55.8654518960  TIP3      3498            0.0000000000
     62010      4859  TIP3      OH2            24.7074798824        2.3356986239       59.9882302352  TIP3      3499            0.0000000000
     62011      4859  TIP3      H1             24.4501876873        2.0005048922       60.8415995898  TIP3      3499            0.0000000000
     62012      4859  TIP3      H2             23.9700208373        2.0605678649       59.4125416022  TIP3      3499            0.0000000000
     62013      4860  TIP3      OH2            18.8370754487        1.2706057313       60.0829130948  TIP3      3500            0.0000000000
     62014      4860  TIP3      H1             19.0461397530        0.5370349970       59.4781807331  TIP3      3500            0.0000000000
     62015      4860  TIP3      H2             18.7589838866        0.7911060947       60.9349947768  TIP3      3500            0.0000000000
     62016      4861  TIP3      OH2            23.5555266206       15.7793028347       44.2570728381  TIP3      3501            0.0000000000
     62017      4861  TIP3      H1             24.5064764160       15.9485076673       44.3571030326  TIP3      3501            0.0000000000
     62018      4861  TIP3      H2             23.3050471019       16.4838118263       43.6517879953  TIP3      3501            0.0000000000
     62019      4862  TIP3      OH2            15.8535152474       15.8159979412       48.7206217387  TIP3      3502            0.0000000000
     62020      4862  TIP3      H1             15.1258990872       15.2604818103       48.3445732871  TIP3      3502            0.0000000000
     62021      4862  TIP3      H2             16.1515264806       15.1854033969       49.4206241549  TIP3      3502            0.0000000000
     62022      4863  TIP3      OH2            16.6503244399       13.9059224673       50.5988463665  TIP3      3503            0.0000000000
     62023      4863  TIP3      H1             16.3284091732       13.0211084668       50.8245578212  TIP3      3503            0.0000000000
     62024      4863  TIP3      H2             16.9179543536       14.2251453160       51.4879560104  TIP3      3503            0.0000000000
     62025      4864  TIP3      OH2            32.1645921145       12.0581060758       55.7675143079  TIP3      3504            0.0000000000
     62026      4864  TIP3      H1             31.4818831309       12.3724088928       56.3634044079  TIP3      3504            0.0000000000
     62027      4864  TIP3      H2             31.6596128160       11.5821998775       55.0993412104  TIP3      3504            0.0000000000
     62028      4865  TIP3      OH2            16.7032276871        6.9228542815       53.1461751409  TIP3      3505            0.0000000000
     62029      4865  TIP3      H1             16.8851863837        6.9253685876       52.1804601636  TIP3      3505            0.0000000000
     62030      4865  TIP3      H2             17.6046278218        6.8427807152       53.5095454632  TIP3      3505            0.0000000000
     62031      4866  TIP3      OH2            31.3798822283        2.4411824168       47.3848909231  TIP3      3506            0.0000000000
     62032      4866  TIP3      H1             31.6904330073        1.5621398440       47.6840700273  TIP3      3506            0.0000000000
     62033      4866  TIP3      H2             32.1974510900        2.8905322183       47.1800772959  TIP3      3506            0.0000000000
     62034      4867  TIP3      OH2            32.0423939519        2.9001544858       52.9693444545  TIP3      3507            0.0000000000
     62035      4867  TIP3      H1             32.9459481031        3.2816178666       52.9083314401  TIP3      3507            0.0000000000
     62036      4867  TIP3      H2             31.7846952788        3.1635055153       53.8514517842  TIP3      3507            0.0000000000
     62037      4868  TIP3      OH2            16.3479954758        2.2257657753       59.2485937717  TIP3      3508            0.0000000000
     62038      4868  TIP3      H1             17.2868657924        2.0793363726       59.4794181479  TIP3      3508            0.0000000000
     62039      4868  TIP3      H2             15.9028723558        1.4305188544       59.6112159544  TIP3      3508            0.0000000000
     62040      4869  TIP3      OH2            32.0426753685       -0.3219512895       47.5441629994  TIP3      3509            0.0000000000
     62041      4869  TIP3      H1             32.2107012662       -0.6955517930       48.4143878808  TIP3      3509            0.0000000000
     62042      4869  TIP3      H2             31.4063223346       -0.9045686909       47.1372780925  TIP3      3509            0.0000000000
     62043      4870  TIP3      OH2            17.5243374694        0.5510687478       52.1412126910  TIP3      3510            0.0000000000
     62044      4870  TIP3      H1             18.0110042493       -0.2541632151       52.4043997519  TIP3      3510            0.0000000000
     62045      4870  TIP3      H2             18.0441675244        1.2548101781       52.5427599934  TIP3      3510            0.0000000000
     62046      4871  TIP3      OH2            15.8236475524        3.5371602057       53.2003240018  TIP3      3511            0.0000000000
     62047      4871  TIP3      H1             16.3783187690        3.3297731013       52.4248574259  TIP3      3511            0.0000000000
     62048      4871  TIP3      H2             16.2480257113        4.3678037133       53.4566711967  TIP3      3511            0.0000000000
     62049      4872  TIP3      OH2            15.8436406224       -0.2792195221       47.6643793791  TIP3      3512            0.0000000000
     62050      4872  TIP3      H1             14.9313596084       -0.1269127808       47.2995235002  TIP3      3512            0.0000000000
     62051      4872  TIP3      H2             16.5042135809       -0.5223055857       47.0804693975  TIP3      3512            0.0000000000
     62052      4873  TIP3      OH2            16.1141930719       -1.4922019103       55.5623385029  TIP3      3513            0.0000000000
     62053      4873  TIP3      H1             15.4356168650       -1.7221207345       56.2007264650  TIP3      3513            0.0000000000
     62054      4873  TIP3      H2             15.6679116579       -0.8276531585       54.9963423747  TIP3      3513            0.0000000000
     62055      4874  TIP3      OH2            21.2254144880       12.6814484083       55.9629386927  TIP3      3514            0.0000000000
     62056      4874  TIP3      H1             20.9037799163       13.5586431083       55.6970122190  TIP3      3514            0.0000000000
     62057      4874  TIP3      H2             22.1661318241       12.7764496140       55.6855363240  TIP3      3514            0.0000000000
     62058      4875  TIP3      OH2            25.5940175395       14.1044580445       58.9153674100  TIP3      3515            0.0000000000
     62059      4875  TIP3      H1             25.7445888819       13.7833584123       59.8361348531  TIP3      3515            0.0000000000
     62060      4875  TIP3      H2             26.4684233960       14.3891457282       58.6378658202  TIP3      3515            0.0000000000
     62061      4876  TIP3      OH2            32.8904400762       -2.0066862082       57.2348841947  TIP3      3516            0.0000000000
     62062      4876  TIP3      H1             32.0280086929       -1.7266887547       56.9010409414  TIP3      3516            0.0000000000
     62063      4876  TIP3      H2             33.0685301804       -2.8356290497       56.7705936446  TIP3      3516            0.0000000000
     62064      4877  TIP3      OH2            18.6932459997       15.9148440227       56.0453782937  TIP3      3517            0.0000000000
     62065      4877  TIP3      H1             17.9707679747       16.3755033829       55.5758828941  TIP3      3517            0.0000000000
     62066      4877  TIP3      H2             18.3249331819       15.7049114079       56.9054112172  TIP3      3517            0.0000000000
     62067      4878  TIP3      OH2            21.1829280848       15.5187403336       55.0424908867  TIP3      3518            0.0000000000
     62068      4878  TIP3      H1             20.2978921578       15.6742079405       55.4499840323  TIP3      3518            0.0000000000
     62069      4878  TIP3      H2             21.0796542183       16.1012165105       54.2769168994  TIP3      3518            0.0000000000
     62070      4879  TIP3      OH2            25.8247088552       15.4096967933       54.2677275982  TIP3      3519            0.0000000000
     62071      4879  TIP3      H1             25.4294062402       15.9491468159       53.5816629339  TIP3      3519            0.0000000000
     62072      4879  TIP3      H2             26.0170610795       16.0642676378       54.9791994674  TIP3      3519            0.0000000000
     62073      4880  TIP3      OH2            28.1641845214       14.2866975654       55.2358578452  TIP3      3520            0.0000000000
     62074      4880  TIP3      H1             27.2878560478       14.5047570912       54.9001736145  TIP3      3520            0.0000000000
     62075      4880  TIP3      H2             28.6310301119       15.1201580750       55.1077944203  TIP3      3520            0.0000000000
     62076      4881  TIP3      OH2            18.1376307930       14.5767015815       52.9015395038  TIP3      3521            0.0000000000
     62077      4881  TIP3      H1             18.0837785917       14.1248321475       53.7694896082  TIP3      3521            0.0000000000
     62078      4881  TIP3      H2             18.9584573823       14.2044061776       52.5344979581  TIP3      3521            0.0000000000
     62079      4882  TIP3      OH2            20.2259417510       13.2833819313       51.5584363928  TIP3      3522            0.0000000000
     62080      4882  TIP3      H1             20.0407404543       12.3519268399       51.7883189756  TIP3      3522            0.0000000000
     62081      4882  TIP3      H2             21.0663976079       13.4396569854       52.0392324189  TIP3      3522            0.0000000000
     62082      4883  TIP3      OH2            22.8240087554       13.7556363870       52.4073201597  TIP3      3523            0.0000000000
     62083      4883  TIP3      H1             22.9580572651       12.8163346554       52.2155798243  TIP3      3523            0.0000000000
     62084      4883  TIP3      H2             22.8835565193       13.7454355723       53.3760684283  TIP3      3523            0.0000000000
     62085      4884  TIP3      OH2            31.4028820561       -2.4796161248       51.6772236056  TIP3      3524            0.0000000000
     62086      4884  TIP3      H1             32.0161992172       -1.9466462343       51.1631766820  TIP3      3524            0.0000000000
     62087      4884  TIP3      H2             30.5316511957       -2.1827465674       51.3867014956  TIP3      3524            0.0000000000
     62088      4885  TIP3      OH2            18.6616553634       -1.9311157389       49.3705945367  TIP3      3525            0.0000000000
     62089      4885  TIP3      H1             17.8311912658       -2.2238013424       48.9626377028  TIP3      3525            0.0000000000
     62090      4885  TIP3      H2             19.1358995962       -2.7928593978       49.4006316835  TIP3      3525            0.0000000000
     62091      4886  TIP3      OH2            17.5781926142       -2.0708333697       45.3512779230  TIP3      3526            0.0000000000
     62092      4886  TIP3      H1             17.8784368743       -1.6330917793       44.5203553879  TIP3      3526            0.0000000000
     62093      4886  TIP3      H2             16.6964297277       -1.8175191898       45.5909708824  TIP3      3526            0.0000000000
     62094      4887  TIP3      OH2            17.3595502384       13.7736082769       46.1428803944  TIP3      3527            0.0000000000
     62095      4887  TIP3      H1             16.6723764699       13.7207404818       45.4587800397  TIP3      3527            0.0000000000
     62096      4887  TIP3      H2             17.3830187237       14.7039062992       46.3592200429  TIP3      3527            0.0000000000
     62097      4888  TIP3      OH2            19.2725560299       -0.2822481251       43.7912338364  TIP3      3528            0.0000000000
     62098      4888  TIP3      H1             19.7557783433       -0.8351101111       43.1555147122  TIP3      3528            0.0000000000
     62099      4888  TIP3      H2             20.0459336647        0.0694207617       44.2822086350  TIP3      3528            0.0000000000
     62100      4889  TIP3      OH2            26.2550331578       14.9523862092       44.5537267682  TIP3      3529            0.0000000000
     62101      4889  TIP3      H1             27.0818091670       15.4094979641       44.3101227119  TIP3      3529            0.0000000000
     62102      4889  TIP3      H2             26.0004608257       14.5914165696       43.6878408908  TIP3      3529            0.0000000000
     62103      4890  TIP3      OH2            18.5443207112       -1.4270504802       58.9065818588  TIP3      3530            0.0000000000
     62104      4890  TIP3      H1             18.1728216662       -2.2213947968       59.3279668359  TIP3      3530            0.0000000000
     62105      4890  TIP3      H2             19.4608245164       -1.4641430005       59.2597325725  TIP3      3530            0.0000000000
     62106      4891  TIP3      OH2            20.5546369431       -2.0529792624       60.5276584583  TIP3      3531            0.0000000000
     62107      4891  TIP3      H1             21.4296942387       -2.3655208622       60.2316966321  TIP3      3531            0.0000000000
     62108      4891  TIP3      H2             20.1747202854       -2.8577013670       60.9265821704  TIP3      3531            0.0000000000
     62109      4892  TIP3      OH2            19.1732239895       14.7592850579       43.1394952625  TIP3      3532            0.0000000000
     62110      4892  TIP3      H1             18.8903372968       14.9745791484       44.0301218877  TIP3      3532            0.0000000000
     62111      4892  TIP3      H2             19.9054498835       14.1617771994       43.2953210731  TIP3      3532            0.0000000000
     62112      4893  TIP3      OH2            37.8427166322        6.0992734443       54.3575724065  TIP3      3533            0.0000000000
     62113      4893  TIP3      H1             37.8734518079        5.4718732707       55.0951040063  TIP3      3533            0.0000000000
     62114      4893  TIP3      H2             38.5878857427        6.6791072870       54.5596254025  TIP3      3533            0.0000000000
     62115      4894  TIP3      OH2            38.6952014657       10.5303889303       52.9050682367  TIP3      3534            0.0000000000
     62116      4894  TIP3      H1             38.4111772286        9.6818474706       52.5305725015  TIP3      3534            0.0000000000
     62117      4894  TIP3      H2             39.6577174255       10.3917542885       52.9330440097  TIP3      3534            0.0000000000
     62118      4895  TIP3      OH2            36.1315980389        6.3273101223       50.4389489989  TIP3      3535            0.0000000000
     62119      4895  TIP3      H1             36.3601666325        5.5410752076       50.9388023201  TIP3      3535            0.0000000000
     62120      4895  TIP3      H2             36.8607199822        6.4620670604       49.8272681659  TIP3      3535            0.0000000000
     62121      4896  TIP3      OH2            39.7736578767       10.0237961713       55.7139446753  TIP3      3536            0.0000000000
     62122      4896  TIP3      H1             39.8735218491       10.9841642905       55.6140553030  TIP3      3536            0.0000000000
     62123      4896  TIP3      H2             39.0472288232        9.9696786406       56.3697944493  TIP3      3536            0.0000000000
     62124      4897  TIP3      OH2            40.1174431539        7.3238146192       49.6337938900  TIP3      3537            0.0000000000
     62125      4897  TIP3      H1             39.9863504651        6.9508464411       48.7395730013  TIP3      3537            0.0000000000
     62126      4897  TIP3      H2             40.8465523316        6.7616263131       49.9837427760  TIP3      3537            0.0000000000
     62127      4898  TIP3      OH2            39.7863905969       12.5599532739       58.7786992783  TIP3      3538            0.0000000000
     62128      4898  TIP3      H1             39.8334563953       12.3785916928       57.8265827146  TIP3      3538            0.0000000000
     62129      4898  TIP3      H2             38.8702233912       12.3528556767       58.9998307766  TIP3      3538            0.0000000000
     62130      4899  TIP3      OH2            39.3271659382        6.3366094260       47.2642532241  TIP3      3539            0.0000000000
     62131      4899  TIP3      H1             39.0316223814        7.1106276680       46.7440538270  TIP3      3539            0.0000000000
     62132      4899  TIP3      H2             38.6203987462        5.7251503073       47.0485753940  TIP3      3539            0.0000000000
     62133      4900  TIP3      OH2            35.1646203966       11.4887326970       52.9298303470  TIP3      3540            0.0000000000
     62134      4900  TIP3      H1             36.1166349345       11.3418863017       52.9105673968  TIP3      3540            0.0000000000
     62135      4900  TIP3      H2             35.0841215703       12.2636694385       53.4866334923  TIP3      3540            0.0000000000
     62136      4901  TIP3      OH2            37.6060014160       10.1364136376       57.1847557886  TIP3      3541            0.0000000000
     62137      4901  TIP3      H1             37.9059490974        9.6390622653       57.9763228574  TIP3      3541            0.0000000000
     62138      4901  TIP3      H2             36.8288799502        9.6331971861       56.9097124477  TIP3      3541            0.0000000000
     62139      4902  TIP3      OH2            38.2080721046        8.5339700492       59.3479832259  TIP3      3542            0.0000000000
     62140      4902  TIP3      H1             38.9853264304        8.7618201229       59.8891189587  TIP3      3542            0.0000000000
     62141      4902  TIP3      H2             37.4670519713        8.6971109388       59.9244485859  TIP3      3542            0.0000000000
     62142      4903  TIP3      OH2            38.5670483961        7.8175165842       51.9903350976  TIP3      3543            0.0000000000
     62143      4903  TIP3      H1             39.2953409934        7.8136574130       51.3392552262  TIP3      3543            0.0000000000
     62144      4903  TIP3      H2             38.6880078210        6.9729778106       52.4401648831  TIP3      3543            0.0000000000
     62145      4904  TIP3      OH2            36.8209115880       12.7878576634       55.2545596109  TIP3      3544            0.0000000000
     62146      4904  TIP3      H1             37.1299160286       11.8727049204       55.2262600988  TIP3      3544            0.0000000000
     62147      4904  TIP3      H2             37.1396712656       13.0848894621       56.1094497982  TIP3      3544            0.0000000000
     62148      4905  TIP3      OH2            38.1022526676        8.1046586424       45.4632026016  TIP3      3545            0.0000000000
     62149      4905  TIP3      H1             37.4134372665        8.5153800704       45.9898493357  TIP3      3545            0.0000000000
     62150      4905  TIP3      H2             38.6026925338        8.8829976810       45.1723930673  TIP3      3545            0.0000000000
     62151      4906  TIP3      OH2            38.6899836613       10.6691075757       44.3440507015  TIP3      3546            0.0000000000
     62152      4906  TIP3      H1             39.2750849353       11.3791758294       44.6306730900  TIP3      3546            0.0000000000
     62153      4906  TIP3      H2             39.1782509971       10.2803735544       43.6114211717  TIP3      3546            0.0000000000
     62154      4907  TIP3      OH2            36.7934709954       12.0819476094       48.2935653249  TIP3      3547            0.0000000000
     62155      4907  TIP3      H1             35.9520303622       12.5449844393       48.3079682198  TIP3      3547            0.0000000000
     62156      4907  TIP3      H2             37.2711499060       12.6126494573       47.6597061472  TIP3      3547            0.0000000000
     62157      4908  TIP3      OH2            36.1269199526       14.7038098392       59.6066158679  TIP3      3548            0.0000000000
     62158      4908  TIP3      H1             36.6258297889       14.5123560436       60.4085910730  TIP3      3548            0.0000000000
     62159      4908  TIP3      H2             35.5813459978       13.9300513867       59.4488165317  TIP3      3548            0.0000000000
     62160      4909  TIP3      OH2            35.5244529650        6.9057438716       53.0639692039  TIP3      3549            0.0000000000
     62161      4909  TIP3      H1             35.7591196789        6.9315582148       52.1219418696  TIP3      3549            0.0000000000
     62162      4909  TIP3      H2             36.3945972296        6.8226109202       53.4959995306  TIP3      3549            0.0000000000
     62163      4910  TIP3      OH2            34.6838246269        3.5850168188       53.1537820159  TIP3      3550            0.0000000000
     62164      4910  TIP3      H1             35.2481035569        3.3528994922       52.4080732429  TIP3      3550            0.0000000000
     62165      4910  TIP3      H2             35.1004547449        4.4031853152       53.4829754049  TIP3      3550            0.0000000000
     62166      4911  TIP3      OH2            34.9958314325       -1.5360227700       55.5248978065  TIP3      3551            0.0000000000
     62167      4911  TIP3      H1             34.3509756695       -1.6970141678       56.2495207266  TIP3      3551            0.0000000000
     62168      4911  TIP3      H2             34.5403142376       -0.8381719447       55.0367323386  TIP3      3551            0.0000000000
     62169      4912  TIP3      OH2            37.1871507878       11.6827742797       59.7393815820  TIP3      3552            0.0000000000
     62170      4912  TIP3      H1             36.3645521551       11.8583222286       59.2739138710  TIP3      3552            0.0000000000
     62171      4912  TIP3      H2             36.9370716198       11.6594885592       60.6658223002  TIP3      3552            0.0000000000
     62172      4913  TIP3      OH2            40.0953685750       12.6947728471       55.9564215399  TIP3      3553            0.0000000000
     62173      4913  TIP3      H1             39.7549986634       13.5654792318       55.6815633800  TIP3      3553            0.0000000000
     62174      4913  TIP3      H2             41.0460882122       12.7968642957       55.7232814770  TIP3      3553            0.0000000000
     62175      4914  TIP3      OH2            37.5432785610       15.9770800214       56.0254499876  TIP3      3554            0.0000000000
     62176      4914  TIP3      H1             36.7961446109       16.3934494779       55.5823043294  TIP3      3554            0.0000000000
     62177      4914  TIP3      H2             37.1824989661       15.7088309854       56.8825879540  TIP3      3554            0.0000000000
     62178      4915  TIP3      OH2            39.8519881495       15.2733319106       54.9128732013  TIP3      3555            0.0000000000
     62179      4915  TIP3      H1             39.1106602626       15.5956667494       55.4672238243  TIP3      3555            0.0000000000
     62180      4915  TIP3      H2             39.9969352432       16.0522765867       54.3330627254  TIP3      3555            0.0000000000
     62181      4916  TIP3      OH2            39.0945808805       13.3112710032       51.5556630593  TIP3      3556            0.0000000000
     62182      4916  TIP3      H1             38.8644249965       12.3898662831       51.7748725005  TIP3      3556            0.0000000000
     62183      4916  TIP3      H2             39.8976439830       13.3998845247       52.0566228216  TIP3      3556            0.0000000000
     62184      4917  TIP3      OH2            36.2685407876       13.7970488634       46.0516787674  TIP3      3557            0.0000000000
     62185      4917  TIP3      H1             35.5180146306       13.7663239656       45.4512063438  TIP3      3557            0.0000000000
     62186      4917  TIP3      H2             36.1836689290       14.6804436844       46.4213643184  TIP3      3557            0.0000000000
     62187      4918  TIP3      OH2            38.0115724883       14.6931781628       43.1273597610  TIP3      3558            0.0000000000
     62188      4918  TIP3      H1             37.7561222141       14.9972082436       44.0007207527  TIP3      3558            0.0000000000
     62189      4918  TIP3      H2             38.8150918255       14.2152470525       43.2966271047  TIP3      3558            0.0000000000
     62190      4919  TIP3      OH2           -26.2443125403       28.2662472523       51.1050251737  TIP3      3559            0.0000000000
     62191      4919  TIP3      H1            -26.6499040691       27.5267999902       51.5653843879  TIP3      3559            0.0000000000
     62192      4919  TIP3      H2            -26.2581743366       28.9678076240       51.7735356596  TIP3      3559            0.0000000000
     62193      4920  TIP3      OH2           -36.6798289583       29.4480563972       52.8377894647  TIP3      3560            0.0000000000
     62194      4920  TIP3      H1            -37.0478785269       28.5898507060       52.5960322497  TIP3      3560            0.0000000000
     62195      4920  TIP3      H2            -35.7343094331       29.2468703582       52.9395956394  TIP3      3560            0.0000000000
     62196      4921  TIP3      OH2           -39.8848430234       23.2669096692       47.6019477727  TIP3      3561            0.0000000000
     62197      4921  TIP3      H1            -40.3699615450       23.8662803796       48.1953019869  TIP3      3561            0.0000000000
     62198      4921  TIP3      H2            -40.5086412503       22.5557807114       47.5525936290  TIP3      3561            0.0000000000
     62199      4922  TIP3      OH2           -29.1449129812       33.3091012263       51.2683638412  TIP3      3562            0.0000000000
     62200      4922  TIP3      H1            -28.4749768341       32.6577967867       51.0543368687  TIP3      3562            0.0000000000
     62201      4922  TIP3      H2            -29.3633128443       33.0872525254       52.1779991494  TIP3      3562            0.0000000000
     62202      4923  TIP3      OH2           -22.9705221682       19.3251357714       54.0161608228  TIP3      3563            0.0000000000
     62203      4923  TIP3      H1            -22.8273234722       19.9441531461       54.7707032459  TIP3      3563            0.0000000000
     62204      4923  TIP3      H2            -22.4384986532       19.7673720916       53.3422977260  TIP3      3563            0.0000000000
     62205      4924  TIP3      OH2           -28.3867547471       22.1769899300       53.5532406904  TIP3      3564            0.0000000000
     62206      4924  TIP3      H1            -28.3002721106       21.2120362573       53.5713324514  TIP3      3564            0.0000000000
     62207      4924  TIP3      H2            -28.5393230541       22.2989509098       52.6019105051  TIP3      3564            0.0000000000
     62208      4925  TIP3      OH2           -35.3241891063       20.2457621351       50.8236135095  TIP3      3565            0.0000000000
     62209      4925  TIP3      H1            -35.2250928456       21.0918937959       50.3493297167  TIP3      3565            0.0000000000
     62210      4925  TIP3      H2            -35.7018765738       19.6949618722       50.1207043774  TIP3      3565            0.0000000000
     62211      4926  TIP3      OH2           -27.5793561955       20.3134905630       49.1953944949  TIP3      3566            0.0000000000
     62212      4926  TIP3      H1            -26.8963315640       20.0266712378       49.8408061156  TIP3      3566            0.0000000000
     62213      4926  TIP3      H2            -27.0428984533       20.8651046741       48.5971735886  TIP3      3566            0.0000000000
     62214      4927  TIP3      OH2           -22.5549119220       20.7856963458       56.2463177869  TIP3      3567            0.0000000000
     62215      4927  TIP3      H1            -23.1758019363       21.5348217348       56.1775421958  TIP3      3567            0.0000000000
     62216      4927  TIP3      H2            -22.4985342668       20.6547431526       57.2063740492  TIP3      3567            0.0000000000
     62217      4928  TIP3      OH2           -36.4147717071       19.1662420160       54.7724747879  TIP3      3568            0.0000000000
     62218      4928  TIP3      H1            -36.7199990375       19.7445041841       54.0595083050  TIP3      3568            0.0000000000
     62219      4928  TIP3      H2            -37.0726872919       19.3343853814       55.4758582919  TIP3      3568            0.0000000000
     62220      4929  TIP3      OH2           -29.1193829184       28.6433163385       48.4203843021  TIP3      3569            0.0000000000
     62221      4929  TIP3      H1            -29.3606807808       28.3406165106       47.5362751412  TIP3      3569            0.0000000000
     62222      4929  TIP3      H2            -29.4306697564       29.5704416683       48.4165269905  TIP3      3569            0.0000000000
     62223      4930  TIP3      OH2           -25.7831472234       19.6902778712       51.1687777660  TIP3      3570            0.0000000000
     62224      4930  TIP3      H1            -26.0016948575       18.9148051565       51.6990026007  TIP3      3570            0.0000000000
     62225      4930  TIP3      H2            -25.1140349449       20.1248780423       51.7217097569  TIP3      3570            0.0000000000
     62226      4931  TIP3      OH2           -36.8588278815       20.9989878003       52.8767986827  TIP3      3571            0.0000000000
     62227      4931  TIP3      H1            -36.2417265032       21.6879392510       53.1452059159  TIP3      3571            0.0000000000
     62228      4931  TIP3      H2            -36.3560390675       20.6047782235       52.1223852822  TIP3      3571            0.0000000000
     62229      4932  TIP3      OH2           -35.4889775029       28.7692282385       55.9010862543  TIP3      3572            0.0000000000
     62230      4932  TIP3      H1            -35.4744207728       29.6916923046       55.5959815937  TIP3      3572            0.0000000000
     62231      4932  TIP3      H2            -36.3177530532       28.7084585370       56.3863126166  TIP3      3572            0.0000000000
     62232      4933  TIP3      OH2           -39.3230261775       28.4575598439       46.7133131904  TIP3      3573            0.0000000000
     62233      4933  TIP3      H1            -39.6266446533       28.6562365098       45.8345229772  TIP3      3573            0.0000000000
     62234      4933  TIP3      H2            -39.3367555197       29.2843762173       47.2098514744  TIP3      3573            0.0000000000
     62235      4934  TIP3      OH2           -25.7693694538       30.0895841700       53.4048500081  TIP3      3574            0.0000000000
     62236      4934  TIP3      H1            -26.7329697341       30.1769178164       53.5956328687  TIP3      3574            0.0000000000
     62237      4934  TIP3      H2            -25.4882935718       30.9987808164       53.2721643151  TIP3      3574            0.0000000000
     62238      4935  TIP3      OH2           -25.4236737149       18.3908084545       54.8775892377  TIP3      3575            0.0000000000
     62239      4935  TIP3      H1            -26.1651814554       19.0012427326       54.7393968952  TIP3      3575            0.0000000000
     62240      4935  TIP3      H2            -24.7147723315       18.7905307573       54.3382798257  TIP3      3575            0.0000000000
     62241      4936  TIP3      OH2           -32.4533299330       16.4967400347       52.2185773175  TIP3      3576            0.0000000000
     62242      4936  TIP3      H1            -32.5587270121       15.5402652453       52.2536331129  TIP3      3576            0.0000000000
     62243      4936  TIP3      H2            -33.2761923033       16.8098399561       52.6313985422  TIP3      3576            0.0000000000
     62244      4937  TIP3      OH2           -26.2752243052       29.7870424111       48.5520334765  TIP3      3577            0.0000000000
     62245      4937  TIP3      H1            -26.6079406146       29.1027235540       47.9520940231  TIP3      3577            0.0000000000
     62246      4937  TIP3      H2            -26.2545223866       29.3062539425       49.3938817294  TIP3      3577            0.0000000000
     62247      4938  TIP3      OH2           -24.6830777193       28.4003319480       57.0151855665  TIP3      3578            0.0000000000
     62248      4938  TIP3      H1            -24.5098533481       27.7305436779       56.3192305582  TIP3      3578            0.0000000000
     62249      4938  TIP3      H2            -24.4311452555       29.2490232471       56.6151766815  TIP3      3578            0.0000000000
     62250      4939  TIP3      OH2           -22.8139489722       24.6722467468       55.0527282513  TIP3      3579            0.0000000000
     62251      4939  TIP3      H1            -23.4216220401       25.4281789310       55.1572624741  TIP3      3579            0.0000000000
     62252      4939  TIP3      H2            -22.2875738750       24.9287396627       54.2746580858  TIP3      3579            0.0000000000
     62253      4940  TIP3      OH2           -26.7005746294       25.5272498103       47.7782148583  TIP3      3580            0.0000000000
     62254      4940  TIP3      H1            -27.4843120209       25.7166406355       48.3258000914  TIP3      3580            0.0000000000
     62255      4940  TIP3      H2            -26.2753865092       24.7854607298       48.2448746847  TIP3      3580            0.0000000000
     62256      4941  TIP3      OH2           -26.7965909845       23.6677997957       56.8394418225  TIP3      3581            0.0000000000
     62257      4941  TIP3      H1            -26.8004221850       24.4615490758       57.4077486359  TIP3      3581            0.0000000000
     62258      4941  TIP3      H2            -27.4271941375       23.9438725900       56.1559115535  TIP3      3581            0.0000000000
     62259      4942  TIP3      OH2           -33.7747779572       29.5321977582       52.3333417839  TIP3      3582            0.0000000000
     62260      4942  TIP3      H1            -33.8044159200       29.0147515088       51.5216027665  TIP3      3582            0.0000000000
     62261      4942  TIP3      H2            -33.0047857229       29.1999394144       52.8043147844  TIP3      3582            0.0000000000
     62262      4943  TIP3      OH2           -28.3993623507       30.4432535489       53.9951714025  TIP3      3583            0.0000000000
     62263      4943  TIP3      H1            -28.6497379263       31.0752604789       54.6774244856  TIP3      3583            0.0000000000
     62264      4943  TIP3      H2            -28.6400462580       29.5918030621       54.4339335542  TIP3      3583            0.0000000000
     62265      4944  TIP3      OH2           -27.8831463459       24.6797572567       45.4411100622  TIP3      3584            0.0000000000
     62266      4944  TIP3      H1            -27.3175148131       24.8687615210       46.2118589955  TIP3      3584            0.0000000000
     62267      4944  TIP3      H2            -27.4668681280       25.1601929304       44.7038397890  TIP3      3584            0.0000000000
     62268      4945  TIP3      OH2           -30.1257262454       31.4066511068       48.8898297996  TIP3      3585            0.0000000000
     62269      4945  TIP3      H1            -29.7194111091       31.7383002782       49.6899175388  TIP3      3585            0.0000000000
     62270      4945  TIP3      H2            -30.6978058095       32.1423016286       48.6250060346  TIP3      3585            0.0000000000
     62271      4946  TIP3      OH2           -40.2520888950       30.4261956697       52.8796628850  TIP3      3586            0.0000000000
     62272      4946  TIP3      H1            -39.3166303243       30.1607830712       52.9199908294  TIP3      3586            0.0000000000
     62273      4946  TIP3      H2            -40.3764800350       31.1250127008       53.5266589849  TIP3      3586            0.0000000000
     62274      4947  TIP3      OH2           -31.0642636451       30.5726737578       57.4987827924  TIP3      3587            0.0000000000
     62275      4947  TIP3      H1            -31.0246392873       31.4193166010       57.9961572210  TIP3      3587            0.0000000000
     62276      4947  TIP3      H2            -31.9545051328       30.2647465623       57.7215703633  TIP3      3587            0.0000000000
     62277      4948  TIP3      OH2           -30.6816664241       34.3248198687       47.2927092899  TIP3      3588            0.0000000000
     62278      4948  TIP3      H1            -30.7520083603       34.2361287943       46.3253528947  TIP3      3588            0.0000000000
     62279      4948  TIP3      H2            -30.6377664940       35.2894632323       47.4432944579  TIP3      3588            0.0000000000
     62280      4949  TIP3      OH2           -36.9093813045       32.9209074395       49.0736120474  TIP3      3589            0.0000000000
     62281      4949  TIP3      H1            -36.8620703234       32.7265672990       50.0210508750  TIP3      3589            0.0000000000
     62282      4949  TIP3      H2            -37.8584897646       32.7942753910       48.9111389444  TIP3      3589            0.0000000000
     62283      4950  TIP3      OH2           -27.6719057102       33.4866045410       44.2557463300  TIP3      3590            0.0000000000
     62284      4950  TIP3      H1            -27.1363583153       32.7877003522       43.8380835133  TIP3      3590            0.0000000000
     62285      4950  TIP3      H2            -27.5428725042       33.2766496135       45.1994585930  TIP3      3590            0.0000000000
     62286      4951  TIP3      OH2           -27.9115372509       33.4633347542       47.0577746775  TIP3      3591            0.0000000000
     62287      4951  TIP3      H1            -28.8647908859       33.5432317433       47.2520634332  TIP3      3591            0.0000000000
     62288      4951  TIP3      H2            -27.6274837905       32.7332298684       47.6296038168  TIP3      3591            0.0000000000
     62289      4952  TIP3      OH2           -24.9340593841       22.4904602168       59.1160102460  TIP3      3592            0.0000000000
     62290      4952  TIP3      H1            -25.3782301893       22.9591082120       58.3904957920  TIP3      3592            0.0000000000
     62291      4952  TIP3      H2            -24.8986659504       21.5775433907       58.7817785921  TIP3      3592            0.0000000000
     62292      4953  TIP3      OH2           -35.0762330146       17.4190692401       52.9984477551  TIP3      3593            0.0000000000
     62293      4953  TIP3      H1            -35.9875317003       17.2560530191       52.7339195200  TIP3      3593            0.0000000000
     62294      4953  TIP3      H2            -35.1844894079       18.1946182227       53.5725222524  TIP3      3593            0.0000000000
     62295      4954  TIP3      OH2           -30.5058226462       17.1388006326       56.4593289653  TIP3      3594            0.0000000000
     62296      4954  TIP3      H1            -30.0873720724       16.6559796232       57.1731461908  TIP3      3594            0.0000000000
     62297      4954  TIP3      H2            -31.4428876088       16.9309169305       56.5676545495  TIP3      3594            0.0000000000
     62298      4955  TIP3      OH2           -27.2135430775       20.8766093624       57.3388722160  TIP3      3595            0.0000000000
     62299      4955  TIP3      H1            -27.6961721657       20.7413348668       58.1636410347  TIP3      3595            0.0000000000
     62300      4955  TIP3      H2            -27.3462158085       21.8129101358       57.0838797549  TIP3      3595            0.0000000000
     62301      4956  TIP3      OH2           -26.4244497001       25.7590936729       43.1556594819  TIP3      3596            0.0000000000
     62302      4956  TIP3      H1            -26.4335034163       25.5104641838       42.2158736013  TIP3      3596            0.0000000000
     62303      4956  TIP3      H2            -25.5815427921       26.1823063167       43.2770325127  TIP3      3596            0.0000000000
     62304      4957  TIP3      OH2           -28.3869574053       22.4489455838       50.7512703573  TIP3      3597            0.0000000000
     62305      4957  TIP3      H1            -28.7354501650       23.0073377951       50.0398251765  TIP3      3597            0.0000000000
     62306      4957  TIP3      H2            -28.3685070755       21.5853017794       50.2936718080  TIP3      3597            0.0000000000
     62307      4958  TIP3      OH2           -39.9313398028       19.8723622571       49.4768919139  TIP3      3598            0.0000000000
     62308      4958  TIP3      H1            -39.9667236214       19.6164863725       50.4268193984  TIP3      3598            0.0000000000
     62309      4958  TIP3      H2            -39.9643830932       19.0112066981       49.0136105819  TIP3      3598            0.0000000000
     62310      4959  TIP3      OH2           -39.2336740333       20.6394361236       45.4991239344  TIP3      3599            0.0000000000
     62311      4959  TIP3      H1            -38.9081527481       21.1421940243       44.7652552684  TIP3      3599            0.0000000000
     62312      4959  TIP3      H2            -40.0462906058       21.1416200768       45.6501763388  TIP3      3599            0.0000000000
     62313      4960  TIP3      OH2           -32.4802503340       20.0011840956       50.2011108886  TIP3      3600            0.0000000000
     62314      4960  TIP3      H1            -33.4062001848       20.0365206720       50.4906047537  TIP3      3600            0.0000000000
     62315      4960  TIP3      H2            -31.9868703219       19.9127251232       51.0300568232  TIP3      3600            0.0000000000
     62316      4961  TIP3      OH2           -28.0560824457       19.2565332736       53.4486031993  TIP3      3601            0.0000000000
     62317      4961  TIP3      H1            -28.7564166673       19.3306711902       54.1333771185  TIP3      3601            0.0000000000
     62318      4961  TIP3      H2            -28.5524801627       19.0109638088       52.6501029357  TIP3      3601            0.0000000000
     62319      4962  TIP3      OH2           -24.9764470595       35.0157828790       59.8573150996  TIP3      3602            0.0000000000
     62320      4962  TIP3      H1            -24.6759457619       35.2329992252       58.9618327555  TIP3      3602            0.0000000000
     62321      4962  TIP3      H2            -24.1770288358       35.2168032061       60.3622031214  TIP3      3602            0.0000000000
     62322      4963  TIP3      OH2           -32.5446423867       21.1508341843       54.4392003242  TIP3      3603            0.0000000000
     62323      4963  TIP3      H1            -33.3494148085       21.6337137072       54.6191595012  TIP3      3603            0.0000000000
     62324      4963  TIP3      H2            -31.9743134210       21.3840823165       55.1858147062  TIP3      3603            0.0000000000
     62325      4964  TIP3      OH2           -24.7980961170       26.5294037148       54.9639979024  TIP3      3604            0.0000000000
     62326      4964  TIP3      H1            -24.2107232800       27.0282403987       54.3686895892  TIP3      3604            0.0000000000
     62327      4964  TIP3      H2            -25.6577695181       26.5902578122       54.4996362896  TIP3      3604            0.0000000000
     62328      4965  TIP3      OH2           -30.4033830335       27.6356521923       57.3846626872  TIP3      3605            0.0000000000
     62329      4965  TIP3      H1            -30.8567535116       27.1949576786       58.1158722858  TIP3      3605            0.0000000000
     62330      4965  TIP3      H2            -30.7078645039       28.5477821945       57.4686499695  TIP3      3605            0.0000000000
     62331      4966  TIP3      OH2           -27.3695204164       22.0067252126       46.0416984909  TIP3      3606            0.0000000000
     62332      4966  TIP3      H1            -26.4728786870       21.9189940258       46.3854226654  TIP3      3606            0.0000000000
     62333      4966  TIP3      H2            -27.3680752565       22.8255679327       45.5184459108  TIP3      3606            0.0000000000
     62334      4967  TIP3      OH2           -29.8663408404       28.8030668305       45.2533186609  TIP3      3607            0.0000000000
     62335      4967  TIP3      H1            -30.2183965125       29.6629687332       45.5636261262  TIP3      3607            0.0000000000
     62336      4967  TIP3      H2            -30.5920597637       28.1893703617       45.4171786851  TIP3      3607            0.0000000000
     62337      4968  TIP3      OH2           -28.2079902005       29.9837129272       57.3720402543  TIP3      3608            0.0000000000
     62338      4968  TIP3      H1            -29.1147770416       30.2302016375       57.1358523388  TIP3      3608            0.0000000000
     62339      4968  TIP3      H2            -28.1587038956       30.3522683892       58.2730588788  TIP3      3608            0.0000000000
     62340      4969  TIP3      OH2           -22.4533507702       22.2244239328       45.6968683425  TIP3      3609            0.0000000000
     62341      4969  TIP3      H1            -23.1419774717       21.9029545391       45.1105453464  TIP3      3609            0.0000000000
     62342      4969  TIP3      H2            -22.4475994304       23.1878779379       45.5166575901  TIP3      3609            0.0000000000
     62343      4970  TIP3      OH2           -22.5430621997       28.0442728095       58.5763523572  TIP3      3610            0.0000000000
     62344      4970  TIP3      H1            -23.3897840579       28.3302432776       58.1828789719  TIP3      3610            0.0000000000
     62345      4970  TIP3      H2            -21.9234321474       28.0497245365       57.8212135475  TIP3      3610            0.0000000000
     62346      4971  TIP3      OH2           -24.2048495977       31.0278788026       46.1816839071  TIP3      3611            0.0000000000
     62347      4971  TIP3      H1            -24.5849402451       30.2156902964       46.5284617337  TIP3      3611            0.0000000000
     62348      4971  TIP3      H2            -23.9270058406       30.8517885649       45.2918647541  TIP3      3611            0.0000000000
     62349      4972  TIP3      OH2           -27.0013512553       25.8682520351       53.2387491172  TIP3      3612            0.0000000000
     62350      4972  TIP3      H1            -27.9271144717       25.6164260545       53.1565481876  TIP3      3612            0.0000000000
     62351      4972  TIP3      H2            -26.5612424580       25.0899490340       52.8435079996  TIP3      3612            0.0000000000
     62352      4973  TIP3      OH2           -34.4934474745       30.2040860007       49.4058371221  TIP3      3613            0.0000000000
     62353      4973  TIP3      H1            -33.9783066310       30.9828179645       49.1339695524  TIP3      3613            0.0000000000
     62354      4973  TIP3      H2            -35.3437489204       30.4303351309       49.0099460648  TIP3      3613            0.0000000000
     62355      4974  TIP3      OH2           -32.6021425702       32.0547454900       55.2653649119  TIP3      3614            0.0000000000
     62356      4974  TIP3      H1            -32.1407744445       32.8593497334       54.9984529538  TIP3      3614            0.0000000000
     62357      4974  TIP3      H2            -32.0047494651       31.7060060856       55.9502465455  TIP3      3614            0.0000000000
     62358      4975  TIP3      OH2           -34.3602831276       32.8570993934       48.3793556273  TIP3      3615            0.0000000000
     62359      4975  TIP3      H1            -35.3164127814       32.9378953762       48.6238988325  TIP3      3615            0.0000000000
     62360      4975  TIP3      H2            -34.0111430469       33.6791411698       48.7745577761  TIP3      3615            0.0000000000
     62361      4976  TIP3      OH2           -29.0642539619       28.0486716263       54.8989088931  TIP3      3616            0.0000000000
     62362      4976  TIP3      H1            -29.4315973470       27.8593311519       55.7891213682  TIP3      3616            0.0000000000
     62363      4976  TIP3      H2            -28.4070041401       27.3513870132       54.7833655494  TIP3      3616            0.0000000000
     62364      4977  TIP3      OH2           -26.7759623705       29.0714198257       44.0242737006  TIP3      3617            0.0000000000
     62365      4977  TIP3      H1            -26.4736811684       28.6466058954       44.8547281986  TIP3      3617            0.0000000000
     62366      4977  TIP3      H2            -27.7317258700       28.9353734109       44.1369044193  TIP3      3617            0.0000000000
     62367      4978  TIP3      OH2           -26.3119656625       32.6157204645       57.4059642972  TIP3      3618            0.0000000000
     62368      4978  TIP3      H1            -26.9732290415       32.1154398309       56.9034574428  TIP3      3618            0.0000000000
     62369      4978  TIP3      H2            -26.0872244065       33.3213535318       56.7689675009  TIP3      3618            0.0000000000
     62370      4979  TIP3      OH2           -25.9382192398       27.7582658574       46.2652427754  TIP3      3619            0.0000000000
     62371      4979  TIP3      H1            -26.2128093519       26.9643823099       46.7841682909  TIP3      3619            0.0000000000
     62372      4979  TIP3      H2            -24.9938086700       27.8031258761       46.4725373606  TIP3      3619            0.0000000000
     62373      4980  TIP3      OH2           -38.5713341936       31.7395843779       55.2455800380  TIP3      3620            0.0000000000
     62374      4980  TIP3      H1            -38.3191198246       30.7954891922       55.1866645245  TIP3      3620            0.0000000000
     62375      4980  TIP3      H2            -38.3000024380       31.9312067264       56.1488216078  TIP3      3620            0.0000000000
     62376      4981  TIP3      OH2           -29.4778130629       19.6269906402       55.7514042154  TIP3      3621            0.0000000000
     62377      4981  TIP3      H1            -28.7595388917       19.6977913650       56.3858345497  TIP3      3621            0.0000000000
     62378      4981  TIP3      H2            -29.8620057247       18.7357187307       55.9075944365  TIP3      3621            0.0000000000
     62379      4982  TIP3      OH2           -31.0090980477       31.4319473878       45.7214930056  TIP3      3622            0.0000000000
     62380      4982  TIP3      H1            -31.8698692839       31.8832539564       45.7073019976  TIP3      3622            0.0000000000
     62381      4982  TIP3      H2            -30.5173614846       31.8807547188       45.0287174025  TIP3      3622            0.0000000000
     62382      4983  TIP3      OH2           -30.6339502106       18.0837423469       48.5203532609  TIP3      3623            0.0000000000
     62383      4983  TIP3      H1            -30.9749266392       18.6817022429       49.2155176075  TIP3      3623            0.0000000000
     62384      4983  TIP3      H2            -29.9413801494       18.6270875405       48.1143256459  TIP3      3623            0.0000000000
     62385      4984  TIP3      OH2           -33.7387386936       32.4534627840       45.6493902888  TIP3      3624            0.0000000000
     62386      4984  TIP3      H1            -33.4561319702       33.2589406900       45.1855658196  TIP3      3624            0.0000000000
     62387      4984  TIP3      H2            -33.8987198057       32.7463017994       46.5757334006  TIP3      3624            0.0000000000
     62388      4985  TIP3      OH2           -24.7505302489       19.8913177567       57.6878538008  TIP3      3625            0.0000000000
     62389      4985  TIP3      H1            -25.6859886722       20.1525442276       57.5608654797  TIP3      3625            0.0000000000
     62390      4985  TIP3      H2            -24.4521870156       19.8308694110       56.7659544505  TIP3      3625            0.0000000000
     62391      4986  TIP3      OH2           -26.1720767154       23.6584052691       51.7189269741  TIP3      3626            0.0000000000
     62392      4986  TIP3      H1            -26.9877749889       23.1936919091       51.4345181637  TIP3      3626            0.0000000000
     62393      4986  TIP3      H2            -25.6910132118       22.9665560250       52.2331366488  TIP3      3626            0.0000000000
     62394      4987  TIP3      OH2           -38.6719763871       30.9471351672       48.2844769054  TIP3      3627            0.0000000000
     62395      4987  TIP3      H1            -39.5000537953       31.4307892960       48.3793425399  TIP3      3627            0.0000000000
     62396      4987  TIP3      H2            -38.1346533456       31.4644152550       47.6813148890  TIP3      3627            0.0000000000
     62397      4988  TIP3      OH2           -39.3566254895       33.4580387589       59.6665060344  TIP3      3628            0.0000000000
     62398      4988  TIP3      H1            -38.7604069152       33.3108357778       60.4187620044  TIP3      3628            0.0000000000
     62399      4988  TIP3      H2            -39.8026776408       32.6285729630       59.4761821022  TIP3      3628            0.0000000000
     62400      4989  TIP3      OH2           -34.7655744198       32.4938962630       61.2480270395  TIP3      3629            0.0000000000
     62401      4989  TIP3      H1            -34.0060005592       31.9988422292       61.5627114033  TIP3      3629            0.0000000000
     62402      4989  TIP3      H2            -34.7741632796       32.2608255210       60.3084144406  TIP3      3629            0.0000000000
     62403      4990  TIP3      OH2           -28.2778923210       30.9083551769       59.9712366861  TIP3      3630            0.0000000000
     62404      4990  TIP3      H1            -28.5042402899       30.0069304430       60.2150089575  TIP3      3630            0.0000000000
     62405      4990  TIP3      H2            -27.4825603670       31.0684818546       60.5255160100  TIP3      3630            0.0000000000
     62406      4991  TIP3      OH2           -26.0904014538       31.8163489359       42.8213291430  TIP3      3631            0.0000000000
     62407      4991  TIP3      H1            -25.8321579544       31.0195599260       43.3192806855  TIP3      3631            0.0000000000
     62408      4991  TIP3      H2            -25.2705270217       32.0153215871       42.3689107028  TIP3      3631            0.0000000000
     62409      4992  TIP3      OH2           -39.2622368572       27.2900315289       60.3813424769  TIP3      3632            0.0000000000
     62410      4992  TIP3      H1            -39.2123806920       26.3404331645       60.1804998091  TIP3      3632            0.0000000000
     62411      4992  TIP3      H2            -40.0326406318       27.5993374379       59.8968186719  TIP3      3632            0.0000000000
     62412      4993  TIP3      OH2           -27.1230585833       27.2239922479       57.3724805431  TIP3      3633            0.0000000000
     62413      4993  TIP3      H1            -26.3301096893       27.8048929364       57.3049430824  TIP3      3633            0.0000000000
     62414      4993  TIP3      H2            -27.8266804416       27.8889492338       57.4192946952  TIP3      3633            0.0000000000
     62415      4994  TIP3      OH2           -38.6202991177       24.5780711606       59.9680493982  TIP3      3634            0.0000000000
     62416      4994  TIP3      H1            -38.2155496239       23.7127724221       59.8352794463  TIP3      3634            0.0000000000
     62417      4994  TIP3      H2            -38.8371139414       24.5659438707       60.8972735847  TIP3      3634            0.0000000000
     62418      4995  TIP3      OH2           -33.9123939532       19.2936776261       55.8933885807  TIP3      3635            0.0000000000
     62419      4995  TIP3      H1            -33.3679018680       19.7746500798       55.2423332627  TIP3      3635            0.0000000000
     62420      4995  TIP3      H2            -34.7943539078       19.1859772244       55.4970490752  TIP3      3635            0.0000000000
     62421      4996  TIP3      OH2           -27.9469122244       22.5551539893       61.1131740659  TIP3      3636            0.0000000000
     62422      4996  TIP3      H1            -27.7421766212       21.6214069637       61.1615869177  TIP3      3636            0.0000000000
     62423      4996  TIP3      H2            -27.0905020208       22.9886652340       61.2105012904  TIP3      3636            0.0000000000
     62424      4997  TIP3      OH2           -26.6112503317       25.3327587851       59.3093503511  TIP3      3637            0.0000000000
     62425      4997  TIP3      H1            -26.8884367896       26.0552411489       58.7113561828  TIP3      3637            0.0000000000
     62426      4997  TIP3      H2            -25.6462051046       25.3146577073       59.1399389550  TIP3      3637            0.0000000000
     62427      4998  TIP3      OH2           -37.7605608396       20.0535009862       60.1004622719  TIP3      3638            0.0000000000
     62428      4998  TIP3      H1            -37.4682447009       19.3770789151       59.4727305282  TIP3      3638            0.0000000000
     62429      4998  TIP3      H2            -37.7854446311       19.6157648602       60.9542927501  TIP3      3638            0.0000000000
     62430      4999  TIP3      OH2           -32.5929313929       17.6487648903       61.1261011986  TIP3      3639            0.0000000000
     62431      4999  TIP3      H1            -32.6574073500       17.3025390032       60.2244297922  TIP3      3639            0.0000000000
     62432      4999  TIP3      H2            -33.0587836974       18.5109514904       61.0661445028  TIP3      3639            0.0000000000
     62433      5000  TIP3      OH2           -33.0707305572       34.6686237006       44.2486189900  TIP3      3640            0.0000000000
     62434      5000  TIP3      H1            -32.0979918028       34.7414039204       44.4060670235  TIP3      3640            0.0000000000
     62435      5000  TIP3      H2            -33.1846329046       35.3774828118       43.6096951086  TIP3      3640            0.0000000000
     62436      5001  TIP3      OH2            41.1086417802       34.2883381584       49.0105864233  TIP3      3641            0.0000000000
     62437      5001  TIP3      H1             40.2161841500       34.1946379178       48.6064241901  TIP3      3641            0.0000000000
     62438      5001  TIP3      H2             41.0566800306       33.5884062242       49.6635516073  TIP3      3641            0.0000000000
     62439      5002  TIP3      OH2           -39.7381123396       32.5851760715       50.7000600967  TIP3      3642            0.0000000000
     62440      5002  TIP3      H1            -40.2855120210       31.8002038773       50.8177282864  TIP3      3642            0.0000000000
     62441      5002  TIP3      H2            -39.6949421541       33.0816453601       51.5257199342  TIP3      3642            0.0000000000
     62442      5003  TIP3      OH2           -24.4165517160       28.7383071342       61.3145688010  TIP3      3643            0.0000000000
     62443      5003  TIP3      H1            -25.3391534426       28.8053365924       61.5983737158  TIP3      3643            0.0000000000
     62444      5003  TIP3      H2            -24.0486275711       29.5939433375       61.5379171438  TIP3      3643            0.0000000000
     62445      5004  TIP3      OH2           -23.0304477697       27.1529010204       46.6191001650  TIP3      3644            0.0000000000
     62446      5004  TIP3      H1            -22.2175466823       27.6164175433       46.8295184523  TIP3      3644            0.0000000000
     62447      5004  TIP3      H2            -23.0522763662       26.4664401425       47.3218422179  TIP3      3644            0.0000000000
     62448      5005  TIP3      OH2           -22.6694493807       25.2638491208       48.4785634565  TIP3      3645            0.0000000000
     62449      5005  TIP3      H1            -23.4213187366       24.7740092465       48.8810437398  TIP3      3645            0.0000000000
     62450      5005  TIP3      H2            -22.0892959186       25.4114090506       49.2562059385  TIP3      3645            0.0000000000
     62451      5006  TIP3      OH2           -22.9208448260       28.0061650053       53.4480071742  TIP3      3646            0.0000000000
     62452      5006  TIP3      H1            -22.0896812880       27.5977060904       53.1320934802  TIP3      3646            0.0000000000
     62453      5006  TIP3      H2            -22.7791465035       28.9451030804       53.3207935702  TIP3      3646            0.0000000000
     62454      5007  TIP3      OH2           -24.3836150416       30.8632737676       55.7039664832  TIP3      3647            0.0000000000
     62455      5007  TIP3      H1            -24.9953879690       31.2336059068       56.3676974794  TIP3      3647            0.0000000000
     62456      5007  TIP3      H2            -24.9627763038       30.4220857335       55.0739065368  TIP3      3647            0.0000000000
     62457      5008  TIP3      OH2           -22.3894674221       25.0937209480       44.8579841366  TIP3      3648            0.0000000000
     62458      5008  TIP3      H1            -22.9844483140       25.4775635326       44.2143554867  TIP3      3648            0.0000000000
     62459      5008  TIP3      H2            -22.4504814214       25.7738755517       45.5706558086  TIP3      3648            0.0000000000
     62460      5009  TIP3      OH2           -24.8509454288       23.7499347002       49.0715708156  TIP3      3649            0.0000000000
     62461      5009  TIP3      H1            -25.0341094301       22.7977977257       49.0284869601  TIP3      3649            0.0000000000
     62462      5009  TIP3      H2            -25.1969546978       23.9656772472       49.9533768394  TIP3      3649            0.0000000000
     62463      5010  TIP3      OH2           -24.0159025391       25.7107841155       58.7548941672  TIP3      3650            0.0000000000
     62464      5010  TIP3      H1            -23.3819481345       24.9763925024       58.9012522607  TIP3      3650            0.0000000000
     62465      5010  TIP3      H2            -23.4123542483       26.4868127659       58.7598203573  TIP3      3650            0.0000000000
     62466      5011  TIP3      OH2           -22.5070360635       23.5927578241       59.3934240109  TIP3      3651            0.0000000000
     62467      5011  TIP3      H1            -23.3902803537       23.1962190038       59.2566970334  TIP3      3651            0.0000000000
     62468      5011  TIP3      H2            -21.9339919652       22.8032612796       59.3446577414  TIP3      3651            0.0000000000
     62469      5012  TIP3      OH2           -24.7166544887       19.8380355401       42.5586402807  TIP3      3652            0.0000000000
     62470      5012  TIP3      H1            -24.2153611837       19.3171859912       43.2255090348  TIP3      3652            0.0000000000
     62471      5012  TIP3      H2            -25.6075015166       19.4344813875       42.7039299605  TIP3      3652            0.0000000000
     62472      5013  TIP3      OH2           -25.1642907058       21.3277028094       47.6134095013  TIP3      3653            0.0000000000
     62473      5013  TIP3      H1            -24.8826812760       20.3873513067       47.6578718127  TIP3      3653            0.0000000000
     62474      5013  TIP3      H2            -24.4022279245       21.7338158871       47.1917588190  TIP3      3653            0.0000000000
     62475      5014  TIP3      OH2           -24.5595675751       21.8765141554       52.9830533456  TIP3      3654            0.0000000000
     62476      5014  TIP3      H1            -23.5988317087       22.1062294096       52.9681944432  TIP3      3654            0.0000000000
     62477      5014  TIP3      H2            -24.7467651532       22.0189276614       53.9228127720  TIP3      3654            0.0000000000
     62478      5015  TIP3      OH2           -24.4860372576       22.6069978118       55.7580099322  TIP3      3655            0.0000000000
     62479      5015  TIP3      H1            -25.3648373425       22.8944078441       56.0809931377  TIP3      3655            0.0000000000
     62480      5015  TIP3      H2            -24.0415474030       23.4593226347       55.5355051121  TIP3      3655            0.0000000000
     62481      5016  TIP3      OH2           -40.1497645490       20.9813990666       59.1045758192  TIP3      3656            0.0000000000
     62482      5016  TIP3      H1            -39.2376719239       20.9047451821       59.4284347519  TIP3      3656            0.0000000000
     62483      5016  TIP3      H2            -40.6150587443       20.2990651549       59.5909303658  TIP3      3656            0.0000000000
     62484      5017  TIP3      OH2           -24.5370978500       18.6052998088       47.5757471228  TIP3      3657            0.0000000000
     62485      5017  TIP3      H1            -24.3278971744       18.1714936381       48.4307862652  TIP3      3657            0.0000000000
     62486      5017  TIP3      H2            -25.1306241468       18.0000946601       47.1116983715  TIP3      3657            0.0000000000
     62487      5018  TIP3      OH2           -39.0470700869       19.4279440499       52.1250475038  TIP3      3658            0.0000000000
     62488      5018  TIP3      H1            -38.6003848010       18.6359880530       52.4316521721  TIP3      3658            0.0000000000
     62489      5018  TIP3      H2            -38.5004341985       20.1267781501       52.5053495633  TIP3      3658            0.0000000000
     62490      5019  TIP3      OH2           -40.5851526048       22.7831603378       52.4259190973  TIP3      3659            0.0000000000
     62491      5019  TIP3      H1            -40.0172375355       22.0216690951       52.2580835188  TIP3      3659            0.0000000000
     62492      5019  TIP3      H2            -40.2264543212       23.0806167872       53.2695400000  TIP3      3659            0.0000000000
     62493      5020  TIP3      OH2           -22.6649796689       18.7559663548       59.4614116342  TIP3      3660            0.0000000000
     62494      5020  TIP3      H1            -23.6179903584       18.9788064376       59.4399382637  TIP3      3660            0.0000000000
     62495      5020  TIP3      H2            -22.6332735102       18.1802121178       58.6794550213  TIP3      3660            0.0000000000
     62496      5021  TIP3      OH2           -22.6629932219       18.7630358793       43.9704350271  TIP3      3661            0.0000000000
     62497      5021  TIP3      H1            -22.2624656689       17.9138608585       43.7183383933  TIP3      3661            0.0000000000
     62498      5021  TIP3      H2            -21.9077053415       19.2532979346       44.2939347801  TIP3      3661            0.0000000000
     62499      5022  TIP3      OH2           -40.2259126525       18.5617486202       47.2984660630  TIP3      3662            0.0000000000
     62500      5022  TIP3      H1            -41.1409751774       18.7222162004       46.9880702751  TIP3      3662            0.0000000000
     62501      5022  TIP3      H2            -39.7631780588       19.1461734130       46.6769520972  TIP3      3662            0.0000000000
     62502      5023  TIP3      OH2            41.1005481539       17.5598020423       55.7106306605  TIP3      3663            0.0000000000
     62503      5023  TIP3      H1             40.4245052678       17.1306678288       56.2361305832  TIP3      3663            0.0000000000
     62504      5023  TIP3      H2             40.5618982447       18.0377656074       55.0682732993  TIP3      3663            0.0000000000
     62505      5024  TIP3      OH2           -35.3110998283       31.5261598877       55.9457951419  TIP3      3664            0.0000000000
     62506      5024  TIP3      H1            -35.6479359589       32.4030280794       55.7343309949  TIP3      3664            0.0000000000
     62507      5024  TIP3      H2            -34.3717586335       31.6305982614       55.6919130762  TIP3      3664            0.0000000000
     62508      5025  TIP3      OH2           -30.9720550418       32.9245686285       58.8919613806  TIP3      3665            0.0000000000
     62509      5025  TIP3      H1            -30.8191127454       32.6339204410       59.8246640938  TIP3      3665            0.0000000000
     62510      5025  TIP3      H2            -30.0869164528       33.2727450212       58.6452227689  TIP3      3665            0.0000000000
     62511      5026  TIP3      OH2           -28.6665047267       34.2746783091       58.1528025126  TIP3      3666            0.0000000000
     62512      5026  TIP3      H1            -27.9563132953       33.6405028943       57.9642565906  TIP3      3666            0.0000000000
     62513      5026  TIP3      H2            -28.3006431839       34.6413477971       58.9898179398  TIP3      3666            0.0000000000
     62514      5027  TIP3      OH2           -23.6431202128       16.8634097076       57.2401906661  TIP3      3667            0.0000000000
     62515      5027  TIP3      H1            -24.5273003002       17.1288109733       56.9345063840  TIP3      3667            0.0000000000
     62516      5027  TIP3      H2            -23.5258514758       16.0232690059       56.7722229099  TIP3      3667            0.0000000000
     62517      5028  TIP3      OH2           -37.4933292098       34.6510772882       56.5393398579  TIP3      3668            0.0000000000
     62518      5028  TIP3      H1            -38.1221836897       35.3071365208       56.2002434615  TIP3      3668            0.0000000000
     62519      5028  TIP3      H2            -38.1824441083       34.3204246215       57.1481352585  TIP3      3668            0.0000000000
     62520      5029  TIP3      OH2           -35.4471160844       34.2888495944       54.9664915162  TIP3      3669            0.0000000000
     62521      5029  TIP3      H1            -36.1511640425       34.5397196206       55.6019008730  TIP3      3669            0.0000000000
     62522      5029  TIP3      H2            -35.3664162073       34.9903222099       54.2845372242  TIP3      3669            0.0000000000
     62523      5030  TIP3      OH2           -30.6762923827       34.2675663981       54.2183270330  TIP3      3670            0.0000000000
     62524      5030  TIP3      H1            -31.1545094594       34.8252818702       53.5839208251  TIP3      3670            0.0000000000
     62525      5030  TIP3      H2            -30.5351952994       34.9119789613       54.9492045563  TIP3      3670            0.0000000000
     62526      5031  TIP3      OH2           -28.3710651851       33.0893254071       55.1909313307  TIP3      3671            0.0000000000
     62527      5031  TIP3      H1            -29.2639323052       33.3494086062       54.9113678216  TIP3      3671            0.0000000000
     62528      5031  TIP3      H2            -27.9428055908       33.9628689063       55.1788337932  TIP3      3671            0.0000000000
     62529      5032  TIP3      OH2           -25.9460298069       34.6194480113       55.4368150549  TIP3      3672            0.0000000000
     62530      5032  TIP3      H1            -25.8950414373       35.6023253550       55.3276677177  TIP3      3672            0.0000000000
     62531      5032  TIP3      H2            -25.5558617272       34.3389648640       54.6080582159  TIP3      3672            0.0000000000
     62532      5033  TIP3      OH2           -38.4723200760       33.3632738585       53.0129385233  TIP3      3673            0.0000000000
     62533      5033  TIP3      H1            -38.4999300656       32.7753672320       53.7869039972  TIP3      3673            0.0000000000
     62534      5033  TIP3      H2            -37.6598859646       33.0385785874       52.5207389556  TIP3      3673            0.0000000000
     62535      5034  TIP3      OH2           -36.3910979568       32.1734105205       51.6903724975  TIP3      3674            0.0000000000
     62536      5034  TIP3      H1            -36.5041937793       31.2054671281       51.7724632377  TIP3      3674            0.0000000000
     62537      5034  TIP3      H2            -35.4757575242       32.2781079509       52.0312016103  TIP3      3674            0.0000000000
     62538      5035  TIP3      OH2           -33.7696654701       32.6326209667       52.4482628512  TIP3      3675            0.0000000000
     62539      5035  TIP3      H1            -33.5702461442       31.7165798323       52.1815354962  TIP3      3675            0.0000000000
     62540      5035  TIP3      H2            -33.6708286345       32.5464293149       53.4083715419  TIP3      3675            0.0000000000
     62541      5036  TIP3      OH2           -30.2964228009       18.3235859966       51.5621239746  TIP3      3676            0.0000000000
     62542      5036  TIP3      H1            -30.9222772071       17.6478497714       51.8949748423  TIP3      3676            0.0000000000
     62543      5036  TIP3      H2            -29.7238003051       17.7731003776       51.0262169602  TIP3      3676            0.0000000000
     62544      5037  TIP3      OH2           -25.1400153339       16.3265185802       51.6764378023  TIP3      3677            0.0000000000
     62545      5037  TIP3      H1            -24.5345336820       16.9003708549       51.1540068677  TIP3      3677            0.0000000000
     62546      5037  TIP3      H2            -26.0160939086       16.6883995830       51.4530899344  TIP3      3677            0.0000000000
     62547      5038  TIP3      OH2           -23.4771547550       17.6028237843       49.9438731857  TIP3      3678            0.0000000000
     62548      5038  TIP3      H1            -22.7967002675       17.0133400329       49.5266907075  TIP3      3678            0.0000000000
     62549      5038  TIP3      H2            -22.9772620306       18.4400427816       50.0558124467  TIP3      3678            0.0000000000
     62550      5039  TIP3      OH2           -33.4054886267       16.8810990671       49.2062890698  TIP3      3679            0.0000000000
     62551      5039  TIP3      H1            -32.4934387044       17.2004269080       49.1788679332  TIP3      3679            0.0000000000
     62552      5039  TIP3      H2            -33.4731730094       16.5932045297       50.1246184523  TIP3      3679            0.0000000000
     62553      5040  TIP3      OH2           -27.7355733188       16.8338431309       50.8361611378  TIP3      3680            0.0000000000
     62554      5040  TIP3      H1            -27.7842763975       16.9685941765       49.8827810934  TIP3      3680            0.0000000000
     62555      5040  TIP3      H2            -28.1074132133       15.9553124396       51.0031281379  TIP3      3680            0.0000000000
     62556      5041  TIP3      OH2           -38.9967224203       32.7878924863       45.9350536346  TIP3      3681            0.0000000000
     62557      5041  TIP3      H1            -39.8965267233       32.5147051414       45.6775875971  TIP3      3681            0.0000000000
     62558      5041  TIP3      H2            -39.2487352785       33.5137443472       46.5605777748  TIP3      3681            0.0000000000
     62559      5042  TIP3      OH2           -32.3023132619       18.8719294696       46.1038561106  TIP3      3682            0.0000000000
     62560      5042  TIP3      H1            -32.0590937766       18.2582841902       46.8097259621  TIP3      3682            0.0000000000
     62561      5042  TIP3      H2            -32.2915014582       19.7164132776       46.5695442748  TIP3      3682            0.0000000000
     62562      5043  TIP3      OH2           -30.4101969713       33.9300786051       44.4680588819  TIP3      3683            0.0000000000
     62563      5043  TIP3      H1            -29.4617154413       34.1278061907       44.3507205966  TIP3      3683            0.0000000000
     62564      5043  TIP3      H2            -30.5434221481       33.3843984987       43.6897964925  TIP3      3683            0.0000000000
     62565      5044  TIP3      OH2           -37.1199170475       33.3171951578       42.5729657233  TIP3      3684            0.0000000000
     62566      5044  TIP3      H1            -37.9156967591       33.0354186462       42.9986965385  TIP3      3684            0.0000000000
     62567      5044  TIP3      H2            -36.4075247459       32.7601670865       42.9346850281  TIP3      3684            0.0000000000
     62568      5045  TIP3      OH2           -10.0166637263       26.0530738303       49.3249155907  TIP3      3685            0.0000000000
     62569      5045  TIP3      H1             -9.9346594447       27.0379468228       49.2859125527  TIP3      3685            0.0000000000
     62570      5045  TIP3      H2            -10.6447759921       25.8645909864       48.6382108876  TIP3      3685            0.0000000000
     62571      5046  TIP3      OH2           -11.1462164431       25.2998865648       52.7768538009  TIP3      3686            0.0000000000
     62572      5046  TIP3      H1            -11.1137395370       24.6585987378       53.5012071656  TIP3      3686            0.0000000000
     62573      5046  TIP3      H2            -11.4167191619       24.7949756589       52.0178246845  TIP3      3686            0.0000000000
     62574      5047  TIP3      OH2           -18.7868343490       24.9639186987       54.3777593654  TIP3      3687            0.0000000000
     62575      5047  TIP3      H1            -18.6794395878       24.2830342023       55.0786236697  TIP3      3687            0.0000000000
     62576      5047  TIP3      H2            -18.0130548819       25.5221995208       54.5512268417  TIP3      3687            0.0000000000
     62577      5048  TIP3      OH2            -7.4144950154       28.2667675247       51.0600521839  TIP3      3688            0.0000000000
     62578      5048  TIP3      H1             -7.8094911713       27.5340485678       51.5556959693  TIP3      3688            0.0000000000
     62579      5048  TIP3      H2             -7.3861720639       28.9560343004       51.7500117299  TIP3      3688            0.0000000000
     62580      5049  TIP3      OH2           -21.1620539816       22.9984499004       48.2649981981  TIP3      3689            0.0000000000
     62581      5049  TIP3      H1            -21.6255894157       23.8587981892       48.3013830692  TIP3      3689            0.0000000000
     62582      5049  TIP3      H2            -21.7884266546       22.4692679584       47.7570459978  TIP3      3689            0.0000000000
     62583      5050  TIP3      OH2           -20.4834666457       25.2108612838       50.4719804644  TIP3      3690            0.0000000000
     62584      5050  TIP3      H1            -20.2261500421       24.3928249157       50.9415181221  TIP3      3690            0.0000000000
     62585      5050  TIP3      H2            -19.7605365360       25.2946919427       49.8369994830  TIP3      3690            0.0000000000
     62586      5051  TIP3      OH2           -10.3748749995       33.3550755432       51.2574759559  TIP3      3691            0.0000000000
     62587      5051  TIP3      H1             -9.6578711492       32.7151741734       51.0431665738  TIP3      3691            0.0000000000
     62588      5051  TIP3      H2            -10.5054904264       33.1257061362       52.1837795027  TIP3      3691            0.0000000000
     62589      5052  TIP3      OH2           -12.7301010763       27.6895086262       53.2923358346  TIP3      3692            0.0000000000
     62590      5052  TIP3      H1            -12.3913685509       27.0663147381       52.6406781994  TIP3      3692            0.0000000000
     62591      5052  TIP3      H2            -11.9347176935       27.8873541697       53.8048188170  TIP3      3692            0.0000000000
     62592      5053  TIP3      OH2            -9.5561940362       22.1694947904       53.5817863492  TIP3      3693            0.0000000000
     62593      5053  TIP3      H1             -9.4388654411       21.2039499027       53.5926635849  TIP3      3693            0.0000000000
     62594      5053  TIP3      H2             -9.6974661327       22.2872348542       52.6208464206  TIP3      3693            0.0000000000
     62595      5054  TIP3      OH2            -8.7074596597       20.2982116760       49.1535113696  TIP3      3694            0.0000000000
     62596      5054  TIP3      H1             -8.0758500175       20.0250075032       49.8598985753  TIP3      3694            0.0000000000
     62597      5054  TIP3      H2             -8.2031454512       20.9142405883       48.6175173760  TIP3      3694            0.0000000000
     62598      5055  TIP3      OH2           -19.8328516982       22.6776263053       51.5455252336  TIP3      3695            0.0000000000
     62599      5055  TIP3      H1            -19.1521585301       22.1359224544       52.0033412933  TIP3      3695            0.0000000000
     62600      5055  TIP3      H2            -19.7296058996       22.3734351814       50.6312544490  TIP3      3695            0.0000000000
     62601      5056  TIP3      OH2           -14.5256647548       24.1650791295       50.6676584171  TIP3      3696            0.0000000000
     62602      5056  TIP3      H1            -14.0767222663       23.6344327877       51.3467071382  TIP3      3696            0.0000000000
     62603      5056  TIP3      H2            -15.2383522972       23.5496124918       50.3977019195  TIP3      3696            0.0000000000
     62604      5057  TIP3      OH2            -3.6766030096       20.7793596287       56.2890837621  TIP3      3697            0.0000000000
     62605      5057  TIP3      H1             -4.3081273183       21.5122786995       56.1572852739  TIP3      3697            0.0000000000
     62606      5057  TIP3      H2             -3.6538122108       20.6256066791       57.2299518186  TIP3      3697            0.0000000000
     62607      5058  TIP3      OH2           -10.2915541300       28.6219371530       48.3809186492  TIP3      3698            0.0000000000
     62608      5058  TIP3      H1            -10.5002228427       28.3824109175       47.4742747760  TIP3      3698            0.0000000000
     62609      5058  TIP3      H2            -10.5382284890       29.5613681969       48.4512336292  TIP3      3698            0.0000000000
     62610      5059  TIP3      OH2           -15.0192591390       26.7941925227       55.1204603431  TIP3      3699            0.0000000000
     62611      5059  TIP3      H1            -15.7402804864       27.4424746337       55.2747289858  TIP3      3699            0.0000000000
     62612      5059  TIP3      H2            -14.3374694543       27.3903699069       54.7676621955  TIP3      3699            0.0000000000
     62613      5060  TIP3      OH2            -6.8578249772       19.6504806093       51.0816168962  TIP3      3700            0.0000000000
     62614      5060  TIP3      H1             -7.1582833464       18.9481734594       51.6823339756  TIP3      3700            0.0000000000
     62615      5060  TIP3      H2             -6.2577160721       20.1356919752       51.6690684002  TIP3      3700            0.0000000000
     62616      5061  TIP3      OH2           -18.0346683111       21.1195135281       52.7116612613  TIP3      3701            0.0000000000
     62617      5061  TIP3      H1            -17.4136526437       21.7067863712       53.1857441194  TIP3      3701            0.0000000000
     62618      5061  TIP3      H2            -17.4905951478       20.5835547423       52.1246854644  TIP3      3701            0.0000000000
     62619      5062  TIP3      OH2           -16.6141632444       28.8277116968       55.9799478460  TIP3      3702            0.0000000000
     62620      5062  TIP3      H1            -16.6099551587       29.6497388958       55.4747630206  TIP3      3702            0.0000000000
     62621      5062  TIP3      H2            -17.5063166533       28.7120096329       56.3249609604  TIP3      3702            0.0000000000
     62622      5063  TIP3      OH2            -6.9313845948       30.0487660600       53.4189742454  TIP3      3703            0.0000000000
     62623      5063  TIP3      H1             -7.8889799566       30.1650483523       53.6024207391  TIP3      3703            0.0000000000
     62624      5063  TIP3      H2             -6.6060682959       30.9467593928       53.2869956838  TIP3      3703            0.0000000000
     62625      5064  TIP3      OH2            -6.5828088563       18.3904042223       54.8371160672  TIP3      3704            0.0000000000
     62626      5064  TIP3      H1             -7.3169742783       19.0132455941       54.7612286199  TIP3      3704            0.0000000000
     62627      5064  TIP3      H2             -5.8752412366       18.8058763096       54.3288858707  TIP3      3704            0.0000000000
     62628      5065  TIP3      OH2            -8.6474903684       31.8656622149       49.9647078031  TIP3      3705            0.0000000000
     62629      5065  TIP3      H1             -8.1695663108       31.1156509115       49.5340542014  TIP3      3705            0.0000000000
     62630      5065  TIP3      H2             -8.1879169222       32.6563727912       49.6772457788  TIP3      3705            0.0000000000
     62631      5066  TIP3      OH2            -7.4981322144       29.8178818575       48.5417210124  TIP3      3706            0.0000000000
     62632      5066  TIP3      H1             -7.7415879348       29.0798023866       47.9565544270  TIP3      3706            0.0000000000
     62633      5066  TIP3      H2             -7.3950732171       29.3176511296       49.3750587440  TIP3      3706            0.0000000000
     62634      5067  TIP3      OH2           -11.3818547108       25.2950331168       46.7758948640  TIP3      3707            0.0000000000
     62635      5067  TIP3      H1            -11.8766645039       26.0447831455       46.3339377525  TIP3      3707            0.0000000000
     62636      5067  TIP3      H2            -10.5748405129       25.3430856129       46.1795317877  TIP3      3707            0.0000000000
     62637      5068  TIP3      OH2           -11.3084421806       23.7270861152       43.9594702032  TIP3      3708            0.0000000000
     62638      5068  TIP3      H1            -10.4920791716       23.8133267409       44.4759291476  TIP3      3708            0.0000000000
     62639      5068  TIP3      H2            -10.9194014582       23.2483294741       43.2204539555  TIP3      3708            0.0000000000
     62640      5069  TIP3      OH2            -3.9480962704       24.6508651682       55.0895098748  TIP3      3709            0.0000000000
     62641      5069  TIP3      H1             -4.5661111857       25.4066247095       55.1575347883  TIP3      3709            0.0000000000
     62642      5069  TIP3      H2             -3.4404655227       24.8825045122       54.3033779760  TIP3      3709            0.0000000000
     62643      5070  TIP3      OH2            -7.9358668703       25.4004604983       47.7207128404  TIP3      3710            0.0000000000
     62644      5070  TIP3      H1             -8.5667628173       25.7636763537       48.3753052143  TIP3      3710            0.0000000000
     62645      5070  TIP3      H2             -7.3587477711       24.8322661049       48.2628166794  TIP3      3710            0.0000000000
     62646      5071  TIP3      OH2            -7.9429415775       23.6663615777       56.8507102499  TIP3      3711            0.0000000000
     62647      5071  TIP3      H1             -7.9387136203       24.4839704487       57.3733382612  TIP3      3711            0.0000000000
     62648      5071  TIP3      H2             -8.5801349531       23.9417146435       56.1595859813  TIP3      3711            0.0000000000
     62649      5072  TIP3      OH2           -16.1764480981       26.1357049778       49.5930390597  TIP3      3712            0.0000000000
     62650      5072  TIP3      H1            -16.6271030496       25.7370431815       48.8222060516  TIP3      3712            0.0000000000
     62651      5072  TIP3      H2            -15.6698364899       25.4338745741       50.0343145422  TIP3      3712            0.0000000000
     62652      5073  TIP3      OH2           -15.8975965275       24.8646315026       53.3219526776  TIP3      3713            0.0000000000
     62653      5073  TIP3      H1            -15.3552631312       25.0495924763       52.5533948675  TIP3      3713            0.0000000000
     62654      5073  TIP3      H2            -15.5576343840       25.5398089875       53.9424027699  TIP3      3713            0.0000000000
     62655      5074  TIP3      OH2            -9.5333353706       30.4698651949       54.0388326260  TIP3      3714            0.0000000000
     62656      5074  TIP3      H1             -9.8061649007       31.1023725787       54.7098200105  TIP3      3714            0.0000000000
     62657      5074  TIP3      H2             -9.7822790150       29.6059418011       54.4474799946  TIP3      3714            0.0000000000
     62658      5075  TIP3      OH2            -9.0554347129       24.7384696000       45.4423959344  TIP3      3715            0.0000000000
     62659      5075  TIP3      H1             -8.4265155465       24.8813459788       46.2009334775  TIP3      3715            0.0000000000
     62660      5075  TIP3      H2             -8.5906844319       25.1818948254       44.7178611296  TIP3      3715            0.0000000000
     62661      5076  TIP3      OH2           -18.0397292886       25.5043636489       57.2034430248  TIP3      3716            0.0000000000
     62662      5076  TIP3      H1            -18.0281082407       26.1379562205       57.9348130501  TIP3      3716            0.0000000000
     62663      5076  TIP3      H2            -18.9733219694       25.5963601336       56.9475879033  TIP3      3716            0.0000000000
     62664      5077  TIP3      OH2           -11.1769031317       31.6263475385       48.7524802857  TIP3      3717            0.0000000000
     62665      5077  TIP3      H1            -10.8440683554       31.6620048911       49.6822719026  TIP3      3717            0.0000000000
     62666      5077  TIP3      H2            -12.0138051272       32.0662613091       48.8161089713  TIP3      3717            0.0000000000
     62667      5078  TIP3      OH2           -16.7206214366       31.3253241996       58.7666856530  TIP3      3718            0.0000000000
     62668      5078  TIP3      H1            -16.7515024281       31.2363801281       57.8183886574  TIP3      3718            0.0000000000
     62669      5078  TIP3      H2            -17.6357839869       31.2233959429       59.0535437807  TIP3      3718            0.0000000000
     62670      5079  TIP3      OH2            -5.2796665709       16.4966883690       45.3981799516  TIP3      3719            0.0000000000
     62671      5079  TIP3      H1             -6.2570699606       16.4738614548       45.5152408691  TIP3      3719            0.0000000000
     62672      5079  TIP3      H2             -5.0252983157       17.1494625339       44.7644251970  TIP3      3719            0.0000000000
     62673      5080  TIP3      OH2           -17.2054302863       25.1757072163       47.1591992633  TIP3      3720            0.0000000000
     62674      5080  TIP3      H1            -17.5740754937       25.9739786042       46.7450754479  TIP3      3720            0.0000000000
     62675      5080  TIP3      H2            -17.9469599499       24.5536318147       47.0652685348  TIP3      3720            0.0000000000
     62676      5081  TIP3      OH2           -21.1871514226       27.6109415680       56.1053179733  TIP3      3721            0.0000000000
     62677      5081  TIP3      H1            -21.6548281357       27.4940776447       55.2718471352  TIP3      3721            0.0000000000
     62678      5081  TIP3      H2            -21.1180664451       26.6820635371       56.4022131246  TIP3      3721            0.0000000000
     62679      5082  TIP3      OH2           -12.2007541872       30.5366854108       57.5513882997  TIP3      3722            0.0000000000
     62680      5082  TIP3      H1            -12.1868255162       31.4378950410       57.9449781302  TIP3      3722            0.0000000000
     62681      5082  TIP3      H2            -13.1161860014       30.2833601789       57.6977457736  TIP3      3722            0.0000000000
     62682      5083  TIP3      OH2           -12.7233499024       34.9132206260       47.4941316730  TIP3      3723            0.0000000000
     62683      5083  TIP3      H1            -12.8209086690       34.7924487681       46.5343971147  TIP3      3723            0.0000000000
     62684      5083  TIP3      H2            -12.1012472762       35.6824529839       47.6771891482  TIP3      3723            0.0000000000
     62685      5084  TIP3      OH2            -9.0723223362       33.4146961358       47.0890021932  TIP3      3724            0.0000000000
     62686      5084  TIP3      H1             -9.7356037127       33.3764390032       47.7235811639  TIP3      3724            0.0000000000
     62687      5084  TIP3      H2             -8.5591729285       32.7009922491       47.5285074953  TIP3      3724            0.0000000000
     62688      5085  TIP3      OH2            -6.0727389351       22.5015525566       59.1000860480  TIP3      3725            0.0000000000
     62689      5085  TIP3      H1             -6.5173317255       22.9380124519       58.3577668932  TIP3      3725            0.0000000000
     62690      5085  TIP3      H2             -6.0344523361       21.5819139879       58.7892330183  TIP3      3725            0.0000000000
     62691      5086  TIP3      OH2           -11.5775446665       17.0903000226       56.4402767715  TIP3      3726            0.0000000000
     62692      5086  TIP3      H1            -11.1631759512       16.6450026193       57.2095717657  TIP3      3726            0.0000000000
     62693      5086  TIP3      H2            -12.5053502918       16.9274001390       56.6131280233  TIP3      3726            0.0000000000
     62694      5087  TIP3      OH2            -8.3203934834       20.8915330825       57.3295319042  TIP3      3727            0.0000000000
     62695      5087  TIP3      H1             -8.8367198283       20.7050623050       58.1335203136  TIP3      3727            0.0000000000
     62696      5087  TIP3      H2             -8.4776880550       21.8223580129       57.0917578120  TIP3      3727            0.0000000000
     62697      5088  TIP3      OH2           -16.1729321108       22.5813282243       49.1081620701  TIP3      3728            0.0000000000
     62698      5088  TIP3      H1            -17.0972093662       22.2428040880       49.0784237806  TIP3      3728            0.0000000000
     62699      5088  TIP3      H2            -15.8332054318       22.1267817403       48.3081752899  TIP3      3728            0.0000000000
     62700      5089  TIP3      OH2           -10.7638215074       22.9721471206       47.8742464647  TIP3      3729            0.0000000000
     62701      5089  TIP3      H1            -10.8838397321       23.8721188208       47.5585203966  TIP3      3729            0.0000000000
     62702      5089  TIP3      H2             -9.9644033957       22.7629294637       47.3361207913  TIP3      3729            0.0000000000
     62703      5090  TIP3      OH2            -9.6446146072       22.4689181025       50.7645223705  TIP3      3730            0.0000000000
     62704      5090  TIP3      H1             -9.8604911338       23.0249249966       50.0164686548  TIP3      3730            0.0000000000
     62705      5090  TIP3      H2             -9.4940734649       21.6094040100       50.3253000688  TIP3      3730            0.0000000000
     62706      5091  TIP3      OH2           -18.5180010375       22.6458281336       56.0392476900  TIP3      3731            0.0000000000
     62707      5091  TIP3      H1            -18.4307258256       23.0361272131       56.9231606625  TIP3      3731            0.0000000000
     62708      5091  TIP3      H2            -18.9628182956       21.8080225027       56.1874091419  TIP3      3731            0.0000000000
     62709      5092  TIP3      OH2           -21.8444688511       19.7842728218       49.9336548904  TIP3      3732            0.0000000000
     62710      5092  TIP3      H1            -21.1849419307       19.7026417859       50.6508898745  TIP3      3732            0.0000000000
     62711      5092  TIP3      H2            -21.4100323316       19.3523877727       49.1772814514  TIP3      3732            0.0000000000
     62712      5093  TIP3      OH2           -20.6278327147       20.4585448473       45.2345293423  TIP3      3733            0.0000000000
     62713      5093  TIP3      H1            -20.0364573381       21.1100454765       44.8453359781  TIP3      3733            0.0000000000
     62714      5093  TIP3      H2            -21.2508285733       21.0543698857       45.7193429904  TIP3      3733            0.0000000000
     62715      5094  TIP3      OH2           -10.3703569630       24.0572291581       55.3723335137  TIP3      3734            0.0000000000
     62716      5094  TIP3      H1            -10.0485844599       23.3671162923       54.7531590803  TIP3      3734            0.0000000000
     62717      5094  TIP3      H2            -10.8510137202       23.5415702598       56.0347897669  TIP3      3734            0.0000000000
     62718      5095  TIP3      OH2           -18.7960223401       21.6060955562       49.0276312811  TIP3      3735            0.0000000000
     62719      5095  TIP3      H1            -19.6948548856       21.7406445407       48.6560196763  TIP3      3735            0.0000000000
     62720      5095  TIP3      H2            -18.5184475271       20.7682910546       48.6450644529  TIP3      3735            0.0000000000
     62721      5096  TIP3      OH2           -15.1492384199       21.8465043415       46.7888049405  TIP3      3736            0.0000000000
     62722      5096  TIP3      H1            -14.2138992186       21.5670857745       46.7267401220  TIP3      3736            0.0000000000
     62723      5096  TIP3      H2            -15.4035646928       22.1836370411       45.9097503857  TIP3      3736            0.0000000000
     62724      5097  TIP3      OH2            -9.2154517058       19.2432451270       53.4410872424  TIP3      3737            0.0000000000
     62725      5097  TIP3      H1             -9.8961442752       19.3421030027       54.1420371248  TIP3      3737            0.0000000000
     62726      5097  TIP3      H2             -9.7370821308       19.0384901452       52.6478698830  TIP3      3737            0.0000000000
     62727      5098  TIP3      OH2           -13.0755870760       27.1222099580       46.2861687614  TIP3      3738            0.0000000000
     62728      5098  TIP3      H1            -13.9295700063       26.9704222535       45.8091465196  TIP3      3738            0.0000000000
     62729      5098  TIP3      H2            -13.3513708077       27.5844247473       47.1069456030  TIP3      3738            0.0000000000
     62730      5099  TIP3      OH2            -5.9295955579       26.4782569429       54.9489888130  TIP3      3739            0.0000000000
     62731      5099  TIP3      H1             -5.3615851932       27.0410450774       54.4128834665  TIP3      3739            0.0000000000
     62732      5099  TIP3      H2             -6.7910870397       26.6028405746       54.5088438292  TIP3      3739            0.0000000000
     62733      5100  TIP3      OH2           -11.5903514491       27.6018582535       57.4094528558  TIP3      3740            0.0000000000
     62734      5100  TIP3      H1            -11.9230123248       27.1811021130       58.2128039212  TIP3      3740            0.0000000000
     62735      5100  TIP3      H2            -11.8442264127       28.5291277254       57.5083811282  TIP3      3740            0.0000000000
     62736      5101  TIP3      OH2            -8.5371222864       22.0734178464       46.0323026599  TIP3      3741            0.0000000000
     62737      5101  TIP3      H1             -7.6579435664       22.0082524559       46.4251033720  TIP3      3741            0.0000000000
     62738      5101  TIP3      H2             -8.4745278119       22.8542126338       45.4630166312  TIP3      3741            0.0000000000
     62739      5102  TIP3      OH2           -18.0359287438       26.6903905108       51.9503604030  TIP3      3742            0.0000000000
     62740      5102  TIP3      H1            -17.2869464781       26.6802168393       51.3421483144  TIP3      3742            0.0000000000
     62741      5102  TIP3      H2            -17.9065246623       25.8713605810       52.4493022196  TIP3      3742            0.0000000000
     62742      5103  TIP3      OH2           -10.9891528971       28.8206273615       45.3087013102  TIP3      3743            0.0000000000
     62743      5103  TIP3      H1            -11.3472927805       29.6668373751       45.5752226736  TIP3      3743            0.0000000000
     62744      5103  TIP3      H2            -11.7229817560       28.2008383141       45.3716653289  TIP3      3743            0.0000000000
     62745      5104  TIP3      OH2           -20.9859499525       25.1100646117       57.2273727492  TIP3      3744            0.0000000000
     62746      5104  TIP3      H1            -20.8272486237       24.7262022337       58.1137959479  TIP3      3744            0.0000000000
     62747      5104  TIP3      H2            -21.6262786215       24.5093161772       56.8215863964  TIP3      3744            0.0000000000
     62748      5105  TIP3      OH2           -13.9776590214       24.6515827882       59.4568784759  TIP3      3745            0.0000000000
     62749      5105  TIP3      H1            -14.3170765228       24.4380410230       58.5724054005  TIP3      3745            0.0000000000
     62750      5105  TIP3      H2            -13.0498280531       24.4277738263       59.4041418999  TIP3      3745            0.0000000000
     62751      5106  TIP3      OH2            -9.3523553395       30.0303651422       57.3642816985  TIP3      3746            0.0000000000
     62752      5106  TIP3      H1            -10.2774360426       30.2282100674       57.1488493457  TIP3      3746            0.0000000000
     62753      5106  TIP3      H2             -9.3036986122       30.3061373053       58.2974607429  TIP3      3746            0.0000000000
     62754      5107  TIP3      OH2            -3.7679019011       22.1941366523       45.7935468712  TIP3      3747            0.0000000000
     62755      5107  TIP3      H1             -4.1011609683       21.9840979876       44.9296617169  TIP3      3747            0.0000000000
     62756      5107  TIP3      H2             -3.4728270286       23.1136069635       45.5459837835  TIP3      3747            0.0000000000
     62757      5108  TIP3      OH2            -8.1657096155       25.8481256819       53.2635631471  TIP3      3748            0.0000000000
     62758      5108  TIP3      H1             -9.1033619175       25.6287251041       53.1354054668  TIP3      3748            0.0000000000
     62759      5108  TIP3      H2             -7.7124344355       25.0960796758       52.8364876156  TIP3      3748            0.0000000000
     62760      5109  TIP3      OH2           -15.5867110828       30.0415309953       49.2984177441  TIP3      3749            0.0000000000
     62761      5109  TIP3      H1            -15.1177363199       30.8756380415       49.2161034566  TIP3      3749            0.0000000000
     62762      5109  TIP3      H2            -16.4732123471       30.3137681065       49.0420725960  TIP3      3749            0.0000000000
     62763      5110  TIP3      OH2           -19.9036993663       25.0341248985       43.8989557472  TIP3      3750            0.0000000000
     62764      5110  TIP3      H1            -19.2668231993       25.6798810706       44.2512822040  TIP3      3750            0.0000000000
     62765      5110  TIP3      H2            -20.7513802242       25.3602872355       44.2398143709  TIP3      3750            0.0000000000
     62766      5111  TIP3      OH2           -14.1954394345       27.7790919382       48.8248196470  TIP3      3751            0.0000000000
     62767      5111  TIP3      H1            -14.4353619767       28.7255891194       48.9786130902  TIP3      3751            0.0000000000
     62768      5111  TIP3      H2            -14.9403426652       27.4177165797       49.3556059090  TIP3      3751            0.0000000000
     62769      5112  TIP3      OH2           -10.2421358789       28.0465005275       54.9199337469  TIP3      3752            0.0000000000
     62770      5112  TIP3      H1            -10.5603815553       27.8480624854       55.8229579469  TIP3      3752            0.0000000000
     62771      5112  TIP3      H2             -9.5911207210       27.3476809857       54.7613531749  TIP3      3752            0.0000000000
     62772      5113  TIP3      OH2            -7.4650513895       32.6422081794       57.4159834570  TIP3      3753            0.0000000000
     62773      5113  TIP3      H1             -8.1037696961       32.1090493690       56.9137263922  TIP3      3753            0.0000000000
     62774      5113  TIP3      H2             -7.1947310769       33.3133682382       56.7808093524  TIP3      3753            0.0000000000
     62775      5114  TIP3      OH2           -10.6262342651       19.6242250489       55.7397490843  TIP3      3754            0.0000000000
     62776      5114  TIP3      H1             -9.9287150703       19.6858036711       56.4039985714  TIP3      3754            0.0000000000
     62777      5114  TIP3      H2            -11.0179343239       18.7496513036       55.9294153819  TIP3      3754            0.0000000000
     62778      5115  TIP3      OH2           -12.0780955251       31.6954673155       45.8249213788  TIP3      3755            0.0000000000
     62779      5115  TIP3      H1            -13.0352347105       31.7773054847       45.6248429764  TIP3      3755            0.0000000000
     62780      5115  TIP3      H2            -11.6814132846       31.7544333981       44.9323720078  TIP3      3755            0.0000000000
     62781      5116  TIP3      OH2           -12.7233778170       21.1438596082       47.6457649946  TIP3      3756            0.0000000000
     62782      5116  TIP3      H1            -11.8057127044       21.4761581863       47.6911930562  TIP3      3756            0.0000000000
     62783      5116  TIP3      H2            -12.8812135637       20.7793309729       48.5247170714  TIP3      3756            0.0000000000
     62784      5117  TIP3      OH2           -11.7775052203       18.0600870377       48.5601447716  TIP3      3757            0.0000000000
     62785      5117  TIP3      H1            -12.0763032034       18.7015513416       49.2047968837  TIP3      3757            0.0000000000
     62786      5117  TIP3      H2            -11.0876832609       18.5642371857       48.1021601823  TIP3      3757            0.0000000000
     62787      5118  TIP3      OH2            -5.8853381552       19.8571341164       57.6950561020  TIP3      3758            0.0000000000
     62788      5118  TIP3      H1             -6.8186060029       20.1539593383       57.5591254736  TIP3      3758            0.0000000000
     62789      5118  TIP3      H2             -5.5669950264       19.8390267888       56.7734676356  TIP3      3758            0.0000000000
     62790      5119  TIP3      OH2            -7.3002217637       23.6501774254       51.7262712443  TIP3      3759            0.0000000000
     62791      5119  TIP3      H1             -8.1121900613       23.1989752620       51.4365202945  TIP3      3759            0.0000000000
     62792      5119  TIP3      H2             -6.8235518193       22.9518147903       52.2301194355  TIP3      3759            0.0000000000
     62793      5120  TIP3      OH2           -15.8394169223       32.5363822697       61.2397120919  TIP3      3760            0.0000000000
     62794      5120  TIP3      H1            -15.1315393819       31.9967939170       61.5696201900  TIP3      3760            0.0000000000
     62795      5120  TIP3      H2            -15.9107637883       32.2754887429       60.3107970371  TIP3      3760            0.0000000000
     62796      5121  TIP3      OH2            -9.4354569936       30.9562638968       60.0648742348  TIP3      3761            0.0000000000
     62797      5121  TIP3      H1             -9.6748569481       30.0157098567       60.1911466109  TIP3      3761            0.0000000000
     62798      5121  TIP3      H2             -8.5609408348       30.9644362494       60.4724640916  TIP3      3761            0.0000000000
     62799      5122  TIP3      OH2            -8.2328296860       27.2399140860       57.3957129532  TIP3      3762            0.0000000000
     62800      5122  TIP3      H1             -7.5014271214       27.8602447255       57.2807489936  TIP3      3762            0.0000000000
     62801      5122  TIP3      H2             -8.9620947018       27.8782600194       57.4112938141  TIP3      3762            0.0000000000
     62802      5123  TIP3      OH2           -19.7713466334       24.5937452283       59.9562174591  TIP3      3763            0.0000000000
     62803      5123  TIP3      H1            -19.3342961121       23.7449264180       59.8795914058  TIP3      3763            0.0000000000
     62804      5123  TIP3      H2            -19.9975370673       24.6346829339       60.9008749803  TIP3      3763            0.0000000000
     62805      5124  TIP3      OH2           -14.9638916129       25.6619893103       45.1670611826  TIP3      3764            0.0000000000
     62806      5124  TIP3      H1            -15.7146390477       25.2347701568       45.5987985405  TIP3      3764            0.0000000000
     62807      5124  TIP3      H2            -14.8501935726       25.0748400474       44.3711918655  TIP3      3764            0.0000000000
     62808      5125  TIP3      OH2           -15.8365272450       23.5677978523       57.3759236237  TIP3      3765            0.0000000000
     62809      5125  TIP3      H1            -16.4537839001       24.2743524436       57.6290880795  TIP3      3765            0.0000000000
     62810      5125  TIP3      H2            -15.4752949407       23.9051272372       56.5397158675  TIP3      3765            0.0000000000
     62811      5126  TIP3      OH2           -14.0215248570       23.9824884911       43.3152549596  TIP3      3766            0.0000000000
     62812      5126  TIP3      H1            -14.2062793996       23.8098555560       42.3808360311  TIP3      3766            0.0000000000
     62813      5126  TIP3      H2            -13.0461072107       24.0467977936       43.3137967830  TIP3      3766            0.0000000000
     62814      5127  TIP3      OH2           -10.8361784954       26.1071884651       60.6846696054  TIP3      3767            0.0000000000
     62815      5127  TIP3      H1             -9.8750662369       26.1034814541       60.5623778746  TIP3      3767            0.0000000000
     62816      5127  TIP3      H2            -10.9667759384       25.3581957249       61.2821090360  TIP3      3767            0.0000000000
     62817      5128  TIP3      OH2           -15.4676562743       20.9574839243       58.4219691833  TIP3      3768            0.0000000000
     62818      5128  TIP3      H1            -15.3521677043       20.2456804901       57.7931119364  TIP3      3768            0.0000000000
     62819      5128  TIP3      H2            -15.4918444415       21.7579749043       57.8523542650  TIP3      3768            0.0000000000
     62820      5129  TIP3      OH2           -13.4849685349       24.7691489088       56.2035456822  TIP3      3769            0.0000000000
     62821      5129  TIP3      H1            -12.7494389963       24.6353948476       55.6036767678  TIP3      3769            0.0000000000
     62822      5129  TIP3      H2            -13.8768148661       25.5979068403       55.8721472680  TIP3      3769            0.0000000000
     62823      5130  TIP3      OH2            -9.0586433973       22.6000778565       61.1105705296  TIP3      3770            0.0000000000
     62824      5130  TIP3      H1             -8.8687258074       21.6551790193       61.1768298842  TIP3      3770            0.0000000000
     62825      5130  TIP3      H2             -8.1870553832       23.0020559454       61.2088934887  TIP3      3770            0.0000000000
     62826      5131  TIP3      OH2            -7.8425447386       25.2707248120       59.2979024667  TIP3      3771            0.0000000000
     62827      5131  TIP3      H1             -8.0687637443       26.0358977305       58.7266221544  TIP3      3771            0.0000000000
     62828      5131  TIP3      H2             -6.8822767536       25.2649698029       59.2097119593  TIP3      3771            0.0000000000
     62829      5132  TIP3      OH2           -16.9993115246       22.1977171902       60.3402997169  TIP3      3772            0.0000000000
     62830      5132  TIP3      H1            -17.7301929475       21.5778359566       60.1867634771  TIP3      3772            0.0000000000
     62831      5132  TIP3      H2            -16.3108263596       21.8249286423       59.7546320006  TIP3      3772            0.0000000000
     62832      5133  TIP3      OH2           -18.9544389702       20.0624897248       60.0379886743  TIP3      3773            0.0000000000
     62833      5133  TIP3      H1            -18.6132307132       19.3641742433       59.4657008872  TIP3      3773            0.0000000000
     62834      5133  TIP3      H2            -18.9242285136       19.6716504058       60.9265163244  TIP3      3773            0.0000000000
     62835      5134  TIP3      OH2            -4.1288257530       27.1488320016       46.6096300889  TIP3      3774            0.0000000000
     62836      5134  TIP3      H1             -3.3150909055       27.5976764571       46.8740137852  TIP3      3774            0.0000000000
     62837      5134  TIP3      H2             -4.1899570574       26.4565349981       47.3097025489  TIP3      3774            0.0000000000
     62838      5135  TIP3      OH2            -3.8155810835       25.2718827154       48.5071193011  TIP3      3775            0.0000000000
     62839      5135  TIP3      H1             -4.5613421590       24.7700904097       48.8995970557  TIP3      3775            0.0000000000
     62840      5135  TIP3      H2             -3.2073578710       25.3983957998       49.2661757293  TIP3      3775            0.0000000000
     62841      5136  TIP3      OH2            -5.5363245045       30.8613161489       55.7782038260  TIP3      3776            0.0000000000
     62842      5136  TIP3      H1             -6.1896887668       31.1919869432       56.4096769065  TIP3      3776            0.0000000000
     62843      5136  TIP3      H2             -6.0494701996       30.3988395175       55.0967174498  TIP3      3776            0.0000000000
     62844      5137  TIP3      OH2            -3.5837135223       25.0467751412       44.9028090520  TIP3      3777            0.0000000000
     62845      5137  TIP3      H1             -4.1086690799       25.4357569242       44.2010851516  TIP3      3777            0.0000000000
     62846      5137  TIP3      H2             -3.5861692944       25.7711703672       45.5687216737  TIP3      3777            0.0000000000
     62847      5138  TIP3      OH2            -6.0205041151       23.7298220021       49.0338552409  TIP3      3778            0.0000000000
     62848      5138  TIP3      H1             -6.1478144804       22.7866927032       49.0918515154  TIP3      3778            0.0000000000
     62849      5138  TIP3      H2             -6.3395246309       23.9749281150       49.9228491839  TIP3      3778            0.0000000000
     62850      5139  TIP3      OH2           -21.0022387529       25.8702192946       53.1427088366  TIP3      3779            0.0000000000
     62851      5139  TIP3      H1            -20.7979619042       25.7508367636       52.1899988391  TIP3      3779            0.0000000000
     62852      5139  TIP3      H2            -20.1088090217       25.6866736137       53.5037066901  TIP3      3779            0.0000000000
     62853      5140  TIP3      OH2            -3.6590486051       23.6228325811       59.4043615752  TIP3      3780            0.0000000000
     62854      5140  TIP3      H1             -4.5399241048       23.2268744378       59.2516061659  TIP3      3780            0.0000000000
     62855      5140  TIP3      H2             -3.0687884172       22.8705735929       59.3539315388  TIP3      3780            0.0000000000
     62856      5141  TIP3      OH2            -5.9437048113       19.8232724661       42.7716780797  TIP3      3781            0.0000000000
     62857      5141  TIP3      H1             -5.2297494683       19.2201684651       42.9949105197  TIP3      3781            0.0000000000
     62858      5141  TIP3      H2             -6.7777111291       19.3304324088       42.6078176621  TIP3      3781            0.0000000000
     62859      5142  TIP3      OH2            -6.2830691159       21.1988139884       47.2652889305  TIP3      3782            0.0000000000
     62860      5142  TIP3      H1             -6.0018316230       20.4538841482       47.8378990653  TIP3      3782            0.0000000000
     62861      5142  TIP3      H2             -5.5209233590       21.8159022269       47.2732628973  TIP3      3782            0.0000000000
     62862      5143  TIP3      OH2            -5.7071530073       21.8731374007       52.9814817912  TIP3      3783            0.0000000000
     62863      5143  TIP3      H1             -4.7352027841       22.0829592749       52.9614122772  TIP3      3783            0.0000000000
     62864      5143  TIP3      H2             -5.8733875128       22.0197797930       53.9275511139  TIP3      3783            0.0000000000
     62865      5144  TIP3      OH2            -5.6355912428       22.6039584041       55.7703436716  TIP3      3784            0.0000000000
     62866      5144  TIP3      H1             -6.5021721989       22.9214373440       56.0913734984  TIP3      3784            0.0000000000
     62867      5144  TIP3      H2             -5.1724758589       23.4452750674       55.5372126272  TIP3      3784            0.0000000000
     62868      5145  TIP3      OH2           -21.4104671974       21.1718845090       59.2975791346  TIP3      3785            0.0000000000
     62869      5145  TIP3      H1            -20.4757386464       20.9421700160       59.4741382466  TIP3      3785            0.0000000000
     62870      5145  TIP3      H2            -21.8573183458       20.3401593337       59.5674548273  TIP3      3785            0.0000000000
     62871      5146  TIP3      OH2            -3.3604119641       16.6102265072       61.0910953029  TIP3      3786            0.0000000000
     62872      5146  TIP3      H1             -2.9988567657       15.9581860038       60.4629166988  TIP3      3786            0.0000000000
     62873      5146  TIP3      H2             -3.2518266586       17.4367380303       60.5750792191  TIP3      3786            0.0000000000
     62874      5147  TIP3      OH2            -5.6911681276       18.6058750849       47.4278714140  TIP3      3787            0.0000000000
     62875      5147  TIP3      H1             -5.4727104944       18.2672884651       48.3502568036  TIP3      3787            0.0000000000
     62876      5147  TIP3      H2             -6.3152298815       17.8627753121       47.2136366531  TIP3      3787            0.0000000000
     62877      5148  TIP3      OH2           -20.1755205410       19.4117377933       52.1139930108  TIP3      3788            0.0000000000
     62878      5148  TIP3      H1            -19.7247204778       18.6035438606       52.4016264814  TIP3      3788            0.0000000000
     62879      5148  TIP3      H2            -19.6446409575       20.1013055950       52.5367736589  TIP3      3788            0.0000000000
     62880      5149  TIP3      OH2           -21.8880951962       22.4157486953       53.1794980823  TIP3      3789            0.0000000000
     62881      5149  TIP3      H1            -21.3384016169       22.2001033794       52.4000701398  TIP3      3789            0.0000000000
     62882      5149  TIP3      H2            -21.4395501330       23.2318972816       53.4458832482  TIP3      3789            0.0000000000
     62883      5150  TIP3      OH2            -3.8190072885       18.7299608378       59.4795764575  TIP3      3790            0.0000000000
     62884      5150  TIP3      H1             -4.7525375207       19.0100643910       59.4141277474  TIP3      3790            0.0000000000
     62885      5150  TIP3      H2             -3.7628054851       18.2321359893       58.6478150690  TIP3      3790            0.0000000000
     62886      5151  TIP3      OH2            -3.9123273863       18.7297347377       44.1800116975  TIP3      3791            0.0000000000
     62887      5151  TIP3      H1             -3.4704313717       17.9587898405       43.7267546788  TIP3      3791            0.0000000000
     62888      5151  TIP3      H2             -3.1170845947       19.3089280892       44.1230485771  TIP3      3791            0.0000000000
     62889      5152  TIP3      OH2           -21.5499936258       18.6908375626       47.3090852449  TIP3      3792            0.0000000000
     62890      5152  TIP3      H1            -22.4875105610       18.8513542087       47.1121358478  TIP3      3792            0.0000000000
     62891      5152  TIP3      H2            -21.0739996187       19.1019109524       46.5791905351  TIP3      3792            0.0000000000
     62892      5153  TIP3      OH2           -21.5530125721       17.3775337097       55.5656233513  TIP3      3793            0.0000000000
     62893      5153  TIP3      H1            -22.2393844442       17.1718043012       56.2284045770  TIP3      3793            0.0000000000
     62894      5153  TIP3      H2            -22.0178602448       18.0078309082       54.9912332401  TIP3      3793            0.0000000000
     62895      5154  TIP3      OH2           -12.1290532498       32.9611552841       58.9129070774  TIP3      3794            0.0000000000
     62896      5154  TIP3      H1            -11.9600304229       32.6140534294       59.8038696971  TIP3      3794            0.0000000000
     62897      5154  TIP3      H2            -11.2477973391       33.2689194403       58.6286833152  TIP3      3794            0.0000000000
     62898      5155  TIP3      OH2            -9.8243563204       34.2309389966       58.2261153260  TIP3      3795            0.0000000000
     62899      5155  TIP3      H1             -9.1010409629       33.6268423228       57.9669076129  TIP3      3795            0.0000000000
     62900      5155  TIP3      H2             -9.4307596838       34.6836585495       58.9750719083  TIP3      3795            0.0000000000
     62901      5156  TIP3      OH2            -4.8783084638       16.8424838118       57.3473256218  TIP3      3796            0.0000000000
     62902      5156  TIP3      H1             -5.6509748651       17.1432417208       56.8547264166  TIP3      3796            0.0000000000
     62903      5156  TIP3      H2             -4.6060228417       16.0744575258       56.8026950423  TIP3      3796            0.0000000000
     62904      5157  TIP3      OH2           -11.7936573311       34.2749298196       54.1967258129  TIP3      3797            0.0000000000
     62905      5157  TIP3      H1            -12.3098184018       34.8047918192       53.5790599673  TIP3      3797            0.0000000000
     62906      5157  TIP3      H2            -11.7029042626       34.8931724838       54.9563850522  TIP3      3797            0.0000000000
     62907      5158  TIP3      OH2            -9.5212237770       33.0947327659       55.2244075425  TIP3      3798            0.0000000000
     62908      5158  TIP3      H1            -10.4176397019       33.3275173963       54.9149572543  TIP3      3798            0.0000000000
     62909      5158  TIP3      H2             -9.1243787312       33.9705070226       55.1434253926  TIP3      3798            0.0000000000
     62910      5159  TIP3      OH2           -11.4074461622       18.2965504017       51.5737848650  TIP3      3799            0.0000000000
     62911      5159  TIP3      H1            -12.0851505227       17.6865118148       51.8613149507  TIP3      3799            0.0000000000
     62912      5159  TIP3      H2            -10.8315579892       17.7662056080       51.0104711838  TIP3      3799            0.0000000000
     62913      5160  TIP3      OH2            -6.2662860076       16.3356177426       51.6813534768  TIP3      3800            0.0000000000
     62914      5160  TIP3      H1             -5.7019086558       16.9308205484       51.1334448114  TIP3      3800            0.0000000000
     62915      5160  TIP3      H2             -7.1611848482       16.6639590481       51.4569787725  TIP3      3800            0.0000000000
     62916      5161  TIP3      OH2            -4.6138142793       17.5539351528       49.9304184299  TIP3      3801            0.0000000000
     62917      5161  TIP3      H1             -3.9403887317       16.9747575120       49.5367830504  TIP3      3801            0.0000000000
     62918      5161  TIP3      H2             -4.1320261663       18.4030863226       50.0684710569  TIP3      3801            0.0000000000
     62919      5162  TIP3      OH2            -8.9173480505       16.8731376839       50.8316935699  TIP3      3802            0.0000000000
     62920      5162  TIP3      H1             -8.8574900566       16.9421116852       49.8697983860  TIP3      3802            0.0000000000
     62921      5162  TIP3      H2             -9.2445059052       15.9449635132       50.9742892397  TIP3      3802            0.0000000000
     62922      5163  TIP3      OH2            -7.6089191248       16.9313898990       46.4653446583  TIP3      3803            0.0000000000
     62923      5163  TIP3      H1             -8.4059929937       17.4530364895       46.3626899639  TIP3      3803            0.0000000000
     62924      5163  TIP3      H2             -8.0285725803       16.0596560857       46.7161138652  TIP3      3803            0.0000000000
     62925      5164  TIP3      OH2           -11.4170048031       33.8724011600       44.5940548782  TIP3      3804            0.0000000000
     62926      5164  TIP3      H1            -10.6166660564       34.2492484224       44.1981057510  TIP3      3804            0.0000000000
     62927      5164  TIP3      H2            -11.7787740392       33.4870995982       43.7576862640  TIP3      3804            0.0000000000
     62928      5165  TIP3      OH2            -8.7539086661       16.1386664862       60.6688305925  TIP3      3805            0.0000000000
     62929      5165  TIP3      H1             -8.6749783094       15.6677991833       61.5185024276  TIP3      3805            0.0000000000
     62930      5165  TIP3      H2             -7.8462628858       16.0995652254       60.3222693135  TIP3      3805            0.0000000000
     62931      5166  TIP3      OH2             8.8662149601       26.0374065654       49.3165082577  TIP3      3806            0.0000000000
     62932      5166  TIP3      H1              8.8664796855       27.0091602862       49.2480429998  TIP3      3806            0.0000000000
     62933      5166  TIP3      H2              8.1580045922       25.7975526180       48.6957148772  TIP3      3806            0.0000000000
     62934      5167  TIP3      OH2             0.1175117229       24.9050031383       54.3204470568  TIP3      3807            0.0000000000
     62935      5167  TIP3      H1              0.1784367178       24.2871328789       55.0720524083  TIP3      3807            0.0000000000
     62936      5167  TIP3      H2              0.7884063373       25.5511703753       54.5688306734  TIP3      3807            0.0000000000
     62937      5168  TIP3      OH2             1.0773701814       29.4036040921       52.8410395437  TIP3      3808            0.0000000000
     62938      5168  TIP3      H1              0.7299049260       28.5400500675       52.5466700484  TIP3      3808            0.0000000000
     62939      5168  TIP3      H2              2.0232851156       29.2018606064       52.9130978582  TIP3      3808            0.0000000000
     62940      5169  TIP3      OH2            -2.3671648306       22.9440389265       48.3398417384  TIP3      3809            0.0000000000
     62941      5169  TIP3      H1             -2.7595922369       23.8448552320       48.2877436480  TIP3      3809            0.0000000000
     62942      5169  TIP3      H2             -2.9102370840       22.4534327592       47.7293644655  TIP3      3809            0.0000000000
     62943      5170  TIP3      OH2            -1.6503852466       25.1989794537       50.4386643816  TIP3      3810            0.0000000000
     62944      5170  TIP3      H1             -1.3722570219       24.4419139400       50.9857728439  TIP3      3810            0.0000000000
     62945      5170  TIP3      H2             -0.9075160267       25.2951894402       49.8386525972  TIP3      3810            0.0000000000
     62946      5171  TIP3      OH2            14.7456278705       19.3368302470       54.0109421380  TIP3      3811            0.0000000000
     62947      5171  TIP3      H1             14.8901424510       19.9572449700       54.7598648435  TIP3      3811            0.0000000000
     62948      5171  TIP3      H2             15.2851295741       19.7659449082       53.3322980009  TIP3      3811            0.0000000000
     62949      5172  TIP3      OH2             9.3010540052       22.1155139958       53.5885314539  TIP3      3812            0.0000000000
     62950      5172  TIP3      H1              9.4581799432       21.1603773343       53.5580091567  TIP3      3812            0.0000000000
     62951      5172  TIP3      H2              9.1810323909       22.3463807176       52.6433497312  TIP3      3812            0.0000000000
     62952      5173  TIP3      OH2             2.4595989631       20.2627605298       50.7668281612  TIP3      3813            0.0000000000
     62953      5173  TIP3      H1              2.4878862797       21.1265555898       50.3053474279  TIP3      3813            0.0000000000
     62954      5173  TIP3      H2              1.9839336586       19.7077742450       50.1195796604  TIP3      3813            0.0000000000
     62955      5174  TIP3      OH2            10.1758073875       20.3255396919       49.1445347286  TIP3      3814            0.0000000000
     62956      5174  TIP3      H1             10.8146373782       20.0353301557       49.8329348813  TIP3      3814            0.0000000000
     62957      5174  TIP3      H2             10.7099819864       20.9223377832       48.6250306266  TIP3      3814            0.0000000000
     62958      5175  TIP3      OH2            -0.9989975714       22.6709234224       51.5532293407  TIP3      3815            0.0000000000
     62959      5175  TIP3      H1             -0.3244116980       22.1163085770       52.0133325625  TIP3      3815            0.0000000000
     62960      5175  TIP3      H2             -0.8657331681       22.3844201794       50.6415908647  TIP3      3815            0.0000000000
     62961      5176  TIP3      OH2             4.1643462155       24.2146465591       50.8423099303  TIP3      3816            0.0000000000
     62962      5176  TIP3      H1              4.8694196132       23.6673080938       51.2379861188  TIP3      3816            0.0000000000
     62963      5176  TIP3      H2              3.6796647871       23.5379401268       50.3265497853  TIP3      3816            0.0000000000
     62964      5177  TIP3      OH2            15.1882088847       20.7771200094       56.2549435955  TIP3      3817            0.0000000000
     62965      5177  TIP3      H1             14.5405084078       21.5107382543       56.1515086845  TIP3      3817            0.0000000000
     62966      5177  TIP3      H2             15.2086032348       20.6806191009       57.2186515457  TIP3      3817            0.0000000000
     62967      5178  TIP3      OH2             8.4081091181       28.6515410597       48.3636307058  TIP3      3818            0.0000000000
     62968      5178  TIP3      H1              8.2479433552       28.3679016707       47.4637897237  TIP3      3818            0.0000000000
     62969      5178  TIP3      H2              8.1915453034       29.6028709319       48.3968641640  TIP3      3818            0.0000000000
     62970      5179  TIP3      OH2             3.8530585692       26.8132080634       55.0740275448  TIP3      3819            0.0000000000
     62971      5179  TIP3      H1              3.1197626155       27.4319097857       55.3071900012  TIP3      3819            0.0000000000
     62972      5179  TIP3      H2              4.5551202971       27.4208679958       54.8274054454  TIP3      3819            0.0000000000
     62973      5180  TIP3      OH2            11.9462170701       19.6915023986       51.1578636913  TIP3      3820            0.0000000000
     62974      5180  TIP3      H1             11.7478861021       18.9162890849       51.6971220647  TIP3      3820            0.0000000000
     62975      5180  TIP3      H2             12.6131189233       20.1350937477       51.7187067909  TIP3      3820            0.0000000000
     62976      5181  TIP3      OH2             0.8261717963       21.0851676710       52.7738527111  TIP3      3821            0.0000000000
     62977      5181  TIP3      H1              1.4912791574       21.6667341917       53.1886719789  TIP3      3821            0.0000000000
     62978      5181  TIP3      H2              1.3718749549       20.5703725086       52.1571294237  TIP3      3821            0.0000000000
     62979      5182  TIP3      OH2             2.2392302800       28.7615196864       55.8825579422  TIP3      3822            0.0000000000
     62980      5182  TIP3      H1              2.2305851107       29.6939944903       55.5936074121  TIP3      3822            0.0000000000
     62981      5182  TIP3      H2              1.4135152400       28.7114258144       56.3879416410  TIP3      3822            0.0000000000
     62982      5183  TIP3      OH2            -1.6896725767       28.4590204649       46.6934268152  TIP3      3823            0.0000000000
     62983      5183  TIP3      H1             -1.8840331225       28.7462752334       45.7851329624  TIP3      3823            0.0000000000
     62984      5183  TIP3      H2             -1.5954144201       29.2882528816       47.1780013947  TIP3      3823            0.0000000000
     62985      5184  TIP3      OH2            12.3023501927       18.3808331018       54.8722580884  TIP3      3824            0.0000000000
     62986      5184  TIP3      H1             11.5600769988       18.9881290359       54.7697296601  TIP3      3824            0.0000000000
     62987      5184  TIP3      H2             12.9917832302       18.7764520684       54.3085373691  TIP3      3824            0.0000000000
     62988      5185  TIP3      OH2             7.5469499836       25.2807651164       46.8352804581  TIP3      3825            0.0000000000
     62989      5185  TIP3      H1              6.8001512357       25.7805920108       46.4722609500  TIP3      3825            0.0000000000
     62990      5185  TIP3      H2              8.2211896175       25.3896007195       46.1557218953  TIP3      3825            0.0000000000
     62991      5186  TIP3      OH2             7.6065619966       23.7538889320       43.8959985289  TIP3      3826            0.0000000000
     62992      5186  TIP3      H1              8.3224140971       23.8083144886       44.5334182045  TIP3      3826            0.0000000000
     62993      5186  TIP3      H2              7.9119210724       23.1484355454       43.2221412536  TIP3      3826            0.0000000000
     62994      5187  TIP3      OH2            14.8757899841       24.6786942599       55.0733702314  TIP3      3827            0.0000000000
     62995      5187  TIP3      H1             14.3027883466       25.4425785684       55.1779683610  TIP3      3827            0.0000000000
     62996      5187  TIP3      H2             15.3804853061       24.9345928933       54.2868022979  TIP3      3827            0.0000000000
     62997      5188  TIP3      OH2            10.9217801662       25.3808271395       47.7041208069  TIP3      3828            0.0000000000
     62998      5188  TIP3      H1             10.2606946004       25.7392361438       48.3476817425  TIP3      3828            0.0000000000
     62999      5188  TIP3      H2             11.4815746578       24.8563396512       48.3014156315  TIP3      3828            0.0000000000
     63000      5189  TIP3      OH2            10.9276426555       23.6746140282       56.8291144402  TIP3      3829            0.0000000000
     63001      5189  TIP3      H1             10.9184647046       24.4451481619       57.4144976774  TIP3      3829            0.0000000000
     63002      5189  TIP3      H2             10.2652594738       23.9539074320       56.1565912904  TIP3      3829            0.0000000000
     63003      5190  TIP3      OH2             2.5861167365       26.1603226043       49.6654155711  TIP3      3830            0.0000000000
     63004      5190  TIP3      H1              2.2592194594       25.7531110109       48.8318895507  TIP3      3830            0.0000000000
     63005      5190  TIP3      H2              3.2051709775       25.4677735455       49.9934246657  TIP3      3830            0.0000000000
     63006      5191  TIP3      OH2             3.8930313219       29.5214470058       52.3740230647  TIP3      3831            0.0000000000
     63007      5191  TIP3      H1              3.8985085906       29.0314081208       51.5384566089  TIP3      3831            0.0000000000
     63008      5191  TIP3      H2              4.7032246018       29.2125608789       52.7871994661  TIP3      3831            0.0000000000
     63009      5192  TIP3      OH2             2.9312074472       24.9085653417       53.2931171587  TIP3      3832            0.0000000000
     63010      5192  TIP3      H1              3.4995989945       24.9981792423       52.5044832444  TIP3      3832            0.0000000000
     63011      5192  TIP3      H2              3.3200533442       25.5454874583       53.9254713339  TIP3      3832            0.0000000000
     63012      5193  TIP3      OH2             9.9837248144       24.5426849581       45.3714054288  TIP3      3833            0.0000000000
     63013      5193  TIP3      H1             10.3779985657       24.8844113934       46.2342658595  TIP3      3833            0.0000000000
     63014      5193  TIP3      H2             10.2284284712       25.2824406239       44.7767172254  TIP3      3833            0.0000000000
     63015      5194  TIP3      OH2             0.8252077367       25.4793556129       57.1860153457  TIP3      3834            0.0000000000
     63016      5194  TIP3      H1              0.8401193087       26.1250936771       57.9269526259  TIP3      3834            0.0000000000
     63017      5194  TIP3      H2             -0.1073660092       25.5958233892       56.9486015278  TIP3      3834            0.0000000000
     63018      5195  TIP3      OH2             7.4889045618       31.3332612436       48.9081565153  TIP3      3835            0.0000000000
     63019      5195  TIP3      H1              7.9636023181       31.7081342601       49.6507936341  TIP3      3835            0.0000000000
     63020      5195  TIP3      H2              6.9970869047       32.1119140039       48.5896507347  TIP3      3835            0.0000000000
     63021      5196  TIP3      OH2             2.1355161875       31.4198614990       58.7639631377  TIP3      3836            0.0000000000
     63022      5196  TIP3      H1              2.1197240382       31.2356213550       57.8112754695  TIP3      3836            0.0000000000
     63023      5196  TIP3      H2              1.2059625188       31.2658118622       59.0210497087  TIP3      3836            0.0000000000
     63024      5197  TIP3      OH2            13.3857551910       16.3858999309       45.2399752644  TIP3      3837            0.0000000000
     63025      5197  TIP3      H1             12.4551751615       16.4053612368       45.5934976321  TIP3      3837            0.0000000000
     63026      5197  TIP3      H2             13.3111728264       17.0676947742       44.5707785611  TIP3      3837            0.0000000000
     63027      5198  TIP3      OH2             1.5769915626       25.2107892899       47.2825837544  TIP3      3838            0.0000000000
     63028      5198  TIP3      H1              1.3116431169       25.9576243898       46.7165443402  TIP3      3838            0.0000000000
     63029      5198  TIP3      H2              0.9373317575       24.5330288314       47.0365407642  TIP3      3838            0.0000000000
     63030      5199  TIP3      OH2             6.9638349108       34.3800042171       47.3180861647  TIP3      3839            0.0000000000
     63031      5199  TIP3      H1              6.9863260864       34.2500679324       46.3692040081  TIP3      3839            0.0000000000
     63032      5199  TIP3      H2              7.1003866986       35.3323115027       47.4326649760  TIP3      3839            0.0000000000
     63033      5200  TIP3      OH2            12.8023728888       22.5169976181       59.0766128360  TIP3      3840            0.0000000000
     63034      5200  TIP3      H1             12.3220470750       22.9624028566       58.3630011872  TIP3      3840            0.0000000000
     63035      5200  TIP3      H2             12.8035857348       21.5924673590       58.7913506716  TIP3      3840            0.0000000000
     63036      5201  TIP3      OH2             7.2009270757       17.1443173571       56.4608389441  TIP3      3841            0.0000000000
     63037      5201  TIP3      H1              7.6291190774       16.6453268960       57.1666696600  TIP3      3841            0.0000000000
     63038      5201  TIP3      H2              6.2809109797       16.8875730459       56.5940846432  TIP3      3841            0.0000000000
     63039      5202  TIP3      OH2            10.5472565302       20.8623376152       57.3072206963  TIP3      3842            0.0000000000
     63040      5202  TIP3      H1             10.0023880913       20.6878475769       58.1095360530  TIP3      3842            0.0000000000
     63041      5202  TIP3      H2             10.3692075860       21.7851705772       57.0700925800  TIP3      3842            0.0000000000
     63042      5203  TIP3      OH2             2.7236190667       22.3619951296       54.2858647539  TIP3      3843            0.0000000000
     63043      5203  TIP3      H1              1.9877610181       22.3239931869       54.9252832727  TIP3      3843            0.0000000000
     63044      5203  TIP3      H2              2.6597660160       23.2791547288       53.9339743322  TIP3      3843            0.0000000000
     63045      5204  TIP3      OH2             2.6780122077       22.4703881405       49.1724407321  TIP3      3844            0.0000000000
     63046      5204  TIP3      H1              1.7367844905       22.2586411521       49.0226716429  TIP3      3844            0.0000000000
     63047      5204  TIP3      H2              3.0792916884       22.2045579984       48.3128300743  TIP3      3844            0.0000000000
     63048      5205  TIP3      OH2             8.2054886726       22.9154740234       47.9052333332  TIP3      3845            0.0000000000
     63049      5205  TIP3      H1              7.7935364005       23.7648946681       47.6249504408  TIP3      3845            0.0000000000
     63050      5205  TIP3      H2              8.9098350378       22.8406389133       47.2778214307  TIP3      3845            0.0000000000
     63051      5206  TIP3      OH2             7.2718214318       23.2035824558       59.3958628055  TIP3      3846            0.0000000000
     63052      5206  TIP3      H1              6.7247472272       22.4243587334       59.6629406612  TIP3      3846            0.0000000000
     63053      5206  TIP3      H2              8.0961531417       23.0202831946       59.8664922389  TIP3      3846            0.0000000000
     63054      5207  TIP3      OH2             9.2464683538       22.4273926956       50.7724547379  TIP3      3847            0.0000000000
     63055      5207  TIP3      H1              8.9587496231       23.0325055703       50.0624091874  TIP3      3847            0.0000000000
     63056      5207  TIP3      H2              9.3390568378       21.5974344688       50.2752261415  TIP3      3847            0.0000000000
     63057      5208  TIP3      OH2             0.3561190810       22.6237902306       56.0088854474  TIP3      3848            0.0000000000
     63058      5208  TIP3      H1              0.4139386720       23.0276367102       56.8883842198  TIP3      3848            0.0000000000
     63059      5208  TIP3      H2             -0.1026418687       21.7882937142       56.1585461813  TIP3      3848            0.0000000000
     63060      5209  TIP3      OH2             3.8533824935       20.1186099963       42.8800453004  TIP3      3849            0.0000000000
     63061      5209  TIP3      H1              3.4275680328       19.5970393347       43.5751758700  TIP3      3849            0.0000000000
     63062      5209  TIP3      H2              3.1108737704       20.4531665247       42.3650617048  TIP3      3849            0.0000000000
     63063      5210  TIP3      OH2            -3.0079268532       19.6987637677       49.9107584729  TIP3      3850            0.0000000000
     63064      5210  TIP3      H1             -2.3654014125       19.7630428449       50.6315871019  TIP3      3850            0.0000000000
     63065      5210  TIP3      H2             -2.4886502185       19.3485157699       49.1754475635  TIP3      3850            0.0000000000
     63066      5211  TIP3      OH2             8.4922345881       24.0511894583       55.3918838019  TIP3      3851            0.0000000000
     63067      5211  TIP3      H1              8.7922523350       23.3981001890       54.7249809046  TIP3      3851            0.0000000000
     63068      5211  TIP3      H2              7.9585776854       23.5158129665       56.0067150630  TIP3      3851            0.0000000000
     63069      5212  TIP3      OH2             5.2473448233       20.0174790899       50.1887062508  TIP3      3852            0.0000000000
     63070      5212  TIP3      H1              4.3101042706       20.0451238570       50.4691155221  TIP3      3852            0.0000000000
     63071      5212  TIP3      H2              5.7232045400       19.9113068072       51.0111135552  TIP3      3852            0.0000000000
     63072      5213  TIP3      OH2             0.0556470364       21.5981070458       49.0136379149  TIP3      3853            0.0000000000
     63073      5213  TIP3      H1             -0.8480133675       21.7459573133       48.6545837368  TIP3      3853            0.0000000000
     63074      5213  TIP3      H2              0.3505047013       20.7458947700       48.6613815856  TIP3      3853            0.0000000000
     63075      5214  TIP3      OH2             3.6692219106       21.6441495734       46.7061029630  TIP3      3854            0.0000000000
     63076      5214  TIP3      H1              4.6361652604       21.6900354532       46.8332636031  TIP3      3854            0.0000000000
     63077      5214  TIP3      H2              3.4630428162       22.2805042083       45.9970503045  TIP3      3854            0.0000000000
     63078      5215  TIP3      OH2             9.6608074721       19.2133860362       53.4069267112  TIP3      3855            0.0000000000
     63079      5215  TIP3      H1              8.9882462416       19.3547184505       54.1195328539  TIP3      3855            0.0000000000
     63080      5215  TIP3      H2              9.1505454706       19.0314361053       52.6221308295  TIP3      3855            0.0000000000
     63081      5216  TIP3      OH2             2.4376178986       22.8566777082       44.2724077244  TIP3      3856            0.0000000000
     63082      5216  TIP3      H1              1.8335166725       22.4845551977       43.6032445436  TIP3      3856            0.0000000000
     63083      5216  TIP3      H2              3.2477657180       23.0113049718       43.7731928819  TIP3      3856            0.0000000000
     63084      5217  TIP3      OH2             0.5709650700       27.3589338915       59.3310400041  TIP3      3857            0.0000000000
     63085      5217  TIP3      H1              1.2664928204       27.6636676262       59.9357359854  TIP3      3857            0.0000000000
     63086      5217  TIP3      H2             -0.2226341886       27.5454687888       59.8698918930  TIP3      3857            0.0000000000
     63087      5218  TIP3      OH2             6.4806115769       22.7476341948       52.0450918477  TIP3      3858            0.0000000000
     63088      5218  TIP3      H1              7.1261340455       22.2579744151       51.5294679045  TIP3      3858            0.0000000000
     63089      5218  TIP3      H2              6.3878822150       22.2588139539       52.8715990824  TIP3      3858            0.0000000000
     63090      5219  TIP3      OH2             1.5430322661       18.9006396393       48.5047638989  TIP3      3859            0.0000000000
     63091      5219  TIP3      H1              1.2361742426       17.9973941983       48.4368220401  TIP3      3859            0.0000000000
     63092      5219  TIP3      H2              2.3457719687       18.9086509300       47.9527135827  TIP3      3859            0.0000000000
     63093      5220  TIP3      OH2             5.1810758946       21.1441204095       54.4709327643  TIP3      3860            0.0000000000
     63094      5220  TIP3      H1              4.3368577698       21.6336920639       54.5890550748  TIP3      3860            0.0000000000
     63095      5220  TIP3      H2              5.7064394614       21.4593842468       55.2328955503  TIP3      3860            0.0000000000
     63096      5221  TIP3      OH2             9.6214216564       20.2985154856       44.2235424932  TIP3      3861            0.0000000000
     63097      5221  TIP3      H1              8.6416757822       20.2256808799       44.2364302892  TIP3      3861            0.0000000000
     63098      5221  TIP3      H2              9.7074708070       21.0222990714       44.8884650801  TIP3      3861            0.0000000000
     63099      5222  TIP3      OH2            10.5013770913       22.0179638473       45.7894459321  TIP3      3862            0.0000000000
     63100      5222  TIP3      H1             11.1741926051       22.0120729985       46.5145001184  TIP3      3862            0.0000000000
     63101      5222  TIP3      H2             10.3640631427       22.9842258283       45.6433696745  TIP3      3862            0.0000000000
     63102      5223  TIP3      OH2             0.8900001616       26.7548374935       51.9755922190  TIP3      3863            0.0000000000
     63103      5223  TIP3      H1              1.5671650258       26.6232352486       51.2874772774  TIP3      3863            0.0000000000
     63104      5223  TIP3      H2              0.8819508223       25.8837309124       52.4241942192  TIP3      3863            0.0000000000
     63105      5224  TIP3      OH2            -2.1342782043       25.0998447421       57.2572941733  TIP3      3864            0.0000000000
     63106      5224  TIP3      H1             -1.9617047886       24.6907797812       58.1179186176  TIP3      3864            0.0000000000
     63107      5224  TIP3      H2             -2.7750882629       24.5241823503       56.8163828095  TIP3      3864            0.0000000000
     63108      5225  TIP3      OH2             4.8403245964       24.6275225093       59.4558167717  TIP3      3865            0.0000000000
     63109      5225  TIP3      H1              4.5576461578       24.4315475840       58.5539446589  TIP3      3865            0.0000000000
     63110      5225  TIP3      H2              5.7863283520       24.3953970270       59.4184177473  TIP3      3865            0.0000000000
     63111      5226  TIP3      OH2            15.0941281210       22.1930275540       45.7886878190  TIP3      3866            0.0000000000
     63112      5226  TIP3      H1             14.7477638335       21.9256113882       44.9486345337  TIP3      3866            0.0000000000
     63113      5226  TIP3      H2             15.3733668943       23.1195569773       45.5356342256  TIP3      3866            0.0000000000
     63114      5227  TIP3      OH2            15.1730466666       27.9743954714       58.5347956675  TIP3      3867            0.0000000000
     63115      5227  TIP3      H1             14.3709501018       28.3803020428       58.1866909290  TIP3      3867            0.0000000000
     63116      5227  TIP3      H2             15.7874349981       28.0719210887       57.7841070572  TIP3      3867            0.0000000000
     63117      5228  TIP3      OH2             3.2224903477       30.1766870026       49.3901753834  TIP3      3868            0.0000000000
     63118      5228  TIP3      H1              3.7268397724       30.9761467656       49.1485589893  TIP3      3868            0.0000000000
     63119      5228  TIP3      H2              2.3481379657       30.4181238356       49.0607860462  TIP3      3868            0.0000000000
     63120      5229  TIP3      OH2            -1.0286819615       25.0609543358       43.9001964381  TIP3      3869            0.0000000000
     63121      5229  TIP3      H1             -0.3945299461       25.6642181293       44.3199737115  TIP3      3869            0.0000000000
     63122      5229  TIP3      H2             -1.8918773850       25.3017517371       44.2566827584  TIP3      3869            0.0000000000
     63123      5230  TIP3      OH2             4.7034596447       27.8614723244       48.9561543311  TIP3      3870            0.0000000000
     63124      5230  TIP3      H1              4.3540327009       28.7666583930       48.9747125898  TIP3      3870            0.0000000000
     63125      5230  TIP3      H2              3.9347285205       27.3669275149       49.2946261378  TIP3      3870            0.0000000000
     63126      5231  TIP3      OH2             5.1522625505       32.0221718358       55.2689119726  TIP3      3871            0.0000000000
     63127      5231  TIP3      H1              5.5760094445       32.8588065854       55.0267678774  TIP3      3871            0.0000000000
     63128      5231  TIP3      H2              5.7268091153       31.7083338796       55.9787512319  TIP3      3871            0.0000000000
     63129      5232  TIP3      OH2             3.3296029209       32.8218578406       48.4809868461  TIP3      3872            0.0000000000
     63130      5232  TIP3      H1              2.3813125654       32.9749261546       48.5630351454  TIP3      3872            0.0000000000
     63131      5232  TIP3      H2              3.6864826631       33.6734366608       48.7886013550  TIP3      3872            0.0000000000
     63132      5233  TIP3      OH2             0.3597524654       26.9657126811       45.4195137014  TIP3      3873            0.0000000000
     63133      5233  TIP3      H1             -0.2871533769       27.3888962949       46.0104927001  TIP3      3873            0.0000000000
     63134      5233  TIP3      H2              0.9397256695       27.7035309824       45.1674420738  TIP3      3873            0.0000000000
     63135      5234  TIP3      OH2             8.2658349744       19.6007337099       55.6912639036  TIP3      3874            0.0000000000
     63136      5234  TIP3      H1              8.9320580117       19.7104940843       56.3870367588  TIP3      3874            0.0000000000
     63137      5234  TIP3      H2              7.8349817425       18.7564987747       55.9488712241  TIP3      3874            0.0000000000
     63138      5235  TIP3      OH2             9.1597377302       19.1575262701       46.7964680845  TIP3      3875            0.0000000000
     63139      5235  TIP3      H1              9.1471407621       19.7536247564       46.0642138272  TIP3      3875            0.0000000000
     63140      5235  TIP3      H2              9.5078975303       19.6818303959       47.5318149063  TIP3      3875            0.0000000000
     63141      5236  TIP3      OH2             6.1861603882       21.0070081891       47.6317719769  TIP3      3876            0.0000000000
     63142      5236  TIP3      H1              7.0059289784       21.5250672225       47.6890410235  TIP3      3876            0.0000000000
     63143      5236  TIP3      H2              5.9590591634       20.8007939843       48.5573760390  TIP3      3876            0.0000000000
     63144      5237  TIP3      OH2             6.7934339819       21.9983886395       56.8219084780  TIP3      3877            0.0000000000
     63145      5237  TIP3      H1              6.8332612891       22.5254322864       57.6449956817  TIP3      3877            0.0000000000
     63146      5237  TIP3      H2              7.4105462676       21.2701133281       56.9563436489  TIP3      3877            0.0000000000
     63147      5238  TIP3      OH2             3.9853044068       32.4196467802       45.6799071959  TIP3      3878            0.0000000000
     63148      5238  TIP3      H1              4.1844330863       33.2182278178       45.1640901205  TIP3      3878            0.0000000000
     63149      5238  TIP3      H2              3.8064251670       32.7631367223       46.5651549962  TIP3      3878            0.0000000000
     63150      5239  TIP3      OH2            12.9517569313       19.8731740005       57.6950372605  TIP3      3879            0.0000000000
     63151      5239  TIP3      H1             12.0147864857       20.1646474763       57.5689163956  TIP3      3879            0.0000000000
     63152      5239  TIP3      H2             13.2359516728       19.8512706448       56.7676859783  TIP3      3879            0.0000000000
     63153      5240  TIP3      OH2            11.5900267855       23.6259509044       51.6539514858  TIP3      3880            0.0000000000
     63154      5240  TIP3      H1             10.7241791261       23.2355235677       51.4473434758  TIP3      3880            0.0000000000
     63155      5240  TIP3      H2             12.0134215560       22.9600206394       52.2392279123  TIP3      3880            0.0000000000
     63156      5241  TIP3      OH2             2.9835771434       32.5175674420       61.2214363465  TIP3      3881            0.0000000000
     63157      5241  TIP3      H1              3.7344452267       32.0373088888       61.5581770587  TIP3      3881            0.0000000000
     63158      5241  TIP3      H2              2.9074705753       32.2233145741       60.2922838020  TIP3      3881            0.0000000000
     63159      5242  TIP3      OH2            -1.8445114341       27.3268204849       60.6388532402  TIP3      3882            0.0000000000
     63160      5242  TIP3      H1             -1.6071144716       26.4518014509       60.2749874293  TIP3      3882            0.0000000000
     63161      5242  TIP3      H2             -2.5233415780       27.6396308043       60.0418810590  TIP3      3882            0.0000000000
     63162      5243  TIP3      OH2            -0.9012151116       24.6023650079       59.9909945845  TIP3      3883            0.0000000000
     63163      5243  TIP3      H1             -0.4753190415       23.7530050483       59.8914346836  TIP3      3883            0.0000000000
     63164      5243  TIP3      H2             -1.1285463342       24.5958402952       60.9431316234  TIP3      3883            0.0000000000
     63165      5244  TIP3      OH2             3.7579652268       25.7194427912       45.0205127426  TIP3      3884            0.0000000000
     63166      5244  TIP3      H1              3.2592979541       25.2133900178       45.6708441950  TIP3      3884            0.0000000000
     63167      5244  TIP3      H2              4.0164871689       25.0091060563       44.4061126730  TIP3      3884            0.0000000000
     63168      5245  TIP3      OH2             3.0284540718       23.5896445506       57.3626015293  TIP3      3885            0.0000000000
     63169      5245  TIP3      H1              2.4055992246       24.2895755266       57.5987533030  TIP3      3885            0.0000000000
     63170      5245  TIP3      H2              3.3941771350       23.9218304972       56.5304712915  TIP3      3885            0.0000000000
     63171      5246  TIP3      OH2             4.8326001969       23.8852517555       43.2543359835  TIP3      3886            0.0000000000
     63172      5246  TIP3      H1              4.6646788020       23.7958449697       42.3098286193  TIP3      3886            0.0000000000
     63173      5246  TIP3      H2              5.7934276086       24.0498134024       43.3417530925  TIP3      3886            0.0000000000
     63174      5247  TIP3      OH2             8.0875729161       26.0744468517       60.7220572835  TIP3      3887            0.0000000000
     63175      5247  TIP3      H1              9.0389806514       26.1319389009       60.6288387970  TIP3      3887            0.0000000000
     63176      5247  TIP3      H2              7.9106489507       25.3216911051       61.2950897205  TIP3      3887            0.0000000000
     63177      5248  TIP3      OH2             3.8188324977       19.2609711754       55.9284093466  TIP3      3888            0.0000000000
     63178      5248  TIP3      H1              4.3457992999       19.7834817070       55.2929654364  TIP3      3888            0.0000000000
     63179      5248  TIP3      H2              2.9594793465       19.2133892797       55.5109269959  TIP3      3888            0.0000000000
     63180      5249  TIP3      OH2             5.3801981765       24.8224293018       56.2281484764  TIP3      3889            0.0000000000
     63181      5249  TIP3      H1              6.0999405192       24.6134717438       55.6178901822  TIP3      3889            0.0000000000
     63182      5249  TIP3      H2              5.0091535641       25.6351884943       55.8595871707  TIP3      3889            0.0000000000
     63183      5250  TIP3      OH2             9.7439300352       22.5291929335       61.1665218585  TIP3      3890            0.0000000000
     63184      5250  TIP3      H1              9.9888561833       21.5928053884       61.1067077995  TIP3      3890            0.0000000000
     63185      5250  TIP3      H2             10.6126107539       22.9686922541       61.1850918685  TIP3      3890            0.0000000000
     63186      5251  TIP3      OH2            11.0883333735       25.3578356723       59.2703124903  TIP3      3891            0.0000000000
     63187      5251  TIP3      H1             10.8308047142       26.1045262728       58.7239650025  TIP3      3891            0.0000000000
     63188      5251  TIP3      H2             12.0589991481       25.3291949009       59.1139834576  TIP3      3891            0.0000000000
     63189      5252  TIP3      OH2             5.8712589375       21.0458489542       59.9544965581  TIP3      3892            0.0000000000
     63190      5252  TIP3      H1              5.5483434417       20.8609675923       60.8540860453  TIP3      3892            0.0000000000
     63191      5252  TIP3      H2              5.0814942587       20.8699860535       59.4247870551  TIP3      3892            0.0000000000
     63192      5253  TIP3      OH2             8.5816838582       20.2199277429       59.0636244653  TIP3      3893            0.0000000000
     63193      5253  TIP3      H1              7.6151206547       20.2566953911       59.1766852760  TIP3      3893            0.0000000000
     63194      5253  TIP3      H2              8.8727004424       19.5708031645       59.7317654296  TIP3      3893            0.0000000000
     63195      5254  TIP3      OH2            10.1480473288       18.8786990620       60.9597213761  TIP3      3894            0.0000000000
     63196      5254  TIP3      H1             10.1545680958       17.8934428510       60.9843590152  TIP3      3894            0.0000000000
     63197      5254  TIP3      H2              9.9219616963       19.1287810045       61.8837035071  TIP3      3894            0.0000000000
     63198      5255  TIP3      OH2             4.7534407673       34.6116622364       44.1840011496  TIP3      3895            0.0000000000
     63199      5255  TIP3      H1              5.6439257892       34.8440660889       44.4533896075  TIP3      3895            0.0000000000
     63200      5255  TIP3      H2              4.4374791516       35.3358358256       43.6536187869  TIP3      3895            0.0000000000
     63201      5256  TIP3      OH2            15.3439938140       33.5312361029       53.5564888437  TIP3      3896            0.0000000000
     63202      5256  TIP3      H1             15.3126661407       33.7152381283       54.4989786529  TIP3      3896            0.0000000000
     63203      5256  TIP3      H2             16.0170345934       34.1594384488       53.2742380744  TIP3      3896            0.0000000000
     63204      5257  TIP3      OH2            14.6766198773       27.1855484535       46.6450279346  TIP3      3897            0.0000000000
     63205      5257  TIP3      H1             15.5490849706       27.5851964559       46.8271917184  TIP3      3897            0.0000000000
     63206      5257  TIP3      H2             14.6658034715       26.4654396273       47.3072487044  TIP3      3897            0.0000000000
     63207      5258  TIP3      OH2            15.0265003730       25.2871383381       48.4881512588  TIP3      3898            0.0000000000
     63208      5258  TIP3      H1             14.2941496841       24.7550879264       48.8682649916  TIP3      3898            0.0000000000
     63209      5258  TIP3      H2             15.6026149001       25.4124046966       49.2429454105  TIP3      3898            0.0000000000
     63210      5259  TIP3      OH2            14.8137002052       27.9884495102       53.5105795000  TIP3      3899            0.0000000000
     63211      5259  TIP3      H1             15.6313675074       27.6344555530       53.1389742487  TIP3      3899            0.0000000000
     63212      5259  TIP3      H2             14.9193982877       28.9454981381       53.3230415543  TIP3      3899            0.0000000000
     63213      5260  TIP3      OH2            15.2911252010       25.0306159538       44.9088142399  TIP3      3900            0.0000000000
     63214      5260  TIP3      H1             14.8252495306       25.4616423163       44.1911366428  TIP3      3900            0.0000000000
     63215      5260  TIP3      H2             15.2929587666       25.7528283957       45.5672265578  TIP3      3900            0.0000000000
     63216      5261  TIP3      OH2            12.8735101344       23.7410133946       49.0792654449  TIP3      3901            0.0000000000
     63217      5261  TIP3      H1             12.7188036017       22.7904124439       49.0925006728  TIP3      3901            0.0000000000
     63218      5261  TIP3      H2             12.5122100704       23.9865599226       49.9493083231  TIP3      3901            0.0000000000
     63219      5262  TIP3      OH2            13.6815002287       25.7395701918       58.7647723864  TIP3      3902            0.0000000000
     63220      5262  TIP3      H1             14.3071804395       24.9975597994       58.9039430424  TIP3      3902            0.0000000000
     63221      5262  TIP3      H2             14.3190041798       26.4884649761       58.7404305611  TIP3      3902            0.0000000000
     63222      5263  TIP3      OH2            15.2315397521       23.6355279261       59.4060869474  TIP3      3903            0.0000000000
     63223      5263  TIP3      H1             14.3645101875       23.1955579091       59.2758704805  TIP3      3903            0.0000000000
     63224      5263  TIP3      H2             15.8050517493       22.8476104912       59.3449569360  TIP3      3903            0.0000000000
     63225      5264  TIP3      OH2            12.7986776326       19.7859153430       42.7552099955  TIP3      3904            0.0000000000
     63226      5264  TIP3      H1             13.6176883815       19.3126189543       43.0269185111  TIP3      3904            0.0000000000
     63227      5264  TIP3      H2             12.1435414665       19.0881404996       42.5728912291  TIP3      3904            0.0000000000
     63228      5265  TIP3      OH2            12.5268182359       21.2910331172       47.3669998000  TIP3      3905            0.0000000000
     63229      5265  TIP3      H1             12.8457082354       20.4563060801       47.7455107507  TIP3      3905            0.0000000000
     63230      5265  TIP3      H2             13.3490830057       21.7960486694       47.2326013569  TIP3      3905            0.0000000000
     63231      5266  TIP3      OH2            13.1581249123       21.8865596291       52.9735808655  TIP3      3906            0.0000000000
     63232      5266  TIP3      H1             14.1151828373       22.1109217441       52.9599641364  TIP3      3906            0.0000000000
     63233      5266  TIP3      H2             12.9659022611       22.0049836591       53.9144601874  TIP3      3906            0.0000000000
     63234      5267  TIP3      OH2            13.2089920117       22.6119031915       55.7760865967  TIP3      3907            0.0000000000
     63235      5267  TIP3      H1             12.3208155660       22.8874426015       56.0808059201  TIP3      3907            0.0000000000
     63236      5267  TIP3      H2             13.6540206068       23.4618702942       55.5389775041  TIP3      3907            0.0000000000
     63237      5268  TIP3      OH2            15.5062692804       16.6372721532       61.0902601200  TIP3      3908            0.0000000000
     63238      5268  TIP3      H1             15.8817979379       15.9780762747       60.4928088538  TIP3      3908            0.0000000000
     63239      5268  TIP3      H2             15.6138780051       17.4682202015       60.5937644217  TIP3      3908            0.0000000000
     63240      5269  TIP3      OH2            13.3138759099       18.4475942371       47.4145743906  TIP3      3909            0.0000000000
     63241      5269  TIP3      H1             13.3574489381       18.2249684026       48.3994634910  TIP3      3909            0.0000000000
     63242      5269  TIP3      H2             12.4828172807       17.9441927690       47.2055949244  TIP3      3909            0.0000000000
     63243      5270  TIP3      OH2            -3.0689883153       22.4395592903       53.1519179030  TIP3      3910            0.0000000000
     63244      5270  TIP3      H1             -2.4745911181       22.1867444508       52.4176492211  TIP3      3910            0.0000000000
     63245      5270  TIP3      H2             -2.5652806653       23.2081928648       53.4499771483  TIP3      3910            0.0000000000
     63246      5271  TIP3      OH2            15.0194212250       18.7438475587       59.4531993300  TIP3      3911            0.0000000000
     63247      5271  TIP3      H1             14.0765598184       19.0194764075       59.4296820599  TIP3      3911            0.0000000000
     63248      5271  TIP3      H2             15.0523787079       18.2031979040       58.6531471871  TIP3      3911            0.0000000000
     63249      5272  TIP3      OH2            15.0515312516       18.8238420080       43.9276407451  TIP3      3912            0.0000000000
     63250      5272  TIP3      H1             15.4735906360       18.1183066217       43.3611101368  TIP3      3912            0.0000000000
     63251      5272  TIP3      H2             15.7862012572       19.4730822085       43.9687314063  TIP3      3912            0.0000000000
     63252      5273  TIP3      OH2            -2.6300346275       18.7075304901       47.2749608372  TIP3      3913            0.0000000000
     63253      5273  TIP3      H1             -3.5761868317       18.8250338296       47.1816246479  TIP3      3913            0.0000000000
     63254      5273  TIP3      H2             -2.2255002834       19.1195390359       46.5099906717  TIP3      3913            0.0000000000
     63255      5274  TIP3      OH2            -0.5213256348       30.5833531003       59.6824743364  TIP3      3914            0.0000000000
     63256      5274  TIP3      H1             -1.3632382430       30.7719673183       59.2733337248  TIP3      3914            0.0000000000
     63257      5274  TIP3      H2             -0.7423549567       30.5038100683       60.6207480200  TIP3      3914            0.0000000000
     63258      5275  TIP3      OH2             2.3904109908       31.5456211489       55.9076317192  TIP3      3915            0.0000000000
     63259      5275  TIP3      H1              2.0859930847       32.4337149314       55.7028610308  TIP3      3915            0.0000000000
     63260      5275  TIP3      H2              3.3420629226       31.6357251679       55.7062790590  TIP3      3915            0.0000000000
     63261      5276  TIP3      OH2            14.0126150960       16.8087984506       57.2991973181  TIP3      3916            0.0000000000
     63262      5276  TIP3      H1             13.2093728734       17.1837030792       56.8875446697  TIP3      3916            0.0000000000
     63263      5276  TIP3      H2             14.1959598511       16.0376909838       56.7387646987  TIP3      3916            0.0000000000
     63264      5277  TIP3      OH2             2.2883070935       34.3455899903       55.0619537567  TIP3      3917            0.0000000000
     63265      5277  TIP3      H1              1.4293084717       34.5201224085       55.4578174900  TIP3      3917            0.0000000000
     63266      5277  TIP3      H2              2.2636432994       34.9406065790       54.2840864515  TIP3      3917            0.0000000000
     63267      5278  TIP3      OH2             7.0207364143       34.2949984417       54.2108776266  TIP3      3918            0.0000000000
     63268      5278  TIP3      H1              6.5341996707       34.8615747219       53.5882342560  TIP3      3918            0.0000000000
     63269      5278  TIP3      H2              7.1870482593       34.9082000629       54.9633638460  TIP3      3918            0.0000000000
     63270      5279  TIP3      OH2             1.3867484382       32.1393038004       51.5489344696  TIP3      3919            0.0000000000
     63271      5279  TIP3      H1              1.1865601677       31.2215633184       51.7894653000  TIP3      3919            0.0000000000
     63272      5279  TIP3      H2              2.2154548517       32.2975292143       52.0301407229  TIP3      3919            0.0000000000
     63273      5280  TIP3      OH2             3.9943758106       32.6358194632       52.4631026614  TIP3      3920            0.0000000000
     63274      5280  TIP3      H1              4.1174073315       31.7039901450       52.1973652793  TIP3      3920            0.0000000000
     63275      5280  TIP3      H2              4.0033242242       32.5826777733       53.4295642078  TIP3      3920            0.0000000000
     63276      5281  TIP3      OH2            12.5558745691       16.3810890064       51.6998045606  TIP3      3921            0.0000000000
     63277      5281  TIP3      H1             13.1856622377       16.9006774593       51.1579690655  TIP3      3921            0.0000000000
     63278      5281  TIP3      H2             11.6969833517       16.6831213636       51.4109023896  TIP3      3921            0.0000000000
     63279      5282  TIP3      OH2            14.2112867252       17.6059447928       49.8441306331  TIP3      3922            0.0000000000
     63280      5282  TIP3      H1             14.9192358910       16.9792491140       49.5566671954  TIP3      3922            0.0000000000
     63281      5282  TIP3      H2             14.7328312152       18.3967479996       50.1215192280  TIP3      3922            0.0000000000
     63282      5283  TIP3      OH2            11.2575948772       16.9496450832       46.4655999869  TIP3      3923            0.0000000000
     63283      5283  TIP3      H1             10.4478993833       17.4811373319       46.4115877604  TIP3      3923            0.0000000000
     63284      5283  TIP3      H2             10.8385803452       16.0905288081       46.7231596362  TIP3      3923            0.0000000000
     63285      5284  TIP3      OH2            -1.6399722919       32.6378739431       46.2923454167  TIP3      3924            0.0000000000
     63286      5284  TIP3      H1             -2.1883003333       32.6004025936       45.5040680990  TIP3      3924            0.0000000000
     63287      5284  TIP3      H2             -1.4919604534       33.5787543994       46.4075738418  TIP3      3924            0.0000000000
     63288      5285  TIP3      OH2            -0.3209541014       17.4162495679       58.9450400326  TIP3      3925            0.0000000000
     63289      5285  TIP3      H1             -0.6830863011       16.6099335976       59.3494875255  TIP3      3925            0.0000000000
     63290      5285  TIP3      H2              0.5871448534       17.4604897341       59.2448879006  TIP3      3925            0.0000000000
     63291      5286  TIP3      OH2            10.1128204623       16.1875227589       60.6869852449  TIP3      3926            0.0000000000
     63292      5286  TIP3      H1             10.1750246736       15.6059366131       61.4634549850  TIP3      3926            0.0000000000
     63293      5286  TIP3      H2             11.0038344945       16.0742102538       60.3035780015  TIP3      3926            0.0000000000
     63294      5287  TIP3      OH2            26.6461524543       25.2775612067       52.8064343406  TIP3      3927            0.0000000000
     63295      5287  TIP3      H1             26.5549413616       24.6332670002       53.5049921707  TIP3      3927            0.0000000000
     63296      5287  TIP3      H2             26.2858065139       24.8478953465       52.0220231552  TIP3      3927            0.0000000000
     63297      5288  TIP3      OH2            19.9014676349       29.4274529832       52.9097595493  TIP3      3928            0.0000000000
     63298      5288  TIP3      H1             19.5670828999       28.5947653585       52.5796124043  TIP3      3928            0.0000000000
     63299      5288  TIP3      H2             20.8601600523       29.2561004327       52.9517586497  TIP3      3928            0.0000000000
     63300      5289  TIP3      OH2            16.5013938578       22.9914473438       48.3398388442  TIP3      3929            0.0000000000
     63301      5289  TIP3      H1             16.0790269498       23.8691698162       48.2686301392  TIP3      3929            0.0000000000
     63302      5289  TIP3      H2             15.9413837666       22.4829095993       47.7501234394  TIP3      3929            0.0000000000
     63303      5290  TIP3      OH2            27.4400369838       33.3198415701       51.2706720697  TIP3      3930            0.0000000000
     63304      5290  TIP3      H1             28.0886052344       32.6497881139       51.0723764232  TIP3      3930            0.0000000000
     63305      5290  TIP3      H2             27.2075190198       33.1419085078       52.1998627183  TIP3      3930            0.0000000000
     63306      5291  TIP3      OH2            17.9019097170       22.6572533946       51.5719293330  TIP3      3931            0.0000000000
     63307      5291  TIP3      H1             18.5787434506       22.0985097202       51.9722191066  TIP3      3931            0.0000000000
     63308      5291  TIP3      H2             17.9767522696       22.3777392071       50.6353590109  TIP3      3931            0.0000000000
     63309      5292  TIP3      OH2            34.2311909768       20.9684873206       56.3193900298  TIP3      3932            0.0000000000
     63310      5292  TIP3      H1             33.4667378774       21.5255259579       56.1254883017  TIP3      3932            0.0000000000
     63311      5292  TIP3      H2             34.0764229796       20.6507817403       57.2049700615  TIP3      3932            0.0000000000
     63312      5293  TIP3      OH2            20.1388057593       19.1415747525       54.8898516755  TIP3      3933            0.0000000000
     63313      5293  TIP3      H1             19.9188846205       19.6500056977       54.1026400310  TIP3      3933            0.0000000000
     63314      5293  TIP3      H2             19.4521499632       19.3934615017       55.5324302106  TIP3      3933            0.0000000000
     63315      5294  TIP3      OH2            17.1125210370       28.4380157543       46.6771998094  TIP3      3934            0.0000000000
     63316      5294  TIP3      H1             16.9822373818       28.7373968817       45.7791504958  TIP3      3934            0.0000000000
     63317      5294  TIP3      H2             17.3033268909       29.2559241588       47.1784021837  TIP3      3934            0.0000000000
     63318      5295  TIP3      OH2            26.4482658780       25.3346430757       46.8104616206  TIP3      3935            0.0000000000
     63319      5295  TIP3      H1             25.7212741149       25.8529959724       46.4541431951  TIP3      3935            0.0000000000
     63320      5295  TIP3      H2             27.1223105562       25.3925532573       46.1185603538  TIP3      3935            0.0000000000
     63321      5296  TIP3      OH2            33.8054109251       24.6726658629       55.1166626656  TIP3      3936            0.0000000000
     63322      5296  TIP3      H1             33.1693405658       25.3867969089       55.1678380709  TIP3      3936            0.0000000000
     63323      5296  TIP3      H2             34.2579396124       24.9444280251       54.3023085433  TIP3      3936            0.0000000000
     63324      5297  TIP3      OH2            29.8268484440       25.4838465338       47.7223898687  TIP3      3937            0.0000000000
     63325      5297  TIP3      H1             29.1039447408       25.7090907793       48.3112412533  TIP3      3937            0.0000000000
     63326      5297  TIP3      H2             30.3255829369       24.8314960830       48.2224714504  TIP3      3937            0.0000000000
     63327      5298  TIP3      OH2            22.7621045380       29.5262554067       52.3763767302  TIP3      3938            0.0000000000
     63328      5298  TIP3      H1             22.7736290911       29.0142021005       51.5508818912  TIP3      3938            0.0000000000
     63329      5298  TIP3      H2             23.5875923056       29.2329761246       52.8047661719  TIP3      3938            0.0000000000
     63330      5299  TIP3      OH2            26.4731325523       31.4325930440       48.8735853348  TIP3      3939            0.0000000000
     63331      5299  TIP3      H1             26.8321548883       31.7349238275       49.7038062433  TIP3      3939            0.0000000000
     63332      5299  TIP3      H2             25.8494793087       32.1336230546       48.6681070274  TIP3      3939            0.0000000000
     63333      5300  TIP3      OH2            20.9465864226       31.3820280036       58.7715234761  TIP3      3940            0.0000000000
     63334      5300  TIP3      H1             20.9447091320       31.2312359812       57.8079540360  TIP3      3940            0.0000000000
     63335      5300  TIP3      H2             20.0109643523       31.2176259182       59.0138623580  TIP3      3940            0.0000000000
     63336      5301  TIP3      OH2            16.4828476643       27.6247929822       56.1028701907  TIP3      3941            0.0000000000
     63337      5301  TIP3      H1             16.0549763801       27.5106711762       55.2507553865  TIP3      3941            0.0000000000
     63338      5301  TIP3      H2             16.6138968495       26.6956475074       56.3905339495  TIP3      3941            0.0000000000
     63339      5302  TIP3      OH2            16.2895840644       30.3139997906       52.9793997764  TIP3      3942            0.0000000000
     63340      5302  TIP3      H1             17.2465698677       30.2322442534       52.9241036225  TIP3      3942            0.0000000000
     63341      5302  TIP3      H2             16.1812942440       31.1649627964       53.4403518541  TIP3      3942            0.0000000000
     63342      5303  TIP3      OH2            19.5451810480       33.2256508364       49.1393480312  TIP3      3943            0.0000000000
     63343      5303  TIP3      H1             19.6818683381       32.7885820557       50.0019503662  TIP3      3943            0.0000000000
     63344      5303  TIP3      H2             18.7102054384       32.8214395236       48.8791207558  TIP3      3943            0.0000000000
     63345      5304  TIP3      OH2            26.1103307939       16.9742500341       56.4078249218  TIP3      3944            0.0000000000
     63346      5304  TIP3      H1             26.4924000166       16.7134362877       57.2488670366  TIP3      3944            0.0000000000
     63347      5304  TIP3      H2             25.1426573547       16.9515338653       56.5876251713  TIP3      3944            0.0000000000
     63348      5305  TIP3      OH2            27.0540190000       22.9471156507       47.9263602180  TIP3      3945            0.0000000000
     63349      5305  TIP3      H1             26.6527943379       23.8015009750       47.6579849319  TIP3      3945            0.0000000000
     63350      5305  TIP3      H2             27.7439495336       22.8444959786       47.2755953511  TIP3      3945            0.0000000000
     63351      5306  TIP3      OH2            19.1865116831       22.6393196459       56.0084142169  TIP3      3946            0.0000000000
     63352      5306  TIP3      H1             19.2268619242       23.0534571253       56.8817400175  TIP3      3946            0.0000000000
     63353      5306  TIP3      H2             18.7963326277       21.7764023474       56.1960679589  TIP3      3946            0.0000000000
     63354      5307  TIP3      OH2            15.8471583605       19.7179615335       49.9170018668  TIP3      3947            0.0000000000
     63355      5307  TIP3      H1             16.4756887180       19.7082963972       50.6829785391  TIP3      3947            0.0000000000
     63356      5307  TIP3      H2             16.3896985907       19.3491093059       49.2210302539  TIP3      3947            0.0000000000
     63357      5308  TIP3      OH2            18.8684667124       21.5671106762       49.1034650536  TIP3      3948            0.0000000000
     63358      5308  TIP3      H1             18.0358022432       21.7465129473       48.6257230860  TIP3      3948            0.0000000000
     63359      5308  TIP3      H2             19.2166227905       20.7573795146       48.6903129552  TIP3      3948            0.0000000000
     63360      5309  TIP3      OH2            22.5693894511       21.5799419845       46.6541230997  TIP3      3949            0.0000000000
     63361      5309  TIP3      H1             23.4915800095       21.7396673857       46.8634316325  TIP3      3949            0.0000000000
     63362      5309  TIP3      H2             22.3664424647       22.2844113333       46.0422405475  TIP3      3949            0.0000000000
     63363      5310  TIP3      OH2            20.3762201403       18.9384683015       48.4151322063  TIP3      3950            0.0000000000
     63364      5310  TIP3      H1             20.1524600866       18.0050491295       48.5481097731  TIP3      3950            0.0000000000
     63365      5310  TIP3      H2             21.2199806527       18.8899352525       47.9592469538  TIP3      3950            0.0000000000
     63366      5311  TIP3      OH2            16.7303443447       25.1187064282       57.2539961829  TIP3      3951            0.0000000000
     63367      5311  TIP3      H1             16.9199535824       24.6839933411       58.0967903451  TIP3      3951            0.0000000000
     63368      5311  TIP3      H2             16.1071936763       24.5160740031       56.8254763987  TIP3      3951            0.0000000000
     63369      5312  TIP3      OH2            22.0741502833       30.1909607608       49.4220317294  TIP3      3952            0.0000000000
     63370      5312  TIP3      H1             22.5993730089       30.9553871467       49.1447186801  TIP3      3952            0.0000000000
     63371      5312  TIP3      H2             21.2128905556       30.3949842854       49.0336150950  TIP3      3952            0.0000000000
     63372      5313  TIP3      OH2            23.9350205961       32.0886456963       55.2982193372  TIP3      3953            0.0000000000
     63373      5313  TIP3      H1             24.4509803511       32.8378769994       54.9744515677  TIP3      3953            0.0000000000
     63374      5313  TIP3      H2             24.5587006154       31.6966084560       55.9253225677  TIP3      3953            0.0000000000
     63375      5314  TIP3      OH2            22.1864873480       32.8682471571       48.4331575975  TIP3      3954            0.0000000000
     63376      5314  TIP3      H1             21.2202555589       32.9960195445       48.5644692132  TIP3      3954            0.0000000000
     63377      5314  TIP3      H2             22.5424912627       33.6733291119       48.8253644379  TIP3      3954            0.0000000000
     63378      5315  TIP3      OH2            33.9953800603       33.4943000667       44.5938179462  TIP3      3955            0.0000000000
     63379      5315  TIP3      H1             34.7351476142       33.9523785134       44.1875277137  TIP3      3955            0.0000000000
     63380      5315  TIP3      H2             33.3146344831       34.1740796901       44.6378155418  TIP3      3955            0.0000000000
     63381      5316  TIP3      OH2            18.3212153544       19.9121950779       56.7912338286  TIP3      3956            0.0000000000
     63382      5316  TIP3      H1             17.4056479200       20.2136036704       56.7502338022  TIP3      3956            0.0000000000
     63383      5316  TIP3      H2             18.2531601873       19.0592452163       57.2432174080  TIP3      3956            0.0000000000
     63384      5317  TIP3      OH2            17.9610644508       31.6639945963       55.2101426180  TIP3      3957            0.0000000000
     63385      5317  TIP3      H1             18.2162407952       30.7364012352       55.2339856154  TIP3      3957            0.0000000000
     63386      5317  TIP3      H2             18.2466582903       31.9558615001       56.0844882808  TIP3      3957            0.0000000000
     63387      5318  TIP3      OH2            27.8783577911       19.2299455526       46.8066086091  TIP3      3958            0.0000000000
     63388      5318  TIP3      H1             28.0359699643       19.7487184894       46.0147802668  TIP3      3958            0.0000000000
     63389      5318  TIP3      H2             28.4175514699       19.6518010785       47.4745755268  TIP3      3958            0.0000000000
     63390      5319  TIP3      OH2            25.9422674806       18.0339624941       48.5885577706  TIP3      3959            0.0000000000
     63391      5319  TIP3      H1             25.6281965936       18.7127157701       49.2098907866  TIP3      3959            0.0000000000
     63392      5319  TIP3      H2             26.6066931119       18.5683557614       48.0928816191  TIP3      3959            0.0000000000
     63393      5320  TIP3      OH2            22.8979062812       32.4324976717       45.6442113906  TIP3      3960            0.0000000000
     63394      5320  TIP3      H1             23.0535673896       33.2524447324       45.1677973707  TIP3      3960            0.0000000000
     63395      5320  TIP3      H2             22.6654107603       32.7178535435       46.5451713493  TIP3      3960            0.0000000000
     63396      5321  TIP3      OH2            18.9545923537       17.0519950961       52.1834812862  TIP3      3961            0.0000000000
     63397      5321  TIP3      H1             18.8017833388       17.0679897466       51.2226168713  TIP3      3961            0.0000000000
     63398      5321  TIP3      H2             18.5657188804       16.1886891923       52.4320002697  TIP3      3961            0.0000000000
     63399      5322  TIP3      OH2            17.9318879524       30.9712318122       48.3228511048  TIP3      3962            0.0000000000
     63400      5322  TIP3      H1             17.0874336534       31.4398755345       48.3092897579  TIP3      3962            0.0000000000
     63401      5322  TIP3      H2             18.4407541946       31.4260343191       47.6375074137  TIP3      3962            0.0000000000
     63402      5323  TIP3      OH2            21.7755823969       32.4677190042       61.2526972037  TIP3      3963            0.0000000000
     63403      5323  TIP3      H1             22.5847671868       32.0689230156       61.5699244070  TIP3      3963            0.0000000000
     63404      5323  TIP3      H2             21.7558068063       32.2401680496       60.3006658350  TIP3      3963            0.0000000000
     63405      5324  TIP3      OH2            28.6646438604       22.5880395976       61.2584732379  TIP3      3964            0.0000000000
     63406      5324  TIP3      H1             28.8133173162       21.6604999673       61.0502026804  TIP3      3964            0.0000000000
     63407      5324  TIP3      H2             29.5162895765       22.9982252517       61.1457250424  TIP3      3964            0.0000000000
     63408      5325  TIP3      OH2            29.8895933579       25.3672257131       59.2766889987  TIP3      3965            0.0000000000
     63409      5325  TIP3      H1             29.6494167242       26.0822910716       58.6897299305  TIP3      3965            0.0000000000
     63410      5325  TIP3      H2             30.8372629246       25.3180253829       59.1370217986  TIP3      3965            0.0000000000
     63411      5326  TIP3      OH2            23.4178392757       16.7811864134       56.3646829698  TIP3      3966            0.0000000000
     63412      5326  TIP3      H1             23.2809586162       17.7262191474       56.2079253474  TIP3      3966            0.0000000000
     63413      5326  TIP3      H2             22.6852576885       16.3909410975       55.8435867623  TIP3      3966            0.0000000000
     63414      5327  TIP3      OH2            24.7526136032       21.0168035569       59.9252903883  TIP3      3967            0.0000000000
     63415      5327  TIP3      H1             24.4925461102       20.9106775736       60.8467610518  TIP3      3967            0.0000000000
     63416      5327  TIP3      H2             23.9441596923       20.9116739146       59.4274648210  TIP3      3967            0.0000000000
     63417      5328  TIP3      OH2            27.4340208841       20.1375884702       58.9776812402  TIP3      3968            0.0000000000
     63418      5328  TIP3      H1             26.4929349296       20.3066887226       59.1530493603  TIP3      3968            0.0000000000
     63419      5328  TIP3      H2             27.7113477240       19.5784917964       59.6916630540  TIP3      3968            0.0000000000
     63420      5329  TIP3      OH2            23.7177844533       16.1510756187       59.0148252915  TIP3      3969            0.0000000000
     63421      5329  TIP3      H1             24.3576911794       15.4130011561       59.0092376496  TIP3      3969            0.0000000000
     63422      5329  TIP3      H2             23.5437980786       16.2904775068       58.0669287402  TIP3      3969            0.0000000000
     63423      5330  TIP3      OH2            24.0259198984       17.7588563227       61.1166094245  TIP3      3970            0.0000000000
     63424      5330  TIP3      H1             23.8760355021       17.2441168753       60.2897817319  TIP3      3970            0.0000000000
     63425      5330  TIP3      H2             23.4249806875       18.4974024950       61.0122261291  TIP3      3970            0.0000000000
     63426      5331  TIP3      OH2            15.8355180448       34.6322552155       48.7511159300  TIP3      3971            0.0000000000
     63427      5331  TIP3      H1             15.1246799284       34.1646312018       48.3051125282  TIP3      3971            0.0000000000
     63428      5331  TIP3      H2             16.1248619606       33.9851312128       49.4333002407  TIP3      3971            0.0000000000
     63429      5332  TIP3      OH2            16.6274288025       32.7532721862       50.6005897271  TIP3      3972            0.0000000000
     63430      5332  TIP3      H1             16.2899948075       31.8782314427       50.8300228083  TIP3      3972            0.0000000000
     63431      5332  TIP3      H2             16.8734409384       33.0984512275       51.4798412904  TIP3      3972            0.0000000000
     63432      5333  TIP3      OH2            33.5648696424       27.1821484296       46.6272083221  TIP3      3973            0.0000000000
     63433      5333  TIP3      H1             34.4158588742       27.5773329778       46.8385773450  TIP3      3973            0.0000000000
     63434      5333  TIP3      H2             33.5331137402       26.4575487871       47.2812112815  TIP3      3973            0.0000000000
     63435      5334  TIP3      OH2            33.9153829810       25.2263571993       48.4984540629  TIP3      3974            0.0000000000
     63436      5334  TIP3      H1             33.1474256124       24.7687298061       48.9014938418  TIP3      3974            0.0000000000
     63437      5334  TIP3      H2             34.4800606150       25.4409582756       49.2676251781  TIP3      3974            0.0000000000
     63438      5335  TIP3      OH2            33.6156860701       28.0087930191       53.3982025793  TIP3      3975            0.0000000000
     63439      5335  TIP3      H1             34.4625034088       27.5835019602       53.1912192241  TIP3      3975            0.0000000000
     63440      5335  TIP3      H2             33.8358389177       28.9512104815       53.3444784746  TIP3      3975            0.0000000000
     63441      5336  TIP3      OH2            31.7037875518       23.7423024867       49.0939813882  TIP3      3976            0.0000000000
     63442      5336  TIP3      H1             31.5417072085       22.7986330697       49.0682488653  TIP3      3976            0.0000000000
     63443      5336  TIP3      H2             31.3634737338       24.0450832984       49.9523055694  TIP3      3976            0.0000000000
     63444      5337  TIP3      OH2            16.7643191293       25.8297744646       53.1185825037  TIP3      3977            0.0000000000
     63445      5337  TIP3      H1             16.9226229217       25.7121098084       52.1755220781  TIP3      3977            0.0000000000
     63446      5337  TIP3      H2             17.6207175830       25.6918626074       53.5217661186  TIP3      3977            0.0000000000
     63447      5338  TIP3      OH2            16.3290268672       21.1444333876       59.2695148612  TIP3      3978            0.0000000000
     63448      5338  TIP3      H1             17.2623570757       20.9182588888       59.4269049111  TIP3      3978            0.0000000000
     63449      5338  TIP3      H2             15.8809600937       20.3289386135       59.5762836858  TIP3      3978            0.0000000000
     63450      5339  TIP3      OH2            17.5278742551       19.4160037605       52.1167361041  TIP3      3979            0.0000000000
     63451      5339  TIP3      H1             18.0059705686       18.5939587244       52.3798865096  TIP3      3979            0.0000000000
     63452      5339  TIP3      H2             18.0533474126       20.0914858407       52.5386930520  TIP3      3979            0.0000000000
     63453      5340  TIP3      OH2            15.8153596391       22.4119821150       53.1646150175  TIP3      3980            0.0000000000
     63454      5340  TIP3      H1             16.3768230366       22.1702011610       52.4049699678  TIP3      3980            0.0000000000
     63455      5340  TIP3      H2             16.2399216605       23.2318795129       53.4374737719  TIP3      3980            0.0000000000
     63456      5341  TIP3      OH2            16.1065087929       18.5988757939       46.9784016361  TIP3      3981            0.0000000000
     63457      5341  TIP3      H1             15.3201315253       19.0508764779       47.3723431497  TIP3      3981            0.0000000000
     63458      5341  TIP3      H2             16.6770732032       19.3247666424       46.6743607552  TIP3      3981            0.0000000000
     63459      5342  TIP3      OH2            16.1699384885       17.3972950772       55.5753314458  TIP3      3982            0.0000000000
     63460      5342  TIP3      H1             15.4719334837       17.1651614337       56.2071565231  TIP3      3982            0.0000000000
     63461      5342  TIP3      H2             15.6849321024       18.0054079000       54.9871422574  TIP3      3982            0.0000000000
     63462      5343  TIP3      OH2            18.3555737532       30.5470114783       59.7049509784  TIP3      3983            0.0000000000
     63463      5343  TIP3      H1             17.5094819296       30.7377913573       59.2963094665  TIP3      3983            0.0000000000
     63464      5343  TIP3      H2             18.1113078651       30.4888832758       60.6385318370  TIP3      3983            0.0000000000
     63465      5344  TIP3      OH2            21.2890132468       31.5469055072       56.0250082961  TIP3      3984            0.0000000000
     63466      5344  TIP3      H1             20.8814787638       32.3580181292       55.7195561696  TIP3      3984            0.0000000000
     63467      5344  TIP3      H2             22.2037810421       31.6268228501       55.6896307572  TIP3      3984            0.0000000000
     63468      5345  TIP3      OH2            25.8597701694       34.2539036141       54.2350268321  TIP3      3985            0.0000000000
     63469      5345  TIP3      H1             25.4315683722       34.8039548065       53.5486131158  TIP3      3985            0.0000000000
     63470      5345  TIP3      H2             26.0489167369       34.9185922733       54.9347221305  TIP3      3985            0.0000000000
     63471      5346  TIP3      OH2            28.1772357329       33.1280809335       55.1853365644  TIP3      3986            0.0000000000
     63472      5346  TIP3      H1             27.2954674609       33.3655376610       54.8764010451  TIP3      3986            0.0000000000
     63473      5346  TIP3      H2             28.6575981082       33.9701886883       55.1490308886  TIP3      3986            0.0000000000
     63474      5347  TIP3      OH2            30.7225003198       34.6606498211       55.4625937732  TIP3      3987            0.0000000000
     63475      5347  TIP3      H1             30.6673991275       35.6332863585       55.2811407449  TIP3      3987            0.0000000000
     63476      5347  TIP3      H2             30.9743164058       34.3173717552       54.6109136245  TIP3      3987            0.0000000000
     63477      5348  TIP3      OH2            18.1279173221       33.3824355587       52.9094579360  TIP3      3988            0.0000000000
     63478      5348  TIP3      H1             18.0853610791       32.9626631010       53.7833744345  TIP3      3988            0.0000000000
     63479      5348  TIP3      H2             18.9589444451       33.0671815928       52.5178788752  TIP3      3988            0.0000000000
     63480      5349  TIP3      OH2            20.2158331901       32.1427796995       51.6207352359  TIP3      3989            0.0000000000
     63481      5349  TIP3      H1             20.0713880980       31.1950593595       51.7909509635  TIP3      3989            0.0000000000
     63482      5349  TIP3      H2             21.0948981755       32.2815015287       52.0271374396  TIP3      3989            0.0000000000
     63483      5350  TIP3      OH2            22.7922738492       32.6079789557       52.4811905272  TIP3      3990            0.0000000000
     63484      5350  TIP3      H1             22.9936742665       31.7019177452       52.1784399554  TIP3      3990            0.0000000000
     63485      5350  TIP3      H2             22.8856842438       32.5028793464       53.4342793957  TIP3      3990            0.0000000000
     63486      5351  TIP3      OH2            26.2899198823       18.2397056001       51.5805019846  TIP3      3991            0.0000000000
     63487      5351  TIP3      H1             25.6271896306       17.5974651929       51.8374553389  TIP3      3991            0.0000000000
     63488      5351  TIP3      H2             26.8931637425       17.7502566321       51.0103819174  TIP3      3991            0.0000000000
     63489      5352  TIP3      OH2            18.6173399097       16.9084807400       49.4063120528  TIP3      3992            0.0000000000
     63490      5352  TIP3      H1             17.8160929934       16.6365032770       48.9465600346  TIP3      3992            0.0000000000
     63491      5352  TIP3      H2             19.1447679459       16.0830567389       49.4070622761  TIP3      3992            0.0000000000
     63492      5353  TIP3      OH2            17.1947114840       16.7787701600       45.0600338294  TIP3      3993            0.0000000000
     63493      5353  TIP3      H1             17.9550998581       17.2267738645       44.6013539144  TIP3      3993            0.0000000000
     63494      5353  TIP3      H2             17.1483118131       17.2748879944       45.8792916094  TIP3      3993            0.0000000000
     63495      5354  TIP3      OH2            23.1781603988       16.7509380535       49.2242233115  TIP3      3994            0.0000000000
     63496      5354  TIP3      H1             24.0233541999       17.2323375090       49.1776583449  TIP3      3994            0.0000000000
     63497      5354  TIP3      H2             23.0331999468       16.6488499339       50.1676781496  TIP3      3994            0.0000000000
     63498      5355  TIP3      OH2            29.9585188301       16.8813991200       46.9330065177  TIP3      3995            0.0000000000
     63499      5355  TIP3      H1             29.4180036803       17.4799901056       46.4125283586  TIP3      3995            0.0000000000
     63500      5355  TIP3      H2             29.6359288142       15.9917044544       46.7282065697  TIP3      3995            0.0000000000
     63501      5356  TIP3      OH2            17.3085988100       32.6198337716       46.1920397175  TIP3      3996            0.0000000000
     63502      5356  TIP3      H1             16.6868547237       32.5982966107       45.4635104767  TIP3      3996            0.0000000000
     63503      5356  TIP3      H2             17.3786268466       33.5633626059       46.3796645409  TIP3      3996            0.0000000000
     63504      5357  TIP3      OH2            37.8745976716       24.9612862999       54.3204141876  TIP3      3997            0.0000000000
     63505      5357  TIP3      H1             37.8813062888       24.3024376485       55.0527773341  TIP3      3997            0.0000000000
     63506      5357  TIP3      H2             38.5537011905       25.5798900372       54.6201077123  TIP3      3997            0.0000000000
     63507      5358  TIP3      OH2            38.7199447576       29.3858294344       52.8912430331  TIP3      3998            0.0000000000
     63508      5358  TIP3      H1             38.4144390975       28.5381344720       52.5315467316  TIP3      3998            0.0000000000
     63509      5358  TIP3      H2             39.6880357976       29.2394789371       52.9280919266  TIP3      3998            0.0000000000
     63510      5359  TIP3      OH2            35.3811492152       22.9822470552       48.3169115852  TIP3      3999            0.0000000000
     63511      5359  TIP3      H1             34.9608817394       23.8704277009       48.2698129866  TIP3      3999            0.0000000000
     63512      5359  TIP3      H2             34.8237910384       22.4505547708       47.7492050576  TIP3      3999            0.0000000000
     63513      5360  TIP3      OH2            36.0781502200       25.1830933698       50.4288100444  TIP3      4000            0.0000000000
     63514      5360  TIP3      H1             36.3205397458       24.4049329494       50.9668776475  TIP3      4000            0.0000000000
     63515      5360  TIP3      H2             36.8380773780       25.2809176245       49.8362125737  TIP3      4000            0.0000000000
     63516      5361  TIP3      OH2            39.6577748678       20.3938156765       51.0106510035  TIP3      4001            0.0000000000
     63517      5361  TIP3      H1             40.1138627631       21.1344432925       50.5204786108  TIP3      4001            0.0000000000
     63518      5361  TIP3      H2             39.7073448983       19.7436841252       50.3092099951  TIP3      4001            0.0000000000
     63519      5362  TIP3      OH2            36.7693144115       22.6764556170       51.5319527820  TIP3      4002            0.0000000000
     63520      5362  TIP3      H1             37.4269716970       22.1320035675       52.0049350032  TIP3      4002            0.0000000000
     63521      5362  TIP3      H2             36.8621719435       22.3595924709       50.6196534633  TIP3      4002            0.0000000000
     63522      5363  TIP3      OH2            38.9739434888       19.1052558946       54.8403373570  TIP3      4003            0.0000000000
     63523      5363  TIP3      H1             38.7508646938       19.7520809862       54.1347992725  TIP3      4003            0.0000000000
     63524      5363  TIP3      H2             38.3501284322       19.3976295012       55.5412433931  TIP3      4003            0.0000000000
     63525      5364  TIP3      OH2            38.4773812836       21.0403248789       53.0745903090  TIP3      4004            0.0000000000
     63526      5364  TIP3      H1             39.1511406788       21.7188130016       53.2180330698  TIP3      4004            0.0000000000
     63527      5364  TIP3      H2             38.9401902791       20.6507283465       52.2834711859  TIP3      4004            0.0000000000
     63528      5365  TIP3      OH2            40.0162106341       28.7833230337       55.8846324129  TIP3      4005            0.0000000000
     63529      5365  TIP3      H1             39.9575149883       29.7024889167       55.5924208343  TIP3      4005            0.0000000000
     63530      5365  TIP3      H2             39.1514109405       28.7096471617       56.3465456564  TIP3      4005            0.0000000000
     63531      5366  TIP3      OH2            36.1634259465       28.3836150497       46.8227548278  TIP3      4006            0.0000000000
     63532      5366  TIP3      H1             35.8327488557       28.6168618421       45.9445309973  TIP3      4006            0.0000000000
     63533      5366  TIP3      H2             36.1165943123       29.2579603056       47.2787197820  TIP3      4006            0.0000000000
     63534      5367  TIP3      OH2            40.2975633612       26.1130669576       49.7230569953  TIP3      4007            0.0000000000
     63535      5367  TIP3      H1             40.0007570244       25.8176547742       48.8274466894  TIP3      4007            0.0000000000
     63536      5367  TIP3      H2             40.9243094943       25.4369851885       49.9773268287  TIP3      4007            0.0000000000
     63537      5368  TIP3      OH2            38.4513297903       25.4873643324       57.1972633474  TIP3      4008            0.0000000000
     63538      5368  TIP3      H1             38.5549732784       26.1593922072       57.8890469629  TIP3      4008            0.0000000000
     63539      5368  TIP3      H2             37.5251645518       25.6010691636       56.9378703758  TIP3      4008            0.0000000000
     63540      5369  TIP3      OH2            39.8356974210       31.0628913261       58.8446681395  TIP3      4009            0.0000000000
     63541      5369  TIP3      H1             39.8288533907       31.1895276486       57.8668681991  TIP3      4009            0.0000000000
     63542      5369  TIP3      H2             38.8895031904       31.1763217862       59.0285868379  TIP3      4009            0.0000000000
     63543      5370  TIP3      OH2            39.2786620914       25.2199103507       47.3154862959  TIP3      4010            0.0000000000
     63544      5370  TIP3      H1             39.0314049006       25.9496423250       46.7189312281  TIP3      4010            0.0000000000
     63545      5370  TIP3      H2             38.6532162269       24.5446996125       47.0366540029  TIP3      4010            0.0000000000
     63546      5371  TIP3      OH2            35.1729183515       30.2974670986       52.9802805311  TIP3      4011            0.0000000000
     63547      5371  TIP3      H1             36.1266099452       30.2204586736       52.9368283629  TIP3      4011            0.0000000000
     63548      5371  TIP3      H2             35.0645818201       31.1369373667       53.4552400819  TIP3      4011            0.0000000000
     63549      5372  TIP3      OH2            38.5366628822       32.8850806013       49.0333183576  TIP3      4012            0.0000000000
     63550      5372  TIP3      H1             38.5544829656       32.7798795658       49.9983974029  TIP3      4012            0.0000000000
     63551      5372  TIP3      H2             37.5784492996       32.8056745093       48.8769411905  TIP3      4012            0.0000000000
     63552      5373  TIP3      OH2            37.6066394820       28.8807531012       57.0896793950  TIP3      4013            0.0000000000
     63553      5373  TIP3      H1             37.8620584387       28.5420748745       57.9734471962  TIP3      4013            0.0000000000
     63554      5373  TIP3      H2             36.7464244943       28.4798458889       56.9331905290  TIP3      4013            0.0000000000
     63555      5374  TIP3      OH2            40.1548757561       17.4024696940       53.1053775381  TIP3      4014            0.0000000000
     63556      5374  TIP3      H1             39.3341218568       17.3422051251       52.6388174738  TIP3      4014            0.0000000000
     63557      5374  TIP3      H2             40.1845005999       18.2965906984       53.4786060577  TIP3      4014            0.0000000000
     63558      5375  TIP3      OH2            40.3923544462       22.4681198840       54.8750085498  TIP3      4015            0.0000000000
     63559      5375  TIP3      H1             39.4631610522       22.2869005975       55.1159644700  TIP3      4015            0.0000000000
     63560      5375  TIP3      H2             40.2280198855       23.0922578831       54.1682326414  TIP3      4015            0.0000000000
     63561      5376  TIP3      OH2            40.1120192960       22.3931508094       49.4405838593  TIP3      4016            0.0000000000
     63562      5376  TIP3      H1             39.2331577556       22.1540520486       49.0846415677  TIP3      4016            0.0000000000
     63563      5376  TIP3      H2             40.7249996593       22.0798203609       48.7672740356  TIP3      4016            0.0000000000
     63564      5377  TIP3      OH2            38.0212643380       22.6579834266       56.0357882891  TIP3      4017            0.0000000000
     63565      5377  TIP3      H1             38.1038671354       23.0504637570       56.9210887270  TIP3      4017            0.0000000000
     63566      5377  TIP3      H2             37.6319483838       21.7856520173       56.1978528994  TIP3      4017            0.0000000000
     63567      5378  TIP3      OH2            37.6955770699       21.5643786438       49.0786347828  TIP3      4018            0.0000000000
     63568      5378  TIP3      H1             36.8438645980       21.7126037014       48.6380365244  TIP3      4018            0.0000000000
     63569      5378  TIP3      H2             38.0354565339       20.7304934138       48.6999141981  TIP3      4018            0.0000000000
     63570      5379  TIP3      OH2            40.1400290284       22.7124624992       44.2680333282  TIP3      4019            0.0000000000
     63571      5379  TIP3      H1             39.5329437788       22.4839172862       43.5409023040  TIP3      4019            0.0000000000
     63572      5379  TIP3      H2             40.9074742929       23.0622971740       43.7839480600  TIP3      4019            0.0000000000
     63573      5380  TIP3      OH2            38.2225101478       27.4211603294       59.3314748909  TIP3      4020            0.0000000000
     63574      5380  TIP3      H1             38.9517720839       27.6278609520       59.9324252993  TIP3      4020            0.0000000000
     63575      5380  TIP3      H2             37.4684546784       27.5090710454       59.9138359938  TIP3      4020            0.0000000000
     63576      5381  TIP3      OH2            38.9787067392       18.8811396899       48.4857833242  TIP3      4021            0.0000000000
     63577      5381  TIP3      H1             38.8941112100       17.9251451056       48.4684561482  TIP3      4021            0.0000000000
     63578      5381  TIP3      H2             39.9229905461       18.9478552585       48.2348928240  TIP3      4021            0.0000000000
     63579      5382  TIP3      OH2            38.5875326431       26.7144357950       51.9794319666  TIP3      4022            0.0000000000
     63580      5382  TIP3      H1             39.2775731930       26.6584642098       51.2889952490  TIP3      4022            0.0000000000
     63581      5382  TIP3      H2             38.6108080479       25.8505429334       52.4206414837  TIP3      4022            0.0000000000
     63582      5383  TIP3      OH2            35.5806846455       25.1235466098       57.2792935063  TIP3      4023            0.0000000000
     63583      5383  TIP3      H1             35.7599476113       24.6314944311       58.0899580866  TIP3      4023            0.0000000000
     63584      5383  TIP3      H2             34.9382616452       24.5597642365       56.8007761233  TIP3      4023            0.0000000000
     63585      5384  TIP3      OH2            36.7188675108       25.0011914231       43.9585439156  TIP3      4024            0.0000000000
     63586      5384  TIP3      H1             37.3108419883       25.6822941975       44.2973107388  TIP3      4024            0.0000000000
     63587      5384  TIP3      H2             35.8312459324       25.3184626062       44.1836099688  TIP3      4024            0.0000000000
     63588      5385  TIP3      OH2            37.1914440257       19.8867435654       56.7897480967  TIP3      4025            0.0000000000
     63589      5385  TIP3      H1             36.2862939204       20.2372314321       56.7600055129  TIP3      4025            0.0000000000
     63590      5385  TIP3      H2             37.0914270873       19.0438262763       57.2537795396  TIP3      4025            0.0000000000
     63591      5386  TIP3      OH2            36.8703488011       31.6555964898       55.1863133013  TIP3      4026            0.0000000000
     63592      5386  TIP3      H1             37.1209340086       30.7272285938       55.2087483291  TIP3      4026            0.0000000000
     63593      5386  TIP3      H2             37.1275294812       31.9548750925       56.0640086925  TIP3      4026            0.0000000000
     63594      5387  TIP3      OH2            38.1016605075       26.9613984913       45.3968889760  TIP3      4027            0.0000000000
     63595      5387  TIP3      H1             37.4114734783       27.3207091876       45.9928603587  TIP3      4027            0.0000000000
     63596      5387  TIP3      H2             38.5702289522       27.7563888672       45.1596909427  TIP3      4027            0.0000000000
     63597      5388  TIP3      OH2           -41.2478671009       19.1052923817       45.1072472931  TIP3      4028            0.0000000000
     63598      5388  TIP3      H1            -41.1932074585       19.9976720236       45.4537610777  TIP3      4028            0.0000000000
     63599      5388  TIP3      H2            -40.3222053355       18.8202368361       45.2577925914  TIP3      4028            0.0000000000
     63600      5389  TIP3      OH2            38.6762684035       29.6819277389       44.1603143175  TIP3      4029            0.0000000000
     63601      5389  TIP3      H1             39.3235171448       30.1620972959       44.6844018972  TIP3      4029            0.0000000000
     63602      5389  TIP3      H2             39.2003000253       29.0600162480       43.6478486982  TIP3      4029            0.0000000000
     63603      5390  TIP3      OH2            37.0567279437       22.2208578603       43.4499726152  TIP3      4030            0.0000000000
     63604      5390  TIP3      H1             37.0041773171       23.1851494627       43.6220011721  TIP3      4030            0.0000000000
     63605      5390  TIP3      H2             36.1672800272       22.0191854966       43.1774561137  TIP3      4030            0.0000000000
     63606      5391  TIP3      OH2            36.7749921239       30.9079729606       48.2714406437  TIP3      4031            0.0000000000
     63607      5391  TIP3      H1             35.9364272157       31.3848269501       48.2774071249  TIP3      4031            0.0000000000
     63608      5391  TIP3      H2             37.3070630212       31.4553137102       47.6784110523  TIP3      4031            0.0000000000
     63609      5392  TIP3      OH2            35.6757955064       33.2178889887       60.1277636540  TIP3      4032            0.0000000000
     63610      5392  TIP3      H1             36.6061240983       33.2139380719       60.3816604650  TIP3      4032            0.0000000000
     63611      5392  TIP3      H2             35.6200414387       32.6809152661       59.3423924866  TIP3      4032            0.0000000000
     63612      5393  TIP3      OH2            39.4765772159       22.1928282413       60.4359654138  TIP3      4033            0.0000000000
     63613      5393  TIP3      H1             38.7499406331       21.6379945625       60.1288806017  TIP3      4033            0.0000000000
     63614      5393  TIP3      H2             40.1823599253       21.9238908504       59.7958308306  TIP3      4033            0.0000000000
     63615      5394  TIP3      OH2            35.5779365035       25.8466453495       53.1168289644  TIP3      4034            0.0000000000
     63616      5394  TIP3      H1             35.7548105569       25.7394040624       52.1641490439  TIP3      4034            0.0000000000
     63617      5394  TIP3      H2             36.4491394606       25.6559419508       53.5163749040  TIP3      4034            0.0000000000
     63618      5395  TIP3      OH2            36.4018836960       19.4592308361       52.3369732454  TIP3      4035            0.0000000000
     63619      5395  TIP3      H1             36.9477784650       18.6833525476       52.4339896456  TIP3      4035            0.0000000000
     63620      5395  TIP3      H2             36.9740583713       20.2003914867       52.5940415151  TIP3      4035            0.0000000000
     63621      5396  TIP3      OH2            34.7050344062       22.3780075049       53.1917130319  TIP3      4036            0.0000000000
     63622      5396  TIP3      H1             35.2692867459       22.1986760404       52.4258173634  TIP3      4036            0.0000000000
     63623      5396  TIP3      H2             35.0899961033       23.2113129466       53.4696609136  TIP3      4036            0.0000000000
     63624      5397  TIP3      OH2            37.1525316497       30.5413080210       59.7493166741  TIP3      4037            0.0000000000
     63625      5397  TIP3      H1             36.3258759123       30.7494681800       59.3096258520  TIP3      4037            0.0000000000
     63626      5397  TIP3      H2             36.9073913694       30.5554912139       60.6821542199  TIP3      4037            0.0000000000
     63627      5398  TIP3      OH2            40.1413684424       31.5239814065       56.0598832526  TIP3      4038            0.0000000000
     63628      5398  TIP3      H1             39.7315816683       32.3259799783       55.6574737869  TIP3      4038            0.0000000000
     63629      5398  TIP3      H2             41.0311201728       31.6341950317       55.6904075347  TIP3      4038            0.0000000000
     63630      5399  TIP3      OH2            37.1566572997       34.4108558740       55.4833529729  TIP3      4039            0.0000000000
     63631      5399  TIP3      H1             36.8375430297       35.3074594606       55.3896542813  TIP3      4039            0.0000000000
     63632      5399  TIP3      H2             37.1902634305       34.3452045830       56.4686739927  TIP3      4039            0.0000000000
     63633      5400  TIP3      OH2            39.9243861346       33.7739848881       54.9527017520  TIP3      4040            0.0000000000
     63634      5400  TIP3      H1             39.1653373814       34.1986803456       55.4051015702  TIP3      4040            0.0000000000
     63635      5400  TIP3      H2             40.0296620397       34.5577886047       54.3647353208  TIP3      4040            0.0000000000
     63636      5401  TIP3      OH2            36.8749550890       33.2784354574       52.9118600444  TIP3      4041            0.0000000000
     63637      5401  TIP3      H1             36.9349891357       32.9637569157       53.8304274104  TIP3      4041            0.0000000000
     63638      5401  TIP3      H2             37.7620991190       33.0850609880       52.5505012396  TIP3      4041            0.0000000000
     63639      5402  TIP3      OH2            39.0838557546       32.1247360738       51.5692972375  TIP3      4042            0.0000000000
     63640      5402  TIP3      H1             38.8893501475       31.1957925936       51.8136442165  TIP3      4042            0.0000000000
     63641      5402  TIP3      H2             39.9047130237       32.2591905043       52.0472003632  TIP3      4042            0.0000000000
     63642      5403  TIP3      OH2            36.2861415865       32.6481089247       45.9965154816  TIP3      4043            0.0000000000
     63643      5403  TIP3      H1             35.4472917318       32.5959741271       45.4924340812  TIP3      4043            0.0000000000
     63644      5403  TIP3      H2             36.2103913949       33.5271556959       46.3989805284  TIP3      4043            0.0000000000
     63645      5404  TIP3      OH2            39.4079428577       16.8148773567       60.5284248168  TIP3      4044            0.0000000000
     63646      5404  TIP3      H1             40.2611069517       16.4707612878       60.2350190230  TIP3      4044            0.0000000000
     63647      5404  TIP3      H2             38.9683909651       16.0361393165       60.9148178486  TIP3      4044            0.0000000000
     63648      5405  TIP3      OH2            38.3061964556       33.0788599140       42.8801521021  TIP3      4045            0.0000000000
     63649      5405  TIP3      H1             37.7845898982       33.5693549434       43.5968165955  TIP3      4045            0.0000000000
     63650      5405  TIP3      H2             38.9704544572       32.8476193921       43.5175169493  TIP3      4045            0.0000000000
     63651      5406  TIP3      OH2           -22.3764038806       37.9854881324       54.3530117180  TIP3      4046            0.0000000000
     63652      5406  TIP3      H1            -22.7600401389       38.7081871417       54.8873610692  TIP3      4046            0.0000000000
     63653      5406  TIP3      H2            -22.3716094096       38.4195851528       53.4886960677  TIP3      4046            0.0000000000
     63654      5407  TIP3      OH2           -35.2286216631       39.1043464089       50.8093391231  TIP3      4047            0.0000000000
     63655      5407  TIP3      H1            -35.1216054093       39.9340234588       50.3318541882  TIP3      4047            0.0000000000
     63656      5407  TIP3      H2            -35.5995053898       38.5437119398       50.0973244058  TIP3      4047            0.0000000000
     63657      5408  TIP3      OH2           -27.6080589678       39.2782060200       49.1159803067  TIP3      4048            0.0000000000
     63658      5408  TIP3      H1            -26.9966030265       38.9088399347       49.8104770005  TIP3      4048            0.0000000000
     63659      5408  TIP3      H2            -26.9495524931       39.7504441267       48.5941862254  TIP3      4048            0.0000000000
     63660      5409  TIP3      OH2           -21.9986608292       39.5813544111       56.6557314516  TIP3      4049            0.0000000000
     63661      5409  TIP3      H1            -22.7183395582       40.1753494173       56.3308963568  TIP3      4049            0.0000000000
     63662      5409  TIP3      H2            -22.4199168792       39.3630410006       57.4875723123  TIP3      4049            0.0000000000
     63663      5410  TIP3      OH2           -36.3948700255       37.9282997492       54.8454761812  TIP3      4050            0.0000000000
     63664      5410  TIP3      H1            -36.7060990724       38.5542330297       54.1394730785  TIP3      4050            0.0000000000
     63665      5410  TIP3      H2            -37.0622284766       38.2462528246       55.5098301771  TIP3      4050            0.0000000000
     63666      5411  TIP3      OH2           -26.0350432326       38.3376280843       50.9736758950  TIP3      4051            0.0000000000
     63667      5411  TIP3      H1            -26.1331111925       37.6199984292       51.6160432609  TIP3      4051            0.0000000000
     63668      5411  TIP3      H2            -25.4429267714       38.8351300993       51.5546341804  TIP3      4051            0.0000000000
     63669      5412  TIP3      OH2           -36.4811908832       39.8210993598       52.9704479510  TIP3      4052            0.0000000000
     63670      5412  TIP3      H1            -36.1261870249       40.6963068507       53.1267106429  TIP3      4052            0.0000000000
     63671      5412  TIP3      H2            -36.1907368736       39.5265739235       52.0944544109  TIP3      4052            0.0000000000
     63672      5413  TIP3      OH2           -25.5439837770       37.2217125624       55.1940113038  TIP3      4053            0.0000000000
     63673      5413  TIP3      H1            -26.2464875571       37.7791220750       54.8235435339  TIP3      4053            0.0000000000
     63674      5413  TIP3      H2            -24.8893881142       37.3997134242       54.5115082193  TIP3      4053            0.0000000000
     63675      5414  TIP3      OH2           -32.4714057039       35.3529115839       52.2945440030  TIP3      4054            0.0000000000
     63676      5414  TIP3      H1            -32.5825626141       34.3843592865       52.2315114439  TIP3      4054            0.0000000000
     63677      5414  TIP3      H2            -33.3448687860       35.6644369818       52.6042793437  TIP3      4054            0.0000000000
     63678      5415  TIP3      OH2           -35.0326435631       36.2488353808       53.1514127911  TIP3      4055            0.0000000000
     63679      5415  TIP3      H1            -35.8793897867       36.1060795550       52.6699206270  TIP3      4055            0.0000000000
     63680      5415  TIP3      H2            -35.1734288286       37.1317100187       53.5344959372  TIP3      4055            0.0000000000
     63681      5416  TIP3      OH2           -30.4456417344       35.9235145833       56.4394586310  TIP3      4056            0.0000000000
     63682      5416  TIP3      H1            -30.0432030797       35.5064084997       57.2232707605  TIP3      4056            0.0000000000
     63683      5416  TIP3      H2            -31.4113402152       35.7842807877       56.5779371405  TIP3      4056            0.0000000000
     63684      5417  TIP3      OH2           -27.1939341085       39.9033526255       57.1180673801  TIP3      4057            0.0000000000
     63685      5417  TIP3      H1            -27.6266873076       39.6426705261       57.9716128102  TIP3      4057            0.0000000000
     63686      5417  TIP3      H2            -27.4267135976       40.8222756034       57.0715336816  TIP3      4057            0.0000000000
     63687      5418  TIP3      OH2           -30.8447841568       38.5405276440       43.7861576118  TIP3      4058            0.0000000000
     63688      5418  TIP3      H1            -31.1312811131       38.4545669352       44.7131276833  TIP3      4058            0.0000000000
     63689      5418  TIP3      H2            -31.0494235185       37.6570492779       43.4574505010  TIP3      4058            0.0000000000
     63690      5419  TIP3      OH2           -38.6816017861       39.6965117285       49.9729064147  TIP3      4059            0.0000000000
     63691      5419  TIP3      H1            -39.4716182137       39.4000741503       50.4149716814  TIP3      4059            0.0000000000
     63692      5419  TIP3      H2            -38.7314323589       38.8486144821       49.4446128919  TIP3      4059            0.0000000000
     63693      5420  TIP3      OH2           -38.7958363138       39.9773157444       45.6542476111  TIP3      4060            0.0000000000
     63694      5420  TIP3      H1            -38.7420482672       40.0877822087       44.7103683820  TIP3      4060            0.0000000000
     63695      5420  TIP3      H2            -39.7537172419       39.9872149338       45.7598193054  TIP3      4060            0.0000000000
     63696      5421  TIP3      OH2           -32.4548257126       38.8970560079       50.1758081262  TIP3      4061            0.0000000000
     63697      5421  TIP3      H1            -33.3932140151       38.8810973583       50.4518366551  TIP3      4061            0.0000000000
     63698      5421  TIP3      H2            -31.9487466194       38.7380585856       50.9926204399  TIP3      4061            0.0000000000
     63699      5422  TIP3      OH2           -37.5864705474       40.2537101162       47.9441612440  TIP3      4062            0.0000000000
     63700      5422  TIP3      H1            -38.3860439024       40.4156081683       48.4839168958  TIP3      4062            0.0000000000
     63701      5422  TIP3      H2            -37.2833716781       39.4956116497       48.4622545438  TIP3      4062            0.0000000000
     63702      5423  TIP3      OH2           -33.9947357886      -41.0217761252       46.5339136003  TIP3      4063            0.0000000000
     63703      5423  TIP3      H1            -33.1033618282      -40.8217127980       46.8697730996  TIP3      4063            0.0000000000
     63704      5423  TIP3      H2            -34.2169614539      -40.2515000491       46.0084385119  TIP3      4063            0.0000000000
     63705      5424  TIP3      OH2           -28.0378698502       38.0642242826       53.4397221900  TIP3      4064            0.0000000000
     63706      5424  TIP3      H1            -28.7430738451       38.1939826642       54.1056735122  TIP3      4064            0.0000000000
     63707      5424  TIP3      H2            -28.5479578996       37.9036655864       52.6313195916  TIP3      4064            0.0000000000
     63708      5425  TIP3      OH2           -36.0183560624       37.8438125373       48.3802424411  TIP3      4065            0.0000000000
     63709      5425  TIP3      H1            -36.4250715310       36.9448185564       48.4304401246  TIP3      4065            0.0000000000
     63710      5425  TIP3      H2            -35.2435363949       37.6969098438       47.8398038270  TIP3      4065            0.0000000000
     63711      5426  TIP3      OH2           -32.5469953924       39.8985465386       54.4337368259  TIP3      4066            0.0000000000
     63712      5426  TIP3      H1            -33.3167172954       40.4511898106       54.5648926381  TIP3      4066            0.0000000000
     63713      5426  TIP3      H2            -32.0053611622       40.2458603476       55.1778989875  TIP3      4066            0.0000000000
     63714      5427  TIP3      OH2           -28.3570071806       38.2089943192       44.7195509107  TIP3      4067            0.0000000000
     63715      5427  TIP3      H1            -29.0734451721       38.6285345398       44.1858914855  TIP3      4067            0.0000000000
     63716      5427  TIP3      H2            -27.8907306898       39.0733445492       44.6389700872  TIP3      4067            0.0000000000
     63717      5428  TIP3      OH2           -38.2219564991       38.6866548257       56.8113647636  TIP3      4068            0.0000000000
     63718      5428  TIP3      H1            -39.0887568827       39.1107625448       56.7834944974  TIP3      4068            0.0000000000
     63719      5428  TIP3      H2            -38.3822554186       37.8617914477       57.2868165109  TIP3      4068            0.0000000000
     63720      5429  TIP3      OH2           -29.4971247277       38.5319185615       55.7119912431  TIP3      4069            0.0000000000
     63721      5429  TIP3      H1            -28.8164344897       38.5631897607       56.3971856283  TIP3      4069            0.0000000000
     63722      5429  TIP3      H2            -29.8856509690       37.6539867213       55.9143651102  TIP3      4069            0.0000000000
     63723      5430  TIP3      OH2           -28.7214669186       37.8733360493       47.1381275517  TIP3      4070            0.0000000000
     63724      5430  TIP3      H1            -28.6590302733       38.1887977194       46.2055485792  TIP3      4070            0.0000000000
     63725      5430  TIP3      H2            -28.1414161784       38.4914749569       47.6143852030  TIP3      4070            0.0000000000
     63726      5431  TIP3      OH2           -31.4860500825       39.8172444645       47.6453970443  TIP3      4071            0.0000000000
     63727      5431  TIP3      H1            -30.7113534967       40.3942732992       47.7037410515  TIP3      4071            0.0000000000
     63728      5431  TIP3      H2            -31.7577097690       39.6887673009       48.5759124621  TIP3      4071            0.0000000000
     63729      5432  TIP3      OH2           -31.1961071144      -41.1993934899       57.1929749345  TIP3      4072            0.0000000000
     63730      5432  TIP3      H1            -31.0412849466      -40.3290704288       57.6068647530  TIP3      4072            0.0000000000
     63731      5432  TIP3      H2            -30.3051555100      -41.4744873757       56.9160519085  TIP3      4072            0.0000000000
     63732      5433  TIP3      OH2           -30.6694316665       36.8960965889       48.5865136524  TIP3      4073            0.0000000000
     63733      5433  TIP3      H1            -30.9576088648       37.5601272838       49.2405394252  TIP3      4073            0.0000000000
     63734      5433  TIP3      H2            -29.9699701043       37.4143249342       48.0978129788  TIP3      4073            0.0000000000
     63735      5434  TIP3      OH2           -34.9712134455       38.0001635059       45.2369014491  TIP3      4074            0.0000000000
     63736      5434  TIP3      H1            -35.0561893817       38.8752248746       45.6742765462  TIP3      4074            0.0000000000
     63737      5434  TIP3      H2            -34.0695014671       37.7648989921       45.5313094290  TIP3      4074            0.0000000000
     63738      5435  TIP3      OH2           -24.7294854485       38.7803799383       57.6709201689  TIP3      4075            0.0000000000
     63739      5435  TIP3      H1            -25.6806740011       38.9968915396       57.5804848660  TIP3      4075            0.0000000000
     63740      5435  TIP3      H2            -24.4567390458       38.6825647691       56.7468948297  TIP3      4075            0.0000000000
     63741      5436  TIP3      OH2           -37.2461488897       35.3796778521       52.2010620564  TIP3      4076            0.0000000000
     63742      5436  TIP3      H1            -37.4976755747       35.7639632683       51.3387293863  TIP3      4076            0.0000000000
     63743      5436  TIP3      H2            -38.0891241384       34.9118082252       52.3680655685  TIP3      4076            0.0000000000
     63744      5437  TIP3      OH2           -34.6679838861       39.6617982342       58.3208731658  TIP3      4077            0.0000000000
     63745      5437  TIP3      H1            -34.2073579871       39.0081913244       57.7681519080  TIP3      4077            0.0000000000
     63746      5437  TIP3      H2            -34.4093133498       40.5032190329       57.9408257257  TIP3      4077            0.0000000000
     63747      5438  TIP3      OH2           -33.9107290938       38.1722383178       55.9523808657  TIP3      4078            0.0000000000
     63748      5438  TIP3      H1            -33.3624750974       38.6202861934       55.2700795008  TIP3      4078            0.0000000000
     63749      5438  TIP3      H2            -34.7889002727       38.0984821655       55.5220854763  TIP3      4078            0.0000000000
     63750      5439  TIP3      OH2           -33.1142757013       35.6334954299       56.4047184916  TIP3      4079            0.0000000000
     63751      5439  TIP3      H1            -33.2865996217       36.5918166255       56.2855473100  TIP3      4079            0.0000000000
     63752      5439  TIP3      H2            -33.8158156962       35.2493371516       55.8657060745  TIP3      4079            0.0000000000
     63753      5440  TIP3      OH2           -31.6932481668       39.5371737508       60.1089397982  TIP3      4080            0.0000000000
     63754      5440  TIP3      H1            -32.0496338795       39.6644661724       61.0075194321  TIP3      4080            0.0000000000
     63755      5440  TIP3      H2            -32.5117434112       39.6114832844       59.6077685219  TIP3      4080            0.0000000000
     63756      5441  TIP3      OH2           -29.7958232707       38.5672080783       58.6176559204  TIP3      4081            0.0000000000
     63757      5441  TIP3      H1            -30.3380082725       39.1792812079       59.1525803520  TIP3      4081            0.0000000000
     63758      5441  TIP3      H2            -29.1642439098       38.4444956889       59.3384063126  TIP3      4081            0.0000000000
     63759      5442  TIP3      OH2           -27.4403981167       36.8397221635       61.7487799985  TIP3      4082            0.0000000000
     63760      5442  TIP3      H1            -27.8329348050       36.4079794854       60.9659473753  TIP3      4082            0.0000000000
     63761      5442  TIP3      H2            -27.9737781885       37.6573223712       61.7973092379  TIP3      4082            0.0000000000
     63762      5443  TIP3      OH2           -36.8146550505       38.8902705398       60.0113033214  TIP3      4083            0.0000000000
     63763      5443  TIP3      H1            -37.2808324920       38.2924153724       59.3828995914  TIP3      4083            0.0000000000
     63764      5443  TIP3      H2            -37.4144214025       38.6355766754       60.7456901517  TIP3      4083            0.0000000000
     63765      5444  TIP3      OH2           -32.9192243721       34.9233990426       59.0357553800  TIP3      4084            0.0000000000
     63766      5444  TIP3      H1            -32.2214869909       34.2482174394       59.0082316357  TIP3      4084            0.0000000000
     63767      5444  TIP3      H2            -32.9935744623       35.1774535341       58.0952187022  TIP3      4084            0.0000000000
     63768      5445  TIP3      OH2           -32.5914203395       36.5423724972       61.1489629143  TIP3      4085            0.0000000000
     63769      5445  TIP3      H1            -32.6866678568       36.1213570577       60.2747024532  TIP3      4085            0.0000000000
     63770      5445  TIP3      H2            -33.0791468494       37.3874560168       61.0457837250  TIP3      4085            0.0000000000
     63771      5446  TIP3      OH2           -24.6570560672       37.7280000652       43.9262585237  TIP3      4086            0.0000000000
     63772      5446  TIP3      H1            -23.9829209701       37.9797834035       43.2716258524  TIP3      4086            0.0000000000
     63773      5446  TIP3      H2            -25.3504074315       37.9462173726       43.2574137126  TIP3      4086            0.0000000000
     63774      5447  TIP3      OH2           -25.2378202452       40.1750126554       47.4356752852  TIP3      4087            0.0000000000
     63775      5447  TIP3      H1            -24.9210695151       39.2582009486       47.6363903800  TIP3      4087            0.0000000000
     63776      5447  TIP3      H2            -24.4093925709       40.5622783832       47.1503589800  TIP3      4087            0.0000000000
     63777      5448  TIP3      OH2           -25.5486006492      -40.3915386685       51.6545031060  TIP3      4088            0.0000000000
     63778      5448  TIP3      H1            -24.5752827471      -40.3858837519       51.8650735893  TIP3      4088            0.0000000000
     63779      5448  TIP3      H2            -25.6068241482      -40.5814496555       52.6391539455  TIP3      4088            0.0000000000
     63780      5449  TIP3      OH2           -40.1007161024       40.5660438242       58.7050750374  TIP3      4089            0.0000000000
     63781      5449  TIP3      H1            -39.3141575003       40.1927774174       59.1374901689  TIP3      4089            0.0000000000
     63782      5449  TIP3      H2            -40.5624387273       39.8429147117       59.1942842599  TIP3      4089            0.0000000000
     63783      5450  TIP3      OH2           -22.2238051525       35.5247609619       61.1620482086  TIP3      4090            0.0000000000
     63784      5450  TIP3      H1            -21.9296671093       34.8394545270       60.5504696163  TIP3      4090            0.0000000000
     63785      5450  TIP3      H2            -22.1454285508       36.3334564322       60.6507503791  TIP3      4090            0.0000000000
     63786      5451  TIP3      OH2           -24.5858516432       37.5220048256       47.5826572782  TIP3      4091            0.0000000000
     63787      5451  TIP3      H1            -24.3481291498       37.0083879891       48.3773504736  TIP3      4091            0.0000000000
     63788      5451  TIP3      H2            -25.1107106928       36.8375581381       47.1092390672  TIP3      4091            0.0000000000
     63789      5452  TIP3      OH2           -38.4751501872       38.5370099932       53.2450156836  TIP3      4092            0.0000000000
     63790      5452  TIP3      H1            -38.6288460521       37.7497051293       52.7011125117  TIP3      4092            0.0000000000
     63791      5452  TIP3      H2            -38.2650539495       39.1939616331       52.5551892349  TIP3      4092            0.0000000000
     63792      5453  TIP3      OH2           -39.5468651399       36.9710213469       47.9825330383  TIP3      4093            0.0000000000
     63793      5453  TIP3      H1            -40.4437344391       37.2440425869       47.7673834141  TIP3      4093            0.0000000000
     63794      5453  TIP3      H2            -39.2815685788       37.5940119459       47.2735320585  TIP3      4093            0.0000000000
     63795      5454  TIP3      OH2            41.4473995247       36.3243645687       55.0921967576  TIP3      4094            0.0000000000
     63796      5454  TIP3      H1             40.8434148835       36.1234914009       55.8675078516  TIP3      4094            0.0000000000
     63797      5454  TIP3      H2             40.7777958129       37.0022199296       54.8435016107  TIP3      4094            0.0000000000
     63798      5455  TIP3      OH2           -30.3351448154       37.1597424596       51.5724803846  TIP3      4095            0.0000000000
     63799      5455  TIP3      H1            -30.9569216688       36.4688012322       51.8650181275  TIP3      4095            0.0000000000
     63800      5455  TIP3      H2            -29.7241393545       36.6472597667       51.0221383118  TIP3      4095            0.0000000000
     63801      5456  TIP3      OH2           -23.4586819822       36.3777534715       49.9964942233  TIP3      4096            0.0000000000
     63802      5456  TIP3      H1            -22.8247511149       35.8570915306       49.4909139817  TIP3      4096            0.0000000000
     63803      5456  TIP3      H2            -23.0025986012       37.2421670689       50.0463254048  TIP3      4096            0.0000000000
     63804      5457  TIP3      OH2           -37.8049912934       35.2030329791       48.6622119276  TIP3      4097            0.0000000000
     63805      5457  TIP3      H1            -38.7384671192       35.4532097556       48.8883661678  TIP3      4097            0.0000000000
     63806      5457  TIP3      H2            -37.4728745303       34.7408727208       49.4369609483  TIP3      4097            0.0000000000
     63807      5458  TIP3      OH2           -38.4271846155       35.5278040394       45.6976294126  TIP3      4098            0.0000000000
     63808      5458  TIP3      H1            -38.5487838022       36.2078207877       44.9703909406  TIP3      4098            0.0000000000
     63809      5458  TIP3      H2            -39.2636042254       35.8321687867       46.1527888809  TIP3      4098            0.0000000000
     63810      5459  TIP3      OH2           -33.4313600129       35.7349321200       49.2380097788  TIP3      4099            0.0000000000
     63811      5459  TIP3      H1            -32.5096217033       36.0414390902       49.1482498918  TIP3      4099            0.0000000000
     63812      5459  TIP3      H2            -33.4786983403       35.4748443977       50.1579636261  TIP3      4099            0.0000000000
     63813      5460  TIP3      OH2           -27.7915655353       35.7068411017       50.8728291209  TIP3      4100            0.0000000000
     63814      5460  TIP3      H1            -27.7345138421       35.8293003538       49.9202777245  TIP3      4100            0.0000000000
     63815      5460  TIP3      H2            -28.1031406142       34.7907720247       50.9772996237  TIP3      4100            0.0000000000
     63816      5461  TIP3      OH2           -26.4546342460       35.7462382237       46.5646539627  TIP3      4101            0.0000000000
     63817      5461  TIP3      H1            -27.1816082104       36.3405814957       46.3582077477  TIP3      4101            0.0000000000
     63818      5461  TIP3      H2            -26.8932660058       34.8918035610       46.7283909052  TIP3      4101            0.0000000000
     63819      5462  TIP3      OH2           -37.2628432426       37.1500603045       43.7577440906  TIP3      4102            0.0000000000
     63820      5462  TIP3      H1            -36.6247178735       36.9173061243       43.0805847548  TIP3      4102            0.0000000000
     63821      5462  TIP3      H2            -36.6814950390       37.7864340989       44.2700642953  TIP3      4102            0.0000000000
     63822      5463  TIP3      OH2           -32.2682229984       37.7292535329       46.0719671857  TIP3      4103            0.0000000000
     63823      5463  TIP3      H1            -32.0188205730       37.1368012772       46.7958009546  TIP3      4103            0.0000000000
     63824      5463  TIP3      H2            -32.2460749302       38.5870368553       46.5646626993  TIP3      4103            0.0000000000
     63825      5464  TIP3      OH2           -38.0038970034       36.4258681757       59.0628677550  TIP3      4104            0.0000000000
     63826      5464  TIP3      H1            -38.3341689810       35.5503878800       59.3289927002  TIP3      4104            0.0000000000
     63827      5464  TIP3      H2            -37.0608645292       36.2948698354       59.3102115367  TIP3      4104            0.0000000000
     63828      5465  TIP3      OH2           -36.0035166753       35.6612942540       60.4892356991  TIP3      4105            0.0000000000
     63829      5465  TIP3      H1            -35.1233141652       35.3032325464       60.2854183269  TIP3      4105            0.0000000000
     63830      5465  TIP3      H2            -36.4161208747       34.9026846209       60.9568649505  TIP3      4105            0.0000000000
     63831      5466  TIP3      OH2           -27.6378788037       34.6783549239       60.5299191292  TIP3      4106            0.0000000000
     63832      5466  TIP3      H1            -27.5348201906       34.5188287752       61.4947995385  TIP3      4106            0.0000000000
     63833      5466  TIP3      H2            -26.7075133272       34.9161254236       60.3111188170  TIP3      4106            0.0000000000
     63834      5467  TIP3      OH2            -3.9924786419       38.1239892518       54.0745708607  TIP3      4107            0.0000000000
     63835      5467  TIP3      H1             -3.9908890598       38.7832222470       54.7732649441  TIP3      4107            0.0000000000
     63836      5467  TIP3      H2             -3.6730418006       38.6090878794       53.3161095379  TIP3      4107            0.0000000000
     63837      5468  TIP3      OH2           -16.4395309354       39.1436312051       50.8189369752  TIP3      4108            0.0000000000
     63838      5468  TIP3      H1            -16.3332967054       39.9427627814       50.2952809281  TIP3      4108            0.0000000000
     63839      5468  TIP3      H2            -16.8232777786       38.5500576632       50.1337015694  TIP3      4108            0.0000000000
     63840      5469  TIP3      OH2           -17.5599818591       37.9898078785       54.8619511897  TIP3      4109            0.0000000000
     63841      5469  TIP3      H1            -17.8336336013       38.5491048072       54.1064216466  TIP3      4109            0.0000000000
     63842      5469  TIP3      H2            -18.2384295719       38.2594388707       55.5319172362  TIP3      4109            0.0000000000
     63843      5470  TIP3      OH2           -17.9196914477       39.7289838346       52.9511291377  TIP3      4110            0.0000000000
     63844      5470  TIP3      H1            -17.4303997831       40.5437505175       53.1696203043  TIP3      4110            0.0000000000
     63845      5470  TIP3      H2            -17.4492812680       39.4501378136       52.1263632755  TIP3      4110            0.0000000000
     63846      5471  TIP3      OH2            -6.6308552024       37.2098728125       54.8398457724  TIP3      4111            0.0000000000
     63847      5471  TIP3      H1             -7.3296620524       37.8688761177       54.7834083731  TIP3      4111            0.0000000000
     63848      5471  TIP3      H2             -5.8928759551       37.6167573442       54.3378480925  TIP3      4111            0.0000000000
     63849      5472  TIP3      OH2           -13.5787879776       35.3513045065       52.2638578427  TIP3      4112            0.0000000000
     63850      5472  TIP3      H1            -13.7063094798       34.3956382222       52.2486125151  TIP3      4112            0.0000000000
     63851      5472  TIP3      H2            -14.4437751714       35.6791737164       52.5819118594  TIP3      4112            0.0000000000
     63852      5473  TIP3      OH2           -16.2316335080       36.2470129396       53.0632677543  TIP3      4113            0.0000000000
     63853      5473  TIP3      H1            -17.1107598950       36.1438505406       52.6722984010  TIP3      4113            0.0000000000
     63854      5473  TIP3      H2            -16.3449727207       37.0838072916       53.5420958690  TIP3      4113            0.0000000000
     63855      5474  TIP3      OH2           -11.6050869507       35.9082344658       56.4444057103  TIP3      4114            0.0000000000
     63856      5474  TIP3      H1            -11.1965337583       35.4991341632       57.2243577895  TIP3      4114            0.0000000000
     63857      5474  TIP3      H2            -12.5798771437       35.7749706839       56.5773901007  TIP3      4114            0.0000000000
     63858      5475  TIP3      OH2            -8.2694155934       39.7302345818       57.3008445942  TIP3      4115            0.0000000000
     63859      5475  TIP3      H1             -8.8177520538       39.5562216180       58.0943451125  TIP3      4115            0.0000000000
     63860      5475  TIP3      H2             -8.4787297427       40.6309118249       57.0729506793  TIP3      4115            0.0000000000
     63861      5476  TIP3      OH2           -11.7853958119       38.4604570603       43.8865673518  TIP3      4116            0.0000000000
     63862      5476  TIP3      H1            -12.3720098920       38.4366734432       44.6798838588  TIP3      4116            0.0000000000
     63863      5476  TIP3      H2            -12.2459537445       37.7087888742       43.4283926522  TIP3      4116            0.0000000000
     63864      5477  TIP3      OH2           -15.2658715141       38.5292906261       42.7521268673  TIP3      4117            0.0000000000
     63865      5477  TIP3      H1            -15.6048935863       38.4448993837       43.6463143490  TIP3      4117            0.0000000000
     63866      5477  TIP3      H2            -15.7936576710       39.2548759213       42.3944400964  TIP3      4117            0.0000000000
     63867      5478  TIP3      OH2           -21.8242943978       38.4196531719       49.9674310752  TIP3      4118            0.0000000000
     63868      5478  TIP3      H1            -21.1309135863       38.5519163198       50.6381668098  TIP3      4118            0.0000000000
     63869      5478  TIP3      H2            -21.3282150711       38.2407951797       49.1621805499  TIP3      4118            0.0000000000
     63870      5479  TIP3      OH2           -20.4760582604       39.3978555743       45.4839333115  TIP3      4119            0.0000000000
     63871      5479  TIP3      H1            -20.1250262999       39.8894548111       44.7338181641  TIP3      4119            0.0000000000
     63872      5479  TIP3      H2            -21.3249768505       39.8360649549       45.6161689830  TIP3      4119            0.0000000000
     63873      5480  TIP3      OH2           -13.5869745969       38.8407152964       50.1755360159  TIP3      4120            0.0000000000
     63874      5480  TIP3      H1            -14.5240941958       38.8661769146       50.4473922485  TIP3      4120            0.0000000000
     63875      5480  TIP3      H2            -13.1054734180       38.7451510139       51.0106132804  TIP3      4120            0.0000000000
     63876      5481  TIP3      OH2           -18.9548451502       39.8157272445       49.0137749877  TIP3      4121            0.0000000000
     63877      5481  TIP3      H1            -19.6128414875       40.2904459664       48.4983017586  TIP3      4121            0.0000000000
     63878      5481  TIP3      H2            -18.4196207052       39.3141822970       48.3673372508  TIP3      4121            0.0000000000
     63879      5482  TIP3      OH2           -15.2582439238      -41.0280684416       46.7071375946  TIP3      4122            0.0000000000
     63880      5482  TIP3      H1            -14.3174523699      -40.9142998340       46.9142390138  TIP3      4122            0.0000000000
     63881      5482  TIP3      H2            -15.3965894734      -40.3543414742       46.0225624245  TIP3      4122            0.0000000000
     63882      5483  TIP3      OH2            -9.1793626727       37.9955293543       53.4313376134  TIP3      4123            0.0000000000
     63883      5483  TIP3      H1             -9.8602930473       38.2053027222       54.1032709111  TIP3      4123            0.0000000000
     63884      5483  TIP3      H2             -9.7154888538       37.9405509367       52.6414996513  TIP3      4123            0.0000000000
     63885      5484  TIP3      OH2           -17.3299284999       37.7861224675       48.4695173824  TIP3      4124            0.0000000000
     63886      5484  TIP3      H1            -17.5740764564       36.8532689408       48.5025202168  TIP3      4124            0.0000000000
     63887      5484  TIP3      H2            -16.5246287582       37.7324886095       47.9451725689  TIP3      4124            0.0000000000
     63888      5485  TIP3      OH2           -13.7365102014       39.8424179011       54.5282457937  TIP3      4125            0.0000000000
     63889      5485  TIP3      H1            -14.4440487159       40.4811808046       54.5448538774  TIP3      4125            0.0000000000
     63890      5485  TIP3      H2            -13.1096144234       40.2860564781       55.1535600308  TIP3      4125            0.0000000000
     63891      5486  TIP3      OH2            -9.2051508474       38.5106068566       44.4001054802  TIP3      4126            0.0000000000
     63892      5486  TIP3      H1            -10.1104814118       38.7447261283       44.0330495089  TIP3      4126            0.0000000000
     63893      5486  TIP3      H2             -8.4756823242       39.1404607369       44.4864706490  TIP3      4126            0.0000000000
     63894      5487  TIP3      OH2           -19.3645206888       38.6987287253       56.8038752501  TIP3      4127            0.0000000000
     63895      5487  TIP3      H1            -20.2744530294       39.0792270936       56.7664020245  TIP3      4127            0.0000000000
     63896      5487  TIP3      H2            -19.5378467562       37.8726744207       57.2654686416  TIP3      4127            0.0000000000
     63897      5488  TIP3      OH2           -10.6570657159       38.4725821322       55.6991541736  TIP3      4128            0.0000000000
     63898      5488  TIP3      H1             -9.9154122360       38.5696448325       56.3177128881  TIP3      4128            0.0000000000
     63899      5488  TIP3      H2            -11.0145375346       37.5987353864       55.9161714803  TIP3      4128            0.0000000000
     63900      5489  TIP3      OH2            -9.8899829530       38.1430725694       46.9228121800  TIP3      4129            0.0000000000
     63901      5489  TIP3      H1             -9.5917966464       38.4137511230       46.0531288350  TIP3      4129            0.0000000000
     63902      5489  TIP3      H2             -9.2285407129       38.5004627387       47.5346639782  TIP3      4129            0.0000000000
     63903      5490  TIP3      OH2           -12.5847340179       39.8894222776       47.6521114607  TIP3      4130            0.0000000000
     63904      5490  TIP3      H1            -11.8139885004       40.4179443646       47.8293445606  TIP3      4130            0.0000000000
     63905      5490  TIP3      H2            -12.9271548363       39.6948638846       48.5590210177  TIP3      4130            0.0000000000
     63906      5491  TIP3      OH2           -11.7084628649      -40.5024931794       56.2763034667  TIP3      4131            0.0000000000
     63907      5491  TIP3      H1            -11.9720786967      -40.0027492196       57.0589113752  TIP3      4131            0.0000000000
     63908      5491  TIP3      H2            -11.4358862651      -41.3239108512       56.7099233924  TIP3      4131            0.0000000000
     63909      5492  TIP3      OH2           -11.6578962738       36.9378042590       48.6099349778  TIP3      4132            0.0000000000
     63910      5492  TIP3      H1            -12.1080682614       37.5543977120       49.2375570196  TIP3      4132            0.0000000000
     63911      5492  TIP3      H2            -11.0846942519       37.5503880034       48.1146281863  TIP3      4132            0.0000000000
     63912      5493  TIP3      OH2           -15.5597509960       39.7808423044       58.4485193671  TIP3      4133            0.0000000000
     63913      5493  TIP3      H1            -15.3523531252       39.0845923056       57.7973360153  TIP3      4133            0.0000000000
     63914      5493  TIP3      H2            -15.4392744959       40.5933865283       57.9282084365  TIP3      4133            0.0000000000
     63915      5494  TIP3      OH2           -15.0791259604       38.1286972045       55.9411800353  TIP3      4134            0.0000000000
     63916      5494  TIP3      H1            -14.5021190326       38.6177697760       55.2981515684  TIP3      4134            0.0000000000
     63917      5494  TIP3      H2            -15.9520304007       38.1004167059       55.4997890090  TIP3      4134            0.0000000000
     63918      5495  TIP3      OH2           -14.2344932422       35.6196351826       56.3524588102  TIP3      4135            0.0000000000
     63919      5495  TIP3      H1            -14.4165859997       36.5851592653       56.2635457526  TIP3      4135            0.0000000000
     63920      5495  TIP3      H2            -14.9594750562       35.2188252675       55.8781877754  TIP3      4135            0.0000000000
     63921      5496  TIP3      OH2           -13.2967397674       38.8165304290       60.4480407487  TIP3      4136            0.0000000000
     63922      5496  TIP3      H1            -13.3150241690       39.5610197690       61.0908927232  TIP3      4136            0.0000000000
     63923      5496  TIP3      H2            -13.7278306553       39.3474248559       59.7485325143  TIP3      4136            0.0000000000
     63924      5497  TIP3      OH2           -10.1714703477       38.8482045574       58.9233583190  TIP3      4137            0.0000000000
     63925      5497  TIP3      H1            -11.0928097900       39.0611249715       59.1334390331  TIP3      4137            0.0000000000
     63926      5497  TIP3      H2             -9.8947578021       38.4377815135       59.7566367848  TIP3      4137            0.0000000000
     63927      5498  TIP3      OH2            -8.7710278377       37.7350027693       60.9967134753  TIP3      4138            0.0000000000
     63928      5498  TIP3      H1             -8.7486245326       36.7738166414       61.0003793182  TIP3      4138            0.0000000000
     63929      5498  TIP3      H2             -8.9777664335       38.0077374134       61.9190923462  TIP3      4138            0.0000000000
     63930      5499  TIP3      OH2           -18.8893429630       38.9353251933       60.0731600983  TIP3      4139            0.0000000000
     63931      5499  TIP3      H1            -18.5877411546       38.2443419397       59.4420174143  TIP3      4139            0.0000000000
     63932      5499  TIP3      H2            -18.9237026636       38.4793573982       60.9118320803  TIP3      4139            0.0000000000
     63933      5500  TIP3      OH2           -14.0225552345       34.9784024617       59.0222414598  TIP3      4140            0.0000000000
     63934      5500  TIP3      H1            -13.3600357055       34.2685854919       58.9998521711  TIP3      4140            0.0000000000
     63935      5500  TIP3      H2            -14.1681657141       35.1446894494       58.0790741705  TIP3      4140            0.0000000000
     63936      5501  TIP3      OH2           -13.7578826061       36.4478323621       61.2245491697  TIP3      4141            0.0000000000
     63937      5501  TIP3      H1            -13.8680876130       36.0692345917       60.3195431003  TIP3      4141            0.0000000000
     63938      5501  TIP3      H2            -14.1676024845       37.3373581788       61.0726191115  TIP3      4141            0.0000000000
     63939      5502  TIP3      OH2            -6.3117769352       40.1197474560       47.5328762597  TIP3      4142            0.0000000000
     63940      5502  TIP3      H1             -5.9416947060       39.2355828941       47.7322611022  TIP3      4142            0.0000000000
     63941      5502  TIP3      H2             -5.5212430764       40.5548806027       47.1703432110  TIP3      4142            0.0000000000
     63942      5503  TIP3      OH2            -5.5123857712      -41.1051947475       53.4653841881  TIP3      4143            0.0000000000
     63943      5503  TIP3      H1             -4.9675412270      -40.4826267724       52.9416110151  TIP3      4143            0.0000000000
     63944      5503  TIP3      H2             -6.0010031256      -40.4913288745       54.0050047619  TIP3      4143            0.0000000000
     63945      5504  TIP3      OH2           -21.3647639025       39.9291149649       59.2387437768  TIP3      4144            0.0000000000
     63946      5504  TIP3      H1            -20.4226036681       39.7603957486       59.4195457694  TIP3      4144            0.0000000000
     63947      5504  TIP3      H2            -21.8638612573       39.2048759011       59.6056299186  TIP3      4144            0.0000000000
     63948      5505  TIP3      OH2           -20.1799982667       38.2954143408       52.1155879233  TIP3      4145            0.0000000000
     63949      5505  TIP3      H1            -19.7533844448       37.4862415160       52.4263465742  TIP3      4145            0.0000000000
     63950      5505  TIP3      H2            -19.6385095449       38.9707479085       52.5548471605  TIP3      4145            0.0000000000
     63951      5506  TIP3      OH2           -11.4434444803       37.1288434186       51.5203700369  TIP3      4146            0.0000000000
     63952      5506  TIP3      H1            -12.1006640472       36.4992300135       51.8758150999  TIP3      4146            0.0000000000
     63953      5506  TIP3      H2            -10.8628662705       36.5902761343       50.9986744308  TIP3      4146            0.0000000000
     63954      5507  TIP3      OH2           -14.5844913026       35.7458665195       49.2393037580  TIP3      4147            0.0000000000
     63955      5507  TIP3      H1            -13.6736929518       36.0537514164       49.1810282663  TIP3      4147            0.0000000000
     63956      5507  TIP3      H2            -14.6591349855       35.4836473702       50.1541937159  TIP3      4147            0.0000000000
     63957      5508  TIP3      OH2            -7.6640201569       35.8097100271       46.5014253600  TIP3      4148            0.0000000000
     63958      5508  TIP3      H1             -8.3696103599       36.4113951380       46.3457451186  TIP3      4148            0.0000000000
     63959      5508  TIP3      H2             -8.0141413350       34.9271392220       46.6793155978  TIP3      4148            0.0000000000
     63960      5509  TIP3      OH2           -13.2171234095       37.7025609986       46.0832220114  TIP3      4149            0.0000000000
     63961      5509  TIP3      H1            -13.3032281075       37.1214615400       46.8397176303  TIP3      4149            0.0000000000
     63962      5509  TIP3      H2            -13.4921397785       38.5393151286       46.5298322580  TIP3      4149            0.0000000000
     63963      5510  TIP3      OH2            14.8081651779       38.1303494222       54.0431339177  TIP3      4150            0.0000000000
     63964      5510  TIP3      H1             14.8951672104       38.8040998346       54.7543259514  TIP3      4150            0.0000000000
     63965      5510  TIP3      H2             15.1915039758       38.6480976510       53.3322289885  TIP3      4150            0.0000000000
     63966      5511  TIP3      OH2             2.9512070269       38.8739141929       50.8980930577  TIP3      4151            0.0000000000
     63967      5511  TIP3      H1              2.7012010063       39.7462290225       50.5390606441  TIP3      4151            0.0000000000
     63968      5511  TIP3      H2              2.2491552469       38.4676826164       50.3291163892  TIP3      4151            0.0000000000
     63969      5512  TIP3      OH2            15.2307796918       39.5870020926       56.2540086807  TIP3      4152            0.0000000000
     63970      5512  TIP3      H1             14.5919501717       40.2645678988       56.0851575607  TIP3      4152            0.0000000000
     63971      5512  TIP3      H2             15.2729474732       39.4862128221       57.2195771810  TIP3      4152            0.0000000000
     63972      5513  TIP3      OH2             1.4965778404       37.6569586041       54.6457235538  TIP3      4153            0.0000000000
     63973      5513  TIP3      H1              1.2799742032       38.3302730235       53.9585807513  TIP3      4153            0.0000000000
     63974      5513  TIP3      H2              0.8014281877       37.9379711961       55.2341585403  TIP3      4153            0.0000000000
     63975      5514  TIP3      OH2            11.9706175259       38.5398849948       51.1884974447  TIP3      4154            0.0000000000
     63976      5514  TIP3      H1             11.7411672332       37.7602483399       51.6864012189  TIP3      4154            0.0000000000
     63977      5514  TIP3      H2             12.5816144934       39.0220258586       51.7474738457  TIP3      4154            0.0000000000
     63978      5515  TIP3      OH2             1.1739542217       39.4753785721       52.5951805691  TIP3      4155            0.0000000000
     63979      5515  TIP3      H1              1.4845239316       40.3620811949       52.9222784370  TIP3      4155            0.0000000000
     63980      5515  TIP3      H2              1.7445843584       39.3079688174       51.8435657404  TIP3      4155            0.0000000000
     63981      5516  TIP3      OH2            12.2841923398       37.2996969922       54.8550798825  TIP3      4156            0.0000000000
     63982      5516  TIP3      H1             11.5182730522       37.8674721825       54.7289543906  TIP3      4156            0.0000000000
     63983      5516  TIP3      H2             12.9996073547       37.6676740993       54.3076833273  TIP3      4156            0.0000000000
     63984      5517  TIP3      OH2             5.2806814929       35.3317524578       52.2788596012  TIP3      4157            0.0000000000
     63985      5517  TIP3      H1              5.1125530821       34.3689792493       52.2465041343  TIP3      4157            0.0000000000
     63986      5517  TIP3      H2              4.4061399927       35.6602940695       52.5979421768  TIP3      4157            0.0000000000
     63987      5518  TIP3      OH2             2.6846143839       36.1793921484       52.9926301676  TIP3      4158            0.0000000000
     63988      5518  TIP3      H1              1.7665052290       36.0940334841       52.6586563987  TIP3      4158            0.0000000000
     63989      5518  TIP3      H2              2.5532212437       37.0138390089       53.4954716154  TIP3      4158            0.0000000000
     63990      5519  TIP3      OH2             7.2387582171       35.9231484449       56.4209048436  TIP3      4159            0.0000000000
     63991      5519  TIP3      H1              7.6469411826       35.5320361585       57.1955237213  TIP3      4159            0.0000000000
     63992      5519  TIP3      H2              6.2742172968       35.7703888342       56.5532655186  TIP3      4159            0.0000000000
     63993      5520  TIP3      OH2            10.5420297202       39.7157697346       57.3031040627  TIP3      4160            0.0000000000
     63994      5520  TIP3      H1             10.0068343565       39.5759210958       58.1150873410  TIP3      4160            0.0000000000
     63995      5520  TIP3      H2             10.3408915760       40.6285687231       57.0924709128  TIP3      4160            0.0000000000
     63996      5521  TIP3      OH2             6.9089408144       38.4781726207       43.7877097559  TIP3      4161            0.0000000000
     63997      5521  TIP3      H1              6.6104626095       38.4250793947       44.7209084497  TIP3      4161            0.0000000000
     63998      5521  TIP3      H2              6.6727555061       37.6035120312       43.4743503545  TIP3      4161            0.0000000000
     63999      5522  TIP3      OH2            -3.2514489332       38.3525456815       49.9339099790  TIP3      4162            0.0000000000
     64000      5522  TIP3      H1             -2.5638845284       38.4923217573       50.6081725367  TIP3      4162            0.0000000000
     64001      5522  TIP3      H2             -2.6976150257       38.1894218260       49.1627702121  TIP3      4162            0.0000000000
     64002      5523  TIP3      OH2             5.3503534204       38.8420507636       50.1482892932  TIP3      4163            0.0000000000
     64003      5523  TIP3      H1              4.3936072276       38.8644006725       50.4190458453  TIP3      4163            0.0000000000
     64004      5523  TIP3      H2              5.7458103198       38.7827661732       51.0263422104  TIP3      4163            0.0000000000
     64005      5524  TIP3      OH2             0.1052525325       40.5246395772       47.5300996349  TIP3      4164            0.0000000000
     64006      5524  TIP3      H1             -0.6059531019       40.7486048399       48.1627155867  TIP3      4164            0.0000000000
     64007      5524  TIP3      H2              0.4948676759       39.8623280920       48.1724031803  TIP3      4164            0.0000000000
     64008      5525  TIP3      OH2             4.0545569196      -41.7498152083       46.5210337068  TIP3      4165            0.0000000000
     64009      5525  TIP3      H1              4.7253711018      -41.1561079750       46.9358796951  TIP3      4165            0.0000000000
     64010      5525  TIP3      H2              3.6917026010      -41.0356225109       45.9842240784  TIP3      4165            0.0000000000
     64011      5526  TIP3      OH2             9.6551796257       38.0857117878       53.4198730183  TIP3      4166            0.0000000000
     64012      5526  TIP3      H1              8.9729691770       38.2256447158       54.1137349050  TIP3      4166            0.0000000000
     64013      5526  TIP3      H2              9.1380297157       37.9229563829       52.6280326490  TIP3      4166            0.0000000000
     64014      5527  TIP3      OH2             1.5296085703       37.6938900263       48.3852215253  TIP3      4167            0.0000000000
     64015      5527  TIP3      H1              1.2672175386       36.7714325194       48.4219483168  TIP3      4167            0.0000000000
     64016      5527  TIP3      H2              2.3510896733       37.6744299118       47.8648499986  TIP3      4167            0.0000000000
     64017      5528  TIP3      OH2             5.1716850041       39.9773679215       54.3929436083  TIP3      4168            0.0000000000
     64018      5528  TIP3      H1              4.3848511927       40.5086253771       54.5312418441  TIP3      4168            0.0000000000
     64019      5528  TIP3      H2              5.7531757834       40.2590220239       55.1326249512  TIP3      4168            0.0000000000
     64020      5529  TIP3      OH2             9.5898812010       39.0338931838       44.4287010236  TIP3      4169            0.0000000000
     64021      5529  TIP3      H1              8.6555212154       39.1530723989       44.1838833081  TIP3      4169            0.0000000000
     64022      5529  TIP3      H2              9.9278496189       39.9098721446       44.6024617534  TIP3      4169            0.0000000000
     64023      5530  TIP3      OH2             8.2817634677       38.3814135393       55.6176411109  TIP3      4170            0.0000000000
     64024      5530  TIP3      H1              8.9095658961       38.5422276225       56.3369103042  TIP3      4170            0.0000000000
     64025      5530  TIP3      H2              7.8462362974       37.5713900334       55.9275402258  TIP3      4170            0.0000000000
     64026      5531  TIP3      OH2             8.9592291239       38.1459274527       46.8682149196  TIP3      4171            0.0000000000
     64027      5531  TIP3      H1              9.2488540321       38.5521138410       46.0256840544  TIP3      4171            0.0000000000
     64028      5531  TIP3      H2              9.5917747916       38.5126808681       47.4931286806  TIP3      4171            0.0000000000
     64029      5532  TIP3      OH2             6.3930616764       39.7288192010       47.7064255022  TIP3      4172            0.0000000000
     64030      5532  TIP3      H1              7.0284479351       40.4500011830       47.7369884086  TIP3      4172            0.0000000000
     64031      5532  TIP3      H2              5.9774664694       39.7188380283       48.5897013693  TIP3      4172            0.0000000000
     64032      5533  TIP3      OH2             7.4231392739      -40.7669283374       56.4090979171  TIP3      4173            0.0000000000
     64033      5533  TIP3      H1              6.8760498863      -40.3414122266       57.1062638166  TIP3      4173            0.0000000000
     64034      5533  TIP3      H2              7.5809258814      -41.5668230625       56.9102295610  TIP3      4173            0.0000000000
     64035      5534  TIP3      OH2             7.1028400129       36.9262170339       48.6313969239  TIP3      4174            0.0000000000
     64036      5534  TIP3      H1              6.7144826719       37.6009091152       49.2171251526  TIP3      4174            0.0000000000
     64037      5534  TIP3      H2              7.7366679097       37.4641092912       48.0975974308  TIP3      4174            0.0000000000
     64038      5535  TIP3      OH2             2.8978593211       37.5527975011       46.1052827370  TIP3      4175            0.0000000000
     64039      5535  TIP3      H1              2.7183088333       38.4911674763       45.8718636418  TIP3      4175            0.0000000000
     64040      5535  TIP3      H2              3.7535128976       37.5880164541       45.6365437953  TIP3      4175            0.0000000000
     64041      5536  TIP3      OH2            12.9600356207       38.7782410930       57.6633981177  TIP3      4176            0.0000000000
     64042      5536  TIP3      H1             12.0106350823       39.0011358014       57.5704376369  TIP3      4176            0.0000000000
     64043      5536  TIP3      H2             13.2386902140       38.6783692626       56.7536435462  TIP3      4176            0.0000000000
     64044      5537  TIP3      OH2             0.1282145327       35.8983913845       52.1429618760  TIP3      4177            0.0000000000
     64045      5537  TIP3      H1             -0.0796690235       35.9328153221       51.1783633831  TIP3      4177            0.0000000000
     64046      5537  TIP3      H2             -0.3015260756       35.0562468356       52.3605732272  TIP3      4177            0.0000000000
     64047      5538  TIP3      OH2             3.9311166179       39.0294817882       59.3991151246  TIP3      4178            0.0000000000
     64048      5538  TIP3      H1              3.8029162643       38.8066962683       58.4463760629  TIP3      4178            0.0000000000
     64049      5538  TIP3      H2              3.6225599622       39.9730851915       59.1618760552  TIP3      4178            0.0000000000
     64050      5539  TIP3      OH2             3.8782374441       37.9639816236       55.7645101803  TIP3      4179            0.0000000000
     64051      5539  TIP3      H1              4.3652235651       38.6269937491       55.2320683631  TIP3      4179            0.0000000000
     64052      5539  TIP3      H2              2.9466441959       38.0519889020       55.4773635471  TIP3      4179            0.0000000000
     64053      5540  TIP3      OH2             4.6132329384       35.5642194789       56.3464338947  TIP3      4180            0.0000000000
     64054      5540  TIP3      H1              4.4575538250       36.5390761362       56.2472310618  TIP3      4180            0.0000000000
     64055      5540  TIP3      H2              3.8290702876       35.2479323379       55.8655166983  TIP3      4180            0.0000000000
     64056      5541  TIP3      OH2             6.0648614482       40.1956174677       60.3360583515  TIP3      4181            0.0000000000
     64057      5541  TIP3      H1              5.6533483091       39.6914381398       61.0996630584  TIP3      4181            0.0000000000
     64058      5541  TIP3      H2              5.2841595110       39.9664418379       59.8034360230  TIP3      4181            0.0000000000
     64059      5542  TIP3      OH2             8.5581202827       39.0211897211       58.9660117418  TIP3      4182            0.0000000000
     64060      5542  TIP3      H1              7.6384557492       39.1425249583       59.2110096443  TIP3      4182            0.0000000000
     64061      5542  TIP3      H2              8.9163686023       38.5041632235       59.7129583473  TIP3      4182            0.0000000000
     64062      5543  TIP3      OH2            10.1837562368       37.7553641538       60.9910511101  TIP3      4183            0.0000000000
     64063      5543  TIP3      H1             10.1606182648       36.7956403952       60.9937192941  TIP3      4183            0.0000000000
     64064      5543  TIP3      H2              9.9241276794       38.0134402482       61.9058388065  TIP3      4183            0.0000000000
     64065      5544  TIP3      OH2             4.8429016369       34.9489374515       59.0480782132  TIP3      4184            0.0000000000
     64066      5544  TIP3      H1              5.4834178440       34.2338995743       59.0329610976  TIP3      4184            0.0000000000
     64067      5544  TIP3      H2              4.7093790066       35.1444573243       58.1017390930  TIP3      4184            0.0000000000
     64068      5545  TIP3      OH2             5.2036644364       36.4520808043       61.1090110419  TIP3      4185            0.0000000000
     64069      5545  TIP3      H1              5.0025084409       36.0439272870       60.2461888284  TIP3      4185            0.0000000000
     64070      5545  TIP3      H2              4.6996409010       37.3074018498       61.0090567360  TIP3      4185            0.0000000000
     64071      5546  TIP3      OH2            12.5884462464       40.1085052348       47.6446387976  TIP3      4186            0.0000000000
     64072      5546  TIP3      H1             12.9066042941       39.1817809857       47.6543776619  TIP3      4186            0.0000000000
     64073      5546  TIP3      H2             13.2880545602       40.5531677340       47.1344402647  TIP3      4186            0.0000000000
     64074      5547  TIP3      OH2            13.5330944232      -41.0285287020       53.5479030676  TIP3      4187            0.0000000000
     64075      5547  TIP3      H1             14.0230133350      -40.4432702455       52.9510562883  TIP3      4187            0.0000000000
     64076      5547  TIP3      H2             12.8772265783      -40.4543798050       53.9405108933  TIP3      4187            0.0000000000
     64077      5548  TIP3      OH2            -2.5264221727       39.9543762161       59.2319906150  TIP3      4188            0.0000000000
     64078      5548  TIP3      H1             -1.6058620851       39.8263912874       59.4672462416  TIP3      4188            0.0000000000
     64079      5548  TIP3      H2             -2.9827409397       39.1883447958       59.5853214037  TIP3      4188            0.0000000000
     64080      5549  TIP3      OH2            15.4872684487       35.4459230817       61.1992095154  TIP3      4189            0.0000000000
     64081      5549  TIP3      H1             15.8296539834       34.8265533007       60.5542305377  TIP3      4189            0.0000000000
     64082      5549  TIP3      H2             15.5681586652       36.2683453847       60.6972719564  TIP3      4189            0.0000000000
     64083      5550  TIP3      OH2            13.1771578524       37.4533118331       47.5687912450  TIP3      4190            0.0000000000
     64084      5550  TIP3      H1             13.3497203161       37.0001976629       48.4146691918  TIP3      4190            0.0000000000
     64085      5550  TIP3      H2             12.5597603458       36.8607603142       47.1379165746  TIP3      4190            0.0000000000
     64086      5551  TIP3      OH2            -1.3552528682       38.1717806210       52.2861660988  TIP3      4191            0.0000000000
     64087      5551  TIP3      H1             -0.8013416690       37.3843887199       52.4157605674  TIP3      4191            0.0000000000
     64088      5551  TIP3      H2             -0.7551202702       38.9011753314       52.5009700386  TIP3      4191            0.0000000000
     64089      5552  TIP3      OH2             7.4291314680       37.0909508330       51.5880296166  TIP3      4192            0.0000000000
     64090      5552  TIP3      H1              6.7234606307       36.4812539763       51.8738990583  TIP3      4192            0.0000000000
     64091      5552  TIP3      H2              7.9194909526       36.5571159045       50.9766034292  TIP3      4192            0.0000000000
     64092      5553  TIP3      OH2            14.2354039406       36.3842211183       49.9318102904  TIP3      4193            0.0000000000
     64093      5553  TIP3      H1             14.9338888551       35.8465795039       49.5223577100  TIP3      4193            0.0000000000
     64094      5553  TIP3      H2             14.6657759695       37.2474083145       50.0820838880  TIP3      4193            0.0000000000
     64095      5554  TIP3      OH2            -0.2105509918       35.7433006301       49.4107829230  TIP3      4194            0.0000000000
     64096      5554  TIP3      H1             -0.9861541391       35.5028829906       48.9119309257  TIP3      4194            0.0000000000
     64097      5554  TIP3      H2              0.2687096794       34.9103297469       49.4149783734  TIP3      4194            0.0000000000
     64098      5555  TIP3      OH2             4.2996202298       35.6735232183       49.2136446174  TIP3      4195            0.0000000000
     64099      5555  TIP3      H1              5.1933856476       36.0381462270       49.1698139902  TIP3      4195            0.0000000000
     64100      5555  TIP3      H2              4.1901266363       35.5224092468       50.1576689718  TIP3      4195            0.0000000000
     64101      5556  TIP3      OH2             0.5724827129       36.7490025941       44.3278660477  TIP3      4196            0.0000000000
     64102      5556  TIP3      H1              0.8528487753       36.7385029200       43.3853149791  TIP3      4196            0.0000000000
     64103      5556  TIP3      H2              1.0636519542       37.5654336519       44.5102463168  TIP3      4196            0.0000000000
     64104      5557  TIP3      OH2             5.6109473210       37.7107802281       46.0423467398  TIP3      4197            0.0000000000
     64105      5557  TIP3      H1              5.6645286021       37.1061450883       46.7974360708  TIP3      4197            0.0000000000
     64106      5557  TIP3      H2              5.4102613351       38.5402627295       46.5555074100  TIP3      4197            0.0000000000
     64107      5558  TIP3      OH2             1.7009366008       35.6514824828       60.4218976594  TIP3      4198            0.0000000000
     64108      5558  TIP3      H1              2.5980219906       35.3413750961       60.2583821095  TIP3      4198            0.0000000000
     64109      5558  TIP3      H2              1.3872083478       34.8528649131       60.8660832874  TIP3      4198            0.0000000000
     64110      5559  TIP3      OH2            32.8842264177       38.2218135464       53.6640441929  TIP3      4199            0.0000000000
     64111      5559  TIP3      H1             33.1865947472       38.6671937792       54.5095454669  TIP3      4199            0.0000000000
     64112      5559  TIP3      H2             33.6476550942       38.5417590376       53.1896317237  TIP3      4199            0.0000000000
     64113      5560  TIP3      OH2            29.0356466331       39.1912878124       49.1532955787  TIP3      4200            0.0000000000
     64114      5560  TIP3      H1             29.6677516895       38.9258560823       49.8603721332  TIP3      4200            0.0000000000
     64115      5560  TIP3      H2             29.6276422578       39.7480099132       48.6307797175  TIP3      4200            0.0000000000
     64116      5561  TIP3      OH2            33.3486036207       39.4916818825       56.6517776835  TIP3      4201            0.0000000000
     64117      5561  TIP3      H1             33.5429044838       40.3022955621       56.1484959978  TIP3      4201            0.0000000000
     64118      5561  TIP3      H2             33.9923922081       39.5880586045       57.4007347688  TIP3      4201            0.0000000000
     64119      5562  TIP3      OH2            30.8288971138       38.4782940061       51.1212775773  TIP3      4202            0.0000000000
     64120      5562  TIP3      H1             30.5308338533       37.7946237310       51.7282957312  TIP3      4202            0.0000000000
     64121      5562  TIP3      H2             31.4014409638       39.0161658278       51.6989372615  TIP3      4202            0.0000000000
     64122      5563  TIP3      OH2            31.0125687120       37.2236004862       54.9722476362  TIP3      4203            0.0000000000
     64123      5563  TIP3      H1             30.3317093965       37.8774627546       54.7677765619  TIP3      4203            0.0000000000
     64124      5563  TIP3      H2             31.7283434593       37.5645609762       54.3866709871  TIP3      4203            0.0000000000
     64125      5564  TIP3      OH2            24.1621073216       35.2739791633       52.3782848431  TIP3      4204            0.0000000000
     64126      5564  TIP3      H1             23.9705662676       34.3306978568       52.2105749369  TIP3      4204            0.0000000000
     64127      5564  TIP3      H2             23.2909850454       35.6610828421       52.5259260757  TIP3      4204            0.0000000000
     64128      5565  TIP3      OH2            32.3651469585       35.2679328181       45.2728935584  TIP3      4205            0.0000000000
     64129      5565  TIP3      H1             31.4607359732       35.3827499691       45.6187745680  TIP3      4205            0.0000000000
     64130      5565  TIP3      H2             32.5312330936       36.1676336119       44.9785461379  TIP3      4205            0.0000000000
     64131      5566  TIP3      OH2            26.0471117354       35.9057309133       56.4186959728  TIP3      4206            0.0000000000
     64132      5566  TIP3      H1             26.5202860044       35.5550738062       57.1981288034  TIP3      4206            0.0000000000
     64133      5566  TIP3      H2             25.1292009213       35.7741500410       56.6480539524  TIP3      4206            0.0000000000
     64134      5567  TIP3      OH2            29.2865578337       39.7274441880       57.2780214908  TIP3      4207            0.0000000000
     64135      5567  TIP3      H1             28.8984088979       39.5996762393       58.1500778099  TIP3      4207            0.0000000000
     64136      5567  TIP3      H2             29.2142664639       40.6635954708       57.0956193016  TIP3      4207            0.0000000000
     64137      5568  TIP3      OH2            15.8688102379       38.6052688856       49.9785798644  TIP3      4208            0.0000000000
     64138      5568  TIP3      H1             16.4921813158       38.5018032842       50.6954457935  TIP3      4208            0.0000000000
     64139      5568  TIP3      H2             16.2871068621       38.2402113475       49.1885272611  TIP3      4208            0.0000000000
     64140      5569  TIP3      OH2            28.5045898734       38.0260717578       53.4297192075  TIP3      4209            0.0000000000
     64141      5569  TIP3      H1             27.8248076544       38.2286867739       54.1001996317  TIP3      4209            0.0000000000
     64142      5569  TIP3      H2             27.9714359603       37.9029949250       52.6310840869  TIP3      4209            0.0000000000
     64143      5570  TIP3      OH2            28.4766911584       39.1213623056       44.2385774648  TIP3      4210            0.0000000000
     64144      5570  TIP3      H1             27.5181649630       39.1528601120       44.2932479338  TIP3      4210            0.0000000000
     64145      5570  TIP3      H2             28.7820511379       39.8867486697       44.7290225976  TIP3      4210            0.0000000000
     64146      5571  TIP3      OH2            27.0426062062       38.5159693158       55.7400162091  TIP3      4211            0.0000000000
     64147      5571  TIP3      H1             27.8083204209       38.5593475098       56.3379532249  TIP3      4211            0.0000000000
     64148      5571  TIP3      H2             26.7061294994       37.6189133709       55.9052053656  TIP3      4211            0.0000000000
     64149      5572  TIP3      OH2            27.8803839139       38.0802051106       46.8269340708  TIP3      4212            0.0000000000
     64150      5572  TIP3      H1             28.1276186779       38.5438666626       46.0173912294  TIP3      4212            0.0000000000
     64151      5572  TIP3      H2             28.3921857497       38.5374545093       47.5184019548  TIP3      4212            0.0000000000
     64152      5573  TIP3      OH2            25.9918111747       36.9171930402       48.5851531820  TIP3      4213            0.0000000000
     64153      5573  TIP3      H1             25.5847463356       37.5616051654       49.1826268331  TIP3      4213            0.0000000000
     64154      5573  TIP3      H2             26.6162768369       37.4677363305       48.0788077575  TIP3      4213            0.0000000000
     64155      5574  TIP3      OH2            31.4807337943       38.4235215824       57.7725223176  TIP3      4214            0.0000000000
     64156      5574  TIP3      H1             30.7415184725       39.0230363700       57.5959663821  TIP3      4214            0.0000000000
     64157      5574  TIP3      H2             32.0852215112       38.6987684453       57.0301835172  TIP3      4214            0.0000000000
     64158      5575  TIP3      OH2            29.1128235433       37.7394252296       61.0121257432  TIP3      4215            0.0000000000
     64159      5575  TIP3      H1             28.9452958136       36.7701208016       60.9516287987  TIP3      4215            0.0000000000
     64160      5575  TIP3      H2             28.7527725436       37.9939200106       61.8752139111  TIP3      4215            0.0000000000
     64161      5576  TIP3      OH2            23.6611510024       34.8808922619       59.0253750972  TIP3      4216            0.0000000000
     64162      5576  TIP3      H1             24.4235446705       34.2958387432       59.0243715160  TIP3      4216            0.0000000000
     64163      5576  TIP3      H2             23.5888545069       35.2075682103       58.1355944402  TIP3      4216            0.0000000000
     64164      5577  TIP3      OH2            31.7230083627       38.6296234757       42.4943488987  TIP3      4217            0.0000000000
     64165      5577  TIP3      H1             32.3310013209       38.3127887156       43.1935237254  TIP3      4217            0.0000000000
     64166      5577  TIP3      H2             30.9007155061       38.2040889707       42.7559513793  TIP3      4217            0.0000000000
     64167      5578  TIP3      OH2            31.4545979626       40.1104338814       47.6932481119  TIP3      4218            0.0000000000
     64168      5578  TIP3      H1             31.7412879349       39.1786234732       47.6507012701  TIP3      4218            0.0000000000
     64169      5578  TIP3      H2             32.1476905671       40.5438362988       47.1652545423  TIP3      4218            0.0000000000
     64170      5579  TIP3      OH2            32.0815366429      -40.8677568415       53.5054932317  TIP3      4219            0.0000000000
     64171      5579  TIP3      H1             32.7411444715      -40.3619362111       52.9726005632  TIP3      4219            0.0000000000
     64172      5579  TIP3      H2             31.6511131784      -40.2761920671       54.0962019912  TIP3      4219            0.0000000000
     64173      5580  TIP3      OH2            34.3550139576       35.5643966504       61.0552570465  TIP3      4220            0.0000000000
     64174      5580  TIP3      H1             34.6900756506       34.8646770482       60.4817493503  TIP3      4220            0.0000000000
     64175      5580  TIP3      H2             34.4776938760       36.4040786771       60.5648441471  TIP3      4220            0.0000000000
     64176      5581  TIP3      OH2            32.0361906439       37.5058597674       47.6056391819  TIP3      4221            0.0000000000
     64177      5581  TIP3      H1             32.2365933413       37.0044274643       48.3984228965  TIP3      4221            0.0000000000
     64178      5581  TIP3      H2             31.4320704468       36.8896482503       47.1326804521  TIP3      4221            0.0000000000
     64179      5582  TIP3      OH2            33.8847086823       37.6076101481       59.4022831035  TIP3      4222            0.0000000000
     64180      5582  TIP3      H1             32.9545244169       37.8806967051       59.4413777799  TIP3      4222            0.0000000000
     64181      5582  TIP3      H2             33.8764597463       37.0217467088       58.6459634260  TIP3      4222            0.0000000000
     64182      5583  TIP3      OH2            32.8759943821       37.6573430051       44.7785228201  TIP3      4223            0.0000000000
     64183      5583  TIP3      H1             33.3773173721       37.0023949863       44.2186921301  TIP3      4223            0.0000000000
     64184      5583  TIP3      H2             33.6575753655       38.2602037415       44.5910738771  TIP3      4223            0.0000000000
     64185      5584  TIP3      OH2            16.1334904972       36.2520482545       55.5895935348  TIP3      4224            0.0000000000
     64186      5584  TIP3      H1             15.4485711900       36.0279901192       56.2132850925  TIP3      4224            0.0000000000
     64187      5584  TIP3      H2             15.6970515489       36.8868347506       54.9868728294  TIP3      4224            0.0000000000
     64188      5585  TIP3      OH2            32.9474452156       35.6856128753       57.2825403220  TIP3      4225            0.0000000000
     64189      5585  TIP3      H1             32.0848239067       36.0131336414       56.9513538322  TIP3      4225            0.0000000000
     64190      5585  TIP3      H2             32.9921692111       34.8752220391       56.7556259625  TIP3      4225            0.0000000000
     64191      5586  TIP3      OH2            26.3200770187       37.1226056042       51.6411804932  TIP3      4226            0.0000000000
     64192      5586  TIP3      H1             25.5963903811       36.5005048278       51.8013941968  TIP3      4226            0.0000000000
     64193      5586  TIP3      H2             26.8435954622       36.6473625557       50.9896520811  TIP3      4226            0.0000000000
     64194      5587  TIP3      OH2            31.4510172420       35.3072677623       51.7160061297  TIP3      4227            0.0000000000
     64195      5587  TIP3      H1             32.0252081099       35.8413743818       51.1640752562  TIP3      4227            0.0000000000
     64196      5587  TIP3      H2             30.5578154852       35.6125070556       51.4655294577  TIP3      4227            0.0000000000
     64197      5588  TIP3      OH2            28.8320725630       35.6958510697       50.8166793151  TIP3      4228            0.0000000000
     64198      5588  TIP3      H1             28.7769623039       35.8271477692       49.8645264793  TIP3      4228            0.0000000000
     64199      5588  TIP3      H2             28.4276792717       34.8163655204       50.9608237427  TIP3      4228            0.0000000000
     64200      5589  TIP3      OH2            30.1046333227       35.7977310777       46.5703690799  TIP3      4229            0.0000000000
     64201      5589  TIP3      H1             29.3749769664       36.3865684465       46.3360434522  TIP3      4229            0.0000000000
     64202      5589  TIP3      H2             29.6736276866       34.9343386899       46.6851502693  TIP3      4229            0.0000000000
     64203      5590  TIP3      OH2            18.5338172900       36.3406189943       58.9284391429  TIP3      4230            0.0000000000
     64204      5590  TIP3      H1             18.2487647698       35.5230703841       59.3359782341  TIP3      4230            0.0000000000
     64205      5590  TIP3      H2             19.4636434619       36.3220998076       59.2514740790  TIP3      4230            0.0000000000
     64206      5591  TIP3      OH2            20.5296699731       35.5820417113       60.4195666326  TIP3      4231            0.0000000000
     64207      5591  TIP3      H1             21.4619323582       35.3331932203       60.3184800441  TIP3      4231            0.0000000000
     64208      5591  TIP3      H2             20.1811959827       34.8622320041       60.9709057190  TIP3      4231            0.0000000000
     64209      5592  TIP3      OH2            28.9806881115       35.0664550392       60.7170530691  TIP3      4232            0.0000000000
     64210      5592  TIP3      H1             29.0398472074       34.4630156949       61.4526533454  TIP3      4232            0.0000000000
     64211      5592  TIP3      H2             29.8277030254       34.9405890339       60.2589609629  TIP3      4232            0.0000000000
     64212      5593  TIP3      OH2            40.1304337531       40.1227037964       50.7653693723  TIP3      4233            0.0000000000
     64213      5593  TIP3      H1             40.2129321324       40.4023189831       49.8810113397  TIP3      4233            0.0000000000
     64214      5593  TIP3      H2             39.6303730033       39.2611499010       50.6338442949  TIP3      4233            0.0000000000
     64215      5594  TIP3      OH2            39.9390644839       38.3100067046       55.1204505732  TIP3      4234            0.0000000000
     64216      5594  TIP3      H1             39.4994148206       38.0485001451       54.2558251753  TIP3      4234            0.0000000000
     64217      5594  TIP3      H2             39.0611016624       38.1468716557       55.5560106298  TIP3      4234            0.0000000000
     64218      5595  TIP3      OH2            38.5745399797       40.8120090258       52.4818313711  TIP3      4235            0.0000000000
     64219      5595  TIP3      H1             39.2370441772       40.8277524800       53.2116459049  TIP3      4235            0.0000000000
     64220      5595  TIP3      H2             38.9760501990       39.9689165473       52.1860121120  TIP3      4235            0.0000000000
     64221      5596  TIP3      OH2            39.7089347770       35.6293109131       53.4678710890  TIP3      4236            0.0000000000
     64222      5596  TIP3      H1             39.2222755095       35.8978958837       52.6645205837  TIP3      4236            0.0000000000
     64223      5596  TIP3      H2             40.0834534819       36.5271168216       53.6416881581  TIP3      4236            0.0000000000
     64224      5597  TIP3      OH2            34.3393281102       40.0882786732       49.3579179463  TIP3      4237            0.0000000000
     64225      5597  TIP3      H1             34.7011821499       39.5597957263       50.1052943731  TIP3      4237            0.0000000000
     64226      5597  TIP3      H2             34.5376985989       39.3079877823       48.7762029368  TIP3      4237            0.0000000000
     64227      5598  TIP3      OH2            36.0397329876       39.5010596596       45.7407668836  TIP3      4238            0.0000000000
     64228      5598  TIP3      H1             36.3809505851       39.8985439006       44.9306358089  TIP3      4238            0.0000000000
     64229      5598  TIP3      H2             35.1707254328       39.9310558241       45.7173962169  TIP3      4238            0.0000000000
     64230      5599  TIP3      OH2            37.6957795722       40.3380562013       48.2886141873  TIP3      4239            0.0000000000
     64231      5599  TIP3      H1             36.7692505344       40.3841664279       48.5551315839  TIP3      4239            0.0000000000
     64232      5599  TIP3      H2             37.9425991524       39.4045953912       48.4287304960  TIP3      4239            0.0000000000
     64233      5600  TIP3      OH2            39.5487451716       36.0454808034       48.6322742675  TIP3      4240            0.0000000000
     64234      5600  TIP3      H1             38.6648300430       36.4311720553       48.3764569913  TIP3      4240            0.0000000000
     64235      5600  TIP3      H2             39.9868264290       36.9084824451       48.4554885235  TIP3      4240            0.0000000000
     64236      5601  TIP3      OH2            36.8210356323       39.2296059169       57.4193471331  TIP3      4241            0.0000000000
     64237      5601  TIP3      H1             36.0861745401       39.0881344653       56.8385525505  TIP3      4241            0.0000000000
     64238      5601  TIP3      H2             37.0051684388       38.2643023970       57.3088594140  TIP3      4241            0.0000000000
     64239      5602  TIP3      OH2           -39.5026023560       37.7702190915       45.8075216065  TIP3      4242            0.0000000000
     64240      5602  TIP3      H1            -40.2673947018       38.4187428604       45.8371223595  TIP3      4242            0.0000000000
     64241      5602  TIP3      H2            -39.6316327580       37.5907163461       44.8740598512  TIP3      4242            0.0000000000
     64242      5603  TIP3      OH2            37.6415420002       35.5600870819       52.1562240186  TIP3      4243            0.0000000000
     64243      5603  TIP3      H1             37.4204312845       35.7374305203       51.2306014260  TIP3      4243            0.0000000000
     64244      5603  TIP3      H2             37.2014440916       34.7333392292       52.4067166623  TIP3      4243            0.0000000000
     64245      5604  TIP3      OH2            36.3878030969       38.7176463587       59.7873244048  TIP3      4244            0.0000000000
     64246      5604  TIP3      H1             37.1458168394       38.4966885150       59.2451459024  TIP3      4244            0.0000000000
     64247      5604  TIP3      H2             36.8463973509       38.3945525274       60.5682573972  TIP3      4244            0.0000000000
     64248      5605  TIP3      OH2            34.7410393990       40.2143282306       59.0341867576  TIP3      4245            0.0000000000
     64249      5605  TIP3      H1             35.7033830193       40.0725200869       59.2709410403  TIP3      4245            0.0000000000
     64250      5605  TIP3      H2             34.6089414581       39.3374971804       59.5055804668  TIP3      4245            0.0000000000
     64251      5606  TIP3      OH2            36.5910832553       38.3568577737       51.8120423617  TIP3      4246            0.0000000000
     64252      5606  TIP3      H1             36.8775513097       37.5236330393       52.2835647120  TIP3      4246            0.0000000000
     64253      5606  TIP3      H2             36.8984623281       39.0280511910       52.4369512600  TIP3      4246            0.0000000000
     64254      5607  TIP3      OH2            34.9166982776       37.6040082699       47.1459760300  TIP3      4247            0.0000000000
     64255      5607  TIP3      H1             33.9903144726       37.7557528688       47.0125137212  TIP3      4247            0.0000000000
     64256      5607  TIP3      H2             35.4570483466       38.0681872871       46.4876550976  TIP3      4247            0.0000000000
     64257      5608  TIP3      OH2            33.9011427095       35.8191780580       54.9471473809  TIP3      4248            0.0000000000
     64258      5608  TIP3      H1             33.9308286239       35.8750604029       55.9255856012  TIP3      4248            0.0000000000
     64259      5608  TIP3      H2             34.3159592538       36.6742963175       54.8160821366  TIP3      4248            0.0000000000
     64260      5609  TIP3      OH2            37.3784878726       35.0044765503       48.6009805639  TIP3      4249            0.0000000000
     64261      5609  TIP3      H1             36.5841829526       35.3570066169       49.0377360323  TIP3      4249            0.0000000000
     64262      5609  TIP3      H2             37.9260169960       34.7457598442       49.3867501223  TIP3      4249            0.0000000000
     64263      5610  TIP3      OH2            36.4870364502       36.1780738886       45.9902235243  TIP3      4250            0.0000000000
     64264      5610  TIP3      H1             36.7930410204       36.2388500759       45.0736198047  TIP3      4250            0.0000000000
     64265      5610  TIP3      H2             35.5401192578       36.0661037723       45.9020566099  TIP3      4250            0.0000000000
     64266      5611  TIP3      OH2            38.1562400342       37.0336998871       43.9581573675  TIP3      4251            0.0000000000
     64267      5611  TIP3      H1             38.6480634571       36.8898855603       43.1405237722  TIP3      4251            0.0000000000
     64268      5611  TIP3      H2             38.7522859224       37.6991890642       44.2953112083  TIP3      4251            0.0000000000
     64269      5612  TIP3      OH2            36.5382414621       36.2621176063       59.9223166957  TIP3      4252            0.0000000000
     64270      5612  TIP3      H1             36.6251449538       35.5655547100       59.3451857699  TIP3      4252            0.0000000000
     64271      5612  TIP3      H2             37.5473117104       36.4540396033       59.8752281619  TIP3      4252            0.0000000000
     64272      5613  TIP3      OH2            39.5952505782       35.3787248056       61.1107876172  TIP3      4253            0.0000000000
     64273      5613  TIP3      H1             40.2132311165       35.3183002853       60.3667105228  TIP3      4253            0.0000000000
     64274      5613  TIP3      H2             38.9457362133       34.6654950532       61.0061656321  TIP3      4253            0.0000000000
     64275      5614  TIP3      OH2           -30.1099231115      -32.7872727723       62.6336566443  TIP3      4254            0.0000000000
     64276      5614  TIP3      H1            -29.4144769021      -32.7065104737       63.3224909629  TIP3      4254            0.0000000000
     64277      5614  TIP3      H2            -29.7827876631      -33.4930875253       62.0881576853  TIP3      4254            0.0000000000
     64278      5615  TIP3      OH2           -27.8660773291      -31.9123412855       64.2793904715  TIP3      4255            0.0000000000
     64279      5615  TIP3      H1            -27.2944596910      -31.7719309003       65.0545109385  TIP3      4255            0.0000000000
     64280      5615  TIP3      H2            -27.4228797320      -31.4041857755       63.5686059627  TIP3      4255            0.0000000000
     64281      5616  TIP3      OH2           -26.3955023683      -30.8649246539       62.0093061480  TIP3      4256            0.0000000000
     64282      5616  TIP3      H1            -26.4041445141      -31.0563560154       61.0402860025  TIP3      4256            0.0000000000
     64283      5616  TIP3      H2            -25.5215994297      -30.4729510290       62.1196031688  TIP3      4256            0.0000000000
     64284      5617  TIP3      OH2           -30.8393512456      -36.9642260524       62.6165245904  TIP3      4257            0.0000000000
     64285      5617  TIP3      H1            -31.0987920197      -36.9596239181       63.5399318566  TIP3      4257            0.0000000000
     64286      5617  TIP3      H2            -31.1344154096      -37.8315383406       62.2714725562  TIP3      4257            0.0000000000
     64287      5618  TIP3      OH2           -33.9624488171      -36.5807201537       61.6802685084  TIP3      4258            0.0000000000
     64288      5618  TIP3      H1            -34.3756829470      -36.9714777082       62.4734385209  TIP3      4258            0.0000000000
     64289      5618  TIP3      H2            -34.6354381949      -36.1232138100       61.1676772936  TIP3      4258            0.0000000000
     64290      5619  TIP3      OH2           -39.1947592297      -35.9385310667       64.2778714432  TIP3      4259            0.0000000000
     64291      5619  TIP3      H1            -38.9159853886      -35.3793656369       63.5517202749  TIP3      4259            0.0000000000
     64292      5619  TIP3      H2            -40.0176459590      -35.4878761751       64.5206486588  TIP3      4259            0.0000000000
     64293      5620  TIP3      OH2           -35.3012014902      -33.8890965177       63.0990336334  TIP3      4260            0.0000000000
     64294      5620  TIP3      H1            -35.8149074909      -34.0229320406       62.3042754940  TIP3      4260            0.0000000000
     64295      5620  TIP3      H2            -34.4849025961      -33.5287100680       62.6966632652  TIP3      4260            0.0000000000
     64296      5621  TIP3      OH2           -29.8392402021      -27.7590390792       64.0726807091  TIP3      4261            0.0000000000
     64297      5621  TIP3      H1            -30.2147624463      -26.9197994853       64.4081422667  TIP3      4261            0.0000000000
     64298      5621  TIP3      H2            -30.5701049639      -28.3596221001       64.2578626431  TIP3      4261            0.0000000000
     64299      5622  TIP3      OH2           -32.6522483847      -26.4084193413       61.2869092671  TIP3      4262            0.0000000000
     64300      5622  TIP3      H1            -32.5048546484      -27.2129478775       60.7732672251  TIP3      4262            0.0000000000
     64301      5622  TIP3      H2            -32.9987324193      -26.7850309923       62.1329540199  TIP3      4262            0.0000000000
     64302      5623  TIP3      OH2           -33.7189824210      -26.8902034438       63.7604348313  TIP3      4263            0.0000000000
     64303      5623  TIP3      H1            -33.6349179634      -27.3627634706       64.5953923490  TIP3      4263            0.0000000000
     64304      5623  TIP3      H2            -33.7972016262      -25.9754570059       64.0892666282  TIP3      4263            0.0000000000
     64305      5624  TIP3      OH2           -31.0152306307      -25.2264196378       64.3003457656  TIP3      4264            0.0000000000
     64306      5624  TIP3      H1            -31.8101969580      -24.7064780148       64.5894555070  TIP3      4264            0.0000000000
     64307      5624  TIP3      H2            -30.5365793681      -24.5898037155       63.7879401479  TIP3      4264            0.0000000000
     64308      5625  TIP3      OH2           -33.0544722133      -23.8496764054       65.0074065467  TIP3      4265            0.0000000000
     64309      5625  TIP3      H1            -33.4268623319      -23.4858143996       64.1615148406  TIP3      4265            0.0000000000
     64310      5625  TIP3      H2            -33.9293128801      -23.8813713646       65.4187739318  TIP3      4265            0.0000000000
     64311      5626  TIP3      OH2           -35.0217378021      -37.4035091010       64.0299196916  TIP3      4266            0.0000000000
     64312      5626  TIP3      H1            -35.0627284840      -36.5624844053       64.5140393244  TIP3      4266            0.0000000000
     64313      5626  TIP3      H2            -34.1487286298      -37.6944539109       64.3571872424  TIP3      4266            0.0000000000
     64314      5627  TIP3      OH2           -36.7256369346      -27.0406050329       63.2125992819  TIP3      4267            0.0000000000
     64315      5627  TIP3      H1            -36.1734437273      -26.2614652850       63.4421372798  TIP3      4267            0.0000000000
     64316      5627  TIP3      H2            -36.2163895170      -27.3690750180       62.4746718759  TIP3      4267            0.0000000000
     64317      5628  TIP3      OH2           -38.4099728623      -34.3333711801       62.2946918177  TIP3      4268            0.0000000000
     64318      5628  TIP3      H1            -38.4041967567      -33.3797666617       62.4743898594  TIP3      4268            0.0000000000
     64319      5628  TIP3      H2            -39.3110508844      -34.5485534128       62.0050738694  TIP3      4268            0.0000000000
     64320      5629  TIP3      OH2           -30.6183986764      -24.5333658065       61.5088042989  TIP3      4269            0.0000000000
     64321      5629  TIP3      H1            -31.3345387995      -25.1764021425       61.7293763563  TIP3      4269            0.0000000000
     64322      5629  TIP3      H2            -29.9269593947      -25.1342621615       61.2467502354  TIP3      4269            0.0000000000
     64323      5630  TIP3      OH2           -34.0331677408      -30.8492616050       63.8286701320  TIP3      4270            0.0000000000
     64324      5630  TIP3      H1            -34.4133384291      -31.3607230632       64.5469013673  TIP3      4270            0.0000000000
     64325      5630  TIP3      H2            -33.6816451467      -31.5109065576       63.2092802166  TIP3      4270            0.0000000000
     64326      5631  TIP3      OH2           -32.9048493601      -32.6858116765       62.1174314967  TIP3      4271            0.0000000000
     64327      5631  TIP3      H1            -33.0501909916      -32.7031656491       61.1526618047  TIP3      4271            0.0000000000
     64328      5631  TIP3      H2            -31.9353397842      -32.5296304084       62.1726523523  TIP3      4271            0.0000000000
     64329      5632  TIP3      OH2           -23.5462874469      -30.2722397510       61.5707463419  TIP3      4272            0.0000000000
     64330      5632  TIP3      H1            -23.7678078891      -30.6529236567       60.7067608457  TIP3      4272            0.0000000000
     64331      5632  TIP3      H2            -23.4850554015      -29.3149769057       61.3387439509  TIP3      4272            0.0000000000
     64332      5633  TIP3      OH2           -32.9649490038      -21.9231642750       63.1424359243  TIP3      4273            0.0000000000
     64333      5633  TIP3      H1            -32.0304214599      -21.7692496464       63.2336976846  TIP3      4273            0.0000000000
     64334      5633  TIP3      H2            -33.2533626052      -21.3182655998       62.4524558015  TIP3      4273            0.0000000000
     64335      5634  TIP3      OH2           -22.3667893458      -31.4371794085       63.7111637244  TIP3      4274            0.0000000000
     64336      5634  TIP3      H1            -22.9394525290      -31.0666655980       63.0158426947  TIP3      4274            0.0000000000
     64337      5634  TIP3      H2            -22.4538003613      -30.8044132224       64.4321806654  TIP3      4274            0.0000000000
     64338      5635  TIP3      OH2           -23.9629183666      -34.2123948063       62.2769806505  TIP3      4275            0.0000000000
     64339      5635  TIP3      H1            -23.9425058473      -33.5258628633       61.6102925008  TIP3      4275            0.0000000000
     64340      5635  TIP3      H2            -24.1645735223      -35.0252302499       61.8139767189  TIP3      4275            0.0000000000
     64341      5636  TIP3      OH2           -39.0819695460      -39.6344330004       64.0570780720  TIP3      4276            0.0000000000
     64342      5636  TIP3      H1            -38.6534085670      -39.0534664827       63.4397753864  TIP3      4276            0.0000000000
     64343      5636  TIP3      H2            -39.7789287822      -39.1703680453       64.5258042536  TIP3      4276            0.0000000000
     64344      5637  TIP3      OH2           -37.2862512903      -38.0675391922       62.5329625039  TIP3      4277            0.0000000000
     64345      5637  TIP3      H1            -36.7709247457      -38.6835374823       61.9681088317  TIP3      4277            0.0000000000
     64346      5637  TIP3      H2            -36.6484772907      -37.8287254300       63.2460625292  TIP3      4277            0.0000000000
     64347      5638  TIP3      OH2           -37.4715961121      -22.8897566605       61.8888812577  TIP3      4278            0.0000000000
     64348      5638  TIP3      H1            -37.6643949879      -22.7584709845       62.8169859081  TIP3      4278            0.0000000000
     64349      5638  TIP3      H2            -36.6960159730      -23.4681541855       62.0957682003  TIP3      4278            0.0000000000
     64350      5639  TIP3      OH2            -4.1411159279      -25.8040568837       62.4654784221  TIP3      4279            0.0000000000
     64351      5639  TIP3      H1             -4.0459841999      -24.8689931829       62.6370540793  TIP3      4279            0.0000000000
     64352      5639  TIP3      H2             -3.2195944245      -26.1298472434       62.4693586793  TIP3      4279            0.0000000000
     64353      5640  TIP3      OH2            -8.7126802000      -23.0471601859       63.2048904293  TIP3      4280            0.0000000000
     64354      5640  TIP3      H1             -8.2801631912      -23.7556434031       62.6829575625  TIP3      4280            0.0000000000
     64355      5640  TIP3      H2             -8.6696440764      -23.3601076104       64.1093364112  TIP3      4280            0.0000000000
     64356      5641  TIP3      OH2           -19.8530075922      -31.5322575572       62.7355399340  TIP3      4281            0.0000000000
     64357      5641  TIP3      H1            -19.2698230431      -30.9168453827       63.2255406586  TIP3      4281            0.0000000000
     64358      5641  TIP3      H2            -20.7395291106      -31.2525461611       63.0662876951  TIP3      4281            0.0000000000
     64359      5642  TIP3      OH2           -18.5021527288      -29.6780607963       64.2578172365  TIP3      4282            0.0000000000
     64360      5642  TIP3      H1            -19.1507655952      -29.3301279311       64.8674183582  TIP3      4282            0.0000000000
     64361      5642  TIP3      H2            -17.9729365774      -28.9190882004       64.0033734362  TIP3      4282            0.0000000000
     64362      5643  TIP3      OH2           -16.1586569219      -37.4600404170       64.1801540731  TIP3      4283            0.0000000000
     64363      5643  TIP3      H1            -16.2231892503      -36.5310191233       64.4013201153  TIP3      4283            0.0000000000
     64364      5643  TIP3      H2            -15.2434263809      -37.6662618709       64.3362990448  TIP3      4283            0.0000000000
     64365      5644  TIP3      OH2           -19.5030325592      -34.3032361128       62.2426790251  TIP3      4284            0.0000000000
     64366      5644  TIP3      H1            -19.5742407415      -33.3797841739       62.5335690730  TIP3      4284            0.0000000000
     64367      5644  TIP3      H2            -20.4069304078      -34.5442850538       62.0522048725  TIP3      4284            0.0000000000
     64368      5645  TIP3      OH2            -7.0589455317      -24.6715661159       61.7984370958  TIP3      4285            0.0000000000
     64369      5645  TIP3      H1             -6.8590665816      -25.5572986611       62.1010267593  TIP3      4285            0.0000000000
     64370      5645  TIP3      H2             -6.4419844794      -24.5350408991       61.0583270904  TIP3      4285            0.0000000000
     64371      5646  TIP3      OH2           -16.2981948110      -28.8280207659       61.5555782439  TIP3      4286            0.0000000000
     64372      5646  TIP3      H1            -16.2011115976      -29.6336304371       62.0882420099  TIP3      4286            0.0000000000
     64373      5646  TIP3      H2            -15.6376792918      -28.9665879095       60.8743274461  TIP3      4286            0.0000000000
     64374      5647  TIP3      OH2           -15.1621368028      -30.8413108734       63.7684072910  TIP3      4287            0.0000000000
     64375      5647  TIP3      H1            -15.5397686393      -31.2723155760       64.5526645358  TIP3      4287            0.0000000000
     64376      5647  TIP3      H2            -14.8147684344      -31.5624005168       63.2430160038  TIP3      4287            0.0000000000
     64377      5648  TIP3      OH2            -4.6393379687      -30.2564875501       61.5820239983  TIP3      4288            0.0000000000
     64378      5648  TIP3      H1             -4.9202914309      -30.6635541070       60.7419108816  TIP3      4288            0.0000000000
     64379      5648  TIP3      H2             -4.6510695063      -29.3113751308       61.3244733849  TIP3      4288            0.0000000000
     64380      5649  TIP3      OH2           -20.5806135389      -27.3829409742       62.6952738663  TIP3      4289            0.0000000000
     64381      5649  TIP3      H1            -19.6369943434      -27.2229821225       62.8021998797  TIP3      4289            0.0000000000
     64382      5649  TIP3      H2            -20.5898663034      -27.9800191311       61.9118983465  TIP3      4289            0.0000000000
     64383      5650  TIP3      OH2            -3.5451914343      -31.4523060794       63.7785963982  TIP3      4290            0.0000000000
     64384      5650  TIP3      H1             -4.0384444036      -31.0897582635       63.0008785283  TIP3      4290            0.0000000000
     64385      5650  TIP3      H2             -3.6036974723      -30.7393686570       64.4186841523  TIP3      4290            0.0000000000
     64386      5651  TIP3      OH2           -18.5098868840      -22.8902377399       61.9713350936  TIP3      4291            0.0000000000
     64387      5651  TIP3      H1            -18.8350661759      -22.7737742248       62.8739969565  TIP3      4291            0.0000000000
     64388      5651  TIP3      H2            -17.8020777415      -23.5568509984       62.1086033424  TIP3      4291            0.0000000000
     64389      5652  TIP3      OH2            13.5567872186      -40.1220778259       64.1893093877  TIP3      4292            0.0000000000
     64390      5652  TIP3      H1             12.6388165883      -40.0060027690       64.4240214708  TIP3      4292            0.0000000000
     64391      5652  TIP3      H2             13.8052846808      -39.2957746290       63.7400584475  TIP3      4292            0.0000000000
     64392      5653  TIP3      OH2            14.7250973092      -25.7440977751       62.4402493963  TIP3      4293            0.0000000000
     64393      5653  TIP3      H1             14.8528962955      -24.8129476156       62.6981944960  TIP3      4293            0.0000000000
     64394      5653  TIP3      H2             15.6362647549      -26.0812587052       62.4776783439  TIP3      4293            0.0000000000
     64395      5654  TIP3      OH2            10.1599519113      -22.9845522076       63.1742518238  TIP3      4294            0.0000000000
     64396      5654  TIP3      H1             10.5356018818      -23.7656529481       62.7101176285  TIP3      4294            0.0000000000
     64397      5654  TIP3      H2             10.2083007076      -23.3171699788       64.0897227932  TIP3      4294            0.0000000000
     64398      5655  TIP3      OH2             2.4292380817      -33.8100397528       63.1162559409  TIP3      4295            0.0000000000
     64399      5655  TIP3      H1              1.8094769049      -34.1356723076       62.4427280586  TIP3      4295            0.0000000000
     64400      5655  TIP3      H2              3.2179648394      -33.5439766009       62.6250676376  TIP3      4295            0.0000000000
     64401      5656  TIP3      OH2            -1.0055102987      -31.5094588112       62.7569007338  TIP3      4296            0.0000000000
     64402      5656  TIP3      H1             -0.4017361661      -30.9026532285       63.2409418959  TIP3      4296            0.0000000000
     64403      5656  TIP3      H2             -1.8889796246      -31.2187242207       63.0587910664  TIP3      4296            0.0000000000
     64404      5657  TIP3      OH2            15.4054249693      -23.0907064137       63.0405224563  TIP3      4297            0.0000000000
     64405      5657  TIP3      H1             16.1446275420      -22.4700215230       62.9720896361  TIP3      4297            0.0000000000
     64406      5657  TIP3      H2             14.7043328021      -22.5010819011       63.3914033263  TIP3      4297            0.0000000000
     64407      5658  TIP3      OH2             5.0935910760      -26.4301634357       61.3455700308  TIP3      4298            0.0000000000
     64408      5658  TIP3      H1              5.2065603590      -27.2028743018       60.7733693122  TIP3      4298            0.0000000000
     64409      5658  TIP3      H2              4.6688778709      -26.8275982806       62.1331295689  TIP3      4298            0.0000000000
     64410      5659  TIP3      OH2             3.8749578523      -26.8559237682       63.8011377542  TIP3      4299            0.0000000000
     64411      5659  TIP3      H1              4.1226038217      -27.3841138223       64.5680027695  TIP3      4299            0.0000000000
     64412      5659  TIP3      H2              3.9852522799      -25.9579770013       64.1332958662  TIP3      4299            0.0000000000
     64413      5660  TIP3      OH2             0.3456390545      -29.5918419899       64.2270930654  TIP3      4300            0.0000000000
     64414      5660  TIP3      H1             -0.2981136637      -29.2596438336       64.8484154467  TIP3      4300            0.0000000000
     64415      5660  TIP3      H2              0.9233481437      -28.8477010714       64.0070088430  TIP3      4300            0.0000000000
     64416      5661  TIP3      OH2             0.9456168340      -27.0064478865       63.1716839439  TIP3      4301            0.0000000000
     64417      5661  TIP3      H1              1.5923062644      -26.3496665801       63.4482549675  TIP3      4301            0.0000000000
     64418      5661  TIP3      H2              1.4637167257      -27.4400682164       62.4643097472  TIP3      4301            0.0000000000
     64419      5662  TIP3      OH2            -0.5600143750      -34.1819343046       62.2532694851  TIP3      4302            0.0000000000
     64420      5662  TIP3      H1             -0.7006027456      -33.2643832352       62.5369880233  TIP3      4302            0.0000000000
     64421      5662  TIP3      H2             -1.4652220162      -34.4713780420       62.0734671466  TIP3      4302            0.0000000000
     64422      5663  TIP3      OH2             7.0456567290      -24.5204228090       61.4209183607  TIP3      4303            0.0000000000
     64423      5663  TIP3      H1              6.3728874904      -25.1667167384       61.7205535540  TIP3      4303            0.0000000000
     64424      5663  TIP3      H2              7.8001653344      -25.0948097970       61.2544206859  TIP3      4303            0.0000000000
     64425      5664  TIP3      OH2            11.6386989910      -24.7427461209       61.6082608453  TIP3      4304            0.0000000000
     64426      5664  TIP3      H1             11.9277243934      -25.4874880454       62.1589672404  TIP3      4304            0.0000000000
     64427      5664  TIP3      H2             12.4253850369      -24.5754194716       61.0755545239  TIP3      4304            0.0000000000
     64428      5665  TIP3      OH2             2.5708635413      -28.8585360560       61.5545970279  TIP3      4305            0.0000000000
     64429      5665  TIP3      H1              2.6674019528      -29.6580674391       62.0914461892  TIP3      4305            0.0000000000
     64430      5665  TIP3      H2              3.2854312610      -28.9658957383       60.8920535329  TIP3      4305            0.0000000000
     64431      5666  TIP3      OH2             3.7515729897      -30.8616775999       63.8285990713  TIP3      4306            0.0000000000
     64432      5666  TIP3      H1              3.2582754281      -31.3336363951       64.5177432985  TIP3      4306            0.0000000000
     64433      5666  TIP3      H2              3.9737586130      -31.5565280747       63.1851440736  TIP3      4306            0.0000000000
     64434      5667  TIP3      OH2             4.8063600652      -32.6547799327       62.0998955857  TIP3      4307            0.0000000000
     64435      5667  TIP3      H1              4.6553934631      -32.7291951140       61.1345837661  TIP3      4307            0.0000000000
     64436      5667  TIP3      H2              5.7670885252      -32.5593850087       62.1259311796  TIP3      4307            0.0000000000
     64437      5668  TIP3      OH2            -1.7545020809      -27.2989721634       62.6198992558  TIP3      4308            0.0000000000
     64438      5668  TIP3      H1             -0.8093555111      -27.2500052335       62.8521465356  TIP3      4308            0.0000000000
     64439      5668  TIP3      H2             -1.7426541912      -28.0039610162       61.9329988315  TIP3      4308            0.0000000000
     64440      5669  TIP3      OH2            12.9141118056      -36.8082024428       61.4200247744  TIP3      4309            0.0000000000
     64441      5669  TIP3      H1             13.5670061570      -37.1881703449       62.0384370670  TIP3      4309            0.0000000000
     64442      5669  TIP3      H2             12.1044092439      -37.2746361104       61.6250894865  TIP3      4309            0.0000000000
     64443      5670  TIP3      OH2            15.0095117402      -37.8880308305       62.9659837402  TIP3      4310            0.0000000000
     64444      5670  TIP3      H1             15.3969356770      -38.6368611143       62.4643732865  TIP3      4310            0.0000000000
     64445      5670  TIP3      H2             15.7399533957      -37.2554403905       63.0558440886  TIP3      4310            0.0000000000
     64446      5671  TIP3      OH2             7.3207825248      -22.6495059715       63.3839426520  TIP3      4311            0.0000000000
     64447      5671  TIP3      H1              8.2365459966      -22.3913395397       63.1956362755  TIP3      4311            0.0000000000
     64448      5671  TIP3      H2              7.1298989555      -23.1916218153       62.5888794556  TIP3      4311            0.0000000000
     64449      5672  TIP3      OH2            28.7112728028      -31.8940682745       64.2925997658  TIP3      4312            0.0000000000
     64450      5672  TIP3      H1             29.2565652282      -31.6992444088       65.0568953034  TIP3      4312            0.0000000000
     64451      5672  TIP3      H2             29.1120627237      -31.4068122768       63.5694073412  TIP3      4312            0.0000000000
     64452      5673  TIP3      OH2            33.5393013659      -25.7484294843       62.4210778303  TIP3      4313            0.0000000000
     64453      5673  TIP3      H1             33.7159015804      -24.8345198856       62.6807824714  TIP3      4313            0.0000000000
     64454      5673  TIP3      H2             34.4359148233      -26.1336517234       62.4711497897  TIP3      4313            0.0000000000
     64455      5674  TIP3      OH2            28.9857306722      -23.0122923371       63.1719471180  TIP3      4314            0.0000000000
     64456      5674  TIP3      H1             29.3987085472      -23.7428530718       62.6623068083  TIP3      4314            0.0000000000
     64457      5674  TIP3      H2             29.0698686433      -23.2977911735       64.0809385382  TIP3      4314            0.0000000000
     64458      5675  TIP3      OH2            25.8726280641      -37.0047092172       62.6458844742  TIP3      4315            0.0000000000
     64459      5675  TIP3      H1             25.4851137524      -36.9278329597       63.5183685765  TIP3      4315            0.0000000000
     64460      5675  TIP3      H2             25.4482617955      -37.8149218617       62.2979449748  TIP3      4315            0.0000000000
     64461      5676  TIP3      OH2            22.7419219719      -36.4233620444       61.7834157220  TIP3      4316            0.0000000000
     64462      5676  TIP3      H1             22.2424982898      -36.9250690709       62.4467023682  TIP3      4316            0.0000000000
     64463      5676  TIP3      H2             22.0392053177      -36.0950738990       61.2006113427  TIP3      4316            0.0000000000
     64464      5677  TIP3      OH2            17.0175825445      -36.1013881300       64.1120224135  TIP3      4317            0.0000000000
     64465      5677  TIP3      H1             17.6422109245      -35.5128688783       63.6380379898  TIP3      4317            0.0000000000
     64466      5677  TIP3      H2             16.4786072012      -35.4851178161       64.6061783416  TIP3      4317            0.0000000000
     64467      5678  TIP3      OH2            21.2824768486      -33.7377257617       63.0963176306  TIP3      4318            0.0000000000
     64468      5678  TIP3      H1             20.7103489612      -34.1119901640       62.4130658808  TIP3      4318            0.0000000000
     64469      5678  TIP3      H2             22.1031291907      -33.6039493122       62.6398214985  TIP3      4318            0.0000000000
     64470      5679  TIP3      OH2            28.4891487891      -36.4085473398       63.1925967716  TIP3      4319            0.0000000000
     64471      5679  TIP3      H1             27.5297006935      -36.2608474403       63.0942096709  TIP3      4319            0.0000000000
     64472      5679  TIP3      H2             28.7607739045      -35.5640335557       63.5937132438  TIP3      4319            0.0000000000
     64473      5680  TIP3      OH2            29.1874609738      -34.4762753209       64.8880181449  TIP3      4320            0.0000000000
     64474      5680  TIP3      H1             30.0908218721      -34.6514169383       65.1682484648  TIP3      4320            0.0000000000
     64475      5680  TIP3      H2             29.2378186492      -33.6911689912       64.3235371251  TIP3      4320            0.0000000000
     64476      5681  TIP3      OH2            34.0812841433      -34.3100547502       64.6538511266  TIP3      4321            0.0000000000
     64477      5681  TIP3      H1             33.5335760506      -34.6704250703       63.9257495384  TIP3      4321            0.0000000000
     64478      5681  TIP3      H2             34.1631782962      -33.3985021212       64.3089202499  TIP3      4321            0.0000000000
     64479      5682  TIP3      OH2            17.8276843355      -31.4937668985       62.7436529647  TIP3      4322            0.0000000000
     64480      5682  TIP3      H1             18.4610010754      -30.9442148611       63.2589840224  TIP3      4322            0.0000000000
     64481      5682  TIP3      H2             16.9843093472      -31.1903330649       63.0786260073  TIP3      4322            0.0000000000
     64482      5683  TIP3      OH2            34.2671898212      -23.0843646941       63.0253957740  TIP3      4323            0.0000000000
     64483      5683  TIP3      H1             34.9945965958      -22.4634797510       62.9600969018  TIP3      4323            0.0000000000
     64484      5683  TIP3      H2             33.5787474081      -22.4958338542       63.3578354702  TIP3      4323            0.0000000000
     64485      5684  TIP3      OH2            23.6564128918      -26.3497136353       61.3239351703  TIP3      4324            0.0000000000
     64486      5684  TIP3      H1             24.0021631539      -27.0558383892       60.7701244532  TIP3      4324            0.0000000000
     64487      5684  TIP3      H2             23.5173148834      -26.7678876453       62.1915788658  TIP3      4324            0.0000000000
     64488      5685  TIP3      OH2            19.1194267648      -29.5834698013       64.1686240636  TIP3      4325            0.0000000000
     64489      5685  TIP3      H1             18.5568255200      -29.3251376281       64.9041767752  TIP3      4325            0.0000000000
     64490      5685  TIP3      H2             19.7733140115      -28.8899291781       64.0499533173  TIP3      4325            0.0000000000
     64491      5686  TIP3      OH2            22.9553667633      -24.0935590230       64.5540137337  TIP3      4326            0.0000000000
     64492      5686  TIP3      H1             22.9998406027      -23.3283559909       63.9545474219  TIP3      4326            0.0000000000
     64493      5686  TIP3      H2             22.7038504142      -23.7629556549       65.4096970629  TIP3      4326            0.0000000000
     64494      5687  TIP3      OH2            21.4906716460      -37.0035962811       64.3889796058  TIP3      4327            0.0000000000
     64495      5687  TIP3      H1             21.6597223966      -36.0870133225       64.6106809879  TIP3      4327            0.0000000000
     64496      5687  TIP3      H2             22.3689018617      -37.4461261975       64.3639630668  TIP3      4327            0.0000000000
     64497      5688  TIP3      OH2            18.1707705503      -34.3053386181       62.2867076645  TIP3      4328            0.0000000000
     64498      5688  TIP3      H1             18.1462361077      -33.3618804580       62.5195476606  TIP3      4328            0.0000000000
     64499      5688  TIP3      H2             17.2773675769      -34.5468003898       62.0294597951  TIP3      4328            0.0000000000
     64500      5689  TIP3      OH2            25.9544665679      -24.5424096562       61.4470499930  TIP3      4329            0.0000000000
     64501      5689  TIP3      H1             25.2213898168      -25.1226188835       61.7408814331  TIP3      4329            0.0000000000
     64502      5689  TIP3      H2             26.6609978889      -25.1597913491       61.2544174226  TIP3      4329            0.0000000000
     64503      5690  TIP3      OH2            30.5198310310      -24.7234482611       61.6534029534  TIP3      4330            0.0000000000
     64504      5690  TIP3      H1             30.8569452893      -25.4968465228       62.1345033352  TIP3      4330            0.0000000000
     64505      5690  TIP3      H2             31.2914661767      -24.5368603961       61.0910077795  TIP3      4330            0.0000000000
     64506      5691  TIP3      OH2            21.4061764344      -28.8407876813       61.5329318469  TIP3      4331            0.0000000000
     64507      5691  TIP3      H1             21.4780212944      -29.6554481726       62.0422836358  TIP3      4331            0.0000000000
     64508      5691  TIP3      H2             22.0772552303      -28.9640644219       60.8475153578  TIP3      4331            0.0000000000
     64509      5692  TIP3      OH2            33.0087047656      -30.2674902905       61.5931921373  TIP3      4332            0.0000000000
     64510      5692  TIP3      H1             32.7742875482      -30.6414179599       60.7246128179  TIP3      4332            0.0000000000
     64511      5692  TIP3      H2             33.1158958412      -29.3277704237       61.3709097428  TIP3      4332            0.0000000000
     64512      5693  TIP3      OH2            23.5619648122      -21.8057868314       63.2364126351  TIP3      4333            0.0000000000
     64513      5693  TIP3      H1             24.5201873098      -21.8127874741       63.1957765760  TIP3      4333            0.0000000000
     64514      5693  TIP3      H2             23.3548707897      -21.3004967137       62.4365736702  TIP3      4333            0.0000000000
     64515      5694  TIP3      OH2            17.1156452785      -27.3108213558       62.6381987214  TIP3      4334            0.0000000000
     64516      5694  TIP3      H1             18.0545118939      -27.2284355292       62.8205218781  TIP3      4334            0.0000000000
     64517      5694  TIP3      H2             17.1060670702      -27.9498237879       61.9075723383  TIP3      4334            0.0000000000
     64518      5695  TIP3      OH2            34.0540488194      -31.5057879005       63.8003795846  TIP3      4335            0.0000000000
     64519      5695  TIP3      H1             33.7119322197      -31.0572000725       62.9848476471  TIP3      4335            0.0000000000
     64520      5695  TIP3      H2             34.2005740030      -30.7432092338       64.3765871722  TIP3      4335            0.0000000000
     64521      5696  TIP3      OH2            32.5540018936      -34.1762837739       62.2918715547  TIP3      4336            0.0000000000
     64522      5696  TIP3      H1             32.5873346409      -33.5438672467       61.5670289509  TIP3      4336            0.0000000000
     64523      5696  TIP3      H2             32.3406368947      -35.0198199368       61.8318909947  TIP3      4336            0.0000000000
     64524      5697  TIP3      OH2            31.7578750477      -36.7284541810       61.4564542365  TIP3      4337            0.0000000000
     64525      5697  TIP3      H1             32.3650410186      -37.2096469123       62.0235208923  TIP3      4337            0.0000000000
     64526      5697  TIP3      H2             30.9263782561      -37.2172616113       61.5840196563  TIP3      4337            0.0000000000
     64527      5698  TIP3      OH2            17.4837259671      -39.7634771810       64.0994330431  TIP3      4338            0.0000000000
     64528      5698  TIP3      H1             17.8400888528      -39.1476956753       63.4558065907  TIP3      4338            0.0000000000
     64529      5698  TIP3      H2             16.8008647154      -39.2490317974       64.5303280281  TIP3      4338            0.0000000000
     64530      5699  TIP3      OH2            18.9686294598      -37.6311793100       62.7490012758  TIP3      4339            0.0000000000
     64531      5699  TIP3      H1             19.3967689400      -38.2300412130       62.1103227447  TIP3      4339            0.0000000000
     64532      5699  TIP3      H2             19.6552890808      -37.4501254786       63.4143053333  TIP3      4339            0.0000000000
     64533      5700  TIP3      OH2            40.3333063206      -34.1071971340       62.9866333107  TIP3      4340            0.0000000000
     64534      5700  TIP3      H1             39.5956587163      -34.1674831456       62.3284624649  TIP3      4340            0.0000000000
     64535      5700  TIP3      H2             40.9138279322      -33.4887200141       62.5495046546  TIP3      4340            0.0000000000
     64536      5701  TIP3      OH2            36.2505583560      -30.2815536860       62.7401239250  TIP3      4341            0.0000000000
     64537      5701  TIP3      H1             37.1254699812      -30.6023847639       63.0838336914  TIP3      4341            0.0000000000
     64538      5701  TIP3      H2             35.7637503576      -31.0827681092       62.9810141707  TIP3      4341            0.0000000000
     64539      5702  TIP3      OH2            37.8253646152      -29.4287901417       64.4734778978  TIP3      4342            0.0000000000
     64540      5702  TIP3      H1             37.2227954722      -28.9401777838       64.9934977555  TIP3      4342            0.0000000000
     64541      5702  TIP3      H2             38.4073520218      -28.7931851679       64.0111505158  TIP3      4342            0.0000000000
     64542      5703  TIP3      OH2           -41.0971243440      -37.6248813908       64.1674260326  TIP3      4343            0.0000000000
     64543      5703  TIP3      H1            -41.2043974494      -36.6990458372       64.4206762565  TIP3      4343            0.0000000000
     64544      5703  TIP3      H2            -40.1466416027      -37.6356997406       64.2981397723  TIP3      4343            0.0000000000
     64545      5704  TIP3      OH2            38.2045556383      -27.7972665882       62.5760915918  TIP3      4344            0.0000000000
     64546      5704  TIP3      H1             38.5066855377      -27.0902384505       63.2159183936  TIP3      4344            0.0000000000
     64547      5704  TIP3      H2             39.1005082979      -27.7078723783       62.2239333305  TIP3      4344            0.0000000000
     64548      5705  TIP3      OH2            36.9440171005      -34.8490048851       61.8008810812  TIP3      4345            0.0000000000
     64549      5705  TIP3      H1             37.1437156886      -34.0051910858       62.2483930278  TIP3      4345            0.0000000000
     64550      5705  TIP3      H2             36.0179865207      -34.7502318716       62.0206327457  TIP3      4345            0.0000000000
     64551      5706  TIP3      OH2            39.1002191921      -29.9761192449       61.7005370461  TIP3      4346            0.0000000000
     64552      5706  TIP3      H1             39.7270219147      -29.9223627284       62.4667528542  TIP3      4346            0.0000000000
     64553      5706  TIP3      H2             39.8361622470      -29.5603738439       61.2236635143  TIP3      4346            0.0000000000
     64554      5707  TIP3      OH2            35.8164005336      -27.2014969671       62.3872941176  TIP3      4347            0.0000000000
     64555      5707  TIP3      H1             36.7526279547      -27.3012179173       62.6962089983  TIP3      4347            0.0000000000
     64556      5707  TIP3      H2             35.8951121244      -28.0484303130       61.8714815776  TIP3      4347            0.0000000000
     64557      5708  TIP3      OH2            37.9624611072      -22.8821841461       61.8897258440  TIP3      4348            0.0000000000
     64558      5708  TIP3      H1             37.7155687247      -22.6200029089       62.7837289932  TIP3      4348            0.0000000000
     64559      5708  TIP3      H2             38.6762931217      -23.4843779085       62.1013753658  TIP3      4348            0.0000000000
     64560      5709  TIP3      OH2           -30.1327424248      -13.9202456777       62.7382529529  TIP3      4349            0.0000000000
     64561      5709  TIP3      H1            -29.3487174645      -13.9293875158       63.3128586971  TIP3      4349            0.0000000000
     64562      5709  TIP3      H2            -29.7962567102      -14.5538829143       62.0790761634  TIP3      4349            0.0000000000
     64563      5710  TIP3      OH2           -27.8975460392      -13.0080536679       64.2994319126  TIP3      4350            0.0000000000
     64564      5710  TIP3      H1            -27.2736330831      -12.8440645673       65.0099200445  TIP3      4350            0.0000000000
     64565      5710  TIP3      H2            -27.4454040529      -12.5523631302       63.5531644837  TIP3      4350            0.0000000000
     64566      5711  TIP3      OH2           -26.4204487109      -12.0514038212       62.0346296110  TIP3      4351            0.0000000000
     64567      5711  TIP3      H1            -26.4057157565      -12.1865823801       61.0601872949  TIP3      4351            0.0000000000
     64568      5711  TIP3      H2            -25.5787465193      -11.5881200085       62.1270158793  TIP3      4351            0.0000000000
     64569      5712  TIP3      OH2           -27.4279125502      -15.6156155563       64.8753635195  TIP3      4352            0.0000000000
     64570      5712  TIP3      H1            -26.5208345645      -15.8203727610       65.1449690746  TIP3      4352            0.0000000000
     64571      5712  TIP3      H2            -27.3272964948      -14.8601285811       64.2902337336  TIP3      4352            0.0000000000
     64572      5713  TIP3      OH2           -29.9078688269       -8.9184220196       64.0321272898  TIP3      4353            0.0000000000
     64573      5713  TIP3      H1            -30.0847100304       -8.0655060896       64.4478187396  TIP3      4353            0.0000000000
     64574      5713  TIP3      H2            -30.6161578614       -9.4799065782       64.3035055127  TIP3      4353            0.0000000000
     64575      5714  TIP3      OH2           -22.3128906141       -4.2088631409       63.0381323284  TIP3      4354            0.0000000000
     64576      5714  TIP3      H1            -21.5336789049       -3.6326490459       62.9952736349  TIP3      4354            0.0000000000
     64577      5714  TIP3      H2            -22.9676959800       -3.6071468219       63.3912895394  TIP3      4354            0.0000000000
     64578      5715  TIP3      OH2           -32.6477773852       -7.5352012234       61.3487241053  TIP3      4355            0.0000000000
     64579      5715  TIP3      H1            -32.5372259598       -8.3008255262       60.7508969472  TIP3      4355            0.0000000000
     64580      5715  TIP3      H2            -33.0445466342       -7.9810808131       62.1188925143  TIP3      4355            0.0000000000
     64581      5716  TIP3      OH2           -33.7045058032       -8.0353902569       63.7855427465  TIP3      4356            0.0000000000
     64582      5716  TIP3      H1            -33.6229950140       -8.5185394992       64.6075058455  TIP3      4356            0.0000000000
     64583      5716  TIP3      H2            -33.7603946675       -7.1297000782       64.1004921467  TIP3      4356            0.0000000000
     64584      5717  TIP3      OH2           -30.6317216387       -5.7110375026       61.4568548288  TIP3      4357            0.0000000000
     64585      5717  TIP3      H1            -31.2981134116       -6.3812001360       61.6886380758  TIP3      4357            0.0000000000
     64586      5717  TIP3      H2            -29.8838991663       -6.2717786790       61.2006547018  TIP3      4357            0.0000000000
     64587      5718  TIP3      OH2           -29.7418533700       -8.9021687604       61.2601007666  TIP3      4358            0.0000000000
     64588      5718  TIP3      H1            -29.9569716509       -8.7892286050       62.1955235588  TIP3      4358            0.0000000000
     64589      5718  TIP3      H2            -29.9532854444       -9.8497257670       61.1180933190  TIP3      4358            0.0000000000
     64590      5719  TIP3      OH2           -32.8481679391      -13.7119734708       62.1411250407  TIP3      4359            0.0000000000
     64591      5719  TIP3      H1            -33.0878893232      -13.8356621298       61.1941589676  TIP3      4359            0.0000000000
     64592      5719  TIP3      H2            -31.8861539068      -13.6858509883       62.1252953943  TIP3      4359            0.0000000000
     64593      5720  TIP3      OH2           -39.4550176711       -8.5107591959       62.6637680203  TIP3      4360            0.0000000000
     64594      5720  TIP3      H1            -38.5280533942       -8.3552805191       62.8736434824  TIP3      4360            0.0000000000
     64595      5720  TIP3      H2            -39.4208218752       -9.1311912875       61.9357846295  TIP3      4360            0.0000000000
     64596      5721  TIP3      OH2           -24.7775459245      -17.8769441574       61.4577359412  TIP3      4361            0.0000000000
     64597      5721  TIP3      H1            -24.1800092165      -18.3569196796       62.0206069917  TIP3      4361            0.0000000000
     64598      5721  TIP3      H2            -25.6184756914      -18.3532006353       61.5709195197  TIP3      4361            0.0000000000
     64599      5722  TIP3      OH2           -37.3289287694       -4.4518345788       61.9453069397  TIP3      4362            0.0000000000
     64600      5722  TIP3      H1            -37.5514812446       -3.8047556353       62.6622758070  TIP3      4362            0.0000000000
     64601      5722  TIP3      H2            -36.4464595307       -4.7618619452       62.1643281078  TIP3      4362            0.0000000000
     64602      5723  TIP3      OH2           -11.2414157374      -13.9624728822       62.6631115690  TIP3      4363            0.0000000000
     64603      5723  TIP3      H1            -10.5776927019      -13.9191500714       63.3782708386  TIP3      4363            0.0000000000
     64604      5723  TIP3      H2            -10.8520960250      -14.6088788606       62.0655335371  TIP3      4363            0.0000000000
     64605      5724  TIP3      OH2            -8.9782390362      -13.0558874142       64.2578388116  TIP3      4364            0.0000000000
     64606      5724  TIP3      H1             -8.4536372005      -12.8881092934       65.0446353083  TIP3      4364            0.0000000000
     64607      5724  TIP3      H2             -8.5922505784      -12.5500319589       63.5458079716  TIP3      4364            0.0000000000
     64608      5725  TIP3      OH2            -8.5149867663      -15.6681263997       64.8635591056  TIP3      4365            0.0000000000
     64609      5725  TIP3      H1             -7.6131396334      -15.7944201354       65.1747050786  TIP3      4365            0.0000000000
     64610      5725  TIP3      H2             -8.4999397601      -14.8678535563       64.3155348367  TIP3      4365            0.0000000000
     64611      5726  TIP3      OH2           -13.8079010470       -7.5916532820       61.3692483623  TIP3      4366            0.0000000000
     64612      5726  TIP3      H1            -13.6424019808       -8.3070216237       60.7511425713  TIP3      4366            0.0000000000
     64613      5726  TIP3      H2            -14.1367559747       -8.0141084654       62.1621204921  TIP3      4366            0.0000000000
     64614      5727  TIP3      OH2           -17.8191346610       -8.1856651376       63.2053111695  TIP3      4367            0.0000000000
     64615      5727  TIP3      H1            -17.2967546884       -7.4159034436       63.4591586318  TIP3      4367            0.0000000000
     64616      5727  TIP3      H2            -17.4047694414       -8.5233136274       62.4098108663  TIP3      4367            0.0000000000
     64617      5728  TIP3      OH2           -13.8692908149      -13.8327037121       62.0740489547  TIP3      4368            0.0000000000
     64618      5728  TIP3      H1            -14.1258011934      -13.9035144961       61.1559793223  TIP3      4368            0.0000000000
     64619      5728  TIP3      H2            -12.9196062038      -13.6459180900       62.1496212230  TIP3      4368            0.0000000000
     64620      5729  TIP3      OH2            -4.6408354232      -11.4389322598       61.5623829118  TIP3      4369            0.0000000000
     64621      5729  TIP3      H1             -4.9086824625      -11.8014126667       60.7032591761  TIP3      4369            0.0000000000
     64622      5729  TIP3      H2             -4.6250121687      -10.4821773960       61.3287914714  TIP3      4369            0.0000000000
     64623      5730  TIP3      OH2           -20.6015971780       -8.4364336603       62.6120633544  TIP3      4370            0.0000000000
     64624      5730  TIP3      H1            -19.6674620369       -8.3391833360       62.8567121760  TIP3      4370            0.0000000000
     64625      5730  TIP3      H2            -20.5819531746       -9.1141236063       61.9310360196  TIP3      4370            0.0000000000
     64626      5731  TIP3      OH2            -3.5289174166      -12.5842813159       63.7680118902  TIP3      4371            0.0000000000
     64627      5731  TIP3      H1             -4.0431217270      -12.2372445205       63.0032123925  TIP3      4371            0.0000000000
     64628      5731  TIP3      H2             -3.5738774943      -11.8846249671       64.4238526006  TIP3      4371            0.0000000000
     64629      5732  TIP3      OH2            -5.2604859579      -15.3053304736       62.3033893039  TIP3      4372            0.0000000000
     64630      5732  TIP3      H1             -5.0370313928      -14.7059736440       61.5862007294  TIP3      4372            0.0000000000
     64631      5732  TIP3      H2             -5.3189522440      -16.1626620620       61.8429987158  TIP3      4372            0.0000000000
     64632      5733  TIP3      OH2            -5.9309467254      -17.9395056510       61.4019954892  TIP3      4373            0.0000000000
     64633      5733  TIP3      H1             -5.3346096791      -18.3232420412       62.0538353858  TIP3      4373            0.0000000000
     64634      5733  TIP3      H2             -6.7620541760      -18.3600038129       61.6474515459  TIP3      4373            0.0000000000
     64635      5734  TIP3      OH2           -18.5092298446       -4.0847678994       61.9711581587  TIP3      4374            0.0000000000
     64636      5734  TIP3      H1            -18.8679937880       -3.8762082459       62.8513619658  TIP3      4374            0.0000000000
     64637      5734  TIP3      H2            -17.8170970998       -4.7269963663       62.1496517055  TIP3      4374            0.0000000000
     64638      5735  TIP3      OH2             7.5721338548      -13.9448336556       62.6781203859  TIP3      4375            0.0000000000
     64639      5735  TIP3      H1              8.2973326795      -13.8773141883       63.3220906161  TIP3      4375            0.0000000000
     64640      5735  TIP3      H2              7.9173543430      -14.6051162911       62.0683535672  TIP3      4375            0.0000000000
     64641      5736  TIP3      OH2             9.8733507508      -13.0550508276       64.2596035721  TIP3      4376            0.0000000000
     64642      5736  TIP3      H1             10.4156453480      -12.8162880860       65.0117108504  TIP3      4376            0.0000000000
     64643      5736  TIP3      H2             10.2796518573      -12.5355220251       63.5348520064  TIP3      4376            0.0000000000
     64644      5737  TIP3      OH2            13.5712324959      -21.2839030801       64.1596421445  TIP3      4377            0.0000000000
     64645      5737  TIP3      H1             12.6425678585      -21.2042288095       64.3935587092  TIP3      4377            0.0000000000
     64646      5737  TIP3      H2             13.7724446347      -20.4328361194       63.7400857792  TIP3      4377            0.0000000000
     64647      5738  TIP3      OH2            14.7949584179       -6.9466196929       62.4047628580  TIP3      4378            0.0000000000
     64648      5738  TIP3      H1             14.8403566411       -6.0101896265       62.6224607489  TIP3      4378            0.0000000000
     64649      5738  TIP3      H2             15.7172983166       -7.2377658624       62.4789814004  TIP3      4378            0.0000000000
     64650      5739  TIP3      OH2            11.3530215986      -12.0625931048       62.0202838484  TIP3      4379            0.0000000000
     64651      5739  TIP3      H1             11.2950305387      -12.1940627348       61.0451458554  TIP3      4379            0.0000000000
     64652      5739  TIP3      H2             12.1658133481      -11.5506862054       62.1135687326  TIP3      4379            0.0000000000
     64653      5740  TIP3      OH2             6.9042593804      -18.0974864780       62.5669858594  TIP3      4380            0.0000000000
     64654      5740  TIP3      H1              6.6371918871      -18.0840818654       63.4946557555  TIP3      4380            0.0000000000
     64655      5740  TIP3      H2              6.6618737969      -18.9948436488       62.3015815912  TIP3      4380            0.0000000000
     64656      5741  TIP3      OH2             9.6065946014      -17.5538589714       63.1816179810  TIP3      4381            0.0000000000
     64657      5741  TIP3      H1              8.6467663264      -17.4255421732       63.0978075548  TIP3      4381            0.0000000000
     64658      5741  TIP3      H2              9.9121215546      -16.7223710687       63.5988034222  TIP3      4381            0.0000000000
     64659      5742  TIP3      OH2            10.3273987058      -15.5977703335       64.8798182902  TIP3      4382            0.0000000000
     64660      5742  TIP3      H1             11.2341144498      -15.7963595321       65.1452797576  TIP3      4382            0.0000000000
     64661      5742  TIP3      H2             10.4006860707      -14.8185806549       64.3007546880  TIP3      4382            0.0000000000
     64662      5743  TIP3      OH2             7.8557523329       -8.8647943582       64.1091971837  TIP3      4383            0.0000000000
     64663      5743  TIP3      H1              7.5081507233       -8.0211170247       64.4442800005  TIP3      4383            0.0000000000
     64664      5743  TIP3      H2              7.1571848244       -9.5006771257       64.2853110627  TIP3      4383            0.0000000000
     64665      5744  TIP3      OH2            15.2071139124      -15.4706934972       64.6177634271  TIP3      4384            0.0000000000
     64666      5744  TIP3      H1             14.6206778203      -15.7988655641       63.9035306793  TIP3      4384            0.0000000000
     64667      5744  TIP3      H2             15.2919029143      -14.5419890496       64.3169167586  TIP3      4384            0.0000000000
     64668      5745  TIP3      OH2            -0.9539615182      -12.6420378646       62.7550412114  TIP3      4385            0.0000000000
     64669      5745  TIP3      H1             -0.4045905859      -11.9934015711       63.2354913779  TIP3      4385            0.0000000000
     64670      5745  TIP3      H2             -1.8626950995      -12.4122602888       63.0361394137  TIP3      4385            0.0000000000
     64671      5746  TIP3      OH2             4.9883765778       -7.5281202861       61.3114646924  TIP3      4386            0.0000000000
     64672      5746  TIP3      H1              5.2317229786       -8.3066926734       60.7753197711  TIP3      4386            0.0000000000
     64673      5746  TIP3      H2              4.6910270964       -7.9584591487       62.1333742512  TIP3      4386            0.0000000000
     64674      5747  TIP3      OH2             3.8849808029       -8.0376959791       63.8009152358  TIP3      4387            0.0000000000
     64675      5747  TIP3      H1              4.1235118496       -8.5123317977       64.6056528723  TIP3      4387            0.0000000000
     64676      5747  TIP3      H2              3.9912239740       -7.1129685396       64.0917148341  TIP3      4387            0.0000000000
     64677      5748  TIP3      OH2             0.3719898771      -10.7552932991       64.2441253030  TIP3      4388            0.0000000000
     64678      5748  TIP3      H1             -0.2645957935      -10.4263841708       64.8809795666  TIP3      4388            0.0000000000
     64679      5748  TIP3      H2              0.9059928011       -9.9807983190       64.0041900630  TIP3      4388            0.0000000000
     64680      5749  TIP3      OH2             6.6405161294       -6.3254164911       64.5137989999  TIP3      4389            0.0000000000
     64681      5749  TIP3      H1              5.8057076305       -5.8357737803       64.5481109511  TIP3      4389            0.0000000000
     64682      5749  TIP3      H2              7.1849515695       -5.8431308662       63.8852798771  TIP3      4389            0.0000000000
     64683      5750  TIP3      OH2             4.1137536855       -5.2534715121       64.5338715501  TIP3      4390            0.0000000000
     64684      5750  TIP3      H1              4.1011008996       -4.4606038594       63.9831289755  TIP3      4390            0.0000000000
     64685      5750  TIP3      H2              3.7926236338       -4.9432537741       65.3872864858  TIP3      4390            0.0000000000
     64686      5751  TIP3      OH2             0.9783753386       -8.1573603151       63.2105648837  TIP3      4391            0.0000000000
     64687      5751  TIP3      H1              1.6094174177       -7.4705463968       63.4506995837  TIP3      4391            0.0000000000
     64688      5751  TIP3      H2              1.4921629882       -8.5980671637       62.5022482640  TIP3      4391            0.0000000000
     64689      5752  TIP3      OH2             2.5315012298      -10.0342407975       61.4925026992  TIP3      4392            0.0000000000
     64690      5752  TIP3      H1              2.7000425636      -10.7838872222       62.0747101055  TIP3      4392            0.0000000000
     64691      5752  TIP3      H2              3.2813538101      -10.1092023887       60.8662266996  TIP3      4392            0.0000000000
     64692      5753  TIP3      OH2             7.8762768317       -8.9414054787       61.2607655785  TIP3      4393            0.0000000000
     64693      5753  TIP3      H1              7.7281490991       -8.8065676792       62.1993001747  TIP3      4393            0.0000000000
     64694      5753  TIP3      H2              7.7454024101       -9.8984655559       61.1406044848  TIP3      4393            0.0000000000
     64695      5754  TIP3      OH2            14.1465021935      -11.3952192000       61.5719232882  TIP3      4394            0.0000000000
     64696      5754  TIP3      H1             13.9261098318      -11.8175558238       60.7241280889  TIP3      4394            0.0000000000
     64697      5754  TIP3      H2             14.2694734870      -10.4614432585       61.3477978115  TIP3      4394            0.0000000000
     64698      5755  TIP3      OH2            -1.7884247686       -8.4959274767       62.6442059727  TIP3      4395            0.0000000000
     64699      5755  TIP3      H1             -0.8404535574       -8.3546070142       62.8398613422  TIP3      4395            0.0000000000
     64700      5755  TIP3      H2             -1.7374823970       -9.1538207492       61.9213384899  TIP3      4395            0.0000000000
     64701      5756  TIP3      OH2            15.3414849297      -12.6461937904       63.7620952507  TIP3      4396            0.0000000000
     64702      5756  TIP3      H1             14.8416583005      -12.2407853910       63.0188740047  TIP3      4396            0.0000000000
     64703      5756  TIP3      H2             15.3302872247      -11.9154263320       64.3958155312  TIP3      4396            0.0000000000
     64704      5757  TIP3      OH2            13.7027642193      -15.3611619663       62.2962550631  TIP3      4397            0.0000000000
     64705      5757  TIP3      H1             13.7749242376      -14.7343018865       61.5726866584  TIP3      4397            0.0000000000
     64706      5757  TIP3      H2             13.5203207036      -16.1953937015       61.8172017862  TIP3      4397            0.0000000000
     64707      5758  TIP3      OH2            12.9227609181      -17.9078952765       61.4262639656  TIP3      4398            0.0000000000
     64708      5758  TIP3      H1             13.5262000433      -18.3387262859       62.0551428496  TIP3      4398            0.0000000000
     64709      5758  TIP3      H2             12.0853709992      -18.3426287900       61.6276603646  TIP3      4398            0.0000000000
     64710      5759  TIP3      OH2            15.0474124669      -19.0867428581       63.0156871539  TIP3      4399            0.0000000000
     64711      5759  TIP3      H1             15.4396174404      -19.7890402066       62.4601322117  TIP3      4399            0.0000000000
     64712      5759  TIP3      H2             15.7306539929      -18.4022744107       63.0221626848  TIP3      4399            0.0000000000
     64713      5760  TIP3      OH2             0.3119763588       -4.1003247938       61.9590623138  TIP3      4400            0.0000000000
     64714      5760  TIP3      H1              0.0104886738       -3.8881704187       62.8581894050  TIP3      4400            0.0000000000
     64715      5760  TIP3      H2              1.0636454547       -4.6900625847       62.1326873975  TIP3      4400            0.0000000000
     64716      5761  TIP3      OH2            28.7604261374      -13.0568302029       64.2778265623  TIP3      4401            0.0000000000
     64717      5761  TIP3      H1             29.2748476589      -12.8434647703       65.0552112668  TIP3      4401            0.0000000000
     64718      5761  TIP3      H2             29.1129086239      -12.5265577656       63.5674102127  TIP3      4401            0.0000000000
     64719      5762  TIP3      OH2            33.6003592045       -6.9477196082       62.4494105211  TIP3      4402            0.0000000000
     64720      5762  TIP3      H1             33.6866965899       -5.9987984817       62.6846511387  TIP3      4402            0.0000000000
     64721      5762  TIP3      H2             34.5251987978       -7.2392240712       62.5008104237  TIP3      4402            0.0000000000
     64722      5763  TIP3      OH2            25.7401256716      -18.1580796174       62.6126157807  TIP3      4403            0.0000000000
     64723      5763  TIP3      H1             25.5640972954      -18.1284130268       63.5477868937  TIP3      4403            0.0000000000
     64724      5763  TIP3      H2             25.4719782233      -19.0300036693       62.2900993883  TIP3      4403            0.0000000000
     64725      5764  TIP3      OH2            17.1187113616      -17.2644937689       64.1532574697  TIP3      4404            0.0000000000
     64726      5764  TIP3      H1             17.5820005220      -16.6325528742       63.5982307489  TIP3      4404            0.0000000000
     64727      5764  TIP3      H2             16.4184632330      -16.6830640154       64.5096673093  TIP3      4404            0.0000000000
     64728      5765  TIP3      OH2            28.4696494041      -17.5167224900       63.1641732061  TIP3      4405            0.0000000000
     64729      5765  TIP3      H1             27.5062011443      -17.4356763612       63.0848696383  TIP3      4405            0.0000000000
     64730      5765  TIP3      H2             28.7054140006      -16.6910624045       63.6189913670  TIP3      4405            0.0000000000
     64731      5766  TIP3      OH2            29.2064856619      -15.6161595575       64.8963710345  TIP3      4406            0.0000000000
     64732      5766  TIP3      H1             30.1140080816      -15.8220910761       65.1327629712  TIP3      4406            0.0000000000
     64733      5766  TIP3      H2             29.2171851072      -14.8256595568       64.3329500948  TIP3      4406            0.0000000000
     64734      5767  TIP3      OH2            29.7973774053       -8.6902637599       62.8474550962  TIP3      4407            0.0000000000
     64735      5767  TIP3      H1             30.1530885748       -9.0216557752       63.6768574539  TIP3      4407            0.0000000000
     64736      5767  TIP3      H2             28.8452034833       -8.7850605940       62.9286223991  TIP3      4407            0.0000000000
     64737      5768  TIP3      OH2            34.2470387550       -4.2100002950       63.0210477196  TIP3      4408            0.0000000000
     64738      5768  TIP3      H1             35.0152478783       -3.6216981019       62.9749222164  TIP3      4408            0.0000000000
     64739      5768  TIP3      H2             33.5543385290       -3.6437473591       63.3649093616  TIP3      4408            0.0000000000
     64740      5769  TIP3      OH2            19.2756564853      -10.7102906607       64.1420349846  TIP3      4409            0.0000000000
     64741      5769  TIP3      H1             18.6154228538      -10.4210777298       64.8020646866  TIP3      4409            0.0000000000
     64742      5769  TIP3      H2             19.8093611322       -9.9361568121       64.0128749016  TIP3      4409            0.0000000000
     64743      5770  TIP3      OH2            30.4767268396       -5.9674309769       61.6020262377  TIP3      4410            0.0000000000
     64744      5770  TIP3      H1             30.7929815954       -6.6663407309       62.1886087025  TIP3      4410            0.0000000000
     64745      5770  TIP3      H2             31.2622956627       -5.6840292248       61.1268126361  TIP3      4410            0.0000000000
     64746      5771  TIP3      OH2            21.4600224770       -9.9963205794       61.5387345895  TIP3      4411            0.0000000000
     64747      5771  TIP3      H1             21.4853316327      -10.7802200694       62.0844182066  TIP3      4411            0.0000000000
     64748      5771  TIP3      H2             22.1311947318      -10.1295705544       60.8724744505  TIP3      4411            0.0000000000
     64749      5772  TIP3      OH2            26.8229581860       -8.9088947975       61.2766550592  TIP3      4412            0.0000000000
     64750      5772  TIP3      H1             26.5397129202       -8.7430954116       62.1677566849  TIP3      4412            0.0000000000
     64751      5772  TIP3      H2             26.6118825475       -9.8573027010       61.1274244894  TIP3      4412            0.0000000000
     64752      5773  TIP3      OH2            17.1303424122       -8.3976236254       62.5537281502  TIP3      4413            0.0000000000
     64753      5773  TIP3      H1             18.0395967245       -8.3984979721       62.8585910855  TIP3      4413            0.0000000000
     64754      5773  TIP3      H2             17.1526551780       -9.1497158732       61.9257050303  TIP3      4413            0.0000000000
     64755      5774  TIP3      OH2            19.1782273226       -4.1157972313       61.9816939938  TIP3      4414            0.0000000000
     64756      5774  TIP3      H1             18.8675996966       -3.8639624570       62.8713217392  TIP3      4414            0.0000000000
     64757      5774  TIP3      H2             19.9061248032       -4.7338691976       62.1344791652  TIP3      4414            0.0000000000
     64758      5775  TIP3      OH2           -41.2355905454      -17.9647119059       64.1202603987  TIP3      4415            0.0000000000
     64759      5775  TIP3      H1            -40.9924066441      -17.2802836093       64.7231176372  TIP3      4415            0.0000000000
     64760      5775  TIP3      H2            -40.4489225699      -18.5456730444       64.1350668700  TIP3      4415            0.0000000000
     64761      5776  TIP3      OH2            35.9885863621       -8.3990666628       62.5692347334  TIP3      4416            0.0000000000
     64762      5776  TIP3      H1             36.9098818268       -8.3616379873       62.8543408091  TIP3      4416            0.0000000000
     64763      5776  TIP3      H2             35.9744085989       -9.1293631942       61.9422841348  TIP3      4416            0.0000000000
     64764      5777  TIP3      OH2            38.2512269976      -19.0631003370       62.3980679338  TIP3      4417            0.0000000000
     64765      5777  TIP3      H1             38.7385107741      -19.7453944982       61.9225278141  TIP3      4417            0.0000000000
     64766      5777  TIP3      H2             38.8658205882      -18.7849557035       63.1088502174  TIP3      4417            0.0000000000
     64767      5778  TIP3      OH2           -30.1139703285        4.9226086840       62.6533398446  TIP3      4418            0.0000000000
     64768      5778  TIP3      H1            -29.4256371268        4.9534609282       63.3249536362  TIP3      4418            0.0000000000
     64769      5778  TIP3      H2            -29.7869169817        4.2341821118       62.0685367974  TIP3      4418            0.0000000000
     64770      5779  TIP3      OH2           -39.2883484821        2.0292671255       64.3380452055  TIP3      4419            0.0000000000
     64771      5779  TIP3      H1            -38.9466192061        2.3850025796       63.5121257757  TIP3      4419            0.0000000000
     64772      5779  TIP3      H2            -40.2059795359        2.3105278175       64.3995777355  TIP3      4419            0.0000000000
     64773      5780  TIP3      OH2           -35.3175372877        3.9360623910       63.1426852617  TIP3      4420            0.0000000000
     64774      5780  TIP3      H1            -35.8730364179        3.5735357205       62.4157085186  TIP3      4420            0.0000000000
     64775      5780  TIP3      H2            -34.5159287626        4.1625674052       62.6526379353  TIP3      4420            0.0000000000
     64776      5781  TIP3      OH2           -28.1272772839        1.3850403915       63.1686807486  TIP3      4421            0.0000000000
     64777      5781  TIP3      H1            -29.0762060418        1.4753313897       63.1438236923  TIP3      4421            0.0000000000
     64778      5781  TIP3      H2            -27.8111711249        2.1730710306       63.6373374429  TIP3      4421            0.0000000000
     64779      5782  TIP3      OH2           -27.3861478096        3.2591407853       64.8834803120  TIP3      4422            0.0000000000
     64780      5782  TIP3      H1            -26.4906831271        3.0532200547       65.1958349648  TIP3      4422            0.0000000000
     64781      5782  TIP3      H2            -27.2589144458        4.0133582618       64.3105955181  TIP3      4422            0.0000000000
     64782      5783  TIP3      OH2           -22.5794582122        3.4143348137       64.6421743237  TIP3      4423            0.0000000000
     64783      5783  TIP3      H1            -23.0511269523        3.0489022655       63.8769189583  TIP3      4423            0.0000000000
     64784      5783  TIP3      H2            -22.3943933267        4.3150722229       64.3169918588  TIP3      4423            0.0000000000
     64785      5784  TIP3      OH2           -32.7495027202       11.2908830008       61.3264211689  TIP3      4424            0.0000000000
     64786      5784  TIP3      H1            -32.4572931117       10.5401056207       60.7942140451  TIP3      4424            0.0000000000
     64787      5784  TIP3      H2            -32.9851652455       10.8892638918       62.1678074517  TIP3      4424            0.0000000000
     64788      5785  TIP3      OH2           -38.2253881592        3.2543017653       62.1698038008  TIP3      4425            0.0000000000
     64789      5785  TIP3      H1            -38.3504883123        4.1760142929       62.4575474275  TIP3      4425            0.0000000000
     64790      5785  TIP3      H2            -39.1524365651        3.0602527607       61.9977252207  TIP3      4425            0.0000000000
     64791      5786  TIP3      OH2           -29.7995798906        9.9360359369       61.2474630170  TIP3      4426            0.0000000000
     64792      5786  TIP3      H1            -30.0104775887       10.1093381834       62.1715009252  TIP3      4426            0.0000000000
     64793      5786  TIP3      H2            -29.9537621557        8.9848206991       61.1498398851  TIP3      4426            0.0000000000
     64794      5787  TIP3      OH2           -32.8711629611        5.0461999605       62.1282394619  TIP3      4427            0.0000000000
     64795      5787  TIP3      H1            -33.0482656574        4.9873266312       61.1670405713  TIP3      4427            0.0000000000
     64796      5787  TIP3      H2            -31.9122269830        5.1669640991       62.1806842708  TIP3      4427            0.0000000000
     64797      5788  TIP3      OH2           -23.5052702839        7.4083051806       61.5825830520  TIP3      4428            0.0000000000
     64798      5788  TIP3      H1            -23.7781966422        7.0003811872       60.7526267784  TIP3      4428            0.0000000000
     64799      5788  TIP3      H2            -23.5147756416        8.3752883173       61.3776715938  TIP3      4428            0.0000000000
     64800      5789  TIP3      OH2           -22.3857264085        6.2377416596       63.7830342186  TIP3      4429            0.0000000000
     64801      5789  TIP3      H1            -22.8924387775        6.5988526727       63.0173085811  TIP3      4429            0.0000000000
     64802      5789  TIP3      H2            -22.4043583952        6.9583741004       64.4153989938  TIP3      4429            0.0000000000
     64803      5790  TIP3      OH2           -24.0607323737        3.5225292135       62.2831817358  TIP3      4430            0.0000000000
     64804      5790  TIP3      H1            -23.8925670138        4.1679143106       61.5860983151  TIP3      4430            0.0000000000
     64805      5790  TIP3      H2            -24.1169100394        2.6885035242       61.8043614319  TIP3      4430            0.0000000000
     64806      5791  TIP3      OH2           -22.6603529396       -0.1389578136       62.9281659662  TIP3      4431            0.0000000000
     64807      5791  TIP3      H1            -22.2675141623       -0.9412131990       62.5318048768  TIP3      4431            0.0000000000
     64808      5791  TIP3      H2            -21.9106988892        0.4576847427       63.0787651993  TIP3      4431            0.0000000000
     64809      5792  TIP3      OH2           -38.0381761545       -2.1588777519       62.7180373045  TIP3      4432            0.0000000000
     64810      5792  TIP3      H1            -38.4547280097       -1.2680616031       62.8862717230  TIP3      4432            0.0000000000
     64811      5792  TIP3      H2            -38.5525546906       -2.2768580687       63.5491806075  TIP3      4432            0.0000000000
     64812      5793  TIP3      OH2           -36.9650815694        0.0238988646       62.2001226156  TIP3      4433            0.0000000000
     64813      5793  TIP3      H1            -36.7444415290       -0.8918231332       61.9051182438  TIP3      4433            0.0000000000
     64814      5793  TIP3      H2            -36.5269690385        0.0845634031       63.0336265648  TIP3      4433            0.0000000000
     64815      5794  TIP3      OH2            -4.1352224949       11.9557625783       62.4283929555  TIP3      4434            0.0000000000
     64816      5794  TIP3      H1             -4.0231993804       12.8719136763       62.6752598367  TIP3      4434            0.0000000000
     64817      5794  TIP3      H2             -3.2178660435       11.6590634897       62.4593740047  TIP3      4434            0.0000000000
     64818      5795  TIP3      OH2            -8.7022781138       14.7024748067       63.1830533183  TIP3      4435            0.0000000000
     64819      5795  TIP3      H1             -8.3146243270       13.9494441333       62.6940564119  TIP3      4435            0.0000000000
     64820      5795  TIP3      H2             -8.6871069513       14.3791712804       64.0940376248  TIP3      4435            0.0000000000
     64821      5796  TIP3      OH2            -7.4978944251        6.8289016684       62.0237451254  TIP3      4436            0.0000000000
     64822      5796  TIP3      H1             -7.5677369951        6.6061374417       61.0666075389  TIP3      4436            0.0000000000
     64823      5796  TIP3      H2             -6.6471490750        7.2671462571       62.0652844785  TIP3      4436            0.0000000000
     64824      5797  TIP3      OH2           -20.6466824828        1.5701465710       64.0717711129  TIP3      4437            0.0000000000
     64825      5797  TIP3      H1            -20.0747934985        2.2333197909       63.6401571038  TIP3      4437            0.0000000000
     64826      5797  TIP3      H2            -21.2679625108        2.1543880706       64.5495620234  TIP3      4437            0.0000000000
     64827      5798  TIP3      OH2           -19.8236633365        6.1986368248       62.7894261352  TIP3      4438            0.0000000000
     64828      5798  TIP3      H1            -19.2832320742        6.8391698375       63.2481685089  TIP3      4438            0.0000000000
     64829      5798  TIP3      H2            -20.7314598970        6.4564322466       63.0506417449  TIP3      4438            0.0000000000
     64830      5799  TIP3      OH2           -13.8419262642       11.2874566406       61.2975703930  TIP3      4439            0.0000000000
     64831      5799  TIP3      H1            -13.6203037286       10.5063958129       60.7941692664  TIP3      4439            0.0000000000
     64832      5799  TIP3      H2            -14.1429579341       10.9128275141       62.1531792799  TIP3      4439            0.0000000000
     64833      5800  TIP3      OH2           -14.8751887499       10.8566516477       63.7688988241  TIP3      4440            0.0000000000
     64834      5800  TIP3      H1            -14.7987386089       10.3788192560       64.6103012737  TIP3      4440            0.0000000000
     64835      5800  TIP3      H2            -14.9090739274       11.7570001112       64.1082399593  TIP3      4440            0.0000000000
     64836      5801  TIP3      OH2           -17.8752023204       10.7231068605       63.1137622001  TIP3      4441            0.0000000000
     64837      5801  TIP3      H1            -17.2858775088       11.3776204461       63.5011461482  TIP3      4441            0.0000000000
     64838      5801  TIP3      H2            -17.3401056902       10.3002253133       62.4488555091  TIP3      4441            0.0000000000
     64839      5802  TIP3      OH2           -19.5669331960        3.3542350452       62.3181040900  TIP3      4442            0.0000000000
     64840      5802  TIP3      H1            -19.5689240340        4.3206878401       62.4702619903  TIP3      4442            0.0000000000
     64841      5802  TIP3      H2            -20.4542861019        3.1898446421       62.0114880483  TIP3      4442            0.0000000000
     64842      5803  TIP3      OH2            -7.2593829215       12.8828184561       61.6087937769  TIP3      4443            0.0000000000
     64843      5803  TIP3      H1             -6.8984754720       12.1731076900       62.1492941990  TIP3      4443            0.0000000000
     64844      5803  TIP3      H2             -6.4833581049       13.1641249278       61.0844180803  TIP3      4443            0.0000000000
     64845      5804  TIP3      OH2            -4.6444741682        7.4487679170       61.5790307452  TIP3      4444            0.0000000000
     64846      5804  TIP3      H1             -4.9183193353        7.0423871896       60.7393116139  TIP3      4444            0.0000000000
     64847      5804  TIP3      H2             -4.6178391227        8.3957379816       61.3340994700  TIP3      4444            0.0000000000
     64848      5805  TIP3      OH2           -20.6352227231       10.4087391517       62.5934737831  TIP3      4445            0.0000000000
     64849      5805  TIP3      H1            -19.6975564644       10.4991221503       62.8771401926  TIP3      4445            0.0000000000
     64850      5805  TIP3      H2            -20.5649520557        9.7210032599       61.9099561531  TIP3      4445            0.0000000000
     64851      5806  TIP3      OH2            -3.5657457580        6.2562185579       63.7810482935  TIP3      4446            0.0000000000
     64852      5806  TIP3      H1             -4.0190623768        6.6391262046       62.9984242245  TIP3      4446            0.0000000000
     64853      5806  TIP3      H2             -3.5750420927        6.9819241477       64.4016187403  TIP3      4446            0.0000000000
     64854      5807  TIP3      OH2            -5.9103273871        0.8972109677       61.4208766683  TIP3      4447            0.0000000000
     64855      5807  TIP3      H1             -5.3270549585        0.5493877214       62.0908618992  TIP3      4447            0.0000000000
     64856      5807  TIP3      H2             -6.7695412293        0.5034698235       61.6003643450  TIP3      4447            0.0000000000
     64857      5808  TIP3      OH2           -20.2930584261       -2.1589788835       63.9683259544  TIP3      4448            0.0000000000
     64858      5808  TIP3      H1            -19.7923280152       -1.4724188730       63.5102402860  TIP3      4448            0.0000000000
     64859      5808  TIP3      H2            -20.8282351123       -1.6062899795       64.5554265544  TIP3      4448            0.0000000000
     64860      5809  TIP3      OH2           -18.4257249583       -0.2847984583       62.4868620009  TIP3      4449            0.0000000000
     64861      5809  TIP3      H1            -17.8710751788       -0.8696761147       61.9508102173  TIP3      4449            0.0000000000
     64862      5809  TIP3      H2            -17.8454458226        0.0728700880       63.1694332899  TIP3      4449            0.0000000000
     64863      5810  TIP3      OH2             7.6414756576        4.9054134604       62.7061045519  TIP3      4450            0.0000000000
     64864      5810  TIP3      H1              8.3297017300        4.9308278752       63.3666076967  TIP3      4450            0.0000000000
     64865      5810  TIP3      H2              7.9494741356        4.2722306889       62.0572856517  TIP3      4450            0.0000000000
     64866      5811  TIP3      OH2            15.1993627458        3.3922538891       64.6033802789  TIP3      4451            0.0000000000
     64867      5811  TIP3      H1             14.6782510722        2.9899152132       63.8920708427  TIP3      4451            0.0000000000
     64868      5811  TIP3      H2             15.2979302944        4.3161026715       64.3045840707  TIP3      4451            0.0000000000
     64869      5812  TIP3      OH2             4.9978521920       11.2667871919       61.2930569150  TIP3      4452            0.0000000000
     64870      5812  TIP3      H1              5.2213931206       10.4632311613       60.8103744126  TIP3      4452            0.0000000000
     64871      5812  TIP3      H2              4.7123099088       10.9204926842       62.1391917590  TIP3      4452            0.0000000000
     64872      5813  TIP3      OH2            11.6367011405       13.1567306584       61.7605198122  TIP3      4453            0.0000000000
     64873      5813  TIP3      H1             11.8476315766       12.3208720827       62.2072343778  TIP3      4453            0.0000000000
     64874      5813  TIP3      H2             12.3589291629       13.2255695008       61.1302418668  TIP3      4453            0.0000000000
     64875      5814  TIP3      OH2             7.8143692590        9.9407819159       61.3835449098  TIP3      4454            0.0000000000
     64876      5814  TIP3      H1              7.6399166676       10.0599389804       62.3092901877  TIP3      4454            0.0000000000
     64877      5814  TIP3      H2              7.7366462321        9.0003908579       61.2116866494  TIP3      4454            0.0000000000
     64878      5815  TIP3      OH2            15.2942966789        6.1823437164       63.7603241101  TIP3      4455            0.0000000000
     64879      5815  TIP3      H1             14.8401120332        6.5818447525       63.0036548259  TIP3      4455            0.0000000000
     64880      5815  TIP3      H2             15.3238722524        6.8988260001       64.4037234191  TIP3      4455            0.0000000000
     64881      5816  TIP3      OH2            15.0555537501       -0.1824170149       62.9708036604  TIP3      4456            0.0000000000
     64882      5816  TIP3      H1             15.4423713155       -0.9592400709       62.5314388409  TIP3      4456            0.0000000000
     64883      5816  TIP3      H2             15.7729042867        0.4529000869       63.0347867204  TIP3      4456            0.0000000000
     64884      5817  TIP3      OH2            -1.4694936106       -2.2444991869       64.0031533499  TIP3      4457            0.0000000000
     64885      5817  TIP3      H1             -1.0170087479       -1.6183641898       63.4328215195  TIP3      4457            0.0000000000
     64886      5817  TIP3      H2             -2.0677206445       -1.6998316774       64.5003670360  TIP3      4457            0.0000000000
     64887      5818  TIP3      OH2            33.5861669375       11.9347158183       62.4945248020  TIP3      4458            0.0000000000
     64888      5818  TIP3      H1             33.7171911176       12.8752935858       62.6894724895  TIP3      4458            0.0000000000
     64889      5818  TIP3      H2             34.4975449387       11.6122500828       62.5122539259  TIP3      4458            0.0000000000
     64890      5819  TIP3      OH2            17.0943192024        1.5623540928       64.1364765049  TIP3      4459            0.0000000000
     64891      5819  TIP3      H1             17.6273554931        2.1979876161       63.6233916392  TIP3      4459            0.0000000000
     64892      5819  TIP3      H2             16.4512742396        2.1829443312       64.5290101703  TIP3      4459            0.0000000000
     64893      5820  TIP3      OH2            21.2236520839        3.8859210863       63.1412011967  TIP3      4460            0.0000000000
     64894      5820  TIP3      H1             20.7152493002        3.5722354798       62.3765549008  TIP3      4460            0.0000000000
     64895      5820  TIP3      H2             22.0351664421        4.1904104645       62.6978011496  TIP3      4460            0.0000000000
     64896      5821  TIP3      OH2            34.2315157447       14.6752862696       63.0124772503  TIP3      4461            0.0000000000
     64897      5821  TIP3      H1             35.0014134195       15.2594358732       62.9447342368  TIP3      4461            0.0000000000
     64898      5821  TIP3      H2             33.5860022327       15.2412451650       63.4339635083  TIP3      4461            0.0000000000
     64899      5822  TIP3      OH2            23.9274338508       11.2959347473       61.3230735064  TIP3      4462            0.0000000000
     64900      5822  TIP3      H1             24.0696540951       10.5350597394       60.7508831778  TIP3      4462            0.0000000000
     64901      5822  TIP3      H2             23.5362469268       10.8915228546       62.1338726561  TIP3      4462            0.0000000000
     64902      5823  TIP3      OH2            22.8052153773       10.8440615975       63.7811824467  TIP3      4463            0.0000000000
     64903      5823  TIP3      H1             22.9041577203       10.3706932906       64.6101236630  TIP3      4463            0.0000000000
     64904      5823  TIP3      H2             22.8206408875       11.7694637592       64.0957680411  TIP3      4463            0.0000000000
     64905      5824  TIP3      OH2            25.5132418446       12.5601639460       64.5561447680  TIP3      4464            0.0000000000
     64906      5824  TIP3      H1             24.6777600444       13.0412912755       64.5496986131  TIP3      4464            0.0000000000
     64907      5824  TIP3      H2             26.0326034037       13.0570677354       63.9195083481  TIP3      4464            0.0000000000
     64908      5825  TIP3      OH2            22.9009981585       13.5895833485       64.5226924341  TIP3      4465            0.0000000000
     64909      5825  TIP3      H1             22.9962346863       14.3950800345       63.9555783529  TIP3      4465            0.0000000000
     64910      5825  TIP3      H2             22.6881411156       13.9513012219       65.3904936930  TIP3      4465            0.0000000000
     64911      5826  TIP3      OH2            21.5915795432        0.2754765151       64.0920262024  TIP3      4466            0.0000000000
     64912      5826  TIP3      H1             21.4742140561        1.1649179179       64.4569629509  TIP3      4466            0.0000000000
     64913      5826  TIP3      H2             22.4714498570        0.0486755474       64.3768733671  TIP3      4466            0.0000000000
     64914      5827  TIP3      OH2            19.8402882770       10.7717105142       63.1794162982  TIP3      4467            0.0000000000
     64915      5827  TIP3      H1             20.5093839340       11.3911600214       63.4598365988  TIP3      4467            0.0000000000
     64916      5827  TIP3      H2             20.3201669978       10.2371288928       62.5192827349  TIP3      4467            0.0000000000
     64917      5828  TIP3      OH2            18.1467852013        3.3934568655       62.2968867908  TIP3      4468            0.0000000000
     64918      5828  TIP3      H1             18.1434926009        4.3385460970       62.4972705810  TIP3      4468            0.0000000000
     64919      5828  TIP3      H2             17.2592417611        3.1818835468       62.0017096854  TIP3      4468            0.0000000000
     64920      5829  TIP3      OH2            25.9645601650       13.1506416566       61.4401933568  TIP3      4469            0.0000000000
     64921      5829  TIP3      H1             25.2500241572       12.5275216189       61.7220263328  TIP3      4469            0.0000000000
     64922      5829  TIP3      H2             26.6788112226       12.5407275751       61.2436514421  TIP3      4469            0.0000000000
     64923      5830  TIP3      OH2            21.4281072510        8.8949075406       61.5139494674  TIP3      4470            0.0000000000
     64924      5830  TIP3      H1             21.4926460303        8.0976288449       62.0592475420  TIP3      4470            0.0000000000
     64925      5830  TIP3      H2             22.0898772613        8.7347531550       60.8346991027  TIP3      4470            0.0000000000
     64926      5831  TIP3      OH2            23.5570907455        5.0820770460       61.9975564581  TIP3      4471            0.0000000000
     64927      5831  TIP3      H1             23.4609752539        4.8886315955       61.0626226067  TIP3      4471            0.0000000000
     64928      5831  TIP3      H2             24.5138355414        5.0786149700       62.1357597642  TIP3      4471            0.0000000000
     64929      5832  TIP3      OH2            23.5310460917       15.8330642378       63.1918184911  TIP3      4472            0.0000000000
     64930      5832  TIP3      H1             24.4993378348       15.9034231689       63.2158802457  TIP3      4472            0.0000000000
     64931      5832  TIP3      H2             23.3344711567       16.4064501947       62.4351215512  TIP3      4472            0.0000000000
     64932      5833  TIP3      OH2            31.7826410879        0.8745695770       61.4208610310  TIP3      4473            0.0000000000
     64933      5833  TIP3      H1             32.3972564793        0.5725339272       62.0919064195  TIP3      4473            0.0000000000
     64934      5833  TIP3      H2             30.9424058197        0.4951395894       61.6372725875  TIP3      4473            0.0000000000
     64935      5834  TIP3      OH2            17.4504609454       -2.1477169185       64.0439011578  TIP3      4474            0.0000000000
     64936      5834  TIP3      H1             17.9153444054       -1.5071052592       63.4898905296  TIP3      4474            0.0000000000
     64937      5834  TIP3      H2             16.8268580812       -1.5789262532       64.4884065000  TIP3      4474            0.0000000000
     64938      5835  TIP3      OH2            19.2982079295       -0.2271771844       62.4910622805  TIP3      4475            0.0000000000
     64939      5835  TIP3      H1             19.8128834694       -0.8560624677       61.9657495985  TIP3      4475            0.0000000000
     64940      5835  TIP3      H2             19.9133463401        0.0628473517       63.1896413299  TIP3      4475            0.0000000000
     64941      5836  TIP3      OH2            26.1613261599       15.0170377494       63.3776407704  TIP3      4476            0.0000000000
     64942      5836  TIP3      H1             27.0134139710       15.4111246936       63.1537775870  TIP3      4476            0.0000000000
     64943      5836  TIP3      H2             25.9776741481       14.5236730003       62.5534764006  TIP3      4476            0.0000000000
     64944      5837  TIP3      OH2            19.0661376054       14.6722094520       61.9935433858  TIP3      4477            0.0000000000
     64945      5837  TIP3      H1             18.8993781981       15.0260039466       62.8748179007  TIP3      4477            0.0000000000
     64946      5837  TIP3      H2             19.9108497615       14.1896029573       62.1046348316  TIP3      4477            0.0000000000
     64947      5838  TIP3      OH2            36.6663737452        6.2279745097       62.7581644670  TIP3      4478            0.0000000000
     64948      5838  TIP3      H1             37.3142601672        6.8130527656       63.2098290140  TIP3      4478            0.0000000000
     64949      5838  TIP3      H2             35.8248575418        6.5461452604       63.0896153160  TIP3      4478            0.0000000000
     64950      5839  TIP3      OH2            38.0907259383        8.0930976545       64.2243524278  TIP3      4479            0.0000000000
     64951      5839  TIP3      H1             37.4371774578        8.4205322079       64.8577493940  TIP3      4479            0.0000000000
     64952      5839  TIP3      H2             38.5948652767        8.8863984770       64.0215700747  TIP3      4479            0.0000000000
     64953      5840  TIP3      OH2            38.7237793236       10.6913500213       63.1733163174  TIP3      4480            0.0000000000
     64954      5840  TIP3      H1             39.3045349529       11.3987597336       63.4515251005  TIP3      4480            0.0000000000
     64955      5840  TIP3      H2             39.2239713796       10.2631805117       62.4487082421  TIP3      4480            0.0000000000
     64956      5841  TIP3      OH2            37.0366141392        3.4315929105       62.2750882588  TIP3      4481            0.0000000000
     64957      5841  TIP3      H1             36.9730880591        4.3805125823       62.4558993547  TIP3      4481            0.0000000000
     64958      5841  TIP3      H2             36.1406035254        3.1744923427       62.0437785059  TIP3      4481            0.0000000000
     64959      5842  TIP3      OH2            40.2574757820        8.8428808762       61.5750533221  TIP3      4482            0.0000000000
     64960      5842  TIP3      H1             40.4182388202        8.0357993251       62.0718881529  TIP3      4482            0.0000000000
     64961      5842  TIP3      H2             40.9379176763        8.7838212526       60.8687032341  TIP3      4482            0.0000000000
     64962      5843  TIP3      OH2            35.9764106794       10.4130422973       62.6089858158  TIP3      4483            0.0000000000
     64963      5843  TIP3      H1             36.9088208499       10.5072537964       62.8826508920  TIP3      4483            0.0000000000
     64964      5843  TIP3      H2             36.0147717597        9.7372431532       61.9421821864  TIP3      4483            0.0000000000
     64965      5844  TIP3      OH2            36.2349791708       -2.1520882225       64.0715512483  TIP3      4484            0.0000000000
     64966      5844  TIP3      H1             36.7440388506       -1.5663531556       63.4870037020  TIP3      4484            0.0000000000
     64967      5844  TIP3      H2             35.6582545343       -1.5553820426       64.5384927422  TIP3      4484            0.0000000000
     64968      5845  TIP3      OH2            38.0399558246       14.7165030363       61.9466809488  TIP3      4485            0.0000000000
     64969      5845  TIP3      H1             37.7507368503       14.9945671649       62.8326509001  TIP3      4485            0.0000000000
     64970      5845  TIP3      H2             38.7836914675       14.1490079844       62.1543503861  TIP3      4485            0.0000000000
     64971      5846  TIP3      OH2           -27.8763123397       24.7140597000       64.2772430877  TIP3      4486            0.0000000000
     64972      5846  TIP3      H1            -27.3312740301       24.8599315126       65.0508869419  TIP3      4486            0.0000000000
     64973      5846  TIP3      H2            -27.4265817434       25.1597862528       63.5375431351  TIP3      4486            0.0000000000
     64974      5847  TIP3      OH2           -24.1543761553       16.4465661453       64.1288869669  TIP3      4487            0.0000000000
     64975      5847  TIP3      H1            -25.0581129676       16.5625106035       64.4179780131  TIP3      4487            0.0000000000
     64976      5847  TIP3      H2            -23.9301911031       17.3199129450       63.7666566892  TIP3      4487            0.0000000000
     64977      5848  TIP3      OH2           -27.6079638649       33.5434846738       63.1689614431  TIP3      4488            0.0000000000
     64978      5848  TIP3      H1            -27.1569906090       32.8110242169       62.6992264605  TIP3      4488            0.0000000000
     64979      5848  TIP3      H2            -27.5232246812       33.2665295965       64.0965538448  TIP3      4488            0.0000000000
     64980      5849  TIP3      OH2           -26.3798285546       25.6887066118       62.0219579633  TIP3      4489            0.0000000000
     64981      5849  TIP3      H1            -26.4361120738       25.4938855326       61.0550093219  TIP3      4489            0.0000000000
     64982      5849  TIP3      H2            -25.5243500380       26.1281133464       62.0798808596  TIP3      4489            0.0000000000
     64983      5850  TIP3      OH2           -30.8231281096       19.5733484033       62.6096474336  TIP3      4490            0.0000000000
     64984      5850  TIP3      H1            -31.0569687514       19.6274276294       63.5406605794  TIP3      4490            0.0000000000
     64985      5850  TIP3      H2            -31.1287722123       18.7138102424       62.3167509755  TIP3      4490            0.0000000000
     64986      5851  TIP3      OH2           -33.9638933850       20.0259002987       61.6812106671  TIP3      4491            0.0000000000
     64987      5851  TIP3      H1            -34.3898448936       19.6063496190       62.4355478558  TIP3      4491            0.0000000000
     64988      5851  TIP3      H2            -34.6822100451       20.3642925859       61.1449495330  TIP3      4491            0.0000000000
     64989      5852  TIP3      OH2           -39.2238892122       20.7183655999       64.3295226432  TIP3      4492            0.0000000000
     64990      5852  TIP3      H1            -38.9042431629       21.1661550324       63.5388860544  TIP3      4492            0.0000000000
     64991      5852  TIP3      H2            -40.0840744341       21.1182913621       64.4721431625  TIP3      4492            0.0000000000
     64992      5853  TIP3      OH2           -27.3410554665       22.0048191012       64.8374251417  TIP3      4493            0.0000000000
     64993      5853  TIP3      H1            -26.4531820517       21.9379896498       65.1708969436  TIP3      4493            0.0000000000
     64994      5853  TIP3      H2            -27.3801049934       22.8334118433       64.3193815351  TIP3      4493            0.0000000000
     64995      5854  TIP3      OH2           -29.8833820726       28.8014644760       63.9903758148  TIP3      4494            0.0000000000
     64996      5854  TIP3      H1            -30.1488991674       29.6447403380       64.4203401737  TIP3      4494            0.0000000000
     64997      5854  TIP3      H2            -30.5649966470       28.2023940935       64.2844044593  TIP3      4494            0.0000000000
     64998      5855  TIP3      OH2           -22.5035733047       22.2433140225       64.6427441305  TIP3      4495            0.0000000000
     64999      5855  TIP3      H1            -23.0538410046       21.8981934718       63.9080038807  TIP3      4495            0.0000000000
     65000      5855  TIP3      H2            -22.4069223481       23.1621527646       64.3217411215  TIP3      4495            0.0000000000
     65001      5856  TIP3      OH2           -26.7845131488       29.0669303106       62.8459119511  TIP3      4496            0.0000000000
     65002      5856  TIP3      H1            -26.4786734427       28.6914379890       63.6842456086  TIP3      4496            0.0000000000
     65003      5856  TIP3      H2            -27.7425690839       28.9331319866       62.9741942885  TIP3      4496            0.0000000000
     65004      5857  TIP3      OH2           -32.6065609110       30.1465052462       61.3330364134  TIP3      4497            0.0000000000
     65005      5857  TIP3      H1            -32.5540195290       29.3842446023       60.7544004570  TIP3      4497            0.0000000000
     65006      5857  TIP3      H2            -33.0289977877       29.7760897848       62.1420819916  TIP3      4497            0.0000000000
     65007      5858  TIP3      OH2           -33.7111091778       29.6622850020       63.7549381567  TIP3      4498            0.0000000000
     65008      5858  TIP3      H1            -33.6248273169       29.2180102588       64.5933037953  TIP3      4498            0.0000000000
     65009      5858  TIP3      H2            -33.7762428159       30.5944364500       64.0643321521  TIP3      4498            0.0000000000
     65010      5859  TIP3      OH2           -31.0606206544       31.3713685663       64.4770022016  TIP3      4499            0.0000000000
     65011      5859  TIP3      H1            -31.8696442930       31.9056200154       64.5790860574  TIP3      4499            0.0000000000
     65012      5859  TIP3      H2            -30.5196804390       31.9405780731       63.9160054926  TIP3      4499            0.0000000000
     65013      5860  TIP3      OH2           -33.6827660190       32.4130732346       64.5194303743  TIP3      4500            0.0000000000
     65014      5860  TIP3      H1            -33.5663322299       33.2282160541       63.9705475527  TIP3      4500            0.0000000000
     65015      5860  TIP3      H2            -33.8667286659       32.7869467632       65.3988345881  TIP3      4500            0.0000000000
     65016      5861  TIP3      OH2           -30.6816299852       32.0204815567       61.4421994155  TIP3      4501            0.0000000000
     65017      5861  TIP3      H1            -31.3334493646       31.3486949565       61.7360707754  TIP3      4501            0.0000000000
     65018      5861  TIP3      H2            -29.9070207834       31.4829465742       61.2176364437  TIP3      4501            0.0000000000
     65019      5862  TIP3      OH2           -26.1553340134       31.7223105677       61.6327744645  TIP3      4502            0.0000000000
     65020      5862  TIP3      H1            -25.8139496026       30.9832770424       62.1532618898  TIP3      4502            0.0000000000
     65021      5862  TIP3      H2            -25.4039495750       32.0528225153       61.1083601928  TIP3      4502            0.0000000000
     65022      5863  TIP3      OH2           -23.5176788548       26.2915309867       61.5911973582  TIP3      4503            0.0000000000
     65023      5863  TIP3      H1            -23.7208925554       25.8914132124       60.7262403698  TIP3      4503            0.0000000000
     65024      5863  TIP3      H2            -23.4667800788       27.2371380589       61.3154630216  TIP3      4503            0.0000000000
     65025      5864  TIP3      OH2           -33.0252664659       34.6717952359       63.1836228128  TIP3      4504            0.0000000000
     65026      5864  TIP3      H1            -32.0549960852       34.7572084488       63.2300377198  TIP3      4504            0.0000000000
     65027      5864  TIP3      H2            -33.2100456416       35.2990236586       62.4597674745  TIP3      4504            0.0000000000
     65028      5865  TIP3      OH2           -22.4101871898       25.0880965247       63.7626169100  TIP3      4505            0.0000000000
     65029      5865  TIP3      H1            -22.8913125003       25.4641474710       62.9885932463  TIP3      4505            0.0000000000
     65030      5865  TIP3      H2            -22.4424871616       25.8012724196       64.4115182584  TIP3      4505            0.0000000000
     65031      5866  TIP3      OH2           -23.9627490703       22.3617286522       62.2898796754  TIP3      4506            0.0000000000
     65032      5866  TIP3      H1            -23.9508323521       23.0111857772       61.5783880980  TIP3      4506            0.0000000000
     65033      5866  TIP3      H2            -24.2099161204       21.5354928176       61.8219162545  TIP3      4506            0.0000000000
     65034      5867  TIP3      OH2           -24.8129429090       19.8252767060       61.4441834296  TIP3      4507            0.0000000000
     65035      5867  TIP3      H1            -24.1601087266       19.3989626622       62.0324539184  TIP3      4507            0.0000000000
     65036      5867  TIP3      H2            -25.6202391915       19.3351575365       61.6392971714  TIP3      4507            0.0000000000
     65037      5868  TIP3      OH2           -22.6653078198       18.6436486581       62.9901260600  TIP3      4508            0.0000000000
     65038      5868  TIP3      H1            -22.2488110290       17.9620421640       62.4437622177  TIP3      4508            0.0000000000
     65039      5868  TIP3      H2            -21.9709173598       19.3249575802       63.0549543555  TIP3      4508            0.0000000000
     65040      5869  TIP3      OH2           -30.3649958700       33.8861235057       63.3880975784  TIP3      4509            0.0000000000
     65041      5869  TIP3      H1            -29.4574942038       34.1701094773       63.1846177524  TIP3      4509            0.0000000000
     65042      5869  TIP3      H2            -30.5636032658       33.3936718214       62.5631196486  TIP3      4509            0.0000000000
     65043      5870  TIP3      OH2           -37.4019556418       33.6116740879       61.9727649310  TIP3      4510            0.0000000000
     65044      5870  TIP3      H1            -37.6824379492       33.8499656747       62.8720168511  TIP3      4510            0.0000000000
     65045      5870  TIP3      H2            -36.6694882023       32.9894566383       62.1342605966  TIP3      4510            0.0000000000
     65046      5871  TIP3      OH2           -11.2266760245       23.8333558919       62.6233770943  TIP3      4511            0.0000000000
     65047      5871  TIP3      H1            -10.5407679497       23.8268272533       63.3281227984  TIP3      4511            0.0000000000
     65048      5871  TIP3      H2            -10.8614649116       23.1308716851       62.0692079032  TIP3      4511            0.0000000000
     65049      5872  TIP3      OH2            -9.0259432478       24.6673004072       64.3141748644  TIP3      4512            0.0000000000
     65050      5872  TIP3      H1             -8.4095048059       24.8223494337       65.0259110171  TIP3      4512            0.0000000000
     65051      5872  TIP3      H2             -8.6115604672       25.1286416010       63.5794257300  TIP3      4512            0.0000000000
     65052      5873  TIP3      OH2            -5.2907738280       16.4649963359       64.2158114995  TIP3      4513            0.0000000000
     65053      5873  TIP3      H1             -6.2336800793       16.5263792738       64.3892286665  TIP3      4513            0.0000000000
     65054      5873  TIP3      H2             -5.0989346777       17.2775471873       63.7279438083  TIP3      4513            0.0000000000
     65055      5874  TIP3      OH2            -8.7772516078       33.4837682138       63.2209958183  TIP3      4514            0.0000000000
     65056      5874  TIP3      H1             -8.3311432303       32.8079034478       62.6786605998  TIP3      4514            0.0000000000
     65057      5874  TIP3      H2             -8.5813308393       33.2117132583       64.1101580617  TIP3      4514            0.0000000000
     65058      5875  TIP3      OH2           -20.6060811666       20.4695499407       64.1492092105  TIP3      4515            0.0000000000
     65059      5875  TIP3      H1            -20.0863881873       21.1057646686       63.6176543856  TIP3      4515            0.0000000000
     65060      5875  TIP3      H2            -21.2864043800       21.0679173526       64.5236891152  TIP3      4515            0.0000000000
     65061      5876  TIP3      OH2           -11.0550834635       28.8360579637       64.0029363315  TIP3      4516            0.0000000000
     65062      5876  TIP3      H1            -11.3418237758       29.6439510611       64.4612018914  TIP3      4516            0.0000000000
     65063      5876  TIP3      H2            -11.6857068833       28.1701106912       64.2989405933  TIP3      4516            0.0000000000
     65064      5877  TIP3      OH2            -3.6945627601       22.2270752670       64.6537251260  TIP3      4517            0.0000000000
     65065      5877  TIP3      H1             -4.2116496327       21.9190606578       63.8901177033  TIP3      4517            0.0000000000
     65066      5877  TIP3      H2             -3.5197337158       23.1318049028       64.3174179098  TIP3      4517            0.0000000000
     65067      5878  TIP3      OH2           -19.8990432121       24.9858718569       62.7871514721  TIP3      4518            0.0000000000
     65068      5878  TIP3      H1            -19.2815952882       25.6527238922       63.1310683360  TIP3      4518            0.0000000000
     65069      5878  TIP3      H2            -20.7768418467       25.3144553462       63.0539263857  TIP3      4518            0.0000000000
     65070      5879  TIP3      OH2           -13.7823701954       30.1783553275       61.3968378529  TIP3      4519            0.0000000000
     65071      5879  TIP3      H1            -13.6434236548       29.4554725418       60.7670217389  TIP3      4519            0.0000000000
     65072      5879  TIP3      H2            -14.1766747046       29.7036007667       62.1304909066  TIP3      4519            0.0000000000
     65073      5880  TIP3      OH2           -12.2689092742       31.2951644200       64.4693844885  TIP3      4520            0.0000000000
     65074      5880  TIP3      H1            -13.0970984273       31.8060065227       64.5315526889  TIP3      4520            0.0000000000
     65075      5880  TIP3      H2            -11.8073916892       31.6858604809       63.7147061715  TIP3      4520            0.0000000000
     65076      5881  TIP3      OH2           -19.5707425775       22.2445631134       62.3030259983  TIP3      4521            0.0000000000
     65077      5881  TIP3      H1            -19.5736191584       23.2053599178       62.4930343888  TIP3      4521            0.0000000000
     65078      5881  TIP3      H2            -20.4645547605       22.0635759446       62.0118407485  TIP3      4521            0.0000000000
     65079      5882  TIP3      OH2           -11.7296495355       31.9869275599       61.5803177465  TIP3      4522            0.0000000000
     65080      5882  TIP3      H1            -12.4925120825       31.3639566074       61.6453734603  TIP3      4522            0.0000000000
     65081      5882  TIP3      H2            -11.0683185523       31.4204249229       61.1427380280  TIP3      4522            0.0000000000
     65082      5883  TIP3      OH2           -10.9936125926       28.8385731983       61.2665466377  TIP3      4523            0.0000000000
     65083      5883  TIP3      H1            -11.0938920305       28.8808875455       62.2299135755  TIP3      4523            0.0000000000
     65084      5883  TIP3      H2            -11.0576580585       27.8638682728       61.1278161001  TIP3      4523            0.0000000000
     65085      5884  TIP3      OH2           -14.0340520748       23.9540427624       62.1231550054  TIP3      4524            0.0000000000
     65086      5884  TIP3      H1            -14.2107197524       23.8207781046       61.1670343802  TIP3      4524            0.0000000000
     65087      5884  TIP3      H2            -13.0763008900       24.0460926802       62.1650431676  TIP3      4524            0.0000000000
     65088      5885  TIP3      OH2           -14.1441320404       34.6305701539       63.2028239808  TIP3      4525            0.0000000000
     65089      5885  TIP3      H1            -13.2078304020       34.8294327557       63.1929725648  TIP3      4525            0.0000000000
     65090      5885  TIP3      H2            -14.4110034012       35.2241519431       62.4684508660  TIP3      4525            0.0000000000
     65091      5886  TIP3      OH2            -3.5432962160       25.0982052556       63.6856137000  TIP3      4526            0.0000000000
     65092      5886  TIP3      H1             -4.1009802518       25.4584401682       62.9987391623  TIP3      4526            0.0000000000
     65093      5886  TIP3      H2             -3.5769885387       25.7326949645       64.4030531297  TIP3      4526            0.0000000000
     65094      5887  TIP3      OH2            -5.1695410331       22.3658272649       62.2939512289  TIP3      4527            0.0000000000
     65095      5887  TIP3      H1             -5.0660108902       23.0012742683       61.5807193711  TIP3      4527            0.0000000000
     65096      5887  TIP3      H2             -5.3300798664       21.5255240153       61.8275753306  TIP3      4527            0.0000000000
     65097      5888  TIP3      OH2            -5.9393679854       19.7588261720       61.4173709003  TIP3      4528            0.0000000000
     65098      5888  TIP3      H1             -5.3194237352       19.3756366510       62.0658533939  TIP3      4528            0.0000000000
     65099      5888  TIP3      H2             -6.7734456527       19.3481598724       61.6598683571  TIP3      4528            0.0000000000
     65100      5889  TIP3      OH2            -3.8748045198       18.6814445978       62.9410236966  TIP3      4529            0.0000000000
     65101      5889  TIP3      H1             -3.4563648389       17.9303125498       62.4649718370  TIP3      4529            0.0000000000
     65102      5889  TIP3      H2             -3.1789507926       19.3416302599       62.9770720279  TIP3      4529            0.0000000000
     65103      5890  TIP3      OH2           -11.5273787521       34.0104221005       63.2245641389  TIP3      4530            0.0000000000
     65104      5890  TIP3      H1            -10.6137463583       34.2576860613       63.0057148534  TIP3      4530            0.0000000000
     65105      5890  TIP3      H2            -11.7597224936       33.4569247517       62.4289411085  TIP3      4530            0.0000000000
     65106      5891  TIP3      OH2             7.5870173038       23.7954022775       62.6768421046  TIP3      4531            0.0000000000
     65107      5891  TIP3      H1              8.2981697007       23.7815865322       63.3225554748  TIP3      4531            0.0000000000
     65108      5891  TIP3      H2              7.9232171545       23.1304403774       62.0606571329  TIP3      4531            0.0000000000
     65109      5892  TIP3      OH2            13.6041491519       16.4681898585       64.2049736868  TIP3      4532            0.0000000000
     65110      5892  TIP3      H1             12.6589238658       16.5169630652       64.3900419667  TIP3      4532            0.0000000000
     65111      5892  TIP3      H2             13.7788201204       17.2897642052       63.7243361166  TIP3      4532            0.0000000000
     65112      5893  TIP3      OH2            11.3202061047       25.6530297418       62.0208035904  TIP3      4533            0.0000000000
     65113      5893  TIP3      H1             11.3259503392       25.5235436499       61.0530441107  TIP3      4533            0.0000000000
     65114      5893  TIP3      H2             12.1628157126       26.1160730763       62.1323065304  TIP3      4533            0.0000000000
     65115      5894  TIP3      OH2             6.9708972934       19.6396058953       62.6288197998  TIP3      4534            0.0000000000
     65116      5894  TIP3      H1              6.6263637381       19.6370853013       63.5245067243  TIP3      4534            0.0000000000
     65117      5894  TIP3      H2              6.6617488535       18.7912755811       62.3004798759  TIP3      4534            0.0000000000
     65118      5895  TIP3      OH2             3.8689090378       20.1045825245       61.7391651066  TIP3      4535            0.0000000000
     65119      5895  TIP3      H1              3.3680484338       19.6117604079       62.3966604633  TIP3      4535            0.0000000000
     65120      5895  TIP3      H2              3.1554314879       20.3624914379       61.1192529346  TIP3      4535            0.0000000000
     65121      5896  TIP3      OH2             9.6167357040       20.1531738782       63.1929947322  TIP3      4536            0.0000000000
     65122      5896  TIP3      H1              8.6542860499       20.2941538349       63.0938358284  TIP3      4536            0.0000000000
     65123      5896  TIP3      H2              9.9321047380       20.9765954924       63.6002258179  TIP3      4536            0.0000000000
     65124      5897  TIP3      OH2            10.2937935470       22.2047279215       64.8799438438  TIP3      4537            0.0000000000
     65125      5897  TIP3      H1             11.1846857674       21.9092455687       65.1487824872  TIP3      4537            0.0000000000
     65126      5897  TIP3      H2             10.4833610387       22.8946327231       64.2521502041  TIP3      4537            0.0000000000
     65127      5898  TIP3      OH2            15.2154998960       22.2317915588       64.6290864213  TIP3      4538            0.0000000000
     65128      5898  TIP3      H1             14.6255564263       21.9028453469       63.9202965963  TIP3      4538            0.0000000000
     65129      5898  TIP3      H2             15.2931686498       23.1565687735       64.3180097170  TIP3      4538            0.0000000000
     65130      5899  TIP3      OH2            -1.0150861387       25.0919477230       62.6890022483  TIP3      4539            0.0000000000
     65131      5899  TIP3      H1             -0.4152848610       25.6535935226       63.2232549011  TIP3      4539            0.0000000000
     65132      5899  TIP3      H2             -1.8828543132       25.2921850014       63.0778667686  TIP3      4539            0.0000000000
     65133      5900  TIP3      OH2            15.4532533058       33.4556084088       63.0758090749  TIP3      4540            0.0000000000
     65134      5900  TIP3      H1             16.1611070926       34.0766213791       62.8925755484  TIP3      4540            0.0000000000
     65135      5900  TIP3      H2             14.7342081258       34.0517654201       63.3896684804  TIP3      4540            0.0000000000
     65136      5901  TIP3      OH2             0.3032220229       26.9847113431       64.2251345787  TIP3      4541            0.0000000000
     65137      5901  TIP3      H1             -0.2391022318       27.3231153065       64.9410701704  TIP3      4541            0.0000000000
     65138      5901  TIP3      H2              0.9365744844       27.6892376481       64.0197791639  TIP3      4541            0.0000000000
     65139      5902  TIP3      OH2             4.1042427284       32.4406659427       64.5724048474  TIP3      4542            0.0000000000
     65140      5902  TIP3      H1              4.1183768697       33.2025408749       63.9580833700  TIP3      4542            0.0000000000
     65141      5902  TIP3      H2              3.7912184676       32.7990884700       65.4059020515  TIP3      4542            0.0000000000
     65142      5903  TIP3      OH2             2.5205650683       27.6523099005       61.4765930040  TIP3      4543            0.0000000000
     65143      5903  TIP3      H1              2.7039662151       26.9331793235       62.0931361522  TIP3      4543            0.0000000000
     65144      5903  TIP3      H2              3.2596513900       27.5982581848       60.8609208682  TIP3      4543            0.0000000000
     65145      5904  TIP3      OH2             3.7051863962       25.6945607659       63.8010431620  TIP3      4544            0.0000000000
     65146      5904  TIP3      H1              3.2952356560       25.2268142420       64.5373078249  TIP3      4544            0.0000000000
     65147      5904  TIP3      H2              3.9947093600       24.9981038299       63.1855841809  TIP3      4544            0.0000000000
     65148      5905  TIP3      OH2             4.8282146570       23.8735302767       62.1173068305  TIP3      4545            0.0000000000
     65149      5905  TIP3      H1              4.6570239770       23.8563476517       61.1477440673  TIP3      4545            0.0000000000
     65150      5905  TIP3      H2              5.7871655457       24.0404383401       62.1467429586  TIP3      4545            0.0000000000
     65151      5906  TIP3      OH2            14.1605899493       26.3198165972       61.5571033573  TIP3      4546            0.0000000000
     65152      5906  TIP3      H1             13.9560907010       25.8995285017       60.7082503572  TIP3      4546            0.0000000000
     65153      5906  TIP3      H2             14.2580317784       27.2550471688       61.3160718845  TIP3      4546            0.0000000000
     65154      5907  TIP3      OH2             4.7245653687       34.7122529697       63.2153298112  TIP3      4547            0.0000000000
     65155      5907  TIP3      H1              5.6771801895       34.8000823900       63.2012842181  TIP3      4547            0.0000000000
     65156      5907  TIP3      H2              4.4640533729       35.2741684113       62.4597027212  TIP3      4547            0.0000000000
     65157      5908  TIP3      OH2            15.3470217712       25.0883463851       63.7557712753  TIP3      4548            0.0000000000
     65158      5908  TIP3      H1             14.8377234512       25.4757949180       63.0089811843  TIP3      4548            0.0000000000
     65159      5908  TIP3      H2             15.2959456378       25.8047479220       64.3987972627  TIP3      4548            0.0000000000
     65160      5909  TIP3      OH2            13.6607211661       22.3605323120       62.2966573283  TIP3      4549            0.0000000000
     65161      5909  TIP3      H1             13.7838407628       22.9867577149       61.5781072646  TIP3      4549            0.0000000000
     65162      5909  TIP3      H2             13.5105625816       21.5158322537       61.8231017364  TIP3      4549            0.0000000000
     65163      5910  TIP3      OH2            12.9350099144       19.8133085617       61.4156242146  TIP3      4550            0.0000000000
     65164      5910  TIP3      H1             13.5405668272       19.4064071183       62.0615878496  TIP3      4550            0.0000000000
     65165      5910  TIP3      H2             12.0998441909       19.3675343905       61.6215172045  TIP3      4550            0.0000000000
     65166      5911  TIP3      OH2            15.0205750523       18.6706889926       62.9693768331  TIP3      4551            0.0000000000
     65167      5911  TIP3      H1             15.4332225288       17.9135923648       62.4965410305  TIP3      4551            0.0000000000
     65168      5911  TIP3      H2             15.7427880581       19.3123127475       63.0449575518  TIP3      4551            0.0000000000
     65169      5912  TIP3      OH2            17.1140036419       20.4664677929       64.1429322639  TIP3      4552            0.0000000000
     65170      5912  TIP3      H1             17.5704260537       21.1129950524       63.5970348389  TIP3      4552            0.0000000000
     65171      5912  TIP3      H2             16.4156978726       21.0437388594       64.5143619210  TIP3      4552            0.0000000000
     65172      5913  TIP3      OH2            19.8617276516       29.5789825589       63.1865960978  TIP3      4553            0.0000000000
     65173      5913  TIP3      H1             20.4615920806       30.2678710075       63.4722965713  TIP3      4553            0.0000000000
     65174      5913  TIP3      H2             20.3335537288       29.1339771474       62.4685266907  TIP3      4553            0.0000000000
     65175      5914  TIP3      OH2            21.5287345234       27.7737649132       61.6035742084  TIP3      4554            0.0000000000
     65176      5914  TIP3      H1             21.4415885147       26.9240270680       62.0501682529  TIP3      4554            0.0000000000
     65177      5914  TIP3      H2             22.0643251000       27.5869983874       60.8310422241  TIP3      4554            0.0000000000
     65178      5915  TIP3      OH2            19.1487251953       33.5761061013       62.0094738496  TIP3      4555            0.0000000000
     65179      5915  TIP3      H1             18.9068075779       33.8030795767       62.9068139194  TIP3      4555            0.0000000000
     65180      5915  TIP3      H2             19.9508887794       33.0193336331       62.0982492986  TIP3      4555            0.0000000000
     65181      5916  TIP3      OH2            35.9701785056       20.4647992941       64.1505840606  TIP3      4556            0.0000000000
     65182      5916  TIP3      H1             36.5190954135       21.0755622814       63.6265751824  TIP3      4556            0.0000000000
     65183      5916  TIP3      H2             35.3154163666       21.0328493982       64.5456503736  TIP3      4556            0.0000000000
     65184      5917  TIP3      OH2            40.1315005409       22.7496042677       63.1361562112  TIP3      4557            0.0000000000
     65185      5917  TIP3      H1             39.5520104583       22.4522088415       62.4003235417  TIP3      4557            0.0000000000
     65186      5917  TIP3      H2             40.9129969184       22.9920438610       62.6422954971  TIP3      4557            0.0000000000
     65187      5918  TIP3      OH2            38.1336539953       26.9461791314       64.2944460637  TIP3      4558            0.0000000000
     65188      5918  TIP3      H1             37.4192244204       27.2711709234       64.8484750986  TIP3      4558            0.0000000000
     65189      5918  TIP3      H2             38.5660134518       27.7533274147       64.0037453055  TIP3      4558            0.0000000000
     65190      5919  TIP3      OH2           -41.1288881650       18.9871686647       64.1871371331  TIP3      4559            0.0000000000
     65191      5919  TIP3      H1            -41.1702643460       19.9147752876       64.4300632156  TIP3      4559            0.0000000000
     65192      5919  TIP3      H2            -40.1777964717       18.8686918084       64.3127249967  TIP3      4559            0.0000000000
     65193      5920  TIP3      OH2            38.7021751447       29.5721513255       63.1719249069  TIP3      4560            0.0000000000
     65194      5920  TIP3      H1             39.2760341959       30.3023417097       63.4350671111  TIP3      4560            0.0000000000
     65195      5920  TIP3      H2             39.2207285432       29.1197691704       62.4737436109  TIP3      4560            0.0000000000
     65196      5921  TIP3      OH2            37.0914121896       22.2319352821       62.3175895797  TIP3      4561            0.0000000000
     65197      5921  TIP3      H1             37.0117944107       23.1810174536       62.4477576630  TIP3      4561            0.0000000000
     65198      5921  TIP3      H2             36.2132778393       22.0033006513       61.9972855983  TIP3      4561            0.0000000000
     65199      5922  TIP3      OH2            40.0212767203       27.7505628990       61.6444365179  TIP3      4562            0.0000000000
     65200      5922  TIP3      H1             40.2685312852       26.9583945892       62.1359973184  TIP3      4562            0.0000000000
     65201      5922  TIP3      H2             40.8145236167       27.7038400156       61.0776173807  TIP3      4562            0.0000000000
     65202      5923  TIP3      OH2            35.9857551648       29.2689689451       62.6230540788  TIP3      4563            0.0000000000
     65203      5923  TIP3      H1             36.9206904992       29.3624927004       62.8698903175  TIP3      4563            0.0000000000
     65204      5923  TIP3      H2             35.9960161377       28.5808040560       61.9601392509  TIP3      4563            0.0000000000
     65205      5924  TIP3      OH2            38.2083261285       18.5954005505       62.5717831725  TIP3      4564            0.0000000000
     65206      5924  TIP3      H1             38.6927048481       18.0202972024       61.9631552045  TIP3      4564            0.0000000000
     65207      5924  TIP3      H2             38.8873495716       18.8941733455       63.2004015828  TIP3      4564            0.0000000000
     65208      5925  TIP3      OH2            38.0346166129       33.5077479225       61.8883147959  TIP3      4565            0.0000000000
     65209      5925  TIP3      H1             37.7197478533       33.8203176039       62.7633807841  TIP3      4565            0.0000000000
     65210      5925  TIP3      H2             38.8012176778       32.9983877889       62.1652471330  TIP3      4565            0.0000000000
     65211      5926  TIP3      OH2           -24.2039578440       35.2360440938       64.0414205953  TIP3      4566            0.0000000000
     65212      5926  TIP3      H1            -25.0718429649       35.3850131994       64.4423232712  TIP3      4566            0.0000000000
     65213      5926  TIP3      H2            -23.9428495407       36.1105411064       63.7571416736  TIP3      4566            0.0000000000
     65214      5927  TIP3      OH2           -31.6260865094       38.3345873823       62.8745824082  TIP3      4567            0.0000000000
     65215      5927  TIP3      H1            -31.1066508170       38.3791644200       63.6419651520  TIP3      4567            0.0000000000
     65216      5927  TIP3      H2            -31.1586799818       37.6635298635       62.3142763111  TIP3      4567            0.0000000000
     65217      5928  TIP3      OH2           -34.0066808755       38.8693288209       61.6639392653  TIP3      4568            0.0000000000
     65218      5928  TIP3      H1            -34.4066082404       38.4650628487       62.4627555040  TIP3      4568            0.0000000000
     65219      5928  TIP3      H2            -34.7330409550       39.2501340115       61.1767487537  TIP3      4568            0.0000000000
     65220      5929  TIP3      OH2           -39.1507492139       39.4442349579       64.3376282519  TIP3      4569            0.0000000000
     65221      5929  TIP3      H1            -38.7979411744       40.0716166441       63.6979635166  TIP3      4569            0.0000000000
     65222      5929  TIP3      H2            -39.9410660025       39.9610651269       64.5566578851  TIP3      4569            0.0000000000
     65223      5930  TIP3      OH2           -29.4716666851       38.7979048959       61.7949555269  TIP3      4570            0.0000000000
     65224      5930  TIP3      H1            -29.6781608821       38.8192397526       62.7617466013  TIP3      4570            0.0000000000
     65225      5930  TIP3      H2            -28.6889678752       39.1555882415       62.2612149275  TIP3      4570            0.0000000000
     65226      5931  TIP3      OH2           -34.9079211906       38.0389255073       64.0233652470  TIP3      4571            0.0000000000
     65227      5931  TIP3      H1            -35.0870762635       38.8597690643       64.5184235136  TIP3      4571            0.0000000000
     65228      5931  TIP3      H2            -34.0497695390       37.7451252323       64.3588793583  TIP3      4571            0.0000000000
     65229      5932  TIP3      OH2           -24.5380019738       38.3329986516       61.2772583963  TIP3      4572            0.0000000000
     65230      5932  TIP3      H1            -24.0766681519       38.2153631350       62.1224827850  TIP3      4572            0.0000000000
     65231      5932  TIP3      H2            -25.4408857398       38.2560629076       61.5755917535  TIP3      4572            0.0000000000
     65232      5933  TIP3      OH2           -22.6186516356       37.4948721093       62.8185263481  TIP3      4573            0.0000000000
     65233      5933  TIP3      H1            -22.1946069781       36.6941798098       62.4633337249  TIP3      4573            0.0000000000
     65234      5933  TIP3      H2            -21.8988992981       38.0986601083       63.0023196781  TIP3      4573            0.0000000000
     65235      5934  TIP3      OH2           -39.2465438333       35.5290549824       63.6280159177  TIP3      4574            0.0000000000
     65236      5934  TIP3      H1            -38.5890804453       36.1998511833       63.3910487380  TIP3      4574            0.0000000000
     65237      5934  TIP3      H2            -39.6568330146       35.9665336025       64.3816160329  TIP3      4574            0.0000000000
     65238      5935  TIP3      OH2           -37.2193285072       37.4494211086       62.5789579790  TIP3      4575            0.0000000000
     65239      5935  TIP3      H1            -36.7634300836       36.8340007598       61.9750311390  TIP3      4575            0.0000000000
     65240      5935  TIP3      H2            -36.5454272532       37.6957283086       63.2378669854  TIP3      4575            0.0000000000
     65241      5936  TIP3      OH2           -11.7866378596       38.3606553488       62.7090420057  TIP3      4576            0.0000000000
     65242      5936  TIP3      H1            -12.3180821848       38.4710320225       63.5068356303  TIP3      4576            0.0000000000
     65243      5936  TIP3      H2            -12.2782197617       37.6428000835       62.2585088987  TIP3      4576            0.0000000000
     65244      5937  TIP3      OH2           -15.3405381245       38.8501476029       61.8384042139  TIP3      4577            0.0000000000
     65245      5937  TIP3      H1            -15.7251807801       38.3125251477       62.5357857342  TIP3      4577            0.0000000000
     65246      5937  TIP3      H2            -15.9840587444       39.1986921679       61.2271438529  TIP3      4577            0.0000000000
     65247      5938  TIP3      OH2           -20.4855231746       39.3390368529       64.1329991074  TIP3      4578            0.0000000000
     65248      5938  TIP3      H1            -20.0836272220       40.0192528655       63.5883395941  TIP3      4578            0.0000000000
     65249      5938  TIP3      H2            -21.2116059711       39.8710353250       64.5336867001  TIP3      4578            0.0000000000
     65250      5939  TIP3      OH2            -9.2471902808       39.0771219860       63.2171258404  TIP3      4579            0.0000000000
     65251      5939  TIP3      H1            -10.2183746802       39.1250922285       63.0837213794  TIP3      4579            0.0000000000
     65252      5939  TIP3      H2             -8.9380966572       39.9081929295       63.5654029722  TIP3      4579            0.0000000000
     65253      5940  TIP3      OH2            -5.9339215251       38.6736479891       61.4534300098  TIP3      4580            0.0000000000
     65254      5940  TIP3      H1             -5.3058366482       38.1935671805       62.0224423119  TIP3      4580            0.0000000000
     65255      5940  TIP3      H2             -6.7717162765       38.2261029687       61.6081898101  TIP3      4580            0.0000000000
     65256      5941  TIP3      OH2            -3.8525549356       37.5497478742       62.8884040713  TIP3      4581            0.0000000000
     65257      5941  TIP3      H1             -3.4028536878       36.7833739047       62.5182693789  TIP3      4581            0.0000000000
     65258      5941  TIP3      H2             -3.0855102372       38.1125828073       63.0563897061  TIP3      4581            0.0000000000
     65259      5942  TIP3      OH2            13.5632282029       35.2559407521       64.0727584230  TIP3      4582            0.0000000000
     65260      5942  TIP3      H1             12.6906560712       35.4310729242       64.4525811349  TIP3      4582            0.0000000000
     65261      5942  TIP3      H2             13.7785128532       36.1442916995       63.7667551896  TIP3      4582            0.0000000000
     65262      5943  TIP3      OH2             6.9691179771       38.4010730400       62.6381212849  TIP3      4583            0.0000000000
     65263      5943  TIP3      H1              6.6224253031       38.4618719792       63.5235760902  TIP3      4583            0.0000000000
     65264      5943  TIP3      H2              6.5781234508       37.5874194331       62.2911915920  TIP3      4583            0.0000000000
     65265      5944  TIP3      OH2             4.5624321706       38.7441427496       61.5236490631  TIP3      4584            0.0000000000
     65266      5944  TIP3      H1              3.8543042263       38.2986759873       62.0142147025  TIP3      4584            0.0000000000
     65267      5944  TIP3      H2              3.6683205687       39.1953972282       61.1681359334  TIP3      4584            0.0000000000
     65268      5945  TIP3      OH2            -1.4835267482       38.4351006189       64.1315531085  TIP3      4585            0.0000000000
     65269      5945  TIP3      H1             -1.1910730287       39.3166562453       63.7404598795  TIP3      4585            0.0000000000
     65270      5945  TIP3      H2             -2.1195158232       38.9525424566       64.6904275261  TIP3      4585            0.0000000000
     65271      5946  TIP3      OH2             9.6101707569       39.0555143095       63.2056171851  TIP3      4586            0.0000000000
     65272      5946  TIP3      H1              8.6453933302       39.1608385320       63.0682267812  TIP3      4586            0.0000000000
     65273      5946  TIP3      H2              9.8912154990       39.8880239174       63.5746381595  TIP3      4586            0.0000000000
     65274      5947  TIP3      OH2             2.7943886383       38.9218043823       62.7804449317  TIP3      4587            0.0000000000
     65275      5947  TIP3      H1              2.2043900438       38.8228700261       63.5759157348  TIP3      4587            0.0000000000
     65276      5947  TIP3      H2              3.4646925688       38.4838305327       63.4868854484  TIP3      4587            0.0000000000
     65277      5948  TIP3      OH2            12.9258304709       38.6047839375       61.3744480149  TIP3      4588            0.0000000000
     65278      5948  TIP3      H1             13.5309938838       38.3402838572       62.0809277345  TIP3      4588            0.0000000000
     65279      5948  TIP3      H2             12.0698129786       38.2242723227       61.6126463749  TIP3      4588            0.0000000000
     65280      5949  TIP3      OH2             0.1153964928       37.5301755444       62.3458745049  TIP3      4589            0.0000000000
     65281      5949  TIP3      H1              0.6958581102       36.8879650645       61.9287575790  TIP3      4589            0.0000000000
     65282      5949  TIP3      H2              0.6892339319       37.7866861044       63.0775394001  TIP3      4589            0.0000000000
     65283      5950  TIP3      OH2            32.3261371457       35.2335052152       64.1480444027  TIP3      4590            0.0000000000
     65284      5950  TIP3      H1             31.4664792697       35.4928290363       64.4244373011  TIP3      4590            0.0000000000
     65285      5950  TIP3      H2             32.6768201460       36.0575109564       63.7556979556  TIP3      4590            0.0000000000
     65286      5951  TIP3      OH2            28.4342696301       39.0428991640       63.2372804477  TIP3      4591            0.0000000000
     65287      5951  TIP3      H1             27.5059992644       39.2089240656       63.0507195742  TIP3      4591            0.0000000000
     65288      5951  TIP3      H2             28.7728271104       39.8875636776       63.5586664963  TIP3      4591            0.0000000000
     65289      5952  TIP3      OH2            31.7020114211       38.7507132163       61.4480998256  TIP3      4592            0.0000000000
     65290      5952  TIP3      H1             32.4028184098       38.2423811451       61.9386709125  TIP3      4592            0.0000000000
     65291      5952  TIP3      H2             30.9313927967       38.2096534855       61.5868935382  TIP3      4592            0.0000000000
     65292      5953  TIP3      OH2            33.6985862847       37.7383795858       62.5394515975  TIP3      4593            0.0000000000
     65293      5953  TIP3      H1             34.1612210375       36.8448433517       62.4812072810  TIP3      4593            0.0000000000
     65294      5953  TIP3      H2             34.4559125596       38.0862531308       63.0469409419  TIP3      4593            0.0000000000
     65295      5954  TIP3      OH2            36.2645908929       38.7898178754       64.0494272685  TIP3      4594            0.0000000000
     65296      5954  TIP3      H1             36.5996619754       39.5827411463       63.6070381292  TIP3      4594            0.0000000000
     65297      5954  TIP3      H2             35.5094341237       39.2621148249       64.4617930811  TIP3      4594            0.0000000000
     65298      5955  TIP3      OH2           -40.7076839070       37.7108949390       64.7894329298  TIP3      4595            0.0000000000
     65299      5955  TIP3      H1            -41.0197069221       38.5404528350       64.3856471206  TIP3      4595            0.0000000000
     65300      5955  TIP3      H2            -39.8956523504       37.6828156951       64.2568641838  TIP3      4595            0.0000000000
     65301      5956  TIP3      OH2            35.1940740467       36.4381955644       63.8004003486  TIP3      4596            0.0000000000
     65302      5956  TIP3      H1             36.0534474281       36.3036330554       63.2950646303  TIP3      4596            0.0000000000
     65303      5956  TIP3      H2             35.5860087136       36.1415556091       64.5993039503  TIP3      4596            0.0000000000
     65304      5957  TIP3      OH2            37.5085486366       36.5559953545       61.9249858772  TIP3      4597            0.0000000000
     65305      5957  TIP3      H1             38.4143478505       36.2452307769       61.7591165812  TIP3      4597            0.0000000000
     65306      5957  TIP3      H2             37.8388535563       37.1537112538       62.6254925327  TIP3      4597            0.0000000000
     65307      5958  TIP3      OH2           -28.8502675810      -30.5521564626       71.8078056428  TIP3      4598            0.0000000000
     65308      5958  TIP3      H1            -28.8175601813      -29.5853000720       71.7769737025  TIP3      4598            0.0000000000
     65309      5958  TIP3      H2            -29.5322381852      -30.7446451048       71.1399096342  TIP3      4598            0.0000000000
     65310      5959  TIP3      OH2           -29.9290066725      -31.2741212978       75.2760916495  TIP3      4599            0.0000000000
     65311      5959  TIP3      H1            -29.9786776371      -31.8960521250       76.0155527350  TIP3      4599            0.0000000000
     65312      5959  TIP3      H2            -30.3341799933      -31.7839121133       74.5579879535  TIP3      4599            0.0000000000
     65313      5960  TIP3      OH2           -31.6146513684      -28.8865009856       75.7498728696  TIP3      4600            0.0000000000
     65314      5960  TIP3      H1            -31.2431418495      -29.5369647585       75.1293693464  TIP3      4600            0.0000000000
     65315      5960  TIP3      H2            -30.8116278912      -28.7057978435       76.2721041062  TIP3      4600            0.0000000000
     65316      5961  TIP3      OH2           -28.5552059578      -34.4410840472       76.0440972285  TIP3      4601            0.0000000000
     65317      5961  TIP3      H1            -28.2494115618      -35.3607012566       76.0523872312  TIP3      4601            0.0000000000
     65318      5961  TIP3      H2            -28.5139133995      -34.2485730330       75.0848727940  TIP3      4601            0.0000000000
     65319      5962  TIP3      OH2           -35.2694679256      -36.3428270788       73.3148668628  TIP3      4602            0.0000000000
     65320      5962  TIP3      H1            -35.2182952802      -35.4687960585       72.8955778437  TIP3      4602            0.0000000000
     65321      5962  TIP3      H2            -35.7369166888      -36.8514089312       72.6198292423  TIP3      4602            0.0000000000
     65322      5963  TIP3      OH2           -33.4574672292      -32.3555550354       73.3311831574  TIP3      4603            0.0000000000
     65323      5963  TIP3      H1            -32.8374881294      -32.9692608647       73.7539341146  TIP3      4603            0.0000000000
     65324      5963  TIP3      H2            -34.0502036153      -32.9671139206       72.8417420383  TIP3      4603            0.0000000000
     65325      5964  TIP3      OH2           -36.4391425319      -37.4118378265       77.3424772639  TIP3      4604            0.0000000000
     65326      5964  TIP3      H1            -36.6735478852      -36.8473279265       76.5931964389  TIP3      4604            0.0000000000
     65327      5964  TIP3      H2            -37.1050971190      -37.1633901830       78.0284829499  TIP3      4604            0.0000000000
     65328      5965  TIP3      OH2           -33.8903916897      -29.7064707338       77.6835651716  TIP3      4605            0.0000000000
     65329      5965  TIP3      H1            -34.6528575326      -29.1294441486       77.7400729769  TIP3      4605            0.0000000000
     65330      5965  TIP3      H2            -33.1875249790      -29.1565839992       77.3001341237  TIP3      4605            0.0000000000
     65331      5966  TIP3      OH2           -30.1586322753      -31.2896902976       69.3146732972  TIP3      4606            0.0000000000
     65332      5966  TIP3      H1            -30.8555312429      -30.7070687863       68.9402441544  TIP3      4606            0.0000000000
     65333      5966  TIP3      H2            -29.4681205494      -31.1911213238       68.6548170249  TIP3      4606            0.0000000000
     65334      5967  TIP3      OH2           -30.1142234765      -32.7935552824       66.3803432148  TIP3      4607            0.0000000000
     65335      5967  TIP3      H1            -29.3873457746      -32.7453716081       67.0094416288  TIP3      4607            0.0000000000
     65336      5967  TIP3      H2            -29.7543609145      -33.3914579611       65.7232853524  TIP3      4607            0.0000000000
     65337      5968  TIP3      OH2           -22.7187492798      -31.8411974244       77.6427047468  TIP3      4608            0.0000000000
     65338      5968  TIP3      H1            -23.4705366891      -31.2231690885       77.6845412274  TIP3      4608            0.0000000000
     65339      5968  TIP3      H2            -22.3057080673      -31.6545296886       76.7811790256  TIP3      4608            0.0000000000
     65340      5969  TIP3      OH2           -26.7142871371      -31.0345364860       70.2397171940  TIP3      4609            0.0000000000
     65341      5969  TIP3      H1            -27.4691771625      -30.8312141817       70.8289782977  TIP3      4609            0.0000000000
     65342      5969  TIP3      H2            -26.2679486018      -31.7693757110       70.6905125488  TIP3      4609            0.0000000000
     65343      5970  TIP3      OH2           -26.8146203142      -32.8842994151       79.3311930611  TIP3      4610            0.0000000000
     65344      5970  TIP3      H1            -26.7822502722      -32.1073115311       79.8991359124  TIP3      4610            0.0000000000
     65345      5970  TIP3      H2            -27.4518580182      -32.6115957796       78.6519393019  TIP3      4610            0.0000000000
     65346      5971  TIP3      OH2           -33.7444647348      -26.9780158801       74.8444375453  TIP3      4611            0.0000000000
     65347      5971  TIP3      H1            -33.8044697636      -27.5766116346       74.0902002134  TIP3      4611            0.0000000000
     65348      5971  TIP3      H2            -33.0055689909      -27.3922557535       75.3203786474  TIP3      4611            0.0000000000
     65349      5972  TIP3      OH2           -34.7610541933      -31.7058421214       75.8180061251  TIP3      4612            0.0000000000
     65350      5972  TIP3      H1            -34.2301080864      -31.5812447941       75.0019031478  TIP3      4612            0.0000000000
     65351      5972  TIP3      H2            -34.4148821907      -31.0080234352       76.3990267217  TIP3      4612            0.0000000000
     65352      5973  TIP3      OH2           -35.0844209249      -39.1837871613       75.5667250392  TIP3      4613            0.0000000000
     65353      5973  TIP3      H1            -35.9829386749      -39.2126234455       75.1801523219  TIP3      4613            0.0000000000
     65354      5973  TIP3      H2            -35.1884824319      -38.3688141194       76.0775451852  TIP3      4613            0.0000000000
     65355      5974  TIP3      OH2           -30.7763637200      -36.9815338709       66.2698410380  TIP3      4614            0.0000000000
     65356      5974  TIP3      H1            -31.1027544598      -36.9797045213       67.1842534193  TIP3      4614            0.0000000000
     65357      5974  TIP3      H2            -31.0985231136      -37.8417700564       65.9852282738  TIP3      4614            0.0000000000
     65358      5975  TIP3      OH2           -34.9419684246      -34.2262229007       76.8363583334  TIP3      4615            0.0000000000
     65359      5975  TIP3      H1            -35.7190552630      -34.2536835358       77.3991783236  TIP3      4615            0.0000000000
     65360      5975  TIP3      H2            -35.0165386981      -33.3404798386       76.4052426219  TIP3      4615            0.0000000000
     65361      5976  TIP3      OH2           -34.9780222633      -33.9896076511       71.6503475079  TIP3      4616            0.0000000000
     65362      5976  TIP3      H1            -35.9247068238      -34.2813314710       71.5615585786  TIP3      4616            0.0000000000
     65363      5976  TIP3      H2            -34.6443506786      -34.3889699468       70.8296158353  TIP3      4616            0.0000000000
     65364      5977  TIP3      OH2           -30.4506718628      -33.3715819121       81.8714073288  TIP3      4617            0.0000000000
     65365      5977  TIP3      H1            -30.9623643328      -34.1613957243       82.1876645256  TIP3      4617            0.0000000000
     65366      5977  TIP3      H2            -29.6056691191      -33.5026366513       82.3185310255  TIP3      4617            0.0000000000
     65367      5978  TIP3      OH2           -28.5677146983      -34.1848255702       73.2777856884  TIP3      4618            0.0000000000
     65368      5978  TIP3      H1            -28.7265570396      -33.5268459863       72.5863812607  TIP3      4618            0.0000000000
     65369      5978  TIP3      H2            -28.2993700461      -34.9725472923       72.7998162482  TIP3      4618            0.0000000000
     65370      5979  TIP3      OH2           -40.0698001511      -36.5453078455       72.0264171390  TIP3      4619            0.0000000000
     65371      5979  TIP3      H1            -39.9428230636      -36.7759300478       72.9473423999  TIP3      4619            0.0000000000
     65372      5979  TIP3      H2            -40.2204132457      -37.3664162485       71.5735583785  TIP3      4619            0.0000000000
     65373      5980  TIP3      OH2           -39.2301458476      -35.8993967872       68.0323172421  TIP3      4620            0.0000000000
     65374      5980  TIP3      H1            -38.9180717927      -35.4789321859       67.2137824767  TIP3      4620            0.0000000000
     65375      5980  TIP3      H2            -40.0718536331      -35.4300080288       68.1052826982  TIP3      4620            0.0000000000
     65376      5981  TIP3      OH2           -29.2695645865      -32.5351953634       77.8503033041  TIP3      4621            0.0000000000
     65377      5981  TIP3      H1            -28.8871854923      -33.2097153578       77.2527578775  TIP3      4621            0.0000000000
     65378      5981  TIP3      H2            -29.6992292076      -33.0765776926       78.5297160112  TIP3      4621            0.0000000000
     65379      5982  TIP3      OH2           -37.5761343956      -34.9553681583       71.4550405340  TIP3      4622            0.0000000000
     65380      5982  TIP3      H1            -38.5397331955      -34.8825527063       71.2557409781  TIP3      4622            0.0000000000
     65381      5982  TIP3      H2            -37.3791678850      -35.8505656705       71.1492571967  TIP3      4622            0.0000000000
     65382      5983  TIP3      OH2           -34.0295211868      -34.9531897323       69.1545861328  TIP3      4623            0.0000000000
     65383      5983  TIP3      H1            -33.0830923011      -34.8252479811       69.3592414548  TIP3      4623            0.0000000000
     65384      5983  TIP3      H2            -34.2161619649      -34.2727719004       68.4977435883  TIP3      4623            0.0000000000
     65385      5984  TIP3      OH2           -31.1979959646      -33.7560447789       74.5615961776  TIP3      4624            0.0000000000
     65386      5984  TIP3      H1            -30.5839849966      -34.2955090498       74.0562210654  TIP3      4624            0.0000000000
     65387      5984  TIP3      H2            -31.3354888628      -34.2970850518       75.3536701075  TIP3      4624            0.0000000000
     65388      5985  TIP3      OH2           -35.9925881249      -37.4204362384       70.9043162713  TIP3      4625            0.0000000000
     65389      5985  TIP3      H1            -36.4282751619      -38.3201880189       71.0127988316  TIP3      4625            0.0000000000
     65390      5985  TIP3      H2            -35.2647077348      -37.6550365276       70.3501326438  TIP3      4625            0.0000000000
     65391      5986  TIP3      OH2           -32.5238090918      -35.4850240587       77.0297178245  TIP3      4626            0.0000000000
     65392      5986  TIP3      H1            -33.3597709002      -34.9543787006       77.0610605279  TIP3      4626            0.0000000000
     65393      5986  TIP3      H2            -32.0007392763      -35.0775558885       77.7430715944  TIP3      4626            0.0000000000
     65394      5987  TIP3      OH2           -31.9662460720      -29.3095981127       68.7300772029  TIP3      4627            0.0000000000
     65395      5987  TIP3      H1            -32.7786145641      -29.6924549237       68.3435786779  TIP3      4627            0.0000000000
     65396      5987  TIP3      H2            -32.1876718845      -29.1232437148       69.6514882224  TIP3      4627            0.0000000000
     65397      5988  TIP3      OH2           -24.7963373503      -30.0368499262       77.4740844941  TIP3      4628            0.0000000000
     65398      5988  TIP3      H1            -24.2099012211      -29.5922624219       76.8738548112  TIP3      4628            0.0000000000
     65399      5988  TIP3      H2            -25.6647595449      -30.0040268274       77.0241530143  TIP3      4628            0.0000000000
     65400      5989  TIP3      OH2           -30.4919364874      -28.9946430317       79.9041730639  TIP3      4629            0.0000000000
     65401      5989  TIP3      H1            -30.7756844113      -29.4053989508       80.7379178456  TIP3      4629            0.0000000000
     65402      5989  TIP3      H2            -30.6690022558      -28.0622781912       80.0421132373  TIP3      4629            0.0000000000
     65403      5990  TIP3      OH2           -32.8380429685      -31.8975717514       81.9356208592  TIP3      4630            0.0000000000
     65404      5990  TIP3      H1            -33.1475390101      -32.1767576047       81.0591045095  TIP3      4630            0.0000000000
     65405      5990  TIP3      H2            -31.9078337012      -32.2052103111       81.9219885859  TIP3      4630            0.0000000000
     65406      5991  TIP3      OH2           -27.0182279411      -30.6769847060       75.7372305758  TIP3      4631            0.0000000000
     65407      5991  TIP3      H1            -27.9605732416      -30.9163363907       75.6754649459  TIP3      4631            0.0000000000
     65408      5991  TIP3      H2            -26.5892916469      -31.4639987983       75.3801895881  TIP3      4631            0.0000000000
     65409      5992  TIP3      OH2           -33.0328369270      -28.7180741807       71.4348073964  TIP3      4632            0.0000000000
     65410      5992  TIP3      H1            -33.3279692480      -27.7974039566       71.4401177089  TIP3      4632            0.0000000000
     65411      5992  TIP3      H2            -33.7795908821      -29.2040668061       71.8083377499  TIP3      4632            0.0000000000
     65412      5993  TIP3      OH2           -34.4078676100      -23.6531275893       70.8616349883  TIP3      4633            0.0000000000
     65413      5993  TIP3      H1            -35.3433839371      -23.5937521685       71.0672793197  TIP3      4633            0.0000000000
     65414      5993  TIP3      H2            -34.0290817925      -22.9168417630       71.3504331772  TIP3      4633            0.0000000000
     65415      5994  TIP3      OH2           -29.0593268608      -28.4865848200       77.4356901872  TIP3      4634            0.0000000000
     65416      5994  TIP3      H1            -29.4341243612      -28.7217487781       78.3007983044  TIP3      4634            0.0000000000
     65417      5994  TIP3      H2            -28.4698777635      -29.2288507398       77.2383867881  TIP3      4634            0.0000000000
     65418      5995  TIP3      OH2           -38.1574974251      -36.5615170287       79.2867810074  TIP3      4635            0.0000000000
     65419      5995  TIP3      H1            -39.0972640754      -36.3222198164       79.2483716990  TIP3      4635            0.0000000000
     65420      5995  TIP3      H2            -38.2337124056      -37.4095552422       79.7636336555  TIP3      4635            0.0000000000
     65421      5996  TIP3      OH2           -25.9429448608      -28.8443114271       68.7351490334  TIP3      4636            0.0000000000
     65422      5996  TIP3      H1            -26.2207438516      -29.6276324034       69.2545827992  TIP3      4636            0.0000000000
     65423      5996  TIP3      H2            -25.0096079914      -28.7922742048       68.9775603462  TIP3      4636            0.0000000000
     65424      5997  TIP3      OH2           -33.8637902566      -26.8557445238       67.4215542387  TIP3      4637            0.0000000000
     65425      5997  TIP3      H1            -33.5786140481      -27.3861491574       68.1633579444  TIP3      4637            0.0000000000
     65426      5997  TIP3      H2            -33.8152762680      -25.9296677187       67.7286474205  TIP3      4637            0.0000000000
     65427      5998  TIP3      OH2           -31.5585443151      -35.5529555924       70.1394192866  TIP3      4638            0.0000000000
     65428      5998  TIP3      H1            -30.7229173218      -35.0746436744       70.1680449451  TIP3      4638            0.0000000000
     65429      5998  TIP3      H2            -31.7288148679      -35.7132596676       71.0741905805  TIP3      4638            0.0000000000
     65430      5999  TIP3      OH2           -30.9471488344      -34.5962935658       79.3349628472  TIP3      4639            0.0000000000
     65431      5999  TIP3      H1            -30.8668608176      -34.0256805779       80.1289727457  TIP3      4639            0.0000000000
     65432      5999  TIP3      H2            -30.2996424936      -35.2963849348       79.4722673677  TIP3      4639            0.0000000000
     65433      6000  TIP3      OH2           -33.7315578020      -24.1566346144       68.1448746372  TIP3      4640            0.0000000000
     65434      6000  TIP3      H1            -33.4980899727      -23.3517915309       67.6630297284  TIP3      4640            0.0000000000
     65435      6000  TIP3      H2            -33.8835247906      -23.8580319846       69.0603674348  TIP3      4640            0.0000000000
     65436      6001  TIP3      OH2           -34.9723860110      -37.4421176817       67.7705762214  TIP3      4641            0.0000000000
     65437      6001  TIP3      H1            -35.0548652662      -36.5327404466       68.1107981038  TIP3      4641            0.0000000000
     65438      6001  TIP3      H2            -34.0699442585      -37.6675606377       68.0408848042  TIP3      4641            0.0000000000
     65439      6002  TIP3      OH2           -37.6332866602      -39.4056592083       74.7366719359  TIP3      4642            0.0000000000
     65440      6002  TIP3      H1            -37.7133084651      -39.4144440996       73.7547344081  TIP3      4642            0.0000000000
     65441      6002  TIP3      H2            -37.9391841844      -40.3103494411       74.9244998650  TIP3      4642            0.0000000000
     65442      6003  TIP3      OH2           -38.6558626095      -25.6211688677       70.8091424060  TIP3      4643            0.0000000000
     65443      6003  TIP3      H1            -39.4877230723      -25.1499824427       70.7977355677  TIP3      4643            0.0000000000
     65444      6003  TIP3      H2            -38.1673516482      -25.1280060519       70.1403689043  TIP3      4643            0.0000000000
     65445      6004  TIP3      OH2           -39.3806928928      -22.9594746734       82.1082135866  TIP3      4644            0.0000000000
     65446      6004  TIP3      H1            -38.8082467914      -23.2426995636       82.8170676816  TIP3      4644            0.0000000000
     65447      6004  TIP3      H2            -39.8465038296      -23.7890898360       81.8683533540  TIP3      4644            0.0000000000
     65448      6005  TIP3      OH2           -34.7271514485      -24.0068097955       83.6874488368  TIP3      4645            0.0000000000
     65449      6005  TIP3      H1            -34.0322260076      -24.5731927364       84.0636511560  TIP3      4645            0.0000000000
     65450      6005  TIP3      H2            -34.8072244968      -24.3587961468       82.8015727502  TIP3      4645            0.0000000000
     65451      6006  TIP3      OH2           -32.7593500870      -29.2093723859       82.4651744652  TIP3      4646            0.0000000000
     65452      6006  TIP3      H1            -33.1548035532      -28.9569035864       81.6344281049  TIP3      4646            0.0000000000
     65453      6006  TIP3      H2            -32.7178786958      -30.1865141473       82.4090304471  TIP3      4646            0.0000000000
     65454      6007  TIP3      OH2           -27.0834397340      -29.3689557570       79.9137323918  TIP3      4647            0.0000000000
     65455      6007  TIP3      H1            -26.3621497256      -28.7428874200       79.7742001726  TIP3      4647            0.0000000000
     65456      6007  TIP3      H2            -27.8376446034      -28.7663359419       79.9127919576  TIP3      4647            0.0000000000
     65457      6008  TIP3      OH2           -33.9733741106      -30.8421927026       67.5407757063  TIP3      4648            0.0000000000
     65458      6008  TIP3      H1            -34.4405282486      -31.3821744067       68.1829687715  TIP3      4648            0.0000000000
     65459      6008  TIP3      H2            -33.6917021697      -31.4965898647       66.8592852334  TIP3      4648            0.0000000000
     65460      6009  TIP3      OH2           -34.7198216909      -33.0150752697       79.8009447991  TIP3      4649            0.0000000000
     65461      6009  TIP3      H1            -35.2863212062      -32.3009895035       80.1144626908  TIP3      4649            0.0000000000
     65462      6009  TIP3      H2            -34.2798563745      -32.6549211355       79.0122649612  TIP3      4649            0.0000000000
     65463      6010  TIP3      OH2           -32.9174660821      -32.5742603061       65.7698189693  TIP3      4650            0.0000000000
     65464      6010  TIP3      H1            -33.0334950795      -32.7857790741       64.8375033599  TIP3      4650            0.0000000000
     65465      6010  TIP3      H2            -31.9410118233      -32.5039832743       65.8542554478  TIP3      4650            0.0000000000
     65466      6011  TIP3      OH2           -29.6500021764      -30.4718091380       83.1816462367  TIP3      4651            0.0000000000
     65467      6011  TIP3      H1            -28.6893278579      -30.4592234796       83.1131606200  TIP3      4651            0.0000000000
     65468      6011  TIP3      H2            -29.8182717668      -31.2129780568       83.7799026728  TIP3      4651            0.0000000000
     65469      6012  TIP3      OH2           -34.2862895581      -35.6344947524       80.9286097042  TIP3      4652            0.0000000000
     65470      6012  TIP3      H1            -34.2038239891      -36.3549715978       80.2905612748  TIP3      4652            0.0000000000
     65471      6012  TIP3      H2            -34.3600806805      -34.8381798262       80.3677785359  TIP3      4652            0.0000000000
     65472      6013  TIP3      OH2           -33.8956034279      -37.2405418192       78.4295146993  TIP3      4653            0.0000000000
     65473      6013  TIP3      H1            -33.3913878641      -36.7612417985       77.7306821280  TIP3      4653            0.0000000000
     65474      6013  TIP3      H2            -34.7925139048      -37.3421243963       78.0326978490  TIP3      4653            0.0000000000
     65475      6014  TIP3      OH2           -32.3637909531      -31.7857443822       78.6967458770  TIP3      4654            0.0000000000
     65476      6014  TIP3      H1            -31.6028450977      -31.9677761983       78.1329491195  TIP3      4654            0.0000000000
     65477      6014  TIP3      H2            -32.6958394953      -30.9419207019       78.3534278761  TIP3      4654            0.0000000000
     65478      6015  TIP3      OH2           -26.6341663272      -31.2298045150       81.8104421975  TIP3      4655            0.0000000000
     65479      6015  TIP3      H1            -26.8881929393      -30.4986846578       81.1973513923  TIP3      4655            0.0000000000
     65480      6015  TIP3      H2            -25.6717239343      -31.2611483700       81.6208813247  TIP3      4655            0.0000000000
     65481      6016  TIP3      OH2           -35.8519523445      -34.3923559680       82.8257523065  TIP3      4656            0.0000000000
     65482      6016  TIP3      H1            -36.6208997899      -34.9722007397       82.6295264237  TIP3      4656            0.0000000000
     65483      6016  TIP3      H2            -35.1858005095      -34.7906916643       82.2174089487  TIP3      4656            0.0000000000
     65484      6017  TIP3      OH2           -33.4158107900      -39.8195389280       78.8847645604  TIP3      4657            0.0000000000
     65485      6017  TIP3      H1            -33.3420801137      -38.8518954050       78.7140888404  TIP3      4657            0.0000000000
     65486      6017  TIP3      H2            -34.0619628751      -40.1416393410       78.2719564171  TIP3      4657            0.0000000000
     65487      6018  TIP3      OH2           -31.8632786092      -35.4618293769       82.4351249886  TIP3      4658            0.0000000000
     65488      6018  TIP3      H1            -32.1080368249      -35.7424180066       83.3381277444  TIP3      4658            0.0000000000
     65489      6018  TIP3      H2            -32.6678277691      -35.7017308009       81.9367551387  TIP3      4658            0.0000000000
     65490      6019  TIP3      OH2           -37.6670122827      -36.4426572312       82.5849926201  TIP3      4659            0.0000000000
     65491      6019  TIP3      H1            -37.5072653134      -37.1982267474       81.9814879179  TIP3      4659            0.0000000000
     65492      6019  TIP3      H2            -37.8039732354      -36.9428113360       83.4182353731  TIP3      4659            0.0000000000
     65493      6020  TIP3      OH2           -32.8704719853      -40.0386859011       81.3890059228  TIP3      4660            0.0000000000
     65494      6020  TIP3      H1            -32.2105924753      -40.7649898930       81.4466079304  TIP3      4660            0.0000000000
     65495      6020  TIP3      H2            -33.0263573536      -40.1376125116       80.4269232088  TIP3      4660            0.0000000000
     65496      6021  TIP3      OH2           -32.5410739109      -38.8263063197       83.6762532777  TIP3      4661            0.0000000000
     65497      6021  TIP3      H1            -32.6554135440      -39.2912130496       82.8159895825  TIP3      4661            0.0000000000
     65498      6021  TIP3      H2            -33.1132989635      -38.0480399562       83.5521252268  TIP3      4661            0.0000000000
     65499      6022  TIP3      OH2           -24.3169240911      -27.7244007373       83.7148017784  TIP3      4662            0.0000000000
     65500      6022  TIP3      H1            -25.2328988136      -27.7459196641       84.0273599894  TIP3      4662            0.0000000000
     65501      6022  TIP3      H2            -24.0207024209      -26.8947862100       84.1003684806  TIP3      4662            0.0000000000
     65502      6023  TIP3      OH2           -23.0272148446      -29.3726468310       69.1723857556  TIP3      4663            0.0000000000
     65503      6023  TIP3      H1            -22.1655934605      -28.9695156170       69.3483568761  TIP3      4663            0.0000000000
     65504      6023  TIP3      H2            -23.0387197678      -30.1346464679       69.8015262160  TIP3      4663            0.0000000000
     65505      6024  TIP3      OH2           -22.6624365381      -31.2844879032       71.0347608708  TIP3      4664            0.0000000000
     65506      6024  TIP3      H1            -23.4057578308      -31.8390684262       71.3704355981  TIP3      4664            0.0000000000
     65507      6024  TIP3      H2            -22.0481257162      -31.1917509159       71.7720868292  TIP3      4664            0.0000000000
     65508      6025  TIP3      OH2           -22.3292534674      -31.3956297471       67.3328769485  TIP3      4665            0.0000000000
     65509      6025  TIP3      H1            -22.9923614230      -31.1217839671       66.6931966986  TIP3      4665            0.0000000000
     65510      6025  TIP3      H2            -22.4845156793      -30.7937028317       68.0800142297  TIP3      4665            0.0000000000
     65511      6026  TIP3      OH2           -24.8216482172      -32.8103402526       71.6211936720  TIP3      4666            0.0000000000
     65512      6026  TIP3      H1            -25.0134818112      -33.7493867915       71.5399749227  TIP3      4666            0.0000000000
     65513      6026  TIP3      H2            -25.2331043540      -32.5487554572       72.4386683584  TIP3      4666            0.0000000000
     65514      6027  TIP3      OH2           -23.9951203437      -30.8857359658       81.3198214335  TIP3      4667            0.0000000000
     65515      6027  TIP3      H1            -23.3927487113      -31.6336933665       81.3713793340  TIP3      4667            0.0000000000
     65516      6027  TIP3      H2            -23.4122174263      -30.1185470276       81.2133060977  TIP3      4667            0.0000000000
     65517      6028  TIP3      OH2           -38.7594056942      -36.9355867377       74.4639277293  TIP3      4668            0.0000000000
     65518      6028  TIP3      H1            -38.5041244743      -37.8076178011       74.8400672681  TIP3      4668            0.0000000000
     65519      6028  TIP3      H2            -38.4725904345      -36.3096180324       75.1189327845  TIP3      4668            0.0000000000
     65520      6029  TIP3      OH2           -40.1822351852      -37.9721597113       69.7448499172  TIP3      4669            0.0000000000
     65521      6029  TIP3      H1            -41.1342610696      -37.8195689404       69.5272077607  TIP3      4669            0.0000000000
     65522      6029  TIP3      H2            -39.7734204227      -37.3427402843       69.1276482699  TIP3      4669            0.0000000000
     65523      6030  TIP3      OH2           -25.4633603086      -22.9806360493       71.5990235169  TIP3      4670            0.0000000000
     65524      6030  TIP3      H1            -24.8058802379      -23.2523380017       70.9790896586  TIP3      4670            0.0000000000
     65525      6030  TIP3      H2            -25.0581511437      -22.4119716277       72.2629061996  TIP3      4670            0.0000000000
     65526      6031  TIP3      OH2            40.9661760718      -37.6832834491       77.6045426402  TIP3      4671            0.0000000000
     65527      6031  TIP3      H1             40.5693560433      -38.3589647697       78.2263642775  TIP3      4671            0.0000000000
     65528      6031  TIP3      H2             40.4618066243      -38.3278360094       77.0448816133  TIP3      4671            0.0000000000
     65529      6032  TIP3      OH2           -37.8691045232      -21.7617755382       78.5518184814  TIP3      4672            0.0000000000
     65530      6032  TIP3      H1            -38.6247577010      -21.3413680148       78.1021902164  TIP3      4672            0.0000000000
     65531      6032  TIP3      H2            -38.2679517747      -22.0230809995       79.3817419955  TIP3      4672            0.0000000000
     65532      6033  TIP3      OH2           -33.8033888087      -23.9708130198       74.9389068872  TIP3      4673            0.0000000000
     65533      6033  TIP3      H1            -33.5709142739      -24.8729062439       74.6697137495  TIP3      4673            0.0000000000
     65534      6033  TIP3      H2            -33.7150360913      -23.9772966886       75.8919797043  TIP3      4673            0.0000000000
     65535      6034  TIP3      OH2           -37.4215865328      -39.1698830334       71.7878764565  TIP3      4674            0.0000000000
     65536      6034  TIP3      H1            -38.2806741302      -39.3854018858       71.3468872445  TIP3      4674            0.0000000000
     65537      6034  TIP3      H2            -37.1862802179      -40.1106124718       71.9418236688  TIP3      4674            0.0000000000
     65538      6035  TIP3      OH2           -39.0310281420      -39.5831208685       67.7730868162  TIP3      4675            0.0000000000
     65539      6035  TIP3      H1            -38.6527684350      -39.0371596949       67.0652898633  TIP3      4675            0.0000000000
     65540      6035  TIP3      H2            -39.7951675551      -39.1628268026       68.1700814305  TIP3      4675            0.0000000000
     65541      6036  TIP3      OH2           -33.3891658258      -39.7006699499       71.7096126046  TIP3      4676            0.0000000000
     65542      6036  TIP3      H1            -32.4958852774      -39.3765887315       71.7051244413  TIP3      4676            0.0000000000
     65543      6036  TIP3      H2            -33.4937918831      -39.9681033282       72.6225195869  TIP3      4676            0.0000000000
     65544      6037  TIP3      OH2           -39.2189897642      -23.9159356091       68.6129979609  TIP3      4677            0.0000000000
     65545      6037  TIP3      H1            -39.9219783201      -23.9536780903       67.9510880958  TIP3      4677            0.0000000000
     65546      6037  TIP3      H2            -39.2110438957      -22.9999856794       68.8981112655  TIP3      4677            0.0000000000
     65547      6038  TIP3      OH2           -37.3009528647      -37.9401859969       66.1157473586  TIP3      4678            0.0000000000
     65548      6038  TIP3      H1            -36.7724496245      -38.5880484762       65.6483711678  TIP3      4678            0.0000000000
     65549      6038  TIP3      H2            -36.6584483385      -37.6445190253       66.7853137991  TIP3      4678            0.0000000000
     65550      6039  TIP3      OH2           -32.2285359542      -37.7060987924       68.5915229745  TIP3      4679            0.0000000000
     65551      6039  TIP3      H1            -32.0372070062      -38.2930974337       69.3306289311  TIP3      4679            0.0000000000
     65552      6039  TIP3      H2            -32.2524364122      -36.8431016338       69.0554277729  TIP3      4679            0.0000000000
     65553      6040  TIP3      OH2           -37.8741818105      -38.9823374773       81.6291067007  TIP3      4680            0.0000000000
     65554      6040  TIP3      H1            -38.3549227055      -39.8329792657       81.8449713741  TIP3      4680            0.0000000000
     65555      6040  TIP3      H2            -36.9620495952      -39.2065737863       81.8437011132  TIP3      4680            0.0000000000
     65556      6041  TIP3      OH2           -35.8931514590      -39.7616358526       83.1309975828  TIP3      4681            0.0000000000
     65557      6041  TIP3      H1            -35.0789686433      -40.0969358792       82.7494679914  TIP3      4681            0.0000000000
     65558      6041  TIP3      H2            -36.3901313570      -40.5672348841       83.3567131186  TIP3      4681            0.0000000000
     65559      6042  TIP3      OH2           -37.5712339538      -22.9953630873       65.7213425042  TIP3      4682            0.0000000000
     65560      6042  TIP3      H1            -37.6022889299      -22.7041002694       66.6143961094  TIP3      4682            0.0000000000
     65561      6042  TIP3      H2            -36.7061574131      -23.4794770293       65.6891523164  TIP3      4682            0.0000000000
     65562      6043  TIP3      OH2           -18.8030557446      -31.5632559287       76.8761337844  TIP3      4683            0.0000000000
     65563      6043  TIP3      H1            -18.6721249527      -32.2770579312       77.5387086743  TIP3      4683            0.0000000000
     65564      6043  TIP3      H2            -17.9945719836      -31.0652457425       77.0556149905  TIP3      4683            0.0000000000
     65565      6044  TIP3      OH2            -7.4338514773      -28.2599346053       73.5936812256  TIP3      4684            0.0000000000
     65566      6044  TIP3      H1             -7.8257120133      -29.0096280817       74.0494633857  TIP3      4684            0.0000000000
     65567      6044  TIP3      H2             -7.3684364062      -27.6042631958       74.2855529706  TIP3      4684            0.0000000000
     65568      6045  TIP3      OH2           -20.4605628930      -31.3485268010       72.9954660707  TIP3      4685            0.0000000000
     65569      6045  TIP3      H1            -20.2300021010      -32.1791652957       73.4257290214  TIP3      4685            0.0000000000
     65570      6045  TIP3      H2            -19.7649675143      -31.2586727632       72.3221889177  TIP3      4685            0.0000000000
     65571      6046  TIP3      OH2            -4.0036263312      -37.2962787634       76.5349934659  TIP3      4686            0.0000000000
     65572      6046  TIP3      H1             -3.9962487141      -36.6432803704       77.2788072390  TIP3      4686            0.0000000000
     65573      6046  TIP3      H2             -3.6429666323      -36.7460128269       75.8377113902  TIP3      4686            0.0000000000
     65574      6047  TIP3      OH2            -3.7101172519      -35.8502274423       78.7786451601  TIP3      4687            0.0000000000
     65575      6047  TIP3      H1             -4.3170580113      -35.0869490729       78.6880008146  TIP3      4687            0.0000000000
     65576      6047  TIP3      H2             -3.5831788361      -35.9098852709       79.7286892859  TIP3      4687            0.0000000000
     65577      6048  TIP3      OH2           -16.5769245904      -27.7386508845       78.3818896526  TIP3      4688            0.0000000000
     65578      6048  TIP3      H1            -16.6647652144      -26.8603578303       78.0186302918  TIP3      4688            0.0000000000
     65579      6048  TIP3      H2            -17.4658461497      -27.8583809890       78.8136449384  TIP3      4688            0.0000000000
     65580      6049  TIP3      OH2           -20.4638352397      -28.1258199903       69.1651844910  TIP3      4689            0.0000000000
     65581      6049  TIP3      H1            -20.8079585984      -27.8419447050       68.3053436321  TIP3      4689            0.0000000000
     65582      6049  TIP3      H2            -20.4595183026      -27.3076441031       69.7038354706  TIP3      4689            0.0000000000
     65583      6050  TIP3      OH2            -6.8974530070      -26.4583794029       76.0287736393  TIP3      4690            0.0000000000
     65584      6050  TIP3      H1             -7.8577485426      -26.3904344462       76.0455674418  TIP3      4690            0.0000000000
     65585      6050  TIP3      H2             -6.5974340026      -25.5948533331       75.7165269347  TIP3      4690            0.0000000000
     65586      6051  TIP3      OH2            -5.8840474023      -28.1653985061       79.5277837033  TIP3      4691            0.0000000000
     65587      6051  TIP3      H1             -5.6473185777      -28.8442204003       78.8537404226  TIP3      4691            0.0000000000
     65588      6051  TIP3      H2             -5.5497566584      -27.3460323115       79.1318995830  TIP3      4691            0.0000000000
     65589      6052  TIP3      OH2            -3.9007831158      -31.8450053388       77.6098417689  TIP3      4692            0.0000000000
     65590      6052  TIP3      H1             -4.6045822385      -31.1646786740       77.6358154748  TIP3      4692            0.0000000000
     65591      6052  TIP3      H2             -3.4265385219      -31.6471443154       76.7841515815  TIP3      4692            0.0000000000
     65592      6053  TIP3      OH2            -7.8902567930      -32.8524529962       79.3052637549  TIP3      4693            0.0000000000
     65593      6053  TIP3      H1             -7.9080585527      -32.1180334109       79.9459160906  TIP3      4693            0.0000000000
     65594      6053  TIP3      H2             -8.5764367926      -32.6065135995       78.6828111457  TIP3      4693            0.0000000000
     65595      6054  TIP3      OH2           -16.1219976456      -31.7110742511       75.7379432010  TIP3      4694            0.0000000000
     65596      6054  TIP3      H1            -15.4245257125      -31.6323958608       75.0558140153  TIP3      4694            0.0000000000
     65597      6054  TIP3      H2            -15.6805921862      -31.1449914615       76.4013967305  TIP3      4694            0.0000000000
     65598      6055  TIP3      OH2           -15.1116162018      -27.4322921796       80.5316594970  TIP3      4695            0.0000000000
     65599      6055  TIP3      H1            -15.3395919438      -26.5790220294       80.9186170615  TIP3      4695            0.0000000000
     65600      6055  TIP3      H2            -15.7008914993      -27.5002310999       79.7541954836  TIP3      4695            0.0000000000
     65601      6056  TIP3      OH2           -18.0966834896      -31.0960744859       79.7044210040  TIP3      4696            0.0000000000
     65602      6056  TIP3      H1            -18.0202027279      -30.4064458584       80.3920450145  TIP3      4696            0.0000000000
     65603      6056  TIP3      H2            -19.0033055295      -30.9557638707       79.4086864501  TIP3      4696            0.0000000000
     65604      6057  TIP3      OH2            -5.2781007455      -40.1058742302       67.7740368648  TIP3      4697            0.0000000000
     65605      6057  TIP3      H1             -6.2056129329      -40.0107482125       68.0717023922  TIP3      4697            0.0000000000
     65606      6057  TIP3      H2             -5.0644980091      -39.2489793105       67.4037039474  TIP3      4697            0.0000000000
     65607      6058  TIP3      OH2           -17.3215265477      -31.3227660646       69.8384041954  TIP3      4698            0.0000000000
     65608      6058  TIP3      H1            -17.5395780901      -30.6248135739       69.2026605386  TIP3      4698            0.0000000000
     65609      6058  TIP3      H2            -17.8980823564      -32.0320544676       69.5466607590  TIP3      4698            0.0000000000
     65610      6059  TIP3      OH2            -4.1558797845      -25.7977781059       66.1169764749  TIP3      4699            0.0000000000
     65611      6059  TIP3      H1             -4.0327405112      -24.8754037593       66.3370630805  TIP3      4699            0.0000000000
     65612      6059  TIP3      H2             -3.2360068916      -26.1198321154       66.1032384737  TIP3      4699            0.0000000000
     65613      6060  TIP3      OH2           -21.2119512458      -28.9643733422       78.6169781347  TIP3      4700            0.0000000000
     65614      6060  TIP3      H1            -21.6210557038      -29.0715364731       77.7561419962  TIP3      4700            0.0000000000
     65615      6060  TIP3      H2            -21.1146974340      -29.9010188058       78.8947252238  TIP3      4700            0.0000000000
     65616      6061  TIP3      OH2            -3.1933719525      -25.5548318297       81.1098130830  TIP3      4701            0.0000000000
     65617      6061  TIP3      H1             -3.2932463348      -26.5158707740       81.1308132059  TIP3      4701            0.0000000000
     65618      6061  TIP3      H2             -4.0321550426      -25.2630995382       81.5267337530  TIP3      4701            0.0000000000
     65619      6062  TIP3      OH2           -18.2025443981      -23.3564695351       71.6168701060  TIP3      4702            0.0000000000
     65620      6062  TIP3      H1            -17.9887450492      -23.7856108803       72.4578083903  TIP3      4702            0.0000000000
     65621      6062  TIP3      H2            -19.0355619899      -23.7751046980       71.3772618113  TIP3      4702            0.0000000000
     65622      6063  TIP3      OH2            -9.0157027008      -22.9908900232       69.7137498975  TIP3      4703            0.0000000000
     65623      6063  TIP3      H1             -9.9785778791      -22.9940387272       69.7119278693  TIP3      4703            0.0000000000
     65624      6063  TIP3      H2             -8.7575796870      -23.8232353953       70.1288953735  TIP3      4703            0.0000000000
     65625      6064  TIP3      OH2            -6.0079195525      -34.0614806561       81.5545960150  TIP3      4704            0.0000000000
     65626      6064  TIP3      H1             -6.5219555755      -33.5836157149       80.8886817602  TIP3      4704            0.0000000000
     65627      6064  TIP3      H2             -6.0650978167      -34.9738900120       81.2729506605  TIP3      4704            0.0000000000
     65628      6065  TIP3      OH2           -18.8890337043      -27.6779746007       79.6057199959  TIP3      4705            0.0000000000
     65629      6065  TIP3      H1            -18.7007875746      -27.9979198591       80.5067733655  TIP3      4705            0.0000000000
     65630      6065  TIP3      H2            -19.7783463250      -28.0362454259       79.3996964511  TIP3      4705            0.0000000000
     65631      6066  TIP3      OH2           -11.4503790817      -38.9715662059       78.9521195705  TIP3      4706            0.0000000000
     65632      6066  TIP3      H1            -11.0424939561      -39.6491596389       79.4869335126  TIP3      4706            0.0000000000
     65633      6066  TIP3      H2            -12.3423550025      -39.3511095691       78.8788788199  TIP3      4706            0.0000000000
     65634      6067  TIP3      OH2           -18.5441815219      -33.8851935573       78.5001079336  TIP3      4707            0.0000000000
     65635      6067  TIP3      H1            -18.4387139171      -33.5340264693       79.3920647303  TIP3      4707            0.0000000000
     65636      6067  TIP3      H2            -18.9350535518      -34.7495763951       78.6639822181  TIP3      4707            0.0000000000
     65637      6068  TIP3      OH2           -16.5906195273      -33.7501508638       66.7160190177  TIP3      4708            0.0000000000
     65638      6068  TIP3      H1            -17.1192674174      -34.1351835032       66.0123438956  TIP3      4708            0.0000000000
     65639      6068  TIP3      H2            -15.7418782808      -33.5756521859       66.3129804175  TIP3      4708            0.0000000000
     65640      6069  TIP3      OH2            -5.8948440501      -21.6884833219       82.2110750149  TIP3      4709            0.0000000000
     65641      6069  TIP3      H1             -5.7293639970      -21.2245084223       81.3799643173  TIP3      4709            0.0000000000
     65642      6069  TIP3      H2             -5.2810578803      -21.2918360053       82.8351523671  TIP3      4709            0.0000000000
     65643      6070  TIP3      OH2           -18.3005103013      -29.1872127632       81.8284101367  TIP3      4710            0.0000000000
     65644      6070  TIP3      H1            -17.5960323828      -28.9161964863       82.4168983911  TIP3      4710            0.0000000000
     65645      6070  TIP3      H2            -19.0932277836      -29.0095506972       82.3770792834  TIP3      4710            0.0000000000
     65646      6071  TIP3      OH2            -5.9317553557      -30.0125470458       77.4858165685  TIP3      4711            0.0000000000
     65647      6071  TIP3      H1             -5.3450456263      -29.5682465901       76.8450041529  TIP3      4711            0.0000000000
     65648      6071  TIP3      H2             -6.7744421238      -29.9819223675       76.9943500148  TIP3      4711            0.0000000000
     65649      6072  TIP3      OH2            -9.1607029288      -36.4538617155       67.0512441653  TIP3      4712            0.0000000000
     65650      6072  TIP3      H1            -10.0872978739      -36.3370686625       66.7801304850  TIP3      4712            0.0000000000
     65651      6072  TIP3      H2             -8.8962703790      -35.5407878406       67.1803348297  TIP3      4712            0.0000000000
     65652      6073  TIP3      OH2           -21.0327688446      -31.4002897640       79.7787223792  TIP3      4713            0.0000000000
     65653      6073  TIP3      H1            -20.7597087960      -31.8723299238       80.5813079350  TIP3      4713            0.0000000000
     65654      6073  TIP3      H2            -21.5853008265      -32.0507799787       79.2970356977  TIP3      4713            0.0000000000
     65655      6074  TIP3      OH2            -3.6626710607      -34.3183887289       68.2736100681  TIP3      4714            0.0000000000
     65656      6074  TIP3      H1             -4.2020407041      -34.6555744111       67.5328754892  TIP3      4714            0.0000000000
     65657      6074  TIP3      H2             -3.5306989799      -33.3994462406       67.9782612498  TIP3      4714            0.0000000000
     65658      6075  TIP3      OH2            -3.6476714085      -28.4856441035       81.0593482504  TIP3      4715            0.0000000000
     65659      6075  TIP3      H1             -4.5196402675      -28.2694668933       80.6736676559  TIP3      4715            0.0000000000
     65660      6075  TIP3      H2             -3.0787277402      -28.5345845020       80.2679346787  TIP3      4715            0.0000000000
     65661      6076  TIP3      OH2            -5.3499262963      -25.5361746583       68.6673826478  TIP3      4716            0.0000000000
     65662      6076  TIP3      H1             -5.7196551727      -26.3584783241       68.9991189573  TIP3      4716            0.0000000000
     65663      6076  TIP3      H2             -5.0803089049      -25.7636658592       67.7675930019  TIP3      4716            0.0000000000
     65664      6077  TIP3      OH2            -8.1368103114      -30.6817767036       75.7173757857  TIP3      4717            0.0000000000
     65665      6077  TIP3      H1             -9.0648854193      -30.9259597560       75.6726511063  TIP3      4717            0.0000000000
     65666      6077  TIP3      H2             -7.7056605686      -31.4701193077       75.3594705501  TIP3      4717            0.0000000000
     65667      6078  TIP3      OH2           -19.8675013272      -31.5038472792       66.3359312868  TIP3      4718            0.0000000000
     65668      6078  TIP3      H1            -19.2705595114      -30.9281571111       66.8451910776  TIP3      4718            0.0000000000
     65669      6078  TIP3      H2            -20.7506087182      -31.3095898344       66.7187965436  TIP3      4718            0.0000000000
     65670      6079  TIP3      OH2            -7.7855141405      -27.4329232868       66.5471260408  TIP3      4719            0.0000000000
     65671      6079  TIP3      H1             -7.5471558102      -27.9576372298       67.3415939950  TIP3      4719            0.0000000000
     65672      6079  TIP3      H2             -8.7342434942      -27.5763292651       66.5569926550  TIP3      4719            0.0000000000
     65673      6080  TIP3      OH2            -7.0626248356      -28.8353936636       68.7429100769  TIP3      4720            0.0000000000
     65674      6080  TIP3      H1             -7.3516142660      -29.5825710438       69.2816058320  TIP3      4720            0.0000000000
     65675      6080  TIP3      H2             -6.1239918471      -28.7644853155       68.9546881444  TIP3      4720            0.0000000000
     65676      6081  TIP3      OH2           -18.4998464849      -29.5689118379       67.8764909758  TIP3      4721            0.0000000000
     65677      6081  TIP3      H1            -19.1387918627      -29.2204645069       68.5363056914  TIP3      4721            0.0000000000
     65678      6081  TIP3      H2            -17.8745531289      -28.8552485535       67.7233004717  TIP3      4721            0.0000000000
     65679      6082  TIP3      OH2            -9.8586124975      -37.3209156513       69.3977089709  TIP3      4722            0.0000000000
     65680      6082  TIP3      H1             -9.6610006173      -36.9027045487       68.5235254040  TIP3      4722            0.0000000000
     65681      6082  TIP3      H2             -9.2467766319      -36.8748708775       69.9815139290  TIP3      4722            0.0000000000
     65682      6083  TIP3      OH2           -11.7172558211      -38.5404527731       71.1124848058  TIP3      4723            0.0000000000
     65683      6083  TIP3      H1            -12.0854540856      -37.8641762349       71.6943374386  TIP3      4723            0.0000000000
     65684      6083  TIP3      H2            -11.1284878772      -38.0041273164       70.5359991572  TIP3      4723            0.0000000000
     65685      6084  TIP3      OH2           -19.4992012704      -34.3307464794       65.9340892327  TIP3      4724            0.0000000000
     65686      6084  TIP3      H1            -19.5759642123      -33.3751458375       66.1069624531  TIP3      4724            0.0000000000
     65687      6084  TIP3      H2            -20.4118749278      -34.5348702215       65.7101505712  TIP3      4724            0.0000000000
     65688      6085  TIP3      OH2           -19.8094163963      -25.6294306377       70.7939246705  TIP3      4725            0.0000000000
     65689      6085  TIP3      H1            -20.6363522510      -25.1337288936       70.8018642777  TIP3      4725            0.0000000000
     65690      6085  TIP3      H2            -19.2804462105      -25.1406098296       70.1470458423  TIP3      4725            0.0000000000
     65691      6086  TIP3      OH2           -20.5669378228      -22.9559075387       82.1355256255  TIP3      4726            0.0000000000
     65692      6086  TIP3      H1            -19.9551436735      -23.1791146863       82.8575844418  TIP3      4726            0.0000000000
     65693      6086  TIP3      H2            -20.9834670288      -23.7955053449       81.9182314759  TIP3      4726            0.0000000000
     65694      6087  TIP3      OH2            -7.2186142058      -24.7415933300       65.3125760790  TIP3      4727            0.0000000000
     65695      6087  TIP3      H1             -6.9469614096      -25.5472668304       65.7919414011  TIP3      4727            0.0000000000
     65696      6087  TIP3      H2             -6.4480662568      -24.5560508330       64.7750309700  TIP3      4727            0.0000000000
     65697      6088  TIP3      OH2           -20.6336672071      -29.1756883575       83.0845242018  TIP3      4728            0.0000000000
     65698      6088  TIP3      H1            -20.4649823139      -30.0923775952       82.7992731701  TIP3      4728            0.0000000000
     65699      6088  TIP3      H2            -21.3986617928      -28.9172975989       82.5710611190  TIP3      4728            0.0000000000
     65700      6089  TIP3      OH2            -8.2507979276      -29.3738988936       79.8211690685  TIP3      4729            0.0000000000
     65701      6089  TIP3      H1             -7.4475577351      -28.8020266800       79.7887143640  TIP3      4729            0.0000000000
     65702      6089  TIP3      H2             -8.9535817485      -28.7229894515       79.9123054468  TIP3      4729            0.0000000000
     65703      6090  TIP3      OH2           -19.8973860258      -32.0287093573       82.4773862891  TIP3      4730            0.0000000000
     65704      6090  TIP3      H1            -19.3391764924      -32.8111631287       82.3715947247  TIP3      4730            0.0000000000
     65705      6090  TIP3      H2            -19.9457071533      -31.9565405762       83.4555442825  TIP3      4730            0.0000000000
     65706      6091  TIP3      OH2            -7.7042374391      -31.2095429461       81.7338199235  TIP3      4731            0.0000000000
     65707      6091  TIP3      H1             -7.9659923240      -30.4702573632       81.1608921892  TIP3      4731            0.0000000000
     65708      6091  TIP3      H2             -6.7335828111      -31.2343695767       81.6340516188  TIP3      4731            0.0000000000
     65709      6092  TIP3      OH2           -18.8095889364      -36.4855923882       82.5423685925  TIP3      4732            0.0000000000
     65710      6092  TIP3      H1            -18.6522811669      -37.2439769702       81.9658376882  TIP3      4732            0.0000000000
     65711      6092  TIP3      H2            -18.9354071112      -36.9328853542       83.3970181285  TIP3      4732            0.0000000000
     65712      6093  TIP3      OH2           -13.9564027336      -40.0253984341       81.3959265283  TIP3      4733            0.0000000000
     65713      6093  TIP3      H1            -13.3604797859      -40.7954871590       81.4548968501  TIP3      4733            0.0000000000
     65714      6093  TIP3      H2            -14.2093154452      -40.1069177958       80.4791951985  TIP3      4733            0.0000000000
     65715      6094  TIP3      OH2           -20.5852151326      -27.3302294867       66.2892640168  TIP3      4734            0.0000000000
     65716      6094  TIP3      H1            -19.6622647251      -27.2217836067       66.5004959254  TIP3      4734            0.0000000000
     65717      6094  TIP3      H2            -20.6129991862      -27.9532889213       65.5529841467  TIP3      4734            0.0000000000
     65718      6095  TIP3      OH2           -21.8543956106      -21.9824181954       71.2537953399  TIP3      4735            0.0000000000
     65719      6095  TIP3      H1            -22.6004246047      -22.3935010853       70.8095377191  TIP3      4735            0.0000000000
     65720      6095  TIP3      H2            -21.5833147683      -22.6123534813       71.9484952176  TIP3      4735            0.0000000000
     65721      6096  TIP3      OH2           -21.1173289219      -23.8171307262       73.1233754509  TIP3      4736            0.0000000000
     65722      6096  TIP3      H1            -21.3309207289      -24.7385294538       73.3324643229  TIP3      4736            0.0000000000
     65723      6096  TIP3      H2            -20.8129289932      -23.4856074506       73.9942008186  TIP3      4736            0.0000000000
     65724      6097  TIP3      OH2            -3.5345564473      -23.0514889233       76.1634415550  TIP3      4737            0.0000000000
     65725      6097  TIP3      H1             -3.5479255294      -22.8367308101       77.1039830811  TIP3      4737            0.0000000000
     65726      6097  TIP3      H2             -2.8697811660      -22.4615610206       75.7961932393  TIP3      4737            0.0000000000
     65727      6098  TIP3      OH2            -3.8994357376      -23.4217402427       79.0049654461  TIP3      4738            0.0000000000
     65728      6098  TIP3      H1             -4.3906109986      -24.1774323838       78.6433276777  TIP3      4738            0.0000000000
     65729      6098  TIP3      H2             -3.4286056467      -23.8432948512       79.7379082394  TIP3      4738            0.0000000000
     65730      6099  TIP3      OH2            -5.4768991452      -27.6671841161       83.6349759501  TIP3      4739            0.0000000000
     65731      6099  TIP3      H1             -6.3400807193      -27.7616402699       84.0478126226  TIP3      4739            0.0000000000
     65732      6099  TIP3      H2             -5.1317885754      -26.9023911380       84.1399924953  TIP3      4739            0.0000000000
     65733      6100  TIP3      OH2            -4.1743124655      -29.3946516247       69.1290641879  TIP3      4740            0.0000000000
     65734      6100  TIP3      H1             -3.3311887413      -28.9670380318       69.3444360275  TIP3      4740            0.0000000000
     65735      6100  TIP3      H2             -4.2059018225      -30.1072514628       69.8053665314  TIP3      4740            0.0000000000
     65736      6101  TIP3      OH2            -3.8534621138      -31.3069925753       71.0117458239  TIP3      4741            0.0000000000
     65737      6101  TIP3      H1             -4.5592550075      -31.8183743603       71.4338068074  TIP3      4741            0.0000000000
     65738      6101  TIP3      H2             -3.2399510224      -31.1505505932       71.7459337739  TIP3      4741            0.0000000000
     65739      6102  TIP3      OH2            -4.0671270359      -28.5942358457       75.9655952400  TIP3      4742            0.0000000000
     65740      6102  TIP3      H1             -3.2318171220      -28.9507290048       75.6239591137  TIP3      4742            0.0000000000
     65741      6102  TIP3      H2             -3.8812815948      -27.6459871776       75.8322383887  TIP3      4742            0.0000000000
     65742      6103  TIP3      OH2            -5.5319995880      -25.6965660986       78.2179538319  TIP3      4743            0.0000000000
     65743      6103  TIP3      H1             -6.1845397679      -25.3642069773       78.8494242962  TIP3      4743            0.0000000000
     65744      6103  TIP3      H2             -6.0650357236      -26.1389668674       77.5285819004  TIP3      4743            0.0000000000
     65745      6104  TIP3      OH2            -3.5195397032      -31.4328843344       67.3782006235  TIP3      4744            0.0000000000
     65746      6104  TIP3      H1             -4.0981363411      -31.1133185252       66.6787296483  TIP3      4744            0.0000000000
     65747      6104  TIP3      H2             -3.6202737879      -30.7504963817       68.0691312360  TIP3      4744            0.0000000000
     65748      6105  TIP3      OH2            -5.1194912688      -34.2665279271       65.9599573143  TIP3      4745            0.0000000000
     65749      6105  TIP3      H1             -5.0898046600      -33.5840135068       65.2726335264  TIP3      4745            0.0000000000
     65750      6105  TIP3      H2             -5.3357412375      -35.0624141848       65.4592811180  TIP3      4745            0.0000000000
     65751      6106  TIP3      OH2           -21.0312602778      -30.7436879964       75.6167508150  TIP3      4746            0.0000000000
     65752      6106  TIP3      H1            -20.7999868797      -30.8223748272       74.6715332420  TIP3      4746            0.0000000000
     65753      6106  TIP3      H2            -20.1440540154      -30.8883022673       76.0282088547  TIP3      4746            0.0000000000
     65754      6107  TIP3      OH2            -5.1504818497      -30.8698692768       81.2489258896  TIP3      4747            0.0000000000
     65755      6107  TIP3      H1             -4.5228536610      -31.6119927772       81.4172907142  TIP3      4747            0.0000000000
     65756      6107  TIP3      H2             -4.5539571529      -30.0991620556       81.2508983891  TIP3      4747            0.0000000000
     65757      6108  TIP3      OH2            -3.6299278413      -32.9577899958       81.8242754547  TIP3      4748            0.0000000000
     65758      6108  TIP3      H1             -4.5261661666      -33.3540434196       81.7538162023  TIP3      4748            0.0000000000
     65759      6108  TIP3      H2             -3.0560941703      -33.7448734423       81.8140895723  TIP3      4748            0.0000000000
     65760      6109  TIP3      OH2            -6.3367545772      -35.2477136227       70.0519685873  TIP3      4749            0.0000000000
     65761      6109  TIP3      H1             -6.0368484739      -36.1693729088       70.1599118301  TIP3      4749            0.0000000000
     65762      6109  TIP3      H2             -5.5482239990      -34.8411662408       69.6836423194  TIP3      4749            0.0000000000
     65763      6110  TIP3      OH2            -5.6664410617      -34.6614136376       75.5107122077  TIP3      4750            0.0000000000
     65764      6110  TIP3      H1             -4.7324031633      -34.4488651764       75.4539563760  TIP3      4750            0.0000000000
     65765      6110  TIP3      H2             -5.8728002939      -34.5432787020       76.4428538225  TIP3      4750            0.0000000000
     65766      6111  TIP3      OH2            -5.6317855959      -33.9504113757       78.2506194797  TIP3      4751            0.0000000000
     65767      6111  TIP3      H1             -6.5047673579      -33.6618351534       78.5901416407  TIP3      4751            0.0000000000
     65768      6111  TIP3      H2             -5.1970651104      -33.0988881979       78.0282287148  TIP3      4751            0.0000000000
     65769      6112  TIP3      OH2            -3.3616904624      -39.8046082416       83.7591746279  TIP3      4752            0.0000000000
     65770      6112  TIP3      H1             -3.1484655342      -40.5126549144       83.1208735905  TIP3      4752            0.0000000000
     65771      6112  TIP3      H2             -3.2833185675      -39.0451896655       83.1669053628  TIP3      4752            0.0000000000
     65772      6113  TIP3      OH2            -5.6587653872      -38.0001446319       70.0407108984  TIP3      4753            0.0000000000
     65773      6113  TIP3      H1             -5.5021460287      -38.3840873476       70.9328416386  TIP3      4753            0.0000000000
     65774      6113  TIP3      H2             -6.3214051944      -38.5983958659       69.6387433533  TIP3      4753            0.0000000000
     65775      6114  TIP3      OH2           -21.7975584049      -34.1690808294       75.6927987946  TIP3      4754            0.0000000000
     65776      6114  TIP3      H1            -21.3387744083      -34.3812662919       74.8821103031  TIP3      4754            0.0000000000
     65777      6114  TIP3      H2            -21.4437424309      -33.3212091080       75.9712163374  TIP3      4754            0.0000000000
     65778      6115  TIP3      OH2            -3.8321563296      -37.8059471593       81.9366772785  TIP3      4755            0.0000000000
     65779      6115  TIP3      H1             -4.7791491464      -37.5909108028       81.9715424684  TIP3      4755            0.0000000000
     65780      6115  TIP3      H2             -3.7930207381      -38.3969796372       81.1664011351  TIP3      4755            0.0000000000
     65781      6116  TIP3      OH2           -21.5267806237      -38.0406806069       69.5956660856  TIP3      4756            0.0000000000
     65782      6116  TIP3      H1            -22.4374047424      -37.6973930770       69.6179431896  TIP3      4756            0.0000000000
     65783      6116  TIP3      H2            -21.0913522430      -37.4016048517       69.0302785704  TIP3      4756            0.0000000000
     65784      6117  TIP3      OH2           -19.3987804916      -26.0300464064       82.2103658897  TIP3      4757            0.0000000000
     65785      6117  TIP3      H1            -20.1957352591      -25.7840703631       81.7443832670  TIP3      4757            0.0000000000
     65786      6117  TIP3      H2            -19.6443866671      -26.0751581429       83.1381230741  TIP3      4757            0.0000000000
     65787      6118  TIP3      OH2            -4.8631344796      -39.5968827849       79.8049308890  TIP3      4758            0.0000000000
     65788      6118  TIP3      H1             -5.7191869526      -39.3811876582       79.4248053387  TIP3      4758            0.0000000000
     65789      6118  TIP3      H2             -4.7013215993      -40.4688432428       79.4516708096  TIP3      4758            0.0000000000
     65790      6119  TIP3      OH2           -19.5768133580      -23.1404150848       75.3864597804  TIP3      4759            0.0000000000
     65791      6119  TIP3      H1            -19.6607093282      -23.5520602282       76.2637021143  TIP3      4759            0.0000000000
     65792      6119  TIP3      H2            -18.7574303671      -23.5051348376       75.0511425332  TIP3      4759            0.0000000000
     65793      6120  TIP3      OH2           -11.4846630106      -38.2740380237       74.0621813234  TIP3      4760            0.0000000000
     65794      6120  TIP3      H1            -12.0293948723      -38.9755457572       74.4111912187  TIP3      4760            0.0000000000
     65795      6120  TIP3      H2            -10.8329743117      -38.7785664131       73.5510125516  TIP3      4760            0.0000000000
     65796      6121  TIP3      OH2            -6.4867217807      -40.2125621741       73.6985818571  TIP3      4761            0.0000000000
     65797      6121  TIP3      H1             -5.7542708463      -39.5803331349       73.5915500543  TIP3      4761            0.0000000000
     65798      6121  TIP3      H2             -7.2718240355      -39.6947218328       73.9207956229  TIP3      4761            0.0000000000
     65799      6122  TIP3      OH2            -4.5397441562      -38.9781533631       72.4234991583  TIP3      4762            0.0000000000
     65800      6122  TIP3      H1             -3.9006486267      -39.5670970442       72.0064165202  TIP3      4762            0.0000000000
     65801      6122  TIP3      H2             -4.1012483143      -38.1061508716       72.5339536542  TIP3      4762            0.0000000000
     65802      6123  TIP3      OH2           -20.2765344538      -39.7636454336       67.6766915616  TIP3      4763            0.0000000000
     65803      6123  TIP3      H1            -19.7952117030      -39.1622628214       67.0931231511  TIP3      4763            0.0000000000
     65804      6123  TIP3      H2            -20.8927444316      -39.2246948443       68.2047791198  TIP3      4763            0.0000000000
     65805      6124  TIP3      OH2           -14.5076298794      -39.7160739018       71.7290525869  TIP3      4764            0.0000000000
     65806      6124  TIP3      H1            -13.6006150784      -39.3830167095       71.6899892469  TIP3      4764            0.0000000000
     65807      6124  TIP3      H2            -14.6656997527      -39.9632090458       72.6442364791  TIP3      4764            0.0000000000
     65808      6125  TIP3      OH2            -9.0736239926      -39.6600750176       73.3610750087  TIP3      4765            0.0000000000
     65809      6125  TIP3      H1             -8.8777694321      -39.6263303890       72.4206701088  TIP3      4765            0.0000000000
     65810      6125  TIP3      H2             -9.2217478760      -40.6089513361       73.4943790388  TIP3      4765            0.0000000000
     65811      6126  TIP3      OH2            -7.6862093996      -39.5651283209       68.8634685686  TIP3      4766            0.0000000000
     65812      6126  TIP3      H1             -8.4521039250      -38.9828069661       68.8472775557  TIP3      4766            0.0000000000
     65813      6126  TIP3      H2             -8.0160223166      -40.4167750450       69.2062332844  TIP3      4766            0.0000000000
     65814      6127  TIP3      OH2           -20.3649750666      -23.9192034850       68.6293436121  TIP3      4767            0.0000000000
     65815      6127  TIP3      H1            -21.0519212872      -23.9512735065       67.9521753784  TIP3      4767            0.0000000000
     65816      6127  TIP3      H2            -20.3652194270      -22.9867850939       68.8772776015  TIP3      4767            0.0000000000
     65817      6128  TIP3      OH2           -18.4121601594      -38.0177047291       66.2412410905  TIP3      4768            0.0000000000
     65818      6128  TIP3      H1            -17.9218128753      -38.5445830744       65.6003221528  TIP3      4768            0.0000000000
     65819      6128  TIP3      H2            -17.7403552084      -37.6266555358       66.8019872780  TIP3      4768            0.0000000000
     65820      6129  TIP3      OH2            -4.7656759681      -23.1321299822       69.7247051311  TIP3      4769            0.0000000000
     65821      6129  TIP3      H1             -4.9841059254      -23.9163894523       69.1789873571  TIP3      4769            0.0000000000
     65822      6129  TIP3      H2             -4.8491171011      -22.3980082728       69.0960263630  TIP3      4769            0.0000000000
     65823      6130  TIP3      OH2           -19.1298770322      -39.1175364112       81.3764827809  TIP3      4770            0.0000000000
     65824      6130  TIP3      H1            -19.5110209424      -39.8676957497       81.8415485206  TIP3      4770            0.0000000000
     65825      6130  TIP3      H2            -18.2294110056      -39.1268675066       81.7447559763  TIP3      4770            0.0000000000
     65826      6131  TIP3      OH2           -17.1178860618      -39.7820806152       83.0783364145  TIP3      4771            0.0000000000
     65827      6131  TIP3      H1            -16.2604881344      -40.0732550550       82.7456452651  TIP3      4771            0.0000000000
     65828      6131  TIP3      H2            -17.5601997863      -40.5891740689       83.3656918678  TIP3      4771            0.0000000000
     65829      6132  TIP3      OH2           -18.5527100462      -23.0521648571       65.6587367843  TIP3      4772            0.0000000000
     65830      6132  TIP3      H1            -18.7974451980      -22.6941486678       66.5168623009  TIP3      4772            0.0000000000
     65831      6132  TIP3      H2            -17.7145333709      -23.4912181897       65.8018348540  TIP3      4772            0.0000000000
     65832      6133  TIP3      OH2            -8.7098273805      -40.3772917234       83.1937938070  TIP3      4773            0.0000000000
     65833      6133  TIP3      H1             -8.6718972890      -40.9515281331       83.9639323217  TIP3      4773            0.0000000000
     65834      6133  TIP3      H2             -7.8380001091      -40.5014882440       82.8059540193  TIP3      4773            0.0000000000
     65835      6134  TIP3      OH2            -5.5483499184      -24.4128633134       81.8585927857  TIP3      4774            0.0000000000
     65836      6134  TIP3      H1             -6.3667024194      -24.5613414232       81.3723124156  TIP3      4774            0.0000000000
     65837      6134  TIP3      H2             -5.6336688898      -23.4463120022       82.0614956915  TIP3      4774            0.0000000000
     65838      6135  TIP3      OH2             8.8799379617      -30.5063942735       71.8643008197  TIP3      4775            0.0000000000
     65839      6135  TIP3      H1              8.8938648911      -29.5473673179       71.7103615377  TIP3      4775            0.0000000000
     65840      6135  TIP3      H2              8.1884282753      -30.7865229120       71.2414837177  TIP3      4775            0.0000000000
     65841      6136  TIP3      OH2             0.1237596445      -31.6385310895       76.8358167302  TIP3      4776            0.0000000000
     65842      6136  TIP3      H1              0.1723579005      -32.2426423757       77.5858677270  TIP3      4776            0.0000000000
     65843      6136  TIP3      H2              0.8437153789      -31.0206613709       77.0552364669  TIP3      4776            0.0000000000
     65844      6137  TIP3      OH2            -2.3016838711      -33.5727563334       70.8056527431  TIP3      4777            0.0000000000
     65845      6137  TIP3      H1             -2.7660455799      -32.7254263594       70.7665801359  TIP3      4777            0.0000000000
     65846      6137  TIP3      H2             -2.8763292406      -34.1465671286       70.2903550385  TIP3      4777            0.0000000000
     65847      6138  TIP3      OH2             8.5337227787      -23.1635378330       73.8306534223  TIP3      4778            0.0000000000
     65848      6138  TIP3      H1              9.1906920561      -23.8465587641       73.5445395935  TIP3      4778            0.0000000000
     65849      6138  TIP3      H2              8.3419258531      -23.4924964344       74.7116050195  TIP3      4778            0.0000000000
     65850      6139  TIP3      OH2             6.1221326803      -28.8447151643       75.7458929038  TIP3      4779            0.0000000000
     65851      6139  TIP3      H1              6.4551037642      -29.4794567644       75.1032727528  TIP3      4779            0.0000000000
     65852      6139  TIP3      H2              6.9046889004      -28.7054395019       76.3172621181  TIP3      4779            0.0000000000
     65853      6140  TIP3      OH2             4.1974485142      -32.3735853329       73.3251433825  TIP3      4780            0.0000000000
     65854      6140  TIP3      H1              4.8613925462      -32.9260189249       73.7625786234  TIP3      4780            0.0000000000
     65855      6140  TIP3      H2              3.6932058033      -33.0365497514       72.8388121131  TIP3      4780            0.0000000000
     65856      6141  TIP3      OH2             8.6350855348      -27.9094917685       70.9162307042  TIP3      4781            0.0000000000
     65857      6141  TIP3      H1              8.3064499717      -28.2069977314       70.0552135825  TIP3      4781            0.0000000000
     65858      6141  TIP3      H2              8.2909343321      -26.9927687799       70.9355856015  TIP3      4781            0.0000000000
     65859      6142  TIP3      OH2             3.8182470437      -29.7864952659       77.5842185838  TIP3      4782            0.0000000000
     65860      6142  TIP3      H1              3.1321849871      -29.1167415470       77.7846415220  TIP3      4782            0.0000000000
     65861      6142  TIP3      H2              4.5446210556      -29.2088178011       77.3048903428  TIP3      4782            0.0000000000
     65862      6143  TIP3      OH2             2.2761365367      -27.7475799008       78.4508788680  TIP3      4783            0.0000000000
     65863      6143  TIP3      H1              2.2356256022      -26.8897254698       78.0177002397  TIP3      4783            0.0000000000
     65864      6143  TIP3      H2              1.3673999388      -27.8447109442       78.8373420703  TIP3      4783            0.0000000000
     65865      6144  TIP3      OH2            -1.6420849316      -28.1131473425       69.1728423293  TIP3      4784            0.0000000000
     65866      6144  TIP3      H1             -1.9116483045      -27.7999518949       68.2885382886  TIP3      4784            0.0000000000
     65867      6144  TIP3      H2             -1.5830728750      -27.2879106894       69.6841924452  TIP3      4784            0.0000000000
     65868      6145  TIP3      OH2            12.2646987011      -38.1502274170       77.4217857157  TIP3      4785            0.0000000000
     65869      6145  TIP3      H1             11.5079564623      -37.5899941372       77.2358040850  TIP3      4785            0.0000000000
     65870      6145  TIP3      H2             12.9389984484      -37.8313400509       76.8138910919  TIP3      4785            0.0000000000
     65871      6146  TIP3      OH2            10.1890938553      -24.6873147606       72.5166735533  TIP3      4786            0.0000000000
     65872      6146  TIP3      H1             10.6767065260      -25.4075274671       72.0730591016  TIP3      4786            0.0000000000
     65873      6146  TIP3      H2             10.6461311121      -23.9218118847       72.1235715025  TIP3      4786            0.0000000000
     65874      6147  TIP3      OH2            11.4361144389      -26.7744322227       71.0480247856  TIP3      4787            0.0000000000
     65875      6147  TIP3      H1             11.1247669035      -27.4574860651       70.4410467194  TIP3      4787            0.0000000000
     65876      6147  TIP3      H2             11.4702589475      -27.2270571783       71.8932810860  TIP3      4787            0.0000000000
     65877      6148  TIP3      OH2             7.5819891877      -31.2679546762       69.3219622488  TIP3      4788            0.0000000000
     65878      6148  TIP3      H1              6.8600667335      -30.7095652440       68.9709298728  TIP3      4788            0.0000000000
     65879      6148  TIP3      H2              8.2659298901      -31.1737260188       68.6463194007  TIP3      4788            0.0000000000
     65880      6149  TIP3      OH2             2.6249098239      -30.4178442927       72.1579922844  TIP3      4789            0.0000000000
     65881      6149  TIP3      H1              2.2827251324      -30.7949726850       71.3077372854  TIP3      4789            0.0000000000
     65882      6149  TIP3      H2              3.2465785235      -31.1099966020       72.4710779973  TIP3      4789            0.0000000000
     65883      6150  TIP3      OH2             3.9843165240      -27.0219326007       74.8018310191  TIP3      4790            0.0000000000
     65884      6150  TIP3      H1              3.9196912701      -27.5773448174       74.0248455009  TIP3      4790            0.0000000000
     65885      6150  TIP3      H2              4.7215425755      -27.4036073582       75.3029627686  TIP3      4790            0.0000000000
     65886      6151  TIP3      OH2             2.9641631432      -31.6512598855       75.8031249731  TIP3      4791            0.0000000000
     65887      6151  TIP3      H1              3.5295929873      -31.5506609270       75.0176109556  TIP3      4791            0.0000000000
     65888      6151  TIP3      H2              3.3474812934      -31.0026878209       76.4359170108  TIP3      4791            0.0000000000
     65889      6152  TIP3      OH2             3.9003080011      -27.2650553650       80.5222694942  TIP3      4792            0.0000000000
     65890      6152  TIP3      H1              3.4904692550      -26.5133196545       80.9922085957  TIP3      4792            0.0000000000
     65891      6152  TIP3      H2              3.2404510548      -27.4567170871       79.8119486593  TIP3      4792            0.0000000000
     65892      6153  TIP3      OH2             7.5358518896      -25.1612068292       71.4091990893  TIP3      4793            0.0000000000
     65893      6153  TIP3      H1              8.0275180756      -24.8609220246       72.1864380860  TIP3      4793            0.0000000000
     65894      6153  TIP3      H2              7.0150828253      -24.3942474691       71.1545563550  TIP3      4793            0.0000000000
     65895      6154  TIP3      OH2             2.0507424827      -25.3503154476       81.2175165091  TIP3      4794            0.0000000000
     65896      6154  TIP3      H1              2.0259523693      -25.3214476670       80.2629599344  TIP3      4794            0.0000000000
     65897      6154  TIP3      H2              1.1353466865      -25.3359156026       81.4874033978  TIP3      4794            0.0000000000
     65898      6155  TIP3      OH2            13.5657925314      -40.1306235929       67.8063134235  TIP3      4795            0.0000000000
     65899      6155  TIP3      H1             12.6344850036      -39.9843481172       68.0432325785  TIP3      4795            0.0000000000
     65900      6155  TIP3      H2             13.8404866880      -39.3035331818       67.3757239423  TIP3      4795            0.0000000000
     65901      6156  TIP3      OH2             1.5787110740      -31.3647029242       69.7860784030  TIP3      4796            0.0000000000
     65902      6156  TIP3      H1              1.3052983624      -30.6161783307       69.2248518840  TIP3      4796            0.0000000000
     65903      6156  TIP3      H2              0.9383047237      -32.0369625585       69.5300240583  TIP3      4796            0.0000000000
     65904      6157  TIP3      OH2            14.7326964453      -25.7968949805       66.1341469254  TIP3      4797            0.0000000000
     65905      6157  TIP3      H1             14.8133394448      -24.8507472962       66.3308161650  TIP3      4797            0.0000000000
     65906      6157  TIP3      H2             15.6519796946      -26.0880651200       66.1265741444  TIP3      4797            0.0000000000
     65907      6158  TIP3      OH2            -2.3196632189      -28.9630763789       78.6485492135  TIP3      4798            0.0000000000
     65908      6158  TIP3      H1             -2.7979461458      -29.0384058964       77.8064837773  TIP3      4798            0.0000000000
     65909      6158  TIP3      H2             -2.2480915796      -29.9127321648       78.8905592928  TIP3      4798            0.0000000000
     65910      6159  TIP3      OH2            -2.5687247316      -26.2835536217       75.5083194097  TIP3      4799            0.0000000000
     65911      6159  TIP3      H1             -1.6145286512      -26.3296064429       75.4033057166  TIP3      4799            0.0000000000
     65912      6159  TIP3      H2             -2.6776907538      -25.4237002393       75.9376767851  TIP3      4799            0.0000000000
     65913      6160  TIP3      OH2            15.5425363939      -25.5365422488       80.9154435943  TIP3      4800            0.0000000000
     65914      6160  TIP3      H1             15.5767443966      -26.4600237993       81.1753281590  TIP3      4800            0.0000000000
     65915      6160  TIP3      H2             14.8397832142      -25.2590502865       81.5460186854  TIP3      4800            0.0000000000
     65916      6161  TIP3      OH2             6.6052742882      -25.9871289811       80.0442717969  TIP3      4801            0.0000000000
     65917      6161  TIP3      H1              6.6618798045      -25.1156649960       80.5082712331  TIP3      4801            0.0000000000
     65918      6161  TIP3      H2              5.7071168709      -26.3041878919       80.2259141274  TIP3      4801            0.0000000000
     65919      6162  TIP3      OH2             7.0595923105      -22.2319711351       69.7982055780  TIP3      4802            0.0000000000
     65920      6162  TIP3      H1              6.9900742029      -22.3011332152       68.8300545832  TIP3      4802            0.0000000000
     65921      6162  TIP3      H2              7.0668285598      -21.2724897147       69.9476065699  TIP3      4802            0.0000000000
     65922      6163  TIP3      OH2            10.0855866920      -23.0183606984       66.7446868888  TIP3      4803            0.0000000000
     65923      6163  TIP3      H1             10.5560931072      -23.7885792382       66.3682241649  TIP3      4803            0.0000000000
     65924      6163  TIP3      H2             10.1709404303      -23.3061473891       67.6774965112  TIP3      4803            0.0000000000
     65925      6164  TIP3      OH2             9.8066087866      -23.0976869056       69.5344170700  TIP3      4804            0.0000000000
     65926      6164  TIP3      H1              8.8594470121      -23.0343588847       69.7452405575  TIP3      4804            0.0000000000
     65927      6164  TIP3      H2             10.0747264669      -23.8503164277       70.0835609300  TIP3      4804            0.0000000000
     65928      6165  TIP3      OH2            -0.0624399163      -27.6078567176       79.6343442820  TIP3      4805            0.0000000000
     65929      6165  TIP3      H1              0.1676730178      -28.0884370284       80.4657380462  TIP3      4805            0.0000000000
     65930      6165  TIP3      H2             -0.9016065244      -28.0452678013       79.3717165871  TIP3      4805            0.0000000000
     65931      6166  TIP3      OH2            10.5320561311      -35.7714981396       79.7996452557  TIP3      4806            0.0000000000
     65932      6166  TIP3      H1              9.9817417463      -35.9096968238       80.6023969787  TIP3      4806            0.0000000000
     65933      6166  TIP3      H2             10.3755279760      -34.8525309040       79.5735248684  TIP3      4806            0.0000000000
     65934      6167  TIP3      OH2             8.0225389073      -33.7003387887       70.1989321098  TIP3      4807            0.0000000000
     65935      6167  TIP3      H1              7.7749415837      -32.7541535896       70.1079037191  TIP3      4807            0.0000000000
     65936      6167  TIP3      H2              8.8942252218      -33.6953404755       69.8088471810  TIP3      4807            0.0000000000
     65937      6168  TIP3      OH2            -2.9983592028      -36.8137290105       72.4196143786  TIP3      4808            0.0000000000
     65938      6168  TIP3      H1             -2.3521779671      -36.8123840102       73.1204986533  TIP3      4808            0.0000000000
     65939      6168  TIP3      H2             -2.5342193508      -37.2048373312       71.6567413106  TIP3      4808            0.0000000000
     65940      6169  TIP3      OH2            -1.7348285546      -36.0706945085       67.8661587503  TIP3      4809            0.0000000000
     65941      6169  TIP3      H1             -1.2301044184      -35.4725475721       67.2901240123  TIP3      4809            0.0000000000
     65942      6169  TIP3      H2             -2.4308424879      -35.4770709821       68.1981066311  TIP3      4809            0.0000000000
     65943      6170  TIP3      OH2             5.2269806733      -36.4731327691       72.6716200785  TIP3      4810            0.0000000000
     65944      6170  TIP3      H1              4.3222780579      -36.5424837547       72.9841558025  TIP3      4810            0.0000000000
     65945      6170  TIP3      H2              5.7383292486      -36.6908436635       73.4630647500  TIP3      4810            0.0000000000
     65946      6171  TIP3      OH2             9.6456403669      -37.4185521001       75.9201089003  TIP3      4811            0.0000000000
     65947      6171  TIP3      H1              8.9717723152      -37.2006754131       76.5965629967  TIP3      4811            0.0000000000
     65948      6171  TIP3      H2              9.1249266306      -37.5097405917       75.1134742251  TIP3      4811            0.0000000000
     65949      6172  TIP3      OH2             2.4004212325      -33.7616966896       66.7735791172  TIP3      4812            0.0000000000
     65950      6172  TIP3      H1              1.8245601123      -34.0943281930       66.0665736991  TIP3      4812            0.0000000000
     65951      6172  TIP3      H2              3.2229825874      -33.5479670087       66.3151442594  TIP3      4812            0.0000000000
     65952      6173  TIP3      OH2            12.8340473401      -21.6403442450       82.2832163787  TIP3      4813            0.0000000000
     65953      6173  TIP3      H1             13.1293104824      -21.2936982190       81.4186632972  TIP3      4813            0.0000000000
     65954      6173  TIP3      H2             13.5981134129      -21.3840251228       82.8400986272  TIP3      4813            0.0000000000
     65955      6174  TIP3      OH2             0.5338487373      -29.0966944384       81.8048254676  TIP3      4814            0.0000000000
     65956      6174  TIP3      H1              1.2466176579      -28.9870126418       82.4497183965  TIP3      4814            0.0000000000
     65957      6174  TIP3      H2             -0.2583662832      -29.0578560237       82.3883373761  TIP3      4814            0.0000000000
     65958      6175  TIP3      OH2             5.1658476520      -35.4405111485       77.0181686502  TIP3      4815            0.0000000000
     65959      6175  TIP3      H1              4.3462136084      -34.9533845485       77.0948707224  TIP3      4815            0.0000000000
     65960      6175  TIP3      H2              5.7113280113      -35.1127728372       77.7445361983  TIP3      4815            0.0000000000
     65961      6176  TIP3      OH2             5.7833196139      -29.2510953616       68.6817825089  TIP3      4816            0.0000000000
     65962      6176  TIP3      H1              4.9770378997      -29.6996986863       68.3563827438  TIP3      4816            0.0000000000
     65963      6176  TIP3      H2              5.5569867448      -29.1190721808       69.6193845389  TIP3      4816            0.0000000000
     65964      6177  TIP3      OH2             7.2291105757      -29.0084391570       79.9315517851  TIP3      4817            0.0000000000
     65965      6177  TIP3      H1              6.8885284532      -29.3394821893       80.7575895217  TIP3      4817            0.0000000000
     65966      6177  TIP3      H2              7.0524925486      -28.0581011864       79.9783704296  TIP3      4817            0.0000000000
     65967      6178  TIP3      OH2             0.7939518703      -29.9084621823       74.4122611911  TIP3      4818            0.0000000000
     65968      6178  TIP3      H1              1.5731481691      -29.8993645082       73.8283825252  TIP3      4818            0.0000000000
     65969      6178  TIP3      H2              0.9516757080      -30.6886371893       74.9546333957  TIP3      4818            0.0000000000
     65970      6179  TIP3      OH2            -2.1435328324      -31.4350302495       79.7384529036  TIP3      4819            0.0000000000
     65971      6179  TIP3      H1             -1.9514169930      -31.8572022028       80.5958869899  TIP3      4819            0.0000000000
     65972      6179  TIP3      H2             -2.7695389002      -32.0592728425       79.3409076553  TIP3      4819            0.0000000000
     65973      6180  TIP3      OH2             4.9002861574      -31.8857858101       81.9453339307  TIP3      4820            0.0000000000
     65974      6180  TIP3      H1              4.5687911292      -32.1201525387       81.0744889994  TIP3      4820            0.0000000000
     65975      6180  TIP3      H2              5.8011083992      -32.1998903860       81.9335341840  TIP3      4820            0.0000000000
     65976      6181  TIP3      OH2             9.5105792963      -26.5513154415       79.8833377921  TIP3      4821            0.0000000000
     65977      6181  TIP3      H1              8.6123895957      -26.3335542840       79.6060600580  TIP3      4821            0.0000000000
     65978      6181  TIP3      H2              9.5246018249      -26.2370143736       80.7955844191  TIP3      4821            0.0000000000
     65979      6182  TIP3      OH2            14.0732884145      -25.7735959399       68.9608008992  TIP3      4822            0.0000000000
     65980      6182  TIP3      H1             13.2091232644      -26.2038385978       69.0869250452  TIP3      4822            0.0000000000
     65981      6182  TIP3      H2             13.8565127604      -25.6193566774       68.0080261895  TIP3      4822            0.0000000000
     65982      6183  TIP3      OH2             3.2402613708      -26.4007789869       71.8563827983  TIP3      4823            0.0000000000
     65983      6183  TIP3      H1              3.7509584146      -25.6092435572       71.6683047399  TIP3      4823            0.0000000000
     65984      6183  TIP3      H2              2.3594885953      -26.1645112063       71.5491989296  TIP3      4823            0.0000000000
     65985      6184  TIP3      OH2            -1.0243184266      -31.5008207865       66.3667327578  TIP3      4824            0.0000000000
     65986      6184  TIP3      H1             -0.3956703376      -30.9240112226       66.8330849296  TIP3      4824            0.0000000000
     65987      6184  TIP3      H2             -1.8842212337      -31.2402226520       66.7417474901  TIP3      4824            0.0000000000
     65988      6185  TIP3      OH2             4.6630905095      -28.7489333368       71.4147083042  TIP3      4825            0.0000000000
     65989      6185  TIP3      H1              4.3771134814      -27.8171490843       71.4737881049  TIP3      4825            0.0000000000
     65990      6185  TIP3      H2              3.8958034457      -29.1955820793       71.8209086464  TIP3      4825            0.0000000000
     65991      6186  TIP3      OH2             5.1138653681      -24.5587203025       77.8160073669  TIP3      4826            0.0000000000
     65992      6186  TIP3      H1              5.5224163792      -23.7413509535       77.5037046722  TIP3      4826            0.0000000000
     65993      6186  TIP3      H2              5.7414628262      -24.8875663899       78.4714676404  TIP3      4826            0.0000000000
     65994      6187  TIP3      OH2             8.5917065384      -28.5723311259       77.3569421219  TIP3      4827            0.0000000000
     65995      6187  TIP3      H1              8.3253821022      -28.6445175697       78.2921924554  TIP3      4827            0.0000000000
     65996      6187  TIP3      H2              9.3189380821      -29.1948407097       77.2932891305  TIP3      4827            0.0000000000
     65997      6188  TIP3      OH2            10.6537633067      -28.0574618555       66.4402103391  TIP3      4828            0.0000000000
     65998      6188  TIP3      H1             11.1806427720      -27.8589731508       67.2311826076  TIP3      4828            0.0000000000
     65999      6188  TIP3      H2              9.8644587528      -27.5607866348       66.6358151694  TIP3      4828            0.0000000000
     66000      6189  TIP3      OH2            11.3806993783      -23.9013788949       79.9405783167  TIP3      4829            0.0000000000
     66001      6189  TIP3      H1             10.7835343397      -24.4821284465       79.4288318898  TIP3      4829            0.0000000000
     66002      6189  TIP3      H2             11.6081967327      -23.2655849875       79.2385904865  TIP3      4829            0.0000000000
     66003      6190  TIP3      OH2            15.4622077130      -23.0837046463       66.7619947301  TIP3      4830            0.0000000000
     66004      6190  TIP3      H1             16.1270329605      -22.4238237960       66.5272010091  TIP3      4830            0.0000000000
     66005      6190  TIP3      H2             14.6961742087      -22.5271069922       67.0284729801  TIP3      4830            0.0000000000
     66006      6191  TIP3      OH2             0.3459702607      -29.5988387671       67.9029269259  TIP3      4831            0.0000000000
     66007      6191  TIP3      H1             -0.3002547796      -29.1896849580       68.5066124982  TIP3      4831            0.0000000000
     66008      6191  TIP3      H2              0.9270553612      -28.8484260036       67.6871276060  TIP3      4831            0.0000000000
     66009      6192  TIP3      OH2             8.2383326864      -36.9657625396       78.2148188686  TIP3      4832            0.0000000000
     66010      6192  TIP3      H1              8.9325342489      -36.8587624851       78.8800468737  TIP3      4832            0.0000000000
     66011      6192  TIP3      H2              7.8600926452      -37.8284543605       78.4013600769  TIP3      4832            0.0000000000
     66012      6193  TIP3      OH2             9.0307246676      -37.3406334178       69.2855811147  TIP3      4833            0.0000000000
     66013      6193  TIP3      H1              9.1999791783      -36.7779223771       68.5237968722  TIP3      4833            0.0000000000
     66014      6193  TIP3      H2              9.5107143137      -36.9090704878       69.9960543508  TIP3      4833            0.0000000000
     66015      6194  TIP3      OH2             6.6488448418      -25.1901479756       68.1390401746  TIP3      4834            0.0000000000
     66016      6194  TIP3      H1              5.8479015672      -24.6723562209       68.2044050870  TIP3      4834            0.0000000000
     66017      6194  TIP3      H2              7.2379301415      -24.6786501609       67.5707291597  TIP3      4834            0.0000000000
     66018      6195  TIP3      OH2            12.9749959840      -36.6674033884       80.1731122044  TIP3      4835            0.0000000000
     66019      6195  TIP3      H1             12.0310318271      -36.4156606128       80.0610950979  TIP3      4835            0.0000000000
     66020      6195  TIP3      H2             13.2692682755      -36.7014278789       79.2594550124  TIP3      4835            0.0000000000
     66021      6196  TIP3      OH2             0.9878423342      -27.0574156989       66.8624698892  TIP3      4836            0.0000000000
     66022      6196  TIP3      H1              1.5471918131      -26.3064607975       67.0889431507  TIP3      4836            0.0000000000
     66023      6196  TIP3      H2              1.4471462279      -27.4083150826       66.0913746859  TIP3      4836            0.0000000000
     66024      6197  TIP3      OH2            -0.7400182653      -34.2546872864       65.8984162008  TIP3      4837            0.0000000000
     66025      6197  TIP3      H1             -0.7479559239      -33.3057681080       66.1082606661  TIP3      4837            0.0000000000
     66026      6197  TIP3      H2             -1.6231879438      -34.4858927046       65.6409485352  TIP3      4837            0.0000000000
     66027      6198  TIP3      OH2            12.6773119924      -23.6048114325       75.8903020748  TIP3      4838            0.0000000000
     66028      6198  TIP3      H1             12.5277893311      -22.9535511111       75.1857354605  TIP3      4838            0.0000000000
     66029      6198  TIP3      H2             13.6370969320      -23.5602069650       76.0497345101  TIP3      4838            0.0000000000
     66030      6199  TIP3      OH2             9.4630739704      -25.6506263870       82.4207201642  TIP3      4839            0.0000000000
     66031      6199  TIP3      H1              9.1940762231      -26.5469820289       82.6590816796  TIP3      4839            0.0000000000
     66032      6199  TIP3      H2             10.2348909727      -25.5075180594       82.9951209053  TIP3      4839            0.0000000000
     66033      6200  TIP3      OH2            11.5959897030      -24.7262805348       64.7576675538  TIP3      4840            0.0000000000
     66034      6200  TIP3      H1             11.7313960783      -25.3338614157       65.5313078743  TIP3      4840            0.0000000000
     66035      6200  TIP3      H2             12.5073237587      -24.4297756408       64.6955685484  TIP3      4840            0.0000000000
     66036      6201  TIP3      OH2            -1.7869482088      -29.1953483163       83.0832724940  TIP3      4841            0.0000000000
     66037      6201  TIP3      H1             -1.6460107600      -30.1140731505       82.7900756649  TIP3      4841            0.0000000000
     66038      6201  TIP3      H2             -2.5360501342      -28.9134017274       82.5402061919  TIP3      4841            0.0000000000
     66039      6202  TIP3      OH2             4.9319437620      -29.2173807591       82.4831809956  TIP3      4842            0.0000000000
     66040      6202  TIP3      H1              4.5856022777      -28.9036274713       81.6280497306  TIP3      4842            0.0000000000
     66041      6202  TIP3      H2              4.9804033845      -30.1867066312       82.3676151630  TIP3      4842            0.0000000000
     66042      6203  TIP3      OH2            -0.9104802090      -31.9445271782       82.4894492674  TIP3      4843            0.0000000000
     66043      6203  TIP3      H1             -0.5247094639      -32.8100757939       82.3722882610  TIP3      4843            0.0000000000
     66044      6203  TIP3      H2             -1.1383574594      -31.9479950049       83.4459179502  TIP3      4843            0.0000000000
     66045      6204  TIP3      OH2             3.7406311865      -30.8249090168       67.5476305255  TIP3      4844            0.0000000000
     66046      6204  TIP3      H1              3.2435093907      -31.3715366364       68.1776347265  TIP3      4844            0.0000000000
     66047      6204  TIP3      H2              4.0148339424      -31.5128861218       66.9017996305  TIP3      4844            0.0000000000
     66048      6205  TIP3      OH2             4.8333454651      -32.6551951876       65.7625057843  TIP3      4845            0.0000000000
     66049      6205  TIP3      H1              4.6995760123      -32.8266952771       64.8252795663  TIP3      4845            0.0000000000
     66050      6205  TIP3      H2              5.7992189975      -32.5296778453       65.8151289348  TIP3      4845            0.0000000000
     66051      6206  TIP3      OH2             8.5828044104      -36.3591146292       81.5470707302  TIP3      4846            0.0000000000
     66052      6206  TIP3      H1              7.6289380247      -36.2952770025       81.6716923693  TIP3      4846            0.0000000000
     66053      6206  TIP3      H2              8.8629703905      -36.9867771268       82.2247161211  TIP3      4846            0.0000000000
     66054      6207  TIP3      OH2            -1.7640156683      -27.2993001509       66.2922906253  TIP3      4847            0.0000000000
     66055      6207  TIP3      H1             -0.8072568422      -27.2200335844       66.5062158348  TIP3      4847            0.0000000000
     66056      6207  TIP3      H2             -1.7406653084      -27.9343840511       65.5636070904  TIP3      4847            0.0000000000
     66057      6208  TIP3      OH2            15.3673648858      -22.9977479372       76.0896237834  TIP3      4848            0.0000000000
     66058      6208  TIP3      H1             15.3688416385      -22.8467082538       77.0506015233  TIP3      4848            0.0000000000
     66059      6208  TIP3      H2             16.0920802954      -22.4279113577       75.7842582099  TIP3      4848            0.0000000000
     66060      6209  TIP3      OH2            14.9372876211      -23.4670379941       78.9801312390  TIP3      4849            0.0000000000
     66061      6209  TIP3      H1             14.4090378719      -24.2135830057       78.6788627246  TIP3      4849            0.0000000000
     66062      6209  TIP3      H2             15.4091964156      -23.8739170311       79.7360457010  TIP3      4849            0.0000000000
     66063      6210  TIP3      OH2            13.3735857515      -27.6512909864       83.6210210770  TIP3      4850            0.0000000000
     66064      6210  TIP3      H1             12.5368545394      -27.7587816159       84.0565648274  TIP3      4850            0.0000000000
     66065      6210  TIP3      H2             13.7817837409      -26.9200949545       84.1300076651  TIP3      4850            0.0000000000
     66066      6211  TIP3      OH2            14.7679286081      -29.3430246794       69.1728911314  TIP3      4851            0.0000000000
     66067      6211  TIP3      H1             15.6016356092      -28.9224282213       69.3803566932  TIP3      4851            0.0000000000
     66068      6211  TIP3      H2             14.7047203958      -30.0421106385       69.8227905974  TIP3      4851            0.0000000000
     66069      6212  TIP3      OH2            -2.1423259172      -30.7382442032       75.6027284279  TIP3      4852            0.0000000000
     66070      6212  TIP3      H1             -1.9051214537      -30.8003330135       74.6717159099  TIP3      4852            0.0000000000
     66071      6212  TIP3      H2             -1.2651737734      -30.9021328645       76.0094253031  TIP3      4852            0.0000000000
     66072      6213  TIP3      OH2            13.0142315908      -36.9444220632       65.0234009706  TIP3      4853            0.0000000000
     66073      6213  TIP3      H1             13.5995019238      -37.2279332870       65.7473965704  TIP3      4853            0.0000000000
     66074      6213  TIP3      H2             12.1301206396      -37.2030967972       65.2879605246  TIP3      4853            0.0000000000
     66075      6214  TIP3      OH2            -2.5233378335      -35.4021112859       81.8269384897  TIP3      4854            0.0000000000
     66076      6214  TIP3      H1             -1.5982386467      -35.6408976011       81.9236603690  TIP3      4854            0.0000000000
     66077      6214  TIP3      H2             -2.9665758137      -36.2429664610       82.0627542089  TIP3      4854            0.0000000000
     66078      6215  TIP3      OH2            15.4675789957      -39.7180889561       83.5457281267  TIP3      4855            0.0000000000
     66079      6215  TIP3      H1             15.7698548320      -40.4619874844       82.9837593414  TIP3      4855            0.0000000000
     66080      6215  TIP3      H2             15.6622973091      -38.9552907271       82.9909000311  TIP3      4855            0.0000000000
     66081      6216  TIP3      OH2            13.1593971298      -37.9479016130       69.8921570987  TIP3      4856            0.0000000000
     66082      6216  TIP3      H1             13.3440205771      -38.3300441430       70.7929293041  TIP3      4856            0.0000000000
     66083      6216  TIP3      H2             12.5074969305      -38.5953265221       69.5908163433  TIP3      4856            0.0000000000
     66084      6217  TIP3      OH2            15.0181340563      -37.7784859479       81.8328966392  TIP3      4857            0.0000000000
     66085      6217  TIP3      H1             14.0745450925      -37.5869528978       81.8601628048  TIP3      4857            0.0000000000
     66086      6217  TIP3      H2             15.0456070687      -38.4837946777       81.1653233027  TIP3      4857            0.0000000000
     66087      6218  TIP3      OH2            15.0308585634      -37.9263685234       66.6556924530  TIP3      4858            0.0000000000
     66088      6218  TIP3      H1             15.4296965461      -38.6322127121       66.1263897980  TIP3      4858            0.0000000000
     66089      6218  TIP3      H2             15.6867475949      -37.2186195305       66.6073394076  TIP3      4858            0.0000000000
     66090      6219  TIP3      OH2            -2.6970210353      -37.9446303430       69.7542044976  TIP3      4859            0.0000000000
     66091      6219  TIP3      H1             -3.6231852796      -37.7176247436       69.6054133854  TIP3      4859            0.0000000000
     66092      6219  TIP3      H2             -2.2327675127      -37.4611163764       69.0393611185  TIP3      4859            0.0000000000
     66093      6220  TIP3      OH2            12.0751841069      -22.9665189808       71.7145735114  TIP3      4860            0.0000000000
     66094      6220  TIP3      H1             12.7369460670      -23.2357313043       71.0451520944  TIP3      4860            0.0000000000
     66095      6220  TIP3      H2             12.5885349414      -22.4532108664       72.3452737508  TIP3      4860            0.0000000000
     66096      6221  TIP3      OH2            -2.6900332022      -39.1885975479       78.0628156958  TIP3      4861            0.0000000000
     66097      6221  TIP3      H1             -3.3736307017      -39.3660517735       78.7144108620  TIP3      4861            0.0000000000
     66098      6221  TIP3      H2             -3.1365721114      -38.5288910683       77.4872230162  TIP3      4861            0.0000000000
     66099      6222  TIP3      OH2             6.7672930173      -23.6717307110       81.3727399930  TIP3      4862            0.0000000000
     66100      6222  TIP3      H1              6.8834774488      -23.9219526326       82.3121551598  TIP3      4862            0.0000000000
     66101      6222  TIP3      H2              7.6223418480      -23.2655740164       81.1287369782  TIP3      4862            0.0000000000
     66102      6223  TIP3      OH2             9.0520792423      -22.3501021411       80.6919280827  TIP3      4863            0.0000000000
     66103      6223  TIP3      H1              9.7784575257      -22.9503868205       80.4489995412  TIP3      4863            0.0000000000
     66104      6223  TIP3      H2              9.4054255257      -21.9178516861       81.4923034887  TIP3      4863            0.0000000000
     66105      6224  TIP3      OH2            13.8980120558      -39.8543881765       79.9318344899  TIP3      4864            0.0000000000
     66106      6224  TIP3      H1             13.2002946140      -39.4188413373       79.4104119342  TIP3      4864            0.0000000000
     66107      6224  TIP3      H2             14.2106205607      -40.5170686635       79.3088950501  TIP3      4864            0.0000000000
     66108      6225  TIP3      OH2             7.0320122944      -22.2610738778       76.7475826027  TIP3      4865            0.0000000000
     66109      6225  TIP3      H1              6.5204844069      -21.7909264313       76.0851976060  TIP3      4865            0.0000000000
     66110      6225  TIP3      H2              7.1369353847      -21.6572233242       77.4861215566  TIP3      4865            0.0000000000
     66111      6226  TIP3      OH2             9.3155993854      -23.4335471273       77.7426998733  TIP3      4866            0.0000000000
     66112      6226  TIP3      H1              8.4407100214      -23.2235809409       77.3954363737  TIP3      4866            0.0000000000
     66113      6226  TIP3      H2              9.8022057106      -22.6100316038       77.6580220876  TIP3      4866            0.0000000000
     66114      6227  TIP3      OH2            11.9324625920      -21.8738351602       77.9708256903  TIP3      4867            0.0000000000
     66115      6227  TIP3      H1             11.8200973695      -20.9208635847       77.7516351208  TIP3      4867            0.0000000000
     66116      6227  TIP3      H2             12.0821401387      -22.2990025080       77.1043899422  TIP3      4867            0.0000000000
     66117      6228  TIP3      OH2            12.5781698512      -40.1282537938       74.2535341228  TIP3      4868            0.0000000000
     66118      6228  TIP3      H1             13.1443936911      -39.6981677149       73.6092561228  TIP3      4868            0.0000000000
     66119      6228  TIP3      H2             11.7008174759      -39.8997822024       73.9411807678  TIP3      4868            0.0000000000
     66120      6229  TIP3      OH2            13.9733173014      -38.8825967604       72.0423206047  TIP3      4869            0.0000000000
     66121      6229  TIP3      H1             14.6582354036      -39.5829853027       72.0030344049  TIP3      4869            0.0000000000
     66122      6229  TIP3      H2             14.5082350352      -38.1316806654       72.3921018421  TIP3      4869            0.0000000000
     66123      6230  TIP3      OH2            11.1465443215      -39.5716726896       68.8550455999  TIP3      4870            0.0000000000
     66124      6230  TIP3      H1             10.3789015450      -38.9944815711       68.8829027796  TIP3      4870            0.0000000000
     66125      6230  TIP3      H2             10.8501983069      -40.4303130608       69.2063792053  TIP3      4870            0.0000000000
     66126      6231  TIP3      OH2             7.2970915796      -22.6708620069       67.0096638204  TIP3      4871            0.0000000000
     66127      6231  TIP3      H1              8.2351121409      -22.4379025314       66.8510109694  TIP3      4871            0.0000000000
     66128      6231  TIP3      H2              7.1369148260      -23.1542587468       66.1937208763  TIP3      4871            0.0000000000
     66129      6232  TIP3      OH2            14.0389336685      -23.1264775282       69.7419432037  TIP3      4872            0.0000000000
     66130      6232  TIP3      H1             13.8817593159      -23.9280455823       69.1882809304  TIP3      4872            0.0000000000
     66131      6232  TIP3      H2             13.9770744308      -22.4216661901       69.0699028960  TIP3      4872            0.0000000000
     66132      6233  TIP3      OH2            10.1009773243      -40.4207377414       83.1710818797  TIP3      4873            0.0000000000
     66133      6233  TIP3      H1             10.1950016479      -40.9338195939       83.9788466986  TIP3      4873            0.0000000000
     66134      6233  TIP3      H2             10.9973210745      -40.4801156513       82.8087629192  TIP3      4873            0.0000000000
     66135      6234  TIP3      OH2            13.2614881647      -24.3930595485       81.8522438636  TIP3      4874            0.0000000000
     66136      6234  TIP3      H1             12.5034231828      -24.5517382514       81.2558832961  TIP3      4874            0.0000000000
     66137      6234  TIP3      H2             13.1729916017      -23.4419235078       82.0445070794  TIP3      4874            0.0000000000
     66138      6235  TIP3      OH2            30.2220022977      -28.2370501496       73.5507678377  TIP3      4875            0.0000000000
     66139      6235  TIP3      H1             29.9998962375      -29.0307711842       74.0506899835  TIP3      4875            0.0000000000
     66140      6235  TIP3      H2             30.3356116692      -27.5909338609       74.2748095523  TIP3      4875            0.0000000000
     66141      6236  TIP3      OH2            19.7989555307      -27.2642429600       75.6131644224  TIP3      4876            0.0000000000
     66142      6236  TIP3      H1             19.5093046252      -27.9822668154       75.0441339613  TIP3      4876            0.0000000000
     66143      6236  TIP3      H2             20.7523654376      -27.3099071908       75.4631169835  TIP3      4876            0.0000000000
     66144      6237  TIP3      OH2            17.2622800262      -31.3484934612       72.9585765445  TIP3      4877            0.0000000000
     66145      6237  TIP3      H1             17.4607495882      -32.1647337553       73.4544195923  TIP3      4877            0.0000000000
     66146      6237  TIP3      H2             17.9663641874      -31.2835541295       72.3120346049  TIP3      4877            0.0000000000
     66147      6238  TIP3      OH2            27.4069025120      -23.1591113232       73.8136356677  TIP3      4878            0.0000000000
     66148      6238  TIP3      H1             28.0455440803      -23.8642785444       73.5345242582  TIP3      4878            0.0000000000
     66149      6238  TIP3      H2             27.1985946048      -23.4627678215       74.6936298001  TIP3      4878            0.0000000000
     66150      6239  TIP3      OH2            33.5645274226      -37.2322910439       76.5000149030  TIP3      4879            0.0000000000
     66151      6239  TIP3      H1             33.7611269790      -36.6394619577       77.2650091126  TIP3      4879            0.0000000000
     66152      6239  TIP3      H2             34.1285065841      -36.8019569291       75.8397146722  TIP3      4879            0.0000000000
     66153      6240  TIP3      OH2            28.2467869426      -34.3940798096       76.0507053972  TIP3      4880            0.0000000000
     66154      6240  TIP3      H1             28.2662449207      -35.3686089882       76.0783175029  TIP3      4880            0.0000000000
     66155      6240  TIP3      H2             28.0053460706      -34.2572579683       75.1314910619  TIP3      4880            0.0000000000
     66156      6241  TIP3      OH2            21.2723091213      -36.2189656069       73.3055152697  TIP3      4881            0.0000000000
     66157      6241  TIP3      H1             21.3541170991      -35.4057096205       72.8128067960  TIP3      4881            0.0000000000
     66158      6241  TIP3      H2             20.9390925830      -36.8436278207       72.6260503398  TIP3      4881            0.0000000000
     66159      6242  TIP3      OH2            29.0034294270      -36.2237609811       71.6492997979  TIP3      4882            0.0000000000
     66160      6242  TIP3      H1             29.6357651853      -36.5238953939       72.3339441402  TIP3      4882            0.0000000000
     66161      6242  TIP3      H2             29.5586199734      -35.6621392551       71.0966704691  TIP3      4882            0.0000000000
     66162      6243  TIP3      OH2            17.9099982196      -33.8725537723       74.0384545277  TIP3      4883            0.0000000000
     66163      6243  TIP3      H1             18.5513702826      -34.4331413880       74.5015887864  TIP3      4883            0.0000000000
     66164      6243  TIP3      H2             17.9815215917      -34.2018012285       73.1359446019  TIP3      4883            0.0000000000
     66165      6244  TIP3      OH2            34.0321715313      -35.8279525004       78.7553551120  TIP3      4884            0.0000000000
     66166      6244  TIP3      H1             33.4230504010      -35.0675125020       78.6740593723  TIP3      4884            0.0000000000
     66167      6244  TIP3      H2             34.0899308482      -35.9359046396       79.7194475731  TIP3      4884            0.0000000000
     66168      6245  TIP3      OH2            20.1493447116      -37.2386240135       77.5371206974  TIP3      4885            0.0000000000
     66169      6245  TIP3      H1             19.8986072114      -36.8829424641       76.6510280399  TIP3      4885            0.0000000000
     66170      6245  TIP3      H2             19.3969283516      -37.0685644701       78.0947574485  TIP3      4885            0.0000000000
     66171      6246  TIP3      OH2            27.4503485136      -27.9153293848       70.9217259266  TIP3      4886            0.0000000000
     66172      6246  TIP3      H1             27.1992338243      -28.2121687158       70.0407665732  TIP3      4886            0.0000000000
     66173      6246  TIP3      H2             27.1409628970      -26.9812144252       70.9263710041  TIP3      4886            0.0000000000
     66174      6247  TIP3      OH2            30.8123893497      -36.8953485563       73.6648104364  TIP3      4887            0.0000000000
     66175      6247  TIP3      H1             30.5728338621      -37.6702464697       74.1849703458  TIP3      4887            0.0000000000
     66176      6247  TIP3      H2             31.4579279692      -36.4385914002       74.2294191000  TIP3      4887            0.0000000000
     66177      6248  TIP3      OH2            19.7113467586      -35.5021275984       75.3234914952  TIP3      4888            0.0000000000
     66178      6248  TIP3      H1             20.3388168555      -34.8792730637       75.7209661705  TIP3      4888            0.0000000000
     66179      6248  TIP3      H2             20.3074641084      -35.9930953119       74.6912960307  TIP3      4888            0.0000000000
     66180      6249  TIP3      OH2            21.1174414058      -27.7452004436       78.4079924789  TIP3      4889            0.0000000000
     66181      6249  TIP3      H1             21.0703353276      -26.8703606119       78.0281445033  TIP3      4889            0.0000000000
     66182      6249  TIP3      H2             20.2520602514      -27.8449424525       78.8599050703  TIP3      4889            0.0000000000
     66183      6250  TIP3      OH2            17.2548718444      -28.1222330766       69.1882386866  TIP3      4890            0.0000000000
     66184      6250  TIP3      H1             16.8922769347      -27.8371251899       68.3301468982  TIP3      4890            0.0000000000
     66185      6250  TIP3      H2             17.2397360492      -27.2900328349       69.7071873485  TIP3      4890            0.0000000000
     66186      6251  TIP3      OH2            30.8516469701      -26.4659462519       75.9307058097  TIP3      4891            0.0000000000
     66187      6251  TIP3      H1             29.8883539998      -26.3739935514       76.0547084232  TIP3      4891            0.0000000000
     66188      6251  TIP3      H2             31.1133535242      -25.5456449618       75.7566033437  TIP3      4891            0.0000000000
     66189      6252  TIP3      OH2            31.1593987368      -38.2178207868       77.3826278489  TIP3      4892            0.0000000000
     66190      6252  TIP3      H1             30.4196452160      -37.5984391853       77.2670275587  TIP3      4892            0.0000000000
     66191      6252  TIP3      H2             31.8531797402      -37.8000824686       76.8311997889  TIP3      4892            0.0000000000
     66192      6253  TIP3      OH2            24.8126407501      -40.5371050946       74.3903598027  TIP3      4893            0.0000000000
     66193      6253  TIP3      H1             24.2588775726      -41.3043266085       74.5895302070  TIP3      4893            0.0000000000
     66194      6253  TIP3      H2             24.0254717318      -39.9668639637       74.6089006840  TIP3      4893            0.0000000000
     66195      6254  TIP3      OH2            29.1058697909      -24.6728342758       72.5739832391  TIP3      4894            0.0000000000
     66196      6254  TIP3      H1             29.4926312054      -25.4079970591       72.0496224560  TIP3      4894            0.0000000000
     66197      6254  TIP3      H2             29.5092897221      -23.8960770833       72.1405782323  TIP3      4894            0.0000000000
     66198      6255  TIP3      OH2            30.3230161326      -26.7576427604       71.0991890755  TIP3      4895            0.0000000000
     66199      6255  TIP3      H1             30.0176444866      -27.4284385495       70.4543635212  TIP3      4895            0.0000000000
     66200      6255  TIP3      H2             30.3310210604      -27.2796554805       71.9252625967  TIP3      4895            0.0000000000
     66201      6256  TIP3      OH2            31.8972536210      -28.1863053913       79.5620943061  TIP3      4896            0.0000000000
     66202      6256  TIP3      H1             32.0630538099      -28.8040911522       78.8337466303  TIP3      4896            0.0000000000
     66203      6256  TIP3      H2             32.0883854004      -27.3433837046       79.1245945245  TIP3      4896            0.0000000000
     66204      6257  TIP3      OH2            33.7026728388      -31.8760640680       77.5582907841  TIP3      4897            0.0000000000
     66205      6257  TIP3      H1             33.1653689744      -31.0840086605       77.6457270409  TIP3      4897            0.0000000000
     66206      6257  TIP3      H2             34.2514081722      -31.6310416097       76.7931767945  TIP3      4897            0.0000000000
     66207      6258  TIP3      OH2            29.8567491938      -31.0307804834       70.2322764293  TIP3      4898            0.0000000000
     66208      6258  TIP3      H1             29.1290179799      -30.8079972164       70.8257314568  TIP3      4898            0.0000000000
     66209      6258  TIP3      H2             30.3345250988      -31.7171635641       70.7270770007  TIP3      4898            0.0000000000
     66210      6259  TIP3      OH2            28.1945755451      -26.1590596508       76.5242121929  TIP3      4899            0.0000000000
     66211      6259  TIP3      H1             27.9312343099      -25.4670521613       77.1500323070  TIP3      4899            0.0000000000
     66212      6259  TIP3      H2             27.9420859915      -26.9567182476       76.9961951094  TIP3      4899            0.0000000000
     66213      6260  TIP3      OH2            19.6596671119      -31.0533251390       79.6737261884  TIP3      4900            0.0000000000
     66214      6260  TIP3      H1             19.7233273146      -30.4323708522       80.3946973043  TIP3      4900            0.0000000000
     66215      6260  TIP3      H2             18.7355978249      -31.0032292289       79.4351436824  TIP3      4900            0.0000000000
     66216      6261  TIP3      OH2            26.4531318711      -25.1604810407       71.3776554944  TIP3      4901            0.0000000000
     66217      6261  TIP3      H1             26.8437083192      -24.8559500723       72.2004710776  TIP3      4901            0.0000000000
     66218      6261  TIP3      H2             25.8618331368      -24.4341680771       71.1436339962  TIP3      4901            0.0000000000
     66219      6262  TIP3      OH2            20.9939696061      -25.1612581787       81.2786842931  TIP3      4902            0.0000000000
     66220      6262  TIP3      H1             20.9501030193      -25.3039904957       80.3349050824  TIP3      4902            0.0000000000
     66221      6262  TIP3      H2             20.0734633018      -25.3159039006       81.5516109099  TIP3      4902            0.0000000000
     66222      6263  TIP3      OH2            32.4366564721      -40.1679628649       67.8078787280  TIP3      4903            0.0000000000
     66223      6263  TIP3      H1             31.5017718060      -40.0329555729       68.0862802449  TIP3      4903            0.0000000000
     66224      6263  TIP3      H2             32.6474782013      -39.3352937453       67.3834488518  TIP3      4903            0.0000000000
     66225      6264  TIP3      OH2            33.5473520573      -25.7755137390       66.1339910575  TIP3      4904            0.0000000000
     66226      6264  TIP3      H1             33.6930958423      -24.8303376646       66.2967232387  TIP3      4904            0.0000000000
     66227      6264  TIP3      H2             34.4519906273      -26.1247556260       66.1341876869  TIP3      4904            0.0000000000
     66228      6265  TIP3      OH2            16.2902223854      -26.1946745498       75.4120169067  TIP3      4905            0.0000000000
     66229      6265  TIP3      H1             17.2401609943      -26.3697790244       75.4414322228  TIP3      4905            0.0000000000
     66230      6265  TIP3      H2             16.2046307695      -25.4027582832       75.9531883279  TIP3      4905            0.0000000000
     66231      6266  TIP3      OH2            34.5450457076      -25.5430321956       81.0943605347  TIP3      4906            0.0000000000
     66232      6266  TIP3      H1             34.4140871549      -26.4988181502       81.1173821317  TIP3      4906            0.0000000000
     66233      6266  TIP3      H2             33.6873285677      -25.2725257800       81.5052061620  TIP3      4906            0.0000000000
     66234      6267  TIP3      OH2            25.9303994082      -22.2349188789       69.7849639752  TIP3      4907            0.0000000000
     66235      6267  TIP3      H1             25.8268424157      -22.3192145040       68.8278670747  TIP3      4907            0.0000000000
     66236      6267  TIP3      H2             25.9345294344      -21.2778146932       69.9516996780  TIP3      4907            0.0000000000
     66237      6268  TIP3      OH2            19.5675282382      -23.4134160004       71.6108165417  TIP3      4908            0.0000000000
     66238      6268  TIP3      H1             19.6785532338      -23.8104445554       72.4851326613  TIP3      4908            0.0000000000
     66239      6268  TIP3      H2             18.6799086603      -23.7325086337       71.3678427896  TIP3      4908            0.0000000000
     66240      6269  TIP3      OH2            28.9534966479      -23.0582209434       66.7506471432  TIP3      4909            0.0000000000
     66241      6269  TIP3      H1             29.3948922168      -23.8300221601       66.4063879211  TIP3      4909            0.0000000000
     66242      6269  TIP3      H2             28.9908796559      -23.2715052716       67.7102200609  TIP3      4909            0.0000000000
     66243      6270  TIP3      OH2            28.6477980496      -23.1156820931       69.5260130272  TIP3      4910            0.0000000000
     66244      6270  TIP3      H1             27.6951591740      -23.0354888307       69.7397787737  TIP3      4910            0.0000000000
     66245      6270  TIP3      H2             28.9108236590      -23.8348532775       70.1227941751  TIP3      4910            0.0000000000
     66246      6271  TIP3      OH2            31.6806490462      -34.0407166334       81.5765210605  TIP3      4911            0.0000000000
     66247      6271  TIP3      H1             31.1951641212      -33.5658303129       80.9009291405  TIP3      4911            0.0000000000
     66248      6271  TIP3      H2             31.6674255088      -34.9638395311       81.2822887702  TIP3      4911            0.0000000000
     66249      6272  TIP3      OH2            18.7962348794      -27.7211058695       79.5735241478  TIP3      4912            0.0000000000
     66250      6272  TIP3      H1             18.9891693974      -27.9301045958       80.5108083443  TIP3      4912            0.0000000000
     66251      6272  TIP3      H2             17.9029783346      -28.0371708117       79.4366473811  TIP3      4912            0.0000000000
     66252      6273  TIP3      OH2            20.8456132738      -37.9038729779       75.2328175071  TIP3      4913            0.0000000000
     66253      6273  TIP3      H1             20.6133299924      -38.8446917205       75.1507107705  TIP3      4913            0.0000000000
     66254      6273  TIP3      H2             21.2918961411      -38.0524052227       76.0873037065  TIP3      4913            0.0000000000
     66255      6274  TIP3      OH2            26.0854978758      -39.4520087716       78.9610556094  TIP3      4914            0.0000000000
     66256      6274  TIP3      H1             26.5421494993      -39.9034783750       79.6822702999  TIP3      4914            0.0000000000
     66257      6274  TIP3      H2             25.1731707021      -39.7350084257       79.1325375717  TIP3      4914            0.0000000000
     66258      6275  TIP3      OH2            29.4180867974      -35.7322491766       79.8288189248  TIP3      4915            0.0000000000
     66259      6275  TIP3      H1             28.8486364886      -35.8844004479       80.6283626328  TIP3      4915            0.0000000000
     66260      6275  TIP3      H2             29.1771362119      -34.8324085817       79.5780746675  TIP3      4915            0.0000000000
     66261      6276  TIP3      OH2            26.1154269057      -37.1034478970       66.2288934152  TIP3      4916            0.0000000000
     66262      6276  TIP3      H1             25.6936082252      -36.9476234584       67.0955339371  TIP3      4916            0.0000000000
     66263      6276  TIP3      H2             25.5421131899      -37.8105606929       65.9290784999  TIP3      4916            0.0000000000
     66264      6277  TIP3      OH2            19.2086637990      -33.8468097731       78.4834166899  TIP3      4917            0.0000000000
     66265      6277  TIP3      H1             19.2226281417      -33.4843559095       79.3719175483  TIP3      4917            0.0000000000
     66266      6277  TIP3      H2             18.8611158344      -34.7317092426       78.6864411425  TIP3      4917            0.0000000000
     66267      6278  TIP3      OH2            15.3114913349      -36.5335502541       72.2780108475  TIP3      4918            0.0000000000
     66268      6278  TIP3      H1             15.9092030858      -36.4747971220       73.0461800866  TIP3      4918            0.0000000000
     66269      6278  TIP3      H2             15.9648380360      -36.9531977446       71.6689615401  TIP3      4918            0.0000000000
     66270      6279  TIP3      OH2            24.1112824356      -36.2830265855       72.7627706323  TIP3      4919            0.0000000000
     66271      6279  TIP3      H1             23.2040680894      -36.5763236027       72.9800785990  TIP3      4919            0.0000000000
     66272      6279  TIP3      H2             24.6101025558      -36.6529994903       73.5049868089  TIP3      4919            0.0000000000
     66273      6280  TIP3      OH2            18.9289754112      -34.8103173542       71.4391284806  TIP3      4920            0.0000000000
     66274      6280  TIP3      H1             18.0104359235      -34.8377851508       71.1650958048  TIP3      4920            0.0000000000
     66275      6280  TIP3      H2             19.2248957467      -35.7143524116       71.1881419353  TIP3      4920            0.0000000000
     66276      6281  TIP3      OH2            28.5288915372      -37.3634096443       75.9037751582  TIP3      4921            0.0000000000
     66277      6281  TIP3      H1             27.8369819044      -37.2663854867       76.5956992498  TIP3      4921            0.0000000000
     66278      6281  TIP3      H2             28.0026337562      -37.5693070129       75.1069563904  TIP3      4921            0.0000000000
     66279      6282  TIP3      OH2            31.7067935116      -21.6693551506       82.2751508089  TIP3      4922            0.0000000000
     66280      6282  TIP3      H1             31.9767489847      -21.2949158782       81.4146944536  TIP3      4922            0.0000000000
     66281      6282  TIP3      H2             32.4348708770      -21.3278533227       82.8149912869  TIP3      4922            0.0000000000
     66282      6283  TIP3      OH2            20.4590600707      -37.2287293695       71.1581620602  TIP3      4923            0.0000000000
     66283      6283  TIP3      H1             20.0081109679      -38.1099161317       71.1210385389  TIP3      4923            0.0000000000
     66284      6283  TIP3      H2             21.1824673688      -37.5447335247       70.6132852238  TIP3      4923            0.0000000000
     66285      6284  TIP3      OH2            24.0850179890      -35.1100994660       76.9965699028  TIP3      4924            0.0000000000
     66286      6284  TIP3      H1             23.1847751002      -34.8535982613       77.2081248454  TIP3      4924            0.0000000000
     66287      6284  TIP3      H2             24.5843675994      -35.0452144245       77.8352731656  TIP3      4924            0.0000000000
     66288      6285  TIP3      OH2            28.5466406622      -36.4099086471       66.8723541805  TIP3      4925            0.0000000000
     66289      6285  TIP3      H1             27.5809883489      -36.3281883208       66.6862302079  TIP3      4925            0.0000000000
     66290      6285  TIP3      H2             28.7444938932      -35.5244991709       67.2089462234  TIP3      4925            0.0000000000
     66291      6286  TIP3      OH2            29.1693085579      -34.4471699890       68.5466411142  TIP3      4926            0.0000000000
     66292      6286  TIP3      H1             30.0659579228      -34.6298401327       68.8830182576  TIP3      4926            0.0000000000
     66293      6286  TIP3      H2             29.2853439905      -33.6779069360       67.9949059345  TIP3      4926            0.0000000000
     66294      6287  TIP3      OH2            28.3904452729      -26.5091982827       79.8381972597  TIP3      4927            0.0000000000
     66295      6287  TIP3      H1             27.4680597797      -26.4081382035       79.6083778584  TIP3      4927            0.0000000000
     66296      6287  TIP3      H2             28.3975896626      -26.2690317639       80.7854366441  TIP3      4927            0.0000000000
     66297      6288  TIP3      OH2            34.0143597482      -34.3289773867       68.2844534052  TIP3      4928            0.0000000000
     66298      6288  TIP3      H1             33.5493635615      -34.6839191496       67.5166752144  TIP3      4928            0.0000000000
     66299      6288  TIP3      H2             34.1633272045      -33.4037745584       67.9867674839  TIP3      4928            0.0000000000
     66300      6289  TIP3      OH2            33.9980668111      -28.4419503297       81.1101985584  TIP3      4929            0.0000000000
     66301      6289  TIP3      H1             33.1218093031      -28.2766413106       80.6808136305  TIP3      4929            0.0000000000
     66302      6289  TIP3      H2             34.5104215570      -28.5572603474       80.2897164223  TIP3      4929            0.0000000000
     66303      6290  TIP3      OH2            32.3918899353      -25.5124237482       68.6656298145  TIP3      4930            0.0000000000
     66304      6290  TIP3      H1             32.0056136058      -26.3318569899       68.9974749697  TIP3      4930            0.0000000000
     66305      6290  TIP3      H2             32.6689552676      -25.7371223658       67.7572933733  TIP3      4930            0.0000000000
     66306      6291  TIP3      OH2            17.8673340216      -31.4080019444       66.3464223171  TIP3      4931            0.0000000000
     66307      6291  TIP3      H1             18.5126475232      -30.8995565301       66.8651042819  TIP3      4931            0.0000000000
     66308      6291  TIP3      H2             17.0228368782      -31.1985520214       66.7362656512  TIP3      4931            0.0000000000
     66309      6292  TIP3      OH2            22.1678252726      -23.7226705141       70.9352645576  TIP3      4932            0.0000000000
     66310      6292  TIP3      H1             21.2090400930      -23.5630351487       71.0330802542  TIP3      4932            0.0000000000
     66311      6292  TIP3      H2             22.5528876285      -22.8861939232       71.2593751734  TIP3      4932            0.0000000000
     66312      6293  TIP3      OH2            30.2550531403      -23.9460397804       79.9065158854  TIP3      4933            0.0000000000
     66313      6293  TIP3      H1             29.5996987106      -24.4528196393       79.3978058708  TIP3      4933            0.0000000000
     66314      6293  TIP3      H2             30.4932503718      -23.2631188061       79.2500880766  TIP3      4933            0.0000000000
     66315      6294  TIP3      OH2            34.2763678550      -23.0684721628       66.7259265077  TIP3      4934            0.0000000000
     66316      6294  TIP3      H1             35.0026046687      -22.4475061027       66.5578289240  TIP3      4934            0.0000000000
     66317      6294  TIP3      H2             33.5594638545      -22.4871611408       67.0599673644  TIP3      4934            0.0000000000
     66318      6295  TIP3      OH2            18.8272307929      -36.1520390935       79.5674209512  TIP3      4935            0.0000000000
     66319      6295  TIP3      H1             17.8791683081      -36.0725420677       79.3400302657  TIP3      4935            0.0000000000
     66320      6295  TIP3      H2             18.7301578255      -37.0878371449       79.8492345231  TIP3      4935            0.0000000000
     66321      6296  TIP3      OH2            30.6106182521      -28.8119237316       68.7625997311  TIP3      4936            0.0000000000
     66322      6296  TIP3      H1             30.3434034527      -29.6139290118       69.2538026835  TIP3      4936            0.0000000000
     66323      6296  TIP3      H2             31.5624471938      -28.7794846786       68.9462690591  TIP3      4936            0.0000000000
     66324      6297  TIP3      OH2            18.0094593495      -24.8892983381       77.7176541105  TIP3      4937            0.0000000000
     66325      6297  TIP3      H1             18.2386821058      -25.8260415305       77.7362395842  TIP3      4937            0.0000000000
     66326      6297  TIP3      H2             18.2160999926      -24.6088582074       78.6194648918  TIP3      4937            0.0000000000
     66327      6298  TIP3      OH2            19.1710481340      -29.5406330261       67.7995041229  TIP3      4938            0.0000000000
     66328      6298  TIP3      H1             18.5766415266      -29.2376099044       68.5237378652  TIP3      4938            0.0000000000
     66329      6298  TIP3      H2             19.8196978290      -28.8303080722       67.7102342459  TIP3      4938            0.0000000000
     66330      6299  TIP3      OH2            27.0979092296      -36.9310667315       78.2519300053  TIP3      4939            0.0000000000
     66331      6299  TIP3      H1             27.7730889644      -36.8685410791       78.9330357974  TIP3      4939            0.0000000000
     66332      6299  TIP3      H2             26.7212900155      -37.8156359761       78.4278592032  TIP3      4939            0.0000000000
     66333      6300  TIP3      OH2            27.9275224017      -37.4017704311       69.3596360741  TIP3      4940            0.0000000000
     66334      6300  TIP3      H1             28.0591562494      -36.8802745973       68.5468509423  TIP3      4940            0.0000000000
     66335      6300  TIP3      H2             28.3734907627      -36.8703943875       70.0318355145  TIP3      4940            0.0000000000
     66336      6301  TIP3      OH2            25.5505684452      -25.1270095786       68.2111127714  TIP3      4941            0.0000000000
     66337      6301  TIP3      H1             24.6857357891      -24.6924192334       68.2317631474  TIP3      4941            0.0000000000
     66338      6301  TIP3      H2             26.0275582607      -24.6962779755       67.5144926093  TIP3      4941            0.0000000000
     66339      6302  TIP3      OH2            25.0040330464      -35.3987731707       70.1816354234  TIP3      4942            0.0000000000
     66340      6302  TIP3      H1             25.8994257214      -35.0577174229       70.2122563366  TIP3      4942            0.0000000000
     66341      6302  TIP3      H2             24.8051558006      -35.7306575615       71.0787859543  TIP3      4942            0.0000000000
     66342      6303  TIP3      OH2            25.6212345625      -34.6587391200       79.2997835472  TIP3      4943            0.0000000000
     66343      6303  TIP3      H1             25.6955156587      -34.0819699109       80.0814151886  TIP3      4943            0.0000000000
     66344      6303  TIP3      H2             26.3063698786      -35.3117381522       79.4480285702  TIP3      4943            0.0000000000
     66345      6304  TIP3      OH2            26.0709838739      -38.5602788552       71.1363965664  TIP3      4944            0.0000000000
     66346      6304  TIP3      H1             25.5965601876      -37.8981114802       71.6791854568  TIP3      4944            0.0000000000
     66347      6304  TIP3      H2             26.6225677414      -37.9799242262       70.5767324474  TIP3      4944            0.0000000000
     66348      6305  TIP3      OH2            22.8756174714      -24.1373558317       68.1957166650  TIP3      4945            0.0000000000
     66349      6305  TIP3      H1             23.0565779377      -23.3358098867       67.6692196237  TIP3      4945            0.0000000000
     66350      6305  TIP3      H2             22.6545950639      -23.8036789832       69.0833163443  TIP3      4945            0.0000000000
     66351      6306  TIP3      OH2            20.8105787441      -36.6857196182       67.6311218735  TIP3      4946            0.0000000000
     66352      6306  TIP3      H1             21.2784256027      -36.0651524342       68.1815523260  TIP3      4946            0.0000000000
     66353      6306  TIP3      H2             21.6190467968      -37.2461385930       67.6892095509  TIP3      4946            0.0000000000
     66354      6307  TIP3      OH2            31.8064718237      -36.6764770880       80.1798888455  TIP3      4947            0.0000000000
     66355      6307  TIP3      H1             30.8638113342      -36.4140452898       80.0665095457  TIP3      4947            0.0000000000
     66356      6307  TIP3      H2             32.1046337928      -36.7345203422       79.2576595273  TIP3      4947            0.0000000000
     66357      6308  TIP3      OH2            31.4804568779      -23.6571726942       75.8961592082  TIP3      4948            0.0000000000
     66358      6308  TIP3      H1             31.3800506255      -22.9891999448       75.1858769005  TIP3      4948            0.0000000000
     66359      6308  TIP3      H2             32.4480922132      -23.5973113704       76.0448837555  TIP3      4948            0.0000000000
     66360      6309  TIP3      OH2            19.4892662004      -40.3499880327       73.3283455158  TIP3      4949            0.0000000000
     66361      6309  TIP3      H1             19.1336330741      -39.4191124605       73.3321017825  TIP3      4949            0.0000000000
     66362      6309  TIP3      H2             18.9431402336      -40.4861036716       74.1178620746  TIP3      4949            0.0000000000
     66363      6310  TIP3      OH2            17.7906148778      -25.6133632506       70.7307167189  TIP3      4950            0.0000000000
     66364      6310  TIP3      H1             16.9915027980      -25.0791269069       70.7479782005  TIP3      4950            0.0000000000
     66365      6310  TIP3      H2             18.3722053545      -25.1199135426       70.1333746233  TIP3      4950            0.0000000000
     66366      6311  TIP3      OH2            17.0775196543      -22.3354055914       81.9267574602  TIP3      4951            0.0000000000
     66367      6311  TIP3      H1             17.5934656605      -22.7823679073       82.6494938232  TIP3      4951            0.0000000000
     66368      6311  TIP3      H2             16.6050088746      -23.1748450085       81.7655177370  TIP3      4951            0.0000000000
     66369      6312  TIP3      OH2            21.8253619065      -24.0339411711       83.7113582325  TIP3      4952            0.0000000000
     66370      6312  TIP3      H1             22.5522093842      -24.5468491241       84.0698631867  TIP3      4952            0.0000000000
     66371      6312  TIP3      H2             21.7552055464      -24.3387720523       82.7856032409  TIP3      4952            0.0000000000
     66372      6313  TIP3      OH2            28.3137200421      -25.6956414876       82.4393878781  TIP3      4953            0.0000000000
     66373      6313  TIP3      H1             28.0233111350      -26.5653464002       82.7404401208  TIP3      4953            0.0000000000
     66374      6313  TIP3      H2             29.0779854358      -25.5168215418       83.0263650791  TIP3      4953            0.0000000000
     66375      6314  TIP3      OH2            17.1060033397      -29.2033501151       83.0856716107  TIP3      4954            0.0000000000
     66376      6314  TIP3      H1             17.2436933335      -30.1057712730       82.7664343286  TIP3      4954            0.0000000000
     66377      6314  TIP3      H2             16.3076541393      -28.9284080684       82.6086146944  TIP3      4954            0.0000000000
     66378      6315  TIP3      OH2            17.9841226298      -31.9829108023       82.4834021719  TIP3      4955            0.0000000000
     66379      6315  TIP3      H1             18.3677823863      -32.8678853525       82.3869104841  TIP3      4955            0.0000000000
     66380      6315  TIP3      H2             17.7296192543      -31.9672300141       83.4250607663  TIP3      4955            0.0000000000
     66381      6316  TIP3      OH2            22.5472632138      -35.1710420879       80.8385495690  TIP3      4956            0.0000000000
     66382      6316  TIP3      H1             22.4230977925      -36.0506102637       80.3811367585  TIP3      4956            0.0000000000
     66383      6316  TIP3      H2             22.2206710700      -34.6192497521       80.1463483803  TIP3      4956            0.0000000000
     66384      6317  TIP3      OH2            22.3886776806      -36.5310701127       78.5975884120  TIP3      4957            0.0000000000
     66385      6317  TIP3      H1             23.1544576827      -36.7456020519       77.9935617180  TIP3      4957            0.0000000000
     66386      6317  TIP3      H2             21.7709172804      -37.1812216030       78.1938750308  TIP3      4957            0.0000000000
     66387      6318  TIP3      OH2            28.6095715997      -34.0400685487       83.6791314421  TIP3      4958            0.0000000000
     66388      6318  TIP3      H1             28.8132303889      -34.9724615167       83.6048474517  TIP3      4958            0.0000000000
     66389      6318  TIP3      H2             29.4588935897      -33.5807741021       83.6987538825  TIP3      4958            0.0000000000
     66390      6319  TIP3      OH2            29.9783658593      -31.2072218047       81.8329304620  TIP3      4959            0.0000000000
     66391      6319  TIP3      H1             29.6509526935      -30.5337395632       81.2168798063  TIP3      4959            0.0000000000
     66392      6319  TIP3      H2             30.9289183905      -31.2305194342       81.6173188781  TIP3      4959            0.0000000000
     66393      6320  TIP3      OH2            20.7069104420      -34.3962169011       82.8448506639  TIP3      4960            0.0000000000
     66394      6320  TIP3      H1             19.9459918327      -34.9911191525       82.6452854931  TIP3      4960            0.0000000000
     66395      6320  TIP3      H2             21.3856071243      -34.6997398699       82.2193258362  TIP3      4960            0.0000000000
     66396      6321  TIP3      OH2            23.6133942853      -40.1749606901       79.1877723578  TIP3      4961            0.0000000000
     66397      6321  TIP3      H1             23.4080741073      -39.1761367980       79.1587484883  TIP3      4961            0.0000000000
     66398      6321  TIP3      H2             22.8291016272      -40.3174618228       78.6263943625  TIP3      4961            0.0000000000
     66399      6322  TIP3      OH2            24.7772190128      -35.5303546357       82.4344505680  TIP3      4962            0.0000000000
     66400      6322  TIP3      H1             24.4777503243      -35.7040777885       83.3406199068  TIP3      4962            0.0000000000
     66401      6322  TIP3      H2             23.9592392485      -35.6510958667       81.9232646290  TIP3      4962            0.0000000000
     66402      6323  TIP3      OH2            27.4682982042      -36.3660066742       81.4940030434  TIP3      4963            0.0000000000
     66403      6323  TIP3      H1             26.5140389421      -36.2685666406       81.6949820499  TIP3      4963            0.0000000000
     66404      6323  TIP3      H2             27.7395948454      -36.9277454940       82.2385670584  TIP3      4963            0.0000000000
     66405      6324  TIP3      OH2            28.9764573557      -37.6935072098       83.4705421124  TIP3      4964            0.0000000000
     66406      6324  TIP3      H1             28.9782413460      -38.6686833292       83.4853431690  TIP3      4964            0.0000000000
     66407      6324  TIP3      H2             28.7554204299      -37.4280075941       84.3940077071  TIP3      4964            0.0000000000
     66408      6325  TIP3      OH2            18.7784637478      -36.4085462340       82.5934905625  TIP3      4965            0.0000000000
     66409      6325  TIP3      H1             19.0891946507      -37.1486295438       82.0258601274  TIP3      4965            0.0000000000
     66410      6325  TIP3      H2             18.7325164820      -36.8970843963       83.4560256028  TIP3      4965            0.0000000000
     66411      6326  TIP3      OH2            24.1202362816      -40.4061871815       81.4111208089  TIP3      4966            0.0000000000
     66412      6326  TIP3      H1             24.4657111761      -41.2896336304       81.4177851260  TIP3      4966            0.0000000000
     66413      6326  TIP3      H2             23.6369190571      -40.3784228251       80.5901090100  TIP3      4966            0.0000000000
     66414      6327  TIP3      OH2            24.1494352398      -38.0883296036       82.7729429780  TIP3      4967            0.0000000000
     66415      6327  TIP3      H1             24.0359525595      -39.0435781964       82.6300189940  TIP3      4967            0.0000000000
     66416      6327  TIP3      H2             23.5012562303      -37.8712859862       83.4665426913  TIP3      4967            0.0000000000
     66417      6328  TIP3      OH2            23.5074716619      -21.9047045645       66.7674291801  TIP3      4968            0.0000000000
     66418      6328  TIP3      H1             24.4771017339      -21.8264821573       66.9154952651  TIP3      4968            0.0000000000
     66419      6328  TIP3      H2             23.3473220985      -21.2140742518       66.1337244157  TIP3      4968            0.0000000000
     66420      6329  TIP3      OH2            17.1664715623      -27.2859197261       66.2447592386  TIP3      4969            0.0000000000
     66421      6329  TIP3      H1             18.0853917258      -27.2553191607       66.5172280916  TIP3      4969            0.0000000000
     66422      6329  TIP3      H2             17.1125416570      -27.9589962347       65.5607339801  TIP3      4969            0.0000000000
     66423      6330  TIP3      OH2            15.8291474807      -21.9274502161       71.2689803365  TIP3      4970            0.0000000000
     66424      6330  TIP3      H1             15.1186031402      -22.4139980844       70.8006576054  TIP3      4970            0.0000000000
     66425      6330  TIP3      H2             16.1249153863      -22.5804700476       71.9258323852  TIP3      4970            0.0000000000
     66426      6331  TIP3      OH2            16.6476121008      -23.8113974773       73.1332279800  TIP3      4971            0.0000000000
     66427      6331  TIP3      H1             16.3233757665      -24.6967703112       73.3471741740  TIP3      4971            0.0000000000
     66428      6331  TIP3      H2             16.9092801153      -23.4694358155       74.0092485904  TIP3      4971            0.0000000000
     66429      6332  TIP3      OH2            34.1685542142      -23.0184697640       76.0761096269  TIP3      4972            0.0000000000
     66430      6332  TIP3      H1             34.2208446534      -22.8446456343       77.0326973522  TIP3      4972            0.0000000000
     66431      6332  TIP3      H2             34.8769253481      -22.4400900547       75.7583633778  TIP3      4972            0.0000000000
     66432      6333  TIP3      OH2            33.7616440100      -23.4310096861       79.0053803723  TIP3      4973            0.0000000000
     66433      6333  TIP3      H1             33.2899268138      -24.2108293511       78.6378840470  TIP3      4973            0.0000000000
     66434      6333  TIP3      H2             34.2669413657      -23.8546013142       79.7222832706  TIP3      4973            0.0000000000
     66435      6334  TIP3      OH2            33.5460802213      -29.3807794391       69.1020271003  TIP3      4974            0.0000000000
     66436      6334  TIP3      H1             34.3993920816      -28.9701415927       69.3385111778  TIP3      4974            0.0000000000
     66437      6334  TIP3      H2             33.5125665307      -30.0715495863       69.8070741260  TIP3      4974            0.0000000000
     66438      6335  TIP3      OH2            33.9082312981      -31.3200688575       70.9369765421  TIP3      4975            0.0000000000
     66439      6335  TIP3      H1             33.1626328242      -31.7968530204       71.3487764041  TIP3      4975            0.0000000000
     66440      6335  TIP3      H2             34.4227774190      -31.1032805975       71.7495280455  TIP3      4975            0.0000000000
     66441      6336  TIP3      OH2            33.6660055155      -28.5907971597       75.9093106570  TIP3      4976            0.0000000000
     66442      6336  TIP3      H1             34.4946372066      -28.9534541556       75.5881969049  TIP3      4976            0.0000000000
     66443      6336  TIP3      H2             33.7799112645      -27.6290699264       75.8133003640  TIP3      4976            0.0000000000
     66444      6337  TIP3      OH2            32.2279460261      -25.6862845279       78.2882037635  TIP3      4977            0.0000000000
     66445      6337  TIP3      H1             31.5108038598      -25.3690766012       78.8619217838  TIP3      4977            0.0000000000
     66446      6337  TIP3      H2             31.6868658788      -26.0968648106       77.5780696006  TIP3      4977            0.0000000000
     66447      6338  TIP3      OH2            33.8235189834      -31.5121588749       67.5339399832  TIP3      4978            0.0000000000
     66448      6338  TIP3      H1             33.6163940241      -31.1126132239       66.6862779844  TIP3      4978            0.0000000000
     66449      6338  TIP3      H2             34.0950628263      -30.7386291865       68.0782450228  TIP3      4978            0.0000000000
     66450      6339  TIP3      OH2            31.7630226553      -32.8503690839       71.5559782254  TIP3      4979            0.0000000000
     66451      6339  TIP3      H1             31.5517275513      -33.7959442483       71.5201405057  TIP3      4979            0.0000000000
     66452      6339  TIP3      H2             31.3694827892      -32.5784253078       72.3877852043  TIP3      4979            0.0000000000
     66453      6340  TIP3      OH2            16.7514011606      -30.6878313966       75.5949942026  TIP3      4980            0.0000000000
     66454      6340  TIP3      H1             16.8958309698      -30.8569368435       74.6441485677  TIP3      4980            0.0000000000
     66455      6340  TIP3      H2             17.5951629348      -30.9092457046       75.9851771172  TIP3      4980            0.0000000000
     66456      6341  TIP3      OH2            32.5607758088      -30.8442373175       81.2842314920  TIP3      4981            0.0000000000
     66457      6341  TIP3      H1             33.1719375736      -31.6054804440       81.4144904224  TIP3      4981            0.0000000000
     66458      6341  TIP3      H2             33.1544753626      -30.0803340771       81.2576744753  TIP3      4981            0.0000000000
     66459      6342  TIP3      OH2            34.0161536123      -32.9326139263       81.8938363730  TIP3      4982            0.0000000000
     66460      6342  TIP3      H1             33.1771249607      -33.3887252220       81.7625294467  TIP3      4982            0.0000000000
     66461      6342  TIP3      H2             34.6509004706      -33.6804411887       81.8401698165  TIP3      4982            0.0000000000
     66462      6343  TIP3      OH2            31.7827570976      -36.8741540559       64.9880114889  TIP3      4983            0.0000000000
     66463      6343  TIP3      H1             32.3528384672      -37.1570015692       65.7023063837  TIP3      4983            0.0000000000
     66464      6343  TIP3      H2             30.9046393964      -37.2076691835       65.2295279472  TIP3      4983            0.0000000000
     66465      6344  TIP3      OH2            31.3779195065      -35.2637634810       70.0497051949  TIP3      4984            0.0000000000
     66466      6344  TIP3      H1             31.7045525879      -36.1837050209       70.1698721280  TIP3      4984            0.0000000000
     66467      6344  TIP3      H2             32.1579139796      -34.8426108058       69.6567136071  TIP3      4984            0.0000000000
     66468      6345  TIP3      OH2            31.9743811538      -34.6667954556       75.4699578054  TIP3      4985            0.0000000000
     66469      6345  TIP3      H1             32.9422623432      -34.4470654928       75.4610123440  TIP3      4985            0.0000000000
     66470      6345  TIP3      H2             31.7921213689      -34.5436858407       76.4067236707  TIP3      4985            0.0000000000
     66471      6346  TIP3      OH2            32.0374852870      -33.9387678581       78.2912714279  TIP3      4986            0.0000000000
     66472      6346  TIP3      H1             31.1792130053      -33.6350197182       78.5792424130  TIP3      4986            0.0000000000
     66473      6346  TIP3      H2             32.5237827851      -33.1129767274       78.0370366308  TIP3      4986            0.0000000000
     66474      6347  TIP3      OH2            16.3544907776      -35.4418305013       81.7226676504  TIP3      4987            0.0000000000
     66475      6347  TIP3      H1             17.2708316169      -35.6654455456       81.9800561975  TIP3      4987            0.0000000000
     66476      6347  TIP3      H2             15.8788424203      -36.2405910245       82.0492917125  TIP3      4987            0.0000000000
     66477      6348  TIP3      OH2            34.4272610422      -39.7925361448       83.7508168260  TIP3      4988            0.0000000000
     66478      6348  TIP3      H1             34.6060275860      -40.5138575365       83.1133043716  TIP3      4988            0.0000000000
     66479      6348  TIP3      H2             34.4006513791      -39.0551080270       83.1179123317  TIP3      4988            0.0000000000
     66480      6349  TIP3      OH2            31.9868536104      -37.9482243222       70.0599558419  TIP3      4989            0.0000000000
     66481      6349  TIP3      H1             32.2289857075      -38.3764478252       70.9196495770  TIP3      4989            0.0000000000
     66482      6349  TIP3      H2             31.4055398635      -38.6205112060       69.6527201393  TIP3      4989            0.0000000000
     66483      6350  TIP3      OH2            17.3683335904      -36.6110440413       75.3330085576  TIP3      4990            0.0000000000
     66484      6350  TIP3      H1             17.5988043041      -37.5070640000       75.0383817952  TIP3      4990            0.0000000000
     66485      6350  TIP3      H2             18.2171211063      -36.1901678328       75.0989794871  TIP3      4990            0.0000000000
     66486      6351  TIP3      OH2            33.8752454590      -37.8003412191       81.9494596431  TIP3      4991            0.0000000000
     66487      6351  TIP3      H1             32.9262616821      -37.5741747170       81.9341022056  TIP3      4991            0.0000000000
     66488      6351  TIP3      H2             33.9010435992      -38.4012602162       81.1879338081  TIP3      4991            0.0000000000
     66489      6352  TIP3      OH2            16.1577631186      -37.9441797570       69.6839833376  TIP3      4992            0.0000000000
     66490      6352  TIP3      H1             15.2069079146      -37.7078756759       69.5888084124  TIP3      4992            0.0000000000
     66491      6352  TIP3      H2             16.5756468860      -37.3949721852       69.0229575285  TIP3      4992            0.0000000000
     66492      6353  TIP3      OH2            30.9260083385      -22.9207559029       71.6825838017  TIP3      4993            0.0000000000
     66493      6353  TIP3      H1             31.6047224152      -23.2486095392       71.0681502827  TIP3      4993            0.0000000000
     66494      6353  TIP3      H2             31.4510363858      -22.4463433784       72.3460967866  TIP3      4993            0.0000000000
     66495      6354  TIP3      OH2            14.8951967406      -38.9351514754       77.7532221362  TIP3      4994            0.0000000000
     66496      6354  TIP3      H1             15.2982336997      -39.3631580533       78.5720580607  TIP3      4994            0.0000000000
     66497      6354  TIP3      H2             15.7027293663      -38.4729474731       77.4959128405  TIP3      4994            0.0000000000
     66498      6355  TIP3      OH2            18.5730595109      -26.6817610923       82.0947715020  TIP3      4995            0.0000000000
     66499      6355  TIP3      H1             17.8754404216      -26.1044116892       81.7300911458  TIP3      4995            0.0000000000
     66500      6355  TIP3      H2             18.3142056258      -26.2903026444       82.9657130594  TIP3      4995            0.0000000000
     66501      6356  TIP3      OH2            27.9006563201      -22.2787863177       80.6467217730  TIP3      4996            0.0000000000
     66502      6356  TIP3      H1             28.5891478483      -22.9361665099       80.4726447608  TIP3      4996            0.0000000000
     66503      6356  TIP3      H2             28.2060997549      -21.9393890936       81.5084083065  TIP3      4996            0.0000000000
     66504      6357  TIP3      OH2            32.7916684345      -39.6215488563       79.8683209787  TIP3      4997            0.0000000000
     66505      6357  TIP3      H1             31.9793626319      -39.3648393206       79.4185850371  TIP3      4997            0.0000000000
     66506      6357  TIP3      H2             33.1003992018      -40.4054547564       79.4275159973  TIP3      4997            0.0000000000
     66507      6358  TIP3      OH2            18.6621685872      -21.8488808996       78.4811153589  TIP3      4998            0.0000000000
     66508      6358  TIP3      H1             17.9842343711      -21.2917910319       78.0877233526  TIP3      4998            0.0000000000
     66509      6358  TIP3      H2             18.3684399017      -21.9537079778       79.4015094045  TIP3      4998            0.0000000000
     66510      6359  TIP3      OH2            21.1782573557      -22.1997014276       77.5440744174  TIP3      4999            0.0000000000
     66511      6359  TIP3      H1             20.2891009746      -22.0872827531       77.9510176145  TIP3      4999            0.0000000000
     66512      6359  TIP3      H2             21.1080033765      -21.6080068436       76.7824955098  TIP3      4999            0.0000000000
     66513      6360  TIP3      OH2            25.9133038073      -22.2647355114       76.6996953363  TIP3      5000            0.0000000000
     66514      6360  TIP3      H1             25.3953156139      -21.7460160617       76.0724236136  TIP3      5000            0.0000000000
     66515      6360  TIP3      H2             25.9896903758      -21.6589648147       77.4698086897  TIP3      5000            0.0000000000
     66516      6361  TIP3      OH2            28.1935935277      -23.4583125962       77.7084240941  TIP3      5001            0.0000000000
     66517      6361  TIP3      H1             27.2947430685      -23.2235388419       77.4023893826  TIP3      5001            0.0000000000
     66518      6361  TIP3      H2             28.6350414171      -22.5995603002       77.6447699345  TIP3      5001            0.0000000000
     66519      6362  TIP3      OH2            30.7977630209      -21.8538105874       77.9745955839  TIP3      5002            0.0000000000
     66520      6362  TIP3      H1             30.6070946277      -20.9403095428       77.7322972631  TIP3      5002            0.0000000000
     66521      6362  TIP3      H2             30.9551545163      -22.2679064603       77.1014005448  TIP3      5002            0.0000000000
     66522      6363  TIP3      OH2            18.1055525343      -23.1541538636       75.4293386516  TIP3      5003            0.0000000000
     66523      6363  TIP3      H1             18.1084613245      -23.5904199028       76.3039898361  TIP3      5003            0.0000000000
     66524      6363  TIP3      H2             18.9285978236      -23.4563643839       75.0394579050  TIP3      5003            0.0000000000
     66525      6364  TIP3      OH2            26.5485193634      -38.3697395572       74.0053036899  TIP3      5004            0.0000000000
     66526      6364  TIP3      H1             25.7729954560      -38.9279501700       74.2275890967  TIP3      5004            0.0000000000
     66527      6364  TIP3      H2             26.9687232129      -38.9255899657       73.3610082003  TIP3      5004            0.0000000000
     66528      6365  TIP3      OH2            31.2521246717      -40.2072763056       73.7187811975  TIP3      5005            0.0000000000
     66529      6365  TIP3      H1             31.9733161995      -39.5691992724       73.5595622536  TIP3      5005            0.0000000000
     66530      6365  TIP3      H2             30.4282649540      -39.7303855267       73.8850988166  TIP3      5005            0.0000000000
     66531      6366  TIP3      OH2            33.1446108112      -38.9304305482       72.3952395573  TIP3      5006            0.0000000000
     66532      6366  TIP3      H1             33.7976722503      -39.5638267510       72.0374170028  TIP3      5006            0.0000000000
     66533      6366  TIP3      H2             33.6409131397      -38.0982465360       72.5312463491  TIP3      5006            0.0000000000
     66534      6367  TIP3      OH2            18.5853184297      -39.8934423453       71.0662755158  TIP3      5007            0.0000000000
     66535      6367  TIP3      H1             17.6723353480      -39.9742789598       71.3308372248  TIP3      5007            0.0000000000
     66536      6367  TIP3      H2             19.0392633623      -40.4142327655       71.7938660488  TIP3      5007            0.0000000000
     66537      6368  TIP3      OH2            16.7608359100      -39.9524104291       67.8391224184  TIP3      5008            0.0000000000
     66538      6368  TIP3      H1             17.5105446267      -39.5273934736       67.4053722769  TIP3      5008            0.0000000000
     66539      6368  TIP3      H2             16.5371323769      -39.2463857094       68.4578270837  TIP3      5008            0.0000000000
     66540      6369  TIP3      OH2            23.6998414852      -38.7156900113       72.1600536014  TIP3      5009            0.0000000000
     66541      6369  TIP3      H1             24.2812709170      -39.2844865825       71.6105375054  TIP3      5009            0.0000000000
     66542      6369  TIP3      H2             23.4374283683      -39.4316448822       72.7428908089  TIP3      5009            0.0000000000
     66543      6370  TIP3      OH2            28.7000448586      -39.7265758453       73.3299297020  TIP3      5010            0.0000000000
     66544      6370  TIP3      H1             28.8608300538      -39.6457697039       72.3874113141  TIP3      5010            0.0000000000
     66545      6370  TIP3      H2             28.5222290788      -40.6614960204       73.4652511990  TIP3      5010            0.0000000000
     66546      6371  TIP3      OH2            30.0347931290      -39.6227870953       68.8071284309  TIP3      5011            0.0000000000
     66547      6371  TIP3      H1             29.2883807556      -39.0133149883       68.8902267072  TIP3      5011            0.0000000000
     66548      6371  TIP3      H2             29.7183476466      -40.4314978867       69.2469749940  TIP3      5011            0.0000000000
     66549      6372  TIP3      OH2            17.3685434362      -23.9193311609       68.6468343765  TIP3      5012            0.0000000000
     66550      6372  TIP3      H1             16.6635454037      -23.9383560506       67.9751021117  TIP3      5012            0.0000000000
     66551      6372  TIP3      H2             17.3553235246      -22.9814090215       68.8646836401  TIP3      5012            0.0000000000
     66552      6373  TIP3      OH2            19.2413125804      -37.4035529436       65.7025372569  TIP3      5013            0.0000000000
     66553      6373  TIP3      H1             19.5742642203      -38.2868108886       65.5321746353  TIP3      5013            0.0000000000
     66554      6373  TIP3      H2             19.7080622017      -37.3091622217       66.5747000341  TIP3      5013            0.0000000000
     66555      6374  TIP3      OH2            25.0475070599      -37.6164611907       68.8387065415  TIP3      5014            0.0000000000
     66556      6374  TIP3      H1             24.6087108209      -38.3046203297       69.3666814033  TIP3      5014            0.0000000000
     66557      6374  TIP3      H2             24.4696945488      -36.8849012393       69.1843687200  TIP3      5014            0.0000000000
     66558      6375  TIP3      OH2            26.1734126048      -22.6099439914       66.9565684623  TIP3      5015            0.0000000000
     66559      6375  TIP3      H1             27.1224615613      -22.4132200310       66.8393477304  TIP3      5015            0.0000000000
     66560      6375  TIP3      H2             25.9874559430      -23.2024632837       66.2166142349  TIP3      5015            0.0000000000
     66561      6376  TIP3      OH2            32.9175306753      -23.1431647111       69.7205730589  TIP3      5016            0.0000000000
     66562      6376  TIP3      H1             32.7106578861      -23.9361150921       69.1620283455  TIP3      5016            0.0000000000
     66563      6376  TIP3      H2             32.8659313571      -22.4099169269       69.0788698320  TIP3      5016            0.0000000000
     66564      6377  TIP3      OH2            18.0250011332      -39.5217459557       81.4613551683  TIP3      5017            0.0000000000
     66565      6377  TIP3      H1             18.0384539090      -40.2004296660       82.0764139301  TIP3      5017            0.0000000000
     66566      6377  TIP3      H2             18.9604564667      -39.2484916526       81.5199215587  TIP3      5017            0.0000000000
     66567      6378  TIP3      OH2            20.0043371060      -39.8430906530       83.2941992984  TIP3      5018            0.0000000000
     66568      6378  TIP3      H1             20.9158485267      -39.9334675451       82.9104822803  TIP3      5018            0.0000000000
     66569      6378  TIP3      H2             19.9878603055      -40.7762719484       83.5465613232  TIP3      5018            0.0000000000
     66570      6379  TIP3      OH2            19.1088664764      -23.0447589507       65.6428682749  TIP3      5019            0.0000000000
     66571      6379  TIP3      H1             18.9083532192      -22.7094731518       66.5221677697  TIP3      5019            0.0000000000
     66572      6379  TIP3      H2             19.9327828956      -23.5128755363       65.7768251918  TIP3      5019            0.0000000000
     66573      6380  TIP3      OH2            28.9677763133      -40.3989096063       83.2254746278  TIP3      5020            0.0000000000
     66574      6380  TIP3      H1             29.1055707539      -40.9704583854       83.9839119113  TIP3      5020            0.0000000000
     66575      6380  TIP3      H2             29.8462076036      -40.4808105212       82.8127599609  TIP3      5020            0.0000000000
     66576      6381  TIP3      OH2            32.1593756797      -24.4233067633       81.8249319395  TIP3      5021            0.0000000000
     66577      6381  TIP3      H1             31.3502444688      -24.5443429524       81.2807840678  TIP3      5021            0.0000000000
     66578      6381  TIP3      H2             32.0507436759      -23.4717926555       82.0235742484  TIP3      5021            0.0000000000
     66579      6382  TIP3      OH2            37.8226397566      -31.6619721821       76.8324342433  TIP3      5022            0.0000000000
     66580      6382  TIP3      H1             37.8770607784      -32.3122206256       77.5646637222  TIP3      5022            0.0000000000
     66581      6382  TIP3      H2             38.5210425297      -31.0427045936       77.0958535052  TIP3      5022            0.0000000000
     66582      6383  TIP3      OH2            38.7713670867      -27.0767418774       75.3056494676  TIP3      5023            0.0000000000
     66583      6383  TIP3      H1             38.4169599031      -27.9542739740       75.1054872441  TIP3      5023            0.0000000000
     66584      6383  TIP3      H2             39.6923934333      -27.2965130288       75.4948394551  TIP3      5023            0.0000000000
     66585      6384  TIP3      OH2            35.3074247279      -33.5683848964       70.8265150334  TIP3      5024            0.0000000000
     66586      6384  TIP3      H1             34.8701409140      -32.7033515939       70.7193398307  TIP3      5024            0.0000000000
     66587      6384  TIP3      H2             34.8039798307      -34.1423591743       70.2338832110  TIP3      5024            0.0000000000
     66588      6385  TIP3      OH2            35.3063049927      -30.7573680107       73.0226304564  TIP3      5025            0.0000000000
     66589      6385  TIP3      H1             35.6437978295      -31.5684769499       73.5080346161  TIP3      5025            0.0000000000
     66590      6385  TIP3      H2             36.1785273096      -30.7134777221       72.5382716314  TIP3      5025            0.0000000000
     66591      6386  TIP3      OH2            36.5944509344      -34.3175261429       74.4871621560  TIP3      5026            0.0000000000
     66592      6386  TIP3      H1             37.5186878493      -34.5203723667       74.6231574193  TIP3      5026            0.0000000000
     66593      6386  TIP3      H2             36.6482380660      -34.1172029401       73.5128751741  TIP3      5026            0.0000000000
     66594      6387  TIP3      OH2            40.1431408973      -27.4258879098       77.9984458084  TIP3      5027            0.0000000000
     66595      6387  TIP3      H1             39.9150045176      -26.4924618883       78.0468553395  TIP3      5027            0.0000000000
     66596      6387  TIP3      H2             39.4923468979      -27.7762769539       78.6458342825  TIP3      5027            0.0000000000
     66597      6388  TIP3      OH2            35.9803535258      -28.1471146998       69.2494975552  TIP3      5028            0.0000000000
     66598      6388  TIP3      H1             35.8079882392      -27.8573194886       68.3271743106  TIP3      5028            0.0000000000
     66599      6388  TIP3      H2             36.1388024185      -27.2901860668       69.6792857381  TIP3      5028            0.0000000000
     66600      6389  TIP3      OH2            40.6335517202      -29.2792941527       71.3913829214  TIP3      5029            0.0000000000
     66601      6389  TIP3      H1             40.0800591653      -30.0760954485       71.1744036205  TIP3      5029            0.0000000000
     66602      6389  TIP3      H2             41.1563390428      -29.9085554340       71.9676516924  TIP3      5029            0.0000000000
     66603      6390  TIP3      OH2            38.3789839150      -31.8283126122       79.6625201494  TIP3      5030            0.0000000000
     66604      6390  TIP3      H1             38.6914022138      -31.1146437768       80.2279719195  TIP3      5030            0.0000000000
     66605      6390  TIP3      H2             37.6356367127      -31.3060671428       79.3048039890  TIP3      5030            0.0000000000
     66606      6391  TIP3      OH2            39.8163186417      -25.1154434028       81.3010716906  TIP3      5031            0.0000000000
     66607      6391  TIP3      H1             39.8549198932      -25.3149220524       80.3435189970  TIP3      5031            0.0000000000
     66608      6391  TIP3      H2             38.8977196827      -25.3327632865       81.5122540720  TIP3      5031            0.0000000000
     66609      6392  TIP3      OH2            38.3311467542      -31.1745333049       69.6686628899  TIP3      5032            0.0000000000
     66610      6392  TIP3      H1             38.9280460608      -30.6285165592       69.1071745021  TIP3      5032            0.0000000000
     66611      6392  TIP3      H2             38.5887128153      -32.0601612385       69.3965195732  TIP3      5032            0.0000000000
     66612      6393  TIP3      OH2            34.3162438129      -29.0012496252       78.4451722068  TIP3      5033            0.0000000000
     66613      6393  TIP3      H1             34.6757114658      -28.9809371090       77.5428590129  TIP3      5033            0.0000000000
     66614      6393  TIP3      H2             35.0134894344      -29.6231765815       78.7806579274  TIP3      5033            0.0000000000
     66615      6394  TIP3      OH2            35.1684230959      -26.2420035660       75.4536714233  TIP3      5034            0.0000000000
     66616      6394  TIP3      H1             36.1246068855      -26.3232311682       75.4180500637  TIP3      5034            0.0000000000
     66617      6394  TIP3      H2             35.0684374385      -25.4072141475       75.9365218498  TIP3      5034            0.0000000000
     66618      6395  TIP3      OH2            38.3756717606      -23.3354728873       71.6619047142  TIP3      5035            0.0000000000
     66619      6395  TIP3      H1             38.5841599918      -23.8104058707       72.4957769872  TIP3      5035            0.0000000000
     66620      6395  TIP3      H2             37.5707595501      -23.7984613464       71.3765559543  TIP3      5035            0.0000000000
     66621      6396  TIP3      OH2            38.1234014931      -26.7078238418       79.4692425554  TIP3      5036            0.0000000000
     66622      6396  TIP3      H1             38.1812011639      -27.3519750700       80.2107607815  TIP3      5036            0.0000000000
     66623      6396  TIP3      H2             37.5767563776      -27.3415628042       78.9778909642  TIP3      5036            0.0000000000
     66624      6397  TIP3      OH2            40.2583211440      -34.3612214719       76.7718884305  TIP3      5037            0.0000000000
     66625      6397  TIP3      H1             39.5815920085      -34.2831930187       77.4573796227  TIP3      5037            0.0000000000
     66626      6397  TIP3      H2             40.3249740760      -33.4443806530       76.4890209907  TIP3      5037            0.0000000000
     66627      6398  TIP3      OH2            40.9424224016      -34.2992458230       71.1633433584  TIP3      5038            0.0000000000
     66628      6398  TIP3      H1             40.0243241214      -34.2125025380       71.5315953612  TIP3      5038            0.0000000000
     66629      6398  TIP3      H2             40.8177471322      -34.4980077324       70.2807780822  TIP3      5038            0.0000000000
     66630      6399  TIP3      OH2            38.0285269614      -33.9844838554       78.4539351256  TIP3      5039            0.0000000000
     66631      6399  TIP3      H1             38.1274053000      -33.5240166629       79.3252872014  TIP3      5039            0.0000000000
     66632      6399  TIP3      H2             37.6272676356      -34.8270151154       78.7190544774  TIP3      5039            0.0000000000
     66633      6400  TIP3      OH2            34.7067250383      -36.7762246335       72.4286862814  TIP3      5040            0.0000000000
     66634      6400  TIP3      H1             35.3670251349      -36.8846814996       73.1410929156  TIP3      5040            0.0000000000
     66635      6400  TIP3      H2             35.1860962022      -37.1919733405       71.6840897658  TIP3      5040            0.0000000000
     66636      6401  TIP3      OH2            35.9586170541      -36.1407360660       67.9041251841  TIP3      5041            0.0000000000
     66637      6401  TIP3      H1             36.4536532195      -35.5722375221       67.2724269320  TIP3      5041            0.0000000000
     66638      6401  TIP3      H2             35.3046656513      -35.4972446020       68.2100057652  TIP3      5041            0.0000000000
     66639      6402  TIP3      OH2            37.1331691213      -35.8164655680       70.5300640332  TIP3      5042            0.0000000000
     66640      6402  TIP3      H1             36.7977056382      -35.0148394588       70.9677606767  TIP3      5042            0.0000000000
     66641      6402  TIP3      H2             37.9432268791      -35.9860482841       71.0611239343  TIP3      5042            0.0000000000
     66642      6403  TIP3      OH2            40.3983046497      -34.3020247933       66.5934976728  TIP3      5043            0.0000000000
     66643      6403  TIP3      H1             39.5568186864      -34.1448027375       66.1310900962  TIP3      5043            0.0000000000
     66644      6403  TIP3      H2             40.9392847079      -33.5540036599       66.3079109859  TIP3      5043            0.0000000000
     66645      6404  TIP3      OH2            37.7199500638      -30.4364684443       82.6510136553  TIP3      5044            0.0000000000
     66646      6404  TIP3      H1             38.5059754656      -29.8508967857       82.7109304136  TIP3      5044            0.0000000000
     66647      6404  TIP3      H2             37.2571035614      -29.6431675496       82.2833821698  TIP3      5044            0.0000000000
     66648      6405  TIP3      OH2            39.0633552914      -37.6553980626       70.9110393936  TIP3      5045            0.0000000000
     66649      6405  TIP3      H1             38.8085298345      -38.5821889317       71.0117157205  TIP3      5045            0.0000000000
     66650      6405  TIP3      H2             40.0034323370      -37.6690120318       70.7256063954  TIP3      5045            0.0000000000
     66651      6406  TIP3      OH2            38.8180630200      -29.7332292762       75.4652612611  TIP3      5046            0.0000000000
     66652      6406  TIP3      H1             39.1324750930      -29.5792129121       74.5367159646  TIP3      5046            0.0000000000
     66653      6406  TIP3      H2             38.6606407717      -30.6882882207       75.2682934389  TIP3      5046            0.0000000000
     66654      6407  TIP3      OH2            35.4606041823      -31.5035362208       79.8250332613  TIP3      5047            0.0000000000
     66655      6407  TIP3      H1             35.7100553940      -31.9637053765       80.6418625212  TIP3      5047            0.0000000000
     66656      6407  TIP3      H2             34.9034995045      -32.1253942104       79.3325576864  TIP3      5047            0.0000000000
     66657      6408  TIP3      OH2            36.1440002423      -31.5055033690       66.6179766926  TIP3      5048            0.0000000000
     66658      6408  TIP3      H1             36.9805803577      -31.0335714254       66.8555759544  TIP3      5048            0.0000000000
     66659      6408  TIP3      H2             35.4597222474      -30.9050680824       66.8502685594  TIP3      5048            0.0000000000
     66660      6409  TIP3      OH2            37.2090720295      -36.6725548381       79.3514861328  TIP3      5049            0.0000000000
     66661      6409  TIP3      H1             36.2943117176      -36.3776930480       79.2351756474  TIP3      5049            0.0000000000
     66662      6409  TIP3      H2             37.0995451269      -37.5689682109       79.7087522158  TIP3      5049            0.0000000000
     66663      6410  TIP3      OH2            36.8306060913      -24.8676896804       77.7120934496  TIP3      5050            0.0000000000
     66664      6410  TIP3      H1             37.1227594024      -25.7827901500       77.7290019987  TIP3      5050            0.0000000000
     66665      6410  TIP3      H2             37.0975858355      -24.5905795087       78.6014592290  TIP3      5050            0.0000000000
     66666      6411  TIP3      OH2            37.9710291635      -29.4616262501       67.7969225518  TIP3      5051            0.0000000000
     66667      6411  TIP3      H1             37.4249518390      -29.1935752321       68.5617821487  TIP3      5051            0.0000000000
     66668      6411  TIP3      H2             38.6294595553      -28.7521248891       67.7419450009  TIP3      5051            0.0000000000
     66669      6412  TIP3      OH2           -41.1913231602      -37.4850819204       67.5359958171  TIP3      5052            0.0000000000
     66670      6412  TIP3      H1            -41.2377197843      -36.6149626555       67.9475134585  TIP3      5052            0.0000000000
     66671      6412  TIP3      H2            -40.2693281138      -37.6791218841       67.7665306540  TIP3      5052            0.0000000000
     66672      6413  TIP3      OH2            38.6636651325      -27.0594559415       67.0095473221  TIP3      5053            0.0000000000
     66673      6413  TIP3      H1             39.3139606229      -26.3783003437       67.2268178528  TIP3      5053            0.0000000000
     66674      6413  TIP3      H2             39.1043273072      -27.4595940132       66.2534962591  TIP3      5053            0.0000000000
     66675      6414  TIP3      OH2            36.8439392566      -34.5204014862       66.1638868337  TIP3      5054            0.0000000000
     66676      6414  TIP3      H1             36.9142265253      -33.5802865803       65.9905887509  TIP3      5054            0.0000000000
     66677      6414  TIP3      H2             36.0525191837      -34.6735613988       65.6330233878  TIP3      5054            0.0000000000
     66678      6415  TIP3      OH2            36.7790644718      -25.5593818821       70.8543208862  TIP3      5055            0.0000000000
     66679      6415  TIP3      H1             35.9198358138      -25.1275415786       70.7685628604  TIP3      5055            0.0000000000
     66680      6415  TIP3      H2             37.2927519379      -25.1698359109       70.1359707433  TIP3      5055            0.0000000000
     66681      6416  TIP3      OH2            36.0584003531      -22.9691338810       82.0814345410  TIP3      5056            0.0000000000
     66682      6416  TIP3      H1             36.6004881152      -23.1829300180       82.8620620684  TIP3      5056            0.0000000000
     66683      6416  TIP3      H2             35.5614931097      -23.7902309686       81.9385228349  TIP3      5056            0.0000000000
     66684      6417  TIP3      OH2            35.6544227294      -29.1307358486       83.1313908796  TIP3      5057            0.0000000000
     66685      6417  TIP3      H1             35.9757203836      -30.0364948090       82.8893739014  TIP3      5057            0.0000000000
     66686      6417  TIP3      H2             35.0058639087      -28.9383035486       82.4374414985  TIP3      5057            0.0000000000
     66687      6418  TIP3      OH2            36.4335104135      -32.4977159526       82.5586354854  TIP3      5058            0.0000000000
     66688      6418  TIP3      H1             37.2628032674      -32.9256997211       82.4121014059  TIP3      5058            0.0000000000
     66689      6418  TIP3      H2             36.5772102184      -32.0054929471       83.4059757696  TIP3      5058            0.0000000000
     66690      6419  TIP3      OH2            39.2819205924      -35.2120939885       81.6374247171  TIP3      5059            0.0000000000
     66691      6419  TIP3      H1             38.7192417733      -35.0631428306       82.4258922999  TIP3      5059            0.0000000000
     66692      6419  TIP3      H2             40.1201815650      -34.9646026004       82.0842020779  TIP3      5059            0.0000000000
     66693      6420  TIP3      OH2            37.4031494901      -36.6171748919       82.5714855131  TIP3      5060            0.0000000000
     66694      6420  TIP3      H1             37.9115598543      -37.1931286320       81.9571143159  TIP3      5060            0.0000000000
     66695      6420  TIP3      H2             37.5983412143      -37.0028486825       83.4200505867  TIP3      5060            0.0000000000
     66696      6421  TIP3      OH2            35.8128078890      -27.5022072945       66.7357282291  TIP3      5061            0.0000000000
     66697      6421  TIP3      H1             36.7567730481      -27.2401512589       66.6659798045  TIP3      5061            0.0000000000
     66698      6421  TIP3      H2             35.8333293148      -27.8391815720       65.8181522387  TIP3      5061            0.0000000000
     66699      6422  TIP3      OH2            34.6996624715      -21.9360707749       71.2570841980  TIP3      5062            0.0000000000
     66700      6422  TIP3      H1             33.9737006537      -22.4213922568       70.8067655673  TIP3      5062            0.0000000000
     66701      6422  TIP3      H2             34.9697208560      -22.5806206277       71.9375493678  TIP3      5062            0.0000000000
     66702      6423  TIP3      OH2            35.5006898952      -23.8013210398       73.1367077010  TIP3      5063            0.0000000000
     66703      6423  TIP3      H1             35.1926618901      -24.6992436980       73.3232465940  TIP3      5063            0.0000000000
     66704      6423  TIP3      H2             35.7563176228      -23.4859938119       74.0207295274  TIP3      5063            0.0000000000
     66705      6424  TIP3      OH2            35.6218280762      -30.7029668487       75.6873893018  TIP3      5064            0.0000000000
     66706      6424  TIP3      H1             35.6984898468      -30.7350793935       74.7135737069  TIP3      5064            0.0000000000
     66707      6424  TIP3      H2             36.4954795915      -30.9662316332       76.0283046021  TIP3      5064            0.0000000000
     66708      6425  TIP3      OH2            35.1587941221      -35.3860298996       81.7894811107  TIP3      5065            0.0000000000
     66709      6425  TIP3      H1             36.0960162363      -35.6410131644       81.9524310560  TIP3      5065            0.0000000000
     66710      6425  TIP3      H2             34.7212291242      -36.2254844450       82.0455785444  TIP3      5065            0.0000000000
     66711      6426  TIP3      OH2            36.3847955101      -37.1431493919       74.6316074529  TIP3      5066            0.0000000000
     66712      6426  TIP3      H1             36.8661273341      -37.9383187404       74.9179187145  TIP3      5066            0.0000000000
     66713      6426  TIP3      H2             36.9283432658      -36.4522485040       75.0185043225  TIP3      5066            0.0000000000
     66714      6427  TIP3      OH2            34.5144075491      -34.0976592384       75.7183589268  TIP3      5067            0.0000000000
     66715      6427  TIP3      H1             35.1450146414      -34.4177227427       75.0195053211  TIP3      5067            0.0000000000
     66716      6427  TIP3      H2             35.0692592675      -33.3544783435       75.9976707740  TIP3      5067            0.0000000000
     66717      6428  TIP3      OH2            35.0214988884      -37.9452480076       69.7639100997  TIP3      5068            0.0000000000
     66718      6428  TIP3      H1             34.1038787165      -37.6923109505       69.6195114132  TIP3      5068            0.0000000000
     66719      6428  TIP3      H2             35.5011438329      -37.4235443774       69.0774655881  TIP3      5068            0.0000000000
     66720      6429  TIP3      OH2            35.0849305183      -39.0576172925       78.0490305800  TIP3      5069            0.0000000000
     66721      6429  TIP3      H1             34.4382467041      -39.4014287750       78.6800939899  TIP3      5069            0.0000000000
     66722      6429  TIP3      H2             34.5566722401      -38.5238753814       77.4483353471  TIP3      5069            0.0000000000
     66723      6430  TIP3      OH2            37.1154071808      -25.9520979029       82.1828380711  TIP3      5070            0.0000000000
     66724      6430  TIP3      H1             36.2682077148      -25.7724665537       81.7699611287  TIP3      5070            0.0000000000
     66725      6430  TIP3      H2             36.9253766027      -26.0280085060       83.1318577984  TIP3      5070            0.0000000000
     66726      6431  TIP3      OH2            40.1208984541      -24.9092829097       78.5110660234  TIP3      5071            0.0000000000
     66727      6431  TIP3      H1             39.8016451882      -24.0690083245       78.1572923651  TIP3      5071            0.0000000000
     66728      6431  TIP3      H2             41.0525287945      -24.9208639710       78.2278402105  TIP3      5071            0.0000000000
     66729      6432  TIP3      OH2            37.5309683068      -21.8280418549       78.4727534103  TIP3      5072            0.0000000000
     66730      6432  TIP3      H1             36.8137206426      -21.2911182086       78.0897766255  TIP3      5072            0.0000000000
     66731      6432  TIP3      H2             37.2127646686      -21.9687808812       79.3762946978  TIP3      5072            0.0000000000
     66732      6433  TIP3      OH2            39.8483994529      -22.4348620616       77.3871215717  TIP3      5073            0.0000000000
     66733      6433  TIP3      H1             39.1209239426      -22.0832151399       77.9395040347  TIP3      5073            0.0000000000
     66734      6433  TIP3      H2             40.0116140474      -21.6702262609       76.7863880872  TIP3      5073            0.0000000000
     66735      6434  TIP3      OH2            36.9399149694      -23.1381863753       75.4182062047  TIP3      5074            0.0000000000
     66736      6434  TIP3      H1             36.9342797436      -23.5569586337       76.3047421202  TIP3      5074            0.0000000000
     66737      6434  TIP3      H2             37.7905573664      -23.4762320586       75.0531636243  TIP3      5074            0.0000000000
     66738      6435  TIP3      OH2            39.1129049908      -24.3932768071       74.1222555291  TIP3      5075            0.0000000000
     66739      6435  TIP3      H1             38.9172689830      -25.3292725462       74.2910483977  TIP3      5075            0.0000000000
     66740      6435  TIP3      H2             39.9560888327      -24.2981145568       74.5835183966  TIP3      5075            0.0000000000
     66741      6436  TIP3      OH2            37.3649238271      -39.2321883925       72.1947073216  TIP3      5076            0.0000000000
     66742      6436  TIP3      H1             36.7451111938      -39.5932493272       71.5421944969  TIP3      5076            0.0000000000
     66743      6436  TIP3      H2             37.8950085290      -40.0476988350       72.1740815923  TIP3      5076            0.0000000000
     66744      6437  TIP3      OH2            36.2196962742      -23.9267609496       68.6353661415  TIP3      5077            0.0000000000
     66745      6437  TIP3      H1             35.5006648575      -23.9614963716       67.9898824025  TIP3      5077            0.0000000000
     66746      6437  TIP3      H2             36.1915570557      -22.9928029878       68.8633843448  TIP3      5077            0.0000000000
     66747      6438  TIP3      OH2            37.4039810317      -39.1126585160       81.4908096044  TIP3      5078            0.0000000000
     66748      6438  TIP3      H1             37.0805728251      -39.9305027422       81.8563908830  TIP3      5078            0.0000000000
     66749      6438  TIP3      H2             38.3477042080      -39.1939064143       81.6430680088  TIP3      5078            0.0000000000
     66750      6439  TIP3      OH2            37.6493649680      -22.6154086396       65.8332445231  TIP3      5079            0.0000000000
     66751      6439  TIP3      H1             37.4940800146      -22.5069062737       66.7761160137  TIP3      5079            0.0000000000
     66752      6439  TIP3      H2             38.5493933031      -22.9873399866       65.9529729970  TIP3      5079            0.0000000000
     66753      6440  TIP3      OH2           -28.8379013660      -11.6628009970       71.8051037679  TIP3      5080            0.0000000000
     66754      6440  TIP3      H1            -28.8077473935      -10.6805342228       71.7395345838  TIP3      5080            0.0000000000
     66755      6440  TIP3      H2            -29.5416232811      -11.9159849595       71.1832581372  TIP3      5080            0.0000000000
     66756      6441  TIP3      OH2           -29.9381421255      -12.4106803128       75.2938432802  TIP3      5081            0.0000000000
     66757      6441  TIP3      H1            -29.9522828208      -13.0455832125       76.0331104313  TIP3      5081            0.0000000000
     66758      6441  TIP3      H2            -30.2163722021      -12.9088455787       74.5176965958  TIP3      5081            0.0000000000
     66759      6442  TIP3      OH2           -37.5073801190      -12.8140087203       76.8098832436  TIP3      5082            0.0000000000
     66760      6442  TIP3      H1            -37.5144897701      -13.3762148751       77.6029843271  TIP3      5082            0.0000000000
     66761      6442  TIP3      H2            -36.8823033166      -12.1315646230       77.1197036836  TIP3      5082            0.0000000000
     66762      6443  TIP3      OH2           -36.6881928945       -8.2937433429       75.3306329508  TIP3      5083            0.0000000000
     66763      6443  TIP3      H1            -37.0243689948       -9.1656940429       75.0529019675  TIP3      5083            0.0000000000
     66764      6443  TIP3      H2            -35.7413437652       -8.5062395349       75.4348778077  TIP3      5083            0.0000000000
     66765      6444  TIP3      OH2           -39.7056647579      -14.4105454386       70.2358714842  TIP3      5084            0.0000000000
     66766      6444  TIP3      H1            -40.2738957841      -13.8006603776       70.7511065014  TIP3      5084            0.0000000000
     66767      6444  TIP3      H2            -40.3807687989      -15.0561865269       70.0496512134  TIP3      5084            0.0000000000
     66768      6445  TIP3      OH2           -39.2987526249      -12.4980247128       72.9387194305  TIP3      5085            0.0000000000
     66769      6445  TIP3      H1            -39.1389678329      -13.3241234170       73.3868839618  TIP3      5085            0.0000000000
     66770      6445  TIP3      H2            -38.5940341908      -12.4132815552       72.2973672599  TIP3      5085            0.0000000000
     66771      6446  TIP3      OH2           -31.5729595724       -9.9786147310       75.7091139261  TIP3      5086            0.0000000000
     66772      6446  TIP3      H1            -31.2030443483      -10.6624162377       75.1516705114  TIP3      5086            0.0000000000
     66773      6446  TIP3      H2            -30.8431257793       -9.8464247669       76.3259871503  TIP3      5086            0.0000000000
     66774      6447  TIP3      OH2           -22.9162351326      -18.3785802988       76.5399980327  TIP3      5087            0.0000000000
     66775      6447  TIP3      H1            -22.8368322034      -17.7375425328       77.2756656325  TIP3      5087            0.0000000000
     66776      6447  TIP3      H2            -22.4604034371      -17.9247760338       75.8230637575  TIP3      5087            0.0000000000
     66777      6448  TIP3      OH2           -28.4284054416      -15.5600979888       76.0717698895  TIP3      5088            0.0000000000
     66778      6448  TIP3      H1            -28.2884612337      -16.5231527411       76.0826212513  TIP3      5088            0.0000000000
     66779      6448  TIP3      H2            -28.5291895547      -15.4100173787       75.1126418071  TIP3      5088            0.0000000000
     66780      6449  TIP3      OH2           -27.5392647894      -17.3389058053       71.6924674067  TIP3      5089            0.0000000000
     66781      6449  TIP3      H1            -26.8996011463      -17.7215883964       72.3113336767  TIP3      5089            0.0000000000
     66782      6449  TIP3      H2            -26.9914051615      -16.8077022472       71.0927171696  TIP3      5089            0.0000000000
     66783      6450  TIP3      OH2           -22.5379104688      -16.9451140423       78.7875838048  TIP3      5090            0.0000000000
     66784      6450  TIP3      H1            -23.1703775449      -16.2046103097       78.6680771486  TIP3      5090            0.0000000000
     66785      6450  TIP3      H2            -22.4583277463      -17.0277072586       79.7367232543  TIP3      5090            0.0000000000
     66786      6451  TIP3      OH2           -29.1114606212       -9.0607181879       70.9136087160  TIP3      5091            0.0000000000
     66787      6451  TIP3      H1            -29.3723324037       -9.3307536520       70.0250694265  TIP3      5091            0.0000000000
     66788      6451  TIP3      H2            -29.4271119045       -8.1328970717       70.9473506213  TIP3      5091            0.0000000000
     66789      6452  TIP3      OH2           -35.4576844889       -8.9062016745       78.4415119447  TIP3      5092            0.0000000000
     66790      6452  TIP3      H1            -35.4856618490       -8.0148768916       78.0634607004  TIP3      5092            0.0000000000
     66791      6452  TIP3      H2            -36.3544754232       -9.0169861912       78.8171298602  TIP3      5092            0.0000000000
     66792      6453  TIP3      OH2           -39.3778940584       -9.2740903802       69.1990593198  TIP3      5093            0.0000000000
     66793      6453  TIP3      H1            -39.5935288600       -9.0158446309       68.2979691410  TIP3      5093            0.0000000000
     66794      6453  TIP3      H2            -39.3020130851       -8.4417773137       69.6888287887  TIP3      5093            0.0000000000
     66795      6454  TIP3      OH2           -24.6153759313       -9.3171768082       79.5674815550  TIP3      5094            0.0000000000
     66796      6454  TIP3      H1            -24.5292331885      -10.0008319536       78.8520277817  TIP3      5094            0.0000000000
     66797      6454  TIP3      H2            -24.4548705816       -8.4768541972       79.1236368161  TIP3      5094            0.0000000000
     66798      6455  TIP3      OH2           -30.1732340958      -12.4164346748       69.3039538811  TIP3      5095            0.0000000000
     66799      6455  TIP3      H1            -30.8540231173      -11.8265040032       68.9406862913  TIP3      5095            0.0000000000
     66800      6455  TIP3      H2            -29.4472619971      -12.3388646593       68.6613937150  TIP3      5095            0.0000000000
     66801      6456  TIP3      OH2           -30.1188433441      -13.9208733464       66.3520034637  TIP3      5096            0.0000000000
     66802      6456  TIP3      H1            -29.4183547018      -13.9152576626       67.0361953703  TIP3      5096            0.0000000000
     66803      6456  TIP3      H2            -29.7448873202      -14.5818596956       65.7492676493  TIP3      5096            0.0000000000
     66804      6457  TIP3      OH2           -26.7380386311      -12.2619263866       70.2165696863  TIP3      5097            0.0000000000
     66805      6457  TIP3      H1            -27.4503174273      -11.9796088837       70.8420848783  TIP3      5097            0.0000000000
     66806      6457  TIP3      H2            -26.2387658016      -12.8821699310       70.7733102851  TIP3      5097            0.0000000000
     66807      6458  TIP3      OH2           -26.7421560654      -14.0416886682       79.3223868674  TIP3      5098            0.0000000000
     66808      6458  TIP3      H1            -26.7959647074      -13.2683624998       79.9005652692  TIP3      5098            0.0000000000
     66809      6458  TIP3      H2            -27.4190733178      -13.7817563926       78.6676699795  TIP3      5098            0.0000000000
     66810      6459  TIP3      OH2           -33.7733390619       -8.1630332229       74.8244204505  TIP3      5099            0.0000000000
     66811      6459  TIP3      H1            -33.8177074682       -8.7164354285       74.0374669063  TIP3      5099            0.0000000000
     66812      6459  TIP3      H2            -33.0154091234       -8.5274549007       75.3150280706  TIP3      5099            0.0000000000
     66813      6460  TIP3      OH2           -33.8413430837       -8.4175926843       80.5245074391  TIP3      5100            0.0000000000
     66814      6460  TIP3      H1            -34.2034747103       -7.6437714594       80.9809148872  TIP3      5100            0.0000000000
     66815      6460  TIP3      H2            -34.4972465359       -8.6019130334       79.8061554389  TIP3      5100            0.0000000000
     66816      6461  TIP3      OH2           -27.8580420199      -13.0411107956       67.8857847251  TIP3      5101            0.0000000000
     66817      6461  TIP3      H1            -27.3323861102      -12.8569919818       68.7144508111  TIP3      5101            0.0000000000
     66818      6461  TIP3      H2            -27.4062344734      -12.4977742650       67.2314330437  TIP3      5101            0.0000000000
     66819      6462  TIP3      OH2           -36.9559552593      -12.2597495375       79.7261780753  TIP3      5102            0.0000000000
     66820      6462  TIP3      H1            -36.8431839515      -11.5705370682       80.4064935869  TIP3      5102            0.0000000000
     66821      6462  TIP3      H2            -37.8416436327      -12.0975946519       79.4058469358  TIP3      5102            0.0000000000
     66822      6463  TIP3      OH2           -30.1465408949       -6.3546138497       71.4105087597  TIP3      5103            0.0000000000
     66823      6463  TIP3      H1            -29.6698104872       -5.9999332030       72.1714652044  TIP3      5103            0.0000000000
     66824      6463  TIP3      H2            -30.6699495850       -5.5887471295       71.1258285694  TIP3      5103            0.0000000000
     66825      6464  TIP3      OH2           -35.5970936944       -6.3622384445       81.2636248928  TIP3      5104            0.0000000000
     66826      6464  TIP3      H1            -35.6443372020       -6.4631941320       80.2971307646  TIP3      5104            0.0000000000
     66827      6464  TIP3      H2            -36.5350478092       -6.4695217977       81.5144715331  TIP3      5104            0.0000000000
     66828      6465  TIP3      OH2           -36.1267492416      -12.5045254519       69.7341185034  TIP3      5105            0.0000000000
     66829      6465  TIP3      H1            -36.4550156056      -11.7165318543       69.2867396225  TIP3      5105            0.0000000000
     66830      6465  TIP3      H2            -36.8178266734      -13.1630797103       69.5744447336  TIP3      5105            0.0000000000
     66831      6466  TIP3      OH2           -39.6245009127      -10.3320623628       78.4631171211  TIP3      5106            0.0000000000
     66832      6466  TIP3      H1            -40.3906196267      -10.1038877701       77.8897818930  TIP3      5106            0.0000000000
     66833      6466  TIP3      H2            -39.9853728446      -11.1227362802       78.8992760646  TIP3      5106            0.0000000000
     66834      6467  TIP3      OH2           -40.2388058895       -7.3544574196       75.3667756103  TIP3      5107            0.0000000000
     66835      6467  TIP3      H1            -39.2955911130       -7.5232193526       75.4362353392  TIP3      5107            0.0000000000
     66836      6467  TIP3      H2            -40.3964734618       -6.6029940982       75.9513836040  TIP3      5107            0.0000000000
     66837      6468  TIP3      OH2           -22.0546682418       -6.6891018672       81.1642517872  TIP3      5108            0.0000000000
     66838      6468  TIP3      H1            -22.1509339463       -7.6567758210       81.1084768590  TIP3      5108            0.0000000000
     66839      6468  TIP3      H2            -22.9157430591       -6.4572985264       81.5358404046  TIP3      5108            0.0000000000
     66840      6469  TIP3      OH2           -30.7731731952       -3.3630160400       69.8078005744  TIP3      5109            0.0000000000
     66841      6469  TIP3      H1            -30.7065869125       -3.4387168897       68.8528189586  TIP3      5109            0.0000000000
     66842      6469  TIP3      H2            -30.6064591079       -2.4202545824       69.9586545482  TIP3      5109            0.0000000000
     66843      6470  TIP3      OH2           -36.9958162780       -4.5346214038       71.5934751283  TIP3      5110            0.0000000000
     66844      6470  TIP3      H1            -36.8667860525       -4.9318313747       72.4798098312  TIP3      5110            0.0000000000
     66845      6470  TIP3      H2            -37.8634426862       -4.9031205825       71.3678868565  TIP3      5110            0.0000000000
     66846      6471  TIP3      OH2           -24.9109423178      -15.1905474404       81.6020045228  TIP3      5111            0.0000000000
     66847      6471  TIP3      H1            -25.3748395204      -14.7207800470       80.8893467199  TIP3      5111            0.0000000000
     66848      6471  TIP3      H2            -24.9483492357      -16.0999189905       81.2949097157  TIP3      5111            0.0000000000
     66849      6472  TIP3      OH2           -37.8491272802       -8.6852782299       79.6704040774  TIP3      5112            0.0000000000
     66850      6472  TIP3      H1            -37.5660572060       -9.1883747089       80.4599383215  TIP3      5112            0.0000000000
     66851      6472  TIP3      H2            -38.6224342885       -9.2233162541       79.3579375356  TIP3      5112            0.0000000000
     66852      6473  TIP3      OH2           -30.4992304569      -20.6061689147       78.9242209982  TIP3      5113            0.0000000000
     66853      6473  TIP3      H1            -30.0821970284      -21.0271731901       79.6837453932  TIP3      5113            0.0000000000
     66854      6473  TIP3      H2            -31.4260237772      -20.8101751495       79.0548823082  TIP3      5113            0.0000000000
     66855      6474  TIP3      OH2           -29.4435542242      -14.7273967633       70.4595412499  TIP3      5114            0.0000000000
     66856      6474  TIP3      H1            -29.9153558276      -13.9361305774       70.1389161072  TIP3      5114            0.0000000000
     66857      6474  TIP3      H2            -28.7937009676      -14.9051536839       69.7657494395  TIP3      5114            0.0000000000
     66858      6475  TIP3      OH2           -30.4366013494      -14.5712707419       81.9078588215  TIP3      5115            0.0000000000
     66859      6475  TIP3      H1            -31.0101133053      -15.2663109473       82.2352535744  TIP3      5115            0.0000000000
     66860      6475  TIP3      H2            -29.6028507008      -14.6768873754       82.3849955077  TIP3      5115            0.0000000000
     66861      6476  TIP3      OH2           -28.4955670674      -15.2475334665       73.2839120513  TIP3      5116            0.0000000000
     66862      6476  TIP3      H1            -28.7607954666      -14.7006527690       72.5241313173  TIP3      5116            0.0000000000
     66863      6476  TIP3      H2            -28.3772497621      -16.0986732843       72.8196053671  TIP3      5116            0.0000000000
     66864      6477  TIP3      OH2           -29.3212195123      -13.6563132805       77.8188474399  TIP3      5117            0.0000000000
     66865      6477  TIP3      H1            -28.8946680121      -14.3473961907       77.2765754066  TIP3      5117            0.0000000000
     66866      6477  TIP3      H2            -29.6604051602      -14.1780622465       78.5580344026  TIP3      5117            0.0000000000
     66867      6478  TIP3      OH2           -28.0801755293      -18.5037862145       75.8950684624  TIP3      5118            0.0000000000
     66868      6478  TIP3      H1            -28.7291569843      -18.3677735858       76.6143048361  TIP3      5118            0.0000000000
     66869      6478  TIP3      H2            -28.5889343808      -18.6461051677       75.0892794112  TIP3      5118            0.0000000000
     66870      6479  TIP3      OH2           -37.0636966528      -10.3759486764       81.7735562759  TIP3      5119            0.0000000000
     66871      6479  TIP3      H1            -36.4028720438      -10.0849659375       82.4086268294  TIP3      5119            0.0000000000
     66872      6479  TIP3      H2            -37.8894750205      -10.2020413848       82.2840153063  TIP3      5119            0.0000000000
     66873      6480  TIP3      OH2           -31.9804259823      -10.3727872595       68.6638670858  TIP3      5120            0.0000000000
     66874      6480  TIP3      H1            -32.7906313836      -10.8302626831       68.3479822212  TIP3      5120            0.0000000000
     66875      6480  TIP3      H2            -32.1606614127      -10.2966343393       69.6148446180  TIP3      5120            0.0000000000
     66876      6481  TIP3      OH2           -24.8402422891      -11.0853016394       77.5211146130  TIP3      5121            0.0000000000
     66877      6481  TIP3      H1            -24.2061762658      -10.8105496778       76.8600547327  TIP3      5121            0.0000000000
     66878      6481  TIP3      H2            -25.6699471538      -11.1356398423       77.0004993942  TIP3      5121            0.0000000000
     66879      6482  TIP3      OH2           -28.0706795768      -17.5718842453       66.8314663256  TIP3      5122            0.0000000000
     66880      6482  TIP3      H1            -29.0093408462      -17.4232091635       66.7254405530  TIP3      5122            0.0000000000
     66881      6482  TIP3      H2            -27.7719086744      -16.7120721884       67.1808060678  TIP3      5122            0.0000000000
     66882      6483  TIP3      OH2           -30.4690047244      -10.1606567595       79.9299272712  TIP3      5123            0.0000000000
     66883      6483  TIP3      H1            -30.8286956435      -10.5348269554       80.7321875276  TIP3      5123            0.0000000000
     66884      6483  TIP3      H2            -30.7060737384       -9.2341954049       80.0021810553  TIP3      5123            0.0000000000
     66885      6484  TIP3      OH2           -27.3627915395      -15.6821631356       68.5268581610  TIP3      5124            0.0000000000
     66886      6484  TIP3      H1            -26.4652702033      -15.7814617719       68.8949737520  TIP3      5124            0.0000000000
     66887      6484  TIP3      H2            -27.3186029592      -14.8502083570       68.0398056803  TIP3      5124            0.0000000000
     66888      6485  TIP3      OH2           -36.9598661597      -11.0428015946       74.3708979874  TIP3      5125            0.0000000000
     66889      6485  TIP3      H1            -36.1477134786      -10.9933362720       73.8504108268  TIP3      5125            0.0000000000
     66890      6485  TIP3      H2            -36.8127829498      -11.7951296261       74.9640766021  TIP3      5125            0.0000000000
     66891      6486  TIP3      OH2           -29.8638682038       -8.8840844072       67.6909872464  TIP3      5126            0.0000000000
     66892      6486  TIP3      H1            -30.1916903991       -8.0420675101       68.0695515400  TIP3      5126            0.0000000000
     66893      6486  TIP3      H2            -30.5888013464       -9.4856006424       67.9304346082  TIP3      5126            0.0000000000
     66894      6487  TIP3      OH2           -39.8893840510      -12.5810902373       79.7937398813  TIP3      5127            0.0000000000
     66895      6487  TIP3      H1            -39.6116386238      -13.0227130337       80.5993546308  TIP3      5127            0.0000000000
     66896      6487  TIP3      H2            -40.5055826703      -13.2072286425       79.3658644281  TIP3      5127            0.0000000000
     66897      6488  TIP3      OH2           -22.5568808207      -15.4656157584       68.3053871536  TIP3      5128            0.0000000000
     66898      6488  TIP3      H1            -23.0478201234      -15.7985999694       67.5503161591  TIP3      5128            0.0000000000
     66899      6488  TIP3      H2            -22.3632234408      -14.5549147549       67.9788153785  TIP3      5128            0.0000000000
     66900      6489  TIP3      OH2           -22.4866220267       -9.6186657331       81.0782241100  TIP3      5129            0.0000000000
     66901      6489  TIP3      H1            -23.3924747179       -9.4714022155       80.7200469275  TIP3      5129            0.0000000000
     66902      6489  TIP3      H2            -21.9483437796       -9.7417678523       80.2849932848  TIP3      5129            0.0000000000
     66903      6490  TIP3      OH2           -27.0013188492      -11.8662839343       75.7881015446  TIP3      5130            0.0000000000
     66904      6490  TIP3      H1            -27.9474838194      -12.0474752223       75.6727790244  TIP3      5130            0.0000000000
     66905      6490  TIP3      H2            -26.5791492126      -12.6172169094       75.3385763427  TIP3      5130            0.0000000000
     66906      6491  TIP3      OH2           -34.5068064806       -7.5218381821       71.8896682644  TIP3      5131            0.0000000000
     66907      6491  TIP3      H1            -33.9814680208       -6.7460689757       71.6481818156  TIP3      5131            0.0000000000
     66908      6491  TIP3      H2            -35.3673904136       -7.2946479139       71.5294002223  TIP3      5131            0.0000000000
     66909      6492  TIP3      OH2           -32.5994584618       -5.6935917590       77.7858128716  TIP3      5132            0.0000000000
     66910      6492  TIP3      H1            -32.1509533827       -4.8742472352       77.5122615591  TIP3      5132            0.0000000000
     66911      6492  TIP3      H2            -32.0240652450       -6.0114669506       78.4914748002  TIP3      5132            0.0000000000
     66912      6493  TIP3      OH2           -34.3480174537       -4.8603724797       70.9379480438  TIP3      5133            0.0000000000
     66913      6493  TIP3      H1            -35.3197653351       -4.7356337479       71.0483508947  TIP3      5133            0.0000000000
     66914      6493  TIP3      H2            -34.0187877435       -4.0165224995       71.2992474371  TIP3      5133            0.0000000000
     66915      6494  TIP3      OH2           -26.8107444166       -8.7152785139       66.5162342583  TIP3      5134            0.0000000000
     66916      6494  TIP3      H1            -26.5104186755       -9.0828148130       67.3624502837  TIP3      5134            0.0000000000
     66917      6494  TIP3      H2            -27.7667012733       -8.7647543075       66.6149797222  TIP3      5134            0.0000000000
     66918      6495  TIP3      OH2           -25.9508822864      -10.0417685161       68.7109189824  TIP3      5135            0.0000000000
     66919      6495  TIP3      H1            -26.2291971560      -10.7590550222       69.3096303010  TIP3      5135            0.0000000000
     66920      6495  TIP3      H2            -25.0150268724       -9.9201768618       68.9569578623  TIP3      5135            0.0000000000
     66921      6496  TIP3      OH2           -38.5843859166       -6.0391312180       77.7190394369  TIP3      5136            0.0000000000
     66922      6496  TIP3      H1            -38.2974840415       -6.9669910604       77.7077722978  TIP3      5136            0.0000000000
     66923      6496  TIP3      H2            -38.2949108277       -5.7772138611       78.6031810543  TIP3      5136            0.0000000000
     66924      6497  TIP3      OH2           -33.7993818056       -7.9857742671       67.4059149697  TIP3      5137            0.0000000000
     66925      6497  TIP3      H1            -33.6164729168       -8.5141118698       68.1950703375  TIP3      5137            0.0000000000
     66926      6497  TIP3      H2            -33.7620444462       -7.0719359923       67.7580979830  TIP3      5137            0.0000000000
     66927      6498  TIP3      OH2           -29.5136104577      -18.0756730699       78.2313844715  TIP3      5138            0.0000000000
     66928      6498  TIP3      H1            -28.7654634438      -17.9994333737       78.8474324931  TIP3      5138            0.0000000000
     66929      6498  TIP3      H2            -29.8530771233      -18.9746921313       78.3817223244  TIP3      5138            0.0000000000
     66930      6499  TIP3      OH2           -28.7186118769      -18.4954234729       69.3250986999  TIP3      5139            0.0000000000
     66931      6499  TIP3      H1            -28.4805743965      -18.0229543359       68.5069768031  TIP3      5139            0.0000000000
     66932      6499  TIP3      H2            -28.1810893816      -18.0481238072       69.9894861300  TIP3      5139            0.0000000000
     66933      6500  TIP3      OH2           -31.0460756070       -6.3257080943       68.1460376709  TIP3      5140            0.0000000000
     66934      6500  TIP3      H1            -31.8597580727       -5.8010362096       68.2352433888  TIP3      5140            0.0000000000
     66935      6500  TIP3      H2            -30.4747706698       -5.8371101844       67.5386122593  TIP3      5140            0.0000000000
     66936      6501  TIP3      OH2           -33.7075801661       -5.2716242838       68.1567965877  TIP3      5141            0.0000000000
     66937      6501  TIP3      H1            -33.5162481200       -4.4563367293       67.6866826623  TIP3      5141            0.0000000000
     66938      6501  TIP3      H2            -33.9115244681       -4.9587703052       69.0711949048  TIP3      5141            0.0000000000
     66939      6502  TIP3      OH2           -26.1628892163      -14.0659190798       74.1760181146  TIP3      5142            0.0000000000
     66940      6502  TIP3      H1            -26.9982921810      -14.5135878664       73.9449927419  TIP3      5142            0.0000000000
     66941      6502  TIP3      H2            -25.6941351937      -14.7528794201       74.7182027023  TIP3      5142            0.0000000000
     66942      6503  TIP3      OH2           -36.7572771578       -8.0655752556       66.7491587300  TIP3      5143            0.0000000000
     66943      6503  TIP3      H1            -36.0884973377       -7.5090425244       67.1496737284  TIP3      5143            0.0000000000
     66944      6503  TIP3      H2            -36.2548287756       -8.6035995321       66.1377027846  TIP3      5143            0.0000000000
     66945      6504  TIP3      OH2           -38.6369832212       -6.7774028270       70.8056628945  TIP3      5144            0.0000000000
     66946      6504  TIP3      H1            -39.4875457254       -6.3166916815       70.7728513828  TIP3      5144            0.0000000000
     66947      6504  TIP3      H2            -38.1487711835       -6.2933816342       70.1272091873  TIP3      5144            0.0000000000
     66948      6505  TIP3      OH2           -39.3234788634       -4.1368231643       82.0519253566  TIP3      5145            0.0000000000
     66949      6505  TIP3      H1            -38.8157168708       -4.3276290518       82.8598320004  TIP3      5145            0.0000000000
     66950      6505  TIP3      H2            -39.8667028233       -4.9339665046       81.9373414592  TIP3      5145            0.0000000000
     66951      6506  TIP3      OH2           -34.7425706740       -5.2013221552       83.7135898810  TIP3      5146            0.0000000000
     66952      6506  TIP3      H1            -33.9642093386       -5.6912389865       84.0132454004  TIP3      5146            0.0000000000
     66953      6506  TIP3      H2            -34.8093842510       -5.4832617882       82.7761051006  TIP3      5146            0.0000000000
     66954      6507  TIP3      OH2           -39.3104589994      -10.3495261715       82.9208687468  TIP3      5147            0.0000000000
     66955      6507  TIP3      H1            -39.2772818573      -11.3110817846       82.7236701727  TIP3      5147            0.0000000000
     66956      6507  TIP3      H2            -40.0914418719      -10.0770070638       82.4098109703  TIP3      5147            0.0000000000
     66957      6508  TIP3      OH2           -32.7663240781      -10.3004752572       82.4551552536  TIP3      5148            0.0000000000
     66958      6508  TIP3      H1            -33.1957398257      -10.0660894073       81.6130939397  TIP3      5148            0.0000000000
     66959      6508  TIP3      H2            -32.6860215483      -11.2616759887       82.4090971469  TIP3      5148            0.0000000000
     66960      6509  TIP3      OH2           -27.0707776429      -10.4602879920       79.8863869683  TIP3      5149            0.0000000000
     66961      6509  TIP3      H1            -26.3002962922       -9.8713836092       79.7871457578  TIP3      5149            0.0000000000
     66962      6509  TIP3      H2            -27.8270434710       -9.8578682132       79.9215821140  TIP3      5149            0.0000000000
     66963      6510  TIP3      OH2           -38.6997506252      -13.0911532471       82.5238515308  TIP3      5150            0.0000000000
     66964      6510  TIP3      H1            -38.1636878167      -13.8884383488       82.3524156181  TIP3      5150            0.0000000000
     66965      6510  TIP3      H2            -38.8422308499      -13.1402392373       83.4654535824  TIP3      5150            0.0000000000
     66966      6511  TIP3      OH2           -33.9017905711      -11.9536798961       67.5604173231  TIP3      5151            0.0000000000
     66967      6511  TIP3      H1            -34.4488135767      -12.4293637548       68.2180599210  TIP3      5151            0.0000000000
     66968      6511  TIP3      H2            -33.7304424607      -12.6493875782       66.9209315350  TIP3      5151            0.0000000000
     66969      6512  TIP3      OH2           -29.6468455770      -11.6256372865       83.2128140135  TIP3      5152            0.0000000000
     66970      6512  TIP3      H1            -28.6941373678      -11.6126771101       83.0697522848  TIP3      5152            0.0000000000
     66971      6512  TIP3      H2            -29.8153343807      -12.4055010064       83.7718348079  TIP3      5152            0.0000000000
     66972      6513  TIP3      OH2           -27.9673726799      -15.1442476319       83.6297370947  TIP3      5153            0.0000000000
     66973      6513  TIP3      H1            -27.7431051010      -16.0860687651       83.6219356721  TIP3      5153            0.0000000000
     66974      6513  TIP3      H2            -27.0971809042      -14.7188036264       83.6733455078  TIP3      5153            0.0000000000
     66975      6514  TIP3      OH2           -26.6147044897      -12.3414369926       81.8168322856  TIP3      5154            0.0000000000
     66976      6514  TIP3      H1            -26.8973711638      -11.6428805514       81.1894228276  TIP3      5154            0.0000000000
     66977      6514  TIP3      H2            -25.6601859163      -12.3558663042       81.6083623831  TIP3      5154            0.0000000000
     66978      6515  TIP3      OH2           -29.1305973891      -17.5020725316       81.5698463293  TIP3      5155            0.0000000000
     66979      6515  TIP3      H1            -30.0815792986      -17.4634098875       81.6698697064  TIP3      5155            0.0000000000
     66980      6515  TIP3      H2            -28.8507518782      -18.1412523020       82.2235583343  TIP3      5155            0.0000000000
     66981      6516  TIP3      OH2           -39.4357204726       -8.4884442317       66.2866519363  TIP3      5156            0.0000000000
     66982      6516  TIP3      H1            -38.4885339443       -8.3522043392       66.5227019945  TIP3      5156            0.0000000000
     66983      6516  TIP3      H2            -39.3620344848       -9.0849403224       65.5450999738  TIP3      5156            0.0000000000
     66984      6517  TIP3      OH2            40.7085066723       -3.1029852476       71.2269333704  TIP3      5157            0.0000000000
     66985      6517  TIP3      H1             39.9772770986       -3.5328164580       70.8028507233  TIP3      5157            0.0000000000
     66986      6517  TIP3      H2             40.9771296443       -3.7197633741       71.9283336286  TIP3      5157            0.0000000000
     66987      6518  TIP3      OH2           -39.8971608049       -4.9780877521       73.1316974513  TIP3      5158            0.0000000000
     66988      6518  TIP3      H1            -40.2493136750       -5.8564466958       73.3351460323  TIP3      5158            0.0000000000
     66989      6518  TIP3      H2            -39.6537327853       -4.6256978272       74.0063043936  TIP3      5158            0.0000000000
     66990      6519  TIP3      OH2           -24.3734105607       -8.8011971510       83.6816172928  TIP3      5159            0.0000000000
     66991      6519  TIP3      H1            -25.2523749518       -8.8895100262       84.0927312853  TIP3      5159            0.0000000000
     66992      6519  TIP3      H2            -23.9976976150       -8.0561315021       84.1536037367  TIP3      5159            0.0000000000
     66993      6520  TIP3      OH2           -23.0601558229      -10.5341175175       69.1444780514  TIP3      5160            0.0000000000
     66994      6520  TIP3      H1            -22.1910355725      -10.1151281730       69.2991622660  TIP3      5160            0.0000000000
     66995      6520  TIP3      H2            -23.0291267044      -11.2566672165       69.8123760544  TIP3      5160            0.0000000000
     66996      6521  TIP3      OH2           -22.6981959871      -12.4355310526       70.9845279349  TIP3      5161            0.0000000000
     66997      6521  TIP3      H1            -23.4141904392      -12.9713267188       71.3882510305  TIP3      5161            0.0000000000
     66998      6521  TIP3      H2            -22.0957229343      -12.2886621686       71.7288778436  TIP3      5161            0.0000000000
     66999      6522  TIP3      OH2           -24.3870305703       -6.8262500193       78.2259588813  TIP3      5162            0.0000000000
     67000      6522  TIP3      H1            -25.0519448950       -6.4781756108       78.8330574711  TIP3      5162            0.0000000000
     67001      6522  TIP3      H2            -24.9209204886       -7.2647786530       77.5498134938  TIP3      5162            0.0000000000
     67002      6523  TIP3      OH2           -22.3685926032      -12.6300433179       67.3847341642  TIP3      5163            0.0000000000
     67003      6523  TIP3      H1            -22.9290022371      -12.2607805308       66.7062127292  TIP3      5163            0.0000000000
     67004      6523  TIP3      H2            -22.4244212186      -11.9282665422       68.0616612530  TIP3      5163            0.0000000000
     67005      6524  TIP3      OH2           -24.8683489807      -13.9753392941       71.5487678813  TIP3      5164            0.0000000000
     67006      6524  TIP3      H1            -24.9976501215      -14.9295960664       71.5472562822  TIP3      5164            0.0000000000
     67007      6524  TIP3      H2            -25.1995039682      -13.7418475171       72.4378668264  TIP3      5164            0.0000000000
     67008      6525  TIP3      OH2           -39.8665795576      -11.9186822076       75.6051997133  TIP3      5165            0.0000000000
     67009      6525  TIP3      H1            -39.6893140429      -11.9305307298       74.6429867688  TIP3      5165            0.0000000000
     67010      6525  TIP3      H2            -38.9881010547      -12.0194523853       76.0096272225  TIP3      5165            0.0000000000
     67011      6526  TIP3      OH2           -23.9998884475      -12.0119544229       81.2218165540  TIP3      5166            0.0000000000
     67012      6526  TIP3      H1            -23.3667897594      -12.7413435760       81.4073182077  TIP3      5166            0.0000000000
     67013      6526  TIP3      H2            -23.4089877423      -11.2397283962       81.2755284379  TIP3      5166            0.0000000000
     67014      6527  TIP3      OH2           -22.5180098632      -14.1175356715       81.9090854704  TIP3      5167            0.0000000000
     67015      6527  TIP3      H1            -23.4023274325      -14.4968100929       81.7399978907  TIP3      5167            0.0000000000
     67016      6527  TIP3      H2            -21.9165830232      -14.8730894499       81.8138684869  TIP3      5167            0.0000000000
     67017      6528  TIP3      OH2           -25.1540787213      -16.3476889118       70.0197074480  TIP3      5168            0.0000000000
     67018      6528  TIP3      H1            -24.8877750513      -17.2910601821       70.1500731549  TIP3      5168            0.0000000000
     67019      6528  TIP3      H2            -24.3533241833      -15.9712788439       69.6360704155  TIP3      5168            0.0000000000
     67020      6529  TIP3      OH2           -24.5741051532      -15.7808358010       75.4619782439  TIP3      5169            0.0000000000
     67021      6529  TIP3      H1            -23.6042972538      -15.6338883948       75.4476345601  TIP3      5169            0.0000000000
     67022      6529  TIP3      H2            -24.7415063007      -15.7622321281       76.4133467990  TIP3      5169            0.0000000000
     67023      6530  TIP3      OH2           -24.4653413054      -15.0864054185       78.2546574299  TIP3      5170            0.0000000000
     67024      6530  TIP3      H1            -25.3521943483      -14.8162939726       78.5889868710  TIP3      5170            0.0000000000
     67025      6530  TIP3      H2            -24.0823457768      -14.2211067829       78.0442407076  TIP3      5170            0.0000000000
     67026      6531  TIP3      OH2           -22.2240815332      -21.0450705359       83.5997955734  TIP3      5171            0.0000000000
     67027      6531  TIP3      H1            -21.8546882001      -21.7233486104       83.0112183721  TIP3      5171            0.0000000000
     67028      6531  TIP3      H2            -22.1017534316      -20.2249296579       83.1023837402  TIP3      5171            0.0000000000
     67029      6532  TIP3      OH2           -24.5289573667      -19.0686017915       70.0806916746  TIP3      5172            0.0000000000
     67030      6532  TIP3      H1            -24.3396363582      -19.5461553528       70.9180077426  TIP3      5172            0.0000000000
     67031      6532  TIP3      H2            -25.1407062844      -19.7096596089       69.6306614160  TIP3      5172            0.0000000000
     67032      6533  TIP3      OH2           -40.6109075986      -15.3131357472       75.7475167378  TIP3      5173            0.0000000000
     67033      6533  TIP3      H1            -40.2597751838      -15.5080313823       74.8624148065  TIP3      5173            0.0000000000
     67034      6533  TIP3      H2            -40.3491139639      -14.4015072636       75.9134313159  TIP3      5173            0.0000000000
     67035      6534  TIP3      OH2           -22.7286736795      -18.9543976949       81.9376634576  TIP3      5174            0.0000000000
     67036      6534  TIP3      H1            -23.6709340153      -18.7244905718       81.9409084482  TIP3      5174            0.0000000000
     67037      6534  TIP3      H2            -22.5814129810      -19.4751629273       81.1363039108  TIP3      5174            0.0000000000
     67038      6535  TIP3      OH2           -40.2446912878      -19.0787114230       69.7976819618  TIP3      5175            0.0000000000
     67039      6535  TIP3      H1            -41.1646879078      -18.9775370771       69.4813088254  TIP3      5175            0.0000000000
     67040      6535  TIP3      H2            -39.7772782968      -18.5412651855       69.1589596552  TIP3      5175            0.0000000000
     67041      6536  TIP3      OH2            41.0792007877      -20.1383500180       78.2855110509  TIP3      5176            0.0000000000
     67042      6536  TIP3      H1             40.3664737650      -20.5982335883       78.7302525729  TIP3      5176            0.0000000000
     67043      6536  TIP3      H2             40.5763638391      -19.7122533124       77.5685595029  TIP3      5176            0.0000000000
     67044      6537  TIP3      OH2           -38.2309283681       -7.1176601049       82.2315259132  TIP3      5177            0.0000000000
     67045      6537  TIP3      H1            -39.0740229407       -6.9529400425       81.7783177783  TIP3      5177            0.0000000000
     67046      6537  TIP3      H2            -38.4952598046       -7.2423583728       83.1483544724  TIP3      5177            0.0000000000
     67047      6538  TIP3      OH2           -35.2760663283       -6.1684245504       78.5001375458  TIP3      5178            0.0000000000
     67048      6538  TIP3      H1            -35.6558731907       -5.3265102579       78.2062890178  TIP3      5178            0.0000000000
     67049      6538  TIP3      H2            -34.3523705780       -6.0820506690       78.1790774338  TIP3      5178            0.0000000000
     67050      6539  TIP3      OH2           -37.8706131543       -2.9304171870       78.5201541440  TIP3      5179            0.0000000000
     67051      6539  TIP3      H1            -38.6030861645       -2.4424297268       78.0912208796  TIP3      5179            0.0000000000
     67052      6539  TIP3      H2            -38.2403494628       -3.1110799221       79.3924557348  TIP3      5179            0.0000000000
     67053      6540  TIP3      OH2           -35.3997258595       -3.3720834054       77.5716088229  TIP3      5180            0.0000000000
     67054      6540  TIP3      H1            -36.2908506080       -3.2056010198       77.9532883471  TIP3      5180            0.0000000000
     67055      6540  TIP3      H2            -35.4405641885       -2.7890431042       76.7816583842  TIP3      5180            0.0000000000
     67056      6541  TIP3      OH2           -30.6956713080       -3.4222423181       76.7115785421  TIP3      5181            0.0000000000
     67057      6541  TIP3      H1            -31.1733020889       -2.8631106908       76.0754111865  TIP3      5181            0.0000000000
     67058      6541  TIP3      H2            -30.5587427391       -2.8214180310       77.4552845518  TIP3      5181            0.0000000000
     67059      6542  TIP3      OH2           -38.4312596380       -4.2987793259       75.4127476689  TIP3      5182            0.0000000000
     67060      6542  TIP3      H1            -38.4916073746       -4.7263822067       76.2845613952  TIP3      5182            0.0000000000
     67061      6542  TIP3      H2            -37.6007248093       -4.6436867719       75.0301589746  TIP3      5182            0.0000000000
     67062      6543  TIP3      OH2           -36.3689450057       -5.5628653413       74.1191442310  TIP3      5183            0.0000000000
     67063      6543  TIP3      H1            -36.4979412725       -6.5122887478       74.3167669258  TIP3      5183            0.0000000000
     67064      6543  TIP3      H2            -35.4917487971       -5.4246691532       74.5363188723  TIP3      5183            0.0000000000
     67065      6544  TIP3      OH2           -33.7656232801       -5.1010793123       74.9318709604  TIP3      5184            0.0000000000
     67066      6544  TIP3      H1            -33.5590764711       -6.0132039447       74.6733066032  TIP3      5184            0.0000000000
     67067      6544  TIP3      H2            -33.7303638364       -5.1731542666       75.8974109914  TIP3      5184            0.0000000000
     67068      6545  TIP3      OH2           -23.4619048071      -20.1356876086       72.4074665433  TIP3      5185            0.0000000000
     67069      6545  TIP3      H1            -22.7708802371      -20.6987273235       72.0132545298  TIP3      5185            0.0000000000
     67070      6545  TIP3      H2            -22.9784210651      -19.2978936088       72.5767559240  TIP3      5185            0.0000000000
     67071      6546  TIP3      OH2           -26.4562998214      -20.8075143676       69.0936467258  TIP3      5186            0.0000000000
     67072      6546  TIP3      H1            -27.2051161447      -20.2493112861       68.8433537969  TIP3      5186            0.0000000000
     67073      6546  TIP3      H2            -26.8848734721      -21.6693396646       69.1819331543  TIP3      5186            0.0000000000
     67074      6547  TIP3      OH2           -39.1968337673       -5.0414432074       68.6465335716  TIP3      5187            0.0000000000
     67075      6547  TIP3      H1            -39.8905073519       -5.1170577418       67.9762866786  TIP3      5187            0.0000000000
     67076      6547  TIP3      H2            -39.2065918516       -4.0882741973       68.8343199139  TIP3      5187            0.0000000000
     67077      6548  TIP3      OH2           -36.7804124092       -4.0040287244       65.8557796764  TIP3      5188            0.0000000000
     67078      6548  TIP3      H1            -37.4942154851       -3.9504701874       66.5271127313  TIP3      5188            0.0000000000
     67079      6548  TIP3      H2            -36.5281165623       -4.9282389048       65.9231127666  TIP3      5188            0.0000000000
     67080      6549  TIP3      OH2           -21.2211927586      -14.7120450956       70.8387782124  TIP3      5189            0.0000000000
     67081      6549  TIP3      H1            -21.6361397643      -13.8333643863       70.7752966256  TIP3      5189            0.0000000000
     67082      6549  TIP3      H2            -21.7657762100      -15.2490480977       70.2511522645  TIP3      5189            0.0000000000
     67083      6550  TIP3      OH2            -9.5026608211      -15.5648347851       76.0641960774  TIP3      5190            0.0000000000
     67084      6550  TIP3      H1             -9.4726598534      -16.5331365790       76.0815423629  TIP3      5190            0.0000000000
     67085      6550  TIP3      H2             -9.6747885660      -15.3990890376       75.1153220891  TIP3      5190            0.0000000000
     67086      6551  TIP3      OH2            -8.6860444389      -17.3470308059       71.6549375496  TIP3      5191            0.0000000000
     67087      6551  TIP3      H1             -8.0495589020      -17.6705338077       72.3281681019  TIP3      5191            0.0000000000
     67088      6551  TIP3      H2             -8.1269285371      -16.8084272493       71.0873433083  TIP3      5191            0.0000000000
     67089      6552  TIP3      OH2           -19.8019696093      -15.1082627758       74.0600503627  TIP3      5192            0.0000000000
     67090      6552  TIP3      H1            -19.0960080879      -15.6428508531       74.4241398948  TIP3      5192            0.0000000000
     67091      6552  TIP3      H2            -19.7313301725      -15.3468694565       73.1128723139  TIP3      5192            0.0000000000
     67092      6553  TIP3      OH2            -6.8624803760      -18.0912227441       73.6442676590  TIP3      5193            0.0000000000
     67093      6553  TIP3      H1             -7.1442065049      -18.8042916678       74.2218290285  TIP3      5193            0.0000000000
     67094      6553  TIP3      H2             -6.2494363890      -17.5690166530       74.1890848558  TIP3      5193            0.0000000000
     67095      6554  TIP3      OH2           -16.6519878388       -8.9521281526       78.3558938495  TIP3      5194            0.0000000000
     67096      6554  TIP3      H1            -16.6076976304       -8.0178463033       78.1089098989  TIP3      5194            0.0000000000
     67097      6554  TIP3      H2            -17.4500665371       -9.0262332891       78.8818497505  TIP3      5194            0.0000000000
     67098      6555  TIP3      OH2           -20.5725334726       -9.2599227016       69.1973311195  TIP3      5195            0.0000000000
     67099      6555  TIP3      H1            -20.7180889215       -8.9680591176       68.2812666482  TIP3      5195            0.0000000000
     67100      6555  TIP3      H2            -20.4259978431       -8.4269969667       69.6804566210  TIP3      5195            0.0000000000
     67101      6556  TIP3      OH2            -6.5480952644      -19.3501817865       77.3265479807  TIP3      5196            0.0000000000
     67102      6556  TIP3      H1             -7.2837392173      -18.7265386265       77.3138742495  TIP3      5196            0.0000000000
     67103      6556  TIP3      H2             -5.8560723313      -18.9072145096       76.8404657762  TIP3      5196            0.0000000000
     67104      6557  TIP3      OH2           -13.5779452454      -21.2691430298       74.7452321642  TIP3      5197            0.0000000000
     67105      6557  TIP3      H1            -13.7200355272      -22.2133506713       74.7796005525  TIP3      5197            0.0000000000
     67106      6557  TIP3      H2            -14.4187664267      -20.8975261862       75.0982390531  TIP3      5197            0.0000000000
     67107      6558  TIP3      OH2            -3.9790471776      -12.9998382637       77.5625046684  TIP3      5198            0.0000000000
     67108      6558  TIP3      H1             -4.5795075800      -12.2697387763       77.6414694337  TIP3      5198            0.0000000000
     67109      6558  TIP3      H2             -3.4378252631      -12.7654000082       76.7850606745  TIP3      5198            0.0000000000
     67110      6559  TIP3      OH2            -7.9777119389      -14.0344094620       79.3480421418  TIP3      5199            0.0000000000
     67111      6559  TIP3      H1             -7.9174446092      -13.2451732136       79.8920843847  TIP3      5199            0.0000000000
     67112      6559  TIP3      H2             -8.6138773620      -13.7325350864       78.6575229859  TIP3      5199            0.0000000000
     67113      6560  TIP3      OH2           -16.7408172496       -6.3196588485       81.2969724139  TIP3      5200            0.0000000000
     67114      6560  TIP3      H1            -16.7429396883       -6.4339481547       80.3352383684  TIP3      5200            0.0000000000
     67115      6560  TIP3      H2            -17.6764661755       -6.4587913560       81.5419707975  TIP3      5200            0.0000000000
     67116      6561  TIP3      OH2            -5.2882265327      -21.3260749462       67.7488315980  TIP3      5201            0.0000000000
     67117      6561  TIP3      H1             -6.2092106051      -21.1976725052       68.0754378381  TIP3      5201            0.0000000000
     67118      6561  TIP3      H2             -5.0426419433      -20.4538790807       67.3992905735  TIP3      5201            0.0000000000
     67119      6562  TIP3      OH2            -4.1081304641       -6.9711870639       66.2812188420  TIP3      5202            0.0000000000
     67120      6562  TIP3      H1             -4.0296543633       -6.0096795728       66.3149577825  TIP3      5202            0.0000000000
     67121      6562  TIP3      H2             -3.1906956707       -7.2675475636       66.1292312174  TIP3      5202            0.0000000000
     67122      6563  TIP3      OH2           -21.4371993406       -7.2486520621       75.4073978878  TIP3      5203            0.0000000000
     67123      6563  TIP3      H1            -20.4946473289       -7.4279324844       75.4238507363  TIP3      5203            0.0000000000
     67124      6563  TIP3      H2            -21.5437250714       -6.4912439342       75.9876441653  TIP3      5203            0.0000000000
     67125      6564  TIP3      OH2            -3.1526561423       -6.6717930474       81.1910712248  TIP3      5204            0.0000000000
     67126      6564  TIP3      H1             -3.3274843230       -7.6098651285       81.0679773062  TIP3      5204            0.0000000000
     67127      6564  TIP3      H2             -4.0582816788       -6.4024126480       81.4991723806  TIP3      5204            0.0000000000
     67128      6565  TIP3      OH2           -11.7009117356       -3.3297829958       69.7738341804  TIP3      5205            0.0000000000
     67129      6565  TIP3      H1            -11.9174170913       -3.4750119483       68.8269517441  TIP3      5205            0.0000000000
     67130      6565  TIP3      H2            -11.9199402537       -2.4042123313       69.9133684705  TIP3      5205            0.0000000000
     67131      6566  TIP3      OH2           -18.1799900361       -4.4719673626       71.6202867502  TIP3      5206            0.0000000000
     67132      6566  TIP3      H1            -17.9924274170       -4.9262828818       72.4629721816  TIP3      5206            0.0000000000
     67133      6566  TIP3      H2            -18.9814175219       -4.9420747063       71.3599435123  TIP3      5206            0.0000000000
     67134      6567  TIP3      OH2            -9.0989185676       -4.1271644198       69.6862505062  TIP3      5207            0.0000000000
     67135      6567  TIP3      H1            -10.0625974680       -4.2553659334       69.6931570986  TIP3      5207            0.0000000000
     67136      6567  TIP3      H2             -8.7865119929       -4.9650101202       70.0691171836  TIP3      5207            0.0000000000
     67137      6568  TIP3      OH2            -6.1422593056      -15.1884075967       81.6296282017  TIP3      5208            0.0000000000
     67138      6568  TIP3      H1             -6.4905688388      -14.7566082121       80.8420655872  TIP3      5208            0.0000000000
     67139      6568  TIP3      H2             -6.0253919064      -16.1033445353       81.3010116829  TIP3      5208            0.0000000000
     67140      6569  TIP3      OH2           -16.2221326541      -20.3328178112       75.5503076633  TIP3      5209            0.0000000000
     67141      6569  TIP3      H1            -17.1272746661      -20.4432612028       75.1912280051  TIP3      5209            0.0000000000
     67142      6569  TIP3      H2            -16.3097408735      -19.5027145492       76.0215895243  TIP3      5209            0.0000000000
     67143      6570  TIP3      OH2           -11.6471365781      -20.5024688751       79.0305384778  TIP3      5210            0.0000000000
     67144      6570  TIP3      H1            -11.1647759259      -21.0622068407       79.6547994025  TIP3      5210            0.0000000000
     67145      6570  TIP3      H2            -12.5457626669      -20.8341293095       79.0584752305  TIP3      5210            0.0000000000
     67146      6571  TIP3      OH2            -8.3073452687      -16.8394306226       79.8004588901  TIP3      5211            0.0000000000
     67147      6571  TIP3      H1             -8.8528536590      -16.9978825957       80.6016188397  TIP3      5211            0.0000000000
     67148      6571  TIP3      H2             -8.4607223661      -15.9119953113       79.5707542980  TIP3      5211            0.0000000000
     67149      6572  TIP3      OH2           -10.5470593403      -14.6197587592       70.4305144711  TIP3      5212            0.0000000000
     67150      6572  TIP3      H1            -11.0770392264      -13.9077145514       70.0568849497  TIP3      5212            0.0000000000
     67151      6572  TIP3      H2             -9.9416778175      -14.8803630646       69.7245708674  TIP3      5212            0.0000000000
     67152      6573  TIP3      OH2            -9.5261113621      -15.2546990923       73.2625749379  TIP3      5213            0.0000000000
     67153      6573  TIP3      H1             -9.9076728505      -14.7158177859       72.5480520965  TIP3      5213            0.0000000000
     67154      6573  TIP3      H2             -9.5225305059      -16.1347202413       72.8359401138  TIP3      5213            0.0000000000
     67155      6574  TIP3      OH2           -21.8442791741      -17.9438663902       72.4259750026  TIP3      5214            0.0000000000
     67156      6574  TIP3      H1            -21.1892854106      -18.0211459306       73.1527922815  TIP3      5214            0.0000000000
     67157      6574  TIP3      H2            -21.3770518641      -18.3503944475       71.6763776048  TIP3      5214            0.0000000000
     67158      6575  TIP3      OH2           -20.5986046150      -17.2555435715       67.9270613281  TIP3      5215            0.0000000000
     67159      6575  TIP3      H1            -20.0746517610      -16.6812315989       67.3485352623  TIP3      5215            0.0000000000
     67160      6575  TIP3      H2            -21.2699938031      -16.6121462298       68.2151797733  TIP3      5215            0.0000000000
     67161      6576  TIP3      OH2           -10.3674996026      -13.6552011184       77.9499838287  TIP3      5216            0.0000000000
     67162      6576  TIP3      H1            -10.1143322037      -14.2782877925       77.2338002679  TIP3      5216            0.0000000000
     67163      6576  TIP3      H2            -10.9002060622      -14.2292542476       78.5037698417  TIP3      5216            0.0000000000
     67164      6577  TIP3      OH2           -18.8377020818      -16.1013689166       71.5479582675  TIP3      5217            0.0000000000
     67165      6577  TIP3      H1            -19.6977948713      -15.9959342294       71.1157004274  TIP3      5217            0.0000000000
     67166      6577  TIP3      H2            -18.4873221263      -16.9433961361       71.1991145561  TIP3      5217            0.0000000000
     67167      6578  TIP3      OH2            -5.9677703840       -2.8164152055       82.2623357282  TIP3      5218            0.0000000000
     67168      6578  TIP3      H1             -5.7222042275       -2.3902096416       81.4234688941  TIP3      5218            0.0000000000
     67169      6578  TIP3      H2             -5.2709226618       -2.4886993046       82.8572422727  TIP3      5218            0.0000000000
     67170      6579  TIP3      OH2           -17.3428075580      -18.7885710309       70.9382455743  TIP3      5219            0.0000000000
     67171      6579  TIP3      H1            -17.6274909981      -19.7102659707       71.0185543175  TIP3      5219            0.0000000000
     67172      6579  TIP3      H2            -16.5290879576      -18.8583784869       70.4364112334  TIP3      5219            0.0000000000
     67173      6580  TIP3      OH2           -13.7039417521      -16.5384811218       76.9796550924  TIP3      5220            0.0000000000
     67174      6580  TIP3      H1            -14.5113137538      -16.0776224234       77.1310434424  TIP3      5220            0.0000000000
     67175      6580  TIP3      H2            -13.1127330374      -16.2907955311       77.7052337398  TIP3      5220            0.0000000000
     67176      6581  TIP3      OH2            -9.2371921974      -17.5925194786       66.8569576354  TIP3      5221            0.0000000000
     67177      6581  TIP3      H1            -10.1658678913      -17.4122557174       66.6944952521  TIP3      5221            0.0000000000
     67178      6581  TIP3      H2             -8.9372739790      -16.7134244292       67.1606750344  TIP3      5221            0.0000000000
     67179      6582  TIP3      OH2            -8.5180679398      -15.5874237287       68.5376045242  TIP3      5222            0.0000000000
     67180      6582  TIP3      H1             -7.6216786948      -15.7702763974       68.8900580212  TIP3      5222            0.0000000000
     67181      6582  TIP3      H2             -8.4219562457      -14.8218201614       67.9739806603  TIP3      5222            0.0000000000
     67182      6583  TIP3      OH2            -3.6858616236      -15.4629891630       68.2810704018  TIP3      5223            0.0000000000
     67183      6583  TIP3      H1             -4.2127635101      -15.7812236935       67.5245515909  TIP3      5223            0.0000000000
     67184      6583  TIP3      H2             -3.5487762214      -14.5368002204       67.9834715549  TIP3      5223            0.0000000000
     67185      6584  TIP3      OH2            -5.2981645745       -6.6513489946       68.6919861032  TIP3      5224            0.0000000000
     67186      6584  TIP3      H1             -5.6996670014       -7.4679644609       69.0056289973  TIP3      5224            0.0000000000
     67187      6584  TIP3      H2             -5.0733877180       -6.8662063574       67.7722057776  TIP3      5224            0.0000000000
     67188      6585  TIP3      OH2           -13.7421202086       -5.7137107990       77.7723629889  TIP3      5225            0.0000000000
     67189      6585  TIP3      H1            -13.3588867995       -4.8632060934       77.5314991708  TIP3      5225            0.0000000000
     67190      6585  TIP3      H2            -13.1672109102       -6.0045915331       78.4810497998  TIP3      5225            0.0000000000
     67191      6586  TIP3      OH2           -19.7347020357       -6.0753169841       77.6904601615  TIP3      5226            0.0000000000
     67192      6586  TIP3      H1            -19.4642874093       -6.9876406164       77.7710000654  TIP3      5226            0.0000000000
     67193      6586  TIP3      H2            -19.4817555698       -5.7251959474       78.5632029049  TIP3      5226            0.0000000000
     67194      6587  TIP3      OH2           -10.6506855395      -18.0287725907       78.3062145148  TIP3      5227            0.0000000000
     67195      6587  TIP3      H1             -9.8830104891      -18.0292692343       78.8778671933  TIP3      5227            0.0000000000
     67196      6587  TIP3      H2            -10.9836956897      -18.9514755786       78.3697644159  TIP3      5227            0.0000000000
     67197      6588  TIP3      OH2            -9.8920381804      -18.4302688880       69.3418362797  TIP3      5228            0.0000000000
     67198      6588  TIP3      H1             -9.6117609250      -17.9999919317       68.5061415140  TIP3      5228            0.0000000000
     67199      6588  TIP3      H2             -9.2932648474      -18.0260286230       69.9870179447  TIP3      5228            0.0000000000
     67200      6589  TIP3      OH2           -12.1012939310      -15.6949149513       79.3197428956  TIP3      5229            0.0000000000
     67201      6589  TIP3      H1            -12.0099805721      -15.1730851985       80.1153199310  TIP3      5229            0.0000000000
     67202      6589  TIP3      H2            -11.4616131436      -16.4290376895       79.4075517668  TIP3      5229            0.0000000000
     67203      6590  TIP3      OH2           -11.8042331506      -19.6881315434       71.0704292339  TIP3      5230            0.0000000000
     67204      6590  TIP3      H1            -12.0527052332      -19.0427567206       71.7441894496  TIP3      5230            0.0000000000
     67205      6590  TIP3      H2            -11.1084133354      -19.1864345712       70.5792994073  TIP3      5230            0.0000000000
     67206      6591  TIP3      OH2           -16.1114075744      -18.6068148960       67.8030931932  TIP3      5231            0.0000000000
     67207      6591  TIP3      H1            -16.1927057765      -17.6950654109       68.1050652000  TIP3      5231            0.0000000000
     67208      6591  TIP3      H2            -15.1956609775      -18.8460715461       68.0073721264  TIP3      5231            0.0000000000
     67209      6592  TIP3      OH2            -5.9058889798      -17.8008730214       80.2257056443  TIP3      5232            0.0000000000
     67210      6592  TIP3      H1             -6.8404285727      -17.5665274258       80.0524065823  TIP3      5232            0.0000000000
     67211      6592  TIP3      H2             -5.5834599232      -17.9061138548       79.3119465512  TIP3      5232            0.0000000000
     67212      6593  TIP3      OH2            -7.2609771597      -14.0747889787       74.1919657740  TIP3      5233            0.0000000000
     67213      6593  TIP3      H1             -8.1348209017      -14.4504026752       73.9441975348  TIP3      5233            0.0000000000
     67214      6593  TIP3      H2             -6.8474637463      -14.7626933423       74.7480671285  TIP3      5233            0.0000000000
     67215      6594  TIP3      OH2           -17.8821617361       -8.0875548397       66.7663780579  TIP3      5234            0.0000000000
     67216      6594  TIP3      H1            -17.2686129355       -7.4516691362       67.1429405662  TIP3      5234            0.0000000000
     67217      6594  TIP3      H2            -17.3750026720       -8.5818754098       66.1246825063  TIP3      5234            0.0000000000
     67218      6595  TIP3      OH2            -6.2698152789       -4.8178512008       75.8803066446  TIP3      5235            0.0000000000
     67219      6595  TIP3      H1             -6.3215438924       -4.1280327842       75.2023142035  TIP3      5235            0.0000000000
     67220      6595  TIP3      H2             -5.3062902393       -4.7683747625       76.0821599090  TIP3      5235            0.0000000000
     67221      6596  TIP3      OH2           -18.7474708179      -20.6523683044       74.6624760222  TIP3      5236            0.0000000000
     67222      6596  TIP3      H1            -18.9423772741      -20.6228673770       73.6975963973  TIP3      5236            0.0000000000
     67223      6596  TIP3      H2            -19.1723670972      -21.4923889285       74.9311379694  TIP3      5236            0.0000000000
     67224      6597  TIP3      OH2           -19.8008106756       -6.7202939868       70.8218543648  TIP3      5237            0.0000000000
     67225      6597  TIP3      H1            -20.6428333100       -6.2721125630       70.7534688656  TIP3      5237            0.0000000000
     67226      6597  TIP3      H2            -19.2916348625       -6.2813201274       70.1292857798  TIP3      5237            0.0000000000
     67227      6598  TIP3      OH2           -20.3836002455       -4.1586117003       82.0178202150  TIP3      5238            0.0000000000
     67228      6598  TIP3      H1            -19.9374139725       -4.3195313554       82.8727740868  TIP3      5238            0.0000000000
     67229      6598  TIP3      H2            -20.9472579725       -4.9447338349       81.9210145974  TIP3      5238            0.0000000000
     67230      6599  TIP3      OH2           -15.9345671479       -5.2341901228       83.7228834320  TIP3      5239            0.0000000000
     67231      6599  TIP3      H1            -15.1441643419       -5.6658855186       84.0642208182  TIP3      5239            0.0000000000
     67232      6599  TIP3      H2            -15.9283027939       -5.4520792588       82.7694006610  TIP3      5239            0.0000000000
     67233      6600  TIP3      OH2           -20.6763246771      -10.3628965198       83.1126406255  TIP3      5240            0.0000000000
     67234      6600  TIP3      H1            -20.4272256403      -11.2263147586       82.7334003408  TIP3      5240            0.0000000000
     67235      6600  TIP3      H2            -21.3977858436      -10.0731011053       82.5380623745  TIP3      5240            0.0000000000
     67236      6601  TIP3      OH2           -19.7711101530      -13.1181441530       82.5142825150  TIP3      5241            0.0000000000
     67237      6601  TIP3      H1            -19.3508099732      -13.9634242998       82.3879558694  TIP3      5241            0.0000000000
     67238      6601  TIP3      H2            -20.0080859984      -13.1161893724       83.4424124825  TIP3      5241            0.0000000000
     67239      6602  TIP3      OH2            -9.0939862930      -15.1385001153       83.6189727238  TIP3      5242            0.0000000000
     67240      6602  TIP3      H1             -8.8650588390      -16.0768482877       83.6077572013  TIP3      5242            0.0000000000
     67241      6602  TIP3      H2             -8.2159141865      -14.7403796603       83.7110639504  TIP3      5242            0.0000000000
     67242      6603  TIP3      OH2           -10.2544828032      -17.4643917533       81.5781807738  TIP3      5243            0.0000000000
     67243      6603  TIP3      H1            -11.2142038226      -17.4855474601       81.6459632551  TIP3      5243            0.0000000000
     67244      6603  TIP3      H2            -10.0015873602      -18.1600079730       82.1951294065  TIP3      5243            0.0000000000
     67245      6604  TIP3      OH2           -13.6794394208      -20.0052692009       83.5423310242  TIP3      5244            0.0000000000
     67246      6604  TIP3      H1            -13.8575960749      -20.4201615933       82.7125071630  TIP3      5244            0.0000000000
     67247      6604  TIP3      H2            -14.2395504875      -19.2001225157       83.5524640061  TIP3      5244            0.0000000000
     67248      6605  TIP3      OH2           -14.1896215085       -3.0723878649       66.7927835094  TIP3      5245            0.0000000000
     67249      6605  TIP3      H1            -13.2344026265       -2.9430786201       66.8934405909  TIP3      5245            0.0000000000
     67250      6605  TIP3      H2            -14.4030735559       -2.3771752453       66.1694448809  TIP3      5245            0.0000000000
     67251      6606  TIP3      OH2           -20.6018818025       -8.4824421748       66.2992556623  TIP3      5246            0.0000000000
     67252      6606  TIP3      H1            -19.6614927212       -8.3604743307       66.5232605969  TIP3      5246            0.0000000000
     67253      6606  TIP3      H2            -20.5777107320       -9.0778048937       65.5505796206  TIP3      5246            0.0000000000
     67254      6607  TIP3      OH2           -21.8420118402       -3.0996322296       71.2269693480  TIP3      5247            0.0000000000
     67255      6607  TIP3      H1            -22.6077379564       -3.5273747276       70.8436227435  TIP3      5247            0.0000000000
     67256      6607  TIP3      H2            -21.6101459391       -3.7022574815       71.9560889670  TIP3      5247            0.0000000000
     67257      6608  TIP3      OH2           -20.9999992480       -4.9340381853       73.1245749118  TIP3      5248            0.0000000000
     67258      6608  TIP3      H1            -21.3832010345       -5.7998835633       73.3166151560  TIP3      5248            0.0000000000
     67259      6608  TIP3      H2            -20.8406275736       -4.5907043248       74.0162858197  TIP3      5248            0.0000000000
     67260      6609  TIP3      OH2            -3.5559654513       -4.0967287210       76.0546045460  TIP3      5249            0.0000000000
     67261      6609  TIP3      H1             -3.5014715051       -4.0191756093       77.0226907786  TIP3      5249            0.0000000000
     67262      6609  TIP3      H2             -2.7899704556       -3.5906797379       75.7802985090  TIP3      5249            0.0000000000
     67263      6610  TIP3      OH2            -3.9165482970       -4.5727573162       79.0082274704  TIP3      5250            0.0000000000
     67264      6610  TIP3      H1             -4.4174854547       -5.3200606297       78.6418526815  TIP3      5250            0.0000000000
     67265      6610  TIP3      H2             -3.4382018164       -5.0225058994       79.7198447340  TIP3      5250            0.0000000000
     67266      6611  TIP3      OH2            -5.4175776282       -8.9115278477       83.6265477622  TIP3      5251            0.0000000000
     67267      6611  TIP3      H1             -6.3317349424       -8.9360088279       83.9639094831  TIP3      5251            0.0000000000
     67268      6611  TIP3      H2             -5.1074336556       -8.1058567712       84.0583287593  TIP3      5251            0.0000000000
     67269      6612  TIP3      OH2            -4.1515667285      -10.5300427862       69.1253976611  TIP3      5252            0.0000000000
     67270      6612  TIP3      H1             -3.2962319635      -10.1307589154       69.3334175890  TIP3      5252            0.0000000000
     67271      6612  TIP3      H2             -4.1908021587      -11.2344553905       69.8096808058  TIP3      5252            0.0000000000
     67272      6613  TIP3      OH2            -3.7692355000      -12.4780315046       70.9822304980  TIP3      5253            0.0000000000
     67273      6613  TIP3      H1             -4.5568802277      -12.9350231396       71.3612888378  TIP3      5253            0.0000000000
     67274      6613  TIP3      H2             -3.2262161278      -12.2914165808       71.7733390252  TIP3      5253            0.0000000000
     67275      6614  TIP3      OH2            -3.5475340608      -12.6327597023       67.3905277153  TIP3      5254            0.0000000000
     67276      6614  TIP3      H1             -4.0747888155      -12.2479269492       66.6922014147  TIP3      5254            0.0000000000
     67277      6614  TIP3      H2             -3.5615366510      -11.9161579135       68.0561543367  TIP3      5254            0.0000000000
     67278      6615  TIP3      OH2            -5.2366994722      -15.3970271656       65.9412864047  TIP3      5255            0.0000000000
     67279      6615  TIP3      H1             -5.0608317146      -14.7403095939       65.2546958196  TIP3      5255            0.0000000000
     67280      6615  TIP3      H2             -5.3689807483      -16.2186273112       65.4298200395  TIP3      5255            0.0000000000
     67281      6616  TIP3      OH2            -5.9380275849      -13.9897051612       71.5916556616  TIP3      5256            0.0000000000
     67282      6616  TIP3      H1             -6.1793256229      -14.9182895754       71.5285268981  TIP3      5256            0.0000000000
     67283      6616  TIP3      H2             -6.3766298581      -13.7337150289       72.4185183017  TIP3      5256            0.0000000000
     67284      6617  TIP3      OH2            -3.6514919772      -14.0802830571       81.9067853694  TIP3      5257            0.0000000000
     67285      6617  TIP3      H1             -4.5274247541      -14.4795045126       81.7623326840  TIP3      5257            0.0000000000
     67286      6617  TIP3      H2             -3.0886987376      -14.8694961023       81.8276894581  TIP3      5257            0.0000000000
     67287      6618  TIP3      OH2            -5.9300005368      -17.9350594873       65.0267106624  TIP3      5258            0.0000000000
     67288      6618  TIP3      H1             -5.3203410171      -18.3453420390       65.6749897431  TIP3      5258            0.0000000000
     67289      6618  TIP3      H2             -6.7823437768      -18.3391902464       65.2484689922  TIP3      5258            0.0000000000
     67290      6619  TIP3      OH2            -6.3120618437      -16.3767234093       70.0373471919  TIP3      5259            0.0000000000
     67291      6619  TIP3      H1             -6.0081616781      -17.3055591301       70.1588286736  TIP3      5259            0.0000000000
     67292      6619  TIP3      H2             -5.5271823678      -15.9663272666       69.6438710897  TIP3      5259            0.0000000000
     67293      6620  TIP3      OH2            -5.6944810308      -15.8617303377       75.4780423683  TIP3      5260            0.0000000000
     67294      6620  TIP3      H1             -4.7342577018      -15.6206771789       75.4662153534  TIP3      5260            0.0000000000
     67295      6620  TIP3      H2             -5.8865098380      -15.7337267429       76.4262636236  TIP3      5260            0.0000000000
     67296      6621  TIP3      OH2            -5.6797400609      -15.1148131456       78.2250936295  TIP3      5261            0.0000000000
     67297      6621  TIP3      H1             -6.5226105789      -14.8097013901       78.6011666213  TIP3      5261            0.0000000000
     67298      6621  TIP3      H2             -5.1718241531      -14.2949410310       78.0373367060  TIP3      5261            0.0000000000
     67299      6622  TIP3      OH2           -21.3692512961      -16.5892253566       81.7747887633  TIP3      5262            0.0000000000
     67300      6622  TIP3      H1            -20.4539574264      -16.7820172016       81.9501833484  TIP3      5262            0.0000000000
     67301      6622  TIP3      H2            -21.8046444315      -17.4177227542       82.0679509752  TIP3      5262            0.0000000000
     67302      6623  TIP3      OH2            -5.6881030157      -19.0995657164       70.0643232142  TIP3      5263            0.0000000000
     67303      6623  TIP3      H1             -5.4848955176      -19.5367215700       70.9000894203  TIP3      5263            0.0000000000
     67304      6623  TIP3      H2             -6.2815372891      -19.7460062173       69.6289469264  TIP3      5263            0.0000000000
     67305      6624  TIP3      OH2           -20.2064559356      -18.2944229496       74.6016928398  TIP3      5264            0.0000000000
     67306      6624  TIP3      H1            -19.7478303186      -19.1101970703       74.8828210257  TIP3      5264            0.0000000000
     67307      6624  TIP3      H2            -19.6935868927      -17.6232357824       75.0387015552  TIP3      5264            0.0000000000
     67308      6625  TIP3      OH2           -21.9176026484      -15.3324621882       75.6564921436  TIP3      5265            0.0000000000
     67309      6625  TIP3      H1            -21.3468047985      -15.5214582304       74.8887788103  TIP3      5265            0.0000000000
     67310      6625  TIP3      H2            -21.5111086754      -14.5039084375       75.9396488937  TIP3      5265            0.0000000000
     67311      6626  TIP3      OH2            -3.8722385710      -19.0515779689       66.6095699259  TIP3      5266            0.0000000000
     67312      6626  TIP3      H1             -3.3945187206      -19.7445549774       66.1438848974  TIP3      5266            0.0000000000
     67313      6626  TIP3      H2             -3.1472547915      -18.4045220217       66.6550653491  TIP3      5266            0.0000000000
     67314      6627  TIP3      OH2           -21.5646698128      -19.0145470183       69.7390033813  TIP3      5267            0.0000000000
     67315      6627  TIP3      H1            -22.5015789527      -18.8482039886       69.5771036892  TIP3      5267            0.0000000000
     67316      6627  TIP3      H2            -21.0987456326      -18.5365113315       69.0271171346  TIP3      5267            0.0000000000
     67317      6628  TIP3      OH2            -6.7843989697       -4.0749843622       71.7220478738  TIP3      5268            0.0000000000
     67318      6628  TIP3      H1             -6.1268353493       -4.3940703753       71.0740241968  TIP3      5268            0.0000000000
     67319      6628  TIP3      H2             -6.2297386640       -3.6095727396       72.3650991315  TIP3      5268            0.0000000000
     67320      6629  TIP3      OH2           -21.5632002491      -20.2964949628       78.0626217148  TIP3      5269            0.0000000000
     67321      6629  TIP3      H1            -22.2203030703      -20.5890446085       78.6880956003  TIP3      5269            0.0000000000
     67322      6629  TIP3      H2            -22.0499811935      -19.6776367618       77.4892976965  TIP3      5269            0.0000000000
     67323      6630  TIP3      OH2           -19.3658696811       -7.1208762489       82.2185829055  TIP3      5270            0.0000000000
     67324      6630  TIP3      H1            -20.2194796642       -6.9828735199       81.7767751721  TIP3      5270            0.0000000000
     67325      6630  TIP3      H2            -19.6101785321       -7.2661209480       83.1465020652  TIP3      5270            0.0000000000
     67326      6631  TIP3      OH2           -16.4487009308       -6.1715258826       78.4407663724  TIP3      5271            0.0000000000
     67327      6631  TIP3      H1            -16.7934877696       -5.2996538206       78.2012819396  TIP3      5271            0.0000000000
     67328      6631  TIP3      H2            -15.5058161443       -6.0581426931       78.1964004119  TIP3      5271            0.0000000000
     67329      6632  TIP3      OH2           -19.0327315446       -2.9789414365       78.4827116118  TIP3      5272            0.0000000000
     67330      6632  TIP3      H1            -19.7484334916       -2.4676744783       78.0924535040  TIP3      5272            0.0000000000
     67331      6632  TIP3      H2            -19.3403716587       -3.1238056551       79.3958043473  TIP3      5272            0.0000000000
     67332      6633  TIP3      OH2           -16.5458714363       -3.3357594489       77.5019941074  TIP3      5273            0.0000000000
     67333      6633  TIP3      H1            -17.3991353814       -3.1876125093       77.9734338896  TIP3      5273            0.0000000000
     67334      6633  TIP3      H2            -16.6556201319       -2.7410663842       76.7612098160  TIP3      5273            0.0000000000
     67335      6634  TIP3      OH2            -6.9848846395       -3.0103354604       77.9668228527  TIP3      5274            0.0000000000
     67336      6634  TIP3      H1             -7.0490003727       -2.0604002972       77.7288001742  TIP3      5274            0.0000000000
     67337      6634  TIP3      H2             -6.7554535185       -3.4297150833       77.1191487294  TIP3      5274            0.0000000000
     67338      6635  TIP3      OH2           -19.5824879023       -4.2773169874       75.4351420544  TIP3      5275            0.0000000000
     67339      6635  TIP3      H1            -19.6568902258       -4.7253360775       76.3000763878  TIP3      5275            0.0000000000
     67340      6635  TIP3      H2            -18.7834860867       -4.6610970445       75.0143620651  TIP3      5275            0.0000000000
     67341      6636  TIP3      OH2           -17.5224794699       -5.5639666543       74.1605412725  TIP3      5276            0.0000000000
     67342      6636  TIP3      H1            -17.6556226450       -6.5088226173       74.2831942996  TIP3      5276            0.0000000000
     67343      6636  TIP3      H2            -16.6347044419       -5.4343348440       74.5302046067  TIP3      5276            0.0000000000
     67344      6637  TIP3      OH2           -11.4390855557      -19.4271851282       74.0705575517  TIP3      5277            0.0000000000
     67345      6637  TIP3      H1            -12.1121555707      -20.0538573638       74.3794005259  TIP3      5277            0.0000000000
     67346      6637  TIP3      H2            -10.8630948276      -19.9428730925       73.5184950384  TIP3      5277            0.0000000000
     67347      6638  TIP3      OH2           -19.1012877812      -20.8102941823       71.9716776935  TIP3      5278            0.0000000000
     67348      6638  TIP3      H1            -19.8609275420      -21.0238079681       71.4137177834  TIP3      5278            0.0000000000
     67349      6638  TIP3      H2            -18.5569088228      -21.6179164545       71.8976112601  TIP3      5278            0.0000000000
     67350      6639  TIP3      OH2           -14.5458495971      -20.8553687082       71.7269281426  TIP3      5279            0.0000000000
     67351      6639  TIP3      H1            -13.6361149648      -20.5314227727       71.6913119641  TIP3      5279            0.0000000000
     67352      6639  TIP3      H2            -14.6526759916      -21.0925832960       72.6542670221  TIP3      5279            0.0000000000
     67353      6640  TIP3      OH2            -7.6057234958      -20.8236179974       68.9858181215  TIP3      5280            0.0000000000
     67354      6640  TIP3      H1             -8.3544888898      -20.2280665674       68.8396369018  TIP3      5280            0.0000000000
     67355      6640  TIP3      H2             -8.0715646191      -21.6570106964       69.2450075828  TIP3      5280            0.0000000000
     67356      6641  TIP3      OH2           -20.3557906058       -5.0716179853       68.6434923571  TIP3      5281            0.0000000000
     67357      6641  TIP3      H1            -21.0402473249       -5.1160423244       67.9676174442  TIP3      5281            0.0000000000
     67358      6641  TIP3      H2            -20.3635320998       -4.1333951140       68.8567286670  TIP3      5281            0.0000000000
     67359      6642  TIP3      OH2           -13.4784368575      -18.8402328373       68.6126055095  TIP3      5282            0.0000000000
     67360      6642  TIP3      H1            -13.1550799976      -19.4645379362       69.2896145856  TIP3      5282            0.0000000000
     67361      6642  TIP3      H2            -13.3751780541      -17.9951886784       69.0644782987  TIP3      5282            0.0000000000
     67362      6643  TIP3      OH2           -11.4763186006       -3.6320144544       67.0670202250  TIP3      5283            0.0000000000
     67363      6643  TIP3      H1            -10.5600578193       -3.4979326532       66.8130230013  TIP3      5283            0.0000000000
     67364      6643  TIP3      H2            -11.7327144219       -4.2040569724       66.3228404393  TIP3      5283            0.0000000000
     67365      6644  TIP3      OH2            -4.8334443290       -4.2477508494       69.7086719169  TIP3      5284            0.0000000000
     67366      6644  TIP3      H1             -5.0006137963       -5.0627666024       69.1667591494  TIP3      5284            0.0000000000
     67367      6644  TIP3      H2             -4.8541351752       -3.5386255220       69.0706338760  TIP3      5284            0.0000000000
     67368      6645  TIP3      OH2           -19.1972183930      -20.2701547609       81.4514605824  TIP3      5285            0.0000000000
     67369      6645  TIP3      H1            -19.5519588081      -21.0930255233       81.8088684347  TIP3      5285            0.0000000000
     67370      6645  TIP3      H2            -18.2646935141      -20.3068945954       81.7260653236  TIP3      5285            0.0000000000
     67371      6646  TIP3      OH2           -17.1547006347      -20.8859227070       83.0620521966  TIP3      5286            0.0000000000
     67372      6646  TIP3      H1            -16.2983275238      -21.1949985302       82.7850951275  TIP3      5286            0.0000000000
     67373      6646  TIP3      H2            -17.5666847008      -21.6973884688       83.4230323598  TIP3      5286            0.0000000000
     67374      6647  TIP3      OH2           -18.5239762243       -4.1375065056       65.6328331794  TIP3      5287            0.0000000000
     67375      6647  TIP3      H1            -18.8321587019       -3.8487311963       66.4976493818  TIP3      5287            0.0000000000
     67376      6647  TIP3      H2            -17.7748934366       -4.6976377884       65.8111927763  TIP3      5287            0.0000000000
     67377      6648  TIP3      OH2            -5.5160725708       -5.5111969786       81.7700712595  TIP3      5288            0.0000000000
     67378      6648  TIP3      H1             -6.3397599195       -5.7327639750       81.3123303468  TIP3      5288            0.0000000000
     67379      6648  TIP3      H2             -5.6790767329       -4.5916711570       82.0717881759  TIP3      5288            0.0000000000
     67380      6649  TIP3      OH2             8.8381340311      -11.6664809732       71.8374701167  TIP3      5289            0.0000000000
     67381      6649  TIP3      H1              8.8911526948      -10.6895500125       71.7413827695  TIP3      5289            0.0000000000
     67382      6649  TIP3      H2              8.1755084261      -11.9110885157       71.1705580094  TIP3      5289            0.0000000000
     67383      6650  TIP3      OH2             7.7265279421      -12.3880748880       75.3013224758  TIP3      5290            0.0000000000
     67384      6650  TIP3      H1              7.7550029230      -13.0346332484       76.0219662612  TIP3      5290            0.0000000000
     67385      6650  TIP3      H2              7.4392544174      -12.8873447453       74.5293501862  TIP3      5290            0.0000000000
     67386      6651  TIP3      OH2             0.0684502379      -12.7438434107       76.8645136288  TIP3      5291            0.0000000000
     67387      6651  TIP3      H1              0.1885533066      -13.4391260588       77.5495701332  TIP3      5291            0.0000000000
     67388      6651  TIP3      H2              0.8506754370      -12.2066572725       77.0595932300  TIP3      5291            0.0000000000
     67389      6652  TIP3      OH2            11.4223113280       -9.4633375774       73.5662973233  TIP3      5292            0.0000000000
     67390      6652  TIP3      H1             11.0200779038      -10.1756224102       74.0698414072  TIP3      5292            0.0000000000
     67391      6652  TIP3      H2             11.4667335066       -8.7728055864       74.2458195455  TIP3      5292            0.0000000000
     67392      6653  TIP3      OH2             1.0689711871       -8.2866349004       75.3914953306  TIP3      5293            0.0000000000
     67393      6653  TIP3      H1              0.7263199260       -9.1415874729       75.0625003676  TIP3      5293            0.0000000000
     67394      6653  TIP3      H2              2.0131837218       -8.4857188298       75.4137525458  TIP3      5293            0.0000000000
     67395      6654  TIP3      OH2            -2.2974674950      -14.7357342681       70.8006738986  TIP3      5294            0.0000000000
     67396      6654  TIP3      H1             -2.7690789336      -13.8726329790       70.7856834697  TIP3      5294            0.0000000000
     67397      6654  TIP3      H2             -2.9131626668      -15.2721012520       70.2844716051  TIP3      5294            0.0000000000
     67398      6655  TIP3      OH2            -1.6380023018      -12.4837515830       72.9662021033  TIP3      5295            0.0000000000
     67399      6655  TIP3      H1             -1.3895045980      -13.2949983037       73.4546531240  TIP3      5295            0.0000000000
     67400      6655  TIP3      H2             -0.9080602479      -12.4057046723       72.3334020261  TIP3      5295            0.0000000000
     67401      6656  TIP3      OH2             6.1240015991      -10.0243025576       75.7878052809  TIP3      5296            0.0000000000
     67402      6656  TIP3      H1              6.4361614095      -10.6989836426       75.1625337326  TIP3      5296            0.0000000000
     67403      6656  TIP3      H2              6.9298720257       -9.9046076132       76.2968653999  TIP3      5296            0.0000000000
     67404      6657  TIP3      OH2             9.2215580057      -15.5650605698       76.0699830623  TIP3      5297            0.0000000000
     67405      6657  TIP3      H1              9.4887778603      -16.4984041171       76.0664527116  TIP3      5297            0.0000000000
     67406      6657  TIP3      H2              9.1791614076      -15.4007181932       75.1075441250  TIP3      5297            0.0000000000
     67407      6658  TIP3      OH2            10.1599041563      -17.3685078764       71.6759201533  TIP3      5298            0.0000000000
     67408      6658  TIP3      H1             10.8113941353      -17.6944167487       72.3306270161  TIP3      5298            0.0000000000
     67409      6658  TIP3      H2             10.7034178780      -16.8028325918       71.1040794135  TIP3      5298            0.0000000000
     67410      6659  TIP3      OH2            -0.9935095600      -15.0527424091       74.0368808942  TIP3      5299            0.0000000000
     67411      6659  TIP3      H1             -0.3019703532      -15.5777954971       74.4935463515  TIP3      5299            0.0000000000
     67412      6659  TIP3      H2             -0.8621800465      -15.3481968611       73.1261291650  TIP3      5299            0.0000000000
     67413      6660  TIP3      OH2             4.2185937526      -13.4902255310       73.3216183858  TIP3      5300            0.0000000000
     67414      6660  TIP3      H1              4.7945613454      -14.1102493316       73.7707789072  TIP3      5300            0.0000000000
     67415      6660  TIP3      H2              3.6665781897      -14.1429687024       72.8352404111  TIP3      5300            0.0000000000
     67416      6661  TIP3      OH2             8.5880567453       -9.0869074773       70.8822352847  TIP3      5301            0.0000000000
     67417      6661  TIP3      H1              8.3217276945       -9.3427856998       69.9879267799  TIP3      5301            0.0000000000
     67418      6661  TIP3      H2              8.3443865696       -8.1533021622       70.9368843182  TIP3      5301            0.0000000000
     67419      6662  TIP3      OH2             3.8405594153      -10.9043640447       77.5906584497  TIP3      5302            0.0000000000
     67420      6662  TIP3      H1              3.0917787319      -10.2948245936       77.7894981219  TIP3      5302            0.0000000000
     67421      6662  TIP3      H2              4.5317085362      -10.2975348007       77.3035384022  TIP3      5302            0.0000000000
     67422      6663  TIP3      OH2            11.9531855859      -18.0706121883       73.6564312985  TIP3      5303            0.0000000000
     67423      6663  TIP3      H1             11.6846868932      -18.7988902649       74.2255949870  TIP3      5303            0.0000000000
     67424      6663  TIP3      H2             12.5650722760      -17.5691524534       74.2153206070  TIP3      5303            0.0000000000
     67425      6664  TIP3      OH2             0.8027201179      -16.6394543232       75.3266280972  TIP3      5304            0.0000000000
     67426      6664  TIP3      H1              1.4384615958      -16.0150572066       75.7307730060  TIP3      5304            0.0000000000
     67427      6664  TIP3      H2              1.3153110990      -17.1296014250       74.6783385663  TIP3      5304            0.0000000000
     67428      6665  TIP3      OH2             2.2956337712       -8.9149006161       78.3905468104  TIP3      5305            0.0000000000
     67429      6665  TIP3      H1              2.2318210715       -7.9924401984       78.0924110076  TIP3      5305            0.0000000000
     67430      6665  TIP3      H2              1.4274900039       -8.9958143492       78.8514814580  TIP3      5305            0.0000000000
     67431      6666  TIP3      OH2            -1.6508486867       -9.2869103255       69.1728561688  TIP3      5306            0.0000000000
     67432      6666  TIP3      H1             -1.9149447631       -8.9656441050       68.2956513330  TIP3      5306            0.0000000000
     67433      6666  TIP3      H2             -1.5717175941       -8.4586273188       69.6924965358  TIP3      5306            0.0000000000
     67434      6667  TIP3      OH2            11.9700098925       -7.6213810441       75.9600350373  TIP3      5307            0.0000000000
     67435      6667  TIP3      H1             11.0125101877       -7.5616287830       76.0719250667  TIP3      5307            0.0000000000
     67436      6667  TIP3      H2             12.2126084518       -6.6962494493       75.7650534672  TIP3      5307            0.0000000000
     67437      6668  TIP3      OH2            12.2546093674      -19.3344900955       77.2653976058  TIP3      5308            0.0000000000
     67438      6668  TIP3      H1             11.5266278433      -18.6972119521       77.3008388954  TIP3      5308            0.0000000000
     67439      6668  TIP3      H2             12.9652468967      -18.8663277989       76.8348140675  TIP3      5308            0.0000000000
     67440      6669  TIP3      OH2            10.2358705971       -5.8336636968       72.5881480205  TIP3      5309            0.0000000000
     67441      6669  TIP3      H1             10.6376458098       -6.5394886737       72.0382496772  TIP3      5309            0.0000000000
     67442      6669  TIP3      H2             10.6088028072       -5.0422361992       72.1497720693  TIP3      5309            0.0000000000
     67443      6670  TIP3      OH2            11.4113634322       -7.9231798077       71.0806620415  TIP3      5310            0.0000000000
     67444      6670  TIP3      H1             11.1400288987       -8.6092591470       70.4498816248  TIP3      5310            0.0000000000
     67445      6670  TIP3      H2             11.4635449743       -8.4276241341       71.9085807847  TIP3      5310            0.0000000000
     67446      6671  TIP3      OH2            13.1048292184       -9.3414041278       79.5584034209  TIP3      5311            0.0000000000
     67447      6671  TIP3      H1             13.1820300433       -9.9672603999       78.8078094802  TIP3      5311            0.0000000000
     67448      6671  TIP3      H2             13.2683870722       -8.4746981180       79.1388965042  TIP3      5311            0.0000000000
     67449      6672  TIP3      OH2             7.5520969881      -12.4306448583       69.3339930401  TIP3      5312            0.0000000000
     67450      6672  TIP3      H1              6.8430042732      -11.8751626651       68.9558758124  TIP3      5312            0.0000000000
     67451      6672  TIP3      H2              8.2444247555      -12.3392678571       68.6544346348  TIP3      5312            0.0000000000
     67452      6673  TIP3      OH2             7.6019721321      -13.9216152180       66.4054828506  TIP3      5313            0.0000000000
     67453      6673  TIP3      H1              8.3395725983      -13.8996014051       67.0296432169  TIP3      5313            0.0000000000
     67454      6673  TIP3      H2              7.9239252673      -14.5400867685       65.7387250849  TIP3      5313            0.0000000000
     67455      6674  TIP3      OH2            14.9286545970      -12.9987331918       77.6142267205  TIP3      5314            0.0000000000
     67456      6674  TIP3      H1             14.2341991134      -12.3065056182       77.6449426826  TIP3      5314            0.0000000000
     67457      6674  TIP3      H2             15.4059890610      -12.8299971946       76.7984466319  TIP3      5314            0.0000000000
     67458      6675  TIP3      OH2            10.9478695297      -12.2412840436       70.2280146116  TIP3      5315            0.0000000000
     67459      6675  TIP3      H1             10.2397812115      -11.9709878358       70.8565348832  TIP3      5315            0.0000000000
     67460      6675  TIP3      H2             11.4511867662      -12.8818864004       70.7668893337  TIP3      5315            0.0000000000
     67461      6676  TIP3      OH2            10.9308578331      -14.0439666872       79.3509899047  TIP3      5316            0.0000000000
     67462      6676  TIP3      H1             10.9266541974      -13.2469069939       79.8980029396  TIP3      5316            0.0000000000
     67463      6676  TIP3      H2             10.2836763200      -13.7627929932       78.6685816276  TIP3      5316            0.0000000000
     67464      6677  TIP3      OH2             2.6430721765      -11.5447566463       72.1605786880  TIP3      5317            0.0000000000
     67465      6677  TIP3      H1              2.2944334442      -11.9481613699       71.3285341374  TIP3      5317            0.0000000000
     67466      6677  TIP3      H2              3.2217819551      -12.2625854972       72.5023866443  TIP3      5317            0.0000000000
     67467      6678  TIP3      OH2             3.9379527247       -8.1878456143       74.8918915543  TIP3      5318            0.0000000000
     67468      6678  TIP3      H1              3.8837130454       -8.6833982030       74.0590209658  TIP3      5318            0.0000000000
     67469      6678  TIP3      H2              4.7157609116       -8.5677490877       75.3204871778  TIP3      5318            0.0000000000
     67470      6679  TIP3      OH2             2.9100586184      -12.7596589174       75.7577692256  TIP3      5319            0.0000000000
     67471      6679  TIP3      H1              3.5086713535      -12.7067887848       75.0026213526  TIP3      5319            0.0000000000
     67472      6679  TIP3      H2              3.3195091411      -12.1959316048       76.4372272882  TIP3      5319            0.0000000000
     67473      6680  TIP3      OH2             9.8849897746      -13.0515568175       67.8969881048  TIP3      5320            0.0000000000
     67474      6680  TIP3      H1             10.4003039696      -12.8443368780       68.7236070769  TIP3      5320            0.0000000000
     67475      6680  TIP3      H2             10.2577119756      -12.4626519160       67.2314518120  TIP3      5320            0.0000000000
     67476      6681  TIP3      OH2             0.8334180563      -12.2208577722       79.6823594870  TIP3      5321            0.0000000000
     67477      6681  TIP3      H1              0.8489817184      -11.5497532728       80.3880917518  TIP3      5321            0.0000000000
     67478      6681  TIP3      H2             -0.1061601605      -12.1508522677       79.4452177189  TIP3      5321            0.0000000000
     67479      6682  TIP3      OH2             2.1463425684       -6.3139221454       81.2663900943  TIP3      5322            0.0000000000
     67480      6682  TIP3      H1              2.1165082048       -6.4845011430       80.3123554153  TIP3      5322            0.0000000000
     67481      6682  TIP3      H2              1.2222988344       -6.4716783187       81.5353423885  TIP3      5322            0.0000000000
     67482      6683  TIP3      OH2            13.6017702909      -21.2952977985       67.7930206082  TIP3      5323            0.0000000000
     67483      6683  TIP3      H1             12.6463265657      -21.1981860247       68.0268757130  TIP3      5323            0.0000000000
     67484      6683  TIP3      H2             13.7864388152      -20.4380892692       67.3895929468  TIP3      5323            0.0000000000
     67485      6684  TIP3      OH2             1.5656940029      -12.5106992752       69.7811115357  TIP3      5324            0.0000000000
     67486      6684  TIP3      H1              1.2887404524      -11.7444972383       69.2358250300  TIP3      5324            0.0000000000
     67487      6684  TIP3      H2              0.9116665083      -13.1733346455       69.5426058812  TIP3      5324            0.0000000000
     67488      6685  TIP3      OH2            15.5167459151       -6.8229392888       80.7751634871  TIP3      5325            0.0000000000
     67489      6685  TIP3      H1             15.5646969838       -7.7045434926       81.1523886651  TIP3      5325            0.0000000000
     67490      6685  TIP3      H2             14.9403032641       -6.4056578036       81.4720869010  TIP3      5325            0.0000000000
     67491      6686  TIP3      OH2             0.7030587202       -4.5195407178       71.6064805577  TIP3      5326            0.0000000000
     67492      6686  TIP3      H1              0.8541331154       -4.9215240187       72.4883915124  TIP3      5326            0.0000000000
     67493      6686  TIP3      H2             -0.1497637182       -4.9207255689       71.3734135957  TIP3      5326            0.0000000000
     67494      6687  TIP3      OH2            12.7767983902      -15.1804777258       81.6218887978  TIP3      5327            0.0000000000
     67495      6687  TIP3      H1             12.3539048517      -14.7407683321       80.8753427866  TIP3      5327            0.0000000000
     67496      6687  TIP3      H2             12.8375327722      -16.0916568358       81.3112173131  TIP3      5327            0.0000000000
     67497      6688  TIP3      OH2            -0.0710135342       -8.8110189719       79.5985322152  TIP3      5328            0.0000000000
     67498      6688  TIP3      H1              0.1547493015       -9.1599667745       80.4892388341  TIP3      5328            0.0000000000
     67499      6688  TIP3      H2             -0.9331977793       -9.1905428360       79.4180428184  TIP3      5328            0.0000000000
     67500      6689  TIP3      OH2            10.6205682639      -16.7996783364       79.8046852371  TIP3      5329            0.0000000000
     67501      6689  TIP3      H1             10.0489354895      -17.0338956649       80.5720241868  TIP3      5329            0.0000000000
     67502      6689  TIP3      H2             10.3968744878      -15.8826925943       79.5905330814  TIP3      5329            0.0000000000
     67503      6690  TIP3      OH2             6.8201074353      -18.0802958478       66.2155384117  TIP3      5330            0.0000000000
     67504      6690  TIP3      H1              6.6413304976      -18.1061895818       67.1671574465  TIP3      5330            0.0000000000
     67505      6690  TIP3      H2              6.6460349643      -18.9964464054       65.9875517693  TIP3      5330            0.0000000000
     67506      6691  TIP3      OH2             2.6805637682      -15.1776238102       71.6352463593  TIP3      5331            0.0000000000
     67507      6691  TIP3      H1              1.7574417688      -15.4857617077       71.5527889212  TIP3      5331            0.0000000000
     67508      6691  TIP3      H2              3.0812686422      -15.5640347027       70.8314948301  TIP3      5331            0.0000000000
     67509      6692  TIP3      OH2             8.2144987536      -14.7444317191       70.4362664645  TIP3      5332            0.0000000000
     67510      6692  TIP3      H1              7.7973681428      -13.9204841612       70.0977175337  TIP3      5332            0.0000000000
     67511      6692  TIP3      H2              8.8967883668      -14.9022030151       69.7616707761  TIP3      5332            0.0000000000
     67512      6693  TIP3      OH2             7.2595641261      -14.5223597527       81.8711239643  TIP3      5333            0.0000000000
     67513      6693  TIP3      H1              6.7330404689      -15.2887696231       82.1893832539  TIP3      5333            0.0000000000
     67514      6693  TIP3      H2              8.0973451239      -14.6609697948       82.3391239757  TIP3      5333            0.0000000000
     67515      6694  TIP3      OH2             9.2137439638      -15.2673002236       73.2956834573  TIP3      5334            0.0000000000
     67516      6694  TIP3      H1              8.9716794318      -14.6864767241       72.5523074758  TIP3      5334            0.0000000000
     67517      6694  TIP3      H2              9.3527289746      -16.0898338911       72.7827570568  TIP3      5334            0.0000000000
     67518      6695  TIP3      OH2             0.3089668908      -15.0489550854       78.5179940036  TIP3      5335            0.0000000000
     67519      6695  TIP3      H1              0.4276289530      -14.6688260885       79.3965680390  TIP3      5335            0.0000000000
     67520      6695  TIP3      H2             -0.0951944733      -15.9030666505       78.6635403131  TIP3      5335            0.0000000000
     67521      6696  TIP3      OH2            -1.7123960982      -17.2065536662       67.9239442820  TIP3      5336            0.0000000000
     67522      6696  TIP3      H1             -1.2414796169      -16.6466494310       67.3034986092  TIP3      5336            0.0000000000
     67523      6696  TIP3      H2             -2.4400666357      -16.6213131413       68.1934557546  TIP3      5336            0.0000000000
     67524      6697  TIP3      OH2             8.4630436929      -13.6619491795       77.8458867161  TIP3      5337            0.0000000000
     67525      6697  TIP3      H1              8.8129561427      -14.3694368775       77.2684741163  TIP3      5337            0.0000000000
     67526      6697  TIP3      H2              8.0019711023      -14.1740679030       78.5401695392  TIP3      5337            0.0000000000
     67527      6698  TIP3      OH2             0.0688750791      -16.0982486955       71.5403101058  TIP3      5338            0.0000000000
     67528      6698  TIP3      H1             -0.8258579494      -15.9775163179       71.1512989682  TIP3      5338            0.0000000000
     67529      6698  TIP3      H2              0.3298865915      -16.9468076836       71.1596956373  TIP3      5338            0.0000000000
     67530      6699  TIP3      OH2             3.6736552211      -16.0245985175       69.2007873880  TIP3      5339            0.0000000000
     67531      6699  TIP3      H1              4.6428296304      -16.0207414771       69.3240531787  TIP3      5339            0.0000000000
     67532      6699  TIP3      H2              3.5016958176      -15.3892789476       68.5033042154  TIP3      5339            0.0000000000
     67533      6700  TIP3      OH2             9.6375651332      -18.4345227427       75.9224875487  TIP3      5340            0.0000000000
     67534      6700  TIP3      H1              8.9676910438      -18.4008341847       76.6166790221  TIP3      5340            0.0000000000
     67535      6700  TIP3      H2              9.1557389234      -18.6912262378       75.1313214718  TIP3      5340            0.0000000000
     67536      6701  TIP3      OH2             0.5554088504      -10.3159029561       81.8108791249  TIP3      5341            0.0000000000
     67537      6701  TIP3      H1              1.2556526862      -10.0636741171       82.4401201219  TIP3      5341            0.0000000000
     67538      6701  TIP3      H2             -0.2372545483      -10.2382425517       82.3886108314  TIP3      5341            0.0000000000
     67539      6702  TIP3      OH2             5.7602020405      -10.3846799325       68.7069398620  TIP3      5342            0.0000000000
     67540      6702  TIP3      H1              4.9606757658      -10.8369881566       68.3562265483  TIP3      5342            0.0000000000
     67541      6702  TIP3      H2              5.5333499613      -10.2719475245       69.6477498277  TIP3      5342            0.0000000000
     67542      6703  TIP3      OH2            12.9372085940      -11.1634429223       77.4933272772  TIP3      5343            0.0000000000
     67543      6703  TIP3      H1             13.4929571983      -10.6783866778       76.8617946572  TIP3      5343            0.0000000000
     67544      6703  TIP3      H2             12.0639758480      -11.1144612214       77.0389153034  TIP3      5343            0.0000000000
     67545      6704  TIP3      OH2             9.5996974920      -17.5662483343       66.8470026831  TIP3      5344            0.0000000000
     67546      6704  TIP3      H1              8.6524704189      -17.4183717248       66.7002960340  TIP3      5344            0.0000000000
     67547      6704  TIP3      H2              9.9078925445      -16.7020177665       67.1803151670  TIP3      5344            0.0000000000
     67548      6705  TIP3      OH2             7.1463376802      -10.1297594419       79.8960321059  TIP3      5345            0.0000000000
     67549      6705  TIP3      H1              6.9330339585      -10.5372369093       80.7428623266  TIP3      5345            0.0000000000
     67550      6705  TIP3      H2              7.0578464659       -9.1896304484       80.0570220592  TIP3      5345            0.0000000000
     67551      6706  TIP3      OH2            10.3232747617      -15.6504303231       68.5276246799  TIP3      5346            0.0000000000
     67552      6706  TIP3      H1             11.2259054416      -15.7815122768       68.8869156364  TIP3      5346            0.0000000000
     67553      6706  TIP3      H2             10.3951804957      -14.8350668280       68.0107462511  TIP3      5346            0.0000000000
     67554      6707  TIP3      OH2             0.8536925772      -10.9977528630       74.4987461888  TIP3      5347            0.0000000000
     67555      6707  TIP3      H1              1.5381633353      -11.0602761648       73.8073524739  TIP3      5347            0.0000000000
     67556      6707  TIP3      H2              0.9476306507      -11.8640882361       74.9425785035  TIP3      5347            0.0000000000
     67557      6708  TIP3      OH2             7.8514149927       -8.8644221497       67.7430100034  TIP3      5348            0.0000000000
     67558      6708  TIP3      H1              7.5101699329       -8.0413975091       68.0773943479  TIP3      5348            0.0000000000
     67559      6708  TIP3      H2              7.1357476864       -9.5059735583       67.9115893202  TIP3      5348            0.0000000000
     67560      6709  TIP3      OH2            -2.1499396420      -12.5743508738       79.7459738356  TIP3      5349            0.0000000000
     67561      6709  TIP3      H1             -1.9562822279      -13.0143258585       80.5911745413  TIP3      5349            0.0000000000
     67562      6709  TIP3      H2             -2.7560308193      -13.1940143406       79.3092817660  TIP3      5349            0.0000000000
     67563      6710  TIP3      OH2             4.8644029155      -13.0174634936       81.9653730545  TIP3      5350            0.0000000000
     67564      6710  TIP3      H1              4.5485419014      -13.2845105737       81.0820686443  TIP3      5350            0.0000000000
     67565      6710  TIP3      H2              5.7931451166      -13.3260989782       81.9216554233  TIP3      5350            0.0000000000
     67566      6711  TIP3      OH2            15.1603661395      -15.4918405811       68.2513279796  TIP3      5351            0.0000000000
     67567      6711  TIP3      H1             14.6639627131      -15.8464207551       67.5128780678  TIP3      5351            0.0000000000
     67568      6711  TIP3      H2             15.2913104213      -14.5644298105       67.9674546626  TIP3      5351            0.0000000000
     67569      6712  TIP3      OH2            15.2317776236       -9.7211457390       81.0696174316  TIP3      5352            0.0000000000
     67570      6712  TIP3      H1             14.3609949497       -9.3949216416       80.7232832864  TIP3      5352            0.0000000000
     67571      6712  TIP3      H2             15.7760425209       -9.6352989084       80.2698986472  TIP3      5352            0.0000000000
     67572      6713  TIP3      OH2            13.5308170110       -6.6578165320       68.6537411717  TIP3      5353            0.0000000000
     67573      6713  TIP3      H1             13.1401287533       -7.4703023445       69.0153482675  TIP3      5353            0.0000000000
     67574      6713  TIP3      H2             13.7943584345       -6.8837446621       67.7606224808  TIP3      5353            0.0000000000
     67575      6714  TIP3      OH2            10.7286732374      -11.8370225439       75.7669095740  TIP3      5354            0.0000000000
     67576      6714  TIP3      H1              9.7845222806      -12.0444087937       75.6834721952  TIP3      5354            0.0000000000
     67577      6714  TIP3      H2             11.1334518850      -12.6122431149       75.3482479782  TIP3      5354            0.0000000000
     67578      6715  TIP3      OH2             3.2284965459       -7.5288636539       71.8046991604  TIP3      5355            0.0000000000
     67579      6715  TIP3      H1              3.7476874669       -6.7258602965       71.6743917577  TIP3      5355            0.0000000000
     67580      6715  TIP3      H2              2.3332606855       -7.2689518653       71.5518541054  TIP3      5355            0.0000000000
     67581      6716  TIP3      OH2             4.6730599579       -9.8470354990       71.4036911484  TIP3      5356            0.0000000000
     67582      6716  TIP3      H1              4.3245550283       -8.9366599683       71.4704449131  TIP3      5356            0.0000000000
     67583      6716  TIP3      H2              3.9315478125      -10.3392264789       71.8170775265  TIP3      5356            0.0000000000
     67584      6717  TIP3      OH2            15.4620494836       -4.2064236388       66.7482395026  TIP3      5357            0.0000000000
     67585      6717  TIP3      H1             16.1738018247       -3.5789768327       66.5528233952  TIP3      5357            0.0000000000
     67586      6717  TIP3      H2             14.7330525428       -3.6246316857       67.0398010489  TIP3      5357            0.0000000000
     67587      6718  TIP3      OH2            11.7721211470      -10.0363901378       68.7373480453  TIP3      5358            0.0000000000
     67588      6718  TIP3      H1             11.4918632822      -10.7846512152       69.2917400341  TIP3      5358            0.0000000000
     67589      6718  TIP3      H2             12.7110024509       -9.9318147645       68.9488661212  TIP3      5358            0.0000000000
     67590      6719  TIP3      OH2            -0.8434907761       -6.0324527860       77.7317896117  TIP3      5359            0.0000000000
     67591      6719  TIP3      H1             -0.5983851688       -6.9692242921       77.7140319822  TIP3      5359            0.0000000000
     67592      6719  TIP3      H2             -0.6331577657       -5.7623847565       78.6304562662  TIP3      5359            0.0000000000
     67593      6720  TIP3      OH2             3.8734329646       -7.9913900021       67.4113757140  TIP3      5360            0.0000000000
     67594      6720  TIP3      H1              4.1067148565       -8.5415827796       68.1707830474  TIP3      5360            0.0000000000
     67595      6720  TIP3      H2              3.9345701898       -7.0770988193       67.7493940491  TIP3      5360            0.0000000000
     67596      6721  TIP3      OH2             0.3901279379      -10.7347234488       67.9110280318  TIP3      5361            0.0000000000
     67597      6721  TIP3      H1             -0.3041126489      -10.3411684415       68.4749818212  TIP3      5361            0.0000000000
     67598      6721  TIP3      H2              0.9311826051       -9.9730458504       67.6770728182  TIP3      5361            0.0000000000
     67599      6722  TIP3      OH2             8.9912572243      -18.5067046521       69.3433485294  TIP3      5362            0.0000000000
     67600      6722  TIP3      H1              9.2142942956      -18.0292586341       68.5271459522  TIP3      5362            0.0000000000
     67601      6722  TIP3      H2              9.5161680014      -18.0420773863       70.0046963746  TIP3      5362            0.0000000000
     67602      6723  TIP3      OH2             6.1968526764      -16.6742225787       70.1069569299  TIP3      5363            0.0000000000
     67603      6723  TIP3      H1              7.0206565070      -16.1617406908       70.1649165808  TIP3      5363            0.0000000000
     67604      6723  TIP3      H2              5.9696958571      -16.8436399506       71.0225995725  TIP3      5363            0.0000000000
     67605      6724  TIP3      OH2             6.8530683273      -15.6862494940       79.2940216587  TIP3      5364            0.0000000000
     67606      6724  TIP3      H1              6.8212348175      -15.1535317200       80.1118156065  TIP3      5364            0.0000000000
     67607      6724  TIP3      H2              7.4289776519      -16.4138496459       79.5153210086  TIP3      5364            0.0000000000
     67608      6725  TIP3      OH2             4.0170251907       -5.2729131129       68.1303887619  TIP3      5365            0.0000000000
     67609      6725  TIP3      H1              4.2003547319       -4.4554670691       67.6630680221  TIP3      5365            0.0000000000
     67610      6725  TIP3      H2              3.7823684378       -4.9746672901       69.0256655438  TIP3      5365            0.0000000000
     67611      6726  TIP3      OH2            11.5491138110      -14.0678701706       74.2108901478  TIP3      5366            0.0000000000
     67612      6726  TIP3      H1             10.7223708127      -14.4948076426       73.9314170305  TIP3      5366            0.0000000000
     67613      6726  TIP3      H2             11.9980204211      -14.7563815663       74.7379883230  TIP3      5366            0.0000000000
     67614      6727  TIP3      OH2             0.9629198196       -8.1100470366       66.7847194728  TIP3      5367            0.0000000000
     67615      6727  TIP3      H1              1.6183413102       -7.4951190332       67.1330155450  TIP3      5367            0.0000000000
     67616      6727  TIP3      H2              1.4923825250       -8.5770459758       66.1283489069  TIP3      5367            0.0000000000
     67617      6728  TIP3      OH2            12.5724016412       -4.8156613625       75.8585255831  TIP3      5368            0.0000000000
     67618      6728  TIP3      H1             12.4996143562       -4.1385930927       75.1852090343  TIP3      5368            0.0000000000
     67619      6728  TIP3      H2             13.5265923249       -4.7502592136       76.0863429700  TIP3      5368            0.0000000000
     67620      6729  TIP3      OH2            -0.9347331537       -6.7838549795       70.8085918349  TIP3      5369            0.0000000000
     67621      6729  TIP3      H1             -1.7725818942       -6.2996544686       70.8011423944  TIP3      5369            0.0000000000
     67622      6729  TIP3      H2             -0.4491901647       -6.2894787710       70.1335164366  TIP3      5369            0.0000000000
     67623      6730  TIP3      OH2            -1.7205600152       -4.1251718881       82.1207285659  TIP3      5370            0.0000000000
     67624      6730  TIP3      H1             -1.1228955315       -4.3159970777       82.8720372555  TIP3      5370            0.0000000000
     67625      6730  TIP3      H2             -2.1250112826       -4.9895741291       81.9400347957  TIP3      5370            0.0000000000
     67626      6731  TIP3      OH2             2.9795531685       -5.1756266786       83.7339710543  TIP3      5371            0.0000000000
     67627      6731  TIP3      H1              3.7483842530       -5.6886967517       84.0378507631  TIP3      5371            0.0000000000
     67628      6731  TIP3      H2              2.9136936691       -5.4996902286       82.8067397681  TIP3      5371            0.0000000000
     67629      6732  TIP3      OH2            -1.7888927543      -10.3375427746       83.0685815693  TIP3      5372            0.0000000000
     67630      6732  TIP3      H1             -1.6477284354      -11.2688440255       82.8036180662  TIP3      5372            0.0000000000
     67631      6732  TIP3      H2             -2.5652538808      -10.0925854456       82.5541827305  TIP3      5372            0.0000000000
     67632      6733  TIP3      OH2             4.9030749338      -10.3380888415       82.4947054726  TIP3      5373            0.0000000000
     67633      6733  TIP3      H1              4.5397786038      -10.0787087405       81.6439700210  TIP3      5373            0.0000000000
     67634      6733  TIP3      H2              5.0225383853      -11.3052984087       82.3852004336  TIP3      5373            0.0000000000
     67635      6734  TIP3      OH2            10.6041100632      -10.4561248186       79.9074191695  TIP3      5374            0.0000000000
     67636      6734  TIP3      H1             11.3937784789       -9.8887810870       79.8040974991  TIP3      5374            0.0000000000
     67637      6734  TIP3      H2              9.8652992597       -9.8338306404       79.9198453626  TIP3      5374            0.0000000000
     67638      6735  TIP3      OH2            -0.8772060204      -13.1083454266       82.4954897321  TIP3      5375            0.0000000000
     67639      6735  TIP3      H1             -0.4874606474      -13.9798701776       82.3941631765  TIP3      5375            0.0000000000
     67640      6735  TIP3      H2             -1.1380696364      -13.1127437196       83.4376989115  TIP3      5375            0.0000000000
     67641      6736  TIP3      OH2             3.7598286419      -11.9678312686       67.5320150712  TIP3      5376            0.0000000000
     67642      6736  TIP3      H1              3.2562152839      -12.4852035754       68.1779321131  TIP3      5376            0.0000000000
     67643      6736  TIP3      H2              4.0381453307      -12.6643635986       66.8903944674  TIP3      5376            0.0000000000
     67644      6737  TIP3      OH2             3.0230374013      -14.1079273901       79.9253532823  TIP3      5377            0.0000000000
     67645      6737  TIP3      H1              2.3826075668      -13.4093870683       80.0916002271  TIP3      5377            0.0000000000
     67646      6737  TIP3      H2              3.3790898228      -13.8445589266       79.0546932993  TIP3      5377            0.0000000000
     67647      6738  TIP3      OH2             4.8055925749      -13.7617223966       65.7404267961  TIP3      5378            0.0000000000
     67648      6738  TIP3      H1              4.7447783413      -13.8520047333       64.7923426580  TIP3      5378            0.0000000000
     67649      6738  TIP3      H2              5.7758681779      -13.6755169761       65.8659600824  TIP3      5378            0.0000000000
     67650      6739  TIP3      OH2             8.0644764299      -11.6115742583       83.2124688785  TIP3      5379            0.0000000000
     67651      6739  TIP3      H1              9.0197861685      -11.6072608420       83.0666497833  TIP3      5379            0.0000000000
     67652      6739  TIP3      H2              7.8996646388      -12.3842528761       83.7734732811  TIP3      5379            0.0000000000
     67653      6740  TIP3      OH2             5.3935938519      -12.9230521041       78.6995319448  TIP3      5380            0.0000000000
     67654      6740  TIP3      H1              6.1203938534      -13.0904021781       78.1000270647  TIP3      5380            0.0000000000
     67655      6740  TIP3      H2              4.9756260018      -12.1204701439       78.3584139700  TIP3      5380            0.0000000000
     67656      6741  TIP3      OH2             9.7593374048      -15.1633724911       83.6738058074  TIP3      5381            0.0000000000
     67657      6741  TIP3      H1              9.9901952838      -16.1005845983       83.5923670249  TIP3      5381            0.0000000000
     67658      6741  TIP3      H2             10.6272939867      -14.7348212194       83.6669808648  TIP3      5381            0.0000000000
     67659      6742  TIP3      OH2            11.0944022852      -12.3325252931       81.8295010507  TIP3      5382            0.0000000000
     67660      6742  TIP3      H1             10.8319333455      -11.6326879017       81.1947930710  TIP3      5382            0.0000000000
     67661      6742  TIP3      H2             12.0399521220      -12.4002424221       81.6005423853  TIP3      5382            0.0000000000
     67662      6743  TIP3      OH2             5.8529071100      -16.6446182183       82.4621628035  TIP3      5383            0.0000000000
     67663      6743  TIP3      H1              5.5885633232      -16.8626472106       83.3680544182  TIP3      5383            0.0000000000
     67664      6743  TIP3      H2              5.0662273155      -16.8738907493       81.9381687821  TIP3      5383            0.0000000000
     67665      6744  TIP3      OH2             8.5618271596      -17.4976023547       81.5363730372  TIP3      5384            0.0000000000
     67666      6744  TIP3      H1              7.6072215375      -17.4497881210       81.6946725615  TIP3      5384            0.0000000000
     67667      6744  TIP3      H2              8.8682422572      -18.1425924810       82.2007136286  TIP3      5384            0.0000000000
     67668      6745  TIP3      OH2            10.1689468972      -18.8779788514       83.4611462385  TIP3      5385            0.0000000000
     67669      6745  TIP3      H1             10.1145797310      -19.8534952076       83.4922877992  TIP3      5385            0.0000000000
     67670      6745  TIP3      H2              9.8991050823      -18.5922454247       84.3645592301  TIP3      5385            0.0000000000
     67671      6746  TIP3      OH2            -1.7382635643       -8.4280432472       66.2648001018  TIP3      5386            0.0000000000
     67672      6746  TIP3      H1             -0.7860594383       -8.3746334498       66.5091377930  TIP3      5386            0.0000000000
     67673      6746  TIP3      H2             -1.7582042377       -9.0969092908       65.5735312732  TIP3      5386            0.0000000000
     67674      6747  TIP3      OH2            -3.0115036997       -3.0731960475       71.2508305874  TIP3      5387            0.0000000000
     67675      6747  TIP3      H1             -3.7262993394       -3.5649628994       70.7943066512  TIP3      5387            0.0000000000
     67676      6747  TIP3      H2             -2.7361501785       -3.7265168646       71.9264619780  TIP3      5387            0.0000000000
     67677      6748  TIP3      OH2            -2.1721689657       -4.9592827575       73.1201855390  TIP3      5388            0.0000000000
     67678      6748  TIP3      H1             -2.5489785885       -5.8275811629       73.3284034337  TIP3      5388            0.0000000000
     67679      6748  TIP3      H2             -1.9661660424       -4.6253523643       74.0110875545  TIP3      5388            0.0000000000
     67680      6749  TIP3      OH2            15.3459520624       -4.2060890041       76.0982811431  TIP3      5389            0.0000000000
     67681      6749  TIP3      H1             15.3221846962       -3.9858199187       77.0334762536  TIP3      5389            0.0000000000
     67682      6749  TIP3      H2             16.0115385030       -3.5922596761       75.7695285231  TIP3      5389            0.0000000000
     67683      6750  TIP3      OH2            13.3631946253       -8.8698494673       83.6832468123  TIP3      5390            0.0000000000
     67684      6750  TIP3      H1             12.4942586553       -8.8600276964       84.0907497477  TIP3      5390            0.0000000000
     67685      6750  TIP3      H2             13.7717190658       -8.0878797714       84.1159231660  TIP3      5390            0.0000000000
     67686      6751  TIP3      OH2            14.6789997992      -10.5227449128       69.1528719834  TIP3      5391            0.0000000000
     67687      6751  TIP3      H1             15.5299867815      -10.1097759639       69.3271520743  TIP3      5391            0.0000000000
     67688      6751  TIP3      H2             14.6847092069      -11.2529123690       69.8187056335  TIP3      5391            0.0000000000
     67689      6752  TIP3      OH2            15.0470352325      -12.4182584255       71.0068781024  TIP3      5392            0.0000000000
     67690      6752  TIP3      H1             14.3151661535      -12.9696327884       71.3538662129  TIP3      5392            0.0000000000
     67691      6752  TIP3      H2             15.6258523263      -12.3399312119       71.7664021305  TIP3      5392            0.0000000000
     67692      6753  TIP3      OH2            14.8295095283       -9.7632142976       75.9587766554  TIP3      5393            0.0000000000
     67693      6753  TIP3      H1             15.6605252438      -10.0624797490       75.5988740488  TIP3      5393            0.0000000000
     67694      6753  TIP3      H2             14.9166824411       -8.7934195567       75.8135847027  TIP3      5393            0.0000000000
     67695      6754  TIP3      OH2            13.3185605944       -6.8550727086       78.2580175040  TIP3      5394            0.0000000000
     67696      6754  TIP3      H1             12.6672344227       -6.4718590464       78.8518190465  TIP3      5394            0.0000000000
     67697      6754  TIP3      H2             12.7711108170       -7.2376610237       77.5468269850  TIP3      5394            0.0000000000
     67698      6755  TIP3      OH2            15.0590332080      -12.6964261877       67.4871472281  TIP3      5395            0.0000000000
     67699      6755  TIP3      H1             14.7742043105      -12.2529445594       66.6868501523  TIP3      5395            0.0000000000
     67700      6755  TIP3      H2             15.2581100108      -11.9248862497       68.0570316999  TIP3      5395            0.0000000000
     67701      6756  TIP3      OH2            12.8070185507      -13.9316649407       71.5919531750  TIP3      5396            0.0000000000
     67702      6756  TIP3      H1             12.7306159563      -14.9003915060       71.5374831244  TIP3      5396            0.0000000000
     67703      6756  TIP3      H2             12.4577689144      -13.7467724259       72.4773102810  TIP3      5396            0.0000000000
     67704      6757  TIP3      OH2            -2.1570060731      -11.8420164115       75.6250935363  TIP3      5397            0.0000000000
     67705      6757  TIP3      H1             -1.9536860491      -11.9678761655       74.6777328193  TIP3      5397            0.0000000000
     67706      6757  TIP3      H2             -1.2772148807      -12.0485315301       76.0100577709  TIP3      5397            0.0000000000
     67707      6758  TIP3      OH2            13.7183108600      -12.0056564418       81.3316507428  TIP3      5398            0.0000000000
     67708      6758  TIP3      H1             14.2993974354      -12.7750953735       81.4086055960  TIP3      5398            0.0000000000
     67709      6758  TIP3      H2             14.3039515378      -11.2245988812       81.2405378333  TIP3      5398            0.0000000000
     67710      6759  TIP3      OH2            12.9357466577      -17.9963982236       65.0157030090  TIP3      5399            0.0000000000
     67711      6759  TIP3      H1             13.5301096091      -18.3609849048       65.6932908303  TIP3      5399            0.0000000000
     67712      6759  TIP3      H2             12.0572347724      -18.3237290657       65.2390461234  TIP3      5399            0.0000000000
     67713      6760  TIP3      OH2            12.5434953941      -16.3687253250       70.0547622523  TIP3      5400            0.0000000000
     67714      6760  TIP3      H1             12.8271852474      -17.3063428758       70.1469245100  TIP3      5400            0.0000000000
     67715      6760  TIP3      H2             13.3365534385      -15.9729245199       69.6572085498  TIP3      5400            0.0000000000
     67716      6761  TIP3      OH2            13.1950458345      -15.8881638193       75.4632971862  TIP3      5401            0.0000000000
     67717      6761  TIP3      H1             14.1010381596      -15.5559685854       75.4345280495  TIP3      5401            0.0000000000
     67718      6761  TIP3      H2             12.9703292267      -15.6873958681       76.4021904204  TIP3      5401            0.0000000000
     67719      6762  TIP3      OH2            13.1688932517      -15.0944416515       78.1034455540  TIP3      5402            0.0000000000
     67720      6762  TIP3      H1             12.3567637006      -14.8310079912       78.5878140387  TIP3      5402            0.0000000000
     67721      6762  TIP3      H2             13.6571554094      -14.2405053894       78.0856764848  TIP3      5402            0.0000000000
     67722      6763  TIP3      OH2            -2.5124919514      -16.5631723651       81.8190762608  TIP3      5403            0.0000000000
     67723      6763  TIP3      H1             -1.5840614640      -16.7560028145       81.9784858826  TIP3      5403            0.0000000000
     67724      6763  TIP3      H2             -3.0287644909      -17.3328759155       82.0792880293  TIP3      5403            0.0000000000
     67725      6764  TIP3      OH2            15.4178740112      -21.0958563471       83.6026492106  TIP3      5404            0.0000000000
     67726      6764  TIP3      H1             15.8626238012      -21.7225709418       82.9970337352  TIP3      5404            0.0000000000
     67727      6764  TIP3      H2             15.6193563809      -20.2645390740       83.1283901642  TIP3      5404            0.0000000000
     67728      6765  TIP3      OH2            13.1952239836      -19.0864830396       70.0911000905  TIP3      5405            0.0000000000
     67729      6765  TIP3      H1             13.3892811449      -19.5616213420       70.9040605330  TIP3      5405            0.0000000000
     67730      6765  TIP3      H2             12.5928506544      -19.7016002886       69.6238800807  TIP3      5405            0.0000000000
     67731      6766  TIP3      OH2            -3.0474686882      -15.2673495322       75.6804019036  TIP3      5406            0.0000000000
     67732      6766  TIP3      H1             -2.4794616580      -15.4906076729       74.9180819937  TIP3      5406            0.0000000000
     67733      6766  TIP3      H2             -2.5685085160      -14.4821879621       75.9680915841  TIP3      5406            0.0000000000
     67734      6767  TIP3      OH2            15.0259500056      -19.0009002216       81.9712338741  TIP3      5407            0.0000000000
     67735      6767  TIP3      H1             14.1044251937      -18.6941281105       81.9618462694  TIP3      5407            0.0000000000
     67736      6767  TIP3      H2             15.1050454653      -19.4980442887       81.1489707570  TIP3      5407            0.0000000000
     67737      6768  TIP3      OH2            15.0266500636      -19.0621200188       66.6513711334  TIP3      5408            0.0000000000
     67738      6768  TIP3      H1             15.4529185657      -19.7652755714       66.1357663361  TIP3      5408            0.0000000000
     67739      6768  TIP3      H2             15.7013420504      -18.3754503027       66.6409121703  TIP3      5408            0.0000000000
     67740      6769  TIP3      OH2            -2.6674279194      -19.0047182951       69.7980358655  TIP3      5409            0.0000000000
     67741      6769  TIP3      H1             -3.5986967542      -18.8489619389       69.5904855615  TIP3      5409            0.0000000000
     67742      6769  TIP3      H2             -2.2337934561      -18.5888235395       69.0327454303  TIP3      5409            0.0000000000
     67743      6770  TIP3      OH2            12.0533541195       -4.0526523700       71.6791187023  TIP3      5410            0.0000000000
     67744      6770  TIP3      H1             12.7476804109       -4.3942194163       71.0859661255  TIP3      5410            0.0000000000
     67745      6770  TIP3      H2             12.5779387351       -3.5404173969       72.3060159209  TIP3      5410            0.0000000000
     67746      6771  TIP3      OH2            -0.4762870720       -7.1369620275       82.2430145109  TIP3      5411            0.0000000000
     67747      6771  TIP3      H1             -1.3157262756       -6.9390486089       81.7938527721  TIP3      5411            0.0000000000
     67748      6771  TIP3      H2             -0.7692294176       -7.2206846409       83.1580233725  TIP3      5411            0.0000000000
     67749      6772  TIP3      OH2             2.4104221227       -6.1743625830       78.5107647015  TIP3      5412            0.0000000000
     67750      6772  TIP3      H1              2.0582405619       -5.3168741509       78.2154066666  TIP3      5412            0.0000000000
     67751      6772  TIP3      H2              3.3138999589       -6.0784551346       78.1950563970  TIP3      5412            0.0000000000
     67752      6773  TIP3      OH2            14.0092083087      -20.8680043813       79.8273500952  TIP3      5413            0.0000000000
     67753      6773  TIP3      H1             13.2060729348      -20.5783876549       79.3625365111  TIP3      5413            0.0000000000
     67754      6773  TIP3      H2             14.2527668815      -21.6541103323       79.2955968354  TIP3      5413            0.0000000000
     67755      6774  TIP3      OH2            -0.1604433107       -2.9274277315       78.5028726378  TIP3      5414            0.0000000000
     67756      6774  TIP3      H1             -0.8970629080       -2.4517122353       78.0781943206  TIP3      5414            0.0000000000
     67757      6774  TIP3      H2             -0.5140251262       -3.1537073207       79.3716269494  TIP3      5414            0.0000000000
     67758      6775  TIP3      OH2             2.2469336237       -3.4054696954       77.5290356082  TIP3      5415            0.0000000000
     67759      6775  TIP3      H1              1.3925785628       -3.1853904734       77.9600470078  TIP3      5415            0.0000000000
     67760      6775  TIP3      H2              2.2975304688       -2.7510919833       76.8000502717  TIP3      5415            0.0000000000
     67761      6776  TIP3      OH2            -0.7250422827       -4.2631400608       75.4374221767  TIP3      5416            0.0000000000
     67762      6776  TIP3      H1             -0.7993449282       -4.7463448181       76.2901119293  TIP3      5416            0.0000000000
     67763      6776  TIP3      H2              0.0689260146       -4.6652538347       75.0391818522  TIP3      5416            0.0000000000
     67764      6777  TIP3      OH2             1.4151084842       -5.5724459846       74.0656059819  TIP3      5417            0.0000000000
     67765      6777  TIP3      H1              1.1777632116       -6.4907966660       74.3058041410  TIP3      5417            0.0000000000
     67766      6777  TIP3      H2              2.2371146795       -5.4517538446       74.5608216144  TIP3      5417            0.0000000000
     67767      6778  TIP3      OH2            12.5986436532      -21.3535862366       74.1542603254  TIP3      5418            0.0000000000
     67768      6778  TIP3      H1             13.1772140991      -20.7874556017       73.6376879620  TIP3      5418            0.0000000000
     67769      6778  TIP3      H2             11.6877975198      -21.0474786294       73.9370135773  TIP3      5418            0.0000000000
     67770      6779  TIP3      OH2            10.0027346103      -20.8517747480       73.3568514163  TIP3      5419            0.0000000000
     67771      6779  TIP3      H1              9.9237535118      -20.7493904815       72.3989163943  TIP3      5419            0.0000000000
     67772      6779  TIP3      H2              9.5894402354      -21.7406266307       73.4868697821  TIP3      5419            0.0000000000
     67773      6780  TIP3      OH2            11.2601120945      -20.8220273634       69.0232856111  TIP3      5420            0.0000000000
     67774      6780  TIP3      H1             10.4967825852      -20.2412550634       68.8772052275  TIP3      5420            0.0000000000
     67775      6780  TIP3      H2             10.8310565781      -21.6838288593       69.2309826892  TIP3      5420            0.0000000000
     67776      6781  TIP3      OH2            -1.5061571350       -5.0987251987       68.6827337223  TIP3      5421            0.0000000000
     67777      6781  TIP3      H1             -2.1548383433       -5.1215553034       67.9711459010  TIP3      5421            0.0000000000
     67778      6781  TIP3      H2             -1.4832465312       -4.1469483396       68.8440571641  TIP3      5421            0.0000000000
     67779      6782  TIP3      OH2            14.0808021127       -4.2733186968       69.7379806078  TIP3      5422            0.0000000000
     67780      6782  TIP3      H1             13.8641368190       -5.0591778965       69.1842679648  TIP3      5422            0.0000000000
     67781      6782  TIP3      H2             13.9935972290       -3.5505382603       69.0929072228  TIP3      5422            0.0000000000
     67782      6783  TIP3      OH2             0.3469553550       -4.1072072897       65.6367126799  TIP3      5423            0.0000000000
     67783      6783  TIP3      H1              0.0127179369       -3.8592066466       66.5086630262  TIP3      5423            0.0000000000
     67784      6783  TIP3      H2              1.0718496321       -4.6981380062       65.8140730249  TIP3      5423            0.0000000000
     67785      6784  TIP3      OH2            10.1076504407      -21.5908277834       83.2062016038  TIP3      5424            0.0000000000
     67786      6784  TIP3      H1             10.2245360690      -22.0888202938       84.0293784383  TIP3      5424            0.0000000000
     67787      6784  TIP3      H2             10.9989946162      -21.6228133910       82.8084742709  TIP3      5424            0.0000000000
     67788      6785  TIP3      OH2            13.2696205829       -5.5548465059       81.7150326672  TIP3      5425            0.0000000000
     67789      6785  TIP3      H1             12.4112152834       -5.7068011457       81.3246096921  TIP3      5425            0.0000000000
     67790      6785  TIP3      H2             13.2365453462       -4.6775130820       82.1018194774  TIP3      5425            0.0000000000
     67791      6786  TIP3      OH2            27.7442530361      -11.6529466423       71.8267330774  TIP3      5426            0.0000000000
     67792      6786  TIP3      H1             27.7797993918      -10.6802784498       71.7417342284  TIP3      5426            0.0000000000
     67793      6786  TIP3      H2             27.0638762930      -11.9034829199       71.1857767615  TIP3      5426            0.0000000000
     67794      6787  TIP3      OH2            30.2767602749       -9.4480857945       73.5602647427  TIP3      5427            0.0000000000
     67795      6787  TIP3      H1             29.8972182756      -10.1826718001       74.0658569241  TIP3      5427            0.0000000000
     67796      6787  TIP3      H2             30.3198061971       -8.7492509702       74.2257478489  TIP3      5427            0.0000000000
     67797      6788  TIP3      OH2            24.9768871129      -10.0243616513       75.7590434446  TIP3      5428            0.0000000000
     67798      6788  TIP3      H1             25.3186853918      -10.6302554289       75.0883451401  TIP3      5428            0.0000000000
     67799      6788  TIP3      H2             25.7561020849       -9.8493781686       76.3094225401  TIP3      5428            0.0000000000
     67800      6789  TIP3      OH2            28.2297133555      -15.5219209980       76.0500718853  TIP3      5429            0.0000000000
     67801      6789  TIP3      H1             28.2651531710      -16.4908296431       76.0865706611  TIP3      5429            0.0000000000
     67802      6789  TIP3      H2             28.0301258219      -15.3807041043       75.1170913009  TIP3      5429            0.0000000000
     67803      6790  TIP3      OH2            21.2724391956      -17.4756631915       73.3144108455  TIP3      5430            0.0000000000
     67804      6790  TIP3      H1             21.3738352292      -16.6451777129       72.8396981560  TIP3      5430            0.0000000000
     67805      6790  TIP3      H2             20.8500093030      -18.0275699898       72.6161610920  TIP3      5430            0.0000000000
     67806      6791  TIP3      OH2            20.2049890663      -18.5691723497       77.3815975313  TIP3      5431            0.0000000000
     67807      6791  TIP3      H1             19.9292430773      -18.0617950518       76.6156335422  TIP3      5431            0.0000000000
     67808      6791  TIP3      H2             19.4763753613      -18.3902395903       78.0175188767  TIP3      5431            0.0000000000
     67809      6792  TIP3      OH2            27.3902948800       -9.1050010145       70.8906448583  TIP3      5432            0.0000000000
     67810      6792  TIP3      H1             27.1754424898       -9.3438422168       69.9891353722  TIP3      5432            0.0000000000
     67811      6792  TIP3      H2             27.1667344804       -8.1531334394       70.9580691463  TIP3      5432            0.0000000000
     67812      6793  TIP3      OH2            22.7116963207      -10.8819013578       77.6667160926  TIP3      5433            0.0000000000
     67813      6793  TIP3      H1             21.9835660430      -10.2442811467       77.7898947984  TIP3      5433            0.0000000000
     67814      6793  TIP3      H2             23.3879366808      -10.3082633508       77.2818262164  TIP3      5433            0.0000000000
     67815      6794  TIP3      OH2            21.1099808991       -8.8748989282       78.4055987738  TIP3      5434            0.0000000000
     67816      6794  TIP3      H1             21.0981411522       -7.9989190789       78.0108797301  TIP3      5434            0.0000000000
     67817      6794  TIP3      H2             20.2411864367       -8.9462236397       78.8579958633  TIP3      5434            0.0000000000
     67818      6795  TIP3      OH2            24.1114657480      -21.2146652333       74.7743727368  TIP3      5435            0.0000000000
     67819      6795  TIP3      H1             24.0150559629      -22.1783158144       74.7418853724  TIP3      5435            0.0000000000
     67820      6795  TIP3      H2             23.2391433876      -20.9227416071       75.1065938457  TIP3      5435            0.0000000000
     67821      6796  TIP3      OH2            30.2411764315       -7.9299398643       71.0372665465  TIP3      5436            0.0000000000
     67822      6796  TIP3      H1             29.9978984849       -8.6461684687       70.4538092506  TIP3      5436            0.0000000000
     67823      6796  TIP3      H2             30.3314934912       -8.3743355672       71.9006353076  TIP3      5436            0.0000000000
     67824      6797  TIP3      OH2            26.4043360393      -12.3698660674       69.3369151331  TIP3      5437            0.0000000000
     67825      6797  TIP3      H1             25.6637649575      -11.9046325857       68.9338647929  TIP3      5437            0.0000000000
     67826      6797  TIP3      H2             27.1014272003      -12.3584988934       68.6594142981  TIP3      5437            0.0000000000
     67827      6798  TIP3      OH2            26.4922987354      -13.8880021997       66.4164462900  TIP3      5438            0.0000000000
     67828      6798  TIP3      H1             27.2080968768      -13.9775210587       67.0520746658  TIP3      5438            0.0000000000
     67829      6798  TIP3      H2             26.7238777257      -14.5562003104       65.7514764979  TIP3      5438            0.0000000000
     67830      6799  TIP3      OH2            22.8164934781       -8.1397709543       74.8163140406  TIP3      5439            0.0000000000
     67831      6799  TIP3      H1             22.7491800580       -8.6952397914       74.0315062711  TIP3      5439            0.0000000000
     67832      6799  TIP3      H2             23.5485821927       -8.5396650741       75.3038520680  TIP3      5439            0.0000000000
     67833      6800  TIP3      OH2            28.1747287600       -7.2616563344       76.5383890381  TIP3      5440            0.0000000000
     67834      6800  TIP3      H1             27.8886111618       -6.6257420597       77.1814273043  TIP3      5440            0.0000000000
     67835      6800  TIP3      H2             27.9369432413       -8.1204167990       76.9460479836  TIP3      5440            0.0000000000
     67836      6801  TIP3      OH2            22.7220400552       -8.3767789382       80.5519947689  TIP3      5441            0.0000000000
     67837      6801  TIP3      H1             22.3447590794       -7.5871221858       80.9739811429  TIP3      5441            0.0000000000
     67838      6801  TIP3      H2             22.1003292286       -8.5691114178       79.8180620913  TIP3      5441            0.0000000000
     67839      6802  TIP3      OH2            28.7469532055      -13.0634005155       67.9109068884  TIP3      5442            0.0000000000
     67840      6802  TIP3      H1             29.2389000025      -12.8631427011       68.7203944722  TIP3      5442            0.0000000000
     67841      6802  TIP3      H2             29.1224614927      -12.4829323185       67.2493006344  TIP3      5442            0.0000000000
     67842      6803  TIP3      OH2            26.4214992058       -6.3043961504       71.3357420100  TIP3      5443            0.0000000000
     67843      6803  TIP3      H1             26.8904397880       -6.0313572152       72.1341247595  TIP3      5443            0.0000000000
     67844      6803  TIP3      H2             25.8343631700       -5.5721745975       71.1439879042  TIP3      5443            0.0000000000
     67845      6804  TIP3      OH2            20.9896218205       -6.4304181993       81.2680371391  TIP3      5444            0.0000000000
     67846      6804  TIP3      H1             20.9140245359       -6.4115972233       80.3151272342  TIP3      5444            0.0000000000
     67847      6804  TIP3      H2             20.0467923298       -6.4473763536       81.5245386276  TIP3      5444            0.0000000000
     67848      6805  TIP3      OH2            32.4224143877      -21.3189431920       67.7906636740  TIP3      5445            0.0000000000
     67849      6805  TIP3      H1             31.4847733983      -21.1630249585       68.0511350788  TIP3      5445            0.0000000000
     67850      6805  TIP3      H2             32.6453886070      -20.4795488965       67.3880799841  TIP3      5445            0.0000000000
     67851      6806  TIP3      OH2            33.5833672851       -6.9174195512       66.1985483310  TIP3      5446            0.0000000000
     67852      6806  TIP3      H1             33.6826786922       -5.9531264697       66.2682093521  TIP3      5446            0.0000000000
     67853      6806  TIP3      H2             34.4851869724       -7.2165463168       66.0718814015  TIP3      5446            0.0000000000
     67854      6807  TIP3      OH2            16.5243418831      -10.1424619610       78.6551850295  TIP3      5447            0.0000000000
     67855      6807  TIP3      H1             16.0393188692      -10.1459450189       77.8068598339  TIP3      5447            0.0000000000
     67856      6807  TIP3      H2             16.5685983544      -11.0880171486       78.8338510144  TIP3      5447            0.0000000000
     67857      6808  TIP3      OH2            16.3055925102       -7.3926781118       75.4827705724  TIP3      5448            0.0000000000
     67858      6808  TIP3      H1             17.2607541891       -7.4586365529       75.4075202051  TIP3      5448            0.0000000000
     67859      6808  TIP3      H2             16.1871893033       -6.5544228463       75.9541459843  TIP3      5448            0.0000000000
     67860      6809  TIP3      OH2            34.5498401554       -6.7278529637       81.1910071840  TIP3      5449            0.0000000000
     67861      6809  TIP3      H1             34.3628497316       -7.6512712442       81.0767645132  TIP3      5449            0.0000000000
     67862      6809  TIP3      H2             33.6796080238       -6.3727741982       81.5051573546  TIP3      5449            0.0000000000
     67863      6810  TIP3      OH2            25.5140320639       -7.1501464643       80.0719129451  TIP3      5450            0.0000000000
     67864      6810  TIP3      H1             25.5082729170       -6.2700087023       80.4616668199  TIP3      5450            0.0000000000
     67865      6810  TIP3      H2             24.6120613337       -7.4687956452       80.2177544667  TIP3      5450            0.0000000000
     67866      6811  TIP3      OH2            28.6784230007       -4.2549310022       69.5702231074  TIP3      5451            0.0000000000
     67867      6811  TIP3      H1             27.7312181307       -4.1728141475       69.7025469835  TIP3      5451            0.0000000000
     67868      6811  TIP3      H2             28.9330405039       -4.9998068216       70.1230290186  TIP3      5451            0.0000000000
     67869      6812  TIP3      OH2            18.8094602318       -8.8814164917       79.5852510443  TIP3      5452            0.0000000000
     67870      6812  TIP3      H1             18.9651139869       -9.1090487953       80.5110068364  TIP3      5452            0.0000000000
     67871      6812  TIP3      H2             17.9013384460       -9.1966886694       79.4034605159  TIP3      5452            0.0000000000
     67872      6813  TIP3      OH2            21.4384651670      -20.3353546608       75.5611999704  TIP3      5453            0.0000000000
     67873      6813  TIP3      H1             20.5514362238      -20.4379764731       75.1957758663  TIP3      5453            0.0000000000
     67874      6813  TIP3      H2             21.3602405321      -19.4900243940       76.0450325196  TIP3      5453            0.0000000000
     67875      6814  TIP3      OH2            26.1147270038      -20.6212544462       78.9329664575  TIP3      5454            0.0000000000
     67876      6814  TIP3      H1             26.5301030479      -21.0490312066       79.7043845919  TIP3      5454            0.0000000000
     67877      6814  TIP3      H2             25.1521385799      -20.7911103866       79.0707448877  TIP3      5454            0.0000000000
     67878      6815  TIP3      OH2            25.7758484039      -18.0735900406       66.2559050890  TIP3      5455            0.0000000000
     67879      6815  TIP3      H1             25.4275009783      -18.1055463435       67.1727608884  TIP3      5455            0.0000000000
     67880      6815  TIP3      H2             25.4834911669      -18.9435428641       65.9815856251  TIP3      5455            0.0000000000
     67881      6816  TIP3      OH2            26.9974058429      -14.7687677453       70.4104874134  TIP3      5456            0.0000000000
     67882      6816  TIP3      H1             26.6348258048      -13.9166853382       70.1040166703  TIP3      5456            0.0000000000
     67883      6816  TIP3      H2             27.7552155347      -14.8989510549       69.8195055593  TIP3      5456            0.0000000000
     67884      6817  TIP3      OH2            26.1433930482      -14.5685790798       81.9090062125  TIP3      5457            0.0000000000
     67885      6817  TIP3      H1             25.5618530240      -15.2491253359       82.2467509344  TIP3      5457            0.0000000000
     67886      6817  TIP3      H2             26.9868011816      -14.6770541205       82.3684918794  TIP3      5457            0.0000000000
     67887      6818  TIP3      OH2            27.3007026047      -13.6293879001       77.8633975913  TIP3      5458            0.0000000000
     67888      6818  TIP3      H1             27.6556108253      -14.3158159506       77.2772742731  TIP3      5458            0.0000000000
     67889      6818  TIP3      H2             26.8808702702      -14.1578136801       78.5612424791  TIP3      5458            0.0000000000
     67890      6819  TIP3      OH2            24.1102297132      -17.7979024232       72.6634092716  TIP3      5459            0.0000000000
     67891      6819  TIP3      H1             23.1825366023      -17.6569566637       72.9382508977  TIP3      5459            0.0000000000
     67892      6819  TIP3      H2             24.5727493509      -17.7797110294       73.5098835289  TIP3      5459            0.0000000000
     67893      6820  TIP3      OH2            22.5483419265      -16.0746382896       69.1917101284  TIP3      5460            0.0000000000
     67894      6820  TIP3      H1             23.5007197447      -15.9950666307       69.3373166688  TIP3      5460            0.0000000000
     67895      6820  TIP3      H2             22.3266982192      -15.4218689457       68.5215612407  TIP3      5460            0.0000000000
     67896      6821  TIP3      OH2            28.4759884577      -18.4979090410       75.9447435037  TIP3      5461            0.0000000000
     67897      6821  TIP3      H1             27.7882795892      -18.4091522998       76.6436951234  TIP3      5461            0.0000000000
     67898      6821  TIP3      H2             27.9486374495      -18.6917974877       75.1602892266  TIP3      5461            0.0000000000
     67899      6822  TIP3      OH2            31.7801635061       -2.8456359620       82.2250299671  TIP3      5462            0.0000000000
     67900      6822  TIP3      H1             32.0097734646       -2.4000561378       81.3971368284  TIP3      5462            0.0000000000
     67901      6822  TIP3      H2             32.4495183351       -2.4959381869       82.8360460044  TIP3      5462            0.0000000000
     67902      6823  TIP3      OH2            20.4167274962      -18.7772114522       71.0556186984  TIP3      5463            0.0000000000
     67903      6823  TIP3      H1             20.0750335160      -19.6849797475       70.9706727597  TIP3      5463            0.0000000000
     67904      6823  TIP3      H2             21.1742779570      -18.7817263624       70.4545148548  TIP3      5463            0.0000000000
     67905      6824  TIP3      OH2            28.4598157990      -17.5864568735       66.8985820244  TIP3      5464            0.0000000000
     67906      6824  TIP3      H1             27.5240567528      -17.4362950244       66.6774985700  TIP3      5464            0.0000000000
     67907      6824  TIP3      H2             28.7337309549      -16.7000899997       67.1921187072  TIP3      5464            0.0000000000
     67908      6825  TIP3      OH2            26.1331426551      -10.1174073518       79.9137017534  TIP3      5465            0.0000000000
     67909      6825  TIP3      H1             25.7464931239      -10.5565877451       80.6901850497  TIP3      5465            0.0000000000
     67910      6825  TIP3      H2             25.8771728625       -9.1932038333       80.0253136164  TIP3      5465            0.0000000000
     67911      6826  TIP3      OH2            29.1891909422      -15.6423843676       68.5365563600  TIP3      5466            0.0000000000
     67912      6826  TIP3      H1             30.0693529828      -15.7912364548       68.9415731130  TIP3      5466            0.0000000000
     67913      6826  TIP3      H2             29.2752425684      -14.8231864192       68.0317773410  TIP3      5466            0.0000000000
     67914      6827  TIP3      OH2            26.6929239076       -8.8936450261       67.7419380781  TIP3      5467            0.0000000000
     67915      6827  TIP3      H1             26.3772845871       -8.0510135785       68.0985826250  TIP3      5467            0.0000000000
     67916      6827  TIP3      H2             25.9726539297       -9.4907568530       67.9257242072  TIP3      5467            0.0000000000
     67917      6828  TIP3      OH2            32.3737200023       -6.6424113956       68.6604505575  TIP3      5468            0.0000000000
     67918      6828  TIP3      H1             31.9963876159       -7.4538460299       69.0268487635  TIP3      5468            0.0000000000
     67919      6828  TIP3      H2             32.6483795367       -6.8878007834       67.7576376556  TIP3      5468            0.0000000000
     67920      6829  TIP3      OH2            29.5247708651      -11.8295782188       75.6820698099  TIP3      5469            0.0000000000
     67921      6829  TIP3      H1             28.6100967980      -12.1194682378       75.6878552278  TIP3      5469            0.0000000000
     67922      6829  TIP3      H2             30.0070076031      -12.6110309808       75.3952300592  TIP3      5469            0.0000000000
     67923      6830  TIP3      OH2            22.0883604605       -7.5416266348       71.8243203059  TIP3      5470            0.0000000000
     67924      6830  TIP3      H1             22.5797876845       -6.7383572784       71.6405043956  TIP3      5470            0.0000000000
     67925      6830  TIP3      H2             21.1950359631       -7.3149114700       71.5553016651  TIP3      5470            0.0000000000
     67926      6831  TIP3      OH2            22.2222853297       -4.8079326282       70.8588809729  TIP3      5471            0.0000000000
     67927      6831  TIP3      H1             21.2644954504       -4.7845917759       71.0315390542  TIP3      5471            0.0000000000
     67928      6831  TIP3      H2             22.5230470571       -4.0288425164       71.3187833758  TIP3      5471            0.0000000000
     67929      6832  TIP3      OH2            27.5599068755       -9.6586733566       77.4646232064  TIP3      5472            0.0000000000
     67930      6832  TIP3      H1             27.1334834456       -9.9053999263       78.3114017576  TIP3      5472            0.0000000000
     67931      6832  TIP3      H2             28.1576816419      -10.4002754014       77.2758189710  TIP3      5472            0.0000000000
     67932      6833  TIP3      OH2            34.2770085790       -4.2213933891       66.7330080166  TIP3      5473            0.0000000000
     67933      6833  TIP3      H1             35.0025957722       -3.6275253998       66.5235292971  TIP3      5473            0.0000000000
     67934      6833  TIP3      H2             33.5626293993       -3.6549895829       67.0394986851  TIP3      5473            0.0000000000
     67935      6834  TIP3      OH2            18.0310278386       -6.0226620214       77.7266856846  TIP3      5474            0.0000000000
     67936      6834  TIP3      H1             18.2325649497       -6.9686064637       77.7650774410  TIP3      5474            0.0000000000
     67937      6834  TIP3      H2             18.1777499847       -5.7440034903       78.6427690017  TIP3      5474            0.0000000000
     67938      6835  TIP3      OH2            27.1284390756      -18.1254693718       78.1693093594  TIP3      5475            0.0000000000
     67939      6835  TIP3      H1             27.7425405001      -17.9936511918       78.9010715165  TIP3      5475            0.0000000000
     67940      6835  TIP3      H2             26.6974603903      -18.9579711310       78.4367363938  TIP3      5475            0.0000000000
     67941      6836  TIP3      OH2            27.8588340207      -18.4816900188       69.3756549669  TIP3      5476            0.0000000000
     67942      6836  TIP3      H1             28.0667897825      -18.0314623766       68.5248900233  TIP3      5476            0.0000000000
     67943      6836  TIP3      H2             28.4594538104      -18.0105692018       69.9421731058  TIP3      5476            0.0000000000
     67944      6837  TIP3      OH2            25.0968787341      -16.7645937530       70.1406157366  TIP3      5477            0.0000000000
     67945      6837  TIP3      H1             25.8591879142      -16.1518696935       70.2134397337  TIP3      5477            0.0000000000
     67946      6837  TIP3      H2             24.7830149541      -16.8650803224       71.0580727795  TIP3      5477            0.0000000000
     67947      6838  TIP3      OH2            25.9654858727      -19.6925240304       71.0877491787  TIP3      5478            0.0000000000
     67948      6838  TIP3      H1             25.5775157104      -19.0330936839       71.6909958074  TIP3      5478            0.0000000000
     67949      6838  TIP3      H2             26.5939566748      -19.1261362171       70.5761499754  TIP3      5478            0.0000000000
     67950      6839  TIP3      OH2            22.8472549918       -5.3015633880       68.1167331406  TIP3      5479            0.0000000000
     67951      6839  TIP3      H1             23.1108951437       -4.4938318854       67.6817008366  TIP3      5479            0.0000000000
     67952      6839  TIP3      H2             22.6600576351       -5.0093202866       69.0274392783  TIP3      5479            0.0000000000
     67953      6840  TIP3      OH2            19.8266632455       -8.0988872041       66.7893256364  TIP3      5480            0.0000000000
     67954      6840  TIP3      H1             20.4496972515       -7.4634831414       67.1435135328  TIP3      5480            0.0000000000
     67955      6840  TIP3      H2             20.3266372949       -8.5990043946       66.1505810098  TIP3      5480            0.0000000000
     67956      6841  TIP3      OH2            31.4659133673       -4.7951066215       75.9120910605  TIP3      5481            0.0000000000
     67957      6841  TIP3      H1             31.3418469476       -4.1683674103       75.1918486608  TIP3      5481            0.0000000000
     67958      6841  TIP3      H2             32.4208139517       -4.7472497658       76.0521744016  TIP3      5481            0.0000000000
     67959      6842  TIP3      OH2            17.9370483420       -6.6883313683       70.9034935952  TIP3      5482            0.0000000000
     67960      6842  TIP3      H1             17.0657253752       -6.3058594940       70.7673897091  TIP3      5482            0.0000000000
     67961      6842  TIP3      H2             18.3913622730       -6.3072281510       70.1410505945  TIP3      5482            0.0000000000
     67962      6843  TIP3      OH2            17.5133634951       -4.0005083555       81.8399588203  TIP3      5483            0.0000000000
     67963      6843  TIP3      H1             17.7422507717       -4.2345932191       82.7637906106  TIP3      5483            0.0000000000
     67964      6843  TIP3      H2             16.8349001749       -4.7262864400       81.8222214077  TIP3      5483            0.0000000000
     67965      6844  TIP3      OH2            17.0879998164      -10.2763101886       83.0830829609  TIP3      5484            0.0000000000
     67966      6844  TIP3      H1             17.2208225382      -11.1948699418       82.8289882066  TIP3      5484            0.0000000000
     67967      6844  TIP3      H2             16.3039333104      -10.0368585584       82.5538032371  TIP3      5484            0.0000000000
     67968      6845  TIP3      OH2            29.4751085213      -10.3945309104       79.7919854779  TIP3      5485            0.0000000000
     67969      6845  TIP3      H1             30.2403199236       -9.8257739652       79.7733904990  TIP3      5485            0.0000000000
     67970      6845  TIP3      H2             28.7264899720       -9.8255300307       79.9631277104  TIP3      5485            0.0000000000
     67971      6846  TIP3      OH2            26.9173647767      -11.5976168199       83.2232730345  TIP3      5486            0.0000000000
     67972      6846  TIP3      H1             27.8599611152      -11.5892952425       83.0567216528  TIP3      5486            0.0000000000
     67973      6846  TIP3      H2             26.7623696464      -12.4075906259       83.7468002965  TIP3      5486            0.0000000000
     67974      6847  TIP3      OH2            24.2427309321      -12.9163925648       78.6334626522  TIP3      5487            0.0000000000
     67975      6847  TIP3      H1             25.0109612143      -13.0564431370       78.0803371632  TIP3      5487            0.0000000000
     67976      6847  TIP3      H2             23.8516701599      -12.0745215313       78.3529230515  TIP3      5487            0.0000000000
     67977      6848  TIP3      OH2            28.6222519513      -15.1279924397       83.6131805633  TIP3      5488            0.0000000000
     67978      6848  TIP3      H1             28.8395619027      -16.0720750323       83.5965905860  TIP3      5488            0.0000000000
     67979      6848  TIP3      H2             29.5011700456      -14.7325094138       83.6664604458  TIP3      5488            0.0000000000
     67980      6849  TIP3      OH2            23.4469247271      -20.8998064854       78.9068085784  TIP3      5489            0.0000000000
     67981      6849  TIP3      H1             23.2999706228      -19.9718687732       78.7220205645  TIP3      5489            0.0000000000
     67982      6849  TIP3      H2             22.7469614733      -21.3335173543       78.3781219857  TIP3      5489            0.0000000000
     67983      6850  TIP3      OH2            27.4292549649      -17.5401368435       81.4899930234  TIP3      5490            0.0000000000
     67984      6850  TIP3      H1             26.4877911540      -17.4677571382       81.6467745936  TIP3      5490            0.0000000000
     67985      6850  TIP3      H2             27.7679548357      -18.0951064410       82.2125174842  TIP3      5490            0.0000000000
     67986      6851  TIP3      OH2            29.0506457753      -18.8692026288       83.4767732451  TIP3      5491            0.0000000000
     67987      6851  TIP3      H1             28.9691616863      -19.8415974755       83.4831081847  TIP3      5491            0.0000000000
     67988      6851  TIP3      H2             28.8066957874      -18.5833332801       84.3911498257  TIP3      5491            0.0000000000
     67989      6852  TIP3      OH2            18.9569360617      -17.6241693172       82.5707952710  TIP3      5492            0.0000000000
     67990      6852  TIP3      H1             19.0193009412      -18.3574948987       81.9417903864  TIP3      5492            0.0000000000
     67991      6852  TIP3      H2             18.7394369759      -18.0428418142       83.4008755465  TIP3      5492            0.0000000000
     67992      6853  TIP3      OH2            23.7005358742      -21.5915341217       81.5397606947  TIP3      5493            0.0000000000
     67993      6853  TIP3      H1             24.3404707678      -22.3097086834       81.5156165488  TIP3      5493            0.0000000000
     67994      6853  TIP3      H2             23.5662565771      -21.4104537000       80.5813001413  TIP3      5493            0.0000000000
     67995      6854  TIP3      OH2            24.0348473220      -19.9299388826       83.5929715635  TIP3      5494            0.0000000000
     67996      6854  TIP3      H1             23.8494177813      -20.5003353440       82.8061444490  TIP3      5494            0.0000000000
     67997      6854  TIP3      H2             23.3905916660      -19.2207040701       83.5178698995  TIP3      5494            0.0000000000
     67998      6855  TIP3      OH2            15.7973729993       -3.0618077793       71.3383719377  TIP3      5495            0.0000000000
     67999      6855  TIP3      H1             15.1352174442       -3.5561045201       70.8120123885  TIP3      5495            0.0000000000
     68000      6855  TIP3      H2             16.1478165829       -3.7525800489       71.9229238579  TIP3      5495            0.0000000000
     68001      6856  TIP3      OH2            16.6714363587       -4.9778462693       73.1267634158  TIP3      5496            0.0000000000
     68002      6856  TIP3      H1             16.2954417111       -5.8451185577       73.3212575219  TIP3      5496            0.0000000000
     68003      6856  TIP3      H2             16.8376230636       -4.6283356181       74.0128730875  TIP3      5496            0.0000000000
     68004      6857  TIP3      OH2            34.2628082855       -4.2009674208       76.1111221529  TIP3      5497            0.0000000000
     68005      6857  TIP3      H1             34.1465241839       -3.9537577628       77.0355168755  TIP3      5497            0.0000000000
     68006      6857  TIP3      H2             34.8342456243       -3.5248781104       75.7346419285  TIP3      5497            0.0000000000
     68007      6858  TIP3      OH2            31.7019594105      -17.9569128273       65.0837357144  TIP3      5498            0.0000000000
     68008      6858  TIP3      H1             32.3224679967      -18.3331010053       65.7087859794  TIP3      5498            0.0000000000
     68009      6858  TIP3      H2             30.8584726719      -18.3871946712       65.2452702976  TIP3      5498            0.0000000000
     68010      6859  TIP3      OH2            31.4178763895      -16.4160308683       69.9212436295  TIP3      5499            0.0000000000
     68011      6859  TIP3      H1             31.6890052409      -17.3300649566       70.1487913791  TIP3      5499            0.0000000000
     68012      6859  TIP3      H2             32.2337916936      -16.0073920972       69.6461322606  TIP3      5499            0.0000000000
     68013      6860  TIP3      OH2            32.0599649608      -19.1009633861       70.0635262318  TIP3      5500            0.0000000000
     68014      6860  TIP3      H1             32.2419171579      -19.5382115779       70.9283381854  TIP3      5500            0.0000000000
     68015      6860  TIP3      H2             31.4197687290      -19.7144567451       69.6542813766  TIP3      5500            0.0000000000
     68016      6861  TIP3      OH2            33.8046995217      -19.0238132992       81.9605278213  TIP3      5501            0.0000000000
     68017      6861  TIP3      H1             32.9124354076      -18.6762771137       81.8614412288  TIP3      5501            0.0000000000
     68018      6861  TIP3      H2             33.9353610922      -19.5095068672       81.1380711570  TIP3      5501            0.0000000000
     68019      6862  TIP3      OH2            16.1716323973      -19.0900779540       69.6488860422  TIP3      5502            0.0000000000
     68020      6862  TIP3      H1             15.2337782665      -18.8469192329       69.6174424445  TIP3      5502            0.0000000000
     68021      6862  TIP3      H2             16.6014917236      -18.4968378895       69.0439537960  TIP3      5502            0.0000000000
     68022      6863  TIP3      OH2            18.3576502158       -7.2852988159       82.2053493445  TIP3      5503            0.0000000000
     68023      6863  TIP3      H1             17.5475872550       -6.9218004950       81.7895326004  TIP3      5503            0.0000000000
     68024      6863  TIP3      H2             18.0385326806       -7.1921754469       83.1146719451  TIP3      5503            0.0000000000
     68025      6864  TIP3      OH2            32.8772109059      -20.8687727617       79.7969568595  TIP3      5504            0.0000000000
     68026      6864  TIP3      H1             32.0546450124      -20.5854736071       79.3730192210  TIP3      5504            0.0000000000
     68027      6864  TIP3      H2             33.0795963100      -21.6792687663       79.2840594481  TIP3      5504            0.0000000000
     68028      6865  TIP3      OH2            18.1117587203       -4.3126887634       75.4192067144  TIP3      5505            0.0000000000
     68029      6865  TIP3      H1             18.0397996134       -4.7393423830       76.2993793640  TIP3      5505            0.0000000000
     68030      6865  TIP3      H2             18.9426974613       -4.6643644419       75.0906710787  TIP3      5505            0.0000000000
     68031      6866  TIP3      OH2            26.3223985555      -19.4521401820       74.1296336396  TIP3      5506            0.0000000000
     68032      6866  TIP3      H1             25.6161392006      -20.0765018273       74.3716237020  TIP3      5506            0.0000000000
     68033      6866  TIP3      H2             26.8201579169      -19.9671641016       73.4868181674  TIP3      5506            0.0000000000
     68034      6867  TIP3      OH2            31.4186034997      -21.4070207973       74.1579532732  TIP3      5507            0.0000000000
     68035      6867  TIP3      H1             32.0334598006      -20.7811424968       73.6839624679  TIP3      5507            0.0000000000
     68036      6867  TIP3      H2             30.5456595955      -21.0351606330       73.9330481486  TIP3      5507            0.0000000000
     68037      6868  TIP3      OH2            33.0887779120      -20.1847958774       72.4340669023  TIP3      5508            0.0000000000
     68038      6868  TIP3      H1             33.7849612037      -20.7370688969       72.0189449787  TIP3      5508            0.0000000000
     68039      6868  TIP3      H2             33.5694103521      -19.3412842367       72.5864978280  TIP3      5508            0.0000000000
     68040      6869  TIP3      OH2            18.6784889691      -20.7927333787       71.8886483137  TIP3      5509            0.0000000000
     68041      6869  TIP3      H1             17.8283246451      -21.0024435513       71.4682863160  TIP3      5509            0.0000000000
     68042      6869  TIP3      H2             19.1072704431      -21.6594284544       71.9057458177  TIP3      5509            0.0000000000
     68043      6870  TIP3      OH2            17.3924412031      -21.0206417809       67.6458601142  TIP3      5510            0.0000000000
     68044      6870  TIP3      H1             17.9159608337      -20.3680700602       67.1705335759  TIP3      5510            0.0000000000
     68045      6870  TIP3      H2             16.8516879530      -20.4854620381       68.2611207243  TIP3      5510            0.0000000000
     68046      6871  TIP3      OH2            23.1409669101      -20.9057554973       71.7229209609  TIP3      5511            0.0000000000
     68047      6871  TIP3      H1             24.0308443261      -20.5212156948       71.6571519990  TIP3      5511            0.0000000000
     68048      6871  TIP3      H2             23.0764919887      -21.0629099484       72.6647942278  TIP3      5511            0.0000000000
     68049      6872  TIP3      OH2            28.8241576681      -20.8347042899       73.3420560256  TIP3      5512            0.0000000000
     68050      6872  TIP3      H1             28.8056821895      -20.7843019968       72.3830222776  TIP3      5512            0.0000000000
     68051      6872  TIP3      H2             28.4554372427      -21.7406491472       73.4907437942  TIP3      5512            0.0000000000
     68052      6873  TIP3      OH2            30.1069618064      -20.8318318162       68.9937734336  TIP3      5513            0.0000000000
     68053      6873  TIP3      H1             29.3542048038      -20.2304947016       68.8814558155  TIP3      5513            0.0000000000
     68054      6873  TIP3      H2             29.6785463728      -21.6776293366       69.2629290833  TIP3      5513            0.0000000000
     68055      6874  TIP3      OH2            17.3354092222       -5.0954264289       68.6653929218  TIP3      5514            0.0000000000
     68056      6874  TIP3      H1             16.6570167030       -5.1159423432       67.9699426035  TIP3      5514            0.0000000000
     68057      6874  TIP3      H2             17.3465360580       -4.1439222645       68.8460955952  TIP3      5514            0.0000000000
     68058      6875  TIP3      OH2            24.3845757884      -18.8307258319       68.5588958385  TIP3      5515            0.0000000000
     68059      6875  TIP3      H1             24.4864121768      -19.4391998149       69.3006682020  TIP3      5515            0.0000000000
     68060      6875  TIP3      H2             24.3005805238      -17.9824194853       69.0599700584  TIP3      5515            0.0000000000
     68061      6876  TIP3      OH2            33.0016497752       -4.2708860939       69.7012560520  TIP3      5516            0.0000000000
     68062      6876  TIP3      H1             32.7138137833       -5.0763332886       69.2019561790  TIP3      5516            0.0000000000
     68063      6876  TIP3      H2             32.8255319413       -3.5417929340       69.1277455176  TIP3      5516            0.0000000000
     68064      6877  TIP3      OH2            18.5850196086      -20.2260318278       81.4092980975  TIP3      5517            0.0000000000
     68065      6877  TIP3      H1             18.1614368642      -21.0309611087       81.7875640213  TIP3      5517            0.0000000000
     68066      6877  TIP3      H2             19.4849586098      -20.3108852138       81.7801632190  TIP3      5517            0.0000000000
     68067      6878  TIP3      OH2            20.6217416556      -21.0165627280       82.8565040665  TIP3      5518            0.0000000000
     68068      6878  TIP3      H1             21.5269662095      -21.3221235882       82.7981509821  TIP3      5518            0.0000000000
     68069      6878  TIP3      H2             20.1948267160      -21.7025178225       83.4314169971  TIP3      5518            0.0000000000
     68070      6879  TIP3      OH2            19.1992903553       -4.1393877843       65.6351811461  TIP3      5519            0.0000000000
     68071      6879  TIP3      H1             18.8737554223       -3.8442306018       66.5031329036  TIP3      5519            0.0000000000
     68072      6879  TIP3      H2             19.9470415641       -4.6912353776       65.8461484406  TIP3      5519            0.0000000000
     68073      6880  TIP3      OH2            28.9562205737      -21.5732991526       83.1511957330  TIP3      5520            0.0000000000
     68074      6880  TIP3      H1             29.0429848754      -22.0420895761       84.0055981332  TIP3      5520            0.0000000000
     68075      6880  TIP3      H2             29.8741515595      -21.6212596946       82.8217374489  TIP3      5520            0.0000000000
     68076      6881  TIP3      OH2            32.1456508235       -5.5586065331       81.8256385220  TIP3      5521            0.0000000000
     68077      6881  TIP3      H1             31.3474618961       -5.7065373835       81.3051908270  TIP3      5521            0.0000000000
     68078      6881  TIP3      H2             32.0369360192       -4.6088171718       82.0531697490  TIP3      5521            0.0000000000
     68079      6882  TIP3      OH2            37.8451870423      -12.7974981900       76.8022823556  TIP3      5522            0.0000000000
     68080      6882  TIP3      H1             37.7793697274      -13.3537548833       77.5898584317  TIP3      5522            0.0000000000
     68081      6882  TIP3      H2             38.5461965729      -12.1584126321       77.0194014733  TIP3      5522            0.0000000000
     68082      6883  TIP3      OH2            38.6834577915       -8.3761463199       75.4732143372  TIP3      5523            0.0000000000
     68083      6883  TIP3      H1             38.4242239575       -9.1621097903       74.9926937814  TIP3      5523            0.0000000000
     68084      6883  TIP3      H2             39.6662910894       -8.4327048095       75.4192537071  TIP3      5523            0.0000000000
     68085      6884  TIP3      OH2            39.6606362471      -17.3489153498       73.3206235403  TIP3      5524            0.0000000000
     68086      6884  TIP3      H1             40.1637773151      -16.6103619803       72.8997547444  TIP3      5524            0.0000000000
     68087      6884  TIP3      H2             39.6382215610      -18.0267748263       72.6320512030  TIP3      5524            0.0000000000
     68088      6885  TIP3      OH2            38.9204681045      -18.6438732038       77.2818172034  TIP3      5525            0.0000000000
     68089      6885  TIP3      H1             38.7301203717      -17.9801600961       76.5791021966  TIP3      5525            0.0000000000
     68090      6885  TIP3      H2             38.3659718684      -18.3005962290       78.0122376347  TIP3      5525            0.0000000000
     68091      6886  TIP3      OH2            38.5420571245      -16.7218084079       75.4865678551  TIP3      5526            0.0000000000
     68092      6886  TIP3      H1             39.1758320730      -16.0029428579       75.6865468605  TIP3      5526            0.0000000000
     68093      6886  TIP3      H2             39.0212416329      -17.0279177118       74.6664956179  TIP3      5526            0.0000000000
     68094      6887  TIP3      OH2            39.7608003400       -8.8308857539       78.2546693914  TIP3      5527            0.0000000000
     68095      6887  TIP3      H1             39.8531557393       -7.8773398326       78.0949815998  TIP3      5527            0.0000000000
     68096      6887  TIP3      H2             38.9967169588       -8.8561575343       78.8648300759  TIP3      5527            0.0000000000
     68097      6888  TIP3      OH2            39.8458038390       -6.3971949822       81.2893736582  TIP3      5528            0.0000000000
     68098      6888  TIP3      H1             39.7958151408       -6.4448440383       80.3100429548  TIP3      5528            0.0000000000
     68099      6888  TIP3      H2             38.8975895574       -6.4661047454       81.5117580295  TIP3      5528            0.0000000000
     68100      6889  TIP3      OH2            39.3101003499      -12.5293446829       69.7617547773  TIP3      5529            0.0000000000
     68101      6889  TIP3      H1             39.0135376402      -11.7521622400       69.2754233093  TIP3      5529            0.0000000000
     68102      6889  TIP3      H2             38.6242507045      -13.1778388906       69.5820116570  TIP3      5529            0.0000000000
     68103      6890  TIP3      OH2            35.1983551983       -7.3454798127       75.3899586902  TIP3      5530            0.0000000000
     68104      6890  TIP3      H1             36.1385947075       -7.5372975228       75.4621281132  TIP3      5530            0.0000000000
     68105      6890  TIP3      H2             35.0483725644       -6.5908255329       75.9591291966  TIP3      5530            0.0000000000
     68106      6891  TIP3      OH2            37.5631749198       -8.7575326125       79.6681533782  TIP3      5531            0.0000000000
     68107      6891  TIP3      H1             37.8749153294       -9.2156855213       80.4773499474  TIP3      5531            0.0000000000
     68108      6891  TIP3      H2             36.7799307618       -9.2389287724       79.4150759113  TIP3      5531            0.0000000000
     68109      6892  TIP3      OH2            40.2526765418      -20.3931097537       75.6537609861  TIP3      5532            0.0000000000
     68110      6892  TIP3      H1             39.4073948938      -20.4249478068       75.1588122013  TIP3      5532            0.0000000000
     68111      6892  TIP3      H2             40.2214051072      -19.4784855100       75.9579750739  TIP3      5532            0.0000000000
     68112      6893  TIP3      OH2            40.1418809124      -15.3613116162       71.9095151065  TIP3      5533            0.0000000000
     68113      6893  TIP3      H1             39.2211417533      -15.5161994864       71.5814884807  TIP3      5533            0.0000000000
     68114      6893  TIP3      H2             40.7495202355      -15.5642625507       71.2030367992  TIP3      5533            0.0000000000
     68115      6894  TIP3      OH2            34.7272255285      -17.9865590885       72.4694208919  TIP3      5534            0.0000000000
     68116      6894  TIP3      H1             35.4010539652      -18.0193283086       73.1824077938  TIP3      5534            0.0000000000
     68117      6894  TIP3      H2             35.1878836305      -18.3466028583       71.6946695851  TIP3      5534            0.0000000000
     68118      6895  TIP3      OH2            37.7177551028      -16.1289723169       71.4435152302  TIP3      5535            0.0000000000
     68119      6895  TIP3      H1             36.8110323604      -16.0373839365       71.1762537322  TIP3      5535            0.0000000000
     68120      6895  TIP3      H2             37.9982659671      -17.0107028851       71.1672093121  TIP3      5535            0.0000000000
     68121      6896  TIP3      OH2            40.0677937634      -14.9931314621       66.7776713935  TIP3      5536            0.0000000000
     68122      6896  TIP3      H1             39.5269059296      -15.2554514534       66.0171360435  TIP3      5536            0.0000000000
     68123      6896  TIP3      H2             40.8821115257      -14.7398409104       66.3134029854  TIP3      5536            0.0000000000
     68124      6897  TIP3      OH2            38.2571912952      -10.3625490748       81.8288321359  TIP3      5537            0.0000000000
     68125      6897  TIP3      H1             38.9664419583      -10.0916171301       82.4310773777  TIP3      5537            0.0000000000
     68126      6897  TIP3      H2             37.5031800663      -10.1779010616       82.3964075292  TIP3      5537            0.0000000000
     68127      6898  TIP3      OH2            39.0594645885      -18.7660299243       71.0437013822  TIP3      5538            0.0000000000
     68128      6898  TIP3      H1             38.8421767304      -19.7211625954       71.0758973871  TIP3      5538            0.0000000000
     68129      6898  TIP3      H2             39.9719059014      -18.7916791316       70.7039476913  TIP3      5538            0.0000000000
     68130      6899  TIP3      OH2            37.1859472827      -17.8548898974       79.3145116537  TIP3      5539            0.0000000000
     68131      6899  TIP3      H1             36.2913056249      -17.4853984496       79.3013320406  TIP3      5539            0.0000000000
     68132      6899  TIP3      H2             37.0826494483      -18.6961945286       79.7821726166  TIP3      5539            0.0000000000
     68133      6900  TIP3      OH2           -41.0697096256      -18.4611406401       67.5305189617  TIP3      5540            0.0000000000
     68134      6900  TIP3      H1            -41.1066537123      -17.6213572842       68.0177718694  TIP3      5540            0.0000000000
     68135      6900  TIP3      H2            -40.2189294576      -18.8522363608       67.8197000666  TIP3      5540            0.0000000000
     68136      6901  TIP3      OH2            37.7966107058      -20.6734993195       74.6698668649  TIP3      5541            0.0000000000
     68137      6901  TIP3      H1             37.6391766546      -20.6507107371       73.7047259312  TIP3      5541            0.0000000000
     68138      6901  TIP3      H2             37.4128369890      -21.5313727269       74.9368582595  TIP3      5541            0.0000000000
     68139      6902  TIP3      OH2            36.8082279036       -6.5878824962       70.8043580717  TIP3      5542            0.0000000000
     68140      6902  TIP3      H1             35.9084474815       -6.2648017653       70.7344752002  TIP3      5542            0.0000000000
     68141      6902  TIP3      H2             37.2857766132       -6.1739250400       70.0895012537  TIP3      5542            0.0000000000
     68142      6903  TIP3      OH2            37.7539759234      -17.5756789373       82.5732014078  TIP3      5543            0.0000000000
     68143      6903  TIP3      H1             37.9200184798      -18.3148175055       81.9627673064  TIP3      5543            0.0000000000
     68144      6903  TIP3      H2             37.6394344154      -18.0593791226       83.4109986521  TIP3      5543            0.0000000000
     68145      6904  TIP3      OH2            35.1022181556      -16.7676425428       81.7450125890  TIP3      5544            0.0000000000
     68146      6904  TIP3      H1             36.0428961902      -16.8228777992       81.9759451649  TIP3      5544            0.0000000000
     68147      6904  TIP3      H2             34.6866617857      -17.5340304723       82.1583367628  TIP3      5544            0.0000000000
     68148      6905  TIP3      OH2            36.3749755112      -18.2730154718       74.6817364570  TIP3      5545            0.0000000000
     68149      6905  TIP3      H1             36.8913835421      -19.0905316947       74.8570093273  TIP3      5545            0.0000000000
     68150      6905  TIP3      H2             36.9647573283      -17.5775176295       75.0273867717  TIP3      5545            0.0000000000
     68151      6906  TIP3      OH2            35.0430199578      -19.0129267459       69.7167789258  TIP3      5546            0.0000000000
     68152      6906  TIP3      H1             34.0929969067      -18.8286000873       69.6422644028  TIP3      5546            0.0000000000
     68153      6906  TIP3      H2             35.4527800732      -18.5287165593       69.0034113550  TIP3      5546            0.0000000000
     68154      6907  TIP3      OH2            35.0106111801      -20.3879548729       78.0514759318  TIP3      5547            0.0000000000
     68155      6907  TIP3      H1             34.3426274675      -20.5564582567       78.7373178749  TIP3      5547            0.0000000000
     68156      6907  TIP3      H2             34.5583622437      -19.7140367540       77.5203131492  TIP3      5547            0.0000000000
     68157      6908  TIP3      OH2            37.2054425604       -7.1630285583       82.1857507790  TIP3      5548            0.0000000000
     68158      6908  TIP3      H1             36.3710738699       -6.9278251144       81.7486121792  TIP3      5548            0.0000000000
     68159      6908  TIP3      H2             36.9454635997       -7.1417077678       83.1014340194  TIP3      5548            0.0000000000
     68160      6909  TIP3      OH2            40.1823648738       -6.1509784707       78.5396938605  TIP3      5549            0.0000000000
     68161      6909  TIP3      H1             39.7258895795       -5.3671098445       78.1989214655  TIP3      5549            0.0000000000
     68162      6909  TIP3      H2             41.0749777025       -6.0575646105       78.1580171357  TIP3      5549            0.0000000000
     68163      6910  TIP3      OH2            37.5037457798      -20.8093570824       71.8938199137  TIP3      5550            0.0000000000
     68164      6910  TIP3      H1             36.6941861155      -21.0325858197       71.4056823367  TIP3      5550            0.0000000000
     68165      6910  TIP3      H2             37.9711456658      -21.6684220446       71.8997353004  TIP3      5550            0.0000000000
     68166      6911  TIP3      OH2            36.2945706315      -21.0558383589       67.7059969498  TIP3      5551            0.0000000000
     68167      6911  TIP3      H1             36.7046879741      -20.4182605776       67.1095098559  TIP3      5551            0.0000000000
     68168      6911  TIP3      H2             35.7032459055      -20.4951440695       68.2309022740  TIP3      5551            0.0000000000
     68169      6912  TIP3      OH2            36.2666815014       -5.0439561590       68.5759195861  TIP3      5552            0.0000000000
     68170      6912  TIP3      H1             35.5109708057       -5.1376338151       67.9719262729  TIP3      5552            0.0000000000
     68171      6912  TIP3      H2             36.1635875526       -4.1545753758       68.9116274620  TIP3      5552            0.0000000000
     68172      6913  TIP3      OH2            37.4071830530      -20.2338160920       81.3871382733  TIP3      5553            0.0000000000
     68173      6913  TIP3      H1             37.0412162435      -21.0374343152       81.8063956921  TIP3      5553            0.0000000000
     68174      6913  TIP3      H2             38.3171310845      -20.2912508817       81.7477288187  TIP3      5553            0.0000000000
     68175      6914  TIP3      OH2            39.3923784837      -20.9236504025       82.9640495097  TIP3      5554            0.0000000000
     68176      6914  TIP3      H1             40.2816517791      -21.2372697314       82.7558434556  TIP3      5554            0.0000000000
     68177      6914  TIP3      H2             39.0095086055      -21.6829606284       83.4501774193  TIP3      5554            0.0000000000
     68178      6915  TIP3      OH2            37.9815581416       -4.3616580187       65.6052098618  TIP3      5555            0.0000000000
     68179      6915  TIP3      H1             37.7903690334       -3.9345374704       66.4424702705  TIP3      5555            0.0000000000
     68180      6915  TIP3      H2             38.8414520178       -4.7413398503       65.7789288774  TIP3      5555            0.0000000000
     68181      6916  TIP3      OH2           -29.9996979547        6.4480327804       75.2950098783  TIP3      5556            0.0000000000
     68182      6916  TIP3      H1            -29.9821332419        5.8199652948       76.0227328572  TIP3      5556            0.0000000000
     68183      6916  TIP3      H2            -30.2956098809        5.9776725574       74.5136070862  TIP3      5556            0.0000000000
     68184      6917  TIP3      OH2           -37.5282355520        6.0227559147       76.7056964204  TIP3      5557            0.0000000000
     68185      6917  TIP3      H1            -37.5711239616        5.4940426620       77.5398961281  TIP3      5557            0.0000000000
     68186      6917  TIP3      H2            -36.9770327215        6.7426433151       77.0467838961  TIP3      5557            0.0000000000
     68187      6918  TIP3      OH2           -39.7330271192        4.1762784983       70.2456825227  TIP3      5558            0.0000000000
     68188      6918  TIP3      H1            -40.2082386182        4.9289110007       70.6687482493  TIP3      5558            0.0000000000
     68189      6918  TIP3      H2            -40.4650729557        3.5537296823       70.2477580729  TIP3      5558            0.0000000000
     68190      6919  TIP3      OH2           -38.8444635324        6.9271158066       73.1822163733  TIP3      5559            0.0000000000
     68191      6919  TIP3      H1            -39.1018572592        6.0388136436       73.5164715946  TIP3      5559            0.0000000000
     68192      6919  TIP3      H2            -38.5948247029        6.6266742140       72.3060010234  TIP3      5559            0.0000000000
     68193      6920  TIP3      OH2           -31.6119131334        8.8242880846       75.7926636814  TIP3      5560            0.0000000000
     68194      6920  TIP3      H1            -31.2412046799        8.2575431058       75.1032234227  TIP3      5560            0.0000000000
     68195      6920  TIP3      H2            -30.8163599668        9.0366549750       76.2837452874  TIP3      5560            0.0000000000
     68196      6921  TIP3      OH2           -35.3482856641        1.4339499179       73.3075841869  TIP3      5561            0.0000000000
     68197      6921  TIP3      H1            -35.1761207417        2.2078361943       72.7556663751  TIP3      5561            0.0000000000
     68198      6921  TIP3      H2            -35.6824862992        0.8066430525       72.6270156252  TIP3      5561            0.0000000000
     68199      6922  TIP3      OH2           -38.0572289397        3.8652581713       74.3645180571  TIP3      5562            0.0000000000
     68200      6922  TIP3      H1            -37.9259832573        2.9416708264       74.6618378526  TIP3      5562            0.0000000000
     68201      6922  TIP3      H2            -38.5563333348        3.6030577991       73.5509310891  TIP3      5562            0.0000000000
     68202      6923  TIP3      OH2           -33.6139509054        5.3282278452       73.3751293099  TIP3      5563            0.0000000000
     68203      6923  TIP3      H1            -32.8801740842        4.8222766708       73.7351061948  TIP3      5563            0.0000000000
     68204      6923  TIP3      H2            -34.0341698736        4.6890031676       72.7737525325  TIP3      5563            0.0000000000
     68205      6924  TIP3      OH2           -22.4800555836        1.9336093335       78.7858781181  TIP3      5564            0.0000000000
     68206      6924  TIP3      H1            -23.1815020656        2.5964536196       78.6262509148  TIP3      5564            0.0000000000
     68207      6924  TIP3      H2            -22.5004632158        1.8075597991       79.7333327390  TIP3      5564            0.0000000000
     68208      6925  TIP3      OH2           -36.0522188701        0.3413734480       77.1589259088  TIP3      5565            0.0000000000
     68209      6925  TIP3      H1            -36.5994646969        0.8058045534       76.4845000617  TIP3      5565            0.0000000000
     68210      6925  TIP3      H2            -36.7685056527        0.3528247611       77.8277117216  TIP3      5565            0.0000000000
     68211      6926  TIP3      OH2           -33.8928435172        7.9606368119       77.6263002687  TIP3      5566            0.0000000000
     68212      6926  TIP3      H1            -34.6191136052        8.5812131695       77.7572881174  TIP3      5566            0.0000000000
     68213      6926  TIP3      H2            -33.1880613803        8.5337220648       77.2767886497  TIP3      5566            0.0000000000
     68214      6927  TIP3      OH2           -36.7810591722        2.0368536820       75.3827360023  TIP3      5567            0.0000000000
     68215      6927  TIP3      H1            -36.1656947801        2.6624489512       75.8274395693  TIP3      5567            0.0000000000
     68216      6927  TIP3      H2            -36.2363473548        1.6174017218       74.6648333954  TIP3      5567            0.0000000000
     68217      6928  TIP3      OH2           -39.3072125711        9.6155821573       69.2333017787  TIP3      5568            0.0000000000
     68218      6928  TIP3      H1            -39.6392390364        9.8384107852       68.3668253066  TIP3      5568            0.0000000000
     68219      6928  TIP3      H2            -39.3183652865       10.4511393040       69.7086121561  TIP3      5568            0.0000000000
     68220      6929  TIP3      OH2           -32.4742746305       -2.3801805924       74.7925247968  TIP3      5569            0.0000000000
     68221      6929  TIP3      H1            -32.6128241977       -3.3398214259       74.7391422408  TIP3      5569            0.0000000000
     68222      6929  TIP3      H2            -33.3391865686       -2.0601775232       75.1202403350  TIP3      5569            0.0000000000
     68223      6930  TIP3      OH2           -30.1851024674        6.4077385590       69.3206386914  TIP3      5570            0.0000000000
     68224      6930  TIP3      H1            -30.8632595441        7.0172145880       68.9760343511  TIP3      5570            0.0000000000
     68225      6930  TIP3      H2            -29.4780408675        6.4848879682       68.6628774300  TIP3      5570            0.0000000000
     68226      6931  TIP3      OH2           -30.1257712699        4.9440072482       66.3169280718  TIP3      5571            0.0000000000
     68227      6931  TIP3      H1            -29.4487170660        4.9199219189       67.0175080563  TIP3      5571            0.0000000000
     68228      6931  TIP3      H2            -29.8102290757        4.2371570925       65.7487970497  TIP3      5571            0.0000000000
     68229      6932  TIP3      OH2           -22.7663355601        5.8450778059       77.6086954078  TIP3      5572            0.0000000000
     68230      6932  TIP3      H1            -23.4851341972        6.5057068899       77.6636309567  TIP3      5572            0.0000000000
     68231      6932  TIP3      H2            -22.2982876507        6.0932854876       76.7923634896  TIP3      5572            0.0000000000
     68232      6933  TIP3      OH2           -26.7561444926        4.8557371562       79.3328763342  TIP3      5573            0.0000000000
     68233      6933  TIP3      H1            -26.7808901130        5.6293092777       79.9152714884  TIP3      5573            0.0000000000
     68234      6933  TIP3      H2            -27.4289414564        5.1264154672       78.6909000745  TIP3      5573            0.0000000000
     68235      6934  TIP3      OH2           -35.1154767880        7.2778771548       72.1682085065  TIP3      5574            0.0000000000
     68236      6934  TIP3      H1            -35.4450107945        6.9059476116       71.3162133773  TIP3      5574            0.0000000000
     68237      6934  TIP3      H2            -34.4788128375        6.6069241874       72.4789174818  TIP3      5574            0.0000000000
     68238      6935  TIP3      OH2           -34.7250406633        5.9675853634       75.7984465250  TIP3      5575            0.0000000000
     68239      6935  TIP3      H1            -34.1883603698        6.1933545284       75.0141126819  TIP3      5575            0.0000000000
     68240      6935  TIP3      H2            -34.4487878408        6.6862939486       76.4105762247  TIP3      5575            0.0000000000
     68241      6936  TIP3      OH2           -27.8361182056        5.8241073633       67.9505080057  TIP3      5576            0.0000000000
     68242      6936  TIP3      H1            -27.2753796577        5.9756716580       68.7341882204  TIP3      5576            0.0000000000
     68243      6936  TIP3      H2            -27.4374166123        6.3016586638       67.2255633080  TIP3      5576            0.0000000000
     68244      6937  TIP3      OH2           -36.9014435158        6.6563323418       79.7017013430  TIP3      5577            0.0000000000
     68245      6937  TIP3      H1            -36.9086960294        7.3155068782       80.4159998146  TIP3      5577            0.0000000000
     68246      6937  TIP3      H2            -37.8312382566        6.7435210072       79.4151520235  TIP3      5577            0.0000000000
     68247      6938  TIP3      OH2           -36.1270124432        6.3002100009       69.8017835089  TIP3      5578            0.0000000000
     68248      6938  TIP3      H1            -36.4011411395        7.0782613955       69.2674202005  TIP3      5578            0.0000000000
     68249      6938  TIP3      H2            -36.7868701060        5.6576315950       69.5309174363  TIP3      5578            0.0000000000
     68250      6939  TIP3      OH2           -30.6927792982       15.5114567926       69.7888956288  TIP3      5579            0.0000000000
     68251      6939  TIP3      H1            -30.7449123614       15.4051419708       68.8478038660  TIP3      5579            0.0000000000
     68252      6939  TIP3      H2            -30.6241479164       16.4647793664       69.9096529069  TIP3      5579            0.0000000000
     68253      6940  TIP3      OH2           -24.9098135164        3.6280525019       81.6144786344  TIP3      5580            0.0000000000
     68254      6940  TIP3      H1            -25.3653072913        4.1127591498       80.9039598745  TIP3      5580            0.0000000000
     68255      6940  TIP3      H2            -24.9275985396        2.7296811204       81.2787180775  TIP3      5580            0.0000000000
     68256      6941  TIP3      OH2           -35.0761198643       -1.4840139047       75.5530474969  TIP3      5581            0.0000000000
     68257      6941  TIP3      H1            -35.9874183063       -1.5954762012       75.1902512139  TIP3      5581            0.0000000000
     68258      6941  TIP3      H2            -35.2048343048       -0.6535675934       76.0532970747  TIP3      5581            0.0000000000
     68259      6942  TIP3      OH2           -30.9162511427        0.7733018582       66.2382230776  TIP3      5582            0.0000000000
     68260      6942  TIP3      H1            -31.1259688980        0.7286589253       67.1830319991  TIP3      5582            0.0000000000
     68261      6942  TIP3      H2            -31.0909924954       -0.1352909650       65.9879437659  TIP3      5582            0.0000000000
     68262      6943  TIP3      OH2           -35.0508494523        3.5004352357       76.6812000192  TIP3      5583            0.0000000000
     68263      6943  TIP3      H1            -35.6519755611        3.4970985942       77.4610064482  TIP3      5583            0.0000000000
     68264      6943  TIP3      H2            -34.9502240053        4.4631177531       76.5340652890  TIP3      5583            0.0000000000
     68265      6944  TIP3      OH2           -35.0728011036        3.6080537161       71.6975396693  TIP3      5584            0.0000000000
     68266      6944  TIP3      H1            -36.0008725171        3.3525362028       71.5025869716  TIP3      5584            0.0000000000
     68267      6944  TIP3      H2            -34.6518147574        3.3240105887       70.8489603055  TIP3      5584            0.0000000000
     68268      6945  TIP3      OH2           -29.5339446523        4.0933741727       70.4234978690  TIP3      5585            0.0000000000
     68269      6945  TIP3      H1            -29.9047053332        4.9477081210       70.1079943507  TIP3      5585            0.0000000000
     68270      6945  TIP3      H2            -28.8136484299        3.9263882701       69.7887936515  TIP3      5585            0.0000000000
     68271      6946  TIP3      OH2           -30.4238132888        4.3744081308       81.9227644596  TIP3      5586            0.0000000000
     68272      6946  TIP3      H1            -30.9567460105        3.5706907696       82.1497574029  TIP3      5586            0.0000000000
     68273      6946  TIP3      H2            -29.5832332328        4.1570458301       82.3466489180  TIP3      5586            0.0000000000
     68274      6947  TIP3      OH2           -37.0456322008        4.1884971094       78.3828371985  TIP3      5587            0.0000000000
     68275      6947  TIP3      H1            -37.1754307055        4.3769262982       79.3359648100  TIP3      5587            0.0000000000
     68276      6947  TIP3      H2            -37.6734464756        3.4606099135       78.3853152444  TIP3      5587            0.0000000000
     68277      6948  TIP3      OH2           -40.3171320337       -0.0155767989       72.2564756275  TIP3      5588            0.0000000000
     68278      6948  TIP3      H1            -40.0564284325        0.6555285860       72.9116092761  TIP3      5588            0.0000000000
     68279      6948  TIP3      H2            -40.0230691543        0.3912437654       71.4268975854  TIP3      5588            0.0000000000
     68280      6949  TIP3      OH2           -39.4041242845        1.6705103353       67.8872998295  TIP3      5589            0.0000000000
     68281      6949  TIP3      H1            -38.9276039003        2.1886988330       67.2274598179  TIP3      5589            0.0000000000
     68282      6949  TIP3      H2            -40.1492762896        2.2252739584       68.1274495696  TIP3      5589            0.0000000000
     68283      6950  TIP3      OH2           -29.3321979487        5.1744381398       77.8144448951  TIP3      5590            0.0000000000
     68284      6950  TIP3      H1            -28.8683530400        4.5260414928       77.2854165446  TIP3      5590            0.0000000000
     68285      6950  TIP3      H2            -29.7015345467        4.6848274178       78.5715211819  TIP3      5590            0.0000000000
     68286      6951  TIP3      OH2           -37.5931177900        2.7489732570       71.5310052873  TIP3      5591            0.0000000000
     68287      6951  TIP3      H1            -38.4743133923        2.8579248636       71.1405335834  TIP3      5591            0.0000000000
     68288      6951  TIP3      H2            -37.3526122249        1.8857112685       71.1372260192  TIP3      5591            0.0000000000
     68289      6952  TIP3      OH2           -34.0296618397        2.8073780256       69.1844424145  TIP3      5592            0.0000000000
     68290      6952  TIP3      H1            -33.0700597924        2.8973170939       69.3311379935  TIP3      5592            0.0000000000
     68291      6952  TIP3      H2            -34.2745549235        3.4612033973       68.5026336267  TIP3      5592            0.0000000000
     68292      6953  TIP3      OH2           -35.2970717195        3.9618009821       66.7421965135  TIP3      5593            0.0000000000
     68293      6953  TIP3      H1            -35.8514893038        3.5826123057       66.0394477544  TIP3      5593            0.0000000000
     68294      6953  TIP3      H2            -34.4803614777        4.1713872178       66.2708742901  TIP3      5593            0.0000000000
     68295      6954  TIP3      OH2           -37.1547508807        8.4934300341       81.8284324116  TIP3      5594            0.0000000000
     68296      6954  TIP3      H1            -36.4541916839        8.7760726393       82.4250297385  TIP3      5594            0.0000000000
     68297      6954  TIP3      H2            -37.9414899120        8.6817710205       82.3455842732  TIP3      5594            0.0000000000
     68298      6955  TIP3      OH2           -36.1535593633        0.0995760446       71.0430262018  TIP3      5595            0.0000000000
     68299      6955  TIP3      H1            -36.5033584991       -0.8153848937       71.0138507772  TIP3      5595            0.0000000000
     68300      6955  TIP3      H2            -35.3886876429        0.0108189286       70.4549776127  TIP3      5595            0.0000000000
     68301      6956  TIP3      OH2           -31.9533359291        8.4764537338       68.6727807037  TIP3      5596            0.0000000000
     68302      6956  TIP3      H1            -32.7583628247        8.0109113770       68.3527390296  TIP3      5596            0.0000000000
     68303      6956  TIP3      H2            -32.1562818219        8.6101957815       69.6182404274  TIP3      5596            0.0000000000
     68304      6957  TIP3      OH2           -24.7948171225        7.6943764540       77.4769085875  TIP3      5597            0.0000000000
     68305      6957  TIP3      H1            -24.2227795940        8.1403072718       76.8611831409  TIP3      5597            0.0000000000
     68306      6957  TIP3      H2            -25.6538721670        7.7083341344       77.0001695877  TIP3      5597            0.0000000000
     68307      6958  TIP3      OH2           -27.3859948364        3.1987243147       68.5215199095  TIP3      5598            0.0000000000
     68308      6958  TIP3      H1            -26.4959471321        3.0649688499       68.9094830459  TIP3      5598            0.0000000000
     68309      6958  TIP3      H2            -27.3077793776        4.0098565621       68.0038336181  TIP3      5598            0.0000000000
     68310      6959  TIP3      OH2           -36.7423192852        7.8998046596       74.5279093173  TIP3      5599            0.0000000000
     68311      6959  TIP3      H1            -36.1412792232        7.7800282349       73.7794020350  TIP3      5599            0.0000000000
     68312      6959  TIP3      H2            -36.8267410303        7.0379703220       74.9513082655  TIP3      5599            0.0000000000
     68313      6960  TIP3      OH2           -29.8807269638        9.9561678489       67.6683251330  TIP3      5600            0.0000000000
     68314      6960  TIP3      H1            -30.1624032180       10.7913208213       68.0803626402  TIP3      5600            0.0000000000
     68315      6960  TIP3      H2            -30.6010364262        9.3545065878       67.9364063623  TIP3      5600            0.0000000000
     68316      6961  TIP3      OH2           -39.7914727319        6.2221525517       79.7171945860  TIP3      5601            0.0000000000
     68317      6961  TIP3      H1            -39.6408624048        5.8555675651       80.6029405011  TIP3      5601            0.0000000000
     68318      6961  TIP3      H2            -40.4806027638        5.6623990018       79.3328246151  TIP3      5601            0.0000000000
     68319      6962  TIP3      OH2           -32.8218969561        5.8484935021       81.9478523268  TIP3      5602            0.0000000000
     68320      6962  TIP3      H1            -33.1441283032        5.5505044142       81.0879335152  TIP3      5602            0.0000000000
     68321      6962  TIP3      H2            -31.8897098029        5.5356515446       81.9216960682  TIP3      5602            0.0000000000
     68322      6963  TIP3      OH2           -22.6211249662        3.4241896195       68.2961280665  TIP3      5603            0.0000000000
     68323      6963  TIP3      H1            -22.9956925618        3.0011976876       67.5122042036  TIP3      5603            0.0000000000
     68324      6963  TIP3      H2            -22.3860237478        4.3079488379       67.9479547120  TIP3      5603            0.0000000000
     68325      6964  TIP3      OH2           -26.9962727420        6.9533989016       75.8291821563  TIP3      5604            0.0000000000
     68326      6964  TIP3      H1            -27.9414324314        6.8350386357       75.6564916893  TIP3      5604            0.0000000000
     68327      6964  TIP3      H2            -26.5876443330        6.2251730485       75.3175507130  TIP3      5604            0.0000000000
     68328      6965  TIP3      OH2           -38.7832100153        6.1752199832       66.5466738030  TIP3      5605            0.0000000000
     68329      6965  TIP3      H1            -38.0863713831        6.8231240774       66.7799833930  TIP3      5605            0.0000000000
     68330      6965  TIP3      H2            -39.5875790622        6.6381969163       66.7533091261  TIP3      5605            0.0000000000
     68331      6966  TIP3      OH2           -33.0713484925        8.9938434397       71.3596179396  TIP3      5606            0.0000000000
     68332      6966  TIP3      H1            -33.2894611258        9.9223006288       71.4910369485  TIP3      5606            0.0000000000
     68333      6966  TIP3      H2            -33.8034121476        8.5391456328       71.8198905651  TIP3      5606            0.0000000000
     68334      6967  TIP3      OH2           -38.3515629331        0.2021817727       78.0318732309  TIP3      5607            0.0000000000
     68335      6967  TIP3      H1            -38.9606086500        0.8703166798       78.4137073320  TIP3      5607            0.0000000000
     68336      6967  TIP3      H2            -38.0016885863        0.0569921115       78.9495727228  TIP3      5607            0.0000000000
     68337      6968  TIP3      OH2           -33.7258694556       10.8640535216       67.4292863520  TIP3      5608            0.0000000000
     68338      6968  TIP3      H1            -33.6353997929       10.3250779224       68.2151795634  TIP3      5608            0.0000000000
     68339      6968  TIP3      H2            -33.8080330889       11.7648816864       67.7333310392  TIP3      5608            0.0000000000
     68340      6969  TIP3      OH2           -37.3566992070        8.0967200857       67.9745975940  TIP3      5609            0.0000000000
     68341      6969  TIP3      H1            -38.0489112160        8.5066080701       68.5278526287  TIP3      5609            0.0000000000
     68342      6969  TIP3      H2            -36.7803498238        8.8335212032       67.6877061864  TIP3      5609            0.0000000000
     68343      6970  TIP3      OH2           -31.0108832775       12.5676748149       68.1947362069  TIP3      5610            0.0000000000
     68344      6970  TIP3      H1            -31.8429750110       13.0506972040       68.2151878391  TIP3      5610            0.0000000000
     68345      6970  TIP3      H2            -30.4820454468       12.9790792969       67.5029235575  TIP3      5610            0.0000000000
     68346      6971  TIP3      OH2           -31.5205789422        2.1291422391       70.1746325614  TIP3      5611            0.0000000000
     68347      6971  TIP3      H1            -30.7040312145        2.6794516117       70.1835212238  TIP3      5611            0.0000000000
     68348      6971  TIP3      H2            -31.7291197344        2.0128901379       71.1020384646  TIP3      5611            0.0000000000
     68349      6972  TIP3      OH2           -30.6647250015       -0.7834729249       71.0585880726  TIP3      5612            0.0000000000
     68350      6972  TIP3      H1            -30.9746578401       -0.1613110984       71.7292422076  TIP3      5612            0.0000000000
     68351      6972  TIP3      H2            -29.9786365339       -0.2685337920       70.6014003822  TIP3      5612            0.0000000000
     68352      6973  TIP3      OH2           -34.8834023464        0.2454250797       67.9548864741  TIP3      5613            0.0000000000
     68353      6973  TIP3      H1            -35.0021497637        1.2011277284       68.1131828547  TIP3      5613            0.0000000000
     68354      6973  TIP3      H2            -33.9469200801        0.0606533487       68.0476909116  TIP3      5613            0.0000000000
     68355      6974  TIP3      OH2           -26.1983417315        4.8112242431       74.2932915574  TIP3      5614            0.0000000000
     68356      6974  TIP3      H1            -26.9247957258        4.3478254282       73.8872718629  TIP3      5614            0.0000000000
     68357      6974  TIP3      H2            -25.6611128209        4.0951284990       74.7113186226  TIP3      5614            0.0000000000
     68358      6975  TIP3      OH2           -37.5521734489       -1.8813214750       74.6729926679  TIP3      5615            0.0000000000
     68359      6975  TIP3      H1            -37.7833919751       -1.8077559672       73.7154086483  TIP3      5615            0.0000000000
     68360      6975  TIP3      H2            -38.0337100787       -2.6998615218       74.9113465762  TIP3      5615            0.0000000000
     68361      6976  TIP3      OH2           -32.8055017466        8.5277888441       82.5062782586  TIP3      5616            0.0000000000
     68362      6976  TIP3      H1            -33.1314638988        8.7437309481       81.6391243621  TIP3      5616            0.0000000000
     68363      6976  TIP3      H2            -32.7011892601        7.5551352377       82.4319642562  TIP3      5616            0.0000000000
     68364      6977  TIP3      OH2           -29.8674066171        9.9308054277       64.8942154593  TIP3      5617            0.0000000000
     68365      6977  TIP3      H1            -29.9925456611       10.1098278770       65.8431918423  TIP3      5617            0.0000000000
     68366      6977  TIP3      H2            -30.0051251054        8.9937026242       64.8110638870  TIP3      5617            0.0000000000
     68367      6978  TIP3      OH2           -27.0709741693        8.3638958335       79.9250623543  TIP3      5618            0.0000000000
     68368      6978  TIP3      H1            -26.3285217246        8.9509920720       79.7447857411  TIP3      5618            0.0000000000
     68369      6978  TIP3      H2            -27.8366919692        8.9562805230       79.9276640141  TIP3      5618            0.0000000000
     68370      6979  TIP3      OH2           -38.5822023023        5.7211816984       82.5051342913  TIP3      5619            0.0000000000
     68371      6979  TIP3      H1            -38.2078825191        4.8388582098       82.3992962168  TIP3      5619            0.0000000000
     68372      6979  TIP3      H2            -38.8815234130        5.7212013105       83.4001458608  TIP3      5619            0.0000000000
     68373      6980  TIP3      OH2           -33.9482139156        6.8679314998       67.5548266559  TIP3      5620            0.0000000000
     68374      6980  TIP3      H1            -34.4726253726        6.3648197315       68.1891217965  TIP3      5620            0.0000000000
     68375      6980  TIP3      H2            -33.6705456731        6.1894032621       66.8965444789  TIP3      5620            0.0000000000
     68376      6981  TIP3      OH2           -34.7055932657        4.7050916496       79.8383571421  TIP3      5621            0.0000000000
     68377      6981  TIP3      H1            -35.3250827113        5.3971322254       80.1301059506  TIP3      5621            0.0000000000
     68378      6981  TIP3      H2            -34.3180308425        5.0984938332       79.0439642874  TIP3      5621            0.0000000000
     68379      6982  TIP3      OH2           -32.9269045634        5.1570145218       65.7236868564  TIP3      5622            0.0000000000
     68380      6982  TIP3      H1            -33.0220270433        4.9428586561       64.7854918583  TIP3      5622            0.0000000000
     68381      6982  TIP3      H2            -31.9526409219        5.1826378940       65.8542349788  TIP3      5622            0.0000000000
     68382      6983  TIP3      OH2           -29.6629895260        7.2269103522       83.1755525233  TIP3      5623            0.0000000000
     68383      6983  TIP3      H1            -28.7116455939        7.2365565706       83.0590034280  TIP3      5623            0.0000000000
     68384      6983  TIP3      H2            -29.8117319239        6.5149208067       83.8004926278  TIP3      5623            0.0000000000
     68385      6984  TIP3      OH2           -34.2785608796        2.0818879077       80.8784260784  TIP3      5624            0.0000000000
     68386      6984  TIP3      H1            -34.1583281829        1.3533894198       80.2412043873  TIP3      5624            0.0000000000
     68387      6984  TIP3      H2            -34.3292846914        2.8838399111       80.3222928829  TIP3      5624            0.0000000000
     68388      6985  TIP3      OH2           -33.8669671026        0.5291419543       78.4841701598  TIP3      5625            0.0000000000
     68389      6985  TIP3      H1            -33.3576113571        0.8759377441       77.7434616290  TIP3      5625            0.0000000000
     68390      6985  TIP3      H2            -34.7308701005        0.3502390209       78.0435491015  TIP3      5625            0.0000000000
     68391      6986  TIP3      OH2           -32.3888604920        5.8783458928       78.6203918325  TIP3      5626            0.0000000000
     68392      6986  TIP3      H1            -31.5787867269        5.7816973246       78.1197935890  TIP3      5626            0.0000000000
     68393      6986  TIP3      H2            -32.7031193669        6.7798127687       78.4021076731  TIP3      5626            0.0000000000
     68394      6987  TIP3      OH2           -27.9514792304        3.6906282576       83.6360671301  TIP3      5627            0.0000000000
     68395      6987  TIP3      H1            -27.7311756060        2.7462959059       83.6062362807  TIP3      5627            0.0000000000
     68396      6987  TIP3      H2            -27.0896201612        4.1328203965       83.6595671509  TIP3      5627            0.0000000000
     68397      6988  TIP3      OH2           -26.5993590234        6.4756576761       81.8196572186  TIP3      5628            0.0000000000
     68398      6988  TIP3      H1            -26.8806365544        7.1877959779       81.1985923977  TIP3      5628            0.0000000000
     68399      6988  TIP3      H2            -25.6472581012        6.4524210176       81.6245402278  TIP3      5628            0.0000000000
     68400      6989  TIP3      OH2           -35.8363549653        3.3704161611       82.8325115935  TIP3      5629            0.0000000000
     68401      6989  TIP3      H1            -36.5795785720        2.7554336396       82.6898544831  TIP3      5629            0.0000000000
     68402      6989  TIP3      H2            -35.1818293220        2.9824182507       82.2186098501  TIP3      5629            0.0000000000
     68403      6990  TIP3      OH2           -33.1101461829       -2.1153459379       78.8358787950  TIP3      5630            0.0000000000
     68404      6990  TIP3      H1            -33.2260741092       -1.1513222830       78.7241326762  TIP3      5630            0.0000000000
     68405      6990  TIP3      H2            -33.8801636625       -2.4620125866       78.3544385459  TIP3      5630            0.0000000000
     68406      6991  TIP3      OH2           -31.8701944407        2.2735186587       82.4534376832  TIP3      5631            0.0000000000
     68407      6991  TIP3      H1            -32.1510419260        1.9560922765       83.3235071569  TIP3      5631            0.0000000000
     68408      6991  TIP3      H2            -32.6425947188        2.0018212565       81.9202991151  TIP3      5631            0.0000000000
     68409      6992  TIP3      OH2           -37.1226680768        1.1223170403       82.8021247630  TIP3      5632            0.0000000000
     68410      6992  TIP3      H1            -37.3260230981        0.4991207615       82.0727089213  TIP3      5632            0.0000000000
     68411      6992  TIP3      H2            -37.6437705158        0.7802779623       83.5624609950  TIP3      5632            0.0000000000
     68412      6993  TIP3      OH2           -32.9077125302       -2.7963930850       81.5441764958  TIP3      5633            0.0000000000
     68413      6993  TIP3      H1            -32.1680910949       -3.4010930392       81.5018826682  TIP3      5633            0.0000000000
     68414      6993  TIP3      H2            -32.9956194964       -2.5252731328       80.6069235819  TIP3      5633            0.0000000000
     68415      6994  TIP3      OH2           -22.6636237063        6.3791222630       71.0021174977  TIP3      5634            0.0000000000
     68416      6994  TIP3      H1            -23.3982610816        5.9219490184       71.4266699097  TIP3      5634            0.0000000000
     68417      6994  TIP3      H2            -22.0760413247        6.5737770047       71.7518488447  TIP3      5634            0.0000000000
     68418      6995  TIP3      OH2           -22.3888970018        6.2693540047       67.3761946829  TIP3      5635            0.0000000000
     68419      6995  TIP3      H1            -22.9510357430        6.6185982597       66.6841074927  TIP3      5635            0.0000000000
     68420      6995  TIP3      H2            -22.4433138641        6.9303163110       68.0903016360  TIP3      5635            0.0000000000
     68421      6996  TIP3      OH2           -24.0061823555        6.8465992709       81.1238852053  TIP3      5636            0.0000000000
     68422      6996  TIP3      H1            -23.4093546349        6.1117904755       81.3805375983  TIP3      5636            0.0000000000
     68423      6996  TIP3      H2            -23.4010659262        7.5823990349       81.2215185706  TIP3      5636            0.0000000000
     68424      6997  TIP3      OH2           -22.4920938129        4.7616721956       81.9384554843  TIP3      5637            0.0000000000
     68425      6997  TIP3      H1            -23.3650469131        4.3679455016       81.7323125645  TIP3      5637            0.0000000000
     68426      6997  TIP3      H2            -21.9070183305        3.9883452486       81.8250427114  TIP3      5637            0.0000000000
     68427      6998  TIP3      OH2           -25.1668896101        2.4961368653       69.9337806438  TIP3      5638            0.0000000000
     68428      6998  TIP3      H1            -24.8717599620        1.6252881816       70.2239503390  TIP3      5638            0.0000000000
     68429      6998  TIP3      H2            -24.3430533612        2.9027553673       69.6522596721  TIP3      5638            0.0000000000
     68430      6999  TIP3      OH2           -24.5784745182        3.0625594194       75.4847881344  TIP3      5639            0.0000000000
     68431      6999  TIP3      H1            -23.6097428882        3.2221532810       75.4456684610  TIP3      5639            0.0000000000
     68432      6999  TIP3      H2            -24.7021547031        3.0818984034       76.4407271147  TIP3      5639            0.0000000000
     68433      7000  TIP3      OH2           -24.5182592247        3.7323411794       78.2743015970  TIP3      5640            0.0000000000
     68434      7000  TIP3      H1            -25.3741337866        4.0630652497       78.6056234589  TIP3      5640            0.0000000000
     68435      7000  TIP3      H2            -24.0596732353        4.5719311794       78.0486402164  TIP3      5640            0.0000000000
     68436      7001  TIP3      OH2           -40.0224361960        3.2369633419       82.2082076178  TIP3      5641            0.0000000000
     68437      7001  TIP3      H1            -39.3190467359        2.6147079330       81.9597399965  TIP3      5641            0.0000000000
     68438      7001  TIP3      H2            -40.6170770552        2.4434954904       82.2968954163  TIP3      5641            0.0000000000
     68439      7002  TIP3      OH2           -39.0269446637        0.2938476631       75.0810034598  TIP3      5642            0.0000000000
     68440      7002  TIP3      H1            -38.3832077117       -0.4362899082       74.9795788702  TIP3      5642            0.0000000000
     68441      7002  TIP3      H2            -38.4687883719        1.0827062176       75.0418578232  TIP3      5642            0.0000000000
     68442      7003  TIP3      OH2           -40.2745364950        3.3783705291       75.6936508452  TIP3      5643            0.0000000000
     68443      7003  TIP3      H1            -40.0867797321        3.3679281204       74.7387941565  TIP3      5643            0.0000000000
     68444      7003  TIP3      H2            -40.1451036720        4.3228823861       75.8466772185  TIP3      5643            0.0000000000
     68445      7004  TIP3      OH2           -40.3701746720       -0.1571707572       69.6916324264  TIP3      5644            0.0000000000
     68446      7004  TIP3      H1            -41.3018509145        0.0264655770       69.5828644551  TIP3      5644            0.0000000000
     68447      7004  TIP3      H2            -39.9434504762        0.3267391192       68.9702785653  TIP3      5644            0.0000000000
     68448      7005  TIP3      OH2            40.9637748252       -1.5658066936       78.0482992162  TIP3      5645            0.0000000000
     68449      7005  TIP3      H1             40.3122872972       -1.7018750659       78.7320528481  TIP3      5645            0.0000000000
     68450      7005  TIP3      H2             40.5635254704       -0.8384672124       77.5551444381  TIP3      5645            0.0000000000
     68451      7006  TIP3      OH2           -30.9874152471       14.1127079695       81.4203938208  TIP3      5646            0.0000000000
     68452      7006  TIP3      H1            -30.8478881216       13.8001746153       82.3373853274  TIP3      5646            0.0000000000
     68453      7006  TIP3      H2            -30.1290968936       14.4480094932       81.1252564542  TIP3      5646            0.0000000000
     68454      7007  TIP3      OH2           -28.6727223011       15.3964825181       80.6957044870  TIP3      5647            0.0000000000
     68455      7007  TIP3      H1            -27.9621784409       14.8172242998       80.3837375465  TIP3      5647            0.0000000000
     68456      7007  TIP3      H2            -28.2675582199       15.8166230694       81.4585814479  TIP3      5647            0.0000000000
     68457      7008  TIP3      OH2           -30.7077695021       15.4239143738       76.7475843307  TIP3      5648            0.0000000000
     68458      7008  TIP3      H1            -31.1169210923       15.9761020015       76.0852642182  TIP3      5648            0.0000000000
     68459      7008  TIP3      H2            -30.5225352461       16.0434760507       77.4720060084  TIP3      5648            0.0000000000
     68460      7009  TIP3      OH2           -37.9070421589       -1.9720752763       71.9424443147  TIP3      5649            0.0000000000
     68461      7009  TIP3      H1            -38.7155366395       -2.1296866058       71.4146765512  TIP3      5649            0.0000000000
     68462      7009  TIP3      H2            -37.4399874720       -2.8195122707       71.8688906338  TIP3      5649            0.0000000000
     68463      7010  TIP3      OH2           -39.1101792656       -2.2367524243       67.9062567341  TIP3      5650            0.0000000000
     68464      7010  TIP3      H1            -38.7320625444       -1.5935616485       67.2866986621  TIP3      5650            0.0000000000
     68465      7010  TIP3      H2            -39.7856733398       -1.6458813581       68.2718959211  TIP3      5650            0.0000000000
     68466      7011  TIP3      OH2           -33.4198685481       -2.0365063896       71.7035428068  TIP3      5651            0.0000000000
     68467      7011  TIP3      H1            -32.5336362064       -1.6579452681       71.6826471857  TIP3      5651            0.0000000000
     68468      7011  TIP3      H2            -33.4856636381       -2.2286799874       72.6466520923  TIP3      5651            0.0000000000
     68469      7012  TIP3      OH2           -36.8954386898        0.0992089212       66.5378687438  TIP3      5652            0.0000000000
     68470      7012  TIP3      H1            -36.7287985161       -0.6101989787       65.9073768638  TIP3      5652            0.0000000000
     68471      7012  TIP3      H2            -36.1466414247        0.0547672969       67.1457738795  TIP3      5652            0.0000000000
     68472      7013  TIP3      OH2           -32.2258559266        0.0150931474       68.5978186554  TIP3      5653            0.0000000000
     68473      7013  TIP3      H1            -32.0755427793       -0.5978025970       69.3274278200  TIP3      5653            0.0000000000
     68474      7013  TIP3      H2            -32.2271879521        0.8767595354       69.0677886084  TIP3      5653            0.0000000000
     68475      7014  TIP3      OH2           -38.0268902197       -1.4280012952       81.4962052065  TIP3      5654            0.0000000000
     68476      7014  TIP3      H1            -38.3857931077       -2.2671024595       81.8425493893  TIP3      5654            0.0000000000
     68477      7014  TIP3      H2            -37.0936809482       -1.4890794991       81.8088912105  TIP3      5654            0.0000000000
     68478      7015  TIP3      OH2           -35.9870149915       -2.0579073095       82.9824160322  TIP3      5655            0.0000000000
     68479      7015  TIP3      H1            -35.0947280478       -2.3993226639       82.7820020577  TIP3      5655            0.0000000000
     68480      7015  TIP3      H2            -36.4001520299       -2.8145792882       83.4428205829  TIP3      5655            0.0000000000
     68481      7016  TIP3      OH2           -18.7668609718        6.0813932696       76.8616797074  TIP3      5656            0.0000000000
     68482      7016  TIP3      H1            -18.6914132258        5.4794620951       77.6089514231  TIP3      5656            0.0000000000
     68483      7016  TIP3      H2            -18.0243462313        6.6778261052       77.0381543438  TIP3      5656            0.0000000000
     68484      7017  TIP3      OH2           -21.1775635093        4.1899070229       70.8022388555  TIP3      5657            0.0000000000
     68485      7017  TIP3      H1            -21.6720609832        5.0232169949       70.7622093457  TIP3      5657            0.0000000000
     68486      7017  TIP3      H2            -21.7146437857        3.5940859255       70.2576614758  TIP3      5657            0.0000000000
     68487      7018  TIP3      OH2           -20.4398227716        6.3875413829       73.0277582782  TIP3      5658            0.0000000000
     68488      7018  TIP3      H1            -20.2407927004        5.5246415020       73.4043470792  TIP3      5658            0.0000000000
     68489      7018  TIP3      H2            -19.8143574574        6.4340707186       72.2821170546  TIP3      5658            0.0000000000
     68490      7019  TIP3      OH2            -4.1416968453        0.5214852824       76.4905483176  TIP3      5659            0.0000000000
     68491      7019  TIP3      H1             -3.9512740955        1.0813987451       77.2758265054  TIP3      5659            0.0000000000
     68492      7019  TIP3      H2             -3.5640179459        0.9292456012       75.8310496454  TIP3      5659            0.0000000000
     68493      7020  TIP3      OH2            -9.5082325576        3.3199945012       76.0645800077  TIP3      5660            0.0000000000
     68494      7020  TIP3      H1             -9.4287177770        2.3554410396       76.0697298199  TIP3      5660            0.0000000000
     68495      7020  TIP3      H2             -9.6610244128        3.4828965124       75.1175815645  TIP3      5660            0.0000000000
     68496      7021  TIP3      OH2            -8.6786436642        1.4423965642       71.6464007601  TIP3      5661            0.0000000000
     68497      7021  TIP3      H1             -8.0317851605        1.1954129219       72.3522693377  TIP3      5661            0.0000000000
     68498      7021  TIP3      H2             -8.1445214147        2.0676854172       71.1273292441  TIP3      5661            0.0000000000
     68499      7022  TIP3      OH2            -3.7037205322        1.9097400791       78.7467667341  TIP3      5662            0.0000000000
     68500      7022  TIP3      H1             -4.3099802545        2.6751801858       78.6928179453  TIP3      5662            0.0000000000
     68501      7022  TIP3      H2             -3.6041210108        1.8309252936       79.7105815627  TIP3      5662            0.0000000000
     68502      7023  TIP3      OH2            -6.9269819548        0.7966675945       73.6514758676  TIP3      5663            0.0000000000
     68503      7023  TIP3      H1             -7.1197357029        0.0415828658       74.2160790942  TIP3      5663            0.0000000000
     68504      7023  TIP3      H2             -6.2618839095        1.2712278836       74.1891651906  TIP3      5663            0.0000000000
     68505      7024  TIP3      OH2            -6.8526783695       11.2455815412       76.0104330131  TIP3      5664            0.0000000000
     68506      7024  TIP3      H1             -7.8297670720       11.2900225784       76.0484069162  TIP3      5664            0.0000000000
     68507      7024  TIP3      H2             -6.6366396916       12.1427935012       75.7444771291  TIP3      5664            0.0000000000
     68508      7025  TIP3      OH2            -6.5676179750       -0.4278001267       77.3673823108  TIP3      5665            0.0000000000
     68509      7025  TIP3      H1             -7.3268247492        0.1546263650       77.2366084634  TIP3      5665            0.0000000000
     68510      7025  TIP3      H2             -5.8545576420       -0.0556617365       76.8085228030  TIP3      5665            0.0000000000
     68511      7026  TIP3      OH2           -13.5868269351       -2.3593798516       74.7783695212  TIP3      5666            0.0000000000
     68512      7026  TIP3      H1            -13.6572944680       -3.3283255888       74.7013760072  TIP3      5666            0.0000000000
     68513      7026  TIP3      H2            -14.4431626713       -2.0831995111       75.1133696557  TIP3      5666            0.0000000000
     68514      7027  TIP3      OH2            -7.4329763442       10.9007953957       71.0366443682  TIP3      5667            0.0000000000
     68515      7027  TIP3      H1             -7.7091571263       10.2088610137       70.4272981015  TIP3      5667            0.0000000000
     68516      7027  TIP3      H2             -7.4057239308       10.5095489115       71.9121217251  TIP3      5667            0.0000000000
     68517      7028  TIP3      OH2            -5.7080280221        9.4826045532       79.5947562084  TIP3      5668            0.0000000000
     68518      7028  TIP3      H1             -5.6634728596        8.8592203391       78.8473502251  TIP3      5668            0.0000000000
     68519      7028  TIP3      H2             -5.6040301313       10.3435031602       79.1627422794  TIP3      5668            0.0000000000
     68520      7029  TIP3      OH2            -7.8653932981        6.6383940449       70.2617874900  TIP3      5669            0.0000000000
     68521      7029  TIP3      H1             -8.6005721698        6.8654288714       70.8480834887  TIP3      5669            0.0000000000
     68522      7029  TIP3      H2             -7.3778391616        5.9510413323       70.7611014218  TIP3      5669            0.0000000000
     68523      7030  TIP3      OH2            -9.5002751411       11.6111965004       76.5284994660  TIP3      5670            0.0000000000
     68524      7030  TIP3      H1             -9.8100943105       12.2391973698       77.1696741699  TIP3      5670            0.0000000000
     68525      7030  TIP3      H2             -9.7815522486       10.7513728427       76.9187344399  TIP3      5670            0.0000000000
     68526      7031  TIP3      OH2            -8.9991445849        5.8140349456       67.9262462236  TIP3      5671            0.0000000000
     68527      7031  TIP3      H1             -8.4667285583        6.0288066739       68.7158682769  TIP3      5671            0.0000000000
     68528      7031  TIP3      H2             -8.5961623828        6.3144236260       67.1867461670  TIP3      5671            0.0000000000
     68529      7032  TIP3      OH2            -4.1790240812       11.9269510049       66.1458676710  TIP3      5672            0.0000000000
     68530      7032  TIP3      H1             -4.0494333831       12.8792106763       66.3181488981  TIP3      5672            0.0000000000
     68531      7032  TIP3      H2             -3.2466154303       11.6374929341       66.1136636726  TIP3      5672            0.0000000000
     68532      7033  TIP3      OH2           -21.2086605738        8.7130804974       78.6991084669  TIP3      5673            0.0000000000
     68533      7033  TIP3      H1            -21.6008074444        8.6017113715       77.8243860984  TIP3      5673            0.0000000000
     68534      7033  TIP3      H2            -21.1146507710        7.7646064176       78.9337633927  TIP3      5673            0.0000000000
     68535      7034  TIP3      OH2            -3.1876860643       12.1596003349       81.1728549456  TIP3      5674            0.0000000000
     68536      7034  TIP3      H1             -3.3124671790       11.2215332736       81.0897996255  TIP3      5674            0.0000000000
     68537      7034  TIP3      H2             -4.0600488631       12.4218392936       81.5254603541  TIP3      5674            0.0000000000
     68538      7035  TIP3      OH2            -8.8109277039       14.6528820766       66.7984886473  TIP3      5675            0.0000000000
     68539      7035  TIP3      H1             -8.3144674546       13.9284826638       66.3553515626  TIP3      5675            0.0000000000
     68540      7035  TIP3      H2             -8.6963293337       14.3991057977       67.7148177548  TIP3      5675            0.0000000000
     68541      7036  TIP3      OH2            -6.0540570341        3.6787408417       81.5704381202  TIP3      5676            0.0000000000
     68542      7036  TIP3      H1             -6.5123461748        4.1325166573       80.8653159950  TIP3      5676            0.0000000000
     68543      7036  TIP3      H2             -6.0511289854        2.7440235266       81.3101336035  TIP3      5676            0.0000000000
     68544      7037  TIP3      OH2           -18.9413887737       10.0756464791       79.6041164590  TIP3      5677            0.0000000000
     68545      7037  TIP3      H1            -18.6963663426        9.7121024353       80.4596959349  TIP3      5677            0.0000000000
     68546      7037  TIP3      H2            -19.7762609677        9.6215323268       79.3867613625  TIP3      5677            0.0000000000
     68547      7038  TIP3      OH2            -8.2935803719        2.0424393492       79.8105710482  TIP3      5678            0.0000000000
     68548      7038  TIP3      H1             -8.8701587828        1.8294530799       80.5881548474  TIP3      5678            0.0000000000
     68549      7038  TIP3      H2             -8.5176760099        2.9478297274       79.5901658962  TIP3      5678            0.0000000000
     68550      7039  TIP3      OH2            -7.5417994633        6.8733183830       65.6535638024  TIP3      5679            0.0000000000
     68551      7039  TIP3      H1             -7.5524305631        6.6383758273       64.7044012879  TIP3      5679            0.0000000000
     68552      7039  TIP3      H2             -6.6976500276        7.3100869383       65.7524224760  TIP3      5679            0.0000000000
     68553      7040  TIP3      OH2           -10.6614352617        4.1267745342       70.3928753669  TIP3      5680            0.0000000000
     68554      7040  TIP3      H1            -11.0698890527        4.9368105287       70.0666003129  TIP3      5680            0.0000000000
     68555      7040  TIP3      H2             -9.9517421373        3.9938172584       69.7461455263  TIP3      5680            0.0000000000
     68556      7041  TIP3      OH2            -9.6175964218        3.5667026410       73.2673928926  TIP3      5681            0.0000000000
     68557      7041  TIP3      H1             -9.9012310704        4.1404752457       72.5361332697  TIP3      5681            0.0000000000
     68558      7041  TIP3      H2             -9.4781637809        2.7342466323       72.7936375125  TIP3      5681            0.0000000000
     68559      7042  TIP3      OH2           -21.8513925625        0.9476855085       72.4075970013  TIP3      5682            0.0000000000
     68560      7042  TIP3      H1            -21.2266155119        0.8261710934       73.1459783814  TIP3      5682            0.0000000000
     68561      7042  TIP3      H2            -21.4141805850        0.4606211227       71.7011209848  TIP3      5682            0.0000000000
     68562      7043  TIP3      OH2           -20.5052779887        1.6807611657       67.8758657594  TIP3      5683            0.0000000000
     68563      7043  TIP3      H1            -20.0915440403        2.2326268740       67.2158332970  TIP3      5683            0.0000000000
     68564      7043  TIP3      H2            -21.2648821377        2.1981334037       68.1712927773  TIP3      5683            0.0000000000
     68565      7044  TIP3      OH2           -13.6011463602        1.1928895787       72.6818909124  TIP3      5684            0.0000000000
     68566      7044  TIP3      H1            -14.5478678649        1.1627748191       72.9345016400  TIP3      5684            0.0000000000
     68567      7044  TIP3      H2            -13.1380816372        1.0299314848       73.5187309812  TIP3      5684            0.0000000000
     68568      7045  TIP3      OH2           -15.1486621085        2.7104602601       69.1507301858  TIP3      5685            0.0000000000
     68569      7045  TIP3      H1            -14.2134413779        2.8603007590       69.3684752842  TIP3      5685            0.0000000000
     68570      7045  TIP3      H2            -15.3447517105        3.4275160323       68.5425357766  TIP3      5685            0.0000000000
     68571      7046  TIP3      OH2            -9.1966181077        0.4050836871       75.9068170009  TIP3      5686            0.0000000000
     68572      7046  TIP3      H1             -9.8834694604        0.4904377393       76.6041256804  TIP3      5686            0.0000000000
     68573      7046  TIP3      H2             -9.7302458651        0.1747339705       75.1410091734  TIP3      5686            0.0000000000
     68574      7047  TIP3      OH2            -5.9204532836       16.0205494290       82.2470306972  TIP3      5687            0.0000000000
     68575      7047  TIP3      H1             -5.7262808650       16.4620784520       81.4081042237  TIP3      5687            0.0000000000
     68576      7047  TIP3      H2             -5.2644265001       16.3887562265       82.8633142580  TIP3      5687            0.0000000000
     68577      7048  TIP3      OH2           -12.3726655425        3.8890918212       74.5314489606  TIP3      5688            0.0000000000
     68578      7048  TIP3      H1            -11.7263424456        3.3839382707       74.0327063622  TIP3      5688            0.0000000000
     68579      7048  TIP3      H2            -12.4068336081        3.4104140232       75.3673690949  TIP3      5688            0.0000000000
     68580      7049  TIP3      OH2           -17.3325612279        0.0635157290       70.9363565163  TIP3      5689            0.0000000000
     68581      7049  TIP3      H1            -17.6211352041       -0.8551337649       70.9980637277  TIP3      5689            0.0000000000
     68582      7049  TIP3      H2            -16.5117468032        0.0294079970       70.4446164962  TIP3      5689            0.0000000000
     68583      7050  TIP3      OH2            -5.9303767525        7.6302588448       77.4606626426  TIP3      5690            0.0000000000
     68584      7050  TIP3      H1             -5.3682231051        8.1599956299       76.8745242127  TIP3      5690            0.0000000000
     68585      7050  TIP3      H2             -6.7909768588        7.7361639999       77.0041217643  TIP3      5690            0.0000000000
     68586      7051  TIP3      OH2            -9.2250269779        1.2656013688       66.8467470445  TIP3      5691            0.0000000000
     68587      7051  TIP3      H1            -10.1657261410        1.4529711284       66.7647133346  TIP3      5691            0.0000000000
     68588      7051  TIP3      H2             -8.9285266230        2.1402450115       67.1969700483  TIP3      5691            0.0000000000
     68589      7052  TIP3      OH2            -8.5170535179        3.1835435406       68.5376269045  TIP3      5692            0.0000000000
     68590      7052  TIP3      H1             -7.6096671338        3.0871940713       68.8960812627  TIP3      5692            0.0000000000
     68591      7052  TIP3      H2             -8.4906225265        4.0196724667       68.0267990040  TIP3      5692            0.0000000000
     68592      7053  TIP3      OH2           -20.9756197772        6.2445744597       79.7376999319  TIP3      5693            0.0000000000
     68593      7053  TIP3      H1            -20.8095268453        5.8434890402       80.6044966059  TIP3      5693            0.0000000000
     68594      7053  TIP3      H2            -21.6172852888        5.6589061515       79.2983260685  TIP3      5693            0.0000000000
     68595      7054  TIP3      OH2            -9.3937846805       11.1876041108       79.8515290883  TIP3      5694            0.0000000000
     68596      7054  TIP3      H1            -10.2972535580       11.3771080821       79.6301618099  TIP3      5694            0.0000000000
     68597      7054  TIP3      H2             -9.3349839120       11.4593455292       80.7940551214  TIP3      5694            0.0000000000
     68598      7055  TIP3      OH2            -3.6771022107        3.3603138672       68.2832674529  TIP3      5695            0.0000000000
     68599      7055  TIP3      H1             -4.1823055928        3.0200992207       67.5430778013  TIP3      5695            0.0000000000
     68600      7055  TIP3      H2             -3.5194596985        4.2808530994       67.9915067852  TIP3      5695            0.0000000000
     68601      7056  TIP3      OH2            -5.3520338024       12.1877841092       68.6753177788  TIP3      5696            0.0000000000
     68602      7056  TIP3      H1             -5.7348314946       11.3690243763       68.9918434934  TIP3      5696            0.0000000000
     68603      7056  TIP3      H2             -5.0275936701       11.9930567221       67.7805661600  TIP3      5696            0.0000000000
     68604      7057  TIP3      OH2            -8.1709503212        6.9935253923       75.8098552782  TIP3      5697            0.0000000000
     68605      7057  TIP3      H1             -9.0808364618        6.7682390281       75.6269121242  TIP3      5697            0.0000000000
     68606      7057  TIP3      H2             -7.7243294454        6.2640966812       75.3419795501  TIP3      5697            0.0000000000
     68607      7058  TIP3      OH2           -19.8114860748        6.1814543682       66.4259391313  TIP3      5698            0.0000000000
     68608      7058  TIP3      H1            -19.2851342598        6.8581807518       66.8393493660  TIP3      5698            0.0000000000
     68609      7058  TIP3      H2            -20.7212060666        6.4229940615       66.6864081090  TIP3      5698            0.0000000000
     68610      7059  TIP3      OH2           -10.2328536539        9.1881061428       77.4169454007  TIP3      5699            0.0000000000
     68611      7059  TIP3      H1            -10.5232560951        8.9989402330       78.3074404709  TIP3      5699            0.0000000000
     68612      7059  TIP3      H2             -9.5348776816        8.5310073892       77.2648767563  TIP3      5699            0.0000000000
     68613      7060  TIP3      OH2            -7.9112134896       10.2530894936       66.5849500596  TIP3      5700            0.0000000000
     68614      7060  TIP3      H1             -7.5870183562        9.7535996668       67.3580819004  TIP3      5700            0.0000000000
     68615      7060  TIP3      H2             -8.8321093933       10.0350537488       66.6025528984  TIP3      5700            0.0000000000
     68616      7061  TIP3      OH2            -3.4076825143       14.6053780219       66.7499554897  TIP3      5701            0.0000000000
     68617      7061  TIP3      H1             -2.6968336084       15.2402085024       66.5462968829  TIP3      5701            0.0000000000
     68618      7061  TIP3      H2             -4.1267773932       15.2085147416       67.0459531061  TIP3      5701            0.0000000000
     68619      7062  TIP3      OH2            -7.1012170006        8.8807084493       68.7639175904  TIP3      5702            0.0000000000
     68620      7062  TIP3      H1             -7.3481573489        8.0958385768       69.2945259992  TIP3      5702            0.0000000000
     68621      7062  TIP3      H2             -6.1444734288        8.9523139757       68.9267908736  TIP3      5702            0.0000000000
     68622      7063  TIP3      OH2           -19.6434684044       12.8009660134       77.7183847398  TIP3      5703            0.0000000000
     68623      7063  TIP3      H1            -19.5074631140       11.8540799384       77.7508237987  TIP3      5703            0.0000000000
     68624      7063  TIP3      H2            -19.5069559449       13.0757566825       78.6268636418  TIP3      5703            0.0000000000
     68625      7064  TIP3      OH2           -10.5873956269        0.7594175051       78.2274557226  TIP3      5704            0.0000000000
     68626      7064  TIP3      H1             -9.9079816848        0.8399005220       78.9026082329  TIP3      5704            0.0000000000
     68627      7064  TIP3      H2            -11.0179781135       -0.0857883398       78.4083451094  TIP3      5704            0.0000000000
     68628      7065  TIP3      OH2            -9.7948664752        0.3297070146       69.3485086680  TIP3      5705            0.0000000000
     68629      7065  TIP3      H1             -9.6628612396        0.8540185676       68.5295800372  TIP3      5705            0.0000000000
     68630      7065  TIP3      H2             -9.2957568217        0.8996332721       69.9630585045  TIP3      5705            0.0000000000
     68631      7066  TIP3      OH2           -12.5777500897        2.0702096243       70.1525094253  TIP3      5706            0.0000000000
     68632      7066  TIP3      H1            -11.8720141006        2.7444975241       70.1914433842  TIP3      5706            0.0000000000
     68633      7066  TIP3      H2            -12.9277059210        2.0233746750       71.0629961278  TIP3      5706            0.0000000000
     68634      7067  TIP3      OH2           -12.0519712468        3.1532548279       79.2827776615  TIP3      5707            0.0000000000
     68635      7067  TIP3      H1            -12.0346729618        3.6760958063       80.0840046276  TIP3      5707            0.0000000000
     68636      7067  TIP3      H2            -11.4564041008        2.4150751077       79.4279831899  TIP3      5707            0.0000000000
     68637      7068  TIP3      OH2           -11.7240357306       -0.7918922331       71.0941873568  TIP3      5708            0.0000000000
     68638      7068  TIP3      H1            -12.1598793383       -0.1678797288       71.7081450321  TIP3      5708            0.0000000000
     68639      7068  TIP3      H2            -11.2002821226       -0.1407073164       70.5882755816  TIP3      5708            0.0000000000
     68640      7069  TIP3      OH2           -16.1078072075        0.2823160890       67.7467069793  TIP3      5709            0.0000000000
     68641      7069  TIP3      H1            -16.1712209622        1.1644067222       68.1525191705  TIP3      5709            0.0000000000
     68642      7069  TIP3      H2            -15.2154003908        0.0180946459       68.0333457403  TIP3      5709            0.0000000000
     68643      7070  TIP3      OH2            -5.9115076582        1.0130521166       80.2138970411  TIP3      5710            0.0000000000
     68644      7070  TIP3      H1             -6.8401139691        1.3035347672       80.0678192628  TIP3      5710            0.0000000000
     68645      7070  TIP3      H2             -5.5901274313        0.9967976537       79.2952796796  TIP3      5710            0.0000000000
     68646      7071  TIP3      OH2            -7.2943332443        4.7985615611       74.2042998367  TIP3      5711            0.0000000000
     68647      7071  TIP3      H1             -8.1254361571        4.3594186395       73.9424683345  TIP3      5711            0.0000000000
     68648      7071  TIP3      H2             -6.8467004861        4.1014731484       74.7315980422  TIP3      5711            0.0000000000
     68649      7072  TIP3      OH2            -6.2249583572       14.1756640482       75.9468558975  TIP3      5712            0.0000000000
     68650      7072  TIP3      H1             -6.3667084380       14.6745120185       75.1193871610  TIP3      5712            0.0000000000
     68651      7072  TIP3      H2             -5.2680964526       13.9594898040       75.9774832901  TIP3      5712            0.0000000000
     68652      7073  TIP3      OH2           -18.7524650011       -1.7986227696       74.6726640779  TIP3      5713            0.0000000000
     68653      7073  TIP3      H1            -18.9264359227       -1.7925622720       73.7049093971  TIP3      5713            0.0000000000
     68654      7073  TIP3      H2            -19.1793200510       -2.6420195178       74.9098780877  TIP3      5713            0.0000000000
     68655      7074  TIP3      OH2            -9.3621199644       11.9741561360       82.4257376545  TIP3      5714            0.0000000000
     68656      7074  TIP3      H1             -9.6958118375       11.1525054784       82.7818260208  TIP3      5714            0.0000000000
     68657      7074  TIP3      H2             -8.6423741801       12.1879763767       83.0525534261  TIP3      5714            0.0000000000
     68658      7075  TIP3      OH2            -7.2106061489       12.9508593084       65.3319048699  TIP3      5715            0.0000000000
     68659      7075  TIP3      H1             -6.9172798292       12.1408916722       65.7931728578  TIP3      5715            0.0000000000
     68660      7075  TIP3      H2             -6.4540251380       13.1819959441       64.7793012923  TIP3      5715            0.0000000000
     68661      7076  TIP3      OH2           -20.6436451171        8.4674003577       83.0957348741  TIP3      5716            0.0000000000
     68662      7076  TIP3      H1            -20.4143911077        7.5869205770       82.7447021052  TIP3      5716            0.0000000000
     68663      7076  TIP3      H2            -21.3353709773        8.7973860197       82.5282688494  TIP3      5716            0.0000000000
     68664      7077  TIP3      OH2           -19.7711237393        5.7237525995       82.4794737929  TIP3      5717            0.0000000000
     68665      7077  TIP3      H1            -19.3336307622        4.8704523198       82.3692676808  TIP3      5717            0.0000000000
     68666      7077  TIP3      H2            -19.9539780687        5.7488539700       83.4374710912  TIP3      5717            0.0000000000
     68667      7078  TIP3      OH2            -9.0842205560        3.6899124777       83.6822307935  TIP3      5718            0.0000000000
     68668      7078  TIP3      H1             -8.8831211606        2.7548227246       83.5769392380  TIP3      5718            0.0000000000
     68669      7078  TIP3      H2             -8.2186985093        4.1174019743       83.6890722348  TIP3      5718            0.0000000000
     68670      7079  TIP3      OH2            -7.6681264433        6.5551170343       81.8875797304  TIP3      5719            0.0000000000
     68671      7079  TIP3      H1             -8.0050364807        7.1838937430       81.2348308790  TIP3      5719            0.0000000000
     68672      7079  TIP3      H2             -6.7384992928        6.4648734552       81.6104382177  TIP3      5719            0.0000000000
     68673      7080  TIP3      OH2           -14.3151477414       -2.1027778706       78.8543163985  TIP3      5720            0.0000000000
     68674      7080  TIP3      H1            -14.3871133147       -1.1476279273       78.7373869083  TIP3      5720            0.0000000000
     68675      7080  TIP3      H2            -15.0382621518       -2.4667854515       78.3229403038  TIP3      5720            0.0000000000
     68676      7081  TIP3      OH2           -12.9477623667        2.2124269779       82.3450931559  TIP3      5721            0.0000000000
     68677      7081  TIP3      H1            -13.2412410160        2.1085622623       83.2611591068  TIP3      5721            0.0000000000
     68678      7081  TIP3      H2            -13.7688965906        2.0923364668       81.8621302338  TIP3      5721            0.0000000000
     68679      7082  TIP3      OH2           -10.2722150847        1.3143222338       81.4927624779  TIP3      5722            0.0000000000
     68680      7082  TIP3      H1            -11.2266900021        1.4267427748       81.6722406128  TIP3      5722            0.0000000000
     68681      7082  TIP3      H2             -9.9720119977        0.7472987838       82.2263357717  TIP3      5722            0.0000000000
     68682      7083  TIP3      OH2            -8.7695572757       -0.0081221237       83.4350575440  TIP3      5723            0.0000000000
     68683      7083  TIP3      H1             -8.6972066681       -0.9596586595       83.5077583000  TIP3      5723            0.0000000000
     68684      7083  TIP3      H2             -8.9356903840        0.2825697714       84.3654455527  TIP3      5723            0.0000000000
     68685      7084  TIP3      OH2           -18.9137115718        1.2449734320       82.5357466812  TIP3      5724            0.0000000000
     68686      7084  TIP3      H1            -18.6417432078        0.5163161315       81.9560246605  TIP3      5724            0.0000000000
     68687      7084  TIP3      H2            -18.9406174832        0.8220320154       83.4166452311  TIP3      5724            0.0000000000
     68688      7085  TIP3      OH2           -14.0400431186       -2.7596616201       81.5445055032  TIP3      5725            0.0000000000
     68689      7085  TIP3      H1            -13.3351105493       -3.4098010161       81.5055266508  TIP3      5725            0.0000000000
     68690      7085  TIP3      H2            -14.1358148307       -2.5248935473       80.5935619238  TIP3      5725            0.0000000000
     68691      7086  TIP3      OH2            -3.4248028655       14.6231760838       76.0828101122  TIP3      5726            0.0000000000
     68692      7086  TIP3      H1             -3.2981159653       14.7052304077       77.0391348028  TIP3      5726            0.0000000000
     68693      7086  TIP3      H2             -2.7309151479       15.2056531229       75.7350655105  TIP3      5726            0.0000000000
     68694      7087  TIP3      OH2            -5.5107178406       10.0350559719       83.6545963104  TIP3      5727            0.0000000000
     68695      7087  TIP3      H1             -6.3818759904        9.9613425455       84.0848053256  TIP3      5727            0.0000000000
     68696      7087  TIP3      H2             -5.1014890831       10.7834661329       84.1524985822  TIP3      5727            0.0000000000
     68697      7088  TIP3      OH2            -4.2129095901        8.3372954508       69.1930627651  TIP3      5728            0.0000000000
     68698      7088  TIP3      H1             -3.3289348881        8.7375553331       69.3222387278  TIP3      5728            0.0000000000
     68699      7088  TIP3      H2             -4.1987518283        7.6002390545       69.8075624440  TIP3      5728            0.0000000000
     68700      7089  TIP3      OH2            -4.0736380781        9.1140835520       75.9760581442  TIP3      5729            0.0000000000
     68701      7089  TIP3      H1             -3.2255674054        8.8195316949       75.6471508413  TIP3      5729            0.0000000000
     68702      7089  TIP3      H2             -3.9546977920       10.0789757746       75.8407180479  TIP3      5729            0.0000000000
     68703      7090  TIP3      OH2            -5.5482861483       12.0418832356       78.2595179993  TIP3      5730            0.0000000000
     68704      7090  TIP3      H1             -6.2324045517       12.3164425083       78.8715068799  TIP3      5730            0.0000000000
     68705      7090  TIP3      H2             -6.0709227448       11.5842682988       77.5675270360  TIP3      5730            0.0000000000
     68706      7091  TIP3      OH2            -3.5152713655        6.2523075547       67.4074060401  TIP3      5731            0.0000000000
     68707      7091  TIP3      H1             -4.0726417648        6.5775714995       66.6955328810  TIP3      5731            0.0000000000
     68708      7091  TIP3      H2             -3.5762851471        6.9791784076       68.0490352738  TIP3      5731            0.0000000000
     68709      7092  TIP3      OH2            -6.0301767783        4.9010020471       71.5251054952  TIP3      5732            0.0000000000
     68710      7092  TIP3      H1             -6.1443740554        3.9388517838       71.5336525516  TIP3      5732            0.0000000000
     68711      7092  TIP3      H2             -6.3128407510        5.1120568301       72.4309144166  TIP3      5732            0.0000000000
     68712      7093  TIP3      OH2           -21.0226924875        6.8997308742       75.6181351068  TIP3      5733            0.0000000000
     68713      7093  TIP3      H1            -20.8158778392        6.9224725576       74.6564259254  TIP3      5733            0.0000000000
     68714      7093  TIP3      H2            -20.1251646655        6.8260449043       76.0026544372  TIP3      5733            0.0000000000
     68715      7094  TIP3      OH2            -5.1367319747        6.8649904669       81.2840818548  TIP3      5734            0.0000000000
     68716      7094  TIP3      H1             -4.5231893282        6.1024265385       81.4028488299  TIP3      5734            0.0000000000
     68717      7094  TIP3      H2             -4.5703490962        7.6412389370       81.2404605423  TIP3      5734            0.0000000000
     68718      7095  TIP3      OH2            -3.6235958648        4.7682226010       81.9011611065  TIP3      5735            0.0000000000
     68719      7095  TIP3      H1             -4.4908224748        4.3394644539       81.7641919249  TIP3      5735            0.0000000000
     68720      7095  TIP3      H2             -3.0316926924        4.0019654027       81.8085403858  TIP3      5735            0.0000000000
     68721      7096  TIP3      OH2            -5.9514643874        0.8942645925       65.0492962667  TIP3      5736            0.0000000000
     68722      7096  TIP3      H1             -5.3263575630        0.5446930854       65.6879620430  TIP3      5736            0.0000000000
     68723      7096  TIP3      H2             -6.8040225472        0.5173134477       65.2736809661  TIP3      5736            0.0000000000
     68724      7097  TIP3      OH2            -6.3404329692        2.4542419665       70.0158408253  TIP3      5737            0.0000000000
     68725      7097  TIP3      H1             -6.0028080556        1.5442817893       70.1509076225  TIP3      5737            0.0000000000
     68726      7097  TIP3      H2             -5.5332308060        2.8796875890       69.6888396773  TIP3      5737            0.0000000000
     68727      7098  TIP3      OH2            -5.7033137461        2.9997020066       75.4636762882  TIP3      5738            0.0000000000
     68728      7098  TIP3      H1             -4.7711870767        3.2790654875       75.4375557062  TIP3      5738            0.0000000000
     68729      7098  TIP3      H2             -5.9026087068        3.1741031493       76.3952157589  TIP3      5738            0.0000000000
     68730      7099  TIP3      OH2            -5.6586125432        3.7594961701       78.2421054347  TIP3      5739            0.0000000000
     68731      7099  TIP3      H1             -6.5173237142        4.0549563561       78.5650629648  TIP3      5739            0.0000000000
     68732      7099  TIP3      H2             -5.2265248347        4.6104874567       78.0576368889  TIP3      5739            0.0000000000
     68733      7100  TIP3      OH2           -21.4027309998        2.2362713823       81.7521719529  TIP3      5740            0.0000000000
     68734      7100  TIP3      H1            -20.4467164189        2.0948418017       81.9440153960  TIP3      5740            0.0000000000
     68735      7100  TIP3      H2            -21.7881568941        1.4433385452       82.1267025352  TIP3      5740            0.0000000000
     68736      7101  TIP3      OH2            -3.3347947085       -2.2386575099       83.5923703553  TIP3      5741            0.0000000000
     68737      7101  TIP3      H1             -2.9845694592       -2.8891778907       82.9713972747  TIP3      5741            0.0000000000
     68738      7101  TIP3      H2             -3.2572210842       -1.4075085832       83.0892418144  TIP3      5741            0.0000000000
     68739      7102  TIP3      OH2            -5.6860677910       -0.2480361356       70.0885433074  TIP3      5742            0.0000000000
     68740      7102  TIP3      H1             -5.4503166686       -0.6844386249       70.9392467497  TIP3      5742            0.0000000000
     68741      7102  TIP3      H2             -6.2698719677       -0.9027762163       69.6424208841  TIP3      5742            0.0000000000
     68742      7103  TIP3      OH2           -20.1308179193        0.5779034993       74.6184237262  TIP3      5743            0.0000000000
     68743      7103  TIP3      H1            -19.7261834035       -0.2659095728       74.9076179220  TIP3      5743            0.0000000000
     68744      7103  TIP3      H2            -19.6856152038        1.2584695711       75.1037769491  TIP3      5743            0.0000000000
     68745      7104  TIP3      OH2           -21.8721244267        3.5776968210       75.6623369891  TIP3      5744            0.0000000000
     68746      7104  TIP3      H1            -21.3650816409        3.3094228432       74.8931299782  TIP3      5744            0.0000000000
     68747      7104  TIP3      H2            -21.4822779513        4.4073197182       75.9561969424  TIP3      5744            0.0000000000
     68748      7105  TIP3      OH2            -3.8614007408       -0.1315022029       81.9874012970  TIP3      5745            0.0000000000
     68749      7105  TIP3      H1             -4.7972740807        0.1539585278       81.9219463393  TIP3      5745            0.0000000000
     68750      7105  TIP3      H2             -3.7742206558       -0.6120450197       81.1474965501  TIP3      5745            0.0000000000
     68751      7106  TIP3      OH2            -6.7367514483       14.7732821778       71.6879965809  TIP3      5746            0.0000000000
     68752      7106  TIP3      H1             -6.0861933237       14.4313016957       71.0552460900  TIP3      5746            0.0000000000
     68753      7106  TIP3      H2             -6.2239965004       15.2662492425       72.3241201479  TIP3      5746            0.0000000000
     68754      7107  TIP3      OH2           -19.3631748532       11.5949065652       82.2285278420  TIP3      5747            0.0000000000
     68755      7107  TIP3      H1            -20.1747710128       11.8832652071       81.7956786034  TIP3      5747            0.0000000000
     68756      7107  TIP3      H2            -19.6025352903       11.5763020704       83.1577570735  TIP3      5747            0.0000000000
     68757      7108  TIP3      OH2            -4.8123342754       -2.0083552070       79.7767687890  TIP3      5748            0.0000000000
     68758      7108  TIP3      H1             -5.6527572276       -1.7203930860       79.3791465587  TIP3      5748            0.0000000000
     68759      7108  TIP3      H2             -4.6551422201       -2.8458088484       79.2751109221  TIP3      5748            0.0000000000
     68760      7109  TIP3      OH2           -19.0145983113       15.9626713943       78.5496535283  TIP3      5749            0.0000000000
     68761      7109  TIP3      H1            -19.7139074865       16.4015111455       78.0402841395  TIP3      5749            0.0000000000
     68762      7109  TIP3      H2            -19.4215067495       15.7041901672       79.3733428811  TIP3      5749            0.0000000000
     68763      7110  TIP3      OH2           -19.6104736916       14.5937334751       75.4932308337  TIP3      5750            0.0000000000
     68764      7110  TIP3      H1            -19.6499504589       14.0881119647       76.3185129550  TIP3      5750            0.0000000000
     68765      7110  TIP3      H2            -18.8291245207       14.2549748129       75.0517443857  TIP3      5750            0.0000000000
     68766      7111  TIP3      OH2           -11.4170774177       -0.5644852387       74.0746152489  TIP3      5751            0.0000000000
     68767      7111  TIP3      H1            -12.0856716260       -1.2117063169       74.3898701731  TIP3      5751            0.0000000000
     68768      7111  TIP3      H2            -10.8477844258       -1.1125950247       73.5288178970  TIP3      5751            0.0000000000
     68769      7112  TIP3      OH2            -6.3139164152       -2.5371103277       74.1363954857  TIP3      5752            0.0000000000
     68770      7112  TIP3      H1             -5.6701140752       -1.9488320043       73.6752195634  TIP3      5752            0.0000000000
     68771      7112  TIP3      H2             -7.1776872717       -2.1515110964       73.9320930207  TIP3      5752            0.0000000000
     68772      7113  TIP3      OH2            -4.6354857320       -1.2972345293       72.4282704575  TIP3      5753            0.0000000000
     68773      7113  TIP3      H1             -3.9522984330       -1.8775032361       72.0193206345  TIP3      5753            0.0000000000
     68774      7113  TIP3      H2             -4.1259492099       -0.4636203865       72.5580151480  TIP3      5753            0.0000000000
     68775      7114  TIP3      OH2           -19.0563180046       -1.9585443406       71.9319525784  TIP3      5754            0.0000000000
     68776      7114  TIP3      H1            -19.8606212568       -2.1519719866       71.4162320600  TIP3      5754            0.0000000000
     68777      7114  TIP3      H2            -18.5787110091       -2.8088210449       71.8872187064  TIP3      5754            0.0000000000
     68778      7115  TIP3      OH2           -14.5076396669       -2.0884689572       71.7190384519  TIP3      5755            0.0000000000
     68779      7115  TIP3      H1            -13.6628512342       -1.6371291068       71.6800613731  TIP3      5755            0.0000000000
     68780      7115  TIP3      H2            -14.6556504929       -2.2157339870       72.6563146868  TIP3      5755            0.0000000000
     68781      7116  TIP3      OH2            -8.9938878365       -2.0001591163       73.3648818853  TIP3      5756            0.0000000000
     68782      7116  TIP3      H1             -8.8270920341       -1.9394260722       72.4383632861  TIP3      5756            0.0000000000
     68783      7116  TIP3      H2             -9.2158927481       -2.9380220651       73.5013561110  TIP3      5756            0.0000000000
     68784      7117  TIP3      OH2            -7.6454051275       -1.9192180904       69.1553156899  TIP3      5757            0.0000000000
     68785      7117  TIP3      H1             -8.3015463956       -1.3766957287       68.7092156297  TIP3      5757            0.0000000000
     68786      7117  TIP3      H2             -7.9875805516       -2.8492237369       69.1823115714  TIP3      5757            0.0000000000
     68787      7118  TIP3      OH2           -18.3942499526       -0.2486975231       66.1206875173  TIP3      5758            0.0000000000
     68788      7118  TIP3      H1            -17.8966492883       -0.9030577044       65.6452690734  TIP3      5758            0.0000000000
     68789      7118  TIP3      H2            -17.7771754658        0.0527892888       66.8109988265  TIP3      5758            0.0000000000
     68790      7119  TIP3      OH2           -13.4191900224       -0.0241680647       68.5995917739  TIP3      5759            0.0000000000
     68791      7119  TIP3      H1            -13.2236822175       -0.5934572353       69.3426990346  TIP3      5759            0.0000000000
     68792      7119  TIP3      H2            -13.4122692202        0.8508356073       69.0406205462  TIP3      5759            0.0000000000
     68793      7120  TIP3      OH2            -4.7697255310       14.5790678262       69.7320604329  TIP3      5760            0.0000000000
     68794      7120  TIP3      H1             -4.9770139374       13.7923831339       69.1677792659  TIP3      5760            0.0000000000
     68795      7120  TIP3      H2             -4.8508423342       15.3026592347       69.0835675986  TIP3      5760            0.0000000000
     68796      7121  TIP3      OH2           -19.1535386919       -1.4310692403       81.3842150431  TIP3      5761            0.0000000000
     68797      7121  TIP3      H1            -19.5239702841       -2.2104254518       81.8250793408  TIP3      5761            0.0000000000
     68798      7121  TIP3      H2            -18.2489849841       -1.4511870036       81.7583380113  TIP3      5761            0.0000000000
     68799      7122  TIP3      OH2           -17.1294069177       -2.0378883589       83.0350688616  TIP3      5762            0.0000000000
     68800      7122  TIP3      H1            -16.2700432098       -2.3930247262       82.7526717503  TIP3      5762            0.0000000000
     68801      7122  TIP3      H2            -17.5294556097       -2.8284023775       83.4595333097  TIP3      5762            0.0000000000
     68802      7123  TIP3      OH2            -5.5777545499       13.3056383985       81.8227314689  TIP3      5763            0.0000000000
     68803      7123  TIP3      H1             -6.3901436617       13.1210864148       81.3365484621  TIP3      5763            0.0000000000
     68804      7123  TIP3      H2             -5.6550886768       14.2543668354       82.0475734747  TIP3      5763            0.0000000000
     68805      7124  TIP3      OH2            -2.3622664965        4.1702864632       70.8096689214  TIP3      5764            0.0000000000
     68806      7124  TIP3      H1             -2.8155629884        5.0134298559       70.8163972771  TIP3      5764            0.0000000000
     68807      7124  TIP3      H2             -2.9098056054        3.6103865560       70.2484303735  TIP3      5764            0.0000000000
     68808      7125  TIP3      OH2            14.7409973796        0.5222617937       76.4899727586  TIP3      5765            0.0000000000
     68809      7125  TIP3      H1             14.9294592146        1.0464980961       77.2872415644  TIP3      5765            0.0000000000
     68810      7125  TIP3      H2             15.2890847684        0.9500415156       75.8214183441  TIP3      5765            0.0000000000
     68811      7126  TIP3      OH2             9.2840514910        3.2613144427       76.0519277195  TIP3      5766            0.0000000000
     68812      7126  TIP3      H1              9.4514889427        2.3255541195       76.0098115699  TIP3      5766            0.0000000000
     68813      7126  TIP3      H2              9.2011210273        3.4989062488       75.1210574901  TIP3      5766            0.0000000000
     68814      7127  TIP3      OH2            15.1898059742        1.9483625087       78.7979844494  TIP3      5767            0.0000000000
     68815      7127  TIP3      H1             14.5382720602        2.6476469300       78.7280323763  TIP3      5767            0.0000000000
     68816      7127  TIP3      H2             15.1998887963        1.7707663419       79.7466698236  TIP3      5767            0.0000000000
     68817      7128  TIP3      OH2             0.8881674167        2.1378616715       75.3348521997  TIP3      5768            0.0000000000
     68818      7128  TIP3      H1              1.4817545632        2.8083990459       75.6787662152  TIP3      5768            0.0000000000
     68819      7128  TIP3      H2              1.3736349733        1.7469663504       74.5901478936  TIP3      5768            0.0000000000
     68820      7129  TIP3      OH2             2.3121348226        9.9739359708       78.4738972429  TIP3      5769            0.0000000000
     68821      7129  TIP3      H1              2.1989286118       10.7834268140       77.9771013025  TIP3      5769            0.0000000000
     68822      7129  TIP3      H2              1.3987268985        9.8684514865       78.8300469029  TIP3      5769            0.0000000000
     68823      7130  TIP3      OH2            -1.6576412761        9.5846532239       69.1865680299  TIP3      5770            0.0000000000
     68824      7130  TIP3      H1             -1.9147764141        9.9109693997       68.3157729388  TIP3      5770            0.0000000000
     68825      7130  TIP3      H2             -1.6020035518       10.4162534470       69.6853753453  TIP3      5770            0.0000000000
     68826      7131  TIP3      OH2             4.0246306794       10.8150152091       74.9301090270  TIP3      5771            0.0000000000
     68827      7131  TIP3      H1              3.8830168224       10.2393726696       74.1634338300  TIP3      5771            0.0000000000
     68828      7131  TIP3      H2              4.7365475722       10.3503045304       75.3644782402  TIP3      5771            0.0000000000
     68829      7132  TIP3      OH2             3.9476735429       10.5153745835       80.5163276651  TIP3      5772            0.0000000000
     68830      7132  TIP3      H1              3.4875234037       11.2218350592       80.9730623698  TIP3      5772            0.0000000000
     68831      7132  TIP3      H2              3.2809303914       10.2648301989       79.8249977793  TIP3      5772            0.0000000000
     68832      7133  TIP3      OH2            13.5670946068       -2.3817605180       67.8618431527  TIP3      5773            0.0000000000
     68833      7133  TIP3      H1             12.6074572723       -2.3407753653       67.9864594539  TIP3      5773            0.0000000000
     68834      7133  TIP3      H2             13.7728548782       -1.5801703575       67.3388474369  TIP3      5773            0.0000000000
     68835      7134  TIP3      OH2            -2.5417332681       11.4717465945       75.4411652461  TIP3      5774            0.0000000000
     68836      7134  TIP3      H1             -1.5794902128       11.3901635189       75.3941664719  TIP3      5774            0.0000000000
     68837      7134  TIP3      H2             -2.6790152125       12.2765371668       75.9499827984  TIP3      5774            0.0000000000
     68838      7135  TIP3      OH2            15.6572945949       12.1663923160       81.1531381227  TIP3      5775            0.0000000000
     68839      7135  TIP3      H1             15.5513545025       11.1980414962       81.1160195852  TIP3      5775            0.0000000000
     68840      7135  TIP3      H2             14.8130202159       12.3910012383       81.5399768073  TIP3      5775            0.0000000000
     68841      7136  TIP3      OH2             6.6338163629       11.7576712109       80.0244815459  TIP3      5776            0.0000000000
     68842      7136  TIP3      H1              6.7016349875       12.5882142354       80.4969612891  TIP3      5776            0.0000000000
     68843      7136  TIP3      H2              5.7489398024       11.3987911679       80.2066627277  TIP3      5776            0.0000000000
     68844      7137  TIP3      OH2             9.8648105357       14.6294530128       69.6198463725  TIP3      5777            0.0000000000
     68845      7137  TIP3      H1              8.8887736953       14.6737048709       69.6721015350  TIP3      5777            0.0000000000
     68846      7137  TIP3      H2             10.0778703502       13.8285136273       70.1031728450  TIP3      5777            0.0000000000
     68847      7138  TIP3      OH2            -0.0270016075       10.1298134341       79.6251950624  TIP3      5778            0.0000000000
     68848      7138  TIP3      H1              0.1607307968        9.7402633663       80.4916302223  TIP3      5778            0.0000000000
     68849      7138  TIP3      H2             -0.8810115467        9.7392361463       79.4093755643  TIP3      5778            0.0000000000
     68850      7139  TIP3      OH2             2.5726599422       -1.4877070628       75.5775482163  TIP3      5779            0.0000000000
     68851      7139  TIP3      H1              1.6735152941       -1.5625709305       75.1911675168  TIP3      5779            0.0000000000
     68852      7139  TIP3      H2              2.5302693085       -0.6386069983       76.0199254255  TIP3      5779            0.0000000000
     68853      7140  TIP3      OH2            10.5368581567        2.0184709890       79.8316531759  TIP3      5780            0.0000000000
     68854      7140  TIP3      H1             10.0342139595        1.8915835196       80.6387283600  TIP3      5780            0.0000000000
     68855      7140  TIP3      H2             10.3616005593        2.9214654929       79.5628437381  TIP3      5780            0.0000000000
     68856      7141  TIP3      OH2            -3.0245928020        0.8298017615       72.4645985746  TIP3      5781            0.0000000000
     68857      7141  TIP3      H1             -2.3378050347        0.8775116886       73.1645879584  TIP3      5781            0.0000000000
     68858      7141  TIP3      H2             -2.5174695710        0.5311303803       71.6942398578  TIP3      5781            0.0000000000
     68859      7142  TIP3      OH2             8.4402155876        5.2230819546       77.8933511110  TIP3      5782            0.0000000000
     68860      7142  TIP3      H1              8.7490603568        4.5805991186       77.2252496646  TIP3      5782            0.0000000000
     68861      7142  TIP3      H2              7.9835310792        4.6556463026       78.5130630317  TIP3      5782            0.0000000000
     68862      7143  TIP3      OH2             0.0442181921        2.7076547655       71.5653325243  TIP3      5783            0.0000000000
     68863      7143  TIP3      H1             -0.8177151348        2.8995747884       71.1614026309  TIP3      5783            0.0000000000
     68864      7143  TIP3      H2              0.3572695315        1.8995918931       71.1365171565  TIP3      5783            0.0000000000
     68865      7144  TIP3      OH2            12.8538590416       16.0949104562       82.2888979844  TIP3      5784            0.0000000000
     68866      7144  TIP3      H1             13.1180299566       16.4434112113       81.4156327030  TIP3      5784            0.0000000000
     68867      7144  TIP3      H2             13.6075599120       16.3645638354       82.8406707813  TIP3      5784            0.0000000000
     68868      7145  TIP3      OH2             1.5310939900        0.0549179442       70.9677504483  TIP3      5785            0.0000000000
     68869      7145  TIP3      H1              1.2171369240       -0.8558507699       71.0032746736  TIP3      5785            0.0000000000
     68870      7145  TIP3      H2              2.3327727713        0.0419892008       70.4418254574  TIP3      5785            0.0000000000
     68871      7146  TIP3      OH2            15.2190505121        3.3741891645       68.2565435648  TIP3      5786            0.0000000000
     68872      7146  TIP3      H1             14.6823970453        3.0253330554       67.5335038513  TIP3      5786            0.0000000000
     68873      7146  TIP3      H2             15.3193090555        4.3049594884       67.9742322861  TIP3      5786            0.0000000000
     68874      7147  TIP3      OH2            15.2411349106        9.4124218735       81.0523827923  TIP3      5787            0.0000000000
     68875      7147  TIP3      H1             14.3348011563        9.3309445323       80.7239733837  TIP3      5787            0.0000000000
     68876      7147  TIP3      H2             15.7319244752        9.0860051471       80.2927445147  TIP3      5787            0.0000000000
     68877      7148  TIP3      OH2            15.4887206397       14.6899711658       66.8318077115  TIP3      5788            0.0000000000
     68878      7148  TIP3      H1             16.1433563522       15.3274602672       66.5203191111  TIP3      5788            0.0000000000
     68879      7148  TIP3      H2             14.7051693096       15.2457996518       67.0352866401  TIP3      5788            0.0000000000
     68880      7149  TIP3      OH2            -0.5496106708        1.0437235527       79.3481710298  TIP3      5789            0.0000000000
     68881      7149  TIP3      H1             -1.4496980751        1.3589932534       79.2371680154  TIP3      5789            0.0000000000
     68882      7149  TIP3      H2             -0.6359688101        0.1738643553       79.7542423725  TIP3      5789            0.0000000000
     68883      7150  TIP3      OH2             5.1233101675       11.2547165010       64.9762226094  TIP3      5790            0.0000000000
     68884      7150  TIP3      H1              5.2777781202       10.4656193633       64.4703547156  TIP3      5790            0.0000000000
     68885      7150  TIP3      H2              4.7764451975       10.8748960212       65.8084424311  TIP3      5790            0.0000000000
     68886      7151  TIP3      OH2             6.8253345325        3.1743388198       79.2715986084  TIP3      5791            0.0000000000
     68887      7151  TIP3      H1              6.7951792294        3.6602341092       80.1044197436  TIP3      5791            0.0000000000
     68888      7151  TIP3      H2              7.3863225032        2.4215330401       79.4632626958  TIP3      5791            0.0000000000
     68889      7152  TIP3      OH2            12.9705612629        1.0997365851       80.1897140188  TIP3      5792            0.0000000000
     68890      7152  TIP3      H1             12.0217737677        1.3083725364       80.0656514092  TIP3      5792            0.0000000000
     68891      7152  TIP3      H2             13.2685350086        0.9905223211       79.2749178472  TIP3      5792            0.0000000000
     68892      7153  TIP3      OH2             0.0886410273       -1.8209339685       74.6777412139  TIP3      5793            0.0000000000
     68893      7153  TIP3      H1             -0.0928065609       -1.7823120846       73.7141632076  TIP3      5793            0.0000000000
     68894      7153  TIP3      H2             -0.3168690630       -2.6784678684       74.9351928734  TIP3      5793            0.0000000000
     68895      7154  TIP3      OH2            -1.7690877180        8.5503020594       83.0484336390  TIP3      5794            0.0000000000
     68896      7154  TIP3      H1             -1.5870437389        7.6270907974       82.8041644396  TIP3      5794            0.0000000000
     68897      7154  TIP3      H2             -2.5546892931        8.7753626945       82.5649525761  TIP3      5794            0.0000000000
     68898      7155  TIP3      OH2             5.0319443506        8.5241897375       82.4885557520  TIP3      5795            0.0000000000
     68899      7155  TIP3      H1              4.5803211030        8.8229354397       81.6808432064  TIP3      5795            0.0000000000
     68900      7155  TIP3      H2              5.0660382738        7.5738804368       82.4062150141  TIP3      5795            0.0000000000
     68901      7156  TIP3      OH2             5.7048675085        2.3338304316       82.3753813830  TIP3      5796            0.0000000000
     68902      7156  TIP3      H1              5.5470548757        2.0405062845       83.2879159410  TIP3      5796            0.0000000000
     68903      7156  TIP3      H2              4.9533729587        1.9681796507       81.9125467290  TIP3      5796            0.0000000000
     68904      7157  TIP3      OH2            -1.7798197632       10.3987609426       66.2905040271  TIP3      5797            0.0000000000
     68905      7157  TIP3      H1             -0.8505510343       10.5172999063       66.5099483124  TIP3      5797            0.0000000000
     68906      7157  TIP3      H2             -1.7331395057        9.7553458713       65.5693683239  TIP3      5797            0.0000000000
     68907      7158  TIP3      OH2            -3.0498253261       15.7985829522       71.3246470469  TIP3      5798            0.0000000000
     68908      7158  TIP3      H1             -3.7011028490       15.3015286178       70.7714407937  TIP3      5798            0.0000000000
     68909      7158  TIP3      H2             -2.7115647036       15.1030468873       71.8865986721  TIP3      5798            0.0000000000
     68910      7159  TIP3      OH2            15.3934519243       14.6896922754       76.0734516512  TIP3      5799            0.0000000000
     68911      7159  TIP3      H1             15.3472834833       14.8858479537       77.0101743342  TIP3      5799            0.0000000000
     68912      7159  TIP3      H2             16.0556495898       15.3098662941       75.7658041714  TIP3      5799            0.0000000000
     68913      7160  TIP3      OH2            14.7488254056        8.2390645097       69.1368529725  TIP3      5800            0.0000000000
     68914      7160  TIP3      H1             15.5520438330        8.7403844002       69.3538486107  TIP3      5800            0.0000000000
     68915      7160  TIP3      H2             14.6715824994        7.6148076764       69.8540723513  TIP3      5800            0.0000000000
     68916      7161  TIP3      OH2            15.3244164606        6.2190399581       67.4091428821  TIP3      5801            0.0000000000
     68917      7161  TIP3      H1             14.7985564276        6.6046861176       66.7058402256  TIP3      5801            0.0000000000
     68918      7161  TIP3      H2             15.2523480001        6.9281310298       68.0826124533  TIP3      5801            0.0000000000
     68919      7162  TIP3      OH2            15.1885175778        4.7322074269       82.0010055914  TIP3      5802            0.0000000000
     68920      7162  TIP3      H1             14.3489956064        4.3696970375       81.7433469795  TIP3      5802            0.0000000000
     68921      7162  TIP3      H2             15.7944879471        3.9967808513       81.8338221754  TIP3      5802            0.0000000000
     68922      7163  TIP3      OH2            12.5647463585        2.4938007911       69.9559956355  TIP3      5803            0.0000000000
     68923      7163  TIP3      H1             12.8364603929        1.5709577818       70.1226829987  TIP3      5803            0.0000000000
     68924      7163  TIP3      H2             13.3607961809        2.9046217098       69.6389637997  TIP3      5803            0.0000000000
     68925      7164  TIP3      OH2            13.1731884143        3.1288524327       75.4394894966  TIP3      5804            0.0000000000
     68926      7164  TIP3      H1             14.1445017098        3.2053918978       75.4510046345  TIP3      5804            0.0000000000
     68927      7164  TIP3      H2             12.9404255068        3.0932468446       76.3599636015  TIP3      5804            0.0000000000
     68928      7165  TIP3      OH2            -2.5558724091        2.2566720131       81.7307443151  TIP3      5805            0.0000000000
     68929      7165  TIP3      H1             -1.6242816183        2.1150882131       81.9373473911  TIP3      5805            0.0000000000
     68930      7165  TIP3      H2             -2.9846773202        1.4538257215       82.0812217824  TIP3      5805            0.0000000000
     68931      7166  TIP3      OH2            15.5261679531       -2.1788123977       83.6324666436  TIP3      5806            0.0000000000
     68932      7166  TIP3      H1             15.8271254161       -2.8764838456       83.0321507369  TIP3      5806            0.0000000000
     68933      7166  TIP3      H2             15.6257676622       -1.3878243684       83.0747223183  TIP3      5806            0.0000000000
     68934      7167  TIP3      OH2            13.1893686316       -0.2482434877       70.0808889468  TIP3      5807            0.0000000000
     68935      7167  TIP3      H1             13.4159355916       -0.7009991130       70.9117256258  TIP3      5807            0.0000000000
     68936      7167  TIP3      H2             12.5728348139       -0.8581739783       69.6496667883  TIP3      5807            0.0000000000
     68937      7168  TIP3      OH2            -1.3176006055        0.5825496999       74.6628056047  TIP3      5808            0.0000000000
     68938      7168  TIP3      H1             -0.8374331358       -0.2442624156       74.8737524430  TIP3      5808            0.0000000000
     68939      7168  TIP3      H2             -0.7609477402        1.2832647291       75.0432336187  TIP3      5808            0.0000000000
     68940      7169  TIP3      OH2            15.0257495322       -0.0744123107       81.9338031199  TIP3      5809            0.0000000000
     68941      7169  TIP3      H1             14.0806126794        0.1726182036       81.8801401459  TIP3      5809            0.0000000000
     68942      7169  TIP3      H2             15.0983231473       -0.6448948852       81.1598185190  TIP3      5809            0.0000000000
     68943      7170  TIP3      OH2            15.0240895112       -0.1870506558       66.6500460510  TIP3      5810            0.0000000000
     68944      7170  TIP3      H1             15.4212175593       -0.8881256708       66.1156421262  TIP3      5810            0.0000000000
     68945      7170  TIP3      H2             15.7247312627        0.4773198200       66.6492028808  TIP3      5810            0.0000000000
     68946      7171  TIP3      OH2            -2.6949785995       -0.2366270334       69.6503360265  TIP3      5811            0.0000000000
     68947      7171  TIP3      H1             -3.6257353323        0.0404749507       69.6342129715  TIP3      5811            0.0000000000
     68948      7171  TIP3      H2             -2.2453301879        0.3602905229       69.0578137001  TIP3      5811            0.0000000000
     68949      7172  TIP3      OH2            -2.7157544559       -1.4884635142       78.0535686541  TIP3      5812            0.0000000000
     68950      7172  TIP3      H1             -3.3913938853       -1.6941484967       78.7226650947  TIP3      5812            0.0000000000
     68951      7172  TIP3      H2             -3.1814030074       -0.8318645654       77.4984594168  TIP3      5812            0.0000000000
     68952      7173  TIP3      OH2            -0.5089241620       11.6098620760       82.1930600598  TIP3      5813            0.0000000000
     68953      7173  TIP3      H1             -1.3236929308       11.9227048504       81.7598752664  TIP3      5813            0.0000000000
     68954      7173  TIP3      H2             -0.7591656863       11.6540842547       83.1233078582  TIP3      5813            0.0000000000
     68955      7174  TIP3      OH2             9.0853671643       15.3484749154       80.6860322927  TIP3      5814            0.0000000000
     68956      7174  TIP3      H1              9.7838222520       14.7423682113       80.4382294827  TIP3      5814            0.0000000000
     68957      7174  TIP3      H2              9.4149714915       15.7844116373       81.4951636462  TIP3      5814            0.0000000000
     68958      7175  TIP3      OH2             9.3470041877       14.2765217941       77.6979820937  TIP3      5815            0.0000000000
     68959      7175  TIP3      H1              8.4621395701       14.4896264157       77.4015008477  TIP3      5815            0.0000000000
     68960      7175  TIP3      H2              9.7825205369       15.1355216238       77.6565207335  TIP3      5815            0.0000000000
     68961      7176  TIP3      OH2            -0.2308620127       -1.9771787362       71.9071425149  TIP3      5816            0.0000000000
     68962      7176  TIP3      H1             -1.0344230409       -2.1956489808       71.4167235221  TIP3      5816            0.0000000000
     68963      7176  TIP3      H2              0.2768868173       -2.8087087541       71.8711317399  TIP3      5816            0.0000000000
     68964      7177  TIP3      OH2            -1.4433764482       -2.1726780358       67.6510477048  TIP3      5817            0.0000000000
     68965      7177  TIP3      H1             -0.9556044248       -1.5365563585       67.1156723958  TIP3      5817            0.0000000000
     68966      7177  TIP3      H2             -2.0145842061       -1.6328757571       68.2233108741  TIP3      5817            0.0000000000
     68967      7178  TIP3      OH2            -1.5428725824       13.7473828285       68.6467217337  TIP3      5818            0.0000000000
     68968      7178  TIP3      H1             -2.2053191593       13.7850245529       67.9417973794  TIP3      5818            0.0000000000
     68969      7178  TIP3      H2             -1.4786205050       14.6866715426       68.8690522136  TIP3      5818            0.0000000000
     68970      7179  TIP3      OH2            14.0808779431       14.5601881420       69.7042760826  TIP3      5819            0.0000000000
     68971      7179  TIP3      H1             13.8571321343       13.8208391981       69.1285657422  TIP3      5819            0.0000000000
     68972      7179  TIP3      H2             13.9945232959       15.3062725103       69.0839895925  TIP3      5819            0.0000000000
     68973      7180  TIP3      OH2            -0.3123683035       -1.3961783194       81.4011339815  TIP3      5820            0.0000000000
     68974      7180  TIP3      H1             -0.6620522339       -2.1901905900       81.8294036694  TIP3      5820            0.0000000000
     68975      7180  TIP3      H2              0.5977674041       -1.4150979390       81.7633821057  TIP3      5820            0.0000000000
     68976      7181  TIP3      OH2             1.7078037182       -2.0566070884       82.9673931202  TIP3      5821            0.0000000000
     68977      7181  TIP3      H1              2.5848840931       -2.4050108548       82.7714292907  TIP3      5821            0.0000000000
     68978      7181  TIP3      H2              1.3310833132       -2.8336088056       83.4272404507  TIP3      5821            0.0000000000
     68979      7182  TIP3      OH2            27.6775435306        7.2009252516       71.9002772116  TIP3      5822            0.0000000000
     68980      7182  TIP3      H1             27.7774169113        8.1343937702       71.7307489639  TIP3      5822            0.0000000000
     68981      7182  TIP3      H2             27.0596853330        6.9324395258       71.2017914133  TIP3      5822            0.0000000000
     68982      7183  TIP3      OH2            26.5896694845        6.4413535099       75.3236274543  TIP3      5823            0.0000000000
     68983      7183  TIP3      H1             26.6196055387        5.7847614219       76.0242234899  TIP3      5823            0.0000000000
     68984      7183  TIP3      H2             26.2974585889        5.9671903259       74.5459291567  TIP3      5823            0.0000000000
     68985      7184  TIP3      OH2            18.9392140316        6.0997225908       76.8701925669  TIP3      5824            0.0000000000
     68986      7184  TIP3      H1             19.0347467573        5.4205745928       77.5619678741  TIP3      5824            0.0000000000
     68987      7184  TIP3      H2             19.6836527044        6.6783770151       77.0623657983  TIP3      5824            0.0000000000
     68988      7185  TIP3      OH2            19.8743208093       10.5657323026       75.3595659306  TIP3      5825            0.0000000000
     68989      7185  TIP3      H1             19.5490768607        9.6933674277       75.0455852922  TIP3      5825            0.0000000000
     68990      7185  TIP3      H2             20.8248004737       10.3641181836       75.3995164945  TIP3      5825            0.0000000000
     68991      7186  TIP3      OH2            16.5530240440        4.1625110631       70.7883313520  TIP3      5826            0.0000000000
     68992      7186  TIP3      H1             16.0964312336        5.0093499023       70.8146414140  TIP3      5826            0.0000000000
     68993      7186  TIP3      H2             15.9473239389        3.5964561456       70.2912414843  TIP3      5826            0.0000000000
     68994      7187  TIP3      OH2            33.6166599496        0.4910579972       76.5120144694  TIP3      5827            0.0000000000
     68995      7187  TIP3      H1             33.7666989846        1.0541566154       77.2957328421  TIP3      5827            0.0000000000
     68996      7187  TIP3      H2             34.1359313262        0.9392831230       75.8355852619  TIP3      5827            0.0000000000
     68997      7188  TIP3      OH2            17.8615777822        3.7698828546       74.0170348678  TIP3      5828            0.0000000000
     68998      7188  TIP3      H1             18.5718730676        3.2798067375       74.4808982838  TIP3      5828            0.0000000000
     68999      7188  TIP3      H2             18.0138292636        3.5050563561       73.1019936388  TIP3      5828            0.0000000000
     69000      7189  TIP3      OH2            23.0165706884        5.3413481925       73.3560901052  TIP3      5829            0.0000000000
     69001      7189  TIP3      H1             23.7052129523        4.7932455395       73.7448031380  TIP3      5829            0.0000000000
     69002      7189  TIP3      H2             22.5238660391        4.6768889329       72.8340180018  TIP3      5829            0.0000000000
     69003      7190  TIP3      OH2            34.0872860794        2.0060804804       78.8040415819  TIP3      5830            0.0000000000
     69004      7190  TIP3      H1             33.3677528674        2.6275033148       78.6684246813  TIP3      5830            0.0000000000
     69005      7190  TIP3      H2             34.0312431779        1.7402691453       79.7198130854  TIP3      5830            0.0000000000
     69006      7191  TIP3      OH2            20.1168107021        0.2676686231       77.3536524428  TIP3      5831            0.0000000000
     69007      7191  TIP3      H1             19.8877223232        0.8625614488       76.6139600182  TIP3      5831            0.0000000000
     69008      7191  TIP3      H2             19.4640922763        0.5423723436       78.0380997695  TIP3      5831            0.0000000000
     69009      7192  TIP3      OH2            22.6966856589        7.9516423678       77.5560143281  TIP3      5832            0.0000000000
     69010      7192  TIP3      H1             21.9755190932        8.5726923738       77.7929054070  TIP3      5832            0.0000000000
     69011      7192  TIP3      H2             23.4151577077        8.5540347233       77.3324825852  TIP3      5832            0.0000000000
     69012      7193  TIP3      OH2            19.7045998469        2.2012464316       75.2800915361  TIP3      5833            0.0000000000
     69013      7193  TIP3      H1             20.3638259045        2.8150595319       75.6875616645  TIP3      5833            0.0000000000
     69014      7193  TIP3      H2             20.2507206853        1.7100049007       74.6547409150  TIP3      5833            0.0000000000
     69015      7194  TIP3      OH2            21.0835321467        9.9136890314       78.3949056050  TIP3      5834            0.0000000000
     69016      7194  TIP3      H1             21.0704280083       10.8371376757       78.0727112951  TIP3      5834            0.0000000000
     69017      7194  TIP3      H2             20.2136343831        9.8641502011       78.8561081018  TIP3      5834            0.0000000000
     69018      7195  TIP3      OH2            17.1703250311        9.5617936666       69.1695685797  TIP3      5835            0.0000000000
     69019      7195  TIP3      H1             16.9753070927        9.8989578655       68.2840919937  TIP3      5835            0.0000000000
     69020      7195  TIP3      H2             17.2914922528       10.3915676520       69.6808119315  TIP3      5835            0.0000000000
     69021      7196  TIP3      OH2            31.1525215306       -0.4846751024       77.3938473544  TIP3      5836            0.0000000000
     69022      7196  TIP3      H1             30.4359892820        0.1400701938       77.2817648318  TIP3      5836            0.0000000000
     69023      7196  TIP3      H2             31.8607166298       -0.1078874446       76.8337343709  TIP3      5836            0.0000000000
     69024      7197  TIP3      OH2            26.3924851707        6.4632483249       69.3268661030  TIP3      5837            0.0000000000
     69025      7197  TIP3      H1             25.6833773155        7.0185165174       68.9414796773  TIP3      5837            0.0000000000
     69026      7197  TIP3      H2             27.0954754191        6.5096059065       68.6546153491  TIP3      5837            0.0000000000
     69027      7198  TIP3      OH2            33.8206151170        5.8107161845       77.6744037202  TIP3      5838            0.0000000000
     69028      7198  TIP3      H1             33.2094040297        6.5495858271       77.7425387005  TIP3      5838            0.0000000000
     69029      7198  TIP3      H2             34.2772891107        6.0348560660       76.8376084447  TIP3      5838            0.0000000000
     69030      7199  TIP3      OH2            21.4746824684        7.3157614176       72.1628162432  TIP3      5839            0.0000000000
     69031      7199  TIP3      H1             21.1201503873        6.9122263085       71.3326093689  TIP3      5839            0.0000000000
     69032      7199  TIP3      H2             22.0645351136        6.6121637731       72.5101169794  TIP3      5839            0.0000000000
     69033      7200  TIP3      OH2            22.7762085990       10.6866096141       74.8492535067  TIP3      5840            0.0000000000
     69034      7200  TIP3      H1             22.7494236752       10.1572020310       74.0359668430  TIP3      5840            0.0000000000
     69035      7200  TIP3      H2             23.5589474390       10.3214996181       75.2970330485  TIP3      5840            0.0000000000
     69036      7201  TIP3      OH2            21.7940372184        6.0354020189       75.7967915349  TIP3      5841            0.0000000000
     69037      7201  TIP3      H1             22.3544817506        6.1712229873       75.0095290930  TIP3      5841            0.0000000000
     69038      7201  TIP3      H2             22.1547358262        6.6929411674       76.4253667870  TIP3      5841            0.0000000000
     69039      7202  TIP3      OH2            22.7301097027       10.4200766153       80.5109323642  TIP3      5842            0.0000000000
     69040      7202  TIP3      H1             22.3921956372       11.2031617100       80.9847347704  TIP3      5842            0.0000000000
     69041      7202  TIP3      H2             22.0819395346       10.2787919408       79.7960226773  TIP3      5842            0.0000000000
     69042      7203  TIP3      OH2            19.6782123308        6.6375531603       79.7068304048  TIP3      5843            0.0000000000
     69043      7203  TIP3      H1             19.6913032500        7.3084925139       80.4153117377  TIP3      5843            0.0000000000
     69044      7203  TIP3      H2             18.7553114487        6.7045178317       79.4251286991  TIP3      5843            0.0000000000
     69045      7204  TIP3      OH2            20.9769941312       12.5006870925       81.2745247974  TIP3      5844            0.0000000000
     69046      7204  TIP3      H1             20.9334280618       12.4114085295       80.3086892882  TIP3      5844            0.0000000000
     69047      7204  TIP3      H2             20.0437049112       12.3845194933       81.5344209802  TIP3      5844            0.0000000000
     69048      7205  TIP3      OH2            20.4134430113        6.3174577358       69.7730584211  TIP3      5845            0.0000000000
     69049      7205  TIP3      H1             20.1554415935        7.1042867981       69.2514433749  TIP3      5845            0.0000000000
     69050      7205  TIP3      H2             19.7348550932        5.6744955307       69.5595813378  TIP3      5845            0.0000000000
     69051      7206  TIP3      OH2            16.2787421406       11.5032188264       75.3922168116  TIP3      5846            0.0000000000
     69052      7206  TIP3      H1             17.2282134937       11.3363697104       75.4361408850  TIP3      5846            0.0000000000
     69053      7206  TIP3      H2             16.1813323242       12.2963553627       75.9325326577  TIP3      5846            0.0000000000
     69054      7207  TIP3      OH2            25.8561457781       15.4844812673       69.7793774316  TIP3      5847            0.0000000000
     69055      7207  TIP3      H1             25.8510125111       15.3860058099       68.8235265663  TIP3      5847            0.0000000000
     69056      7207  TIP3      H2             25.9430493250       16.4355481873       69.9386388036  TIP3      5847            0.0000000000
     69057      7208  TIP3      OH2            19.5643530282       14.3321717637       71.6061949140  TIP3      5848            0.0000000000
     69058      7208  TIP3      H1             19.6910703512       13.9423501233       72.4999918565  TIP3      5848            0.0000000000
     69059      7208  TIP3      H2             18.6981356079       13.9542056765       71.3742104947  TIP3      5848            0.0000000000
     69060      7209  TIP3      OH2            18.7728046306       10.0694299704       79.6126197054  TIP3      5849            0.0000000000
     69061      7209  TIP3      H1             18.9868103571        9.6849157300       80.4904082828  TIP3      5849            0.0000000000
     69062      7209  TIP3      H2             17.9300524406        9.6628265621       79.3986276904  TIP3      5849            0.0000000000
     69063      7210  TIP3      OH2            21.5738900963        3.4794514679       76.7508265892  TIP3      5850            0.0000000000
     69064      7210  TIP3      H1             20.9014454127        3.4735194765       77.4498141451  TIP3      5850            0.0000000000
     69065      7210  TIP3      H2             21.5562933579        4.4122961975       76.4423671774  TIP3      5850            0.0000000000
     69066      7211  TIP3      OH2            21.5140338184        3.7045835321       71.6425357347  TIP3      5851            0.0000000000
     69067      7211  TIP3      H1             20.5830908218        3.4137414825       71.5574995784  TIP3      5851            0.0000000000
     69068      7211  TIP3      H2             21.9214207315        3.3363378910       70.8553934848  TIP3      5851            0.0000000000
     69069      7212  TIP3      OH2            27.0748582594        4.1071292567       70.4475158383  TIP3      5852            0.0000000000
     69070      7212  TIP3      H1             26.6568757186        4.9272537665       70.1274777988  TIP3      5852            0.0000000000
     69071      7212  TIP3      H2             27.7643618985        3.9348355824       69.7850113930  TIP3      5852            0.0000000000
     69072      7213  TIP3      OH2            26.1353885976        4.2591386616       81.8938590894  TIP3      5853            0.0000000000
     69073      7213  TIP3      H1             25.5705276026        3.5573420826       82.2336364657  TIP3      5853            0.0000000000
     69074      7213  TIP3      H2             26.9448418010        4.1739721653       82.4031752940  TIP3      5853            0.0000000000
     69075      7214  TIP3      OH2            28.0031060629        3.5456413580       73.2477623598  TIP3      5854            0.0000000000
     69076      7214  TIP3      H1             27.8471663587        4.1517300550       72.5146798455  TIP3      5854            0.0000000000
     69077      7214  TIP3      H2             28.2117852501        2.7445459219       72.7696170761  TIP3      5854            0.0000000000
     69078      7215  TIP3      OH2            19.2075966842        3.7873712652       78.5164716320  TIP3      5855            0.0000000000
     69079      7215  TIP3      H1             19.2719826546        4.1749998832       79.4053543701  TIP3      5855            0.0000000000
     69080      7215  TIP3      H2             18.7801637423        2.9376781459       78.6908569042  TIP3      5855            0.0000000000
     69081      7216  TIP3      OH2            15.8907841296        0.9327838615       72.4100694267  TIP3      5856            0.0000000000
     69082      7216  TIP3      H1             16.4993310490        0.8304230300       73.1665862841  TIP3      5856            0.0000000000
     69083      7216  TIP3      H2             16.3077620751        0.4414314438       71.6919811992  TIP3      5856            0.0000000000
     69084      7217  TIP3      OH2            17.1735266471        1.6276896016       67.8666165658  TIP3      5857            0.0000000000
     69085      7217  TIP3      H1             17.6164566552        2.1959845520       67.2246665662  TIP3      5857            0.0000000000
     69086      7217  TIP3      H2             16.4503517100        2.2179989357       68.1538040552  TIP3      5857            0.0000000000
     69087      7218  TIP3      OH2            27.2515505928        5.1825773576       77.8390784101  TIP3      5858            0.0000000000
     69088      7218  TIP3      H1             27.6969142039        4.5667641798       77.2542364672  TIP3      5858            0.0000000000
     69089      7218  TIP3      H2             26.8144987253        4.6513547103       78.5223923636  TIP3      5858            0.0000000000
     69090      7219  TIP3      OH2            18.9417383610        2.7358600113       71.5125524375  TIP3      5859            0.0000000000
     69091      7219  TIP3      H1             18.0435311266        2.8930132976       71.1627315919  TIP3      5859            0.0000000000
     69092      7219  TIP3      H2             19.1648383131        1.8799160122       71.1365176525  TIP3      5859            0.0000000000
     69093      7220  TIP3      OH2            21.2510922857        3.8944164927       66.7724271707  TIP3      5860            0.0000000000
     69094      7220  TIP3      H1             20.6804035564        3.6088890489       66.0426190267  TIP3      5860            0.0000000000
     69095      7220  TIP3      H2             22.0418190579        4.1608444911       66.3083537415  TIP3      5860            0.0000000000
     69096      7221  TIP3      OH2            19.3777198715        8.5345873927       81.8278932513  TIP3      5861            0.0000000000
     69097      7221  TIP3      H1             20.0999344481        8.7707958925       82.4417120194  TIP3      5861            0.0000000000
     69098      7221  TIP3      H2             18.6020073390        8.5863324525       82.4047122031  TIP3      5861            0.0000000000
     69099      7222  TIP3      OH2            24.6208163906        8.4722681299       68.6977044426  TIP3      5862            0.0000000000
     69100      7222  TIP3      H1             23.8272453092        8.0136977298       68.3580860660  TIP3      5862            0.0000000000
     69101      7222  TIP3      H2             24.4077023639        8.6062406906       69.6384507990  TIP3      5862            0.0000000000
     69102      7223  TIP3      OH2            29.1558860371        3.2004827758       68.5088123524  TIP3      5863            0.0000000000
     69103      7223  TIP3      H1             30.0351232616        3.0465738606       68.9054247269  TIP3      5863            0.0000000000
     69104      7223  TIP3      H2             29.2610497353        3.9870949474       67.9690905160  TIP3      5863            0.0000000000
     69105      7224  TIP3      OH2            19.7836518484        7.9002865345       74.5035165328  TIP3      5864            0.0000000000
     69106      7224  TIP3      H1             20.4054379189        7.7776556416       73.7677124717  TIP3      5864            0.0000000000
     69107      7224  TIP3      H2             19.7439385181        7.0091103692       74.8991173849  TIP3      5864            0.0000000000
     69108      7225  TIP3      OH2            23.7369597874        5.7631672128       81.9775005896  TIP3      5865            0.0000000000
     69109      7225  TIP3      H1             23.4074996958        5.5908761328       81.0753776795  TIP3      5865            0.0000000000
     69110      7225  TIP3      H2             24.6791049301        5.5567469637       81.8832692603  TIP3      5865            0.0000000000
     69111      7226  TIP3      OH2            22.0771198320       11.3452682189       71.9192107489  TIP3      5866            0.0000000000
     69112      7226  TIP3      H1             22.5900093751       12.1242778887       71.6391811554  TIP3      5866            0.0000000000
     69113      7226  TIP3      H2             21.2135430454       11.5618431672       71.5454475621  TIP3      5866            0.0000000000
     69114      7227  TIP3      OH2            17.8481085510        6.2202381521       66.3618827563  TIP3      5867            0.0000000000
     69115      7227  TIP3      H1             18.4655245295        6.8187174701       66.8170932802  TIP3      5867            0.0000000000
     69116      7227  TIP3      H2             16.9947469358        6.4505422676       66.7577969616  TIP3      5867            0.0000000000
     69117      7228  TIP3      OH2            23.5044819842        9.0007049748       71.3999379946  TIP3      5868            0.0000000000
     69118      7228  TIP3      H1             23.1958887481        9.9205248444       71.4774456155  TIP3      5868            0.0000000000
     69119      7228  TIP3      H2             22.7662215189        8.5170491009       71.8226244733  TIP3      5868            0.0000000000
     69120      7229  TIP3      OH2            23.9809100375       13.1456419229       77.7646694610  TIP3      5869            0.0000000000
     69121      7229  TIP3      H1             24.4027342457       13.9940495311       77.5337162600  TIP3      5869            0.0000000000
     69122      7229  TIP3      H2             24.5365036562       12.8529321923       78.5057705765  TIP3      5869            0.0000000000
     69123      7230  TIP3      OH2            22.1827537507       13.9799473236       70.9433032373  TIP3      5870            0.0000000000
     69124      7230  TIP3      H1             21.2190129137       14.1242140384       71.0653489095  TIP3      5870            0.0000000000
     69125      7230  TIP3      H2             22.5470996936       14.8226662061       71.2727487883  TIP3      5870            0.0000000000
     69126      7231  TIP3      OH2            30.2718267884       13.8280922253       79.9159970714  TIP3      5871            0.0000000000
     69127      7231  TIP3      H1             29.6377590462       13.2738149822       79.4322275086  TIP3      5871            0.0000000000
     69128      7231  TIP3      H2             30.5250965113       14.4628193991       79.2447535842  TIP3      5871            0.0000000000
     69129      7232  TIP3      OH2            18.3508308508        1.0069397396       79.2893290515  TIP3      5872            0.0000000000
     69130      7232  TIP3      H1             17.4480740493        1.3475403888       79.2736508880  TIP3      5872            0.0000000000
     69131      7232  TIP3      H2             18.2412211012        0.1798937602       79.7773081668  TIP3      5872            0.0000000000
     69132      7233  TIP3      OH2            17.9921896408       12.8137166086       77.7150832665  TIP3      5873            0.0000000000
     69133      7233  TIP3      H1             18.2644561524       11.8853458676       77.7151491390  TIP3      5873            0.0000000000
     69134      7233  TIP3      H2             18.2488942543       13.0918023387       78.5981561681  TIP3      5873            0.0000000000
     69135      7234  TIP3      OH2            22.6758141445       10.8799290084       67.4159763383  TIP3      5874            0.0000000000
     69136      7234  TIP3      H1             22.9789311226       10.3313237144       68.1536567029  TIP3      5874            0.0000000000
     69137      7234  TIP3      H2             22.8100430231       11.7891995510       67.7527006682  TIP3      5874            0.0000000000
     69138      7235  TIP3      OH2            19.2311081684        8.0992048290       67.9362347309  TIP3      5875            0.0000000000
     69139      7235  TIP3      H1             18.5396082519        8.5183610856       68.4806388642  TIP3      5875            0.0000000000
     69140      7235  TIP3      H2             19.7395637107        8.8871603434       67.6816402211  TIP3      5875            0.0000000000
     69141      7236  TIP3      OH2            25.5126457040       12.5001020005       68.1284978075  TIP3      5876            0.0000000000
     69142      7236  TIP3      H1             24.7230988026       13.0413168115       68.2384048619  TIP3      5876            0.0000000000
     69143      7236  TIP3      H2             26.0662188290       13.0393256380       67.5613318354  TIP3      5876            0.0000000000
     69144      7237  TIP3      OH2            25.6730006788        3.1725700331       79.3135928331  TIP3      5877            0.0000000000
     69145      7237  TIP3      H1             25.6872892460        3.7230899598       80.1118124022  TIP3      5877            0.0000000000
     69146      7237  TIP3      H2             26.2304356991        2.4160671510       79.4797519721  TIP3      5877            0.0000000000
     69147      7238  TIP3      OH2            22.8563785098       13.5691019336       68.1696447590  TIP3      5878            0.0000000000
     69148      7238  TIP3      H1             23.0476255739       14.3962604442       67.6745370094  TIP3      5878            0.0000000000
     69149      7238  TIP3      H2             22.6712975575       13.9038080855       69.0734175763  TIP3      5878            0.0000000000
     69150      7239  TIP3      OH2            21.5768129507        0.2957253770       67.7863271522  TIP3      5879            0.0000000000
     69151      7239  TIP3      H1             21.4893613623        1.2008790488       68.1147185549  TIP3      5879            0.0000000000
     69152      7239  TIP3      H2             22.4673282749        0.0384188783       68.0303389018  TIP3      5879            0.0000000000
     69153      7240  TIP3      OH2            19.8556240123       10.7275278916       66.8281121792  TIP3      5880            0.0000000000
     69154      7240  TIP3      H1             20.5077671238       11.3653384814       67.1317724144  TIP3      5880            0.0000000000
     69155      7240  TIP3      H2             20.3134444711       10.2697419801       66.1140512929  TIP3      5880            0.0000000000
     69156      7241  TIP3      OH2            18.7864831499       -1.7573076353       74.7330717218  TIP3      5881            0.0000000000
     69157      7241  TIP3      H1             18.7250704855       -1.7724143852       73.7671934005  TIP3      5881            0.0000000000
     69158      7241  TIP3      H2             18.5059041673       -2.6591707832       74.9544293105  TIP3      5881            0.0000000000
     69159      7242  TIP3      OH2            17.9321876711       12.1080651210       70.8265863285  TIP3      5882            0.0000000000
     69160      7242  TIP3      H1             17.0811401034       12.5544099091       70.7823596313  TIP3      5882            0.0000000000
     69161      7242  TIP3      H2             18.4121089039       12.5633129033       70.1217393375  TIP3      5882            0.0000000000
     69162      7243  TIP3      OH2            17.1693116845       14.7699143565       82.1131025405  TIP3      5883            0.0000000000
     69163      7243  TIP3      H1             17.7386460061       14.5376846251       82.8715507586  TIP3      5883            0.0000000000
     69164      7243  TIP3      H2             16.7446392577       13.9234456908       81.9195261734  TIP3      5883            0.0000000000
     69165      7244  TIP3      OH2            21.7853979199       13.6494459734       83.7327609531  TIP3      5884            0.0000000000
     69166      7244  TIP3      H1             22.5696016940       13.1797241995       84.0490447541  TIP3      5884            0.0000000000
     69167      7244  TIP3      H2             21.7755757797       13.3927729259       82.7889232565  TIP3      5884            0.0000000000
     69168      7245  TIP3      OH2            30.4968636832       12.9578499282       65.2961541803  TIP3      5885            0.0000000000
     69169      7245  TIP3      H1             30.7550940953       12.1731559908       65.7804454589  TIP3      5885            0.0000000000
     69170      7245  TIP3      H2             31.2757674530       13.1737403087       64.7824556078  TIP3      5885            0.0000000000
     69171      7246  TIP3      OH2            23.7110960596        8.5184906151       82.4933515623  TIP3      5886            0.0000000000
     69172      7246  TIP3      H1             23.4397353679        8.8379160462       81.6141522474  TIP3      5886            0.0000000000
     69173      7246  TIP3      H2             23.8783166249        7.5625367685       82.3451942295  TIP3      5886            0.0000000000
     69174      7247  TIP3      OH2            26.8575572495       10.0376818307       64.9029381762  TIP3      5887            0.0000000000
     69175      7247  TIP3      H1             26.5146208319       10.1930321644       65.7953706016  TIP3      5887            0.0000000000
     69176      7247  TIP3      H2             26.6724905172        9.1052752657       64.8232049043  TIP3      5887            0.0000000000
     69177      7248  TIP3      OH2            17.9987084870        5.7558596388       82.5057755290  TIP3      5888            0.0000000000
     69178      7248  TIP3      H1             18.3609217592        4.8747202334       82.3910685317  TIP3      5888            0.0000000000
     69179      7248  TIP3      H2             17.6609188465        5.7578319679       83.3991239712  TIP3      5888            0.0000000000
     69180      7249  TIP3      OH2            22.6308148088        6.8597090357       67.5670815981  TIP3      5889            0.0000000000
     69181      7249  TIP3      H1             22.0952939207        6.3448473381       68.1875253435  TIP3      5889            0.0000000000
     69182      7249  TIP3      H2             22.8601218944        6.2084326691       66.8944671512  TIP3      5889            0.0000000000
     69183      7250  TIP3      OH2            21.8664416799        4.7243520067       79.8878948177  TIP3      5890            0.0000000000
     69184      7250  TIP3      H1             21.2432406468        5.4240471322       80.1200206934  TIP3      5890            0.0000000000
     69185      7250  TIP3      H2             22.2435027934        5.0356306719       79.0492555092  TIP3      5890            0.0000000000
     69186      7251  TIP3      OH2            22.6945304872        0.4700773494       78.3899687706  TIP3      5891            0.0000000000
     69187      7251  TIP3      H1             23.1706926516        0.9182824448       77.6996189517  TIP3      5891            0.0000000000
     69188      7251  TIP3      H2             21.7946151895        0.3642104367       78.0318455638  TIP3      5891            0.0000000000
     69189      7252  TIP3      OH2            24.2313519358        5.9396972343       78.7072273178  TIP3      5892            0.0000000000
     69190      7252  TIP3      H1             24.9769188179        5.7823529201       78.1210659640  TIP3      5892            0.0000000000
     69191      7252  TIP3      H2             23.8648242435        6.7702560375       78.3650627267  TIP3      5892            0.0000000000
     69192      7253  TIP3      OH2            20.7264077475        3.3205310301       82.8102016172  TIP3      5893            0.0000000000
     69193      7253  TIP3      H1             19.9522905014        2.7473539765       82.6526532415  TIP3      5893            0.0000000000
     69194      7253  TIP3      H2             21.3807618616        2.9460543632       82.2076717402  TIP3      5893            0.0000000000
     69195      7254  TIP3      OH2            18.7907714715        1.2585594200       82.5707680416  TIP3      5894            0.0000000000
     69196      7254  TIP3      H1             19.0525278054        0.5281194563       81.9811798585  TIP3      5894            0.0000000000
     69197      7254  TIP3      H2             18.7792415295        0.7950002529       83.4342592014  TIP3      5894            0.0000000000
     69198      7255  TIP3      OH2            23.5242828441       15.7735447392       66.7530744796  TIP3      5895            0.0000000000
     69199      7255  TIP3      H1             24.4835119211       15.9045512057       66.9236938125  TIP3      5895            0.0000000000
     69200      7255  TIP3      H2             23.3447511963       16.4871400332       66.1485651057  TIP3      5895            0.0000000000
     69201      7256  TIP3      OH2            15.8618353930       15.7856703281       71.2659167921  TIP3      5896            0.0000000000
     69202      7256  TIP3      H1             15.1349202876       15.3127991355       70.8033613512  TIP3      5896            0.0000000000
     69203      7256  TIP3      H2             16.1042451671       15.1181702995       71.9346358082  TIP3      5896            0.0000000000
     69204      7257  TIP3      OH2            16.6907448767       13.9029588292       73.1157683802  TIP3      5897            0.0000000000
     69205      7257  TIP3      H1             16.2999876216       13.0414915027       73.3306450333  TIP3      5897            0.0000000000
     69206      7257  TIP3      H2             16.8682042388       14.2370872441       74.0124364619  TIP3      5897            0.0000000000
     69207      7258  TIP3      OH2            32.1715261366       12.1431196138       78.2023704528  TIP3      5898            0.0000000000
     69208      7258  TIP3      H1             31.5194328946       12.3462945383       78.8821253965  TIP3      5898            0.0000000000
     69209      7258  TIP3      H2             31.6563137244       11.5922977880       77.6032554854  TIP3      5898            0.0000000000
     69210      7259  TIP3      OH2            34.0146759544        4.6051104619       81.6652195195  TIP3      5899            0.0000000000
     69211      7259  TIP3      H1             33.1152497190        4.2832130046       81.7342250315  TIP3      5899            0.0000000000
     69212      7259  TIP3      H2             34.6278194294        3.8930035799       81.8423314869  TIP3      5899            0.0000000000
     69213      7260  TIP3      OH2            31.8205823371        0.9764199030       65.0878437328  TIP3      5900            0.0000000000
     69214      7260  TIP3      H1             32.3946530508        0.6008875884       65.7452556859  TIP3      5900            0.0000000000
     69215      7260  TIP3      H2             30.9561260597        0.5991764385       65.2927522005  TIP3      5900            0.0000000000
     69216      7261  TIP3      OH2            31.4247065286        2.4923360247       69.9877583005  TIP3      5901            0.0000000000
     69217      7261  TIP3      H1             31.6800859786        1.5788432309       70.1386575358  TIP3      5901            0.0000000000
     69218      7261  TIP3      H2             32.2193028528        2.8831885435       69.6293132895  TIP3      5901            0.0000000000
     69219      7262  TIP3      OH2            16.3662355843        2.2720346427       81.7484332442  TIP3      5902            0.0000000000
     69220      7262  TIP3      H1             17.2941404872        2.0634889650       81.9767381199  TIP3      5902            0.0000000000
     69221      7262  TIP3      H2             15.8995073282        1.4592896407       82.0513428635  TIP3      5902            0.0000000000
     69222      7263  TIP3      OH2            34.2016306180       -2.2238753189       83.5170864514  TIP3      5903            0.0000000000
     69223      7263  TIP3      H1             34.7015798734       -2.8726760003       83.0096007187  TIP3      5903            0.0000000000
     69224      7263  TIP3      H2             34.5221450329       -1.4006429978       83.1439160421  TIP3      5903            0.0000000000
     69225      7264  TIP3      OH2            17.5537811256        0.5730223763       74.6052147720  TIP3      5904            0.0000000000
     69226      7264  TIP3      H1             17.9874482553       -0.2480485522       74.9171575355  TIP3      5904            0.0000000000
     69227      7264  TIP3      H2             18.0684717494        1.2655357699       75.0337796420  TIP3      5904            0.0000000000
     69228      7265  TIP3      OH2            15.8821662885        3.5058552915       75.7482914175  TIP3      5905            0.0000000000
     69229      7265  TIP3      H1             16.3879697638        3.3047457158       74.9326805256  TIP3      5905            0.0000000000
     69230      7265  TIP3      H2             16.3027434129        4.3526307846       75.9419998906  TIP3      5905            0.0000000000
     69231      7266  TIP3      OH2            16.1834376337       -0.1882860360       69.6879026305  TIP3      5906            0.0000000000
     69232      7266  TIP3      H1             15.2394571474       -0.0013039631       69.6022771769  TIP3      5906            0.0000000000
     69233      7266  TIP3      H2             16.6161674207        0.3463904484       69.0059677708  TIP3      5906            0.0000000000
     69234      7267  TIP3      OH2            18.3569481979       11.7253606814       82.2228967253  TIP3      5907            0.0000000000
     69235      7267  TIP3      H1             17.5036662403       11.9056275912       81.7976735710  TIP3      5907            0.0000000000
     69236      7267  TIP3      H2             18.1200145967       11.6403875289       83.1567834527  TIP3      5907            0.0000000000
     69237      7268  TIP3      OH2            21.2732257821       12.6671102784       78.4768473733  TIP3      5908            0.0000000000
     69238      7268  TIP3      H1             20.9195939683       13.5336083039       78.2214868340  TIP3      5908            0.0000000000
     69239      7268  TIP3      H2             22.2043146789       12.7807792189       78.1887476391  TIP3      5908            0.0000000000
     69240      7269  TIP3      OH2            25.5681954441       14.1179673921       81.4254994485  TIP3      5909            0.0000000000
     69241      7269  TIP3      H1             25.7432810378       13.7356761828       82.3132524081  TIP3      5909            0.0000000000
     69242      7269  TIP3      H2             26.4542184447       14.3945146695       81.1294473950  TIP3      5909            0.0000000000
     69243      7270  TIP3      OH2            27.9029084976       15.3758244570       80.7035266516  TIP3      5910            0.0000000000
     69244      7270  TIP3      H1             28.6133590938       14.7658748503       80.4455097732  TIP3      5910            0.0000000000
     69245      7270  TIP3      H2             28.2714776472       15.8148779397       81.4777880800  TIP3      5910            0.0000000000
     69246      7271  TIP3      OH2            32.8080303342       -2.0492826646       79.8055061727  TIP3      5911            0.0000000000
     69247      7271  TIP3      H1             32.0439375336       -1.6935661593       79.3300109860  TIP3      5911            0.0000000000
     69248      7271  TIP3      H2             33.0767428386       -2.7722963861       79.2344213889  TIP3      5911            0.0000000000
     69249      7272  TIP3      OH2            18.6850036105       15.8923295315       78.4847776067  TIP3      5912            0.0000000000
     69250      7272  TIP3      H1             17.9707801410       16.4214209581       78.0890963402  TIP3      5912            0.0000000000
     69251      7272  TIP3      H2             18.3741128683       15.7872529109       79.3958788214  TIP3      5912            0.0000000000
     69252      7273  TIP3      OH2            21.1622210187       15.4784307310       77.5770199810  TIP3      5913            0.0000000000
     69253      7273  TIP3      H1             20.2747747584       15.6770262411       77.9625980825  TIP3      5913            0.0000000000
     69254      7273  TIP3      H2             21.1243344542       16.0576976496       76.7871177088  TIP3      5913            0.0000000000
     69255      7274  TIP3      OH2            25.8432761631       15.4093636900       76.7703602545  TIP3      5914            0.0000000000
     69256      7274  TIP3      H1             25.4397352628       15.9755645004       76.0864040076  TIP3      5914            0.0000000000
     69257      7274  TIP3      H2             25.9993030045       16.0755233248       77.4785611420  TIP3      5914            0.0000000000
     69258      7275  TIP3      OH2            28.2325297271       14.3148063394       77.6769838090  TIP3      5915            0.0000000000
     69259      7275  TIP3      H1             27.3124481789       14.4987345688       77.3947523615  TIP3      5915            0.0000000000
     69260      7275  TIP3      H2             28.6048334968       15.1947614957       77.5754470859  TIP3      5915            0.0000000000
     69261      7276  TIP3      OH2            18.1509788919       14.5752260538       75.4291642069  TIP3      5916            0.0000000000
     69262      7276  TIP3      H1             18.0822279875       14.1200766214       76.2949179250  TIP3      5916            0.0000000000
     69263      7276  TIP3      H2             18.9591784984       14.1960683261       75.0335449192  TIP3      5916            0.0000000000
     69264      7277  TIP3      OH2            20.2335562304       13.2737997365       74.0763603741  TIP3      5917            0.0000000000
     69265      7277  TIP3      H1             20.0508976161       12.3429563609       74.3128506375  TIP3      5917            0.0000000000
     69266      7277  TIP3      H2             21.0908009417       13.4232842628       74.5269380966  TIP3      5917            0.0000000000
     69267      7278  TIP3      OH2            22.8680127821       13.7639728739       74.9486662467  TIP3      5918            0.0000000000
     69268      7278  TIP3      H1             22.9646744855       12.8334237113       74.6904850866  TIP3      5918            0.0000000000
     69269      7278  TIP3      H2             22.8555064558       13.7101288530       75.9163397279  TIP3      5918            0.0000000000
     69270      7279  TIP3      OH2            17.4322334769       -2.1958867281       67.6677153052  TIP3      5919            0.0000000000
     69271      7279  TIP3      H1             17.8974179896       -1.5489942376       67.1088728386  TIP3      5919            0.0000000000
     69272      7279  TIP3      H2             16.8605577133       -1.6333318357       68.2141201178  TIP3      5919            0.0000000000
     69273      7280  TIP3      OH2            17.3680408635       13.7610071731       68.6380523762  TIP3      5920            0.0000000000
     69274      7280  TIP3      H1             16.6451716260       13.7508492963       67.9727349071  TIP3      5920            0.0000000000
     69275      7280  TIP3      H2             17.3577093851       14.7085763511       68.8447133073  TIP3      5920            0.0000000000
     69276      7281  TIP3      OH2            19.2921693376       -0.3049448008       66.1976440376  TIP3      5921            0.0000000000
     69277      7281  TIP3      H1             19.8109186942       -0.8701661756       65.6245853589  TIP3      5921            0.0000000000
     69278      7281  TIP3      H2             19.9422799662        0.0767940105       66.8065539599  TIP3      5921            0.0000000000
     69279      7282  TIP3      OH2            26.1874500889       15.0944769012       66.9444778512  TIP3      5922            0.0000000000
     69280      7282  TIP3      H1             27.1113886401       15.2940579504       66.8160463730  TIP3      5922            0.0000000000
     69281      7282  TIP3      H2             25.9924248188       14.5275533400       66.1857453503  TIP3      5922            0.0000000000
     69282      7283  TIP3      OH2            18.5300771680       -1.3644127228       81.4711946248  TIP3      5923            0.0000000000
     69283      7283  TIP3      H1             18.1725877185       -2.2297340717       81.7742722092  TIP3      5923            0.0000000000
     69284      7283  TIP3      H2             19.4603760235       -1.4686826804       81.7700064583  TIP3      5923            0.0000000000
     69285      7284  TIP3      OH2            20.5268512669       -2.0236475909       83.0566484772  TIP3      5924            0.0000000000
     69286      7284  TIP3      H1             21.4208150210       -2.3191579424       82.7863285818  TIP3      5924            0.0000000000
     69287      7284  TIP3      H2             20.1690565598       -2.8424112513       83.4477574925  TIP3      5924            0.0000000000
     69288      7285  TIP3      OH2            19.1725178859       14.7457995532       65.6295995458  TIP3      5925            0.0000000000
     69289      7285  TIP3      H1             18.8854515159       15.0135346882       66.5090150578  TIP3      5925            0.0000000000
     69290      7285  TIP3      H2             19.9251417508       14.1716558412       65.8033350771  TIP3      5925            0.0000000000
     69291      7286  TIP3      OH2            37.9167540219        6.0328054801       76.8219447198  TIP3      5926            0.0000000000
     69292      7286  TIP3      H1             37.8841994331        5.4815408286       77.6207815123  TIP3      5926            0.0000000000
     69293      7286  TIP3      H2             38.5641079235        6.6993326382       77.0896085719  TIP3      5926            0.0000000000
     69294      7287  TIP3      OH2            38.3830426671       10.3845219720       75.6737731041  TIP3      5927            0.0000000000
     69295      7287  TIP3      H1             38.2240374178        9.6359658428       75.0774977476  TIP3      5927            0.0000000000
     69296      7287  TIP3      H2             39.3538834659       10.3116713783       75.6854911533  TIP3      5927            0.0000000000
     69297      7288  TIP3      OH2            39.5052100646        9.5266552188       78.0290263068  TIP3      5928            0.0000000000
     69298      7288  TIP3      H1             39.8586456768       10.4376722154       77.9768061578  TIP3      5928            0.0000000000
     69299      7288  TIP3      H2             38.9838310646        9.6887595257       78.8389239255  TIP3      5928            0.0000000000
     69300      7289  TIP3      OH2            36.1799563639        9.6135619319       69.2235779984  TIP3      5929            0.0000000000
     69301      7289  TIP3      H1             35.8010819303        9.7652260798       68.3562421870  TIP3      5929            0.0000000000
     69302      7289  TIP3      H2             36.0764126754       10.4562255855       69.6939029947  TIP3      5929            0.0000000000
     69303      7290  TIP3      OH2            38.5000266007        6.5963565075       79.7057879041  TIP3      5930            0.0000000000
     69304      7290  TIP3      H1             38.5776741754        7.2763587332       80.3923038377  TIP3      5930            0.0000000000
     69305      7290  TIP3      H2             37.5855662594        6.7487703333       79.4338782641  TIP3      5930            0.0000000000
     69306      7291  TIP3      OH2            39.4596996625       12.9831715753       81.7163435357  TIP3      5931            0.0000000000
     69307      7291  TIP3      H1             39.7873081182       12.7530115921       80.8387722998  TIP3      5931            0.0000000000
     69308      7291  TIP3      H2             38.7033888477       12.3818308553       81.7376182146  TIP3      5931            0.0000000000
     69309      7292  TIP3      OH2            38.2822894477       14.3974122617       71.5723357703  TIP3      5932            0.0000000000
     69310      7292  TIP3      H1             38.5051120134       14.0008563257       72.4302811536  TIP3      5932            0.0000000000
     69311      7292  TIP3      H2             37.4786399307       13.9141749552       71.3584037532  TIP3      5932            0.0000000000
     69312      7293  TIP3      OH2            37.5301546049       10.0937511813       79.6886135719  TIP3      5933            0.0000000000
     69313      7293  TIP3      H1             37.8445391104        9.6340055949       80.4863788232  TIP3      5933            0.0000000000
     69314      7293  TIP3      H2             36.7682048922        9.5952870861       79.3978666500  TIP3      5933            0.0000000000
     69315      7294  TIP3      OH2            40.1023310815        3.9878364759       77.8345833552  TIP3      5934            0.0000000000
     69316      7294  TIP3      H1             39.4661082757        3.3473313346       77.5174698740  TIP3      5934            0.0000000000
     69317      7294  TIP3      H2             40.3403923892        4.2310829421       76.9249467416  TIP3      5934            0.0000000000
     69318      7295  TIP3      OH2            38.2247644071        8.5285966718       81.8334042412  TIP3      5935            0.0000000000
     69319      7295  TIP3      H1             38.9743119542        8.7818516362       82.4126382934  TIP3      5935            0.0000000000
     69320      7295  TIP3      H2             37.4685530994        8.7335247445       82.3895007533  TIP3      5935            0.0000000000
     69321      7296  TIP3      OH2            38.5553956835        7.8860778610       74.5787411347  TIP3      5936            0.0000000000
     69322      7296  TIP3      H1             39.2513797164        7.7864429322       73.9003912292  TIP3      5936            0.0000000000
     69323      7296  TIP3      H2             38.6039418675        7.0065050719       74.9921939017  TIP3      5936            0.0000000000
     69324      7297  TIP3      OH2            35.6358262091        6.2788394234       79.7441326992  TIP3      5937            0.0000000000
     69325      7297  TIP3      H1             35.7743895624        5.8325554778       80.5732398396  TIP3      5937            0.0000000000
     69326      7297  TIP3      H2             34.9314369364        5.7388716310       79.3309851846  TIP3      5937            0.0000000000
     69327      7298  TIP3      OH2            36.6610903359        6.2005541217       66.3981316040  TIP3      5938            0.0000000000
     69328      7298  TIP3      H1             37.2948615575        6.8021785877       66.8324823564  TIP3      5938            0.0000000000
     69329      7298  TIP3      H2             35.8205153558        6.4884519733       66.7598377812  TIP3      5938            0.0000000000
     69330      7299  TIP3      OH2            36.8384954283       12.8172267576       77.7333012971  TIP3      5939            0.0000000000
     69331      7299  TIP3      H1             37.0872927620       11.8824640468       77.6937469645  TIP3      5939            0.0000000000
     69332      7299  TIP3      H2             37.0994279861       13.0652624669       78.6197737290  TIP3      5939            0.0000000000
     69333      7300  TIP3      OH2            38.0828224367        8.0859371142       67.8922184144  TIP3      5940            0.0000000000
     69334      7300  TIP3      H1             37.4032446802        8.4538351419       68.4984409049  TIP3      5940            0.0000000000
     69335      7300  TIP3      H2             38.5852273138        8.8885320385       67.6985201317  TIP3      5940            0.0000000000
     69336      7301  TIP3      OH2            38.7775132149       10.6458613140       66.8799942045  TIP3      5941            0.0000000000
     69337      7301  TIP3      H1             39.2885669913       11.4229102486       67.0985960640  TIP3      5941            0.0000000000
     69338      7301  TIP3      H2             39.1584635823       10.2810542991       66.0811326710  TIP3      5941            0.0000000000
     69339      7302  TIP3      OH2            36.7705964825       12.1274915643       70.8002859829  TIP3      5942            0.0000000000
     69340      7302  TIP3      H1             35.9135928383       12.5729950663       70.7898017979  TIP3      5942            0.0000000000
     69341      7302  TIP3      H2             37.2869365432       12.5928504982       70.1329606270  TIP3      5942            0.0000000000
     69342      7303  TIP3      OH2            35.5520251870       13.8903852974       73.1332562813  TIP3      5943            0.0000000000
     69343      7303  TIP3      H1             35.1731408991       13.0270741789       73.3149703002  TIP3      5943            0.0000000000
     69344      7303  TIP3      H2             35.7489734193       14.2488270047       74.0173901413  TIP3      5943            0.0000000000
     69345      7304  TIP3      OH2            35.6264447600        6.8303054217       75.5855987976  TIP3      5944            0.0000000000
     69346      7304  TIP3      H1             35.8025273338        6.8928540662       74.6404231644  TIP3      5944            0.0000000000
     69347      7304  TIP3      H2             36.5153415213        6.7904475054       75.9804924356  TIP3      5944            0.0000000000
     69348      7305  TIP3      OH2            37.1421631178       11.5836547173       82.2327014356  TIP3      5945            0.0000000000
     69349      7305  TIP3      H1             36.3684438958       11.9248039246       81.7790666051  TIP3      5945            0.0000000000
     69350      7305  TIP3      H2             36.9114819198       11.6985489880       83.1677398294  TIP3      5945            0.0000000000
     69351      7306  TIP3      OH2            39.6844221158       13.1659127791       77.5203125806  TIP3      5946            0.0000000000
     69352      7306  TIP3      H1             39.5565809504       13.8296384953       78.2152014660  TIP3      5946            0.0000000000
     69353      7306  TIP3      H2             40.5947745562       12.9656077130       77.8674557909  TIP3      5946            0.0000000000
     69354      7307  TIP3      OH2            37.5352647210       15.9296827810       78.5237382477  TIP3      5947            0.0000000000
     69355      7307  TIP3      H1             36.8256967369       16.3948986801       78.0630387358  TIP3      5947            0.0000000000
     69356      7307  TIP3      H2             37.1608026313       15.6906841283       79.3744824288  TIP3      5947            0.0000000000
     69357      7308  TIP3      OH2            39.9269913382       15.5972872019       77.5480623991  TIP3      5948            0.0000000000
     69358      7308  TIP3      H1             39.0200511169       15.6887711939       77.9009765136  TIP3      5948            0.0000000000
     69359      7308  TIP3      H2             39.9583185397       16.1469245745       76.7389416656  TIP3      5948            0.0000000000
     69360      7309  TIP3      OH2            37.0497664294       14.6509948177       75.4566360851  TIP3      5949            0.0000000000
     69361      7309  TIP3      H1             36.9648565423       14.1126605280       76.2662724678  TIP3      5949            0.0000000000
     69362      7309  TIP3      H2             37.8274794692       14.2235159401       75.0321085513  TIP3      5949            0.0000000000
     69363      7310  TIP3      OH2            39.0131619059       13.4616173067       74.3596381261  TIP3      5950            0.0000000000
     69364      7310  TIP3      H1             38.8305325224       12.5108073279       74.3304342262  TIP3      5950            0.0000000000
     69365      7310  TIP3      H2             39.9467932123       13.4556860267       74.6032316993  TIP3      5950            0.0000000000
     69366      7311  TIP3      OH2            39.4246655442       -2.1495678622       82.8035677883  TIP3      5951            0.0000000000
     69367      7311  TIP3      H1             40.3471575725       -2.3928085408       82.7946556384  TIP3      5951            0.0000000000
     69368      7311  TIP3      H2             39.0237975773       -2.7694921905       83.4183397689  TIP3      5951            0.0000000000
     69369      7312  TIP3      OH2            38.0711418716       14.7720625541       65.5835560980  TIP3      5952            0.0000000000
     69370      7312  TIP3      H1             37.7056041134       14.9689383106       66.4617475364  TIP3      5952            0.0000000000
     69371      7312  TIP3      H2             38.7951873076       14.1997661818       65.7972481159  TIP3      5952            0.0000000000
     69372      7313  TIP3      OH2           -28.8071217014       26.0809244637       71.8332332302  TIP3      5953            0.0000000000
     69373      7313  TIP3      H1            -28.7941739870       27.0430433571       71.7887061443  TIP3      5953            0.0000000000
     69374      7313  TIP3      H2            -29.5251297020       25.8808013769       71.2516114697  TIP3      5953            0.0000000000
     69375      7314  TIP3      OH2           -26.2716388328       28.2600880569       73.5743368667  TIP3      5954            0.0000000000
     69376      7314  TIP3      H1            -26.7043604098       27.5536016727       74.0608271651  TIP3      5954            0.0000000000
     69377      7314  TIP3      H2            -26.2496665024       28.9674110960       74.2470271043  TIP3      5954            0.0000000000
     69378      7315  TIP3      OH2           -39.8359698592       23.0206276551       70.2914709695  TIP3      5955            0.0000000000
     69379      7315  TIP3      H1            -40.2315883942       23.8362361213       70.6809175713  TIP3      5955            0.0000000000
     69380      7315  TIP3      H2            -40.5876127477       22.5185947181       70.0620157193  TIP3      5955            0.0000000000
     69381      7316  TIP3      OH2           -39.1410615264       25.2113166499       73.0984438013  TIP3      5956            0.0000000000
     69382      7316  TIP3      H1            -39.0246847943       24.2988388386       73.3832517043  TIP3      5956            0.0000000000
     69383      7316  TIP3      H2            -38.6163067250       25.2561043416       72.2540729769  TIP3      5956            0.0000000000
     69384      7317  TIP3      OH2           -29.1382810882       33.4104743045       73.8200112352  TIP3      5957            0.0000000000
     69385      7317  TIP3      H1            -28.5245695760       32.7051248586       73.5146469407  TIP3      5957            0.0000000000
     69386      7317  TIP3      H2            -29.3622612375       33.0778295569       74.6877382129  TIP3      5957            0.0000000000
     69387      7318  TIP3      OH2           -22.8915769123       19.4270279160       76.6408550348  TIP3      5958            0.0000000000
     69388      7318  TIP3      H1            -22.7729121666       20.0707933633       77.3641690872  TIP3      5958            0.0000000000
     69389      7318  TIP3      H2            -22.4188100015       19.8353237579       75.9140896041  TIP3      5958            0.0000000000
     69390      7319  TIP3      OH2           -27.5441291546       20.3517427617       71.6562889938  TIP3      5959            0.0000000000
     69391      7319  TIP3      H1            -26.9176507169       20.0122559872       72.3126029000  TIP3      5959            0.0000000000
     69392      7319  TIP3      H2            -26.9780800543       20.9037863565       71.0914028338  TIP3      5959            0.0000000000
     69393      7320  TIP3      OH2           -22.5011088450       20.8473401840       78.7681687851  TIP3      5960            0.0000000000
     69394      7320  TIP3      H1            -23.2037041944       21.5120112998       78.6750879154  TIP3      5960            0.0000000000
     69395      7320  TIP3      H2            -22.5085098531       20.6597458149       79.7157979959  TIP3      5960            0.0000000000
     69396      7321  TIP3      OH2           -39.3929717194       28.4810821273       69.2324171419  TIP3      5961            0.0000000000
     69397      7321  TIP3      H1            -39.5846259899       28.7162956531       68.3418396266  TIP3      5961            0.0000000000
     69398      7321  TIP3      H2            -39.2463479547       29.3075852356       69.7116235066  TIP3      5961            0.0000000000
     69399      7322  TIP3      OH2           -25.7188953987       30.0618446264       75.9235122165  TIP3      5962            0.0000000000
     69400      7322  TIP3      H1            -26.6738298459       30.1863736850       76.0905880657  TIP3      5962            0.0000000000
     69401      7322  TIP3      H2            -25.4601637353       30.9966228240       75.7866749971  TIP3      5962            0.0000000000
     69402      7323  TIP3      OH2           -27.4040089640       31.8821228509       72.5925708888  TIP3      5963            0.0000000000
     69403      7323  TIP3      H1            -27.0663442185       31.1584102697       72.0193575743  TIP3      5963            0.0000000000
     69404      7323  TIP3      H2            -27.1085575793       32.6717443898       72.1339124786  TIP3      5963            0.0000000000
     69405      7324  TIP3      OH2           -26.3620137070       29.8130927484       71.0446176767  TIP3      5964            0.0000000000
     69406      7324  TIP3      H1            -26.5691420750       29.1058352431       70.4139731632  TIP3      5964            0.0000000000
     69407      7324  TIP3      H2            -26.2188862702       29.3082304473       71.8690267098  TIP3      5964            0.0000000000
     69408      7325  TIP3      OH2           -22.8142512090       24.6809880412       77.5783280014  TIP3      5965            0.0000000000
     69409      7325  TIP3      H1            -23.4409719716       25.4254412838       77.6655457893  TIP3      5965            0.0000000000
     69410      7325  TIP3      H2            -22.3036812458       24.8735225193       76.7923903422  TIP3      5965            0.0000000000
     69411      7326  TIP3      OH2           -26.7108107762       25.4984743536       70.2475048117  TIP3      5966            0.0000000000
     69412      7326  TIP3      H1            -27.4468890638       25.7181668222       70.8556650189  TIP3      5966            0.0000000000
     69413      7326  TIP3      H2            -26.2321394193       24.8244514144       70.7542122394  TIP3      5966            0.0000000000
     69414      7327  TIP3      OH2           -26.8095158575       23.6606652627       79.3207515210  TIP3      5967            0.0000000000
     69415      7327  TIP3      H1            -26.7787304551       24.4473682102       79.8926276066  TIP3      5967            0.0000000000
     69416      7327  TIP3      H2            -27.4382454270       23.9475732236       78.6472446368  TIP3      5967            0.0000000000
     69417      7328  TIP3      OH2           -28.4215012396       30.4724447814       76.4681605214  TIP3      5968            0.0000000000
     69418      7328  TIP3      H1            -28.6136092643       31.0993538231       77.1731053983  TIP3      5968            0.0000000000
     69419      7328  TIP3      H2            -28.6295112054       29.6123754150       76.9006203434  TIP3      5968            0.0000000000
     69420      7329  TIP3      OH2           -29.8772739231       31.1454204890       71.8469417499  TIP3      5969            0.0000000000
     69421      7329  TIP3      H1            -29.4839783344       31.8288731031       72.3602612870  TIP3      5969            0.0000000000
     69422      7329  TIP3      H2            -30.5417897106       31.7085404617       71.3679770986  TIP3      5969            0.0000000000
     69423      7330  TIP3      OH2           -35.6376511494       31.4551995341       81.2667069324  TIP3      5970            0.0000000000
     69424      7330  TIP3      H1            -35.6183164387       31.1973116238       80.3333603472  TIP3      5970            0.0000000000
     69425      7330  TIP3      H2            -36.5517282608       31.2180327518       81.5027154612  TIP3      5970            0.0000000000
     69426      7331  TIP3      OH2           -39.6494763465       27.2981804703       78.4695367517  TIP3      5971            0.0000000000
     69427      7331  TIP3      H1            -40.3976192546       27.5951930933       77.8955793263  TIP3      5971            0.0000000000
     69428      7331  TIP3      H2            -40.0583554077       26.5540042611       78.8824668318  TIP3      5971            0.0000000000
     69429      7332  TIP3      OH2           -40.2344592339       30.3326260488       75.4514064508  TIP3      5972            0.0000000000
     69430      7332  TIP3      H1            -39.2751264290       30.2237292240       75.4109886688  TIP3      5972            0.0000000000
     69431      7332  TIP3      H2            -40.3392732620       31.1247532624       75.9902500772  TIP3      5972            0.0000000000
     69432      7333  TIP3      OH2           -30.1556004487       35.1098374451       69.4242898509  TIP3      5973            0.0000000000
     69433      7333  TIP3      H1            -30.7428229879       34.4046818625       69.0526216818  TIP3      5973            0.0000000000
     69434      7333  TIP3      H2            -30.7873159255       35.6452498810       69.9394378944  TIP3      5973            0.0000000000
     69435      7334  TIP3      OH2           -36.9828790572       32.8377673495       71.2185134283  TIP3      5974            0.0000000000
     69436      7334  TIP3      H1            -36.8386347389       32.8441115673       72.2041793869  TIP3      5974            0.0000000000
     69437      7334  TIP3      H2            -37.9269420245       32.7937774635       71.2827107177  TIP3      5974            0.0000000000
     69438      7335  TIP3      OH2           -27.6583276244       33.4952703750       66.7800539256  TIP3      5975            0.0000000000
     69439      7335  TIP3      H1            -27.1502348415       32.7773645808       66.3521161701  TIP3      5975            0.0000000000
     69440      7335  TIP3      H2            -27.5518502055       33.3050795634       67.7238851592  TIP3      5975            0.0000000000
     69441      7336  TIP3      OH2           -27.8902369097       33.4681397461       69.5938351642  TIP3      5976            0.0000000000
     69442      7336  TIP3      H1            -28.8661286249       33.5518239090       69.7149461792  TIP3      5976            0.0000000000
     69443      7336  TIP3      H2            -27.6991448103       32.6798642781       70.1061393072  TIP3      5976            0.0000000000
     69444      7337  TIP3      OH2           -24.9040581239       22.4992236010       81.6204928162  TIP3      5977            0.0000000000
     69445      7337  TIP3      H1            -25.3718860986       22.9634524006       80.9086477660  TIP3      5977            0.0000000000
     69446      7337  TIP3      H2            -24.9088472490       21.5867611541       81.2804593272  TIP3      5977            0.0000000000
     69447      7338  TIP3      OH2           -37.8787669572       29.0182312911       79.6460674103  TIP3      5978            0.0000000000
     69448      7338  TIP3      H1            -37.5265023642       28.5249923504       80.4221267906  TIP3      5978            0.0000000000
     69449      7338  TIP3      H2            -38.6397956235       28.4821469903       79.3473367391  TIP3      5978            0.0000000000
     69450      7339  TIP3      OH2           -30.4684274228       17.1471638214       78.9999695064  TIP3      5979            0.0000000000
     69451      7339  TIP3      H1            -30.0276700353       16.6138687412       79.6823784774  TIP3      5979            0.0000000000
     69452      7339  TIP3      H2            -31.4094251365       16.8830974085       79.0937764401  TIP3      5979            0.0000000000
     69453      7340  TIP3      OH2           -27.1194530384       20.8994236485       79.8791941253  TIP3      5980            0.0000000000
     69454      7340  TIP3      H1            -27.7706572314       20.7306399007       80.5931894383  TIP3      5980            0.0000000000
     69455      7340  TIP3      H2            -27.3173211755       21.7986665940       79.5765984185  TIP3      5980            0.0000000000
     69456      7341  TIP3      OH2           -30.8248396026       19.6188484056       66.2688222077  TIP3      5981            0.0000000000
     69457      7341  TIP3      H1            -31.1071952024       19.5955095290       67.2014969495  TIP3      5981            0.0000000000
     69458      7341  TIP3      H2            -31.0708737558       18.7486810900       65.9650147919  TIP3      5981            0.0000000000
     69459      7342  TIP3      OH2           -28.4364948841       22.5068485599       73.2322353904  TIP3      5982            0.0000000000
     69460      7342  TIP3      H1            -28.7655133655       23.0226901032       72.4969744350  TIP3      5982            0.0000000000
     69461      7342  TIP3      H2            -28.3629650645       21.6064825639       72.8533093240  TIP3      5982            0.0000000000
     69462      7343  TIP3      OH2           -40.3244560389       19.6835053961       71.8263937447  TIP3      5983            0.0000000000
     69463      7343  TIP3      H1            -40.0851694737       19.6564922457       72.7997835598  TIP3      5983            0.0000000000
     69464      7343  TIP3      H2            -39.8735947260       18.9399723685       71.4526839465  TIP3      5983            0.0000000000
     69465      7344  TIP3      OH2           -39.2437462262       20.6899591443       67.9783312600  TIP3      5984            0.0000000000
     69466      7344  TIP3      H1            -38.9061748769       21.1782879940       67.2244710657  TIP3      5984            0.0000000000
     69467      7344  TIP3      H2            -40.0566926299       21.1572606119       68.1745255707  TIP3      5984            0.0000000000
     69468      7345  TIP3      OH2           -24.9192327640       34.9821266359       82.3315174617  TIP3      5985            0.0000000000
     69469      7345  TIP3      H1            -24.6530225615       35.2722485508       81.4448778477  TIP3      5985            0.0000000000
     69470      7345  TIP3      H2            -24.1566850721       35.2602548771       82.8384608295  TIP3      5985            0.0000000000
     69471      7346  TIP3      OH2           -37.0725738384       27.6198915523       81.7903953154  TIP3      5986            0.0000000000
     69472      7346  TIP3      H1            -36.3785066117       27.6529636882       82.4422215491  TIP3      5986            0.0000000000
     69473      7346  TIP3      H2            -37.8887615779       27.5563932235       82.3228279122  TIP3      5986            0.0000000000
     69474      7347  TIP3      OH2           -24.8141579465       26.4808211543       77.4232146374  TIP3      5987            0.0000000000
     69475      7347  TIP3      H1            -24.2593810425       27.0595145862       76.9063515770  TIP3      5987            0.0000000000
     69476      7347  TIP3      H2            -25.6881029376       26.5984193585       77.0084687963  TIP3      5987            0.0000000000
     69477      7348  TIP3      OH2           -28.0794001884       20.0834249721       66.8594073370  TIP3      5988            0.0000000000
     69478      7348  TIP3      H1            -29.0202522076       20.2654475828       66.6742277109  TIP3      5988            0.0000000000
     69479      7348  TIP3      H2            -27.8097196846       20.9812694729       67.1390240724  TIP3      5988            0.0000000000
     69480      7349  TIP3      OH2           -27.3563559322       22.0668612661       68.5638840368  TIP3      5989            0.0000000000
     69481      7349  TIP3      H1            -26.4516948284       21.9374487526       68.8813598540  TIP3      5989            0.0000000000
     69482      7349  TIP3      H2            -27.3256993330       22.8542559195       68.0001948773  TIP3      5989            0.0000000000
     69483      7350  TIP3      OH2           -36.8824374298       26.6642948169       74.4806639924  TIP3      5990            0.0000000000
     69484      7350  TIP3      H1            -36.2105562821       26.6831277709       73.7960549454  TIP3      5990            0.0000000000
     69485      7350  TIP3      H2            -36.7817431632       25.8253079046       74.9074320742  TIP3      5990            0.0000000000
     69486      7351  TIP3      OH2           -29.8539796233       28.7930583999       67.7670048128  TIP3      5991            0.0000000000
     69487      7351  TIP3      H1            -30.1843595029       29.6796517998       68.0414600577  TIP3      5991            0.0000000000
     69488      7351  TIP3      H2            -30.6072022095       28.2271054093       67.9246107429  TIP3      5991            0.0000000000
     69489      7352  TIP3      OH2           -28.2839847843       29.9130006522       79.8904348028  TIP3      5992            0.0000000000
     69490      7352  TIP3      H1            -29.1445955573       30.2470191679       79.6334209347  TIP3      5992            0.0000000000
     69491      7352  TIP3      H2            -28.1589626252       30.3404466568       80.7721485437  TIP3      5992            0.0000000000
     69492      7353  TIP3      OH2           -22.5261093564       22.2577875815       68.2807209101  TIP3      5993            0.0000000000
     69493      7353  TIP3      H1            -23.0190572871       21.8905622585       67.5331738979  TIP3      5993            0.0000000000
     69494      7353  TIP3      H2            -22.3938313867       23.1746509759       67.9640491140  TIP3      5993            0.0000000000
     69495      7354  TIP3      OH2           -27.0298753008       25.8770641991       75.7486105463  TIP3      5994            0.0000000000
     69496      7354  TIP3      H1            -27.9506317335       25.6186896358       75.6406978925  TIP3      5994            0.0000000000
     69497      7354  TIP3      H2            -26.5802042424       25.1047535745       75.3459040722  TIP3      5994            0.0000000000
     69498      7355  TIP3      OH2           -34.3872339702       32.9070646907       70.8851370424  TIP3      5995            0.0000000000
     69499      7355  TIP3      H1            -35.3446732495       32.9493233413       71.0768823574  TIP3      5995            0.0000000000
     69500      7355  TIP3      H2            -34.0233524745       33.7147185001       71.2640354829  TIP3      5995            0.0000000000
     69501      7356  TIP3      OH2           -29.0346420261       28.1020511807       77.4441661158  TIP3      5996            0.0000000000
     69502      7356  TIP3      H1            -29.4274137828       27.8445348883       78.2835672085  TIP3      5996            0.0000000000
     69503      7356  TIP3      H2            -28.4386021660       27.3705488177       77.2329128625  TIP3      5996            0.0000000000
     69504      7357  TIP3      OH2           -26.7828156813       29.0841456223       66.5466589112  TIP3      5997            0.0000000000
     69505      7357  TIP3      H1            -26.4837187960       28.6218790252       67.3561591667  TIP3      5997            0.0000000000
     69506      7357  TIP3      H2            -27.7394786074       28.9383986101       66.6038376303  TIP3      5997            0.0000000000
     69507      7358  TIP3      OH2           -26.3201083085       32.6236412343       79.9064182403  TIP3      5998            0.0000000000
     69508      7358  TIP3      H1            -26.9582435345       32.1147762021       79.3916118016  TIP3      5998            0.0000000000
     69509      7358  TIP3      H2            -26.0587178690       33.3288418131       79.2794358329  TIP3      5998            0.0000000000
     69510      7359  TIP3      OH2           -38.1790970043       19.8569101894       79.3266474091  TIP3      5999            0.0000000000
     69511      7359  TIP3      H1            -39.0630382305       20.2551931606       79.2602863136  TIP3      5999            0.0000000000
     69512      7359  TIP3      H2            -38.3841783752       19.0066141104       79.7045934905  TIP3      5999            0.0000000000
     69513      7360  TIP3      OH2           -25.9485974113       27.7584254026       68.7700389171  TIP3      6000            0.0000000000
     69514      7360  TIP3      H1            -26.1923602377       26.9347115469       69.2528819430  TIP3      6000            0.0000000000
     69515      7360  TIP3      H2            -25.0022212616       27.8174354974       68.9681268914  TIP3      6000            0.0000000000
     69516      7361  TIP3      OH2           -38.7321531522       31.5980024087       77.9262593402  TIP3      6001            0.0000000000
     69517      7361  TIP3      H1            -38.2836136821       30.7507290329       77.7229006057  TIP3      6001            0.0000000000
     69518      7361  TIP3      H2            -38.2363242643       31.9199114817       78.6792874283  TIP3      6001            0.0000000000
     69519      7362  TIP3      OH2           -29.5601814071       19.6929441150       78.2898936340  TIP3      6002            0.0000000000
     69520      7362  TIP3      H1            -28.7722033729       19.7118526399       78.8409163070  TIP3      6002            0.0000000000
     69521      7362  TIP3      H2            -29.8353395685       18.7575221573       78.3747723528  TIP3      6002            0.0000000000
     69522      7363  TIP3      OH2           -28.7075737868       19.1940191291       69.3376574003  TIP3      6003            0.0000000000
     69523      7363  TIP3      H1            -28.4888553519       19.6877025102       68.5196413639  TIP3      6003            0.0000000000
     69524      7363  TIP3      H2            -28.2027098698       19.6795209329       70.0039299970  TIP3      6003            0.0000000000
     69525      7364  TIP3      OH2           -31.2129355043       31.1541017058       67.4582434033  TIP3      6004            0.0000000000
     69526      7364  TIP3      H1            -31.7543139761       31.6334787498       68.1350229700  TIP3      6004            0.0000000000
     69527      7364  TIP3      H2            -30.4968922976       31.7872053546       67.5509712950  TIP3      6004            0.0000000000
     69528      7365  TIP3      OH2           -31.4623592620       20.8966265290       70.1589795489  TIP3      6005            0.0000000000
     69529      7365  TIP3      H1            -30.7344034477       21.5313744021       70.1715152654  TIP3      6005            0.0000000000
     69530      7365  TIP3      H2            -31.7629328688       20.8794781374       71.0741678635  TIP3      6005            0.0000000000
     69531      7366  TIP3      OH2           -33.8344282932       32.4597447687       68.1211944025  TIP3      6006            0.0000000000
     69532      7366  TIP3      H1            -33.4636626500       33.2520551816       67.7003499616  TIP3      6006            0.0000000000
     69533      7366  TIP3      H2            -33.8551702554       32.7226070515       69.0742482631  TIP3      6006            0.0000000000
     69534      7367  TIP3      OH2           -24.7375937566       19.9244327017       80.1942109438  TIP3      6007            0.0000000000
     69535      7367  TIP3      H1            -25.6883018344       20.1496583730       80.0529764117  TIP3      6007            0.0000000000
     69536      7367  TIP3      H2            -24.4637191101       19.8221014123       79.2730984061  TIP3      6007            0.0000000000
     69537      7368  TIP3      OH2           -26.1464796368       23.6858910066       74.2291575877  TIP3      6008            0.0000000000
     69538      7368  TIP3      H1            -26.9689433745       23.2285107549       73.9432748754  TIP3      6008            0.0000000000
     69539      7368  TIP3      H2            -25.6881072392       22.9526006983       74.7145223950  TIP3      6008            0.0000000000
     69540      7369  TIP3      OH2           -25.0925095287       32.8113765651       75.8326566627  TIP3      6009            0.0000000000
     69541      7369  TIP3      H1            -25.2110607218       33.5203615535       75.1899797211  TIP3      6009            0.0000000000
     69542      7369  TIP3      H2            -24.1535436563       32.9162747497       76.0520073521  TIP3      6009            0.0000000000
     69543      7370  TIP3      OH2           -38.7375475836       30.8911284434       70.7515706112  TIP3      6010            0.0000000000
     69544      7370  TIP3      H1            -39.5043495888       31.4472229564       70.8211447100  TIP3      6010            0.0000000000
     69545      7370  TIP3      H2            -38.1306447970       31.4416124113       70.2106836858  TIP3      6010            0.0000000000
     69546      7371  TIP3      OH2           -39.1940442434       33.5423664275       82.0059314396  TIP3      6011            0.0000000000
     69547      7371  TIP3      H1            -38.7820541410       33.3724007372       82.8719692328  TIP3      6011            0.0000000000
     69548      7371  TIP3      H2            -39.8298075070       32.8017905973       81.9381732810  TIP3      6011            0.0000000000
     69549      7372  TIP3      OH2           -34.7459759392       32.5193608766       83.7207663963  TIP3      6012            0.0000000000
     69550      7372  TIP3      H1            -33.9953962834       32.0025464371       84.0354624047  TIP3      6012            0.0000000000
     69551      7372  TIP3      H2            -34.7836095703       32.2545627028       82.7757147682  TIP3      6012            0.0000000000
     69552      7373  TIP3      OH2           -28.2278056743       30.9012459789       82.4502055542  TIP3      6013            0.0000000000
     69553      7373  TIP3      H1            -28.5543223133       30.0287220812       82.7450062086  TIP3      6013            0.0000000000
     69554      7373  TIP3      H2            -27.4646482667       31.0462954389       83.0450186803  TIP3      6013            0.0000000000
     69555      7374  TIP3      OH2           -26.0976708588       31.7783889215       65.3054793588  TIP3      6014            0.0000000000
     69556      7374  TIP3      H1            -25.8248456137       30.9882499886       65.8019307378  TIP3      6014            0.0000000000
     69557      7374  TIP3      H2            -25.3307140245       32.0895570495       64.8148733437  TIP3      6014            0.0000000000
     69558      7375  TIP3      OH2           -39.3013528497       27.3351083857       82.9497094647  TIP3      6015            0.0000000000
     69559      7375  TIP3      H1            -39.2986779582       26.3890065598       82.7403336584  TIP3      6015            0.0000000000
     69560      7375  TIP3      H2            -40.0562873473       27.6600390901       82.4200781092  TIP3      6015            0.0000000000
     69561      7376  TIP3      OH2           -27.0888696477       27.2377742656       79.8396631173  TIP3      6016            0.0000000000
     69562      7376  TIP3      H1            -26.3273117933       27.8298569888       79.7867913315  TIP3      6016            0.0000000000
     69563      7376  TIP3      H2            -27.7916885118       27.9005650190       79.9330531976  TIP3      6016            0.0000000000
     69564      7377  TIP3      OH2           -34.4602020023       20.9470694525       80.7751682875  TIP3      6017            0.0000000000
     69565      7377  TIP3      H1            -34.1759357789       20.2200547819       80.2133076350  TIP3      6017            0.0000000000
     69566      7377  TIP3      H2            -34.2964197139       21.7400576404       80.2795706576  TIP3      6017            0.0000000000
     69567      7378  TIP3      OH2           -33.9548035449       19.3109468084       78.4289617284  TIP3      6018            0.0000000000
     69568      7378  TIP3      H1            -33.3830049503       19.7547346359       77.7794949781  TIP3      6018            0.0000000000
     69569      7378  TIP3      H2            -34.8096524220       19.2454740713       77.9936998994  TIP3      6018            0.0000000000
     69570      7379  TIP3      OH2           -27.9692429212       22.5589635278       83.6407290242  TIP3      6019            0.0000000000
     69571      7379  TIP3      H1            -27.7446791122       21.6315230151       83.6000721062  TIP3      6019            0.0000000000
     69572      7379  TIP3      H2            -27.1069465311       22.9965146910       83.6841016539  TIP3      6019            0.0000000000
     69573      7380  TIP3      OH2           -26.6134773661       25.3744259693       81.8287826403  TIP3      6020            0.0000000000
     69574      7380  TIP3      H1            -26.8904240760       26.0682817465       81.2032272295  TIP3      6020            0.0000000000
     69575      7380  TIP3      H2            -25.6549392292       25.3190055469       81.6325924725  TIP3      6020            0.0000000000
     69576      7381  TIP3      OH2           -33.1231020422       16.7566254619       78.8707163279  TIP3      6021            0.0000000000
     69577      7381  TIP3      H1            -33.2514921625       17.7175965863       78.7490830617  TIP3      6021            0.0000000000
     69578      7381  TIP3      H2            -33.8657661185       16.3906715296       78.3926998193  TIP3      6021            0.0000000000
     69579      7382  TIP3      OH2           -29.1318505150       20.2161871468       81.5456380665  TIP3      6022            0.0000000000
     69580      7382  TIP3      H1            -30.0866055759       20.2550978626       81.6293141970  TIP3      6022            0.0000000000
     69581      7382  TIP3      H2            -28.8487537447       19.5418151611       82.1635648870  TIP3      6022            0.0000000000
     69582      7383  TIP3      OH2           -37.8088931380       20.0169912980       82.5497594202  TIP3      6023            0.0000000000
     69583      7383  TIP3      H1            -37.4197610451       19.3555590958       81.9741315435  TIP3      6023            0.0000000000
     69584      7383  TIP3      H2            -37.7500029871       19.6680248090       83.4424115590  TIP3      6023            0.0000000000
     69585      7384  TIP3      OH2           -33.0468388712       34.6660559178       66.7467956687  TIP3      6024            0.0000000000
     69586      7384  TIP3      H1            -32.0793881744       34.7545273976       66.9031823538  TIP3      6024            0.0000000000
     69587      7384  TIP3      H2            -33.2446227546       35.3641178015       66.1323075214  TIP3      6024            0.0000000000
     69588      7385  TIP3      OH2            40.8857458149       34.5809451335       71.6752825018  TIP3      6025            0.0000000000
     69589      7385  TIP3      H1             40.2312143258       34.2110432746       71.0204101100  TIP3      6025            0.0000000000
     69590      7385  TIP3      H2             41.1610945115       33.7431799430       72.0758783832  TIP3      6025            0.0000000000
     69591      7386  TIP3      OH2           -39.9221796359       32.6793919341       73.1548692118  TIP3      6026            0.0000000000
     69592      7386  TIP3      H1            -40.1623457749       31.7633638568       73.3392376883  TIP3      6026            0.0000000000
     69593      7386  TIP3      H2            -39.5621482180       33.0426046795       73.9743236985  TIP3      6026            0.0000000000
     69594      7387  TIP3      OH2           -24.3499747914       28.8793733960       83.6739644924  TIP3      6027            0.0000000000
     69595      7387  TIP3      H1            -25.2364885081       28.8130002436       84.0695193665  TIP3      6027            0.0000000000
     69596      7387  TIP3      H2            -23.9862739193       29.6520609574       84.1176552473  TIP3      6027            0.0000000000
     69597      7388  TIP3      OH2           -23.0240161763       27.1460208939       69.1279721307  TIP3      6028            0.0000000000
     69598      7388  TIP3      H1            -22.1956295333       27.5928135664       69.3606994765  TIP3      6028            0.0000000000
     69599      7388  TIP3      H2            -23.0543967775       26.4577545087       69.8271787424  TIP3      6028            0.0000000000
     69600      7389  TIP3      OH2           -22.6637165100       25.2611781636       71.0119436295  TIP3      6029            0.0000000000
     69601      7389  TIP3      H1            -23.4280091434       24.7620091360       71.3875560488  TIP3      6029            0.0000000000
     69602      7389  TIP3      H2            -22.0692864249       25.4088065914       71.7589958335  TIP3      6029            0.0000000000
     69603      7390  TIP3      OH2           -24.3757078069       30.8834982845       78.2074228931  TIP3      6030            0.0000000000
     69604      7390  TIP3      H1            -25.0059832555       31.2190020670       78.8572303826  TIP3      6030            0.0000000000
     69605      7390  TIP3      H2            -24.9351394396       30.4366029544       77.5605105257  TIP3      6030            0.0000000000
     69606      7391  TIP3      OH2           -22.3551768734       25.1222971286       67.3641198978  TIP3      6031            0.0000000000
     69607      7391  TIP3      H1            -22.9823874784       25.4418209745       66.7120239011  TIP3      6031            0.0000000000
     69608      7391  TIP3      H2            -22.4543866674       25.7932387560       68.0735879548  TIP3      6031            0.0000000000
     69609      7392  TIP3      OH2           -24.8557068774       23.7616023580       71.5777954067  TIP3      6032            0.0000000000
     69610      7392  TIP3      H1            -25.0290600316       22.8079140682       71.5291096945  TIP3      6032            0.0000000000
     69611      7392  TIP3      H2            -25.2110542109       23.9664235095       72.4554987666  TIP3      6032            0.0000000000
     69612      7393  TIP3      OH2           -39.8657025932       25.7684455523       75.6057590109  TIP3      6033            0.0000000000
     69613      7393  TIP3      H1            -39.6577430215       25.7487837851       74.6372922457  TIP3      6033            0.0000000000
     69614      7393  TIP3      H2            -38.9937044230       25.7533354255       75.9928911387  TIP3      6033            0.0000000000
     69615      7394  TIP3      OH2           -24.0114318989       25.7138715496       81.2384589865  TIP3      6034            0.0000000000
     69616      7394  TIP3      H1            -23.3914579239       24.9630159195       81.3842051722  TIP3      6034            0.0000000000
     69617      7394  TIP3      H2            -23.4150455023       26.4671439120       81.2369560738  TIP3      6034            0.0000000000
     69618      7395  TIP3      OH2           -22.5108878713       23.6064216653       81.9112080751  TIP3      6035            0.0000000000
     69619      7395  TIP3      H1            -23.3954789011       23.1986584970       81.7628825587  TIP3      6035            0.0000000000
     69620      7395  TIP3      H2            -21.9359793239       22.8221695335       81.8128787044  TIP3      6035            0.0000000000
     69621      7396  TIP3      OH2           -24.7776352990       19.7150449389       65.0028662000  TIP3      6036            0.0000000000
     69622      7396  TIP3      H1            -24.1809112220       19.3931660649       65.7048215002  TIP3      6036            0.0000000000
     69623      7396  TIP3      H2            -25.6326540154       19.3902163809       65.2907067272  TIP3      6036            0.0000000000
     69624      7397  TIP3      OH2           -25.1478193660       21.3248956299       70.0769841449  TIP3      6037            0.0000000000
     69625      7397  TIP3      H1            -24.8587669112       20.3839468689       70.1615814559  TIP3      6037            0.0000000000
     69626      7397  TIP3      H2            -24.3797071967       21.7237422315       69.6456220291  TIP3      6037            0.0000000000
     69627      7398  TIP3      OH2           -24.5534664890       21.9197408271       75.4486906963  TIP3      6038            0.0000000000
     69628      7398  TIP3      H1            -23.5919979497       22.1158644593       75.4580873023  TIP3      6038            0.0000000000
     69629      7398  TIP3      H2            -24.7485631113       21.9536023813       76.3998068002  TIP3      6038            0.0000000000
     69630      7399  TIP3      OH2           -24.5117074210       22.6049117258       78.2348873764  TIP3      6039            0.0000000000
     69631      7399  TIP3      H1            -25.3691445336       22.9069490295       78.5949390244  TIP3      6039            0.0000000000
     69632      7399  TIP3      H2            -24.0448365163       23.4420142551       78.0409354147  TIP3      6039            0.0000000000
     69633      7400  TIP3      OH2           -40.1821880703       20.9605634596       81.5965751503  TIP3      6040            0.0000000000
     69634      7400  TIP3      H1            -39.2532507000       20.9170529522       81.9228556329  TIP3      6040            0.0000000000
     69635      7400  TIP3      H2            -40.6277553478       20.2829189340       82.1066295702  TIP3      6040            0.0000000000
     69636      7401  TIP3      OH2           -22.1355011057       16.6746706291       83.6225340575  TIP3      6041            0.0000000000
     69637      7401  TIP3      H1            -21.9633610498       15.9770712468       82.9917270885  TIP3      6041            0.0000000000
     69638      7401  TIP3      H2            -22.0877379145       17.4695680106       83.1020595271  TIP3      6041            0.0000000000
     69639      7402  TIP3      OH2           -24.5375080139       18.6379033939       70.0641219255  TIP3      6042            0.0000000000
     69640      7402  TIP3      H1            -24.3765056923       18.1791960152       70.8957158821  TIP3      6042            0.0000000000
     69641      7402  TIP3      H2            -25.1146959955       17.9884676661       69.6022184786  TIP3      6042            0.0000000000
     69642      7403  TIP3      OH2           -39.0195767083       19.4114743045       74.5696431299  TIP3      6043            0.0000000000
     69643      7403  TIP3      H1            -38.5824894665       18.6161366449       74.8875863030  TIP3      6043            0.0000000000
     69644      7403  TIP3      H2            -38.5366938277       20.1038360255       75.0274315954  TIP3      6043            0.0000000000
     69645      7404  TIP3      OH2           -40.5687926321       22.8105112238       74.9398789813  TIP3      6044            0.0000000000
     69646      7404  TIP3      H1            -40.0510568090       22.0138636135       74.7797590349  TIP3      6044            0.0000000000
     69647      7404  TIP3      H2            -40.2108438069       23.1192698347       75.7746451722  TIP3      6044            0.0000000000
     69648      7405  TIP3      OH2           -22.6806225145       18.6772270210       66.6102938014  TIP3      6045            0.0000000000
     69649      7405  TIP3      H1            -22.2618390683       17.9391971166       66.1485989965  TIP3      6045            0.0000000000
     69650      7405  TIP3      H2            -21.9557110382       19.3153177080       66.6590555149  TIP3      6045            0.0000000000
     69651      7406  TIP3      OH2            41.1114497704       17.7262757240       78.2883679168  TIP3      6046            0.0000000000
     69652      7406  TIP3      H1             40.4576617320       17.0984101336       78.6329935267  TIP3      6046            0.0000000000
     69653      7406  TIP3      H2             40.5944688770       18.0091642187       77.5157672284  TIP3      6046            0.0000000000
     69654      7407  TIP3      OH2           -38.2551103212       30.5893137739       82.2269082096  TIP3      6047            0.0000000000
     69655      7407  TIP3      H1            -39.0836476197       30.7145901915       81.7442309876  TIP3      6047            0.0000000000
     69656      7407  TIP3      H2            -38.5254026467       30.4943566891       83.1385827624  TIP3      6047            0.0000000000
     69657      7408  TIP3      OH2           -30.9788521877       32.9959493094       81.3959933453  TIP3      6048            0.0000000000
     69658      7408  TIP3      H1            -30.8209549722       32.6106152293       82.2814337420  TIP3      6048            0.0000000000
     69659      7408  TIP3      H2            -30.0833065128       33.2819259137       81.1274314098  TIP3      6048            0.0000000000
     69660      7409  TIP3      OH2           -28.6847557193       34.2303712265       80.6896059966  TIP3      6049            0.0000000000
     69661      7409  TIP3      H1            -27.9524067219       33.6320626560       80.4653618691  TIP3      6049            0.0000000000
     69662      7409  TIP3      H2            -28.3128940882       34.6672378050       81.4853918368  TIP3      6049            0.0000000000
     69663      7410  TIP3      OH2           -37.8520189127       34.6990059034       78.5115409368  TIP3      6050            0.0000000000
     69664      7410  TIP3      H1            -38.5015401994       35.2870150048       78.1110655760  TIP3      6050            0.0000000000
     69665      7410  TIP3      H2            -38.1628721151       34.5866938625       79.4185774241  TIP3      6050            0.0000000000
     69666      7411  TIP3      OH2           -35.3706862239       34.3896913212       77.5503973060  TIP3      6051            0.0000000000
     69667      7411  TIP3      H1            -36.2704523018       34.4648463135       77.9447419996  TIP3      6051            0.0000000000
     69668      7411  TIP3      H2            -35.4630777362       34.9524262447       76.7674972886  TIP3      6051            0.0000000000
     69669      7412  TIP3      OH2           -30.6856518627       34.2800706272       76.7331351147  TIP3      6052            0.0000000000
     69670      7412  TIP3      H1            -31.1471584993       34.8400455215       76.0877839603  TIP3      6052            0.0000000000
     69671      7412  TIP3      H2            -30.5419317018       34.9211496568       77.4687851421  TIP3      6052            0.0000000000
     69672      7413  TIP3      OH2           -28.3761499212       33.0943365419       77.7155889888  TIP3      6053            0.0000000000
     69673      7413  TIP3      H1            -29.2667689302       33.3424110339       77.4171489775  TIP3      6053            0.0000000000
     69674      7413  TIP3      H2            -27.9480803383       33.9599371347       77.6579434354  TIP3      6053            0.0000000000
     69675      7414  TIP3      OH2           -25.8791328593       34.6763876382       77.9959127420  TIP3      6054            0.0000000000
     69676      7414  TIP3      H1            -25.9028993475       35.6413001172       77.7771872626  TIP3      6054            0.0000000000
     69677      7414  TIP3      H2            -25.5940538022       34.2983147032       77.1489647521  TIP3      6054            0.0000000000
     69678      7415  TIP3      OH2           -38.2329801854       32.3427146054       75.5543818708  TIP3      6055            0.0000000000
     69679      7415  TIP3      H1            -38.3496535732       32.8553846150       76.3753628786  TIP3      6055            0.0000000000
     69680      7415  TIP3      H2            -37.6259718505       32.9783878536       75.1022977006  TIP3      6055            0.0000000000
     69681      7416  TIP3      OH2           -27.8225205880       16.8350527389       73.3307098097  TIP3      6056            0.0000000000
     69682      7416  TIP3      H1            -27.7441682159       16.9494264715       72.3858440848  TIP3      6056            0.0000000000
     69683      7416  TIP3      H2            -28.1138880226       15.9332134219       73.4661561225  TIP3      6056            0.0000000000
     69684      7417  TIP3      OH2           -26.4634439078       16.8993321066       69.0776250630  TIP3      6057            0.0000000000
     69685      7417  TIP3      H1            -27.1908502268       17.4938758783       68.8590145636  TIP3      6057            0.0000000000
     69686      7417  TIP3      H2            -26.8644060584       16.0283726838       69.1804448387  TIP3      6057            0.0000000000
     69687      7418  TIP3      OH2           -39.1629387699       32.6255199167       68.5667824962  TIP3      6058            0.0000000000
     69688      7418  TIP3      H1            -39.9048698704       32.6008067881       67.9684750004  TIP3      6058            0.0000000000
     69689      7418  TIP3      H2            -39.2485771942       33.5332436592       68.9434370263  TIP3      6058            0.0000000000
     69690      7419  TIP3      OH2           -32.2894486433       18.8511290913       68.5697974517  TIP3      6059            0.0000000000
     69691      7419  TIP3      H1            -32.0630803264       18.2692823375       69.2956372645  TIP3      6059            0.0000000000
     69692      7419  TIP3      H2            -32.2334192969       19.7160877954       69.0390500292  TIP3      6059            0.0000000000
     69693      7420  TIP3      OH2           -30.4268551824       33.9887181801       66.8848773597  TIP3      6060            0.0000000000
     69694      7420  TIP3      H1            -29.4614197035       34.1508561583       66.8599789179  TIP3      6060            0.0000000000
     69695      7420  TIP3      H2            -30.5376443397       33.3508723950       66.1828295779  TIP3      6060            0.0000000000
     69696      7421  TIP3      OH2           -37.2935237085       33.0947224471       65.5944687551  TIP3      6061            0.0000000000
     69697      7421  TIP3      H1            -37.5696517611       33.7685795947       66.2259752046  TIP3      6061            0.0000000000
     69698      7421  TIP3      H2            -36.4059737218       32.9455259095       65.8825204083  TIP3      6061            0.0000000000
     69699      7422  TIP3      OH2            -9.9710073957       26.0383427595       71.8019563440  TIP3      6062            0.0000000000
     69700      7422  TIP3      H1             -9.9676749027       27.0153445373       71.7439977957  TIP3      6062            0.0000000000
     69701      7422  TIP3      H2            -10.6959616671       25.8103551244       71.2018450121  TIP3      6062            0.0000000000
     69702      7423  TIP3      OH2           -11.1321986147       25.3117282753       75.3068042876  TIP3      6063            0.0000000000
     69703      7423  TIP3      H1            -11.1151680954       24.6526180848       76.0153911848  TIP3      6063            0.0000000000
     69704      7423  TIP3      H2            -11.4373526601       24.8052174380       74.5417376661  TIP3      6063            0.0000000000
     69705      7424  TIP3      OH2           -21.2015432579       22.9502829100       70.8214997547  TIP3      6064            0.0000000000
     69706      7424  TIP3      H1            -21.6065563840       23.8355598865       70.7760990695  TIP3      6064            0.0000000000
     69707      7424  TIP3      H2            -21.7810186803       22.4557733204       70.2376630069  TIP3      6064            0.0000000000
     69708      7425  TIP3      OH2           -12.7435641302       27.7120251146       75.7568629112  TIP3      6065            0.0000000000
     69709      7425  TIP3      H1            -12.3934216349       27.0730882742       75.1168342883  TIP3      6065            0.0000000000
     69710      7425  TIP3      H2            -11.9680933468       27.8426583630       76.3088242491  TIP3      6065            0.0000000000
     69711      7426  TIP3      OH2            -4.0621484909       19.2826336939       76.5262305490  TIP3      6066            0.0000000000
     69712      7426  TIP3      H1             -3.9629461417       19.9479475065       77.2528493306  TIP3      6066            0.0000000000
     69713      7426  TIP3      H2             -3.5869648400       19.7843730060       75.8351946187  TIP3      6066            0.0000000000
     69714      7427  TIP3      OH2            -9.5535986634       22.1471961683       76.0822422484  TIP3      6067            0.0000000000
     69715      7427  TIP3      H1             -9.4259508329       21.1839433741       76.0755906355  TIP3      6067            0.0000000000
     69716      7427  TIP3      H2             -9.6698283588       22.3268349218       75.1284244903  TIP3      6067            0.0000000000
     69717      7428  TIP3      OH2            -8.7048590333       20.4050648682       71.6988176686  TIP3      6068            0.0000000000
     69718      7428  TIP3      H1             -8.0811841456       19.9878384982       72.3117507714  TIP3      6068            0.0000000000
     69719      7428  TIP3      H2             -8.1548078018       20.9153488715       71.0884264479  TIP3      6068            0.0000000000
     69720      7429  TIP3      OH2           -19.8788255749       22.6243894158       74.0569328803  TIP3      6069            0.0000000000
     69721      7429  TIP3      H1            -19.1551452144       22.1198576224       74.4919086163  TIP3      6069            0.0000000000
     69722      7429  TIP3      H2            -19.7144350801       22.4050627041       73.1244342119  TIP3      6069            0.0000000000
     69723      7430  TIP3      OH2           -14.6523517617       24.1987039051       73.3409716296  TIP3      6070            0.0000000000
     69724      7430  TIP3      H1            -14.0028250861       23.6170800568       73.7591022368  TIP3      6070            0.0000000000
     69725      7430  TIP3      H2            -15.1900554134       23.5472345715       72.8451184085  TIP3      6070            0.0000000000
     69726      7431  TIP3      OH2            -3.6868187738       20.7310516506       78.7758762579  TIP3      6071            0.0000000000
     69727      7431  TIP3      H1             -4.2872823915       21.5050496354       78.6555418926  TIP3      6071            0.0000000000
     69728      7431  TIP3      H2             -3.6407405742       20.6832045774       79.7413307843  TIP3      6071            0.0000000000
     69729      7432  TIP3      OH2           -10.2787490914       28.6359738793       70.9061642088  TIP3      6072            0.0000000000
     69730      7432  TIP3      H1            -10.5391232639       28.3718428339       70.0154188491  TIP3      6072            0.0000000000
     69731      7432  TIP3      H2            -10.5632459307       29.5760305087       70.9351081718  TIP3      6072            0.0000000000
     69732      7433  TIP3      OH2           -15.0156559541       26.8003056717       77.5828588852  TIP3      6073            0.0000000000
     69733      7433  TIP3      H1            -15.7382461224       27.4300566592       77.7846695539  TIP3      6073            0.0000000000
     69734      7433  TIP3      H2            -14.3262060692       27.4102652519       77.2884008107  TIP3      6073            0.0000000000
     69735      7434  TIP3      OH2           -18.0169576719       21.0952837375       75.2745758623  TIP3      6074            0.0000000000
     69736      7434  TIP3      H1            -17.3430924170       21.6638188528       75.6951344710  TIP3      6074            0.0000000000
     69737      7434  TIP3      H2            -17.4964226350       20.5711260796       74.6531418629  TIP3      6074            0.0000000000
     69738      7435  TIP3      OH2           -16.5908072662       28.8428455714       78.5182170051  TIP3      6075            0.0000000000
     69739      7435  TIP3      H1            -16.6401607220       29.6726498923       78.0286798026  TIP3      6075            0.0000000000
     69740      7435  TIP3      H2            -17.5031116011       28.6785995577       78.8135278732  TIP3      6075            0.0000000000
     69741      7436  TIP3      OH2           -20.5317274632       28.3972864663       69.2248939762  TIP3      6076            0.0000000000
     69742      7436  TIP3      H1            -20.7407258292       28.7067347205       68.3379405256  TIP3      6076            0.0000000000
     69743      7436  TIP3      H2            -20.4245303213       29.2384419791       69.6863712557  TIP3      6076            0.0000000000
     69744      7437  TIP3      OH2            -6.5744274330       18.3142673571       77.2739757491  TIP3      6077            0.0000000000
     69745      7437  TIP3      H1             -7.2443319931       19.0122189459       77.3368800983  TIP3      6077            0.0000000000
     69746      7437  TIP3      H2             -5.8663272745       18.8278840831       76.8330393626  TIP3      6077            0.0000000000
     69747      7438  TIP3      OH2            -7.3996033893       29.7761025531       71.0665672214  TIP3      6078            0.0000000000
     69748      7438  TIP3      H1             -7.7377857909       29.1084252875       70.4571097069  TIP3      6078            0.0000000000
     69749      7438  TIP3      H2             -7.4288095489       29.3287386744       71.9098558294  TIP3      6078            0.0000000000
     69750      7439  TIP3      OH2            -5.7409073895       28.3675958578       79.5775809493  TIP3      6079            0.0000000000
     69751      7439  TIP3      H1             -5.6763064148       27.7489089627       78.8156920138  TIP3      6079            0.0000000000
     69752      7439  TIP3      H2             -5.6546897227       29.2382849214       79.1721042575  TIP3      6079            0.0000000000
     69753      7440  TIP3      OH2           -11.3134986338       25.2820728790       69.3074320557  TIP3      6080            0.0000000000
     69754      7440  TIP3      H1            -12.0175452026       25.8589118396       68.9420562172  TIP3      6080            0.0000000000
     69755      7440  TIP3      H2            -10.6057789556       25.3660611089       68.6421966747  TIP3      6080            0.0000000000
     69756      7441  TIP3      OH2            -3.9419558462       24.6863796277       77.5879770512  TIP3      6081            0.0000000000
     69757      7441  TIP3      H1             -4.5871350051       25.4203221547       77.6508631343  TIP3      6081            0.0000000000
     69758      7441  TIP3      H2             -3.4551487664       24.9408162750       76.7835342168  TIP3      6081            0.0000000000
     69759      7442  TIP3      OH2            -7.8784929259       25.4491319879       70.2339676264  TIP3      6082            0.0000000000
     69760      7442  TIP3      H1             -8.5931889512       25.7481185687       70.8526620215  TIP3      6082            0.0000000000
     69761      7442  TIP3      H2             -7.3839541882       24.8230194360       70.7924641265  TIP3      6082            0.0000000000
     69762      7443  TIP3      OH2            -7.9343282709       23.6563814484       79.3383432641  TIP3      6083            0.0000000000
     69763      7443  TIP3      H1             -7.9196533580       24.4591579465       79.8855006411  TIP3      6083            0.0000000000
     69764      7443  TIP3      H2             -8.5670807269       23.9692434251       78.6596385395  TIP3      6083            0.0000000000
     69765      7444  TIP3      OH2           -16.2282900279       26.1621327175       72.1248348362  TIP3      6084            0.0000000000
     69766      7444  TIP3      H1            -16.6046578692       25.7389125523       71.3257844647  TIP3      6084            0.0000000000
     69767      7444  TIP3      H2            -15.6704773335       25.4566944857       72.5087530002  TIP3      6084            0.0000000000
     69768      7445  TIP3      OH2           -14.9058782518       29.5729516908       74.8253791071  TIP3      6085            0.0000000000
     69769      7445  TIP3      H1            -14.9873003617       29.0030911803       74.0521950997  TIP3      6085            0.0000000000
     69770      7445  TIP3      H2            -14.1650416706       29.1767250441       75.3061009317  TIP3      6085            0.0000000000
     69771      7446  TIP3      OH2           -15.9012413592       24.8678896168       75.8015534685  TIP3      6086            0.0000000000
     69772      7446  TIP3      H1            -15.3770869987       25.0286078042       74.9960405771  TIP3      6086            0.0000000000
     69773      7446  TIP3      H2            -15.5773996518       25.5581442146       76.4119335622  TIP3      6086            0.0000000000
     69774      7447  TIP3      OH2           -14.9478180832       29.3499824297       80.5142793998  TIP3      6087            0.0000000000
     69775      7447  TIP3      H1            -15.3570814249       30.0780042387       80.9900251234  TIP3      6087            0.0000000000
     69776      7447  TIP3      H2            -15.6036116871       29.1207522063       79.8035993996  TIP3      6087            0.0000000000
     69777      7448  TIP3      OH2            -8.9997773113       24.6988296605       67.9354200695  TIP3      6088            0.0000000000
     69778      7448  TIP3      H1             -8.4324207539       24.8752497848       68.7241216883  TIP3      6088            0.0000000000
     69779      7448  TIP3      H2             -8.5992084097       25.2015226454       67.2226604120  TIP3      6088            0.0000000000
     69780      7449  TIP3      OH2           -18.0447616545       25.4874076989       79.7161706430  TIP3      6089            0.0000000000
     69781      7449  TIP3      H1            -18.0311031129       26.1824767882       80.4020677382  TIP3      6089            0.0000000000
     69782      7449  TIP3      H2            -18.9652796672       25.5638551295       79.4218760943  TIP3      6089            0.0000000000
     69783      7450  TIP3      OH2           -11.3475464153       31.3789145376       71.4021464399  TIP3      6090            0.0000000000
     69784      7450  TIP3      H1            -10.8520179057       31.7338020899       72.1379994033  TIP3      6090            0.0000000000
     69785      7450  TIP3      H2            -11.8509644918       32.1445839044       71.0944625788  TIP3      6090            0.0000000000
     69786      7451  TIP3      OH2            -5.2709992064       16.4174657333       67.7942839367  TIP3      6091            0.0000000000
     69787      7451  TIP3      H1             -6.2206182683       16.5285807965       68.0432216403  TIP3      6091            0.0000000000
     69788      7451  TIP3      H2             -5.0713453428       17.2790044873       67.3898446172  TIP3      6091            0.0000000000
     69789      7452  TIP3      OH2           -17.2620610485       25.1784567904       69.7236428025  TIP3      6092            0.0000000000
     69790      7452  TIP3      H1            -17.5599902928       25.9665115404       69.2315851933  TIP3      6092            0.0000000000
     69791      7452  TIP3      H2            -17.9440188794       24.5300925308       69.5471457281  TIP3      6092            0.0000000000
     69792      7453  TIP3      OH2           -12.2562004860       30.5977675424       80.0004982595  TIP3      6093            0.0000000000
     69793      7453  TIP3      H1            -12.1779150712       31.4166000703       80.5218094528  TIP3      6093            0.0000000000
     69794      7453  TIP3      H2            -13.1174136295       30.2226002173       80.2445856270  TIP3      6093            0.0000000000
     69795      7454  TIP3      OH2           -11.8221802400       34.3424286021       69.7942070507  TIP3      6094            0.0000000000
     69796      7454  TIP3      H1            -11.8846712235       34.2620093034       68.8354710846  TIP3      6094            0.0000000000
     69797      7454  TIP3      H2            -11.7628947131       35.2999921177       69.9600580716  TIP3      6094            0.0000000000
     69798      7455  TIP3      OH2            -6.0583523278       22.5014534803       81.6066590798  TIP3      6095            0.0000000000
     69799      7455  TIP3      H1             -6.5063312380       22.9702740758       80.8831768972  TIP3      6095            0.0000000000
     69800      7455  TIP3      H2             -6.0357613871       21.5907780938       81.2871733176  TIP3      6095            0.0000000000
     69801      7456  TIP3      OH2            -8.2537799881       20.9181538419       79.8363772193  TIP3      6096            0.0000000000
     69802      7456  TIP3      H1             -8.8740330588       20.6841333905       80.5651325854  TIP3      6096            0.0000000000
     69803      7456  TIP3      H2             -8.4763025649       21.8259355545       79.5774540417  TIP3      6096            0.0000000000
     69804      7457  TIP3      OH2           -16.1075552216       22.3650592336       76.7991212060  TIP3      6097            0.0000000000
     69805      7457  TIP3      H1            -16.8554826040       22.3266859359       77.4098368831  TIP3      6097            0.0000000000
     69806      7457  TIP3      H2            -16.1610029678       23.2848887941       76.4325577206  TIP3      6097            0.0000000000
     69807      7458  TIP3      OH2           -16.1651280295       22.4921488758       71.6571646311  TIP3      6098            0.0000000000
     69808      7458  TIP3      H1            -17.0985504049       22.2216996038       71.5657664479  TIP3      6098            0.0000000000
     69809      7458  TIP3      H2            -15.7850522632       22.1798886645       70.8146016639  TIP3      6098            0.0000000000
     69810      7459  TIP3      OH2           -10.6344403949       22.9660531471       70.4490342999  TIP3      6099            0.0000000000
     69811      7459  TIP3      H1            -11.0523037214       23.7934163587       70.1156556879  TIP3      6099            0.0000000000
     69812      7459  TIP3      H2             -9.9650902514       22.8215697946       69.7623043350  TIP3      6099            0.0000000000
     69813      7460  TIP3      OH2           -11.5827061124       23.1720221935       81.8778020422  TIP3      6100            0.0000000000
     69814      7460  TIP3      H1            -12.1137741582       22.4133878920       82.2039380338  TIP3      6100            0.0000000000
     69815      7460  TIP3      H2            -10.7474687982       23.0696730407       82.3629362303  TIP3      6100            0.0000000000
     69816      7461  TIP3      OH2            -9.6305589957       22.4366000144       73.2998111119  TIP3      6101            0.0000000000
     69817      7461  TIP3      H1             -9.8938824082       23.0148558452       72.5590770460  TIP3      6101            0.0000000000
     69818      7461  TIP3      H2             -9.5134568740       21.6149909621       72.7866868872  TIP3      6101            0.0000000000
     69819      7462  TIP3      OH2           -21.7717104690       19.9292059254       72.4089832346  TIP3      6102            0.0000000000
     69820      7462  TIP3      H1            -21.1753759103       19.7189454166       73.1291552861  TIP3      6102            0.0000000000
     69821      7462  TIP3      H2            -21.4395492554       19.3768707523       71.6767698544  TIP3      6102            0.0000000000
     69822      7463  TIP3      OH2           -20.5447844525       20.4968695038       67.8946393035  TIP3      6103            0.0000000000
     69823      7463  TIP3      H1            -20.1193882244       21.0556475975       67.2304471934  TIP3      6103            0.0000000000
     69824      7463  TIP3      H2            -21.2730998081       21.0846602411       68.1645343392  TIP3      6103            0.0000000000
     69825      7464  TIP3      OH2           -10.4106115412       24.0428149595       77.8521136823  TIP3      6104            0.0000000000
     69826      7464  TIP3      H1            -10.0397468486       23.3656037803       77.2529782855  TIP3      6104            0.0000000000
     69827      7464  TIP3      H2            -10.8697532001       23.5138596857       78.5247923255  TIP3      6104            0.0000000000
     69828      7465  TIP3      OH2           -13.5782529487       20.0185726293       72.6822167035  TIP3      6105            0.0000000000
     69829      7465  TIP3      H1            -14.5134583984       20.0360255803       72.9211283013  TIP3      6105            0.0000000000
     69830      7465  TIP3      H2            -13.1388728580       19.9021503222       73.5215313517  TIP3      6105            0.0000000000
     69831      7466  TIP3      OH2           -18.8017605388       21.5933525673       71.5285224281  TIP3      6106            0.0000000000
     69832      7466  TIP3      H1            -19.6826417760       21.7583334913       71.1334253224  TIP3      6106            0.0000000000
     69833      7466  TIP3      H2            -18.5161446780       20.7593142705       71.1474713398  TIP3      6106            0.0000000000
     69834      7467  TIP3      OH2           -15.1783578779       21.6651339139       69.1819079229  TIP3      6107            0.0000000000
     69835      7467  TIP3      H1            -14.2092534902       21.6935316384       69.3292001494  TIP3      6107            0.0000000000
     69836      7467  TIP3      H2            -15.3850140482       22.3119995759       68.4945901901  TIP3      6107            0.0000000000
     69837      7468  TIP3      OH2           -16.4567331490       22.8058696532       66.7872890860  TIP3      6108            0.0000000000
     69838      7468  TIP3      H1            -17.0073584283       22.4314113396       66.0815397802  TIP3      6108            0.0000000000
     69839      7468  TIP3      H2            -15.6481374448       23.0209283859       66.3027104073  TIP3      6108            0.0000000000
     69840      7469  TIP3      OH2           -18.2755420528       27.3258334828       81.8187636159  TIP3      6109            0.0000000000
     69841      7469  TIP3      H1            -17.6059198706       27.6279955317       82.4313294761  TIP3      6109            0.0000000000
     69842      7469  TIP3      H2            -19.1000380997       27.5142401721       82.3238089740  TIP3      6109            0.0000000000
     69843      7470  TIP3      OH2           -12.3440050364       22.7646167293       74.5718661176  TIP3      6110            0.0000000000
     69844      7470  TIP3      H1            -11.7445558053       22.2355350221       74.0326381977  TIP3      6110            0.0000000000
     69845      7470  TIP3      H2            -12.4821878817       22.2373004155       75.3700655470  TIP3      6110            0.0000000000
     69846      7471  TIP3      OH2           -13.6542042968       21.1675895255       76.9658868528  TIP3      6111            0.0000000000
     69847      7471  TIP3      H1            -14.5177221088       21.6252486330       77.0691697921  TIP3      6111            0.0000000000
     69848      7471  TIP3      H2            -13.1516095314       21.4761729701       77.7442126695  TIP3      6111            0.0000000000
     69849      7472  TIP3      OH2           -13.0873017661       27.2818396678       68.7020034663  TIP3      6112            0.0000000000
     69850      7472  TIP3      H1            -13.9133868738       26.8743784351       68.3702066978  TIP3      6112            0.0000000000
     69851      7472  TIP3      H2            -13.3396388775       27.4698807538       69.6279636806  TIP3      6112            0.0000000000
     69852      7473  TIP3      OH2            -5.9349273419       26.5413611434       77.4811091081  TIP3      6113            0.0000000000
     69853      7473  TIP3      H1             -5.3549039402       27.0196975206       76.8626374813  TIP3      6113            0.0000000000
     69854      7473  TIP3      H2             -6.7976727079       26.6079789871       77.0159502188  TIP3      6113            0.0000000000
     69855      7474  TIP3      OH2            -9.2477931337       20.2112164391       66.7309024416  TIP3      6114            0.0000000000
     69856      7474  TIP3      H1            -10.2053233064       20.3294009907       66.7413650653  TIP3      6114            0.0000000000
     69857      7474  TIP3      H2             -8.9277553476       21.0098051243       67.2015033659  TIP3      6114            0.0000000000
     69858      7475  TIP3      OH2           -11.6344095047       27.5693927962       79.9370719775  TIP3      6115            0.0000000000
     69859      7475  TIP3      H1            -11.9595322290       27.1908867234       80.7547978367  TIP3      6115            0.0000000000
     69860      7475  TIP3      H2            -11.7981470766       28.5175847775       80.0186252958  TIP3      6115            0.0000000000
     69861      7476  TIP3      OH2            -8.5168421909       22.0382523172       68.5340682126  TIP3      6116            0.0000000000
     69862      7476  TIP3      H1             -7.6049768151       21.9418218845       68.8695030343  TIP3      6116            0.0000000000
     69863      7476  TIP3      H2             -8.4729743056       22.8568873254       68.0098401971  TIP3      6116            0.0000000000
     69864      7477  TIP3      OH2           -11.0218053554       28.8342228158       67.6843988628  TIP3      6117            0.0000000000
     69865      7477  TIP3      H1            -11.3556566373       29.6468763728       68.1097952992  TIP3      6117            0.0000000000
     69866      7477  TIP3      H2            -11.7321272809       28.2054968443       67.9259848884  TIP3      6117            0.0000000000
     69867      7478  TIP3      OH2           -21.0267740283       25.1176015643       79.7436238835  TIP3      6118            0.0000000000
     69868      7478  TIP3      H1            -20.8018461478       24.7036290645       80.5919145584  TIP3      6118            0.0000000000
     69869      7478  TIP3      H2            -21.6051431540       24.4785750554       79.3093807209  TIP3      6118            0.0000000000
     69870      7479  TIP3      OH2           -14.0130794155       24.6366819352       81.9329448845  TIP3      6119            0.0000000000
     69871      7479  TIP3      H1            -14.3017870521       24.4398756580       81.0302519755  TIP3      6119            0.0000000000
     69872      7479  TIP3      H2            -13.0587054422       24.4332693014       81.9006062939  TIP3      6119            0.0000000000
     69873      7480  TIP3      OH2            -3.6630254414       22.2151695873       68.2665923734  TIP3      6120            0.0000000000
     69874      7480  TIP3      H1             -4.1493437438       21.8790748175       67.5067451830  TIP3      6120            0.0000000000
     69875      7480  TIP3      H2             -3.5121249997       23.1350417992       67.9709648975  TIP3      6120            0.0000000000
     69876      7481  TIP3      OH2            -3.6258528729       28.0314107650       81.0770533545  TIP3      6121            0.0000000000
     69877      7481  TIP3      H1             -4.4887105833       28.3292892616       80.7003520097  TIP3      6121            0.0000000000
     69878      7481  TIP3      H2             -3.0817318650       28.0448880755       80.2635739074  TIP3      6121            0.0000000000
     69879      7482  TIP3      OH2            -8.1318848430       25.8313742970       75.7803784721  TIP3      6122            0.0000000000
     69880      7482  TIP3      H1             -9.0771940399       25.6655205247       75.6690828476  TIP3      6122            0.0000000000
     69881      7482  TIP3      H2             -7.7154008816       25.0825090892       75.3270892818  TIP3      6122            0.0000000000
     69882      7483  TIP3      OH2           -15.6050788967       30.1654831226       71.8552298329  TIP3      6123            0.0000000000
     69883      7483  TIP3      H1            -15.1272423758       30.9899906897       71.6644799708  TIP3      6123            0.0000000000
     69884      7483  TIP3      H2            -16.4765471176       30.3965471126       71.5330309130  TIP3      6123            0.0000000000
     69885      7484  TIP3      OH2           -19.8393243427       25.0868635066       66.3218645110  TIP3      6124            0.0000000000
     69886      7484  TIP3      H1            -19.2573462130       25.6562771782       66.8451297533  TIP3      6124            0.0000000000
     69887      7484  TIP3      H2            -20.7130143557       25.2805705494       66.7050318424  TIP3      6124            0.0000000000
     69888      7485  TIP3      OH2           -14.1787812460       27.8272727826       71.4034395521  TIP3      6125            0.0000000000
     69889      7485  TIP3      H1            -14.4717049953       28.7570573304       71.4766619843  TIP3      6125            0.0000000000
     69890      7485  TIP3      H2            -14.9360607810       27.3666526094       71.8258927991  TIP3      6125            0.0000000000
     69891      7486  TIP3      OH2           -13.6612477825       31.9751881927       77.7347383836  TIP3      6126            0.0000000000
     69892      7486  TIP3      H1            -13.3209585871       32.8488454771       77.4980488307  TIP3      6126            0.0000000000
     69893      7486  TIP3      H2            -13.1416464087       31.7005282133       78.4978772511  TIP3      6126            0.0000000000
     69894      7487  TIP3      OH2           -15.5092328128       32.8392276554       70.9633416744  TIP3      6127            0.0000000000
     69895      7487  TIP3      H1            -16.4578350747       32.9633870218       71.0456363577  TIP3      6127            0.0000000000
     69896      7487  TIP3      H2            -15.1733547444       33.6917604826       71.2775819241  TIP3      6127            0.0000000000
     69897      7488  TIP3      OH2            -7.9632728830       29.0612782479       66.4812823369  TIP3      6128            0.0000000000
     69898      7488  TIP3      H1             -7.6081498279       28.6597655832       67.3083528351  TIP3      6128            0.0000000000
     69899      7488  TIP3      H2             -8.9046733954       28.9146200604       66.6358907235  TIP3      6128            0.0000000000
     69900      7489  TIP3      OH2            -7.1043109899       27.6828717890       68.7218649176  TIP3      6129            0.0000000000
     69901      7489  TIP3      H1             -7.3497131214       26.9390789666       69.2974620493  TIP3      6129            0.0000000000
     69902      7489  TIP3      H2             -6.1749214359       27.8263431124       68.9605236535  TIP3      6129            0.0000000000
     69903      7490  TIP3      OH2           -18.5022815269       26.9634471163       67.9151592700  TIP3      6130            0.0000000000
     69904      7490  TIP3      H1            -19.1372352074       27.3633969644       68.5367013443  TIP3      6130            0.0000000000
     69905      7490  TIP3      H2            -17.8984412802       27.6893850258       67.6894926902  TIP3      6130            0.0000000000
     69906      7491  TIP3      OH2            -9.8487604913       19.2460237557       69.3245193187  TIP3      6131            0.0000000000
     69907      7491  TIP3      H1             -9.6603683009       19.7296010967       68.5089181669  TIP3      6131            0.0000000000
     69908      7491  TIP3      H2             -9.3032018820       19.6947622731       69.9785586949  TIP3      6131            0.0000000000
     69909      7492  TIP3      OH2           -12.1981930288       31.3543840274       68.1109643422  TIP3      6132            0.0000000000
     69910      7492  TIP3      H1            -13.0260765830       31.8729876691       68.2408953374  TIP3      6132            0.0000000000
     69911      7492  TIP3      H2            -11.6273927740       31.9285275504       67.6202636064  TIP3      6132            0.0000000000
     69912      7493  TIP3      OH2           -12.6661088564       20.9926294829       70.1564942903  TIP3      6133            0.0000000000
     69913      7493  TIP3      H1            -11.8481095718       21.5190770452       70.2034454302  TIP3      6133            0.0000000000
     69914      7493  TIP3      H2            -12.9090793260       20.7992350967       71.0758815082  TIP3      6133            0.0000000000
     69915      7494  TIP3      OH2           -12.0861273934       21.9463470968       79.3345140820  TIP3      6134            0.0000000000
     69916      7494  TIP3      H1            -11.9897534709       22.5518056900       80.0935871235  TIP3      6134            0.0000000000
     69917      7494  TIP3      H2            -11.4044964870       21.2799107953       79.4481839418  TIP3      6134            0.0000000000
     69918      7495  TIP3      OH2           -11.7393785266       18.0136676276       71.0970542502  TIP3      6135            0.0000000000
     69919      7495  TIP3      H1            -12.1547681228       18.7005016205       71.6293781157  TIP3      6135            0.0000000000
     69920      7495  TIP3      H2            -11.1351607529       18.5504351439       70.5444612133  TIP3      6135            0.0000000000
     69921      7496  TIP3      OH2           -14.7222620488       32.4208968342       68.1735400240  TIP3      6136            0.0000000000
     69922      7496  TIP3      H1            -14.7304870832       33.2437874426       67.6453372692  TIP3      6136            0.0000000000
     69923      7496  TIP3      H2            -15.0498897728       32.7257844752       69.0402376402  TIP3      6136            0.0000000000
     69924      7497  TIP3      OH2           -16.1454008036       19.1228500718       67.8434978839  TIP3      6137            0.0000000000
     69925      7497  TIP3      H1            -16.1634900793       20.0413921217       68.1262403316  TIP3      6137            0.0000000000
     69926      7497  TIP3      H2            -15.2158064794       18.8829164341       67.9829412982  TIP3      6137            0.0000000000
     69927      7498  TIP3      OH2            -5.9127490022       19.8429110809       80.1857180680  TIP3      6138            0.0000000000
     69928      7498  TIP3      H1             -6.8424240079       20.1728089415       80.0658461386  TIP3      6138            0.0000000000
     69929      7498  TIP3      H2             -5.6072673210       19.8788315098       79.2677536831  TIP3      6138            0.0000000000
     69930      7499  TIP3      OH2            -7.2869872908       23.6431613653       74.1857430810  TIP3      6139            0.0000000000
     69931      7499  TIP3      H1             -8.1306921948       23.2225172341       73.9438761014  TIP3      6139            0.0000000000
     69932      7499  TIP3      H2             -6.8289461571       22.9597431329       74.7278162463  TIP3      6139            0.0000000000
     69933      7500  TIP3      OH2            -9.4093450482       30.9316335195       82.5040895737  TIP3      6140            0.0000000000
     69934      7500  TIP3      H1             -9.7031058459       30.0186724329       82.6953441794  TIP3      6140            0.0000000000
     69935      7500  TIP3      H2             -8.6037468734       31.0013337065       83.0261021841  TIP3      6140            0.0000000000
     69936      7501  TIP3      OH2           -20.6735936408       27.3296250564       83.0663257379  TIP3      6141            0.0000000000
     69937      7501  TIP3      H1            -20.4811518500       26.4433100197       82.7260133957  TIP3      6141            0.0000000000
     69938      7501  TIP3      H2            -21.3700036699       27.6898368846       82.5201971727  TIP3      6141            0.0000000000
     69939      7502  TIP3      OH2           -13.9035523831       27.3769185593       82.4893278494  TIP3      6142            0.0000000000
     69940      7502  TIP3      H1            -14.2902053367       27.6521413375       81.6465779311  TIP3      6142            0.0000000000
     69941      7502  TIP3      H2            -13.8877895297       26.3979013415       82.4175404106  TIP3      6142            0.0000000000
     69942      7503  TIP3      OH2            -8.2348459677       27.2375935887       79.9653357847  TIP3      6143            0.0000000000
     69943      7503  TIP3      H1             -7.4801732652       27.8300588128       79.7737590668  TIP3      6143            0.0000000000
     69944      7503  TIP3      H2             -8.9856928984       27.8393546768       79.8962804968  TIP3      6143            0.0000000000
     69945      7504  TIP3      OH2           -19.7135154302       24.6057649154       82.5109527370  TIP3      6144            0.0000000000
     69946      7504  TIP3      H1            -19.3408270602       23.7283609087       82.3651562672  TIP3      6144            0.0000000000
     69947      7504  TIP3      H2            -20.0217897091       24.5829613699       83.4163786676  TIP3      6144            0.0000000000
     69948      7505  TIP3      OH2           -15.0702257535       25.7409402330       67.5537631286  TIP3      6145            0.0000000000
     69949      7505  TIP3      H1            -15.6077953900       25.2365925002       68.1876849694  TIP3      6145            0.0000000000
     69950      7505  TIP3      H2            -14.8308627885       25.0514112687       66.9001348387  TIP3      6145            0.0000000000
     69951      7506  TIP3      OH2           -15.8505339945       23.5554722475       79.8760824738  TIP3      6146            0.0000000000
     69952      7506  TIP3      H1            -16.4700640008       24.2728078716       80.1013863025  TIP3      6146            0.0000000000
     69953      7506  TIP3      H2            -15.4698040256       23.9217981318       79.0570389658  TIP3      6146            0.0000000000
     69954      7507  TIP3      OH2           -14.0098124541       23.9287930570       65.7647895224  TIP3      6147            0.0000000000
     69955      7507  TIP3      H1            -14.1999069145       23.8663298146       64.8119438400  TIP3      6147            0.0000000000
     69956      7507  TIP3      H2            -13.0721955188       24.1395078348       65.8069425556  TIP3      6147            0.0000000000
     69957      7508  TIP3      OH2           -10.7784693282       26.1061161536       83.2249565100  TIP3      6148            0.0000000000
     69958      7508  TIP3      H1             -9.8278900170       26.1076206939       83.0677893767  TIP3      6148            0.0000000000
     69959      7508  TIP3      H2            -10.9415668896       25.3320792911       83.7782795805  TIP3      6148            0.0000000000
     69960      7509  TIP3      OH2           -13.5071888709       24.7536380278       78.6774315610  TIP3      6149            0.0000000000
     69961      7509  TIP3      H1            -12.7439301540       24.6426221190       78.1078872874  TIP3      6149            0.0000000000
     69962      7509  TIP3      H2            -13.8528037176       25.6175882541       78.3849189763  TIP3      6149            0.0000000000
     69963      7510  TIP3      OH2            -9.0993775606       22.5670228929       83.6384891183  TIP3      6150            0.0000000000
     69964      7510  TIP3      H1             -8.8685127354       21.6323400421       83.6101799041  TIP3      6150            0.0000000000
     69965      7510  TIP3      H2             -8.2262265246       22.9874205246       83.6850869868  TIP3      6150            0.0000000000
     69966      7511  TIP3      OH2            -7.7706940298       25.3472290225       81.8105681192  TIP3      6151            0.0000000000
     69967      7511  TIP3      H1             -8.0245803160       26.0780232787       81.1974023584  TIP3      6151            0.0000000000
     69968      7511  TIP3      H2             -6.8157082137       25.3240606776       81.6203239704  TIP3      6151            0.0000000000
     69969      7512  TIP3      OH2           -16.9439589477       22.1188923756       82.8706262065  TIP3      6152            0.0000000000
     69970      7512  TIP3      H1            -17.7532796581       21.6368580084       82.6514255046  TIP3      6152            0.0000000000
     69971      7512  TIP3      H2            -16.3330237756       21.8956305578       82.1693332540  TIP3      6152            0.0000000000
     69972      7513  TIP3      OH2           -13.0186582687       21.0747893057       82.4578934124  TIP3      6153            0.0000000000
     69973      7513  TIP3      H1            -13.2716191291       20.8265822907       83.3569411604  TIP3      6153            0.0000000000
     69974      7513  TIP3      H2            -13.7698596512       20.8419834608       81.9014187486  TIP3      6153            0.0000000000
     69975      7514  TIP3      OH2           -10.2457867784       20.2820517206       81.6148274836  TIP3      6154            0.0000000000
     69976      7514  TIP3      H1            -11.2189373689       20.2301355739       81.6406018490  TIP3      6154            0.0000000000
     69977      7514  TIP3      H2            -10.0109050714       19.5304275681       82.1710313123  TIP3      6154            0.0000000000
     69978      7515  TIP3      OH2           -14.0846066023       34.5939870884       66.6964874998  TIP3      6155            0.0000000000
     69979      7515  TIP3      H1            -13.1962035679       34.8589144869       66.9599410325  TIP3      6155            0.0000000000
     69980      7515  TIP3      H2            -14.4300999403       35.3215670113       66.1570389194  TIP3      6155            0.0000000000
     69981      7516  TIP3      OH2            -4.1959682480       27.1327232132       69.1194419957  TIP3      6156            0.0000000000
     69982      7516  TIP3      H1             -3.3477589987       27.6107533494       69.3058384762  TIP3      6156            0.0000000000
     69983      7516  TIP3      H2             -4.1647672858       26.4612569731       69.8279352125  TIP3      6156            0.0000000000
     69984      7517  TIP3      OH2            -3.8272088675       25.2822288033       71.0020752386  TIP3      6157            0.0000000000
     69985      7517  TIP3      H1             -4.5599859506       24.7574493573       71.4011466361  TIP3      6157            0.0000000000
     69986      7517  TIP3      H2             -3.1956067294       25.4017684111       71.7413754125  TIP3      6157            0.0000000000
     69987      7518  TIP3      OH2            -4.0515678196       27.9783631617       75.9525909467  TIP3      6158            0.0000000000
     69988      7518  TIP3      H1             -3.2168434658       27.6062082236       75.6276302751  TIP3      6158            0.0000000000
     69989      7518  TIP3      H2             -3.8878063147       28.9293220603       75.8083373995  TIP3      6158            0.0000000000
     69990      7519  TIP3      OH2            -3.5092316427       25.1317419332       67.3690510921  TIP3      6159            0.0000000000
     69991      7519  TIP3      H1             -4.1455419921       25.4332235408       66.7225470862  TIP3      6159            0.0000000000
     69992      7519  TIP3      H2             -3.5769067695       25.8209092532       68.0642359321  TIP3      6159            0.0000000000
     69993      7520  TIP3      OH2            -6.0201606638       23.7582051743       71.5656876041  TIP3      6160            0.0000000000
     69994      7520  TIP3      H1             -6.1403146514       22.7959062318       71.5462522943  TIP3      6160            0.0000000000
     69995      7520  TIP3      H2             -6.3297345202       23.9693260520       72.4663030423  TIP3      6160            0.0000000000
     69996      7521  TIP3      OH2            -5.1598202904       25.7189946347       81.2909199349  TIP3      6161            0.0000000000
     69997      7521  TIP3      H1             -4.5284305697       24.9765771813       81.3948686549  TIP3      6161            0.0000000000
     69998      7521  TIP3      H2             -4.5476124771       26.4785274185       81.2312423980  TIP3      6161            0.0000000000
     69999      7522  TIP3      OH2            -3.6326637596       23.6125114108       81.9240029695  TIP3      6162            0.0000000000
     70000      7522  TIP3      H1             -4.5162008980       23.2131264663       81.7681587124  TIP3      6162            0.0000000000
     70001      7522  TIP3      H2             -3.0650648791       22.8273912986       81.8521712473  TIP3      6162            0.0000000000
     70002      7523  TIP3      OH2            -5.9329098621       19.7090118081       65.0093645517  TIP3      6163            0.0000000000
     70003      7523  TIP3      H1             -5.3431095985       19.3735990335       65.6993385253  TIP3      6163            0.0000000000
     70004      7523  TIP3      H2             -6.8110679697       19.4029003236       65.2601172944  TIP3      6163            0.0000000000
     70005      7524  TIP3      OH2            -6.3159641956       21.3384970497       70.0361531570  TIP3      6164            0.0000000000
     70006      7524  TIP3      H1             -6.0266319118       20.4031062962       70.1423620364  TIP3      6164            0.0000000000
     70007      7524  TIP3      H2             -5.5234553891       21.7423749744       69.6562412057  TIP3      6164            0.0000000000
     70008      7525  TIP3      OH2            -5.6929357421       21.8949068697       75.4741012146  TIP3      6165            0.0000000000
     70009      7525  TIP3      H1             -4.7352344605       22.1125088759       75.4581572697  TIP3      6165            0.0000000000
     70010      7525  TIP3      H2             -5.8814157755       22.0057016832       76.4169323385  TIP3      6165            0.0000000000
     70011      7526  TIP3      OH2            -5.6486030198       22.5930051357       78.2409000186  TIP3      6166            0.0000000000
     70012      7526  TIP3      H1             -6.5142253511       22.9025832238       78.5898801096  TIP3      6166            0.0000000000
     70013      7526  TIP3      H2             -5.2063633449       23.4474287657       78.0227793687  TIP3      6166            0.0000000000
     70014      7527  TIP3      OH2           -21.3971541143       21.1493526682       81.8258308891  TIP3      6167            0.0000000000
     70015      7527  TIP3      H1            -20.4649958758       20.9387708898       81.9561777714  TIP3      6167            0.0000000000
     70016      7527  TIP3      H2            -21.8502804345       20.3371509936       82.0835323287  TIP3      6167            0.0000000000
     70017      7528  TIP3      OH2            -3.3413284931       16.6508242563       83.6065957629  TIP3      6168            0.0000000000
     70018      7528  TIP3      H1             -3.0327531747       15.9697143127       83.0039951487  TIP3      6168            0.0000000000
     70019      7528  TIP3      H2             -3.2516180875       17.4726065461       83.0913982113  TIP3      6168            0.0000000000
     70020      7529  TIP3      OH2            -5.6784077309       18.6077524133       70.0649439725  TIP3      6169            0.0000000000
     70021      7529  TIP3      H1             -5.4737088049       18.1799834072       70.9227345953  TIP3      6169            0.0000000000
     70022      7529  TIP3      H2             -6.2964153546       17.9659228400       69.6439045572  TIP3      6169            0.0000000000
     70023      7530  TIP3      OH2           -21.9227824633       22.4487133232       75.6557182264  TIP3      6170            0.0000000000
     70024      7530  TIP3      H1            -21.3192140634       22.2049804646       74.9177457442  TIP3      6170            0.0000000000
     70025      7530  TIP3      H2            -21.4081388064       23.1967696579       75.9647693706  TIP3      6170            0.0000000000
     70026      7531  TIP3      OH2            -3.8220024735       18.7297965084       81.9628862311  TIP3      6171            0.0000000000
     70027      7531  TIP3      H1             -4.7625695945       19.0159793701       81.9149876886  TIP3      6171            0.0000000000
     70028      7531  TIP3      H2             -3.7853987151       18.2270604164       81.1395654761  TIP3      6171            0.0000000000
     70029      7532  TIP3      OH2            -3.8423539289       18.6363673495       66.6675795028  TIP3      6172            0.0000000000
     70030      7532  TIP3      H1             -3.4143578561       17.9443217458       66.1404602939  TIP3      6172            0.0000000000
     70031      7532  TIP3      H2             -3.1885507941       19.3445225746       66.6908194127  TIP3      6172            0.0000000000
     70032      7533  TIP3      OH2           -21.5108213038       18.7494726394       69.8064579927  TIP3      6173            0.0000000000
     70033      7533  TIP3      H1            -22.4581980954       18.8286555147       69.6045713127  TIP3      6173            0.0000000000
     70034      7533  TIP3      H2            -21.1115306356       19.1436612759       69.0085823373  TIP3      6173            0.0000000000
     70035      7534  TIP3      OH2           -12.1441329731       33.0113490322       81.4256158052  TIP3      6174            0.0000000000
     70036      7534  TIP3      H1            -11.9721387827       32.6096590481       82.3110207562  TIP3      6174            0.0000000000
     70037      7534  TIP3      H2            -11.2434390028       33.2174764704       81.1465412812  TIP3      6174            0.0000000000
     70038      7535  TIP3      OH2            -4.8313044814       16.8518888472       79.7777203743  TIP3      6175            0.0000000000
     70039      7535  TIP3      H1             -5.6717669749       17.1868373843       79.4094346319  TIP3      6175            0.0000000000
     70040      7535  TIP3      H2             -4.6565702341       16.0227288645       79.3223412793  TIP3      6175            0.0000000000
     70041      7536  TIP3      OH2           -11.8570573841       34.2767383081       76.7374661952  TIP3      6176            0.0000000000
     70042      7536  TIP3      H1            -12.3111556850       34.8327671354       76.0818537240  TIP3      6176            0.0000000000
     70043      7536  TIP3      H2            -11.6821176886       34.9275101592       77.4487550432  TIP3      6176            0.0000000000
     70044      7537  TIP3      OH2            -6.2243091296       16.3715531396       74.2415683723  TIP3      6177            0.0000000000
     70045      7537  TIP3      H1             -5.6601385555       16.9160074546       73.6266319984  TIP3      6177            0.0000000000
     70046      7537  TIP3      H2             -7.1132515777       16.5962525522       73.9134173518  TIP3      6177            0.0000000000
     70047      7538  TIP3      OH2            -4.6350186822       17.5826745084       72.4830680112  TIP3      6178            0.0000000000
     70048      7538  TIP3      H1             -3.9683268035       17.0111353571       72.0142821822  TIP3      6178            0.0000000000
     70049      7538  TIP3      H2             -4.1223107317       18.4294740864       72.5277926571  TIP3      6178            0.0000000000
     70050      7539  TIP3      OH2            -7.6094951454       16.8900353874       69.0185979935  TIP3      6179            0.0000000000
     70051      7539  TIP3      H1             -8.3664458987       17.4757475322       68.8599106888  TIP3      6179            0.0000000000
     70052      7539  TIP3      H2             -8.0379922653       16.0545591562       69.2372086178  TIP3      6179            0.0000000000
     70053      7540  TIP3      OH2           -11.4748916455       33.9353562746       67.0849262915  TIP3      6180            0.0000000000
     70054      7540  TIP3      H1            -10.5819135061       34.2368884254       66.8975036051  TIP3      6180            0.0000000000
     70055      7540  TIP3      H2            -11.8722304623       33.4442948923       66.3789949114  TIP3      6180            0.0000000000
     70056      7541  TIP3      OH2           -19.1849482049       17.3783061976       81.4233632477  TIP3      6181            0.0000000000
     70057      7541  TIP3      H1            -19.5025172028       16.6323345115       81.9211829726  TIP3      6181            0.0000000000
     70058      7541  TIP3      H2            -18.2738478392       17.4882721688       81.7337684088  TIP3      6181            0.0000000000
     70059      7542  TIP3      OH2            -8.7152637150       16.1427341205       83.1631043220  TIP3      6182            0.0000000000
     70060      7542  TIP3      H1             -8.6681834885       15.6579105106       84.0107188779  TIP3      6182            0.0000000000
     70061      7542  TIP3      H2             -7.8203784863       16.0816209291       82.8143682877  TIP3      6182            0.0000000000
     70062      7543  TIP3      OH2             8.8651730529       26.0440160495       71.8125025652  TIP3      6183            0.0000000000
     70063      7543  TIP3      H1              8.8975343703       27.0260477976       71.7529721653  TIP3      6183            0.0000000000
     70064      7543  TIP3      H2              8.1691176699       25.8226402356       71.1827709328  TIP3      6183            0.0000000000
     70065      7544  TIP3      OH2             7.7644474186       25.3155236478       75.3039131357  TIP3      6184            0.0000000000
     70066      7544  TIP3      H1              7.7313229801       24.6511043800       76.0014188411  TIP3      6184            0.0000000000
     70067      7544  TIP3      H2              7.4477674433       24.8343393640       74.5272639513  TIP3      6184            0.0000000000
     70068      7545  TIP3      OH2             0.0670118109       25.0032694237       76.8720532862  TIP3      6185            0.0000000000
     70069      7545  TIP3      H1              0.1771999708       24.2726907539       77.5279964431  TIP3      6185            0.0000000000
     70070      7545  TIP3      H2              0.8648155175       25.5096302548       77.0754193248  TIP3      6185            0.0000000000
     70071      7546  TIP3      OH2             1.0453605378       29.3863952303       75.4668128951  TIP3      6186            0.0000000000
     70072      7546  TIP3      H1              0.7136228790       28.5878174578       75.0142949944  TIP3      6186            0.0000000000
     70073      7546  TIP3      H2              1.9912239133       29.2361121926       75.3892461251  TIP3      6186            0.0000000000
     70074      7547  TIP3      OH2            -2.3454800276       22.9867958665       70.8206753810  TIP3      6187            0.0000000000
     70075      7547  TIP3      H1             -2.7867277282       23.8566791676       70.7831124941  TIP3      6187            0.0000000000
     70076      7547  TIP3      H2             -2.8976500872       22.4555473170       70.2290212580  TIP3      6187            0.0000000000
     70077      7548  TIP3      OH2            -1.6286553911       25.1996677051       72.9876317897  TIP3      6188            0.0000000000
     70078      7548  TIP3      H1             -1.3582864402       24.3788671080       73.4380140748  TIP3      6188            0.0000000000
     70079      7548  TIP3      H2             -0.9253517198       25.3168035118       72.3257629797  TIP3      6188            0.0000000000
     70080      7549  TIP3      OH2             6.1238033264       27.7030675657       75.7477332398  TIP3      6189            0.0000000000
     70081      7549  TIP3      H1              6.4946447404       27.0662746387       75.1280316561  TIP3      6189            0.0000000000
     70082      7549  TIP3      H2              6.9009153081       27.8963049942       76.2966539333  TIP3      6189            0.0000000000
     70083      7550  TIP3      OH2            14.7466833891       19.3947573349       76.5424871447  TIP3      6190            0.0000000000
     70084      7550  TIP3      H1             14.8672810715       19.9929766284       77.2856544258  TIP3      6190            0.0000000000
     70085      7550  TIP3      H2             15.2936577274       19.7549799264       75.8442524581  TIP3      6190            0.0000000000
     70086      7551  TIP3      OH2             9.2927689464       22.1541913942       76.0752600831  TIP3      6191            0.0000000000
     70087      7551  TIP3      H1              9.4688470236       21.1952070729       76.0694477876  TIP3      6191            0.0000000000
     70088      7551  TIP3      H2              9.2131289968       22.3267327493       75.1166849976  TIP3      6191            0.0000000000
     70089      7552  TIP3      OH2            10.1765475153       20.3377886260       71.6819807409  TIP3      6192            0.0000000000
     70090      7552  TIP3      H1             10.8388736638       20.0375344917       72.3376290748  TIP3      6192            0.0000000000
     70091      7552  TIP3      H2             10.6949515154       20.9099019270       71.0989181018  TIP3      6192            0.0000000000
     70092      7553  TIP3      OH2            -0.9656922662       22.6381316694       74.0677788462  TIP3      6193            0.0000000000
     70093      7553  TIP3      H1             -0.2440373490       22.1462528252       74.4841386303  TIP3      6193            0.0000000000
     70094      7553  TIP3      H2             -0.8581764060       22.3556595796       73.1399028867  TIP3      6193            0.0000000000
     70095      7554  TIP3      OH2             8.5911069665       28.6452240725       70.9091127793  TIP3      6194            0.0000000000
     70096      7554  TIP3      H1              8.3612293786       28.3831707376       70.0074195856  TIP3      6194            0.0000000000
     70097      7554  TIP3      H2              8.2916814809       29.5732751579       70.9158201942  TIP3      6194            0.0000000000
     70098      7555  TIP3      OH2             3.8513981283       26.8180358069       77.5842096663  TIP3      6195            0.0000000000
     70099      7555  TIP3      H1              3.1300272480       27.4504965642       77.7900312842  TIP3      6195            0.0000000000
     70100      7555  TIP3      H2              4.5407070019       27.4399282495       77.2924488519  TIP3      6195            0.0000000000
     70101      7556  TIP3      OH2            11.9645722958       19.6749957786       73.6696337298  TIP3      6196            0.0000000000
     70102      7556  TIP3      H1             11.7326164574       18.8982977653       74.1959297918  TIP3      6196            0.0000000000
     70103      7556  TIP3      H2             12.5956813593       20.1212410973       74.2460995040  TIP3      6196            0.0000000000
     70104      7557  TIP3      OH2             2.2498186166       28.8222883934       78.4359800608  TIP3      6197            0.0000000000
     70105      7557  TIP3      H1              2.2013468486       29.6960830353       78.0234600211  TIP3      6197            0.0000000000
     70106      7557  TIP3      H2              1.3691508624       28.7358296069       78.8335051049  TIP3      6197            0.0000000000
     70107      7558  TIP3      OH2            -1.9399165034       28.4415263478       69.1378769849  TIP3      6198            0.0000000000
     70108      7558  TIP3      H1             -1.8482758233       28.8150380278       68.2663412128  TIP3      6198            0.0000000000
     70109      7558  TIP3      H2             -1.5185936247       29.1486598762       69.6876373112  TIP3      6198            0.0000000000
     70110      7559  TIP3      OH2            12.2993638950       18.3899709837       77.3758887080  TIP3      6199            0.0000000000
     70111      7559  TIP3      H1             11.5318439904       18.9675948880       77.2694392062  TIP3      6199            0.0000000000
     70112      7559  TIP3      H2             12.9778584301       18.7728916581       76.8024234120  TIP3      6199            0.0000000000
     70113      7560  TIP3      OH2             7.5495051140       25.2508413023       69.3010542648  TIP3      6200            0.0000000000
     70114      7560  TIP3      H1              6.8558344171       25.8611947067       68.9637646361  TIP3      6200            0.0000000000
     70115      7560  TIP3      H2              8.2529621406       25.3794763156       68.6457353443  TIP3      6200            0.0000000000
     70116      7561  TIP3      OH2             7.6271207691       23.8427133294       66.3713258876  TIP3      6201            0.0000000000
     70117      7561  TIP3      H1              8.3312041954       23.8032823962       67.0419975407  TIP3      6201            0.0000000000
     70118      7561  TIP3      H2              7.9119701549       23.1532114296       65.7605778738  TIP3      6201            0.0000000000
     70119      7562  TIP3      OH2            14.8770403349       24.6974737657       77.5639111170  TIP3      6202            0.0000000000
     70120      7562  TIP3      H1             14.2821474930       25.4535834322       77.6672613537  TIP3      6202            0.0000000000
     70121      7562  TIP3      H2             15.3900042029       24.9623170540       76.7802928853  TIP3      6202            0.0000000000
     70122      7563  TIP3      OH2            10.9747487439       25.4822975050       70.2346974995  TIP3      6203            0.0000000000
     70123      7563  TIP3      H1             10.2394800570       25.7369636432       70.8444658407  TIP3      6203            0.0000000000
     70124      7563  TIP3      H2             11.4581978563       24.8251021483       70.7705100173  TIP3      6203            0.0000000000
     70125      7564  TIP3      OH2            10.9317348844       23.6707985369       79.3391041560  TIP3      6204            0.0000000000
     70126      7564  TIP3      H1             10.9243680184       24.4525410756       79.9026622065  TIP3      6204            0.0000000000
     70127      7564  TIP3      H2             10.2835450448       23.9464018177       78.6509215902  TIP3      6204            0.0000000000
     70128      7565  TIP3      OH2             2.6241360095       26.1326150350       72.1695971897  TIP3      6205            0.0000000000
     70129      7565  TIP3      H1              2.2716565515       25.8134835050       71.2969442400  TIP3      6205            0.0000000000
     70130      7565  TIP3      H2              3.2086359658       25.4297896635       72.4457201400  TIP3      6205            0.0000000000
     70131      7566  TIP3      OH2             2.9722374827       24.9150114673       75.7858866686  TIP3      6206            0.0000000000
     70132      7566  TIP3      H1              3.5346646955       25.0789578741       75.0345789482  TIP3      6206            0.0000000000
     70133      7566  TIP3      H2              3.3027134767       25.5607104319       76.4438558830  TIP3      6206            0.0000000000
     70134      7567  TIP3      OH2             3.8265947813       29.2553851984       80.5603273899  TIP3      6207            0.0000000000
     70135      7567  TIP3      H1              3.5412989188       30.0961888242       80.9504939102  TIP3      6207            0.0000000000
     70136      7567  TIP3      H2              3.2303186718       29.1383185347       79.7914264697  TIP3      6207            0.0000000000
     70137      7568  TIP3      OH2             9.8722188163       24.6461382377       67.8887512182  TIP3      6208            0.0000000000
     70138      7568  TIP3      H1             10.3832276343       24.8736048800       68.7094155875  TIP3      6208            0.0000000000
     70139      7568  TIP3      H2             10.2579478886       25.2412820239       67.2337965176  TIP3      6208            0.0000000000
     70140      7569  TIP3      OH2             0.8239820411       25.5274142151       79.7010836203  TIP3      6209            0.0000000000
     70141      7569  TIP3      H1              0.8342695408       26.1819991705       80.4198908737  TIP3      6209            0.0000000000
     70142      7569  TIP3      H2             -0.1103050480       25.5820748028       79.4429924401  TIP3      6209            0.0000000000
     70143      7570  TIP3      OH2             7.6910160803       31.4658008119       71.2279907942  TIP3      6210            0.0000000000
     70144      7570  TIP3      H1              8.0306713007       31.6591936306       72.1047433634  TIP3      6210            0.0000000000
     70145      7570  TIP3      H2              6.9675138640       32.0939589696       71.1189957261  TIP3      6210            0.0000000000
     70146      7571  TIP3      OH2             2.1451766774       31.3671769142       81.2548833452  TIP3      6211            0.0000000000
     70147      7571  TIP3      H1              2.0649482694       31.2408706160       80.2980694607  TIP3      6211            0.0000000000
     70148      7571  TIP3      H2              1.2163210530       31.2964978449       81.5337583519  TIP3      6211            0.0000000000
     70149      7572  TIP3      OH2            13.5959267541       16.4171765510       67.7536123781  TIP3      6212            0.0000000000
     70150      7572  TIP3      H1             12.6665185441       16.5611670344       68.0454075884  TIP3      6212            0.0000000000
     70151      7572  TIP3      H2             13.7972771682       17.2887282204       67.3849878457  TIP3      6212            0.0000000000
     70152      7573  TIP3      OH2             1.5998019251       25.2010229233       69.7585257532  TIP3      6213            0.0000000000
     70153      7573  TIP3      H1              1.2893541268       25.9864525526       69.2496479184  TIP3      6213            0.0000000000
     70154      7573  TIP3      H2              0.9200439796       24.5513284775       69.5554419703  TIP3      6213            0.0000000000
     70155      7574  TIP3      OH2            -2.3904006065       27.6115612460       78.6352877148  TIP3      6214            0.0000000000
     70156      7574  TIP3      H1             -2.8203340616       27.5093372410       77.7760306814  TIP3      6214            0.0000000000
     70157      7574  TIP3      H2             -2.2546514267       26.6709101851       78.8676542577  TIP3      6214            0.0000000000
     70158      7575  TIP3      OH2            -2.5909433841       30.3011409989       75.5067786934  TIP3      6215            0.0000000000
     70159      7575  TIP3      H1             -1.6256840640       30.2006203959       75.3630950045  TIP3      6215            0.0000000000
     70160      7575  TIP3      H2             -2.6681932647       31.1160189897       75.9969086098  TIP3      6215            0.0000000000
     70161      7576  TIP3      OH2            15.6750544640       31.0214584797       81.1437441574  TIP3      6216            0.0000000000
     70162      7576  TIP3      H1             15.6037756327       30.0587001496       81.1038598452  TIP3      6216            0.0000000000
     70163      7576  TIP3      H2             14.8228539700       31.2362844963       81.5317285847  TIP3      6216            0.0000000000
     70164      7577  TIP3      OH2            12.7977385643       22.5395649042       81.5897765293  TIP3      6217            0.0000000000
     70165      7577  TIP3      H1             12.3156725738       22.9614657542       80.8675000244  TIP3      6217            0.0000000000
     70166      7577  TIP3      H2             12.8139112137       21.6091046200       81.2969929338  TIP3      6217            0.0000000000
     70167      7578  TIP3      OH2            10.5560922878       20.8713193457       79.8089274023  TIP3      6218            0.0000000000
     70168      7578  TIP3      H1              9.9849239044       20.6952848707       80.5946680150  TIP3      6218            0.0000000000
     70169      7578  TIP3      H2             10.3870628911       21.7974300859       79.5829174776  TIP3      6218            0.0000000000
     70170      7579  TIP3      OH2             6.8830678618       19.5938402676       66.2309030533  TIP3      6219            0.0000000000
     70171      7579  TIP3      H1              6.6468532856       19.6119121575       67.1711987354  TIP3      6219            0.0000000000
     70172      7579  TIP3      H2              6.6264973452       18.7091466380       65.9748450110  TIP3      6219            0.0000000000
     70173      7580  TIP3      OH2             8.2260809433       22.9867048752       70.4693874257  TIP3      6220            0.0000000000
     70174      7580  TIP3      H1              7.8075563997       23.7926195019       70.1054160905  TIP3      6220            0.0000000000
     70175      7580  TIP3      H2              8.8803025522       22.7974524398       69.7840438621  TIP3      6220            0.0000000000
     70176      7581  TIP3      OH2             7.2718655223       23.2313151623       81.8996683306  TIP3      6221            0.0000000000
     70177      7581  TIP3      H1              6.7355381560       22.4474543696       82.1539297456  TIP3      6221            0.0000000000
     70178      7581  TIP3      H2              8.0986232558       23.0362174781       82.3546958284  TIP3      6221            0.0000000000
     70179      7582  TIP3      OH2             9.1940193583       22.4300843951       73.2909568104  TIP3      6222            0.0000000000
     70180      7582  TIP3      H1              8.9668303178       23.0159178503       72.5450448511  TIP3      6222            0.0000000000
     70181      7582  TIP3      H2              9.3632422942       21.6115574028       72.7834550487  TIP3      6222            0.0000000000
     70182      7583  TIP3      OH2             0.2653086855       22.6740549865       78.5180914919  TIP3      6223            0.0000000000
     70183      7583  TIP3      H1              0.4606886063       23.0114934971       79.4012576104  TIP3      6223            0.0000000000
     70184      7583  TIP3      H2             -0.0353470048       21.7679440245       78.6791037654  TIP3      6223            0.0000000000
     70185      7584  TIP3      OH2            -3.0202783714       19.6862471883       72.4704002688  TIP3      6224            0.0000000000
     70186      7584  TIP3      H1             -2.3163354339       19.7514172138       73.1503884699  TIP3      6224            0.0000000000
     70187      7584  TIP3      H2             -2.5298171618       19.3690907884       71.6911262749  TIP3      6224            0.0000000000
     70188      7585  TIP3      OH2             8.4659589272       24.0448308072       77.8714448290  TIP3      6225            0.0000000000
     70189      7585  TIP3      H1              8.8146934001       23.3743233292       77.2482498097  TIP3      6225            0.0000000000
     70190      7585  TIP3      H2              8.0051572745       23.5302534310       78.5494591577  TIP3      6225            0.0000000000
     70191      7586  TIP3      OH2             0.0224856953       21.5858016779       71.5851440644  TIP3      6226            0.0000000000
     70192      7586  TIP3      H1             -0.8230556795       21.7355195450       71.1341920767  TIP3      6226            0.0000000000
     70193      7586  TIP3      H2              0.4075323331       20.7845604171       71.1883548600  TIP3      6226            0.0000000000
     70194      7587  TIP3      OH2             3.7224383887       21.5963066104       69.1271925537  TIP3      6227            0.0000000000
     70195      7587  TIP3      H1              4.6393258533       21.7655002500       69.3444617085  TIP3      6227            0.0000000000
     70196      7587  TIP3      H2              3.4497427577       22.3049892041       68.5231046047  TIP3      6227            0.0000000000
     70197      7588  TIP3      OH2             9.6556669429       19.2715896138       75.8803629116  TIP3      6228            0.0000000000
     70198      7588  TIP3      H1              9.0020677992       19.3120589061       76.6149416822  TIP3      6228            0.0000000000
     70199      7588  TIP3      H2              9.1438441217       19.0116279511       75.1134247129  TIP3      6228            0.0000000000
     70200      7589  TIP3      OH2             2.4190454642       22.8065739599       66.7751326552  TIP3      6229            0.0000000000
     70201      7589  TIP3      H1              1.8539410320       22.4534893770       66.0828398542  TIP3      6229            0.0000000000
     70202      7589  TIP3      H2              3.2342294025       23.0406594442       66.3041910128  TIP3      6229            0.0000000000
     70203      7590  TIP3      OH2             0.5565551821       27.4356227482       81.7945658575  TIP3      6230            0.0000000000
     70204      7590  TIP3      H1              1.2561359204       27.6173625777       82.4413735862  TIP3      6230            0.0000000000
     70205      7590  TIP3      H2             -0.2305193880       27.5154494643       82.3710108283  TIP3      6230            0.0000000000
     70206      7591  TIP3      OH2             6.5961269763       22.8062431998       74.6295277632  TIP3      6231            0.0000000000
     70207      7591  TIP3      H1              7.1141064090       22.2570978359       74.0179525401  TIP3      6231            0.0000000000
     70208      7591  TIP3      H2              6.4195088702       22.2342982471       75.3717138809  TIP3      6231            0.0000000000
     70209      7592  TIP3      OH2             1.5849161795       18.8987621083       71.0498972056  TIP3      6232            0.0000000000
     70210      7592  TIP3      H1              1.2009918984       18.0190810990       70.9475972777  TIP3      6232            0.0000000000
     70211      7592  TIP3      H2              2.2925673604       18.9338741002       70.4008957450  TIP3      6232            0.0000000000
     70212      7593  TIP3      OH2             5.7975000133       27.2865654681       68.7100177716  TIP3      6233            0.0000000000
     70213      7593  TIP3      H1              4.9707627116       26.9107339757       68.3354764509  TIP3      6233            0.0000000000
     70214      7593  TIP3      H2              5.5420205788       27.4704860760       69.6285926860  TIP3      6233            0.0000000000
     70215      7594  TIP3      OH2             9.6146474391       20.1689547526       66.8021986922  TIP3      6234            0.0000000000
     70216      7594  TIP3      H1              8.6579471106       20.3028749023       66.7132760249  TIP3      6234            0.0000000000
     70217      7594  TIP3      H2              9.9188080679       21.0125981298       67.1887146728  TIP3      6234            0.0000000000
     70218      7595  TIP3      OH2             7.2635528306       27.5686684739       79.9372407324  TIP3      6235            0.0000000000
     70219      7595  TIP3      H1              6.9027890494       27.1887621238       80.7481750509  TIP3      6235            0.0000000000
     70220      7595  TIP3      H2              7.0289981746       28.5057780329       80.0102816830  TIP3      6235            0.0000000000
     70221      7596  TIP3      OH2            10.3250267310       22.0473875465       68.5011112787  TIP3      6236            0.0000000000
     70222      7596  TIP3      H1             11.2084334262       21.9164376496       68.9003606621  TIP3      6236            0.0000000000
     70223      7596  TIP3      H2             10.4122902564       22.8847395436       68.0235782976  TIP3      6236            0.0000000000
     70224      7597  TIP3      OH2             0.8635219876       26.7008172318       74.5011636232  TIP3      6237            0.0000000000
     70225      7597  TIP3      H1              1.5529803816       26.6844094293       73.8053738817  TIP3      6237            0.0000000000
     70226      7597  TIP3      H2              0.9370569831       25.8351659699       74.9273215736  TIP3      6237            0.0000000000
     70227      7598  TIP3      OH2            -2.1445006434       25.1391468506       79.7399257235  TIP3      6238            0.0000000000
     70228      7598  TIP3      H1             -1.9695143742       24.7136797199       80.5972287742  TIP3      6238            0.0000000000
     70229      7598  TIP3      H2             -2.7523554620       24.5127747908       79.3165408194  TIP3      6238            0.0000000000
     70230      7599  TIP3      OH2             4.8596172383       24.6875188951       81.9690966451  TIP3      6239            0.0000000000
     70231      7599  TIP3      H1              4.5562623594       24.4403362326       81.0828582106  TIP3      6239            0.0000000000
     70232      7599  TIP3      H2              5.7951738768       24.3988789156       81.9299320841  TIP3      6239            0.0000000000
     70233      7600  TIP3      OH2            15.1990369469       22.2255077798       68.2451387225  TIP3      6240            0.0000000000
     70234      7600  TIP3      H1             14.6691274862       21.8872991392       67.5145366015  TIP3      6240            0.0000000000
     70235      7600  TIP3      H2             15.2888286704       23.1607545128       67.9729050724  TIP3      6240            0.0000000000
     70236      7601  TIP3      OH2            15.1738825678       28.0588689995       81.0499390510  TIP3      6241            0.0000000000
     70237      7601  TIP3      H1             14.3253633010       28.2854485863       80.6556864368  TIP3      6241            0.0000000000
     70238      7601  TIP3      H2             15.7593945473       28.0216263999       80.2656013166  TIP3      6241            0.0000000000
     70239      7602  TIP3      OH2            10.6922771800       25.8023379015       75.8432005668  TIP3      6242            0.0000000000
     70240      7602  TIP3      H1              9.7595798362       25.6644102356       75.6201895464  TIP3      6242            0.0000000000
     70241      7602  TIP3      H2             11.1469785698       25.1192274092       75.3198683218  TIP3      6242            0.0000000000
     70242      7603  TIP3      OH2            -1.0060140876       25.0900730836       66.3403952465  TIP3      6243            0.0000000000
     70243      7603  TIP3      H1             -0.3998035716       25.6661956982       66.8374851408  TIP3      6243            0.0000000000
     70244      7603  TIP3      H2             -1.8609606893       25.2825441685       66.7532731123  TIP3      6243            0.0000000000
     70245      7604  TIP3      OH2             4.6817650363       27.8208270102       71.4103366963  TIP3      6244            0.0000000000
     70246      7604  TIP3      H1              4.3753962491       28.7370665653       71.4432343023  TIP3      6244            0.0000000000
     70247      7604  TIP3      H2              3.9031857807       27.3932753620       71.8185019760  TIP3      6244            0.0000000000
     70248      7605  TIP3      OH2             3.3382123482       32.9021804213       70.8593219750  TIP3      6245            0.0000000000
     70249      7605  TIP3      H1              2.3889755541       32.8993493781       71.0077230891  TIP3      6245            0.0000000000
     70250      7605  TIP3      H2              3.6476802250       33.6628368514       71.3461382999  TIP3      6245            0.0000000000
     70251      7606  TIP3      OH2             8.6700540775       28.0941929386       77.4394989636  TIP3      6246            0.0000000000
     70252      7606  TIP3      H1              8.2772759612       27.8404715011       78.2977560791  TIP3      6246            0.0000000000
     70253      7606  TIP3      H2              9.2572914454       27.3607567489       77.2189792945  TIP3      6246            0.0000000000
     70254      7607  TIP3      OH2            -0.5253474341       19.8873974658       79.4048994554  TIP3      6247            0.0000000000
     70255      7607  TIP3      H1             -1.4230923680       20.1955207980       79.2124776593  TIP3      6247            0.0000000000
     70256      7607  TIP3      H2             -0.5968945369       18.9854934502       79.7075539603  TIP3      6247            0.0000000000
     70257      7608  TIP3      OH2            11.7782804853       27.6385250024       68.6850453342  TIP3      6248            0.0000000000
     70258      7608  TIP3      H1             11.4978132903       26.9578980351       69.3213498067  TIP3      6248            0.0000000000
     70259      7608  TIP3      H2             12.6906951415       27.8182338890       68.9399488393  TIP3      6248            0.0000000000
     70260      7609  TIP3      OH2             3.8362292083       29.7166726498       67.4105152637  TIP3      6249            0.0000000000
     70261      7609  TIP3      H1              4.1074267200       29.1880689537       68.1724539425  TIP3      6249            0.0000000000
     70262      7609  TIP3      H2              3.9608399811       30.6271470314       67.7381188020  TIP3      6249            0.0000000000
     70263      7610  TIP3      OH2             0.3355187694       26.9532515138       67.8526178559  TIP3      6250            0.0000000000
     70264      7610  TIP3      H1             -0.2317392557       27.3619570423       68.5447798722  TIP3      6250            0.0000000000
     70265      7610  TIP3      H2              0.9390120802       27.7195612579       67.7382511149  TIP3      6250            0.0000000000
     70266      7611  TIP3      OH2             8.2846624130       19.5651232983       78.1588291235  TIP3      6251            0.0000000000
     70267      7611  TIP3      H1              8.9253496614       19.7042267141       78.8802458785  TIP3      6251            0.0000000000
     70268      7611  TIP3      H2              7.8444203316       18.7516411173       78.4315303038  TIP3      6251            0.0000000000
     70269      7612  TIP3      OH2             9.0214261956       19.1845994533       69.3274204596  TIP3      6252            0.0000000000
     70270      7612  TIP3      H1              9.2275646033       19.6939936320       68.5262343999  TIP3      6252            0.0000000000
     70271      7612  TIP3      H2              9.5157255991       19.6630983011       70.0036021167  TIP3      6252            0.0000000000
     70272      7613  TIP3      OH2             4.0130771198       32.4159890368       68.1348738067  TIP3      6253            0.0000000000
     70273      7613  TIP3      H1              4.1825065746       33.2464286193       67.6504197419  TIP3      6253            0.0000000000
     70274      7613  TIP3      H2              3.7961627678       32.7100458450       69.0418661445  TIP3      6253            0.0000000000
     70275      7614  TIP3      OH2            12.9855725231       19.9006735064       80.1731832856  TIP3      6254            0.0000000000
     70276      7614  TIP3      H1             12.0353757444       20.1572635349       80.0681715604  TIP3      6254            0.0000000000
     70277      7614  TIP3      H2             13.2521223344       19.8779028965       79.2481264816  TIP3      6254            0.0000000000
     70278      7615  TIP3      OH2            11.5544734624       23.6397413243       74.1901510814  TIP3      6255            0.0000000000
     70279      7615  TIP3      H1             10.7104638176       23.2370949666       73.9249384552  TIP3      6255            0.0000000000
     70280      7615  TIP3      H2             11.9806627548       22.9462312136       74.7307250913  TIP3      6255            0.0000000000
     70281      7616  TIP3      OH2             0.9591641204       29.5566106056       66.7674286458  TIP3      6256            0.0000000000
     70282      7616  TIP3      H1              1.5880472687       30.1952586171       67.1385088563  TIP3      6256            0.0000000000
     70283      7616  TIP3      H2              1.5214578914       29.1217794177       66.1314686216  TIP3      6256            0.0000000000
     70284      7617  TIP3      OH2             0.0610229655       17.0471848371       74.6884624531  TIP3      6257            0.0000000000
     70285      7617  TIP3      H1             -0.0509763178       17.1050662383       73.7126342368  TIP3      6257            0.0000000000
     70286      7617  TIP3      H2             -0.3075824680       16.1862739250       74.8905008435  TIP3      6257            0.0000000000
     70287      7618  TIP3      OH2            -1.0836496419       30.9842685465       70.7754722514  TIP3      6258            0.0000000000
     70288      7618  TIP3      H1             -1.8601485643       31.5219293230       70.7397234101  TIP3      6258            0.0000000000
     70289      7618  TIP3      H2             -0.4289689561       31.3932919730       70.2047646288  TIP3      6258            0.0000000000
     70290      7619  TIP3      OH2             2.9617447357       32.4983267755       83.7465367547  TIP3      6259            0.0000000000
     70291      7619  TIP3      H1              3.7692527556       32.0907437547       84.0668317730  TIP3      6259            0.0000000000
     70292      7619  TIP3      H2              2.9091932387       32.2404899963       82.8098093015  TIP3      6259            0.0000000000
     70293      7620  TIP3      OH2            -1.8083639915       27.3562681352       83.1013819711  TIP3      6260            0.0000000000
     70294      7620  TIP3      H1             -1.6458810202       26.4474952492       82.7884269985  TIP3      6260            0.0000000000
     70295      7620  TIP3      H2             -2.5280820247       27.6569200581       82.5177720575  TIP3      6260            0.0000000000
     70296      7621  TIP3      OH2             4.8737764244       27.3618121745       82.5094852745  TIP3      6261            0.0000000000
     70297      7621  TIP3      H1              4.5937523583       27.6650909111       81.6338130467  TIP3      6261            0.0000000000
     70298      7621  TIP3      H2              5.0209044284       26.4065616097       82.3828780309  TIP3      6261            0.0000000000
     70299      7622  TIP3      OH2            -0.8856964339       24.6290600877       82.4842749233  TIP3      6262            0.0000000000
     70300      7622  TIP3      H1             -0.5101240100       23.7570524002       82.3473053790  TIP3      6262            0.0000000000
     70301      7622  TIP3      H2             -1.1326262442       24.6151842544       83.4336645425  TIP3      6262            0.0000000000
     70302      7623  TIP3      OH2             3.7868826041       25.7147552257       67.5389278075  TIP3      6263            0.0000000000
     70303      7623  TIP3      H1              3.2503234760       25.2223101401       68.1757627777  TIP3      6263            0.0000000000
     70304      7623  TIP3      H2              4.0568089798       25.0352901082       66.8950663444  TIP3      6263            0.0000000000
     70305      7624  TIP3      OH2             3.0340977482       23.5648486445       79.8862331227  TIP3      6264            0.0000000000
     70306      7624  TIP3      H1              2.4084497007       24.2663820902       80.0991568002  TIP3      6264            0.0000000000
     70307      7624  TIP3      H2              3.3687342088       23.8922376557       79.0401858342  TIP3      6264            0.0000000000
     70308      7625  TIP3      OH2             4.8144356886       23.9029844154       65.7453177341  TIP3      6265            0.0000000000
     70309      7625  TIP3      H1              4.7114992828       23.8160116599       64.7917351134  TIP3      6265            0.0000000000
     70310      7625  TIP3      H2              5.7769458178       24.0217945174       65.8729465775  TIP3      6265            0.0000000000
     70311      7626  TIP3      OH2             8.0835225015       26.0480571725       83.1324542106  TIP3      6266            0.0000000000
     70312      7626  TIP3      H1              9.0348095433       26.0935035477       83.1102834354  TIP3      6266            0.0000000000
     70313      7626  TIP3      H2              7.8848310757       25.3557726461       83.7787969185  TIP3      6266            0.0000000000
     70314      7627  TIP3      OH2             5.3712472614       24.7572716812       78.6695379448  TIP3      6267            0.0000000000
     70315      7627  TIP3      H1              6.1210258627       24.6548896822       78.0868186720  TIP3      6267            0.0000000000
     70316      7627  TIP3      H2              4.9995587666       25.6141931462       78.3894549190  TIP3      6267            0.0000000000
     70317      7628  TIP3      OH2             9.7582222268       22.5511983149       83.6496713290  TIP3      6268            0.0000000000
     70318      7628  TIP3      H1              9.9982437556       21.6164140210       83.6095586790  TIP3      6268            0.0000000000
     70319      7628  TIP3      H2             10.6274820716       22.9765537507       83.6908261695  TIP3      6268            0.0000000000
     70320      7629  TIP3      OH2            11.0909174356       25.3475035835       81.8273753700  TIP3      6269            0.0000000000
     70321      7629  TIP3      H1             10.8331974220       26.0413015579       81.2143612920  TIP3      6269            0.0000000000
     70322      7629  TIP3      H2             12.0524362405       25.2721930300       81.6314495774  TIP3      6269            0.0000000000
     70323      7630  TIP3      OH2             5.8681032039       21.1182554653       82.5369726715  TIP3      6270            0.0000000000
     70324      7630  TIP3      H1              5.5849072651       20.8316884289       83.4148514722  TIP3      6270            0.0000000000
     70325      7630  TIP3      H2              5.1168736516       20.8327943078       81.9930181773  TIP3      6270            0.0000000000
     70326      7631  TIP3      OH2             8.5578922135       20.2014187218       81.5347140650  TIP3      6271            0.0000000000
     70327      7631  TIP3      H1              7.6028202900       20.2654981073       81.6757719645  TIP3      6271            0.0000000000
     70328      7631  TIP3      H2              8.8614912461       19.5764556106       82.2214270331  TIP3      6271            0.0000000000
     70329      7632  TIP3      OH2            10.1820669635       18.8599559237       83.4686065434  TIP3      6272            0.0000000000
     70330      7632  TIP3      H1             10.1288924848       17.8875338212       83.4954283288  TIP3      6272            0.0000000000
     70331      7632  TIP3      H2              9.8948529858       19.1205597887       84.3729315513  TIP3      6272            0.0000000000
     70332      7633  TIP3      OH2             4.7221710979       34.6122884119       66.7303977887  TIP3      6273            0.0000000000
     70333      7633  TIP3      H1              5.6465766719       34.8006558700       66.9212736645  TIP3      6273            0.0000000000
     70334      7633  TIP3      H2              4.4575041669       35.2997071736       66.1206682311  TIP3      6273            0.0000000000
     70335      7634  TIP3      OH2            15.3663832851       33.5344532922       76.0820148081  TIP3      6274            0.0000000000
     70336      7634  TIP3      H1             15.3788655668       33.7248226996       77.0148034343  TIP3      6274            0.0000000000
     70337      7634  TIP3      H2             16.0706162328       34.0921142447       75.7320163760  TIP3      6274            0.0000000000
     70338      7635  TIP3      OH2            14.6823225645       27.1403047757       69.1578499146  TIP3      6275            0.0000000000
     70339      7635  TIP3      H1             15.5312012642       27.5981337551       69.3303896148  TIP3      6275            0.0000000000
     70340      7635  TIP3      H2             14.6669660952       26.4544179312       69.8338449120  TIP3      6275            0.0000000000
     70341      7636  TIP3      OH2            14.8344295554       27.9725094264       76.0606018387  TIP3      6276            0.0000000000
     70342      7636  TIP3      H1             15.6108664384       27.6136933934       75.6189673035  TIP3      6276            0.0000000000
     70343      7636  TIP3      H2             14.9345256979       28.9132530820       75.8118078403  TIP3      6276            0.0000000000
     70344      7637  TIP3      OH2            15.3715173519       25.0848061827       67.3556764723  TIP3      6277            0.0000000000
     70345      7637  TIP3      H1             14.7602658056       25.4421590057       66.7074017082  TIP3      6277            0.0000000000
     70346      7637  TIP3      H2             15.3041165296       25.7754467387       68.0448128001  TIP3      6277            0.0000000000
     70347      7638  TIP3      OH2            12.8454102619       23.7273103646       71.5480103934  TIP3      6278            0.0000000000
     70348      7638  TIP3      H1             12.6986545506       22.7758828028       71.5431087855  TIP3      6278            0.0000000000
     70349      7638  TIP3      H2             12.5193589848       24.0009771670       72.4262332984  TIP3      6278            0.0000000000
     70350      7639  TIP3      OH2            -2.1384299096       25.8372124725       75.6344103144  TIP3      6279            0.0000000000
     70351      7639  TIP3      H1             -1.9410890448       25.7526124196       74.6801845267  TIP3      6279            0.0000000000
     70352      7639  TIP3      H2             -1.2476852667       25.6671957115       76.0040819439  TIP3      6279            0.0000000000
     70353      7640  TIP3      OH2            13.7093838675       25.7178429872       81.3142980997  TIP3      6280            0.0000000000
     70354      7640  TIP3      H1             14.3214260504       24.9494058137       81.4017165229  TIP3      6280            0.0000000000
     70355      7640  TIP3      H2             14.3303023517       26.4672848863       81.2369471529  TIP3      6280            0.0000000000
     70356      7641  TIP3      OH2            15.1922246562       23.6419030520       81.9712676910  TIP3      6281            0.0000000000
     70357      7641  TIP3      H1             14.3421527424       23.1909488720       81.7765213403  TIP3      6281            0.0000000000
     70358      7641  TIP3      H2             15.8174561076       22.9160485007       81.8615297650  TIP3      6281            0.0000000000
     70359      7642  TIP3      OH2            12.9340776026       19.7449335759       65.0167539164  TIP3      6282            0.0000000000
     70360      7642  TIP3      H1             13.5455766469       19.3798583290       65.6798863709  TIP3      6282            0.0000000000
     70361      7642  TIP3      H2             12.0719720363       19.3763430630       65.2483574983  TIP3      6282            0.0000000000
     70362      7643  TIP3      OH2            12.5312099405       21.3459837292       70.0148910106  TIP3      6283            0.0000000000
     70363      7643  TIP3      H1             12.8291606009       20.4198775217       70.1575709717  TIP3      6283            0.0000000000
     70364      7643  TIP3      H2             13.3369873944       21.7455828538       69.6557501136  TIP3      6283            0.0000000000
     70365      7644  TIP3      OH2            13.1759951292       21.8675449473       75.4695139440  TIP3      6284            0.0000000000
     70366      7644  TIP3      H1             14.0932420296       22.1459632114       75.4518027330  TIP3      6284            0.0000000000
     70367      7644  TIP3      H2             12.9486482715       22.0270829477       76.4093749860  TIP3      6284            0.0000000000
     70368      7645  TIP3      OH2            13.2074948608       22.5928580017       78.1861799614  TIP3      6285            0.0000000000
     70369      7645  TIP3      H1             12.3475682955       22.8774645807       78.5719038004  TIP3      6285            0.0000000000
     70370      7645  TIP3      H2             13.6731757141       23.4554139040       78.0797812662  TIP3      6285            0.0000000000
     70371      7646  TIP3      OH2            -2.5272576728       21.1299221685       81.7710642694  TIP3      6286            0.0000000000
     70372      7646  TIP3      H1             -1.5985013655       20.9489792284       81.9498674778  TIP3      6286            0.0000000000
     70373      7646  TIP3      H2             -2.9867824393       20.3217499929       82.0772760906  TIP3      6286            0.0000000000
     70374      7647  TIP3      OH2            15.5201608242       16.6223329648       83.6030510147  TIP3      6287            0.0000000000
     70375      7647  TIP3      H1             15.8444588038       15.9636193735       82.9711895492  TIP3      6287            0.0000000000
     70376      7647  TIP3      H2             15.5964464033       17.4462632596       83.0848375189  TIP3      6287            0.0000000000
     70377      7648  TIP3      OH2            13.1818565705       18.6188393849       70.0855726940  TIP3      6288            0.0000000000
     70378      7648  TIP3      H1             13.3697771634       18.1385930216       70.9210192852  TIP3      6288            0.0000000000
     70379      7648  TIP3      H2             12.5780693879       17.9937701104       69.6263980327  TIP3      6288            0.0000000000
     70380      7649  TIP3      OH2            -1.3145363188       19.4265003897       74.6416615320  TIP3      6289            0.0000000000
     70381      7649  TIP3      H1             -0.8074097020       18.6288784943       74.8924116405  TIP3      6289            0.0000000000
     70382      7649  TIP3      H2             -0.8075536286       20.1292470999       75.0491190930  TIP3      6289            0.0000000000
     70383      7650  TIP3      OH2            -3.0381932376       22.4195136779       75.6675598723  TIP3      6290            0.0000000000
     70384      7650  TIP3      H1             -2.4595421457       22.1845625590       74.9101773126  TIP3      6290            0.0000000000
     70385      7650  TIP3      H2             -2.5815782549       23.2260980874       75.9481731404  TIP3      6290            0.0000000000
     70386      7651  TIP3      OH2            14.9914895115       18.6874007066       81.9899839546  TIP3      6291            0.0000000000
     70387      7651  TIP3      H1             14.0822322276       19.0408845628       81.9097441690  TIP3      6291            0.0000000000
     70388      7651  TIP3      H2             15.0905041316       18.2533687977       81.1353823245  TIP3      6291            0.0000000000
     70389      7652  TIP3      OH2            15.0205696726       18.6720974301       66.6451957935  TIP3      6292            0.0000000000
     70390      7652  TIP3      H1             15.4367265440       17.9495284017       66.1427724257  TIP3      6292            0.0000000000
     70391      7652  TIP3      H2             15.7324411311       19.3338018281       66.6561211287  TIP3      6292            0.0000000000
     70392      7653  TIP3      OH2            -2.7014306846       18.6675904952       69.7286260748  TIP3      6293            0.0000000000
     70393      7653  TIP3      H1             -3.6404723134       18.8796731383       69.6132253783  TIP3      6293            0.0000000000
     70394      7653  TIP3      H2             -2.2630541253       19.1739838509       69.0485143826  TIP3      6293            0.0000000000
     70395      7654  TIP3      OH2            -2.7713535589       17.3019900577       77.9916817961  TIP3      6294            0.0000000000
     70396      7654  TIP3      H1             -3.3428203470       17.2193193295       78.7689737907  TIP3      6294            0.0000000000
     70397      7654  TIP3      H2             -3.1160942686       18.0894316553       77.5232015534  TIP3      6294            0.0000000000
     70398      7655  TIP3      OH2            14.0373587902       16.8258252306       79.7876724427  TIP3      6295            0.0000000000
     70399      7655  TIP3      H1             13.1921676236       17.1423359456       79.4133401162  TIP3      6295            0.0000000000
     70400      7655  TIP3      H2             14.1640262675       16.0362819566       79.2445722995  TIP3      6295            0.0000000000
     70401      7656  TIP3      OH2            -0.1616704849       34.7958745683       78.5173244358  TIP3      6296            0.0000000000
     70402      7656  TIP3      H1             -0.8828038657       35.2543459132       78.0820849021  TIP3      6296            0.0000000000
     70403      7656  TIP3      H2             -0.4724181155       34.5756405280       79.3979585518  TIP3      6296            0.0000000000
     70404      7657  TIP3      OH2             2.3280874936       34.3222150884       77.6037571740  TIP3      6297            0.0000000000
     70405      7657  TIP3      H1              1.4392008565       34.5035004662       77.9511833974  TIP3      6297            0.0000000000
     70406      7657  TIP3      H2              2.3195534561       34.9201582027       76.8256982594  TIP3      6297            0.0000000000
     70407      7658  TIP3      OH2            12.5817796791       16.3972418426       74.2107760658  TIP3      6298            0.0000000000
     70408      7658  TIP3      H1             13.2016792378       16.8803858614       73.6243655658  TIP3      6298            0.0000000000
     70409      7658  TIP3      H2             11.7105104523       16.6556686315       73.9249274136  TIP3      6298            0.0000000000
     70410      7659  TIP3      OH2            14.2583680677       17.6079083530       72.4072016524  TIP3      6299            0.0000000000
     70411      7659  TIP3      H1             14.9362971474       16.9962561911       72.0267914928  TIP3      6299            0.0000000000
     70412      7659  TIP3      H2             14.7823076678       18.4005858123       72.5034515714  TIP3      6299            0.0000000000
     70413      7660  TIP3      OH2            -0.2412979325       16.9129635050       71.9591979518  TIP3      6300            0.0000000000
     70414      7660  TIP3      H1             -1.0201603192       16.6957142449       71.4148280801  TIP3      6300            0.0000000000
     70415      7660  TIP3      H2              0.2353884823       16.0773033218       71.9160560071  TIP3      6300            0.0000000000
     70416      7661  TIP3      OH2            -1.4658347895       16.6520734086       67.7978892544  TIP3      6301            0.0000000000
     70417      7661  TIP3      H1             -0.9368539038       17.2178061487       67.2098070312  TIP3      6301            0.0000000000
     70418      7661  TIP3      H2             -2.0451175756       17.2612267768       68.2627443654  TIP3      6301            0.0000000000
     70419      7662  TIP3      OH2            11.2737276397       16.8841108989       69.0163774073  TIP3      6302            0.0000000000
     70420      7662  TIP3      H1             10.5116503773       17.4737034115       68.8796316570  TIP3      6302            0.0000000000
     70421      7662  TIP3      H2             10.8321838703       16.0276330995       69.2246814706  TIP3      6302            0.0000000000
     70422      7663  TIP3      OH2            10.1171433731       16.1361311252       83.1668499420  TIP3      6303            0.0000000000
     70423      7663  TIP3      H1             10.2164508248       15.6310684479       83.9805528095  TIP3      6303            0.0000000000
     70424      7663  TIP3      H2             11.0265546941       16.0849156989       82.8072698315  TIP3      6303            0.0000000000
     70425      7664  TIP3      OH2            24.9977118918       27.7127622261       75.7188380517  TIP3      6304            0.0000000000
     70426      7664  TIP3      H1             25.3092186959       27.0785005385       75.0709584519  TIP3      6304            0.0000000000
     70427      7664  TIP3      H2             25.7396455280       27.8572545394       76.3058245158  TIP3      6304            0.0000000000
     70428      7665  TIP3      OH2            28.1092941898       22.1238376628       76.0635990166  TIP3      6305            0.0000000000
     70429      7665  TIP3      H1             28.3208060832       21.1985656750       76.0304991706  TIP3      6305            0.0000000000
     70430      7665  TIP3      H2             28.0473909973       22.3557720744       75.1325967445  TIP3      6305            0.0000000000
     70431      7666  TIP3      OH2            21.3264850356       20.2338626891       73.2925013506  TIP3      6306            0.0000000000
     70432      7666  TIP3      H1             21.3494953732       21.0796072386       72.8459716340  TIP3      6306            0.0000000000
     70433      7666  TIP3      H2             20.8433354319       19.7051859046       72.6158407104  TIP3      6306            0.0000000000
     70434      7667  TIP3      OH2            17.0752439696       28.4329751955       69.2047136126  TIP3      6307            0.0000000000
     70435      7667  TIP3      H1             17.0065067710       28.7192148691       68.2800821991  TIP3      6307            0.0000000000
     70436      7667  TIP3      H2             17.2786272859       29.2630818118       69.6520014911  TIP3      6307            0.0000000000
     70437      7668  TIP3      OH2            24.0968053856       16.4994557770       74.8290680243  TIP3      6308            0.0000000000
     70438      7668  TIP3      H1             23.9821218234       15.5371280464       74.7283080503  TIP3      6308            0.0000000000
     70439      7668  TIP3      H2             23.2094825595       16.7944466076       75.1027274486  TIP3      6308            0.0000000000
     70440      7669  TIP3      OH2            33.7642689745       24.6936225622       77.6137647660  TIP3      6309            0.0000000000
     70441      7669  TIP3      H1             33.0920973441       25.3958280057       77.6834705703  TIP3      6309            0.0000000000
     70442      7669  TIP3      H2             34.2767882212       24.8681750999       76.8099024091  TIP3      6309            0.0000000000
     70443      7670  TIP3      OH2            29.8274844256       25.4362785604       70.2481858101  TIP3      6310            0.0000000000
     70444      7670  TIP3      H1             29.1292785146       25.7626052745       70.8399687386  TIP3      6310            0.0000000000
     70445      7670  TIP3      H2             30.2892374591       24.7736159871       70.7592529951  TIP3      6310            0.0000000000
     70446      7671  TIP3      OH2            27.8709883491       30.3351968130       76.5387133241  TIP3      6311            0.0000000000
     70447      7671  TIP3      H1             27.9041960562       31.0290840560       77.2117040016  TIP3      6311            0.0000000000
     70448      7671  TIP3      H2             27.9530567987       29.5353339875       77.0538198141  TIP3      6311            0.0000000000
     70449      7672  TIP3      OH2            22.7336979144       29.3192232589       80.4840445247  TIP3      6312            0.0000000000
     70450      7672  TIP3      H1             22.3722185709       30.0993564841       80.9510419706  TIP3      6312            0.0000000000
     70451      7672  TIP3      H2             22.0658215396       29.1743123588       79.8027745774  TIP3      6312            0.0000000000
     70452      7673  TIP3      OH2            28.7276029390       24.6558170346       67.8929400705  TIP3      6313            0.0000000000
     70453      7673  TIP3      H1             29.2282529402       24.8811986898       68.7150273285  TIP3      6313            0.0000000000
     70454      7673  TIP3      H2             29.1423256112       25.1965497078       67.2218978839  TIP3      6313            0.0000000000
     70455      7674  TIP3      OH2            26.4484620681       31.4539368716       71.3178945852  TIP3      6314            0.0000000000
     70456      7674  TIP3      H1             26.8512923438       31.7032539428       72.1452003940  TIP3      6314            0.0000000000
     70457      7674  TIP3      H2             25.8505775957       32.1769837852       71.1228632874  TIP3      6314            0.0000000000
     70458      7675  TIP3      OH2            20.9827320248       31.3451215935       81.2811717772  TIP3      6315            0.0000000000
     70459      7675  TIP3      H1             20.9270421132       31.2751452306       80.3074828249  TIP3      6315            0.0000000000
     70460      7675  TIP3      H2             20.0400451001       31.2374892031       81.5190771732  TIP3      6315            0.0000000000
     70461      7676  TIP3      OH2            16.5212128823       27.5727169224       78.6625959120  TIP3      6316            0.0000000000
     70462      7676  TIP3      H1             16.0456986526       27.5618911974       77.7992761134  TIP3      6316            0.0000000000
     70463      7676  TIP3      H2             16.5883564552       26.6262429865       78.8295198747  TIP3      6316            0.0000000000
     70464      7677  TIP3      OH2            16.3048729980       30.3144373384       75.5222492007  TIP3      6317            0.0000000000
     70465      7677  TIP3      H1             17.2570642166       30.2602033920       75.4263922992  TIP3      6317            0.0000000000
     70466      7677  TIP3      H2             16.1956244748       31.1818932179       75.9377674050  TIP3      6317            0.0000000000
     70467      7678  TIP3      OH2            25.4584308292       30.6384367759       79.9534840965  TIP3      6318            0.0000000000
     70468      7678  TIP3      H1             25.5563670630       31.4462143732       80.4994863577  TIP3      6318            0.0000000000
     70469      7678  TIP3      H2             24.6155266298       30.2538980878       80.2392008597  TIP3      6318            0.0000000000
     70470      7679  TIP3      OH2            25.8655219178       34.3905710580       69.8223215760  TIP3      6319            0.0000000000
     70471      7679  TIP3      H1             25.8083153749       34.2378613368       68.8620219737  TIP3      6319            0.0000000000
     70472      7679  TIP3      H2             25.9323714145       35.3443590682       69.9132130334  TIP3      6319            0.0000000000
     70473      7680  TIP3      OH2            19.5280644880       33.1684806694       71.5984262445  TIP3      6320            0.0000000000
     70474      7680  TIP3      H1             19.6971743181       32.7897484163       72.4857513729  TIP3      6320            0.0000000000
     70475      7680  TIP3      H2             18.6742473906       32.7912074279       71.3512132785  TIP3      6320            0.0000000000
     70476      7681  TIP3      OH2            28.6124935629       33.5775176925       69.7857830595  TIP3      6321            0.0000000000
     70477      7681  TIP3      H1             27.6437463292       33.5026788426       69.7620212108  TIP3      6321            0.0000000000
     70478      7681  TIP3      H2             28.8640951289       32.7015897051       70.0934403596  TIP3      6321            0.0000000000
     70479      7682  TIP3      OH2            18.8034789623       28.9436757739       79.6042777328  TIP3      6322            0.0000000000
     70480      7682  TIP3      H1             19.0118422531       28.5885717396       80.4714686365  TIP3      6322            0.0000000000
     70481      7682  TIP3      H2             17.9696720547       28.4941724935       79.3703790554  TIP3      6322            0.0000000000
     70482      7683  TIP3      OH2            21.4641696855       17.3788985197       75.6156531560  TIP3      6323            0.0000000000
     70483      7683  TIP3      H1             20.5705294293       17.2539068493       75.1971384097  TIP3      6323            0.0000000000
     70484      7683  TIP3      H2             21.3487392644       18.2584796627       75.9803996015  TIP3      6323            0.0000000000
     70485      7684  TIP3      OH2            26.1016106470       17.0450328819       78.9133950367  TIP3      6324            0.0000000000
     70486      7684  TIP3      H1             26.5031429557       16.6782894329       79.7145667561  TIP3      6324            0.0000000000
     70487      7684  TIP3      H2             25.1403897653       16.9139649404       79.0595646708  TIP3      6324            0.0000000000
     70488      7685  TIP3      OH2            27.0474933764       23.0198008509       70.4262272779  TIP3      6325            0.0000000000
     70489      7685  TIP3      H1             26.6362304134       23.8046303077       70.0607813655  TIP3      6325            0.0000000000
     70490      7685  TIP3      H2             27.7474154541       22.8016296717       69.7813715011  TIP3      6325            0.0000000000
     70491      7686  TIP3      OH2            17.0833746226       20.4381072411       67.7666344635  TIP3      6326            0.0000000000
     70492      7686  TIP3      H1             17.6003210807       21.0796157057       67.2771698309  TIP3      6326            0.0000000000
     70493      7686  TIP3      H2             16.4418380111       21.0566863169       68.1852646431  TIP3      6326            0.0000000000
     70494      7687  TIP3      OH2            24.0959252819       19.9287144119       72.6584360075  TIP3      6327            0.0000000000
     70495      7687  TIP3      H1             23.1749296802       20.0245113335       72.9524166158  TIP3      6327            0.0000000000
     70496      7687  TIP3      H2             24.5904589317       19.9450454592       73.4865815196  TIP3      6327            0.0000000000
     70497      7688  TIP3      OH2            20.3935890772       18.9311325933       70.9992960199  TIP3      6328            0.0000000000
     70498      7688  TIP3      H1             20.0920308022       18.0085064639       70.9825806153  TIP3      6328            0.0000000000
     70499      7688  TIP3      H2             21.1806622605       18.9023587501       70.4464660917  TIP3      6328            0.0000000000
     70500      7689  TIP3      OH2            31.7694482271       26.5491670342       77.4699543282  TIP3      6329            0.0000000000
     70501      7689  TIP3      H1             32.3429291208       27.0128432379       76.8694388118  TIP3      6329            0.0000000000
     70502      7689  TIP3      H2             30.9233805351       26.5631937661       77.0167503110  TIP3      6329            0.0000000000
     70503      7690  TIP3      OH2            28.3963760031       20.1507263488       66.8974961423  TIP3      6330            0.0000000000
     70504      7690  TIP3      H1             27.4832531136       20.3446646777       66.7007371957  TIP3      6330            0.0000000000
     70505      7690  TIP3      H2             28.7686467297       21.0055605764       67.1851504281  TIP3      6330            0.0000000000
     70506      7691  TIP3      OH2            29.1809520072       22.0897643593       68.5544599434  TIP3      6331            0.0000000000
     70507      7691  TIP3      H1             30.0852709757       21.8997171898       68.8888498094  TIP3      6331            0.0000000000
     70508      7691  TIP3      H2             29.2686140362       22.8863958720       68.0095831986  TIP3      6331            0.0000000000
     70509      7692  TIP3      OH2            26.7336861832       28.7625807546       67.9283760812  TIP3      6332            0.0000000000
     70510      7692  TIP3      H1             26.4091925057       29.6622290418       68.1182209578  TIP3      6332            0.0000000000
     70511      7692  TIP3      H2             25.9589534358       28.2119191838       67.9208458723  TIP3      6332            0.0000000000
     70512      7693  TIP3      OH2            22.0482627433       30.2296368707       71.9264692818  TIP3      6333            0.0000000000
     70513      7693  TIP3      H1             22.5997702561       30.9610716564       71.6290004371  TIP3      6333            0.0000000000
     70514      7693  TIP3      H2             21.2085878331       30.4067758623       71.5021343300  TIP3      6333            0.0000000000
     70515      7694  TIP3      OH2            23.9405146515       32.0251515090       77.7670202202  TIP3      6334            0.0000000000
     70516      7694  TIP3      H1             24.3945206550       32.8319190493       77.4916597245  TIP3      6334            0.0000000000
     70517      7694  TIP3      H2             24.5639939142       31.6776666017       78.4323624690  TIP3      6334            0.0000000000
     70518      7695  TIP3      OH2            22.1740522979       32.8789077060       70.9013244174  TIP3      6335            0.0000000000
     70519      7695  TIP3      H1             21.2109068474       32.9961451725       71.0329226581  TIP3      6335            0.0000000000
     70520      7695  TIP3      H2             22.5358780871       33.6695619903       71.3171600369  TIP3      6335            0.0000000000
     70521      7696  TIP3      OH2            17.9513549220       31.6533017304       77.7096979711  TIP3      6336            0.0000000000
     70522      7696  TIP3      H1             18.2091278609       30.7279340706       77.7627305079  TIP3      6336            0.0000000000
     70523      7696  TIP3      H2             18.2541895478       31.9717120159       78.5724041843  TIP3      6336            0.0000000000
     70524      7697  TIP3      OH2            22.7772503487       29.7017117923       67.4208073035  TIP3      6337            0.0000000000
     70525      7697  TIP3      H1             22.9738004730       29.1953369908       68.2149938065  TIP3      6337            0.0000000000
     70526      7697  TIP3      H2             22.7946221970       30.6303469762       67.7329375037  TIP3      6337            0.0000000000
     70527      7698  TIP3      OH2            27.8261481520       19.2635493930       69.3832698084  TIP3      6338            0.0000000000
     70528      7698  TIP3      H1             28.0731403822       19.6668407288       68.5185260017  TIP3      6338            0.0000000000
     70529      7698  TIP3      H2             28.4506252435       19.7057519389       69.9565681803  TIP3      6338            0.0000000000
     70530      7699  TIP3      OH2            25.5499455514       31.4307406421       68.2510174821  TIP3      6339            0.0000000000
     70531      7699  TIP3      H1             24.6817114037       31.8635880831       68.2187755365  TIP3      6339            0.0000000000
     70532      7699  TIP3      H2             26.0336926759       31.8706567703       67.5497145972  TIP3      6339            0.0000000000
     70533      7700  TIP3      OH2            25.0513213512       21.0052220621       70.1682572006  TIP3      6340            0.0000000000
     70534      7700  TIP3      H1             25.8703022635       21.5274089616       70.2204836645  TIP3      6340            0.0000000000
     70535      7700  TIP3      H2             24.8070940686       20.8404124509       71.0943539533  TIP3      6340            0.0000000000
     70536      7701  TIP3      OH2            25.9062304422       18.0496229338       71.0675310663  TIP3      6341            0.0000000000
     70537      7701  TIP3      H1             25.5687852828       18.7093296724       71.6967332932  TIP3      6341            0.0000000000
     70538      7701  TIP3      H2             26.5823032224       18.5677594531       70.5679343946  TIP3      6341            0.0000000000
     70539      7702  TIP3      OH2            22.9024026080       32.4155562712       68.1710174214  TIP3      6342            0.0000000000
     70540      7702  TIP3      H1             23.0333535984       33.2362360224       67.6506090736  TIP3      6342            0.0000000000
     70541      7702  TIP3      H2             22.6261382583       32.7342883586       69.0506421575  TIP3      6342            0.0000000000
     70542      7703  TIP3      OH2            19.0258099998       16.9985835428       74.6656776077  TIP3      6343            0.0000000000
     70543      7703  TIP3      H1             18.7668131423       17.0899185127       73.7242778208  TIP3      6343            0.0000000000
     70544      7703  TIP3      H2             18.5394118262       16.1923335090       74.9117394031  TIP3      6343            0.0000000000
     70545      7704  TIP3      OH2            17.1916921212       33.6140920982       82.0936795983  TIP3      6344            0.0000000000
     70546      7704  TIP3      H1             17.7697218336       33.3849105260       82.8478998945  TIP3      6344            0.0000000000
     70547      7704  TIP3      H2             16.7580420783       32.7703548053       81.9134941328  TIP3      6344            0.0000000000
     70548      7705  TIP3      OH2            21.7848120505       32.4737390520       83.7478395571  TIP3      6345            0.0000000000
     70549      7705  TIP3      H1             22.5737645209       32.0350112355       84.0666789333  TIP3      6345            0.0000000000
     70550      7705  TIP3      H2             21.7606796577       32.2578536274       82.7940691972  TIP3      6345            0.0000000000
     70551      7706  TIP3      OH2            22.6276586742       19.2979561727       78.3888526971  TIP3      6346            0.0000000000
     70552      7706  TIP3      H1             23.1399100788       19.8006367636       77.7435811427  TIP3      6346            0.0000000000
     70553      7706  TIP3      H2             21.7376912837       19.2510841165       78.0246834939  TIP3      6346            0.0000000000
     70554      7707  TIP3      OH2            28.6273387189       22.5574032677       83.6746124578  TIP3      6347            0.0000000000
     70555      7707  TIP3      H1             28.7906195418       21.6146337673       83.7052745110  TIP3      6347            0.0000000000
     70556      7707  TIP3      H2             29.4792001357       23.0033000778       83.7310564251  TIP3      6347            0.0000000000
     70557      7708  TIP3      OH2            23.4412575755       16.7470268959       78.8711637911  TIP3      6348            0.0000000000
     70558      7708  TIP3      H1             23.2921939676       17.7126620850       78.7649166042  TIP3      6348            0.0000000000
     70559      7708  TIP3      H2             22.6960371058       16.3767988699       78.3659351889  TIP3      6348            0.0000000000
     70560      7709  TIP3      OH2            23.7369391136       16.1518393430       81.5355415144  TIP3      6349            0.0000000000
     70561      7709  TIP3      H1             24.3692630856       15.3963894362       81.5073793017  TIP3      6349            0.0000000000
     70562      7709  TIP3      H2             23.5493961330       16.2751495782       80.5838874615  TIP3      6349            0.0000000000
     70563      7710  TIP3      OH2            24.0166914350       17.7717425376       83.6221218463  TIP3      6350            0.0000000000
     70564      7710  TIP3      H1             23.8594001485       17.2368333717       82.8034088576  TIP3      6350            0.0000000000
     70565      7710  TIP3      H2             23.3974872218       18.4975707202       83.5244072898  TIP3      6350            0.0000000000
     70566      7711  TIP3      OH2            23.5332346239       34.6708772081       66.8079013603  TIP3      6351            0.0000000000
     70567      7711  TIP3      H1             24.4961578464       34.7687265245       66.8949341924  TIP3      6351            0.0000000000
     70568      7711  TIP3      H2             23.2830702811       35.2982848303       66.1225957730  TIP3      6351            0.0000000000
     70569      7712  TIP3      OH2            17.1176621479       29.2349586737       66.3104694336  TIP3      6352            0.0000000000
     70570      7712  TIP3      H1             18.0688740782       29.3510893649       66.5012148898  TIP3      6352            0.0000000000
     70571      7712  TIP3      H2             17.1678627245       28.6332856382       65.5580197576  TIP3      6352            0.0000000000
     70572      7713  TIP3      OH2            15.8648401297       34.6405048683       71.2370467405  TIP3      6353            0.0000000000
     70573      7713  TIP3      H1             15.1083670172       34.1887412369       70.8357936184  TIP3      6353            0.0000000000
     70574      7713  TIP3      H2             16.0921721524       34.0282293193       71.9477599629  TIP3      6353            0.0000000000
     70575      7714  TIP3      OH2            16.7361111339       25.8191053871       75.6016476447  TIP3      6354            0.0000000000
     70576      7714  TIP3      H1             16.9176578835       25.7484679651       74.6556820322  TIP3      6354            0.0000000000
     70577      7714  TIP3      H2             17.6067115516       25.6472543953       75.9797480295  TIP3      6354            0.0000000000
     70578      7715  TIP3      OH2            32.5465874177       25.7373146790       81.2173206406  TIP3      6355            0.0000000000
     70579      7715  TIP3      H1             33.1508515809       24.9948361480       81.4120172987  TIP3      6355            0.0000000000
     70580      7715  TIP3      H2             33.1489139886       26.4770552959       81.2213225211  TIP3      6355            0.0000000000
     70581      7716  TIP3      OH2            34.0357912590       23.5900542751       81.8800672092  TIP3      6356            0.0000000000
     70582      7716  TIP3      H1             33.1825472357       23.1886593193       81.7042396745  TIP3      6356            0.0000000000
     70583      7716  TIP3      H2             34.6567337955       22.8609471368       81.7613301627  TIP3      6356            0.0000000000
     70584      7717  TIP3      OH2            31.3745099256       21.3304019238       70.0238554008  TIP3      6357            0.0000000000
     70585      7717  TIP3      H1             31.6593856968       20.4182098931       70.1393862950  TIP3      6357            0.0000000000
     70586      7717  TIP3      H2             32.1441663846       21.7366482752       69.6161291291  TIP3      6357            0.0000000000
     70587      7718  TIP3      OH2            32.0274483568       21.8696660496       75.4576833670  TIP3      6358            0.0000000000
     70588      7718  TIP3      H1             32.9343143319       22.1682313583       75.4634699476  TIP3      6358            0.0000000000
     70589      7718  TIP3      H2             31.7792104869       22.0206591068       76.3884026823  TIP3      6358            0.0000000000
     70590      7719  TIP3      OH2            32.0327660989       22.6426450422       78.2002557878  TIP3      6359            0.0000000000
     70591      7719  TIP3      H1             31.2037912358       22.9276707191       78.5933924808  TIP3      6359            0.0000000000
     70592      7719  TIP3      H2             32.5226107657       23.4738425960       78.0519907913  TIP3      6359            0.0000000000
     70593      7720  TIP3      OH2            16.1703413591       18.6577970317       69.6828948816  TIP3      6360            0.0000000000
     70594      7720  TIP3      H1             15.2315141467       18.8675489446       69.5977190968  TIP3      6360            0.0000000000
     70595      7720  TIP3      H2             16.6050921603       19.2004681377       69.0077637508  TIP3      6360            0.0000000000
     70596      7721  TIP3      OH2            16.1409754448       17.3429431160       78.0418344416  TIP3      6361            0.0000000000
     70597      7721  TIP3      H1             15.4903077522       17.1966256464       78.7486617591  TIP3      6361            0.0000000000
     70598      7721  TIP3      H2             15.6805623979       18.0028216018       77.4969279695  TIP3      6361            0.0000000000
     70599      7722  TIP3      OH2            18.3452929510       30.4735637089       82.2416880013  TIP3      6362            0.0000000000
     70600      7722  TIP3      H1             17.5311220747       30.7457097662       81.7814950385  TIP3      6362            0.0000000000
     70601      7722  TIP3      H2             18.0801997508       30.4714990387       83.1712009376  TIP3      6362            0.0000000000
     70602      7723  TIP3      OH2            21.2502112053       31.5144459520       78.4523755428  TIP3      6363            0.0000000000
     70603      7723  TIP3      H1             20.8950859914       32.3782317544       78.2257599069  TIP3      6363            0.0000000000
     70604      7723  TIP3      H2             22.1921114291       31.6273564472       78.2018163139  TIP3      6363            0.0000000000
     70605      7724  TIP3      OH2            25.6119565102       32.9199606586       81.4529224958  TIP3      6364            0.0000000000
     70606      7724  TIP3      H1             25.7913360273       32.6259287512       82.3507248007  TIP3      6364            0.0000000000
     70607      7724  TIP3      H2             26.4739201878       33.2486920279       81.1439866553  TIP3      6364            0.0000000000
     70608      7725  TIP3      OH2            18.6550522378       34.7738728723       78.4824049387  TIP3      6365            0.0000000000
     70609      7725  TIP3      H1             17.9112246094       35.2439180564       78.0851405819  TIP3      6365            0.0000000000
     70610      7725  TIP3      H2             18.3690836594       34.5766723125       79.3818312883  TIP3      6365            0.0000000000
     70611      7726  TIP3      OH2            18.1100352082       33.4343528734       75.4178173992  TIP3      6366            0.0000000000
     70612      7726  TIP3      H1             18.0794276078       32.9911100666       76.2864525778  TIP3      6366            0.0000000000
     70613      7726  TIP3      H2             18.9299835953       33.0809312101       75.0287471850  TIP3      6366            0.0000000000
     70614      7727  TIP3      OH2            20.1906760650       32.1336335822       74.0827522433  TIP3      6367            0.0000000000
     70615      7727  TIP3      H1             20.0679209666       31.2017422401       74.2860244822  TIP3      6367            0.0000000000
     70616      7727  TIP3      H2             21.0669455477       32.3175985903       74.5124110557  TIP3      6367            0.0000000000
     70617      7728  TIP3      OH2            22.6808256308       32.5442782879       74.9600084355  TIP3      6368            0.0000000000
     70618      7728  TIP3      H1             23.0497290354       31.7136634866       74.6572012811  TIP3      6368            0.0000000000
     70619      7728  TIP3      H2             22.8981311553       32.5667824007       75.8985802008  TIP3      6368            0.0000000000
     70620      7729  TIP3      OH2            18.6411661370       16.8833000401       71.9407759294  TIP3      6369            0.0000000000
     70621      7729  TIP3      H1             17.8283507176       16.6959561727       71.4375185312  TIP3      6369            0.0000000000
     70622      7729  TIP3      H2             19.1203311127       16.0430005320       71.8927280473  TIP3      6369            0.0000000000
     70623      7730  TIP3      OH2            17.3987479149       16.6777432817       67.6366976894  TIP3      6370            0.0000000000
     70624      7730  TIP3      H1             17.9168569100       17.3428977284       67.1660528224  TIP3      6370            0.0000000000
     70625      7730  TIP3      H2             16.8513300632       17.2214861581       68.2353991856  TIP3      6370            0.0000000000
     70626      7731  TIP3      OH2            23.1412225731       16.7947079579       71.7312638796  TIP3      6371            0.0000000000
     70627      7731  TIP3      H1             24.0245768338       17.2017750485       71.6751674078  TIP3      6371            0.0000000000
     70628      7731  TIP3      H2             23.0736140117       16.6525310623       72.6724690725  TIP3      6371            0.0000000000
     70629      7732  TIP3      OH2            17.3332047231       32.6298159461       68.6788895770  TIP3      6372            0.0000000000
     70630      7732  TIP3      H1             16.6771134263       32.5789434985       67.9664900780  TIP3      6372            0.0000000000
     70631      7732  TIP3      H2             17.3560037383       33.5784530844       68.8429718247  TIP3      6372            0.0000000000
     70632      7733  TIP3      OH2            24.3005460028       18.8676174642       68.5882024418  TIP3      6373            0.0000000000
     70633      7733  TIP3      H1             24.5060329511       18.2711706849       69.3158371435  TIP3      6373            0.0000000000
     70634      7733  TIP3      H2             24.3265352157       19.7359925198       69.0501502845  TIP3      6373            0.0000000000
     70635      7734  TIP3      OH2            26.2014586736       33.9243943259       66.9847212656  TIP3      6374            0.0000000000
     70636      7734  TIP3      H1             27.1067989774       34.2037499169       66.8339605333  TIP3      6374            0.0000000000
     70637      7734  TIP3      H2             25.9887427737       33.3794369928       66.2190268799  TIP3      6374            0.0000000000
     70638      7735  TIP3      OH2            18.5182020806       17.4347453959       81.3928882700  TIP3      6375            0.0000000000
     70639      7735  TIP3      H1             18.1771631817       16.6473258607       81.8409574993  TIP3      6375            0.0000000000
     70640      7735  TIP3      H2             19.4312493242       17.4524989077       81.7477799235  TIP3      6375            0.0000000000
     70641      7736  TIP3      OH2            20.5652976963       16.7797127913       82.9892084497  TIP3      6376            0.0000000000
     70642      7736  TIP3      H1             21.4520779650       16.4458154844       82.8033036381  TIP3      6376            0.0000000000
     70643      7736  TIP3      H2             20.1715482343       16.0185662096       83.4508740054  TIP3      6376            0.0000000000
     70644      7737  TIP3      OH2            19.1474378740       33.5244333464       65.6478090339  TIP3      6377            0.0000000000
     70645      7737  TIP3      H1             18.9014599928       33.8300597394       66.5308964023  TIP3      6377            0.0000000000
     70646      7737  TIP3      H2             19.9467541594       33.0186661979       65.8089428737  TIP3      6377            0.0000000000
     70647      7738  TIP3      OH2            38.7071442211       29.4047925484       75.3759899403  TIP3      6378            0.0000000000
     70648      7738  TIP3      H1             38.4109802939       28.5370580688       75.0531549605  TIP3      6378            0.0000000000
     70649      7738  TIP3      H2             39.6759918614       29.2385577903       75.4637948047  TIP3      6378            0.0000000000
     70650      7739  TIP3      OH2            35.3848732424       22.9841560218       70.7712217022  TIP3      6379            0.0000000000
     70651      7739  TIP3      H1             34.9820917731       23.8619560463       70.8070062809  TIP3      6379            0.0000000000
     70652      7739  TIP3      H2             34.7705733513       22.4584844428       70.2698859418  TIP3      6379            0.0000000000
     70653      7740  TIP3      OH2            40.0093837320       20.3881864776       73.9035931444  TIP3      6380            0.0000000000
     70654      7740  TIP3      H1             40.1931665069       21.1167498502       73.2369980313  TIP3      6380            0.0000000000
     70655      7740  TIP3      H2             39.7856195104       19.8007914427       73.1538953151  TIP3      6380            0.0000000000
     70656      7741  TIP3      OH2            38.9843484273       19.1276905906       77.3490966645  TIP3      6381            0.0000000000
     70657      7741  TIP3      H1             38.8093221916       19.6784218737       76.5796022347  TIP3      6381            0.0000000000
     70658      7741  TIP3      H2             38.3444585298       19.3899340771       78.0213032017  TIP3      6381            0.0000000000
     70659      7742  TIP3      OH2            39.7605704028       28.8662583461       78.2497688169  TIP3      6382            0.0000000000
     70660      7742  TIP3      H1             39.8664007144       29.8236782860       78.1090096171  TIP3      6382            0.0000000000
     70661      7742  TIP3      H2             38.9938036709       28.8365591486       78.8604843230  TIP3      6382            0.0000000000
     70662      7743  TIP3      OH2            36.0509259652       28.4282322869       69.1574759808  TIP3      6383            0.0000000000
     70663      7743  TIP3      H1             35.7813508717       28.7540866341       68.2827053182  TIP3      6383            0.0000000000
     70664      7743  TIP3      H2             36.1314288116       29.2743036811       69.6606444687  TIP3      6383            0.0000000000
     70665      7744  TIP3      OH2            40.0670463335       26.1458886972       72.1986330486  TIP3      6384            0.0000000000
     70666      7744  TIP3      H1             39.9839564352       25.8399831421       71.2694363133  TIP3      6384            0.0000000000
     70667      7744  TIP3      H2             40.8734757011       25.6478944258       72.4629808666  TIP3      6384            0.0000000000
     70668      7745  TIP3      OH2            38.5129073667       25.5288744545       79.7249326670  TIP3      6385            0.0000000000
     70669      7745  TIP3      H1             38.5291384210       26.1709349488       80.4435009723  TIP3      6385            0.0000000000
     70670      7745  TIP3      H2             37.5990781057       25.5927373748       79.4238539370  TIP3      6385            0.0000000000
     70671      7746  TIP3      OH2            39.8206114800       31.3577195262       81.2281812669  TIP3      6386            0.0000000000
     70672      7746  TIP3      H1             39.7774060511       31.2018560552       80.2609886901  TIP3      6386            0.0000000000
     70673      7746  TIP3      H2             38.8998088591       31.2223622145       81.5033160268  TIP3      6386            0.0000000000
     70674      7747  TIP3      OH2            39.2876759287       25.1867950860       69.7850700425  TIP3      6387            0.0000000000
     70675      7747  TIP3      H1             39.0264948089       25.9588620354       69.2558349596  TIP3      6387            0.0000000000
     70676      7747  TIP3      H2             38.6233747312       24.5478690868       69.5443691819  TIP3      6387            0.0000000000
     70677      7748  TIP3      OH2            35.4032211437       27.6121632466       78.6052312436  TIP3      6388            0.0000000000
     70678      7748  TIP3      H1             34.9297966871       27.5140552298       77.7805139418  TIP3      6388            0.0000000000
     70679      7748  TIP3      H2             35.4416345713       26.6719757848       78.8963773534  TIP3      6388            0.0000000000
     70680      7749  TIP3      OH2            39.0586583394       33.0208925314       70.9244942797  TIP3      6389            0.0000000000
     70681      7749  TIP3      H1             39.0242702598       32.9698402132       71.9315998038  TIP3      6389            0.0000000000
     70682      7749  TIP3      H2             38.0859217674       33.0621736204       70.8781400589  TIP3      6389            0.0000000000
     70683      7750  TIP3      OH2            37.5411396068       28.9608531829       79.6760553596  TIP3      6390            0.0000000000
     70684      7750  TIP3      H1             37.8686605602       28.4990386368       80.4635800549  TIP3      6390            0.0000000000
     70685      7750  TIP3      H2             36.7652478409       28.4521963317       79.3744168774  TIP3      6390            0.0000000000
     70686      7751  TIP3      OH2            40.2778721412       17.3438014375       75.5744972047  TIP3      6391            0.0000000000
     70687      7751  TIP3      H1             39.3850574159       17.2956527561       75.1703172342  TIP3      6391            0.0000000000
     70688      7751  TIP3      H2             40.2601343792       18.2360357606       75.9401322017  TIP3      6391            0.0000000000
     70689      7752  TIP3      OH2            40.3259002295       22.4243419591       77.4007781377  TIP3      6392            0.0000000000
     70690      7752  TIP3      H1             39.4072772036       22.2633546855       77.5301812730  TIP3      6392            0.0000000000
     70691      7752  TIP3      H2             40.2918612768       23.0348271888       76.6554673621  TIP3      6392            0.0000000000
     70692      7753  TIP3      OH2            39.9883452125       22.2122566473       72.0273278294  TIP3      6393            0.0000000000
     70693      7753  TIP3      H1             39.2086232012       22.2258399747       71.4844066576  TIP3      6393            0.0000000000
     70694      7753  TIP3      H2             40.7049789517       22.1507480081       71.3589881477  TIP3      6393            0.0000000000
     70695      7754  TIP3      OH2            40.1018839699       22.7127941676       66.7427797346  TIP3      6394            0.0000000000
     70696      7754  TIP3      H1             39.5377447872       22.4442850377       66.0070226165  TIP3      6394            0.0000000000
     70697      7754  TIP3      H2             40.9105619549       23.0235858804       66.3220502484  TIP3      6394            0.0000000000
     70698      7755  TIP3      OH2            38.2673292865       27.3390747853       81.8336960523  TIP3      6395            0.0000000000
     70699      7755  TIP3      H1             38.9505042624       27.6421408354       82.4430591211  TIP3      6395            0.0000000000
     70700      7755  TIP3      H2             37.4789622943       27.4957483151       82.3626416228  TIP3      6395            0.0000000000
     70701      7756  TIP3      OH2            38.5559592525       26.6661327821       74.4107832655  TIP3      6396            0.0000000000
     70702      7756  TIP3      H1             39.3043300566       26.6367927356       73.7723888287  TIP3      6396            0.0000000000
     70703      7756  TIP3      H2             38.6599976167       25.8651236348       74.9352631653  TIP3      6396            0.0000000000
     70704      7757  TIP3      OH2            35.5461062163       25.1359390938       79.7355587563  TIP3      6397            0.0000000000
     70705      7757  TIP3      H1             35.7626758700       24.7151178632       80.5849900511  TIP3      6397            0.0000000000
     70706      7757  TIP3      H2             34.9427008869       24.4853951771       79.3355449071  TIP3      6397            0.0000000000
     70707      7758  TIP3      OH2            36.6292490214       25.0618837124       66.3807451448  TIP3      6398            0.0000000000
     70708      7758  TIP3      H1             37.2933629829       25.6380160040       66.7990450697  TIP3      6398            0.0000000000
     70709      7758  TIP3      H2             35.8259821936       25.3827303955       66.7776921655  TIP3      6398            0.0000000000
     70710      7759  TIP3      OH2            38.0885606246       26.9585788649       67.9043199255  TIP3      6399            0.0000000000
     70711      7759  TIP3      H1             37.3984297750       27.3399304446       68.4943969173  TIP3      6399            0.0000000000
     70712      7759  TIP3      H2             38.5974473455       27.7516386437       67.6989203967  TIP3      6399            0.0000000000
     70713      7760  TIP3      OH2           -41.1516766607       18.9870752545       67.9040582446  TIP3      6400            0.0000000000
     70714      7760  TIP3      H1            -41.1461306959       19.9332097537       68.0642786152  TIP3      6400            0.0000000000
     70715      7760  TIP3      H2            -40.1822831065       18.8499208813       67.9191844684  TIP3      6400            0.0000000000
     70716      7761  TIP3      OH2            38.7194992507       29.5334083977       66.8281495529  TIP3      6401            0.0000000000
     70717      7761  TIP3      H1             39.2805998865       30.2644429491       67.1090964260  TIP3      6401            0.0000000000
     70718      7761  TIP3      H2             39.1883958715       29.1583178620       66.0877643145  TIP3      6401            0.0000000000
     70719      7762  TIP3      OH2            37.7940244446       17.1003085457       74.6225599751  TIP3      6402            0.0000000000
     70720      7762  TIP3      H1             37.6105528399       17.0233304723       73.6882459935  TIP3      6402            0.0000000000
     70721      7762  TIP3      H2             37.4226424922       16.2361852479       74.9210819106  TIP3      6402            0.0000000000
     70722      7763  TIP3      OH2            36.6520128866       30.6930336363       70.2894392254  TIP3      6403            0.0000000000
     70723      7763  TIP3      H1             35.9396013761       31.2423520619       70.6713016009  TIP3      6403            0.0000000000
     70724      7763  TIP3      H2             37.3409126591       31.3481613349       70.1405365090  TIP3      6403            0.0000000000
     70725      7764  TIP3      OH2            35.8613751990       33.4742572828       82.2539566655  TIP3      6404            0.0000000000
     70726      7764  TIP3      H1             36.5645678665       33.3088253085       82.8926846123  TIP3      6404            0.0000000000
     70727      7764  TIP3      H2             35.5548653554       32.6452932393       81.9431230158  TIP3      6404            0.0000000000
     70728      7765  TIP3      OH2            36.8437720114       24.6130894848       82.4861865506  TIP3      6405            0.0000000000
     70729      7765  TIP3      H1             37.1850429536       23.7240768140       82.3479948048  TIP3      6405            0.0000000000
     70730      7765  TIP3      H2             36.5425121257       24.5645076344       83.3905884109  TIP3      6405            0.0000000000
     70731      7766  TIP3      OH2            39.4803135231       22.1700739215       82.9747812097  TIP3      6406            0.0000000000
     70732      7766  TIP3      H1             38.7645731076       21.6374679487       82.6204176203  TIP3      6406            0.0000000000
     70733      7766  TIP3      H2             40.1744744368       21.9106060919       82.3151650158  TIP3      6406            0.0000000000
     70734      7767  TIP3      OH2            36.0029529827       29.1786922519       66.3054872609  TIP3      6407            0.0000000000
     70735      7767  TIP3      H1             36.9394589378       29.3423428883       66.5136848600  TIP3      6407            0.0000000000
     70736      7767  TIP3      H2             36.0043015843       28.5927869430       65.5530100318  TIP3      6407            0.0000000000
     70737      7768  TIP3      OH2            34.7443837693       32.3076887702       73.7480524839  TIP3      6408            0.0000000000
     70738      7768  TIP3      H1             35.2235902664       31.6192563148       73.3139585482  TIP3      6408            0.0000000000
     70739      7768  TIP3      H2             35.4751544693       32.9116967792       74.0190028035  TIP3      6408            0.0000000000
     70740      7769  TIP3      OH2            37.1726827519       30.5972094231       82.2412488012  TIP3      6409            0.0000000000
     70741      7769  TIP3      H1             36.3543086928       30.7507040658       81.7757741205  TIP3      6409            0.0000000000
     70742      7769  TIP3      H2             36.9155994916       30.5212062739       83.1683722366  TIP3      6409            0.0000000000
     70743      7770  TIP3      OH2            40.1928294561       31.4696923807       78.5968585797  TIP3      6410            0.0000000000
     70744      7770  TIP3      H1             39.7250708429       32.2545996438       78.2218597247  TIP3      6410            0.0000000000
     70745      7770  TIP3      H2             41.0846491738       31.6083033839       78.2072767871  TIP3      6410            0.0000000000
     70746      7771  TIP3      OH2            37.3651253660       34.4795801980       78.4342416793  TIP3      6411            0.0000000000
     70747      7771  TIP3      H1             36.7790462182       35.1636670234       78.0208088018  TIP3      6411            0.0000000000
     70748      7771  TIP3      H2             37.1626576646       34.5322574893       79.3907290523  TIP3      6411            0.0000000000
     70749      7772  TIP3      OH2            39.4239232658       33.4544459900       77.2898399268  TIP3      6412            0.0000000000
     70750      7772  TIP3      H1             39.0187753605       34.0492849810       77.9760071294  TIP3      6412            0.0000000000
     70751      7772  TIP3      H2             39.7467898311       34.2559168026       76.8401859146  TIP3      6412            0.0000000000
     70752      7773  TIP3      OH2            37.0366667165       33.2045832307       75.5030808668  TIP3      6413            0.0000000000
     70753      7773  TIP3      H1             37.0651626334       32.9267901381       76.4303099636  TIP3      6413            0.0000000000
     70754      7773  TIP3      H2             37.9069339031       32.9980160030       75.1229606524  TIP3      6413            0.0000000000
     70755      7774  TIP3      OH2            39.2109020177       32.1379428064       74.1925774948  TIP3      6414            0.0000000000
     70756      7774  TIP3      H1             38.9590412813       31.2063179317       74.3633162463  TIP3      6414            0.0000000000
     70757      7774  TIP3      H2             40.0452334482       32.2305690615       74.6427900678  TIP3      6414            0.0000000000
     70758      7775  TIP3      OH2            38.1235492825       18.5689534185       66.1849590330  TIP3      6415            0.0000000000
     70759      7775  TIP3      H1             38.6550794754       18.0287123236       65.5963719889  TIP3      6415            0.0000000000
     70760      7775  TIP3      H2             38.8098449235       18.8784436368       66.7977852496  TIP3      6415            0.0000000000
     70761      7776  TIP3      OH2            39.4200259684       16.8132976975       82.9803067517  TIP3      6416            0.0000000000
     70762      7776  TIP3      H1             40.2828612689       16.4584116141       82.7680037381  TIP3      6416            0.0000000000
     70763      7776  TIP3      H2             38.9877572556       16.0482989950       83.4097991598  TIP3      6416            0.0000000000
     70764      7777  TIP3      OH2            38.5106331630       32.6486175559       65.7662428908  TIP3      6417            0.0000000000
     70765      7777  TIP3      H1             38.0102866462       33.3983932557       66.2169150849  TIP3      6417            0.0000000000
     70766      7777  TIP3      H2             39.3762714648       32.9706199641       65.8775669557  TIP3      6417            0.0000000000
     70767      7778  TIP3      OH2           -23.0754334589       38.3110092099       76.1922590461  TIP3      6418            0.0000000000
     70768      7778  TIP3      H1            -22.8689552442       38.6334858678       77.1031941066  TIP3      6418            0.0000000000
     70769      7778  TIP3      H2            -22.3572674798       38.7087981813       75.7211580520  TIP3      6418            0.0000000000
     70770      7779  TIP3      OH2           -35.1329282629       39.1390966307       73.2914401836  TIP3      6419            0.0000000000
     70771      7779  TIP3      H1            -35.2609841762       39.9570594229       72.8063855457  TIP3      6419            0.0000000000
     70772      7779  TIP3      H2            -35.6895431961       38.5605546569       72.7038890706  TIP3      6419            0.0000000000
     70773      7780  TIP3      OH2           -27.5358905668       39.2125504305       71.6444218626  TIP3      6420            0.0000000000
     70774      7780  TIP3      H1            -26.9101264607       38.8969584984       72.3290514430  TIP3      6420            0.0000000000
     70775      7780  TIP3      H2            -26.9537830624       39.7734917361       71.1124372002  TIP3      6420            0.0000000000
     70776      7781  TIP3      OH2           -22.6240568837       38.9709961334       78.5310803531  TIP3      6421            0.0000000000
     70777      7781  TIP3      H1            -22.9404420385       39.9033411494       78.4304539541  TIP3      6421            0.0000000000
     70778      7781  TIP3      H2            -22.3655160710       39.1492001291       79.4493107477  TIP3      6421            0.0000000000
     70779      7782  TIP3      OH2           -36.3889049373       37.9519480793       77.3689050457  TIP3      6422            0.0000000000
     70780      7782  TIP3      H1            -36.6358077447       38.5301766685       76.6037917523  TIP3      6422            0.0000000000
     70781      7782  TIP3      H2            -37.0711506323       38.2765516109       78.0047068808  TIP3      6422            0.0000000000
     70782      7783  TIP3      OH2           -25.7492966421       38.5250898233       73.6389799095  TIP3      6423            0.0000000000
     70783      7783  TIP3      H1            -26.0264597703       37.7835520980       74.1914069933  TIP3      6423            0.0000000000
     70784      7783  TIP3      H2            -25.1331641687       39.0045891353       74.2026809942  TIP3      6423            0.0000000000
     70785      7784  TIP3      OH2           -36.5115564160       39.8910408492       75.7321207580  TIP3      6424            0.0000000000
     70786      7784  TIP3      H1            -36.0703278991       40.7326715205       75.6431404567  TIP3      6424            0.0000000000
     70787      7784  TIP3      H2            -36.3945268993       39.4833423387       74.8043121796  TIP3      6424            0.0000000000
     70788      7785  TIP3      OH2           -25.4360835843       37.2812946259       77.3923963947  TIP3      6425            0.0000000000
     70789      7785  TIP3      H1            -26.2104712210       37.8427462507       77.2468456210  TIP3      6425            0.0000000000
     70790      7785  TIP3      H2            -24.7457986996       37.6547398833       76.8113851220  TIP3      6425            0.0000000000
     70791      7786  TIP3      OH2           -32.4658959678       35.3426924672       74.8004903807  TIP3      6426            0.0000000000
     70792      7786  TIP3      H1            -32.5778254693       34.3856568005       74.7349554192  TIP3      6426            0.0000000000
     70793      7786  TIP3      H2            -33.3489307027       35.6535643262       75.0962844816  TIP3      6426            0.0000000000
     70794      7787  TIP3      OH2           -35.0468824627       36.2698284477       75.5758399588  TIP3      6427            0.0000000000
     70795      7787  TIP3      H1            -35.9333001697       36.1230512924       75.1708964335  TIP3      6427            0.0000000000
     70796      7787  TIP3      H2            -35.2431724811       37.0753986293       76.0797101734  TIP3      6427            0.0000000000
     70797      7788  TIP3      OH2           -30.4461798777       35.9000892938       78.9388294812  TIP3      6428            0.0000000000
     70798      7788  TIP3      H1            -30.0441457508       35.4694693227       79.7133022111  TIP3      6428            0.0000000000
     70799      7788  TIP3      H2            -31.4157692990       35.7630015359       79.0687960500  TIP3      6428            0.0000000000
     70800      7789  TIP3      OH2           -27.1210828442       39.7469200568       79.8217943748  TIP3      6429            0.0000000000
     70801      7789  TIP3      H1            -27.6967351300       39.5581768771       80.5993967087  TIP3      6429            0.0000000000
     70802      7789  TIP3      H2            -27.4238100718       40.6277726469       79.5731099556  TIP3      6429            0.0000000000
     70803      7790  TIP3      OH2           -30.8398061337       38.4943381007       66.2352810680  TIP3      6430            0.0000000000
     70804      7790  TIP3      H1            -31.1033299047       38.4324870467       67.1767319940  TIP3      6430            0.0000000000
     70805      7790  TIP3      H2            -31.0842706652       37.5987415678       65.9689172026  TIP3      6430            0.0000000000
     70806      7791  TIP3      OH2           -39.8003490302       38.3399169430       74.3980414872  TIP3      6431            0.0000000000
     70807      7791  TIP3      H1            -40.0323970288       38.7854487729       73.6121820704  TIP3      6431            0.0000000000
     70808      7791  TIP3      H2            -39.9152342298       37.5131782508       73.8792356930  TIP3      6431            0.0000000000
     70809      7792  TIP3      OH2           -38.9708283372       39.3869203021       67.6121072733  TIP3      6432            0.0000000000
     70810      7792  TIP3      H1            -38.7236548971       40.1407174482       67.1034145092  TIP3      6432            0.0000000000
     70811      7792  TIP3      H2            -39.7015890279       39.8521479282       68.0863629075  TIP3      6432            0.0000000000
     70812      7793  TIP3      OH2           -32.4845847656       38.8547013715       72.6580036607  TIP3      6433            0.0000000000
     70813      7793  TIP3      H1            -33.4198790703       38.8432736430       72.9649169029  TIP3      6433            0.0000000000
     70814      7793  TIP3      H2            -31.9734544036       38.7212498334       73.4748492455  TIP3      6433            0.0000000000
     70815      7794  TIP3      OH2           -37.2144058105       40.0085637689       71.0769669869  TIP3      6434            0.0000000000
     70816      7794  TIP3      H1            -38.1555350995       40.2690455865       70.9098587457  TIP3      6434            0.0000000000
     70817      7794  TIP3      H2            -37.3124651568       39.0479370044       71.0891618384  TIP3      6434            0.0000000000
     70818      7795  TIP3      OH2           -33.9884668350      -41.0103667728       69.0698796235  TIP3      6435            0.0000000000
     70819      7795  TIP3      H1            -33.0866793883      -40.8247242081       69.3936661692  TIP3      6435            0.0000000000
     70820      7795  TIP3      H2            -34.2365705020      -40.2624469595       68.5202886242  TIP3      6435            0.0000000000
     70821      7796  TIP3      OH2           -28.0134895462       38.0094237605       75.9588251052  TIP3      6436            0.0000000000
     70822      7796  TIP3      H1            -28.7374764916       38.2203585354       76.5860831413  TIP3      6436            0.0000000000
     70823      7796  TIP3      H2            -28.5328564408       37.9192774236       75.1437500620  TIP3      6436            0.0000000000
     70824      7797  TIP3      OH2           -36.0907162159       37.7389479993       71.0218687108  TIP3      6437            0.0000000000
     70825      7797  TIP3      H1            -36.4547373022       36.8403171870       70.9947979740  TIP3      6437            0.0000000000
     70826      7797  TIP3      H2            -35.3536435004       37.7131471492       70.4139690161  TIP3      6437            0.0000000000
     70827      7798  TIP3      OH2           -32.5151138014       39.9728007036       76.9146536295  TIP3      6438            0.0000000000
     70828      7798  TIP3      H1            -33.3354091597       40.4507104271       77.0340735163  TIP3      6438            0.0000000000
     70829      7798  TIP3      H2            -32.0360277151       40.2516045130       77.7207325020  TIP3      6438            0.0000000000
     70830      7799  TIP3      OH2           -28.1614023272       39.1441139251       67.0958146379  TIP3      6439            0.0000000000
     70831      7799  TIP3      H1            -29.0483188356       39.1913226886       66.7094542688  TIP3      6439            0.0000000000
     70832      7799  TIP3      H2            -27.7873092980       40.0195803779       67.1628596788  TIP3      6439            0.0000000000
     70833      7800  TIP3      OH2           -38.1054709029       38.9174397235       79.0767258347  TIP3      6440            0.0000000000
     70834      7800  TIP3      H1            -39.0325520913       39.1693823378       79.1903608898  TIP3      6440            0.0000000000
     70835      7800  TIP3      H2            -38.2075950240       38.0230260534       79.4974577992  TIP3      6440            0.0000000000
     70836      7801  TIP3      OH2           -29.5311798020       38.4723061640       78.3096971132  TIP3      6441            0.0000000000
     70837      7801  TIP3      H1            -28.7844547566       38.5537423186       78.9098086288  TIP3      6441            0.0000000000
     70838      7801  TIP3      H2            -29.8609066782       37.5715291014       78.4676858231  TIP3      6441            0.0000000000
     70839      7802  TIP3      OH2           -28.7858899958       38.1334607479       69.4084895278  TIP3      6442            0.0000000000
     70840      7802  TIP3      H1            -28.4647220146       38.5026324428       68.5569783635  TIP3      6442            0.0000000000
     70841      7802  TIP3      H2            -28.1203618034       38.4839265252       70.0182866511  TIP3      6442            0.0000000000
     70842      7803  TIP3      OH2           -31.4885301783       39.9141700293       70.1441132597  TIP3      6443            0.0000000000
     70843      7803  TIP3      H1            -30.6310845893       40.3383466926       70.2129306351  TIP3      6443            0.0000000000
     70844      7803  TIP3      H2            -31.7332870790       39.6802332842       71.0659076966  TIP3      6443            0.0000000000
     70845      7804  TIP3      OH2           -31.1838377418      -41.0481110473       79.6334699304  TIP3      6444            0.0000000000
     70846      7804  TIP3      H1            -30.9531595381      -40.1765743434       80.0121998867  TIP3      6444            0.0000000000
     70847      7804  TIP3      H2            -30.2847419968      -41.3371711893       79.3922692917  TIP3      6444            0.0000000000
     70848      7805  TIP3      OH2           -30.6742677399       36.9856295059       71.1199333176  TIP3      6445            0.0000000000
     70849      7805  TIP3      H1            -30.9457771210       37.6239417367       71.7905085261  TIP3      6445            0.0000000000
     70850      7805  TIP3      H2            -29.9603170644       37.4445331579       70.6016496623  TIP3      6445            0.0000000000
     70851      7806  TIP3      OH2           -34.9738132092       38.0009565276       67.7787119185  TIP3      6446            0.0000000000
     70852      7806  TIP3      H1            -35.0321119422       38.9018802094       68.1456469285  TIP3      6446            0.0000000000
     70853      7806  TIP3      H2            -34.0660706191       37.7554158174       68.0339072768  TIP3      6446            0.0000000000
     70854      7807  TIP3      OH2           -24.7397751905       38.7065826688       80.1817773235  TIP3      6447            0.0000000000
     70855      7807  TIP3      H1            -25.6846421665       38.9978030487       80.1105465576  TIP3      6447            0.0000000000
     70856      7807  TIP3      H2            -24.4804753912       38.6931499170       79.2529879915  TIP3      6447            0.0000000000
     70857      7808  TIP3      OH2           -37.6773263835       36.3223233490       74.7890979169  TIP3      6448            0.0000000000
     70858      7808  TIP3      H1            -37.6852090877       36.1431014405       73.8329519448  TIP3      6448            0.0000000000
     70859      7808  TIP3      H2            -37.8404667522       35.3776467528       74.9805799744  TIP3      6448            0.0000000000
     70860      7809  TIP3      OH2           -34.6969867867       39.6491978467       80.8282740147  TIP3      6449            0.0000000000
     70861      7809  TIP3      H1            -34.2410669417       39.0084865488       80.2538873707  TIP3      6449            0.0000000000
     70862      7809  TIP3      H2            -34.4072427438       40.4912795904       80.4481250196  TIP3      6449            0.0000000000
     70863      7810  TIP3      OH2           -33.8888619207       38.2104229257       78.4550206512  TIP3      6450            0.0000000000
     70864      7810  TIP3      H1            -33.3506095418       38.6137330181       77.7429437668  TIP3      6450            0.0000000000
     70865      7810  TIP3      H2            -34.7715820497       38.0777110861       78.0327595483  TIP3      6450            0.0000000000
     70866      7811  TIP3      OH2           -33.1124738488       35.6484586963       78.8741747808  TIP3      6451            0.0000000000
     70867      7811  TIP3      H1            -33.2892686287       36.6053520090       78.7520483434  TIP3      6451            0.0000000000
     70868      7811  TIP3      H2            -33.8465039994       35.2517560117       78.3642560869  TIP3      6451            0.0000000000
     70869      7812  TIP3      OH2           -31.6798894319       39.4925129134       82.5690869806  TIP3      6452            0.0000000000
     70870      7812  TIP3      H1            -32.0174677234       39.6903940375       83.4691337766  TIP3      6452            0.0000000000
     70871      7812  TIP3      H2            -32.5162853991       39.6112162386       82.1043779004  TIP3      6452            0.0000000000
     70872      7813  TIP3      OH2           -29.0978737471       39.0157811808       81.4941470848  TIP3      6453            0.0000000000
     70873      7813  TIP3      H1            -30.0543068571       39.1266638401       81.6736629300  TIP3      6453            0.0000000000
     70874      7813  TIP3      H2            -28.8139726491       38.4616119349       82.2283977999  TIP3      6453            0.0000000000
     70875      7814  TIP3      OH2           -27.3504772916       37.4065808408       83.3197460664  TIP3      6454            0.0000000000
     70876      7814  TIP3      H1            -27.6338390875       36.4848446836       83.4404605684  TIP3      6454            0.0000000000
     70877      7814  TIP3      H2            -27.6704205590       37.8236453702       84.1356077082  TIP3      6454            0.0000000000
     70878      7815  TIP3      OH2           -37.3133804558       39.0674260664       82.6946508836  TIP3      6455            0.0000000000
     70879      7815  TIP3      H1            -37.3844536577       38.3793566826       82.0160533697  TIP3      6455            0.0000000000
     70880      7815  TIP3      H2            -37.7118752060       38.5831210617       83.4542330144  TIP3      6455            0.0000000000
     70881      7816  TIP3      OH2           -32.8966057928       34.9961025689       81.5295944806  TIP3      6456            0.0000000000
     70882      7816  TIP3      H1            -32.2268362578       34.2865369607       81.5079494228  TIP3      6456            0.0000000000
     70883      7816  TIP3      H2            -32.9998891841       35.1633568523       80.5736858700  TIP3      6456            0.0000000000
     70884      7817  TIP3      OH2           -32.5481418153       36.5777711295       83.6515776225  TIP3      6457            0.0000000000
     70885      7817  TIP3      H1            -32.6765886293       36.1208352522       82.7846770997  TIP3      6457            0.0000000000
     70886      7817  TIP3      H2            -33.1100038728       37.3755586977       83.5430968735  TIP3      6457            0.0000000000
     70887      7818  TIP3      OH2           -24.8488778036       37.5686032458       66.2740209604  TIP3      6458            0.0000000000
     70888      7818  TIP3      H1            -24.0514276038       38.0172012589       65.9569764725  TIP3      6458            0.0000000000
     70889      7818  TIP3      H2            -25.4675890343       38.0470151056       65.6624901461  TIP3      6458            0.0000000000
     70890      7819  TIP3      OH2           -25.2022383776       40.1423053738       70.0724461494  TIP3      6459            0.0000000000
     70891      7819  TIP3      H1            -24.8620376964       39.2275147625       70.1414949134  TIP3      6459            0.0000000000
     70892      7819  TIP3      H2            -24.4647277270       40.5760895821       69.6332658466  TIP3      6459            0.0000000000
     70893      7820  TIP3      OH2           -24.5388797787      -40.7106649964       75.4708975369  TIP3      6460            0.0000000000
     70894      7820  TIP3      H1            -23.5973423139      -40.5197618871       75.4136885349  TIP3      6460            0.0000000000
     70895      7820  TIP3      H2            -24.7932220473      -40.5848586472       76.3887375777  TIP3      6460            0.0000000000
     70896      7821  TIP3      OH2           -39.4666177752       40.5226092005       82.2148867032  TIP3      6461            0.0000000000
     70897      7821  TIP3      H1            -38.8542025930       39.8419281295       81.9448286884  TIP3      6461            0.0000000000
     70898      7821  TIP3      H2            -40.2350817650       39.9157461786       82.2840939529  TIP3      6461            0.0000000000
     70899      7822  TIP3      OH2           -24.5155309394       37.4577033961       70.0909927503  TIP3      6462            0.0000000000
     70900      7822  TIP3      H1            -24.3430744645       36.9770172770       70.9178884019  TIP3      6462            0.0000000000
     70901      7822  TIP3      H2            -25.1485974530       36.8651610965       69.6186664197  TIP3      6462            0.0000000000
     70902      7823  TIP3      OH2           -37.6203987944       38.6434145457       74.0272718007  TIP3      6463            0.0000000000
     70903      7823  TIP3      H1            -38.1039294661       37.8230519752       74.4053406769  TIP3      6463            0.0000000000
     70904      7823  TIP3      H2            -38.2692693118       39.0298410964       74.6995091237  TIP3      6463            0.0000000000
     70905      7824  TIP3      OH2           -22.4527546489       37.5117351292       66.7137125886  TIP3      6464            0.0000000000
     70906      7824  TIP3      H1            -22.1974164096       36.7779723629       66.1569700815  TIP3      6464            0.0000000000
     70907      7824  TIP3      H2            -21.8022298573       38.2069447648       66.6950884504  TIP3      6464            0.0000000000
     70908      7825  TIP3      OH2           -39.3455052288       39.3830651080       70.0089898228  TIP3      6465            0.0000000000
     70909      7825  TIP3      H1            -40.2010910538       38.9808960935       70.0232680807  TIP3      6465            0.0000000000
     70910      7825  TIP3      H2            -39.0876931240       38.6714039320       69.3762999182  TIP3      6465            0.0000000000
     70911      7826  TIP3      OH2            41.9063579085       36.9275639283       79.0838700361  TIP3      6466            0.0000000000
     70912      7826  TIP3      H1             41.0656655722       36.4396384288       79.2676241647  TIP3      6466            0.0000000000
     70913      7826  TIP3      H2             41.3799803679       37.2895160604       78.3528099813  TIP3      6466            0.0000000000
     70914      7827  TIP3      OH2           -30.3154969726       37.1440157148       74.0461866907  TIP3      6467            0.0000000000
     70915      7827  TIP3      H1            -30.9529922950       36.4931263704       74.3705394547  TIP3      6467            0.0000000000
     70916      7827  TIP3      H2            -29.7324263043       36.6183312231       73.4898545767  TIP3      6467            0.0000000000
     70917      7828  TIP3      OH2           -23.4130479897       36.3437031832       72.5081939209  TIP3      6468            0.0000000000
     70918      7828  TIP3      H1            -22.7726112490       35.8650027681       71.9775068373  TIP3      6468            0.0000000000
     70919      7828  TIP3      H2            -23.0213060687       37.2232646940       72.5394719886  TIP3      6468            0.0000000000
     70920      7829  TIP3      OH2           -37.8262565016       35.8227546911       71.7313438621  TIP3      6469            0.0000000000
     70921      7829  TIP3      H1            -38.7037743259       35.5063755579       71.4752191649  TIP3      6469            0.0000000000
     70922      7829  TIP3      H2            -37.4003961491       34.9640994098       71.9747525423  TIP3      6469            0.0000000000
     70923      7830  TIP3      OH2           -37.9458369091       35.7051974655       68.4827041951  TIP3      6470            0.0000000000
     70924      7830  TIP3      H1            -38.0393221369       36.0532484039       67.5749309691  TIP3      6470            0.0000000000
     70925      7830  TIP3      H2            -38.8796086566       35.3744365164       68.4283532393  TIP3      6470            0.0000000000
     70926      7831  TIP3      OH2           -33.3912760787       35.6995761734       71.7338454741  TIP3      6471            0.0000000000
     70927      7831  TIP3      H1            -32.4849150109       36.0299726894       71.6710652948  TIP3      6471            0.0000000000
     70928      7831  TIP3      H2            -33.4811899659       35.4664851197       72.6549300473  TIP3      6471            0.0000000000
     70929      7832  TIP3      OH2           -27.7033567930       35.6679956293       73.3614735039  TIP3      6472            0.0000000000
     70930      7832  TIP3      H1            -27.7838137789       35.8302728623       72.4152107591  TIP3      6472            0.0000000000
     70931      7832  TIP3      H2            -28.1257147284       34.7897587127       73.4739856357  TIP3      6472            0.0000000000
     70932      7833  TIP3      OH2           -26.4428940072       35.7675286404       69.1113227226  TIP3      6473            0.0000000000
     70933      7833  TIP3      H1            -27.1683689229       36.3344197010       68.8281015794  TIP3      6473            0.0000000000
     70934      7833  TIP3      H2            -26.8918653883       34.9024743241       69.1940935655  TIP3      6473            0.0000000000
     70935      7834  TIP3      OH2           -36.9123375942       37.7041242152       65.9473116457  TIP3      6474            0.0000000000
     70936      7834  TIP3      H1            -36.7397308413       36.8067308079       65.6740889520  TIP3      6474            0.0000000000
     70937      7834  TIP3      H2            -36.5012550275       37.7762270331       66.8226302132  TIP3      6474            0.0000000000
     70938      7835  TIP3      OH2           -32.2737792797       37.7577798099       68.6042531344  TIP3      6475            0.0000000000
     70939      7835  TIP3      H1            -32.0299024152       37.1426813343       69.3184615691  TIP3      6475            0.0000000000
     70940      7835  TIP3      H2            -32.2612845702       38.6016821605       69.1073736959  TIP3      6475            0.0000000000
     70941      7836  TIP3      OH2           -37.6073574813       35.8378692674       81.2042908088  TIP3      6476            0.0000000000
     70942      7836  TIP3      H1            -38.2612082419       35.4532608184       81.8086751380  TIP3      6476            0.0000000000
     70943      7836  TIP3      H2            -36.9411835664       36.1894545069       81.8283376994  TIP3      6476            0.0000000000
     70944      7837  TIP3      OH2           -35.9596052006       35.6812808987       83.1750686095  TIP3      6477            0.0000000000
     70945      7837  TIP3      H1            -35.1384899695       35.3205231379       82.7862057722  TIP3      6477            0.0000000000
     70946      7837  TIP3      H2            -36.3822253715       34.8492197995       83.4567555316  TIP3      6477            0.0000000000
     70947      7838  TIP3      OH2           -27.6340110355       34.8808313435       83.1701600925  TIP3      6478            0.0000000000
     70948      7838  TIP3      H1            -27.5072239483       34.4889419693       84.0516428536  TIP3      6478            0.0000000000
     70949      7838  TIP3      H2            -26.7132221311       34.9399152091       82.8250873074  TIP3      6478            0.0000000000
     70950      7839  TIP3      OH2            -8.7357665783       39.2332777693       71.6697234471  TIP3      6479            0.0000000000
     70951      7839  TIP3      H1             -8.0849624608       38.9201886100       72.3481958859  TIP3      6479            0.0000000000
     70952      7839  TIP3      H2             -8.0986411425       39.7287137530       71.1341980254  TIP3      6479            0.0000000000
     70953      7840  TIP3      OH2            -4.0821493991       39.5360851446       78.6846474950  TIP3      6480            0.0000000000
     70954      7840  TIP3      H1             -4.3433644632       40.4177804722       78.5001897239  TIP3      6480            0.0000000000
     70955      7840  TIP3      H2             -3.6847196204       39.5218635896       79.5826622638  TIP3      6480            0.0000000000
     70956      7841  TIP3      OH2           -17.5456114922       38.0169922701       77.3693048999  TIP3      6481            0.0000000000
     70957      7841  TIP3      H1            -17.8294610192       38.5383875278       76.6008656767  TIP3      6481            0.0000000000
     70958      7841  TIP3      H2            -18.2441461842       38.2580301344       78.0135435123  TIP3      6481            0.0000000000
     70959      7842  TIP3      OH2            -6.9254522398       38.4859985406       73.6241580257  TIP3      6482            0.0000000000
     70960      7842  TIP3      H1             -7.1179535109       37.7664019547       74.2260947129  TIP3      6482            0.0000000000
     70961      7842  TIP3      H2             -6.2864606071       38.9830078641       74.1650948921  TIP3      6482            0.0000000000
     70962      7843  TIP3      OH2           -17.9904128209       39.8955756817       75.3331027263  TIP3      6483            0.0000000000
     70963      7843  TIP3      H1            -17.3649506824       40.5443069628       75.6699107072  TIP3      6483            0.0000000000
     70964      7843  TIP3      H2            -17.4988686175       39.4202791122       74.6542023575  TIP3      6483            0.0000000000
     70965      7844  TIP3      OH2           -13.5717925401       35.3473296911       74.7860832308  TIP3      6484            0.0000000000
     70966      7844  TIP3      H1            -13.7191262320       34.3892408612       74.7347757743  TIP3      6484            0.0000000000
     70967      7844  TIP3      H2            -14.4228575673       35.6631921795       75.1225554070  TIP3      6484            0.0000000000
     70968      7845  TIP3      OH2           -11.6275497316       35.9351888056       78.9271929294  TIP3      6485            0.0000000000
     70969      7845  TIP3      H1            -11.2219392807       35.5260824352       79.7024302526  TIP3      6485            0.0000000000
     70970      7845  TIP3      H2            -12.5755281897       35.8035568420       79.0831369901  TIP3      6485            0.0000000000
     70971      7846  TIP3      OH2            -8.2932521102       39.7494253977       79.8209559694  TIP3      6486            0.0000000000
     70972      7846  TIP3      H1             -8.8447241416       39.5748533702       80.6184374161  TIP3      6486            0.0000000000
     70973      7846  TIP3      H2             -8.5322676372       40.6381609979       79.5888471660  TIP3      6486            0.0000000000
     70974      7847  TIP3      OH2           -11.7870528004       38.2793450389       66.3684496485  TIP3      6487            0.0000000000
     70975      7847  TIP3      H1            -12.2752611263       38.4015895606       67.2081757797  TIP3      6487            0.0000000000
     70976      7847  TIP3      H2            -12.3112214101       37.5921522450       65.9536833833  TIP3      6487            0.0000000000
     70977      7848  TIP3      OH2           -15.1463286491       38.8563314318       65.3770674326  TIP3      6488            0.0000000000
     70978      7848  TIP3      H1            -15.5778184322       38.4322820657       66.1411940156  TIP3      6488            0.0000000000
     70979      7848  TIP3      H2            -15.8850271996       39.1747179991       64.8604194195  TIP3      6488            0.0000000000
     70980      7849  TIP3      OH2           -20.6687879821       39.2006396326       67.7620598351  TIP3      6489            0.0000000000
     70981      7849  TIP3      H1            -20.1090014990       39.8734421801       67.3445510975  TIP3      6489            0.0000000000
     70982      7849  TIP3      H2            -21.2380680143       39.8479664035       68.1998676861  TIP3      6489            0.0000000000
     70983      7850  TIP3      OH2           -13.5824466280       38.8547299751       72.6900247881  TIP3      6490            0.0000000000
     70984      7850  TIP3      H1            -14.5136966923       38.9041084611       72.9458481246  TIP3      6490            0.0000000000
     70985      7850  TIP3      H2            -13.1135921015       38.7582186428       73.5305654205  TIP3      6490            0.0000000000
     70986      7851  TIP3      OH2           -15.1388759059      -41.0208785837       69.0468695055  TIP3      6491            0.0000000000
     70987      7851  TIP3      H1            -14.2382693613      -40.8395907818       69.3747008449  TIP3      6491            0.0000000000
     70988      7851  TIP3      H2            -15.3548632803      -40.2606199214       68.5149088785  TIP3      6491            0.0000000000
     70989      7852  TIP3      OH2            -9.1944641053       38.0729789146       75.9218684938  TIP3      6492            0.0000000000
     70990      7852  TIP3      H1             -9.8775805110       38.2424607203       76.6006801057  TIP3      6492            0.0000000000
     70991      7852  TIP3      H2             -9.7270420018       37.8956603514       75.1399081974  TIP3      6492            0.0000000000
     70992      7853  TIP3      OH2           -13.6562169554       39.9941167569       76.9602754845  TIP3      6493            0.0000000000
     70993      7853  TIP3      H1            -14.4895414273       40.4799957002       77.0485804231  TIP3      6493            0.0000000000
     70994      7853  TIP3      H2            -13.1463583931       40.2696243786       77.7351626879  TIP3      6493            0.0000000000
     70995      7854  TIP3      OH2            -9.2209671467       39.0621196194       66.8627387154  TIP3      6494            0.0000000000
     70996      7854  TIP3      H1            -10.1858527075       39.1148720754       66.7419413914  TIP3      6494            0.0000000000
     70997      7854  TIP3      H2             -8.9532817545       39.9308860119       67.1576965016  TIP3      6494            0.0000000000
     70998      7855  TIP3      OH2           -19.3506251336       38.6870545397       79.3163179284  TIP3      6495            0.0000000000
     70999      7855  TIP3      H1            -20.2262048635       39.0983790730       79.2305103683  TIP3      6495            0.0000000000
     71000      7855  TIP3      H2            -19.4949618357       37.8465482327       79.7474130979  TIP3      6495            0.0000000000
     71001      7856  TIP3      OH2           -10.6374406970       38.5019239642       78.1893386348  TIP3      6496            0.0000000000
     71002      7856  TIP3      H1             -9.9400783355       38.5454099503       78.8601525775  TIP3      6496            0.0000000000
     71003      7856  TIP3      H2            -11.0159769406       37.6245341794       78.4076514677  TIP3      6496            0.0000000000
     71004      7857  TIP3      OH2            -9.8951356215       38.1210512582       69.3543532624  TIP3      6497            0.0000000000
     71005      7857  TIP3      H1             -9.6132597657       38.5417451486       68.5225267478  TIP3      6497            0.0000000000
     71006      7857  TIP3      H2             -9.2818451814       38.4948075618       70.0059181590  TIP3      6497            0.0000000000
     71007      7858  TIP3      OH2           -12.5984416045       39.8118373264       70.1485134416  TIP3      6498            0.0000000000
     71008      7858  TIP3      H1            -11.8391844536       40.4041913979       70.2096195935  TIP3      6498            0.0000000000
     71009      7858  TIP3      H2            -12.9208247369       39.7250008913       71.0688565980  TIP3      6498            0.0000000000
     71010      7859  TIP3      OH2           -12.3845665093      -41.1594473890       79.6428489783  TIP3      6499            0.0000000000
     71011      7859  TIP3      H1            -12.2011538416      -40.3134248784       80.0972208713  TIP3      6499            0.0000000000
     71012      7859  TIP3      H2            -11.4888497342      -41.4621558052       79.3927612346  TIP3      6499            0.0000000000
     71013      7860  TIP3      OH2           -11.7536101825       36.9195454766       71.0873672602  TIP3      6500            0.0000000000
     71014      7860  TIP3      H1            -12.1161126822       37.5794912847       71.7010861418  TIP3      6500            0.0000000000
     71015      7860  TIP3      H2            -11.0913142966       37.4543168960       70.5889168639  TIP3      6500            0.0000000000
     71016      7861  TIP3      OH2           -16.1011986463       37.9948911998       67.7137718438  TIP3      6501            0.0000000000
     71017      7861  TIP3      H1            -16.1850327518       38.8621346665       68.1549562859  TIP3      6501            0.0000000000
     71018      7861  TIP3      H2            -15.2149385340       37.7276690565       68.0251519846  TIP3      6501            0.0000000000
     71019      7862  TIP3      OH2            -5.8814820855       38.7690229567       80.2051209053  TIP3      6502            0.0000000000
     71020      7862  TIP3      H1             -6.8243401888       38.9953644392       80.0985903666  TIP3      6502            0.0000000000
     71021      7862  TIP3      H2             -5.6098075742       38.7192882909       79.2676877251  TIP3      6502            0.0000000000
     71022      7863  TIP3      OH2           -15.8067586680       39.6528084655       80.8526223794  TIP3      6503            0.0000000000
     71023      7863  TIP3      H1            -15.3543532885       39.0181366094       80.2575457242  TIP3      6503            0.0000000000
     71024      7863  TIP3      H2            -15.5614984106       40.4836172109       80.4320707712  TIP3      6503            0.0000000000
     71025      7864  TIP3      OH2           -15.0575105475       38.1667968826       78.4527781939  TIP3      6504            0.0000000000
     71026      7864  TIP3      H1            -14.5237438925       38.6013747332       77.7583586326  TIP3      6504            0.0000000000
     71027      7864  TIP3      H2            -15.9299357849       38.0625682624       78.0086049508  TIP3      6504            0.0000000000
     71028      7865  TIP3      OH2           -12.8402704630       39.4572330831       82.5948460397  TIP3      6505            0.0000000000
     71029      7865  TIP3      H1            -13.1724785084       39.6830089457       83.4832684340  TIP3      6505            0.0000000000
     71030      7865  TIP3      H2            -13.6543002028       39.6107486354       82.1051930155  TIP3      6505            0.0000000000
     71031      7866  TIP3      OH2           -10.2765828542       39.0394550946       81.4535414231  TIP3      6506            0.0000000000
     71032      7866  TIP3      H1            -11.2155081678       39.1282995218       81.7017850830  TIP3      6506            0.0000000000
     71033      7866  TIP3      H2             -9.9573475097       38.4885004469       82.1925969582  TIP3      6506            0.0000000000
     71034      7867  TIP3      OH2            -8.6736795583       37.6918037998       83.4892659910  TIP3      6507            0.0000000000
     71035      7867  TIP3      H1             -8.7719506282       36.7214040787       83.4997453830  TIP3      6507            0.0000000000
     71036      7867  TIP3      H2             -8.9341309381       37.9766598945       84.3920134584  TIP3      6507            0.0000000000
     71037      7868  TIP3      OH2           -18.7664960358       38.9482045412       82.6044402080  TIP3      6508            0.0000000000
     71038      7868  TIP3      H1            -18.5624046539       38.2498268377       81.9661240113  TIP3      6508            0.0000000000
     71039      7868  TIP3      H2            -18.9641447683       38.4596001335       83.4182050138  TIP3      6508            0.0000000000
     71040      7869  TIP3      OH2           -13.8928906500       35.1012496808       81.5478729035  TIP3      6509            0.0000000000
     71041      7869  TIP3      H1            -13.3536732517       34.2820146847       81.5455296531  TIP3      6509            0.0000000000
     71042      7869  TIP3      H2            -14.1728315127       35.1461695682       80.6249694964  TIP3      6509            0.0000000000
     71043      7870  TIP3      OH2           -13.7204977576       36.5643671534       83.6862450681  TIP3      6510            0.0000000000
     71044      7870  TIP3      H1            -13.8083386677       36.1180736478       82.8060702242  TIP3      6510            0.0000000000
     71045      7870  TIP3      H2            -14.2369233724       37.3687106623       83.5241685780  TIP3      6510            0.0000000000
     71046      7871  TIP3      OH2            -6.2497852423       40.1162017410       70.1564131162  TIP3      6511            0.0000000000
     71047      7871  TIP3      H1             -5.9284414299       39.2045513860       70.1517876139  TIP3      6511            0.0000000000
     71048      7871  TIP3      H2             -5.5632820533       40.5761868465       69.6386660720  TIP3      6511            0.0000000000
     71049      7872  TIP3      OH2            -5.3765469862      -40.9871410597       75.9995552451  TIP3      6512            0.0000000000
     71050      7872  TIP3      H1             -4.8025085003      -40.4111130390       75.4870284673  TIP3      6512            0.0000000000
     71051      7872  TIP3      H2             -5.9651311598      -40.4191764030       76.4632969992  TIP3      6512            0.0000000000
     71052      7873  TIP3      OH2           -21.2366849989       39.6883981327       82.4321509548  TIP3      6513            0.0000000000
     71053      7873  TIP3      H1            -20.3666715284       39.6754601290       81.9641264666  TIP3      6513            0.0000000000
     71054      7873  TIP3      H2            -21.8004989030       39.0148862118       82.0564630440  TIP3      6513            0.0000000000
     71055      7874  TIP3      OH2           -21.5516010720       37.5977934282       69.8037694523  TIP3      6514            0.0000000000
     71056      7874  TIP3      H1            -22.4850595357       37.6982318124       69.5825122916  TIP3      6514            0.0000000000
     71057      7874  TIP3      H2            -21.1192644540       37.9890037273       69.0222745363  TIP3      6514            0.0000000000
     71058      7875  TIP3      OH2           -11.4369055839       37.1437824058       74.1036820279  TIP3      6515            0.0000000000
     71059      7875  TIP3      H1            -12.0948655299       36.4738296787       74.3599045288  TIP3      6515            0.0000000000
     71060      7875  TIP3      H2            -10.8865965016       36.6530877737       73.4838648619  TIP3      6515            0.0000000000
     71061      7876  TIP3      OH2           -14.5501539841       35.6912660457       71.7211245754  TIP3      6516            0.0000000000
     71062      7876  TIP3      H1            -13.6495139649       36.0608951317       71.6711863374  TIP3      6516            0.0000000000
     71063      7876  TIP3      H2            -14.6431988396       35.4770848224       72.6516341692  TIP3      6516            0.0000000000
     71064      7877  TIP3      OH2           -13.4283531136       37.7352125312       68.5750666928  TIP3      6517            0.0000000000
     71065      7877  TIP3      H1            -13.1819106489       37.1370759483       69.2988748230  TIP3      6517            0.0000000000
     71066      7877  TIP3      H2            -13.3923803408       38.5843329969       69.0711867965  TIP3      6517            0.0000000000
     71067      7878  TIP3      OH2            -8.7990248088       34.9507340879       83.1767285164  TIP3      6518            0.0000000000
     71068      7878  TIP3      H1             -8.6762541484       34.4945741654       84.0251152824  TIP3      6518            0.0000000000
     71069      7878  TIP3      H2             -7.9025677758       34.9224339748       82.7990580964  TIP3      6518            0.0000000000
     71070      7879  TIP3      OH2             3.6782470110       39.7872135568       74.3075551356  TIP3      6519            0.0000000000
     71071      7879  TIP3      H1              3.2541776548       40.2890193435       73.5459066707  TIP3      6519            0.0000000000
     71072      7879  TIP3      H2              3.2471362463       39.2607366268       73.6205326231  TIP3      6519            0.0000000000
     71073      7880  TIP3      OH2            10.1587297755       39.2418286103       71.6661330587  TIP3      6520            0.0000000000
     71074      7880  TIP3      H1             10.7894793907       38.8872904763       72.3332128356  TIP3      6520            0.0000000000
     71075      7880  TIP3      H2             10.7686207595       39.7656459741       71.1357846601  TIP3      6520            0.0000000000
     71076      7881  TIP3      OH2             1.4700596087       37.9258102697       76.9973688319  TIP3      6521            0.0000000000
     71077      7881  TIP3      H1              1.0545317716       38.6314373601       76.4925700899  TIP3      6521            0.0000000000
     71078      7881  TIP3      H2              0.9398589833       38.0257196731       77.8143178673  TIP3      6521            0.0000000000
     71079      7882  TIP3      OH2            11.9145416717       38.4916114364       73.6602978166  TIP3      6522            0.0000000000
     71080      7882  TIP3      H1             11.7352452651       37.7215132110       74.2042747479  TIP3      6522            0.0000000000
     71081      7882  TIP3      H2             12.5574793662       38.9897868418       74.1974228369  TIP3      6522            0.0000000000
     71082      7883  TIP3      OH2             0.9333459739       39.9060210686       75.7019055724  TIP3      6523            0.0000000000
     71083      7883  TIP3      H1              1.5242220090       40.6737771767       75.7324469570  TIP3      6523            0.0000000000
     71084      7883  TIP3      H2              1.3812410418       39.5066354428       74.9285183315  TIP3      6523            0.0000000000
     71085      7884  TIP3      OH2             2.5897503241       36.0752504553       75.7192665156  TIP3      6524            0.0000000000
     71086      7884  TIP3      H1              1.7981444947       36.1126129239       75.1732362698  TIP3      6524            0.0000000000
     71087      7884  TIP3      H2              2.5438582282       36.9759741831       76.1041660664  TIP3      6524            0.0000000000
     71088      7885  TIP3      OH2            10.5918501696       39.7035256046       79.7949815750  TIP3      6525            0.0000000000
     71089      7885  TIP3      H1             10.0261347580       39.5812706409       80.6001592874  TIP3      6525            0.0000000000
     71090      7885  TIP3      H2             10.3955698107       40.6129412928       79.5564532848  TIP3      6525            0.0000000000
     71091      7886  TIP3      OH2             6.9298436080       38.4687004838       66.2717968278  TIP3      6526            0.0000000000
     71092      7886  TIP3      H1              6.6084340969       38.4448739326       67.1914008050  TIP3      6526            0.0000000000
     71093      7886  TIP3      H2              6.6380925770       37.6031366270       65.9732700198  TIP3      6526            0.0000000000
     71094      7887  TIP3      OH2            -2.9393786734       38.6642390069       72.4388621759  TIP3      6527            0.0000000000
     71095      7887  TIP3      H1             -2.3595263457       38.5275825538       73.1925299860  TIP3      6527            0.0000000000
     71096      7887  TIP3      H2             -2.5459824597       38.1865131578       71.7064621046  TIP3      6527            0.0000000000
     71097      7888  TIP3      OH2            -1.7514590095       39.3667471363       67.7930041418  TIP3      6528            0.0000000000
     71098      7888  TIP3      H1             -1.2487661885       39.9796094331       67.2608621427  TIP3      6528            0.0000000000
     71099      7888  TIP3      H2             -2.4226543071       39.9263731743       68.1805360996  TIP3      6528            0.0000000000
     71100      7889  TIP3      OH2             5.9376860687       39.3214381699       73.0943864844  TIP3      6529            0.0000000000
     71101      7889  TIP3      H1              4.9714730076       39.2003491694       72.9127882434  TIP3      6529            0.0000000000
     71102      7889  TIP3      H2              5.9869911430       38.6695347418       73.8008603788  TIP3      6529            0.0000000000
     71103      7890  TIP3      OH2            -0.1980589163       40.7641688899       70.9609926171  TIP3      6530            0.0000000000
     71104      7890  TIP3      H1             -1.1115446768       40.5625127898       71.1141247921  TIP3      6530            0.0000000000
     71105      7890  TIP3      H2              0.1885893707       39.8929327795       71.0994230052  TIP3      6530            0.0000000000
     71106      7891  TIP3      OH2             3.4076547108      -41.9781267891       69.6581613257  TIP3      6531            0.0000000000
     71107      7891  TIP3      H1              4.2259602726      -41.4334366267       69.7276492378  TIP3      6531            0.0000000000
     71108      7891  TIP3      H2              2.8713951980      -41.1776200079       69.3822871024  TIP3      6531            0.0000000000
     71109      7892  TIP3      OH2             9.6450850667       38.0179604092       75.9027459507  TIP3      6532            0.0000000000
     71110      7892  TIP3      H1              8.9911718793       38.2168353304       76.6037893561  TIP3      6532            0.0000000000
     71111      7892  TIP3      H2              9.1014294403       37.9321753575       75.1090424707  TIP3      6532            0.0000000000
     71112      7893  TIP3      OH2             5.2264168776       39.7018127780       77.1580429352  TIP3      6533            0.0000000000
     71113      7893  TIP3      H1              4.4928883732       40.3342695418       77.0774070524  TIP3      6533            0.0000000000
     71114      7893  TIP3      H2              5.7921447726       40.1990335576       77.7701515766  TIP3      6533            0.0000000000
     71115      7894  TIP3      OH2             9.6588951860       39.0634344091       66.8287889363  TIP3      6534            0.0000000000
     71116      7894  TIP3      H1              8.6987290618       39.1474859018       66.6903073175  TIP3      6534            0.0000000000
     71117      7894  TIP3      H2              9.9070408388       39.9264164610       67.1528807998  TIP3      6534            0.0000000000
     71118      7895  TIP3      OH2             0.4361391601       37.7540675503       79.1963722504  TIP3      6535            0.0000000000
     71119      7895  TIP3      H1             -0.0507244490       38.5941771347       78.8976645231  TIP3      6535            0.0000000000
     71120      7895  TIP3      H2             -0.3035661809       37.6369128975       79.8013751904  TIP3      6535            0.0000000000
     71121      7896  TIP3      OH2             8.2103739562       38.4749903383       78.2193251416  TIP3      6536            0.0000000000
     71122      7896  TIP3      H1              8.9161666860       38.5888904412       78.8748694062  TIP3      6536            0.0000000000
     71123      7896  TIP3      H2              7.8398749923       37.6116737997       78.4109045619  TIP3      6536            0.0000000000
     71124      7897  TIP3      OH2             8.9547829491       38.1217895619       69.3324219580  TIP3      6537            0.0000000000
     71125      7897  TIP3      H1              9.2825052162       38.5378888599       68.5176859091  TIP3      6537            0.0000000000
     71126      7897  TIP3      H2              9.5430496562       38.4804289238       70.0204433443  TIP3      6537            0.0000000000
     71127      7898  TIP3      OH2             6.1957165613       39.8613950822       70.1263700336  TIP3      6538            0.0000000000
     71128      7898  TIP3      H1              7.0144273714       40.3672745043       70.1994569029  TIP3      6538            0.0000000000
     71129      7898  TIP3      H2              5.9795462016       39.7324806075       71.0676371445  TIP3      6538            0.0000000000
     71130      7899  TIP3      OH2             6.8321160906      -40.5366775222       79.2847595498  TIP3      6539            0.0000000000
     71131      7899  TIP3      H1              6.8999979519      -40.0505382784       80.1116120912  TIP3      6539            0.0000000000
     71132      7899  TIP3      H2              7.4006634553      -41.3109770670       79.4513522192  TIP3      6539            0.0000000000
     71133      7900  TIP3      OH2             2.4704524499       37.5605942970       68.5122141475  TIP3      6540            0.0000000000
     71134      7900  TIP3      H1              2.4840733850       38.5561368093       68.3594376069  TIP3      6540            0.0000000000
     71135      7900  TIP3      H2              3.4345023873       37.6000427448       68.2481514386  TIP3      6540            0.0000000000
     71136      7901  TIP3      OH2            12.9609997561       38.6269310634       80.1506026702  TIP3      6541            0.0000000000
     71137      7901  TIP3      H1             12.0653716672       39.0379995038       80.1019476451  TIP3      6541            0.0000000000
     71138      7901  TIP3      H2             13.2471598493       38.7919395736       79.2553462573  TIP3      6541            0.0000000000
     71139      7902  TIP3      OH2             3.7127680270       39.7072672244       80.7621937983  TIP3      6542            0.0000000000
     71140      7902  TIP3      H1              3.5362708338       38.9585092992       80.1505658196  TIP3      6542            0.0000000000
     71141      7902  TIP3      H2              3.4364225321       40.4901267265       80.2875857123  TIP3      6542            0.0000000000
     71142      7903  TIP3      OH2             3.7244134062       38.1692098038       78.4939025691  TIP3      6543            0.0000000000
     71143      7903  TIP3      H1              4.3334968983       38.5488279552       77.8087784075  TIP3      6543            0.0000000000
     71144      7903  TIP3      H2              2.9037546609       38.0207741804       78.0020411647  TIP3      6543            0.0000000000
     71145      7904  TIP3      OH2             6.2634004556       39.4218385916       81.5938210262  TIP3      6544            0.0000000000
     71146      7904  TIP3      H1              6.3089203117       39.4652785236       82.5769040932  TIP3      6544            0.0000000000
     71147      7904  TIP3      H2              5.2917899506       39.6075045938       81.5329725606  TIP3      6544            0.0000000000
     71148      7905  TIP3      OH2             8.7145860081       39.0597962450       81.5030627364  TIP3      6545            0.0000000000
     71149      7905  TIP3      H1              7.7346430311       39.0857473751       81.5782212769  TIP3      6545            0.0000000000
     71150      7905  TIP3      H2              8.9513207853       38.4511722802       82.2172000056  TIP3      6545            0.0000000000
     71151      7906  TIP3      OH2            10.1452859655       37.6971029174       83.4786680280  TIP3      6546            0.0000000000
     71152      7906  TIP3      H1             10.1176420230       36.7412632930       83.5449672309  TIP3      6546            0.0000000000
     71153      7906  TIP3      H2              9.9358986095       37.9952342916       84.3908795853  TIP3      6546            0.0000000000
     71154      7907  TIP3      OH2             5.1912598604       36.6128801947       83.5699681064  TIP3      6547            0.0000000000
     71155      7907  TIP3      H1              5.0170545045       36.0999665738       82.7665620537  TIP3      6547            0.0000000000
     71156      7907  TIP3      H2              4.4559930769       37.2711200136       83.5230421806  TIP3      6547            0.0000000000
     71157      7908  TIP3      OH2            12.5978477791       40.0768439472       70.1699667871  TIP3      6548            0.0000000000
     71158      7908  TIP3      H1             12.9137367648       39.1758151768       70.1448521550  TIP3      6548            0.0000000000
     71159      7908  TIP3      H2             13.2817250750       40.5539483975       69.6597340204  TIP3      6548            0.0000000000
     71160      7909  TIP3      OH2            -2.7595821047       40.0035454773       81.9756565647  TIP3      6549            0.0000000000
     71161      7909  TIP3      H1             -1.8061719995       39.8452238426       81.8158764387  TIP3      6549            0.0000000000
     71162      7909  TIP3      H2             -3.1171780896       39.1287285234       82.1548454586  TIP3      6549            0.0000000000
     71163      7910  TIP3      OH2            -1.4756065771       38.0498907925       74.9384438331  TIP3      6550            0.0000000000
     71164      7910  TIP3      H1             -0.8093029214       37.3744409213       74.9259603581  TIP3      6550            0.0000000000
     71165      7910  TIP3      H2             -0.9695024808       38.8653416271       75.0024936819  TIP3      6550            0.0000000000
     71166      7911  TIP3      OH2            14.9706293840       37.5433942614       81.9909740229  TIP3      6551            0.0000000000
     71167      7911  TIP3      H1             14.0722216914       37.9282085989       81.9211121863  TIP3      6551            0.0000000000
     71168      7911  TIP3      H2             15.0951205851       37.1036800886       81.1533617926  TIP3      6551            0.0000000000
     71169      7912  TIP3      OH2             7.4409813561       37.0954359932       74.1363346964  TIP3      6552            0.0000000000
     71170      7912  TIP3      H1              6.7631079908       36.4708880809       74.3709102523  TIP3      6552            0.0000000000
     71171      7912  TIP3      H2              7.9805881575       36.6778313421       73.4670685568  TIP3      6552            0.0000000000
     71172      7913  TIP3      OH2            14.2496831781       36.3820218389       72.4928753416  TIP3      6553            0.0000000000
     71173      7913  TIP3      H1             14.9046478535       35.8585905062       72.0032234363  TIP3      6553            0.0000000000
     71174      7913  TIP3      H2             14.6920247086       37.2412213113       72.5980771123  TIP3      6553            0.0000000000
     71175      7914  TIP3      OH2             5.4443819411       37.7550029792       68.5772994620  TIP3      6554            0.0000000000
     71176      7914  TIP3      H1              5.6982174015       37.1441256963       69.2777732722  TIP3      6554            0.0000000000
     71177      7914  TIP3      H2              5.4971886762       38.5909813978       69.0929093412  TIP3      6554            0.0000000000
     71178      7915  TIP3      OH2             1.6413811793       35.6276407736       82.8810020422  TIP3      6555            0.0000000000
     71179      7915  TIP3      H1              2.5601958151       35.3700737744       82.7946150696  TIP3      6555            0.0000000000
     71180      7915  TIP3      H2              1.3058719812       34.9282490533       83.4473632096  TIP3      6555            0.0000000000
     71181      7916  TIP3      OH2            33.7341201710       38.1602765563       76.3889905805  TIP3      6556            0.0000000000
     71182      7916  TIP3      H1             33.7165922197       38.8024496860       77.1499781452  TIP3      6556            0.0000000000
     71183      7916  TIP3      H2             34.1516133614       38.7286532514       75.7397337828  TIP3      6556            0.0000000000
     71184      7917  TIP3      OH2            33.9759689076       40.0551427463       78.3976041667  TIP3      6557            0.0000000000
     71185      7917  TIP3      H1             33.1092704799       40.4053450375       78.4265652164  TIP3      6557            0.0000000000
     71186      7917  TIP3      H2             34.0920541672       39.7605055119       79.3291302607  TIP3      6557            0.0000000000
     71187      7918  TIP3      OH2            30.7262479378       38.5205749131       73.6712078459  TIP3      6558            0.0000000000
     71188      7918  TIP3      H1             30.5981239856       37.7560154701       74.2196028492  TIP3      6558            0.0000000000
     71189      7918  TIP3      H2             31.4279060412       38.9969528992       74.1494640273  TIP3      6558            0.0000000000
     71190      7919  TIP3      OH2            31.1320287907       37.2311306117       77.3554980997  TIP3      6559            0.0000000000
     71191      7919  TIP3      H1             30.3926972414       37.8458436398       77.2506904139  TIP3      6559            0.0000000000
     71192      7919  TIP3      H2             31.8526213712       37.6311561510       76.8207283748  TIP3      6559            0.0000000000
     71193      7920  TIP3      OH2            32.3644503283       35.2588335918       67.6930227529  TIP3      6560            0.0000000000
     71194      7920  TIP3      H1             31.4887709654       35.4525955263       68.0670388679  TIP3      6560            0.0000000000
     71195      7920  TIP3      H2             32.6986200547       36.1201106033       67.3779469105  TIP3      6560            0.0000000000
     71196      7921  TIP3      OH2            29.3688710509       39.7118448262       79.7806470306  TIP3      6561            0.0000000000
     71197      7921  TIP3      H1             28.8613216867       39.5768943150       80.6083826635  TIP3      6561            0.0000000000
     71198      7921  TIP3      H2             29.2111116991       40.6330075292       79.5881083551  TIP3      6561            0.0000000000
     71199      7922  TIP3      OH2            15.8943435100       38.6518311976       72.4519000827  TIP3      6562            0.0000000000
     71200      7922  TIP3      H1             16.5214228567       38.5069173343       73.1893607806  TIP3      6562            0.0000000000
     71201      7922  TIP3      H2             16.3383297571       38.2435281359       71.6885407250  TIP3      6562            0.0000000000
     71202      7923  TIP3      OH2            28.5154818829       38.0380472383       75.9249996413  TIP3      6563            0.0000000000
     71203      7923  TIP3      H1             27.8421456228       38.2551017503       76.6046540110  TIP3      6563            0.0000000000
     71204      7923  TIP3      H2             27.9978294161       37.9646606090       75.1237384234  TIP3      6563            0.0000000000
     71205      7924  TIP3      OH2            20.4179578790       37.7889661530       71.0048285060  TIP3      6564            0.0000000000
     71206      7924  TIP3      H1             20.0908090104       36.8740865671       70.9992475714  TIP3      6564            0.0000000000
     71207      7924  TIP3      H2             21.1806694520       37.7821233795       70.4269805832  TIP3      6564            0.0000000000
     71208      7925  TIP3      OH2            28.4449632575       39.0352807555       66.8583419825  TIP3      6565            0.0000000000
     71209      7925  TIP3      H1             27.5110864203       39.2277212672       66.7475367575  TIP3      6565            0.0000000000
     71210      7925  TIP3      H2             28.8045168869       39.8944748178       67.1424149802  TIP3      6565            0.0000000000
     71211      7926  TIP3      OH2            18.3498930904       38.7520164406       79.2995557612  TIP3      6566            0.0000000000
     71212      7926  TIP3      H1             17.4565157908       39.1139322853       79.2705916713  TIP3      6566            0.0000000000
     71213      7926  TIP3      H2             18.2264293798       37.9050009931       79.7373546797  TIP3      6566            0.0000000000
     71214      7927  TIP3      OH2            27.0793491221       38.4931434041       78.1912658074  TIP3      6567            0.0000000000
     71215      7927  TIP3      H1             27.7969744791       38.5750024418       78.8453019612  TIP3      6567            0.0000000000
     71216      7927  TIP3      H2             26.7073052421       37.6299339126       78.4124683228  TIP3      6567            0.0000000000
     71217      7928  TIP3      OH2            27.8526286045       38.0706118293       69.3305980530  TIP3      6568            0.0000000000
     71218      7928  TIP3      H1             28.0952956548       38.5506660814       68.5219466907  TIP3      6568            0.0000000000
     71219      7928  TIP3      H2             28.4074863410       38.5072046931       69.9848910803  TIP3      6568            0.0000000000
     71220      7929  TIP3      OH2            31.7753069439       38.8630844677       80.1966835634  TIP3      6569            0.0000000000
     71221      7929  TIP3      H1             30.8190460168       39.0282598295       80.0692407970  TIP3      6569            0.0000000000
     71222      7929  TIP3      H2             32.0818573301       38.6682851625       79.2952518982  TIP3      6569            0.0000000000
     71223      7930  TIP3      OH2            18.9331293962       35.9072404028       74.6766789373  TIP3      6570            0.0000000000
     71224      7930  TIP3      H1             18.7978060927       35.9246958252       73.7072663836  TIP3      6570            0.0000000000
     71225      7930  TIP3      H2             18.5425507912       35.0539080576       74.9357748590  TIP3      6570            0.0000000000
     71226      7931  TIP3      OH2            27.4145963655       39.0785848757       81.4939863350  TIP3      6571            0.0000000000
     71227      7931  TIP3      H1             26.4820988160       39.0590088336       81.6742060022  TIP3      6571            0.0000000000
     71228      7931  TIP3      H2             27.7788716967       38.4736543389       82.1736621204  TIP3      6571            0.0000000000
     71229      7932  TIP3      OH2            28.9425367591       37.7368499841       83.4540024354  TIP3      6572            0.0000000000
     71230      7932  TIP3      H1             28.9741164758       36.7543487250       83.4828876361  TIP3      6572            0.0000000000
     71231      7932  TIP3      H2             28.7846841809       37.9811777551       84.3893514541  TIP3      6572            0.0000000000
     71232      7933  TIP3      OH2            23.7661252113       34.9774685274       81.5658630713  TIP3      6573            0.0000000000
     71233      7933  TIP3      H1             24.3838604542       34.2275358689       81.5018551249  TIP3      6573            0.0000000000
     71234      7933  TIP3      H2             23.5655945432       35.1554125089       80.6352173414  TIP3      6573            0.0000000000
     71235      7934  TIP3      OH2            31.6157005018       38.5863726694       65.0559093849  TIP3      6574            0.0000000000
     71236      7934  TIP3      H1             32.3576194924       38.2870166204       65.6448017148  TIP3      6574            0.0000000000
     71237      7934  TIP3      H2             30.8529648301       38.1197598062       65.3367278943  TIP3      6574            0.0000000000
     71238      7935  TIP3      OH2            31.5084260989       40.1231598992       70.1596537031  TIP3      6575            0.0000000000
     71239      7935  TIP3      H1             31.7665552223       39.1798743470       70.1544365739  TIP3      6575            0.0000000000
     71240      7935  TIP3      H2             32.2011735648       40.5419693783       69.6311246319  TIP3      6575            0.0000000000
     71241      7936  TIP3      OH2            32.3121489049      -41.0169058189       76.0169206580  TIP3      6576            0.0000000000
     71242      7936  TIP3      H1             32.8969032680      -40.4473959539       75.4940793298  TIP3      6576            0.0000000000
     71243      7936  TIP3      H2             31.7300769043      -40.4010230285       76.4438289730  TIP3      6576            0.0000000000
     71244      7937  TIP3      OH2            16.3019970160       39.9278215183       81.7627736351  TIP3      6577            0.0000000000
     71245      7937  TIP3      H1             17.2351986535       39.7749807757       81.9172761314  TIP3      6577            0.0000000000
     71246      7937  TIP3      H2             15.8460194247       39.1423021387       82.1006679718  TIP3      6577            0.0000000000
     71247      7938  TIP3      OH2            34.3626680443       35.3786499962       83.5786819844  TIP3      6578            0.0000000000
     71248      7938  TIP3      H1             34.7112114137       34.7844712186       82.9363427655  TIP3      6578            0.0000000000
     71249      7938  TIP3      H2             34.3790119698       36.2626139056       83.1748005845  TIP3      6578            0.0000000000
     71250      7939  TIP3      OH2            32.0314389918       37.4923000777       70.0859409319  TIP3      6579            0.0000000000
     71251      7939  TIP3      H1             32.2112578256       37.0233949276       70.9098586165  TIP3      6579            0.0000000000
     71252      7939  TIP3      H2             31.4588048279       36.8491713923       69.6400395755  TIP3      6579            0.0000000000
     71253      7940  TIP3      OH2            17.6133886495       38.2671394822       74.5318181445  TIP3      6580            0.0000000000
     71254      7940  TIP3      H1             18.0204472815       37.4406936365       74.8673773695  TIP3      6580            0.0000000000
     71255      7940  TIP3      H2             18.0483543498       38.9110948475       75.0755809934  TIP3      6580            0.0000000000
     71256      7941  TIP3      OH2            33.2019448130       37.2686288936       82.3069871307  TIP3      6581            0.0000000000
     71257      7941  TIP3      H1             32.6212507707       37.9485684795       81.9341013195  TIP3      6581            0.0000000000
     71258      7941  TIP3      H2             33.6976192132       36.9841946992       81.5129163988  TIP3      6581            0.0000000000
     71259      7942  TIP3      OH2            33.7746282416       37.5279093427       66.5965381257  TIP3      6582            0.0000000000
     71260      7942  TIP3      H1             34.2599444733       36.8011303278       66.1715872651  TIP3      6582            0.0000000000
     71261      7942  TIP3      H2             34.5157091550       38.1582990975       66.7007835272  TIP3      6582            0.0000000000
     71262      7943  TIP3      OH2            16.1936857041       37.4841872355       69.6811322443  TIP3      6583            0.0000000000
     71263      7943  TIP3      H1             15.2739578869       37.7585380146       69.6238513774  TIP3      6583            0.0000000000
     71264      7943  TIP3      H2             16.6251191504       38.0518036327       69.0453580578  TIP3      6583            0.0000000000
     71265      7944  TIP3      OH2            16.1095298133       36.2047351640       78.0382368514  TIP3      6584            0.0000000000
     71266      7944  TIP3      H1             15.4771487330       36.0436895701       78.7328240114  TIP3      6584            0.0000000000
     71267      7944  TIP3      H2             15.7081419080       36.8975635739       77.5064124894  TIP3      6584            0.0000000000
     71268      7945  TIP3      OH2            32.6714916702       35.4886049443       79.8721252153  TIP3      6585            0.0000000000
     71269      7945  TIP3      H1             32.0483397017       36.0330414623       79.3790705360  TIP3      6585            0.0000000000
     71270      7945  TIP3      H2             32.9915082196       34.8656474115       79.2145266397  TIP3      6585            0.0000000000
     71271      7946  TIP3      OH2            18.6264290609       35.7289098418       71.8965490989  TIP3      6586            0.0000000000
     71272      7946  TIP3      H1             17.8155280124       35.5193533115       71.4099482094  TIP3      6586            0.0000000000
     71273      7946  TIP3      H2             19.1244500125       34.8965563222       71.8885027238  TIP3      6586            0.0000000000
     71274      7947  TIP3      OH2            17.4601977603       35.4982004085       67.7126487900  TIP3      6587            0.0000000000
     71275      7947  TIP3      H1             17.8903281027       36.1566104173       67.1551412827  TIP3      6587            0.0000000000
     71276      7947  TIP3      H2             16.8341251886       36.0535227986       68.2027949202  TIP3      6587            0.0000000000
     71277      7948  TIP3      OH2            30.0985822712       35.7705271829       68.9726319647  TIP3      6588            0.0000000000
     71278      7948  TIP3      H1             29.3827543351       36.4073611616       68.8777223036  TIP3      6588            0.0000000000
     71279      7948  TIP3      H2             29.6404066046       34.9403543478       69.2414657455  TIP3      6588            0.0000000000
     71280      7949  TIP3      OH2            18.5255302770       36.2889338306       81.4491931334  TIP3      6589            0.0000000000
     71281      7949  TIP3      H1             18.1797978479       35.4749520204       81.8574969096  TIP3      6589            0.0000000000
     71282      7949  TIP3      H2             19.4455921899       36.2897592902       81.7164189092  TIP3      6589            0.0000000000
     71283      7950  TIP3      OH2            28.9539180471       35.0425033589       83.1910706125  TIP3      6590            0.0000000000
     71284      7950  TIP3      H1             29.0569490647       34.4962208440       83.9699749660  TIP3      6590            0.0000000000
     71285      7950  TIP3      H2             29.8339620934       34.9257601943       82.7951291470  TIP3      6590            0.0000000000
     71286      7951  TIP3      OH2            39.1010064027       39.7261401003       72.9383007505  TIP3      6591            0.0000000000
     71287      7951  TIP3      H1             40.0116029476       40.0667371983       72.8335034754  TIP3      6591            0.0000000000
     71288      7951  TIP3      H2             39.4049305112       38.8616492208       72.6702562705  TIP3      6591            0.0000000000
     71289      7952  TIP3      OH2            38.0941279764       39.4474325031       77.5114266018  TIP3      6592            0.0000000000
     71290      7952  TIP3      H1             38.5781889408       38.9606192205       76.8541905487  TIP3      6592            0.0000000000
     71291      7952  TIP3      H2             38.1495628530       38.6730623191       78.0945132567  TIP3      6592            0.0000000000
     71292      7953  TIP3      OH2            37.8168242298       40.3258307153       75.1463397819  TIP3      6593            0.0000000000
     71293      7953  TIP3      H1             38.4762681281       40.5923151983       75.8141173408  TIP3      6593            0.0000000000
     71294      7953  TIP3      H2             38.4159761593       39.7304147855       74.6586698159  TIP3      6593            0.0000000000
     71295      7954  TIP3      OH2            38.7145614569       35.3628689541       75.5691357867  TIP3      6594            0.0000000000
     71296      7954  TIP3      H1             38.5541556824       36.0618573808       74.9196052742  TIP3      6594            0.0000000000
     71297      7954  TIP3      H2             39.5137507918       36.0208490341       75.7330326163  TIP3      6594            0.0000000000
     71298      7955  TIP3      OH2            34.8232893392       38.9989140630       72.3209709300  TIP3      6595            0.0000000000
     71299      7955  TIP3      H1             35.2183127201       38.5945232448       73.1194012466  TIP3      6595            0.0000000000
     71300      7955  TIP3      H2             35.0424869685       38.3090722240       71.6623866106  TIP3      6595            0.0000000000
     71301      7956  TIP3      OH2            35.6605588137       39.3314356501       67.8493672278  TIP3      6596            0.0000000000
     71302      7956  TIP3      H1             36.3945987436       39.8097233960       67.4011737133  TIP3      6596            0.0000000000
     71303      7956  TIP3      H2             35.1710694472       40.0351893406       68.2506895722  TIP3      6596            0.0000000000
     71304      7957  TIP3      OH2            37.3293548468       39.8881648627       71.3129227523  TIP3      6597            0.0000000000
     71305      7957  TIP3      H1             36.6816823671       40.3360967841       70.7867966161  TIP3      6597            0.0000000000
     71306      7957  TIP3      H2             37.9183345078       39.3255751335       70.7779053946  TIP3      6597            0.0000000000
     71307      7958  TIP3      OH2            40.7594208446       38.3771848332       71.9559476748  TIP3      6598            0.0000000000
     71308      7958  TIP3      H1             40.1250671560       37.6515106408       71.8946580673  TIP3      6598            0.0000000000
     71309      7958  TIP3      H2             40.5489581429       38.5707700417       71.0472902434  TIP3      6598            0.0000000000
     71310      7959  TIP3      OH2            36.7320755237       39.8760837785       79.4888004539  TIP3      6599            0.0000000000
     71311      7959  TIP3      H1             36.0962753644       39.3785215479       78.9667424010  TIP3      6599            0.0000000000
     71312      7959  TIP3      H2             37.1484099364       38.9940686355       79.6632932753  TIP3      6599            0.0000000000
     71313      7960  TIP3      OH2           -40.0239940584       34.8396493518       69.3155063002  TIP3      6600            0.0000000000
     71314      7960  TIP3      H1            -40.7597833554       35.4873696108       69.0335206724  TIP3      6600            0.0000000000
     71315      7960  TIP3      H2            -39.6144067640       35.7430315584       69.1471612371  TIP3      6600            0.0000000000
     71316      7961  TIP3      OH2            36.5565439599       35.7843851753       75.3388337859  TIP3      6601            0.0000000000
     71317      7961  TIP3      H1             37.2070294976       35.8649331476       74.5387978644  TIP3      6601            0.0000000000
     71318      7961  TIP3      H2             37.0314233580       34.8715347039       75.3072947922  TIP3      6601            0.0000000000
     71319      7962  TIP3      OH2            37.6204897370       39.8243145255       82.8478857643  TIP3      6602            0.0000000000
     71320      7962  TIP3      H1             38.1030990744       39.2289202063       82.2169932008  TIP3      6602            0.0000000000
     71321      7962  TIP3      H2             37.5143877783       39.0411765726       83.4101339293  TIP3      6602            0.0000000000
     71322      7963  TIP3      OH2            34.9358013534       40.1883811894       81.8034202053  TIP3      6603            0.0000000000
     71323      7963  TIP3      H1             35.9036466624       40.0315962136       81.9317036410  TIP3      6603            0.0000000000
     71324      7963  TIP3      H2             34.6287072100       39.3167273279       82.0484570464  TIP3      6603            0.0000000000
     71325      7964  TIP3      OH2            36.2502224045       38.4811874018       75.1512522534  TIP3      6604            0.0000000000
     71326      7964  TIP3      H1             36.7953705253       37.7029823686       74.9594043634  TIP3      6604            0.0000000000
     71327      7964  TIP3      H2             36.9177742668       39.1857030923       75.1443770224  TIP3      6604            0.0000000000
     71328      7965  TIP3      OH2            35.0541063708       37.5697934902       69.8101739427  TIP3      6605            0.0000000000
     71329      7965  TIP3      H1             34.1132078007       37.7073564418       69.6218550793  TIP3      6605            0.0000000000
     71330      7965  TIP3      H2             35.4439495593       38.0313635353       69.0376567641  TIP3      6605            0.0000000000
     71331      7966  TIP3      OH2            35.0705034097       35.7805810171       77.6818283901  TIP3      6606            0.0000000000
     71332      7966  TIP3      H1             34.5618617188       35.8501824659       78.5049369476  TIP3      6606            0.0000000000
     71333      7966  TIP3      H2             34.8141313372       36.5909062443       77.2037099093  TIP3      6606            0.0000000000
     71334      7967  TIP3      OH2            36.8687234845       35.6208805863       70.4760220754  TIP3      6607            0.0000000000
     71335      7967  TIP3      H1             36.2258134020       35.4826793802       71.1874532729  TIP3      6607            0.0000000000
     71336      7967  TIP3      H2             37.5799088499       35.3985417460       71.1598988677  TIP3      6607            0.0000000000
     71337      7968  TIP3      OH2            35.4915093580       36.0334523343       67.8390898832  TIP3      6608            0.0000000000
     71338      7968  TIP3      H1             36.3886841588       36.0993534926       67.4606922377  TIP3      6608            0.0000000000
     71339      7968  TIP3      H2             35.6078067944       36.4542522394       68.6950209065  TIP3      6608            0.0000000000
     71340      7969  TIP3      OH2            37.9126420033       37.9431021724       67.7520312605  TIP3      6609            0.0000000000
     71341      7969  TIP3      H1             38.0767233798       37.2608869570       67.0493444696  TIP3      6609            0.0000000000
     71342      7969  TIP3      H2             38.7234238877       38.2109052869       67.2447977153  TIP3      6609            0.0000000000
     71343      7970  TIP3      OH2            37.0638619541       35.1849145023       81.0842016263  TIP3      6610            0.0000000000
     71344      7970  TIP3      H1             36.7748104985       35.2711083206       81.9957835582  TIP3      6610            0.0000000000
     71345      7970  TIP3      H2             37.8784368854       35.7176661793       81.1505082820  TIP3      6610            0.0000000000
     71346      7971  TIP3      OH2            39.4538999649       35.1706418142       81.4705921999  TIP3      6611            0.0000000000
     71347      7971  TIP3      H1             40.1087697745       35.1991204842       82.1811919777  TIP3      6611            0.0000000000
     71348      7971  TIP3      H2             38.7840181582       35.1132910516       82.2621957683  TIP3      6611            0.0000000000
     71349      7972  TIP3      OH2           -30.1116950286      -32.7995735966       85.1591230246  TIP3      6612            0.0000000000
     71350      7972  TIP3      H1            -29.3945719486      -32.7432113637       85.8265247809  TIP3      6612            0.0000000000
     71351      7972  TIP3      H2            -29.7914942497      -33.5024473745       84.5977360662  TIP3      6612            0.0000000000
     71352      7973  TIP3      OH2           -27.8596677616      -31.9289383191       86.7940550573  TIP3      6613            0.0000000000
     71353      7973  TIP3      H1            -27.2671048402      -31.7445120246       87.5221740417  TIP3      6613            0.0000000000
     71354      7973  TIP3      H2            -27.4553769029      -31.4361455241       86.0504324141  TIP3      6613            0.0000000000
     71355      7974  TIP3      OH2           -26.3709875993      -30.8864476037       84.5243484485  TIP3      6614            0.0000000000
     71356      7974  TIP3      H1            -26.4010165211      -31.0482050801       83.5542983018  TIP3      6614            0.0000000000
     71357      7974  TIP3      H2            -25.5292403725      -30.4242923260       84.6233796541  TIP3      6614            0.0000000000
     71358      7975  TIP3      OH2           -30.8651312233      -36.9604637074       85.0638192650  TIP3      6615            0.0000000000
     71359      7975  TIP3      H1            -31.0609365233      -36.9885517138       85.9985975511  TIP3      6615            0.0000000000
     71360      7975  TIP3      H2            -31.1103829906      -37.8576829669       84.7691399470  TIP3      6615            0.0000000000
     71361      7976  TIP3      OH2           -33.9743651249      -36.6042983262       84.1758984957  TIP3      6616            0.0000000000
     71362      7976  TIP3      H1            -34.4193873835      -36.9647040530       84.9675087693  TIP3      6616            0.0000000000
     71363      7976  TIP3      H2            -34.6807834084      -36.1470516911       83.7008855251  TIP3      6616            0.0000000000
     71364      7977  TIP3      OH2           -39.4426513957      -36.0713575736       86.6296448952  TIP3      6617            0.0000000000
     71365      7977  TIP3      H1            -38.9369257954      -35.4672286815       86.0951657696  TIP3      6617            0.0000000000
     71366      7977  TIP3      H2            -40.1041696388      -35.5042917586       87.0599950666  TIP3      6617            0.0000000000
     71367      7978  TIP3      OH2           -35.3144711301      -33.8520790006       85.6198929116  TIP3      6618            0.0000000000
     71368      7978  TIP3      H1            -35.8578689893      -34.1282970864       84.8659126456  TIP3      6618            0.0000000000
     71369      7978  TIP3      H2            -34.5158579932      -33.5476827680       85.1589226235  TIP3      6618            0.0000000000
     71370      7979  TIP3      OH2           -32.7123763177      -26.3896005549       83.7887253676  TIP3      6619            0.0000000000
     71371      7979  TIP3      H1            -32.4876912566      -27.1994124516       83.3127087679  TIP3      6619            0.0000000000
     71372      7979  TIP3      H2            -33.0194428816      -26.7813500867       84.6416533715  TIP3      6619            0.0000000000
     71373      7980  TIP3      OH2           -33.7509853205      -26.8721201529       86.2693810853  TIP3      6620            0.0000000000
     71374      7980  TIP3      H1            -33.6634371057      -27.3830432002       87.0807545891  TIP3      6620            0.0000000000
     71375      7980  TIP3      H2            -33.7727259406      -25.9509565085       86.5918932606  TIP3      6620            0.0000000000
     71376      7981  TIP3      OH2           -33.6112155993      -24.1277760381       87.0395185341  TIP3      6621            0.0000000000
     71377      7981  TIP3      H1            -33.5660964930      -23.3268872629       86.5122429080  TIP3      6621            0.0000000000
     71378      7981  TIP3      H2            -33.9174809037      -23.8162411938       87.8896894268  TIP3      6621            0.0000000000
     71379      7982  TIP3      OH2           -34.9870463045      -37.4464320527       86.5981031221  TIP3      6622            0.0000000000
     71380      7982  TIP3      H1            -35.0870413756      -36.5669640301       86.9887207730  TIP3      6622            0.0000000000
     71381      7982  TIP3      H2            -34.0944213453      -37.6931080293       86.8698191225  TIP3      6622            0.0000000000
     71382      7983  TIP3      OH2           -35.1257320773      -28.8825034060       84.0100464219  TIP3      6623            0.0000000000
     71383      7983  TIP3      H1            -35.0298060801      -29.6378042334       84.5973850273  TIP3      6623            0.0000000000
     71384      7983  TIP3      H2            -34.4334414309      -28.9846606575       83.3543818453  TIP3      6623            0.0000000000
     71385      7984  TIP3      OH2           -29.9276872507      -27.7802779407       83.8069758344  TIP3      6624            0.0000000000
     71386      7984  TIP3      H1            -30.0138082822      -27.6325312946       84.7530738984  TIP3      6624            0.0000000000
     71387      7984  TIP3      H2            -29.9816213815      -28.7475065845       83.7061000695  TIP3      6624            0.0000000000
     71388      7985  TIP3      OH2           -33.9214580460      -30.8773768225       86.3725847181  TIP3      6625            0.0000000000
     71389      7985  TIP3      H1            -34.4766944034      -31.3451474507       87.0085335065  TIP3      6625            0.0000000000
     71390      7985  TIP3      H2            -33.6785596437      -31.5326263375       85.6928708932  TIP3      6625            0.0000000000
     71391      7986  TIP3      OH2           -32.8962253562      -32.6624189202       84.6086946966  TIP3      6626            0.0000000000
     71392      7986  TIP3      H1            -33.0499294423      -32.6965291053       83.6459976115  TIP3      6626            0.0000000000
     71393      7986  TIP3      H2            -31.9237042477      -32.5486908919       84.6723735011  TIP3      6626            0.0000000000
     71394      7987  TIP3      OH2           -23.5316680015      -30.2976608762       84.0642067047  TIP3      6627            0.0000000000
     71395      7987  TIP3      H1            -23.7910696496      -30.6511567129       83.2005940556  TIP3      6627            0.0000000000
     71396      7987  TIP3      H2            -23.4772653988      -29.3313403595       83.8854322888  TIP3      6627            0.0000000000
     71397      7988  TIP3      OH2           -22.3827128601      -31.4454610023       86.2384119605  TIP3      6628            0.0000000000
     71398      7988  TIP3      H1            -22.9397686140      -31.0799425899       85.5262963703  TIP3      6628            0.0000000000
     71399      7988  TIP3      H2            -22.4288730185      -30.7834847426       86.9207739832  TIP3      6628            0.0000000000
     71400      7989  TIP3      OH2           -39.0103144709      -39.6216744059       86.5176033294  TIP3      6629            0.0000000000
     71401      7989  TIP3      H1            -38.6722969802      -38.9823159708       85.9055275459  TIP3      6629            0.0000000000
     71402      7989  TIP3      H2            -39.7096819090      -39.1767097962       87.0212164822  TIP3      6629            0.0000000000
     71403      7990  TIP3      OH2           -37.2687383540      -37.9007004197       84.9476252941  TIP3      6630            0.0000000000
     71404      7990  TIP3      H1            -36.7934509644      -38.5975576450       84.4741928366  TIP3      6630            0.0000000000
     71405      7990  TIP3      H2            -36.6812673035      -37.6802485401       85.6912493002  TIP3      6630            0.0000000000
     71406      7991  TIP3      OH2            -5.2636873969      -40.0573074899       86.7420648132  TIP3      6631            0.0000000000
     71407      7991  TIP3      H1             -6.2126436242      -40.0421384928       86.8796830881  TIP3      6631            0.0000000000
     71408      7991  TIP3      H2             -5.0734661344      -39.2994224020       86.1908811089  TIP3      6631            0.0000000000
     71409      7992  TIP3      OH2            -4.1408231653      -25.7978406238       84.9793726340  TIP3      6632            0.0000000000
     71410      7992  TIP3      H1             -4.0547381826      -24.8568957542       85.1768014353  TIP3      6632            0.0000000000
     71411      7992  TIP3      H2             -3.2252119494      -26.0769588337       85.0052848370  TIP3      6632            0.0000000000
     71412      7993  TIP3      OH2            -9.1357240709      -36.4282797369       85.8028426922  TIP3      6633            0.0000000000
     71413      7993  TIP3      H1            -10.0624625924      -36.3057255867       85.5685480321  TIP3      6633            0.0000000000
     71414      7993  TIP3      H2             -8.8604916807      -35.5353253754       86.0231825509  TIP3      6633            0.0000000000
     71415      7994  TIP3      OH2           -19.8887435940      -31.4741941952       85.1634065843  TIP3      6634            0.0000000000
     71416      7994  TIP3      H1            -19.2872625130      -30.9276692806       85.7189609022  TIP3      6634            0.0000000000
     71417      7994  TIP3      H2            -20.7543476129      -31.2728881726       85.5879773046  TIP3      6634            0.0000000000
     71418      7995  TIP3      OH2           -18.4975104303      -29.6290862203       86.7349968400  TIP3      6635            0.0000000000
     71419      7995  TIP3      H1            -19.1552507352      -29.3017332282       87.3514619245  TIP3      6635            0.0000000000
     71420      7995  TIP3      H2            -17.9366602505      -28.8735114223       86.5287415375  TIP3      6635            0.0000000000
     71421      7996  TIP3      OH2            -7.2117380625      -24.7817105082       84.1450505489  TIP3      6636            0.0000000000
     71422      7996  TIP3      H1             -6.9105127811      -25.5336278292       84.6501429660  TIP3      6636            0.0000000000
     71423      7996  TIP3      H2             -6.4600064662      -24.5258419447       83.6045934050  TIP3      6636            0.0000000000
     71424      7997  TIP3      OH2            -4.6458285693      -30.2756117072       84.0773408096  TIP3      6637            0.0000000000
     71425      7997  TIP3      H1             -4.9151771242      -30.6829567944       83.2353402794  TIP3      6637            0.0000000000
     71426      7997  TIP3      H2             -4.6331261980      -29.3293795379       83.8430938148  TIP3      6637            0.0000000000
     71427      7998  TIP3      OH2            -3.5312757716      -31.4672064770       86.2655343897  TIP3      6638            0.0000000000
     71428      7998  TIP3      H1             -4.0570920111      -31.1303202994       85.5026552400  TIP3      6638            0.0000000000
     71429      7998  TIP3      H2             -3.6064952442      -30.7757536098       86.9173912081  TIP3      6638            0.0000000000
     71430      7999  TIP3      OH2            -5.1081674886      -34.1959182776       84.7952280989  TIP3      6639            0.0000000000
     71431      7999  TIP3      H1             -5.1194469847      -33.5355923416       84.1005219009  TIP3      6639            0.0000000000
     71432      7999  TIP3      H2             -5.3395186036      -35.0190739820       84.3351233732  TIP3      6639            0.0000000000
     71433      8000  TIP3      OH2            -5.9488003058      -36.7999349358       83.8888324067  TIP3      6640            0.0000000000
     71434      8000  TIP3      H1             -5.3329517722      -37.1645607069       84.5422248181  TIP3      6640            0.0000000000
     71435      8000  TIP3      H2             -6.7807522659      -37.2092248066       84.1490293353  TIP3      6640            0.0000000000
     71436      8001  TIP3      OH2           -20.2529890919      -39.8850174004       86.5435959419  TIP3      6641            0.0000000000
     71437      8001  TIP3      H1            -19.8221918917      -39.2322630546       85.9785024224  TIP3      6641            0.0000000000
     71438      8001  TIP3      H2            -20.8617712149      -39.3264847047       87.0314019904  TIP3      6641            0.0000000000
     71439      8002  TIP3      OH2           -18.4003888629      -37.9517551801       85.0078772726  TIP3      6642            0.0000000000
     71440      8002  TIP3      H1            -17.8711129998      -38.5410150872       84.4484213972  TIP3      6642            0.0000000000
     71441      8002  TIP3      H2            -17.7675148084      -37.6597098699       85.6739611533  TIP3      6642            0.0000000000
     71442      8003  TIP3      OH2           -18.4851026605      -22.9423226467       84.4757872520  TIP3      6643            0.0000000000
     71443      8003  TIP3      H1            -18.8381774702      -22.7184235193       85.3627536916  TIP3      6643            0.0000000000
     71444      8003  TIP3      H2            -17.7944762295      -23.5798476238       84.6695828694  TIP3      6643            0.0000000000
     71445      8004  TIP3      OH2             7.5830242657      -32.7944166678       85.1707391904  TIP3      6644            0.0000000000
     71446      8004  TIP3      H1              8.2592402050      -32.7963379072       85.8529684713  TIP3      6644            0.0000000000
     71447      8004  TIP3      H2              7.9053193840      -33.4727681789       84.5604790597  TIP3      6644            0.0000000000
     71448      8005  TIP3      OH2            13.2743903315      -40.1587110287       86.4450086915  TIP3      6645            0.0000000000
     71449      8005  TIP3      H1             12.5411095954      -39.9263168073       87.0090027380  TIP3      6645            0.0000000000
     71450      8005  TIP3      H2             13.7456153434      -39.3200868664       86.2689784570  TIP3      6645            0.0000000000
     71451      8006  TIP3      OH2            14.6877779101      -25.7622908429       85.0239454013  TIP3      6646            0.0000000000
     71452      8006  TIP3      H1             14.8832628855      -24.8204312415       85.1738001838  TIP3      6646            0.0000000000
     71453      8006  TIP3      H2             15.6214165689      -26.0513598969       84.9415669505  TIP3      6646            0.0000000000
     71454      8007  TIP3      OH2            10.1317002086      -23.0369673727       85.6888996148  TIP3      6647            0.0000000000
     71455      8007  TIP3      H1             10.5617835599      -23.7668079209       85.1910047588  TIP3      6647            0.0000000000
     71456      8007  TIP3      H2             10.1880571362      -23.3146896744       86.6060026475  TIP3      6647            0.0000000000
     71457      8008  TIP3      OH2             6.9190890077      -37.0014066292       85.0632395292  TIP3      6648            0.0000000000
     71458      8008  TIP3      H1              6.6555960481      -36.9375964583       85.9956566722  TIP3      6648            0.0000000000
     71459      8008  TIP3      H2              6.6166179820      -37.8656545292       84.8291501285  TIP3      6648            0.0000000000
     71460      8009  TIP3      OH2             2.3995779899      -33.7411624254       85.5885905872  TIP3      6649            0.0000000000
     71461      8009  TIP3      H1              1.8650818456      -34.1625219185       84.9158644618  TIP3      6649            0.0000000000
     71462      8009  TIP3      H2              3.2411620704      -33.5596438476       85.1548474347  TIP3      6649            0.0000000000
     71463      8010  TIP3      OH2            -1.0036240618      -31.4791526664       85.2085341275  TIP3      6650            0.0000000000
     71464      8010  TIP3      H1             -0.4033808750      -30.9231185042       85.7450090581  TIP3      6650            0.0000000000
     71465      8010  TIP3      H2             -1.8833580364      -31.2490776667       85.5576814461  TIP3      6650            0.0000000000
     71466      8011  TIP3      OH2            15.4007700283      -23.0986612485       85.6235514271  TIP3      6651            0.0000000000
     71467      8011  TIP3      H1             16.1238549813      -22.5096274719       85.3877919146  TIP3      6651            0.0000000000
     71468      8011  TIP3      H2             14.6915804161      -22.4972937651       85.8834121745  TIP3      6651            0.0000000000
     71469      8012  TIP3      OH2             5.0528035222      -26.3952052096       83.8234381823  TIP3      6652            0.0000000000
     71470      8012  TIP3      H1              5.2200903704      -27.1758338590       83.2796142539  TIP3      6652            0.0000000000
     71471      8012  TIP3      H2              4.6984705214      -26.8243909759       84.6340801056  TIP3      6652            0.0000000000
     71472      8013  TIP3      OH2             3.9083489552      -26.8899654748       86.2817714836  TIP3      6653            0.0000000000
     71473      8013  TIP3      H1              4.1009362548      -27.3893609213       87.0852918657  TIP3      6653            0.0000000000
     71474      8013  TIP3      H2              3.9544111618      -25.9874736648       86.6105711076  TIP3      6653            0.0000000000
     71475      8014  TIP3      OH2             0.3647369805      -29.6001205533       86.7540877474  TIP3      6654            0.0000000000
     71476      8014  TIP3      H1             -0.2991830985      -29.2324586146       87.3374392240  TIP3      6654            0.0000000000
     71477      8014  TIP3      H2              0.9096487768      -28.8346090734       86.5181112226  TIP3      6654            0.0000000000
     71478      8015  TIP3      OH2             6.6310264686      -25.1521494111       87.0777294363  TIP3      6655            0.0000000000
     71479      8015  TIP3      H1              5.8237945983      -24.6437431721       87.0582759550  TIP3      6655            0.0000000000
     71480      8015  TIP3      H2              7.1778791434      -24.6822943476       86.4217551867  TIP3      6655            0.0000000000
     71481      8016  TIP3      OH2             0.9875813170      -27.0061315710       85.7047048983  TIP3      6656            0.0000000000
     71482      8016  TIP3      H1              1.6130451345      -26.3302406211       85.9686834336  TIP3      6656            0.0000000000
     71483      8016  TIP3      H2              1.4595654904      -27.4457849373       84.9768835278  TIP3      6656            0.0000000000
     71484      8017  TIP3      OH2             7.0944058285      -24.5514283927       84.0014311620  TIP3      6657            0.0000000000
     71485      8017  TIP3      H1              6.3869266269      -25.1985140552       84.2169930016  TIP3      6657            0.0000000000
     71486      8017  TIP3      H2              7.8028974095      -25.1214522623       83.6871447251  TIP3      6657            0.0000000000
     71487      8018  TIP3      OH2            11.7253816612      -24.6350918754       84.1722988475  TIP3      6658            0.0000000000
     71488      8018  TIP3      H1             11.9822571671      -25.4583364451       84.6312187660  TIP3      6658            0.0000000000
     71489      8018  TIP3      H2             12.4885211189      -24.5272064275       83.5777592044  TIP3      6658            0.0000000000
     71490      8019  TIP3      OH2             2.5574368443      -28.8677465550       84.0018619601  TIP3      6659            0.0000000000
     71491      8019  TIP3      H1              2.6960587115      -29.6250232631       84.5980958070  TIP3      6659            0.0000000000
     71492      8019  TIP3      H2              3.2848235401      -28.9650337273       83.3661740344  TIP3      6659            0.0000000000
     71493      8020  TIP3      OH2             3.7196558352      -30.8638764364       86.3065349974  TIP3      6660            0.0000000000
     71494      8020  TIP3      H1              3.2825961046      -31.3499034749       87.0225794634  TIP3      6660            0.0000000000
     71495      8020  TIP3      H2              4.0036946947      -31.5685788769       85.7015505909  TIP3      6660            0.0000000000
     71496      8021  TIP3      OH2             4.8199209603      -32.6272418286       84.5946579538  TIP3      6661            0.0000000000
     71497      8021  TIP3      H1              4.6833555169      -32.7388669900       83.6391508789  TIP3      6661            0.0000000000
     71498      8021  TIP3      H2              5.7883371008      -32.5575007025       84.7081504850  TIP3      6661            0.0000000000
     71499      8022  TIP3      OH2            14.8800801165      -37.7791113611       85.4254708334  TIP3      6662            0.0000000000
     71500      8022  TIP3      H1             15.3672680419      -38.5593951905       85.0313354605  TIP3      6662            0.0000000000
     71501      8022  TIP3      H2             15.7163710757      -37.3062255302       85.5748910472  TIP3      6662            0.0000000000
     71502      8023  TIP3      OH2             7.3678788470      -22.7315076209       85.9061138868  TIP3      6663            0.0000000000
     71503      8023  TIP3      H1              8.2450671829      -22.3945530211       85.6733349474  TIP3      6663            0.0000000000
     71504      8023  TIP3      H2              7.1142727932      -23.1596935716       85.0568871516  TIP3      6663            0.0000000000
     71505      8024  TIP3      OH2            32.3984464274      -40.1051380368       86.6837970884  TIP3      6664            0.0000000000
     71506      8024  TIP3      H1             31.4709104698      -40.0462065202       86.8946105961  TIP3      6664            0.0000000000
     71507      8024  TIP3      H2             32.6367530164      -39.2759056164       86.2452696731  TIP3      6664            0.0000000000
     71508      8025  TIP3      OH2            33.5803039630      -25.7959261482       84.9166084370  TIP3      6665            0.0000000000
     71509      8025  TIP3      H1             33.6989005016      -24.8676365068       85.1805674106  TIP3      6665            0.0000000000
     71510      8025  TIP3      H2             34.5018599131      -26.0974977228       85.0165149372  TIP3      6665            0.0000000000
     71511      8026  TIP3      OH2            28.9690873957      -23.0376545341       85.6594955004  TIP3      6666            0.0000000000
     71512      8026  TIP3      H1             29.3932355003      -23.7936886019       85.2013064798  TIP3      6666            0.0000000000
     71513      8026  TIP3      H2             29.0559294059      -23.3357238114       86.5761419267  TIP3      6666            0.0000000000
     71514      8027  TIP3      OH2            25.8405507345      -36.9744889518       85.1393287529  TIP3      6667            0.0000000000
     71515      8027  TIP3      H1             25.4846980322      -36.9509114696       86.0323731368  TIP3      6667            0.0000000000
     71516      8027  TIP3      H2             25.5481259027      -37.8273693601       84.8221685451  TIP3      6667            0.0000000000
     71517      8028  TIP3      OH2            22.5743064348      -36.4509659554       84.2473709714  TIP3      6668            0.0000000000
     71518      8028  TIP3      H1             22.1166568526      -36.9628626630       84.9311963246  TIP3      6668            0.0000000000
     71519      8028  TIP3      H2             21.8394088095      -36.1433006006       83.7042533552  TIP3      6668            0.0000000000
     71520      8029  TIP3      OH2            17.1205835579      -36.0413024769       86.7075166386  TIP3      6669            0.0000000000
     71521      8029  TIP3      H1             17.6465684590      -35.4971409914       86.0874342131  TIP3      6669            0.0000000000
     71522      8029  TIP3      H2             16.4242595887      -35.4823201985       87.0179115432  TIP3      6669            0.0000000000
     71523      8030  TIP3      OH2            21.2508044816      -33.8719609990       85.6467072235  TIP3      6670            0.0000000000
     71524      8030  TIP3      H1             20.7018320057      -34.1545834980       84.8991693599  TIP3      6670            0.0000000000
     71525      8030  TIP3      H2             22.0513315256      -33.5811549920       85.1942857001  TIP3      6670            0.0000000000
     71526      8031  TIP3      OH2            28.4565518215      -36.4369970145       85.7078179823  TIP3      6671            0.0000000000
     71527      8031  TIP3      H1             27.5078510301      -36.2378151416       85.5708360309  TIP3      6671            0.0000000000
     71528      8031  TIP3      H2             28.7699637475      -35.5768173968       86.0661509991  TIP3      6671            0.0000000000
     71529      8032  TIP3      OH2            29.1941380410      -34.4560683483       87.3541354757  TIP3      6672            0.0000000000
     71530      8032  TIP3      H1             30.0878578275      -34.6202745955       87.6779935233  TIP3      6672            0.0000000000
     71531      8032  TIP3      H2             29.2657075327      -33.6566558376       86.8200170132  TIP3      6672            0.0000000000
     71532      8033  TIP3      OH2            34.0225055199      -34.3266084113       87.1375060134  TIP3      6673            0.0000000000
     71533      8033  TIP3      H1             33.4961000346      -34.6698203272       86.3906976086  TIP3      6673            0.0000000000
     71534      8033  TIP3      H2             34.1994496142      -33.4181564007       86.8066772251  TIP3      6673            0.0000000000
     71535      8034  TIP3      OH2            17.7983230731      -31.5231086482       85.2638420367  TIP3      6674            0.0000000000
     71536      8034  TIP3      H1             18.4424984927      -30.9316406302       85.6897925559  TIP3      6674            0.0000000000
     71537      8034  TIP3      H2             16.9501872981      -31.1776338709       85.5765450543  TIP3      6674            0.0000000000
     71538      8035  TIP3      OH2            34.2451216031      -23.0826793058       85.5025005167  TIP3      6675            0.0000000000
     71539      8035  TIP3      H1             35.0318705649      -22.5168066425       85.4971714989  TIP3      6675            0.0000000000
     71540      8035  TIP3      H2             33.5876697732      -22.5145892831       85.9400928440  TIP3      6675            0.0000000000
     71541      8036  TIP3      OH2            22.9099389742      -24.1554941058       87.0024179944  TIP3      6676            0.0000000000
     71542      8036  TIP3      H1             22.9981996304      -23.3425590701       86.4615154644  TIP3      6676            0.0000000000
     71543      8036  TIP3      H2             22.6772004841      -23.8446903393       87.8801235779  TIP3      6676            0.0000000000
     71544      8037  TIP3      OH2            21.9475462759      -37.0081593523       87.4962370499  TIP3      6677            0.0000000000
     71545      8037  TIP3      H1             21.5514467443      -36.2895850090       86.9670872370  TIP3      6677            0.0000000000
     71546      8037  TIP3      H2             22.4660278394      -37.4819967539       86.8497464319  TIP3      6677            0.0000000000
     71547      8038  TIP3      OH2            18.1524163429      -34.3543005922       84.8329542741  TIP3      6678            0.0000000000
     71548      8038  TIP3      H1             18.1276969168      -33.4071258898       85.0469927863  TIP3      6678            0.0000000000
     71549      8038  TIP3      H2             17.2801838481      -34.5707196790       84.5108836941  TIP3      6678            0.0000000000
     71550      8039  TIP3      OH2            30.4735032687      -24.7787731629       84.1423229478  TIP3      6679            0.0000000000
     71551      8039  TIP3      H1             30.8190700889      -25.5422692635       84.6276219275  TIP3      6679            0.0000000000
     71552      8039  TIP3      H2             31.2510286720      -24.5566955146       83.6061434051  TIP3      6679            0.0000000000
     71553      8040  TIP3      OH2            33.0275422084      -30.2225554920       84.1022222708  TIP3      6680            0.0000000000
     71554      8040  TIP3      H1             32.7991036693      -30.6744380767       83.2679439707  TIP3      6680            0.0000000000
     71555      8040  TIP3      H2             33.1247758201      -29.3080474809       83.8217576450  TIP3      6680            0.0000000000
     71556      8041  TIP3      OH2            23.5351399030      -21.9209596418       85.6422135925  TIP3      6681            0.0000000000
     71557      8041  TIP3      H1             24.4963565624      -21.8208039577       85.7655509658  TIP3      6681            0.0000000000
     71558      8041  TIP3      H2             23.3393312456      -21.2651908435       84.9688760897  TIP3      6681            0.0000000000
     71559      8042  TIP3      OH2            17.1392868516      -27.3795040196       85.2322512060  TIP3      6682            0.0000000000
     71560      8042  TIP3      H1             18.0788972379      -27.1901672964       85.3205585042  TIP3      6682            0.0000000000
     71561      8042  TIP3      H2             17.1077990377      -27.9388982094       84.4348883964  TIP3      6682            0.0000000000
     71562      8043  TIP3      OH2            34.1922717548      -31.4503867508       86.2542920107  TIP3      6683            0.0000000000
     71563      8043  TIP3      H1             33.6734282396      -31.0996671004       85.4914006810  TIP3      6683            0.0000000000
     71564      8043  TIP3      H2             34.1514118518      -30.7305263708       86.8943383079  TIP3      6683            0.0000000000
     71565      8044  TIP3      OH2            32.5926364572      -34.2162538353       84.8094376965  TIP3      6684            0.0000000000
     71566      8044  TIP3      H1             32.6334527293      -33.5666610090       84.1024944921  TIP3      6684            0.0000000000
     71567      8044  TIP3      H2             32.3574317252      -35.0329733621       84.3195720489  TIP3      6684            0.0000000000
     71568      8045  TIP3      OH2            31.7536233925      -36.7282036983       83.9528595291  TIP3      6685            0.0000000000
     71569      8045  TIP3      H1             32.4001515978      -37.1938511197       84.5265152592  TIP3      6685            0.0000000000
     71570      8045  TIP3      H2             30.9370291525      -37.2273361778       84.1122265305  TIP3      6685            0.0000000000
     71571      8046  TIP3      OH2            33.8753887840      -37.8627110069       85.4926965830  TIP3      6686            0.0000000000
     71572      8046  TIP3      H1             34.2614825897      -38.6426118543       85.0061556215  TIP3      6686            0.0000000000
     71573      8046  TIP3      H2             34.6239149896      -37.2629224783       85.5741313035  TIP3      6686            0.0000000000
     71574      8047  TIP3      OH2            17.1208734388      -38.7311741157       85.6957448430  TIP3      6687            0.0000000000
     71575      8047  TIP3      H1             18.0140829866      -39.0636015182       85.7948669468  TIP3      6687            0.0000000000
     71576      8047  TIP3      H2             16.7896594628      -39.0660855949       86.5782775202  TIP3      6687            0.0000000000
     71577      8048  TIP3      OH2            19.2666943402      -37.7057096337       84.8455782723  TIP3      6688            0.0000000000
     71578      8048  TIP3      H1             19.6673682266      -38.5168247861       84.4557043758  TIP3      6688            0.0000000000
     71579      8048  TIP3      H2             19.7996019257      -37.6446746727       85.6526353910  TIP3      6688            0.0000000000
     71580      8049  TIP3      OH2            26.1880828605      -22.6597282217       85.8785639177  TIP3      6689            0.0000000000
     71581      8049  TIP3      H1             27.1024696824      -22.4032132346       85.6861644784  TIP3      6689            0.0000000000
     71582      8049  TIP3      H2             25.9848525043      -23.1839126600       85.1001502330  TIP3      6689            0.0000000000
     71583      8050  TIP3      OH2            19.2905259661      -22.8541298770       84.5192756919  TIP3      6690            0.0000000000
     71584      8050  TIP3      H1             18.9010245179      -22.7673515862       85.3903569581  TIP3      6690            0.0000000000
     71585      8050  TIP3      H2             19.9310610390      -23.5862731710       84.6256429687  TIP3      6690            0.0000000000
     71586      8051  TIP3      OH2            35.9972633042      -36.0462507628       86.6939348205  TIP3      6691            0.0000000000
     71587      8051  TIP3      H1             36.4833269836      -35.4373443184       86.1211559594  TIP3      6691            0.0000000000
     71588      8051  TIP3      H2             35.2660863640      -35.4850663256       87.0191078299  TIP3      6691            0.0000000000
     71589      8052  TIP3      OH2            39.8888595844      -34.0250954636       86.1361127683  TIP3      6692            0.0000000000
     71590      8052  TIP3      H1             39.2440654336      -34.0583143168       85.4073270693  TIP3      6692            0.0000000000
     71591      8052  TIP3      H2             40.5883312459      -33.8750400656       85.4636156649  TIP3      6692            0.0000000000
     71592      8053  TIP3      OH2            36.6459600412      -31.3713881664       85.0469936569  TIP3      6693            0.0000000000
     71593      8053  TIP3      H1             37.2478526177      -30.9316211840       85.6701052723  TIP3      6693            0.0000000000
     71594      8053  TIP3      H2             35.7974659294      -31.2640330487       85.5289862195  TIP3      6693            0.0000000000
     71595      8054  TIP3      OH2            38.0185405288      -29.4618237470       86.6737599124  TIP3      6694            0.0000000000
     71596      8054  TIP3      H1             37.3747761392      -29.2337082294       87.3478089343  TIP3      6694            0.0000000000
     71597      8054  TIP3      H2             38.5217059308      -28.6686334118       86.4946591137  TIP3      6694            0.0000000000
     71598      8055  TIP3      OH2            38.3909423354      -26.9607737114       85.5146029154  TIP3      6695            0.0000000000
     71599      8055  TIP3      H1             39.0577880740      -26.3522943824       85.9053254310  TIP3      6695            0.0000000000
     71600      8055  TIP3      H2             39.0510523053      -27.3679933970       84.9151692556  TIP3      6695            0.0000000000
     71601      8056  TIP3      OH2            37.0619276942      -34.3639913677       84.7549476285  TIP3      6696            0.0000000000
     71602      8056  TIP3      H1             36.9982847004      -33.4178063322       84.9998107248  TIP3      6696            0.0000000000
     71603      8056  TIP3      H2             36.1321536287      -34.5139805586       84.5099076422  TIP3      6696            0.0000000000
     71604      8057  TIP3      OH2            40.4530897243      -27.8365641833       83.8216413877  TIP3      6697            0.0000000000
     71605      8057  TIP3      H1             40.3386580675      -28.5446264498       84.4993992760  TIP3      6697            0.0000000000
     71606      8057  TIP3      H2             41.0143903146      -28.4605742761       83.3141500440  TIP3      6697            0.0000000000
     71607      8058  TIP3      OH2            35.8972467983      -27.2855191938       85.0786677975  TIP3      6698            0.0000000000
     71608      8058  TIP3      H1             36.8485132911      -27.2076411278       85.3427433294  TIP3      6698            0.0000000000
     71609      8058  TIP3      H2             35.9406706716      -28.0134958227       84.4317456123  TIP3      6698            0.0000000000
     71610      8059  TIP3      OH2            38.0670899167      -22.9292630984       84.4791601017  TIP3      6699            0.0000000000
     71611      8059  TIP3      H1             37.7324342329      -22.7136487409       85.3653954339  TIP3      6699            0.0000000000
     71612      8059  TIP3      H2             38.7704102310      -23.5612238146       84.6614640396  TIP3      6699            0.0000000000
     71613      8060  TIP3      OH2           -30.0756207972      -13.8875217176       85.1418779678  TIP3      6700            0.0000000000
     71614      8060  TIP3      H1            -29.4232651753      -13.8981585711       85.8639248633  TIP3      6700            0.0000000000
     71615      8060  TIP3      H2            -29.7690473004      -14.6117452258       84.5872923723  TIP3      6700            0.0000000000
     71616      8061  TIP3      OH2           -27.8166689399      -13.0563641573       86.7810905297  TIP3      6701            0.0000000000
     71617      8061  TIP3      H1            -27.2647083788      -12.8275749503       87.5267877806  TIP3      6701            0.0000000000
     71618      8061  TIP3      H2            -27.4543068646      -12.5273957728       86.0435334080  TIP3      6701            0.0000000000
     71619      8062  TIP3      OH2           -26.3717322889      -12.0751479345       84.5314251157  TIP3      6702            0.0000000000
     71620      8062  TIP3      H1            -26.4255328754      -12.1877539933       83.5478253495  TIP3      6702            0.0000000000
     71621      8062  TIP3      H2            -25.5746701981      -11.5403797134       84.5825090851  TIP3      6702            0.0000000000
     71622      8063  TIP3      OH2           -30.7769149156      -18.0973271439       85.0828506879  TIP3      6703            0.0000000000
     71623      8063  TIP3      H1            -31.0770151124      -18.0904183889       86.0084969152  TIP3      6703            0.0000000000
     71624      8063  TIP3      H2            -31.0631481425      -18.9768887428       84.8331910182  TIP3      6703            0.0000000000
     71625      8064  TIP3      OH2           -28.0741955976      -17.5294128132       85.5851176418  TIP3      6704            0.0000000000
     71626      8064  TIP3      H1            -29.0438469893      -17.4726992889       85.5926679499  TIP3      6704            0.0000000000
     71627      8064  TIP3      H2            -27.8068542686      -16.7557879712       86.1185390687  TIP3      6704            0.0000000000
     71628      8065  TIP3      OH2           -27.3869969511      -15.6197411172       87.3597986643  TIP3      6705            0.0000000000
     71629      8065  TIP3      H1            -26.4919344193      -15.8372708040       87.6583469356  TIP3      6705            0.0000000000
     71630      8065  TIP3      H2            -27.2969210679      -14.8169906467       86.8257703843  TIP3      6705            0.0000000000
     71631      8066  TIP3      OH2           -29.8640483572       -8.8896334433       86.5106177764  TIP3      6706            0.0000000000
     71632      8066  TIP3      H1            -30.1670377915       -8.0573332068       86.9213879719  TIP3      6706            0.0000000000
     71633      8066  TIP3      H2            -30.5378965888       -9.5168906884       86.7984721224  TIP3      6706            0.0000000000
     71634      8067  TIP3      OH2           -22.5752512567      -15.4635165562       87.1297434559  TIP3      6707            0.0000000000
     71635      8067  TIP3      H1            -23.0766929920      -15.8437343323       86.3820771228  TIP3      6707            0.0000000000
     71636      8067  TIP3      H2            -22.3777067761      -14.5786758857       86.7984142813  TIP3      6707            0.0000000000
     71637      8068  TIP3      OH2           -26.7548789357       -8.7249974525       85.3095499321  TIP3      6708            0.0000000000
     71638      8068  TIP3      H1            -26.4321137846       -8.9796425780       86.1798604175  TIP3      6708            0.0000000000
     71639      8068  TIP3      H2            -27.7214982770       -8.7656426838       85.4369510620  TIP3      6708            0.0000000000
     71640      8069  TIP3      OH2           -32.6669052457       -7.5364383946       83.8087454581  TIP3      6709            0.0000000000
     71641      8069  TIP3      H1            -32.4975035755       -8.3209668510       83.2594877745  TIP3      6709            0.0000000000
     71642      8069  TIP3      H2            -32.9931045015       -7.9487839202       84.6303515050  TIP3      6709            0.0000000000
     71643      8070  TIP3      OH2           -33.8749273648       -8.0479044311       86.3214092723  TIP3      6710            0.0000000000
     71644      8070  TIP3      H1            -33.5567130496       -8.5033725980       87.1067701193  TIP3      6710            0.0000000000
     71645      8070  TIP3      H2            -33.7090078599       -7.1114391968       86.5722200705  TIP3      6710            0.0000000000
     71646      8071  TIP3      OH2           -31.1020509768       -6.3604018381       86.9854127281  TIP3      6711            0.0000000000
     71647      8071  TIP3      H1            -31.8830273769       -5.7952018301       87.0627287757  TIP3      6711            0.0000000000
     71648      8071  TIP3      H2            -30.5072439526       -5.8487271547       86.4183487843  TIP3      6711            0.0000000000
     71649      8072  TIP3      OH2           -33.6805798742       -5.2929909782       87.0203812823  TIP3      6712            0.0000000000
     71650      8072  TIP3      H1            -33.5983702141       -4.4995961838       86.4681778147  TIP3      6712            0.0000000000
     71651      8072  TIP3      H2            -33.9012022814       -4.9213642325       87.8817996082  TIP3      6712            0.0000000000
     71652      8073  TIP3      OH2           -36.7568872612       -8.1191956158       85.6678439636  TIP3      6713            0.0000000000
     71653      8073  TIP3      H1            -36.1047321039       -7.4701854152       85.9667869763  TIP3      6713            0.0000000000
     71654      8073  TIP3      H2            -36.2246723212       -8.5846235551       85.0124892232  TIP3      6713            0.0000000000
     71655      8074  TIP3      OH2           -29.7687895464       -8.9027629073       83.7706469921  TIP3      6714            0.0000000000
     71656      8074  TIP3      H1            -29.9908024113       -8.7973371436       84.7071164629  TIP3      6714            0.0000000000
     71657      8074  TIP3      H2            -29.9463931502       -9.8530543974       83.6212419878  TIP3      6714            0.0000000000
     71658      8075  TIP3      OH2           -32.8587677720      -13.6972937322       84.5419157197  TIP3      6715            0.0000000000
     71659      8075  TIP3      H1            -33.0395715856      -13.9493722645       83.6333652548  TIP3      6715            0.0000000000
     71660      8075  TIP3      H2            -31.8958720067      -13.7071553277       84.6764099854  TIP3      6715            0.0000000000
     71661      8076  TIP3      OH2           -39.4355765664       -8.4268380213       85.1422191002  TIP3      6716            0.0000000000
     71662      8076  TIP3      H1            -38.4894614835       -8.3319685786       85.3796810145  TIP3      6716            0.0000000000
     71663      8076  TIP3      H2            -39.3795325539       -9.1072776136       84.4674361633  TIP3      6716            0.0000000000
     71664      8077  TIP3      OH2           -24.0416724983      -15.3622549273       84.7835930578  TIP3      6717            0.0000000000
     71665      8077  TIP3      H1            -23.9306712557      -14.7145526798       84.0766515184  TIP3      6717            0.0000000000
     71666      8077  TIP3      H2            -24.1935297568      -16.2010176758       84.3111394722  TIP3      6717            0.0000000000
     71667      8078  TIP3      OH2           -24.7778308311      -17.9926330888       83.8981430170  TIP3      6718            0.0000000000
     71668      8078  TIP3      H1            -24.1592084900      -18.3227744575       84.5940373187  TIP3      6718            0.0000000000
     71669      8078  TIP3      H2            -25.6254515080      -18.3496986640       84.2020305331  TIP3      6718            0.0000000000
     71670      8079  TIP3      OH2           -22.7026485934      -19.0023691190       85.3929858933  TIP3      6719            0.0000000000
     71671      8079  TIP3      H1            -22.2831147150      -19.8190605373       85.0470356577  TIP3      6719            0.0000000000
     71672      8079  TIP3      H2            -21.9505711931      -18.4168409449       85.5546341167  TIP3      6719            0.0000000000
     71673      8080  TIP3      OH2           -37.4356505515       -4.1338449120       84.4805332218  TIP3      6720            0.0000000000
     71674      8080  TIP3      H1            -37.6894679395       -3.8511525992       85.3771662705  TIP3      6720            0.0000000000
     71675      8080  TIP3      H2            -36.6528712822       -4.6917714271       84.6418424323  TIP3      6720            0.0000000000
     71676      8081  TIP3      OH2            -8.9672944716      -13.0814848711       86.7812755635  TIP3      6721            0.0000000000
     71677      8081  TIP3      H1             -8.4589160524      -12.8688156592       87.5602679910  TIP3      6721            0.0000000000
     71678      8081  TIP3      H2             -8.6255297914      -12.5204183902       86.0789164290  TIP3      6721            0.0000000000
     71679      8082  TIP3      OH2           -15.1200502849      -17.7264297321       84.1714897582  TIP3      6722            0.0000000000
     71680      8082  TIP3      H1            -15.5141806870      -18.1147287977       84.9640960345  TIP3      6722            0.0000000000
     71681      8082  TIP3      H2            -15.8460002685      -17.2769446522       83.7090046862  TIP3      6722            0.0000000000
     71682      8083  TIP3      OH2           -20.5811585606      -17.2494527993       86.6076123900  TIP3      6723            0.0000000000
     71683      8083  TIP3      H1            -20.1146771660      -16.5813365439       86.1103993181  TIP3      6723            0.0000000000
     71684      8083  TIP3      H2            -21.2597752177      -16.6882338843       87.0424562201  TIP3      6723            0.0000000000
     71685      8084  TIP3      OH2            -9.2378540502      -17.4931254703       85.6326111001  TIP3      6724            0.0000000000
     71686      8084  TIP3      H1            -10.1910252474      -17.3904693633       85.6171482831  TIP3      6724            0.0000000000
     71687      8084  TIP3      H2             -8.9391062416      -16.6904723668       86.1119994710  TIP3      6724            0.0000000000
     71688      8085  TIP3      OH2            -8.4763869052      -15.6515545007       87.3525422121  TIP3      6725            0.0000000000
     71689      8085  TIP3      H1             -7.5790799211      -15.7848142956       87.6678055853  TIP3      6725            0.0000000000
     71690      8085  TIP3      H2             -8.4728569672      -14.8058902394       86.8613860179  TIP3      6725            0.0000000000
     71691      8086  TIP3      OH2            -3.6739358712      -15.4720144586       87.1257115591  TIP3      6726            0.0000000000
     71692      8086  TIP3      H1             -4.2153779313      -15.8063618684       86.3943220201  TIP3      6726            0.0000000000
     71693      8086  TIP3      H2             -3.5225040909      -14.5605373583       86.8124075949  TIP3      6726            0.0000000000
     71694      8087  TIP3      OH2           -17.8668576356       -8.1504015787       85.6612844459  TIP3      6727            0.0000000000
     71695      8087  TIP3      H1            -17.2447869441       -7.4776502970       85.9512655634  TIP3      6727            0.0000000000
     71696      8087  TIP3      H2            -17.3770880624       -8.6222909118       84.9843357760  TIP3      6727            0.0000000000
     71697      8088  TIP3      OH2            -4.6286896853      -11.4274019954       84.0781000083  TIP3      6728            0.0000000000
     71698      8088  TIP3      H1             -4.8879332836      -11.8286530800       83.2432978488  TIP3      6728            0.0000000000
     71699      8088  TIP3      H2             -4.6683059043      -10.4688131231       83.8492403700  TIP3      6728            0.0000000000
     71700      8089  TIP3      OH2           -14.1914160246       -3.0337444716       85.6360582317  TIP3      6729            0.0000000000
     71701      8089  TIP3      H1            -13.2293907601       -2.9819825931       85.7738098807  TIP3      6729            0.0000000000
     71702      8089  TIP3      H2            -14.3850605234       -2.4043929116       84.9572754792  TIP3      6729            0.0000000000
     71703      8090  TIP3      OH2           -20.6197687848       -8.3918566579       85.0330663478  TIP3      6730            0.0000000000
     71704      8090  TIP3      H1            -19.7022776534       -8.3844480889       85.3722234316  TIP3      6730            0.0000000000
     71705      8090  TIP3      H2            -20.5852191270       -9.1673721913       84.4377193535  TIP3      6730            0.0000000000
     71706      8091  TIP3      OH2            -3.5378978644      -12.5920311989       86.2613009994  TIP3      6731            0.0000000000
     71707      8091  TIP3      H1             -4.0596796093      -12.2241264754       85.5124156540  TIP3      6731            0.0000000000
     71708      8091  TIP3      H2             -3.5705346918      -11.8936867600       86.9190248977  TIP3      6731            0.0000000000
     71709      8092  TIP3      OH2            -5.1615310599      -15.3105151191       84.7756523621  TIP3      6732            0.0000000000
     71710      8092  TIP3      H1             -5.0874712012      -14.6898958996       84.0497839837  TIP3      6732            0.0000000000
     71711      8092  TIP3      H2             -5.3495537538      -16.1605530943       84.3341483462  TIP3      6732            0.0000000000
     71712      8093  TIP3      OH2            -5.9393529071      -17.9335078570       83.9244097276  TIP3      6733            0.0000000000
     71713      8093  TIP3      H1             -5.3410919447      -18.3266565931       84.5863476868  TIP3      6733            0.0000000000
     71714      8093  TIP3      H2             -6.7695293949      -18.3557687336       84.1604636478  TIP3      6733            0.0000000000
     71715      8094  TIP3      OH2            -3.8159345637      -19.0350826821       85.3846764524  TIP3      6734            0.0000000000
     71716      8094  TIP3      H1             -3.3782994928      -19.8019338581       85.0092166991  TIP3      6734            0.0000000000
     71717      8094  TIP3      H2             -3.1207924795      -18.3947510319       85.5684163145  TIP3      6734            0.0000000000
     71718      8095  TIP3      OH2           -20.2246052764      -20.9814986797       86.5411217571  TIP3      6735            0.0000000000
     71719      8095  TIP3      H1            -19.8509011647      -20.3166533181       85.9587989035  TIP3      6735            0.0000000000
     71720      8095  TIP3      H2            -20.8952548777      -20.4762243626       87.0086522489  TIP3      6735            0.0000000000
     71721      8096  TIP3      OH2           -18.4046160161      -19.0694021428       84.9701125666  TIP3      6736            0.0000000000
     71722      8096  TIP3      H1            -17.9030286415      -19.7240235557       84.4520630426  TIP3      6736            0.0000000000
     71723      8096  TIP3      H2            -17.8254149938      -18.7888719191       85.6888611276  TIP3      6736            0.0000000000
     71724      8097  TIP3      OH2           -11.4882622034       -3.8037998077       85.8334481454  TIP3      6737            0.0000000000
     71725      8097  TIP3      H1            -10.5997628437       -3.5048418138       85.6710752069  TIP3      6737            0.0000000000
     71726      8097  TIP3      H2            -11.7320689982       -4.3088160048       85.0495632045  TIP3      6737            0.0000000000
     71727      8098  TIP3      OH2           -18.5588814988       -4.1350185742       84.4837851412  TIP3      6738            0.0000000000
     71728      8098  TIP3      H1            -18.8323726334       -3.8717015665       85.3817300636  TIP3      6738            0.0000000000
     71729      8098  TIP3      H2            -17.7769033357       -4.7001205422       84.6303345982  TIP3      6738            0.0000000000
     71730      8099  TIP3      OH2             7.5785809954      -13.9001918018       85.1568918851  TIP3      6739            0.0000000000
     71731      8099  TIP3      H1              8.2837763453      -13.8763008002       85.8288346821  TIP3      6739            0.0000000000
     71732      8099  TIP3      H2              7.9354247179      -14.5895853034       84.5820140209  TIP3      6739            0.0000000000
     71733      8100  TIP3      OH2             9.8720461272      -13.0569541620       86.7643353272  TIP3      6740            0.0000000000
     71734      8100  TIP3      H1             10.4281531337      -12.8605977576       87.5258561426  TIP3      6740            0.0000000000
     71735      8100  TIP3      H2             10.2798811604      -12.5453138490       86.0366334572  TIP3      6740            0.0000000000
     71736      8101  TIP3      OH2            13.5908877821      -21.2253424994       86.7240643181  TIP3      6741            0.0000000000
     71737      8101  TIP3      H1             12.6421401957      -21.2002576606       86.8897467660  TIP3      6741            0.0000000000
     71738      8101  TIP3      H2             13.7461265148      -20.4244504118       86.2224169361  TIP3      6741            0.0000000000
     71739      8102  TIP3      OH2            14.6257366854       -7.0773793007       85.3682666880  TIP3      6742            0.0000000000
     71740      8102  TIP3      H1             14.7044726922       -6.1309353345       85.1069788027  TIP3      6742            0.0000000000
     71741      8102  TIP3      H2             15.4891225601       -7.2462855873       84.9366519287  TIP3      6742            0.0000000000
     71742      8103  TIP3      OH2            11.3270124909      -12.0171704666       84.5190027429  TIP3      6743            0.0000000000
     71743      8103  TIP3      H1             11.3129198033      -12.2097593224       83.5486274566  TIP3      6743            0.0000000000
     71744      8103  TIP3      H2             12.1886023872      -11.5770990040       84.5914770346  TIP3      6743            0.0000000000
     71745      8104  TIP3      OH2             6.9207796110      -18.1110384636       85.0866497115  TIP3      6744            0.0000000000
     71746      8104  TIP3      H1              6.5796542697      -18.0936340026       85.9949492979  TIP3      6744            0.0000000000
     71747      8104  TIP3      H2              6.6348912330      -18.9884297109       84.7994854703  TIP3      6744            0.0000000000
     71748      8105  TIP3      OH2             9.6127556069      -17.5533813086       85.6679816458  TIP3      6745            0.0000000000
     71749      8105  TIP3      H1              8.6469066562      -17.4400610807       85.5994172625  TIP3      6745            0.0000000000
     71750      8105  TIP3      H2              9.9003040850      -16.7249652410       86.1014751638  TIP3      6745            0.0000000000
     71751      8106  TIP3      OH2            10.3389250603      -15.6045410691       87.3628934596  TIP3      6746            0.0000000000
     71752      8106  TIP3      H1             11.2430762452      -15.7690088517       87.6649595199  TIP3      6746            0.0000000000
     71753      8106  TIP3      H2             10.4224352405      -14.8136190744       86.8075383687  TIP3      6746            0.0000000000
     71754      8107  TIP3      OH2            -1.0061645189      -12.6490367349       85.2153996453  TIP3      6747            0.0000000000
     71755      8107  TIP3      H1             -0.4205999578      -12.0556706445       85.7330448823  TIP3      6747            0.0000000000
     71756      8107  TIP3      H2             -1.8840437052      -12.4131858949       85.5808708938  TIP3      6747            0.0000000000
     71757      8108  TIP3      OH2            15.4852983154       -4.1571578248       85.9332158156  TIP3      6748            0.0000000000
     71758      8108  TIP3      H1             16.0851607347       -3.6086426630       85.4038011729  TIP3      6748            0.0000000000
     71759      8108  TIP3      H2             14.6822332272       -3.5891900979       85.9320331030  TIP3      6748            0.0000000000
     71760      8109  TIP3      OH2             4.9630278501       -7.5443407842       83.7831715927  TIP3      6749            0.0000000000
     71761      8109  TIP3      H1              5.2338853457       -8.3242019386       83.2761189249  TIP3      6749            0.0000000000
     71762      8109  TIP3      H2              4.7088102080       -7.9380034352       84.6383149167  TIP3      6749            0.0000000000
     71763      8110  TIP3      OH2             3.8771430671       -8.0500749215       86.2939014454  TIP3      6750            0.0000000000
     71764      8110  TIP3      H1              4.1391185336       -8.5154004754       87.0970362285  TIP3      6750            0.0000000000
     71765      8110  TIP3      H2              3.9994817714       -7.1177731957       86.5730953706  TIP3      6750            0.0000000000
     71766      8111  TIP3      OH2             0.3737387487      -10.7658496646       86.7438591347  TIP3      6751            0.0000000000
     71767      8111  TIP3      H1             -0.2781816107      -10.4168526770       87.3466602473  TIP3      6751            0.0000000000
     71768      8111  TIP3      H2              0.9056788907       -9.9940274501       86.4905977651  TIP3      6751            0.0000000000
     71769      8112  TIP3      OH2             3.9828941727       -5.2892449681       86.9984926766  TIP3      6752            0.0000000000
     71770      8112  TIP3      H1              4.1770355956       -4.4982428795       86.4726406155  TIP3      6752            0.0000000000
     71771      8112  TIP3      H2              3.8759582143       -4.9432541709       87.8928211057  TIP3      6752            0.0000000000
     71772      8113  TIP3      OH2             0.9739289514       -8.1441151088       85.6695900832  TIP3      6753            0.0000000000
     71773      8113  TIP3      H1              1.6165711939       -7.4862547946       85.9638456001  TIP3      6753            0.0000000000
     71774      8113  TIP3      H2              1.5007116781       -8.5934005761       84.9801100269  TIP3      6753            0.0000000000
     71775      8114  TIP3      OH2            -0.6862900191      -15.4472902518       84.6802500160  TIP3      6754            0.0000000000
     71776      8114  TIP3      H1             -0.7096926693      -14.5390775126       85.0368479327  TIP3      6754            0.0000000000
     71777      8114  TIP3      H2             -1.6155482555      -15.6433620589       84.5912096577  TIP3      6754            0.0000000000
     71778      8115  TIP3      OH2             2.5054266444      -10.0446918219       83.9887226454  TIP3      6755            0.0000000000
     71779      8115  TIP3      H1              2.6955671440      -10.7787314478       84.5892440289  TIP3      6755            0.0000000000
     71780      8115  TIP3      H2              3.2741080118      -10.1016184100       83.3845301826  TIP3      6755            0.0000000000
     71781      8116  TIP3      OH2             7.7217336274       -8.9403294781       83.7125475207  TIP3      6756            0.0000000000
     71782      8116  TIP3      H1              7.6462040134       -8.7559518432       84.6547787604  TIP3      6756            0.0000000000
     71783      8116  TIP3      H2              7.7179836857       -9.9157036079       83.6512728577  TIP3      6756            0.0000000000
     71784      8117  TIP3      OH2             3.7132533071      -12.0154863541       86.3374268489  TIP3      6757            0.0000000000
     71785      8117  TIP3      H1              3.2594522412      -12.4939431732       87.0386813362  TIP3      6757            0.0000000000
     71786      8117  TIP3      H2              4.0108775374      -12.6877815782       85.6907716023  TIP3      6757            0.0000000000
     71787      8118  TIP3      OH2             4.8590788563      -13.7266991756       84.5980143172  TIP3      6758            0.0000000000
     71788      8118  TIP3      H1              4.6807947032      -13.8508087144       83.6404746461  TIP3      6758            0.0000000000
     71789      8118  TIP3      H2              5.8315310918      -13.6905341322       84.6557262751  TIP3      6758            0.0000000000
     71790      8119  TIP3      OH2            14.2318545939      -11.3968824068       84.0583644832  TIP3      6759            0.0000000000
     71791      8119  TIP3      H1             13.9261276816      -11.7814341486       83.2246956421  TIP3      6759            0.0000000000
     71792      8119  TIP3      H2             14.2154542345      -10.4364338673       83.8530524127  TIP3      6759            0.0000000000
     71793      8120  TIP3      OH2            -1.7088129249       -8.4684164759       85.1313637315  TIP3      6760            0.0000000000
     71794      8120  TIP3      H1             -0.7569215160       -8.3822552966       85.3429755087  TIP3      6760            0.0000000000
     71795      8120  TIP3      H2             -1.7258171212       -9.1499337845       84.4325873380  TIP3      6760            0.0000000000
     71796      8121  TIP3      OH2            13.6204946869      -15.3289893237       84.7922063958  TIP3      6761            0.0000000000
     71797      8121  TIP3      H1             13.8145467089      -14.7199960094       84.0850806862  TIP3      6761            0.0000000000
     71798      8121  TIP3      H2             13.5638015176      -16.1827090457       84.3319925000  TIP3      6761            0.0000000000
     71799      8122  TIP3      OH2            12.9531061026      -17.9303756187       83.8966096303  TIP3      6762            0.0000000000
     71800      8122  TIP3      H1             13.5421071550      -18.3268052703       84.5418765342  TIP3      6762            0.0000000000
     71801      8122  TIP3      H2             12.0965946023      -18.3299384698       84.1129676650  TIP3      6762            0.0000000000
     71802      8123  TIP3      OH2             0.3035984767       -4.1071326488       84.4600096367  TIP3      6763            0.0000000000
     71803      8123  TIP3      H1             -0.0027388114       -3.9059405673       85.3597958824  TIP3      6763            0.0000000000
     71804      8123  TIP3      H2              1.0852773453       -4.6731700949       84.6086635186  TIP3      6763            0.0000000000
     71805      8124  TIP3      OH2            26.4878881633      -13.8993488685       85.1350456694  TIP3      6764            0.0000000000
     71806      8124  TIP3      H1             27.1226154673      -13.8992160889       85.8710168239  TIP3      6764            0.0000000000
     71807      8124  TIP3      H2             26.8215464942      -14.6066803861       84.5779193576  TIP3      6764            0.0000000000
     71808      8125  TIP3      OH2            28.7405784561      -13.0664630163       86.7782585060  TIP3      6765            0.0000000000
     71809      8125  TIP3      H1             29.2711003331      -12.8894800068       87.5614474969  TIP3      6765            0.0000000000
     71810      8125  TIP3      H2             29.1299984722      -12.5057530257       86.0982995033  TIP3      6765            0.0000000000
     71811      8126  TIP3      OH2            32.4397888071      -21.2771524646       86.7132519829  TIP3      6766            0.0000000000
     71812      8126  TIP3      H1             31.4890232492      -21.2007841942       86.8803402714  TIP3      6766            0.0000000000
     71813      8126  TIP3      H2             32.6308801225      -20.5041922818       86.1746030327  TIP3      6766            0.0000000000
     71814      8127  TIP3      OH2            33.5638089389       -6.8885054300       84.9191530821  TIP3      6767            0.0000000000
     71815      8127  TIP3      H1             33.6878915318       -5.9630183284       85.1929228257  TIP3      6767            0.0000000000
     71816      8127  TIP3      H2             34.4586773095       -7.2296894886       84.9768529525  TIP3      6767            0.0000000000
     71817      8128  TIP3      OH2            28.9478870038       -4.2246495785       85.7141042712  TIP3      6768            0.0000000000
     71818      8128  TIP3      H1             29.4044403474       -4.9124958206       85.1869570745  TIP3      6768            0.0000000000
     71819      8128  TIP3      H2             29.0836534860       -4.5474241963       86.6042302607  TIP3      6768            0.0000000000
     71820      8129  TIP3      OH2            25.7495240705      -18.0995719410       85.0815271182  TIP3      6769            0.0000000000
     71821      8129  TIP3      H1             25.4838212338      -18.1011426773       86.0052059269  TIP3      6769            0.0000000000
     71822      8129  TIP3      H2             25.4711399525      -18.9845935624       84.8021036151  TIP3      6769            0.0000000000
     71823      8130  TIP3      OH2            28.4710817389      -17.5198312166       85.6490520670  TIP3      6770            0.0000000000
     71824      8130  TIP3      H1             27.5108971328      -17.4108489806       85.5870457837  TIP3      6770            0.0000000000
     71825      8130  TIP3      H2             28.7678170531      -16.7061630868       86.1061221170  TIP3      6770            0.0000000000
     71826      8131  TIP3      OH2            29.1894692016      -15.6632636196       87.3372734039  TIP3      6771            0.0000000000
     71827      8131  TIP3      H1             30.0775490943      -15.7850860092       87.7145232660  TIP3      6771            0.0000000000
     71828      8131  TIP3      H2             29.2300531533      -14.8130596063       86.8786889985  TIP3      6771            0.0000000000
     71829      8132  TIP3      OH2            26.7031676882       -8.8939082473       86.5857937351  TIP3      6772            0.0000000000
     71830      8132  TIP3      H1             26.3930269791       -8.0421474653       86.9309876023  TIP3      6772            0.0000000000
     71831      8132  TIP3      H2             25.9986983064       -9.5224643683       86.7649469114  TIP3      6772            0.0000000000
     71832      8133  TIP3      OH2            29.7702690298       -8.7338149814       85.3462895465  TIP3      6773            0.0000000000
     71833      8133  TIP3      H1             30.1119306630       -9.0205222964       86.1909221740  TIP3      6773            0.0000000000
     71834      8133  TIP3      H2             28.8111995025       -8.7528406595       85.4633456404  TIP3      6773            0.0000000000
     71835      8134  TIP3      OH2            34.2663476122       -4.2502856561       85.6222718904  TIP3      6774            0.0000000000
     71836      8134  TIP3      H1             34.9947903828       -3.6483382561       85.4162053935  TIP3      6774            0.0000000000
     71837      8134  TIP3      H2             33.5708037689       -3.6278675151       85.8724467679  TIP3      6774            0.0000000000
     71838      8135  TIP3      OH2            19.8299931549       -8.0563255709       85.6560322784  TIP3      6775            0.0000000000
     71839      8135  TIP3      H1             20.5150870165       -7.4680038042       85.9595592938  TIP3      6775            0.0000000000
     71840      8135  TIP3      H2             20.3026810399       -8.5781516939       84.9859478189  TIP3      6775            0.0000000000
     71841      8136  TIP3      OH2            30.4751035998       -5.9345533998       84.1901432604  TIP3      6776            0.0000000000
     71842      8136  TIP3      H1             30.8076165336       -6.7166808349       84.6524297581  TIP3      6776            0.0000000000
     71843      8136  TIP3      H2             31.2314023005       -5.6678073204       83.6503366843  TIP3      6776            0.0000000000
     71844      8137  TIP3      OH2            26.7837783765       -8.9007323496       83.7669270781  TIP3      6777            0.0000000000
     71845      8137  TIP3      H1             26.5955962315       -8.7722748753       84.7067465497  TIP3      6777            0.0000000000
     71846      8137  TIP3      H2             26.6183411668       -9.8552666219       83.6253046254  TIP3      6777            0.0000000000
     71847      8138  TIP3      OH2            17.1517721621       -8.4454097971       85.1968555227  TIP3      6778            0.0000000000
     71848      8138  TIP3      H1             18.1125163385       -8.4161140792       85.3294919947  TIP3      6778            0.0000000000
     71849      8138  TIP3      H2             17.0947410995       -9.0799985313       84.4457314282  TIP3      6778            0.0000000000
     71850      8139  TIP3      OH2            19.1766123781       -4.1722483407       84.4998117109  TIP3      6779            0.0000000000
     71851      8139  TIP3      H1             18.8911567303       -3.8167868815       85.3533474804  TIP3      6779            0.0000000000
     71852      8139  TIP3      H2             19.9678442678       -4.6880915233       84.6839032293  TIP3      6779            0.0000000000
     71853      8140  TIP3      OH2            40.0662388085      -14.8517225663       85.5672388489  TIP3      6780            0.0000000000
     71854      8140  TIP3      H1             39.5352290014      -15.2975005174       84.9070643695  TIP3      6780            0.0000000000
     71855      8140  TIP3      H2             40.9332102736      -14.7382801116       85.1861447234  TIP3      6780            0.0000000000
     71856      8141  TIP3      OH2           -41.1923758702      -18.2638388452       86.3651295466  TIP3      6781            0.0000000000
     71857      8141  TIP3      H1            -41.1174609559      -17.5583743850       87.0066071309  TIP3      6781            0.0000000000
     71858      8141  TIP3      H2            -40.4976187270      -18.8523646098       86.7399220179  TIP3      6781            0.0000000000
     71859      8142  TIP3      OH2            38.6862240355       -8.0063506777       85.6030188498  TIP3      6782            0.0000000000
     71860      8142  TIP3      H1             39.3975975332       -7.4722184051       85.9375629040  TIP3      6782            0.0000000000
     71861      8142  TIP3      H2             39.1665617166       -8.6178985624       85.0142859285  TIP3      6782            0.0000000000
     71862      8143  TIP3      OH2            39.9276868719      -10.0723971628       84.1255779005  TIP3      6783            0.0000000000
     71863      8143  TIP3      H1             40.2668159866      -10.7469146826       84.7215736020  TIP3      6783            0.0000000000
     71864      8143  TIP3      H2             40.7406793331      -10.0023670287       83.6039183202  TIP3      6783            0.0000000000
     71865      8144  TIP3      OH2            36.3008178364      -21.0252989073       86.4937017066  TIP3      6784            0.0000000000
     71866      8144  TIP3      H1             36.7930430842      -20.3733742430       85.9612445089  TIP3      6784            0.0000000000
     71867      8144  TIP3      H2             35.7182746070      -20.4650368271       86.9933802761  TIP3      6784            0.0000000000
     71868      8145  TIP3      OH2            38.1337282934      -19.1415383078       85.0449419207  TIP3      6785            0.0000000000
     71869      8145  TIP3      H1             38.6717086978      -19.6921271185       84.4557001994  TIP3      6785            0.0000000000
     71870      8145  TIP3      H2             38.8351547481      -18.7805322424       85.6419885328  TIP3      6785            0.0000000000
     71871      8146  TIP3      OH2           -30.1279471960        4.8846862376       85.1724746286  TIP3      6786            0.0000000000
     71872      8146  TIP3      H1            -29.4410647406        4.9475165018       85.8415670866  TIP3      6786            0.0000000000
     71873      8146  TIP3      H2            -29.7545986855        4.2424561096       84.5562241951  TIP3      6786            0.0000000000
     71874      8147  TIP3      OH2           -33.9860153896        1.2377148197       84.2260222709  TIP3      6787            0.0000000000
     71875      8147  TIP3      H1            -34.4345327926        0.7461183628       84.9435395520  TIP3      6787            0.0000000000
     71876      8147  TIP3      H2            -34.7224114830        1.5503845416       83.6883936537  TIP3      6787            0.0000000000
     71877      8148  TIP3      OH2           -39.4685615389        1.5583266547       86.6129139104  TIP3      6788            0.0000000000
     71878      8148  TIP3      H1            -38.8960604805        2.1737634061       86.1145809479  TIP3      6788            0.0000000000
     71879      8148  TIP3      H2            -40.0577422339        2.1648541570       87.0568858032  TIP3      6788            0.0000000000
     71880      8149  TIP3      OH2           -35.3166611660        3.9314860943       85.6379959939  TIP3      6789            0.0000000000
     71881      8149  TIP3      H1            -35.8590782637        3.5960432649       84.9033579218  TIP3      6789            0.0000000000
     71882      8149  TIP3      H2            -34.4985358714        4.1425723868       85.1639722395  TIP3      6789            0.0000000000
     71883      8150  TIP3      OH2           -27.4130948947        3.2748743256       87.3514234582  TIP3      6790            0.0000000000
     71884      8150  TIP3      H1            -26.5373449307        3.0350288657       87.6907492600  TIP3      6790            0.0000000000
     71885      8150  TIP3      H2            -27.2589593009        4.0056089278       86.7710128809  TIP3      6790            0.0000000000
     71886      8151  TIP3      OH2           -29.8333263314        9.9568916349       86.6046459349  TIP3      6791            0.0000000000
     71887      8151  TIP3      H1            -30.2052092543       10.8032516449       86.9100320094  TIP3      6791            0.0000000000
     71888      8151  TIP3      H2            -30.5587086073        9.3497153739       86.7405284912  TIP3      6791            0.0000000000
     71889      8152  TIP3      OH2           -22.5141611402        3.4039515097       87.1400431067  TIP3      6792            0.0000000000
     71890      8152  TIP3      H1            -23.0470030931        3.0538759631       86.4025850100  TIP3      6792            0.0000000000
     71891      8152  TIP3      H2            -22.3896206242        4.3142326335       86.8108938013  TIP3      6792            0.0000000000
     71892      8153  TIP3      OH2           -33.6003680778       10.8064614963       86.2510450694  TIP3      6793            0.0000000000
     71893      8153  TIP3      H1            -33.6091266099       10.2894744313       87.0627326754  TIP3      6793            0.0000000000
     71894      8153  TIP3      H2            -33.7228302519       11.6974783441       86.5688146886  TIP3      6793            0.0000000000
     71895      8154  TIP3      OH2           -31.0919727992       12.4618408579       86.9474172285  TIP3      6794            0.0000000000
     71896      8154  TIP3      H1            -31.8149494071       13.0735853943       87.0766061819  TIP3      6794            0.0000000000
     71897      8154  TIP3      H2            -30.4945654177       13.0275761199       86.4329883910  TIP3      6794            0.0000000000
     71898      8155  TIP3      OH2           -34.9416765822        0.2762908081       86.5135887745  TIP3      6795            0.0000000000
     71899      8155  TIP3      H1            -35.1199249870        1.1124432964       86.9974222166  TIP3      6795            0.0000000000
     71900      8155  TIP3      H2            -34.0957410361        0.0281731644       86.8806221775  TIP3      6795            0.0000000000
     71901      8156  TIP3      OH2           -38.4095043637        3.4117939447       84.7802739092  TIP3      6796            0.0000000000
     71902      8156  TIP3      H1            -38.4525914956        4.3391409788       85.0051774248  TIP3      6796            0.0000000000
     71903      8156  TIP3      H2            -39.2934442239        3.1563420121       84.4932609542  TIP3      6796            0.0000000000
     71904      8157  TIP3      OH2           -30.6623791026       13.1408714833       83.9605694312  TIP3      6797            0.0000000000
     71905      8157  TIP3      H1            -31.3422938532       12.5167153273       84.2524053739  TIP3      6797            0.0000000000
     71906      8157  TIP3      H2            -29.9170716904       12.5532879836       83.8488924215  TIP3      6797            0.0000000000
     71907      8158  TIP3      OH2           -33.9456245151        6.8613857297       86.3956686198  TIP3      6798            0.0000000000
     71908      8158  TIP3      H1            -34.4569098060        6.3474760854       87.0224652616  TIP3      6798            0.0000000000
     71909      8158  TIP3      H2            -33.7066932839        6.2133164766       85.7048564405  TIP3      6798            0.0000000000
     71910      8159  TIP3      OH2           -32.9261016887        5.0668129252       84.6193369991  TIP3      6799            0.0000000000
     71911      8159  TIP3      H1            -33.0728300924        4.9859119004       83.6565678107  TIP3      6799            0.0000000000
     71912      8159  TIP3      H2            -31.9524344804        5.1963868734       84.6657974028  TIP3      6799            0.0000000000
     71913      8160  TIP3      OH2           -22.3944164010        6.2717767639       86.2495862267  TIP3      6800            0.0000000000
     71914      8160  TIP3      H1            -22.9287623933        6.6591743752       85.5460071076  TIP3      6800            0.0000000000
     71915      8160  TIP3      H2            -22.4238139514        6.9478552677       86.9423497710  TIP3      6800            0.0000000000
     71916      8161  TIP3      OH2           -24.0167519751        3.5231040069       84.7912883568  TIP3      6801            0.0000000000
     71917      8161  TIP3      H1            -23.9111593502        4.1563096113       84.0801834287  TIP3      6801            0.0000000000
     71918      8161  TIP3      H2            -24.1642488594        2.6934925395       84.3241353874  TIP3      6801            0.0000000000
     71919      8162  TIP3      OH2           -38.8206150016       -2.1140153860       86.7371736555  TIP3      6802            0.0000000000
     71920      8162  TIP3      H1            -38.6138072591       -1.5506555282       85.9827372228  TIP3      6802            0.0000000000
     71921      8162  TIP3      H2            -39.6661674771       -1.7047366653       86.9678182198  TIP3      6802            0.0000000000
     71922      8163  TIP3      OH2           -37.2682675273       -0.2330697052       85.0023789011  TIP3      6803            0.0000000000
     71923      8163  TIP3      H1            -36.7397694193       -0.8826854546       84.5142566522  TIP3      6803            0.0000000000
     71924      8163  TIP3      H2            -36.6507141336        0.0554374064       85.7008993250  TIP3      6803            0.0000000000
     71925      8164  TIP3      OH2            -9.0127387565        5.8405346683       86.7788747158  TIP3      6804            0.0000000000
     71926      8164  TIP3      H1             -8.4545089526        5.9937020311       87.5364457243  TIP3      6804            0.0000000000
     71927      8164  TIP3      H2             -8.5766825958        6.3045470713       86.0402118545  TIP3      6804            0.0000000000
     71928      8165  TIP3      OH2            -5.2749910666       -2.3959479274       86.7322113291  TIP3      6805            0.0000000000
     71929      8165  TIP3      H1             -6.2168850272       -2.3084016102       86.9004436433  TIP3      6805            0.0000000000
     71930      8165  TIP3      H2             -5.0629714651       -1.5988836264       86.2158194286  TIP3      6805            0.0000000000
     71931      8166  TIP3      OH2            -4.1836176036       11.9445189724       84.9599814676  TIP3      6806            0.0000000000
     71932      8166  TIP3      H1             -4.0061222240       12.8774503054       85.1777090506  TIP3      6806            0.0000000000
     71933      8166  TIP3      H2             -3.2502538298       11.6401640881       84.9837706406  TIP3      6806            0.0000000000
     71934      8167  TIP3      OH2            -8.6496754640       14.7218434657       85.6789542985  TIP3      6807            0.0000000000
     71935      8167  TIP3      H1             -8.3457234334       13.9333388104       85.1949582824  TIP3      6807            0.0000000000
     71936      8167  TIP3      H2             -8.7192158197       14.3903055146       86.5804728358  TIP3      6807            0.0000000000
     71937      8168  TIP3      OH2            -7.5172685367        6.8526219526       84.5463987828  TIP3      6808            0.0000000000
     71938      8168  TIP3      H1             -7.5587593415        6.6514089097       83.5760945391  TIP3      6808            0.0000000000
     71939      8168  TIP3      H2             -6.6512321398        7.2849255498       84.5933621027  TIP3      6808            0.0000000000
     71940      8169  TIP3      OH2           -20.5725974657        1.6237711191       86.6744685869  TIP3      6809            0.0000000000
     71941      8169  TIP3      H1            -20.0779252273        2.2383194646       86.1039948520  TIP3      6809            0.0000000000
     71942      8169  TIP3      H2            -21.2735422288        2.2027338683       87.0190917021  TIP3      6809            0.0000000000
     71943      8170  TIP3      OH2            -9.2912744247        1.2525665761       85.6775301902  TIP3      6810            0.0000000000
     71944      8170  TIP3      H1            -10.2207479993        1.4849785086       85.6171068552  TIP3      6810            0.0000000000
     71945      8170  TIP3      H2             -8.9626278160        2.0982988016       86.0844829354  TIP3      6810            0.0000000000
     71946      8171  TIP3      OH2            -8.4530830832        3.1514541390       87.2609188222  TIP3      6811            0.0000000000
     71947      8171  TIP3      H1             -7.6122208529        3.1001004169       87.7232201588  TIP3      6811            0.0000000000
     71948      8171  TIP3      H2             -8.5050420200        4.0429708077       86.8657003939  TIP3      6811            0.0000000000
     71949      8172  TIP3      OH2           -19.8535309387        6.2193326498       85.2215280034  TIP3      6812            0.0000000000
     71950      8172  TIP3      H1            -19.2556947090        6.8150600806       85.6911381622  TIP3      6812            0.0000000000
     71951      8172  TIP3      H2            -20.7223463118        6.4633675167       85.5878771288  TIP3      6812            0.0000000000
     71952      8173  TIP3      OH2            -7.9027725557       10.2468329885       85.3663887300  TIP3      6813            0.0000000000
     71953      8173  TIP3      H1             -7.6169508835        9.8070437781       86.1732653436  TIP3      6813            0.0000000000
     71954      8173  TIP3      H2             -8.8606513396       10.0933015834       85.4499962402  TIP3      6813            0.0000000000
     71955      8174  TIP3      OH2            -3.4745868446       14.6174030102       85.5499140352  TIP3      6814            0.0000000000
     71956      8174  TIP3      H1             -2.7138451088       15.2236407367       85.5245689476  TIP3      6814            0.0000000000
     71957      8174  TIP3      H2             -4.1519903642       15.2260863039       85.8952907963  TIP3      6814            0.0000000000
     71958      8175  TIP3      OH2           -17.8821720676       10.7303759473       85.6857428104  TIP3      6815            0.0000000000
     71959      8175  TIP3      H1            -17.2588862637       11.3999308707       85.9762706156  TIP3      6815            0.0000000000
     71960      8175  TIP3      H2            -17.4216823705       10.2686995058       84.9832130473  TIP3      6815            0.0000000000
     71961      8176  TIP3      OH2           -19.5585357364        3.3864458664       84.8164748805  TIP3      6816            0.0000000000
     71962      8176  TIP3      H1            -19.5694608248        4.3464776952       84.9913710047  TIP3      6816            0.0000000000
     71963      8176  TIP3      H2            -20.4331465735        3.1802408013       84.5065829021  TIP3      6816            0.0000000000
     71964      8177  TIP3      OH2            -7.2441819208       12.9102593118       84.1532610803  TIP3      6817            0.0000000000
     71965      8177  TIP3      H1             -6.9210512994       12.1440076537       84.6446498686  TIP3      6817            0.0000000000
     71966      8177  TIP3      H2             -6.4753183623       13.1633366695       83.6142322993  TIP3      6817            0.0000000000
     71967      8178  TIP3      OH2            -4.6858771928        7.4552549485       84.0708044218  TIP3      6818            0.0000000000
     71968      8178  TIP3      H1             -4.8970180790        7.0354553133       83.2260916946  TIP3      6818            0.0000000000
     71969      8178  TIP3      H2             -4.6447953823        8.3981644884       83.8428726457  TIP3      6818            0.0000000000
     71970      8179  TIP3      OH2            -5.9018544892        0.9276649197       83.9190843247  TIP3      6819            0.0000000000
     71971      8179  TIP3      H1             -5.3032528379        0.5445151868       84.5774939337  TIP3      6819            0.0000000000
     71972      8179  TIP3      H2             -6.7542047915        0.5165940589       84.1022748746  TIP3      6819            0.0000000000
     71973      8180  TIP3      OH2            -3.8004728293       -0.2131889471       85.5292811477  TIP3      6820            0.0000000000
     71974      8180  TIP3      H1             -3.4340419789       -0.9396726360       84.9777638441  TIP3      6820            0.0000000000
     71975      8180  TIP3      H2             -3.1166512004        0.4661273471       85.4882969963  TIP3      6820            0.0000000000
     71976      8181  TIP3      OH2           -20.2696940596       -2.1597441387       86.5162942537  TIP3      6821            0.0000000000
     71977      8181  TIP3      H1            -19.7947802031       -1.5085411739       85.9895125929  TIP3      6821            0.0000000000
     71978      8181  TIP3      H2            -20.8686100278       -1.6065710609       87.0136037636  TIP3      6821            0.0000000000
     71979      8182  TIP3      OH2           -18.4102136068       -0.2161157569       84.9613856342  TIP3      6822            0.0000000000
     71980      8182  TIP3      H1            -17.8942813841       -0.8787122971       84.4720295226  TIP3      6822            0.0000000000
     71981      8182  TIP3      H2            -17.8371088487        0.0897258163       85.6789278555  TIP3      6822            0.0000000000
     71982      8183  TIP3      OH2            13.5817330908       -2.4071654042       86.6285021464  TIP3      6823            0.0000000000
     71983      8183  TIP3      H1             12.6874129495       -2.2959017772       86.9455765537  TIP3      6823            0.0000000000
     71984      8183  TIP3      H2             13.8030145512       -1.5542953625       86.2309467113  TIP3      6823            0.0000000000
     71985      8184  TIP3      OH2            15.2682525156        3.3900966973       87.0783720177  TIP3      6824            0.0000000000
     71986      8184  TIP3      H1             14.6439630893        3.0244005924       86.4164788770  TIP3      6824            0.0000000000
     71987      8184  TIP3      H2             15.2496041955        4.3280933283       86.8394394658  TIP3      6824            0.0000000000
     71988      8185  TIP3      OH2            15.3873041888       14.6295135109       85.5341884130  TIP3      6825            0.0000000000
     71989      8185  TIP3      H1             16.1474164122       15.2174769167       85.4819274957  TIP3      6825            0.0000000000
     71990      8185  TIP3      H2             14.7089831308       15.2175214584       85.9149535400  TIP3      6825            0.0000000000
     71991      8186  TIP3      OH2             2.7331174137        0.2859577385       86.5876660069  TIP3      6826            0.0000000000
     71992      8186  TIP3      H1              2.6551420372        1.1457028141       86.9983366028  TIP3      6826            0.0000000000
     71993      8186  TIP3      H2              3.6173965652        0.0235669152       86.8503101261  TIP3      6826            0.0000000000
     71994      8187  TIP3      OH2            -1.7509317845       10.4634746741       85.0754782532  TIP3      6827            0.0000000000
     71995      8187  TIP3      H1             -0.8380243137       10.4569662788       85.3968934418  TIP3      6827            0.0000000000
     71996      8187  TIP3      H2             -1.7175280674        9.7090523090       84.4459215892  TIP3      6827            0.0000000000
     71997      8188  TIP3      OH2            13.7627084600        3.4555956880       84.7829917114  TIP3      6828            0.0000000000
     71998      8188  TIP3      H1             13.7644369387        4.1662086423       84.1281820707  TIP3      6828            0.0000000000
     71999      8188  TIP3      H2             13.5163570481        2.6541765152       84.2870260683  TIP3      6828            0.0000000000
     72000      8189  TIP3      OH2            12.9462334086        0.9043002745       83.9188701154  TIP3      6829            0.0000000000
     72001      8189  TIP3      H1             13.5619199822        0.5271542727       84.5781764189  TIP3      6829            0.0000000000
     72002      8189  TIP3      H2             12.0934415005        0.5132990889       84.1479407776  TIP3      6829            0.0000000000
     72003      8190  TIP3      OH2            14.9987473872       -0.1691373867       85.4534273847  TIP3      6830            0.0000000000
     72004      8190  TIP3      H1             15.4256199275       -0.9031289825       84.9704699736  TIP3      6830            0.0000000000
     72005      8190  TIP3      H2             15.7400123141        0.4474185301       85.5816468131  TIP3      6830            0.0000000000
     72006      8191  TIP3      OH2            -1.3971290583       -2.1719167527       86.5477150326  TIP3      6831            0.0000000000
     72007      8191  TIP3      H1             -0.9499657326       -1.5445508807       85.9578821669  TIP3      6831            0.0000000000
     72008      8191  TIP3      H2             -2.0318191620       -1.6128274719       86.9789392135  TIP3      6831            0.0000000000
     72009      8192  TIP3      OH2             0.4578251504       -0.2306785009       85.0519641102  TIP3      6832            0.0000000000
     72010      8192  TIP3      H1              0.9233398739       -0.8688378207       84.4930712988  TIP3      6832            0.0000000000
     72011      8192  TIP3      H2              1.1453312324        0.0293885569       85.6887527171  TIP3      6832            0.0000000000
     72012      8193  TIP3      OH2            17.1136157448        1.5730050674       86.6381773450  TIP3      6833            0.0000000000
     72013      8193  TIP3      H1             17.6317420435        2.2027692335       86.1030838477  TIP3      6833            0.0000000000
     72014      8193  TIP3      H2             16.4355667062        2.1785372295       87.0116335372  TIP3      6833            0.0000000000
     72015      8194  TIP3      OH2            21.2536485110        3.9359211342       85.6189583036  TIP3      6834            0.0000000000
     72016      8194  TIP3      H1             20.7029669454        3.5697200897       84.9030245836  TIP3      6834            0.0000000000
     72017      8194  TIP3      H2             22.0548542074        4.1652290159       85.1301472733  TIP3      6834            0.0000000000
     72018      8195  TIP3      OH2            29.1838057805        3.2054616372       87.3527667161  TIP3      6835            0.0000000000
     72019      8195  TIP3      H1             30.0611766694        3.0312437276       87.7109851882  TIP3      6835            0.0000000000
     72020      8195  TIP3      H2             29.2683405022        4.0075066500       86.8548669031  TIP3      6835            0.0000000000
     72021      8196  TIP3      OH2            23.9302518620       11.3189461349       83.8513897816  TIP3      6836            0.0000000000
     72022      8196  TIP3      H1             24.0608134532       10.5568144961       83.2628570978  TIP3      6836            0.0000000000
     72023      8196  TIP3      H2             23.5173845108       10.8865355655       84.6336450708  TIP3      6836            0.0000000000
     72024      8197  TIP3      OH2            22.7581539275       10.8179808634       86.2852028916  TIP3      6837            0.0000000000
     72025      8197  TIP3      H1             22.9229297889       10.3519535766       87.0991596368  TIP3      6837            0.0000000000
     72026      8197  TIP3      H2             22.8279389405       11.7644042448       86.5676306332  TIP3      6837            0.0000000000
     72027      8198  TIP3      OH2            19.2642686819        8.0897403468       86.8218361251  TIP3      6838            0.0000000000
     72028      8198  TIP3      H1             18.5590338063        8.4538637598       87.3385228712  TIP3      6838            0.0000000000
     72029      8198  TIP3      H2             19.7323208698        8.8577571775       86.4540085655  TIP3      6838            0.0000000000
     72030      8199  TIP3      OH2            22.8516263399       13.5183751574       87.0450229633  TIP3      6839            0.0000000000
     72031      8199  TIP3      H1             23.0283699604       14.3086233295       86.4696242181  TIP3      6839            0.0000000000
     72032      8199  TIP3      H2             22.7302454204       13.9462031714       87.8978475707  TIP3      6839            0.0000000000
     72033      8200  TIP3      OH2            21.5349731267        0.2656869557       86.6116606895  TIP3      6840            0.0000000000
     72034      8200  TIP3      H1             21.5032571038        1.1686912460       86.9502073933  TIP3      6840            0.0000000000
     72035      8200  TIP3      H2             22.4568816666        0.0417451268       86.7854958733  TIP3      6840            0.0000000000
     72036      8201  TIP3      OH2            19.8608505565       10.7104694123       85.6773662788  TIP3      6841            0.0000000000
     72037      8201  TIP3      H1             20.4876758701       11.3932854203       85.9367238530  TIP3      6841            0.0000000000
     72038      8201  TIP3      H2             20.3694009066       10.2609757626       84.9779086441  TIP3      6841            0.0000000000
     72039      8202  TIP3      OH2            18.1939186264        3.4086516129       84.7626833815  TIP3      6842            0.0000000000
     72040      8202  TIP3      H1             18.1610635823        4.3377073207       85.0056384835  TIP3      6842            0.0000000000
     72041      8202  TIP3      H2             17.2910581820        3.1779419635       84.5219296866  TIP3      6842            0.0000000000
     72042      8203  TIP3      OH2            25.9483766752       13.1851495558       83.9527317587  TIP3      6843            0.0000000000
     72043      8203  TIP3      H1             25.2563752464       12.5491538516       84.2513910013  TIP3      6843            0.0000000000
     72044      8203  TIP3      H2             26.6704748370       12.5732344951       83.7746694381  TIP3      6843            0.0000000000
     72045      8204  TIP3      OH2            21.3862834777        8.8556039900       84.0049133354  TIP3      6844            0.0000000000
     72046      8204  TIP3      H1             21.5334462221        8.0868525949       84.5747967010  TIP3      6844            0.0000000000
     72047      8204  TIP3      H2             22.1334675442        8.7519805952       83.3756150703  TIP3      6844            0.0000000000
     72048      8205  TIP3      OH2            22.5932689708        6.8535477819       86.3658407171  TIP3      6845            0.0000000000
     72049      8205  TIP3      H1             22.1202705491        6.3368561017       87.0261706413  TIP3      6845            0.0000000000
     72050      8205  TIP3      H2             22.8363787636        6.1900194743       85.6872592584  TIP3      6845            0.0000000000
     72051      8206  TIP3      OH2            23.6757029952        5.0723897326       84.6257101646  TIP3      6846            0.0000000000
     72052      8206  TIP3      H1             23.4771732208        4.9942746412       83.6652824975  TIP3      6846            0.0000000000
     72053      8206  TIP3      H2             24.6313461413        5.1969742117       84.6320405309  TIP3      6846            0.0000000000
     72054      8207  TIP3      OH2            23.5183984522       15.7717257339       85.6633966441  TIP3      6847            0.0000000000
     72055      8207  TIP3      H1             24.4837697464       15.8788262070       85.7598883355  TIP3      6847            0.0000000000
     72056      8207  TIP3      H2             23.3328659873       16.4268439206       84.9735005599  TIP3      6847            0.0000000000
     72057      8208  TIP3      OH2            32.5292296618        3.4935307295       84.7350811365  TIP3      6848            0.0000000000
     72058      8208  TIP3      H1             32.6452300871        4.1882351895       84.0835743923  TIP3      6848            0.0000000000
     72059      8208  TIP3      H2             32.3894931826        2.6602868882       84.3003492858  TIP3      6848            0.0000000000
     72060      8209  TIP3      OH2            17.4706019770       -2.1637302228       86.5673872085  TIP3      6849            0.0000000000
     72061      8209  TIP3      H1             17.9038498941       -1.5083073338       85.9940329973  TIP3      6849            0.0000000000
     72062      8209  TIP3      H2             16.8199826504       -1.6023239527       87.0035868490  TIP3      6849            0.0000000000
     72063      8210  TIP3      OH2            19.2747594150       -0.2139249581       84.9877426757  TIP3      6850            0.0000000000
     72064      8210  TIP3      H1             19.8062453235       -0.8426398329       84.4681265860  TIP3      6850            0.0000000000
     72065      8210  TIP3      H2             19.9350873218        0.0609694402       85.6636646336  TIP3      6850            0.0000000000
     72066      8211  TIP3      OH2            26.1861602362       15.0407106000       85.8950769839  TIP3      6851            0.0000000000
     72067      8211  TIP3      H1             27.0661679420       15.3738851965       85.6865834870  TIP3      6851            0.0000000000
     72068      8211  TIP3      H2             25.9780219157       14.5009977569       85.0988369351  TIP3      6851            0.0000000000
     72069      8212  TIP3      OH2            19.1233781363       14.7652326053       84.4855392185  TIP3      6852            0.0000000000
     72070      8212  TIP3      H1             18.8680025048       14.9584588348       85.3985613207  TIP3      6852            0.0000000000
     72071      8212  TIP3      H2             19.9021923448       14.1853713688       84.6131234442  TIP3      6852            0.0000000000
     72072      8213  TIP3      OH2            38.1015155720        8.0865394266       86.7465821931  TIP3      6853            0.0000000000
     72073      8213  TIP3      H1             37.4188944077        8.3944539599       87.3450608693  TIP3      6853            0.0000000000
     72074      8213  TIP3      H2             38.5783697112        8.8894998342       86.5186298534  TIP3      6853            0.0000000000
     72075      8214  TIP3      OH2            38.7074773997       10.7171472049       85.6900015867  TIP3      6854            0.0000000000
     72076      8214  TIP3      H1             39.3246833660       11.4206748153       85.9292520267  TIP3      6854            0.0000000000
     72077      8214  TIP3      H2             39.1919716764       10.2909947110       84.9655834121  TIP3      6854            0.0000000000
     72078      8215  TIP3      OH2            40.1560097245        8.8012595553       83.9438942837  TIP3      6855            0.0000000000
     72079      8215  TIP3      H1             40.3389085887        8.0841142304       84.5707800457  TIP3      6855            0.0000000000
     72080      8215  TIP3      H2             40.9331913551        8.7543583950       83.3639502990  TIP3      6855            0.0000000000
     72081      8216  TIP3      OH2            36.0493250682       10.4687389447       85.0813615055  TIP3      6856            0.0000000000
     72082      8216  TIP3      H1             36.9708299858       10.5175308536       85.3833457298  TIP3      6856            0.0000000000
     72083      8216  TIP3      H2             36.0397542009        9.7182924367       84.4963114582  TIP3      6856            0.0000000000
     72084      8217  TIP3      OH2            38.0399586927       14.7051169293       84.4813580746  TIP3      6857            0.0000000000
     72085      8217  TIP3      H1             37.7539075108       15.0021020560       85.3574746533  TIP3      6857            0.0000000000
     72086      8217  TIP3      H2             38.8041233256       14.1491554571       84.6617427125  TIP3      6857            0.0000000000
     72087      8218  TIP3      OH2           -27.8401018320       24.6539796844       86.7773481289  TIP3      6858            0.0000000000
     72088      8218  TIP3      H1            -27.2959554228       24.8824049149       87.5172732438  TIP3      6858            0.0000000000
     72089      8218  TIP3      H2            -27.4520599480       25.1384795307       86.0272023647  TIP3      6858            0.0000000000
     72090      8219  TIP3      OH2           -27.5628861364       33.5470572838       85.6514416126  TIP3      6859            0.0000000000
     72091      8219  TIP3      H1            -27.1725333413       32.7785560474       85.1896522486  TIP3      6859            0.0000000000
     72092      8219  TIP3      H2            -27.5225827043       33.2593572866       86.5781614794  TIP3      6859            0.0000000000
     72093      8220  TIP3      OH2           -26.3834580912       25.6961907806       84.5364672072  TIP3      6860            0.0000000000
     72094      8220  TIP3      H1            -26.4529403140       25.4805093768       83.5758635150  TIP3      6860            0.0000000000
     72095      8220  TIP3      H2            -25.5212478964       26.1230645507       84.5957926140  TIP3      6860            0.0000000000
     72096      8221  TIP3      OH2           -39.2629874032       20.6967989809       86.8369837613  TIP3      6861            0.0000000000
     72097      8221  TIP3      H1            -38.8662275054       21.1657969854       86.0726203759  TIP3      6861            0.0000000000
     72098      8221  TIP3      H2            -40.0874759180       21.1617549293       86.9587659140  TIP3      6861            0.0000000000
     72099      8222  TIP3      OH2           -27.3694574879       22.0634897562       87.3945887534  TIP3      6862            0.0000000000
     72100      8222  TIP3      H1            -26.4617766417       21.9159295261       87.6584924184  TIP3      6862            0.0000000000
     72101      8222  TIP3      H2            -27.3547927621       22.8380728184       86.7995350410  TIP3      6862            0.0000000000
     72102      8223  TIP3      OH2           -29.8822487147       28.8000260237       86.5422906983  TIP3      6863            0.0000000000
     72103      8223  TIP3      H1            -30.1813663046       29.6483789584       86.9366915314  TIP3      6863            0.0000000000
     72104      8223  TIP3      H2            -30.5808007321       28.1799394760       86.7811620702  TIP3      6863            0.0000000000
     72105      8224  TIP3      OH2           -22.5285057842       22.2748245428       87.1566099186  TIP3      6864            0.0000000000
     72106      8224  TIP3      H1            -23.0405945611       21.9173476666       86.4058381303  TIP3      6864            0.0000000000
     72107      8224  TIP3      H2            -22.4103254392       23.1877065665       86.8236409643  TIP3      6864            0.0000000000
     72108      8225  TIP3      OH2           -38.7603644788       25.0700808619       85.2294164690  TIP3      6865            0.0000000000
     72109      8225  TIP3      H1            -38.1342558762       25.6428368220       85.6894155030  TIP3      6865            0.0000000000
     72110      8225  TIP3      H2            -39.5968011198       25.3570257605       85.5949750810  TIP3      6865            0.0000000000
     72111      8226  TIP3      OH2           -26.7572306315       29.0784080446       85.3780283712  TIP3      6866            0.0000000000
     72112      8226  TIP3      H1            -26.4776271378       28.6829390474       86.2121236073  TIP3      6866            0.0000000000
     72113      8226  TIP3      H2            -27.7210830953       28.9366861975       85.4427231171  TIP3      6866            0.0000000000
     72114      8227  TIP3      OH2           -32.6061724110       30.1643616844       83.8849731234  TIP3      6867            0.0000000000
     72115      8227  TIP3      H1            -32.5172919288       29.4260473033       83.2648515952  TIP3      6867            0.0000000000
     72116      8227  TIP3      H2            -33.0262560719       29.7452278803       84.6398372127  TIP3      6867            0.0000000000
     72117      8228  TIP3      OH2           -31.0527185357       31.3841234532       87.0197701370  TIP3      6868            0.0000000000
     72118      8228  TIP3      H1            -31.8607196360       31.9098723745       87.0799300395  TIP3      6868            0.0000000000
     72119      8228  TIP3      H2            -30.5271126068       31.9202280443       86.4062752671  TIP3      6868            0.0000000000
     72120      8229  TIP3      OH2           -38.4463331131       22.2296153557       84.8494186702  TIP3      6869            0.0000000000
     72121      8229  TIP3      H1            -38.4151591907       23.1980771119       84.9453282789  TIP3      6869            0.0000000000
     72122      8229  TIP3      H2            -39.2711601085       22.0155635991       84.4201224064  TIP3      6869            0.0000000000
     72123      8230  TIP3      OH2           -30.6313043217       32.0459534278       84.0025295644  TIP3      6870            0.0000000000
     72124      8230  TIP3      H1            -31.3291276657       31.3835750044       84.2134589433  TIP3      6870            0.0000000000
     72125      8230  TIP3      H2            -29.9265456441       31.4597409916       83.6932190955  TIP3      6870            0.0000000000
     72126      8231  TIP3      OH2           -26.0635019117       31.7595623767       84.1185796616  TIP3      6871            0.0000000000
     72127      8231  TIP3      H1            -25.7918779539       31.0042458406       84.6573843326  TIP3      6871            0.0000000000
     72128      8231  TIP3      H2            -25.2885455359       32.0580576974       83.6281072175  TIP3      6871            0.0000000000
     72129      8232  TIP3      OH2           -29.7352118825       28.7974543749       83.7677215260  TIP3      6872            0.0000000000
     72130      8232  TIP3      H1            -29.9640261787       28.9281475897       84.7085894695  TIP3      6872            0.0000000000
     72131      8232  TIP3      H2            -29.9425616478       27.8583977450       83.6541096065  TIP3      6872            0.0000000000
     72132      8233  TIP3      OH2           -23.5595240593       26.2771569287       84.0907213796  TIP3      6873            0.0000000000
     72133      8233  TIP3      H1            -23.7437162019       25.8905597551       83.2209764325  TIP3      6873            0.0000000000
     72134      8233  TIP3      H2            -23.4548718927       27.2341890909       83.8736052199  TIP3      6873            0.0000000000
     72135      8234  TIP3      OH2           -33.0377694439       34.6672275328       85.6903766630  TIP3      6874            0.0000000000
     72136      8234  TIP3      H1            -32.0705708119       34.7328888873       85.7392981556  TIP3      6874            0.0000000000
     72137      8234  TIP3      H2            -33.2377392884       35.2590230860       84.9526796219  TIP3      6874            0.0000000000
     72138      8235  TIP3      OH2           -39.4703585039       29.2379183361       85.1575975851  TIP3      6875            0.0000000000
     72139      8235  TIP3      H1            -38.5443471704       29.3658085367       85.3779891774  TIP3      6875            0.0000000000
     72140      8235  TIP3      H2            -39.4024444117       28.6017112324       84.4471970876  TIP3      6875            0.0000000000
     72141      8236  TIP3      OH2           -22.4169086052       25.0649907210       86.2839687401  TIP3      6876            0.0000000000
     72142      8236  TIP3      H1            -22.8741018902       25.4649186016       85.5122425556  TIP3      6876            0.0000000000
     72143      8236  TIP3      H2            -22.3708370570       25.8200369843       86.8842387155  TIP3      6876            0.0000000000
     72144      8237  TIP3      OH2           -23.9497881692       22.3569890074       84.7854598555  TIP3      6877            0.0000000000
     72145      8237  TIP3      H1            -23.9659606709       23.0168478817       84.0853233028  TIP3      6877            0.0000000000
     72146      8237  TIP3      H2            -24.2218343772       21.5352266742       84.3226942508  TIP3      6877            0.0000000000
     72147      8238  TIP3      OH2           -24.7901045023       19.8569003821       83.9572916168  TIP3      6878            0.0000000000
     72148      8238  TIP3      H1            -24.1522152918       19.3679624434       84.5361298142  TIP3      6878            0.0000000000
     72149      8238  TIP3      H2            -25.5818623007       19.3430528984       84.1250612510  TIP3      6878            0.0000000000
     72150      8239  TIP3      OH2           -22.6809516685       18.7646417287       85.3830546215  TIP3      6879            0.0000000000
     72151      8239  TIP3      H1            -22.2863898648       17.9269924166       85.0584228939  TIP3      6879            0.0000000000
     72152      8239  TIP3      H2            -21.9139921800       19.3058352929       85.6150861153  TIP3      6879            0.0000000000
     72153      8240  TIP3      OH2           -30.3749830414       33.9124285800       85.8902999917  TIP3      6880            0.0000000000
     72154      8240  TIP3      H1            -29.4604970234       34.1481184725       85.6712890639  TIP3      6880            0.0000000000
     72155      8240  TIP3      H2            -30.5826769622       33.3841551978       85.0823286494  TIP3      6880            0.0000000000
     72156      8241  TIP3      OH2           -37.4689702896       33.5714086684       84.5000231656  TIP3      6881            0.0000000000
     72157      8241  TIP3      H1            -37.6876561336       33.8736885323       85.3990093607  TIP3      6881            0.0000000000
     72158      8241  TIP3      H2            -36.6644287922       33.0314020625       84.6330588681  TIP3      6881            0.0000000000
     72159      8242  TIP3      OH2           -11.2760508952       23.7389163271       85.1638786535  TIP3      6882            0.0000000000
     72160      8242  TIP3      H1            -10.5678054824       23.8163850288       85.8294988538  TIP3      6882            0.0000000000
     72161      8242  TIP3      H2            -10.8937482271       23.0930313318       84.5635328165  TIP3      6882            0.0000000000
     72162      8243  TIP3      OH2            -8.9857797232       24.6221571154       86.7706897227  TIP3      6883            0.0000000000
     72163      8243  TIP3      H1             -8.4452302509       24.8821633845       87.5168524337  TIP3      6883            0.0000000000
     72164      8243  TIP3      H2             -8.6056556034       25.1441093472       86.0387044345  TIP3      6883            0.0000000000
     72165      8244  TIP3      OH2            -5.2985883968       16.4460183892       86.7215449672  TIP3      6884            0.0000000000
     72166      8244  TIP3      H1             -6.2460207257       16.5334286270       86.8866224739  TIP3      6884            0.0000000000
     72167      8244  TIP3      H2             -5.0880250206       17.2640040885       86.2416782554  TIP3      6884            0.0000000000
     72168      8245  TIP3      OH2            -8.7396397456       33.5566809154       85.6335704455  TIP3      6885            0.0000000000
     72169      8245  TIP3      H1             -8.3556283584       32.7878202812       85.1914351802  TIP3      6885            0.0000000000
     72170      8245  TIP3      H2             -8.6853746994       33.2555800908       86.5531139101  TIP3      6885            0.0000000000
     72171      8246  TIP3      OH2            -7.5295159973       25.6581048133       84.5367178296  TIP3      6886            0.0000000000
     72172      8246  TIP3      H1             -7.5645598545       25.5136756008       83.5595308582  TIP3      6886            0.0000000000
     72173      8246  TIP3      H2             -6.6837511708       26.1239363336       84.6051507608  TIP3      6886            0.0000000000
     72174      8247  TIP3      OH2           -20.5880797835       20.4583495021       86.6407439398  TIP3      6887            0.0000000000
     72175      8247  TIP3      H1            -20.0629834605       21.0837773267       86.1283809533  TIP3      6887            0.0000000000
     72176      8247  TIP3      H2            -21.2688070274       21.0330588091       87.0378558358  TIP3      6887            0.0000000000
     72177      8248  TIP3      OH2           -16.4626351330       22.7699112921       85.6242892938  TIP3      6888            0.0000000000
     72178      8248  TIP3      H1            -16.9877945834       22.4212669586       84.8908864745  TIP3      6888            0.0000000000
     72179      8248  TIP3      H2            -15.6388772245       23.0165425913       85.1808144132  TIP3      6888            0.0000000000
     72180      8249  TIP3      OH2            -8.5253121428       22.0623732422       87.3550101030  TIP3      6889            0.0000000000
     72181      8249  TIP3      H1             -7.6193639648       21.9296775479       87.6532583130  TIP3      6889            0.0000000000
     72182      8249  TIP3      H2             -8.4713944252       22.8594161249       86.8008250414  TIP3      6889            0.0000000000
     72183      8250  TIP3      OH2           -11.0174941803       28.7822311585       86.5518874488  TIP3      6890            0.0000000000
     72184      8250  TIP3      H1            -11.3266352603       29.6446871721       86.9004235207  TIP3      6890            0.0000000000
     72185      8250  TIP3      H2            -11.7379736716       28.1865725688       86.7777091202  TIP3      6890            0.0000000000
     72186      8251  TIP3      OH2            -3.6610750347       22.2385498362       87.1466077577  TIP3      6891            0.0000000000
     72187      8251  TIP3      H1             -4.2092620046       21.9177363982       86.4035403585  TIP3      6891            0.0000000000
     72188      8251  TIP3      H2             -3.5337674535       23.1556515184       86.8234748772  TIP3      6891            0.0000000000
     72189      8252  TIP3      OH2           -13.8048395511       30.1759721629       83.8147910621  TIP3      6892            0.0000000000
     72190      8252  TIP3      H1            -13.6523239928       29.3804730093       83.2841199859  TIP3      6892            0.0000000000
     72191      8252  TIP3      H2            -14.1683675498       29.7610409123       84.6320570651  TIP3      6892            0.0000000000
     72192      8253  TIP3      OH2           -14.9039600431       29.6728130837       86.2701753971  TIP3      6893            0.0000000000
     72193      8253  TIP3      H1            -14.7810412080       29.1895347789       87.0881405947  TIP3      6893            0.0000000000
     72194      8253  TIP3      H2            -14.9073600225       30.6009408323       86.5865144853  TIP3      6893            0.0000000000
     72195      8254  TIP3      OH2           -12.1526334152       31.3910870778       87.0252088774  TIP3      6894            0.0000000000
     72196      8254  TIP3      H1            -13.0026757994       31.8784013939       87.0381228275  TIP3      6894            0.0000000000
     72197      8254  TIP3      H2            -11.6618284746       31.9245593644       86.3895675225  TIP3      6894            0.0000000000
     72198      8255  TIP3      OH2           -14.7524183697       32.3961536756       87.0354827872  TIP3      6895            0.0000000000
     72199      8255  TIP3      H1            -14.7193842602       33.2143415919       86.4838478692  TIP3      6895            0.0000000000
     72200      8255  TIP3      H2            -15.0542174671       32.7774999672       87.8798984739  TIP3      6895            0.0000000000
     72201      8256  TIP3      OH2           -16.2559617860       19.1755421509       86.6273098453  TIP3      6896            0.0000000000
     72202      8256  TIP3      H1            -16.2702750212       20.0779598878       86.9664485635  TIP3      6896            0.0000000000
     72203      8256  TIP3      H2            -15.3445116995       18.9666880200       86.8204026432  TIP3      6896            0.0000000000
     72204      8257  TIP3      OH2           -19.5325499215       22.2373535858       84.7314357577  TIP3      6897            0.0000000000
     72205      8257  TIP3      H1            -19.5505415323       23.1574009015       85.0204991117  TIP3      6897            0.0000000000
     72206      8257  TIP3      H2            -20.4500879075       22.0272922478       84.5388895161  TIP3      6897            0.0000000000
     72207      8258  TIP3      OH2           -11.7645051487       32.0230221782       83.9561932424  TIP3      6898            0.0000000000
     72208      8258  TIP3      H1            -12.4693859561       31.3847555897       84.2163184566  TIP3      6898            0.0000000000
     72209      8258  TIP3      H2            -11.0476150942       31.4163793309       83.7048271561  TIP3      6898            0.0000000000
     72210      8259  TIP3      OH2           -10.8565319411       28.8044753049       83.7766798925  TIP3      6899            0.0000000000
     72211      8259  TIP3      H1            -11.1612491962       28.9106996856       84.6941297221  TIP3      6899            0.0000000000
     72212      8259  TIP3      H2            -11.1153770833       27.8641755596       83.6251487343  TIP3      6899            0.0000000000
     72213      8260  TIP3      OH2           -15.0789919055       25.7118654282       86.4234225221  TIP3      6900            0.0000000000
     72214      8260  TIP3      H1            -15.6018000035       25.1740863344       87.0137779698  TIP3      6900            0.0000000000
     72215      8260  TIP3      H2            -14.8321122695       25.0681591613       85.7254471123  TIP3      6900            0.0000000000
     72216      8261  TIP3      OH2           -14.0617846686       23.9587097842       84.5889216110  TIP3      6901            0.0000000000
     72217      8261  TIP3      H1            -14.1966485753       23.8540054962       83.6257649613  TIP3      6901            0.0000000000
     72218      8261  TIP3      H2            -13.0842314564       24.0357642811       84.6826879260  TIP3      6901            0.0000000000
     72219      8262  TIP3      OH2            -4.7139947060       26.2966967243       84.0768563432  TIP3      6902            0.0000000000
     72220      8262  TIP3      H1             -4.8960468122       25.8861232468       83.2136919349  TIP3      6902            0.0000000000
     72221      8262  TIP3      H2             -4.5356412276       27.2191060165       83.8328992186  TIP3      6902            0.0000000000
     72222      8263  TIP3      OH2           -14.1838188914       34.6393846133       85.6787795093  TIP3      6903            0.0000000000
     72223      8263  TIP3      H1            -13.2168785015       34.7613490543       85.7277842233  TIP3      6903            0.0000000000
     72224      8263  TIP3      H2            -14.3654165983       35.2784867596       84.9751211800  TIP3      6903            0.0000000000
     72225      8264  TIP3      OH2            -3.5546747247       25.0922930512       86.2811254702  TIP3      6904            0.0000000000
     72226      8264  TIP3      H1             -4.0421929472       25.4672948596       85.5143000509  TIP3      6904            0.0000000000
     72227      8264  TIP3      H2             -3.5507420385       25.8146124250       86.9119120295  TIP3      6904            0.0000000000
     72228      8265  TIP3      OH2            -5.1613689297       22.3417658852       84.8009129662  TIP3      6905            0.0000000000
     72229      8265  TIP3      H1             -5.0585173942       22.9891786316       84.0948112145  TIP3      6905            0.0000000000
     72230      8265  TIP3      H2             -5.3400397639       21.5130378687       84.3188873789  TIP3      6905            0.0000000000
     72231      8266  TIP3      OH2            -5.9352524617       19.7877431830       83.9215330299  TIP3      6906            0.0000000000
     72232      8266  TIP3      H1             -5.3223467363       19.3820377164       84.5631367228  TIP3      6906            0.0000000000
     72233      8266  TIP3      H2             -6.7526304735       19.3410555203       84.1494086369  TIP3      6906            0.0000000000
     72234      8267  TIP3      OH2            -3.8319263880       18.6609249804       85.4478325316  TIP3      6907            0.0000000000
     72235      8267  TIP3      H1             -3.4070637860       17.9145306538       84.9804756694  TIP3      6907            0.0000000000
     72236      8267  TIP3      H2             -3.1127661709       19.3103831995       85.5619542337  TIP3      6907            0.0000000000
     72237      8268  TIP3      OH2           -18.3989385081       18.6810073349       84.9251372314  TIP3      6908            0.0000000000
     72238      8268  TIP3      H1            -17.9140074502       17.9761285175       84.5045930698  TIP3      6908            0.0000000000
     72239      8268  TIP3      H2            -17.8324655031       18.9077415643       85.6906642244  TIP3      6908            0.0000000000
     72240      8269  TIP3      OH2           -11.5362823134       33.8873776342       85.8815003765  TIP3      6909            0.0000000000
     72241      8269  TIP3      H1            -10.6272177347       34.1669041629       85.6718761689  TIP3      6909            0.0000000000
     72242      8269  TIP3      H2            -11.7416353300       33.3859544828       85.0612332997  TIP3      6909            0.0000000000
     72243      8270  TIP3      OH2             7.5967838631       23.8044973910       85.1724424941  TIP3      6910            0.0000000000
     72244      8270  TIP3      H1              8.2976950112       23.8359213658       85.8463453552  TIP3      6910            0.0000000000
     72245      8270  TIP3      H2              7.9332284307       23.1145783753       84.5863758294  TIP3      6910            0.0000000000
     72246      8271  TIP3      OH2             9.8798497620       24.6521940696       86.7814325359  TIP3      6911            0.0000000000
     72247      8271  TIP3      H1             10.4337270580       24.8885210276       87.5287570270  TIP3      6911            0.0000000000
     72248      8271  TIP3      H2             10.2483521329       25.1726346335       86.0411146319  TIP3      6911            0.0000000000
     72249      8272  TIP3      OH2            13.5900735839       16.4635047384       86.6193728890  TIP3      6912            0.0000000000
     72250      8272  TIP3      H1             12.6654161482       16.5074515803       86.8967905625  TIP3      6912            0.0000000000
     72251      8272  TIP3      H2             13.7666435991       17.3361160374       86.2253544479  TIP3      6912            0.0000000000
     72252      8273  TIP3      OH2            11.3029692322       25.7489309651       84.4854345398  TIP3      6913            0.0000000000
     72253      8273  TIP3      H1             11.3319887293       25.4951269914       83.5358897381  TIP3      6913            0.0000000000
     72254      8273  TIP3      H2             12.1908056653       26.1201839956       84.6219631595  TIP3      6913            0.0000000000
     72255      8274  TIP3      OH2             6.8971798440       19.5648791111       85.0848228314  TIP3      6914            0.0000000000
     72256      8274  TIP3      H1              6.6067055379       19.5994405649       86.0042672082  TIP3      6914            0.0000000000
     72257      8274  TIP3      H2              6.6210714328       18.6816213682       84.8129429259  TIP3      6914            0.0000000000
     72258      8275  TIP3      OH2            -1.7826672286       20.4109738056       86.6613945097  TIP3      6915            0.0000000000
     72259      8275  TIP3      H1             -1.2903430974       21.0524724909       86.1378224841  TIP3      6915            0.0000000000
     72260      8275  TIP3      H2             -2.4464302760       21.0267924344       87.0374596864  TIP3      6915            0.0000000000
     72261      8276  TIP3      OH2             9.5848479159       20.1401534709       85.6809906694  TIP3      6916            0.0000000000
     72262      8276  TIP3      H1              8.6297801533       20.2992420812       85.6056157177  TIP3      6916            0.0000000000
     72263      8276  TIP3      H2              9.9208419378       20.9621649944       86.0928880441  TIP3      6916            0.0000000000
     72264      8277  TIP3      OH2            10.3278545590       22.1034818080       87.3653979307  TIP3      6917            0.0000000000
     72265      8277  TIP3      H1             11.2351439606       21.9169958323       87.6460216532  TIP3      6917            0.0000000000
     72266      8277  TIP3      H2             10.4104742096       22.9010484531       86.8166869329  TIP3      6917            0.0000000000
     72267      8278  TIP3      OH2            15.1351775417       22.2244965803       87.1579275328  TIP3      6918            0.0000000000
     72268      8278  TIP3      H1             14.6452375560       21.8983732623       86.3898830967  TIP3      6918            0.0000000000
     72269      8278  TIP3      H2             15.3418351090       23.1261553072       86.8414661667  TIP3      6918            0.0000000000
     72270      8279  TIP3      OH2            -1.0193552611       25.0547804678       85.2473841659  TIP3      6919            0.0000000000
     72271      8279  TIP3      H1             -0.4199085348       25.6479367814       85.7449758404  TIP3      6919            0.0000000000
     72272      8279  TIP3      H2             -1.8980978632       25.3378694856       85.5540297339  TIP3      6919            0.0000000000
     72273      8280  TIP3      OH2             0.3610840646       26.9649770116       86.7478961778  TIP3      6920            0.0000000000
     72274      8280  TIP3      H1             -0.2980415679       27.3296254910       87.3444088813  TIP3      6920            0.0000000000
     72275      8280  TIP3      H2              0.8968616324       27.7372665062       86.5008771798  TIP3      6920            0.0000000000
     72276      8281  TIP3      OH2             0.9993120558       29.5442075444       85.6714265460  TIP3      6921            0.0000000000
     72277      8281  TIP3      H1              1.5718027917       30.2756149217       85.9326144551  TIP3      6921            0.0000000000
     72278      8281  TIP3      H2              1.5117309326       29.1217445402       84.9578914636  TIP3      6921            0.0000000000
     72279      8282  TIP3      OH2             2.5596138138       27.7060992254       84.0251309251  TIP3      6922            0.0000000000
     72280      8282  TIP3      H1              2.7139328457       26.9273621361       84.5861938981  TIP3      6922            0.0000000000
     72281      8282  TIP3      H2              3.3022555488       27.6085050392       83.3881152734  TIP3      6922            0.0000000000
     72282      8283  TIP3      OH2             3.6643283101       25.7073083909       86.2741201766  TIP3      6923            0.0000000000
     72283      8283  TIP3      H1              3.3035202938       25.2347596206       87.0356494738  TIP3      6923            0.0000000000
     72284      8283  TIP3      H2              4.0253363462       25.0065742880       85.7005603061  TIP3      6923            0.0000000000
     72285      8284  TIP3      OH2             4.8108407694       23.8445285835       84.5808243575  TIP3      6924            0.0000000000
     72286      8284  TIP3      H1              4.6697102860       23.8550599537       83.6146180294  TIP3      6924            0.0000000000
     72287      8284  TIP3      H2              5.7648007087       24.0452904773       84.6756589049  TIP3      6924            0.0000000000
     72288      8285  TIP3      OH2            14.0952419207       26.3294833727       84.0699437775  TIP3      6925            0.0000000000
     72289      8285  TIP3      H1             13.9808303803       25.8911527844       83.2123225670  TIP3      6925            0.0000000000
     72290      8285  TIP3      H2             14.2720109709       27.2492732038       83.8203849123  TIP3      6925            0.0000000000
     72291      8286  TIP3      OH2             4.6888052239       34.7444112111       85.7256497920  TIP3      6926            0.0000000000
     72292      8286  TIP3      H1              5.6510484646       34.7516495480       85.7483964543  TIP3      6926            0.0000000000
     72293      8286  TIP3      H2              4.4648350373       35.2854017922       84.9602260659  TIP3      6926            0.0000000000
     72294      8287  TIP3      OH2            -1.7541936445       29.2599512470       85.0987707056  TIP3      6927            0.0000000000
     72295      8287  TIP3      H1             -0.8228436536       29.3395644745       85.3711067272  TIP3      6927            0.0000000000
     72296      8287  TIP3      H2             -1.7167219230       28.5428119259       84.4402242995  TIP3      6927            0.0000000000
     72297      8288  TIP3      OH2            15.2918712306       25.0906757880       86.2884213236  TIP3      6928            0.0000000000
     72298      8288  TIP3      H1             14.8486607852       25.4764288811       85.5135158309  TIP3      6928            0.0000000000
     72299      8288  TIP3      H2             15.3369646612       25.8169379537       86.9126179951  TIP3      6928            0.0000000000
     72300      8289  TIP3      OH2            13.6383909957       22.3626380126       84.7835642991  TIP3      6929            0.0000000000
     72301      8289  TIP3      H1             13.8105990730       22.9823228371       84.0736738259  TIP3      6929            0.0000000000
     72302      8289  TIP3      H2             13.5197368291       21.5119068543       84.3192561033  TIP3      6929            0.0000000000
     72303      8290  TIP3      OH2            12.9389861273       19.8063179342       83.9161301478  TIP3      6930            0.0000000000
     72304      8290  TIP3      H1             13.5385749069       19.3856638572       84.5535119862  TIP3      6930            0.0000000000
     72305      8290  TIP3      H2             12.0931188945       19.3660209232       84.1031365020  TIP3      6930            0.0000000000
     72306      8291  TIP3      OH2            15.0528875938       18.6352484191       85.5192768171  TIP3      6931            0.0000000000
     72307      8291  TIP3      H1             15.4295118868       17.9262558638       84.9535727784  TIP3      6931            0.0000000000
     72308      8291  TIP3      H2             15.6901905542       19.3631817286       85.4767538980  TIP3      6931            0.0000000000
     72309      8292  TIP3      OH2            -1.4427429809       16.7047759440       86.4792630741  TIP3      6932            0.0000000000
     72310      8292  TIP3      H1             -0.9216713051       17.3630810890       86.0081600649  TIP3      6932            0.0000000000
     72311      8292  TIP3      H2             -1.9925945107       17.2498748931       87.0541191768  TIP3      6932            0.0000000000
     72312      8293  TIP3      OH2            30.1830168943       25.6773704013       84.4591825104  TIP3      6933            0.0000000000
     72313      8293  TIP3      H1             30.1968010107       25.5290259299       83.5106421942  TIP3      6933            0.0000000000
     72314      8293  TIP3      H2             31.0133746226       26.1203182574       84.6386471022  TIP3      6933            0.0000000000
     72315      8294  TIP3      OH2            25.7274953450       19.5844502598       85.1181415747  TIP3      6934            0.0000000000
     72316      8294  TIP3      H1             25.4925149334       19.5921721661       86.0496766157  TIP3      6934            0.0000000000
     72317      8294  TIP3      H2             25.4617086138       18.7049543403       84.8040890861  TIP3      6934            0.0000000000
     72318      8295  TIP3      OH2            28.5102449846       20.1809149144       85.6918413882  TIP3      6935            0.0000000000
     72319      8295  TIP3      H1             27.5487970919       20.2749155756       85.5778753666  TIP3      6935            0.0000000000
     72320      8295  TIP3      H2             28.7616282511       21.0352921221       86.0611034629  TIP3      6935            0.0000000000
     72321      8296  TIP3      OH2            22.7804413945       29.7259199784       86.2809741751  TIP3      6936            0.0000000000
     72322      8296  TIP3      H1             22.9605233118       29.2062330034       87.0705553383  TIP3      6936            0.0000000000
     72323      8296  TIP3      H2             22.8478533899       30.6441201612       86.6091488366  TIP3      6936            0.0000000000
     72324      8297  TIP3      OH2            22.8368437658       32.4317979180       87.0060948793  TIP3      6937            0.0000000000
     72325      8297  TIP3      H1             22.9906403498       33.2450080909       86.4670115108  TIP3      6937            0.0000000000
     72326      8297  TIP3      H2             22.6889685491       32.7898688892       87.8905553814  TIP3      6937            0.0000000000
     72327      8298  TIP3      OH2            19.8241027494       29.6097602212       85.6766808229  TIP3      6938            0.0000000000
     72328      8298  TIP3      H1             20.4814976526       30.2405521835       85.9957978027  TIP3      6938            0.0000000000
     72329      8298  TIP3      H2             20.3458583054       29.1322426086       85.0304548679  TIP3      6938            0.0000000000
     72330      8299  TIP3      OH2            23.5377202660       34.6657748038       85.6587552772  TIP3      6939            0.0000000000
     72331      8299  TIP3      H1             24.4846248803       34.8129813910       85.7163045049  TIP3      6939            0.0000000000
     72332      8299  TIP3      H2             23.2923054206       35.2672305192       84.9526968131  TIP3      6939            0.0000000000
     72333      8300  TIP3      OH2            17.1195478961       29.2603647084       85.0481864325  TIP3      6940            0.0000000000
     72334      8300  TIP3      H1             18.0432793808       29.3436627546       85.3657946316  TIP3      6940            0.0000000000
     72335      8300  TIP3      H2             17.1513224305       28.5262122015       84.4395906943  TIP3      6940            0.0000000000
     72336      8301  TIP3      OH2            17.4781113414       16.7337971920       86.5686823032  TIP3      6941            0.0000000000
     72337      8301  TIP3      H1             17.9015348719       17.3212076073       85.9428351038  TIP3      6941            0.0000000000
     72338      8301  TIP3      H2             16.7871615254       17.2330795795       86.9876782519  TIP3      6941            0.0000000000
     72339      8302  TIP3      OH2            19.0775338711       33.5325677958       84.4687984851  TIP3      6942            0.0000000000
     72340      8302  TIP3      H1             18.8894678266       33.8292184593       85.3739237027  TIP3      6942            0.0000000000
     72341      8302  TIP3      H2             19.9246329335       33.0583494374       84.5846945763  TIP3      6942            0.0000000000
     72342      8303  TIP3      OH2            40.1049142649       22.7653011278       85.6244006793  TIP3      6943            0.0000000000
     72343      8303  TIP3      H1             39.5630280060       22.4488736666       84.8749625482  TIP3      6943            0.0000000000
     72344      8303  TIP3      H2             40.9100093464       23.0113105482       85.1786175441  TIP3      6943            0.0000000000
     72345      8304  TIP3      OH2            38.1317246109       26.9580876324       86.8098272108  TIP3      6944            0.0000000000
     72346      8304  TIP3      H1             37.4200886285       27.2916628344       87.3618808992  TIP3      6944            0.0000000000
     72347      8304  TIP3      H2             38.5472700938       27.7739921362       86.4880102669  TIP3      6944            0.0000000000
     72348      8305  TIP3      OH2           -41.1314615246       18.9578309843       86.7566811118  TIP3      6945            0.0000000000
     72349      8305  TIP3      H1            -41.1407382828       19.9125861580       86.8875723724  TIP3      6945            0.0000000000
     72350      8305  TIP3      H2            -40.1636483650       18.8611614307       86.7734208331  TIP3      6945            0.0000000000
     72351      8306  TIP3      OH2            38.7222280386       29.5560297425       85.6682727510  TIP3      6946            0.0000000000
     72352      8306  TIP3      H1             39.3356158195       30.2507667913       85.9391310141  TIP3      6946            0.0000000000
     72353      8306  TIP3      H2             39.2055327083       29.0840255845       84.9665090438  TIP3      6946            0.0000000000
     72354      8307  TIP3      OH2            39.9412177102       27.6677263234       84.1252803043  TIP3      6947            0.0000000000
     72355      8307  TIP3      H1             40.2431283050       26.9522318810       84.6890901661  TIP3      6947            0.0000000000
     72356      8307  TIP3      H2             40.7479383784       27.7175019931       83.5914664175  TIP3      6947            0.0000000000
     72357      8308  TIP3      OH2            38.1957290468       18.6788317654       84.9337427533  TIP3      6948            0.0000000000
     72358      8308  TIP3      H1             38.6564303087       17.9753217744       84.4613463951  TIP3      6948            0.0000000000
     72359      8308  TIP3      H2             38.8065265145       18.8811913862       85.6548875990  TIP3      6948            0.0000000000
     72360      8309  TIP3      OH2            37.4894459112       33.2194446865       85.0101488871  TIP3      6949            0.0000000000
     72361      8309  TIP3      H1             37.5290070065       34.0353486835       85.5196863451  TIP3      6949            0.0000000000
     72362      8309  TIP3      H2             38.3932043524       32.9217321529       85.2640921607  TIP3      6949            0.0000000000
     72363      8310  TIP3      OH2           -31.0474630170       38.4086213361       85.1695403711  TIP3      6950            0.0000000000
     72364      8310  TIP3      H1            -31.1737545889       38.3506375483       86.1041123761  TIP3      6950            0.0000000000
     72365      8310  TIP3      H2            -31.1754728225       37.5179190529       84.8012032255  TIP3      6950            0.0000000000
     72366      8311  TIP3      OH2           -33.9819939061       38.8416574095       84.1878572273  TIP3      6951            0.0000000000
     72367      8311  TIP3      H1            -34.4156215878       38.4523221403       84.9728674174  TIP3      6951            0.0000000000
     72368      8311  TIP3      H2            -34.7102455597       39.2590521527       83.7090554362  TIP3      6951            0.0000000000
     72369      8312  TIP3      OH2           -39.0615171811       39.4329847748       86.8241457160  TIP3      6952            0.0000000000
     72370      8312  TIP3      H1            -38.8546117832       40.0541793956       86.1102041802  TIP3      6952            0.0000000000
     72371      8312  TIP3      H2            -39.8605373672       39.9180096476       87.0887132384  TIP3      6952            0.0000000000
     72372      8313  TIP3      OH2           -27.6482245252       38.5446125926       86.8281249889  TIP3      6953            0.0000000000
     72373      8313  TIP3      H1            -28.4712639067       38.7088594979       86.3163435824  TIP3      6953            0.0000000000
     72374      8313  TIP3      H2            -27.3348097395       39.4154142650       86.4811808657  TIP3      6953            0.0000000000
     72375      8314  TIP3      OH2           -34.9797410849       37.9946557817       86.5877790349  TIP3      6954            0.0000000000
     72376      8314  TIP3      H1            -35.0788968155       38.8680305567       87.0024071346  TIP3      6954            0.0000000000
     72377      8314  TIP3      H2            -34.1013407764       37.7253150540       86.8725507306  TIP3      6954            0.0000000000
     72378      8315  TIP3      OH2           -24.7230995834       38.5675281699       83.8717986134  TIP3      6955            0.0000000000
     72379      8315  TIP3      H1            -24.1933564579       38.2650722413       84.6144133757  TIP3      6955            0.0000000000
     72380      8315  TIP3      H2            -25.6056048508       38.2480373982       84.0979830716  TIP3      6955            0.0000000000
     72381      8316  TIP3      OH2           -38.8393645607       35.5755917546       86.7261805169  TIP3      6956            0.0000000000
     72382      8316  TIP3      H1            -38.6152294683       36.1825080826       86.0013233947  TIP3      6956            0.0000000000
     72383      8316  TIP3      H2            -39.6782193005       35.9496757581       87.0407690821  TIP3      6956            0.0000000000
     72384      8317  TIP3      OH2           -37.1439110716       37.5449613796       84.9087146850  TIP3      6957            0.0000000000
     72385      8317  TIP3      H1            -36.6977467814       36.8042863993       84.4745529356  TIP3      6957            0.0000000000
     72386      8317  TIP3      H2            -36.6180439837       37.7041454045       85.7060123677  TIP3      6957            0.0000000000
     72387      8318  TIP3      OH2           -11.8942798173       38.4318223159       85.1767399200  TIP3      6958            0.0000000000
     72388      8318  TIP3      H1            -12.2811257741       38.4518871092       86.0459278952  TIP3      6958            0.0000000000
     72389      8318  TIP3      H2            -12.2644208213       37.6178576892       84.7837840231  TIP3      6958            0.0000000000
     72390      8319  TIP3      OH2           -15.1268364448       38.8908759139       84.2370637112  TIP3      6959            0.0000000000
     72391      8319  TIP3      H1            -15.5561716451       38.4366135300       84.9733024244  TIP3      6959            0.0000000000
     72392      8319  TIP3      H2            -15.8466724710       39.2096462376       83.6798068768  TIP3      6959            0.0000000000
     72393      8320  TIP3      OH2            -9.2059418785       39.0424059762       85.7421057640  TIP3      6960            0.0000000000
     72394      8320  TIP3      H1            -10.1641020281       39.1366612011       85.5825324800  TIP3      6960            0.0000000000
     72395      8320  TIP3      H2             -8.9562448112       39.9062144599       86.0673747221  TIP3      6960            0.0000000000
     72396      8321  TIP3      OH2            -5.9414759995       38.6419772222       83.9094622573  TIP3      6961            0.0000000000
     72397      8321  TIP3      H1             -5.3763990213       38.2756713847       84.5878306231  TIP3      6961            0.0000000000
     72398      8321  TIP3      H2             -6.7900560871       38.2303991020       84.1121571884  TIP3      6961            0.0000000000
     72399      8322  TIP3      OH2             7.3379205203       38.0352233917       85.4240911795  TIP3      6962            0.0000000000
     72400      8322  TIP3      H1              6.6976172931       38.4570321990       86.0151383062  TIP3      6962            0.0000000000
     72401      8322  TIP3      H2              6.7391226446       37.5266398004       84.8599535465  TIP3      6962            0.0000000000
     72402      8323  TIP3      OH2             3.0613734974       38.2323440763       83.6059443510  TIP3      6963            0.0000000000
     72403      8323  TIP3      H1              3.1967584547       38.2117436258       84.6048659911  TIP3      6963            0.0000000000
     72404      8323  TIP3      H2              2.9431877162       39.1911355257       83.6305673899  TIP3      6963            0.0000000000
     72405      8324  TIP3      OH2            -1.7160792997       39.3905699632       86.7231189371  TIP3      6964            0.0000000000
     72406      8324  TIP3      H1             -1.3082198700       39.9548536076       86.0742211764  TIP3      6964            0.0000000000
     72407      8324  TIP3      H2             -2.4662919861       39.9046065682       87.0237882486  TIP3      6964            0.0000000000
     72408      8325  TIP3      OH2             9.7312395114       39.1075770603       85.7040827189  TIP3      6965            0.0000000000
     72409      8325  TIP3      H1              8.7493242052       39.0807153730       85.6077697593  TIP3      6965            0.0000000000
     72410      8325  TIP3      H2              9.8956492364       39.9581067533       86.0908115372  TIP3      6965            0.0000000000
     72411      8326  TIP3      OH2             2.6022533874       37.3089488354       85.7029385399  TIP3      6966            0.0000000000
     72412      8326  TIP3      H1              2.3747703878       38.2140711177       86.0331010483  TIP3      6966            0.0000000000
     72413      8326  TIP3      H2              3.1950292310       37.1949634228       86.4657510328  TIP3      6966            0.0000000000
     72414      8327  TIP3      OH2            12.9432531039       38.5841038676       83.8704375924  TIP3      6967            0.0000000000
     72415      8327  TIP3      H1             13.5283750260       38.2882558200       84.5691808906  TIP3      6967            0.0000000000
     72416      8327  TIP3      H2             12.0770601330       38.2399246897       84.1242667345  TIP3      6967            0.0000000000
     72417      8328  TIP3      OH2            32.3858281042       35.3174477465       86.7748953498  TIP3      6968            0.0000000000
     72418      8328  TIP3      H1             31.4568457007       35.4517555243       86.8800462201  TIP3      6968            0.0000000000
     72419      8328  TIP3      H2             32.6687276714       36.0710907213       86.2177325024  TIP3      6968            0.0000000000
     72420      8329  TIP3      OH2            28.4463972149       39.0581114276       85.6825711649  TIP3      6969            0.0000000000
     72421      8329  TIP3      H1             27.4955783545       39.2098215032       85.6030322195  TIP3      6969            0.0000000000
     72422      8329  TIP3      H2             28.7784618104       39.8721853069       86.0697357984  TIP3      6969            0.0000000000
     72423      8330  TIP3      OH2            31.7451111674       38.7193973735       83.9635827760  TIP3      6970            0.0000000000
     72424      8330  TIP3      H1             32.4112153275       38.2711727478       84.5343019042  TIP3      6970            0.0000000000
     72425      8330  TIP3      H2             30.9607573486       38.1794595444       84.0862063745  TIP3      6970            0.0000000000
     72426      8331  TIP3      OH2            33.7801550732       37.5591208922       85.3765965202  TIP3      6971            0.0000000000
     72427      8331  TIP3      H1             34.2728118832       36.7767470357       85.0311582434  TIP3      6971            0.0000000000
     72428      8331  TIP3      H2             34.5117287721       38.1781498000       85.5988169397  TIP3      6971            0.0000000000
     72429      8332  TIP3      OH2            17.4677663282       35.5438604026       86.5584918472  TIP3      6972            0.0000000000
     72430      8332  TIP3      H1             17.8822047136       36.1615671216       85.9555284083  TIP3      6972            0.0000000000
     72431      8332  TIP3      H2             16.8108453590       36.0650440527       87.0122682746  TIP3      6972            0.0000000000
     72432      8333  TIP3      OH2            35.3171393809       39.4477680736       86.3806445699  TIP3      6973            0.0000000000
     72433      8333  TIP3      H1             36.1383856636       39.8871761737       86.1124456173  TIP3      6973            0.0000000000
     72434      8333  TIP3      H2             35.0953145847       40.0016946495       87.1331396444  TIP3      6973            0.0000000000
     72435      8334  TIP3      OH2           -40.7719526353       37.8993497120       87.4507455427  TIP3      6974            0.0000000000
     72436      8334  TIP3      H1            -41.0602806422       38.7620483092       87.0550173234  TIP3      6974            0.0000000000
     72437      8334  TIP3      H2            -39.8352051719       37.9934984753       87.2583442301  TIP3      6974            0.0000000000
     72438      8335  TIP3      OH2            35.7175289105       35.7622584446       85.5815586500  TIP3      6975            0.0000000000
     72439      8335  TIP3      H1             36.6168184394       36.0942360263       85.7129311577  TIP3      6975            0.0000000000
     72440      8335  TIP3      H2             35.5763669091       35.9513977602       86.5241902522  TIP3      6975            0.0000000000
     72441      8336  TIP3      OH2            37.4336506766       37.1371058883       86.2845992545  TIP3      6976            0.0000000000
     72442      8336  TIP3      H1             37.9145998039       36.7198083670       85.5369907454  TIP3      6976            0.0000000000
     72443      8336  TIP3      H2             38.0999419047       37.8760324384       86.2763100725  TIP3      6976            0.0000000000
     72444      8337  TIP3      OH2           -28.8163511279      -30.5089985329       94.3075072294  TIP3      6977            0.0000000000
     72445      8337  TIP3      H1            -28.8074392815      -29.5300734267       94.2457082132  TIP3      6977            0.0000000000
     72446      8337  TIP3      H2            -29.5291427461      -30.7441176234       93.6877726319  TIP3      6977            0.0000000000
     72447      8338  TIP3      OH2           -29.9652860431      -31.2589619215      -96.9109730044  TIP3      6978            0.0000000000
     72448      8338  TIP3      H1            -29.9835344229      -31.9325655308      -96.2275651753  TIP3      6978            0.0000000000
     72449      8338  TIP3      H2            -30.2680814361      -31.7556895244      -97.6894025417  TIP3      6978            0.0000000000
     72450      8339  TIP3      OH2           -38.8989281499      -31.3877611019       95.7089949317  TIP3      6979            0.0000000000
     72451      8339  TIP3      H1            -39.0091710146      -32.3134755307       95.9925509470  TIP3      6979            0.0000000000
     72452      8339  TIP3      H2            -38.5298530634      -31.3579618192       94.8268231425  TIP3      6979            0.0000000000
     72453      8340  TIP3      OH2           -31.5794784964      -28.8224613527      -96.4831234281  TIP3      6980            0.0000000000
     72454      8340  TIP3      H1            -31.2359680691      -29.4952374583      -97.0909557593  TIP3      6980            0.0000000000
     72455      8340  TIP3      H2            -30.8152665348      -28.7329146696      -95.9154700108  TIP3      6980            0.0000000000
     72456      8341  TIP3      OH2           -22.9122316997      -37.2829423998      -95.6579208676  TIP3      6981            0.0000000000
     72457      8341  TIP3      H1            -22.8059291149      -36.6179182851      -94.9543643936  TIP3      6981            0.0000000000
     72458      8341  TIP3      H2            -22.4925013555      -36.8243079507      -96.3995324234  TIP3      6981            0.0000000000
     72459      8342  TIP3      OH2           -28.4020911191      -34.4265715806      -96.1573407525  TIP3      6982            0.0000000000
     72460      8342  TIP3      H1            -28.2729156098      -35.3788486098      -96.2009431005  TIP3      6982            0.0000000000
     72461      8342  TIP3      H2            -28.5258635770      -34.2217681301      -97.1046212394  TIP3      6982            0.0000000000
     72462      8343  TIP3      OH2           -35.2847755500      -36.3177263598       95.8021454719  TIP3      6983            0.0000000000
     72463      8343  TIP3      H1            -35.1925328345      -35.4742955737       95.3164240896  TIP3      6983            0.0000000000
     72464      8343  TIP3      H2            -35.6985094242      -36.9067205059       95.1402724614  TIP3      6983            0.0000000000
     72465      8344  TIP3      OH2           -27.4965566432      -36.0761682578       94.2437993509  TIP3      6984            0.0000000000
     72466      8344  TIP3      H1            -26.8574205552      -36.5549950088       94.7797504730  TIP3      6984            0.0000000000
     72467      8344  TIP3      H2            -26.9972920653      -35.6721338482       93.5274113509  TIP3      6984            0.0000000000
     72468      8345  TIP3      OH2           -38.3972055998      -33.8450014983       96.5053569384  TIP3      6985            0.0000000000
     72469      8345  TIP3      H1            -37.9211451946      -34.5290086799       96.9939700787  TIP3      6985            0.0000000000
     72470      8345  TIP3      H2            -38.5646029578      -34.2485655559       95.6345845090  TIP3      6985            0.0000000000
     72471      8346  TIP3      OH2           -33.5322660609      -32.3696909111       95.8577980362  TIP3      6986            0.0000000000
     72472      8346  TIP3      H1            -32.8437527715      -32.9349640489       96.2452449620  TIP3      6986            0.0000000000
     72473      8346  TIP3      H2            -34.0250214161      -33.0295269209       95.3246912451  TIP3      6986            0.0000000000
     72474      8347  TIP3      OH2           -22.4960742860      -35.7450392835      -93.4576753503  TIP3      6987            0.0000000000
     72475      8347  TIP3      H1            -23.2145994901      -35.1028852847      -93.5401888300  TIP3      6987            0.0000000000
     72476      8347  TIP3      H2            -22.5333959151      -35.9945133394      -92.5308572570  TIP3      6987            0.0000000000
     72477      8348  TIP3      OH2           -36.3941819511      -37.3985782371      -94.8814890924  TIP3      6988            0.0000000000
     72478      8348  TIP3      H1            -36.6919039018      -36.8531858276      -95.6340521708  TIP3      6988            0.0000000000
     72479      8348  TIP3      H2            -37.0945063613      -37.1740164306      -94.2074458135  TIP3      6988            0.0000000000
     72480      8349  TIP3      OH2           -29.1436502802      -27.9098716003       93.4063462759  TIP3      6989            0.0000000000
     72481      8349  TIP3      H1            -29.3714964504      -28.1931266889       92.5078269986  TIP3      6989            0.0000000000
     72482      8349  TIP3      H2            -29.4246941629      -26.9748826142       93.4410084031  TIP3      6989            0.0000000000
     72483      8350  TIP3      OH2           -36.8582412412      -35.5772893773      -96.8632745990  TIP3      6990            0.0000000000
     72484      8350  TIP3      H1            -36.2194843244      -34.9025430661      -96.5446349889  TIP3      6990            0.0000000000
     72485      8350  TIP3      H2            -36.3174701752      -35.9842820412      -97.5770470478  TIP3      6990            0.0000000000
     72486      8351  TIP3      OH2           -32.4648990719      -40.0664807341      -97.5848179877  TIP3      6991            0.0000000000
     72487      8351  TIP3      H1            -32.5061271433      -41.0165770198      -97.4276505037  TIP3      6991            0.0000000000
     72488      8351  TIP3      H2            -33.2714235892      -39.7662737391      -97.1351739472  TIP3      6991            0.0000000000
     72489      8352  TIP3      OH2           -30.1737500237      -31.2523880954       91.8314832739  TIP3      6992            0.0000000000
     72490      8352  TIP3      H1            -30.8794013726      -30.7117592141       91.4246797653  TIP3      6992            0.0000000000
     72491      8352  TIP3      H2            -29.4635185931      -31.2326160966       91.1624905309  TIP3      6992            0.0000000000
     72492      8353  TIP3      OH2           -30.1194593316      -32.7928714445       88.8661563727  TIP3      6993            0.0000000000
     72493      8353  TIP3      H1            -29.3994208138      -32.7622896266       89.5147393914  TIP3      6993            0.0000000000
     72494      8353  TIP3      H2            -29.7711863472      -33.4181599440       88.2264291583  TIP3      6993            0.0000000000
     72495      8354  TIP3      OH2           -22.7594719919      -31.8566151157      -94.6039734127  TIP3      6994            0.0000000000
     72496      8354  TIP3      H1            -23.4451618928      -31.1841074116      -94.5712453414  TIP3      6994            0.0000000000
     72497      8354  TIP3      H2            -22.3136307020      -31.6220162764      -95.4375397882  TIP3      6994            0.0000000000
     72498      8355  TIP3      OH2           -26.7778942040      -31.1345755366       92.7126636023  TIP3      6995            0.0000000000
     72499      8355  TIP3      H1            -27.4552551540      -30.8004134491       93.3485276048  TIP3      6995            0.0000000000
     72500      8355  TIP3      H2            -26.2533087314      -31.7336927423       93.2713204534  TIP3      6995            0.0000000000
     72501      8356  TIP3      OH2           -35.0974157894      -30.4107962552       94.6426141968  TIP3      6996            0.0000000000
     72502      8356  TIP3      H1            -35.4445600093      -30.8171811041       93.8157268868  TIP3      6996            0.0000000000
     72503      8356  TIP3      H2            -34.5033445548      -31.1113692118       94.9904669314  TIP3      6996            0.0000000000
     72504      8357  TIP3      OH2           -33.6839901365      -26.9700015991       97.2762461526  TIP3      6997            0.0000000000
     72505      8357  TIP3      H1            -33.8472277468      -27.5932385846       96.5646044833  TIP3      6997            0.0000000000
     72506      8357  TIP3      H2            -33.0017087934      -27.4113868647       97.8043583785  TIP3      6997            0.0000000000
     72507      8358  TIP3      OH2           -34.7278056646      -31.7177496456      -96.3846003567  TIP3      6998            0.0000000000
     72508      8358  TIP3      H1            -34.2302961184      -31.5631961882      -97.2182922032  TIP3      6998            0.0000000000
     72509      8358  TIP3      H2            -34.4393286207      -30.9824162826      -95.8343853258  TIP3      6998            0.0000000000
     72510      8359  TIP3      OH2           -33.7929694559      -27.2077425304      -91.7429135572  TIP3      6999            0.0000000000
     72511      8359  TIP3      H1            -34.1709805126      -26.4686156473      -91.2302856338  TIP3      6999            0.0000000000
     72512      8359  TIP3      H2            -34.4858259541      -27.3931265659      -92.3921072457  TIP3      6999            0.0000000000
     72513      8360  TIP3      OH2           -27.8173255851      -31.9319136566       90.4067327748  TIP3      7000            0.0000000000
     72514      8360  TIP3      H1            -27.2979429240      -31.7069316650       91.2297413648  TIP3      7000            0.0000000000
     72515      8360  TIP3      H2            -27.4613212120      -31.3640511177       89.7177494564  TIP3      7000            0.0000000000
     72516      8361  TIP3      OH2           -30.1426302733      -25.1485010172       93.9026824506  TIP3      7001            0.0000000000
     72517      8361  TIP3      H1            -29.6666663610      -24.8283404467       94.6752478356  TIP3      7001            0.0000000000
     72518      8361  TIP3      H2            -30.7033392613      -24.4123660019       93.6812343773  TIP3      7001            0.0000000000
     72519      8362  TIP3      OH2           -35.5977716266      -25.1676878619      -90.9738222618  TIP3      7002            0.0000000000
     72520      8362  TIP3      H1            -35.6353218001      -25.2827291341      -91.9431622161  TIP3      7002            0.0000000000
     72521      8362  TIP3      H2            -36.5126923494      -25.2843870110      -90.7250397711  TIP3      7002            0.0000000000
     72522      8363  TIP3      OH2           -36.1034221483      -31.3954286474       92.2604727763  TIP3      7003            0.0000000000
     72523      8363  TIP3      H1            -36.3842676926      -30.6127074989       91.7355980782  TIP3      7003            0.0000000000
     72524      8363  TIP3      H2            -36.7857895608      -32.0452342541       92.0733144680  TIP3      7003            0.0000000000
     72525      8364  TIP3      OH2           -37.0118523289      -23.3908418094       94.1071562595  TIP3      7004            0.0000000000
     72526      8364  TIP3      H1            -36.8693619911      -23.7437015676       94.9856316863  TIP3      7004            0.0000000000
     72527      8364  TIP3      H2            -37.8603048825      -23.7390298754       93.8088630360  TIP3      7004            0.0000000000
     72528      8365  TIP3      OH2           -35.0999366338      -39.2102986015      -96.6374817390  TIP3      7005            0.0000000000
     72529      8365  TIP3      H1            -35.9994446063      -39.2219138553      -97.0316003994  TIP3      7005            0.0000000000
     72530      8365  TIP3      H2            -35.1815156661      -38.3651711044      -96.1659535966  TIP3      7005            0.0000000000
     72531      8366  TIP3      OH2           -35.0175850534      -34.2277856584      -95.4478912199  TIP3      7006            0.0000000000
     72532      8366  TIP3      H1            -35.7044508802      -34.2301819415      -94.7748915740  TIP3      7006            0.0000000000
     72533      8366  TIP3      H2            -35.0190733320      -33.3069988014      -95.8004730757  TIP3      7006            0.0000000000
     72534      8367  TIP3      OH2           -35.0159944598      -34.0391843050       94.1620168615  TIP3      7007            0.0000000000
     72535      8367  TIP3      H1            -35.9519890735      -34.3084168408       94.0553890025  TIP3      7007            0.0000000000
     72536      8367  TIP3      H2            -34.6289714724      -34.3952762901       93.3370017809  TIP3      7007            0.0000000000
     72537      8368  TIP3      OH2           -29.5073356298      -33.6148676373       92.9564017218  TIP3      7008            0.0000000000
     72538      8368  TIP3      H1            -29.9154460330      -32.7823871384       92.6247582087  TIP3      7008            0.0000000000
     72539      8368  TIP3      H2            -28.8381084584      -33.7767983206       92.2684422961  TIP3      7008            0.0000000000
     72540      8369  TIP3      OH2           -30.4371338380      -33.3533809670      -90.2942808710  TIP3      7009            0.0000000000
     72541      8369  TIP3      H1            -30.9550501606      -34.1581621292      -90.0478643871  TIP3      7009            0.0000000000
     72542      8369  TIP3      H2            -29.5781077051      -33.5372716893      -89.8816074046  TIP3      7009            0.0000000000
     72543      8370  TIP3      OH2           -28.5135682483      -34.1302071100       95.7651734584  TIP3      7010            0.0000000000
     72544      8370  TIP3      H1            -28.7460733581      -33.5542804490       95.0113656480  TIP3      7010            0.0000000000
     72545      8370  TIP3      H2            -28.3532745417      -34.9602257445       95.2566121489  TIP3      7010            0.0000000000
     72546      8371  TIP3      OH2           -40.2830131176      -36.7700767989       94.6252707711  TIP3      7011            0.0000000000
     72547      8371  TIP3      H1            -39.9148667189      -36.9166394741       95.5174722418  TIP3      7011            0.0000000000
     72548      8371  TIP3      H2            -39.9694293701      -37.4402579214       94.0115407137  TIP3      7011            0.0000000000
     72549      8372  TIP3      OH2           -39.3044629299      -36.0268687272       90.3922620709  TIP3      7012            0.0000000000
     72550      8372  TIP3      H1            -38.9624318192      -35.5100172188       89.6567818676  TIP3      7012            0.0000000000
     72551      8372  TIP3      H2            -40.1368558578      -35.5692830863       90.5893281420  TIP3      7012            0.0000000000
     72552      8373  TIP3      OH2           -32.4581612991      -36.4832765463       95.2087100881  TIP3      7013            0.0000000000
     72553      8373  TIP3      H1            -33.3946588249      -36.5199743662       95.4992342485  TIP3      7013            0.0000000000
     72554      8373  TIP3      H2            -31.9822902171      -36.7126325667       96.0161423019  TIP3      7013            0.0000000000
     72555      8374  TIP3      OH2           -37.6441831854      -34.9450127312       93.9553253948  TIP3      7014            0.0000000000
     72556      8374  TIP3      H1            -38.5716061599      -34.8883596376       93.6895317092  TIP3      7014            0.0000000000
     72557      8374  TIP3      H2            -37.3620333108      -35.8256506116       93.6320976896  TIP3      7014            0.0000000000
     72558      8375  TIP3      OH2           -34.0305509665      -34.9522756492       91.6552401364  TIP3      7015            0.0000000000
     72559      8375  TIP3      H1            -33.0731461093      -34.8411529772       91.8645819844  TIP3      7015            0.0000000000
     72560      8375  TIP3      H2            -34.2413147604      -34.2610739662       91.0037672687  TIP3      7015            0.0000000000
     72561      8376  TIP3      OH2           -35.2859985155      -33.8065964214       89.2712319780  TIP3      7016            0.0000000000
     72562      8376  TIP3      H1            -35.8471217142      -34.1001065489       88.5385679282  TIP3      7016            0.0000000000
     72563      8376  TIP3      H2            -34.4881732614      -33.5162876424       88.8059339359  TIP3      7016            0.0000000000
     72564      8377  TIP3      OH2           -31.1992962255      -33.7853884751       97.0600581691  TIP3      7017            0.0000000000
     72565      8377  TIP3      H1            -30.5898698276      -34.3053199731       96.5239169517  TIP3      7017            0.0000000000
     72566      8377  TIP3      H2            -31.3053917619      -34.3359387709       97.8471784846  TIP3      7017            0.0000000000
     72567      8378  TIP3      OH2           -36.1686185068      -37.5906819374       93.4554770970  TIP3      7018            0.0000000000
     72568      8378  TIP3      H1            -36.4558277764      -38.5243542702       93.5354545439  TIP3      7018            0.0000000000
     72569      8378  TIP3      H2            -35.3683912783      -37.6859715421       92.9321574500  TIP3      7018            0.0000000000
     72570      8379  TIP3      OH2           -32.5598864036      -35.4295699905      -95.2648157397  TIP3      7019            0.0000000000
     72571      8379  TIP3      H1            -33.3916048400      -34.9309826247      -95.1444261328  TIP3      7019            0.0000000000
     72572      8379  TIP3      H2            -32.0113082685      -35.1433180018      -94.5241325665  TIP3      7019            0.0000000000
     72573      8380  TIP3      OH2           -31.9634547255      -29.2202980220       91.1821901807  TIP3      7020            0.0000000000
     72574      8380  TIP3      H1            -32.7558018201      -29.6994629287       90.8486040355  TIP3      7020            0.0000000000
     72575      8380  TIP3      H2            -32.1500583711      -29.1123312412       92.1314061132  TIP3      7020            0.0000000000
     72576      8381  TIP3      OH2           -27.3947147490      -34.5226092315       91.0338624163  TIP3      7021            0.0000000000
     72577      8381  TIP3      H1            -26.4935879659      -34.6463933923       91.3758829083  TIP3      7021            0.0000000000
     72578      8381  TIP3      H2            -27.3397908960      -33.7241418803       90.4920463554  TIP3      7021            0.0000000000
     72579      8382  TIP3      OH2           -36.8402559959      -29.8493554341       97.0281759360  TIP3      7022            0.0000000000
     72580      8382  TIP3      H1            -36.1853446983      -29.9029620181       96.3209939917  TIP3      7022            0.0000000000
     72581      8382  TIP3      H2            -36.7843176780      -30.7154935987       97.4272473918  TIP3      7022            0.0000000000
     72582      8383  TIP3      OH2           -29.8832288948      -27.7416510603       90.2349131126  TIP3      7023            0.0000000000
     72583      8383  TIP3      H1            -30.2393155024      -26.9000316195       90.5699066004  TIP3      7023            0.0000000000
     72584      8383  TIP3      H2            -30.6022384289      -28.3771682678       90.4162603504  TIP3      7023            0.0000000000
     72585      8384  TIP3      OH2           -32.8465634007      -31.9294269248      -90.2942235950  TIP3      7024            0.0000000000
     72586      8384  TIP3      H1            -33.1367505790      -32.1312151601      -91.1846662224  TIP3      7024            0.0000000000
     72587      8384  TIP3      H2            -31.9018509509      -32.1928499634      -90.3202510467  TIP3      7024            0.0000000000
     72588      8385  TIP3      OH2           -22.5273348378      -28.5168464800      -91.1667552284  TIP3      7025            0.0000000000
     72589      8385  TIP3      H1            -23.3613142521      -28.2081851081      -91.5426756671  TIP3      7025            0.0000000000
     72590      8385  TIP3      H2            -21.9396144156      -28.5083475622      -91.9560069207  TIP3      7025            0.0000000000
     72591      8386  TIP3      OH2           -27.0107750366      -30.7656092577      -96.4106669203  TIP3      7026            0.0000000000
     72592      8386  TIP3      H1            -27.9457222604      -30.8896734461      -96.6045396678  TIP3      7026            0.0000000000
     72593      8386  TIP3      H2            -26.5776097828      -31.4819665348      -96.9076701697  TIP3      7026            0.0000000000
     72594      8387  TIP3      OH2           -38.7509793399      -31.5579425850       88.9891006644  TIP3      7027            0.0000000000
     72595      8387  TIP3      H1            -38.0776473174      -30.9111073157       89.2871371960  TIP3      7027            0.0000000000
     72596      8387  TIP3      H2            -39.5697738385      -31.1448198818       89.2138173369  TIP3      7027            0.0000000000
     72597      8388  TIP3      OH2           -33.0532701691      -28.7258328043       93.8844682308  TIP3      7028            0.0000000000
     72598      8388  TIP3      H1            -33.3080552304      -27.8020886294       93.9676514874  TIP3      7028            0.0000000000
     72599      8388  TIP3      H2            -33.7902990593      -29.2063095450       94.3209121828  TIP3      7028            0.0000000000
     72600      8389  TIP3      OH2           -32.5987278217      -24.5456985934      -94.4503152955  TIP3      7029            0.0000000000
     72601      8389  TIP3      H1            -32.1517668768      -23.7281269096      -94.7244319836  TIP3      7029            0.0000000000
     72602      8389  TIP3      H2            -32.0258959833      -24.8803638895      -93.7505948508  TIP3      7029            0.0000000000
     72603      8390  TIP3      OH2           -34.3255476287      -23.7151370544       93.4251829611  TIP3      7030            0.0000000000
     72604      8390  TIP3      H1            -35.2931789075      -23.5948489156       93.5314255442  TIP3      7030            0.0000000000
     72605      8390  TIP3      H2            -34.0102260788      -22.8814716607       93.8040849280  TIP3      7030            0.0000000000
     72606      8391  TIP3      OH2           -38.2056711113      -36.7597071797      -92.9616641536  TIP3      7031            0.0000000000
     72607      8391  TIP3      H1            -39.0929303032      -36.3621175395      -92.9318516253  TIP3      7031            0.0000000000
     72608      8391  TIP3      H2            -38.3367678516      -37.5841192932      -92.4664633194  TIP3      7031            0.0000000000
     72609      8392  TIP3      OH2           -33.8423827417      -26.8728710870       89.9391909629  TIP3      7032            0.0000000000
     72610      8392  TIP3      H1            -33.5605313325      -27.3931957213       90.6937501452  TIP3      7032            0.0000000000
     72611      8392  TIP3      H2            -33.7708673814      -25.9386306034       90.2141183930  TIP3      7032            0.0000000000
     72612      8393  TIP3      OH2           -37.3654216276      -29.5885881141       90.4803811685  TIP3      7033            0.0000000000
     72613      8393  TIP3      H1            -38.0149857247      -29.1291686378       91.0244266046  TIP3      7033            0.0000000000
     72614      8393  TIP3      H2            -36.8103023629      -28.8473721535       90.1504190102  TIP3      7033            0.0000000000
     72615      8394  TIP3      OH2           -31.0602939341      -25.2731263684       90.7057671727  TIP3      7034            0.0000000000
     72616      8394  TIP3      H1            -31.8869530166      -24.7477963008       90.7165227605  TIP3      7034            0.0000000000
     72617      8394  TIP3      H2            -30.5480233466      -24.8082160426       90.0332265244  TIP3      7034            0.0000000000
     72618      8395  TIP3      OH2           -31.5914421825      -35.5092049356       92.6408101391  TIP3      7035            0.0000000000
     72619      8395  TIP3      H1            -30.7217994632      -35.0577334423       92.6695306987  TIP3      7035            0.0000000000
     72620      8395  TIP3      H2            -31.7583831287      -35.7488314568       93.5710014138  TIP3      7035            0.0000000000
     72621      8396  TIP3      OH2           -33.6147952828      -24.1432245417       90.6729210569  TIP3      7036            0.0000000000
     72622      8396  TIP3      H1            -33.5690694742      -23.3218798064       90.1644642792  TIP3      7036            0.0000000000
     72623      8396  TIP3      H2            -33.9163857425      -23.8196157073       91.5494986740  TIP3      7036            0.0000000000
     72624      8397  TIP3      OH2           -34.9911762873      -37.4241635435       90.2820088938  TIP3      7037            0.0000000000
     72625      8397  TIP3      H1            -35.0550801590      -36.5169506794       90.6265147984  TIP3      7037            0.0000000000
     72626      8397  TIP3      H2            -34.1012252172      -37.6646052903       90.5429176067  TIP3      7037            0.0000000000
     72627      8398  TIP3      OH2           -26.1471975446      -32.9286590473       96.6821231328  TIP3      7038            0.0000000000
     72628      8398  TIP3      H1            -26.9825284477      -33.3565259452       96.4358812432  TIP3      7038            0.0000000000
     72629      8398  TIP3      H2            -25.6749399581      -33.6170624020       97.2143354174  TIP3      7038            0.0000000000
     72630      8399  TIP3      OH2           -37.6391006555      -39.4271873750       97.2729522383  TIP3      7039            0.0000000000
     72631      8399  TIP3      H1            -37.7944234631      -39.3966524588       96.2924392994  TIP3      7039            0.0000000000
     72632      8399  TIP3      H2            -38.0017091869      -40.3121911521       97.4278821594  TIP3      7039            0.0000000000
     72633      8400  TIP3      OH2           -34.7493667419      -24.0186075124      -88.5139702466  TIP3      7040            0.0000000000
     72634      8400  TIP3      H1            -34.0225679185      -24.5484045332      -88.1566254780  TIP3      7040            0.0000000000
     72635      8400  TIP3      H2            -34.8222639516      -24.3400848495      -89.4245290044  TIP3      7040            0.0000000000
     72636      8401  TIP3      OH2           -32.8281351725      -29.1897995355      -89.7097808341  TIP3      7041            0.0000000000
     72637      8401  TIP3      H1            -33.1104271619      -28.8934406493      -90.5895717544  TIP3      7041            0.0000000000
     72638      8401  TIP3      H2            -32.6918833180      -30.1484522596      -89.8489486282  TIP3      7041            0.0000000000
     72639      8402  TIP3      OH2           -29.7948569031      -27.7757400895       87.4315162572  TIP3      7042            0.0000000000
     72640      8402  TIP3      H1            -30.0069604211      -27.6350624406       88.3649586550  TIP3      7042            0.0000000000
     72641      8402  TIP3      H2            -30.0043760221      -28.7041228475       87.3075476710  TIP3      7042            0.0000000000
     72642      8403  TIP3      OH2           -38.4709599833      -32.0857487260      -89.7372451545  TIP3      7043            0.0000000000
     72643      8403  TIP3      H1            -38.1565779376      -32.9741897177      -89.8515570333  TIP3      7043            0.0000000000
     72644      8403  TIP3      H2            -38.8554469836      -32.0168215476      -88.8716036837  TIP3      7043            0.0000000000
     72645      8404  TIP3      OH2           -33.9075238284      -30.8453620538       90.0756653524  TIP3      7044            0.0000000000
     72646      8404  TIP3      H1            -34.4501036187      -31.3641815456       90.6835520514  TIP3      7044            0.0000000000
     72647      8404  TIP3      H2            -33.6568771893      -31.5054637574       89.3907413046  TIP3      7044            0.0000000000
     72648      8405  TIP3      OH2           -32.8970498343      -32.6198959678       88.2576333259  TIP3      7045            0.0000000000
     72649      8405  TIP3      H1            -33.0125333528      -32.7678591469       87.3086129005  TIP3      7045            0.0000000000
     72650      8405  TIP3      H2            -31.9215003739      -32.5228039280       88.3558952305  TIP3      7045            0.0000000000
     72651      8406  TIP3      OH2           -29.6495296436      -30.4428122600      -88.9572936458  TIP3      7046            0.0000000000
     72652      8406  TIP3      H1            -28.7055383447      -30.4828656017      -89.1473323493  TIP3      7046            0.0000000000
     72653      8406  TIP3      H2            -29.8156896338      -31.2562503991      -88.4651454359  TIP3      7046            0.0000000000
     72654      8407  TIP3      OH2           -34.2787661522      -35.6477024955      -91.3381129480  TIP3      7047            0.0000000000
     72655      8407  TIP3      H1            -34.1544007462      -36.3757083364      -91.9691772677  TIP3      7047            0.0000000000
     72656      8407  TIP3      H2            -34.3626252315      -34.8682646265      -91.8934812133  TIP3      7047            0.0000000000
     72657      8408  TIP3      OH2           -33.9101798870      -37.2432983692      -93.7838665451  TIP3      7048            0.0000000000
     72658      8408  TIP3      H1            -33.3836306866      -36.8141819720      -94.4954582769  TIP3      7048            0.0000000000
     72659      8408  TIP3      H2            -34.8015426833      -37.3558153644      -94.1914096558  TIP3      7048            0.0000000000
     72660      8409  TIP3      OH2           -32.4075109100      -31.8128401682      -93.5808823696  TIP3      7049            0.0000000000
     72661      8409  TIP3      H1            -31.6037733022      -31.9644865336      -94.0835498508  TIP3      7049            0.0000000000
     72662      8409  TIP3      H2            -32.6442015660      -30.9189833945      -93.8294665268  TIP3      7049            0.0000000000
     72663      8410  TIP3      OH2           -27.9556050935      -34.0252176533      -88.5325259696  TIP3      7050            0.0000000000
     72664      8410  TIP3      H1            -27.7415538394      -34.9577254173      -88.6310715665  TIP3      7050            0.0000000000
     72665      8410  TIP3      H2            -27.1013084772      -33.5725125245      -88.5380634593  TIP3      7050            0.0000000000
     72666      8411  TIP3      OH2           -26.6003450303      -31.1951484335      -90.3763055522  TIP3      7051            0.0000000000
     72667      8411  TIP3      H1            -26.9119513508      -30.5459064938      -91.0221743362  TIP3      7051            0.0000000000
     72668      8411  TIP3      H2            -25.6598710595      -31.2502529570      -90.6275882263  TIP3      7051            0.0000000000
     72669      8412  TIP3      OH2           -35.8361685792      -34.4157426846      -89.3742105567  TIP3      7052            0.0000000000
     72670      8412  TIP3      H1            -36.6212381259      -34.9702861457      -89.5751212708  TIP3      7052            0.0000000000
     72671      8412  TIP3      H2            -35.1968156570      -34.7829749111      -90.0154625657  TIP3      7052            0.0000000000
     72672      8413  TIP3      OH2           -33.3514863388      -39.7979358641      -93.3247309032  TIP3      7053            0.0000000000
     72673      8413  TIP3      H1            -33.2994466557      -38.8347689349      -93.5067891926  TIP3      7053            0.0000000000
     72674      8413  TIP3      H2            -34.0038375954      -40.1229422859      -93.9213797545  TIP3      7053            0.0000000000
     72675      8414  TIP3      OH2           -31.8874623223      -35.4461936134      -89.7582929427  TIP3      7054            0.0000000000
     72676      8414  TIP3      H1            -32.1191273123      -35.7560023892      -88.8660066769  TIP3      7054            0.0000000000
     72677      8414  TIP3      H2            -32.6587372164      -35.7106643328      -90.2871945744  TIP3      7054            0.0000000000
     72678      8415  TIP3      OH2           -37.6855531078      -36.4797668560      -89.6566162062  TIP3      7055            0.0000000000
     72679      8415  TIP3      H1            -37.4972557760      -37.2301814996      -90.2559785742  TIP3      7055            0.0000000000
     72680      8415  TIP3      H2            -37.7819415661      -36.9490094105      -88.7967153932  TIP3      7055            0.0000000000
     72681      8416  TIP3      OH2           -32.8059886819      -40.0153892863      -90.8463133281  TIP3      7056            0.0000000000
     72682      8416  TIP3      H1            -32.2246445889      -40.8014158669      -90.7802270866  TIP3      7056            0.0000000000
     72683      8416  TIP3      H2            -33.0003210312      -40.0982926944      -91.8026580831  TIP3      7056            0.0000000000
     72684      8417  TIP3      OH2           -32.5245846954      -38.8250510390      -88.5561266078  TIP3      7057            0.0000000000
     72685      8417  TIP3      H1            -32.6570627487      -39.2736510310      -89.4204779136  TIP3      7057            0.0000000000
     72686      8417  TIP3      H2            -33.1024464904      -38.0456706856      -88.6480140003  TIP3      7057            0.0000000000
     72687      8418  TIP3      OH2           -22.6941345708      -31.3291198246       93.4947492277  TIP3      7058            0.0000000000
     72688      8418  TIP3      H1            -23.4251993411      -31.8319466873       93.9021033492  TIP3      7058            0.0000000000
     72689      8418  TIP3      H2            -22.0830241434      -31.1631560752       94.2360050077  TIP3      7058            0.0000000000
     72690      8419  TIP3      OH2           -22.8922710146      -28.5807749981      -96.2460337116  TIP3      7059            0.0000000000
     72691      8419  TIP3      H1            -22.0820518361      -28.9773699932      -96.5880524020  TIP3      7059            0.0000000000
     72692      8419  TIP3      H2            -22.7720452801      -27.6356189075      -96.3710694917  TIP3      7059            0.0000000000
     72693      8420  TIP3      OH2           -22.3807599720      -31.4265765942       89.8712748585  TIP3      7060            0.0000000000
     72694      8420  TIP3      H1            -22.9657792717      -31.1103707812       89.1789741997  TIP3      7060            0.0000000000
     72695      8420  TIP3      H2            -22.4334013832      -30.7857031932       90.5922682578  TIP3      7060            0.0000000000
     72696      8421  TIP3      OH2           -24.8839201652      -32.8151418549       94.0766894561  TIP3      7061            0.0000000000
     72697      8421  TIP3      H1            -25.0186212216      -33.7751838098       94.0705951512  TIP3      7061            0.0000000000
     72698      8421  TIP3      H2            -25.1994205148      -32.5607540931       94.9651493161  TIP3      7061            0.0000000000
     72699      8422  TIP3      OH2           -24.0028906217      -30.8276511167      -90.9478321657  TIP3      7062            0.0000000000
     72700      8422  TIP3      H1            -23.3845127254      -31.5852653676      -90.8351177090  TIP3      7062            0.0000000000
     72701      8422  TIP3      H2            -23.3760068425      -30.0810358761      -90.9931818179  TIP3      7062            0.0000000000
     72702      8423  TIP3      OH2           -22.5448047077      -32.9455190158      -90.3857441904  TIP3      7063            0.0000000000
     72703      8423  TIP3      H1            -23.3965456678      -33.3784348697      -90.4638239722  TIP3      7063            0.0000000000
     72704      8423  TIP3      H2            -21.8995509282      -33.6571532927      -90.3907072492  TIP3      7063            0.0000000000
     72705      8424  TIP3      OH2           -25.2875537393      -35.1735529790       92.5264191660  TIP3      7064            0.0000000000
     72706      8424  TIP3      H1            -24.9688472442      -36.0706019616       92.7233415571  TIP3      7064            0.0000000000
     72707      8424  TIP3      H2            -24.4810500001      -34.7745927131       92.1833134666  TIP3      7064            0.0000000000
     72708      8425  TIP3      OH2           -24.5641983577      -34.6518294856      -96.7447863252  TIP3      7065            0.0000000000
     72709      8425  TIP3      H1            -23.5998712878      -34.4634475534      -96.7588461078  TIP3      7065            0.0000000000
     72710      8425  TIP3      H2            -24.7492716260      -34.5996988576      -95.8096222232  TIP3      7065            0.0000000000
     72711      8426  TIP3      OH2           -40.1064962046      -35.6726812850      -90.6785218862  TIP3      7066            0.0000000000
     72712      8426  TIP3      H1            -39.2215642194      -35.6826041407      -90.2639443598  TIP3      7066            0.0000000000
     72713      8426  TIP3      H2            -40.6234137274      -36.2612071056      -90.1156654800  TIP3      7066            0.0000000000
     72714      8427  TIP3      OH2           -39.0466606091      -37.1271243376       97.1137956787  TIP3      7067            0.0000000000
     72715      8427  TIP3      H1            -38.5946791814      -37.9619091545       97.3842092167  TIP3      7067            0.0000000000
     72716      8427  TIP3      H2            -38.5057252491      -36.4624223779       97.5578385662  TIP3      7067            0.0000000000
     72717      8428  TIP3      OH2           -40.7576622705      -33.8148844119      -97.2444612077  TIP3      7068            0.0000000000
     72718      8428  TIP3      H1            -40.0835630636      -34.4668320504      -97.4922676709  TIP3      7068            0.0000000000
     72719      8428  TIP3      H2            -40.2831574130      -33.4177444820      -96.5050680341  TIP3      7068            0.0000000000
     72720      8429  TIP3      OH2           -40.8059622708      -37.0420078982       92.1323442649  TIP3      7069            0.0000000000
     72721      8429  TIP3      H1            -41.3833245795      -37.7844640973       92.0149596730  TIP3      7069            0.0000000000
     72722      8429  TIP3      H2            -40.0612935428      -37.3366067265       91.5461424369  TIP3      7069            0.0000000000
     72723      8430  TIP3      OH2            41.0609889646      -38.9364170720      -94.1200384063  TIP3      7070            0.0000000000
     72724      8430  TIP3      H1             40.4370390365      -39.3728606213      -93.5296969612  TIP3      7070            0.0000000000
     72725      8430  TIP3      H2             40.5213384937      -38.5111159292      -94.7821924798  TIP3      7070            0.0000000000
     72726      8431  TIP3      OH2           -35.2875244074      -25.0016933566      -93.6827477271  TIP3      7071            0.0000000000
     72727      8431  TIP3      H1            -35.6790281742      -24.1895922054      -94.0438747966  TIP3      7071            0.0000000000
     72728      8431  TIP3      H2            -34.3857386408      -24.9461036391      -94.0723993811  TIP3      7071            0.0000000000
     72729      8432  TIP3      OH2           -37.8994756476      -21.8028366031      -93.6931787142  TIP3      7072            0.0000000000
     72730      8432  TIP3      H1            -38.6253869350      -21.3142751887      -94.1232225733  TIP3      7072            0.0000000000
     72731      8432  TIP3      H2            -38.2809448348      -22.0106101167      -92.8414042168  TIP3      7072            0.0000000000
     72732      8433  TIP3      OH2           -35.4048696408      -22.2105290212      -94.6384021977  TIP3      7073            0.0000000000
     72733      8433  TIP3      H1            -36.2898407403      -22.0343442488      -94.2504681644  TIP3      7073            0.0000000000
     72734      8433  TIP3      H2            -35.4646737873      -21.6650466234      -95.4360775056  TIP3      7073            0.0000000000
     72735      8434  TIP3      OH2           -30.7229969511      -22.3006364078      -95.4663359532  TIP3      7074            0.0000000000
     72736      8434  TIP3      H1            -31.1630889329      -21.7586581661      -96.1421626584  TIP3      7074            0.0000000000
     72737      8434  TIP3      H2            -30.4898235216      -21.6825440241      -94.7717276046  TIP3      7074            0.0000000000
     72738      8435  TIP3      OH2           -33.7127515441      -23.9257280413      -97.3031656924  TIP3      7075            0.0000000000
     72739      8435  TIP3      H1            -33.6231002084      -24.8571975452      -97.5601474755  TIP3      7075            0.0000000000
     72740      8435  TIP3      H2            -33.7625096474      -24.0405779473      -96.3415939226  TIP3      7075            0.0000000000
     72741      8436  TIP3      OH2           -37.5383701360      -39.3072435805       94.7701123331  TIP3      7076            0.0000000000
     72742      8436  TIP3      H1            -38.3792361976      -39.5717055754       94.3681886138  TIP3      7076            0.0000000000
     72743      8436  TIP3      H2            -37.1808642510      -40.2113409566       94.6773867107  TIP3      7076            0.0000000000
     72744      8437  TIP3      OH2           -38.8985794689      -39.7876193441       89.6805046552  TIP3      7077            0.0000000000
     72745      8437  TIP3      H1            -38.4900753850      -38.9731285044       89.3918580400  TIP3      7077            0.0000000000
     72746      8437  TIP3      H2            -39.5776283456      -39.4870957305       90.3453637860  TIP3      7077            0.0000000000
     72747      8438  TIP3      OH2           -33.4449341077      -39.7075721246       94.2369813627  TIP3      7078            0.0000000000
     72748      8438  TIP3      H1            -32.5463217846      -39.3700964639       94.1964861359  TIP3      7078            0.0000000000
     72749      8438  TIP3      H2            -33.4558465390      -39.9710619885       95.1556987185  TIP3      7078            0.0000000000
     72750      8439  TIP3      OH2           -39.2293416866      -23.9280308330       91.1329690057  TIP3      7079            0.0000000000
     72751      8439  TIP3      H1            -39.9008255717      -23.9660542727       90.4468830473  TIP3      7079            0.0000000000
     72752      8439  TIP3      H2            -39.1686882396      -23.0049903244       91.3733062998  TIP3      7079            0.0000000000
     72753      8440  TIP3      OH2           -37.2892259714      -37.9814662796       88.6883810293  TIP3      7080            0.0000000000
     72754      8440  TIP3      H1            -36.7816888773      -38.5769309755       88.1392143431  TIP3      7080            0.0000000000
     72755      8440  TIP3      H2            -36.6133199594      -37.6323836786       89.2759562246  TIP3      7080            0.0000000000
     72756      8441  TIP3      OH2           -38.0523001425      -39.0852238215      -90.7755150032  TIP3      7081            0.0000000000
     72757      8441  TIP3      H1            -38.3946172855      -39.9397469631      -90.4475284271  TIP3      7081            0.0000000000
     72758      8441  TIP3      H2            -37.1253041869      -39.1557886218      -90.4762622518  TIP3      7081            0.0000000000
     72759      8442  TIP3      OH2           -35.9895875144      -39.7546908582      -89.1644222351  TIP3      7082            0.0000000000
     72760      8442  TIP3      H1            -35.1310878368      -40.0756846864      -89.4749996749  TIP3      7082            0.0000000000
     72761      8442  TIP3      H2            -36.4130277930      -40.5676052342      -88.8558495628  TIP3      7082            0.0000000000
     72762      8443  TIP3      OH2           -11.1048030202      -31.2493944718      -96.9502205869  TIP3      7083            0.0000000000
     72763      8443  TIP3      H1            -11.1153339113      -31.9139415605      -96.2514790723  TIP3      7083            0.0000000000
     72764      8443  TIP3      H2            -11.4193114804      -31.7431999829      -97.7207405923  TIP3      7083            0.0000000000
     72765      8444  TIP3      OH2           -18.7294880090      -31.6434278948      -95.4016662973  TIP3      7084            0.0000000000
     72766      8444  TIP3      H1            -18.6763882155      -32.2435635217      -94.6441409357  TIP3      7084            0.0000000000
     72767      8444  TIP3      H2            -18.0271459084      -31.0203511790      -95.1546238011  TIP3      7084            0.0000000000
     72768      8445  TIP3      OH2            -7.4566525905      -28.2842663816       96.0648519596  TIP3      7085            0.0000000000
     72769      8445  TIP3      H1             -7.8248791777      -29.0221686576       96.5570852188  TIP3      7085            0.0000000000
     72770      8445  TIP3      H2             -7.3610407161      -27.6090803400       96.7589088226  TIP3      7085            0.0000000000
     72771      8446  TIP3      OH2           -17.8195421635      -27.1896915202      -96.8309863050  TIP3      7086            0.0000000000
     72772      8446  TIP3      H1            -18.1237701448      -28.0330182582      -97.1828531194  TIP3      7086            0.0000000000
     72773      8446  TIP3      H2            -16.8568873817      -27.3365943264      -96.7836014556  TIP3      7086            0.0000000000
     72774      8447  TIP3      OH2           -20.4886386313      -31.3698358659       95.4364247688  TIP3      7087            0.0000000000
     72775      8447  TIP3      H1            -20.2265201924      -32.1684190143       95.9324318875  TIP3      7087            0.0000000000
     72776      8447  TIP3      H2            -19.7313066529      -31.2457500243       94.8441191487  TIP3      7087            0.0000000000
     72777      8448  TIP3      OH2           -12.7120570278      -28.8266037617      -96.4808952356  TIP3      7088            0.0000000000
     72778      8448  TIP3      H1            -12.4042506556      -29.4914943036      -97.1029069401  TIP3      7088            0.0000000000
     72779      8448  TIP3      H2            -11.9458352220      -28.6875217827      -95.9312798586  TIP3      7088            0.0000000000
     72780      8449  TIP3      OH2           -19.7749076706      -33.8827475314       96.5322897281  TIP3      7089            0.0000000000
     72781      8449  TIP3      H1            -19.1300091264      -34.4351314328       96.9814759826  TIP3      7089            0.0000000000
     72782      8449  TIP3      H2            -19.7675751904      -34.2261596505       95.6356592002  TIP3      7089            0.0000000000
     72783      8450  TIP3      OH2           -14.6526350934      -32.3521408294       95.8214597724  TIP3      7090            0.0000000000
     72784      8450  TIP3      H1            -14.0367307488      -32.9456567760       96.2582204418  TIP3      7090            0.0000000000
     72785      8450  TIP3      H2            -15.2069598934      -32.9925103229       95.3193340043  TIP3      7090            0.0000000000
     72786      8451  TIP3      OH2           -17.5793351358      -37.4096069288      -94.8459041083  TIP3      7091            0.0000000000
     72787      8451  TIP3      H1            -17.8108751210      -36.8609887947      -95.5937562440  TIP3      7091            0.0000000000
     72788      8451  TIP3      H2            -18.2695084752      -37.1978978808      -94.2137459348  TIP3      7091            0.0000000000
     72789      8452  TIP3      OH2           -10.2997682255      -27.9407928202       93.4091393166  TIP3      7092            0.0000000000
     72790      8452  TIP3      H1            -10.4771433233      -28.2130968688       92.5073109270  TIP3      7092            0.0000000000
     72791      8452  TIP3      H2            -10.5223955122      -27.0047350673       93.4321897661  TIP3      7092            0.0000000000
     72792      8453  TIP3      OH2           -16.5704580939      -27.8121854917      -93.8450758167  TIP3      7093            0.0000000000
     72793      8453  TIP3      H1            -16.5923549151      -26.8748565453      -94.1203543529  TIP3      7093            0.0000000000
     72794      8453  TIP3      H2            -17.4355619403      -27.8211501188      -93.3835147712  TIP3      7093            0.0000000000
     72795      8454  TIP3      OH2           -20.4447666029      -28.1139637770       91.6874693523  TIP3      7094            0.0000000000
     72796      8454  TIP3      H1            -20.8109387611      -27.8499022644       90.8401724577  TIP3      7094            0.0000000000
     72797      8454  TIP3      H2            -20.4590592008      -27.2972650259       92.1990635331  TIP3      7094            0.0000000000
     72798      8455  TIP3      OH2            -6.9055313046      -26.5089897320      -96.3902162740  TIP3      7095            0.0000000000
     72799      8455  TIP3      H1             -7.8166156435      -26.3875018017      -96.1342091328  TIP3      7095            0.0000000000
     72800      8455  TIP3      H2             -6.6088505859      -25.5830829361      -96.4373788234  TIP3      7095            0.0000000000
     72801      8456  TIP3      OH2            -6.5758242148      -38.1907238856      -94.8755160819  TIP3      7096            0.0000000000
     72802      8456  TIP3      H1             -7.2823632244      -37.5495086171      -94.9008140528  TIP3      7096            0.0000000000
     72803      8456  TIP3      H2             -5.8872378089      -37.7383128075      -95.3728485710  TIP3      7096            0.0000000000
     72804      8457  TIP3      OH2            -7.3216602259      -26.9847905772       93.5642094856  TIP3      7097            0.0000000000
     72805      8457  TIP3      H1             -7.7786628529      -27.5878705267       92.9711598127  TIP3      7097            0.0000000000
     72806      8457  TIP3      H2             -7.4301144440      -27.3581923942       94.4516259019  TIP3      7097            0.0000000000
     72807      8458  TIP3      OH2            -3.8726582901      -31.8211352033      -94.5632008346  TIP3      7098            0.0000000000
     72808      8458  TIP3      H1             -4.6242313736      -31.1835782147      -94.5924816435  TIP3      7098            0.0000000000
     72809      8458  TIP3      H2             -3.4534241175      -31.6628789357      -95.4300848553  TIP3      7098            0.0000000000
     72810      8459  TIP3      OH2           -16.2712979019      -30.4415499863       94.6766706896  TIP3      7099            0.0000000000
     72811      8459  TIP3      H1            -16.5409058727      -30.7829229494       93.7914173565  TIP3      7099            0.0000000000
     72812      8459  TIP3      H2            -15.6414114568      -31.1158242299       94.9815558869  TIP3      7099            0.0000000000
     72813      8460  TIP3      OH2           -14.9736691472      -27.0981705567       97.4224322204  TIP3      7100            0.0000000000
     72814      8460  TIP3      H1            -14.9293854554      -27.5032323293       96.5497883663  TIP3      7100            0.0000000000
     72815      8460  TIP3      H2            -14.1289466397      -27.3673964525       97.8132841042  TIP3      7100            0.0000000000
     72816      8461  TIP3      OH2           -15.8730683590      -31.6784667252      -96.4151844826  TIP3      7101            0.0000000000
     72817      8461  TIP3      H1            -15.3442279473      -31.5646848015      -97.2218042183  TIP3      7101            0.0000000000
     72818      8461  TIP3      H2            -15.5740172560      -30.9711209795      -95.8436612855  TIP3      7101            0.0000000000
     72819      8462  TIP3      OH2           -18.1062871738      -31.0837673435      -92.5395883649  TIP3      7102            0.0000000000
     72820      8462  TIP3      H1            -18.0007415079      -30.4166245695      -91.8373156591  TIP3      7102            0.0000000000
     72821      8462  TIP3      H2            -19.0301757440      -30.9658957345      -92.7812468306  TIP3      7102            0.0000000000
     72822      8463  TIP3      OH2           -17.2661734784      -31.3451505608       92.2974311024  TIP3      7103            0.0000000000
     72823      8463  TIP3      H1            -17.5350563440      -30.6032823942       91.7341182672  TIP3      7103            0.0000000000
     72824      8463  TIP3      H2            -17.9009554054      -32.0181022028       92.0380911326  TIP3      7103            0.0000000000
     72825      8464  TIP3      OH2           -21.2333599947      -28.9760679232      -93.5655166817  TIP3      7104            0.0000000000
     72826      8464  TIP3      H1            -21.6537428947      -29.0278004806      -94.4437411959  TIP3      7104            0.0000000000
     72827      8464  TIP3      H2            -21.1366026927      -29.9291800580      -93.3585899571  TIP3      7104            0.0000000000
     72828      8465  TIP3      OH2            -3.1895636757      -25.5425235365      -91.1153391678  TIP3      7105            0.0000000000
     72829      8465  TIP3      H1             -3.3024059406      -26.5011658622      -91.1125710415  TIP3      7105            0.0000000000
     72830      8465  TIP3      H2             -4.0448524813      -25.2603166306      -90.7056347563  TIP3      7105            0.0000000000
     72831      8466  TIP3      OH2           -18.9431007934      -27.6416674844      -92.6022789746  TIP3      7106            0.0000000000
     72832      8466  TIP3      H1            -18.6907970325      -28.0360529604      -91.7493741652  TIP3      7106            0.0000000000
     72833      8466  TIP3      H2            -19.7787967821      -28.0609681871      -92.8597614578  TIP3      7106            0.0000000000
     72834      8467  TIP3      OH2           -16.1657177779      -33.8013105856       94.0696770796  TIP3      7107            0.0000000000
     72835      8467  TIP3      H1            -17.0227421000      -34.2296543544       94.0671869836  TIP3      7107            0.0000000000
     72836      8467  TIP3      H2            -15.7172508004      -34.3138179653       93.3729707320  TIP3      7107            0.0000000000
     72837      8468  TIP3      OH2           -16.4858219988      -33.7490471763       89.2602875986  TIP3      7108            0.0000000000
     72838      8468  TIP3      H1            -17.0015725442      -34.1488121897       88.5556736354  TIP3      7108            0.0000000000
     72839      8468  TIP3      H2            -15.6594751940      -33.5690759510       88.8187337077  TIP3      7108            0.0000000000
     72840      8469  TIP3      OH2           -18.3067542380      -29.1792175800      -90.4096371562  TIP3      7109            0.0000000000
     72841      8469  TIP3      H1            -17.6107237341      -28.9449900639      -89.7851979108  TIP3      7109            0.0000000000
     72842      8469  TIP3      H2            -19.1014514582      -29.0589420946      -89.8522922647  TIP3      7109            0.0000000000
     72843      8470  TIP3      OH2            -5.9169562089      -30.0673223247      -94.7420432383  TIP3      7110            0.0000000000
     72844      8470  TIP3      H1             -5.3454574375      -29.5577993703      -95.3419128455  TIP3      7110            0.0000000000
     72845      8470  TIP3      H2             -6.7680459119      -29.9803015271      -95.2068438752  TIP3      7110            0.0000000000
     72846      8471  TIP3      OH2           -18.0384674904      -29.8772106260       96.9326384825  TIP3      7111            0.0000000000
     72847      8471  TIP3      H1            -17.2812853102      -29.9002482713       96.3053082931  TIP3      7111            0.0000000000
     72848      8471  TIP3      H2            -17.9213665489      -30.6915344383       97.4500945613  TIP3      7111            0.0000000000
     72849      8472  TIP3      OH2           -10.9684406578      -27.7351394323       90.2444728726  TIP3      7112            0.0000000000
     72850      8472  TIP3      H1            -11.3007311436      -26.8997895787       90.5700420532  TIP3      7112            0.0000000000
     72851      8472  TIP3      H2            -11.6892080074      -28.3526566797       90.3705330251  TIP3      7112            0.0000000000
     72852      8473  TIP3      OH2           -21.0066231943      -31.4419353585      -92.4911834808  TIP3      7113            0.0000000000
     72853      8473  TIP3      H1            -20.7961597524      -31.8751914683      -91.6420527467  TIP3      7113            0.0000000000
     72854      8473  TIP3      H2            -21.6388152858      -32.0465726190      -92.9168457314  TIP3      7113            0.0000000000
     72855      8474  TIP3      OH2            -3.7212041048      -34.2793845604       90.7916737379  TIP3      7114            0.0000000000
     72856      8474  TIP3      H1             -4.1899087036      -34.6814749598       90.0490902495  TIP3      7114            0.0000000000
     72857      8474  TIP3      H2             -3.5174583015      -33.3898932368       90.4498559640  TIP3      7114            0.0000000000
     72858      8475  TIP3      OH2            -3.6373376802      -28.4712025219      -91.1839377672  TIP3      7115            0.0000000000
     72859      8475  TIP3      H1             -4.5317537843      -28.2458635444      -91.4951534744  TIP3      7115            0.0000000000
     72860      8475  TIP3      H2             -3.1281163458      -28.4950995451      -92.0101425977  TIP3      7115            0.0000000000
     72861      8476  TIP3      OH2            -5.3173921703      -25.5221200670       91.1944321097  TIP3      7116            0.0000000000
     72862      8476  TIP3      H1             -5.7448369883      -26.3283202636       91.5139986699  TIP3      7116            0.0000000000
     72863      8476  TIP3      H2             -5.1087848930      -25.7074025843       90.2802296414  TIP3      7116            0.0000000000
     72864      8477  TIP3      OH2            -8.1456032460      -30.7009886002      -96.4488358287  TIP3      7117            0.0000000000
     72865      8477  TIP3      H1             -9.0796465197      -30.9231345679      -96.5782603238  TIP3      7117            0.0000000000
     72866      8477  TIP3      H2             -7.7196854973      -31.4816828228      -96.8568840330  TIP3      7117            0.0000000000
     72867      8478  TIP3      OH2           -19.8670279858      -31.4782909099       88.8699757280  TIP3      7118            0.0000000000
     72868      8478  TIP3      H1            -19.2528550811      -30.9041762665       89.3446748745  TIP3      7118            0.0000000000
     72869      8478  TIP3      H2            -20.7511283047      -31.2576634240       89.2115652427  TIP3      7118            0.0000000000
     72870      8479  TIP3      OH2            -7.9395925321      -27.5721398105       89.0175661712  TIP3      7119            0.0000000000
     72871      8479  TIP3      H1             -7.6401391111      -27.9294108155       89.8691717323  TIP3      7119            0.0000000000
     72872      8479  TIP3      H2             -8.8970339876      -27.6206281456       89.1057547467  TIP3      7119            0.0000000000
     72873      8480  TIP3      OH2            -7.0835443539      -28.9024146059       91.2191520494  TIP3      7120            0.0000000000
     72874      8480  TIP3      H1             -7.3684309804      -29.6063552917       91.8129783747  TIP3      7120            0.0000000000
     72875      8480  TIP3      H2             -6.1560183971      -28.7696181062       91.4669664945  TIP3      7120            0.0000000000
     72876      8481  TIP3      OH2           -18.4793310923      -29.5836680475       90.3983028244  TIP3      7121            0.0000000000
     72877      8481  TIP3      H1            -19.1481571197      -29.2390963184       91.0322480446  TIP3      7121            0.0000000000
     72878      8481  TIP3      H2            -17.9293972222      -28.8074359253       90.2610484019  TIP3      7121            0.0000000000
     72879      8482  TIP3      OH2            -5.9276660416      -36.6932739870      -92.0638658052  TIP3      7122            0.0000000000
     72880      8482  TIP3      H1             -6.8213561988      -36.3617203321      -92.1370474999  TIP3      7122            0.0000000000
     72881      8482  TIP3      H2             -5.5840171579      -36.6756512195      -92.9632211098  TIP3      7122            0.0000000000
     72882      8483  TIP3      OH2            -7.3165981411      -32.9260439555       96.7737406380  TIP3      7123            0.0000000000
     72883      8483  TIP3      H1             -8.0956091016      -33.3547404362       96.3951384375  TIP3      7123            0.0000000000
     72884      8483  TIP3      H2             -6.8391394709      -33.6192674699       97.2325188525  TIP3      7123            0.0000000000
     72885      8484  TIP3      OH2            -6.2689616293      -23.6054559493      -96.2932697156  TIP3      7124            0.0000000000
     72886      8484  TIP3      H1             -6.3823037659      -23.0259605919      -97.0597441173  TIP3      7124            0.0000000000
     72887      8484  TIP3      H2             -5.2919515402      -23.6004196494      -96.1773617480  TIP3      7124            0.0000000000
     72888      8485  TIP3      OH2           -18.7724774820      -39.4245538746       97.0816054723  TIP3      7125            0.0000000000
     72889      8485  TIP3      H1            -18.9933500485      -39.5058542896       96.1501965674  TIP3      7125            0.0000000000
     72890      8485  TIP3      H2            -19.1103331677      -40.2720832153       97.4275539130  TIP3      7125            0.0000000000
     72891      8486  TIP3      OH2           -20.6392576073      -29.2107267086      -89.1424083998  TIP3      7126            0.0000000000
     72892      8486  TIP3      H1            -20.4657543125      -30.1186247254      -89.4613772396  TIP3      7126            0.0000000000
     72893      8486  TIP3      H2            -21.3809848142      -28.9141825320      -89.7007581048  TIP3      7126            0.0000000000
     72894      8487  TIP3      OH2           -14.0496666003      -29.2084735720      -89.6858978430  TIP3      7127            0.0000000000
     72895      8487  TIP3      H1            -14.2412700161      -28.9176816870      -90.5897646208  TIP3      7127            0.0000000000
     72896      8487  TIP3      H2            -13.7781946850      -30.1232008643      -89.8455087799  TIP3      7127            0.0000000000
     72897      8488  TIP3      OH2           -19.8625082499      -31.9895244788      -89.7496979949  TIP3      7128            0.0000000000
     72898      8488  TIP3      H1            -19.3115861644      -32.7736804089      -89.8682959513  TIP3      7128            0.0000000000
     72899      8488  TIP3      H2            -19.9557478275      -31.9419058272      -88.7780946086  TIP3      7128            0.0000000000
     72900      8489  TIP3      OH2           -10.8086854049      -30.5077135289      -89.0438833798  TIP3      7129            0.0000000000
     72901      8489  TIP3      H1             -9.8507937008      -30.4337658122      -89.1486891508  TIP3      7129            0.0000000000
     72902      8489  TIP3      H2            -10.9506682270      -31.2587120385      -88.4856447739  TIP3      7129            0.0000000000
     72903      8490  TIP3      OH2           -17.0161262250      -34.3757709363      -89.4506020762  TIP3      7130            0.0000000000
     72904      8490  TIP3      H1            -17.7529274985      -34.9737132329      -89.5552069638  TIP3      7130            0.0000000000
     72905      8490  TIP3      H2            -16.3204967305      -34.7783927363      -89.9692826494  TIP3      7130            0.0000000000
     72906      8491  TIP3      OH2            -3.5973222814      -22.8208040455      -96.1300998409  TIP3      7131            0.0000000000
     72907      8491  TIP3      H1             -3.4464354841      -22.9147360056      -95.1722143858  TIP3      7131            0.0000000000
     72908      8491  TIP3      H2             -2.7251636280      -22.5246304282      -96.4549469013  TIP3      7131            0.0000000000
     72909      8492  TIP3      OH2            -3.9410132526      -23.4404145938      -93.2333775527  TIP3      7132            0.0000000000
     72910      8492  TIP3      H1             -4.4386779721      -24.1900085659      -93.5655642946  TIP3      7132            0.0000000000
     72911      8492  TIP3      H2             -3.4290348788      -23.8516782863      -92.5194290372  TIP3      7132            0.0000000000
     72912      8493  TIP3      OH2            -5.5108795187      -27.6605750952      -88.5828529258  TIP3      7133            0.0000000000
     72913      8493  TIP3      H1             -6.3854232700      -27.7362156582      -88.1506142872  TIP3      7133            0.0000000000
     72914      8493  TIP3      H2             -5.1173219355      -26.9101654448      -88.0854889896  TIP3      7133            0.0000000000
     72915      8494  TIP3      OH2            -4.1837996613      -29.4033938975       91.6361850488  TIP3      7134            0.0000000000
     72916      8494  TIP3      H1             -3.3363899480      -28.9652920814       91.8502280668  TIP3      7134            0.0000000000
     72917      8494  TIP3      H2             -4.1960274928      -30.1087570398       92.3208740088  TIP3      7134            0.0000000000
     72918      8495  TIP3      OH2            -3.8557084790      -31.3326113699       93.5093204711  TIP3      7135            0.0000000000
     72919      8495  TIP3      H1             -4.5790563000      -31.7977335082       93.9503949409  TIP3      7135            0.0000000000
     72920      8495  TIP3      H2             -3.2162297528      -31.1448644768       94.2320684836  TIP3      7135            0.0000000000
     72921      8496  TIP3      OH2            -4.0367702911      -28.6088451997      -96.1980943478  TIP3      7136            0.0000000000
     72922      8496  TIP3      H1             -3.2520590599      -28.9904711425      -96.6240621547  TIP3      7136            0.0000000000
     72923      8496  TIP3      H2             -3.9119742822      -27.6584460936      -96.4056195822  TIP3      7136            0.0000000000
     72924      8497  TIP3      OH2            -3.5376627400      -31.4455149110       89.8866502112  TIP3      7137            0.0000000000
     72925      8497  TIP3      H1             -4.0692571674      -31.1196657010       89.1568748063  TIP3      7137            0.0000000000
     72926      8497  TIP3      H2             -3.6165624264      -30.7603772033       90.5715640610  TIP3      7137            0.0000000000
     72927      8498  TIP3      OH2           -21.0131591769      -30.7696672917      -96.5866965647  TIP3      7138            0.0000000000
     72928      8498  TIP3      H1            -20.8329814124      -30.8033512934      -97.5495802756  TIP3      7138            0.0000000000
     72929      8498  TIP3      H2            -20.1121930825      -30.8819842808      -96.2241089455  TIP3      7138            0.0000000000
     72930      8499  TIP3      OH2            -5.1345021460      -30.8495232260      -90.9629126401  TIP3      7139            0.0000000000
     72931      8499  TIP3      H1             -4.5275911058      -31.6037539950      -90.8335426388  TIP3      7139            0.0000000000
     72932      8499  TIP3      H2             -4.5676822272      -30.0630540790      -90.9598626567  TIP3      7139            0.0000000000
     72933      8500  TIP3      OH2            -3.6555920041      -32.9712595756      -90.4096331996  TIP3      7140            0.0000000000
     72934      8500  TIP3      H1             -4.5316293186      -33.3770345228      -90.4884825823  TIP3      7140            0.0000000000
     72935      8500  TIP3      H2             -3.0790651137      -33.7355579516      -90.3660971513  TIP3      7140            0.0000000000
     72936      8501  TIP3      OH2            -5.9426937218      -36.8189574657       87.5114609735  TIP3      7141            0.0000000000
     72937      8501  TIP3      H1             -5.3460123968      -37.1686187879       88.1768976633  TIP3      7141            0.0000000000
     72938      8501  TIP3      H2             -6.7825572081      -37.2136293638       87.7401011237  TIP3      7141            0.0000000000
     72939      8502  TIP3      OH2            -5.7075404969      -33.9371738940      -93.9991583253  TIP3      7142            0.0000000000
     72940      8502  TIP3      H1             -6.5122013878      -33.6189181270      -93.5973313528  TIP3      7142            0.0000000000
     72941      8502  TIP3      H2             -5.1958450645      -33.1338524945      -94.1998370654  TIP3      7142            0.0000000000
     72942      8503  TIP3      OH2            -5.6644380975      -38.0227699241       92.5597819112  TIP3      7143            0.0000000000
     72943      8503  TIP3      H1             -5.5264878422      -38.4337323806       93.4240906838  TIP3      7143            0.0000000000
     72944      8503  TIP3      H2             -6.3107498290      -38.5820428967       92.1234016283  TIP3      7143            0.0000000000
     72945      8504  TIP3      OH2           -20.1586091291      -37.1182650147       97.0997383877  TIP3      7144            0.0000000000
     72946      8504  TIP3      H1            -19.7542524480      -37.9617333906       97.3903526683  TIP3      7144            0.0000000000
     72947      8504  TIP3      H2            -19.6761836275      -36.4574345356       97.5758556491  TIP3      7144            0.0000000000
     72948      8505  TIP3      OH2           -21.8789012134      -34.1519517454      -96.5230645372  TIP3      7145            0.0000000000
     72949      8505  TIP3      H1            -21.3474404498      -34.3952328614      -97.3062886942  TIP3      7145            0.0000000000
     72950      8505  TIP3      H2            -21.4614403184      -33.3211848796      -96.2671453123  TIP3      7145            0.0000000000
     72951      8506  TIP3      OH2           -21.6009446714      -39.2048918056      -94.1960841570  TIP3      7146            0.0000000000
     72952      8506  TIP3      H1            -22.1843180602      -39.3803243647      -93.4636790206  TIP3      7146            0.0000000000
     72953      8506  TIP3      H2            -22.0328007212      -38.5140693591      -94.7203451488  TIP3      7146            0.0000000000
     72954      8507  TIP3      OH2           -16.4446296420      -25.0269203754      -93.7765559868  TIP3      7147            0.0000000000
     72955      8507  TIP3      H1            -16.8289678992      -24.1795764257      -94.0362500845  TIP3      7147            0.0000000000
     72956      8507  TIP3      H2            -15.5307819115      -24.9401606631      -94.0495818616  TIP3      7147            0.0000000000
     72957      8508  TIP3      OH2            -4.9008333189      -39.6298608789      -92.4255615157  TIP3      7148            0.0000000000
     72958      8508  TIP3      H1             -5.7268558075      -39.3791485188      -92.8367631554  TIP3      7148            0.0000000000
     72959      8508  TIP3      H2             -4.6436358820      -40.4308174804      -92.8436014367  TIP3      7148            0.0000000000
     72960      8509  TIP3      OH2           -18.9929137579      -21.7654434317      -93.7212591087  TIP3      7149            0.0000000000
     72961      8509  TIP3      H1            -19.7365208236      -21.3122659385      -94.1409980646  TIP3      7149            0.0000000000
     72962      8509  TIP3      H2            -19.3754878332      -22.0411847435      -92.8820655451  TIP3      7149            0.0000000000
     72963      8510  TIP3      OH2           -16.5224681344      -22.2003637916      -94.6806455095  TIP3      7150            0.0000000000
     72964      8510  TIP3      H1            -17.4155672895      -22.0970105687      -94.2720300713  TIP3      7150            0.0000000000
     72965      8510  TIP3      H2            -16.5937783465      -21.5964638406      -95.4376602549  TIP3      7150            0.0000000000
     72966      8511  TIP3      OH2            -6.8443644072      -21.8677063857      -94.2280772979  TIP3      7151            0.0000000000
     72967      8511  TIP3      H1             -7.1162907367      -20.9638051169      -94.4576080003  TIP3      7151            0.0000000000
     72968      8511  TIP3      H2             -6.8031290485      -22.3244920732      -95.0844473379  TIP3      7151            0.0000000000
     72969      8512  TIP3      OH2            -6.4617091548      -40.2330842553       96.2759871555  TIP3      7152            0.0000000000
     72970      8512  TIP3      H1             -5.7519362217      -39.5946975177       96.0977015404  TIP3      7152            0.0000000000
     72971      8512  TIP3      H2             -7.2753828291      -39.7266911198       96.3906841752  TIP3      7152            0.0000000000
     72972      8513  TIP3      OH2            -4.4860678351      -39.0207759245       95.0408819593  TIP3      7153            0.0000000000
     72973      8513  TIP3      H1             -3.9182485892      -39.5857226965       94.5130633719  TIP3      7153            0.0000000000
     72974      8513  TIP3      H2             -4.1259337120      -38.1076901335       94.9747026607  TIP3      7153            0.0000000000
     72975      8514  TIP3      OH2           -20.2718571670      -39.8871442868       90.2301813557  TIP3      7154            0.0000000000
     72976      8514  TIP3      H1            -19.8273424980      -39.3027412872       89.6028989475  TIP3      7154            0.0000000000
     72977      8514  TIP3      H2            -20.9424588599      -39.3490367545       90.6505737121  TIP3      7154            0.0000000000
     72978      8515  TIP3      OH2           -14.4428062481      -39.9704232843       94.2602820283  TIP3      7155            0.0000000000
     72979      8515  TIP3      H1            -13.6436721190      -39.4444515786       94.1907213014  TIP3      7155            0.0000000000
     72980      8515  TIP3      H2            -14.6198564465      -39.9937909050       95.1955164029  TIP3      7155            0.0000000000
     72981      8516  TIP3      OH2            -9.0323642391      -39.7310288218       95.8737232699  TIP3      7156            0.0000000000
     72982      8516  TIP3      H1             -8.8581417505      -39.6612592928       94.9354739375  TIP3      7156            0.0000000000
     72983      8516  TIP3      H2             -9.2150113745      -40.6737489162       95.9781327881  TIP3      7156            0.0000000000
     72984      8517  TIP3      OH2           -20.3997505327      -23.9538278830       91.1681337554  TIP3      7157            0.0000000000
     72985      8517  TIP3      H1            -21.0247039815      -23.9539064259       90.4381379455  TIP3      7157            0.0000000000
     72986      8517  TIP3      H2            -20.3476544842      -23.0077097606       91.3325349909  TIP3      7157            0.0000000000
     72987      8518  TIP3      OH2           -17.1678340214      -39.8132603206      -89.3110790773  TIP3      7158            0.0000000000
     72988      8518  TIP3      H1            -16.2551202426      -40.0801389818      -89.4463448315  TIP3      7158            0.0000000000
     72989      8518  TIP3      H2            -17.5252027584      -40.5211442075      -88.7790642994  TIP3      7158            0.0000000000
     72990      8519  TIP3      OH2           -18.5449893451      -23.0154470884       88.1169878753  TIP3      7159            0.0000000000
     72991      8519  TIP3      H1            -18.8187675651      -22.6997843280       88.9891506093  TIP3      7159            0.0000000000
     72992      8519  TIP3      H2            -17.7599024430      -23.5314368336       88.3015060217  TIP3      7159            0.0000000000
     72993      8520  TIP3      OH2            -8.7413382366      -40.4672473046      -89.0936260852  TIP3      7160            0.0000000000
     72994      8520  TIP3      H1             -8.6472254071      -40.9389532222      -88.2676341071  TIP3      7160            0.0000000000
     72995      8520  TIP3      H2             -7.8547679629      -40.4922820153      -89.4588949495  TIP3      7160            0.0000000000
     72996      8521  TIP3      OH2            -5.6002820180      -24.4240031299      -90.3878483267  TIP3      7161            0.0000000000
     72997      8521  TIP3      H1             -6.3920877865      -24.5837025655      -90.9215892663  TIP3      7161            0.0000000000
     72998      8521  TIP3      H2             -5.6559203415      -23.4688308717      -90.2284972314  TIP3      7161            0.0000000000
     72999      8522  TIP3      OH2             0.0347147477      -31.5488641639      -95.2887060875  TIP3      7162            0.0000000000
     73000      8522  TIP3      H1              0.2075348882      -32.2925657869      -94.6905451609  TIP3      7162            0.0000000000
     73001      8522  TIP3      H2              0.8828790492      -31.0797577714      -95.2093688532  TIP3      7162            0.0000000000
     73002      8523  TIP3      OH2             1.0396345841      -27.1798801666      -96.8324469866  TIP3      7163            0.0000000000
     73003      8523  TIP3      H1              0.7208932159      -28.0220385589      -97.2104203547  TIP3      7163            0.0000000000
     73004      8523  TIP3      H2              1.9967500042      -27.3477895712      -96.8017539860  TIP3      7163            0.0000000000
     73005      8524  TIP3      OH2            -2.3715933369      -33.5498735649       93.3838722015  TIP3      7164            0.0000000000
     73006      8524  TIP3      H1             -2.7573418554      -32.6692409335       93.2479894486  TIP3      7164            0.0000000000
     73007      8524  TIP3      H2             -2.8713518690      -34.1027149735       92.7584583354  TIP3      7164            0.0000000000
     73008      8525  TIP3      OH2            -1.6506100901      -31.3529180541       95.4698359556  TIP3      7165            0.0000000000
     73009      8525  TIP3      H1             -1.3837687632      -32.1440184314       95.9420413889  TIP3      7165            0.0000000000
     73010      8525  TIP3      H2             -0.9323576994      -31.2822503482       94.8226903057  TIP3      7165            0.0000000000
     73011      8526  TIP3      OH2             8.5707151079      -23.1918611305       96.3163537187  TIP3      7166            0.0000000000
     73012      8526  TIP3      H1              9.2069139286      -23.8862236174       96.0407418381  TIP3      7166            0.0000000000
     73013      8526  TIP3      H2              8.3392821192      -23.4788695995       97.2020622630  TIP3      7166            0.0000000000
     73014      8527  TIP3      OH2             6.1011013618      -28.8613827673      -96.5199416756  TIP3      7167            0.0000000000
     73015      8527  TIP3      H1              6.4412302810      -29.5097334430      -97.1439415332  TIP3      7167            0.0000000000
     73016      8527  TIP3      H2              6.8348265836      -28.7394684774      -95.9006752865  TIP3      7167            0.0000000000
     73017      8528  TIP3      OH2            14.7383952671      -37.1965039561      -95.7016274544  TIP3      7168            0.0000000000
     73018      8528  TIP3      H1             14.9098126425      -36.6213351956      -94.9549891877  TIP3      7168            0.0000000000
     73019      8528  TIP3      H2             15.2641414737      -36.7650009344      -96.3921345334  TIP3      7168            0.0000000000
     73020      8529  TIP3      OH2             9.2382867048      -34.3934533212      -96.2029585063  TIP3      7169            0.0000000000
     73021      8529  TIP3      H1              9.4725481785      -35.3340925105      -96.1705230356  TIP3      7169            0.0000000000
     73022      8529  TIP3      H2              9.2475081994      -34.2260436349      -97.1507877417  TIP3      7169            0.0000000000
     73023      8530  TIP3      OH2             4.2446074222      -32.3620495621       95.7703544707  TIP3      7170            0.0000000000
     73024      8530  TIP3      H1              4.8403500771      -32.9249809698       96.2859953135  TIP3      7170            0.0000000000
     73025      8530  TIP3      H2              3.6500342217      -33.0220745471       95.3914996391  TIP3      7170            0.0000000000
     73026      8531  TIP3      OH2             3.8353720929      -29.7516668021      -94.6597610508  TIP3      7171            0.0000000000
     73027      8531  TIP3      H1              3.1164466538      -29.1292872700      -94.4446496077  TIP3      7171            0.0000000000
     73028      8531  TIP3      H2              4.5460390926      -29.1460099376      -94.9031079810  TIP3      7171            0.0000000000
     73029      8532  TIP3      OH2            11.9487469752      -36.9272287776       96.1531097291  TIP3      7172            0.0000000000
     73030      8532  TIP3      H1             11.7147139307      -37.6650866455       96.7061046084  TIP3      7172            0.0000000000
     73031      8532  TIP3      H2             12.5740041660      -36.4170564497       96.6890866238  TIP3      7172            0.0000000000
     73032      8533  TIP3      OH2             2.2773488880      -27.7375430012      -93.7777327487  TIP3      7173            0.0000000000
     73033      8533  TIP3      H1              2.2196041461      -26.8830373899      -94.2179302039  TIP3      7173            0.0000000000
     73034      8533  TIP3      H2              1.3765253829      -27.8319933280      -93.3858431022  TIP3      7173            0.0000000000
     73035      8534  TIP3      OH2            -1.6893976573      -28.1443550675       91.6990324223  TIP3      7174            0.0000000000
     73036      8534  TIP3      H1             -1.8546943016      -27.8301772606       90.8043097196  TIP3      7174            0.0000000000
     73037      8534  TIP3      H2             -1.6127509203      -27.3086711541       92.1855706330  TIP3      7174            0.0000000000
     73038      8535  TIP3      OH2            12.2536713173      -38.1788882347      -94.7897086407  TIP3      7175            0.0000000000
     73039      8535  TIP3      H1             11.5315291490      -37.5658273441      -94.9774075582  TIP3      7175            0.0000000000
     73040      8535  TIP3      H2             12.9655365278      -37.8506499852      -95.3822962975  TIP3      7175            0.0000000000
     73041      8536  TIP3      OH2             5.2711512759      -40.0398621231      -97.5970582376  TIP3      7176            0.0000000000
     73042      8536  TIP3      H1              5.2334672373      -40.9995179776      -97.4432249717  TIP3      7176            0.0000000000
     73043      8536  TIP3      H2              4.4639149418      -39.7664194600      -97.1564631138  TIP3      7176            0.0000000000
     73044      8537  TIP3      OH2            10.2586581547      -24.7125629895       95.0744368662  TIP3      7177            0.0000000000
     73045      8537  TIP3      H1             10.6382374471      -25.4125429019       94.5435858639  TIP3      7177            0.0000000000
     73046      8537  TIP3      H2             10.6369668630      -23.9129850533       94.6490259758  TIP3      7177            0.0000000000
     73047      8538  TIP3      OH2             2.5943790989      -30.4251994119       94.6410773339  TIP3      7178            0.0000000000
     73048      8538  TIP3      H1              2.2925170739      -30.7844904984       93.7963005538  TIP3      7178            0.0000000000
     73049      8538  TIP3      H2              3.2221959328      -31.0951728152       94.9925742498  TIP3      7178            0.0000000000
     73050      8539  TIP3      OH2             3.9174625535      -27.0100960935       97.3807195144  TIP3      7179            0.0000000000
     73051      8539  TIP3      H1              3.8864009576      -27.5205977304       96.5518927250  TIP3      7179            0.0000000000
     73052      8539  TIP3      H2              4.6966543141      -27.3956600735       97.8111777678  TIP3      7179            0.0000000000
     73053      8540  TIP3      OH2             2.9449830188      -31.6388545638      -96.4384264845  TIP3      7180            0.0000000000
     73054      8540  TIP3      H1              3.5362334019      -31.5415684718      -97.1933022875  TIP3      7180            0.0000000000
     73055      8540  TIP3      H2              3.3278866004      -31.0263221906      -95.7748332269  TIP3      7180            0.0000000000
     73056      8541  TIP3      OH2             3.8762171923      -27.2836356971      -91.6907331931  TIP3      7181            0.0000000000
     73057      8541  TIP3      H1              3.5407833285      -26.4978965444      -91.2359408158  TIP3      7181            0.0000000000
     73058      8541  TIP3      H2              3.2333559408      -27.4370310366      -92.4219608806  TIP3      7181            0.0000000000
     73059      8542  TIP3      OH2             0.9765099817      -31.2621426647      -92.6395022576  TIP3      7182            0.0000000000
     73060      8542  TIP3      H1              1.1269842026      -30.6579621849      -91.8984824719  TIP3      7182            0.0000000000
     73061      8542  TIP3      H2              0.0713001101      -31.1940454482      -92.9394873588  TIP3      7182            0.0000000000
     73062      8543  TIP3      OH2             7.6012912970      -25.1428133021       93.8505436764  TIP3      7183            0.0000000000
     73063      8543  TIP3      H1              7.9797838389      -24.8442777362       94.6789057948  TIP3      7183            0.0000000000
     73064      8543  TIP3      H2              7.0134269006      -24.4178819346       93.6194789913  TIP3      7183            0.0000000000
     73065      8544  TIP3      OH2            13.5203639144      -40.1643656978       90.2471088721  TIP3      7184            0.0000000000
     73066      8544  TIP3      H1             12.6327909900      -39.9787680259       90.6045156478  TIP3      7184            0.0000000000
     73067      8544  TIP3      H2             13.8305726603      -39.3013031519       89.9060427856  TIP3      7184            0.0000000000
     73068      8545  TIP3      OH2            14.6989188407      -25.7682464426       88.7359124471  TIP3      7185            0.0000000000
     73069      8545  TIP3      H1             14.8090235807      -24.8086723548       88.7962866323  TIP3      7185            0.0000000000
     73070      8545  TIP3      H2             15.5957747183      -26.0483913834       88.5297422675  TIP3      7185            0.0000000000
     73071      8546  TIP3      OH2            -2.2828347671      -29.0282238636      -93.5546953996  TIP3      7186            0.0000000000
     73072      8546  TIP3      H1             -2.7830863319      -29.0028577136      -94.4076436027  TIP3      7186            0.0000000000
     73073      8546  TIP3      H2             -2.3797342184      -29.9847216220      -93.4092476349  TIP3      7186            0.0000000000
     73074      8547  TIP3      OH2            -2.5700478985      -26.2754679594      -96.6879909185  TIP3      7187            0.0000000000
     73075      8547  TIP3      H1             -1.6165391770      -26.3326389125      -96.8154030888  TIP3      7187            0.0000000000
     73076      8547  TIP3      H2             -2.6527837883      -25.3989767544      -96.2954317323  TIP3      7187            0.0000000000
     73077      8548  TIP3      OH2            15.7126279370      -25.5373681633      -91.0661632911  TIP3      7188            0.0000000000
     73078      8548  TIP3      H1             15.5290033545      -26.4717591576      -91.1419227998  TIP3      7188            0.0000000000
     73079      8548  TIP3      H2             14.8445778340      -25.2381777361      -90.7054591830  TIP3      7188            0.0000000000
     73080      8549  TIP3      OH2             6.6376111645      -26.0237477175      -92.1622745759  TIP3      7189            0.0000000000
     73081      8549  TIP3      H1              6.6754850525      -25.1242173570      -91.7569393027  TIP3      7189            0.0000000000
     73082      8549  TIP3      H2              5.7374390307      -26.3187682074      -91.9933625317  TIP3      7189            0.0000000000
     73083      8550  TIP3      OH2             7.0767947455      -22.2378134121       92.2903096232  TIP3      7190            0.0000000000
     73084      8550  TIP3      H1              6.9718913665      -22.3363285849       91.3271713198  TIP3      7190            0.0000000000
     73085      8550  TIP3      H2              7.0784050095      -21.2828283403       92.4143402685  TIP3      7190            0.0000000000
     73086      8551  TIP3      OH2             0.7580839134      -23.5450113088       94.0580272554  TIP3      7191            0.0000000000
     73087      8551  TIP3      H1              0.8226553994      -23.6964526599       95.0291753005  TIP3      7191            0.0000000000
     73088      8551  TIP3      H2             -0.1899889943      -23.6644706029       93.9207904673  TIP3      7191            0.0000000000
     73089      8552  TIP3      OH2            10.1305656813      -23.0531997082       89.2499315111  TIP3      7192            0.0000000000
     73090      8552  TIP3      H1             10.5564880257      -23.8256222236       88.8725168301  TIP3      7192            0.0000000000
     73091      8552  TIP3      H2             10.1506793126      -23.2791853102       90.2012823357  TIP3      7192            0.0000000000
     73092      8553  TIP3      OH2             9.8081423514      -23.1288375483       92.0060742950  TIP3      7193            0.0000000000
     73093      8553  TIP3      H1              8.8575579285      -23.0301794975       92.2306263953  TIP3      7193            0.0000000000
     73094      8553  TIP3      H2             10.0477965373      -23.8347208335       92.6150289045  TIP3      7193            0.0000000000
     73095      8554  TIP3      OH2            -0.0531430641      -27.6932603112      -92.6418624685  TIP3      7194            0.0000000000
     73096      8554  TIP3      H1              0.1489100509      -27.8900310474      -91.6971116590  TIP3      7194            0.0000000000
     73097      8554  TIP3      H2             -0.9670854625      -27.9594266852      -92.8583821998  TIP3      7194            0.0000000000
     73098      8555  TIP3      OH2             7.3504409028      -38.9432735793      -93.2594155580  TIP3      7195            0.0000000000
     73099      8555  TIP3      H1              7.8269218714      -39.6072139600      -92.7503003759  TIP3      7195            0.0000000000
     73100      8555  TIP3      H2              6.5177593264      -39.4344677588      -93.3627419159  TIP3      7195            0.0000000000
     73101      8556  TIP3      OH2            -3.0423840463      -36.8655541510       94.7821847107  TIP3      7196            0.0000000000
     73102      8556  TIP3      H1             -2.3999438252      -36.8157225081       95.5042964333  TIP3      7196            0.0000000000
     73103      8556  TIP3      H2             -2.5425908488      -37.2365224328       94.0464680162  TIP3      7196            0.0000000000
     73104      8557  TIP3      OH2            -1.8281102041      -35.9971347110       90.2297734534  TIP3      7197            0.0000000000
     73105      8557  TIP3      H1             -1.3011327330      -35.3633212447       89.7629386129  TIP3      7197            0.0000000000
     73106      8557  TIP3      H2             -2.4795286718      -35.4444990000       90.6775868543  TIP3      7197            0.0000000000
     73107      8558  TIP3      OH2             5.2049425632      -36.5286171345       95.1934381686  TIP3      7198            0.0000000000
     73108      8558  TIP3      H1              4.2839479074      -36.5361989127       95.4711357186  TIP3      7198            0.0000000000
     73109      8558  TIP3      H2              5.7258784851      -36.6991828408       95.9899993437  TIP3      7198            0.0000000000
     73110      8559  TIP3      OH2             3.7516246496      -34.9698359055       91.6266761324  TIP3      7199            0.0000000000
     73111      8559  TIP3      H1              4.6681538241      -34.7843340227       91.8304226954  TIP3      7199            0.0000000000
     73112      8559  TIP3      H2              3.4709254907      -34.2813715267       91.0150398950  TIP3      7199            0.0000000000
     73113      8560  TIP3      OH2             9.6527323380      -37.3742462266      -96.2402238908  TIP3      7200            0.0000000000
     73114      8560  TIP3      H1              8.9389259069      -37.2572875353      -95.6107737516  TIP3      7200            0.0000000000
     73115      8560  TIP3      H2              9.1801782257      -37.5283273493      -97.0769370076  TIP3      7200            0.0000000000
     73116      8561  TIP3      OH2            12.8629293155      -21.6519952451      -89.9457504220  TIP3      7201            0.0000000000
     73117      8561  TIP3      H1             13.1308882185      -21.2936850955      -90.8144758281  TIP3      7201            0.0000000000
     73118      8561  TIP3      H2             13.6016369196      -21.3500905305      -89.3776130610  TIP3      7201            0.0000000000
     73119      8562  TIP3      OH2             0.5755615326      -29.1084717363      -90.3696617276  TIP3      7202            0.0000000000
     73120      8562  TIP3      H1              1.2832341084      -28.9480114088      -89.7095366450  TIP3      7202            0.0000000000
     73121      8562  TIP3      H2             -0.1886902635      -29.0003607014      -89.7417415438  TIP3      7202            0.0000000000
     73122      8563  TIP3      OH2             7.2035909707      -28.9881828612      -92.3000083122  TIP3      7203            0.0000000000
     73123      8563  TIP3      H1              6.9024066078      -29.3541444578      -91.4717864464  TIP3      7203            0.0000000000
     73124      8563  TIP3      H2              7.0490560153      -28.0334727976      -92.2185056269  TIP3      7203            0.0000000000
     73125      8564  TIP3      OH2             0.8311085410      -29.8976871406       96.9724605226  TIP3      7204            0.0000000000
     73126      8564  TIP3      H1              1.5682582384      -29.9183515177       96.3371907164  TIP3      7204            0.0000000000
     73127      8564  TIP3      H2              0.9538258821      -30.7290692945       97.4518458087  TIP3      7204            0.0000000000
     73128      8565  TIP3      OH2            -2.1062184128      -31.4568081483      -92.4515567371  TIP3      7205            0.0000000000
     73129      8565  TIP3      H1             -2.0030905111      -31.9604698483      -91.6173762988  TIP3      7205            0.0000000000
     73130      8565  TIP3      H2             -2.7689528120      -32.0209635171      -92.9243809185  TIP3      7205            0.0000000000
     73131      8566  TIP3      OH2             4.9175277495      -31.9010968197      -90.2501040628  TIP3      7206            0.0000000000
     73132      8566  TIP3      H1              4.5884987229      -32.1096681002      -91.1433203625  TIP3      7206            0.0000000000
     73133      8566  TIP3      H2              5.8312206195      -32.1752846719      -90.3448125295  TIP3      7206            0.0000000000
     73134      8567  TIP3      OH2            15.1830267973      -34.3121939257       90.7801721718  TIP3      7207            0.0000000000
     73135      8567  TIP3      H1             14.6885022017      -34.7006226208       90.0474946312  TIP3      7207            0.0000000000
     73136      8567  TIP3      H2             15.2958298242      -33.3770112899       90.4951314332  TIP3      7207            0.0000000000
     73137      8568  TIP3      OH2             3.2259549341      -26.3752977379       94.4009978119  TIP3      7208            0.0000000000
     73138      8568  TIP3      H1              3.7415427870      -25.5895453553       94.1495240504  TIP3      7208            0.0000000000
     73139      8568  TIP3      H2              2.3571653023      -26.1458420393       94.0521111732  TIP3      7208            0.0000000000
     73140      8569  TIP3      OH2            -1.0298775475      -31.5264729023       88.9144040637  TIP3      7209            0.0000000000
     73141      8569  TIP3      H1             -0.4003848247      -30.9045012379       89.3197789103  TIP3      7209            0.0000000000
     73142      8569  TIP3      H2             -1.9002216362      -31.2688865085       89.2383759709  TIP3      7209            0.0000000000
     73143      8570  TIP3      OH2             4.6744877010      -28.7278134138       93.9737379377  TIP3      7210            0.0000000000
     73144      8570  TIP3      H1              4.3621723521      -27.8033407340       93.9684363362  TIP3      7210            0.0000000000
     73145      8570  TIP3      H2              3.8910835937      -29.1797858078       94.3194329627  TIP3      7210            0.0000000000
     73146      8571  TIP3      OH2             3.3393473055      -23.7105464559       93.4689721837  TIP3      7211            0.0000000000
     73147      8571  TIP3      H1              2.3674248975      -23.5840429886       93.5807853748  TIP3      7211            0.0000000000
     73148      8571  TIP3      H2              3.6846534521      -22.8887852226       93.8376224029  TIP3      7211            0.0000000000
     73149      8572  TIP3      OH2            11.4045215837      -23.9429576395      -92.3149301323  TIP3      7212            0.0000000000
     73150      8572  TIP3      H1             10.7352912457      -24.4310849649      -92.8216400174  TIP3      7212            0.0000000000
     73151      8572  TIP3      H2             11.6313628250      -23.2714575391      -92.9869089237  TIP3      7212            0.0000000000
     73152      8573  TIP3      OH2            15.4509015625      -23.0782615464       89.2707852135  TIP3      7213            0.0000000000
     73153      8573  TIP3      H1             16.1385102404      -22.4408989666       89.0224320504  TIP3      7213            0.0000000000
     73154      8573  TIP3      H2             14.7048799155      -22.4936101193       89.5390713334  TIP3      7213            0.0000000000
     73155      8574  TIP3      OH2            -0.8544609706      -24.9222379837      -94.4890095712  TIP3      7214            0.0000000000
     73156      8574  TIP3      H1             -0.6031686453      -25.8473195739      -94.4867066326  TIP3      7214            0.0000000000
     73157      8574  TIP3      H2             -0.6327879224      -24.6074117012      -93.6005704855  TIP3      7214            0.0000000000
     73158      8575  TIP3      OH2             3.8585219285      -26.8434021425       89.9075343471  TIP3      7215            0.0000000000
     73159      8575  TIP3      H1              4.1257817485      -27.3916566459       90.6556718935  TIP3      7215            0.0000000000
     73160      8575  TIP3      H2              3.9744192985      -25.9346400624       90.2482489662  TIP3      7215            0.0000000000
     73161      8576  TIP3      OH2             0.3883250248      -29.6212554975       90.4116354300  TIP3      7216            0.0000000000
     73162      8576  TIP3      H1             -0.2634055221      -29.2154073572       91.0076926956  TIP3      7216            0.0000000000
     73163      8576  TIP3      H2              0.9293420445      -28.8516349324       90.1644406426  TIP3      7216            0.0000000000
     73164      8577  TIP3      OH2             6.6939141868      -25.1844406661       90.6486069184  TIP3      7217            0.0000000000
     73165      8577  TIP3      H1              5.8536996316      -24.7102604808       90.7119874269  TIP3      7217            0.0000000000
     73166      8577  TIP3      H2              7.2021117684      -24.6510853200       90.0412986087  TIP3      7217            0.0000000000
     73167      8578  TIP3      OH2             4.0164111122      -24.1583519760       90.6775051425  TIP3      7218            0.0000000000
     73168      8578  TIP3      H1              4.1658011369      -23.3314770271       90.1630969581  TIP3      7218            0.0000000000
     73169      8578  TIP3      H2              3.8212701855      -23.8180652578       91.5753310308  TIP3      7218            0.0000000000
     73170      8579  TIP3      OH2             2.8643044874      -37.3567276153       90.1478796941  TIP3      7219            0.0000000000
     73171      8579  TIP3      H1              2.6793433229      -36.5195706320       90.6081706750  TIP3      7219            0.0000000000
     73172      8579  TIP3      H2              3.6773854361      -37.6636982509       90.5643281358  TIP3      7219            0.0000000000
     73173      8580  TIP3      OH2            12.9284099065      -36.7362719901      -92.0673892752  TIP3      7220            0.0000000000
     73174      8580  TIP3      H1             12.0321622244      -36.4161164295      -92.1394673220  TIP3      7220            0.0000000000
     73175      8580  TIP3      H2             13.2600377935      -36.6798843967      -92.9629294640  TIP3      7220            0.0000000000
     73176      8581  TIP3      OH2             1.0197243672      -27.0100165829       89.3622564780  TIP3      7221            0.0000000000
     73177      8581  TIP3      H1              1.6487581167      -26.3222699539       89.5952110752  TIP3      7221            0.0000000000
     73178      8581  TIP3      H2              1.4537162724      -27.4224375277       88.6035553644  TIP3      7221            0.0000000000
     73179      8582  TIP3      OH2            12.6096817197      -23.6452122558      -96.3433785864  TIP3      7222            0.0000000000
     73180      8582  TIP3      H1             12.5194036474      -22.9666894543      -97.0326803406  TIP3      7222            0.0000000000
     73181      8582  TIP3      H2             13.5693954369      -23.6079818946      -96.1715406101  TIP3      7222            0.0000000000
     73182      8583  TIP3      OH2             2.9564153498      -24.0761093873      -88.4845627424  TIP3      7223            0.0000000000
     73183      8583  TIP3      H1              3.7488546284      -24.5502836328      -88.2118064002  TIP3      7223            0.0000000000
     73184      8583  TIP3      H2              2.9363580064      -24.2852930983      -89.4186218919  TIP3      7223            0.0000000000
     73185      8584  TIP3      OH2            -1.7401822279      -29.1787369114      -89.2128382664  TIP3      7224            0.0000000000
     73186      8584  TIP3      H1             -1.6578448118      -30.1359161003      -89.3803054198  TIP3      7224            0.0000000000
     73187      8584  TIP3      H2             -2.5716645791      -28.9243841595      -89.6527503763  TIP3      7224            0.0000000000
     73188      8585  TIP3      OH2             4.9161286717      -29.2216400137      -89.6985681437  TIP3      7225            0.0000000000
     73189      8585  TIP3      H1              4.5780880258      -28.8900535803      -90.5560815116  TIP3      7225            0.0000000000
     73190      8585  TIP3      H2              5.0248082333      -30.1805822899      -89.8754666238  TIP3      7225            0.0000000000
     73191      8586  TIP3      OH2             7.9950396409      -27.8347176778       87.4775142492  TIP3      7226            0.0000000000
     73192      8586  TIP3      H1              7.6136363802      -27.5973402923       88.3277930731  TIP3      7226            0.0000000000
     73193      8586  TIP3      H2              7.7149863310      -28.7432750872       87.3326661356  TIP3      7226            0.0000000000
     73194      8587  TIP3      OH2            -0.9095514506      -31.9458493380      -89.7666016229  TIP3      7227            0.0000000000
     73195      8587  TIP3      H1             -0.4729269912      -32.8005896435      -89.8343148914  TIP3      7227            0.0000000000
     73196      8587  TIP3      H2             -1.1307007966      -31.9607769788      -88.7945938795  TIP3      7227            0.0000000000
     73197      8588  TIP3      OH2             3.6658797285      -30.8357998285       89.9965693430  TIP3      7228            0.0000000000
     73198      8588  TIP3      H1              3.2523616446      -31.3525768289       90.6738860271  TIP3      7228            0.0000000000
     73199      8588  TIP3      H2              4.0075911269      -31.5010032466       89.3568598925  TIP3      7228            0.0000000000
     73200      8589  TIP3      OH2             4.8411722991      -32.5669154332       88.2673473812  TIP3      7229            0.0000000000
     73201      8589  TIP3      H1              4.6717173015      -32.8080687182       87.3448956845  TIP3      7229            0.0000000000
     73202      8589  TIP3      H2              5.8022683702      -32.5663396500       88.3004855014  TIP3      7229            0.0000000000
     73203      8590  TIP3      OH2             5.3894670054      -31.7614191488      -93.4902804062  TIP3      7230            0.0000000000
     73204      8590  TIP3      H1              6.1026590964      -31.9709773011      -94.0895880618  TIP3      7230            0.0000000000
     73205      8590  TIP3      H2              4.9863122022      -30.9686537435      -93.8685778323  TIP3      7230            0.0000000000
     73206      8591  TIP3      OH2             1.8376551097      -34.3196305001      -89.4415366703  TIP3      7231            0.0000000000
     73207      8591  TIP3      H1              1.1406883765      -34.9669880209      -89.5468224991  TIP3      7231            0.0000000000
     73208      8591  TIP3      H2              2.5372555026      -34.7099271264      -89.9777643602  TIP3      7231            0.0000000000
     73209      8592  TIP3      OH2            10.3294555838      -37.7415356648      -88.6475522604  TIP3      7232            0.0000000000
     73210      8592  TIP3      H1             10.1033618973      -38.6953818332      -88.7699004155  TIP3      7232            0.0000000000
     73211      8592  TIP3      H2              9.8554810837      -37.4855738722      -87.8601067194  TIP3      7232            0.0000000000
     73212      8593  TIP3      OH2             5.0837626901      -38.8473006859      -88.5888531671  TIP3      7233            0.0000000000
     73213      8593  TIP3      H1              5.0811840649      -39.2961736486      -89.4433496047  TIP3      7233            0.0000000000
     73214      8593  TIP3      H2              4.5979727185      -38.0331529565      -88.7103157879  TIP3      7233            0.0000000000
     73215      8594  TIP3      OH2             4.6717996275      -21.9300029298       89.2496673253  TIP3      7234            0.0000000000
     73216      8594  TIP3      H1              5.6259875648      -21.7893448795       89.3950191607  TIP3      7234            0.0000000000
     73217      8594  TIP3      H2              4.4594716620      -21.2201582156       88.6404143381  TIP3      7234            0.0000000000
     73218      8595  TIP3      OH2            15.3944479656      -23.0464168554      -96.1364924248  TIP3      7235            0.0000000000
     73219      8595  TIP3      H1             15.3474010949      -22.8357896248      -95.1822023905  TIP3      7235            0.0000000000
     73220      8595  TIP3      H2             15.9996631340      -22.3654542039      -96.4244869721  TIP3      7235            0.0000000000
     73221      8596  TIP3      OH2            14.9298405937      -23.4350174312      -93.2123944763  TIP3      7236            0.0000000000
     73222      8596  TIP3      H1             14.4412553324      -24.2055588786      -93.5648106717  TIP3      7236            0.0000000000
     73223      8596  TIP3      H2             15.4254430357      -23.8460636533      -92.4886165762  TIP3      7236            0.0000000000
     73224      8597  TIP3      OH2            15.0854687693      -31.3237040641       93.4868837043  TIP3      7237            0.0000000000
     73225      8597  TIP3      H1             14.3172125887      -31.8059254668       93.8677827371  TIP3      7237            0.0000000000
     73226      8597  TIP3      H2             15.6198413279      -31.1284897115       94.2701161117  TIP3      7237            0.0000000000
     73227      8598  TIP3      OH2            13.3363519305      -25.6958948748      -93.9195505991  TIP3      7238            0.0000000000
     73228      8598  TIP3      H1             12.6274719227      -25.3727632366      -93.3558766535  TIP3      7238            0.0000000000
     73229      8598  TIP3      H2             12.8286453574      -26.0952753927      -94.6431801004  TIP3      7238            0.0000000000
     73230      8599  TIP3      OH2            15.2530534166      -31.4960138407       89.9027759097  TIP3      7239            0.0000000000
     73231      8599  TIP3      H1             14.7956989054      -31.0295381087       89.1955730541  TIP3      7239            0.0000000000
     73232      8599  TIP3      H2             15.2941965451      -30.7998013253       90.5832884243  TIP3      7239            0.0000000000
     73233      8600  TIP3      OH2            12.9368417176      -32.8969348788       94.0717584565  TIP3      7240            0.0000000000
     73234      8600  TIP3      H1             12.6280809680      -33.8046755372       94.0716995811  TIP3      7240            0.0000000000
     73235      8600  TIP3      H2             12.4839112523      -32.5807872682       94.8753933689  TIP3      7240            0.0000000000
     73236      8601  TIP3      OH2            -2.1369433002      -30.6603245431      -96.5933517194  TIP3      7241            0.0000000000
     73237      8601  TIP3      H1             -1.9591239352      -30.8081511718      -97.5461523803  TIP3      7241            0.0000000000
     73238      8601  TIP3      H2             -1.2680209596      -30.9251862120      -96.2288142638  TIP3      7241            0.0000000000
     73239      8602  TIP3      OH2            15.1577778474      -33.0246132398      -90.0989493718  TIP3      7242            0.0000000000
     73240      8602  TIP3      H1             14.3420420601      -33.3456248579      -90.4999773041  TIP3      7242            0.0000000000
     73241      8602  TIP3      H2             15.7973378675      -33.7265969174      -90.3653670303  TIP3      7242            0.0000000000
     73242      8603  TIP3      OH2            13.1682719407      -34.6989004235      -96.7454295762  TIP3      7243            0.0000000000
     73243      8603  TIP3      H1             14.1116371310      -34.4482442406      -96.7879854817  TIP3      7243            0.0000000000
     73244      8603  TIP3      H2             12.9168793966      -34.5103696650      -95.8441940377  TIP3      7243            0.0000000000
     73245      8604  TIP3      OH2            14.9127476016      -39.9533952764      -88.8630861172  TIP3      7244            0.0000000000
     73246      8604  TIP3      H1             15.6235162216      -40.5893349891      -89.0635586798  TIP3      7244            0.0000000000
     73247      8604  TIP3      H2             15.3674270190      -39.1066869643      -89.0697182208  TIP3      7244            0.0000000000
     73248      8605  TIP3      OH2            15.0663063819      -37.7949318187      -90.3110519217  TIP3      7245            0.0000000000
     73249      8605  TIP3      H1             14.1181150963      -37.5625708219      -90.3147980507  TIP3      7245            0.0000000000
     73250      8605  TIP3      H2             15.0637397692      -38.3999927942      -91.0676953082  TIP3      7245            0.0000000000
     73251      8606  TIP3      OH2            15.0616798633      -37.9043912270       89.1792520604  TIP3      7246            0.0000000000
     73252      8606  TIP3      H1             15.4034050338      -38.6125686753       88.6048331854  TIP3      7246            0.0000000000
     73253      8606  TIP3      H2             15.7557823665      -37.2426773980       89.0998475175  TIP3      7246            0.0000000000
     73254      8607  TIP3      OH2            12.0873710931      -22.9860331194       94.1840937090  TIP3      7247            0.0000000000
     73255      8607  TIP3      H1             12.7759503074      -23.2372058206       93.5478485242  TIP3      7247            0.0000000000
     73256      8607  TIP3      H2             12.5700768189      -22.4608533792       94.8434389466  TIP3      7247            0.0000000000
     73257      8608  TIP3      OH2            -0.5224421453      -26.1190096389      -90.0263424052  TIP3      7248            0.0000000000
     73258      8608  TIP3      H1             -1.3204426020      -25.7605101531      -90.4449068407  TIP3      7248            0.0000000000
     73259      8608  TIP3      H2             -0.7593229488      -26.0732937905      -89.0969814943  TIP3      7248            0.0000000000
     73260      8609  TIP3      OH2             6.7402450175      -23.6243950686      -90.8201072740  TIP3      7249            0.0000000000
     73261      8609  TIP3      H1              6.8864965160      -23.9154786116      -89.8965661191  TIP3      7249            0.0000000000
     73262      8609  TIP3      H2              7.6114428385      -23.2800465437      -91.1102168716  TIP3      7249            0.0000000000
     73263      8610  TIP3      OH2             9.0556636485      -22.3341746132      -91.5183750917  TIP3      7250            0.0000000000
     73264      8610  TIP3      H1              9.7633323231      -22.9481834933      -91.7702983883  TIP3      7250            0.0000000000
     73265      8610  TIP3      H2              9.4115946998      -21.9053897666      -90.7157078864  TIP3      7250            0.0000000000
     73266      8611  TIP3      OH2            14.0524051881      -39.7247671911      -92.4684975402  TIP3      7251            0.0000000000
     73267      8611  TIP3      H1             13.1944741525      -39.4342863314      -92.8137194735  TIP3      7251            0.0000000000
     73268      8611  TIP3      H2             14.2207176366      -40.5418196781      -92.9475558468  TIP3      7251            0.0000000000
     73269      8612  TIP3      OH2             9.3150518548      -23.4119928636      -94.4958429201  TIP3      7252            0.0000000000
     73270      8612  TIP3      H1              8.4345389888      -23.2200214552      -94.8152372346  TIP3      7252            0.0000000000
     73271      8612  TIP3      H2              9.7746037487      -22.5732093588      -94.5770410165  TIP3      7252            0.0000000000
     73272      8613  TIP3      OH2            11.8954887043      -21.8961861850      -94.2537923362  TIP3      7253            0.0000000000
     73273      8613  TIP3      H1             11.8341481679      -20.9401350891      -94.4834202865  TIP3      7253            0.0000000000
     73274      8613  TIP3      H2             12.1094133286      -22.2856721424      -95.1261548209  TIP3      7253            0.0000000000
     73275      8614  TIP3      OH2            -0.7550362014      -23.1732067427      -96.7634162718  TIP3      7254            0.0000000000
     73276      8614  TIP3      H1             -0.7308608230      -23.6264709568      -95.9118355500  TIP3      7254            0.0000000000
     73277      8614  TIP3      H2              0.0635390634      -23.4428059252      -97.2134816137  TIP3      7254            0.0000000000
     73278      8615  TIP3      OH2             1.3648899877      -24.4452191711       96.5594584514  TIP3      7255            0.0000000000
     73279      8615  TIP3      H1              1.1793599424      -25.3686266969       96.7856831896  TIP3      7255            0.0000000000
     73280      8615  TIP3      H2              2.2043774959      -24.2747943096       97.0262555773  TIP3      7255            0.0000000000
     73281      8616  TIP3      OH2             3.9574198083      -23.9658146395      -97.2787473879  TIP3      7256            0.0000000000
     73282      8616  TIP3      H1              4.1457830708      -24.8732605641      -97.5720024049  TIP3      7256            0.0000000000
     73283      8616  TIP3      H2              4.0185819260      -24.0197172577      -96.3292283728  TIP3      7256            0.0000000000
     73284      8617  TIP3      OH2             7.3840690593      -38.2802047295       96.5772928769  TIP3      7257            0.0000000000
     73285      8617  TIP3      H1              6.7609919788      -38.9753599058       96.8661865369  TIP3      7257            0.0000000000
     73286      8617  TIP3      H2              8.0305098252      -38.7752432831       96.0508890722  TIP3      7257            0.0000000000
     73287      8618  TIP3      OH2            12.5754836756      -40.2211702100       96.7418129671  TIP3      7258            0.0000000000
     73288      8618  TIP3      H1             13.1555883610      -39.6849149530       96.1586517732  TIP3      7258            0.0000000000
     73289      8618  TIP3      H2             11.7118551459      -39.8847113430       96.4505868045  TIP3      7258            0.0000000000
     73290      8619  TIP3      OH2            14.3511667604      -39.0370398160       95.0952664741  TIP3      7259            0.0000000000
     73291      8619  TIP3      H1             14.8110450807      -39.5670145892       94.4296304029  TIP3      7259            0.0000000000
     73292      8619  TIP3      H2             14.6298716172      -38.1047086293       94.9950682593  TIP3      7259            0.0000000000
     73293      8620  TIP3      OH2             4.3788178960      -39.7524919827       94.3299388400  TIP3      7260            0.0000000000
     73294      8620  TIP3      H1              5.2260250026      -39.3261010252       94.2500197768  TIP3      7260            0.0000000000
     73295      8620  TIP3      H2              4.2359598847      -39.9089523097       95.2573496656  TIP3      7260            0.0000000000
     73296      8621  TIP3      OH2             9.9132330102      -39.7239588045       95.8689497771  TIP3      7261            0.0000000000
     73297      8621  TIP3      H1              9.9940881094      -39.6460025088       94.9180807742  TIP3      7261            0.0000000000
     73298      8621  TIP3      H2              9.6599838854      -40.6546074376       95.9963404638  TIP3      7261            0.0000000000
     73299      8622  TIP3      OH2            11.1630207790      -39.6420760048       91.2586367973  TIP3      7262            0.0000000000
     73300      8622  TIP3      H1             10.4670398267      -39.0044384755       91.3933179425  TIP3      7262            0.0000000000
     73301      8622  TIP3      H2             10.8926305010      -40.4506008301       91.7210323462  TIP3      7262            0.0000000000
     73302      8623  TIP3      OH2             5.7279900616      -37.5654819705       91.1183503700  TIP3      7263            0.0000000000
     73303      8623  TIP3      H1              5.5323614658      -38.3040685430       91.7471515704  TIP3      7263            0.0000000000
     73304      8623  TIP3      H2              5.3960593420      -36.8162078723       91.6078558796  TIP3      7263            0.0000000000
     73305      8624  TIP3      OH2             7.3327256772      -22.6445965485       89.5103419410  TIP3      7264            0.0000000000
     73306      8624  TIP3      H1              8.2529183251      -22.3954758667       89.3286348418  TIP3      7264            0.0000000000
     73307      8624  TIP3      H2              7.1125457856      -23.1372913459       88.7067878336  TIP3      7264            0.0000000000
     73308      8625  TIP3      OH2            14.0609717046      -23.2050081143       92.2240805277  TIP3      7265            0.0000000000
     73309      8625  TIP3      H1             13.8592490858      -23.9171948382       91.6068599348  TIP3      7265            0.0000000000
     73310      8625  TIP3      H2             14.0008005831      -22.4307340714       91.6188858371  TIP3      7265            0.0000000000
     73311      8626  TIP3      OH2            10.1497571064      -40.3950207711      -89.0149259953  TIP3      7266            0.0000000000
     73312      8626  TIP3      H1             10.2286683106      -40.9742960470      -88.2487972737  TIP3      7266            0.0000000000
     73313      8626  TIP3      H2             11.0157435315      -40.5095357460      -89.4349815052  TIP3      7266            0.0000000000
     73314      8627  TIP3      OH2            13.3115017461      -24.3926579286      -90.4158282123  TIP3      7267            0.0000000000
     73315      8627  TIP3      H1             12.4946756037      -24.5349478260      -90.9349542905  TIP3      7267            0.0000000000
     73316      8627  TIP3      H2             13.2018044912      -23.4464516561      -90.1810831960  TIP3      7267            0.0000000000
     73317      8628  TIP3      OH2            18.9652168001      -31.5984361899      -95.3857578052  TIP3      7268            0.0000000000
     73318      8628  TIP3      H1             19.0383355362      -32.2723528803      -94.6668542010  TIP3      7268            0.0000000000
     73319      8628  TIP3      H2             19.6933785601      -31.0188340407      -95.1348560565  TIP3      7268            0.0000000000
     73320      8629  TIP3      OH2            19.8798737790      -27.1397139515      -96.8734242934  TIP3      7269            0.0000000000
     73321      8629  TIP3      H1             19.5662366567      -28.0191778813      -97.1920318325  TIP3      7269            0.0000000000
     73322      8629  TIP3      H2             20.8099967056      -27.4102015013      -96.7796684682  TIP3      7269            0.0000000000
     73323      8630  TIP3      OH2            16.5349981358      -33.6243726821       93.3184653066  TIP3      7270            0.0000000000
     73324      8630  TIP3      H1             16.1244674935      -32.7271180235       93.2850194442  TIP3      7270            0.0000000000
     73325      8630  TIP3      H2             15.9256281537      -34.1188608404       92.7719970159  TIP3      7270            0.0000000000
     73326      8631  TIP3      OH2            17.2404022765      -31.3452481211       95.4568747083  TIP3      7271            0.0000000000
     73327      8631  TIP3      H1             17.4838481484      -32.1479872336       95.9507560295  TIP3      7271            0.0000000000
     73328      8631  TIP3      H2             17.9572778766      -31.2409566161       94.8192293753  TIP3      7271            0.0000000000
     73329      8632  TIP3      OH2            27.4231958648      -23.1899614384       96.3120406317  TIP3      7272            0.0000000000
     73330      8632  TIP3      H1             28.0479144484      -23.8901513766       96.0121810535  TIP3      7272            0.0000000000
     73331      8632  TIP3      H2             27.1985236641      -23.4525356210       97.2007583382  TIP3      7272            0.0000000000
     73332      8633  TIP3      OH2            33.4873346842      -37.1852776361      -95.7399674718  TIP3      7273            0.0000000000
     73333      8633  TIP3      H1             33.7418057752      -36.6571058553      -94.9379716638  TIP3      7273            0.0000000000
     73334      8633  TIP3      H2             34.1325564362      -36.7732502119      -96.3333804568  TIP3      7273            0.0000000000
     73335      8634  TIP3      OH2            28.1690084971      -34.4260353371      -96.2138327389  TIP3      7274            0.0000000000
     73336      8634  TIP3      H1             28.2744815955      -35.3861640230      -96.1604685649  TIP3      7274            0.0000000000
     73337      8634  TIP3      H2             28.0908847120      -34.1730119007      -97.1396626041  TIP3      7274            0.0000000000
     73338      8635  TIP3      OH2            21.2885418927      -36.3100093218       95.8121818608  TIP3      7275            0.0000000000
     73339      8635  TIP3      H1             21.3638065940      -35.4781157819       95.3144125848  TIP3      7275            0.0000000000
     73340      8635  TIP3      H2             20.9194686645      -36.8928502492       95.1185117769  TIP3      7275            0.0000000000
     73341      8636  TIP3      OH2            29.0149274509      -36.2762463855       94.1880950915  TIP3      7276            0.0000000000
     73342      8636  TIP3      H1             29.7463907115      -36.4581971854       94.8020047393  TIP3      7276            0.0000000000
     73343      8636  TIP3      H2             29.5291449309      -35.6718104108       93.6129118821  TIP3      7276            0.0000000000
     73344      8637  TIP3      OH2            17.8379855652      -33.8817728668       96.4882374542  TIP3      7277            0.0000000000
     73345      8637  TIP3      H1             18.5453008343      -34.3941831553       96.9533134601  TIP3      7277            0.0000000000
     73346      8637  TIP3      H2             17.9942589643      -34.1982256068       95.5909643149  TIP3      7277            0.0000000000
     73347      8638  TIP3      OH2            23.0444727007      -32.3595364383       95.8291545173  TIP3      7278            0.0000000000
     73348      8638  TIP3      H1             23.7166416767      -32.9149934278       96.2637923648  TIP3      7278            0.0000000000
     73349      8638  TIP3      H2             22.4989283302      -33.0103755506       95.3446333749  TIP3      7278            0.0000000000
     73350      8639  TIP3      OH2            34.0178151042      -35.8463750344      -93.4936847949  TIP3      7279            0.0000000000
     73351      8639  TIP3      H1             33.4138439500      -35.0773967030      -93.5701994345  TIP3      7279            0.0000000000
     73352      8639  TIP3      H2             34.0810352561      -35.9284785171      -92.5289930504  TIP3      7279            0.0000000000
     73353      8640  TIP3      OH2            20.4940958255      -37.0757664391      -95.7689362112  TIP3      7280            0.0000000000
     73354      8640  TIP3      H1             19.7175639983      -36.6515973515      -96.1600969984  TIP3      7280            0.0000000000
     73355      8640  TIP3      H2             19.9639406549      -37.2334415196      -94.9522896957  TIP3      7280            0.0000000000
     73356      8641  TIP3      OH2            30.7830497743      -36.9242401901       96.1819489843  TIP3      7281            0.0000000000
     73357      8641  TIP3      H1             30.7186996049      -37.6609844783       96.7894734865  TIP3      7281            0.0000000000
     73358      8641  TIP3      H2             31.4480254746      -36.3876607381       96.6709002188  TIP3      7281            0.0000000000
     73359      8642  TIP3      OH2            19.6581238170      -35.2771995167      -97.1342830452  TIP3      7282            0.0000000000
     73360      8642  TIP3      H1             20.3443029823      -34.8715140844      -96.5591910677  TIP3      7282            0.0000000000
     73361      8642  TIP3      H2             20.2555668733      -35.9323176945      -97.5932652602  TIP3      7282            0.0000000000
     73362      8643  TIP3      OH2            21.0859880165      -27.8506462908      -93.8832681139  TIP3      7283            0.0000000000
     73363      8643  TIP3      H1             21.1459820238      -26.8970617161      -94.0698959744  TIP3      7283            0.0000000000
     73364      8643  TIP3      H2             20.2678250259      -27.8673401751      -93.3431632175  TIP3      7283            0.0000000000
     73365      8644  TIP3      OH2            17.2075461322      -28.1198966818       91.6749561589  TIP3      7284            0.0000000000
     73366      8644  TIP3      H1             16.9134105888      -27.8320693598       90.8155916390  TIP3      7284            0.0000000000
     73367      8644  TIP3      H2             17.3018461656      -27.3073670231       92.2067416054  TIP3      7284            0.0000000000
     73368      8645  TIP3      OH2            31.1226836446      -38.2289320567      -94.8979114871  TIP3      7285            0.0000000000
     73369      8645  TIP3      H1             30.4307934569      -37.5517327595      -94.9265779239  TIP3      7285            0.0000000000
     73370      8645  TIP3      H2             31.8844793631      -37.7854324635      -95.3347788893  TIP3      7285            0.0000000000
     73371      8646  TIP3      OH2            24.1602626309      -40.0111766992      -97.5797296190  TIP3      7286            0.0000000000
     73372      8646  TIP3      H1             24.0539844360      -40.9825526062      -97.5008644465  TIP3      7286            0.0000000000
     73373      8646  TIP3      H2             23.3261838404      -39.7495981549      -97.1406675735  TIP3      7286            0.0000000000
     73374      8647  TIP3      OH2            29.0843868993      -24.7170960232       95.0372252124  TIP3      7287            0.0000000000
     73375      8647  TIP3      H1             29.5513465319      -25.3973784759       94.5506842478  TIP3      7287            0.0000000000
     73376      8647  TIP3      H2             29.4835099952      -23.9003116788       94.6553299598  TIP3      7287            0.0000000000
     73377      8648  TIP3      OH2            31.9700848038      -28.1721378898      -92.6459458804  TIP3      7288            0.0000000000
     73378      8648  TIP3      H1             32.0378942319      -28.8014680528      -93.3832228283  TIP3      7288            0.0000000000
     73379      8648  TIP3      H2             32.0908517408      -27.3372463593      -93.1280914344  TIP3      7288            0.0000000000
     73380      8649  TIP3      OH2            33.6930355339      -31.8953177620      -94.6581077863  TIP3      7289            0.0000000000
     73381      8649  TIP3      H1             33.1921351877      -31.0924144872      -94.5567672846  TIP3      7289            0.0000000000
     73382      8649  TIP3      H2             34.2713816580      -31.6372454567      -95.4043986033  TIP3      7289            0.0000000000
     73383      8650  TIP3      OH2            29.7555040693      -32.8850115886      -92.8687667033  TIP3      7290            0.0000000000
     73384      8650  TIP3      H1             29.7834012265      -32.0869282599      -92.3275784246  TIP3      7290            0.0000000000
     73385      8650  TIP3      H2             29.1013322716      -32.6153604948      -93.5407142250  TIP3      7290            0.0000000000
     73386      8651  TIP3      OH2            21.3956888936      -30.4343756807       94.6513293891  TIP3      7291            0.0000000000
     73387      8651  TIP3      H1             21.1569974719      -30.8335902484       93.8195671683  TIP3      7291            0.0000000000
     73388      8651  TIP3      H2             22.0907085477      -31.0431061096       94.9943211513  TIP3      7291            0.0000000000
     73389      8652  TIP3      OH2            21.8347730153      -31.6872732655      -96.4083737026  TIP3      7292            0.0000000000
     73390      8652  TIP3      H1             22.3567511380      -31.5249758037      -97.2220142348  TIP3      7292            0.0000000000
     73391      8652  TIP3      H2             22.1497989690      -30.9887269205      -95.8243146762  TIP3      7292            0.0000000000
     73392      8653  TIP3      OH2            19.6145850873      -31.1017940247      -92.5444864650  TIP3      7293            0.0000000000
     73393      8653  TIP3      H1             19.7363284432      -30.4306462948      -91.8493059753  TIP3      7293            0.0000000000
     73394      8653  TIP3      H2             18.7006510486      -30.9551110896      -92.7878114809  TIP3      7293            0.0000000000
     73395      8654  TIP3      OH2            33.4989774379      -25.7804963863       88.7127491957  TIP3      7294            0.0000000000
     73396      8654  TIP3      H1             33.6604384529      -24.8206043052       88.7963997644  TIP3      7294            0.0000000000
     73397      8654  TIP3      H2             34.4189568059      -26.0901410833       88.5908802603  TIP3      7294            0.0000000000
     73398      8655  TIP3      OH2            16.3346166210      -26.0906747485      -96.9232338765  TIP3      7295            0.0000000000
     73399      8655  TIP3      H1             17.1891819819      -26.4828566883      -96.7443861030  TIP3      7295            0.0000000000
     73400      8655  TIP3      H2             16.1486721702      -25.4510328892      -96.2251390884  TIP3      7295            0.0000000000
     73401      8656  TIP3      OH2            34.5632113678      -25.5411449075      -91.0738009120  TIP3      7296            0.0000000000
     73402      8656  TIP3      H1             34.4677176489      -26.5043261690      -91.1294051041  TIP3      7296            0.0000000000
     73403      8656  TIP3      H2             33.7099893370      -25.2178254770      -90.7554559710  TIP3      7296            0.0000000000
     73404      8657  TIP3      OH2            25.9033570340      -22.2417008026       92.2871081014  TIP3      7297            0.0000000000
     73405      8657  TIP3      H1             25.8037666208      -22.3072491297       91.3460993825  TIP3      7297            0.0000000000
     73406      8657  TIP3      H2             25.9152918340      -21.2827587960       92.4687395162  TIP3      7297            0.0000000000
     73407      8658  TIP3      OH2            31.6317527648      -34.0562599944      -90.6279064047  TIP3      7298            0.0000000000
     73408      8658  TIP3      H1             31.1883389239      -33.5957568781      -91.3532150317  TIP3      7298            0.0000000000
     73409      8658  TIP3      H2             31.6537414750      -34.9770439200      -90.9582710718  TIP3      7298            0.0000000000
     73410      8659  TIP3      OH2            18.7854817313      -27.6300771378      -92.6012945884  TIP3      7299            0.0000000000
     73411      8659  TIP3      H1             19.0303860188      -28.0524303323      -91.7480368016  TIP3      7299            0.0000000000
     73412      8659  TIP3      H2             17.9532557114      -28.0647866991      -92.8111863069  TIP3      7299            0.0000000000
     73413      8660  TIP3      OH2            21.6754862134      -39.2416902760      -96.5278746385  TIP3      7300            0.0000000000
     73414      8660  TIP3      H1             20.8126926352      -39.3420027350      -96.9965981992  TIP3      7300            0.0000000000
     73415      8660  TIP3      H2             21.4246654268      -38.3435583291      -96.2223830713  TIP3      7300            0.0000000000
     73416      8661  TIP3      OH2            26.2287737984      -39.3549709061      -93.1296729819  TIP3      7301            0.0000000000
     73417      8661  TIP3      H1             26.5889580009      -39.9844403048      -92.5093910345  TIP3      7301            0.0000000000
     73418      8661  TIP3      H2             25.3020049486      -39.6791119768      -93.2253477271  TIP3      7301            0.0000000000
     73419      8662  TIP3      OH2            29.4318986659      -35.7157430178      -92.3950004588  TIP3      7302            0.0000000000
     73420      8662  TIP3      H1             28.8379380955      -35.8659698036      -91.6194274118  TIP3      7302            0.0000000000
     73421      8662  TIP3      H2             29.2324305724      -34.8020161104      -92.6530300298  TIP3      7302            0.0000000000
     73422      8663  TIP3      OH2            25.7620516258      -36.9381397067       88.7670053401  TIP3      7303            0.0000000000
     73423      8663  TIP3      H1             25.4777400478      -36.9858332155       89.6973918553  TIP3      7303            0.0000000000
     73424      8663  TIP3      H2             25.4694933599      -37.8093126336       88.4759509503  TIP3      7303            0.0000000000
     73425      8664  TIP3      OH2            21.5451141252      -34.2071807398      -95.4323820160  TIP3      7304            0.0000000000
     73426      8664  TIP3      H1             20.8241008656      -34.2190569477      -94.7959116226  TIP3      7304            0.0000000000
     73427      8664  TIP3      H2             21.5196983095      -33.2892898430      -95.7977515520  TIP3      7304            0.0000000000
     73428      8665  TIP3      OH2            21.5559060038      -34.0137938722       94.1448029041  TIP3      7305            0.0000000000
     73429      8665  TIP3      H1             20.6293693560      -34.3236925310       94.0697706485  TIP3      7305            0.0000000000
     73430      8665  TIP3      H2             21.9121232086      -34.4006464731       93.3198393196  TIP3      7305            0.0000000000
     73431      8666  TIP3      OH2            26.1714309694      -33.3717527685      -90.2579017396  TIP3      7306            0.0000000000
     73432      8666  TIP3      H1             25.6099974470      -34.1418696812      -90.0304499397  TIP3      7306            0.0000000000
     73433      8666  TIP3      H2             26.9923474552      -33.5664035944      -89.7930092719  TIP3      7306            0.0000000000
     73434      8667  TIP3      OH2            19.1130483324      -33.6157087504      -93.6823115752  TIP3      7307            0.0000000000
     73435      8667  TIP3      H1             19.2044842459      -33.3865791655      -92.7447826147  TIP3      7307            0.0000000000
     73436      8667  TIP3      H2             18.7953459491      -34.5223370358      -93.6005536603  TIP3      7307            0.0000000000
     73437      8668  TIP3      OH2            15.7148941512      -36.5795712311       95.2257409719  TIP3      7308            0.0000000000
     73438      8668  TIP3      H1             16.4282639006      -36.7406735546       95.8670005871  TIP3      7308            0.0000000000
     73439      8668  TIP3      H2             16.1270491590      -36.9277741594       94.4417171593  TIP3      7308            0.0000000000
     73440      8669  TIP3      OH2            17.0962709768      -35.9745204647       90.2755883497  TIP3      7309            0.0000000000
     73441      8669  TIP3      H1             17.6398304372      -35.4469466148       89.6787555617  TIP3      7309            0.0000000000
     73442      8669  TIP3      H2             16.4070018933      -35.3669132775       90.5838324458  TIP3      7309            0.0000000000
     73443      8670  TIP3      OH2            24.1802800350      -36.5018305600       95.1598755289  TIP3      7310            0.0000000000
     73444      8670  TIP3      H1             23.2321136807      -36.5500499161       95.4112130191  TIP3      7310            0.0000000000
     73445      8670  TIP3      H2             24.5795241608      -36.6669158901       96.0163304051  TIP3      7310            0.0000000000
     73446      8671  TIP3      OH2            18.9177451376      -34.9539638941       94.0402079441  TIP3      7311            0.0000000000
     73447      8671  TIP3      H1             18.0499724125      -34.7948258630       93.6216133304  TIP3      7311            0.0000000000
     73448      8671  TIP3      H2             19.2585086051      -35.7706644069       93.6218427760  TIP3      7311            0.0000000000
     73449      8672  TIP3      OH2            22.5531606297      -34.8918533287       91.7088770651  TIP3      7312            0.0000000000
     73450      8672  TIP3      H1             23.5150266164      -34.8217704698       91.8302525229  TIP3      7312            0.0000000000
     73451      8672  TIP3      H2             22.3062724576      -34.2900038422       90.9862734278  TIP3      7312            0.0000000000
     73452      8673  TIP3      OH2            28.5168712386      -37.3824172443      -96.3867882045  TIP3      7313            0.0000000000
     73453      8673  TIP3      H1             27.9276636289      -37.2492200531      -95.5974681710  TIP3      7313            0.0000000000
     73454      8673  TIP3      H2             27.8312839655      -37.5349988993      -97.0264798119  TIP3      7313            0.0000000000
     73455      8674  TIP3      OH2            21.2656011870      -33.7829913139       89.2606125519  TIP3      7314            0.0000000000
     73456      8674  TIP3      H1             20.7045516483      -34.1670477498       88.5626029575  TIP3      7314            0.0000000000
     73457      8674  TIP3      H2             22.0420712312      -33.5688078007       88.7526662753  TIP3      7314            0.0000000000
     73458      8675  TIP3      OH2            31.7231177431      -21.6856704335      -89.9386679212  TIP3      7315            0.0000000000
     73459      8675  TIP3      H1             31.9800527653      -21.2832450549      -90.8041916237  TIP3      7315            0.0000000000
     73460      8675  TIP3      H2             32.4379947765      -21.3046352756      -89.3913646353  TIP3      7315            0.0000000000
     73461      8676  TIP3      OH2            19.4246535621      -29.1232795425      -90.4076165493  TIP3      7316            0.0000000000
     73462      8676  TIP3      H1             20.1451977055      -28.9630999785      -89.8026296521  TIP3      7316            0.0000000000
     73463      8676  TIP3      H2             18.6234623947      -29.0792462902      -89.8389076777  TIP3      7316            0.0000000000
     73464      8677  TIP3      OH2            25.3413038856      -33.8562555695       97.0455584779  TIP3      7317            0.0000000000
     73465      8677  TIP3      H1             25.9848275426      -34.3437102679       96.5389098513  TIP3      7317            0.0000000000
     73466      8677  TIP3      H2             25.2586362219      -34.3376131650       97.8713826351  TIP3      7317            0.0000000000
     73467      8678  TIP3      OH2            20.6081055355      -37.1987582776       93.2802290507  TIP3      7318            0.0000000000
     73468      8678  TIP3      H1             20.2203769071      -38.1068934266       93.4052107263  TIP3      7318            0.0000000000
     73469      8678  TIP3      H2             21.3470694720      -37.6263376191       92.8350136185  TIP3      7318            0.0000000000
     73470      8679  TIP3      OH2            28.5075751810      -36.3923428948       89.4487044179  TIP3      7319            0.0000000000
     73471      8679  TIP3      H1             27.5696715845      -36.3014514303       89.1745879728  TIP3      7319            0.0000000000
     73472      8679  TIP3      H2             28.7696210121      -35.4804587945       89.5885497091  TIP3      7319            0.0000000000
     73473      8680  TIP3      OH2            19.7377973489      -29.8037504581       96.9924355157  TIP3      7320            0.0000000000
     73474      8680  TIP3      H1             20.3950758867      -29.9028557187       96.2710905121  TIP3      7320            0.0000000000
     73475      8680  TIP3      H2             19.7717339308      -30.6880108332       97.4003054401  TIP3      7320            0.0000000000
     73476      8681  TIP3      OH2            33.9793559145      -34.3223877985       90.7841596716  TIP3      7321            0.0000000000
     73477      8681  TIP3      H1             33.5349239388      -34.7074777594       90.0193774700  TIP3      7321            0.0000000000
     73478      8681  TIP3      H2             34.1544271515      -33.4166049116       90.4416896526  TIP3      7321            0.0000000000
     73479      8682  TIP3      OH2            34.0488407629      -28.4904370027      -91.1237443903  TIP3      7322            0.0000000000
     73480      8682  TIP3      H1             33.1825931553      -28.3223453421      -91.5702289333  TIP3      7322            0.0000000000
     73481      8682  TIP3      H2             34.6166004841      -28.5293317973      -91.9277271224  TIP3      7322            0.0000000000
     73482      8683  TIP3      OH2            32.3692453690      -25.5206210333       91.1760783531  TIP3      7323            0.0000000000
     73483      8683  TIP3      H1             32.0112695424      -26.3569341302       91.4770936231  TIP3      7323            0.0000000000
     73484      8683  TIP3      H2             32.6879591094      -25.7110970009       90.2697684789  TIP3      7323            0.0000000000
     73485      8684  TIP3      OH2            17.8591587518      -31.4947728956       88.8997749844  TIP3      7324            0.0000000000
     73486      8684  TIP3      H1             18.4642548512      -30.8688573462       89.2900399249  TIP3      7324            0.0000000000
     73487      8684  TIP3      H2             16.9832958899      -31.2502154530       89.2339165508  TIP3      7324            0.0000000000
     73488      8685  TIP3      OH2            24.0055889036      -24.5600817967      -94.5055857343  TIP3      7325            0.0000000000
     73489      8685  TIP3      H1             24.4291216286      -23.7128441006      -94.6985643296  TIP3      7325            0.0000000000
     73490      8685  TIP3      H2             24.5342041734      -24.8394505967      -93.7393287371  TIP3      7325            0.0000000000
     73491      8686  TIP3      OH2            29.9558641868      -27.5560953471       89.0289311902  TIP3      7326            0.0000000000
     73492      8686  TIP3      H1             30.1675399298      -27.9865168601       89.8781449607  TIP3      7326            0.0000000000
     73493      8686  TIP3      H2             28.9801390014      -27.6388664430       89.0235501313  TIP3      7326            0.0000000000
     73494      8687  TIP3      OH2            30.2635408424      -23.9864226312      -92.3115028319  TIP3      7327            0.0000000000
     73495      8687  TIP3      H1             29.5663933758      -24.4287646748      -92.8181733791  TIP3      7327            0.0000000000
     73496      8687  TIP3      H2             30.4802296984      -23.2699797397      -92.9587043724  TIP3      7327            0.0000000000
     73497      8688  TIP3      OH2            34.2705335169      -23.0789274445       89.1740149225  TIP3      7328            0.0000000000
     73498      8688  TIP3      H1             34.9760575905      -22.4382311126       89.0321655044  TIP3      7328            0.0000000000
     73499      8688  TIP3      H2             33.5614161690      -22.5131182187       89.5519121463  TIP3      7328            0.0000000000
     73500      8689  TIP3      OH2            17.1387505711      -37.1468853570      -92.3131559377  TIP3      7329            0.0000000000
     73501      8689  TIP3      H1             17.3432398278      -36.3776386949      -92.8488496174  TIP3      7329            0.0000000000
     73502      8689  TIP3      H2             17.9951672495      -37.6314030687      -92.4169790471  TIP3      7329            0.0000000000
     73503      8690  TIP3      OH2            30.6278555969      -28.8673828489       91.2555403183  TIP3      7330            0.0000000000
     73504      8690  TIP3      H1             30.3682204163      -29.6275759736       91.7772173303  TIP3      7330            0.0000000000
     73505      8690  TIP3      H2             31.5789925170      -28.7868232435       91.4340340439  TIP3      7330            0.0000000000
     73506      8691  TIP3      OH2            18.0146374132      -24.9247638639      -94.4790772180  TIP3      7331            0.0000000000
     73507      8691  TIP3      H1             18.2340680514      -25.8609578470      -94.3923648228  TIP3      7331            0.0000000000
     73508      8691  TIP3      H2             18.2229237828      -24.6151210701      -93.5838996166  TIP3      7331            0.0000000000
     73509      8692  TIP3      OH2            27.1328729776      -36.9932922822      -94.0543290688  TIP3      7332            0.0000000000
     73510      8692  TIP3      H1             27.7611507768      -36.8239651531      -93.3266915830  TIP3      7332            0.0000000000
     73511      8692  TIP3      H2             26.7183002536      -37.8410528246      -93.7755233811  TIP3      7332            0.0000000000
     73512      8693  TIP3      OH2            27.8512695602      -37.3254118885       91.8929524072  TIP3      7333            0.0000000000
     73513      8693  TIP3      H1             28.0697646677      -36.9060053078       91.0246314446  TIP3      7333            0.0000000000
     73514      8693  TIP3      H2             28.4758794107      -36.8921329572       92.4864108759  TIP3      7333            0.0000000000
     73515      8694  TIP3      OH2            25.0704214777      -35.5912667388       92.6420759954  TIP3      7334            0.0000000000
     73516      8694  TIP3      H1             25.8527316318      -35.0359016217       92.6755062514  TIP3      7334            0.0000000000
     73517      8694  TIP3      H2             24.7817671009      -35.6945504467       93.5686587356  TIP3      7334            0.0000000000
     73518      8695  TIP3      OH2            26.0021924666      -38.5275983607       93.6349492877  TIP3      7335            0.0000000000
     73519      8695  TIP3      H1             25.5422279208      -37.8597355410       94.1691753789  TIP3      7335            0.0000000000
     73520      8695  TIP3      H2             26.5916380919      -37.9973284636       93.0489029308  TIP3      7335            0.0000000000
     73521      8696  TIP3      OH2            22.8871767568      -24.0937825894       90.6854075801  TIP3      7336            0.0000000000
     73522      8696  TIP3      H1             23.0656655057      -23.3119175917       90.1686508549  TIP3      7336            0.0000000000
     73523      8696  TIP3      H2             22.6738020069      -23.7764740540       91.5648545419  TIP3      7336            0.0000000000
     73524      8697  TIP3      OH2            21.5752164400      -37.4747788155       90.3845691256  TIP3      7337            0.0000000000
     73525      8697  TIP3      H1             21.5271912423      -36.5236041068       90.5923286454  TIP3      7337            0.0000000000
     73526      8697  TIP3      H2             22.5081874276      -37.6736400012       90.5419332236  TIP3      7337            0.0000000000
     73527      8698  TIP3      OH2            31.8039088204      -36.6919282070      -92.0319443156  TIP3      7338            0.0000000000
     73528      8698  TIP3      H1             30.8676248675      -36.4027152957      -92.1524165123  TIP3      7338            0.0000000000
     73529      8698  TIP3      H2             32.1147322381      -36.7272862722      -92.9556236037  TIP3      7338            0.0000000000
     73530      8699  TIP3      OH2            31.4761840725      -23.6594152798      -96.3658540483  TIP3      7339            0.0000000000
     73531      8699  TIP3      H1             31.3721590537      -22.9762094147      -97.0500021918  TIP3      7339            0.0000000000
     73532      8699  TIP3      H2             32.4160161941      -23.5959531523      -96.1446184744  TIP3      7339            0.0000000000
     73533      8700  TIP3      OH2            19.4061541320      -38.8658976773       97.2389983816  TIP3      7340            0.0000000000
     73534      8700  TIP3      H1             19.1957217176      -39.1615136579       96.3502053998  TIP3      7340            0.0000000000
     73535      8700  TIP3      H2             18.9407395842      -39.6962461473       97.5004017989  TIP3      7340            0.0000000000
     73536      8701  TIP3      OH2            17.8784085086      -25.6356377399       93.2887960772  TIP3      7341            0.0000000000
     73537      8701  TIP3      H1             17.0831167994      -25.0957491306       93.3038392311  TIP3      7341            0.0000000000
     73538      8701  TIP3      H2             18.4256518645      -25.1309168790       92.6683554500  TIP3      7341            0.0000000000
     73539      8702  TIP3      OH2            17.1068444973      -22.9809895763      -90.0950374435  TIP3      7342            0.0000000000
     73540      8702  TIP3      H1             17.7249374497      -23.1604542202      -89.3614530269  TIP3      7342            0.0000000000
     73541      8702  TIP3      H2             16.7432627614      -23.8452089119      -90.3217798750  TIP3      7342            0.0000000000
     73542      8703  TIP3      OH2            28.3370125021      -25.6161658135      -89.7991184503  TIP3      7343            0.0000000000
     73543      8703  TIP3      H1             27.9737811191      -26.4871406848      -89.5711036831  TIP3      7343            0.0000000000
     73544      8703  TIP3      H2             29.0377447004      -25.4950860410      -89.1522261713  TIP3      7343            0.0000000000
     73545      8704  TIP3      OH2            30.4938858916      -24.7210797155       87.8122573540  TIP3      7344            0.0000000000
     73546      8704  TIP3      H1             30.7525899710      -25.5372974046       88.2821611198  TIP3      7344            0.0000000000
     73547      8704  TIP3      H2             31.2627486722      -24.5662454670       87.2670097891  TIP3      7344            0.0000000000
     73548      8705  TIP3      OH2            17.1078735036      -29.1613704159      -89.1479325918  TIP3      7345            0.0000000000
     73549      8705  TIP3      H1             17.2263917546      -30.1039013960      -89.4061901195  TIP3      7345            0.0000000000
     73550      8705  TIP3      H2             16.3101795667      -28.9491846156      -89.6438092071  TIP3      7345            0.0000000000
     73551      8706  TIP3      OH2            17.9980376130      -31.9597521572      -89.7037608035  TIP3      7346            0.0000000000
     73552      8706  TIP3      H1             18.3824588025      -32.8408515622      -89.8280518508  TIP3      7346            0.0000000000
     73553      8706  TIP3      H2             17.6955058675      -31.9816177560      -88.7783958134  TIP3      7346            0.0000000000
     73554      8707  TIP3      OH2            22.4143898562      -35.4572906983      -91.0796605337  TIP3      7347            0.0000000000
     73555      8707  TIP3      H1             22.3805644814      -36.2287860129      -91.6887003616  TIP3      7347            0.0000000000
     73556      8707  TIP3      H2             22.2784710555      -34.7934070585      -91.7776504594  TIP3      7347            0.0000000000
     73557      8708  TIP3      OH2            23.2643860949      -37.6465577762      -94.7355575026  TIP3      7348            0.0000000000
     73558      8708  TIP3      H1             23.5260909812      -36.7398854165      -94.5871983368  TIP3      7348            0.0000000000
     73559      8708  TIP3      H2             22.3255931301      -37.6380742550      -94.4369193804  TIP3      7348            0.0000000000
     73560      8709  TIP3      OH2            28.6002890411      -34.0278127770      -88.5685250534  TIP3      7349            0.0000000000
     73561      8709  TIP3      H1             28.8215501903      -34.9646591535      -88.6077326709  TIP3      7349            0.0000000000
     73562      8709  TIP3      H2             29.4676461667      -33.6050295772      -88.5220987604  TIP3      7349            0.0000000000
     73563      8710  TIP3      OH2            20.6768800510      -34.3418439559      -89.4114584972  TIP3      7350            0.0000000000
     73564      8710  TIP3      H1             19.9361177658      -34.9710316372      -89.5387907159  TIP3      7350            0.0000000000
     73565      8710  TIP3      H2             21.3783183078      -34.7315057154      -89.9665861210  TIP3      7350            0.0000000000
     73566      8711  TIP3      OH2            23.8943288818      -40.0489185345      -93.7497981915  TIP3      7351            0.0000000000
     73567      8711  TIP3      H1             23.6418247471      -39.0992195995      -93.7228392761  TIP3      7351            0.0000000000
     73568      8711  TIP3      H2             22.9701190993      -40.3379445101      -93.8497743318  TIP3      7351            0.0000000000
     73569      8712  TIP3      OH2            24.7736910046      -35.5836961041      -89.8019818324  TIP3      7352            0.0000000000
     73570      8712  TIP3      H1             24.4519683482      -35.7069000645      -88.8916496226  TIP3      7352            0.0000000000
     73571      8712  TIP3      H2             23.9278607070      -35.6439657928      -90.2875104974  TIP3      7352            0.0000000000
     73572      8713  TIP3      OH2            27.4644291228      -36.3282347535      -90.6677939943  TIP3      7353            0.0000000000
     73573      8713  TIP3      H1             26.4988624722      -36.2892628221      -90.5477349422  TIP3      7353            0.0000000000
     73574      8713  TIP3      H2             27.7239138850      -36.9743857332      -89.9893506708  TIP3      7353            0.0000000000
     73575      8714  TIP3      OH2            29.0307605581      -37.7095221396      -88.7393189275  TIP3      7354            0.0000000000
     73576      8714  TIP3      H1             28.9803507372      -38.6842406123      -88.7402936037  TIP3      7354            0.0000000000
     73577      8714  TIP3      H2             28.7549055580      -37.4362062153      -87.8343531944  TIP3      7354            0.0000000000
     73578      8715  TIP3      OH2            18.9155222801      -36.3815106066      -89.7015171182  TIP3      7355            0.0000000000
     73579      8715  TIP3      H1             19.0139526301      -37.1968657003      -90.2368291481  TIP3      7355            0.0000000000
     73580      8715  TIP3      H2             18.7906652483      -36.8236990354      -88.8224338968  TIP3      7355            0.0000000000
     73581      8716  TIP3      OH2            23.7682094291      -40.6742476987      -90.5577797083  TIP3      7356            0.0000000000
     73582      8716  TIP3      H1             24.5224043323      -41.2184228180      -90.7470271602  TIP3      7356            0.0000000000
     73583      8716  TIP3      H2             23.5603636098      -40.2766450657      -91.4322880366  TIP3      7356            0.0000000000
     73584      8717  TIP3      OH2            24.0268214543      -38.8627202893      -88.5752657353  TIP3      7357            0.0000000000
     73585      8717  TIP3      H1             23.8941235849      -39.2854039409      -89.4468363642  TIP3      7357            0.0000000000
     73586      8717  TIP3      H2             23.4754445355      -38.0458403181      -88.6612488281  TIP3      7357            0.0000000000
     73587      8718  TIP3      OH2            15.8446033977      -21.9042550470       93.7450830309  TIP3      7358            0.0000000000
     73588      8718  TIP3      H1             15.1426270522      -22.4069354501       93.2754034080  TIP3      7358            0.0000000000
     73589      8718  TIP3      H2             16.1281680011      -22.5833416448       94.3949998241  TIP3      7358            0.0000000000
     73590      8719  TIP3      OH2            16.6555816689      -23.7936538556       95.6203047563  TIP3      7359            0.0000000000
     73591      8719  TIP3      H1             16.3251845908      -24.6914338378       95.7958431319  TIP3      7359            0.0000000000
     73592      8719  TIP3      H2             16.8455749398      -23.4787271233       96.4998131378  TIP3      7359            0.0000000000
     73593      8720  TIP3      OH2            33.7569036089      -23.4443317654      -93.1679963936  TIP3      7360            0.0000000000
     73594      8720  TIP3      H1             33.3182780562      -24.1964413182      -93.6019438665  TIP3      7360            0.0000000000
     73595      8720  TIP3      H2             34.3362248933      -23.8740095946      -92.5233485577  TIP3      7360            0.0000000000
     73596      8721  TIP3      OH2            32.1870446381      -27.6902390123      -88.5610390703  TIP3      7361            0.0000000000
     73597      8721  TIP3      H1             31.3879639027      -27.8929438867      -88.0591679013  TIP3      7361            0.0000000000
     73598      8721  TIP3      H2             32.6854891657      -27.0797034386      -87.9579079881  TIP3      7361            0.0000000000
     73599      8722  TIP3      OH2            33.5026516700      -29.3601977684       91.6140949866  TIP3      7362            0.0000000000
     73600      8722  TIP3      H1             34.3767961656      -28.9599046947       91.8084523292  TIP3      7362            0.0000000000
     73601      8722  TIP3      H2             33.5009247350      -30.0726293973       92.3047840808  TIP3      7362            0.0000000000
     73602      8723  TIP3      OH2            33.6207067913      -31.1067725864       93.5690945333  TIP3      7363            0.0000000000
     73603      8723  TIP3      H1             33.0728348812      -31.8683232738       93.8675465399  TIP3      7363            0.0000000000
     73604      8723  TIP3      H2             34.3432597208      -31.1460156229       94.2158828475  TIP3      7363            0.0000000000
     73605      8724  TIP3      OH2            32.2079795481      -25.7083611884      -93.9591498353  TIP3      7364            0.0000000000
     73606      8724  TIP3      H1             31.5104436038      -25.3274244317      -93.4089090942  TIP3      7364            0.0000000000
     73607      8724  TIP3      H2             31.6826340508      -26.0826922775      -94.6919068511  TIP3      7364            0.0000000000
     73608      8725  TIP3      OH2            33.9677583189      -31.4964829340       90.0054016844  TIP3      7365            0.0000000000
     73609      8725  TIP3      H1             33.6149999723      -31.1112312891       89.1994203001  TIP3      7365            0.0000000000
     73610      8725  TIP3      H2             34.0740063332      -30.7240702456       90.5916674481  TIP3      7365            0.0000000000
     73611      8726  TIP3      OH2            31.7738569054      -32.8267677754       94.1050259950  TIP3      7366            0.0000000000
     73612      8726  TIP3      H1             31.5642634001      -33.7679578628       94.0135035513  TIP3      7366            0.0000000000
     73613      8726  TIP3      H2             31.3682244187      -32.5899047378       94.9331222901  TIP3      7366            0.0000000000
     73614      8727  TIP3      OH2            16.6872433753      -30.7959845842      -96.6116253413  TIP3      7367            0.0000000000
     73615      8727  TIP3      H1             16.8767242718      -30.7982080033      -97.5700931888  TIP3      7367            0.0000000000
     73616      8727  TIP3      H2             17.5822936702      -30.8813640669      -96.2393445158  TIP3      7367            0.0000000000
     73617      8728  TIP3      OH2            32.5404399967      -30.8198024444      -91.0280413408  TIP3      7368            0.0000000000
     73618      8728  TIP3      H1             33.1140797254      -31.5911689975      -90.8368356583  TIP3      7368            0.0000000000
     73619      8728  TIP3      H2             33.1599929045      -30.0760070675      -90.9899730964  TIP3      7368            0.0000000000
     73620      8729  TIP3      OH2            33.9833089589      -32.9959023475      -90.4934532196  TIP3      7369            0.0000000000
     73621      8729  TIP3      H1             33.1080083087      -33.4270648864      -90.4660935413  TIP3      7369            0.0000000000
     73622      8729  TIP3      H2             34.5772164531      -33.7675150380      -90.4041909490  TIP3      7369            0.0000000000
     73623      8730  TIP3      OH2            31.7829843658      -36.7832561953       87.5581085634  TIP3      7370            0.0000000000
     73624      8730  TIP3      H1             32.3905536754      -37.2202219305       88.1655911173  TIP3      7370            0.0000000000
     73625      8730  TIP3      H2             30.9469160877      -37.2204770927       87.7268400491  TIP3      7370            0.0000000000
     73626      8731  TIP3      OH2            31.3826568837      -35.2645506218       92.5925765182  TIP3      7371            0.0000000000
     73627      8731  TIP3      H1             31.7238876175      -36.1845743671       92.6363430748  TIP3      7371            0.0000000000
     73628      8731  TIP3      H2             32.1411422358      -34.8524670461       92.1429480199  TIP3      7371            0.0000000000
     73629      8732  TIP3      OH2            31.9974318583      -34.7348547798      -96.7407322517  TIP3      7372            0.0000000000
     73630      8732  TIP3      H1             32.9421471835      -34.4573180291      -96.7583288183  TIP3      7372            0.0000000000
     73631      8732  TIP3      H2             31.8036536708      -34.5281792257      -95.8115757848  TIP3      7372            0.0000000000
     73632      8733  TIP3      OH2            32.0572445712      -33.9541079162      -93.9762262240  TIP3      7373            0.0000000000
     73633      8733  TIP3      H1             31.1876434742      -33.6566119186      -93.6553092296  TIP3      7373            0.0000000000
     73634      8733  TIP3      H2             32.5452503368      -33.1251340836      -94.1891731312  TIP3      7373            0.0000000000
     73635      8734  TIP3      OH2            16.3567070410      -35.3667940890      -90.3965952623  TIP3      7374            0.0000000000
     73636      8734  TIP3      H1             17.2682003520      -35.6690735112      -90.2561966674  TIP3      7374            0.0000000000
     73637      8734  TIP3      H2             15.8854758302      -36.2138728808      -90.2080343907  TIP3      7374            0.0000000000
     73638      8735  TIP3      OH2            31.9578762580      -37.9359422591       92.6109734535  TIP3      7375            0.0000000000
     73639      8735  TIP3      H1             32.2133111524      -38.4058244491       93.4193725751  TIP3      7375            0.0000000000
     73640      8735  TIP3      H2             31.4484131574      -38.6161160019       92.1217387497  TIP3      7375            0.0000000000
     73641      8736  TIP3      OH2            17.5162151528      -36.8416298152       97.5905129487  TIP3      7376            0.0000000000
     73642      8736  TIP3      H1             17.9292731552      -37.7156121330       97.4195286682  TIP3      7376            0.0000000000
     73643      8736  TIP3      H2             18.2759814806      -36.2422975366       97.6339894251  TIP3      7376            0.0000000000
     73644      8737  TIP3      OH2            15.8618303947      -34.1482892659      -96.4877555031  TIP3      7377            0.0000000000
     73645      8737  TIP3      H1             16.3634955021      -34.3809943417      -97.3023078353  TIP3      7377            0.0000000000
     73646      8737  TIP3      H2             16.2799014948      -33.2940186423      -96.3282073216  TIP3      7377            0.0000000000
     73647      8738  TIP3      OH2            33.8869400211      -37.8085222680      -90.2543157880  TIP3      7378            0.0000000000
     73648      8738  TIP3      H1             32.9352677091      -37.5729553086      -90.2974025024  TIP3      7378            0.0000000000
     73649      8738  TIP3      H2             33.9011387072      -38.4145959851      -91.0243982237  TIP3      7378            0.0000000000
     73650      8739  TIP3      OH2            15.1081543818      -38.1619811074       91.8927479959  TIP3      7379            0.0000000000
     73651      8739  TIP3      H1             14.7018564610      -37.3132764325       91.9603383510  TIP3      7379            0.0000000000
     73652      8739  TIP3      H2             16.0184438115      -37.8766949316       91.6631573446  TIP3      7379            0.0000000000
     73653      8740  TIP3      OH2            30.9124832363      -22.9351986010       94.1975326893  TIP3      7380            0.0000000000
     73654      8740  TIP3      H1             31.5795861272      -23.2435603416       93.5542956148  TIP3      7380            0.0000000000
     73655      8740  TIP3      H2             31.4579668816      -22.4646254661       94.8431994098  TIP3      7380            0.0000000000
     73656      8741  TIP3      OH2            16.1461905657      -39.1246492508      -94.1471883131  TIP3      7381            0.0000000000
     73657      8741  TIP3      H1             15.4871909892      -39.4036833164      -93.4889271860  TIP3      7381            0.0000000000
     73658      8741  TIP3      H2             15.6300782504      -38.5735783542      -94.7501679962  TIP3      7381            0.0000000000
     73659      8742  TIP3      OH2            18.3370312588      -26.0471167903      -89.9872597556  TIP3      7382            0.0000000000
     73660      8742  TIP3      H1             17.5288817855      -25.7901551980      -90.4595175648  TIP3      7382            0.0000000000
     73661      8742  TIP3      H2             18.0520592315      -26.0309422560      -89.0752639429  TIP3      7382            0.0000000000
     73662      8743  TIP3      OH2            21.2258939426      -25.0628321548      -93.9382024914  TIP3      7383            0.0000000000
     73663      8743  TIP3      H1             20.9504245814      -24.1445858421      -93.9645541965  TIP3      7383            0.0000000000
     73664      8743  TIP3      H2             22.1985001379      -24.9575514926      -93.9913307126  TIP3      7383            0.0000000000
     73665      8744  TIP3      OH2            25.5928703265      -23.5429190221      -90.7731429970  TIP3      7384            0.0000000000
     73666      8744  TIP3      H1             25.7865948793      -23.9892102455      -89.9431177192  TIP3      7384            0.0000000000
     73667      8744  TIP3      H2             26.4884709956      -23.3273128122      -91.0981114650  TIP3      7384            0.0000000000
     73668      8745  TIP3      OH2            27.8892638920      -22.3498540857      -91.5326175509  TIP3      7385            0.0000000000
     73669      8745  TIP3      H1             28.6052133790      -22.9407432653      -91.7914487091  TIP3      7385            0.0000000000
     73670      8745  TIP3      H2             28.2595717289      -21.9036219413      -90.7449126718  TIP3      7385            0.0000000000
     73671      8746  TIP3      OH2            32.8129179527      -39.6226345371      -92.4182285375  TIP3      7386            0.0000000000
     73672      8746  TIP3      H1             31.9748473916      -39.3769371280      -92.8233349069  TIP3      7386            0.0000000000
     73673      8746  TIP3      H2             33.0627644150      -40.4357437733      -92.8161660010  TIP3      7386            0.0000000000
     73674      8747  TIP3      OH2            21.1703498618      -22.1712758429      -94.6835805051  TIP3      7387            0.0000000000
     73675      8747  TIP3      H1             20.2931591636      -22.0830562609      -94.2738284256  TIP3      7387            0.0000000000
     73676      8747  TIP3      H2             21.0428685644      -21.6201007393      -95.4590409784  TIP3      7387            0.0000000000
     73677      8748  TIP3      OH2            25.8330392128      -22.3122240939      -95.4642021784  TIP3      7388            0.0000000000
     73678      8748  TIP3      H1             25.4256047161      -21.7424412780      -96.1467508468  TIP3      7388            0.0000000000
     73679      8748  TIP3      H2             26.0075374803      -21.6568833721      -94.7530140794  TIP3      7388            0.0000000000
     73680      8749  TIP3      OH2            28.1740301576      -23.4418877960      -94.4874951298  TIP3      7389            0.0000000000
     73681      8749  TIP3      H1             27.2936373381      -23.2158781428      -94.8308553192  TIP3      7389            0.0000000000
     73682      8749  TIP3      H2             28.6291702047      -22.5893856806      -94.5682214649  TIP3      7389            0.0000000000
     73683      8750  TIP3      OH2            30.7114030728      -21.9377582808      -94.2437200554  TIP3      7390            0.0000000000
     73684      8750  TIP3      H1             30.6774569688      -20.9654327802      -94.4374563799  TIP3      7390            0.0000000000
     73685      8750  TIP3      H2             30.9612070549      -22.2714192516      -95.1218807772  TIP3      7390            0.0000000000
     73686      8751  TIP3      OH2            20.2255576797      -24.4388039231       96.6577893334  TIP3      7391            0.0000000000
     73687      8751  TIP3      H1             20.1624722307      -25.4125300839       96.6567824340  TIP3      7391            0.0000000000
     73688      8751  TIP3      H2             21.1385634626      -24.2700148693       96.9825284548  TIP3      7391            0.0000000000
     73689      8752  TIP3      OH2            22.7441799034      -23.9482377426      -97.2477891706  TIP3      7392            0.0000000000
     73690      8752  TIP3      H1             23.0132482350      -24.8297364724      -97.5519826052  TIP3      7392            0.0000000000
     73691      8752  TIP3      H2             22.9136498201      -24.0158776334      -96.2938285926  TIP3      7392            0.0000000000
     73692      8753  TIP3      OH2            26.3486250362      -38.2922920828       96.6177900224  TIP3      7393            0.0000000000
     73693      8753  TIP3      H1             25.6073940721      -38.9090657796       96.8728141315  TIP3      7393            0.0000000000
     73694      8753  TIP3      H2             26.7290914895      -38.8939741949       95.9737012542  TIP3      7393            0.0000000000
     73695      8754  TIP3      OH2            31.3175870333      -40.2206780671       96.2270531380  TIP3      7394            0.0000000000
     73696      8754  TIP3      H1             31.9947439588      -39.5389136524       96.0821412862  TIP3      7394            0.0000000000
     73697      8754  TIP3      H2             30.4696439437      -39.8325141328       96.4268014007  TIP3      7394            0.0000000000
     73698      8755  TIP3      OH2            33.2282460043      -38.9940538395       94.9892937532  TIP3      7395            0.0000000000
     73699      8755  TIP3      H1             33.8112106669      -39.5646402005       94.4907385847  TIP3      7395            0.0000000000
     73700      8755  TIP3      H2             33.6210620009      -38.0929675263       94.9972408603  TIP3      7395            0.0000000000
     73701      8756  TIP3      OH2            19.9545500044      -39.3773721779       93.9736912269  TIP3      7396            0.0000000000
     73702      8756  TIP3      H1             18.9864378396      -39.4716386024       93.7365567836  TIP3      7396            0.0000000000
     73703      8756  TIP3      H2             19.7475760370      -40.2064334501       94.3833182378  TIP3      7396            0.0000000000
     73704      8757  TIP3      OH2            17.2839144543      -40.0177880680       90.5060652315  TIP3      7397            0.0000000000
     73705      8757  TIP3      H1             17.8989299975      -39.4386657240       89.9780172185  TIP3      7397            0.0000000000
     73706      8757  TIP3      H2             16.7156328135      -39.3323785648       90.8514252987  TIP3      7397            0.0000000000
     73707      8758  TIP3      OH2            23.1443856554      -39.6493193867       94.2266046927  TIP3      7398            0.0000000000
     73708      8758  TIP3      H1             24.0720320647      -39.4109989019       94.2088064511  TIP3      7398            0.0000000000
     73709      8758  TIP3      H2             23.0703659577      -40.0001561926       95.1281946544  TIP3      7398            0.0000000000
     73710      8759  TIP3      OH2            28.7172399414      -40.0625005781       95.8524204902  TIP3      7399            0.0000000000
     73711      8759  TIP3      H1             28.7830908697      -39.9874166998       94.8938786790  TIP3      7399            0.0000000000
     73712      8759  TIP3      H2             28.3250557062      -40.9590161273       95.9266271440  TIP3      7399            0.0000000000
     73713      8760  TIP3      OH2            30.0386599099      -39.5591667230       91.4354054551  TIP3      7400            0.0000000000
     73714      8760  TIP3      H1             29.2492273547      -39.0403610612       91.2967090796  TIP3      7400            0.0000000000
     73715      8760  TIP3      H2             29.7293848241      -40.4352032099       91.7041034201  TIP3      7400            0.0000000000
     73716      8761  TIP3      OH2            17.3357631825      -23.9111500059       91.1757919802  TIP3      7401            0.0000000000
     73717      8761  TIP3      H1             16.6562049877      -23.9260138415       90.4755674087  TIP3      7401            0.0000000000
     73718      8761  TIP3      H2             17.3523190368      -22.9736661444       91.3903414699  TIP3      7401            0.0000000000
     73719      8762  TIP3      OH2            19.6154320722      -37.5386408035       88.5821695390  TIP3      7402            0.0000000000
     73720      8762  TIP3      H1             19.7165382957      -38.4374039024       88.2603630750  TIP3      7402            0.0000000000
     73721      8762  TIP3      H2             20.0890903495      -37.6040835653       89.4147932197  TIP3      7402            0.0000000000
     73722      8763  TIP3      OH2            24.3005268498      -37.6525787846       91.0518321116  TIP3      7403            0.0000000000
     73723      8763  TIP3      H1             24.4810176732      -38.2790114956       91.7684743371  TIP3      7403            0.0000000000
     73724      8763  TIP3      H2             24.3090574302      -36.8274489632       91.5780376851  TIP3      7403            0.0000000000
     73725      8764  TIP3      OH2            32.8575166029      -23.1378605568       92.2546035956  TIP3      7404            0.0000000000
     73726      8764  TIP3      H1             32.7191426188      -23.9243845994       91.6665199230  TIP3      7404            0.0000000000
     73727      8764  TIP3      H2             32.8572048982      -22.4096922531       91.6002234940  TIP3      7404            0.0000000000
     73728      8765  TIP3      OH2            18.5169306493      -38.6565726126      -90.6236473699  TIP3      7405            0.0000000000
     73729      8765  TIP3      H1             18.0857687939      -39.5087210474      -90.4790479062  TIP3      7405            0.0000000000
     73730      8765  TIP3      H2             19.4458509602      -38.9553526714      -90.6383492259  TIP3      7405            0.0000000000
     73731      8766  TIP3      OH2            21.1854559780      -38.7032623519      -89.5594548555  TIP3      7406            0.0000000000
     73732      8766  TIP3      H1             21.7159171003      -39.5093508390      -89.7170224089  TIP3      7406            0.0000000000
     73733      8766  TIP3      H2             20.4550177411      -39.3675999440      -89.5000986514  TIP3      7406            0.0000000000
     73734      8767  TIP3      OH2            19.1390951536      -22.9861530414       88.1736026907  TIP3      7407            0.0000000000
     73735      8767  TIP3      H1             18.9376320575      -22.7180362045       89.0715063389  TIP3      7407            0.0000000000
     73736      8767  TIP3      H2             19.9150474786      -23.5673550965       88.2452117826  TIP3      7407            0.0000000000
     73737      8768  TIP3      OH2            28.9761227448      -40.3941378619      -89.0426415488  TIP3      7408            0.0000000000
     73738      8768  TIP3      H1             29.0690439550      -40.9473380719      -88.2651666722  TIP3      7408            0.0000000000
     73739      8768  TIP3      H2             29.8656576340      -40.4841585902      -89.4241067577  TIP3      7408            0.0000000000
     73740      8769  TIP3      OH2            32.2535837456      -24.1803118819      -90.6130982728  TIP3      7409            0.0000000000
     73741      8769  TIP3      H1             31.4012698999      -24.3311643535      -91.1026537511  TIP3      7409            0.0000000000
     73742      8769  TIP3      H2             32.0664970688      -23.2780017886      -90.2721812475  TIP3      7409            0.0000000000
     73743      8770  TIP3      OH2            37.7653233730      -31.6430628991      -95.2523707284  TIP3      7410            0.0000000000
     73744      8770  TIP3      H1             37.9318363499      -32.3280649085      -94.5997052605  TIP3      7410            0.0000000000
     73745      8770  TIP3      H2             38.5310144685      -31.0472648936      -95.1647838662  TIP3      7410            0.0000000000
     73746      8771  TIP3      OH2            38.4117330044      -26.9105069108      -97.0306468873  TIP3      7411            0.0000000000
     73747      8771  TIP3      H1             38.2358268796      -27.8774014752      -97.1703641208  TIP3      7411            0.0000000000
     73748      8771  TIP3      H2             39.3600755403      -27.2039322968      -96.9239844244  TIP3      7411            0.0000000000
     73749      8772  TIP3      OH2            34.8551395770      -34.0263912861       93.3250737367  TIP3      7412            0.0000000000
     73750      8772  TIP3      H1             34.8869968365      -33.0494443221       93.2659647066  TIP3      7412            0.0000000000
     73751      8772  TIP3      H2             34.5935565315      -34.2580739126       92.4321103801  TIP3      7412            0.0000000000
     73752      8773  TIP3      OH2            36.2763448020      -31.3263609065       96.0234480906  TIP3      7413            0.0000000000
     73753      8773  TIP3      H1             36.3699544992      -32.2913625362       96.0932120297  TIP3      7413            0.0000000000
     73754      8773  TIP3      H2             36.8299170829      -31.1670355092       95.2282663367  TIP3      7413            0.0000000000
     73755      8774  TIP3      OH2            39.4490416108      -36.0063682162       96.1493211915  TIP3      7414            0.0000000000
     73756      8774  TIP3      H1             40.0521618410      -35.3920048180       95.6677320073  TIP3      7414            0.0000000000
     73757      8774  TIP3      H2             39.6547870730      -36.7054146918       95.5189406003  TIP3      7414            0.0000000000
     73758      8775  TIP3      OH2            36.7181639862      -33.9921332628       96.5520482047  TIP3      7415            0.0000000000
     73759      8775  TIP3      H1             37.4708489743      -34.4311068861       96.9834770163  TIP3      7415            0.0000000000
     73760      8775  TIP3      H2             36.8744090546      -34.2090586960       95.6229984093  TIP3      7415            0.0000000000
     73761      8776  TIP3      OH2            39.9237651564      -28.3131191900      -93.1796661714  TIP3      7416            0.0000000000
     73762      8776  TIP3      H1             40.1965452012      -27.4749261749      -93.6195262852  TIP3      7416            0.0000000000
     73763      8776  TIP3      H2             39.0118836747      -28.0921800309      -93.0172549284  TIP3      7416            0.0000000000
     73764      8777  TIP3      OH2            35.8231321369      -28.0971962854       91.8130141459  TIP3      7417            0.0000000000
     73765      8777  TIP3      H1             35.8089256409      -27.8702781250       90.8499086682  TIP3      7417            0.0000000000
     73766      8777  TIP3      H2             36.0598942236      -27.2597359287       92.2370714488  TIP3      7417            0.0000000000
     73767      8778  TIP3      OH2            40.3518708704      -30.6218412661       94.9381773219  TIP3      7418            0.0000000000
     73768      8778  TIP3      H1             40.0461348043      -30.7686920084       94.0290998524  TIP3      7418            0.0000000000
     73769      8778  TIP3      H2             41.0495709157      -31.2229729455       95.1260134259  TIP3      7418            0.0000000000
     73770      8779  TIP3      OH2            38.5852382185      -30.9486487279      -92.7294340057  TIP3      7419            0.0000000000
     73771      8779  TIP3      H1             38.6179709568      -30.4284184266      -91.9072523432  TIP3      7419            0.0000000000
     73772      8779  TIP3      H2             37.6264423594      -30.9826204880      -92.8340245196  TIP3      7419            0.0000000000
     73773      8780  TIP3      OH2            38.8896959931      -24.7203024054      -90.9551218413  TIP3      7420            0.0000000000
     73774      8780  TIP3      H1             39.4886515884      -25.1785936529      -91.6266424646  TIP3      7420            0.0000000000
     73775      8780  TIP3      H2             38.6169630165      -25.5478199834      -90.5352628903  TIP3      7420            0.0000000000
     73776      8781  TIP3      OH2            39.4369549824      -30.1437455419       92.8166228110  TIP3      7421            0.0000000000
     73777      8781  TIP3      H1             39.0582020528      -30.1731391945       91.9175564466  TIP3      7421            0.0000000000
     73778      8781  TIP3      H2             39.2846569548      -31.1433555354       92.8485373546  TIP3      7421            0.0000000000
     73779      8782  TIP3      OH2            35.3244566810      -28.9552250572      -93.5617344578  TIP3      7422            0.0000000000
     73780      8782  TIP3      H1             34.9554839980      -29.0377498661      -94.4547675476  TIP3      7422            0.0000000000
     73781      8782  TIP3      H2             35.4359672957      -29.9099067759      -93.3651451914  TIP3      7422            0.0000000000
     73782      8783  TIP3      OH2            35.1789332383      -26.2137321439      -96.8247215365  TIP3      7423            0.0000000000
     73783      8783  TIP3      H1             36.1287950737      -26.3641020177      -96.7720086457  TIP3      7423            0.0000000000
     73784      8783  TIP3      H2             35.0314912913      -25.4359245883      -96.2701205874  TIP3      7423            0.0000000000
     73785      8784  TIP3      OH2            38.3895408746      -23.2816412784       94.0941944358  TIP3      7424            0.0000000000
     73786      8784  TIP3      H1             38.5633177644      -23.7729587405       94.9286447144  TIP3      7424            0.0000000000
     73787      8784  TIP3      H2             37.5616643759      -23.7256446350       93.8567860025  TIP3      7424            0.0000000000
     73788      8785  TIP3      OH2            37.4881268970      -27.6278787786      -92.5887457903  TIP3      7425            0.0000000000
     73789      8785  TIP3      H1             37.8238757775      -28.0437036340      -91.7505688989  TIP3      7425            0.0000000000
     73790      8785  TIP3      H2             36.7001723776      -28.1365591866      -92.8095215993  TIP3      7425            0.0000000000
     73791      8786  TIP3      OH2            40.3915205434      -34.0691502588      -94.7825489022  TIP3      7426            0.0000000000
     73792      8786  TIP3      H1             39.4529899580      -34.2835377711      -94.6319915225  TIP3      7426            0.0000000000
     73793      8786  TIP3      H2             40.2453277070      -33.5317883576      -95.5704197436  TIP3      7426            0.0000000000
     73794      8787  TIP3      OH2            40.4274486927      -34.0540211612       94.1773777043  TIP3      7427            0.0000000000
     73795      8787  TIP3      H1             39.4727060399      -34.2868601946       94.1016814023  TIP3      7427            0.0000000000
     73796      8787  TIP3      H2             40.7848385628      -34.5058638603       93.4177756083  TIP3      7427            0.0000000000
     73797      8788  TIP3      OH2            38.0054438402      -33.9051123000      -93.6801691719  TIP3      7428            0.0000000000
     73798      8788  TIP3      H1             38.1203907791      -33.5172707246      -92.8053651023  TIP3      7428            0.0000000000
     73799      8788  TIP3      H2             37.6165820554      -34.7750517039      -93.5462442276  TIP3      7428            0.0000000000
     73800      8789  TIP3      OH2            34.7416425720      -36.8208350326       94.9092200465  TIP3      7429            0.0000000000
     73801      8789  TIP3      H1             35.3806711118      -36.7864759737       95.6225570503  TIP3      7429            0.0000000000
     73802      8789  TIP3      H2             35.2013423472      -37.2245617473       94.1693854986  TIP3      7429            0.0000000000
     73803      8790  TIP3      OH2            36.0792369753      -36.0396706868       90.4633949306  TIP3      7430            0.0000000000
     73804      8790  TIP3      H1             36.4120679436      -35.5404655352       89.7126774391  TIP3      7430            0.0000000000
     73805      8790  TIP3      H2             35.2640218801      -35.5445627719       90.6705114167  TIP3      7430            0.0000000000
     73806      8791  TIP3      OH2            37.7363430798      -34.9301774851       94.0292026983  TIP3      7431            0.0000000000
     73807      8791  TIP3      H1             36.8460402336      -34.8865043071       93.6409739296  TIP3      7431            0.0000000000
     73808      8791  TIP3      H2             38.0805347623      -35.7737681123       93.7053392977  TIP3      7431            0.0000000000
     73809      8792  TIP3      OH2            41.0147645785      -34.2986871104       88.5539567460  TIP3      7432            0.0000000000
     73810      8792  TIP3      H1             40.0195977072      -34.2200848339       88.4627052439  TIP3      7432            0.0000000000
     73811      8792  TIP3      H2             41.2392773518      -33.3629934241       88.6120449645  TIP3      7432            0.0000000000
     73812      8793  TIP3      OH2            38.2347460725      -28.8586024905      -90.5661447711  TIP3      7433            0.0000000000
     73813      8793  TIP3      H1             38.9376894286      -28.9127574902      -89.9134680594  TIP3      7433            0.0000000000
     73814      8793  TIP3      H2             37.4605869774      -28.9121119147      -89.9787060102  TIP3      7433            0.0000000000
     73815      8794  TIP3      OH2            38.3961283459      -30.4479046382       97.3814018248  TIP3      7434            0.0000000000
     73816      8794  TIP3      H1             39.0063500360      -30.1417567349       96.6579538581  TIP3      7434            0.0000000000
     73817      8794  TIP3      H2             38.8360343218      -31.2436598605       97.6276063882  TIP3      7434            0.0000000000
     73818      8795  TIP3      OH2            35.3547214328      -31.4257242152      -92.6302479146  TIP3      7435            0.0000000000
     73819      8795  TIP3      H1             35.7393996288      -31.8119580150      -91.8147258446  TIP3      7435            0.0000000000
     73820      8795  TIP3      H2             34.8450334621      -32.1480886598      -93.0017788784  TIP3      7435            0.0000000000
     73821      8796  TIP3      OH2            36.3959662863      -31.4473312396       89.3576897569  TIP3      7436            0.0000000000
     73822      8796  TIP3      H1             37.1289096502      -30.7897347819       89.3502887028  TIP3      7436            0.0000000000
     73823      8796  TIP3      H2             35.5768549067      -30.9749158426       89.2966570085  TIP3      7436            0.0000000000
     73824      8797  TIP3      OH2            36.8328796662      -24.8877667134      -94.4890431802  TIP3      7437            0.0000000000
     73825      8797  TIP3      H1             37.1302533910      -25.8211633580      -94.4613238471  TIP3      7437            0.0000000000
     73826      8797  TIP3      H2             37.0753775581      -24.6121848201      -93.5910018958  TIP3      7437            0.0000000000
     73827      8798  TIP3      OH2            37.3115480707      -29.3737415970       90.3279446998  TIP3      7438            0.0000000000
     73828      8798  TIP3      H1             37.2207980025      -29.1538862144       91.2607431540  TIP3      7438            0.0000000000
     73829      8798  TIP3      H2             38.2470405233      -29.0836810982       90.1965559094  TIP3      7438            0.0000000000
     73830      8799  TIP3      OH2            40.0552829133      -25.5403576413       88.7778536524  TIP3      7439            0.0000000000
     73831      8799  TIP3      H1             39.7666321291      -25.9422494483       89.6482289152  TIP3      7439            0.0000000000
     73832      8799  TIP3      H2             39.7071685198      -26.4231697801       88.4844376154  TIP3      7439            0.0000000000
     73833      8800  TIP3      OH2            36.6222182303      -25.5556442235       93.3657608500  TIP3      7440            0.0000000000
     73834      8800  TIP3      H1             35.7983782877      -25.0621251905       93.2826017448  TIP3      7440            0.0000000000
     73835      8800  TIP3      H2             37.1383787975      -25.1348333803       92.6587197008  TIP3      7440            0.0000000000
     73836      8801  TIP3      OH2            35.9326462910      -22.9368485624      -90.0424226898  TIP3      7441            0.0000000000
     73837      8801  TIP3      H1             36.6407369470      -23.1832099807      -89.4118134084  TIP3      7441            0.0000000000
     73838      8801  TIP3      H2             35.6037705058      -23.8053097006      -90.3212795302  TIP3      7441            0.0000000000
     73839      8802  TIP3      OH2            35.9889923733      -28.7035123042      -89.4520657433  TIP3      7442            0.0000000000
     73840      8802  TIP3      H1             36.2414909575      -29.6465769664      -89.4919001615  TIP3      7442            0.0000000000
     73841      8802  TIP3      H2             35.0737659910      -28.7777987434      -89.7991360487  TIP3      7442            0.0000000000
     73842      8803  TIP3      OH2            37.4916469666      -33.6317725311      -89.6181237958  TIP3      7443            0.0000000000
     73843      8803  TIP3      H1             37.0799412484      -33.0538527877      -90.2574428192  TIP3      7443            0.0000000000
     73844      8803  TIP3      H2             37.1974397250      -33.0240673850      -88.9104992198  TIP3      7443            0.0000000000
     73845      8804  TIP3      OH2            39.7300154204      -34.5231689320      -89.1235784087  TIP3      7444            0.0000000000
     73846      8804  TIP3      H1             38.8483046807      -34.8415862822      -89.4668495274  TIP3      7444            0.0000000000
     73847      8804  TIP3      H2             40.2684524825      -34.6841970844      -89.9287822117  TIP3      7444            0.0000000000
     73848      8805  TIP3      OH2            37.7083007087      -36.4640863929      -89.6981805631  TIP3      7445            0.0000000000
     73849      8805  TIP3      H1             37.9436053987      -37.2024939324      -90.2601030159  TIP3      7445            0.0000000000
     73850      8805  TIP3      H2             37.6113775851      -36.8757823595      -88.8214365604  TIP3      7445            0.0000000000
     73851      8806  TIP3      OH2            35.8055468403      -27.3195832138       88.6805067000  TIP3      7446            0.0000000000
     73852      8806  TIP3      H1             36.7133453383      -27.1846152413       88.9987762274  TIP3      7446            0.0000000000
     73853      8806  TIP3      H2             35.9312104817      -27.9729063756       88.0093266817  TIP3      7446            0.0000000000
     73854      8807  TIP3      OH2            34.6723984124      -21.8700060061       93.8009012199  TIP3      7447            0.0000000000
     73855      8807  TIP3      H1             34.0304124864      -22.3866484772       93.2611884509  TIP3      7447            0.0000000000
     73856      8807  TIP3      H2             34.9908623530      -22.5799902261       94.3916081515  TIP3      7447            0.0000000000
     73857      8808  TIP3      OH2            35.5196249199      -23.7720183126       95.6336659028  TIP3      7448            0.0000000000
     73858      8808  TIP3      H1             35.1933341148      -24.6697252937       95.8090003688  TIP3      7448            0.0000000000
     73859      8808  TIP3      H2             35.7730521914      -23.4836687124       96.5275645899  TIP3      7448            0.0000000000
     73860      8809  TIP3      OH2            35.5005319930      -30.7315337898      -96.4167257803  TIP3      7449            0.0000000000
     73861      8809  TIP3      H1             35.7029441279      -30.7808659424      -97.3936157725  TIP3      7449            0.0000000000
     73862      8809  TIP3      H2             36.4462317656      -30.8878819653      -96.1776767633  TIP3      7449            0.0000000000
     73863      8810  TIP3      OH2            35.2203946561      -35.3802553093      -90.4170335391  TIP3      7450            0.0000000000
     73864      8810  TIP3      H1             36.1453831474      -35.6370235578      -90.2287665806  TIP3      7450            0.0000000000
     73865      8810  TIP3      H2             34.7515719292      -36.2126592267      -90.1711423300  TIP3      7450            0.0000000000
     73866      8811  TIP3      OH2            34.6548145757      -34.1232794724      -96.5318661421  TIP3      7451            0.0000000000
     73867      8811  TIP3      H1             35.2370202213      -34.3719636287      -97.2822293660  TIP3      7451            0.0000000000
     73868      8811  TIP3      H2             35.1505138842      -33.3483837655      -96.2567707898  TIP3      7451            0.0000000000
     73869      8812  TIP3      OH2            37.1361724295      -26.1683950931      -89.9045975410  TIP3      7452            0.0000000000
     73870      8812  TIP3      H1             36.3950746564      -25.8375124210      -90.4434223922  TIP3      7452            0.0000000000
     73871      8812  TIP3      H2             36.8617139271      -26.0443449935      -89.0155813487  TIP3      7452            0.0000000000
     73872      8813  TIP3      OH2            39.9009127147      -25.2125025031      -93.0247476828  TIP3      7453            0.0000000000
     73873      8813  TIP3      H1             39.4512514061      -24.6391869287      -93.6668463434  TIP3      7453            0.0000000000
     73874      8813  TIP3      H2             40.7586399864      -25.2470803293      -93.5191670564  TIP3      7453            0.0000000000
     73875      8814  TIP3      OH2            37.4652100152      -21.7689882745      -93.7071612786  TIP3      7454            0.0000000000
     73876      8814  TIP3      H1             36.7638173335      -21.3032098716      -94.1482211526  TIP3      7454            0.0000000000
     73877      8814  TIP3      H2             37.1573190577      -21.9937286836      -92.8164369185  TIP3      7454            0.0000000000
     73878      8815  TIP3      OH2            39.8119694694      -22.1414620291      -94.4592597344  TIP3      7455            0.0000000000
     73879      8815  TIP3      H1             38.8720391559      -21.9824777509      -94.2535656622  TIP3      7455            0.0000000000
     73880      8815  TIP3      H2             39.9598269733      -21.7065402310      -95.3377799636  TIP3      7455            0.0000000000
     73881      8816  TIP3      OH2            36.9111190529      -23.1399402986      -96.7958093120  TIP3      7456            0.0000000000
     73882      8816  TIP3      H1             36.8937715418      -23.5535426046      -95.9080161031  TIP3      7456            0.0000000000
     73883      8816  TIP3      H2             37.7268287977      -23.4821430744      -97.1902960752  TIP3      7456            0.0000000000
     73884      8817  TIP3      OH2            38.7330121148      -24.7999593768       96.1487228221  TIP3      7457            0.0000000000
     73885      8817  TIP3      H1             38.6347928084      -25.5609158724       96.7625447523  TIP3      7457            0.0000000000
     73886      8817  TIP3      H2             39.5459903083      -24.4569494445       96.5578687505  TIP3      7457            0.0000000000
     73887      8818  TIP3      OH2            35.5054995419      -23.5440043527       91.4956636051  TIP3      7458            0.0000000000
     73888      8818  TIP3      H1             35.4254950713      -23.8696111145       90.5687321602  TIP3      7458            0.0000000000
     73889      8818  TIP3      H2             36.1890082882      -22.8785386185       91.3691234751  TIP3      7458            0.0000000000
     73890      8819  TIP3      OH2            37.9912563788      -23.0668233616       88.1216920176  TIP3      7459            0.0000000000
     73891      8819  TIP3      H1             37.7457117224      -22.6951537247       88.9753884125  TIP3      7459            0.0000000000
     73892      8819  TIP3      H2             38.8185794017      -23.5172629452       88.2880505100  TIP3      7459            0.0000000000
     73893      8820  TIP3      OH2           -28.8460551415      -11.6821088415       94.3110713656  TIP3      7460            0.0000000000
     73894      8820  TIP3      H1            -28.8119168172      -10.7004305521       94.2648533290  TIP3      7460            0.0000000000
     73895      8820  TIP3      H2            -29.5484214318      -11.8817817981       93.6905037578  TIP3      7460            0.0000000000
     73896      8821  TIP3      OH2           -29.9206502147      -12.4207166444      -96.9548220479  TIP3      7461            0.0000000000
     73897      8821  TIP3      H1            -30.0077189900      -13.0285970372      -96.2033387752  TIP3      7461            0.0000000000
     73898      8821  TIP3      H2            -30.3066652342      -12.8905750638      -97.7053084109  TIP3      7461            0.0000000000
     73899      8822  TIP3      OH2           -26.2267150088       -9.5380296614       96.1473842430  TIP3      7462            0.0000000000
     73900      8822  TIP3      H1            -26.7169763385      -10.2069493957       96.6230192786  TIP3      7462            0.0000000000
     73901      8822  TIP3      H2            -26.2455917760       -8.7765774520       96.7486870134  TIP3      7462            0.0000000000
     73902      8823  TIP3      OH2           -39.2845288496      -12.4702257171       95.4773878390  TIP3      7463            0.0000000000
     73903      8823  TIP3      H1            -39.1504415409      -13.3188057599       95.9187006424  TIP3      7463            0.0000000000
     73904      8823  TIP3      H2            -38.6255402714      -12.3981638972       94.7800095744  TIP3      7463            0.0000000000
     73905      8824  TIP3      OH2           -31.5750279199       -9.9502644403      -96.5394759174  TIP3      7464            0.0000000000
     73906      8824  TIP3      H1            -31.2544587313      -10.6786963576      -97.0851366847  TIP3      7464            0.0000000000
     73907      8824  TIP3      H2            -30.8173124918       -9.8358846518      -95.9443712890  TIP3      7464            0.0000000000
     73908      8825  TIP3      OH2           -22.9168969235      -18.3939390136      -95.6927156295  TIP3      7465            0.0000000000
     73909      8825  TIP3      H1            -22.8263566515      -17.7553011711      -94.9467114101  TIP3      7465            0.0000000000
     73910      8825  TIP3      H2            -22.4495077386      -17.9297160110      -96.3976937102  TIP3      7465            0.0000000000
     73911      8826  TIP3      OH2           -28.4055751820      -15.5612897802      -96.1383253090  TIP3      7466            0.0000000000
     73912      8826  TIP3      H1            -28.2563838800      -16.5194245296      -96.1713127586  TIP3      7466            0.0000000000
     73913      8826  TIP3      H2            -28.5122445938      -15.4044896253      -97.0998995209  TIP3      7466            0.0000000000
     73914      8827  TIP3      OH2           -22.5022763144      -16.9037873376      -93.4755527053  TIP3      7467            0.0000000000
     73915      8827  TIP3      H1            -23.2125907371      -16.2247532423      -93.5297257059  TIP3      7467            0.0000000000
     73916      8827  TIP3      H2            -22.4734535689      -17.0244065813      -92.5061659096  TIP3      7467            0.0000000000
     73917      8828  TIP3      OH2           -29.1772900899       -9.0748864335       93.4256354575  TIP3      7468            0.0000000000
     73918      8828  TIP3      H1            -29.3352704939       -9.3251604059       92.5036441494  TIP3      7468            0.0000000000
     73919      8828  TIP3      H2            -29.3905229845       -8.1346657044       93.4360638199  TIP3      7468            0.0000000000
     73920      8829  TIP3      OH2           -33.8382715261      -10.9103669074      -94.5863618521  TIP3      7469            0.0000000000
     73921      8829  TIP3      H1            -34.5919943453      -10.3094509385      -94.4322399504  TIP3      7469            0.0000000000
     73922      8829  TIP3      H2            -33.1626853952      -10.3297106530      -94.9287353769  TIP3      7469            0.0000000000
     73923      8830  TIP3      OH2           -35.4403665176       -8.8994793748      -93.7644842332  TIP3      7470            0.0000000000
     73924      8830  TIP3      H1            -35.4907533914       -8.0104175060      -94.1605738057  TIP3      7470            0.0000000000
     73925      8830  TIP3      H2            -36.3589932542       -8.9996028445      -93.4347552173  TIP3      7470            0.0000000000
     73926      8831  TIP3      OH2           -39.4320292096       -9.2632251828       91.7263847158  TIP3      7471            0.0000000000
     73927      8831  TIP3      H1            -39.6041899078       -8.9841870988       90.8126017264  TIP3      7471            0.0000000000
     73928      8831  TIP3      H2            -39.2801843368       -8.4196743906       92.1953248058  TIP3      7471            0.0000000000
     73929      8832  TIP3      OH2           -25.7369969764       -7.6270124078      -96.2774120866  TIP3      7472            0.0000000000
     73930      8832  TIP3      H1            -26.7012047655       -7.5304952549      -96.1236402828  TIP3      7472            0.0000000000
     73931      8832  TIP3      H2            -25.4824292269       -6.7003682779      -96.4569726317  TIP3      7472            0.0000000000
     73932      8833  TIP3      OH2           -25.4256344244      -19.3516667972      -94.8691277349  TIP3      7473            0.0000000000
     73933      8833  TIP3      H1            -26.1717973277      -18.7404108113      -94.9308221549  TIP3      7473            0.0000000000
     73934      8833  TIP3      H2            -24.7507082516      -18.9303008598      -95.4275238168  TIP3      7473            0.0000000000
     73935      8834  TIP3      OH2           -32.4431698247      -21.2102140947      -97.3974744352  TIP3      7474            0.0000000000
     73936      8834  TIP3      H1            -32.5655568025      -22.1802936654      -97.4945214539  TIP3      7474            0.0000000000
     73937      8834  TIP3      H2            -33.3454118516      -20.9389568817      -97.1291542698  TIP3      7474            0.0000000000
     73938      8835  TIP3      OH2           -24.5621669212       -9.3389639752      -92.6576455751  TIP3      7475            0.0000000000
     73939      8835  TIP3      H1            -24.5265600986       -9.9891251835      -93.4027948702  TIP3      7475            0.0000000000
     73940      8835  TIP3      H2            -24.4892929855       -8.4909247866      -93.1282026578  TIP3      7475            0.0000000000
     73941      8836  TIP3      OH2           -30.0997447639      -13.9398322049       88.9411516288  TIP3      7476            0.0000000000
     73942      8836  TIP3      H1            -29.3433886913      -13.8934880322       89.5283487975  TIP3      7476            0.0000000000
     73943      8836  TIP3      H2            -29.8179110309      -14.5289511542       88.2326810324  TIP3      7476            0.0000000000
     73944      8837  TIP3      OH2           -26.7508856636      -12.2539831797       92.7180955524  TIP3      7477            0.0000000000
     73945      8837  TIP3      H1            -27.4527029106      -11.9767537252       93.3523757227  TIP3      7477            0.0000000000
     73946      8837  TIP3      H2            -26.2276897982      -12.8773913856       93.2515705112  TIP3      7477            0.0000000000
     73947      8838  TIP3      OH2           -26.8003785345      -14.0640906174      -92.8696898082  TIP3      7478            0.0000000000
     73948      8838  TIP3      H1            -26.7757401023      -13.2424615211      -92.3500173737  TIP3      7478            0.0000000000
     73949      8838  TIP3      H2            -27.4262115672      -13.7628184865      -93.5631084087  TIP3      7478            0.0000000000
     73950      8839  TIP3      OH2           -33.7448492580       -8.1280356830       97.2972394547  TIP3      7479            0.0000000000
     73951      8839  TIP3      H1            -33.7967795894       -8.7201932232       96.5477094150  TIP3      7479            0.0000000000
     73952      8839  TIP3      H2            -33.0134289489       -8.5285988490       97.8080739352  TIP3      7479            0.0000000000
     73953      8840  TIP3      OH2           -28.3875332344       -7.2518642669      -95.6935024679  TIP3      7480            0.0000000000
     73954      8840  TIP3      H1            -28.6649258047       -6.6474940008      -95.0179836629  TIP3      7480            0.0000000000
     73955      8840  TIP3      H2            -28.6267512475       -8.1289306788      -95.2989769339  TIP3      7480            0.0000000000
     73956      8841  TIP3      OH2           -33.8263383685       -8.3601076315      -91.7065822200  TIP3      7481            0.0000000000
     73957      8841  TIP3      H1            -34.2461921214       -7.6132222374      -91.2424070665  TIP3      7481            0.0000000000
     73958      8841  TIP3      H2            -34.4856358162       -8.5716322890      -92.4136381237  TIP3      7481            0.0000000000
     73959      8842  TIP3      OH2           -27.8206291914      -13.1002269349       90.4066376403  TIP3      7482            0.0000000000
     73960      8842  TIP3      H1            -27.3228018355      -12.8287920848       91.2183093812  TIP3      7482            0.0000000000
     73961      8842  TIP3      H2            -27.4848859312      -12.4845912795       89.7479179762  TIP3      7482            0.0000000000
     73962      8843  TIP3      OH2           -35.5879980387       -6.3335577552      -90.9783877913  TIP3      7483            0.0000000000
     73963      8843  TIP3      H1            -35.6451882714       -6.4487808787      -91.9418390206  TIP3      7483            0.0000000000
     73964      8843  TIP3      H2            -36.5161974253       -6.4579709957      -90.6998110255  TIP3      7483            0.0000000000
     73965      8844  TIP3      OH2           -39.6248588525      -10.3715258179      -93.7988863120  TIP3      7484            0.0000000000
     73966      8844  TIP3      H1            -40.4127659770      -10.0863146312      -94.3212040151  TIP3      7484            0.0000000000
     73967      8844  TIP3      H2            -39.9987322601      -11.1213768336      -93.2990263964  TIP3      7484            0.0000000000
     73968      8845  TIP3      OH2           -40.1745432139       -7.8646437726      -96.8345992792  TIP3      7485            0.0000000000
     73969      8845  TIP3      H1            -39.2497210739       -7.6318912204      -96.8604371873  TIP3      7485            0.0000000000
     73970      8845  TIP3      H2            -40.4138617589       -7.1387313378      -96.2102260478  TIP3      7485            0.0000000000
     73971      8846  TIP3      OH2           -22.0456396605       -6.6963456769      -90.9441966022  TIP3      7486            0.0000000000
     73972      8846  TIP3      H1            -22.1742143026       -7.6373931372      -91.2100271047  TIP3      7486            0.0000000000
     73973      8846  TIP3      H2            -22.9656171192       -6.4427863144      -90.7792346811  TIP3      7486            0.0000000000
     73974      8847  TIP3      OH2           -31.1052735735       -7.0854174023      -92.2802301960  TIP3      7487            0.0000000000
     73975      8847  TIP3      H1            -31.0356342488       -6.2864480962      -91.7080935337  TIP3      7487            0.0000000000
     73976      8847  TIP3      H2            -31.9446481760       -7.4815034861      -91.9781513573  TIP3      7487            0.0000000000
     73977      8848  TIP3      OH2           -37.0161078587       -4.4863768940       94.1016490436  TIP3      7488            0.0000000000
     73978      8848  TIP3      H1            -36.8592104520       -4.9312468714       94.9666934920  TIP3      7488            0.0000000000
     73979      8848  TIP3      H2            -37.8346367831       -4.9499041158       93.8633104259  TIP3      7488            0.0000000000
     73980      8849  TIP3      OH2           -24.9265173195      -15.2048101527      -90.5637551377  TIP3      7489            0.0000000000
     73981      8849  TIP3      H1            -25.3158826792      -14.7209078418      -91.3147597258  TIP3      7489            0.0000000000
     73982      8849  TIP3      H2            -24.8867408873      -16.1044210335      -90.9207435115  TIP3      7489            0.0000000000
     73983      8850  TIP3      OH2           -37.8254548890       -8.7308751094      -92.5740965745  TIP3      7490            0.0000000000
     73984      8850  TIP3      H1            -37.5891791915       -9.1615364656      -91.7445284723  TIP3      7490            0.0000000000
     73985      8850  TIP3      H2            -38.6305007984       -9.2152493468      -92.8629715811  TIP3      7490            0.0000000000
     73986      8851  TIP3      OH2           -35.0689389162      -20.3318515032      -96.6226666608  TIP3      7491            0.0000000000
     73987      8851  TIP3      H1            -35.9719557183      -20.4200361359      -97.0197686401  TIP3      7491            0.0000000000
     73988      8851  TIP3      H2            -35.1776402837      -19.4679242147      -96.2154679136  TIP3      7491            0.0000000000
     73989      8852  TIP3      OH2           -27.1253086703      -16.8348207451      -92.3893831159  TIP3      7492            0.0000000000
     73990      8852  TIP3      H1            -27.7116749871      -16.9848549199      -91.6372093919  TIP3      7492            0.0000000000
     73991      8852  TIP3      H2            -27.3098872149      -15.9186020277      -92.6611279276  TIP3      7492            0.0000000000
     73992      8853  TIP3      OH2           -29.4412668181      -14.7340221663       92.9292380007  TIP3      7493            0.0000000000
     73993      8853  TIP3      H1            -29.8928521038      -13.9471769614       92.6073322677  TIP3      7493            0.0000000000
     73994      8853  TIP3      H2            -28.7843862441      -14.9037796572       92.2341273174  TIP3      7493            0.0000000000
     73995      8854  TIP3      OH2           -30.4214558787      -14.5427713423      -90.3488130410  TIP3      7494            0.0000000000
     73996      8854  TIP3      H1            -30.9865454020      -15.2731026840      -90.0281513177  TIP3      7494            0.0000000000
     73997      8854  TIP3      H2            -29.6123649840      -14.6505402412      -89.8396135353  TIP3      7494            0.0000000000
     73998      8855  TIP3      OH2           -28.4708861379      -15.2867842956       95.7885497043  TIP3      7495            0.0000000000
     73999      8855  TIP3      H1            -28.7443375460      -14.6903067268       95.0687818510  TIP3      7495            0.0000000000
     74000      8855  TIP3      H2            -28.3630319209      -16.1076489958       95.2948141536  TIP3      7495            0.0000000000
     74001      8856  TIP3      OH2           -29.1729249690      -13.6282839597      -94.3571173359  TIP3      7496            0.0000000000
     74002      8856  TIP3      H1            -28.9195946144      -14.3224941091      -94.9916175015  TIP3      7496            0.0000000000
     74003      8856  TIP3      H2            -29.7005398163      -14.1238895054      -93.7114168158  TIP3      7496            0.0000000000
     74004      8857  TIP3      OH2           -32.4794162669      -17.7055260336       95.1961943239  TIP3      7497            0.0000000000
     74005      8857  TIP3      H1            -33.4124346955      -17.6588240853       95.4476489879  TIP3      7497            0.0000000000
     74006      8857  TIP3      H2            -31.9934318733      -17.8364419596       96.0185427631  TIP3      7497            0.0000000000
     74007      8858  TIP3      OH2           -28.0737526516      -18.3808460396      -96.3195791264  TIP3      7498            0.0000000000
     74008      8858  TIP3      H1            -28.7229398855      -18.4206309827      -95.6092638064  TIP3      7498            0.0000000000
     74009      8858  TIP3      H2            -28.5716378839      -18.7161219883      -97.0782453874  TIP3      7498            0.0000000000
     74010      8859  TIP3      OH2           -32.0252485676      -10.2666760862       91.1990536099  TIP3      7499            0.0000000000
     74011      8859  TIP3      H1            -32.6981060658      -10.8806218274       90.8685574701  TIP3      7499            0.0000000000
     74012      8859  TIP3      H2            -32.1581296472      -10.3294291289       92.1568566829  TIP3      7499            0.0000000000
     74013      8860  TIP3      OH2           -24.7923987012      -11.1687150723      -94.7519021908  TIP3      7500            0.0000000000
     74014      8860  TIP3      H1            -24.1985570181      -10.7037340016      -95.3598770757  TIP3      7500            0.0000000000
     74015      8860  TIP3      H2            -25.6414131756      -11.1151372756      -95.2274662432  TIP3      7500            0.0000000000
     74016      8861  TIP3      OH2           -28.1062499551      -17.5891856522       89.3579607678  TIP3      7501            0.0000000000
     74017      8861  TIP3      H1            -29.0339735786      -17.4303583123       89.1750278011  TIP3      7501            0.0000000000
     74018      8861  TIP3      H2            -27.7990049213      -16.7275148038       89.6840026018  TIP3      7501            0.0000000000
     74019      8862  TIP3      OH2           -30.4652853798      -10.1373726776      -92.3044437410  TIP3      7502            0.0000000000
     74020      8862  TIP3      H1            -30.8281787412      -10.5422158752      -91.5095777148  TIP3      7502            0.0000000000
     74021      8862  TIP3      H2            -30.7103145089       -9.2120921582      -92.2044451610  TIP3      7502            0.0000000000
     74022      8863  TIP3      OH2           -27.3732794401      -15.6482870676       91.0529846409  TIP3      7503            0.0000000000
     74023      8863  TIP3      H1            -26.4628857873      -15.7848311563       91.3848287589  TIP3      7503            0.0000000000
     74024      8863  TIP3      H2            -27.3184546214      -14.8480048785       90.5021529616  TIP3      7503            0.0000000000
     74025      8864  TIP3      OH2           -29.8712807538       -8.8643161756       90.2769292889  TIP3      7504            0.0000000000
     74026      8864  TIP3      H1            -30.2103139084       -8.0302550193       90.5827948412  TIP3      7504            0.0000000000
     74027      8864  TIP3      H2            -30.5952240297       -9.5110685197       90.4156661172  TIP3      7504            0.0000000000
     74028      8865  TIP3      OH2           -39.9221018766      -12.5914802616      -92.4321304898  TIP3      7505            0.0000000000
     74029      8865  TIP3      H1            -39.6293678385      -13.0535918815      -91.6442304358  TIP3      7505            0.0000000000
     74030      8865  TIP3      H2            -40.4839149368      -13.2218039306      -92.8767549718  TIP3      7505            0.0000000000
     74031      8866  TIP3      OH2           -28.1861840219       -7.6512199488      -92.3522434041  TIP3      7506            0.0000000000
     74032      8866  TIP3      H1            -29.1170790993       -7.5276553480      -92.5887129437  TIP3      7506            0.0000000000
     74033      8866  TIP3      H2            -28.2199839515       -7.4214103639      -91.4196596097  TIP3      7506            0.0000000000
     74034      8867  TIP3      OH2           -22.4793756349       -9.5706257320      -91.1260319696  TIP3      7507            0.0000000000
     74035      8867  TIP3      H1            -23.3735688942       -9.4709481605      -91.5504117165  TIP3      7507            0.0000000000
     74036      8867  TIP3      H2            -21.9373757370       -9.6981605326      -91.9351437835  TIP3      7507            0.0000000000
     74037      8868  TIP3      OH2           -27.0106884416      -11.8422505972      -96.4828720167  TIP3      7508            0.0000000000
     74038      8868  TIP3      H1            -27.9518418714      -12.0614512680      -96.5828293217  TIP3      7508            0.0000000000
     74039      8868  TIP3      H2            -26.5756704470      -12.6162573719      -96.8831682533  TIP3      7508            0.0000000000
     74040      8869  TIP3      OH2           -34.4559054683       -7.5710418997       94.3143049912  TIP3      7509            0.0000000000
     74041      8869  TIP3      H1            -33.9937077218       -6.7278961169       94.1759356079  TIP3      7509            0.0000000000
     74042      8869  TIP3      H2            -35.3387802183       -7.2884427135       94.0367315167  TIP3      7509            0.0000000000
     74043      8870  TIP3      OH2           -33.0837482354       -9.8738422924       93.8650266334  TIP3      7510            0.0000000000
     74044      8870  TIP3      H1            -33.3616572905       -8.9395571598       93.9642912982  TIP3      7510            0.0000000000
     74045      8870  TIP3      H2            -33.7992756008      -10.3078242183       94.3292023218  TIP3      7510            0.0000000000
     74046      8871  TIP3      OH2           -32.5629976470       -5.7196330651      -94.4434422110  TIP3      7511            0.0000000000
     74047      8871  TIP3      H1            -32.1956176341       -4.8604755207      -94.6711358538  TIP3      7511            0.0000000000
     74048      8871  TIP3      H2            -31.9939224962       -6.0270549357      -93.7170338392  TIP3      7511            0.0000000000
     74049      8872  TIP3      OH2           -34.3457249158       -4.8471602904       93.4642822880  TIP3      7512            0.0000000000
     74050      8872  TIP3      H1            -35.3190375855       -4.7380342015       93.5343127803  TIP3      7512            0.0000000000
     74051      8872  TIP3      H2            -34.0444918131       -3.9911537778       93.8080090760  TIP3      7512            0.0000000000
     74052      8873  TIP3      OH2           -29.0519677885       -9.6569752611      -94.7762376223  TIP3      7513            0.0000000000
     74053      8873  TIP3      H1            -29.4317532891       -9.9128605490      -93.9098919934  TIP3      7513            0.0000000000
     74054      8873  TIP3      H2            -28.4228960094      -10.3755225984      -94.9655400161  TIP3      7513            0.0000000000
     74055      8874  TIP3      OH2           -38.2925249065      -17.8113532689      -92.8816795347  TIP3      7514            0.0000000000
     74056      8874  TIP3      H1            -39.2010652824      -17.5439320448      -92.9531933586  TIP3      7514            0.0000000000
     74057      8874  TIP3      H2            -38.3563140562      -18.7062798822      -92.5291227927  TIP3      7514            0.0000000000
     74058      8875  TIP3      OH2           -25.9548298525      -10.0762249615       91.1862299131  TIP3      7515            0.0000000000
     74059      8875  TIP3      H1            -26.2224004318      -10.7719114494       91.8102032868  TIP3      7515            0.0000000000
     74060      8875  TIP3      H2            -25.0294412260       -9.9116554481       91.4460764193  TIP3      7515            0.0000000000
     74061      8876  TIP3      OH2           -38.5173131059       -6.0743782225      -94.4211724204  TIP3      7516            0.0000000000
     74062      8876  TIP3      H1            -38.2801739204       -7.0063992845      -94.4310351569  TIP3      7516            0.0000000000
     74063      8876  TIP3      H2            -38.2567257837       -5.7672195058      -93.5507910386  TIP3      7516            0.0000000000
     74064      8877  TIP3      OH2           -33.8578945256       -7.9879770306       89.9070691424  TIP3      7517            0.0000000000
     74065      8877  TIP3      H1            -33.5988234389       -8.5423993457       90.6608631520  TIP3      7517            0.0000000000
     74066      8877  TIP3      H2            -33.7527466000       -7.1013031368       90.2584835930  TIP3      7517            0.0000000000
     74067      8878  TIP3      OH2           -37.2855794346      -10.6982542379       90.4337471976  TIP3      7518            0.0000000000
     74068      8878  TIP3      H1            -38.0070854286      -10.3603384415       90.9971829463  TIP3      7518            0.0000000000
     74069      8878  TIP3      H2            -36.8065052102       -9.9121206545       90.1732373962  TIP3      7518            0.0000000000
     74070      8879  TIP3      OH2           -31.5167608777      -16.7579252868       92.6433406386  TIP3      7519            0.0000000000
     74071      8879  TIP3      H1            -30.7177626440      -16.2082240595       92.6771105905  TIP3      7519            0.0000000000
     74072      8879  TIP3      H2            -31.7722679183      -16.8799727394       93.5740609854  TIP3      7519            0.0000000000
     74073      8880  TIP3      OH2           -24.7046750922      -17.8061443167      -92.0511730647  TIP3      7520            0.0000000000
     74074      8880  TIP3      H1            -25.6615870003      -17.5713796173      -92.1651664943  TIP3      7520            0.0000000000
     74075      8880  TIP3      H2            -24.4617132557      -17.8579811026      -92.9838890879  TIP3      7520            0.0000000000
     74076      8881  TIP3      OH2           -26.1596042472      -14.0935038299       96.6988898669  TIP3      7521            0.0000000000
     74077      8881  TIP3      H1            -27.0042677608      -14.5105111350       96.4454735766  TIP3      7521            0.0000000000
     74078      8881  TIP3      H2            -25.7199168145      -14.7384312693       97.2686276343  TIP3      7521            0.0000000000
     74079      8882  TIP3      OH2           -36.7128819562       -8.1381834754       89.2874596250  TIP3      7522            0.0000000000
     74080      8882  TIP3      H1            -36.0960854962       -7.4736630917       89.6064283012  TIP3      7522            0.0000000000
     74081      8882  TIP3      H2            -36.2256023561       -8.5913581728       88.5951250001  TIP3      7522            0.0000000000
     74082      8883  TIP3      OH2           -25.1057767448       -4.7875927496      -96.3333628507  TIP3      7523            0.0000000000
     74083      8883  TIP3      H1            -25.2633463623       -4.1462594089      -97.0340273868  TIP3      7523            0.0000000000
     74084      8883  TIP3      H2            -24.1493778552       -4.7284232479      -96.1564224820  TIP3      7523            0.0000000000
     74085      8884  TIP3      OH2           -37.5167454684      -20.7214667929       97.1021446461  TIP3      7524            0.0000000000
     74086      8884  TIP3      H1            -37.8321302919      -20.6204016495       96.2028458114  TIP3      7524            0.0000000000
     74087      8884  TIP3      H2            -38.0552755027      -21.4320946957       97.4369209692  TIP3      7524            0.0000000000
     74088      8885  TIP3      OH2           -38.5948383788       -6.8125423875       93.2860712175  TIP3      7525            0.0000000000
     74089      8885  TIP3      H1            -39.4494972644       -6.3525924722       93.2654267747  TIP3      7525            0.0000000000
     74090      8885  TIP3      H2            -38.1459565983       -6.3165982176       92.5941281459  TIP3      7525            0.0000000000
     74091      8886  TIP3      OH2           -38.9159576033       -4.4880312810      -90.2373731253  TIP3      7526            0.0000000000
     74092      8886  TIP3      H1            -38.7746069203       -4.3882354298      -89.2826618740  TIP3      7526            0.0000000000
     74093      8886  TIP3      H2            -39.7802892024       -4.9388227289      -90.2663142592  TIP3      7526            0.0000000000
     74094      8887  TIP3      OH2           -34.7308648519       -5.1525542024      -88.5077225028  TIP3      7527            0.0000000000
     74095      8887  TIP3      H1            -34.0081067790       -5.7187292710      -88.2001077676  TIP3      7527            0.0000000000
     74096      8887  TIP3      H2            -34.8193790655       -5.4664581089      -89.4368157709  TIP3      7527            0.0000000000
     74097      8888  TIP3      OH2           -39.4846179122      -10.3316606355      -89.1347808192  TIP3      7528            0.0000000000
     74098      8888  TIP3      H1            -39.3106268216      -11.2250020788      -89.4547825892  TIP3      7528            0.0000000000
     74099      8888  TIP3      H2            -40.2221336109      -10.0467959594      -89.6900638894  TIP3      7528            0.0000000000
     74100      8889  TIP3      OH2           -32.7568091357      -10.3174273151      -89.7728951348  TIP3      7529            0.0000000000
     74101      8889  TIP3      H1            -33.1746161907      -10.0522044637      -90.6111746302  TIP3      7529            0.0000000000
     74102      8889  TIP3      H2            -32.6693381320      -11.2733878077      -89.8093975300  TIP3      7529            0.0000000000
     74103      8890  TIP3      OH2           -27.0987164617      -10.4650112392      -92.3410448521  TIP3      7530            0.0000000000
     74104      8890  TIP3      H1            -26.3176355197       -9.8833322950      -92.4103721135  TIP3      7530            0.0000000000
     74105      8890  TIP3      H2            -27.8113862366       -9.8188937122      -92.2802775565  TIP3      7530            0.0000000000
     74106      8891  TIP3      OH2           -29.6667169468      -11.6329545765      -89.0284819538  TIP3      7531            0.0000000000
     74107      8891  TIP3      H1            -28.7080085240      -11.5870921760      -89.1457334023  TIP3      7531            0.0000000000
     74108      8891  TIP3      H2            -29.8152759588      -12.3751744875      -88.4207452917  TIP3      7531            0.0000000000
     74109      8892  TIP3      OH2           -27.9463847397      -15.1096303288      -88.5988608643  TIP3      7532            0.0000000000
     74110      8892  TIP3      H1            -27.7394771542      -16.0496423797      -88.5999489132  TIP3      7532            0.0000000000
     74111      8892  TIP3      H2            -27.0725823494      -14.6974095327      -88.5540166353  TIP3      7532            0.0000000000
     74112      8893  TIP3      OH2           -26.6220720179      -12.3977561398      -90.4290166415  TIP3      7533            0.0000000000
     74113      8893  TIP3      H1            -26.8843957008      -11.6631342123      -91.0230490739  TIP3      7533            0.0000000000
     74114      8893  TIP3      H2            -25.6549992458      -12.4066593310      -90.5852943876  TIP3      7533            0.0000000000
     74115      8894  TIP3      OH2           -31.8541423091      -16.6906675353      -89.7586566978  TIP3      7534            0.0000000000
     74116      8894  TIP3      H1            -32.1341444055      -16.8418479695      -88.8544536870  TIP3      7534            0.0000000000
     74117      8894  TIP3      H2            -32.6474395393      -16.8284720990      -90.2908432822  TIP3      7534            0.0000000000
     74118      8895  TIP3      OH2           -32.8382465823      -21.5704236456      -90.6849225812  TIP3      7535            0.0000000000
     74119      8895  TIP3      H1            -32.2242736236      -22.3148739508      -90.6965439873  TIP3      7535            0.0000000000
     74120      8895  TIP3      H2            -33.0194215973      -21.4322311682      -91.6171761911  TIP3      7535            0.0000000000
     74121      8896  TIP3      OH2           -32.5239974244      -19.9485507636      -88.6099653684  TIP3      7536            0.0000000000
     74122      8896  TIP3      H1            -32.6916096059      -20.4894793596      -89.4212225169  TIP3      7536            0.0000000000
     74123      8896  TIP3      H2            -33.1564154035      -19.2396877149      -88.7307296366  TIP3      7536            0.0000000000
     74124      8897  TIP3      OH2           -39.4741960417       -8.4689845910       88.7636984915  TIP3      7537            0.0000000000
     74125      8897  TIP3      H1            -38.5338527533       -8.3721524906       89.0128981409  TIP3      7537            0.0000000000
     74126      8897  TIP3      H2            -39.4316248824       -9.1324336569       88.0717701865  TIP3      7537            0.0000000000
     74127      8898  TIP3      OH2            40.7978318351       -3.4374895822       94.3182081073  TIP3      7538            0.0000000000
     74128      8898  TIP3      H1             40.2655476527       -3.5839790700       93.5120901741  TIP3      7538            0.0000000000
     74129      8898  TIP3      H2             41.2475526458       -4.2581884015       94.4708574938  TIP3      7538            0.0000000000
     74130      8899  TIP3      OH2           -39.4981580500       -5.3877258788       95.2147962374  TIP3      7539            0.0000000000
     74131      8899  TIP3      H1            -40.2012746032       -5.9110978840       95.6310113163  TIP3      7539            0.0000000000
     74132      8899  TIP3      H2            -39.4125658992       -4.6964887569       95.8990134585  TIP3      7539            0.0000000000
     74133      8900  TIP3      OH2           -22.3625277358       -4.1256452561      -96.1558422481  TIP3      7540            0.0000000000
     74134      8900  TIP3      H1            -22.3591879213       -3.9969306774      -95.1907947293  TIP3      7540            0.0000000000
     74135      8900  TIP3      H2            -21.6127726576       -3.5976863750      -96.4230051533  TIP3      7540            0.0000000000
     74136      8901  TIP3      OH2           -22.7245924034       -4.5950699830      -93.2501460397  TIP3      7541            0.0000000000
     74137      8901  TIP3      H1            -23.2767561013       -5.3274850384      -93.5923488814  TIP3      7541            0.0000000000
     74138      8901  TIP3      H2            -22.2692033920       -5.0120440303      -92.5211267808  TIP3      7541            0.0000000000
     74139      8902  TIP3      OH2           -23.0490912098      -10.5425449833       91.6651892447  TIP3      7542            0.0000000000
     74140      8902  TIP3      H1            -22.1763142377      -10.1360248521       91.7895721973  TIP3      7542            0.0000000000
     74141      8902  TIP3      H2            -23.0146339101      -11.2963165035       92.2975437848  TIP3      7542            0.0000000000
     74142      8903  TIP3      OH2           -22.6971378802      -12.4553068195       93.4854477285  TIP3      7543            0.0000000000
     74143      8903  TIP3      H1            -23.4314748373      -12.9838514534       93.8650763053  TIP3      7543            0.0000000000
     74144      8903  TIP3      H2            -22.1211358361      -12.3225253289       94.2343396146  TIP3      7543            0.0000000000
     74145      8904  TIP3      OH2           -22.9164181464       -9.7600022679      -96.2702381735  TIP3      7544            0.0000000000
     74146      8904  TIP3      H1            -22.0695365494      -10.0826321659      -96.5846465002  TIP3      7544            0.0000000000
     74147      8904  TIP3      H2            -22.8056612450       -8.7915007736      -96.3920601075  TIP3      7544            0.0000000000
     74148      8905  TIP3      OH2           -24.3750609587       -6.8133000551      -93.9108786488  TIP3      7545            0.0000000000
     74149      8905  TIP3      H1            -25.1079293426       -6.4753730632      -93.3805338072  TIP3      7545            0.0000000000
     74150      8905  TIP3      H2            -24.8816031986       -7.2208297521      -94.6538534934  TIP3      7545            0.0000000000
     74151      8906  TIP3      OH2           -22.3697873911      -12.6116345481       89.8733377416  TIP3      7546            0.0000000000
     74152      8906  TIP3      H1            -22.9552461197      -12.2581827087       89.2111682329  TIP3      7546            0.0000000000
     74153      8906  TIP3      H2            -22.4325859152      -11.9380394999       90.5673637207  TIP3      7546            0.0000000000
     74154      8907  TIP3      OH2           -24.8427422440      -13.9509439645       94.0868101731  TIP3      7547            0.0000000000
     74155      8907  TIP3      H1            -25.0379012743      -14.9020875175       94.0119333443  TIP3      7547            0.0000000000
     74156      8907  TIP3      H2            -25.2454939791      -13.7251886340       94.9402596192  TIP3      7547            0.0000000000
     74157      8908  TIP3      OH2           -39.9741221155      -12.0130315590      -96.6668681914  TIP3      7548            0.0000000000
     74158      8908  TIP3      H1            -39.7348012675      -11.9503572176      -97.6073674055  TIP3      7548            0.0000000000
     74159      8908  TIP3      H2            -39.1018810582      -11.9635417609      -96.2527895684  TIP3      7548            0.0000000000
     74160      8909  TIP3      OH2           -24.0212368798      -12.0285905857      -90.9624532468  TIP3      7549            0.0000000000
     74161      8909  TIP3      H1            -23.4270527184      -12.7789936375      -90.8437052859  TIP3      7549            0.0000000000
     74162      8909  TIP3      H2            -23.4306287683      -11.2550517782      -90.9565476221  TIP3      7549            0.0000000000
     74163      8910  TIP3      OH2           -24.7592878833      -17.9044413610       87.5949997972  TIP3      7550            0.0000000000
     74164      8910  TIP3      H1            -24.1628141517      -18.3607915482       88.1909654175  TIP3      7550            0.0000000000
     74165      8910  TIP3      H2            -25.6126105385      -18.3430214575       87.7365773326  TIP3      7550            0.0000000000
     74166      8911  TIP3      OH2           -25.1497108835      -16.3400133888       92.5537947395  TIP3      7551            0.0000000000
     74167      8911  TIP3      H1            -24.8991046396      -17.2661089843       92.6440727790  TIP3      7551            0.0000000000
     74168      8911  TIP3      H2            -24.3822101262      -15.9493550509       92.1210512449  TIP3      7551            0.0000000000
     74169      8912  TIP3      OH2           -24.4627447905      -15.0871600795      -93.9287098439  TIP3      7552            0.0000000000
     74170      8912  TIP3      H1            -25.3583216880      -14.8179899481      -93.6509908229  TIP3      7552            0.0000000000
     74171      8912  TIP3      H2            -24.1226905370      -14.2232468114      -94.2312887317  TIP3      7552            0.0000000000
     74172      8913  TIP3      OH2           -22.1064101824      -21.0844830393      -88.6793256397  TIP3      7553            0.0000000000
     74173      8913  TIP3      H1            -21.8731066216      -21.7638398668      -89.3067298604  TIP3      7553            0.0000000000
     74174      8913  TIP3      H2            -22.1235632098      -20.2530451847      -89.1800337943  TIP3      7553            0.0000000000
     74175      8914  TIP3      OH2           -22.7095005903      -18.9718934858      -90.2489074522  TIP3      7554            0.0000000000
     74176      8914  TIP3      H1            -23.6428236485      -18.6993130512      -90.3425393211  TIP3      7554            0.0000000000
     74177      8914  TIP3      H2            -22.6203484524      -19.4842124203      -91.0634533202  TIP3      7554            0.0000000000
     74178      8915  TIP3      OH2            41.1342216952      -20.0034194809      -93.9186268533  TIP3      7555            0.0000000000
     74179      8915  TIP3      H1             40.4548910289      -20.5994960502      -93.5689023856  TIP3      7555            0.0000000000
     74180      8915  TIP3      H2             40.6208509810      -19.6806914484      -94.6779560650  TIP3      7555            0.0000000000
     74181      8916  TIP3      OH2           -38.2416248542       -7.2466554271      -89.9899990310  TIP3      7556            0.0000000000
     74182      8916  TIP3      H1            -39.0443266540       -6.9317625145      -90.4321423062  TIP3      7556            0.0000000000
     74183      8916  TIP3      H2            -38.4955785398       -7.2352211204      -89.0603416189  TIP3      7556            0.0000000000
     74184      8917  TIP3      OH2           -35.3135813009       -6.1717085423      -93.7550005969  TIP3      7557            0.0000000000
     74185      8917  TIP3      H1            -35.6696396594       -5.3019626304      -94.0195673131  TIP3      7557            0.0000000000
     74186      8917  TIP3      H2            -34.3823051016       -6.0798031428      -94.0472259871  TIP3      7557            0.0000000000
     74187      8918  TIP3      OH2           -30.9481824976       -4.8263684090      -90.8140492000  TIP3      7558            0.0000000000
     74188      8918  TIP3      H1            -30.7755741571       -5.0957781276      -89.9051929440  TIP3      7558            0.0000000000
     74189      8918  TIP3      H2            -30.1246218519       -4.4079463124      -91.0936176752  TIP3      7558            0.0000000000
     74190      8919  TIP3      OH2           -37.7655176975       -3.0584858426      -93.6639918789  TIP3      7559            0.0000000000
     74191      8919  TIP3      H1            -38.4146120729       -2.4335128334      -94.0348281036  TIP3      7559            0.0000000000
     74192      8919  TIP3      H2            -38.1552110655       -3.1240786518      -92.7862681959  TIP3      7559            0.0000000000
     74193      8920  TIP3      OH2           -35.3522297969       -3.3442408932      -94.6906611582  TIP3      7560            0.0000000000
     74194      8920  TIP3      H1            -36.2471384880       -3.2156996683      -94.2875060717  TIP3      7560            0.0000000000
     74195      8920  TIP3      H2            -35.4676073585       -2.7581768547      -95.4472585222  TIP3      7560            0.0000000000
     74196      8921  TIP3      OH2           -37.5833034180       -4.0037920480      -96.2200347791  TIP3      7561            0.0000000000
     74197      8921  TIP3      H1            -38.2974226647       -4.5575208166      -95.8196391802  TIP3      7561            0.0000000000
     74198      8921  TIP3      H2            -37.4340657760       -4.4767515334      -97.0507519290  TIP3      7561            0.0000000000
     74199      8922  TIP3      OH2           -36.4028718195       -5.5793268094       96.5536431250  TIP3      7562            0.0000000000
     74200      8922  TIP3      H1            -36.5123083164       -6.5107046437       96.7793516437  TIP3      7562            0.0000000000
     74201      8922  TIP3      H2            -35.5358442423       -5.4054495035       97.0016312713  TIP3      7562            0.0000000000
     74202      8923  TIP3      OH2           -33.7721771400       -5.1165794698      -97.2780208451  TIP3      7563            0.0000000000
     74203      8923  TIP3      H1            -33.5764868034       -6.0297790026      -97.5419299285  TIP3      7563            0.0000000000
     74204      8923  TIP3      H2            -33.7212788352       -5.1599566298      -96.3097187257  TIP3      7563            0.0000000000
     74205      8924  TIP3      OH2           -30.2747551782      -19.4459934994       96.5843146305  TIP3      7564            0.0000000000
     74206      8924  TIP3      H1            -30.9551530659      -20.0926040771       96.8536567007  TIP3      7564            0.0000000000
     74207      8924  TIP3      H2            -29.7272449989      -19.9770912398       95.9895217154  TIP3      7564            0.0000000000
     74208      8925  TIP3      OH2           -33.3820369535      -20.9437336230       94.2206998522  TIP3      7565            0.0000000000
     74209      8925  TIP3      H1            -32.5293121303      -20.5005846406       94.1930128740  TIP3      7565            0.0000000000
     74210      8925  TIP3      H2            -33.5193622452      -21.0495615617       95.1645335595  TIP3      7565            0.0000000000
     74211      8926  TIP3      OH2           -39.5573044997       -5.4762405718       91.2361618666  TIP3      7566            0.0000000000
     74212      8926  TIP3      H1            -39.9386292676       -5.1939194787       90.4073719149  TIP3      7566            0.0000000000
     74213      8926  TIP3      H2            -39.2089857976       -4.5582406598       91.4360664027  TIP3      7566            0.0000000000
     74214      8927  TIP3      OH2           -32.3416463271      -18.8462323902       91.1084387504  TIP3      7567            0.0000000000
     74215      8927  TIP3      H1            -32.0538703557      -19.4345457004       91.8133830506  TIP3      7567            0.0000000000
     74216      8927  TIP3      H2            -32.2473564615      -17.9687338124       91.5466009494  TIP3      7567            0.0000000000
     74217      8928  TIP3      OH2           -36.0190744135      -20.8927540378      -89.2525065562  TIP3      7568            0.0000000000
     74218      8928  TIP3      H1            -35.1546752826      -21.2611214717      -89.4674009941  TIP3      7568            0.0000000000
     74219      8928  TIP3      H2            -36.4476593191      -21.6626084615      -88.8276801509  TIP3      7568            0.0000000000
     74220      8929  TIP3      OH2           -37.4105774364       -4.2051724235       88.1348347497  TIP3      7569            0.0000000000
     74221      8929  TIP3      H1            -37.6352630337       -3.8989958470       89.0048228982  TIP3      7569            0.0000000000
     74222      8929  TIP3      H2            -36.6155621579       -4.6976325752       88.2790484564  TIP3      7569            0.0000000000
     74223      8930  TIP3      OH2           -10.0100775713      -11.6848461327       94.3222513902  TIP3      7570            0.0000000000
     74224      8930  TIP3      H1             -9.9221314612      -10.7027571552       94.2524555779  TIP3      7570            0.0000000000
     74225      8930  TIP3      H2            -10.7032067974      -11.8814322468       93.6972313355  TIP3      7570            0.0000000000
     74226      8931  TIP3      OH2           -11.1027531901      -12.4347343081      -96.9464193705  TIP3      7571            0.0000000000
     74227      8931  TIP3      H1            -11.1737706119      -13.1010283988      -96.2520874675  TIP3      7571            0.0000000000
     74228      8931  TIP3      H2            -11.4411409608      -12.9424421229      -97.7053673728  TIP3      7571            0.0000000000
     74229      8932  TIP3      OH2           -17.8331317587       -8.3162334239      -96.8254577973  TIP3      7572            0.0000000000
     74230      8932  TIP3      H1            -18.1673898285       -9.1304518906      -97.2231972400  TIP3      7572            0.0000000000
     74231      8932  TIP3      H2            -16.8674361052       -8.4689228430      -96.7856174920  TIP3      7572            0.0000000000
     74232      8933  TIP3      OH2           -12.7289632055      -10.0180825447      -96.4508520830  TIP3      7573            0.0000000000
     74233      8933  TIP3      H1            -12.3692870386      -10.6326726760      -97.1061844228  TIP3      7573            0.0000000000
     74234      8933  TIP3      H2            -11.9318983074       -9.8340991296      -95.9483913064  TIP3      7573            0.0000000000
     74235      8934  TIP3      OH2            -4.0948901030      -18.1084881764      -95.8137726965  TIP3      7574            0.0000000000
     74236      8934  TIP3      H1             -3.8874459495      -17.5786746639      -94.9908987410  TIP3      7574            0.0000000000
     74237      8934  TIP3      H2             -3.4637390902      -17.7026470531      -96.4334258379  TIP3      7574            0.0000000000
     74238      8935  TIP3      OH2            -9.5306803616      -15.5688950022      -96.1676697921  TIP3      7575            0.0000000000
     74239      8935  TIP3      H1             -9.4763606601      -16.5321683833      -96.1634848058  TIP3      7575            0.0000000000
     74240      8935  TIP3      H2             -9.6728746429      -15.3801919350      -97.1098075522  TIP3      7575            0.0000000000
     74241      8936  TIP3      OH2            -8.6653558429      -17.3581912135       94.2093642802  TIP3      7576            0.0000000000
     74242      8936  TIP3      H1             -7.9874323155      -17.6597740338       94.8388226005  TIP3      7576            0.0000000000
     74243      8936  TIP3      H2             -8.1584745266      -16.8088483815       93.5899984037  TIP3      7576            0.0000000000
     74244      8937  TIP3      OH2            -3.6988373322      -16.9469762436      -93.4714607407  TIP3      7577            0.0000000000
     74245      8937  TIP3      H1             -4.3165622431      -16.1852266484      -93.5389105267  TIP3      7577            0.0000000000
     74246      8937  TIP3      H2             -3.5964016949      -17.0421656788      -92.5040132642  TIP3      7577            0.0000000000
     74247      8938  TIP3      OH2           -17.5702170313      -18.5446798952      -94.9022726081  TIP3      7578            0.0000000000
     74248      8938  TIP3      H1            -17.8302126987      -17.9903707095      -95.6304739907  TIP3      7578            0.0000000000
     74249      8938  TIP3      H2            -18.2111507662      -18.3245225197      -94.1800321608  TIP3      7578            0.0000000000
     74250      8939  TIP3      OH2           -10.2635866154       -9.1260592188       93.4102478834  TIP3      7579            0.0000000000
     74251      8939  TIP3      H1            -10.5165092585       -9.3498006867       92.5156268694  TIP3      7579            0.0000000000
     74252      8939  TIP3      H2            -10.5245431633       -8.1877374987       93.5013675487  TIP3      7579            0.0000000000
     74253      8940  TIP3      OH2            -6.8526117991      -18.0719615923       96.1796600453  TIP3      7580            0.0000000000
     74254      8940  TIP3      H1             -7.1297370026      -18.7904064949       96.7395956811  TIP3      7580            0.0000000000
     74255      8940  TIP3      H2             -6.2427608148      -17.5357857458       96.7215339662  TIP3      7580            0.0000000000
     74256      8941  TIP3      OH2            -6.6199610017      -19.2756003899      -94.9876244017  TIP3      7581            0.0000000000
     74257      8941  TIP3      H1             -7.3639610720      -18.6687081815      -94.8751176651  TIP3      7581            0.0000000000
     74258      8941  TIP3      H2             -5.9834765328      -18.7261627826      -95.4490866534  TIP3      7581            0.0000000000
     74259      8942  TIP3      OH2            -3.9150002670      -13.0274070724      -94.6215097147  TIP3      7582            0.0000000000
     74260      8942  TIP3      H1             -4.5568722536      -12.3168356042      -94.5809661563  TIP3      7582            0.0000000000
     74261      8942  TIP3      H2             -3.4497789437      -12.7808262166      -95.4436490071  TIP3      7582            0.0000000000
     74262      8943  TIP3      OH2            -7.8903403100      -12.2896719733       92.7145050943  TIP3      7583            0.0000000000
     74263      8943  TIP3      H1             -8.5679355712      -11.9695557562       93.3480281262  TIP3      7583            0.0000000000
     74264      8943  TIP3      H2             -7.3817938621      -12.8996364361       93.2730678241  TIP3      7583            0.0000000000
     74265      8944  TIP3      OH2           -16.0873380115      -11.4944183167       94.5681602144  TIP3      7584            0.0000000000
     74266      8944  TIP3      H1            -16.5745946513      -11.9217499621       93.8561035382  TIP3      7584            0.0000000000
     74267      8944  TIP3      H2            -15.6663312704      -12.2381475001       95.0166367771  TIP3      7584            0.0000000000
     74268      8945  TIP3      OH2           -14.9249763330       -8.1795682072       97.3596295026  TIP3      7585            0.0000000000
     74269      8945  TIP3      H1            -14.9359308906       -8.6884011583       96.5376724737  TIP3      7585            0.0000000000
     74270      8945  TIP3      H2            -14.1404659892       -8.5255797341       97.8195684281  TIP3      7585            0.0000000000
     74271      8946  TIP3      OH2            -9.0017629083      -13.0880919941       90.4074836877  TIP3      7586            0.0000000000
     74272      8946  TIP3      H1             -8.4903808936      -12.8585498859       91.2234438362  TIP3      7586            0.0000000000
     74273      8946  TIP3      H2             -8.6307106473      -12.5004416281       89.7536774571  TIP3      7586            0.0000000000
     74274      8947  TIP3      OH2           -16.7533238766       -6.2840429936      -90.9573948458  TIP3      7587            0.0000000000
     74275      8947  TIP3      H1            -16.7219617640       -6.4561597849      -91.9011739262  TIP3      7587            0.0000000000
     74276      8947  TIP3      H2            -17.6681292325       -6.5018298169      -90.7304301698  TIP3      7587            0.0000000000
     74277      8948  TIP3      OH2            -5.3031887205      -21.2779434422       90.3487915612  TIP3      7588            0.0000000000
     74278      8948  TIP3      H1             -6.2420446584      -21.1650652563       90.4954901167  TIP3      7588            0.0000000000
     74279      8948  TIP3      H2             -5.0485600531      -20.4755004662       89.8645374052  TIP3      7588            0.0000000000
     74280      8949  TIP3      OH2           -21.2413581732      -10.0798128331      -93.5690793610  TIP3      7589            0.0000000000
     74281      8949  TIP3      H1            -21.6693901175      -10.1463361270      -94.4409013837  TIP3      7589            0.0000000000
     74282      8949  TIP3      H2            -21.1175893236      -11.0157656739      -93.3855093715  TIP3      7589            0.0000000000
     74283      8950  TIP3      OH2           -21.3998022455       -7.3982707746      -96.7841407864  TIP3      7590            0.0000000000
     74284      8950  TIP3      H1            -20.4368259174       -7.4813647727      -96.8148958248  TIP3      7590            0.0000000000
     74285      8950  TIP3      H2            -21.5236214512       -6.5719574553      -96.2847041057  TIP3      7590            0.0000000000
     74286      8951  TIP3      OH2           -18.2017612544       -4.5069764305       94.1184609834  TIP3      7591            0.0000000000
     74287      8951  TIP3      H1            -18.0074121233       -4.9208220525       94.9894327665  TIP3      7591            0.0000000000
     74288      8951  TIP3      H2            -18.9991801389       -4.9624022958       93.8373742334  TIP3      7591            0.0000000000
     74289      8952  TIP3      OH2            -6.0449748640      -15.1784280711      -90.6472577322  TIP3      7592            0.0000000000
     74290      8952  TIP3      H1             -6.5261876748      -14.7337934605      -91.3440688247  TIP3      7592            0.0000000000
     74291      8952  TIP3      H2             -6.0619630356      -16.1053789084      -90.9269333667  TIP3      7592            0.0000000000
     74292      8953  TIP3      OH2           -16.2348687695      -20.3007149186      -96.7110966084  TIP3      7593            0.0000000000
     74293      8953  TIP3      H1            -17.1506822399      -20.4281288126      -97.0272232233  TIP3      7593            0.0000000000
     74294      8953  TIP3      H2            -16.3457334049      -19.5042538775      -96.1682296007  TIP3      7593            0.0000000000
     74295      8954  TIP3      OH2            -8.2450810205      -16.8121157438      -92.3772156174  TIP3      7594            0.0000000000
     74296      8954  TIP3      H1             -8.8777846290      -17.0317178312      -91.6531740063  TIP3      7594            0.0000000000
     74297      8954  TIP3      H2             -8.5160644728      -15.9474248261      -92.6763507143  TIP3      7594            0.0000000000
     74298      8955  TIP3      OH2           -16.1586915342      -15.3740636834      -95.4776112527  TIP3      7595            0.0000000000
     74299      8955  TIP3      H1            -16.8257028995      -15.3902807557      -94.7976165734  TIP3      7595            0.0000000000
     74300      8955  TIP3      H2            -16.1895098166      -14.4726155642      -95.8137540344  TIP3      7595            0.0000000000
     74301      8956  TIP3      OH2           -11.6009085073      -14.5907733235      -90.3390482869  TIP3      7596            0.0000000000
     74302      8956  TIP3      H1            -12.1465571186      -15.2845697872      -89.9754293384  TIP3      7596            0.0000000000
     74303      8956  TIP3      H2            -10.7731514926      -14.6677502048      -89.8440218287  TIP3      7596            0.0000000000
     74304      8957  TIP3      OH2            -9.6233949745      -15.2785640617       95.7829488986  TIP3      7597            0.0000000000
     74305      8957  TIP3      H1             -9.8654861245      -14.6808923063       95.0582535261  TIP3      7597            0.0000000000
     74306      8957  TIP3      H2             -9.5122840835      -16.1112287165       95.2812294115  TIP3      7597            0.0000000000
     74307      8958  TIP3      OH2           -21.8339791766      -17.9014787087       94.9458055001  TIP3      7598            0.0000000000
     74308      8958  TIP3      H1            -21.2147855962      -18.0336878927       95.6886244601  TIP3      7598            0.0000000000
     74309      8958  TIP3      H2            -21.4162106474      -18.3704221544       94.2215459844  TIP3      7598            0.0000000000
     74310      8959  TIP3      OH2            -6.0053004809       -2.7546385479      -89.9526465315  TIP3      7599            0.0000000000
     74311      8959  TIP3      H1             -5.7151895569       -2.4082192150      -90.8120111516  TIP3      7599            0.0000000000
     74312      8959  TIP3      H2             -5.2670240355       -2.4933217179      -89.3818322322  TIP3      7599            0.0000000000
     74313      8960  TIP3      OH2           -12.2783494872      -14.9176358285       97.0863205852  TIP3      7600            0.0000000000
     74314      8960  TIP3      H1            -11.7750540367      -15.5088133026       96.5239928764  TIP3      7600            0.0000000000
     74315      8960  TIP3      H2            -12.4672480895      -15.4628963748       97.8643359823  TIP3      7600            0.0000000000
     74316      8961  TIP3      OH2           -13.6555183785      -16.5853778349      -95.2404111352  TIP3      7601            0.0000000000
     74317      8961  TIP3      H1            -14.4952973007      -16.0840025868      -95.1573067703  TIP3      7601            0.0000000000
     74318      8961  TIP3      H2            -13.1308431535      -16.2544967624      -94.4885199015  TIP3      7601            0.0000000000
     74319      8962  TIP3      OH2            -9.2619182077      -17.5822802187       89.3185419431  TIP3      7602            0.0000000000
     74320      8962  TIP3      H1            -10.1944238126      -17.4180873101       89.1995744130  TIP3      7602            0.0000000000
     74321      8962  TIP3      H2             -8.9276723822      -16.7199602767       89.6645908094  TIP3      7602            0.0000000000
     74322      8963  TIP3      OH2            -8.4938017159      -15.7128497802       90.9814310251  TIP3      7603            0.0000000000
     74323      8963  TIP3      H1             -7.6180435135      -15.7708692646       91.3940525920  TIP3      7603            0.0000000000
     74324      8963  TIP3      H2             -8.4940468381      -14.8452073424       90.5321291385  TIP3      7603            0.0000000000
     74325      8964  TIP3      OH2            -3.6770582552       -9.6769113403      -91.1692187663  TIP3      7604            0.0000000000
     74326      8964  TIP3      H1             -4.5057781339       -9.3532072207      -91.5465759768  TIP3      7604            0.0000000000
     74327      8964  TIP3      H2             -3.0902150439       -9.6465895747      -91.9567115169  TIP3      7604            0.0000000000
     74328      8965  TIP3      OH2            -8.1791541425      -11.9266860504      -96.4279913785  TIP3      7605            0.0000000000
     74329      8965  TIP3      H1             -9.1139763318      -12.0646555961      -96.6288102931  TIP3      7605            0.0000000000
     74330      8965  TIP3      H2             -7.7320562200      -12.6415683901      -96.9055668798  TIP3      7605            0.0000000000
     74331      8966  TIP3      OH2           -15.6509640550       -7.4881710558       94.4063215121  TIP3      7606            0.0000000000
     74332      8966  TIP3      H1            -15.0642998843       -6.7737697920       94.1428419797  TIP3      7606            0.0000000000
     74333      8966  TIP3      H2            -16.5058523698       -7.2668237130       94.0334833004  TIP3      7606            0.0000000000
     74334      8967  TIP3      OH2           -13.7423345173       -5.7281161227      -94.4559549476  TIP3      7607            0.0000000000
     74335      8967  TIP3      H1            -13.3174813814       -4.8974658417      -94.7146429849  TIP3      7607            0.0000000000
     74336      8967  TIP3      H2            -13.1549394412       -6.0085882078      -93.7470347265  TIP3      7607            0.0000000000
     74337      8968  TIP3      OH2            -3.3957595190       -4.1942868317       89.3789879306  TIP3      7608            0.0000000000
     74338      8968  TIP3      H1             -2.7573324096       -3.6155492582       88.9466747714  TIP3      7608            0.0000000000
     74339      8968  TIP3      H2             -4.1659559728       -3.6293327305       89.5027104775  TIP3      7608            0.0000000000
     74340      8969  TIP3      OH2           -19.3559054980      -17.8757259933      -92.9649912111  TIP3      7609            0.0000000000
     74341      8969  TIP3      H1            -20.2443331865      -17.4920687423      -92.9198453305  TIP3      7609            0.0000000000
     74342      8969  TIP3      H2            -19.4559931422      -18.6985561864      -92.4693320187  TIP3      7609            0.0000000000
     74343      8970  TIP3      OH2           -19.7335684528       -6.0370683920      -94.5151024973  TIP3      7610            0.0000000000
     74344      8970  TIP3      H1            -19.4506412501       -6.9578645213      -94.5012609472  TIP3      7610            0.0000000000
     74345      8970  TIP3      H2            -19.4212127253       -5.7358727680      -93.6583684150  TIP3      7610            0.0000000000
     74346      8971  TIP3      OH2            -9.8564053390      -18.4805143300       91.8296776092  TIP3      7611            0.0000000000
     74347      8971  TIP3      H1             -9.6145907993      -18.0120446889       91.0142918055  TIP3      7611            0.0000000000
     74348      8971  TIP3      H2             -9.3133795030      -18.0115687346       92.4724340799  TIP3      7611            0.0000000000
     74349      8972  TIP3      OH2           -12.1024026398      -15.7370904297      -92.8965835509  TIP3      7612            0.0000000000
     74350      8972  TIP3      H1            -11.9737076342      -15.1315524201      -92.1452786868  TIP3      7612            0.0000000000
     74351      8972  TIP3      H2            -11.4209758664      -16.4038650800      -92.7822917232  TIP3      7612            0.0000000000
     74352      8973  TIP3      OH2            -5.8915869348      -17.8465654370      -92.0414188967  TIP3      7613            0.0000000000
     74353      8973  TIP3      H1             -6.8318728922      -17.5584131786      -92.1365035392  TIP3      7613            0.0000000000
     74354      8973  TIP3      H2             -5.6018454938      -17.8606153414      -92.9548407537  TIP3      7613            0.0000000000
     74355      8974  TIP3      OH2            -7.2780885005      -14.0643410874       96.7084587332  TIP3      7614            0.0000000000
     74356      8974  TIP3      H1             -8.1126054292      -14.4879460671       96.4508610483  TIP3      7614            0.0000000000
     74357      8974  TIP3      H2             -6.8215465439      -14.7550913157       97.2361083370  TIP3      7614            0.0000000000
     74358      8975  TIP3      OH2           -17.8446286081       -8.0869180903       89.3228532839  TIP3      7615            0.0000000000
     74359      8975  TIP3      H1            -17.2361653042       -7.4261187547       89.6132514724  TIP3      7615            0.0000000000
     74360      8975  TIP3      H2            -17.4209053238       -8.5995781042       88.6176834503  TIP3      7615            0.0000000000
     74361      8976  TIP3      OH2           -18.7661293980      -20.6709477087       97.1468706558  TIP3      7616            0.0000000000
     74362      8976  TIP3      H1            -18.9467628061      -20.6613876056       96.1832859592  TIP3      7616            0.0000000000
     74363      8976  TIP3      H2            -19.1340418441      -21.5209270985       97.4379974326  TIP3      7616            0.0000000000
     74364      8977  TIP3      OH2           -20.5294129893       -4.1053503097      -90.1187258209  TIP3      7617            0.0000000000
     74365      8977  TIP3      H1            -19.9434438188       -4.2996807801      -89.3576366577  TIP3      7617            0.0000000000
     74366      8977  TIP3      H2            -20.9668794503       -4.9318374723      -90.3308049617  TIP3      7617            0.0000000000
     74367      8978  TIP3      OH2           -16.0870941122       -5.3701234091      -88.4274721468  TIP3      7618            0.0000000000
     74368      8978  TIP3      H1            -15.2117942441       -5.6620754130      -88.1551146755  TIP3      7618            0.0000000000
     74369      8978  TIP3      H2            -16.0109201598       -5.4661919943      -89.4064837137  TIP3      7618            0.0000000000
     74370      8979  TIP3      OH2           -13.9710227978      -10.3511367713      -89.7214258689  TIP3      7619            0.0000000000
     74371      8979  TIP3      H1            -14.2961270258      -10.0649684127      -90.5783005075  TIP3      7619            0.0000000000
     74372      8979  TIP3      H2            -13.7840180806      -11.2821974582      -89.8367432006  TIP3      7619            0.0000000000
     74373      8980  TIP3      OH2           -15.0408518026      -11.9675865564       90.0298018388  TIP3      7620            0.0000000000
     74374      8980  TIP3      H1            -15.5834265633      -12.4241695615       90.6764043139  TIP3      7620            0.0000000000
     74375      8980  TIP3      H2            -14.8230969566      -12.6229006158       89.3652946493  TIP3      7620            0.0000000000
     74376      8981  TIP3      OH2           -10.7846772959      -11.6162441541      -89.0399771041  TIP3      7621            0.0000000000
     74377      8981  TIP3      H1             -9.8312994280      -11.5775128429      -89.0999928738  TIP3      7621            0.0000000000
     74378      8981  TIP3      H2            -10.9412758701      -12.3612523795      -88.4537666216  TIP3      7621            0.0000000000
     74379      8982  TIP3      OH2           -15.0479697190      -18.4237669881      -93.8111160942  TIP3      7622            0.0000000000
     74380      8982  TIP3      H1            -14.5423715448      -17.9253753422      -94.4772858822  TIP3      7622            0.0000000000
     74381      8982  TIP3      H2            -15.9500344402      -18.4995551368      -94.1743925654  TIP3      7622            0.0000000000
     74382      8983  TIP3      OH2            -9.1191412881      -15.1702743465      -88.5132271654  TIP3      7623            0.0000000000
     74383      8983  TIP3      H1             -8.8665216477      -16.1021440353      -88.6230560894  TIP3      7623            0.0000000000
     74384      8983  TIP3      H2             -8.2513590851      -14.7263286612      -88.5564763024  TIP3      7623            0.0000000000
     74385      8984  TIP3      OH2            -7.7116472796      -12.3803073914      -90.3655332511  TIP3      7624            0.0000000000
     74386      8984  TIP3      H1             -8.0179207404      -11.6950625489      -90.9734057670  TIP3      7624            0.0000000000
     74387      8984  TIP3      H2             -6.7645311454      -12.4151472589      -90.5972175721  TIP3      7624            0.0000000000
     74388      8985  TIP3      OH2           -10.2912492313      -17.4563817110      -90.6426433541  TIP3      7625            0.0000000000
     74389      8985  TIP3      H1            -11.2429380257      -17.5281033701      -90.5573667277  TIP3      7625            0.0000000000
     74390      8985  TIP3      H2             -9.9490624623      -18.1342919226      -90.0239903040  TIP3      7625            0.0000000000
     74391      8986  TIP3      OH2            -8.7427638979      -18.8973364641      -88.7914148538  TIP3      7626            0.0000000000
     74392      8986  TIP3      H1             -8.6939060339      -19.8516915862      -88.6709502799  TIP3      7626            0.0000000000
     74393      8986  TIP3      H2             -8.9197143985      -18.5959985665      -87.8659098287  TIP3      7626            0.0000000000
     74394      8987  TIP3      OH2           -18.9452904062      -17.6395660943      -89.5981696559  TIP3      7627            0.0000000000
     74395      8987  TIP3      H1            -18.6292781393      -18.2908930541      -90.2532579378  TIP3      7627            0.0000000000
     74396      8987  TIP3      H2            -18.9476404651      -18.1335140836      -88.7841912517  TIP3      7627            0.0000000000
     74397      8988  TIP3      OH2           -21.9570500729       -3.1306874770       93.7610598548  TIP3      7628            0.0000000000
     74398      8988  TIP3      H1            -22.6524946121       -3.6320258155       93.3434513827  TIP3      7628            0.0000000000
     74399      8988  TIP3      H2            -21.5892511815       -3.8292616493       94.3602855039  TIP3      7628            0.0000000000
     74400      8989  TIP3      OH2           -21.0758772384       -4.9291117512       95.6283402359  TIP3      7629            0.0000000000
     74401      8989  TIP3      H1            -21.4141279309       -5.8198896758       95.8189849861  TIP3      7629            0.0000000000
     74402      8989  TIP3      H2            -20.7965343836       -4.6630027144       96.5272534791  TIP3      7629            0.0000000000
     74403      8990  TIP3      OH2            -3.5643678605      -12.5973105857       89.8870730732  TIP3      7630            0.0000000000
     74404      8990  TIP3      H1             -4.1179862561      -12.2545474293       89.1795972512  TIP3      7630            0.0000000000
     74405      8990  TIP3      H2             -3.5470148518      -11.9160977679       90.5556092901  TIP3      7630            0.0000000000
     74406      8991  TIP3      OH2            -6.0396361949      -13.9496262309       94.0395915451  TIP3      7631            0.0000000000
     74407      8991  TIP3      H1             -6.1634394631      -14.9062942571       94.0484214520  TIP3      7631            0.0000000000
     74408      8991  TIP3      H2             -6.3232151080      -13.7003835405       94.9354384346  TIP3      7631            0.0000000000
     74409      8992  TIP3      OH2            -5.0868385313      -11.9616213897      -90.8644887295  TIP3      7632            0.0000000000
     74410      8992  TIP3      H1             -4.4988141684      -12.7524174397      -90.8039823639  TIP3      7632            0.0000000000
     74411      8992  TIP3      H2             -4.4642291729      -11.2227118380      -90.9739275709  TIP3      7632            0.0000000000
     74412      8993  TIP3      OH2            -3.6278481304      -14.0756712661      -90.3989328137  TIP3      7633            0.0000000000
     74413      8993  TIP3      H1             -4.5092437057      -14.5083980759      -90.4343169661  TIP3      7633            0.0000000000
     74414      8993  TIP3      H2             -3.0568130421      -14.8646496683      -90.3760474952  TIP3      7633            0.0000000000
     74415      8994  TIP3      OH2            -5.9664109252      -17.9218654058       87.5443108737  TIP3      7634            0.0000000000
     74416      8994  TIP3      H1             -5.3226677624      -18.3096586611       88.1686955893  TIP3      7634            0.0000000000
     74417      8994  TIP3      H2             -6.7918869898      -18.3529689115       87.7722044512  TIP3      7634            0.0000000000
     74418      8995  TIP3      OH2            -6.3010160685      -16.3746170828       92.5657883552  TIP3      7635            0.0000000000
     74419      8995  TIP3      H1             -6.0349188520      -17.3145319629       92.6372073084  TIP3      7635            0.0000000000
     74420      8995  TIP3      H2             -5.5454173935      -15.9865130384       92.1205933025  TIP3      7635            0.0000000000
     74421      8996  TIP3      OH2            -5.6983961055      -15.8708853168      -96.7463866966  TIP3      7636            0.0000000000
     74422      8996  TIP3      H1             -4.7600938332      -15.5677300005      -96.7748647640  TIP3      7636            0.0000000000
     74423      8996  TIP3      H2             -5.8929100664      -15.6784607366      -95.8154479345  TIP3      7636            0.0000000000
     74424      8997  TIP3      OH2            -5.6528814855      -15.1269012494      -93.9824485898  TIP3      7637            0.0000000000
     74425      8997  TIP3      H1             -6.5040190543      -14.8090723162      -93.6600286525  TIP3      7637            0.0000000000
     74426      8997  TIP3      H2             -5.1779834156      -14.2872806295      -94.1864049586  TIP3      7637            0.0000000000
     74427      8998  TIP3      OH2           -21.3860871825      -16.5972592463      -90.5068841728  TIP3      7638            0.0000000000
     74428      8998  TIP3      H1            -20.4452778765      -16.7341748127      -90.2806024405  TIP3      7638            0.0000000000
     74429      8998  TIP3      H2            -21.8208219873      -17.3843572216      -90.1431367179  TIP3      7638            0.0000000000
     74430      8999  TIP3      OH2            -5.7766268073      -19.0869881799       92.6196428606  TIP3      7639            0.0000000000
     74431      8999  TIP3      H1             -5.4981778957      -19.5638133636       93.4023710990  TIP3      7639            0.0000000000
     74432      8999  TIP3      H2             -6.2457033856      -19.7591966605       92.1030584916  TIP3      7639            0.0000000000
     74433      9000  TIP3      OH2           -20.2274363984      -18.3335074938       97.1664380067  TIP3      7640            0.0000000000
     74434      9000  TIP3      H1            -19.6751638848      -19.1107969577       97.4055065286  TIP3      7640            0.0000000000
     74435      9000  TIP3      H2            -19.7083455462      -17.6002730813       97.5089108646  TIP3      7640            0.0000000000
     74436      9001  TIP3      OH2            -3.8132666710      -19.0590411307       89.1393971432  TIP3      7641            0.0000000000
     74437      9001  TIP3      H1             -3.3986048788      -19.7867989942       88.6531454821  TIP3      7641            0.0000000000
     74438      9001  TIP3      H2             -3.1246130365      -18.3700546265       89.1502042026  TIP3      7641            0.0000000000
     74439      9002  TIP3      OH2           -21.5170010863      -20.2332434402      -94.1033596945  TIP3      7642            0.0000000000
     74440      9002  TIP3      H1            -22.2306080558      -20.5233404487      -93.5256369247  TIP3      7642            0.0000000000
     74441      9002  TIP3      H2            -22.0223974186      -19.6832510911      -94.7400041164  TIP3      7642            0.0000000000
     74442      9003  TIP3      OH2           -19.3660136258       -7.1714239423      -90.0161090620  TIP3      7643            0.0000000000
     74443      9003  TIP3      H1            -20.1852125625       -6.9694106720      -90.4980535388  TIP3      7643            0.0000000000
     74444      9003  TIP3      H2            -19.5070035247       -7.2396536116      -89.0617290520  TIP3      7643            0.0000000000
     74445      9004  TIP3      OH2            -9.8178801629       -3.4744811422      -91.5347863559  TIP3      7644            0.0000000000
     74446      9004  TIP3      H1             -9.1360296421       -4.1146458746      -91.7900218860  TIP3      7644            0.0000000000
     74447      9004  TIP3      H2             -9.4303574245       -3.0615461095      -90.7602806978  TIP3      7644            0.0000000000
     74448      9005  TIP3      OH2           -19.0388126206       -2.9638860146      -93.7274715784  TIP3      7645            0.0000000000
     74449      9005  TIP3      H1            -19.7562294425       -2.4460547292      -94.1259056248  TIP3      7645            0.0000000000
     74450      9005  TIP3      H2            -19.3667475939       -3.1078930599      -92.8339956193  TIP3      7645            0.0000000000
     74451      9006  TIP3      OH2           -16.5676583966       -3.3514346192      -94.6729261500  TIP3      7646            0.0000000000
     74452      9006  TIP3      H1            -17.4470744650       -3.2012296072      -94.2747351937  TIP3      7646            0.0000000000
     74453      9006  TIP3      H2            -16.5885987891       -2.7672263125      -95.4502114791  TIP3      7646            0.0000000000
     74454      9007  TIP3      OH2           -11.8338440751       -3.4175149284      -95.4854370259  TIP3      7647            0.0000000000
     74455      9007  TIP3      H1            -12.3252227287       -2.8957685371      -96.1280403747  TIP3      7647            0.0000000000
     74456      9007  TIP3      H2            -11.6880631329       -2.7916621295      -94.7589867221  TIP3      7647            0.0000000000
     74457      9008  TIP3      OH2           -19.6039936421       -4.2616590174      -96.8153356265  TIP3      7648            0.0000000000
     74458      9008  TIP3      H1            -19.6365238904       -4.7134930578      -95.9426670423  TIP3      7648            0.0000000000
     74459      9008  TIP3      H2            -18.7754577287       -4.6463932615      -97.1802603668  TIP3      7648            0.0000000000
     74460      9009  TIP3      OH2           -17.5037423625       -5.5525162704       96.5873120804  TIP3      7649            0.0000000000
     74461      9009  TIP3      H1            -17.6322027767       -6.4913783533       96.8016153800  TIP3      7649            0.0000000000
     74462      9009  TIP3      H2            -16.6269076914       -5.4033829503       97.0246398996  TIP3      7649            0.0000000000
     74463      9010  TIP3      OH2           -14.9791510266       -5.1258320812      -97.2628045036  TIP3      7650            0.0000000000
     74464      9010  TIP3      H1            -14.6907660478       -6.0098242404      -97.5267472883  TIP3      7650            0.0000000000
     74465      9010  TIP3      H2            -14.8356414185       -5.1496590449      -96.3022955225  TIP3      7650            0.0000000000
     74466      9011  TIP3      OH2            -6.2896727145      -21.2917747174       96.7258476799  TIP3      7651            0.0000000000
     74467      9011  TIP3      H1             -5.6796734162      -20.8065688774       96.1543991802  TIP3      7651            0.0000000000
     74468      9011  TIP3      H2             -7.1619105842      -21.0025544731       96.4520488800  TIP3      7651            0.0000000000
     74469      9012  TIP3      OH2           -19.0841770868      -20.8079602638       94.4506696155  TIP3      7652            0.0000000000
     74470      9012  TIP3      H1            -19.8409054882      -21.0253606366       93.8988135744  TIP3      7652            0.0000000000
     74471      9012  TIP3      H2            -18.5494876074      -21.6082268565       94.3868121528  TIP3      7652            0.0000000000
     74472      9013  TIP3      OH2           -20.1482948333      -21.0731822008       90.2152161868  TIP3      7653            0.0000000000
     74473      9013  TIP3      H1            -19.7831856528      -20.4353797496       89.5716893848  TIP3      7653            0.0000000000
     74474      9013  TIP3      H2            -20.8305856992      -20.5342993346       90.6192030997  TIP3      7653            0.0000000000
     74475      9014  TIP3      OH2           -18.4338132164      -19.1674539668       88.7133397797  TIP3      7654            0.0000000000
     74476      9014  TIP3      H1            -17.9245743862      -19.7372785357       88.1323522284  TIP3      7654            0.0000000000
     74477      9014  TIP3      H2            -17.7732611292      -18.7729909093       89.2876545243  TIP3      7654            0.0000000000
     74478      9015  TIP3      OH2           -19.1647887556      -20.3102799284      -90.8304139842  TIP3      7655            0.0000000000
     74479      9015  TIP3      H1            -19.5094043592      -21.0583854494      -90.3493567457  TIP3      7655            0.0000000000
     74480      9015  TIP3      H2            -18.2355051519      -20.3122874715      -90.5019097342  TIP3      7655            0.0000000000
     74481      9016  TIP3      OH2           -17.1648926602      -20.9100694188      -89.2206620363  TIP3      7656            0.0000000000
     74482      9016  TIP3      H1            -16.2727914471      -21.1906486366      -89.4653998333  TIP3      7656            0.0000000000
     74483      9016  TIP3      H2            -17.5109840744      -21.6782466637      -88.7571686492  TIP3      7656            0.0000000000
     74484      9017  TIP3      OH2           -18.5046649266       -4.1360227208       88.1375708032  TIP3      7657            0.0000000000
     74485      9017  TIP3      H1            -18.8462527831       -3.8488369481       88.9946997630  TIP3      7657            0.0000000000
     74486      9017  TIP3      H2            -17.7623597122       -4.6960880106       88.3229577390  TIP3      7657            0.0000000000
     74487      9018  TIP3      OH2             8.8808207332      -11.6837687573       94.3062676865  TIP3      7658            0.0000000000
     74488      9018  TIP3      H1              8.8850664505      -10.7035810966       94.2424008637  TIP3      7658            0.0000000000
     74489      9018  TIP3      H2              8.1681284282      -11.9284163868       93.6900159246  TIP3      7658            0.0000000000
     74490      9019  TIP3      OH2             7.7089299440      -12.3909827078      -96.9339719184  TIP3      7659            0.0000000000
     74491      9019  TIP3      H1              7.7646566368      -13.0297407301      -96.2093977020  TIP3      7659            0.0000000000
     74492      9019  TIP3      H2              7.4216671806      -12.9214601549      -97.6841626180  TIP3      7659            0.0000000000
     74493      9020  TIP3      OH2             0.0638978673      -12.6887052939      -95.3108813493  TIP3      7660            0.0000000000
     74494      9020  TIP3      H1              0.2143848920      -13.3617023448      -94.6321994605  TIP3      7660            0.0000000000
     74495      9020  TIP3      H2              0.8679172440      -12.1684502135      -95.1550759976  TIP3      7660            0.0000000000
     74496      9021  TIP3      OH2             1.0459366825       -8.2928939263      -96.8538258945  TIP3      7661            0.0000000000
     74497      9021  TIP3      H1              0.7134266344       -9.1495349174      -97.1830653039  TIP3      7661            0.0000000000
     74498      9021  TIP3      H2              1.9964453621       -8.4845678366      -96.8279431598  TIP3      7661            0.0000000000
     74499      9022  TIP3      OH2            -2.3508401055      -14.7542880380       93.3651784600  TIP3      7662            0.0000000000
     74500      9022  TIP3      H1             -2.7645683879      -13.8710680443       93.3389262695  TIP3      7662            0.0000000000
     74501      9022  TIP3      H2             -2.9165627159      -15.2451356893       92.7577635844  TIP3      7662            0.0000000000
     74502      9023  TIP3      OH2            -1.6210356393      -12.5034058740       95.4666217925  TIP3      7663            0.0000000000
     74503      9023  TIP3      H1             -1.3776167321      -13.3083962723       95.9423710947  TIP3      7663            0.0000000000
     74504      9023  TIP3      H2             -0.9042657283      -12.3730656996       94.8365569146  TIP3      7663            0.0000000000
     74505      9024  TIP3      OH2             6.1276021764       -9.9520345919      -96.5025293137  TIP3      7664            0.0000000000
     74506      9024  TIP3      H1              6.4424835965      -10.6803043412      -97.0647363361  TIP3      7664            0.0000000000
     74507      9024  TIP3      H2              6.9034818315       -9.8404859623      -95.9263907937  TIP3      7664            0.0000000000
     74508      9025  TIP3      OH2            14.7561579559      -18.3251811995      -95.7044236845  TIP3      7665            0.0000000000
     74509      9025  TIP3      H1             14.8913128589      -17.7528909864      -94.9460315331  TIP3      7665            0.0000000000
     74510      9025  TIP3      H2             15.2837101079      -17.9035483116      -96.3880680326  TIP3      7665            0.0000000000
     74511      9026  TIP3      OH2             9.2539320874      -15.5568346025      -96.1568716762  TIP3      7666            0.0000000000
     74512      9026  TIP3      H1              9.4533243108      -16.5081108291      -96.1481134388  TIP3      7666            0.0000000000
     74513      9026  TIP3      H2              9.1925672336      -15.4056067855      -97.1188002358  TIP3      7666            0.0000000000
     74514      9027  TIP3      OH2            10.1671597517      -17.3646196796       94.1815349498  TIP3      7667            0.0000000000
     74515      9027  TIP3      H1             10.8267963455      -17.6815213981       94.8386817285  TIP3      7667            0.0000000000
     74516      9027  TIP3      H2             10.7117949957      -16.7986993569       93.6135250325  TIP3      7667            0.0000000000
     74517      9028  TIP3      OH2            -1.0313879960      -15.1301386622       96.5135217068  TIP3      7668            0.0000000000
     74518      9028  TIP3      H1             -0.3143068865      -15.5894383712       96.9629195480  TIP3      7668            0.0000000000
     74519      9028  TIP3      H2             -0.9110593552      -15.3284258881       95.5846718437  TIP3      7668            0.0000000000
     74520      9029  TIP3      OH2             4.1883427958      -13.5326102063       95.7978987490  TIP3      7669            0.0000000000
     74521      9029  TIP3      H1              4.8636806397      -14.0444869153       96.2735276924  TIP3      7669            0.0000000000
     74522      9029  TIP3      H2              3.6726257172      -14.2119177880       95.3274618672  TIP3      7669            0.0000000000
     74523      9030  TIP3      OH2             8.6309414518       -9.1909751821       93.3601258770  TIP3      7670            0.0000000000
     74524      9030  TIP3      H1              8.3480673272       -9.4047571726       92.4591785943  TIP3      7670            0.0000000000
     74525      9030  TIP3      H2              8.3624736380       -8.2651286658       93.3866073082  TIP3      7670            0.0000000000
     74526      9031  TIP3      OH2             3.8539205534      -10.8748389370      -94.5902800157  TIP3      7671            0.0000000000
     74527      9031  TIP3      H1              3.1089461441      -10.2689618175      -94.4471075887  TIP3      7671            0.0000000000
     74528      9031  TIP3      H2              4.5420142540      -10.3058497763      -94.9484325806  TIP3      7671            0.0000000000
     74529      9032  TIP3      OH2            11.9957147988      -18.0504203666       96.1546825058  TIP3      7672            0.0000000000
     74530      9032  TIP3      H1             11.7133466932      -18.8041870683       96.6862145694  TIP3      7672            0.0000000000
     74531      9032  TIP3      H2             12.5846654444      -17.5734626478       96.7576644783  TIP3      7672            0.0000000000
     74532      9033  TIP3      OH2             2.2671031998       -8.8741259953      -93.7705362771  TIP3      7673            0.0000000000
     74533      9033  TIP3      H1              2.2072912479       -8.0194533105      -94.2107464598  TIP3      7673            0.0000000000
     74534      9033  TIP3      H2              1.3579608962       -9.0110138117      -93.4066498095  TIP3      7673            0.0000000000
     74535      9034  TIP3      OH2            -1.5983721788       -9.2903703160       91.6636009355  TIP3      7674            0.0000000000
     74536      9034  TIP3      H1             -1.9164830954       -8.9833915808       90.7947120827  TIP3      7674            0.0000000000
     74537      9034  TIP3      H2             -1.5799367756       -8.4626957990       92.1825390437  TIP3      7674            0.0000000000
     74538      9035  TIP3      OH2            12.2743252163      -19.3205362065      -94.8933554175  TIP3      7675            0.0000000000
     74539      9035  TIP3      H1             11.5276378253      -18.7070177710      -94.9609253464  TIP3      7675            0.0000000000
     74540      9035  TIP3      H2             12.9882776021      -18.9121047969      -95.4108072130  TIP3      7675            0.0000000000
     74541      9036  TIP3      OH2             5.2739002491      -21.2684617113      -97.3681513310  TIP3      7676            0.0000000000
     74542      9036  TIP3      H1              5.1179745369      -22.2103386744      -97.5081792341  TIP3      7676            0.0000000000
     74543      9036  TIP3      H2              4.4144511897      -20.9099974056      -97.1424398656  TIP3      7676            0.0000000000
     74544      9037  TIP3      OH2            13.0891219780       -9.3191838268      -92.6559937880  TIP3      7677            0.0000000000
     74545      9037  TIP3      H1             13.1846843791       -9.9856458298      -93.3838340125  TIP3      7677            0.0000000000
     74546      9037  TIP3      H2             13.2552036038       -8.4952652448      -93.1051500343  TIP3      7677            0.0000000000
     74547      9038  TIP3      OH2             7.5357754988      -12.4422750457       91.8136639837  TIP3      7678            0.0000000000
     74548      9038  TIP3      H1              6.8296375411      -11.8817303688       91.4473703794  TIP3      7678            0.0000000000
     74549      9038  TIP3      H2              8.2424735804      -12.3531203617       91.1520762491  TIP3      7678            0.0000000000
     74550      9039  TIP3      OH2             7.6143394959      -13.8902466843       88.8824461751  TIP3      7679            0.0000000000
     74551      9039  TIP3      H1              8.3365850570      -13.9014963358       89.5320671690  TIP3      7679            0.0000000000
     74552      9039  TIP3      H2              7.9159184475      -14.5505435012       88.2486349810  TIP3      7679            0.0000000000
     74553      9040  TIP3      OH2            10.9717789423      -12.2251788046       92.7408106400  TIP3      7680            0.0000000000
     74554      9040  TIP3      H1             10.2427245461      -11.9734515107       93.3598662613  TIP3      7680            0.0000000000
     74555      9040  TIP3      H2             11.4580489491      -12.8949915152       93.2542587237  TIP3      7680            0.0000000000
     74556      9041  TIP3      OH2            10.9032808156      -14.0687232334      -92.8429590551  TIP3      7681            0.0000000000
     74557      9041  TIP3      H1             10.9307980883      -13.2509902898      -92.3278591524  TIP3      7681            0.0000000000
     74558      9041  TIP3      H2             10.3082969675      -13.7618116179      -93.5617725788  TIP3      7681            0.0000000000
     74559      9042  TIP3      OH2             2.6137205645      -11.5384905956       94.6433678392  TIP3      7682            0.0000000000
     74560      9042  TIP3      H1              2.2829313965      -11.9411228246       93.8030820313  TIP3      7682            0.0000000000
     74561      9042  TIP3      H2              3.2174601478      -12.2344758153       94.9936831137  TIP3      7682            0.0000000000
     74562      9043  TIP3      OH2             3.9356555619       -8.1882148986       97.3632929063  TIP3      7683            0.0000000000
     74563      9043  TIP3      H1              3.9098984543       -8.7094938278       96.5511585445  TIP3      7683            0.0000000000
     74564      9043  TIP3      H2              4.7204859131       -8.5493522366       97.8090480703  TIP3      7683            0.0000000000
     74565      9044  TIP3      OH2             3.8611608286       -8.4133713778      -91.6977377322  TIP3      7684            0.0000000000
     74566      9044  TIP3      H1              3.5170656265       -7.6376522133      -91.2187381544  TIP3      7684            0.0000000000
     74567      9044  TIP3      H2              3.2045033342       -8.5775238054      -92.4103037030  TIP3      7684            0.0000000000
     74568      9045  TIP3      OH2             9.8718563440      -13.0542310004       90.4027359438  TIP3      7685            0.0000000000
     74569      9045  TIP3      H1             10.3967462808      -12.8350704491       91.2161072874  TIP3      7685            0.0000000000
     74570      9045  TIP3      H2             10.2616687009      -12.4896871222       89.7290472063  TIP3      7685            0.0000000000
     74571      9046  TIP3      OH2             0.8025723411      -12.2113273638      -92.5641313801  TIP3      7686            0.0000000000
     74572      9046  TIP3      H1              0.8680786366      -11.5895174543      -91.8181607927  TIP3      7686            0.0000000000
     74573      9046  TIP3      H2             -0.1336146241      -12.1208850029      -92.7686688407  TIP3      7686            0.0000000000
     74574      9047  TIP3      OH2             2.1362823976       -6.3574709034      -90.9659189196  TIP3      7687            0.0000000000
     74575      9047  TIP3      H1              2.0654323544       -6.4545895788      -91.9178495564  TIP3      7687            0.0000000000
     74576      9047  TIP3      H2              1.2034179087       -6.4776533115      -90.6868687343  TIP3      7687            0.0000000000
     74577      9048  TIP3      OH2            13.5814513548      -21.3152429086       90.2834612696  TIP3      7688            0.0000000000
     74578      9048  TIP3      H1             12.6447711013      -21.1573451920       90.5519480583  TIP3      7688            0.0000000000
     74579      9048  TIP3      H2             13.7994136810      -20.4454320853       89.9005780938  TIP3      7688            0.0000000000
     74580      9049  TIP3      OH2             1.5926110796      -12.5246440563       92.2688657122  TIP3      7689            0.0000000000
     74581      9049  TIP3      H1              1.3118331577      -11.7572848125       91.7292785557  TIP3      7689            0.0000000000
     74582      9049  TIP3      H2              0.9362022548      -13.1812982212       92.0261496973  TIP3      7689            0.0000000000
     74583      9050  TIP3      OH2            -2.3752960779      -10.1138631148      -93.5643566928  TIP3      7690            0.0000000000
     74584      9050  TIP3      H1             -2.7731299250      -10.1698386810      -94.4495017511  TIP3      7690            0.0000000000
     74585      9050  TIP3      H2             -2.2590788733      -11.0618922616      -93.3628770829  TIP3      7690            0.0000000000
     74586      9051  TIP3      OH2            15.6734631354       -6.6862833574      -91.1280256352  TIP3      7691            0.0000000000
     74587      9051  TIP3      H1             15.5437429047       -7.6464169025      -91.0976227697  TIP3      7691            0.0000000000
     74588      9051  TIP3      H2             14.8278339614       -6.4027780191      -90.7010087893  TIP3      7691            0.0000000000
     74589      9052  TIP3      OH2             0.6918341918       -4.5108673201       94.0899387508  TIP3      7692            0.0000000000
     74590      9052  TIP3      H1              0.8566636854       -4.9044855956       94.9859811596  TIP3      7692            0.0000000000
     74591      9052  TIP3      H2             -0.1458021493       -4.9484055899       93.8749606146  TIP3      7692            0.0000000000
     74592      9053  TIP3      OH2            12.8000901323      -15.1724037966      -90.6396422791  TIP3      7693            0.0000000000
     74593      9053  TIP3      H1             12.3297259943      -14.7320798794      -91.3676071298  TIP3      7693            0.0000000000
     74594      9053  TIP3      H2             12.8081048375      -16.1063179607      -90.9212167545  TIP3      7693            0.0000000000
     74595      9054  TIP3      OH2            -0.1052544320       -8.7211359356      -92.5979875171  TIP3      7694            0.0000000000
     74596      9054  TIP3      H1              0.1644356375       -9.1696706124      -91.7633649618  TIP3      7694            0.0000000000
     74597      9054  TIP3      H2             -0.9084280553       -9.2106475638      -92.8555012884  TIP3      7694            0.0000000000
     74598      9055  TIP3      OH2            10.5332537507      -16.8167881203      -92.4286410099  TIP3      7695            0.0000000000
     74599      9055  TIP3      H1              9.9926631962      -16.9940321005      -91.6177280014  TIP3      7695            0.0000000000
     74600      9055  TIP3      H2             10.4027749163      -15.8684280210      -92.6282589715  TIP3      7695            0.0000000000
     74601      9056  TIP3      OH2             6.9373973185      -18.0812123053       88.7548776797  TIP3      7696            0.0000000000
     74602      9056  TIP3      H1              6.6044027438      -18.0797711519       89.6602753624  TIP3      7696            0.0000000000
     74603      9056  TIP3      H2              6.5922516147      -18.9362748869       88.4683314900  TIP3      7696            0.0000000000
     74604      9057  TIP3      OH2             2.6620137813      -15.1778599393       94.1374156021  TIP3      7697            0.0000000000
     74605      9057  TIP3      H1              1.7608536838      -15.4754121953       93.9894513073  TIP3      7697            0.0000000000
     74606      9057  TIP3      H2              3.0781404258      -15.4974138367       93.3062544651  TIP3      7697            0.0000000000
     74607      9058  TIP3      OH2             8.2219242845      -14.7196577532       92.9418033965  TIP3      7698            0.0000000000
     74608      9058  TIP3      H1              7.8050340255      -13.9009816019       92.5979888849  TIP3      7698            0.0000000000
     74609      9058  TIP3      H2              8.8886725770      -14.9022134207       92.2628827013  TIP3      7698            0.0000000000
     74610      9059  TIP3      OH2             7.2581475336      -14.6014619522      -90.3687306094  TIP3      7699            0.0000000000
     74611      9059  TIP3      H1              6.7206006472      -15.2686816569      -89.9483486263  TIP3      7699            0.0000000000
     74612      9059  TIP3      H2              8.0888474798      -14.6315004831      -89.8581068890  TIP3      7699            0.0000000000
     74613      9060  TIP3      OH2             9.2056109748      -15.2676063898       95.7835371076  TIP3      7700            0.0000000000
     74614      9060  TIP3      H1              8.9559005341      -14.6882959185       95.0418662734  TIP3      7700            0.0000000000
     74615      9060  TIP3      H2              9.3542685975      -16.0955800349       95.2882096541  TIP3      7700            0.0000000000
     74616      9061  TIP3      OH2             8.4209305217      -13.6569548924      -94.3743760255  TIP3      7701            0.0000000000
     74617      9061  TIP3      H1              8.8027894169      -14.3285338205      -94.9727870043  TIP3      7701            0.0000000000
     74618      9061  TIP3      H2              7.9874444656      -14.1933067471      -93.6915952361  TIP3      7701            0.0000000000
     74619      9062  TIP3      OH2             3.6965748585      -16.0049063903       91.7192836681  TIP3      7702            0.0000000000
     74620      9062  TIP3      H1              4.6581410235      -15.9810500468       91.7891918610  TIP3      7702            0.0000000000
     74621      9062  TIP3      H2              3.4661078874      -15.4068342413       90.9883876002  TIP3      7702            0.0000000000
     74622      9063  TIP3      OH2             9.6503688824      -18.4274631663      -96.3161435132  TIP3      7703            0.0000000000
     74623      9063  TIP3      H1              8.9689311106      -18.3847980271      -95.6069148632  TIP3      7703            0.0000000000
     74624      9063  TIP3      H2              9.1505165265      -18.6863599418      -97.1003153678  TIP3      7703            0.0000000000
     74625      9064  TIP3      OH2             2.3826453653      -14.8703521117       89.3039397095  TIP3      7704            0.0000000000
     74626      9064  TIP3      H1              1.8451486602      -15.2672207850       88.6015532245  TIP3      7704            0.0000000000
     74627      9064  TIP3      H2              3.2130253814      -14.6778160928       88.8411161122  TIP3      7704            0.0000000000
     74628      9065  TIP3      OH2             0.5333563751      -10.2757337313      -90.4499504002  TIP3      7705            0.0000000000
     74629      9065  TIP3      H1              1.2409763580      -10.1117742310      -89.7949987055  TIP3      7705            0.0000000000
     74630      9065  TIP3      H2             -0.2439711493      -10.2286237527      -89.8493926475  TIP3      7705            0.0000000000
     74631      9066  TIP3      OH2             6.4900784126      -14.9765623983       97.0311735119  TIP3      7706            0.0000000000
     74632      9066  TIP3      H1              7.1405396077      -15.4758186640       96.5274049538  TIP3      7706            0.0000000000
     74633      9066  TIP3      H2              6.4035141292      -15.4610486347       97.8612544777  TIP3      7706            0.0000000000
     74634      9067  TIP3      OH2             5.7517810757      -10.3627938784       91.2078488122  TIP3      7707            0.0000000000
     74635      9067  TIP3      H1              4.9644059226      -10.8360490408       90.8550506531  TIP3      7707            0.0000000000
     74636      9067  TIP3      H2              5.5425105675      -10.2603726229       92.1519373900  TIP3      7707            0.0000000000
     74637      9068  TIP3      OH2            12.9076996510      -11.1518161544      -94.7205588280  TIP3      7708            0.0000000000
     74638      9068  TIP3      H1             13.5225303409      -10.7490142804      -95.3572891345  TIP3      7708            0.0000000000
     74639      9068  TIP3      H2             12.0768883927      -11.0514517021      -95.2082844309  TIP3      7708            0.0000000000
     74640      9069  TIP3      OH2             9.6132174644      -17.5728259425       89.3621422937  TIP3      7709            0.0000000000
     74641      9069  TIP3      H1              8.6686299140      -17.4108145899       89.1946016431  TIP3      7709            0.0000000000
     74642      9069  TIP3      H2              9.9290677519      -16.7032418003       89.6791129763  TIP3      7709            0.0000000000
     74643      9070  TIP3      OH2             7.2589476042      -10.1515019024      -92.3012573791  TIP3      7710            0.0000000000
     74644      9070  TIP3      H1              6.9148445570      -10.5577799234      -91.4955638211  TIP3      7710            0.0000000000
     74645      9070  TIP3      H2              7.0030442494       -9.2299869277      -92.2165780957  TIP3      7710            0.0000000000
     74646      9071  TIP3      OH2            10.3241485756      -15.6485577285       91.0076173339  TIP3      7711            0.0000000000
     74647      9071  TIP3      H1             11.2141255318      -15.7728662470       91.3927092729  TIP3      7711            0.0000000000
     74648      9071  TIP3      H2             10.4053573716      -14.8272241487       90.5053362741  TIP3      7711            0.0000000000
     74649      9072  TIP3      OH2             0.8072627406      -11.0599820561       96.9484892954  TIP3      7712            0.0000000000
     74650      9072  TIP3      H1              1.5483861767      -11.0492517473       96.3092421481  TIP3      7712            0.0000000000
     74651      9072  TIP3      H2              0.9494238708      -11.8751540194       97.4473825895  TIP3      7712            0.0000000000
     74652      9073  TIP3      OH2             7.8604287296       -8.8626074356       90.2141226399  TIP3      7713            0.0000000000
     74653      9073  TIP3      H1              7.4812069241       -8.0612807810       90.6032981870  TIP3      7713            0.0000000000
     74654      9073  TIP3      H2              7.1368939338       -9.5030978030       90.3748894055  TIP3      7713            0.0000000000
     74655      9074  TIP3      OH2            -2.1107664667      -12.6221420868      -92.5093759210  TIP3      7714            0.0000000000
     74656      9074  TIP3      H1             -1.9484481202      -13.0241504453      -91.6362905388  TIP3      7714            0.0000000000
     74657      9074  TIP3      H2             -2.7701807056      -13.2139392360      -92.9063778325  TIP3      7714            0.0000000000
     74658      9075  TIP3      OH2             4.8557453857      -13.0463557259      -90.2705797295  TIP3      7715            0.0000000000
     74659      9075  TIP3      H1              4.5786448074      -13.2443077699      -91.1743778244  TIP3      7715            0.0000000000
     74660      9075  TIP3      H2              5.7995647891      -13.3008092784      -90.2788666997  TIP3      7715            0.0000000000
     74661      9076  TIP3      OH2            15.2399009092       -9.6523474592      -91.1700383033  TIP3      7716            0.0000000000
     74662      9076  TIP3      H1             14.3381500119       -9.4613405237      -91.5355201936  TIP3      7716            0.0000000000
     74663      9076  TIP3      H2             15.7722902941       -9.7294077834      -91.9690420098  TIP3      7716            0.0000000000
     74664      9077  TIP3      OH2             3.2340390598       -7.5415742551       94.3207960455  TIP3      7717            0.0000000000
     74665      9077  TIP3      H1              3.6944572055       -6.7029944910       94.1803742414  TIP3      7717            0.0000000000
     74666      9077  TIP3      H2              2.3335289773       -7.3016500829       94.0578953013  TIP3      7717            0.0000000000
     74667      9078  TIP3      OH2            -1.0200225037      -12.6335509160       88.8736886776  TIP3      7718            0.0000000000
     74668      9078  TIP3      H1             -0.4100640797      -12.0355486830       89.3294906356  TIP3      7718            0.0000000000
     74669      9078  TIP3      H2             -1.8960168992      -12.4126216432       89.2247944007  TIP3      7718            0.0000000000
     74670      9079  TIP3      OH2             4.6657247142       -9.8715392957       93.8916822669  TIP3      7719            0.0000000000
     74671      9079  TIP3      H1              4.3300630088       -8.9534182349       93.9673445016  TIP3      7719            0.0000000000
     74672      9079  TIP3      H2              3.9364186376      -10.3575085364       94.3311210109  TIP3      7719            0.0000000000
     74673      9080  TIP3      OH2             3.3297858456       -4.8194733061       93.3934411097  TIP3      7720            0.0000000000
     74674      9080  TIP3      H1              2.3720255776       -4.7216829635       93.5702371187  TIP3      7720            0.0000000000
     74675      9080  TIP3      H2              3.6726669603       -4.0114411242       93.8082958666  TIP3      7720            0.0000000000
     74676      9081  TIP3      OH2             8.6405973306       -9.6819792411      -94.8257532271  TIP3      7721            0.0000000000
     74677      9081  TIP3      H1              8.2666206140       -9.8771464670      -93.9498639673  TIP3      7721            0.0000000000
     74678      9081  TIP3      H2              9.2904000842      -10.3816688038      -94.9531554629  TIP3      7721            0.0000000000
     74679      9082  TIP3      OH2            10.9030766601       -8.7345292119       89.0070540775  TIP3      7722            0.0000000000
     74680      9082  TIP3      H1             11.2337228806       -9.0580806690       89.8664290895  TIP3      7722            0.0000000000
     74681      9082  TIP3      H2              9.9538391639       -8.7986341717       89.1399345248  TIP3      7722            0.0000000000
     74682      9083  TIP3      OH2            11.7321225086      -10.0117600971       91.2388562114  TIP3      7723            0.0000000000
     74683      9083  TIP3      H1             11.5040556346      -10.7743645327       91.8051024345  TIP3      7723            0.0000000000
     74684      9083  TIP3      H2             12.6822689703       -9.9155925144       91.4379495365  TIP3      7723            0.0000000000
     74685      9084  TIP3      OH2            -0.8875321354       -6.0673098702      -94.4984731242  TIP3      7724            0.0000000000
     74686      9084  TIP3      H1             -0.6109782700       -6.9853428196      -94.5074188087  TIP3      7724            0.0000000000
     74687      9084  TIP3      H2             -0.6279559178       -5.7498988776      -93.6333272679  TIP3      7724            0.0000000000
     74688      9085  TIP3      OH2             3.8598712107       -7.9853911806       89.9282907557  TIP3      7725            0.0000000000
     74689      9085  TIP3      H1              4.1211436710       -8.5352839388       90.6750864968  TIP3      7725            0.0000000000
     74690      9085  TIP3      H2              3.9128077560       -7.0494871610       90.2242205596  TIP3      7725            0.0000000000
     74691      9086  TIP3      OH2             0.3735972743      -10.7320381285       90.4102619301  TIP3      7726            0.0000000000
     74692      9086  TIP3      H1             -0.2925863076      -10.3328769538       91.0153506097  TIP3      7726            0.0000000000
     74693      9086  TIP3      H2              0.9222294056       -9.9678104209       90.1810326525  TIP3      7726            0.0000000000
     74694      9087  TIP3      OH2             8.2598354979      -18.0831094353      -93.9767250866  TIP3      7727            0.0000000000
     74695      9087  TIP3      H1              8.9484522991      -18.0047153365      -93.3047201867  TIP3      7727            0.0000000000
     74696      9087  TIP3      H2              7.8506844004      -18.9357795417      -93.7985852719  TIP3      7727            0.0000000000
     74697      9088  TIP3      OH2             8.9920027561      -18.5074773850       91.8288151110  TIP3      7728            0.0000000000
     74698      9088  TIP3      H1              9.2373741849      -18.0156075090       91.0205066943  TIP3      7728            0.0000000000
     74699      9088  TIP3      H2              9.5294577797      -18.0670316337       92.4998521439  TIP3      7728            0.0000000000
     74700      9089  TIP3      OH2             6.7892712456      -15.7322854382      -92.8829661288  TIP3      7729            0.0000000000
     74701      9089  TIP3      H1              6.8630211817      -15.1583418860      -92.0993017873  TIP3      7729            0.0000000000
     74702      9089  TIP3      H2              7.4299415987      -16.4312581976      -92.7821996677  TIP3      7729            0.0000000000
     74703      9090  TIP3      OH2             3.9485152615       -5.3021132030       90.6555805696  TIP3      7730            0.0000000000
     74704      9090  TIP3      H1              4.2053572929       -4.4905189941       90.1630543803  TIP3      7730            0.0000000000
     74705      9090  TIP3      H2              3.8081876181       -4.9641108291       91.5646118719  TIP3      7730            0.0000000000
     74706      9091  TIP3      OH2            12.9678488237      -17.8116794253      -92.0680534796  TIP3      7731            0.0000000000
     74707      9091  TIP3      H1             12.0225671123      -17.5396472856      -92.1585068604  TIP3      7731            0.0000000000
     74708      9091  TIP3      H2             13.2367853532      -17.8714425673      -92.9856325624  TIP3      7731            0.0000000000
     74709      9092  TIP3      OH2            11.5642487814      -14.0728381566       96.6585421454  TIP3      7732            0.0000000000
     74710      9092  TIP3      H1             10.7153297227      -14.4830050146       96.4339995177  TIP3      7732            0.0000000000
     74711      9092  TIP3      H2             11.9882679252      -14.7279491751       97.2393062556  TIP3      7732            0.0000000000
     74712      9093  TIP3      OH2             0.9752912023       -8.1384736646       89.3073294161  TIP3      7733            0.0000000000
     74713      9093  TIP3      H1              1.6234393182       -7.5008826465       89.6297416540  TIP3      7733            0.0000000000
     74714      9093  TIP3      H2              1.4790634439       -8.5847817109       88.6203083743  TIP3      7733            0.0000000000
     74715      9094  TIP3      OH2            -0.9141362934       -6.7359506851       93.3250739424  TIP3      7734            0.0000000000
     74716      9094  TIP3      H1             -1.7720045934       -6.3027314560       93.2765320000  TIP3      7734            0.0000000000
     74717      9094  TIP3      H2             -0.4431071726       -6.3010181786       92.5960832697  TIP3      7734            0.0000000000
     74718      9095  TIP3      OH2            -1.6497303899       -4.1207688537      -90.1334244939  TIP3      7735            0.0000000000
     74719      9095  TIP3      H1             -1.1164149827       -4.3084158615      -89.3376858224  TIP3      7735            0.0000000000
     74720      9095  TIP3      H2             -2.1103476805       -4.9471911788      -90.2857627985  TIP3      7735            0.0000000000
     74721      9096  TIP3      OH2             2.9606610167       -5.1766340351      -88.5250161173  TIP3      7736            0.0000000000
     74722      9096  TIP3      H1              3.7319740850       -5.6685360898      -88.1892548688  TIP3      7736            0.0000000000
     74723      9096  TIP3      H2              2.9304676133       -5.4774609212      -89.4538156383  TIP3      7736            0.0000000000
     74724      9097  TIP3      OH2            -1.8096573685      -10.3636344927      -89.1420763779  TIP3      7737            0.0000000000
     74725      9097  TIP3      H1             -1.6273671735      -11.2758038766      -89.4438598979  TIP3      7737            0.0000000000
     74726      9097  TIP3      H2             -2.5537125813      -10.0868324619      -89.7029133712  TIP3      7737            0.0000000000
     74727      9098  TIP3      OH2             4.9308396744      -10.3166774146      -89.7553493196  TIP3      7738            0.0000000000
     74728      9098  TIP3      H1              4.5414409844      -10.0611645286      -90.6043856729  TIP3      7738            0.0000000000
     74729      9098  TIP3      H2              5.0148904405      -11.2942260801      -89.8090921571  TIP3      7738            0.0000000000
     74730      9099  TIP3      OH2            10.6193465852      -10.4662108496      -92.2796510801  TIP3      7739            0.0000000000
     74731      9099  TIP3      H1             11.3994367717       -9.9034261182      -92.4618828162  TIP3      7739            0.0000000000
     74732      9099  TIP3      H2              9.8887910139       -9.8392872651      -92.3224517832  TIP3      7739            0.0000000000
     74733      9100  TIP3      OH2            -0.9039893086      -13.1341912409      -89.7284534067  TIP3      7740            0.0000000000
     74734      9100  TIP3      H1             -0.4858028836      -13.9873099994      -89.8586813238  TIP3      7740            0.0000000000
     74735      9100  TIP3      H2             -1.1257694150      -13.1147534976      -88.7698015438  TIP3      7740            0.0000000000
     74736      9101  TIP3      OH2             3.7478664606      -11.9670966593       90.0355530939  TIP3      7741            0.0000000000
     74737      9101  TIP3      H1              3.2566415185      -12.4915848944       90.6850163840  TIP3      7741            0.0000000000
     74738      9101  TIP3      H2              4.0515242026      -12.6424764418       89.3930531069  TIP3      7741            0.0000000000
     74739      9102  TIP3      OH2             4.8044441028      -13.8345112819       88.2461108892  TIP3      7742            0.0000000000
     74740      9102  TIP3      H1              4.7257597690      -13.8390353529       87.2843685360  TIP3      7742            0.0000000000
     74741      9102  TIP3      H2              5.7711983334      -13.6927858067       88.3802858348  TIP3      7742            0.0000000000
     74742      9103  TIP3      OH2             8.0895435055      -11.7220591845      -89.1440753995  TIP3      7743            0.0000000000
     74743      9103  TIP3      H1              9.0342933662      -11.5694042696      -89.0821600992  TIP3      7743            0.0000000000
     74744      9103  TIP3      H2              7.8830832377      -12.3417012689      -88.4157645425  TIP3      7743            0.0000000000
     74745      9104  TIP3      OH2            14.1463942738      -11.4415208693       87.6923135761  TIP3      7744            0.0000000000
     74746      9104  TIP3      H1             13.9461881200      -11.8251760613       86.8369069588  TIP3      7744            0.0000000000
     74747      9104  TIP3      H2             14.2550906701      -10.5102510785       87.4826643026  TIP3      7744            0.0000000000
     74748      9105  TIP3      OH2             5.3962451318      -12.9177177510      -93.4807480441  TIP3      7745            0.0000000000
     74749      9105  TIP3      H1              6.0924044782      -13.0857636176      -94.1209641735  TIP3      7745            0.0000000000
     74750      9105  TIP3      H2              4.9594919173      -12.1366170705      -93.8654160919  TIP3      7745            0.0000000000
     74751      9106  TIP3      OH2             9.7514550496      -15.1974935712      -88.6075049911  TIP3      7746            0.0000000000
     74752      9106  TIP3      H1             10.0221545507      -16.1249544300      -88.6294128616  TIP3      7746            0.0000000000
     74753      9106  TIP3      H2             10.6027314157      -14.7252369984      -88.5404106492  TIP3      7746            0.0000000000
     74754      9107  TIP3      OH2            11.0993729115      -12.3567384482      -90.4252944897  TIP3      7747            0.0000000000
     74755      9107  TIP3      H1             10.8520120300      -11.6374703356      -91.0511915962  TIP3      7747            0.0000000000
     74756      9107  TIP3      H2             12.0577574614      -12.4176987075      -90.6088836657  TIP3      7747            0.0000000000
     74757      9108  TIP3      OH2             8.5720388637      -17.4970923698      -90.6688422222  TIP3      7748            0.0000000000
     74758      9108  TIP3      H1              7.6217179283      -17.4827834418      -90.5519573214  TIP3      7748            0.0000000000
     74759      9108  TIP3      H2              8.8883522299      -18.1433403461      -90.0114647225  TIP3      7748            0.0000000000
     74760      9109  TIP3      OH2            10.1183064938      -18.8676549556      -88.7780155515  TIP3      7749            0.0000000000
     74761      9109  TIP3      H1             10.1346664449      -19.8451438011      -88.7260689622  TIP3      7749            0.0000000000
     74762      9109  TIP3      H2              9.9145768839      -18.5833215181      -87.8544476542  TIP3      7749            0.0000000000
     74763      9110  TIP3      OH2             4.6768709148       -3.0880366261       89.2695894766  TIP3      7750            0.0000000000
     74764      9110  TIP3      H1              5.6204809145       -2.9474278484       89.4075262786  TIP3      7750            0.0000000000
     74765      9110  TIP3      H2              4.4528709464       -2.3957814988       88.6398068425  TIP3      7750            0.0000000000
     74766      9111  TIP3      OH2            -1.7286404240       -8.4538300385       88.7856103010  TIP3      7751            0.0000000000
     74767      9111  TIP3      H1             -0.7802307634       -8.3814959444       89.0143201882  TIP3      7751            0.0000000000
     74768      9111  TIP3      H2             -1.7634184389       -9.0839788710       88.0615617706  TIP3      7751            0.0000000000
     74769      9112  TIP3      OH2            -3.0199481461       -3.0876157233       93.7290715941  TIP3      7752            0.0000000000
     74770      9112  TIP3      H1             -3.7436626470       -3.5512923009       93.2987273564  TIP3      7752            0.0000000000
     74771      9112  TIP3      H2             -2.7218110450       -3.7139039505       94.4206094804  TIP3      7752            0.0000000000
     74772      9113  TIP3      OH2            -2.1604055554       -4.9518778639       95.5955751842  TIP3      7753            0.0000000000
     74773      9113  TIP3      H1             -2.5166439636       -5.8240437874       95.8104994006  TIP3      7753            0.0000000000
     74774      9113  TIP3      H2             -1.9558441549       -4.6088300947       96.4834392153  TIP3      7753            0.0000000000
     74775      9114  TIP3      OH2            15.3337438591       -4.1740811840      -96.1236779903  TIP3      7754            0.0000000000
     74776      9114  TIP3      H1             15.3692897830       -3.9736734304      -95.1764707112  TIP3      7754            0.0000000000
     74777      9114  TIP3      H2             16.0478028597       -3.6006853547      -96.4486875210  TIP3      7754            0.0000000000
     74778      9115  TIP3      OH2            14.9393485687       -4.5732147398      -93.2452215629  TIP3      7755            0.0000000000
     74779      9115  TIP3      H1             14.4331194328       -5.3250701953      -93.5506599328  TIP3      7755            0.0000000000
     74780      9115  TIP3      H2             15.4239108236       -4.9720284716      -92.5065067732  TIP3      7755            0.0000000000
     74781      9116  TIP3      OH2            13.3413040926       -8.7774935975      -88.5737792708  TIP3      7756            0.0000000000
     74782      9116  TIP3      H1             12.4838121634       -8.8999195909      -88.1476522541  TIP3      7756            0.0000000000
     74783      9116  TIP3      H2             13.7389236433       -8.0544081718      -88.0783416283  TIP3      7756            0.0000000000
     74784      9117  TIP3      OH2            14.6498013976      -10.5151209040       91.6653553595  TIP3      7757            0.0000000000
     74785      9117  TIP3      H1             15.5214655092      -10.1139217044       91.8047458682  TIP3      7757            0.0000000000
     74786      9117  TIP3      H2             14.6850973765      -11.2734764358       92.2915354554  TIP3      7757            0.0000000000
     74787      9118  TIP3      OH2            15.0317711097      -12.4474483850       93.4958617252  TIP3      7758            0.0000000000
     74788      9118  TIP3      H1             14.3050132797      -12.9754905305       93.8778271164  TIP3      7758            0.0000000000
     74789      9118  TIP3      H2             15.6389690489      -12.3177774461       94.2442932615  TIP3      7758            0.0000000000
     74790      9119  TIP3      OH2            14.7942271627       -9.7093254406      -96.2454201428  TIP3      7759            0.0000000000
     74791      9119  TIP3      H1             15.6063785205      -10.1209549702      -96.5809281710  TIP3      7759            0.0000000000
     74792      9119  TIP3      H2             14.9814518982       -8.7699223821      -96.4087319673  TIP3      7759            0.0000000000
     74793      9120  TIP3      OH2            15.3537914558      -12.5875381813       89.8576013191  TIP3      7760            0.0000000000
     74794      9120  TIP3      H1             14.7730012120      -12.2455131486       89.1496585738  TIP3      7760            0.0000000000
     74795      9120  TIP3      H2             15.2454271159      -11.9281799173       90.5609675603  TIP3      7760            0.0000000000
     74796      9121  TIP3      OH2            13.5547594287      -15.3801771139       88.4470334020  TIP3      7761            0.0000000000
     74797      9121  TIP3      H1             13.8356473108      -14.7280029405       87.7902249569  TIP3      7761            0.0000000000
     74798      9121  TIP3      H2             13.5888706107      -16.2041683397       87.9417944115  TIP3      7761            0.0000000000
     74799      9122  TIP3      OH2            12.8460195825      -13.9559903802       94.0972123105  TIP3      7762            0.0000000000
     74800      9122  TIP3      H1             12.6952335617      -14.9126396561       94.0339188708  TIP3      7762            0.0000000000
     74801      9122  TIP3      H2             12.4874816092      -13.7226157034       94.9733026480  TIP3      7762            0.0000000000
     74802      9123  TIP3      OH2            -2.1675616510      -11.9234638012      -96.5707027035  TIP3      7763            0.0000000000
     74803      9123  TIP3      H1             -1.9787504547      -11.9328317879      -97.5383641345  TIP3      7763            0.0000000000
     74804      9123  TIP3      H2             -1.2566670641      -12.0311551133      -96.2228778826  TIP3      7763            0.0000000000
     74805      9124  TIP3      OH2            13.7149707462      -11.9645604833      -90.9322610038  TIP3      7764            0.0000000000
     74806      9124  TIP3      H1             14.3085931191      -12.7362508138      -90.8352084120  TIP3      7764            0.0000000000
     74807      9124  TIP3      H2             14.3349687805      -11.2184606980      -90.9886745723  TIP3      7764            0.0000000000
     74808      9125  TIP3      OH2            15.2339681116      -14.1187796285      -90.2260265108  TIP3      7765            0.0000000000
     74809      9125  TIP3      H1             14.3438078093      -14.4924555661      -90.4331381552  TIP3      7765            0.0000000000
     74810      9125  TIP3      H2             15.8180625485      -14.8579008231      -90.3959240356  TIP3      7765            0.0000000000
     74811      9126  TIP3      OH2            12.9532165804      -17.9972526776       87.4943609296  TIP3      7766            0.0000000000
     74812      9126  TIP3      H1             13.5266554532      -18.3457929871       88.2010798652  TIP3      7766            0.0000000000
     74813      9126  TIP3      H2             12.0722093698      -18.3029124343       87.7518745700  TIP3      7766            0.0000000000
     74814      9127  TIP3      OH2            12.5255182511      -16.3736748252       92.5495973197  TIP3      7767            0.0000000000
     74815      9127  TIP3      H1             12.8142645572      -17.3104730062       92.6497799354  TIP3      7767            0.0000000000
     74816      9127  TIP3      H2             13.3008371242      -15.9565067573       92.1569344976  TIP3      7767            0.0000000000
     74817      9128  TIP3      OH2            13.1635352757      -15.8709844178      -96.7451563169  TIP3      7768            0.0000000000
     74818      9128  TIP3      H1             14.0859065958      -15.5800756684      -96.7887098500  TIP3      7768            0.0000000000
     74819      9128  TIP3      H2             12.9113267241      -15.6734489563      -95.8332509901  TIP3      7768            0.0000000000
     74820      9129  TIP3      OH2            -2.5470654784      -16.5758991358      -90.4204509535  TIP3      7769            0.0000000000
     74821      9129  TIP3      H1             -1.6108468865      -16.7784556172      -90.2952999370  TIP3      7769            0.0000000000
     74822      9129  TIP3      H2             -2.9915024567      -17.3841949973      -90.1308941394  TIP3      7769            0.0000000000
     74823      9130  TIP3      OH2            15.4517770821      -21.1152666294      -88.6373105770  TIP3      7770            0.0000000000
     74824      9130  TIP3      H1             15.8624453318      -21.7558560738      -89.2436642715  TIP3      7770            0.0000000000
     74825      9130  TIP3      H2             15.6179197540      -20.2781389380      -89.1093101752  TIP3      7770            0.0000000000
     74826      9131  TIP3      OH2            13.1633870163      -19.0989603599       92.5988601053  TIP3      7771            0.0000000000
     74827      9131  TIP3      H1             13.3595756740      -19.5714480610       93.4265833988  TIP3      7771            0.0000000000
     74828      9131  TIP3      H2             12.5771086354      -19.7179497156       92.1187806095  TIP3      7771            0.0000000000
     74829      9132  TIP3      OH2            -3.0154988925      -15.3078047846      -96.5422012935  TIP3      7772            0.0000000000
     74830      9132  TIP3      H1             -2.4522056737      -15.4600612379      -97.3298243526  TIP3      7772            0.0000000000
     74831      9132  TIP3      H2             -2.6405983078      -14.4533331439      -96.2635158271  TIP3      7772            0.0000000000
     74832      9133  TIP3      OH2            15.0319393950      -18.9584841134      -90.2595851036  TIP3      7773            0.0000000000
     74833      9133  TIP3      H1             14.0931854929      -18.6900177321      -90.3090695014  TIP3      7773            0.0000000000
     74834      9133  TIP3      H2             15.0761885197      -19.5027429554      -91.0588534836  TIP3      7773            0.0000000000
     74835      9134  TIP3      OH2            15.0045978170      -19.0923744235       89.1846481195  TIP3      7774            0.0000000000
     74836      9134  TIP3      H1             15.4359574822      -19.7478785419       88.6235326178  TIP3      7774            0.0000000000
     74837      9134  TIP3      H2             15.6304249484      -18.3524811061       89.1186494098  TIP3      7774            0.0000000000
     74838      9135  TIP3      OH2            -2.7165879056      -20.3929783717      -94.1897315189  TIP3      7775            0.0000000000
     74839      9135  TIP3      H1             -3.2804070440      -20.5828610414      -93.4189392225  TIP3      7775            0.0000000000
     74840      9135  TIP3      H2             -3.0046723150      -19.5800705130      -94.5976991172  TIP3      7775            0.0000000000
     74841      9136  TIP3      OH2            -0.5028503172       -7.1558550548      -89.9900640855  TIP3      7776            0.0000000000
     74842      9136  TIP3      H1             -1.3238449802       -6.9538236622      -90.4365989342  TIP3      7776            0.0000000000
     74843      9136  TIP3      H2             -0.7675016344       -7.2292915811      -89.0586671557  TIP3      7776            0.0000000000
     74844      9137  TIP3      OH2            14.0253358187      -20.8606421350      -92.4200860871  TIP3      7777            0.0000000000
     74845      9137  TIP3      H1             13.1870456682      -20.5956657571      -92.8340523198  TIP3      7777            0.0000000000
     74846      9137  TIP3      H2             14.2201462152      -21.6779200748      -92.9329715445  TIP3      7777            0.0000000000
     74847      9138  TIP3      OH2            -0.1837065221       -2.9159602682      -93.7032110785  TIP3      7778            0.0000000000
     74848      9138  TIP3      H1             -0.9162724760       -2.4496083607      -94.1335027438  TIP3      7778            0.0000000000
     74849      9138  TIP3      H2             -0.5184377883       -3.1211462248      -92.8246277010  TIP3      7778            0.0000000000
     74850      9139  TIP3      OH2             2.1957840898       -3.2850214869      -94.7337750449  TIP3      7779            0.0000000000
     74851      9139  TIP3      H1              1.3347490718       -3.1638049254      -94.2836410591  TIP3      7779            0.0000000000
     74852      9139  TIP3      H2              2.1779377830       -2.6880188075      -95.4892611121  TIP3      7779            0.0000000000
     74853      9140  TIP3      OH2             1.3681563598       -5.6109286445       96.4998266541  TIP3      7780            0.0000000000
     74854      9140  TIP3      H1              1.1747749566       -6.5066571292       96.8258773356  TIP3      7780            0.0000000000
     74855      9140  TIP3      H2              2.1749098059       -5.4145495409       97.0211691821  TIP3      7780            0.0000000000
     74856      9141  TIP3      OH2             3.9294815884       -5.0997816751      -97.3019976287  TIP3      7781            0.0000000000
     74857      9141  TIP3      H1              4.1639013956       -6.0113607221      -97.5516040086  TIP3      7781            0.0000000000
     74858      9141  TIP3      H2              3.9825785683       -5.1204127591      -96.3363424554  TIP3      7781            0.0000000000
     74859      9142  TIP3      OH2            12.5890648569      -21.3978176320       96.6830774648  TIP3      7782            0.0000000000
     74860      9142  TIP3      H1             13.1713562203      -20.8011035943       96.1531088509  TIP3      7782            0.0000000000
     74861      9142  TIP3      H2             11.6965002510      -21.0576480107       96.4437255576  TIP3      7782            0.0000000000
     74862      9143  TIP3      OH2            14.2393602636      -20.1798001085       94.9783602027  TIP3      7783            0.0000000000
     74863      9143  TIP3      H1             14.9152081732      -20.7295536570       94.5166454053  TIP3      7783            0.0000000000
     74864      9143  TIP3      H2             14.6864128438      -19.3317989801       95.0351864690  TIP3      7783            0.0000000000
     74865      9144  TIP3      OH2             9.9918220117      -20.8477172872       95.8348565223  TIP3      7784            0.0000000000
     74866      9144  TIP3      H1              9.9230948766      -20.7366837187       94.8809694834  TIP3      7784            0.0000000000
     74867      9144  TIP3      H2              9.5600598580      -21.7252274754       95.9784121444  TIP3      7784            0.0000000000
     74868      9145  TIP3      OH2            11.2693966469      -20.8477212368       91.4908913833  TIP3      7785            0.0000000000
     74869      9145  TIP3      H1             10.5307039695      -20.2257365887       91.3809920612  TIP3      7785            0.0000000000
     74870      9145  TIP3      H2             10.8132198395      -21.6755126371       91.7530786372  TIP3      7785            0.0000000000
     74871      9146  TIP3      OH2            -1.4743605016       -5.0747187423       91.1336197098  TIP3      7786            0.0000000000
     74872      9146  TIP3      H1             -2.1890663046       -5.1151321790       90.4524976685  TIP3      7786            0.0000000000
     74873      9146  TIP3      H2             -1.5049253892       -4.1484952638       91.3662103512  TIP3      7786            0.0000000000
     74874      9147  TIP3      OH2             0.3144018487       -4.1293626896       88.1442756293  TIP3      7787            0.0000000000
     74875      9147  TIP3      H1              0.0577522679       -3.8590021887       89.0254375103  TIP3      7787            0.0000000000
     74876      9147  TIP3      H2              1.0959980071       -4.6593269598       88.2938982066  TIP3      7787            0.0000000000
     74877      9148  TIP3      OH2            10.0978468505      -21.5810921461      -89.0479810608  TIP3      7788            0.0000000000
     74878      9148  TIP3      H1             10.2089766780      -22.0794614052      -88.2159485384  TIP3      7788            0.0000000000
     74879      9148  TIP3      H2             11.0125724826      -21.6219222797      -89.3910199079  TIP3      7788            0.0000000000
     74880      9149  TIP3      OH2            13.3180276913       -5.5532687632      -90.4421754072  TIP3      7789            0.0000000000
     74881      9149  TIP3      H1             12.4757406780       -5.6930143360      -90.8945906382  TIP3      7789            0.0000000000
     74882      9149  TIP3      H2             13.2098131686       -4.6277424669      -90.1866179421  TIP3      7789            0.0000000000
     74883      9150  TIP3      OH2            27.7901049199      -11.6754941594       94.2955362184  TIP3      7790            0.0000000000
     74884      9150  TIP3      H1             27.7466335595      -10.6931885224       94.2709892581  TIP3      7790            0.0000000000
     74885      9150  TIP3      H2             27.0357088407      -11.9048674532       93.7514642487  TIP3      7790            0.0000000000
     74886      9151  TIP3      OH2            26.6880401929      -12.4227779791      -96.9237265359  TIP3      7791            0.0000000000
     74887      9151  TIP3      H1             26.5535790516      -13.0815352918      -96.2318658475  TIP3      7791            0.0000000000
     74888      9151  TIP3      H2             26.2846432736      -12.8990683066      -97.6693080005  TIP3      7791            0.0000000000
     74889      9152  TIP3      OH2            30.2242217615       -9.4602832863       96.0397098898  TIP3      7792            0.0000000000
     74890      9152  TIP3      H1             29.9046943300      -10.1875421221       96.5808310265  TIP3      7792            0.0000000000
     74891      9152  TIP3      H2             30.3838629814       -8.7962447753       96.7374711762  TIP3      7792            0.0000000000
     74892      9153  TIP3      OH2            17.2324465519      -12.5060201833       95.4595091736  TIP3      7793            0.0000000000
     74893      9153  TIP3      H1             17.4939198871      -13.3052560926       95.9210764078  TIP3      7793            0.0000000000
     74894      9153  TIP3      H2             17.9495283631      -12.4058752641       94.8096019607  TIP3      7793            0.0000000000
     74895      9154  TIP3      OH2            25.0529691396      -10.1790130077      -96.3915769104  TIP3      7794            0.0000000000
     74896      9154  TIP3      H1             25.3827516987      -10.7494559687      -97.0956321707  TIP3      7794            0.0000000000
     74897      9154  TIP3      H2             25.8495024853       -9.9005300078      -95.9254243945  TIP3      7794            0.0000000000
     74898      9155  TIP3      OH2            28.1287545208      -15.5275456059      -96.1871529243  TIP3      7795            0.0000000000
     74899      9155  TIP3      H1             28.3138922649      -16.4767007672      -96.1329133391  TIP3      7795            0.0000000000
     74900      9155  TIP3      H2             28.0822045824      -15.3936459064      -97.1417483401  TIP3      7795            0.0000000000
     74901      9156  TIP3      OH2            27.4554480561       -9.1181975195       93.4027472245  TIP3      7796            0.0000000000
     74902      9156  TIP3      H1             27.1860677595       -9.3414103621       92.5114532773  TIP3      7796            0.0000000000
     74903      9156  TIP3      H2             27.2470856915       -8.1906764459       93.4665916820  TIP3      7796            0.0000000000
     74904      9157  TIP3      OH2            22.6795506713      -10.9010502716      -94.5447567629  TIP3      7797            0.0000000000
     74905      9157  TIP3      H1             21.9662088680      -10.2556229416      -94.4443688662  TIP3      7797            0.0000000000
     74906      9157  TIP3      H2             23.3775018085      -10.3487009921      -94.9258054543  TIP3      7797            0.0000000000
     74907      9158  TIP3      OH2            21.1013287163       -8.8816980395      -93.7724194864  TIP3      7798            0.0000000000
     74908      9158  TIP3      H1             21.1060967294       -8.0130630856      -94.1923706551  TIP3      7798            0.0000000000
     74909      9158  TIP3      H2             20.2098139589       -8.9560482388      -93.3746486879  TIP3      7798            0.0000000000
     74910      9159  TIP3      OH2            17.2093269387       -9.2629134656       91.7028522600  TIP3      7799            0.0000000000
     74911      9159  TIP3      H1             16.9483040628       -8.9818869163       90.8120026622  TIP3      7799            0.0000000000
     74912      9159  TIP3      H2             17.2718392098       -8.4334390597       92.2189295958  TIP3      7799            0.0000000000
     74913      9160  TIP3      OH2            30.8144991858       -7.6218413381      -96.2782804337  TIP3      7800            0.0000000000
     74914      9160  TIP3      H1             29.8577552505       -7.5305112815      -96.1345835682  TIP3      7800            0.0000000000
     74915      9160  TIP3      H2             31.0933857100       -6.7042124571      -96.4531089919  TIP3      7800            0.0000000000
     74916      9161  TIP3      OH2            31.1317679039      -19.3631147775      -94.9248105947  TIP3      7801            0.0000000000
     74917      9161  TIP3      H1             30.4067760451      -18.7202411744      -94.9380754779  TIP3      7801            0.0000000000
     74918      9161  TIP3      H2             31.8483233152      -18.8869417815      -95.3665244655  TIP3      7801            0.0000000000
     74919      9162  TIP3      OH2            24.1482810844      -21.2352751894      -97.3990386518  TIP3      7802            0.0000000000
     74920      9162  TIP3      H1             24.0359008032      -22.2002494345      -97.5026315884  TIP3      7802            0.0000000000
     74921      9162  TIP3      H2             23.2738598090      -20.9366011588      -97.1398577379  TIP3      7802            0.0000000000
     74922      9163  TIP3      OH2            30.2802931513       -7.9218328273       93.5473740666  TIP3      7803            0.0000000000
     74923      9163  TIP3      H1             29.9990279271       -8.6151213513       92.9427099372  TIP3      7803            0.0000000000
     74924      9163  TIP3      H2             30.3107437121       -8.3835832130       94.4086685766  TIP3      7803            0.0000000000
     74925      9164  TIP3      OH2            29.8414566489      -12.1992006707       92.7250055402  TIP3      7804            0.0000000000
     74926      9164  TIP3      H1             29.1275498644      -11.9686337357       93.3634017408  TIP3      7804            0.0000000000
     74927      9164  TIP3      H2             30.3023717208      -12.8689978555       93.2352900107  TIP3      7804            0.0000000000
     74928      9165  TIP3      OH2            28.1851586324       -7.2454707174      -95.7034015185  TIP3      7805            0.0000000000
     74929      9165  TIP3      H1             27.8802461611       -6.6356715381      -95.0387974088  TIP3      7805            0.0000000000
     74930      9165  TIP3      H2             27.9528643981       -8.1146064077      -95.2929542687  TIP3      7805            0.0000000000
     74931      9166  TIP3      OH2            22.6949560211       -8.4382746899      -91.6361782532  TIP3      7806            0.0000000000
     74932      9166  TIP3      H1             22.3698999676       -7.6132511724      -91.2722050257  TIP3      7806            0.0000000000
     74933      9166  TIP3      H2             22.1126612141       -8.5616466587      -92.4220342155  TIP3      7806            0.0000000000
     74934      9167  TIP3      OH2            28.6912836536      -13.0319759295       90.4529669933  TIP3      7807            0.0000000000
     74935      9167  TIP3      H1             29.2679920614      -12.8508898098       91.2220805136  TIP3      7807            0.0000000000
     74936      9167  TIP3      H2             29.1000375321      -12.5455973132       89.7358203109  TIP3      7807            0.0000000000
     74937      9168  TIP3      OH2            32.4212060866      -21.3436723615       90.2635402875  TIP3      7808            0.0000000000
     74938      9168  TIP3      H1             31.5030816685      -21.1717372218       90.5668503944  TIP3      7808            0.0000000000
     74939      9168  TIP3      H2             32.6574314812      -20.4568908323       89.9248438558  TIP3      7808            0.0000000000
     74940      9169  TIP3      OH2            33.5590531638       -6.9421324718       88.6849470688  TIP3      7809            0.0000000000
     74941      9169  TIP3      H1             33.6715978410       -5.9761880928       88.7843042226  TIP3      7809            0.0000000000
     74942      9169  TIP3      H2             34.4746255201       -7.2275045652       88.5749420197  TIP3      7809            0.0000000000
     74943      9170  TIP3      OH2            16.2832585386       -7.3760688940      -96.7780679745  TIP3      7810            0.0000000000
     74944      9170  TIP3      H1             17.2383722375       -7.4864097303      -96.8288952208  TIP3      7810            0.0000000000
     74945      9170  TIP3      H2             16.1891008341       -6.5463263369      -96.2951292728  TIP3      7810            0.0000000000
     74946      9171  TIP3      OH2            34.5584576275       -6.7204610497      -91.0353753142  TIP3      7811            0.0000000000
     74947      9171  TIP3      H1             34.3954163214       -7.6624248240      -91.1464802476  TIP3      7811            0.0000000000
     74948      9171  TIP3      H2             33.6596196154       -6.4114442193      -90.7348041935  TIP3      7811            0.0000000000
     74949      9172  TIP3      OH2            18.7439383791       -8.7975508288      -92.6299297822  TIP3      7812            0.0000000000
     74950      9172  TIP3      H1             19.0065973755       -9.1012075526      -91.7410386030  TIP3      7812            0.0000000000
     74951      9172  TIP3      H2             17.9061652217       -9.2243016919      -92.7961838790  TIP3      7812            0.0000000000
     74952      9173  TIP3      OH2            26.0910513084      -20.6213370580      -93.2986264624  TIP3      7813            0.0000000000
     74953      9173  TIP3      H1             26.5104276161      -21.0500315355      -92.5252988881  TIP3      7813            0.0000000000
     74954      9173  TIP3      H2             25.1392777416      -20.7936541886      -93.1389080728  TIP3      7813            0.0000000000
     74955      9174  TIP3      OH2            29.3818467940      -16.8536085506      -92.4344355092  TIP3      7814            0.0000000000
     74956      9174  TIP3      H1             28.8707072432      -17.0345275089      -91.6205975834  TIP3      7814            0.0000000000
     74957      9174  TIP3      H2             29.2339375496      -15.9267762249      -92.6146186012  TIP3      7814            0.0000000000
     74958      9175  TIP3      OH2            25.7748042701      -18.1108066417       88.7564804699  TIP3      7815            0.0000000000
     74959      9175  TIP3      H1             25.4578531376      -18.1022926901       89.6674497015  TIP3      7815            0.0000000000
     74960      9175  TIP3      H2             25.4607010565      -18.9700630933       88.4596362254  TIP3      7815            0.0000000000
     74961      9176  TIP3      OH2            28.0077220665      -15.2589422968       95.7430913188  TIP3      7816            0.0000000000
     74962      9176  TIP3      H1             27.8498434425      -14.6577604841       95.0147497327  TIP3      7816            0.0000000000
     74963      9176  TIP3      H2             28.2398708097      -16.1011946744       95.3457271016  TIP3      7816            0.0000000000
     74964      9177  TIP3      OH2            28.5023938501      -18.4484014416      -96.3120376259  TIP3      7817            0.0000000000
     74965      9177  TIP3      H1             27.8213577764      -18.3854193653      -95.6061396579  TIP3      7817            0.0000000000
     74966      9177  TIP3      H2             27.9639528782      -18.6948971833      -97.0713624965  TIP3      7817            0.0000000000
     74967      9178  TIP3      OH2            25.4871021297      -14.8832898537       97.1274698322  TIP3      7818            0.0000000000
     74968      9178  TIP3      H1             25.9904633442      -15.4741212768       96.5634518533  TIP3      7818            0.0000000000
     74969      9178  TIP3      H2             25.2590006653      -15.4501111990       97.8748911268  TIP3      7818            0.0000000000
     74970      9179  TIP3      OH2            24.0049045996      -16.6289153498      -95.2251606245  TIP3      7819            0.0000000000
     74971      9179  TIP3      H1             23.2455476298      -16.0590943969      -95.1564934063  TIP3      7819            0.0000000000
     74972      9179  TIP3      H2             24.5904014982      -16.2601619200      -94.5247275303  TIP3      7819            0.0000000000
     74973      9180  TIP3      OH2            28.4111198290      -17.5516335772       89.5104742594  TIP3      7820            0.0000000000
     74974      9180  TIP3      H1             27.5161173361      -17.4067108957       89.1482120659  TIP3      7820            0.0000000000
     74975      9180  TIP3      H2             28.7888874520      -16.6676755120       89.5405949300  TIP3      7820            0.0000000000
     74976      9181  TIP3      OH2            26.1553771922      -10.1145826783      -92.2831372959  TIP3      7821            0.0000000000
     74977      9181  TIP3      H1             25.7501553871      -10.5513638119      -91.5300209044  TIP3      7821            0.0000000000
     74978      9181  TIP3      H2             25.8560593395       -9.2089075898      -92.2161824574  TIP3      7821            0.0000000000
     74979      9182  TIP3      OH2            19.6871939143      -11.0657935985       96.9196230251  TIP3      7822            0.0000000000
     74980      9182  TIP3      H1             20.4667550867      -11.0409773888       96.3538521921  TIP3      7822            0.0000000000
     74981      9182  TIP3      H2             19.8428752183      -11.8540380988       97.4414526173  TIP3      7822            0.0000000000
     74982      9183  TIP3      OH2            28.3793669162       -7.6714929411      -92.3582769319  TIP3      7823            0.0000000000
     74983      9183  TIP3      H1             27.4702322720       -7.5147373983      -92.6008366772  TIP3      7823            0.0000000000
     74984      9183  TIP3      H2             28.3683349786       -7.3700979746      -91.4305140802  TIP3      7823            0.0000000000
     74985      9184  TIP3      OH2            32.4650774058       -6.6675225215       91.2280255621  TIP3      7824            0.0000000000
     74986      9184  TIP3      H1             32.0083663270       -7.4665411238       91.5119532202  TIP3      7824            0.0000000000
     74987      9184  TIP3      H2             32.6449559433       -6.8289183563       90.2830493531  TIP3      7824            0.0000000000
     74988      9185  TIP3      OH2            29.5572904037      -11.8533279737      -96.4983994207  TIP3      7825            0.0000000000
     74989      9185  TIP3      H1             28.6145867240      -12.0890817706      -96.5816108480  TIP3      7825            0.0000000000
     74990      9185  TIP3      H2             29.9942760609      -12.6269571519      -96.8517763998  TIP3      7825            0.0000000000
     74991      9186  TIP3      OH2            22.0406070774       -7.4895815162       94.4194039968  TIP3      7826            0.0000000000
     74992      9186  TIP3      H1             22.6041390311       -6.7800662538       94.1320986108  TIP3      7826            0.0000000000
     74993      9186  TIP3      H2             21.1864123657       -7.2974828119       94.0261572585  TIP3      7826            0.0000000000
     74994      9187  TIP3      OH2            17.8869182100      -12.6696715235       88.8453061988  TIP3      7827            0.0000000000
     74995      9187  TIP3      H1             18.4142223507      -12.0260463568       89.3516625807  TIP3      7827            0.0000000000
     74996      9187  TIP3      H2             16.9774179712      -12.4601679255       89.1648804246  TIP3      7827            0.0000000000
     74997      9188  TIP3      OH2            27.5185295399       -9.6698433289      -94.8046604752  TIP3      7828            0.0000000000
     74998      9188  TIP3      H1             27.1508226492       -9.8749353505      -93.9223578462  TIP3      7828            0.0000000000
     74999      9188  TIP3      H2             28.1415131650      -10.3973318226      -94.9675006739  TIP3      7828            0.0000000000
     75000      9189  TIP3      OH2            29.7650715607       -8.6861650527       89.0159477981  TIP3      7829            0.0000000000
     75001      9189  TIP3      H1             30.1032423322       -9.0996554844       89.8325174665  TIP3      7829            0.0000000000
     75002      9189  TIP3      H2             28.8150958988       -8.7636762300       89.0843688620  TIP3      7829            0.0000000000
     75003      9190  TIP3      OH2            30.2870715972       -5.1164895596      -92.3237552004  TIP3      7830            0.0000000000
     75004      9190  TIP3      H1             29.6166603536       -5.6112901831      -92.7988782461  TIP3      7830            0.0000000000
     75005      9190  TIP3      H2             30.4819504573       -4.3817744835      -92.9508418891  TIP3      7830            0.0000000000
     75006      9191  TIP3      OH2            34.2846927832       -4.2037991133       89.2285571996  TIP3      7831            0.0000000000
     75007      9191  TIP3      H1             35.0245035160       -3.6104702087       89.0345370598  TIP3      7831            0.0000000000
     75008      9191  TIP3      H2             33.5908053391       -3.6156201881       89.5302860158  TIP3      7831            0.0000000000
     75009      9192  TIP3      OH2            30.6231959460       -9.9947582902       91.2362091387  TIP3      7832            0.0000000000
     75010      9192  TIP3      H1             30.3702607545      -10.7646528583       91.7884072042  TIP3      7832            0.0000000000
     75011      9192  TIP3      H2             31.5517951418       -9.8962207030       91.4674706920  TIP3      7832            0.0000000000
     75012      9193  TIP3      OH2            17.9559784483       -6.0788787411      -94.4946623373  TIP3      7833            0.0000000000
     75013      9193  TIP3      H1             18.2483012016       -6.9912871584      -94.4670519293  TIP3      7833            0.0000000000
     75014      9193  TIP3      H2             18.2344709173       -5.7269401440      -93.6354770760  TIP3      7833            0.0000000000
     75015      9194  TIP3      OH2            24.0350586408       -7.6648473626       87.5424165509  TIP3      7834            0.0000000000
     75016      9194  TIP3      H1             24.0673597861       -8.3738235084       86.9005492073  TIP3      7834            0.0000000000
     75017      9194  TIP3      H2             23.5261096709       -8.0216819091       88.2729698424  TIP3      7834            0.0000000000
     75018      9195  TIP3      OH2            19.0897817154      -10.7137219639       90.3293789424  TIP3      7835            0.0000000000
     75019      9195  TIP3      H1             18.5052225695      -10.3409787211       91.0107285983  TIP3      7835            0.0000000000
     75020      9195  TIP3      H2             19.7087276204       -9.9820621998       90.2002988217  TIP3      7835            0.0000000000
     75021      9196  TIP3      OH2            27.0542840800      -18.0613380246      -93.9730809832  TIP3      7836            0.0000000000
     75022      9196  TIP3      H1             27.7927541204      -18.0006780312      -93.3506935088  TIP3      7836            0.0000000000
     75023      9196  TIP3      H2             26.6952585743      -18.9540689417      -93.7984832028  TIP3      7836            0.0000000000
     75024      9197  TIP3      OH2            27.7887942371      -18.4141465487       91.9023961853  TIP3      7837            0.0000000000
     75025      9197  TIP3      H1             28.0723750702      -18.0814707680       91.0054483388  TIP3      7837            0.0000000000
     75026      9197  TIP3      H2             28.4975874561      -18.0581621463       92.4345245769  TIP3      7837            0.0000000000
     75027      9198  TIP3      OH2            25.1176038598      -16.8049989361       92.6693779805  TIP3      7838            0.0000000000
     75028      9198  TIP3      H1             25.8224113468      -16.1619240257       92.6547258253  TIP3      7838            0.0000000000
     75029      9198  TIP3      H2             24.7709417064      -16.8161386541       93.5602615196  TIP3      7838            0.0000000000
     75030      9199  TIP3      OH2            25.5760546755      -15.7233292204      -92.9013341614  TIP3      7839            0.0000000000
     75031      9199  TIP3      H1             25.7096749589      -15.1305277595      -92.1524995754  TIP3      7839            0.0000000000
     75032      9199  TIP3      H2             26.2736087280      -16.3875586621      -92.8071507819  TIP3      7839            0.0000000000
     75033      9200  TIP3      OH2            25.9349583902      -19.6725527217       93.5752599362  TIP3      7840            0.0000000000
     75034      9200  TIP3      H1             25.5989778854      -19.0207435305       94.1941766598  TIP3      7840            0.0000000000
     75035      9200  TIP3      H2             26.5863793766      -19.1403552152       93.0726231036  TIP3      7840            0.0000000000
     75036      9201  TIP3      OH2            22.4946427488       -5.2510705773       90.5866786935  TIP3      7841            0.0000000000
     75037      9201  TIP3      H1             23.0388275423       -4.5729344220       90.1712690431  TIP3      7841            0.0000000000
     75038      9201  TIP3      H2             22.6037963287       -4.9593613353       91.5005540106  TIP3      7841            0.0000000000
     75039      9202  TIP3      OH2            19.8142522220       -8.1061637547       89.2750519258  TIP3      7842            0.0000000000
     75040      9202  TIP3      H1             20.4579318601       -7.4809039549       89.6460656282  TIP3      7842            0.0000000000
     75041      9202  TIP3      H2             20.3303944382       -8.5972306463       88.6233938766  TIP3      7842            0.0000000000
     75042      9203  TIP3      OH2            31.4510636886       -4.7859421112      -96.3446675475  TIP3      7843            0.0000000000
     75043      9203  TIP3      H1             31.3732658298       -4.1105098662      -97.0408546675  TIP3      7843            0.0000000000
     75044      9203  TIP3      H2             32.4214519474       -4.7547024099      -96.1718968218  TIP3      7843            0.0000000000
     75045      9204  TIP3      OH2            17.9099892962       -6.8096796590       93.3004232641  TIP3      7844            0.0000000000
     75046      9204  TIP3      H1             17.1030744675       -6.2826904556       93.3019492458  TIP3      7844            0.0000000000
     75047      9204  TIP3      H2             18.4341874353       -6.2643258478       92.6961890719  TIP3      7844            0.0000000000
     75048      9205  TIP3      OH2            17.1617643721       -4.1262295444      -90.1161392238  TIP3      7845            0.0000000000
     75049      9205  TIP3      H1             17.7437666352       -4.3276334690      -89.3594938348  TIP3      7845            0.0000000000
     75050      9205  TIP3      H2             16.7240180211       -4.9756993584      -90.2815961243  TIP3      7845            0.0000000000
     75051      9206  TIP3      OH2            28.3359476268       -6.8484609971      -89.7634387649  TIP3      7846            0.0000000000
     75052      9206  TIP3      H1             28.0082290143       -7.7155995232      -89.5031295252  TIP3      7846            0.0000000000
     75053      9206  TIP3      H2             29.1121637503       -6.7183207957      -89.2056708374  TIP3      7846            0.0000000000
     75054      9207  TIP3      OH2            30.4808336182       -5.8818409425       87.8160628066  TIP3      7847            0.0000000000
     75055      9207  TIP3      H1             30.7577455152       -6.6824489275       88.2877076791  TIP3      7847            0.0000000000
     75056      9207  TIP3      H2             31.2356018982       -5.6985217486       87.2531712932  TIP3      7847            0.0000000000
     75057      9208  TIP3      OH2            17.1001750998      -10.3302889392      -89.1632659097  TIP3      7848            0.0000000000
     75058      9208  TIP3      H1             17.2314902298      -11.2360552136      -89.4474453244  TIP3      7848            0.0000000000
     75059      9208  TIP3      H2             16.3266603394      -10.0487068358      -89.6751422362  TIP3      7848            0.0000000000
     75060      9209  TIP3      OH2            23.7422382042      -10.3834725822      -89.7222088565  TIP3      7849            0.0000000000
     75061      9209  TIP3      H1             23.4264633387      -10.0492977074      -90.5936488836  TIP3      7849            0.0000000000
     75062      9209  TIP3      H2             23.9165417988      -11.3248085157      -89.8213515788  TIP3      7849            0.0000000000
     75063      9210  TIP3      OH2            28.6553510228      -15.1759045590      -88.5730179652  TIP3      7850            0.0000000000
     75064      9210  TIP3      H1             28.8692562278      -16.1033404655      -88.6708285564  TIP3      7850            0.0000000000
     75065      9210  TIP3      H2             29.4942047990      -14.7185618262      -88.5425541034  TIP3      7850            0.0000000000
     75066      9211  TIP3      OH2            29.9204290542      -12.2852846886      -90.2790427386  TIP3      7851            0.0000000000
     75067      9211  TIP3      H1             29.6229865574      -11.6875968173      -90.9785325290  TIP3      7851            0.0000000000
     75068      9211  TIP3      H2             30.8283827576      -12.4555479082      -90.5526497228  TIP3      7851            0.0000000000
     75069      9212  TIP3      OH2            23.4467811242      -20.9578170482      -93.3616793763  TIP3      7852            0.0000000000
     75070      9212  TIP3      H1             23.3042825114      -20.0077220456      -93.4757354280  TIP3      7852            0.0000000000
     75071      9212  TIP3      H2             22.7030854753      -21.3593650269      -93.8358300769  TIP3      7852            0.0000000000
     75072      9213  TIP3      OH2            24.7490051062      -16.6944759289      -89.7825790079  TIP3      7853            0.0000000000
     75073      9213  TIP3      H1             24.4520053185      -16.8255690183      -88.8824013800  TIP3      7853            0.0000000000
     75074      9213  TIP3      H2             23.9498180211      -16.8047546038      -90.3129941312  TIP3      7853            0.0000000000
     75075      9214  TIP3      OH2            27.4127238593      -17.6062801387      -90.7333382123  TIP3      7854            0.0000000000
     75076      9214  TIP3      H1             26.4782689625      -17.4320390801      -90.5232922295  TIP3      7854            0.0000000000
     75077      9214  TIP3      H2             27.7507328507      -18.1292647691      -89.9815039799  TIP3      7854            0.0000000000
     75078      9215  TIP3      OH2            28.9417950479      -18.8639037211      -88.7833905730  TIP3      7855            0.0000000000
     75079      9215  TIP3      H1             28.9801449185      -19.8343545272      -88.7378357033  TIP3      7855            0.0000000000
     75080      9215  TIP3      H2             28.8136480236      -18.5918467815      -87.8405336134  TIP3      7855            0.0000000000
     75081      9216  TIP3      OH2            23.7066079450      -21.6001036211      -90.6633739874  TIP3      7856            0.0000000000
     75082      9216  TIP3      H1             24.3687109859      -22.3229497956      -90.7001780689  TIP3      7856            0.0000000000
     75083      9216  TIP3      H2             23.5742600485      -21.4139395068      -91.6072052590  TIP3      7856            0.0000000000
     75084      9217  TIP3      OH2            17.1422369986       -8.3690684400       88.7058777839  TIP3      7857            0.0000000000
     75085      9217  TIP3      H1             18.0648817626       -8.3837670423       89.0309850475  TIP3      7857            0.0000000000
     75086      9217  TIP3      H2             17.1155213615       -9.1286905254       88.0955328855  TIP3      7857            0.0000000000
     75087      9218  TIP3      OH2            15.8071373807       -3.0586300918       93.8059431919  TIP3      7858            0.0000000000
     75088      9218  TIP3      H1             15.1326220067       -3.5197966352       93.3160798108  TIP3      7858            0.0000000000
     75089      9218  TIP3      H2             16.1568149359       -3.7176580796       94.4386786163  TIP3      7858            0.0000000000
     75090      9219  TIP3      OH2            16.6301388808       -4.9564491910       95.6315336104  TIP3      7859            0.0000000000
     75091      9219  TIP3      H1             16.3297207956       -5.8431449207       95.8477647505  TIP3      7859            0.0000000000
     75092      9219  TIP3      H2             16.9063629506       -4.6040864343       96.5018297242  TIP3      7859            0.0000000000
     75093      9220  TIP3      OH2            34.1666076245       -4.1447825480      -96.1468944497  TIP3      7860            0.0000000000
     75094      9220  TIP3      H1             34.1922734894       -4.0084844848      -95.1811945528  TIP3      7860            0.0000000000
     75095      9220  TIP3      H2             34.8859622561       -3.5895360917      -96.4561788626  TIP3      7860            0.0000000000
     75096      9221  TIP3      OH2            33.7852963773       -4.6277164353      -93.1806061189  TIP3      7861            0.0000000000
     75097      9221  TIP3      H1             33.2697506218       -5.3706965689      -93.5485095589  TIP3      7861            0.0000000000
     75098      9221  TIP3      H2             34.2986773646       -5.0427517353      -92.4866258202  TIP3      7861            0.0000000000
     75099      9222  TIP3      OH2            32.2281284384       -8.8497993966      -88.5748246228  TIP3      7862            0.0000000000
     75100      9222  TIP3      H1             31.3646251626       -8.9138264608      -88.1653989890  TIP3      7862            0.0000000000
     75101      9222  TIP3      H2             32.6077510562       -8.0752957266      -88.0973719985  TIP3      7862            0.0000000000
     75102      9223  TIP3      OH2            33.8097111711      -12.3901013174       93.5128141139  TIP3      7863            0.0000000000
     75103      9223  TIP3      H1             33.1813413139      -12.9792033367       93.9282370527  TIP3      7863            0.0000000000
     75104      9223  TIP3      H2             34.5119955120      -12.3189353438       94.1863288538  TIP3      7863            0.0000000000
     75105      9224  TIP3      OH2            33.6120681017       -9.7450120874      -96.2343834202  TIP3      7864            0.0000000000
     75106      9224  TIP3      H1             34.4490792503      -10.0972331550      -96.5662324163  TIP3      7864            0.0000000000
     75107      9224  TIP3      H2             33.7727040267       -8.7949627812      -96.3784884834  TIP3      7864            0.0000000000
     75108      9225  TIP3      OH2            32.1749531432       -6.8276882120      -93.9415149811  TIP3      7865            0.0000000000
     75109      9225  TIP3      H1             31.4854535812       -6.5022832471      -93.3471879732  TIP3      7865            0.0000000000
     75110      9225  TIP3      H2             31.6617769030       -7.2815081208      -94.6416765349  TIP3      7865            0.0000000000
     75111      9226  TIP3      OH2            16.7704962914      -11.8411522119      -96.6078214383  TIP3      7866            0.0000000000
     75112      9226  TIP3      H1             16.8916015761      -11.9730368835      -97.5718138614  TIP3      7866            0.0000000000
     75113      9226  TIP3      H2             17.6380188728      -12.0581954725      -96.2730031284  TIP3      7866            0.0000000000
     75114      9227  TIP3      OH2            34.2887019779      -21.1070099097      -88.6777088968  TIP3      7867            0.0000000000
     75115      9227  TIP3      H1             34.7417883033      -21.7389065076      -89.2651028831  TIP3      7867            0.0000000000
     75116      9227  TIP3      H2             34.4838116130      -20.2693913829      -89.1050152502  TIP3      7867            0.0000000000
     75117      9228  TIP3      OH2            32.0399647623      -19.1872088447       92.5570912075  TIP3      7868            0.0000000000
     75118      9228  TIP3      H1             32.2487014874      -19.6496164952       93.3812801135  TIP3      7868            0.0000000000
     75119      9228  TIP3      H2             31.4172646360      -19.7704498230       92.0985303776  TIP3      7868            0.0000000000
     75120      9229  TIP3      OH2            33.9944626962      -19.2245755488       89.3388809810  TIP3      7869            0.0000000000
     75121      9229  TIP3      H1             34.3080262249      -19.7997268159       88.6374512652  TIP3      7869            0.0000000000
     75122      9229  TIP3      H2             34.5137863390      -18.4197586563       89.2069217382  TIP3      7869            0.0000000000
     75123      9230  TIP3      OH2            16.1278582527      -20.3964943008      -94.1777439715  TIP3      7870            0.0000000000
     75124      9230  TIP3      H1             15.4719583856      -20.5944515736      -93.4871409229  TIP3      7870            0.0000000000
     75125      9230  TIP3      H2             15.6964456217      -19.7126733835      -94.7112820980  TIP3      7870            0.0000000000
     75126      9231  TIP3      OH2            18.3436461892       -7.1825705489      -89.9795012529  TIP3      7871            0.0000000000
     75127      9231  TIP3      H1             17.5157107639       -6.9808804547      -90.4399100108  TIP3      7871            0.0000000000
     75128      9231  TIP3      H2             18.0816844627       -7.2136146527      -89.0541508887  TIP3      7871            0.0000000000
     75129      9232  TIP3      OH2            32.8239390900      -20.9293462437      -92.3691098455  TIP3      7872            0.0000000000
     75130      9232  TIP3      H1             32.0748593925      -20.5697144128      -92.8659565454  TIP3      7872            0.0000000000
     75131      9232  TIP3      H2             33.1073664451      -21.6304150657      -92.9877397902  TIP3      7872            0.0000000000
     75132      9233  TIP3      OH2            18.6847459131       -2.9087685633      -93.7028831319  TIP3      7873            0.0000000000
     75133      9233  TIP3      H1             17.9475484277       -2.4528348970      -94.1482163839  TIP3      7873            0.0000000000
     75134      9233  TIP3      H2             18.3073687240       -3.1229078116      -92.8444939847  TIP3      7873            0.0000000000
     75135      9234  TIP3      OH2            21.0800850518       -3.3708921108      -94.6853470941  TIP3      7874            0.0000000000
     75136      9234  TIP3      H1             20.2210244769       -3.2180764963      -94.2521906359  TIP3      7874            0.0000000000
     75137      9234  TIP3      H2             21.0568069707       -2.7407658453      -95.4073915245  TIP3      7874            0.0000000000
     75138      9235  TIP3      OH2            30.7510992139       -3.0737648722      -94.2592384594  TIP3      7875            0.0000000000
     75139      9235  TIP3      H1             30.6874632841       -2.1105744623      -94.4504873951  TIP3      7875            0.0000000000
     75140      9235  TIP3      H2             30.9859320666       -3.4254963404      -95.1308603385  TIP3      7875            0.0000000000
     75141      9236  TIP3      OH2            18.0883342329       -4.3035005407      -96.7897321114  TIP3      7876            0.0000000000
     75142      9236  TIP3      H1             18.0881231399       -4.7333896740      -95.9160963448  TIP3      7876            0.0000000000
     75143      9236  TIP3      H2             18.9197853838       -4.6065840260      -97.1934471087  TIP3      7876            0.0000000000
     75144      9237  TIP3      OH2            20.2896859993       -5.5378004620       96.5945750861  TIP3      7877            0.0000000000
     75145      9237  TIP3      H1             20.0282101030       -6.4548190674       96.7528199287  TIP3      7877            0.0000000000
     75146      9237  TIP3      H2             21.1045138735       -5.4516200308       97.1100124629  TIP3      7877            0.0000000000
     75147      9238  TIP3      OH2            26.2381624320      -19.4226913697       96.5633474811  TIP3      7878            0.0000000000
     75148      9238  TIP3      H1             25.5971760547      -20.0918478914       96.8559312572  TIP3      7878            0.0000000000
     75149      9238  TIP3      H2             26.8442121305      -19.9596791322       96.0326607914  TIP3      7878            0.0000000000
     75150      9239  TIP3      OH2            31.4188753740      -21.3796795510       96.6894514626  TIP3      7879            0.0000000000
     75151      9239  TIP3      H1             32.0279436351      -20.8078559959       96.1676362772  TIP3      7879            0.0000000000
     75152      9239  TIP3      H2             30.5343392260      -21.0388064113       96.4424834427  TIP3      7879            0.0000000000
     75153      9240  TIP3      OH2            33.0596684644      -20.1779707260       94.9771973756  TIP3      7880            0.0000000000
     75154      9240  TIP3      H1             33.7518531319      -20.7330358671       94.5275180561  TIP3      7880            0.0000000000
     75155      9240  TIP3      H2             33.5622614721      -19.3608747319       95.0325790611  TIP3      7880            0.0000000000
     75156      9241  TIP3      OH2            18.6242561595      -20.7999050361       94.4350871583  TIP3      7881            0.0000000000
     75157      9241  TIP3      H1             17.8419017552      -21.0319711489       93.9178726916  TIP3      7881            0.0000000000
     75158      9241  TIP3      H2             19.1425118865      -21.6043824721       94.3926342612  TIP3      7881            0.0000000000
     75159      9242  TIP3      OH2            17.4064577722      -21.0295057575       90.1334504753  TIP3      7882            0.0000000000
     75160      9242  TIP3      H1             17.9092343063      -20.3794963315       89.6350269240  TIP3      7882            0.0000000000
     75161      9242  TIP3      H2             16.8480995101      -20.4851793066       90.7126604629  TIP3      7882            0.0000000000
     75162      9243  TIP3      OH2            23.1248329316      -20.7758411892       94.2300708941  TIP3      7883            0.0000000000
     75163      9243  TIP3      H1             24.0664336474      -20.5711913453       94.1585967504  TIP3      7883            0.0000000000
     75164      9243  TIP3      H2             23.0819118245      -21.1277296381       95.1200321779  TIP3      7883            0.0000000000
     75165      9244  TIP3      OH2            28.7685449728      -20.8584675240       95.8388239531  TIP3      7884            0.0000000000
     75166      9244  TIP3      H1             28.7758351276      -20.7839385077       94.8805116534  TIP3      7884            0.0000000000
     75167      9244  TIP3      H2             28.4256070513      -21.7715244635       95.9740066270  TIP3      7884            0.0000000000
     75168      9245  TIP3      OH2            30.1016595251      -20.8269343135       91.5370450551  TIP3      7885            0.0000000000
     75169      9245  TIP3      H1             29.3653536000      -20.2349995994       91.3273595969  TIP3      7885            0.0000000000
     75170      9245  TIP3      H2             29.6763249408      -21.6703711089       91.7459875215  TIP3      7885            0.0000000000
     75171      9246  TIP3      OH2            17.3398391159       -5.0962034692       91.1629511687  TIP3      7886            0.0000000000
     75172      9246  TIP3      H1             16.6698474374       -5.0892135592       90.4734348005  TIP3      7886            0.0000000000
     75173      9246  TIP3      H2             17.3763459790       -4.1406662710       91.3433079033  TIP3      7886            0.0000000000
     75174      9247  TIP3      OH2            20.5826791179      -20.9635804555      -89.1667423292  TIP3      7887            0.0000000000
     75175      9247  TIP3      H1             21.4422702703      -21.2825111267      -89.4696942085  TIP3      7887            0.0000000000
     75176      9247  TIP3      H2             20.1276238685      -21.7288918467      -88.7947332634  TIP3      7887            0.0000000000
     75177      9248  TIP3      OH2            28.9527320362      -21.6230910314      -89.0835281975  TIP3      7888            0.0000000000
     75178      9248  TIP3      H1             29.0739710864      -22.0393473224      -88.2241569077  TIP3      7888            0.0000000000
     75179      9248  TIP3      H2             29.8730508689      -21.5851052457      -89.4133460532  TIP3      7888            0.0000000000
     75180      9249  TIP3      OH2            32.2178711670       -5.6523497773      -90.4583402862  TIP3      7889            0.0000000000
     75181      9249  TIP3      H1             31.3812673325       -5.7451597441      -90.9644524799  TIP3      7889            0.0000000000
     75182      9249  TIP3      H2             32.1320398208       -4.7185185777      -90.2005626925  TIP3      7889            0.0000000000
     75183      9250  TIP3      OH2            37.9236953538      -12.8315599036      -95.3601168903  TIP3      7890            0.0000000000
     75184      9250  TIP3      H1             37.8747529592      -13.3575955974      -94.5697649106  TIP3      7890            0.0000000000
     75185      9250  TIP3      H2             38.5322414779      -12.1190208754      -95.1602907159  TIP3      7890            0.0000000000
     75186      9251  TIP3      OH2            38.6809719418       -8.3467309659      -96.7811662276  TIP3      7891            0.0000000000
     75187      9251  TIP3      H1             38.3967574395       -9.1873400664      -97.1920692712  TIP3      7891            0.0000000000
     75188      9251  TIP3      H2             39.6554537397       -8.4811806267      -96.7949924488  TIP3      7891            0.0000000000
     75189      9252  TIP3      OH2            39.6872838330      -17.3293923141       95.8639596236  TIP3      7892            0.0000000000
     75190      9252  TIP3      H1             40.2295961424      -16.6434966468       95.4543638912  TIP3      7892            0.0000000000
     75191      9252  TIP3      H2             39.6689064740      -18.0268247991       95.2024083617  TIP3      7892            0.0000000000
     75192      9253  TIP3      OH2            38.9815201694      -18.5400446626      -94.8533497496  TIP3      7893            0.0000000000
     75193      9253  TIP3      H1             38.7326337711      -18.0437335113      -95.6408888696  TIP3      7893            0.0000000000
     75194      9253  TIP3      H2             38.2916108083      -18.3408314018      -94.2123786062  TIP3      7893            0.0000000000
     75195      9254  TIP3      OH2            39.8152625770       -8.8145439089      -93.8790036984  TIP3      7894            0.0000000000
     75196      9254  TIP3      H1             39.8625581180       -7.9023153760      -94.1650835258  TIP3      7894            0.0000000000
     75197      9254  TIP3      H2             38.9867038340       -8.8640898730      -93.3633996781  TIP3      7894            0.0000000000
     75198      9255  TIP3      OH2            39.8456383632       -6.4177733995      -90.9899770276  TIP3      7895            0.0000000000
     75199      9255  TIP3      H1             39.7829145001       -6.4826374923      -91.9440970360  TIP3      7895            0.0000000000
     75200      9255  TIP3      H2             38.9103828944       -6.4876538896      -90.7086790514  TIP3      7895            0.0000000000
     75201      9256  TIP3      OH2            35.1614376160       -7.3743166919      -96.7853641129  TIP3      7896            0.0000000000
     75202      9256  TIP3      H1             36.1175234895       -7.5008964344      -96.7924724095  TIP3      7896            0.0000000000
     75203      9256  TIP3      H2             35.0503929737       -6.5553209577      -96.2797248896  TIP3      7896            0.0000000000
     75204      9257  TIP3      OH2            37.5895990480       -8.7592776411      -92.5585584074  TIP3      7897            0.0000000000
     75205      9257  TIP3      H1             37.8684743309       -9.1682366766      -91.7360350290  TIP3      7897            0.0000000000
     75206      9257  TIP3      H2             36.7810803418       -9.2155672995      -92.8169760366  TIP3      7897            0.0000000000
     75207      9258  TIP3      OH2            40.2654709438      -20.1750964512      -96.6805211672  TIP3      7898            0.0000000000
     75208      9258  TIP3      H1             39.3747069583      -20.3789089719      -97.0350982943  TIP3      7898            0.0000000000
     75209      9258  TIP3      H2             40.1909697050      -19.3495749073      -96.2159606786  TIP3      7898            0.0000000000
     75210      9259  TIP3      OH2            40.3609313501      -15.3718895741      -95.5077447843  TIP3      7899            0.0000000000
     75211      9259  TIP3      H1             39.7232693591      -15.4089941761      -94.7990489688  TIP3      7899            0.0000000000
     75212      9259  TIP3      H2             40.3936869652      -14.4497380500      -95.7771358371  TIP3      7899            0.0000000000
     75213      9260  TIP3      OH2            40.2624318347      -15.0918407039       93.8881083552  TIP3      7900            0.0000000000
     75214      9260  TIP3      H1             39.4141307852      -15.5347631864       93.9605513968  TIP3      7900            0.0000000000
     75215      9260  TIP3      H2             40.7743895295      -15.6035830208       93.2634543476  TIP3      7900            0.0000000000
     75216      9261  TIP3      OH2            40.0381605955      -15.0653300016       89.2188588596  TIP3      7901            0.0000000000
     75217      9261  TIP3      H1             39.5339073624      -15.3054644023       88.4532824735  TIP3      7901            0.0000000000
     75218      9261  TIP3      H2             40.8901027327      -14.7256589014       88.8789953161  TIP3      7901            0.0000000000
     75219      9262  TIP3      OH2            38.5651394247      -18.5403291557       93.4271609426  TIP3      7902            0.0000000000
     75220      9262  TIP3      H1             38.6644751836      -19.5095048990       93.5597048192  TIP3      7902            0.0000000000
     75221      9262  TIP3      H2             39.4725670252      -18.3674533167       93.1282440551  TIP3      7902            0.0000000000
     75222      9263  TIP3      OH2            38.6332067347      -10.9782688920       97.0320741155  TIP3      7903            0.0000000000
     75223      9263  TIP3      H1             39.2656569372      -11.0589119603       96.3133587231  TIP3      7903            0.0000000000
     75224      9263  TIP3      H2             38.5906796929      -11.8651260774       97.4214043627  TIP3      7903            0.0000000000
     75225      9264  TIP3      OH2            36.8512880092       -6.0648035204      -94.4561680741  TIP3      7904            0.0000000000
     75226      9264  TIP3      H1             37.1347122417       -6.9834454351      -94.4863170696  TIP3      7904            0.0000000000
     75227      9264  TIP3      H2             37.1171468231       -5.7505167454      -93.5940988832  TIP3      7904            0.0000000000
     75228      9265  TIP3      OH2            37.9125547643      -20.7610829348       97.1151647544  TIP3      7905            0.0000000000
     75229      9265  TIP3      H1             37.5993011410      -20.6381775064       96.1956707455  TIP3      7905            0.0000000000
     75230      9265  TIP3      H2             37.3763714440      -21.5097952750       97.4337740832  TIP3      7905            0.0000000000
     75231      9266  TIP3      OH2            36.8095087437       -6.6861196681       93.3358584423  TIP3      7906            0.0000000000
     75232      9266  TIP3      H1             35.9225362026       -6.3164451587       93.2920322135  TIP3      7906            0.0000000000
     75233      9266  TIP3      H2             37.2987430157       -6.2331915664       92.6556187231  TIP3      7906            0.0000000000
     75234      9267  TIP3      OH2            36.0541378680       -4.1616808147      -90.1477815261  TIP3      7907            0.0000000000
     75235      9267  TIP3      H1             36.5287505249       -4.4044614328      -89.3497150685  TIP3      7907            0.0000000000
     75236      9267  TIP3      H2             35.5540891687       -4.9700321135      -90.3273406995  TIP3      7907            0.0000000000
     75237      9268  TIP3      OH2            35.8685116323      -10.2450285960      -89.2138243673  TIP3      7908            0.0000000000
     75238      9268  TIP3      H1             36.1110279314      -11.1596463221      -89.4601819394  TIP3      7908            0.0000000000
     75239      9268  TIP3      H2             35.0729128979      -10.0628273920      -89.7127783348  TIP3      7908            0.0000000000
     75240      9269  TIP3      OH2            39.5558018731      -15.5142059996      -89.4234582033  TIP3      7909            0.0000000000
     75241      9269  TIP3      H1             38.7990745979      -16.1146828352      -89.5918811831  TIP3      7909            0.0000000000
     75242      9269  TIP3      H2             40.2266427216      -15.9047612778      -89.9789486227  TIP3      7909            0.0000000000
     75243      9270  TIP3      OH2            37.7901008302      -17.6053767054      -89.6553043870  TIP3      7910            0.0000000000
     75244      9270  TIP3      H1             37.8896237825      -18.3448203419      -90.2880083613  TIP3      7910            0.0000000000
     75245      9270  TIP3      H2             37.6187245773      -18.0702630421      -88.8300477366  TIP3      7910            0.0000000000
     75246      9271  TIP3      OH2            37.2013842246       -7.1162056058      -90.0191030203  TIP3      7911            0.0000000000
     75247      9271  TIP3      H1             36.3412846934       -6.9792462546      -90.4595051778  TIP3      7911            0.0000000000
     75248      9271  TIP3      H2             36.9346675659       -7.2223917728      -89.0957826379  TIP3      7911            0.0000000000
     75249      9272  TIP3      OH2            37.4777033597      -20.7984035242       94.4355535411  TIP3      7912            0.0000000000
     75250      9272  TIP3      H1             36.6797419008      -21.0391396726       93.9389877289  TIP3      7912            0.0000000000
     75251      9272  TIP3      H2             37.9697027417      -21.6434287337       94.3781784377  TIP3      7912            0.0000000000
     75252      9273  TIP3      OH2            36.2784356223      -21.0455400547       90.1647631161  TIP3      7913            0.0000000000
     75253      9273  TIP3      H1             36.7615063469      -20.4041470345       89.6288482736  TIP3      7913            0.0000000000
     75254      9273  TIP3      H2             35.6893917062      -20.4970387803       90.7119860904  TIP3      7913            0.0000000000
     75255      9274  TIP3      OH2            37.3772419917      -20.2359501179      -90.8271197943  TIP3      7914            0.0000000000
     75256      9274  TIP3      H1             37.0491854741      -21.0687044883      -90.4442410289  TIP3      7914            0.0000000000
     75257      9274  TIP3      H2             38.2952210025      -20.3140395309      -90.4921061281  TIP3      7914            0.0000000000
     75258      9275  TIP3      OH2            39.2066821157      -21.2291806892      -89.4021152014  TIP3      7915            0.0000000000
     75259      9275  TIP3      H1             40.1641993271      -21.2852734623      -89.4001273639  TIP3      7915            0.0000000000
     75260      9275  TIP3      H2             38.9485812698      -21.8521065228      -88.6976202352  TIP3      7915            0.0000000000
     75261      9276  TIP3      OH2           -29.9101653149        6.4311887183      -96.9511612432  TIP3      7916            0.0000000000
     75262      9276  TIP3      H1            -29.9875318082        5.8247599275      -96.1952160055  TIP3      7916            0.0000000000
     75263      9276  TIP3      H2            -30.3451120124        5.9404614661      -97.6638827145  TIP3      7916            0.0000000000
     75264      9277  TIP3      OH2           -40.8627147392        5.9632519364       92.6343297915  TIP3      7917            0.0000000000
     75265      9277  TIP3      H1            -40.6387969207        5.4526895226       93.4640283726  TIP3      7917            0.0000000000
     75266      9277  TIP3      H2            -40.6240490308        5.1201380550       92.1802749312  TIP3      7917            0.0000000000
     75267      9278  TIP3      OH2           -39.2197364368        6.3814996030       95.7244603006  TIP3      7918            0.0000000000
     75268      9278  TIP3      H1            -39.0607755138        5.4757293551       96.0723185520  TIP3      7918            0.0000000000
     75269      9278  TIP3      H2            -38.6491185806        6.4374183076       94.9404839425  TIP3      7918            0.0000000000
     75270      9279  TIP3      OH2           -31.6141619195        8.8188454707      -96.4778294331  TIP3      7919            0.0000000000
     75271      9279  TIP3      H1            -31.2188299682        8.2122472474      -97.1166145379  TIP3      7919            0.0000000000
     75272      9279  TIP3      H2            -30.8186862278        9.0060648956      -95.9483538576  TIP3      7919            0.0000000000
     75273      9280  TIP3      OH2           -28.4721717235        3.2941754572      -96.1803483329  TIP3      7920            0.0000000000
     75274      9280  TIP3      H1            -28.2628171201        2.3540547244      -96.1765935575  TIP3      7920            0.0000000000
     75275      9280  TIP3      H2            -28.5340737495        3.4453905000      -97.1274291873  TIP3      7920            0.0000000000
     75276      9281  TIP3      OH2           -35.2876961055        1.3591064124       95.7940537199  TIP3      7921            0.0000000000
     75277      9281  TIP3      H1            -35.1953677565        2.2301738576       95.3528452692  TIP3      7921            0.0000000000
     75278      9281  TIP3      H2            -35.7157385350        0.8338386425       95.0870686947  TIP3      7921            0.0000000000
     75279      9282  TIP3      OH2           -38.4120260426        3.8924238649       96.6450022834  TIP3      7922            0.0000000000
     75280      9282  TIP3      H1            -37.9098515007        3.1810735883       97.0721210337  TIP3      7922            0.0000000000
     75281      9282  TIP3      H2            -38.5506359186        3.5017353516       95.7751334296  TIP3      7922            0.0000000000
     75282      9283  TIP3      OH2           -33.4979258938        5.3568192961       95.8409604975  TIP3      7923            0.0000000000
     75283      9283  TIP3      H1            -32.8542292952        4.7608987652       96.2484648957  TIP3      7923            0.0000000000
     75284      9283  TIP3      H2            -34.0754434488        4.7427280329       95.3460344863  TIP3      7923            0.0000000000
     75285      9284  TIP3      OH2           -36.3730067560        0.3172836048      -94.8572493399  TIP3      7924            0.0000000000
     75286      9284  TIP3      H1            -36.6686118019        0.8527479803      -95.6139651665  TIP3      7924            0.0000000000
     75287      9284  TIP3      H2            -37.0817599213        0.5211535559      -94.2051760041  TIP3      7924            0.0000000000
     75288      9285  TIP3      OH2           -33.7936701552        7.9669997889      -94.5700342679  TIP3      7925            0.0000000000
     75289      9285  TIP3      H1            -34.5421951945        8.5646259793      -94.4242332976  TIP3      7925            0.0000000000
     75290      9285  TIP3      H2            -33.1256455008        8.5588870166      -94.9471834825  TIP3      7925            0.0000000000
     75291      9286  TIP3      OH2           -25.5674368903        0.8301463819       96.2421817363  TIP3      7926            0.0000000000
     75292      9286  TIP3      H1            -25.9035197965        0.0742975109       96.7385637473  TIP3      7926            0.0000000000
     75293      9286  TIP3      H2            -25.0128243523        1.3315321774       96.8328496504  TIP3      7926            0.0000000000
     75294      9287  TIP3      OH2           -36.8362630693        2.1434276687      -96.8540674919  TIP3      7927            0.0000000000
     75295      9287  TIP3      H1            -36.2056015763        2.8116039056      -96.5043100315  TIP3      7927            0.0000000000
     75296      9287  TIP3      H2            -36.2794978638        1.7372748838      -97.5565796520  TIP3      7927            0.0000000000
     75297      9288  TIP3      OH2           -30.1832752492        6.4226938363       91.8044671856  TIP3      7928            0.0000000000
     75298      9288  TIP3      H1            -30.8856712958        6.9560293216       91.4272416507  TIP3      7928            0.0000000000
     75299      9288  TIP3      H2            -29.4615424732        6.4732496868       91.1539352699  TIP3      7928            0.0000000000
     75300      9289  TIP3      OH2           -30.1058481566        4.9256557559       88.8486951841  TIP3      7929            0.0000000000
     75301      9289  TIP3      H1            -29.4068864329        4.9413758123       89.5265394081  TIP3      7929            0.0000000000
     75302      9289  TIP3      H2            -29.7827882556        4.2432103042       88.2542186877  TIP3      7929            0.0000000000
     75303      9290  TIP3      OH2           -22.7530342911        5.8363963593      -94.6415741038  TIP3      7930            0.0000000000
     75304      9290  TIP3      H1            -23.4609922473        6.5030114482      -94.5480179630  TIP3      7930            0.0000000000
     75305      9290  TIP3      H2            -22.3348845977        6.1228084988      -95.4646698767  TIP3      7930            0.0000000000
     75306      9291  TIP3      OH2           -26.7148265147        6.4686380313       92.6919679784  TIP3      7931            0.0000000000
     75307      9291  TIP3      H1            -27.3860419168        6.8630684459       93.2584861224  TIP3      7931            0.0000000000
     75308      9291  TIP3      H2            -26.2094164860        5.8945342530       93.2821262590  TIP3      7931            0.0000000000
     75309      9292  TIP3      OH2           -34.6073173500        5.9301738252      -96.3702948209  TIP3      7932            0.0000000000
     75310      9292  TIP3      H1            -34.1841097540        6.1490740783      -97.2205295753  TIP3      7932            0.0000000000
     75311      9292  TIP3      H2            -34.3813840393        6.6921281629      -95.8176029715  TIP3      7932            0.0000000000
     75312      9293  TIP3      OH2           -28.3384756438       11.6221072841      -95.6133909457  TIP3      7933            0.0000000000
     75313      9293  TIP3      H1            -28.7392261722       12.2011981228      -94.9927493881  TIP3      7933            0.0000000000
     75314      9293  TIP3      H2            -28.6323596384       10.7264224241      -95.3283825122  TIP3      7933            0.0000000000
     75315      9294  TIP3      OH2           -27.8674019285        5.7890670670       90.4441244431  TIP3      7934            0.0000000000
     75316      9294  TIP3      H1            -27.2919803088        5.9900451571       91.2283854677  TIP3      7934            0.0000000000
     75317      9294  TIP3      H2            -27.4764481571        6.2866369341       89.7343468519  TIP3      7934            0.0000000000
     75318      9295  TIP3      OH2           -22.9854706977       11.9524295081       88.6107231465  TIP3      7935            0.0000000000
     75319      9295  TIP3      H1            -22.8694120648       12.8683193201       88.8701537157  TIP3      7935            0.0000000000
     75320      9295  TIP3      H2            -22.0746953190       11.5880152967       88.5807721152  TIP3      7935            0.0000000000
     75321      9296  TIP3      OH2           -31.1067383303       11.7012518709      -92.2065089026  TIP3      7936            0.0000000000
     75322      9296  TIP3      H1            -31.0194171403       12.5462484440      -91.7357969857  TIP3      7936            0.0000000000
     75323      9296  TIP3      H2            -31.9828777035       11.3990340932      -91.9621940791  TIP3      7936            0.0000000000
     75324      9297  TIP3      OH2           -37.1075781558       14.5614062546       94.0899464429  TIP3      7937            0.0000000000
     75325      9297  TIP3      H1            -36.7946232122       14.0380008527       94.8468769871  TIP3      7937            0.0000000000
     75326      9297  TIP3      H2            -37.7865866973       13.9632165550       93.7314183926  TIP3      7937            0.0000000000
     75327      9298  TIP3      OH2           -24.9800365476        3.6460561323      -90.5566690490  TIP3      7938            0.0000000000
     75328      9298  TIP3      H1            -25.3156632223        4.1290996354      -91.3304965288  TIP3      7938            0.0000000000
     75329      9298  TIP3      H2            -24.8673451801        2.7661186357      -90.9204245477  TIP3      7938            0.0000000000
     75330      9299  TIP3      OH2           -35.0009506663        3.5018627546      -95.4454961941  TIP3      7939            0.0000000000
     75331      9299  TIP3      H1            -35.7278203942        3.4962305401      -94.7882642444  TIP3      7939            0.0000000000
     75332      9299  TIP3      H2            -35.0198683119        4.4217442664      -95.7964572347  TIP3      7939            0.0000000000
     75333      9300  TIP3      OH2           -35.0333090814        3.6452262947       94.1938158713  TIP3      7940            0.0000000000
     75334      9300  TIP3      H1            -35.9564736427        3.3509216381       94.0346425165  TIP3      7940            0.0000000000
     75335      9300  TIP3      H2            -34.6180566855        3.3771394799       93.3487443745  TIP3      7940            0.0000000000
     75336      9301  TIP3      OH2           -30.4367489821        4.2645547241      -90.4690629018  TIP3      7941            0.0000000000
     75337      9301  TIP3      H1            -31.0458203097        3.5335101027      -90.1425211831  TIP3      7941            0.0000000000
     75338      9301  TIP3      H2            -29.6037557518        3.9838525247      -90.0736019346  TIP3      7941            0.0000000000
     75339      9302  TIP3      OH2           -37.3083991193        3.7723695513      -93.7211130834  TIP3      7942            0.0000000000
     75340      9302  TIP3      H1            -37.3604303975        4.2008122761      -92.8625820149  TIP3      7942            0.0000000000
     75341      9302  TIP3      H2            -37.7993798238        2.9572898679      -93.5543150268  TIP3      7942            0.0000000000
     75342      9303  TIP3      OH2           -41.3709271433        1.2258364674       94.3890298288  TIP3      7943            0.0000000000
     75343      9303  TIP3      H1            -40.8126236882        1.2614479547       95.1899114425  TIP3      7943            0.0000000000
     75344      9303  TIP3      H2            -40.6109548390        0.7051353625       93.9708672237  TIP3      7943            0.0000000000
     75345      9304  TIP3      OH2           -38.9377779712        1.8174812083       90.4009213014  TIP3      7944            0.0000000000
     75346      9304  TIP3      H1            -38.8604546852        2.2897150658       89.5778300682  TIP3      7944            0.0000000000
     75347      9304  TIP3      H2            -39.8749514222        2.0104006870       90.6292747790  TIP3      7944            0.0000000000
     75348      9305  TIP3      OH2           -29.3222447606        5.2086438214      -94.3661476291  TIP3      7945            0.0000000000
     75349      9305  TIP3      H1            -28.8720774710        4.5517210466      -94.9365625649  TIP3      7945            0.0000000000
     75350      9305  TIP3      H2            -29.7322722120        4.6565947233      -93.6889437257  TIP3      7945            0.0000000000
     75351      9306  TIP3      OH2           -32.4618335560        1.1216921820       95.2038718535  TIP3      7946            0.0000000000
     75352      9306  TIP3      H1            -33.4006880929        1.1752304106       95.4706125465  TIP3      7946            0.0000000000
     75353      9306  TIP3      H2            -32.0129791668        1.0341199158       96.0391418531  TIP3      7946            0.0000000000
     75354      9307  TIP3      OH2           -37.4266367979        2.3810912609       94.0656479872  TIP3      7947            0.0000000000
     75355      9307  TIP3      H1            -38.2886715630        2.6944058991       93.7199493839  TIP3      7947            0.0000000000
     75356      9307  TIP3      H2            -37.2872008059        1.6175909023       93.4997665628  TIP3      7947            0.0000000000
     75357      9308  TIP3      OH2           -33.9684710063        2.7543936436       91.6731068976  TIP3      7948            0.0000000000
     75358      9308  TIP3      H1            -33.0451826157        2.9482795669       91.8489166718  TIP3      7948            0.0000000000
     75359      9308  TIP3      H2            -34.2371303625        3.4201900310       91.0056070979  TIP3      7948            0.0000000000
     75360      9309  TIP3      OH2           -35.2968623167        3.9326629625       89.2532240361  TIP3      7949            0.0000000000
     75361      9309  TIP3      H1            -35.8463981797        3.5838066902       88.5373435168  TIP3      7949            0.0000000000
     75362      9309  TIP3      H2            -34.4815217881        4.1944162285       88.7977328873  TIP3      7949            0.0000000000
     75363      9310  TIP3      OH2           -31.1847713512        3.9428413541       97.0973181239  TIP3      7950            0.0000000000
     75364      9310  TIP3      H1            -30.6175875708        3.4094261286       96.5470511096  TIP3      7950            0.0000000000
     75365      9310  TIP3      H2            -31.3615359290        3.3917297116       97.8820238698  TIP3      7950            0.0000000000
     75366      9311  TIP3      OH2           -36.1224702790        0.0623207937       93.5076657598  TIP3      7951            0.0000000000
     75367      9311  TIP3      H1            -36.4549525898       -0.8514172332       93.4869318724  TIP3      7951            0.0000000000
     75368      9311  TIP3      H2            -35.3545687925        0.0232404514       92.9247559774  TIP3      7951            0.0000000000
     75369      9312  TIP3      OH2           -32.5169088906        2.3082189189      -95.2710922034  TIP3      7952            0.0000000000
     75370      9312  TIP3      H1            -33.3766051284        2.7707737935      -95.1502626089  TIP3      7952            0.0000000000
     75371      9312  TIP3      H2            -32.0224345769        2.5942512033      -94.4797134427  TIP3      7952            0.0000000000
     75372      9313  TIP3      OH2           -24.7995063552        7.6917510313      -94.7519977652  TIP3      7953            0.0000000000
     75373      9313  TIP3      H1            -24.2182361530        8.2040137140      -95.3377003230  TIP3      7953            0.0000000000
     75374      9313  TIP3      H2            -25.6512726054        7.7561311808      -95.2243995420  TIP3      7953            0.0000000000
     75375      9314  TIP3      OH2           -30.4768846184        8.7070304081      -92.3082746593  TIP3      7954            0.0000000000
     75376      9314  TIP3      H1            -30.8232084909        8.3406127175      -91.4953043591  TIP3      7954            0.0000000000
     75377      9314  TIP3      H2            -30.6318673010        9.6623052154      -92.2194540851  TIP3      7954            0.0000000000
     75378      9315  TIP3      OH2           -29.8780913242        9.9745714791       90.2629145374  TIP3      7955            0.0000000000
     75379      9315  TIP3      H1            -30.1587447678       10.8349974957       90.5665813117  TIP3      7955            0.0000000000
     75380      9315  TIP3      H2            -30.6184908590        9.3858902774       90.3834177295  TIP3      7955            0.0000000000
     75381      9316  TIP3      OH2           -39.8652614572        6.3572100703      -92.5374469870  TIP3      7956            0.0000000000
     75382      9316  TIP3      H1            -39.6238562591        5.8871173703      -91.7263321047  TIP3      7956            0.0000000000
     75383      9316  TIP3      H2            -40.4660288089        5.7121468786      -92.9276816592  TIP3      7956            0.0000000000
     75384      9317  TIP3      OH2           -32.8134085251        5.8636841331      -90.3286301305  TIP3      7957            0.0000000000
     75385      9317  TIP3      H1            -33.1949830009        5.5363730652      -91.1572872985  TIP3      7957            0.0000000000
     75386      9317  TIP3      H2            -31.9175610060        5.5127844460      -90.3735905597  TIP3      7957            0.0000000000
     75387      9318  TIP3      OH2           -22.4987063483        3.3723022513       90.7657025286  TIP3      7958            0.0000000000
     75388      9318  TIP3      H1            -23.0338298700        3.0167256730       90.0420980376  TIP3      7958            0.0000000000
     75389      9318  TIP3      H2            -22.4103750232        4.2929393526       90.4826746288  TIP3      7958            0.0000000000
     75390      9319  TIP3      OH2           -27.0009087794        6.9753671392      -96.4412257107  TIP3      7959            0.0000000000
     75391      9319  TIP3      H1            -27.9438472569        6.7802829647      -96.5437642013  TIP3      7959            0.0000000000
     75392      9319  TIP3      H2            -26.5739188513        6.2218433200      -96.8877783234  TIP3      7959            0.0000000000
     75393      9320  TIP3      OH2           -38.6046212207        6.2631449031       89.4926273488  TIP3      7960            0.0000000000
     75394      9320  TIP3      H1            -37.9839224405        6.9809261156       89.3405964529  TIP3      7960            0.0000000000
     75395      9320  TIP3      H2            -39.4591868073        6.6274214212       89.2865197015  TIP3      7960            0.0000000000
     75396      9321  TIP3      OH2           -33.0977701120        8.9624229227       93.8483176707  TIP3      7961            0.0000000000
     75397      9321  TIP3      H1            -33.2861562576        9.9045181121       93.9598400601  TIP3      7961            0.0000000000
     75398      9321  TIP3      H2            -33.7337788630        8.4983205530       94.3945689750  TIP3      7961            0.0000000000
     75399      9322  TIP3      OH2           -32.5817625203       13.1447805639      -94.4805707308  TIP3      7962            0.0000000000
     75400      9322  TIP3      H1            -32.1625529158       13.9902561043      -94.7303366684  TIP3      7962            0.0000000000
     75401      9322  TIP3      H2            -32.0308275500       12.8412049815      -93.7500386898  TIP3      7962            0.0000000000
     75402      9323  TIP3      OH2           -29.0816024508        9.1890945975      -94.7991454337  TIP3      7963            0.0000000000
     75403      9323  TIP3      H1            -29.4097012368        8.9735191629      -93.9034598657  TIP3      7963            0.0000000000
     75404      9323  TIP3      H2            -28.4381591432        8.4821906860      -94.9699609622  TIP3      7963            0.0000000000
     75405      9324  TIP3      OH2           -38.2224481151        1.0049945263      -92.9972058205  TIP3      7964            0.0000000000
     75406      9324  TIP3      H1            -39.1044055831        1.3897621688      -92.8530784819  TIP3      7964            0.0000000000
     75407      9324  TIP3      H2            -38.3030349615        0.1885713207      -92.4635463747  TIP3      7964            0.0000000000
     75408      9325  TIP3      OH2           -30.9048352173        3.1348375571      -92.9327223985  TIP3      7965            0.0000000000
     75409      9325  TIP3      H1            -30.8811247517        3.6706463822      -92.1219177786  TIP3      7965            0.0000000000
     75410      9325  TIP3      H2            -30.2921774587        2.4094367539      -92.7876649662  TIP3      7965            0.0000000000
     75411      9326  TIP3      OH2           -34.8996457112        0.2709784115       90.2913259028  TIP3      7966            0.0000000000
     75412      9326  TIP3      H1            -35.0356848757        1.1779641706       90.6225970041  TIP3      7966            0.0000000000
     75413      9326  TIP3      H2            -33.9863820577        0.0687877064       90.5397091388  TIP3      7966            0.0000000000
     75414      9327  TIP3      OH2           -26.1821848576        4.7915194092       96.6886747051  TIP3      7967            0.0000000000
     75415      9327  TIP3      H1            -26.9582675434        4.3129823846       96.4028262915  TIP3      7967            0.0000000000
     75416      9327  TIP3      H2            -25.6782841873        4.1276150637       97.2186621015  TIP3      7967            0.0000000000
     75417      9328  TIP3      OH2           -37.5119550288       -1.8156646847       97.0539830169  TIP3      7968            0.0000000000
     75418      9328  TIP3      H1            -37.7736118362       -1.8526609105       96.1262254101  TIP3      7968            0.0000000000
     75419      9328  TIP3      H2            -37.8928726050       -2.6088367705       97.4704529975  TIP3      7968            0.0000000000
     75420      9329  TIP3      OH2           -32.6686180217        8.5164783073      -89.8090920223  TIP3      7969            0.0000000000
     75421      9329  TIP3      H1            -33.1675989993        8.7960168941      -90.5772294051  TIP3      7969            0.0000000000
     75422      9329  TIP3      H2            -32.7744640112        7.5423232485      -89.8356239454  TIP3      7969            0.0000000000
     75423      9330  TIP3      OH2           -37.9263992751        6.1842798089      -89.8075805132  TIP3      7970            0.0000000000
     75424      9330  TIP3      H1            -37.9403999561        5.2425142971      -90.0432659524  TIP3      7970            0.0000000000
     75425      9330  TIP3      H2            -38.5542018648        6.0992971464      -89.0790044013  TIP3      7970            0.0000000000
     75426      9331  TIP3      OH2           -34.6826748200        4.7210738446      -92.3844290931  TIP3      7971            0.0000000000
     75427      9331  TIP3      H1            -35.2907874353        5.4150691505      -92.1082427298  TIP3      7971            0.0000000000
     75428      9331  TIP3      H2            -34.3188840276        5.0694303662      -93.2142780698  TIP3      7971            0.0000000000
     75429      9332  TIP3      OH2           -32.8856468378        5.0446389571       88.2560161147  TIP3      7972            0.0000000000
     75430      9332  TIP3      H1            -33.0158725639        4.9550484025       87.3022274028  TIP3      7972            0.0000000000
     75431      9332  TIP3      H2            -31.9228773381        5.2283787442       88.3344826420  TIP3      7972            0.0000000000
     75432      9333  TIP3      OH2           -34.2317385795        2.0671440447      -91.3346726958  TIP3      7973            0.0000000000
     75433      9333  TIP3      H1            -34.2006493320        1.3420944405      -91.9844859169  TIP3      7973            0.0000000000
     75434      9333  TIP3      H2            -34.3987136462        2.8610818298      -91.8856540838  TIP3      7973            0.0000000000
     75435      9334  TIP3      OH2           -33.9260436182        0.5634832358      -93.6999939247  TIP3      7974            0.0000000000
     75436      9334  TIP3      H1            -33.3862596341        0.8652231883      -94.4492307696  TIP3      7974            0.0000000000
     75437      9334  TIP3      H2            -34.7529038135        0.3158453912      -94.1821419768  TIP3      7974            0.0000000000
     75438      9335  TIP3      OH2           -32.2878817909        5.9552246807      -93.5088800159  TIP3      7975            0.0000000000
     75439      9335  TIP3      H1            -31.5915293714        5.7408177602      -94.1400365558  TIP3      7975            0.0000000000
     75440      9335  TIP3      H2            -32.6870784210        6.7624314729      -93.8854286757  TIP3      7975            0.0000000000
     75441      9336  TIP3      OH2           -27.9740397811        3.7099599739      -88.6187682008  TIP3      7976            0.0000000000
     75442      9336  TIP3      H1            -27.7298736142        2.7641798368      -88.5959496321  TIP3      7976            0.0000000000
     75443      9336  TIP3      H2            -27.0829250205        4.0980396862      -88.5204420601  TIP3      7976            0.0000000000
     75444      9337  TIP3      OH2           -26.6132680198        6.4612236935      -90.3944005077  TIP3      7977            0.0000000000
     75445      9337  TIP3      H1            -26.8889537890        7.1231057784      -91.0488862317  TIP3      7977            0.0000000000
     75446      9337  TIP3      H2            -25.6519104196        6.4275856626      -90.6177704086  TIP3      7977            0.0000000000
     75447      9338  TIP3      OH2           -35.6031094337        3.2908805250      -89.6026912670  TIP3      7978            0.0000000000
     75448      9338  TIP3      H1            -36.4608672751        2.8056510645      -89.5747928119  TIP3      7978            0.0000000000
     75449      9338  TIP3      H2            -35.0622370637        2.8016798751      -90.2060607989  TIP3      7978            0.0000000000
     75450      9339  TIP3      OH2           -31.8737096239        2.2657374725      -89.7447918974  TIP3      7979            0.0000000000
     75451      9339  TIP3      H1            -32.1976112110        1.9281617488      -88.8847815507  TIP3      7979            0.0000000000
     75452      9339  TIP3      H2            -32.6602255313        2.0177804029      -90.2806998340  TIP3      7979            0.0000000000
     75453      9340  TIP3      OH2           -37.8003735124        1.2834585724      -89.7738953649  TIP3      7980            0.0000000000
     75454      9340  TIP3      H1            -37.4875285554        0.5408939172      -90.3231183056  TIP3      7980            0.0000000000
     75455      9340  TIP3      H2            -37.6866099887        0.8787574221      -88.8902727990  TIP3      7980            0.0000000000
     75456      9341  TIP3      OH2            40.7407022525       15.7818570305       93.6514793714  TIP3      7981            0.0000000000
     75457      9341  TIP3      H1             39.9491915007       15.3118449595       93.3653923867  TIP3      7981            0.0000000000
     75458      9341  TIP3      H2             40.9759600290       15.2279311278       94.4143587962  TIP3      7981            0.0000000000
     75459      9342  TIP3      OH2           -24.2431146631        9.9623622788      -88.5479857417  TIP3      7982            0.0000000000
     75460      9342  TIP3      H1            -25.1700752979        9.9111282844      -88.2699316266  TIP3      7982            0.0000000000
     75461      9342  TIP3      H2            -23.9432921634       10.7910465335      -88.1686636996  TIP3      7982            0.0000000000
     75462      9343  TIP3      OH2           -22.6500110866        6.3577269186       93.4911209457  TIP3      7983            0.0000000000
     75463      9343  TIP3      H1            -23.4490763297        5.9400135757       93.8846192440  TIP3      7983            0.0000000000
     75464      9343  TIP3      H2            -22.0956974714        6.5823812035       94.2563036697  TIP3      7983            0.0000000000
     75465      9344  TIP3      OH2           -22.9169204129        9.1332024505      -96.2214431516  TIP3      7984            0.0000000000
     75466      9344  TIP3      H1            -22.1023465899        8.7569686952      -96.5755308453  TIP3      7984            0.0000000000
     75467      9344  TIP3      H2            -22.8148084330       10.0801228147      -96.4368177452  TIP3      7984            0.0000000000
     75468      9345  TIP3      OH2           -24.8495502955        4.8782998277       94.0971008986  TIP3      7985            0.0000000000
     75469      9345  TIP3      H1            -25.0206984677        3.9189070634       94.0429536068  TIP3      7985            0.0000000000
     75470      9345  TIP3      H2            -25.1981753178        5.1225742702       94.9713308770  TIP3      7985            0.0000000000
     75471      9346  TIP3      OH2           -24.0415943633        6.8709329375      -90.9135405106  TIP3      7986            0.0000000000
     75472      9346  TIP3      H1            -23.4004920976        6.1257461613      -90.8385098211  TIP3      7986            0.0000000000
     75473      9346  TIP3      H2            -23.4265327662        7.6062383207      -91.0221420253  TIP3      7986            0.0000000000
     75474      9347  TIP3      OH2           -22.5174841733        4.7640143870      -90.2854559371  TIP3      7987            0.0000000000
     75475      9347  TIP3      H1            -23.3592509204        4.3253670454      -90.4864000601  TIP3      7987            0.0000000000
     75476      9347  TIP3      H2            -21.8945543429        4.0213901130      -90.4191570315  TIP3      7987            0.0000000000
     75477      9348  TIP3      OH2           -25.1423609585        2.4758478494       92.5806016214  TIP3      7988            0.0000000000
     75478      9348  TIP3      H1            -24.8955585383        1.5381043068       92.6410850084  TIP3      7988            0.0000000000
     75479      9348  TIP3      H2            -24.4138327574        2.8850944970       92.1124770494  TIP3      7988            0.0000000000
     75480      9349  TIP3      OH2           -24.5632588727        3.0231705662      -96.7607196998  TIP3      7989            0.0000000000
     75481      9349  TIP3      H1            -23.6089607514        3.2572883473      -96.7805672909  TIP3      7989            0.0000000000
     75482      9349  TIP3      H2            -24.7511854361        3.1362072784      -95.8295319719  TIP3      7989            0.0000000000
     75483      9350  TIP3      OH2           -39.9894398418        1.6853538938      -91.0062456126  TIP3      7990            0.0000000000
     75484      9350  TIP3      H1            -39.2836528422        2.0755945632      -90.4433555529  TIP3      7990            0.0000000000
     75485      9350  TIP3      H2            -40.6008825133        1.5328647094      -90.2649390276  TIP3      7990            0.0000000000
     75486      9351  TIP3      OH2           -22.2155089980       -2.2446710235      -88.6169452069  TIP3      7991            0.0000000000
     75487      9351  TIP3      H1            -21.8503005842       -2.8472906091      -89.2692019286  TIP3      7991            0.0000000000
     75488      9351  TIP3      H2            -22.1099291420       -1.3893045461      -89.0728263589  TIP3      7991            0.0000000000
     75489      9352  TIP3      OH2           -24.4672124032       -0.2840791162       92.5347621647  TIP3      7992            0.0000000000
     75490      9352  TIP3      H1            -24.4177592477       -0.6448083470       93.4449881312  TIP3      7992            0.0000000000
     75491      9352  TIP3      H2            -25.1693038174       -0.8170597447       92.1330716433  TIP3      7992            0.0000000000
     75492      9353  TIP3      OH2           -38.7038050247       -0.0084018346       98.4066234621  TIP3      7993            0.0000000000
     75493      9353  TIP3      H1            -38.4134530726       -0.4850748450       97.5930799552  TIP3      7993            0.0000000000
     75494      9353  TIP3      H2            -38.6672663752        0.8684230376       97.9867954069  TIP3      7993            0.0000000000
     75495      9354  TIP3      OH2           -40.7579072697        3.9019321103      -97.1750442182  TIP3      7994            0.0000000000
     75496      9354  TIP3      H1            -40.0918158527        3.2688339150      -97.4733705008  TIP3      7994            0.0000000000
     75497      9354  TIP3      H2            -40.2174345204        4.2649029387      -96.4656240999  TIP3      7994            0.0000000000
     75498      9355  TIP3      OH2           -22.7324202464       -0.1256269737      -90.2680059064  TIP3      7995            0.0000000000
     75499      9355  TIP3      H1            -23.6554757282        0.1455184176      -90.3107023549  TIP3      7995            0.0000000000
     75500      9355  TIP3      H2            -22.5897196215       -0.6130640868      -91.0805620945  TIP3      7995            0.0000000000
     75501      9356  TIP3      OH2           -22.6691384221       -0.1857845174       89.1625391299  TIP3      7996            0.0000000000
     75502      9356  TIP3      H1            -22.2825545287       -0.9072728576       88.6436615155  TIP3      7996            0.0000000000
     75503      9356  TIP3      H2            -21.9545430665        0.4692334631       89.1498143905  TIP3      7996            0.0000000000
     75504      9357  TIP3      OH2           -40.0183633273        0.8786325856       92.5564339010  TIP3      7997            0.0000000000
     75505      9357  TIP3      H1            -40.9477857499        0.4600052615       92.4573065867  TIP3      7997            0.0000000000
     75506      9357  TIP3      H2            -39.8374412935        0.6063423340       91.6371086563  TIP3      7997            0.0000000000
     75507      9358  TIP3      OH2            41.6389982350       -1.6584683085      -93.0354727672  TIP3      7998            0.0000000000
     75508      9358  TIP3      H1             40.6851888684       -1.8797067131      -93.1587023143  TIP3      7998            0.0000000000
     75509      9358  TIP3      H2             41.5512036060       -1.2488065052      -93.9295876235  TIP3      7998            0.0000000000
     75510      9359  TIP3      OH2           -30.9905758077       15.3509665452      -95.4300173304  TIP3      7999            0.0000000000
     75511      9359  TIP3      H1            -31.2438386836       15.9550314252      -96.1566649080  TIP3      7999            0.0000000000
     75512      9359  TIP3      H2            -30.6046728964       15.9903852363      -94.7953463434  TIP3      7999            0.0000000000
     75513      9360  TIP3      OH2           -38.4542922911       14.5099754686      -96.8478326633  TIP3      8000            0.0000000000
     75514      9360  TIP3      H1            -38.4443409584       14.1294191357      -95.9621296837  TIP3      8000            0.0000000000
     75515      9360  TIP3      H2            -37.5902428035       14.2489979521      -97.1923190921  TIP3      8000            0.0000000000
     75516      9361  TIP3      OH2           -23.7890523224       -1.2217442857       94.9717243179  TIP3      8001            0.0000000000
     75517      9361  TIP3      H1            -23.3224394252       -1.8876534484       94.4495589817  TIP3      8001            0.0000000000
     75518      9361  TIP3      H2            -23.2874037516       -0.3794689451       95.0119961263  TIP3      8001            0.0000000000
     75519      9362  TIP3      OH2           -37.8203387385       -1.9623244475       94.4689889635  TIP3      8002            0.0000000000
     75520      9362  TIP3      H1            -38.6930810259       -2.1913670015       94.1066991978  TIP3      8002            0.0000000000
     75521      9362  TIP3      H2            -37.3439069691       -2.8238755156       94.4177038718  TIP3      8002            0.0000000000
     75522      9363  TIP3      OH2           -38.4532465567       -3.4210842051       91.0820342769  TIP3      8003            0.0000000000
     75523      9363  TIP3      H1            -38.1691012997       -2.8640714335       90.3343363147  TIP3      8003            0.0000000000
     75524      9363  TIP3      H2            -39.2286861051       -2.7825701916       91.0942621995  TIP3      8003            0.0000000000
     75525      9364  TIP3      OH2           -33.4075262155       -2.0444323231       94.2475480836  TIP3      8004            0.0000000000
     75526      9364  TIP3      H1            -32.5476105701       -1.6201583629       94.1697544564  TIP3      8004            0.0000000000
     75527      9364  TIP3      H2            -33.5096708290       -2.2642369113       95.1733620039  TIP3      8004            0.0000000000
     75528      9365  TIP3      OH2           -39.2002215331       13.7902230413       91.1204053007  TIP3      8005            0.0000000000
     75529      9365  TIP3      H1            -39.8627941746       13.7173976189       90.4304844037  TIP3      8005            0.0000000000
     75530      9365  TIP3      H2            -39.1778168481       14.7192292109       91.3363662109  TIP3      8005            0.0000000000
     75531      9366  TIP3      OH2           -36.9607431427        0.3518987523       88.2302120195  TIP3      8006            0.0000000000
     75532      9366  TIP3      H1            -36.8949829215       -0.5998854201       88.0259379287  TIP3      8006            0.0000000000
     75533      9366  TIP3      H2            -36.7462836792        0.2393815956       89.1703999159  TIP3      8006            0.0000000000
     75534      9367  TIP3      OH2           -32.2482763939        0.0477785827       91.1326356196  TIP3      8007            0.0000000000
     75535      9367  TIP3      H1            -32.0194025079       -0.5955824111       91.8113908071  TIP3      8007            0.0000000000
     75536      9367  TIP3      H2            -32.2623333825        0.9042572581       91.5731424589  TIP3      8007            0.0000000000
     75537      9368  TIP3      OH2           -38.0201853071       -1.3933363034      -90.7605993023  TIP3      8008            0.0000000000
     75538      9368  TIP3      H1            -38.3902610081       -2.2260760525      -90.4273289666  TIP3      8008            0.0000000000
     75539      9368  TIP3      H2            -37.0988558868       -1.4563067649      -90.4547600980  TIP3      8008            0.0000000000
     75540      9369  TIP3      OH2           -35.9863685087       -2.0258900697      -89.1815802827  TIP3      8009            0.0000000000
     75541      9369  TIP3      H1            -35.1315173609       -2.3770546420      -89.4667120342  TIP3      8009            0.0000000000
     75542      9369  TIP3      H2            -36.4099403232       -2.8264716663      -88.8217286540  TIP3      8009            0.0000000000
     75543      9370  TIP3      OH2            -7.0936755290        9.3293188065       96.0945080039  TIP3      8010            0.0000000000
     75544      9370  TIP3      H1             -7.8297963028        8.7969538127       96.4537970066  TIP3      8010            0.0000000000
     75545      9370  TIP3      H2             -7.3720207431       10.0769628395       96.6472369487  TIP3      8010            0.0000000000
     75546      9371  TIP3      OH2           -17.7891067137       10.5624474797      -96.8180857889  TIP3      8011            0.0000000000
     75547      9371  TIP3      H1            -18.1348551093        9.7266487907      -97.1725060955  TIP3      8011            0.0000000000
     75548      9371  TIP3      H2            -16.8316493902       10.3901939104      -96.7888667423  TIP3      8011            0.0000000000
     75549      9372  TIP3      OH2           -21.2216823279        4.1290350070       93.3346958575  TIP3      8012            0.0000000000
     75550      9372  TIP3      H1            -21.6700162252        5.0049040115       93.2840952793  TIP3      8012            0.0000000000
     75551      9372  TIP3      H2            -21.7807061004        3.5909516333       92.7636905746  TIP3      8012            0.0000000000
     75552      9373  TIP3      OH2           -20.4552166389        6.3571605243       95.5062264015  TIP3      8013            0.0000000000
     75553      9373  TIP3      H1            -20.2264277153        5.5155086441       95.8988858146  TIP3      8013            0.0000000000
     75554      9373  TIP3      H2            -19.7733215767        6.4511667201       94.8167285083  TIP3      8013            0.0000000000
     75555      9374  TIP3      OH2           -12.7180511264        8.8608633111      -96.4322651289  TIP3      8014            0.0000000000
     75556      9374  TIP3      H1            -12.3967339343        8.2676851634      -97.1399078210  TIP3      8014            0.0000000000
     75557      9374  TIP3      H2            -11.8868313715        9.0388445069      -95.9699165357  TIP3      8014            0.0000000000
     75558      9375  TIP3      OH2            -9.5308355052        3.3092874912      -96.2223994205  TIP3      8015            0.0000000000
     75559      9375  TIP3      H1             -9.4090742447        2.3474576363      -96.1260842271  TIP3      8015            0.0000000000
     75560      9375  TIP3      H2             -9.6795671271        3.4426111569      -97.1500700130  TIP3      8015            0.0000000000
     75561      9376  TIP3      OH2            -8.7256144372        1.5429524295       94.2052805141  TIP3      8016            0.0000000000
     75562      9376  TIP3      H1             -8.0467197111        1.1728676483       94.8118480126  TIP3      8016            0.0000000000
     75563      9376  TIP3      H2             -8.1391892197        2.0125300428       93.5854501666  TIP3      8016            0.0000000000
     75564      9377  TIP3      OH2           -17.6229614426        0.2487197318      -94.9123102899  TIP3      8017            0.0000000000
     75565      9377  TIP3      H1            -17.8046634682        0.8671432074      -95.6172682200  TIP3      8017            0.0000000000
     75566      9377  TIP3      H2            -18.2182468782        0.5454760865      -94.1917849704  TIP3      8017            0.0000000000
     75567      9378  TIP3      OH2            -6.9112951370        0.8164196901       96.1507192404  TIP3      8018            0.0000000000
     75568      9378  TIP3      H1             -7.1290120142        0.0471864855       96.6849103006  TIP3      8018            0.0000000000
     75569      9378  TIP3      H2             -6.2448292925        1.2561618584       96.6901426062  TIP3      8018            0.0000000000
     75570      9379  TIP3      OH2           -20.4923825769        9.5872571297       91.6732567737  TIP3      8019            0.0000000000
     75571      9379  TIP3      H1            -20.7676976348        9.8742469170       90.7897981378  TIP3      8019            0.0000000000
     75572      9379  TIP3      H2            -20.4686351492       10.4099435685       92.1768503604  TIP3      8019            0.0000000000
     75573      9380  TIP3      OH2            -6.8364636242       11.2509494505      -96.1870657618  TIP3      8020            0.0000000000
     75574      9380  TIP3      H1             -7.8239353834       11.2921323193      -96.2071242610  TIP3      8020            0.0000000000
     75575      9380  TIP3      H2             -6.6328885901       12.1528567439      -96.4759099396  TIP3      8020            0.0000000000
     75576      9381  TIP3      OH2            -6.5428766155       -0.4934537431      -94.9084320813  TIP3      8021            0.0000000000
     75577      9381  TIP3      H1             -7.2935045111        0.1196927118      -94.9230067637  TIP3      8021            0.0000000000
     75578      9381  TIP3      H2             -5.8834703963       -0.0249765623      -95.4222498084  TIP3      8021            0.0000000000
     75579      9382  TIP3      OH2            -8.6377405188       13.0609568811       95.0922973867  TIP3      8022            0.0000000000
     75580      9382  TIP3      H1             -8.2505120441       12.3084403204       94.6244317699  TIP3      8022            0.0000000000
     75581      9382  TIP3      H2             -8.2054471989       13.8139197758       94.6664237217  TIP3      8022            0.0000000000
     75582      9383  TIP3      OH2            -5.7645312729        9.5038558884      -92.6774035232  TIP3      8023            0.0000000000
     75583      9383  TIP3      H1             -5.7055299369        8.8722668411      -93.4235246739  TIP3      8023            0.0000000000
     75584      9383  TIP3      H2             -5.6303123061       10.3612937362      -93.1130598989  TIP3      8023            0.0000000000
     75585      9384  TIP3      OH2            -3.9171717295        5.8730841783      -94.5714101193  TIP3      8024            0.0000000000
     75586      9384  TIP3      H1             -4.5889334832        6.5763034227      -94.5601351979  TIP3      8024            0.0000000000
     75587      9384  TIP3      H2             -3.4647612124        6.0095800664      -95.4081529684  TIP3      8024            0.0000000000
     75588      9385  TIP3      OH2            -7.9781344731        4.8119030299      -92.9086393982  TIP3      8025            0.0000000000
     75589      9385  TIP3      H1             -7.9340809209        5.5564692732      -92.2781695745  TIP3      8025            0.0000000000
     75590      9385  TIP3      H2             -8.5905615632        5.1417058496      -93.5725825524  TIP3      8025            0.0000000000
     75591      9386  TIP3      OH2           -16.2962089700        7.2824657944       94.6801570782  TIP3      8026            0.0000000000
     75592      9386  TIP3      H1            -16.5466108231        6.9421261103       93.7906242051  TIP3      8026            0.0000000000
     75593      9386  TIP3      H2            -15.6221386123        6.6567592901       94.9703458589  TIP3      8026            0.0000000000
     75594      9387  TIP3      OH2           -14.9518356293       10.7113617864       97.3732045478  TIP3      8027            0.0000000000
     75595      9387  TIP3      H1            -14.9536650430       10.1713393375       96.5658986608  TIP3      8027            0.0000000000
     75596      9387  TIP3      H2            -14.1521496038       10.3321773261       97.7937394745  TIP3      8027            0.0000000000
     75597      9388  TIP3      OH2            -9.4079558825       11.6777734093      -95.6767694318  TIP3      8028            0.0000000000
     75598      9388  TIP3      H1             -9.8644156896       12.2389262164      -95.0680540972  TIP3      8028            0.0000000000
     75599      9388  TIP3      H2             -9.7242838127       10.7805964649      -95.3975612935  TIP3      8028            0.0000000000
     75600      9389  TIP3      OH2            -8.9937506415        5.8212183350       90.4560843271  TIP3      8029            0.0000000000
     75601      9389  TIP3      H1             -8.4233098664        5.9547617441       91.2082128343  TIP3      8029            0.0000000000
     75602      9389  TIP3      H2             -8.6213880247        6.3182630360       89.7360959559  TIP3      8029            0.0000000000
     75603      9390  TIP3      OH2           -11.2807951809       12.5798354477       93.8602721028  TIP3      8030            0.0000000000
     75604      9390  TIP3      H1            -10.8227511539       12.7991559904       94.6805105842  TIP3      8030            0.0000000000
     75605      9390  TIP3      H2            -11.8459375178       13.3239976018       93.6633662786  TIP3      8030            0.0000000000
     75606      9391  TIP3      OH2           -17.2745370503        6.3732345903       92.2403148236  TIP3      8031            0.0000000000
     75607      9391  TIP3      H1            -17.6026692816        7.1176069878       91.7184746626  TIP3      8031            0.0000000000
     75608      9391  TIP3      H2            -17.8933247296        5.6635107232       92.0298412845  TIP3      8031            0.0000000000
     75609      9392  TIP3      OH2            -4.1658528779       11.9695809976       88.7246516189  TIP3      8032            0.0000000000
     75610      9392  TIP3      H1             -3.9889117131       12.9239302769       88.7822186693  TIP3      8032            0.0000000000
     75611      9392  TIP3      H2             -3.2562647059       11.6202298313       88.6064924216  TIP3      8032            0.0000000000
     75612      9393  TIP3      OH2           -21.2227162770        8.7308425006      -93.6236031268  TIP3      8033            0.0000000000
     75613      9393  TIP3      H1            -21.6874847266        8.6555522257      -94.4611776673  TIP3      8033            0.0000000000
     75614      9393  TIP3      H2            -21.1333738609        7.8134856277      -93.3622002455  TIP3      8033            0.0000000000
     75615      9394  TIP3      OH2           -21.4123848121       11.4877956384      -96.7685957468  TIP3      8034            0.0000000000
     75616      9394  TIP3      H1            -20.4549059235       11.3692846094      -96.7961209397  TIP3      8034            0.0000000000
     75617      9394  TIP3      H2            -21.5494440951       12.3035732369      -96.2875531656  TIP3      8034            0.0000000000
     75618      9395  TIP3      OH2            -3.2066927190       12.2013964471      -91.1271223030  TIP3      8035            0.0000000000
     75619      9395  TIP3      H1             -3.2598575073       11.2380905325      -91.1012492844  TIP3      8035            0.0000000000
     75620      9395  TIP3      H2             -4.0596027821       12.4383843255      -90.6994739190  TIP3      8035            0.0000000000
     75621      9396  TIP3      OH2            -8.6594966222       14.6594370538       89.3007106523  TIP3      8036            0.0000000000
     75622      9396  TIP3      H1             -8.3051079899       13.9000100813       88.8017052342  TIP3      8036            0.0000000000
     75623      9396  TIP3      H2             -8.7268060087       14.3389606348       90.1925138501  TIP3      8036            0.0000000000
     75624      9397  TIP3      OH2            -6.0748375751        3.6801178610      -90.6311573056  TIP3      8037            0.0000000000
     75625      9397  TIP3      H1             -6.4791788893        4.1179440487      -91.3861895880  TIP3      8037            0.0000000000
     75626      9397  TIP3      H2             -6.0093811426        2.7625346571      -90.9168032637  TIP3      8037            0.0000000000
     75627      9398  TIP3      OH2           -16.2494025218       -1.4355549559      -96.7148518146  TIP3      8038            0.0000000000
     75628      9398  TIP3      H1            -17.1633273232       -1.5923380905      -97.0118965992  TIP3      8038            0.0000000000
     75629      9398  TIP3      H2            -16.3765843759       -0.6667727323      -96.1371120024  TIP3      8038            0.0000000000
     75630      9399  TIP3      OH2           -11.6072163770       -1.7037297752      -93.2596754063  TIP3      8039            0.0000000000
     75631      9399  TIP3      H1            -11.2029818168       -2.2344782353      -92.5474368282  TIP3      8039            0.0000000000
     75632      9399  TIP3      H2            -12.5625143952       -1.9532864338      -93.1854612363  TIP3      8039            0.0000000000
     75633      9400  TIP3      OH2            -8.3388739847        2.0120311513      -92.4419237228  TIP3      8040            0.0000000000
     75634      9400  TIP3      H1             -8.8657734696        1.8714451229      -91.6223215509  TIP3      8040            0.0000000000
     75635      9400  TIP3      H2             -8.4601907468        2.9566050937      -92.6299521373  TIP3      8040            0.0000000000
     75636      9401  TIP3      OH2           -11.9830522242        0.6067288776       88.6367952327  TIP3      8041            0.0000000000
     75637      9401  TIP3      H1            -12.2122078046        0.6903109489       89.5782628347  TIP3      8041            0.0000000000
     75638      9401  TIP3      H2            -12.2488490097       -0.2862670534       88.4476297583  TIP3      8041            0.0000000000
     75639      9402  TIP3      OH2           -21.8705193916        0.7040832803       94.9875726790  TIP3      8042            0.0000000000
     75640      9402  TIP3      H1            -21.1745527996        0.9229325002       95.6464107100  TIP3      8042            0.0000000000
     75641      9402  TIP3      H2            -21.3863705099        0.6685993835       94.1385867681  TIP3      8042            0.0000000000
     75642      9403  TIP3      OH2           -20.5678602421        1.6325593437       90.3875124200  TIP3      8043            0.0000000000
     75643      9403  TIP3      H1            -20.0957192645        2.1780512252       89.7399720173  TIP3      8043            0.0000000000
     75644      9403  TIP3      H2            -21.2721508258        2.2564017613       90.6548961455  TIP3      8043            0.0000000000
     75645      9404  TIP3      OH2            -9.2135459541        0.3926479311      -96.3292025200  TIP3      8044            0.0000000000
     75646      9404  TIP3      H1             -9.8653301675        0.4652768281      -95.5869466665  TIP3      8044            0.0000000000
     75647      9404  TIP3      H2             -9.7294272424        0.1640284350      -97.1026287512  TIP3      8044            0.0000000000
     75648      9405  TIP3      OH2            -5.9153725282       16.0438516903      -89.9615348887  TIP3      8045            0.0000000000
     75649      9405  TIP3      H1             -5.6995152317       16.4491496760      -90.8185520563  TIP3      8045            0.0000000000
     75650      9405  TIP3      H2             -5.2484174564       16.4085925245      -89.3860065468  TIP3      8045            0.0000000000
     75651      9406  TIP3      OH2           -18.3263839778        8.5344538973      -90.3450075844  TIP3      8046            0.0000000000
     75652      9406  TIP3      H1            -17.6235410584        8.8016470007      -89.7624016907  TIP3      8046            0.0000000000
     75653      9406  TIP3      H2            -19.1426792842        8.6856988289      -89.8435814606  TIP3      8046            0.0000000000
     75654      9407  TIP3      OH2           -17.2646222754        0.0601808858       93.5415454007  TIP3      8047            0.0000000000
     75655      9407  TIP3      H1            -17.6241027136       -0.8345145313       93.4682506626  TIP3      8047            0.0000000000
     75656      9407  TIP3      H2            -16.5389927820        0.0424034190       92.9177895702  TIP3      8047            0.0000000000
     75657      9408  TIP3      OH2            -5.9238875760        7.6956136792      -94.7423150442  TIP3      8048            0.0000000000
     75658      9408  TIP3      H1             -5.3455656527        8.1629789387      -95.3750902181  TIP3      8048            0.0000000000
     75659      9408  TIP3      H2             -6.7755989414        7.7565455192      -95.2312271416  TIP3      8048            0.0000000000
     75660      9409  TIP3      OH2           -18.0197993988        7.8139979359       96.9684037240  TIP3      8049            0.0000000000
     75661      9409  TIP3      H1            -17.2840026217        7.8212756616       96.3223520020  TIP3      8049            0.0000000000
     75662      9409  TIP3      H2            -17.8856321533        6.9821844262       97.4242269677  TIP3      8049            0.0000000000
     75663      9410  TIP3      OH2            -3.6316629729        3.3690074571       90.7836025985  TIP3      8050            0.0000000000
     75664      9410  TIP3      H1             -4.1831652015        3.0324711899       90.0602215040  TIP3      8050            0.0000000000
     75665      9410  TIP3      H2             -3.5357031250        4.2813329852       90.4997592879  TIP3      8050            0.0000000000
     75666      9411  TIP3      OH2            -3.6705606547        9.1496038603      -91.1495512466  TIP3      8051            0.0000000000
     75667      9411  TIP3      H1             -4.5426983598        9.4171441972      -91.5381317170  TIP3      8051            0.0000000000
     75668      9411  TIP3      H2             -3.0919249300        9.2146271628      -91.9123043493  TIP3      8051            0.0000000000
     75669      9412  TIP3      OH2            -5.3767258641       12.2308261326       91.1474680608  TIP3      8052            0.0000000000
     75670      9412  TIP3      H1             -5.7029280347       11.3924568070       91.4890905603  TIP3      8052            0.0000000000
     75671      9412  TIP3      H2             -5.0383727325       11.9909684192       90.2586666186  TIP3      8052            0.0000000000
     75672      9413  TIP3      OH2            -8.1040329047        6.7962832490      -96.2661790210  TIP3      8053            0.0000000000
     75673      9413  TIP3      H1             -9.0196942642        6.8920923307      -96.6011059193  TIP3      8053            0.0000000000
     75674      9413  TIP3      H2             -7.7117013332        6.2018668599      -96.9206695994  TIP3      8053            0.0000000000
     75675      9414  TIP3      OH2           -15.6190033124       11.3270178450       94.3728374550  TIP3      8054            0.0000000000
     75676      9414  TIP3      H1            -15.1178803406       12.1261270618       94.1582919694  TIP3      8054            0.0000000000
     75677      9414  TIP3      H2            -16.4998876087       11.5483968275       94.0646797509  TIP3      8054            0.0000000000
     75678      9415  TIP3      OH2           -19.9077618781        6.2040797173       88.8986587435  TIP3      8055            0.0000000000
     75679      9415  TIP3      H1            -19.2589388397        6.7912760323       89.3192217745  TIP3      8055            0.0000000000
     75680      9415  TIP3      H2            -20.7386306670        6.5318160600       89.2265598480  TIP3      8055            0.0000000000
     75681      9416  TIP3      OH2           -15.5015854847       13.9722269703       93.4644808491  TIP3      8056            0.0000000000
     75682      9416  TIP3      H1            -16.4435833885       14.1385068149       93.6142964598  TIP3      8056            0.0000000000
     75683      9416  TIP3      H2            -15.1533004094       14.7904266195       93.8550758707  TIP3      8056            0.0000000000
     75684      9417  TIP3      OH2           -10.1812794558        9.2913646953      -94.4536318771  TIP3      8057            0.0000000000
     75685      9417  TIP3      H1            -10.6593853014        8.8307471401      -93.7713364627  TIP3      8057            0.0000000000
     75686      9417  TIP3      H2             -9.6689123205        8.6164489089      -94.9575228926  TIP3      8057            0.0000000000
     75687      9418  TIP3      OH2            -7.3865973520       13.7512550609      -92.3245725244  TIP3      8058            0.0000000000
     75688      9418  TIP3      H1             -8.0931967039       13.2818118263      -92.7856826903  TIP3      8058            0.0000000000
     75689      9418  TIP3      H2             -7.2157111646       14.4850247896      -92.9524202278  TIP3      8058            0.0000000000
     75690      9419  TIP3      OH2            -3.4411426845       14.6481234493       89.2626936383  TIP3      8059            0.0000000000
     75691      9419  TIP3      H1             -2.7160850928       15.2451722435       89.0071444842  TIP3      8059            0.0000000000
     75692      9419  TIP3      H2             -4.1435929303       15.2533884633       89.5519570394  TIP3      8059            0.0000000000
     75693      9420  TIP3      OH2           -19.3796150748        1.0132419623      -92.9518622237  TIP3      8060            0.0000000000
     75694      9420  TIP3      H1            -20.2636471429        1.3975989328      -92.9237651206  TIP3      8060            0.0000000000
     75695      9420  TIP3      H2            -19.4845249888        0.1852158854      -92.4608744439  TIP3      8060            0.0000000000
     75696      9421  TIP3      OH2            -7.0489436365        8.8495933801       91.1760869571  TIP3      8061            0.0000000000
     75697      9421  TIP3      H1             -7.3321141004        8.1362033396       91.7658294038  TIP3      8061            0.0000000000
     75698      9421  TIP3      H2             -6.1460397090        8.9841523724       91.4538435178  TIP3      8061            0.0000000000
     75699      9422  TIP3      OH2           -18.4809484091        8.1327763919       90.3983168456  TIP3      8062            0.0000000000
     75700      9422  TIP3      H1            -19.1468575051        8.5161691603       91.0059185029  TIP3      8062            0.0000000000
     75701      9422  TIP3      H2            -17.9580418389        8.9158347365       90.1574261500  TIP3      8062            0.0000000000
     75702      9423  TIP3      OH2           -10.5700741430        0.7153136594      -94.0202461617  TIP3      8063            0.0000000000
     75703      9423  TIP3      H1             -9.9251749676        0.8460612090      -93.3082780181  TIP3      8063            0.0000000000
     75704      9423  TIP3      H2            -11.0001062209       -0.1278618399      -93.7778199007  TIP3      8063            0.0000000000
     75705      9424  TIP3      OH2           -11.7996729538       -0.7483712176       93.5198784769  TIP3      8064            0.0000000000
     75706      9424  TIP3      H1            -12.1039066879       -0.1819149699       94.2328242608  TIP3      8064            0.0000000000
     75707      9424  TIP3      H2            -11.0636265217       -0.2556476200       93.1315612216  TIP3      8064            0.0000000000
     75708      9425  TIP3      OH2           -14.7821580190       13.5436491767       90.6620053348  TIP3      8065            0.0000000000
     75709      9425  TIP3      H1            -14.6157953831       14.3464506120       90.1763982694  TIP3      8065            0.0000000000
     75710      9425  TIP3      H2            -14.9835771425       13.8510671432       91.5639115529  TIP3      8065            0.0000000000
     75711      9426  TIP3      OH2           -16.1131986410        0.2960514549       90.2669188825  TIP3      8066            0.0000000000
     75712      9426  TIP3      H1            -16.2067611152        1.1876921458       90.6235257976  TIP3      8066            0.0000000000
     75713      9426  TIP3      H2            -15.1993358471        0.0437013860       90.4908568055  TIP3      8066            0.0000000000
     75714      9427  TIP3      OH2            -5.8983908444        0.9643127170      -92.0622898113  TIP3      8067            0.0000000000
     75715      9427  TIP3      H1             -6.8105672644        1.3230290648      -92.1663716494  TIP3      8067            0.0000000000
     75716      9427  TIP3      H2             -5.5853428961        1.0701932024      -92.9618773167  TIP3      8067            0.0000000000
     75717      9428  TIP3      OH2            -7.3035710433        4.7590227618       96.7216025369  TIP3      8068            0.0000000000
     75718      9428  TIP3      H1             -8.1089722107        4.3440448053       96.4149018569  TIP3      8068            0.0000000000
     75719      9428  TIP3      H2             -6.8476112888        4.1081534081       97.2680400035  TIP3      8068            0.0000000000
     75720      9429  TIP3      OH2           -17.8629385634       10.6530093614       89.3474829790  TIP3      8069            0.0000000000
     75721      9429  TIP3      H1            -17.2939114865       11.3977332194       89.5838070567  TIP3      8069            0.0000000000
     75722      9429  TIP3      H2            -17.4161813994       10.3104875442       88.5645228595  TIP3      8069            0.0000000000
     75723      9430  TIP3      OH2            -6.2591205925       14.0796799219      -96.3266773337  TIP3      8070            0.0000000000
     75724      9430  TIP3      H1             -6.3436923965       14.7397784605      -97.0379720950  TIP3      8070            0.0000000000
     75725      9430  TIP3      H2             -5.2886080280       14.1055227463      -96.1753668882  TIP3      8070            0.0000000000
     75726      9431  TIP3      OH2           -18.8321895334       -1.8002420468       97.1781919909  TIP3      8071            0.0000000000
     75727      9431  TIP3      H1            -18.8715905845       -1.8282094733       96.1985044054  TIP3      8071            0.0000000000
     75728      9431  TIP3      H2            -19.1376565982       -2.6936149605       97.4455113407  TIP3      8071            0.0000000000
     75729      9432  TIP3      OH2           -20.5791924033       14.7380546473      -90.0876996091  TIP3      8072            0.0000000000
     75730      9432  TIP3      H1            -19.9527418014       14.5238889139      -89.3717538998  TIP3      8072            0.0000000000
     75731      9432  TIP3      H2            -20.9662704057       13.8825167805      -90.2792077830  TIP3      8072            0.0000000000
     75732      9433  TIP3      OH2           -15.9465976769       13.6225841959      -88.4604051108  TIP3      8073            0.0000000000
     75733      9433  TIP3      H1            -15.1290038337       13.1738404672      -88.2064930632  TIP3      8073            0.0000000000
     75734      9433  TIP3      H2            -15.9606978520       13.4245291677      -89.4134910336  TIP3      8073            0.0000000000
     75735      9434  TIP3      OH2            -9.3835554182       12.0371674101      -89.7531089489  TIP3      8074            0.0000000000
     75736      9434  TIP3      H1             -9.6719531864       11.1635703518      -89.5176937770  TIP3      8074            0.0000000000
     75737      9434  TIP3      H2             -8.6132607944       12.2316218613      -89.1842174317  TIP3      8074            0.0000000000
     75738      9435  TIP3      OH2            -7.2013319082       12.9358938206       87.8160088872  TIP3      8075            0.0000000000
     75739      9435  TIP3      H1             -6.8803696335       12.1528637295       88.2731530418  TIP3      8075            0.0000000000
     75740      9435  TIP3      H2             -6.4517881269       13.1844673408       87.2539403218  TIP3      8075            0.0000000000
     75741      9436  TIP3      OH2           -20.7208821584        8.4544464803      -89.0695518741  TIP3      8076            0.0000000000
     75742      9436  TIP3      H1            -20.4418430060        7.6049267781      -89.4731865493  TIP3      8076            0.0000000000
     75743      9436  TIP3      H2            -21.3434620409        8.8151995571      -89.7014490473  TIP3      8076            0.0000000000
     75744      9437  TIP3      OH2           -19.6999431107        5.7645260096      -89.7152902049  TIP3      8077            0.0000000000
     75745      9437  TIP3      H1            -19.3713793399        4.8746357578      -89.8700256310  TIP3      8077            0.0000000000
     75746      9437  TIP3      H2            -19.9746803056        5.7390572243      -88.7860834635  TIP3      8077            0.0000000000
     75747      9438  TIP3      OH2            -7.7002198957        6.3181749292      -90.5954958613  TIP3      8078            0.0000000000
     75748      9438  TIP3      H1             -7.9957149801        7.1522547757      -90.9708344083  TIP3      8078            0.0000000000
     75749      9438  TIP3      H2             -6.7284194557        6.4212348515      -90.6134015376  TIP3      8078            0.0000000000
     75750      9439  TIP3      OH2           -14.2688517516       -2.0844289570      -93.3430224431  TIP3      8079            0.0000000000
     75751      9439  TIP3      H1            -14.3910457520       -1.1465044742      -93.5224862667  TIP3      8079            0.0000000000
     75752      9439  TIP3      H2            -14.9937203695       -2.4751073138      -93.8692664610  TIP3      8079            0.0000000000
     75753      9440  TIP3      OH2           -10.2971408876        1.3231647768      -90.7181181254  TIP3      8080            0.0000000000
     75754      9440  TIP3      H1            -11.2338129481        1.3980447123      -90.5405672191  TIP3      8080            0.0000000000
     75755      9440  TIP3      H2             -9.9600280719        0.7562110814      -90.0090089751  TIP3      8080            0.0000000000
     75756      9441  TIP3      OH2            -8.7556682396        0.0186309450      -88.7155992873  TIP3      8081            0.0000000000
     75757      9441  TIP3      H1             -8.6922245185       -0.9420862574      -88.7142212729  TIP3      8081            0.0000000000
     75758      9441  TIP3      H2             -8.9532550128        0.2739012569      -87.8114443590  TIP3      8081            0.0000000000
     75759      9442  TIP3      OH2           -18.9130621776        1.2316977980      -89.6626050090  TIP3      8082            0.0000000000
     75760      9442  TIP3      H1            -18.6510376872        0.5091511478      -90.2503029967  TIP3      8082            0.0000000000
     75761      9442  TIP3      H2            -18.9208305306        0.8201159775      -88.7746102912  TIP3      8082            0.0000000000
     75762      9443  TIP3      OH2           -13.6484982153       -1.0657937471      -88.6884476142  TIP3      8083            0.0000000000
     75763      9443  TIP3      H1            -13.8514659292       -1.6013228771      -89.4549763814  TIP3      8083            0.0000000000
     75764      9443  TIP3      H2            -14.3008271422       -0.3558603858      -88.7057509827  TIP3      8083            0.0000000000
     75765      9444  TIP3      OH2           -20.5947510096       10.4232480850       88.7860901418  TIP3      8084            0.0000000000
     75766      9444  TIP3      H1            -19.6418763071       10.5014209026       88.9972981871  TIP3      8084            0.0000000000
     75767      9444  TIP3      H2            -20.5766722188        9.7611633019       88.0794018920  TIP3      8084            0.0000000000
     75768      9445  TIP3      OH2           -21.0858124316       13.9010078369       95.6275748891  TIP3      8085            0.0000000000
     75769      9445  TIP3      H1            -21.4108624691       13.0184950036       95.8246172733  TIP3      8085            0.0000000000
     75770      9445  TIP3      H2            -20.8076079072       14.2461818315       96.4942017864  TIP3      8085            0.0000000000
     75771      9446  TIP3      OH2            -3.5263734614       14.7148428673      -96.1485029794  TIP3      8086            0.0000000000
     75772      9446  TIP3      H1             -3.5103195227       14.8471294560      -95.1791748882  TIP3      8086            0.0000000000
     75773      9446  TIP3      H2             -2.8170698876       15.2789858989      -96.4449296886  TIP3      8086            0.0000000000
     75774      9447  TIP3      OH2            -3.9727311478       14.2769886688      -93.2003641287  TIP3      8087            0.0000000000
     75775      9447  TIP3      H1             -4.4511108007       13.5119695065      -93.5728468795  TIP3      8087            0.0000000000
     75776      9447  TIP3      H2             -3.4419151033       13.8563303964      -92.5003160226  TIP3      8087            0.0000000000
     75777      9448  TIP3      OH2            -5.5113256168       10.0634860586      -88.6081284571  TIP3      8088            0.0000000000
     75778      9448  TIP3      H1             -6.3398697398        9.9228076607      -88.1418501561  TIP3      8088            0.0000000000
     75779      9448  TIP3      H2             -5.1098933129       10.8117036148      -88.1101247392  TIP3      8088            0.0000000000
     75780      9449  TIP3      OH2            -4.0363705948        9.0927644496      -96.2224678341  TIP3      8089            0.0000000000
     75781      9449  TIP3      H1             -3.2000638069        8.7948748813      -96.5881936560  TIP3      8089            0.0000000000
     75782      9449  TIP3      H2             -3.9643504921       10.0557557523      -96.4052351721  TIP3      8089            0.0000000000
     75783      9450  TIP3      OH2            -5.5251337966       12.0134280097      -93.9365833249  TIP3      8090            0.0000000000
     75784      9450  TIP3      H1             -6.2115797586       12.3667101504      -93.3481740964  TIP3      8090            0.0000000000
     75785      9450  TIP3      H2             -6.0610414228       11.6377172907      -94.6794998026  TIP3      8090            0.0000000000
     75786      9451  TIP3      OH2            -5.1330619038        3.4717176161       88.4461607004  TIP3      8091            0.0000000000
     75787      9451  TIP3      H1             -5.1541356502        4.1393731119       87.7652410290  TIP3      8091            0.0000000000
     75788      9451  TIP3      H2             -5.3526132422        2.6517280154       87.9663804324  TIP3      8091            0.0000000000
     75789      9452  TIP3      OH2            -6.0054997596        4.9205905016       94.0885054053  TIP3      8092            0.0000000000
     75790      9452  TIP3      H1             -6.1611482941        3.9656150132       93.9955219483  TIP3      8092            0.0000000000
     75791      9452  TIP3      H2             -6.3493292469        5.1459066497       94.9598765650  TIP3      8092            0.0000000000
     75792      9453  TIP3      OH2           -21.0052072331        6.9640918164      -96.5881071898  TIP3      8093            0.0000000000
     75793      9453  TIP3      H1            -20.8342468122        6.9313400605      -97.5573509182  TIP3      8093            0.0000000000
     75794      9453  TIP3      H2            -20.1230661015        6.8665137883      -96.2304687110  TIP3      8093            0.0000000000
     75795      9454  TIP3      OH2            -5.1460456761        6.8306965375      -90.9059020158  TIP3      8094            0.0000000000
     75796      9454  TIP3      H1             -4.5489906097        6.0712095400      -90.8510707308  TIP3      8094            0.0000000000
     75797      9454  TIP3      H2             -4.5833933703        7.6292490597      -90.9776583004  TIP3      8094            0.0000000000
     75798      9455  TIP3      OH2            -5.9264170921        0.9324939656       87.5579751976  TIP3      8095            0.0000000000
     75799      9455  TIP3      H1             -5.3152547038        0.4999435813       88.1879173928  TIP3      8095            0.0000000000
     75800      9455  TIP3      H2             -6.7804238621        0.5290258054       87.7665726723  TIP3      8095            0.0000000000
     75801      9456  TIP3      OH2            -6.3141554957        2.4655160443       92.6057464946  TIP3      8096            0.0000000000
     75802      9456  TIP3      H1             -6.0044226983        1.5362574811       92.6407973015  TIP3      8096            0.0000000000
     75803      9456  TIP3      H2             -5.5688082419        2.8832414776       92.1433158094  TIP3      8096            0.0000000000
     75804      9457  TIP3      OH2            -5.6614659548        3.7457075568      -93.9970407618  TIP3      8097            0.0000000000
     75805      9457  TIP3      H1             -6.5078110734        4.0581754651      -93.6338855184  TIP3      8097            0.0000000000
     75806      9457  TIP3      H2             -5.1748600790        4.5767869189      -94.1623540770  TIP3      8097            0.0000000000
     75807      9458  TIP3      OH2           -21.3651579872        2.2789705463      -90.4353362581  TIP3      8098            0.0000000000
     75808      9458  TIP3      H1            -20.4160303270        2.0864623871      -90.2612694292  TIP3      8098            0.0000000000
     75809      9458  TIP3      H2            -21.8014501449        1.4551641038      -90.1352481390  TIP3      8098            0.0000000000
     75810      9459  TIP3      OH2            -3.3344301734       -2.2598346903      -88.5976457873  TIP3      8099            0.0000000000
     75811      9459  TIP3      H1             -2.9992237584       -2.8820992285      -89.2532279590  TIP3      8099            0.0000000000
     75812      9459  TIP3      H2             -3.2850586053       -1.4176695638      -89.1016371533  TIP3      8099            0.0000000000
     75813      9460  TIP3      OH2            -5.7076142338       -0.2617116484       92.6115609705  TIP3      8100            0.0000000000
     75814      9460  TIP3      H1             -5.4761761233       -0.7173458967       93.4425979133  TIP3      8100            0.0000000000
     75815      9460  TIP3      H2             -6.2807081161       -0.8551132231       92.1214450055  TIP3      8100            0.0000000000
     75816      9461  TIP3      OH2           -20.1473676120        0.5443695049       97.0674554357  TIP3      8101            0.0000000000
     75817      9461  TIP3      H1            -19.6846073527       -0.2588170580       97.3962303423  TIP3      8101            0.0000000000
     75818      9461  TIP3      H2            -19.7047304055        1.2551017129       97.5407335477  TIP3      8101            0.0000000000
     75819      9462  TIP3      OH2           -21.8852583690        3.5215001133      -96.5796174694  TIP3      8102            0.0000000000
     75820      9462  TIP3      H1            -21.3446365464        3.2977212115      -97.3360623148  TIP3      8102            0.0000000000
     75821      9462  TIP3      H2            -21.5141518716        4.3526957399      -96.2543966852  TIP3      8102            0.0000000000
     75822      9463  TIP3      OH2            -3.8694956873       -0.2337402109      -90.2350076623  TIP3      8103            0.0000000000
     75823      9463  TIP3      H1             -4.7500363110        0.1947708944      -90.2912613569  TIP3      8103            0.0000000000
     75824      9463  TIP3      H2             -3.7801313223       -0.6287417411      -91.1078475018  TIP3      8103            0.0000000000
     75825      9464  TIP3      OH2            -3.8490032766       -0.1856406495       89.1181858180  TIP3      8104            0.0000000000
     75826      9464  TIP3      H1             -3.4309072479       -0.8956352046       88.6180710561  TIP3      8104            0.0000000000
     75827      9464  TIP3      H2             -3.1476941845        0.4702489061       89.1736433072  TIP3      8104            0.0000000000
     75828      9465  TIP3      OH2           -21.5549626657       -0.1977686684       92.2361717554  TIP3      8105            0.0000000000
     75829      9465  TIP3      H1            -22.4789366779        0.0481161426       92.0638180723  TIP3      8105            0.0000000000
     75830      9465  TIP3      H2            -21.0881068241        0.3196746702       91.5444638507  TIP3      8105            0.0000000000
     75831      9466  TIP3      OH2            -6.6859425978       14.7059181329       94.2191050730  TIP3      8106            0.0000000000
     75832      9466  TIP3      H1             -6.0080432598       14.4509804927       93.5744000664  TIP3      8106            0.0000000000
     75833      9466  TIP3      H2             -6.2330339428       15.2583739791       94.8700587541  TIP3      8106            0.0000000000
     75834      9467  TIP3      OH2           -21.5759186433       -1.5207526354      -94.2313631861  TIP3      8107            0.0000000000
     75835      9467  TIP3      H1            -22.1982416622       -1.7575991308      -93.5403062320  TIP3      8107            0.0000000000
     75836      9467  TIP3      H2            -22.0321962199       -0.8332041861      -94.7220644697  TIP3      8107            0.0000000000
     75837      9468  TIP3      OH2           -19.3751766457       11.7194932415      -89.9745683418  TIP3      8108            0.0000000000
     75838      9468  TIP3      H1            -20.1804112216       11.8859998014      -90.4564714013  TIP3      8108            0.0000000000
     75839      9468  TIP3      H2            -19.6478937946       11.6108658973      -89.0623093774  TIP3      8108            0.0000000000
     75840      9469  TIP3      OH2            -4.8435734937       -2.0389436473      -92.4549381382  TIP3      8109            0.0000000000
     75841      9469  TIP3      H1             -5.6572226655       -1.6727386305      -92.8455194831  TIP3      8109            0.0000000000
     75842      9469  TIP3      H2             -4.6492252194       -2.8166476734      -92.9901111071  TIP3      8109            0.0000000000
     75843      9470  TIP3      OH2           -16.5762260375       15.5622712779      -94.6930323476  TIP3      8110            0.0000000000
     75844      9470  TIP3      H1            -17.4142714315       15.6613478877      -94.2456652896  TIP3      8110            0.0000000000
     75845      9470  TIP3      H2            -16.6444186561       16.1057701323      -95.4796980544  TIP3      8110            0.0000000000
     75846      9471  TIP3      OH2            -6.9446194487       15.8056139303      -94.2518357387  TIP3      8111            0.0000000000
     75847      9471  TIP3      H1             -7.0574497477       16.7565870000      -94.4828543137  TIP3      8111            0.0000000000
     75848      9471  TIP3      H2             -6.7538981948       15.4361941471      -95.1325319388  TIP3      8111            0.0000000000
     75849      9472  TIP3      OH2           -19.6255882611       14.5186555485      -96.8259625762  TIP3      8112            0.0000000000
     75850      9472  TIP3      H1            -19.5630369320       14.1886908843      -95.9304777069  TIP3      8112            0.0000000000
     75851      9472  TIP3      H2            -18.7698042335       14.2318365158      -97.2229913357  TIP3      8112            0.0000000000
     75852      9473  TIP3      OH2           -17.5162190700       13.2972859095       96.6627090592  TIP3      8113            0.0000000000
     75853      9473  TIP3      H1            -17.6335052277       12.3420092482       96.7685853081  TIP3      8113            0.0000000000
     75854      9473  TIP3      H2            -16.6200615336       13.4543183732       97.0224446907  TIP3      8113            0.0000000000
     75855      9474  TIP3      OH2           -14.9256633227       13.7329653542      -97.2965669312  TIP3      8114            0.0000000000
     75856      9474  TIP3      H1            -14.7164879503       12.8277496192      -97.5466550665  TIP3      8114            0.0000000000
     75857      9474  TIP3      H2            -14.8657862435       13.7422877968      -96.3392500133  TIP3      8114            0.0000000000
     75858      9475  TIP3      OH2            -4.5912315786       -1.3333673523       94.9837391505  TIP3      8115            0.0000000000
     75859      9475  TIP3      H1             -3.9197453697       -1.8480127335       94.4982160708  TIP3      8115            0.0000000000
     75860      9475  TIP3      H2             -4.1711036450       -0.4444964338       95.0267769609  TIP3      8115            0.0000000000
     75861      9476  TIP3      OH2           -19.1603862543       -2.0192832395       94.4935553314  TIP3      8116            0.0000000000
     75862      9476  TIP3      H1            -19.7967338685       -2.2070598659       93.7926531823  TIP3      8116            0.0000000000
     75863      9476  TIP3      H2            -18.5651029464       -2.7975352172       94.3815392589  TIP3      8116            0.0000000000
     75864      9477  TIP3      OH2           -20.2509818909       -2.1741950685       90.2200399750  TIP3      8117            0.0000000000
     75865      9477  TIP3      H1            -19.8123839337       -1.5544920260       89.6082387608  TIP3      8117            0.0000000000
     75866      9477  TIP3      H2            -20.8762837045       -1.6153501832       90.6800763918  TIP3      8117            0.0000000000
     75867      9478  TIP3      OH2           -18.4304023291       -0.2885028790       88.6903206563  TIP3      8118            0.0000000000
     75868      9478  TIP3      H1            -17.9202437913       -0.8887640317       88.1504348077  TIP3      8118            0.0000000000
     75869      9478  TIP3      H2            -17.7760175595        0.0771897220       89.3116299385  TIP3      8118            0.0000000000
     75870      9479  TIP3      OH2           -13.4177376027        0.0464859052       91.1195797137  TIP3      8119            0.0000000000
     75871      9479  TIP3      H1            -13.1345688366       -0.5851552264       91.8025649690  TIP3      8119            0.0000000000
     75872      9479  TIP3      H2            -13.3771673271        0.8863983474       91.5946879142  TIP3      8119            0.0000000000
     75873      9480  TIP3      OH2            -4.8105863465       14.5813734516       92.2544137907  TIP3      8120            0.0000000000
     75874      9480  TIP3      H1             -4.9812623736       13.7921184191       91.6772334049  TIP3      8120            0.0000000000
     75875      9480  TIP3      H2             -4.8508525366       15.2997138556       91.5953510457  TIP3      8120            0.0000000000
     75876      9481  TIP3      OH2           -19.1492536672       -1.3918130721      -90.8583565724  TIP3      8121            0.0000000000
     75877      9481  TIP3      H1            -19.5422493719       -2.1706031633      -90.4255115414  TIP3      8121            0.0000000000
     75878      9481  TIP3      H2            -18.2394876979       -1.4306533631      -90.4905461933  TIP3      8121            0.0000000000
     75879      9482  TIP3      OH2           -17.1520123828       -2.0466533674      -89.2146299886  TIP3      8122            0.0000000000
     75880      9482  TIP3      H1            -16.2720164131       -2.3744219381      -89.4273085957  TIP3      8122            0.0000000000
     75881      9482  TIP3      H2            -17.5420868234       -2.8237590218      -88.7769651999  TIP3      8122            0.0000000000
     75882      9483  TIP3      OH2            -5.5625865264       13.2739037028      -90.3788595423  TIP3      8123            0.0000000000
     75883      9483  TIP3      H1             -6.3584753597       13.1756202098      -90.9466664737  TIP3      8123            0.0000000000
     75884      9483  TIP3      H2             -5.6281114493       14.2416211588      -90.2161348725  TIP3      8123            0.0000000000
     75885      9484  TIP3      OH2             8.8084182816        7.1702816486       94.3539211733  TIP3      8124            0.0000000000
     75886      9484  TIP3      H1              8.9314155232        8.1415195560       94.2648789490  TIP3      8124            0.0000000000
     75887      9484  TIP3      H2              8.1639121435        6.9749620875       93.6814349217  TIP3      8124            0.0000000000
     75888      9485  TIP3      OH2             7.6711504475        6.4519639290      -96.8951566530  TIP3      8125            0.0000000000
     75889      9485  TIP3      H1              7.7551701105        5.7360539812      -96.2601963970  TIP3      8125            0.0000000000
     75890      9485  TIP3      H2              7.4318802649        5.9457187573      -97.6924573871  TIP3      8125            0.0000000000
     75891      9486  TIP3      OH2             1.0200873847       10.5363977259      -96.8043195073  TIP3      8126            0.0000000000
     75892      9486  TIP3      H1              0.7238805199        9.6922590256      -97.1784912835  TIP3      8126            0.0000000000
     75893      9486  TIP3      H2              1.9854119501       10.4216963498      -96.7936445588  TIP3      8126            0.0000000000
     75894      9487  TIP3      OH2             6.1302504972        8.8613266124      -96.5059007948  TIP3      8127            0.0000000000
     75895      9487  TIP3      H1              6.4990558273        8.1813807646      -97.0937397728  TIP3      8127            0.0000000000
     75896      9487  TIP3      H2              6.9088284514        9.0167407278      -95.9623032389  TIP3      8127            0.0000000000
     75897      9488  TIP3      OH2            14.7413474440        0.4845368627      -95.7040634090  TIP3      8128            0.0000000000
     75898      9488  TIP3      H1             14.8960397964        1.0816793404      -94.9448670437  TIP3      8128            0.0000000000
     75899      9488  TIP3      H2             15.2474027316        0.9197372026      -96.4045143601  TIP3      8128            0.0000000000
     75900      9489  TIP3      OH2             9.2442437192        3.2720976383      -96.1808842141  TIP3      8129            0.0000000000
     75901      9489  TIP3      H1              9.4769408600        2.3303251419      -96.2229728286  TIP3      8129            0.0000000000
     75902      9489  TIP3      H2              9.2322678727        3.5029731549      -97.1300407599  TIP3      8129            0.0000000000
     75903      9490  TIP3      OH2            15.1588535052        1.9190318727      -93.4183765754  TIP3      8130            0.0000000000
     75904      9490  TIP3      H1             14.5527230146        2.6618061888      -93.5158339648  TIP3      8130            0.0000000000
     75905      9490  TIP3      H2             15.2058336883        1.7842923023      -92.4701044933  TIP3      8130            0.0000000000
     75906      9491  TIP3      OH2             8.3678559985        9.6753854313       93.4911279558  TIP3      8131            0.0000000000
     75907      9491  TIP3      H1              8.3426982879        9.4811230991       92.5546771080  TIP3      8131            0.0000000000
     75908      9491  TIP3      H2              8.4078348715       10.6547374209       93.5359675815  TIP3      8131            0.0000000000
     75909      9492  TIP3      OH2            12.3026695768       -0.5143173869      -94.8479967293  TIP3      8132            0.0000000000
     75910      9492  TIP3      H1             11.5666570709        0.1030479978      -94.9718879161  TIP3      8132            0.0000000000
     75911      9492  TIP3      H2             12.9799895197       -0.1159759890      -95.4305372724  TIP3      8132            0.0000000000
     75912      9493  TIP3      OH2             5.2776632916       -2.3779470968      -97.4590455618  TIP3      8133            0.0000000000
     75913      9493  TIP3      H1              5.1646333627       -3.3434356508      -97.4578877567  TIP3      8133            0.0000000000
     75914      9493  TIP3      H2              4.4096152221       -2.0860670362      -97.1158888344  TIP3      8133            0.0000000000
     75915      9494  TIP3      OH2            14.9010049871        5.7763233238      -94.6201717573  TIP3      8134            0.0000000000
     75916      9494  TIP3      H1             14.2969596231        6.5112712260      -94.5232356189  TIP3      8134            0.0000000000
     75917      9494  TIP3      H2             15.4098883195        6.0721097106      -95.3838222372  TIP3      8134            0.0000000000
     75918      9495  TIP3      OH2             2.6387499538        7.3016704195       94.6455723704  TIP3      8135            0.0000000000
     75919      9495  TIP3      H1              2.2515745329        6.8981130368       93.8551985069  TIP3      8135            0.0000000000
     75920      9495  TIP3      H2              3.1836626120        6.5808278194       94.9880881005  TIP3      8135            0.0000000000
     75921      9496  TIP3      OH2             3.9102714214       10.6374047510       97.3620416868  TIP3      8136            0.0000000000
     75922      9496  TIP3      H1              3.9140329257       10.1453259713       96.5401129762  TIP3      8136            0.0000000000
     75923      9496  TIP3      H2              4.7129545114       10.3363825098       97.8188368074  TIP3      8136            0.0000000000
     75924      9497  TIP3      OH2             2.9787935981        6.0760797419      -96.4729911273  TIP3      8137            0.0000000000
     75925      9497  TIP3      H1              3.5650621824        6.1499824256      -97.2195950004  TIP3      8137            0.0000000000
     75926      9497  TIP3      H2              3.3078526981        6.7015155948      -95.8357220825  TIP3      8137            0.0000000000
     75927      9498  TIP3      OH2             9.3468849826       11.6021496614      -95.6665568747  TIP3      8138            0.0000000000
     75928      9498  TIP3      H1              9.0209465608       12.2350899315      -95.0373967156  TIP3      8138            0.0000000000
     75929      9498  TIP3      H2              9.1087874699       10.7572883487      -95.2839122962  TIP3      8138            0.0000000000
     75930      9499  TIP3      OH2             9.8474633056        5.7831475253       90.4430247862  TIP3      8139            0.0000000000
     75931      9499  TIP3      H1             10.4111740979        5.9586296205       91.2052228485  TIP3      8139            0.0000000000
     75932      9499  TIP3      H2             10.2611523972        6.2994557206       89.7450822477  TIP3      8139            0.0000000000
     75933      9500  TIP3      OH2            -2.5528695489       11.4259513703      -96.7532168564  TIP3      8140            0.0000000000
     75934      9500  TIP3      H1             -1.5905170184       11.3884024109      -96.8205881047  TIP3      8140            0.0000000000
     75935      9500  TIP3      H2             -2.6747907995       12.2577091664      -96.2795905237  TIP3      8140            0.0000000000
     75936      9501  TIP3      OH2            15.6857881519       12.1639776459      -91.0680997242  TIP3      8141            0.0000000000
     75937      9501  TIP3      H1             15.5069314429       11.2260591109      -91.1505957695  TIP3      8141            0.0000000000
     75938      9501  TIP3      H2             14.7936281317       12.4603625218      -90.7467164193  TIP3      8141            0.0000000000
     75939      9502  TIP3      OH2             6.6281079724       11.7595463443      -92.2167033405  TIP3      8142            0.0000000000
     75940      9502  TIP3      H1              6.6727868152       12.5684791859      -91.7146905570  TIP3      8142            0.0000000000
     75941      9502  TIP3      H2              5.7653976688       11.4039197113      -91.9895347517  TIP3      8142            0.0000000000
     75942      9503  TIP3      OH2             6.9982408308       15.5217659888       92.1966412731  TIP3      8143            0.0000000000
     75943      9503  TIP3      H1              6.9283114476       15.4611419081       91.2584114163  TIP3      8143            0.0000000000
     75944      9503  TIP3      H2              7.0206478006       16.4713644715       92.4363212074  TIP3      8143            0.0000000000
     75945      9504  TIP3      OH2            12.8391366544        3.6732096931      -90.6645809609  TIP3      8144            0.0000000000
     75946      9504  TIP3      H1             12.3675280063        4.1685930462      -91.3454515551  TIP3      8144            0.0000000000
     75947      9504  TIP3      H2             12.7774390457        2.7595758027      -90.9697855849  TIP3      8144            0.0000000000
     75948      9505  TIP3      OH2             2.6326603821       -1.4788154014      -96.6496016129  TIP3      8145            0.0000000000
     75949      9505  TIP3      H1              1.7268152936       -1.5900069642      -97.0247015464  TIP3      8145            0.0000000000
     75950      9505  TIP3      H2              2.5340680280       -0.6369535483      -96.1995651169  TIP3      8145            0.0000000000
     75951      9506  TIP3      OH2             7.2681742924        4.2755025055      -90.2958295623  TIP3      8146            0.0000000000
     75952      9506  TIP3      H1              6.7347821383        3.5875818919      -89.9166739778  TIP3      8146            0.0000000000
     75953      9506  TIP3      H2              8.1370190717        4.1853497137      -89.8810071710  TIP3      8146            0.0000000000
     75954      9507  TIP3      OH2             9.1637977730        3.5514579339       95.7837984824  TIP3      8147            0.0000000000
     75955      9507  TIP3      H1              9.0233365997        4.1726771536       95.0551481833  TIP3      8147            0.0000000000
     75956      9507  TIP3      H2              9.3667423950        2.7323898845       95.3207216563  TIP3      8147            0.0000000000
     75957      9508  TIP3      OH2            -2.9921049818        0.8371958732       94.9056097661  TIP3      8148            0.0000000000
     75958      9508  TIP3      H1             -2.3250061013        0.8658354670       95.5849149524  TIP3      8148            0.0000000000
     75959      9508  TIP3      H2             -2.5166086121        0.5331734325       94.1264850211  TIP3      8148            0.0000000000
     75960      9509  TIP3      OH2             9.6322028322        0.4715905599      -96.2705597570  TIP3      8149            0.0000000000
     75961      9509  TIP3      H1              8.9455297024        0.4435703008      -95.6071586930  TIP3      8149            0.0000000000
     75962      9509  TIP3      H2              9.1830087714        0.1504634851      -97.0694389267  TIP3      8149            0.0000000000
     75963      9510  TIP3      OH2            12.9018975150       16.0538587910      -89.9720339250  TIP3      8150            0.0000000000
     75964      9510  TIP3      H1             13.1334148945       16.4724183911      -90.8155548108  TIP3      8150            0.0000000000
     75965      9510  TIP3      H2             13.5997941833       16.3703784550      -89.3776258226  TIP3      8150            0.0000000000
     75966      9511  TIP3      OH2             0.4972232804        8.5263356122      -90.3534740826  TIP3      8151            0.0000000000
     75967      9511  TIP3      H1              1.2213490886        8.7906643128      -89.7802981286  TIP3      8151            0.0000000000
     75968      9511  TIP3      H2             -0.2943616062        8.6968961332      -89.8145406740  TIP3      8151            0.0000000000
     75969      9512  TIP3      OH2             6.5792658840        3.9496751857       97.0791550212  TIP3      8152            0.0000000000
     75970      9512  TIP3      H1              7.1324844284        3.3806624595       96.5338466779  TIP3      8152            0.0000000000
     75971      9512  TIP3      H2              6.4049276068        3.4008838205       97.8498503257  TIP3      8152            0.0000000000
     75972      9513  TIP3      OH2             1.5176116692       -0.0456880395       93.4564596328  TIP3      8153            0.0000000000
     75973      9513  TIP3      H1              1.2806780587       -0.9703400781       93.4723116783  TIP3      8153            0.0000000000
     75974      9513  TIP3      H2              2.3558171161        0.0224547564       92.9829458781  TIP3      8153            0.0000000000
     75975      9514  TIP3      OH2             5.1502829433        2.2646685961      -95.2297343526  TIP3      8154            0.0000000000
     75976      9514  TIP3      H1              4.3521054900        2.7874345153      -95.1527286228  TIP3      8154            0.0000000000
     75977      9514  TIP3      H2              5.6958894387        2.5738735179      -94.4987563597  TIP3      8154            0.0000000000
     75978      9515  TIP3      OH2             5.7594536859        8.4903111899       91.2048382103  TIP3      8155            0.0000000000
     75979      9515  TIP3      H1              4.9929881851        8.0193433585       90.8282615583  TIP3      8155            0.0000000000
     75980      9515  TIP3      H2              5.5409325760        8.5828116032       92.1426737090  TIP3      8155            0.0000000000
     75981      9516  TIP3      OH2             0.9425193752        7.8917016622       97.0976544286  TIP3      8156            0.0000000000
     75982      9516  TIP3      H1              1.5511197517        7.8004710347       96.3494433920  TIP3      8156            0.0000000000
     75983      9516  TIP3      H2              0.9206463023        6.9821752704       97.4340235427  TIP3      8156            0.0000000000
     75984      9517  TIP3      OH2             4.6506510918        8.9933794904       93.8765133207  TIP3      8157            0.0000000000
     75985      9517  TIP3      H1              4.3958392753        9.9225473276       93.9471189106  TIP3      8157            0.0000000000
     75986      9517  TIP3      H2              3.9175049505        8.5179082011       94.3166240129  TIP3      8157            0.0000000000
     75987      9518  TIP3      OH2            -0.8700462589       12.8189570270      -94.4668156841  TIP3      8158            0.0000000000
     75988      9518  TIP3      H1             -0.5797561642       11.9014361011      -94.5104628470  TIP3      8158            0.0000000000
     75989      9518  TIP3      H2             -0.5971475129       13.1006151238      -93.5833134137  TIP3      8158            0.0000000000
     75990      9519  TIP3      OH2             0.4180291065        8.1038170201       90.4643765377  TIP3      8159            0.0000000000
     75991      9519  TIP3      H1             -0.3226380718        8.4452816352       90.9681353532  TIP3      8159            0.0000000000
     75992      9519  TIP3      H2              0.9034650554        8.8746851456       90.1867934942  TIP3      8159            0.0000000000
     75993      9520  TIP3      OH2             0.1099745122       -1.8067424513       97.1591025666  TIP3      8160            0.0000000000
     75994      9520  TIP3      H1             -0.0759987539       -1.8004507353       96.1982848289  TIP3      8160            0.0000000000
     75995      9520  TIP3      H2             -0.2775786623       -2.6536544113       97.4231760206  TIP3      8160            0.0000000000
     75996      9521  TIP3      OH2            -1.7608093596       14.7335622358      -90.0646013151  TIP3      8161            0.0000000000
     75997      9521  TIP3      H1             -1.0668272200       14.5118974334      -89.4417364987  TIP3      8161            0.0000000000
     75998      9521  TIP3      H2             -2.1327286690       13.8815434724      -90.3308413579  TIP3      8161            0.0000000000
     75999      9522  TIP3      OH2            -1.7880310239        8.5465248505      -89.1506406783  TIP3      8162            0.0000000000
     76000      9522  TIP3      H1             -1.6336839456        7.6421345322      -89.4319876449  TIP3      8162            0.0000000000
     76001      9522  TIP3      H2             -2.5556416755        8.8071748542      -89.6817365916  TIP3      8162            0.0000000000
     76002      9523  TIP3      OH2             4.8257606367        8.4617331365      -89.7065825162  TIP3      8163            0.0000000000
     76003      9523  TIP3      H1              4.6005177842        8.7741864776      -90.5918823938  TIP3      8163            0.0000000000
     76004      9523  TIP3      H2              5.0997827515        7.5434749563      -89.8458723312  TIP3      8163            0.0000000000
     76005      9524  TIP3      OH2             3.6877194407        6.9350075436       90.0048403465  TIP3      8164            0.0000000000
     76006      9524  TIP3      H1              3.2143735748        6.4153919644       90.6628583298  TIP3      8164            0.0000000000
     76007      9524  TIP3      H2              4.0103912569        6.2858729220       89.3673433823  TIP3      8164            0.0000000000
     76008      9525  TIP3      OH2             8.0700508218        7.2515866779      -89.0293472073  TIP3      8165            0.0000000000
     76009      9525  TIP3      H1              9.0274535247        7.2537202929      -89.1334799903  TIP3      8165            0.0000000000
     76010      9525  TIP3      H2              7.8820927197        6.4730078295      -88.4902988642  TIP3      8165            0.0000000000
     76011      9526  TIP3      OH2             9.7550295978        3.6858953009      -88.4481499240  TIP3      8166            0.0000000000
     76012      9526  TIP3      H1              9.9755207115        2.7738546498      -88.6753853184  TIP3      8166            0.0000000000
     76013      9526  TIP3      H2             10.6083847774        4.1362436096      -88.5655559073  TIP3      8166            0.0000000000
     76014      9527  TIP3      OH2             8.6636125221        1.4520377073      -90.5646434199  TIP3      8167            0.0000000000
     76015      9527  TIP3      H1              7.6952587816        1.3813608543      -90.6786143652  TIP3      8167            0.0000000000
     76016      9527  TIP3      H2              8.8569493396        0.6675313454      -90.0625027435  TIP3      8167            0.0000000000
     76017      9528  TIP3      OH2             4.8568570889       15.7605076582       89.1242916876  TIP3      8168            0.0000000000
     76018      9528  TIP3      H1              5.7249237516       16.0132708949       89.4172879712  TIP3      8168            0.0000000000
     76019      9528  TIP3      H2              4.4933091677       16.5241460093       88.6770835809  TIP3      8168            0.0000000000
     76020      9529  TIP3      OH2            -1.7615938680       10.4271195761       88.7885229986  TIP3      8169            0.0000000000
     76021      9529  TIP3      H1             -0.8147948210       10.5227025876       88.9629027352  TIP3      8169            0.0000000000
     76022      9529  TIP3      H2             -1.7350747763        9.7720840246       88.0757918722  TIP3      8169            0.0000000000
     76023      9530  TIP3      OH2            -3.0442922849       15.8153013647       93.8126366151  TIP3      8170            0.0000000000
     76024      9530  TIP3      H1             -3.6985192843       15.3094796193       93.2793762972  TIP3      8170            0.0000000000
     76025      9530  TIP3      H2             -2.6934203240       15.1113754879       94.3698102036  TIP3      8170            0.0000000000
     76026      9531  TIP3      OH2            15.3655251607       14.7153095132      -96.1597234947  TIP3      8171            0.0000000000
     76027      9531  TIP3      H1             15.3580551303       14.8687697639      -95.2011443026  TIP3      8171            0.0000000000
     76028      9531  TIP3      H2             16.0694083011       15.3135435452      -96.4346630668  TIP3      8171            0.0000000000
     76029      9532  TIP3      OH2            14.9364233414       14.2691191188      -93.2323696328  TIP3      8172            0.0000000000
     76030      9532  TIP3      H1             14.4171337221       13.5314599545      -93.5643631699  TIP3      8172            0.0000000000
     76031      9532  TIP3      H2             15.4273695723       13.8620130885      -92.5061774925  TIP3      8172            0.0000000000
     76032      9533  TIP3      OH2            15.2259562839        4.7679370745      -90.3468151286  TIP3      8173            0.0000000000
     76033      9533  TIP3      H1             14.3303338189        4.3892961822      -90.4509600074  TIP3      8173            0.0000000000
     76034      9533  TIP3      H2             15.7895950770        3.9848991335      -90.4065882020  TIP3      8173            0.0000000000
     76035      9534  TIP3      OH2            13.1755117044        3.0111455068      -96.7433029821  TIP3      8174            0.0000000000
     76036      9534  TIP3      H1             14.1206564310        3.2610919461      -96.7755541931  TIP3      8174            0.0000000000
     76037      9534  TIP3      H2             12.9465004835        3.1656696564      -95.8367635733  TIP3      8174            0.0000000000
     76038      9535  TIP3      OH2            15.4730631297       -2.2322235369      -88.6633617493  TIP3      8175            0.0000000000
     76039      9535  TIP3      H1             15.8637790501       -2.8786100542      -89.2557142978  TIP3      8175            0.0000000000
     76040      9535  TIP3      H2             15.6561703333       -1.4157708356      -89.1180822157  TIP3      8175            0.0000000000
     76041      9536  TIP3      OH2            15.0395207470       -0.1719979478       89.2214596976  TIP3      8176            0.0000000000
     76042      9536  TIP3      H1             15.3763127858       -0.8935391393       88.6730147528  TIP3      8176            0.0000000000
     76043      9536  TIP3      H2             15.7218517545        0.4944208185       89.1151061792  TIP3      8176            0.0000000000
     76044      9537  TIP3      OH2            -2.7048064007       -1.4711860925      -94.2054871804  TIP3      8177            0.0000000000
     76045      9537  TIP3      H1             -3.3392313385       -1.6601497213      -93.4965757222  TIP3      8177            0.0000000000
     76046      9537  TIP3      H2             -3.1756956123       -0.8263462056      -94.7335382935  TIP3      8177            0.0000000000
     76047      9538  TIP3      OH2             2.4546661559       12.6864361154      -93.7102851591  TIP3      8178            0.0000000000
     76048      9538  TIP3      H1              2.0143589328       13.4799222547      -94.0216505760  TIP3      8178            0.0000000000
     76049      9538  TIP3      H2              3.3377397554       12.8007540753      -94.0556870601  TIP3      8178            0.0000000000
     76050      9539  TIP3      OH2            14.0209253892       -2.0105981119      -92.4875732158  TIP3      8179            0.0000000000
     76051      9539  TIP3      H1             13.1898497823       -1.6827052934      -92.8539612634  TIP3      8179            0.0000000000
     76052      9539  TIP3      H2             14.2113265634       -2.8270665771      -92.9852892718  TIP3      8179            0.0000000000
     76053      9540  TIP3      OH2            11.9165949101       15.8173174968      -94.2572440629  TIP3      8180            0.0000000000
     76054      9540  TIP3      H1             11.8021429223       16.7664524490      -94.4855165301  TIP3      8180            0.0000000000
     76055      9540  TIP3      H2             12.1152293961       15.4639641110      -95.1237412157  TIP3      8180            0.0000000000
     76056      9541  TIP3      OH2             7.4068600621       -0.5680395474       96.5521576978  TIP3      8181            0.0000000000
     76057      9541  TIP3      H1              6.7571159458       -1.2254253567       96.8620660528  TIP3      8181            0.0000000000
     76058      9541  TIP3      H2              8.0111595577       -1.0989311914       96.0197953477  TIP3      8181            0.0000000000
     76059      9542  TIP3      OH2            -0.2279271650       -1.9613814941       94.4239992934  TIP3      8182            0.0000000000
     76060      9542  TIP3      H1             -1.0228225421       -2.2004726970       93.9298459754  TIP3      8182            0.0000000000
     76061      9542  TIP3      H2              0.2890305246       -2.7918622569       94.3962295975  TIP3      8182            0.0000000000
     76062      9543  TIP3      OH2             4.3100103668       -2.0155809539       94.2198172260  TIP3      8183            0.0000000000
     76063      9543  TIP3      H1              5.2066415803       -1.6755140330       94.1916853829  TIP3      8183            0.0000000000
     76064      9543  TIP3      H2              4.2183031458       -2.2356534246       95.1535454249  TIP3      8183            0.0000000000
     76065      9544  TIP3      OH2            -1.5465198224       13.7370497372       91.1652301977  TIP3      8184            0.0000000000
     76066      9544  TIP3      H1             -2.2002250122       13.7773646739       90.4482549499  TIP3      8184            0.0000000000
     76067      9544  TIP3      H2             -1.4673299172       14.6711253287       91.3698363066  TIP3      8184            0.0000000000
     76068      9545  TIP3      OH2            13.9789482577       14.6139597046       92.2808200149  TIP3      8185            0.0000000000
     76069      9545  TIP3      H1             13.8536570669       13.8864743530       91.6499708573  TIP3      8185            0.0000000000
     76070      9545  TIP3      H2             13.9909589419       15.3428832228       91.6262353268  TIP3      8185            0.0000000000
     76071      9546  TIP3      OH2            -0.3583036950       -1.4266517947      -90.8096376737  TIP3      8186            0.0000000000
     76072      9546  TIP3      H1             -0.6689875023       -2.2263874371      -90.3766029651  TIP3      8186            0.0000000000
     76073      9546  TIP3      H2              0.5692004828       -1.4093161813      -90.4925916088  TIP3      8186            0.0000000000
     76074      9547  TIP3      OH2             1.7096041456       -2.1008140977      -89.2637628598  TIP3      8187            0.0000000000
     76075      9547  TIP3      H1              2.6068893212       -2.4042780024      -89.4529396979  TIP3      8187            0.0000000000
     76076      9547  TIP3      H2              1.3066576483       -2.8456439031      -88.7852856727  TIP3      8187            0.0000000000
     76077      9548  TIP3      OH2            13.3370283083       13.3341885883      -90.4640200982  TIP3      8188            0.0000000000
     76078      9548  TIP3      H1             12.4842665922       13.1258854492      -90.8771979590  TIP3      8188            0.0000000000
     76079      9548  TIP3      H2             13.1846457845       14.2631754019      -90.1847215043  TIP3      8188            0.0000000000
     76080      9549  TIP3      OH2            18.9995094966        6.0376593667      -95.4401370287  TIP3      8189            0.0000000000
     76081      9549  TIP3      H1             19.0081400768        5.4421244555      -94.6661748476  TIP3      8189            0.0000000000
     76082      9549  TIP3      H2             19.6385999012        6.7065363573      -95.1645269688  TIP3      8189            0.0000000000
     76083      9550  TIP3      OH2            16.5798979592        4.1765578371       93.2228917307  TIP3      8190            0.0000000000
     76084      9550  TIP3      H1             16.0857619658        5.0045720120       93.2864904801  TIP3      8190            0.0000000000
     76085      9550  TIP3      H2             15.9392713083        3.5951714012       92.8120125577  TIP3      8190            0.0000000000
     76086      9551  TIP3      OH2            17.2187600409        6.3417075033       95.4443301965  TIP3      8191            0.0000000000
     76087      9551  TIP3      H1             17.4778706606        5.5581176894       95.9695988116  TIP3      8191            0.0000000000
     76088      9551  TIP3      H2             17.9647739610        6.4515085907       94.8445162907  TIP3      8191            0.0000000000
     76089      9552  TIP3      OH2            27.4238490583       14.4822938087       96.2833537209  TIP3      8192            0.0000000000
     76090      9552  TIP3      H1             28.0756204107       13.8148211026       96.0459667696  TIP3      8192            0.0000000000
     76091      9552  TIP3      H2             27.2408131704       14.2742661799       97.2069439209  TIP3      8192            0.0000000000
     76092      9553  TIP3      OH2            28.0491771469        3.2395159342      -96.1704527620  TIP3      8193            0.0000000000
     76093      9553  TIP3      H1             28.3643867526        2.3183012172      -96.1924217545  TIP3      8193            0.0000000000
     76094      9553  TIP3      H2             28.0921135007        3.5020432824      -97.0933721120  TIP3      8193            0.0000000000
     76095      9554  TIP3      OH2            21.2924158357        1.4236698752       95.8024867883  TIP3      8194            0.0000000000
     76096      9554  TIP3      H1             21.3385940794        2.2883880337       95.3417611561  TIP3      8194            0.0000000000
     76097      9554  TIP3      H2             20.8687772035        0.8398277529       95.1565396691  TIP3      8194            0.0000000000
     76098      9555  TIP3      OH2            17.9045499133        3.8088740096       96.5157679843  TIP3      8195            0.0000000000
     76099      9555  TIP3      H1             18.5676955151        3.2642295223       96.9922012648  TIP3      8195            0.0000000000
     76100      9555  TIP3      H2             17.9663389480        3.4702963207       95.6107835062  TIP3      8195            0.0000000000
     76101      9556  TIP3      OH2            23.0583836188        5.3168386929       95.8010905890  TIP3      8196            0.0000000000
     76102      9556  TIP3      H1             23.7004018887        4.7695755883       96.2717476095  TIP3      8196            0.0000000000
     76103      9556  TIP3      H2             22.4907435105        4.6716682720       95.3474780254  TIP3      8196            0.0000000000
     76104      9557  TIP3      OH2            30.7566577188        0.8027845051       96.1786075610  TIP3      8197            0.0000000000
     76105      9557  TIP3      H1             30.6009625301        0.0424088941       96.7341924641  TIP3      8197            0.0000000000
     76106      9557  TIP3      H2             31.4407514236        1.3103812179       96.6508176754  TIP3      8197            0.0000000000
     76107      9558  TIP3      OH2            19.6769873318        2.2138652293      -96.9345839580  TIP3      8198            0.0000000000
     76108      9558  TIP3      H1             20.3442689476        2.8023417370      -96.5176284375  TIP3      8198            0.0000000000
     76109      9558  TIP3      H2             20.2504324745        1.7416633622      -97.5708539496  TIP3      8198            0.0000000000
     76110      9559  TIP3      OH2            21.1350877763        9.9382772145      -93.7880783077  TIP3      8199            0.0000000000
     76111      9559  TIP3      H1             21.0971208852       10.8300707893      -94.1724992369  TIP3      8199            0.0000000000
     76112      9559  TIP3      H2             20.2462995949        9.8603271758      -93.3792119820  TIP3      8199            0.0000000000
     76113      9560  TIP3      OH2            31.1249248354       -0.4565718604      -94.8695914376  TIP3      8200            0.0000000000
     76114      9560  TIP3      H1             30.3822361060        0.1451452812      -94.9566042338  TIP3      8200            0.0000000000
     76115      9560  TIP3      H2             31.8202168656       -0.0552180912      -95.3946776201  TIP3      8200            0.0000000000
     76116      9561  TIP3      OH2            33.7617173042        5.8341285662      -94.6159900159  TIP3      8201            0.0000000000
     76117      9561  TIP3      H1             33.1575647225        6.5783338655      -94.5774594988  TIP3      8201            0.0000000000
     76118      9561  TIP3      H2             34.2574204613        6.0852568815      -95.4185019611  TIP3      8201            0.0000000000
     76119      9562  TIP3      OH2            21.5063585169        7.3352350309       94.5930242643  TIP3      8202            0.0000000000
     76120      9562  TIP3      H1             21.1054954102        6.8539247934       93.8444049102  TIP3      8202            0.0000000000
     76121      9562  TIP3      H2             22.0206585830        6.6235223690       95.0382188159  TIP3      8202            0.0000000000
     76122      9563  TIP3      OH2            22.8368002093       10.7531425567       97.2938385783  TIP3      8203            0.0000000000
     76123      9563  TIP3      H1             22.7105118270       10.1317334573       96.5709495006  TIP3      8203            0.0000000000
     76124      9563  TIP3      H2             23.5416884110       10.3648639644       97.8238638294  TIP3      8203            0.0000000000
     76125      9564  TIP3      OH2            22.7656919690       10.4610003217      -91.7145815210  TIP3      8204            0.0000000000
     76126      9564  TIP3      H1             22.3566918009       11.2075147230      -91.2433083979  TIP3      8204            0.0000000000
     76127      9564  TIP3      H2             22.1157515328       10.2782586075      -92.4342223474  TIP3      8204            0.0000000000
     76128      9565  TIP3      OH2            19.6777479919        6.6252572056      -92.5122705262  TIP3      8205            0.0000000000
     76129      9565  TIP3      H1             19.6888992688        7.3188389952      -91.8250444246  TIP3      8205            0.0000000000
     76130      9565  TIP3      H2             18.7468149938        6.7097162812      -92.7965686840  TIP3      8205            0.0000000000
     76131      9566  TIP3      OH2            20.9670666355       12.4992630937      -90.9458134883  TIP3      8206            0.0000000000
     76132      9566  TIP3      H1             20.9517361976       12.4157366706      -91.9125534527  TIP3      8206            0.0000000000
     76133      9566  TIP3      H2             20.0339505407       12.3835917181      -90.6988050676  TIP3      8206            0.0000000000
     76134      9567  TIP3      OH2            20.4956704551        6.3248127589       92.2063448026  TIP3      8207            0.0000000000
     76135      9567  TIP3      H1             20.1368609519        7.0978707136       91.7353446544  TIP3      8207            0.0000000000
     76136      9567  TIP3      H2             19.7993144916        5.6694572164       92.0659285494  TIP3      8207            0.0000000000
     76137      9568  TIP3      OH2            33.5725659230       11.8891868512       88.7188178831  TIP3      8208            0.0000000000
     76138      9568  TIP3      H1             33.6813422955       12.8558994256       88.7799272031  TIP3      8208            0.0000000000
     76139      9568  TIP3      H2             34.4906283445       11.6018726344       88.5840199359  TIP3      8208            0.0000000000
     76140      9569  TIP3      OH2            34.5894628636       12.1681585456      -90.9986174899  TIP3      8209            0.0000000000
     76141      9569  TIP3      H1             34.3949901855       11.2470941109      -91.1575507509  TIP3      8209            0.0000000000
     76142      9569  TIP3      H2             33.6894710196       12.4929003043      -90.7483819343  TIP3      8209            0.0000000000
     76143      9570  TIP3      OH2            25.4403340898       11.7535360569      -92.2594402332  TIP3      8210            0.0000000000
     76144      9570  TIP3      H1             25.5199602034       12.5646275970      -91.7247621026  TIP3      8210            0.0000000000
     76145      9570  TIP3      H2             24.6012321306       11.3610836960      -91.9759451004  TIP3      8210            0.0000000000
     76146      9571  TIP3      OH2            25.8469538638       15.5082974561       92.2749981665  TIP3      8211            0.0000000000
     76147      9571  TIP3      H1             25.8359257006       15.3806484049       91.3147572823  TIP3      8211            0.0000000000
     76148      9571  TIP3      H2             25.9312865529       16.4539119653       92.3905157550  TIP3      8211            0.0000000000
     76149      9572  TIP3      OH2            19.5887133398       14.3037312166       94.1094431220  TIP3      8212            0.0000000000
     76150      9572  TIP3      H1             19.6987006146       13.9497689278       95.0147169698  TIP3      8212            0.0000000000
     76151      9572  TIP3      H2             18.7078120906       13.9674195838       93.8975651685  TIP3      8212            0.0000000000
     76152      9573  TIP3      OH2            18.7513220000       10.0944529024      -92.6147429318  TIP3      8213            0.0000000000
     76153      9573  TIP3      H1             19.0088841612        9.6759632737      -91.7641858913  TIP3      8213            0.0000000000
     76154      9573  TIP3      H2             17.9508443495        9.6165607804      -92.8362520138  TIP3      8213            0.0000000000
     76155      9574  TIP3      OH2            29.3949330267        2.0113275986      -92.4182462886  TIP3      8214            0.0000000000
     76156      9574  TIP3      H1             28.8977329180        1.8596849822      -91.6054485818  TIP3      8214            0.0000000000
     76157      9574  TIP3      H2             29.2291712345        2.9262018751      -92.6326557416  TIP3      8214            0.0000000000
     76158      9575  TIP3      OH2            25.7326969799        0.7136890822       88.7930238684  TIP3      8215            0.0000000000
     76159      9575  TIP3      H1             25.4394713615        0.7284003372       89.7133999461  TIP3      8215            0.0000000000
     76160      9575  TIP3      H2             25.4694552562       -0.1477877157       88.5001461269  TIP3      8215            0.0000000000
     76161      9576  TIP3      OH2            21.5584293694        3.5103137857      -95.4698087410  TIP3      8216            0.0000000000
     76162      9576  TIP3      H1             20.8681070041        3.4560826595      -94.7828173999  TIP3      8216            0.0000000000
     76163      9576  TIP3      H2             21.5005456982        4.4217818664      -95.7773013099  TIP3      8216            0.0000000000
     76164      9577  TIP3      OH2            21.5363152977        3.6019977121       94.1724056126  TIP3      8217            0.0000000000
     76165      9577  TIP3      H1             20.5874547669        3.4105260155       94.0289066560  TIP3      8217            0.0000000000
     76166      9577  TIP3      H2             21.9125706811        3.3483623649       93.3096038386  TIP3      8217            0.0000000000
     76167      9578  TIP3      OH2            26.1271264672        4.4007666238      -90.2409969821  TIP3      8218            0.0000000000
     76168      9578  TIP3      H1             25.6195298313        3.5681508586      -90.0788955696  TIP3      8218            0.0000000000
     76169      9578  TIP3      H2             26.9775512992        4.1679319892      -89.8739370516  TIP3      8218            0.0000000000
     76170      9579  TIP3      OH2            19.2427787332        3.7839271011      -93.7190827643  TIP3      8219            0.0000000000
     76171      9579  TIP3      H1             19.2463873105        4.1701757399      -92.8301140377  TIP3      8219            0.0000000000
     76172      9579  TIP3      H2             18.7948661766        2.9328285280      -93.5644010607  TIP3      8219            0.0000000000
     76173      9580  TIP3      OH2            15.9156143811        0.9647879381       94.9355689279  TIP3      8220            0.0000000000
     76174      9580  TIP3      H1             16.5099903636        0.8119283499       95.6923635740  TIP3      8220            0.0000000000
     76175      9580  TIP3      H2             16.2788283496        0.4332414432       94.2082219292  TIP3      8220            0.0000000000
     76176      9581  TIP3      OH2            17.1560463740        1.6873754303       90.4033421926  TIP3      8221            0.0000000000
     76177      9581  TIP3      H1             17.6104907237        2.2062524772       89.7197779889  TIP3      8221            0.0000000000
     76178      9581  TIP3      H2             16.4094989097        2.2406062961       90.6257218487  TIP3      8221            0.0000000000
     76179      9582  TIP3      OH2            24.1400827014        1.1759629072       95.1798691840  TIP3      8222            0.0000000000
     76180      9582  TIP3      H1             23.1911976642        1.1662967156       95.4381986426  TIP3      8222            0.0000000000
     76181      9582  TIP3      H2             24.5626711163        1.0274731477       96.0291620044  TIP3      8222            0.0000000000
     76182      9583  TIP3      OH2            18.9244637685        2.7197921117       94.0064782128  TIP3      8223            0.0000000000
     76183      9583  TIP3      H1             18.0304549957        2.9176392585       93.6637528811  TIP3      8223            0.0000000000
     76184      9583  TIP3      H2             19.1418083340        1.8637185129       93.6327115104  TIP3      8223            0.0000000000
     76185      9584  TIP3      OH2            22.5476680220        2.7942796758       91.6890234198  TIP3      8224            0.0000000000
     76186      9584  TIP3      H1             23.5017315240        2.9140100421       91.8594536172  TIP3      8224            0.0000000000
     76187      9584  TIP3      H2             22.3161197077        3.4343701267       90.9919224328  TIP3      8224            0.0000000000
     76188      9585  TIP3      OH2            28.4880548874        0.4317439183      -96.2460978044  TIP3      8225            0.0000000000
     76189      9585  TIP3      H1             27.7957987452        0.4401320778      -95.5819406579  TIP3      8225            0.0000000000
     76190      9585  TIP3      H2             28.0308757323        0.1548369875      -97.0544516796  TIP3      8225            0.0000000000
     76191      9586  TIP3      OH2            21.2376494770        3.9557670512       89.2627628583  TIP3      8226            0.0000000000
     76192      9586  TIP3      H1             20.7045548014        3.5817911788       88.5428407372  TIP3      8226            0.0000000000
     76193      9586  TIP3      H2             22.0636954992        4.1334245503       88.7995880397  TIP3      8226            0.0000000000
     76194      9587  TIP3      OH2            31.7519571356       16.0195295476      -89.9810712449  TIP3      8227            0.0000000000
     76195      9587  TIP3      H1             31.9845825221       16.4132998024      -90.8428328576  TIP3      8227            0.0000000000
     76196      9587  TIP3      H2             32.4514964785       16.3728063214      -89.4403424144  TIP3      8227            0.0000000000
     76197      9588  TIP3      OH2            19.3816688633        8.5442239425      -90.4011745455  TIP3      8228            0.0000000000
     76198      9588  TIP3      H1             20.1044379323        8.7558223915      -89.7750572605  TIP3      8228            0.0000000000
     76199      9588  TIP3      H2             18.6123188920        8.5890796432      -89.8183133475  TIP3      8228            0.0000000000
     76200      9589  TIP3      OH2            25.3518958405        3.8714681518       97.0440702425  TIP3      8229            0.0000000000
     76201      9589  TIP3      H1             25.9916440734        3.3593406490       96.5593082865  TIP3      8229            0.0000000000
     76202      9589  TIP3      H2             25.2529625123        3.4157537371       97.8853966473  TIP3      8229            0.0000000000
     76203      9590  TIP3      OH2            24.7857573169        8.3506888318       91.2810709754  TIP3      8230            0.0000000000
     76204      9590  TIP3      H1             24.0799609006        7.8009416722       90.9113696609  TIP3      8230            0.0000000000
     76205      9590  TIP3      H2             24.5560418801        8.5129015380       92.2128127711  TIP3      8230            0.0000000000
     76206      9591  TIP3      OH2            16.7670687102        6.2567308526      -92.4857836341  TIP3      8231            0.0000000000
     76207      9591  TIP3      H1             16.8851092657        5.8401717961      -91.6188770954  TIP3      8231            0.0000000000
     76208      9591  TIP3      H2             16.0812723932        5.7214449264      -92.9111761500  TIP3      8231            0.0000000000
     76209      9592  TIP3      OH2            23.7416396440        5.8162859702      -90.2674700408  TIP3      8232            0.0000000000
     76210      9592  TIP3      H1             23.4114787902        5.5741884669      -91.1453005299  TIP3      8232            0.0000000000
     76211      9592  TIP3      H2             24.6714641635        5.5193166119      -90.3085785722  TIP3      8232            0.0000000000
     76212      9593  TIP3      OH2            32.4292077670       12.1824946418       91.2182931323  TIP3      8233            0.0000000000
     76213      9593  TIP3      H1             31.9929821151       11.3747132979       91.4825342274  TIP3      8233            0.0000000000
     76214      9593  TIP3      H2             32.6510502122       12.0216508917       90.2774305716  TIP3      8233            0.0000000000
     76215      9594  TIP3      OH2            22.0825453996       11.3185347271       94.3295292390  TIP3      8234            0.0000000000
     76216      9594  TIP3      H1             22.5698504233       12.1493219086       94.1528850176  TIP3      8234            0.0000000000
     76217      9594  TIP3      H2             21.1878042387       11.5863329880       94.0799602212  TIP3      8234            0.0000000000
     76218      9595  TIP3      OH2            17.7729308625        6.1616691337       88.9450929138  TIP3      8235            0.0000000000
     76219      9595  TIP3      H1             18.4301520499        6.7890995967       89.2806686144  TIP3      8235            0.0000000000
     76220      9595  TIP3      H2             16.9409915783        6.5084987859       89.2496061782  TIP3      8235            0.0000000000
     76221      9596  TIP3      OH2            23.4707127486        9.0275468601       93.8076988179  TIP3      8236            0.0000000000
     76222      9596  TIP3      H1             23.1911799822        9.9368146696       94.0234244116  TIP3      8236            0.0000000000
     76223      9596  TIP3      H2             22.7959053693        8.5109251121       94.3156748106  TIP3      8236            0.0000000000
     76224      9597  TIP3      OH2            23.9561575454       13.1801124671      -94.4451546929  TIP3      8237            0.0000000000
     76225      9597  TIP3      H1             24.4391706304       13.9728448557      -94.7205580248  TIP3      8237            0.0000000000
     76226      9597  TIP3      H2             24.5811370283       12.8059987508      -93.7955382205  TIP3      8237            0.0000000000
     76227      9598  TIP3      OH2            22.1715967453       13.9810589575       93.4232027958  TIP3      8238            0.0000000000
     76228      9598  TIP3      H1             21.2114108553       14.1663191234       93.5448940000  TIP3      8238            0.0000000000
     76229      9598  TIP3      H2             22.5619232385       14.8062095567       93.7565918266  TIP3      8238            0.0000000000
     76230      9599  TIP3      OH2            34.2769906363       14.6263040131       89.2536528604  TIP3      8239            0.0000000000
     76231      9599  TIP3      H1             34.9845960438       15.2443027901       89.0138450377  TIP3      8239            0.0000000000
     76232      9599  TIP3      H2             33.5628786704       15.2021941580       89.5110748913  TIP3      8239            0.0000000000
     76233      9600  TIP3      OH2            18.3152172157        1.0488454647      -92.8921959493  TIP3      8240            0.0000000000
     76234      9600  TIP3      H1             17.4100696198        1.3635471651      -92.9779886868  TIP3      8240            0.0000000000
     76235      9600  TIP3      H2             18.2364652485        0.1672683371      -92.4974526390  TIP3      8240            0.0000000000
     76236      9601  TIP3      OH2            17.9850147688       12.7988137059      -94.4946373333  TIP3      8241            0.0000000000
     76237      9601  TIP3      H1             18.2759306980       11.8862316541      -94.5093591651  TIP3      8241            0.0000000000
     76238      9601  TIP3      H2             18.2420847704       13.0834735450      -93.6141005384  TIP3      8241            0.0000000000
     76239      9602  TIP3      OH2            22.6752416495       11.0925673998       89.8225363374  TIP3      8242            0.0000000000
     76240      9602  TIP3      H1             22.9466350047       10.7752301013       90.6620798424  TIP3      8242            0.0000000000
     76241      9602  TIP3      H2             22.7977853854       12.0429081940       90.0939556971  TIP3      8242            0.0000000000
     76242      9603  TIP3      OH2            19.2511845929        8.1094474035       90.4511290641  TIP3      8243            0.0000000000
     76243      9603  TIP3      H1             18.5228907424        8.4766425740       90.9733956346  TIP3      8243            0.0000000000
     76244      9603  TIP3      H2             19.7157635601        8.9020363781       90.1489298432  TIP3      8243            0.0000000000
     76245      9604  TIP3      OH2            25.0679882453        2.1655348442       92.6539881445  TIP3      8244            0.0000000000
     76246      9604  TIP3      H1             25.8695392906        2.6850276226       92.7001121838  TIP3      8244            0.0000000000
     76247      9604  TIP3      H2             24.7939589501        1.9749249690       93.5727474111  TIP3      8244            0.0000000000
     76248      9605  TIP3      OH2            25.8795254134       -0.7463301817       93.4570847397  TIP3      8245            0.0000000000
     76249      9605  TIP3      H1             25.5634437427       -0.2241045404       94.2039175644  TIP3      8245            0.0000000000
     76250      9605  TIP3      H2             26.6417978962       -0.2623826026       93.1525003418  TIP3      8245            0.0000000000
     76251      9606  TIP3      OH2            22.7991007629       13.5672740652       90.6692827921  TIP3      8246            0.0000000000
     76252      9606  TIP3      H1             23.0652944727       14.3769999597       90.1702259180  TIP3      8246            0.0000000000
     76253      9606  TIP3      H2             22.6798124838       13.9105376956       91.5800600510  TIP3      8246            0.0000000000
     76254      9607  TIP3      OH2            21.5646243064        0.2876995749       90.2965019342  TIP3      8247            0.0000000000
     76255      9607  TIP3      H1             21.5398709389        1.1979028989       90.6200094827  TIP3      8247            0.0000000000
     76256      9607  TIP3      H2             22.4804904627        0.0301470045       90.5032419055  TIP3      8247            0.0000000000
     76257      9608  TIP3      OH2            31.7613098182        0.8994870343      -92.0303580107  TIP3      8248            0.0000000000
     76258      9608  TIP3      H1             30.8901585496        1.3373021784      -92.1590726873  TIP3      8248            0.0000000000
     76259      9608  TIP3      H2             32.1569774494        1.0343980193      -92.9042405919  TIP3      8248            0.0000000000
     76260      9609  TIP3      OH2            19.8713852743       10.6591867796       89.3501089771  TIP3      8249            0.0000000000
     76261      9609  TIP3      H1             20.4395199594       11.3969248753       89.6118901138  TIP3      8249            0.0000000000
     76262      9609  TIP3      H2             20.3215630270       10.3092922347       88.5721006950  TIP3      8249            0.0000000000
     76263      9610  TIP3      OH2            31.4820513620       14.0569398559      -96.3431308913  TIP3      8250            0.0000000000
     76264      9610  TIP3      H1             31.3505286383       14.7348057480      -97.0308597589  TIP3      8250            0.0000000000
     76265      9610  TIP3      H2             32.4354356303       14.1191118723      -96.1863857379  TIP3      8250            0.0000000000
     76266      9611  TIP3      OH2            17.9578594621       12.1342998662       93.3253517090  TIP3      8251            0.0000000000
     76267      9611  TIP3      H1             17.1037448617       12.5644150881       93.2801119412  TIP3      8251            0.0000000000
     76268      9611  TIP3      H2             18.4532714257       12.5954456839       92.6432630115  TIP3      8251            0.0000000000
     76269      9612  TIP3      OH2            17.1351250733       14.7485468883      -90.1154963795  TIP3      8252            0.0000000000
     76270      9612  TIP3      H1             17.7332600146       14.5423196034      -89.3726751002  TIP3      8252            0.0000000000
     76271      9612  TIP3      H2             16.7445047241       13.8880426670      -90.3171865673  TIP3      8252            0.0000000000
     76272      9613  TIP3      OH2            21.8009261479       13.6642030486      -88.4970143687  TIP3      8253            0.0000000000
     76273      9613  TIP3      H1             22.5617059667       13.1584133978      -88.1762994460  TIP3      8253            0.0000000000
     76274      9613  TIP3      H2             21.7645736849       13.3975093015      -89.4387864810  TIP3      8253            0.0000000000
     76275      9614  TIP3      OH2            28.2971459432       12.0690892416      -89.7431311493  TIP3      8254            0.0000000000
     76276      9614  TIP3      H1             28.0813867850       11.1582702453      -89.5216846025  TIP3      8254            0.0000000000
     76277      9614  TIP3      H2             29.0890795206       12.1990658319      -89.1824913168  TIP3      8254            0.0000000000
     76278      9615  TIP3      OH2            23.6550466332        8.5027790123      -89.6898805992  TIP3      8255            0.0000000000
     76279      9615  TIP3      H1             23.4452850336        8.8281975730      -90.5903919193  TIP3      8255            0.0000000000
     76280      9615  TIP3      H2             23.8748168765        7.5584918966      -89.8500215679  TIP3      8255            0.0000000000
     76281      9616  TIP3      OH2            18.0118488761        5.7417265993      -89.7111925426  TIP3      8256            0.0000000000
     76282      9616  TIP3      H1             18.3696260340        4.8590473328      -89.8172274463  TIP3      8256            0.0000000000
     76283      9616  TIP3      H2             17.6614968913        5.7629058705      -88.8180472640  TIP3      8256            0.0000000000
     76284      9617  TIP3      OH2            22.6146530610        6.9299169323       90.0883125195  TIP3      8257            0.0000000000
     76285      9617  TIP3      H1             22.0976182754        6.3358275247       90.6737319161  TIP3      8257            0.0000000000
     76286      9617  TIP3      H2             22.8686973408        6.2618773472       89.3952938312  TIP3      8257            0.0000000000
     76287      9618  TIP3      OH2            21.9328043450        4.7446181887      -92.3421016196  TIP3      8258            0.0000000000
     76288      9618  TIP3      H1             21.2536224037        5.4070375611      -92.1346610516  TIP3      8258            0.0000000000
     76289      9618  TIP3      H2             22.1893444768        5.0330181996      -93.2219292710  TIP3      8258            0.0000000000
     76290      9619  TIP3      OH2            23.6527704510        5.1109781755       88.2668289896  TIP3      8259            0.0000000000
     76291      9619  TIP3      H1             23.5347625166        4.9158343431       87.3255648630  TIP3      8259            0.0000000000
     76292      9619  TIP3      H2             24.6242266983        5.1454883045       88.3114029458  TIP3      8259            0.0000000000
     76293      9620  TIP3      OH2            20.7581149213        3.2658121969      -89.3366687074  TIP3      8260            0.0000000000
     76294      9620  TIP3      H1             19.9508809882        2.7605032017      -89.5650896918  TIP3      8260            0.0000000000
     76295      9620  TIP3      H2             21.3721035069        2.9901890040      -90.0263792245  TIP3      8260            0.0000000000
     76296      9621  TIP3      OH2            24.7038990133        2.2780339968      -89.7464590890  TIP3      8261            0.0000000000
     76297      9621  TIP3      H1             24.3864700597        1.9740641823      -88.8816594636  TIP3      8261            0.0000000000
     76298      9621  TIP3      H2             23.9638255614        2.0095896823      -90.3067863061  TIP3      8261            0.0000000000
     76299      9622  TIP3      OH2            28.9219086718        0.1080333216      -88.7805409505  TIP3      8262            0.0000000000
     76300      9622  TIP3      H1             29.0046193893       -0.8553493778      -88.7967706246  TIP3      8262            0.0000000000
     76301      9622  TIP3      H2             28.7821117403        0.3233250474      -87.8626034062  TIP3      8262            0.0000000000
     76302      9623  TIP3      OH2            18.8648468956        1.2575464375      -89.6693645108  TIP3      8263            0.0000000000
     76303      9623  TIP3      H1             19.0563712746        0.5135653846      -90.2653680080  TIP3      8263            0.0000000000
     76304      9623  TIP3      H2             18.7548213649        0.7958805700      -88.8054507927  TIP3      8263            0.0000000000
     76305      9624  TIP3      OH2            23.5587914590       15.6915164703       89.2050499760  TIP3      8264            0.0000000000
     76306      9624  TIP3      H1             24.4954515865       15.8795888705       89.4081727391  TIP3      8264            0.0000000000
     76307      9624  TIP3      H2             23.3146043121       16.4321114570       88.6388801853  TIP3      8264            0.0000000000
     76308      9625  TIP3      OH2            17.1837027073       10.3742907801       88.7260907405  TIP3      8265            0.0000000000
     76309      9625  TIP3      H1             18.1061865211       10.4845265381       89.0015686447  TIP3      8265            0.0000000000
     76310      9625  TIP3      H2             17.1775892813        9.7528013276       88.0139187830  TIP3      8265            0.0000000000
     76311      9626  TIP3      OH2            15.8628861985       15.8008626399       93.7656598937  TIP3      8266            0.0000000000
     76312      9626  TIP3      H1             15.1461308930       15.3246752204       93.2917234437  TIP3      8266            0.0000000000
     76313      9626  TIP3      H2             16.1214068645       15.1375157401       94.4344671117  TIP3      8266            0.0000000000
     76314      9627  TIP3      OH2            16.6157317042       13.8756476742       95.6113030769  TIP3      8267            0.0000000000
     76315      9627  TIP3      H1             16.3025044908       13.0080130346       95.8610509139  TIP3      8267            0.0000000000
     76316      9627  TIP3      H2             16.9109315477       14.2311323321       96.4808341837  TIP3      8267            0.0000000000
     76317      9628  TIP3      OH2            34.2654872761       14.6523987931      -96.1191616490  TIP3      8268            0.0000000000
     76318      9628  TIP3      H1             34.1438886465       14.8941979209      -95.1954285248  TIP3      8268            0.0000000000
     76319      9628  TIP3      H2             34.8813298498       15.3104343746      -96.4668755878  TIP3      8268            0.0000000000
     76320      9629  TIP3      OH2            33.6632830659        9.1417238833      -96.2059916702  TIP3      8269            0.0000000000
     76321      9629  TIP3      H1             34.4513250289        8.7209638649      -96.5877670531  TIP3      8269            0.0000000000
     76322      9629  TIP3      H2             33.8185028359       10.0726903174      -96.4157352641  TIP3      8269            0.0000000000
     76323      9630  TIP3      OH2            32.0431768019        2.9614101647      -96.7400075016  TIP3      8270            0.0000000000
     76324      9630  TIP3      H1             32.9686461084        3.2714349352      -96.7553484461  TIP3      8270            0.0000000000
     76325      9630  TIP3      H2             31.8116179617        3.1907560651      -95.8233107208  TIP3      8270            0.0000000000
     76326      9631  TIP3      OH2            32.0114408049        3.7641212158      -94.0839134715  TIP3      8271            0.0000000000
     76327      9631  TIP3      H1             31.2526568323        4.0612934871      -93.5826383666  TIP3      8271            0.0000000000
     76328      9631  TIP3      H2             32.5510276578        4.5772135481      -94.1792507374  TIP3      8271            0.0000000000
     76329      9632  TIP3      OH2            16.3472804150        2.2213223595      -90.4462663982  TIP3      8272            0.0000000000
     76330      9632  TIP3      H1             17.2908532517        2.0583604522      -90.2502086013  TIP3      8272            0.0000000000
     76331      9632  TIP3      H2             15.9234524319        1.4310341956      -90.1008377019  TIP3      8272            0.0000000000
     76332      9633  TIP3      OH2            34.4112586230       -2.2625406437      -88.6114381321  TIP3      8273            0.0000000000
     76333      9633  TIP3      H1             34.7140526392       -2.8843514965      -89.2754247192  TIP3      8273            0.0000000000
     76334      9633  TIP3      H2             34.4250562344       -1.4125107691      -89.0970826647  TIP3      8273            0.0000000000
     76335      9634  TIP3      OH2            32.1583987232       -0.2788070205       92.5137875999  TIP3      8274            0.0000000000
     76336      9634  TIP3      H1             32.2230884140       -0.6414520488       93.4089005507  TIP3      8274            0.0000000000
     76337      9634  TIP3      H2             31.4094415496       -0.7740455280       92.1476266846  TIP3      8274            0.0000000000
     76338      9635  TIP3      OH2            17.5434086379        0.5553020098       97.1244648273  TIP3      8275            0.0000000000
     76339      9635  TIP3      H1             17.9887272325       -0.2448287290       97.4247198885  TIP3      8275            0.0000000000
     76340      9635  TIP3      H2             18.0745601060        1.2601094028       97.5339908225  TIP3      8275            0.0000000000
     76341      9636  TIP3      OH2            15.8220555724        3.5664245154      -96.5347729003  TIP3      8276            0.0000000000
     76342      9636  TIP3      H1             16.3906311183        3.3404043775      -97.2924416066  TIP3      8276            0.0000000000
     76343      9636  TIP3      H2             16.2491490986        4.3826414671      -96.2540901967  TIP3      8276            0.0000000000
     76344      9637  TIP3      OH2            33.8455905624       -0.1803844891      -90.1994206239  TIP3      8277            0.0000000000
     76345      9637  TIP3      H1             32.9483499257        0.1730491251      -90.3172171945  TIP3      8277            0.0000000000
     76346      9637  TIP3      H2             33.9513717860       -0.5972149610      -91.0604682533  TIP3      8277            0.0000000000
     76347      9638  TIP3      OH2            33.8879086235       -0.2469372975       89.1491119115  TIP3      8278            0.0000000000
     76348      9638  TIP3      H1             34.3283016261       -0.9209853823       88.6233720101  TIP3      8278            0.0000000000
     76349      9638  TIP3      H2             34.5540849683        0.4541710578       89.1806252463  TIP3      8278            0.0000000000
     76350      9639  TIP3      OH2            16.2146800179       -0.1243158364       92.2467497298  TIP3      8279            0.0000000000
     76351      9639  TIP3      H1             15.2673088209       -0.0324661073       92.0885366268  TIP3      8279            0.0000000000
     76352      9639  TIP3      H2             16.6199982369        0.3286077683       91.4912176634  TIP3      8279            0.0000000000
     76353      9640  TIP3      OH2            16.1495820919       -1.5358232833      -94.1911020722  TIP3      8280            0.0000000000
     76354      9640  TIP3      H1             15.4928452870       -1.6943104658      -93.4853749152  TIP3      8280            0.0000000000
     76355      9640  TIP3      H2             15.6861773099       -0.8538783424      -94.7228885931  TIP3      8280            0.0000000000
     76356      9641  TIP3      OH2            18.3518472379       11.7241420664      -89.9965578301  TIP3      8281            0.0000000000
     76357      9641  TIP3      H1             17.5048165243       11.8940034727      -90.4413881685  TIP3      8281            0.0000000000
     76358      9641  TIP3      H2             18.0978711465       11.6349880693      -89.0722761340  TIP3      8281            0.0000000000
     76359      9642  TIP3      OH2            21.2906501971       12.6756081079      -93.7273689185  TIP3      8282            0.0000000000
     76360      9642  TIP3      H1             20.9382460061       13.5314542371      -94.0056361835  TIP3      8282            0.0000000000
     76361      9642  TIP3      H2             22.2143284839       12.7827478450      -94.0418740343  TIP3      8282            0.0000000000
     76362      9643  TIP3      OH2            25.5949575275       14.1031613797      -90.8281627770  TIP3      8283            0.0000000000
     76363      9643  TIP3      H1             25.7287632201       13.7577155724      -89.9138044772  TIP3      8283            0.0000000000
     76364      9643  TIP3      H2             26.4913937461       14.3478882698      -91.0821372275  TIP3      8283            0.0000000000
     76365      9644  TIP3      OH2            18.6987287189       15.9234876683      -93.7146318822  TIP3      8284            0.0000000000
     76366      9644  TIP3      H1             17.9718592497       16.4087149076      -94.1526974012  TIP3      8284            0.0000000000
     76367      9644  TIP3      H2             18.3473685799       15.7432828302      -92.8356345931  TIP3      8284            0.0000000000
     76368      9645  TIP3      OH2            21.1669097502       15.5148289464      -94.6783799344  TIP3      8285            0.0000000000
     76369      9645  TIP3      H1             20.2671562131       15.6503606075      -94.2740726276  TIP3      8285            0.0000000000
     76370      9645  TIP3      H2             21.0354042994       16.0606740698      -95.4586687452  TIP3      8285            0.0000000000
     76371      9646  TIP3      OH2            25.8354424351       15.4019142062      -95.4718812725  TIP3      8286            0.0000000000
     76372      9646  TIP3      H1             25.4072260035       15.9540917775      -96.1398091492  TIP3      8286            0.0000000000
     76373      9646  TIP3      H2             26.0391830033       16.0377525303      -94.7621769445  TIP3      8286            0.0000000000
     76374      9647  TIP3      OH2            30.7557824709       15.8228833661      -94.2100143373  TIP3      8287            0.0000000000
     76375      9647  TIP3      H1             30.6773248169       16.7735651575      -94.4345191093  TIP3      8287            0.0000000000
     76376      9647  TIP3      H2             30.9367261190       15.4329092357      -95.0747627507  TIP3      8287            0.0000000000
     76377      9648  TIP3      OH2            18.0980538861       14.5142874890      -96.8131322318  TIP3      8288            0.0000000000
     76378      9648  TIP3      H1             18.0755459141       14.1101232452      -95.9228197642  TIP3      8288            0.0000000000
     76379      9648  TIP3      H2             18.9528843819       14.2378089763      -97.1917899402  TIP3      8288            0.0000000000
     76380      9649  TIP3      OH2            20.2368442109       13.2446054204       96.5812403883  TIP3      8289            0.0000000000
     76381      9649  TIP3      H1             20.0667151240       12.3216379713       96.8039184325  TIP3      8289            0.0000000000
     76382      9649  TIP3      H2             21.0901416673       13.4259672031       97.0311340616  TIP3      8289            0.0000000000
     76383      9650  TIP3      OH2            22.8070245173       13.7527600660      -97.2832424243  TIP3      8290            0.0000000000
     76384      9650  TIP3      H1             23.0122610649       12.8323755168      -97.5300440862  TIP3      8290            0.0000000000
     76385      9650  TIP3      H2             22.8546144550       13.6994304886      -96.3135865755  TIP3      8290            0.0000000000
     76386      9651  TIP3      OH2            31.3823832491       -2.4890021578       96.7306966687  TIP3      8291            0.0000000000
     76387      9651  TIP3      H1             32.0209742794       -1.9514494234       96.2019480579  TIP3      8291            0.0000000000
     76388      9651  TIP3      H2             30.5333188940       -2.1617910932       96.4230891481  TIP3      8291            0.0000000000
     76389      9652  TIP3      OH2            33.2799309020       -1.3462708284       95.1875016375  TIP3      8292            0.0000000000
     76390      9652  TIP3      H1             33.7723606914       -1.8216903075       94.5096217974  TIP3      8292            0.0000000000
     76391      9652  TIP3      H2             33.5811220856       -0.4186473087       95.0491834636  TIP3      8292            0.0000000000
     76392      9653  TIP3      OH2            17.4000666546       -2.1905937235       90.1990912457  TIP3      8293            0.0000000000
     76393      9653  TIP3      H1             17.8931372662       -1.5712245313       89.6240936171  TIP3      8293            0.0000000000
     76394      9653  TIP3      H2             16.8319840879       -1.6140933001       90.7226044170  TIP3      8293            0.0000000000
     76395      9654  TIP3      OH2            19.2828651371       -0.3053634618       88.6859952261  TIP3      8294            0.0000000000
     76396      9654  TIP3      H1             19.8214436368       -0.8584158783       88.1208046719  TIP3      8294            0.0000000000
     76397      9654  TIP3      H2             19.9705437013        0.0459155184       89.2776575857  TIP3      8294            0.0000000000
     76398      9655  TIP3      OH2            24.3177003023        0.0149264653       91.1234372344  TIP3      8295            0.0000000000
     76399      9655  TIP3      H1             24.5274910933       -0.5918941606       91.8586822036  TIP3      8295            0.0000000000
     76400      9655  TIP3      H2             24.3064910417        0.8664520387       91.5941317436  TIP3      8295            0.0000000000
     76401      9656  TIP3      OH2            26.1827737139       15.0616950215       89.5103130458  TIP3      8296            0.0000000000
     76402      9656  TIP3      H1             27.0771606659       15.3408659615       89.3301398499  TIP3      8296            0.0000000000
     76403      9656  TIP3      H2             25.9760135565       14.5171870892       88.7314721872  TIP3      8296            0.0000000000
     76404      9657  TIP3      OH2            18.5420081428       -1.3983199685      -90.7913414662  TIP3      8297            0.0000000000
     76405      9657  TIP3      H1             18.1754880228       -2.2230467088      -90.4296948040  TIP3      8297            0.0000000000
     76406      9657  TIP3      H2             19.4634610549       -1.4565984358      -90.4561191795  TIP3      8297            0.0000000000
     76407      9658  TIP3      OH2            20.5626132730       -2.0256116600      -89.2165966363  TIP3      8298            0.0000000000
     76408      9658  TIP3      H1             21.4484873395       -2.3374600262      -89.4337001532  TIP3      8298            0.0000000000
     76409      9658  TIP3      H2             20.1483797405       -2.7998068514      -88.7764293174  TIP3      8298            0.0000000000
     76410      9659  TIP3      OH2            19.1889881570       14.7561935523       88.1432054032  TIP3      8299            0.0000000000
     76411      9659  TIP3      H1             18.8628372465       14.9893738524       89.0212662911  TIP3      8299            0.0000000000
     76412      9659  TIP3      H2             19.9395356239       14.1846304146       88.3089271152  TIP3      8299            0.0000000000
     76413      9660  TIP3      OH2            32.1203570186       13.2851725342      -90.3739040414  TIP3      8300            0.0000000000
     76414      9660  TIP3      H1             31.3678983471       13.1627538917      -90.9621130809  TIP3      8300            0.0000000000
     76415      9660  TIP3      H2             32.0637363132       14.2484043985      -90.2078094086  TIP3      8300            0.0000000000
     76416      9661  TIP3      OH2            37.8896965100        6.0444848064      -95.4193976983  TIP3      8301            0.0000000000
     76417      9661  TIP3      H1             37.8754494786        5.4687272341      -94.6381768680  TIP3      8301            0.0000000000
     76418      9661  TIP3      H2             38.5551746103        6.6758315264      -95.1018559423  TIP3      8301            0.0000000000
     76419      9662  TIP3      OH2            38.5738990855       10.5966399459      -96.8650174328  TIP3      8302            0.0000000000
     76420      9662  TIP3      H1             38.3187842288        9.6984651383      -97.1669656606  TIP3      8302            0.0000000000
     76421      9662  TIP3      H2             39.4912101180       10.5717406515      -96.6762301159  TIP3      8302            0.0000000000
     76422      9663  TIP3      OH2            36.1153025393        6.3652844207       95.4347518988  TIP3      8303            0.0000000000
     76423      9663  TIP3      H1             36.3160067562        5.5514992773       95.9168605125  TIP3      8303            0.0000000000
     76424      9663  TIP3      H2             36.8160898847        6.4347283905       94.7841920739  TIP3      8303            0.0000000000
     76425      9664  TIP3      OH2            36.7785539645        3.7849566103       96.5420358977  TIP3      8304            0.0000000000
     76426      9664  TIP3      H1             37.4906056381        3.2781244351       96.9537228921  TIP3      8304            0.0000000000
     76427      9664  TIP3      H2             36.8272240579        3.5016766238       95.6220127175  TIP3      8304            0.0000000000
     76428      9665  TIP3      OH2            39.9313849108        9.6687549738      -94.0080086286  TIP3      8305            0.0000000000
     76429      9665  TIP3      H1             40.0060317824       10.6494910417      -94.0962326872  TIP3      8305            0.0000000000
     76430      9665  TIP3      H2             39.1828577241        9.7582271475      -93.3605948954  TIP3      8305            0.0000000000
     76431      9666  TIP3      OH2            36.0081426168        9.5965864904       91.7134699225  TIP3      8306            0.0000000000
     76432      9666  TIP3      H1             35.8341038366        9.8474277385       90.7969974098  TIP3      8306            0.0000000000
     76433      9666  TIP3      H2             36.1125457959       10.4376228804       92.1830321294  TIP3      8306            0.0000000000
     76434      9667  TIP3      OH2            40.1487506031        7.3775729668       94.7106298927  TIP3      8307            0.0000000000
     76435      9667  TIP3      H1             39.9753591694        6.9642453699       93.8232594698  TIP3      8307            0.0000000000
     76436      9667  TIP3      H2             40.8295816579        6.7431780398       95.0212700672  TIP3      8307            0.0000000000
     76437      9668  TIP3      OH2            38.4680015357        6.6301676755      -92.5629560592  TIP3      8308            0.0000000000
     76438      9668  TIP3      H1             38.5809546988        7.2748351525      -91.8385629959  TIP3      8308            0.0000000000
     76439      9668  TIP3      H2             37.5349625233        6.7585891040      -92.7637540607  TIP3      8308            0.0000000000
     76440      9669  TIP3      OH2            39.8385628320       12.3897525738      -90.8623713262  TIP3      8309            0.0000000000
     76441      9669  TIP3      H1             39.8138532925       12.3413265583      -91.8258451759  TIP3      8309            0.0000000000
     76442      9669  TIP3      H2             38.8867175728       12.3927017282      -90.6670530629  TIP3      8309            0.0000000000
     76443      9670  TIP3      OH2            35.1377931195       11.5084471376      -96.8100953382  TIP3      8310            0.0000000000
     76444      9670  TIP3      H1             36.0875099647       11.3559063096      -96.7950158446  TIP3      8310            0.0000000000
     76445      9670  TIP3      H2             35.0406329881       12.3108478201      -96.2814316715  TIP3      8310            0.0000000000
     76446      9671  TIP3      OH2            38.3289779359       14.3687200038       94.0794938333  TIP3      8311            0.0000000000
     76447      9671  TIP3      H1             38.5148726444       13.9632730197       94.9547088186  TIP3      8311            0.0000000000
     76448      9671  TIP3      H2             37.5104323002       13.8890696286       93.8709422901  TIP3      8311            0.0000000000
     76449      9672  TIP3      OH2            37.6297185964       10.0752206842      -92.6287782010  TIP3      8312            0.0000000000
     76450      9672  TIP3      H1             37.8822970688        9.7045268929      -91.7516330667  TIP3      8312            0.0000000000
     76451      9672  TIP3      H2             36.8013440076        9.6197968390      -92.8004004117  TIP3      8312            0.0000000000
     76452      9673  TIP3      OH2            40.3382182491        3.6910244167      -94.6766565726  TIP3      8313            0.0000000000
     76453      9673  TIP3      H1             39.4552394876        3.3392884999      -94.7080308595  TIP3      8313            0.0000000000
     76454      9673  TIP3      H2             40.2884758065        4.1812974344      -95.5140734604  TIP3      8313            0.0000000000
     76455      9674  TIP3      OH2            34.7035954317        0.8964729837       94.9570277899  TIP3      8314            0.0000000000
     76456      9674  TIP3      H1             35.3759160146        0.8676933457       95.6616404782  TIP3      8314            0.0000000000
     76457      9674  TIP3      H2             35.1626817749        0.5041142900       94.1904311907  TIP3      8314            0.0000000000
     76458      9675  TIP3      OH2            35.9390938639        1.6063593400       90.3140843175  TIP3      8315            0.0000000000
     76459      9675  TIP3      H1             36.4465829060        2.2182381723       89.7811452889  TIP3      8315            0.0000000000
     76460      9675  TIP3      H2             35.2612022717        2.1839474045       90.6712790546  TIP3      8315            0.0000000000
     76461      9676  TIP3      OH2            38.2422756180        8.5675286047      -90.4286722721  TIP3      8316            0.0000000000
     76462      9676  TIP3      H1             38.9676006159        8.7555711910      -89.8058849322  TIP3      8316            0.0000000000
     76463      9676  TIP3      H2             37.4773338792        8.7003114444      -89.8421385778  TIP3      8316            0.0000000000
     76464      9677  TIP3      OH2            38.7216579134        7.8980083149       97.0744043366  TIP3      8317            0.0000000000
     76465      9677  TIP3      H1             39.2134665828        7.7485731179       96.2321336807  TIP3      8317            0.0000000000
     76466      9677  TIP3      H2             38.5810390368        6.9890895374       97.4015926179  TIP3      8317            0.0000000000
     76467      9678  TIP3      OH2            35.5728007056        6.2846936565      -92.4695755531  TIP3      8318            0.0000000000
     76468      9678  TIP3      H1             35.8106831159        5.8222471496      -91.6535204579  TIP3      8318            0.0000000000
     76469      9678  TIP3      H2             34.9380119478        5.6941545059      -92.9143488326  TIP3      8318            0.0000000000
     76470      9679  TIP3      OH2            36.9367284760       12.8370788605      -94.5157718613  TIP3      8319            0.0000000000
     76471      9679  TIP3      H1             37.0775025415       11.8759400269      -94.4783440370  TIP3      8319            0.0000000000
     76472      9679  TIP3      H2             37.0448330182       13.0703991465      -93.5819229522  TIP3      8319            0.0000000000
     76473      9680  TIP3      OH2            38.6999951245       10.7380683117       89.2970803338  TIP3      8320            0.0000000000
     76474      9680  TIP3      H1             39.3427873547       11.3788335839       89.6121160955  TIP3      8320            0.0000000000
     76475      9680  TIP3      H2             39.2022465746       10.2721856273       88.6296664301  TIP3      8320            0.0000000000
     76476      9681  TIP3      OH2            36.7678218369       12.1120990630       93.3190551820  TIP3      8321            0.0000000000
     76477      9681  TIP3      H1             35.9237723049       12.5688625198       93.2736985994  TIP3      8321            0.0000000000
     76478      9681  TIP3      H2             37.2708659877       12.5700573583       92.6378053438  TIP3      8321            0.0000000000
     76479      9682  TIP3      OH2            36.0102361630       14.7213498709      -90.1185918839  TIP3      8322            0.0000000000
     76480      9682  TIP3      H1             36.6073516979       14.5465826133      -89.3740605074  TIP3      8322            0.0000000000
     76481      9682  TIP3      H2             35.5848360673       13.8738213519      -90.2974505436  TIP3      8322            0.0000000000
     76482      9683  TIP3      OH2            35.8943405446        8.5312268032      -89.1169294793  TIP3      8323            0.0000000000
     76483      9683  TIP3      H1             36.1006375642        7.6326616097      -89.4478677767  TIP3      8323            0.0000000000
     76484      9683  TIP3      H2             35.1649358552        8.7647996595      -89.6979035670  TIP3      8323            0.0000000000
     76485      9684  TIP3      OH2            36.7693005448        5.7474075693      -89.7399960181  TIP3      8324            0.0000000000
     76486      9684  TIP3      H1             37.1737960184        4.8867128570      -89.8972311060  TIP3      8324            0.0000000000
     76487      9684  TIP3      H2             36.5873147419        5.7575933477      -88.7840339198  TIP3      8324            0.0000000000
     76488      9685  TIP3      OH2            35.9919770025       10.4393222417       88.7743505706  TIP3      8325            0.0000000000
     76489      9685  TIP3      H1             36.9367758930       10.4762334748       89.0278540860  TIP3      8325            0.0000000000
     76490      9685  TIP3      H2             35.9796661634        9.7582728893       88.0930282519  TIP3      8325            0.0000000000
     76491      9686  TIP3      OH2            34.7432599638       15.7765044188       93.7020844490  TIP3      8326            0.0000000000
     76492      9686  TIP3      H1             33.9636276405       15.3542392039       93.3392114659  TIP3      8326            0.0000000000
     76493      9686  TIP3      H2             34.9631254309       15.1565923377       94.4327364317  TIP3      8326            0.0000000000
     76494      9687  TIP3      OH2            35.4877285959       13.9284651165       95.6164052364  TIP3      8327            0.0000000000
     76495      9687  TIP3      H1             35.1895996029       13.0225111898       95.8046170836  TIP3      8327            0.0000000000
     76496      9687  TIP3      H2             35.7843108224       14.2227530859       96.4932161929  TIP3      8327            0.0000000000
     76497      9688  TIP3      OH2            35.5715702688        6.9538271248      -96.6083984940  TIP3      8328            0.0000000000
     76498      9688  TIP3      H1             35.7305418332        6.9013944808      -97.5740482269  TIP3      8328            0.0000000000
     76499      9688  TIP3      H2             36.4465154023        6.7876630418      -96.2210388058  TIP3      8328            0.0000000000
     76500      9689  TIP3      OH2            36.3797914900        0.5566247255       97.1162406926  TIP3      8329            0.0000000000
     76501      9689  TIP3      H1             36.8944216355       -0.2287217853       97.3553678466  TIP3      8329            0.0000000000
     76502      9689  TIP3      H2             36.9152201996        1.2477047929       97.5114224703  TIP3      8329            0.0000000000
     76503      9690  TIP3      OH2            34.7441732915        3.5244772069      -96.4984642374  TIP3      8330            0.0000000000
     76504      9690  TIP3      H1             35.2420711944        3.3618578450      -97.3202377678  TIP3      8330            0.0000000000
     76505      9690  TIP3      H2             35.0753354175        4.4020652565      -96.2723104563  TIP3      8330            0.0000000000
     76506      9691  TIP3      OH2            35.0425303000       -0.1398868202       92.3140610610  TIP3      8331            0.0000000000
     76507      9691  TIP3      H1             34.0941092209       -0.0325603946       92.1074680881  TIP3      8331            0.0000000000
     76508      9691  TIP3      H2             35.4791534880        0.2473981228       91.5403873042  TIP3      8331            0.0000000000
     76509      9692  TIP3      OH2            37.1958261531       11.7294184851      -89.9883190415  TIP3      8332            0.0000000000
     76510      9692  TIP3      H1             36.3583269878       11.9243787353      -90.4453062324  TIP3      8332            0.0000000000
     76511      9692  TIP3      H2             36.9157325278       11.6442282648      -89.0696217228  TIP3      8332            0.0000000000
     76512      9693  TIP3      OH2            39.8494752496       12.0948194742      -93.9026908420  TIP3      8333            0.0000000000
     76513      9693  TIP3      H1             39.3873587058       12.9499912618      -93.9562161493  TIP3      8333            0.0000000000
     76514      9693  TIP3      H2             40.7622774592       12.4707882953      -93.8234385940  TIP3      8333            0.0000000000
     76515      9694  TIP3      OH2            40.0732578156       15.8964658002      -95.1939159069  TIP3      8334            0.0000000000
     76516      9694  TIP3      H1             39.3781999317       15.8225002950      -94.5303653749  TIP3      8334            0.0000000000
     76517      9694  TIP3      H2             39.7459846900       16.4054670019      -95.9307853645  TIP3      8334            0.0000000000
     76518      9695  TIP3      OH2            36.9556830076       14.5884779548      -96.7563056758  TIP3      8335            0.0000000000
     76519      9695  TIP3      H1             36.9310244288       14.0709458834      -95.9300806428  TIP3      8335            0.0000000000
     76520      9695  TIP3      H2             37.7643809288       14.2421562219      -97.1948528956  TIP3      8335            0.0000000000
     76521      9696  TIP3      OH2            39.0467483946       13.3556093681       96.6581628053  TIP3      8336            0.0000000000
     76522      9696  TIP3      H1             38.8943482001       12.3999675141       96.7749366938  TIP3      8336            0.0000000000
     76523      9696  TIP3      H2             39.9437777521       13.4350915716       97.0122139041  TIP3      8336            0.0000000000
     76524      9697  TIP3      OH2            36.2387048660       13.7949080617       91.1052772459  TIP3      8337            0.0000000000
     76525      9697  TIP3      H1             35.5090332220       13.7399230460       90.4509303093  TIP3      8337            0.0000000000
     76526      9697  TIP3      H2             36.1727447329       14.7154277215       91.3659311830  TIP3      8337            0.0000000000
     76527      9698  TIP3      OH2            38.0752277579       14.7731469432       88.1458603482  TIP3      8338            0.0000000000
     76528      9698  TIP3      H1             37.7205411239       14.9643924758       89.0185008417  TIP3      8338            0.0000000000
     76529      9698  TIP3      H2             38.7960319483       14.1620236161       88.2881041589  TIP3      8338            0.0000000000
     76530      9699  TIP3      OH2           -28.8048175374       26.0538949254       94.3023255689  TIP3      8339            0.0000000000
     76531      9699  TIP3      H1            -28.8395339502       27.0329196044       94.2679240425  TIP3      8339            0.0000000000
     76532      9699  TIP3      H2            -29.5294950582       25.7899232245       93.7080532316  TIP3      8339            0.0000000000
     76533      9700  TIP3      OH2           -29.9234040012       25.2910698652      -96.9177157608  TIP3      8340            0.0000000000
     76534      9700  TIP3      H1            -30.0265936821       24.6107636700      -96.2583029012  TIP3      8340            0.0000000000
     76535      9700  TIP3      H2            -30.2988300996       24.8309930695      -97.6930933186  TIP3      8340            0.0000000000
     76536      9701  TIP3      OH2           -26.2694986371       28.2732294101       96.0623798016  TIP3      8341            0.0000000000
     76537      9701  TIP3      H1            -26.6605357953       27.5408926108       96.5491851821  TIP3      8341            0.0000000000
     76538      9701  TIP3      H2            -26.2558997383       28.9640079117       96.7537302289  TIP3      8341            0.0000000000
     76539      9702  TIP3      OH2           -39.7171684613       23.3175790291       92.7576822476  TIP3      8342            0.0000000000
     76540      9702  TIP3      H1            -40.3066985970       23.9180404209       93.2389060878  TIP3      8342            0.0000000000
     76541      9702  TIP3      H2            -40.3541093980       22.6373676154       92.5814820033  TIP3      8342            0.0000000000
     76542      9703  TIP3      OH2           -29.1265535624       33.4338318450       96.3324958504  TIP3      8343            0.0000000000
     76543      9703  TIP3      H1            -28.5391713486       32.6959493157       96.0264656427  TIP3      8343            0.0000000000
     76544      9703  TIP3      H2            -29.3641055178       33.0883990385       97.1904343112  TIP3      8343            0.0000000000
     76545      9704  TIP3      OH2           -31.4795748927       27.8114785752      -96.6514402938  TIP3      8344            0.0000000000
     76546      9704  TIP3      H1            -31.2435403013       27.0203534468      -97.1433579800  TIP3      8344            0.0000000000
     76547      9704  TIP3      H2            -30.8256000899       27.8303140785      -95.9569155323  TIP3      8344            0.0000000000
     76548      9705  TIP3      OH2           -22.9681374562       19.3471207015      -95.7216344112  TIP3      8345            0.0000000000
     76549      9705  TIP3      H1            -22.8304751060       19.9354926259      -94.9545727612  TIP3      8345            0.0000000000
     76550      9705  TIP3      H2            -22.4227508019       19.7738293096      -96.3899201997  TIP3      8345            0.0000000000
     76551      9706  TIP3      OH2           -28.4094084496       22.1535530874      -96.1450102530  TIP3      8346            0.0000000000
     76552      9706  TIP3      H1            -28.3131950673       21.1924531085      -96.1176535959  TIP3      8346            0.0000000000
     76553      9706  TIP3      H2            -28.5224986871       22.3141143241      -97.1000463838  TIP3      8346            0.0000000000
     76554      9707  TIP3      OH2           -35.2866137838       20.2431207308       95.8366057128  TIP3      8347            0.0000000000
     76555      9707  TIP3      H1            -35.1996535270       21.0991587906       95.3636879248  TIP3      8347            0.0000000000
     76556      9707  TIP3      H2            -35.6704511911       19.6799227016       95.1462627869  TIP3      8347            0.0000000000
     76557      9708  TIP3      OH2           -27.5769190525       20.3662400107       94.2000666977  TIP3      8348            0.0000000000
     76558      9708  TIP3      H1            -26.9024693294       20.0185283977       94.8197080529  TIP3      8348            0.0000000000
     76559      9708  TIP3      H2            -27.0248089999       20.8759228116       93.5899666667  TIP3      8348            0.0000000000
     76560      9709  TIP3      OH2           -22.5028614115       20.8195049925      -93.4550832620  TIP3      8349            0.0000000000
     76561      9709  TIP3      H1            -23.1921607972       21.5094920463      -93.5681496660  TIP3      8349            0.0000000000
     76562      9709  TIP3      H2            -22.5160988185       20.6690765486      -92.5066670739  TIP3      8349            0.0000000000
     76563      9710  TIP3      OH2           -36.3996851514       19.1641102819      -94.9058271038  TIP3      8350            0.0000000000
     76564      9710  TIP3      H1            -36.6888015889       19.7206172048      -95.6561944555  TIP3      8350            0.0000000000
     76565      9710  TIP3      H2            -37.0740667897       19.3928410459      -94.2206304597  TIP3      8350            0.0000000000
     76566      9711  TIP3      OH2           -29.0531972093       28.6355517496       93.3692501946  TIP3      8351            0.0000000000
     76567      9711  TIP3      H1            -29.3672895427       28.3436009492       92.5078851730  TIP3      8351            0.0000000000
     76568      9711  TIP3      H2            -29.3720185765       29.5517869634       93.4374883891  TIP3      8351            0.0000000000
     76569      9712  TIP3      OH2           -25.7817593820       19.6694879893       96.1872257507  TIP3      8352            0.0000000000
     76570      9712  TIP3      H1            -25.9370702368       18.8825310535       96.7188889136  TIP3      8352            0.0000000000
     76571      9712  TIP3      H2            -25.1001685597       20.1300859142       96.7180543323  TIP3      8352            0.0000000000
     76572      9713  TIP3      OH2           -36.8557609163       21.0101709692      -96.8490401046  TIP3      8353            0.0000000000
     76573      9713  TIP3      H1            -36.2284347956       21.6911771405      -96.5404949152  TIP3      8353            0.0000000000
     76574      9713  TIP3      H2            -36.3297276262       20.6110811527      -97.5816124343  TIP3      8353            0.0000000000
     76575      9714  TIP3      OH2           -25.7712242862       30.0574402339      -96.3738486677  TIP3      8354            0.0000000000
     76576      9714  TIP3      H1            -26.7080571700       30.1926365780      -96.1482792861  TIP3      8354            0.0000000000
     76577      9714  TIP3      H2            -25.4742799499       30.9877085711      -96.4479693386  TIP3      8354            0.0000000000
     76578      9715  TIP3      OH2           -32.4256482521       16.4809784693      -97.4078071727  TIP3      8355            0.0000000000
     76579      9715  TIP3      H1            -32.5787251437       15.5396755042      -97.5288393321  TIP3      8355            0.0000000000
     76580      9715  TIP3      H2            -33.3210086235       16.7860560643      -97.1690311400  TIP3      8355            0.0000000000
     76581      9716  TIP3      OH2           -27.5167995720       31.8667308922       94.9976203285  TIP3      8356            0.0000000000
     76582      9716  TIP3      H1            -27.0247840737       31.1565312610       94.5497540886  TIP3      8356            0.0000000000
     76583      9716  TIP3      H2            -27.0554582426       32.6728887746       94.6759638969  TIP3      8356            0.0000000000
     76584      9717  TIP3      OH2           -26.3415501098       29.7976026313       93.5241434058  TIP3      8357            0.0000000000
     76585      9717  TIP3      H1            -26.5767310135       29.0663612920       92.9451319386  TIP3      8357            0.0000000000
     76586      9717  TIP3      H2            -26.2385702366       29.3283694142       94.3803028139  TIP3      8357            0.0000000000
     76587      9718  TIP3      OH2           -30.1410476803       25.3266541610       91.8178645417  TIP3      8358            0.0000000000
     76588      9718  TIP3      H1            -30.8667798266       25.8145052769       91.4261092228  TIP3      8358            0.0000000000
     76589      9718  TIP3      H2            -29.4614631134       25.3775288692       91.1216605511  TIP3      8358            0.0000000000
     76590      9719  TIP3      OH2           -30.1273066317       23.7312145082       88.9319934874  TIP3      8359            0.0000000000
     76591      9719  TIP3      H1            -29.3495147312       23.7996722101       89.4952683413  TIP3      8359            0.0000000000
     76592      9719  TIP3      H2            -29.7900544346       23.2038095735       88.1922669042  TIP3      8359            0.0000000000
     76593      9720  TIP3      OH2           -22.8074089433       24.6561983748      -94.6646541120  TIP3      8360            0.0000000000
     76594      9720  TIP3      H1            -23.4280433246       25.4104248326      -94.5599613166  TIP3      8360            0.0000000000
     76595      9720  TIP3      H2            -22.2811236082       24.9369105340      -95.4370527903  TIP3      8360            0.0000000000
     76596      9721  TIP3      OH2           -26.7150033580       25.4960577290       92.7299511694  TIP3      8361            0.0000000000
     76597      9721  TIP3      H1            -27.4562549970       25.7253809349       93.3437445336  TIP3      8361            0.0000000000
     76598      9721  TIP3      H2            -26.2552251921       24.8192108821       93.2674227031  TIP3      8361            0.0000000000
     76599      9722  TIP3      OH2           -26.7932178663       23.6653619867      -92.8890172101  TIP3      8362            0.0000000000
     76600      9722  TIP3      H1            -26.7977912857       24.4639927777      -92.3338675053  TIP3      8362            0.0000000000
     76601      9722  TIP3      H2            -27.4316591092       23.9382147743      -93.5630730057  TIP3      8362            0.0000000000
     76602      9723  TIP3      OH2           -28.4526803019       30.4383675990      -95.7359250481  TIP3      8363            0.0000000000
     76603      9723  TIP3      H1            -28.6397960774       31.1022859896      -95.0586460802  TIP3      8363            0.0000000000
     76604      9723  TIP3      H2            -28.6112942725       29.6165968874      -95.2571920965  TIP3      8363            0.0000000000
     76605      9724  TIP3      OH2           -27.8482328111       24.6816895062       90.3974065613  TIP3      8364            0.0000000000
     76606      9724  TIP3      H1            -27.3088066460       24.8726412064       91.2067285815  TIP3      8364            0.0000000000
     76607      9724  TIP3      H2            -27.4596555623       25.2150443337       89.7052508813  TIP3      8364            0.0000000000
     76608      9725  TIP3      OH2           -39.6959102002       27.3519050450      -93.7883307358  TIP3      8365            0.0000000000
     76609      9725  TIP3      H1            -40.4784403663       27.5647121129      -94.3222865287  TIP3      8365            0.0000000000
     76610      9725  TIP3      H2            -39.9929940555       26.5748425873      -93.2917347232  TIP3      8365            0.0000000000
     76611      9726  TIP3      OH2           -31.1211287224       30.7083085173      -92.2700598745  TIP3      8366            0.0000000000
     76612      9726  TIP3      H1            -31.0438607273       31.4894702465      -91.6899633441  TIP3      8366            0.0000000000
     76613      9726  TIP3      H2            -31.9249246842       30.2524924676      -91.9826811773  TIP3      8366            0.0000000000
     76614      9727  TIP3      OH2           -30.6479848860       34.3155636236       92.2790686801  TIP3      8367            0.0000000000
     76615      9727  TIP3      H1            -30.7684141435       34.2568358206       91.3205260823  TIP3      8367            0.0000000000
     76616      9727  TIP3      H2            -30.6380897193       35.2774430633       92.4672480757  TIP3      8367            0.0000000000
     76617      9728  TIP3      OH2           -37.0315932740       33.2470103730       94.1503650496  TIP3      8368            0.0000000000
     76618      9728  TIP3      H1            -36.8786466134       32.7042733514       94.9217845565  TIP3      8368            0.0000000000
     76619      9728  TIP3      H2            -37.8377695311       32.7968884294       93.8142574388  TIP3      8368            0.0000000000
     76620      9729  TIP3      OH2           -27.6392640727       33.5090937383       89.2652040303  TIP3      8369            0.0000000000
     76621      9729  TIP3      H1            -27.1566387586       32.7678746264       88.8352640686  TIP3      8369            0.0000000000
     76622      9729  TIP3      H2            -27.5528739455       33.2805336136       90.2089825324  TIP3      8369            0.0000000000
     76623      9730  TIP3      OH2           -27.9144238612       33.4426998585       92.0292686072  TIP3      8370            0.0000000000
     76624      9730  TIP3      H1            -28.8602746217       33.5654833319       92.2529908075  TIP3      8370            0.0000000000
     76625      9730  TIP3      H2            -27.6494711817       32.7374789164       92.6387573075  TIP3      8370            0.0000000000
     76626      9731  TIP3      OH2           -24.8848672394       22.4819478111      -90.6114370467  TIP3      8371            0.0000000000
     76627      9731  TIP3      H1            -25.3677269648       22.9533160311      -91.3135069913  TIP3      8371            0.0000000000
     76628      9731  TIP3      H2            -24.9236017020       21.5757907813      -90.9459903066  TIP3      8371            0.0000000000
     76629      9732  TIP3      OH2           -35.0688497035       17.3935752946      -96.6873562526  TIP3      8372            0.0000000000
     76630      9732  TIP3      H1            -35.9877509648       17.2601445022      -97.0120393851  TIP3      8372            0.0000000000
     76631      9732  TIP3      H2            -35.1926329642       18.1972339575      -96.1684319548  TIP3      8372            0.0000000000
     76632      9733  TIP3      OH2           -30.4426525976       17.0605780263      -93.2928030342  TIP3      8373            0.0000000000
     76633      9733  TIP3      H1            -30.0877425033       16.6704870024      -92.4921854356  TIP3      8373            0.0000000000
     76634      9733  TIP3      H2            -31.4159326069       16.9414694343      -93.1848820823  TIP3      8373            0.0000000000
     76635      9734  TIP3      OH2           -27.0929755985       20.8941682093      -92.3444077881  TIP3      8374            0.0000000000
     76636      9734  TIP3      H1            -27.7661036807       20.7004289542      -91.6476281420  TIP3      8374            0.0000000000
     76637      9734  TIP3      H2            -27.3423236359       21.7751039803      -92.6564681853  TIP3      8374            0.0000000000
     76638      9735  TIP3      OH2           -34.9851760156       22.3518238945      -95.4423312615  TIP3      8375            0.0000000000
     76639      9735  TIP3      H1            -35.7303562220       22.3460488529      -94.8136712755  TIP3      8375            0.0000000000
     76640      9735  TIP3      H2            -35.0218705938       23.2473919088      -95.7962194611  TIP3      8375            0.0000000000
     76641      9736  TIP3      OH2           -29.5176925844       22.9732094911       92.9315126403  TIP3      8376            0.0000000000
     76642      9736  TIP3      H1            -29.9130162850       23.8052132719       92.6108411128  TIP3      8376            0.0000000000
     76643      9736  TIP3      H2            -28.8265695925       22.7979226158       92.2794958048  TIP3      8376            0.0000000000
     76644      9737  TIP3      OH2           -30.4165321748       23.1717627125      -90.3282533480  TIP3      8377            0.0000000000
     76645      9737  TIP3      H1            -30.9770422718       22.4191691652      -90.0405439822  TIP3      8377            0.0000000000
     76646      9737  TIP3      H2            -29.5989479973       23.0259399685      -89.8274167879  TIP3      8377            0.0000000000
     76647      9738  TIP3      OH2           -28.4838505770       22.4518402841       95.7763680601  TIP3      8378            0.0000000000
     76648      9738  TIP3      H1            -28.7626608553       23.0123437872       95.0298706434  TIP3      8378            0.0000000000
     76649      9738  TIP3      H2            -28.3827709631       21.6085704870       95.2865437123  TIP3      8378            0.0000000000
     76650      9739  TIP3      OH2           -37.3254349622       22.6586618737      -93.6936501815  TIP3      8379            0.0000000000
     76651      9739  TIP3      H1            -37.3460109137       23.0508583776      -92.8110913671  TIP3      8379            0.0000000000
     76652      9739  TIP3      H2            -37.8221694557       21.8452047713      -93.5427417904  TIP3      8379            0.0000000000
     76653      9740  TIP3      OH2           -40.2938738202       19.7619794923       94.4994897987  TIP3      8380            0.0000000000
     76654      9740  TIP3      H1            -40.0264255663       19.6206090867       95.4462376108  TIP3      8380            0.0000000000
     76655      9740  TIP3      H2            -39.9127080745       19.0169807658       94.0301154437  TIP3      8380            0.0000000000
     76656      9741  TIP3      OH2           -39.2177363345       20.6821388965       90.5358773089  TIP3      8381            0.0000000000
     76657      9741  TIP3      H1            -38.8624675766       21.1339651085       89.7456414289  TIP3      8381            0.0000000000
     76658      9741  TIP3      H2            -40.0158497099       21.2129083499       90.6236962655  TIP3      8381            0.0000000000
     76659      9742  TIP3      OH2           -32.4536919419       19.9457652565       95.1516948826  TIP3      8382            0.0000000000
     76660      9742  TIP3      H1            -33.3766195606       19.9979533527       95.4477418422  TIP3      8382            0.0000000000
     76661      9742  TIP3      H2            -32.0033049866       19.9037470114       95.9933249927  TIP3      8382            0.0000000000
     76662      9743  TIP3      OH2           -24.7609782531       34.8147401255      -90.0190732379  TIP3      8383            0.0000000000
     76663      9743  TIP3      H1            -24.6773499703       35.3461669394      -90.8177016255  TIP3      8383            0.0000000000
     76664      9743  TIP3      H2            -24.1738554521       35.2523122492      -89.3944079074  TIP3      8383            0.0000000000
     76665      9744  TIP3      OH2           -31.1375431842       22.7918405076       97.0894437976  TIP3      8384            0.0000000000
     76666      9744  TIP3      H1            -30.6278072750       22.2336028660       96.4895148411  TIP3      8384            0.0000000000
     76667      9744  TIP3      H2            -31.3454680493       22.2228625056       97.8366590144  TIP3      8384            0.0000000000
     76668      9745  TIP3      OH2           -32.5119204260       21.1386448326      -95.2511583449  TIP3      8385            0.0000000000
     76669      9745  TIP3      H1            -33.3678869382       21.6075004901      -95.1497326751  TIP3      8385            0.0000000000
     76670      9745  TIP3      H2            -32.0122090091       21.4617597448      -94.4971062115  TIP3      8385            0.0000000000
     76671      9746  TIP3      OH2           -24.7535976610       26.5040052639      -94.7784176912  TIP3      8386            0.0000000000
     76672      9746  TIP3      H1            -24.2237027532       27.0642708553      -95.3406733855  TIP3      8386            0.0000000000
     76673      9746  TIP3      H2            -25.6308838220       26.5819679782      -95.2057454640  TIP3      8386            0.0000000000
     76674      9747  TIP3      OH2           -28.0835005137       20.1699735448       89.3243012940  TIP3      8387            0.0000000000
     76675      9747  TIP3      H1            -29.0324599180       20.2905231300       89.2139822774  TIP3      8387            0.0000000000
     76676      9747  TIP3      H2            -27.8215695419       21.0402872520       89.6739641511  TIP3      8387            0.0000000000
     76677      9748  TIP3      OH2           -27.3603192804       22.0563533574       91.0130808346  TIP3      8388            0.0000000000
     76678      9748  TIP3      H1            -26.4667016144       21.9445927664       91.3883887123  TIP3      8388            0.0000000000
     76679      9748  TIP3      H2            -27.3135104518       22.8819352397       90.5058273312  TIP3      8388            0.0000000000
     76680      9749  TIP3      OH2           -29.8418350791       28.7959171469       90.3187001056  TIP3      8389            0.0000000000
     76681      9749  TIP3      H1            -30.2076627995       29.6572383101       90.5404601409  TIP3      8389            0.0000000000
     76682      9749  TIP3      H2            -30.6101688455       28.2093687456       90.3620890140  TIP3      8389            0.0000000000
     76683      9750  TIP3      OH2           -39.8736009794       25.1116886258      -92.4594992598  TIP3      8390            0.0000000000
     76684      9750  TIP3      H1            -39.6253018722       24.7090861327      -91.6243353510  TIP3      8390            0.0000000000
     76685      9750  TIP3      H2            -40.4882193238       24.4942105700      -92.8700648420  TIP3      8390            0.0000000000
     76686      9751  TIP3      OH2           -28.1820520942       30.0019429086      -92.3456196272  TIP3      8391            0.0000000000
     76687      9751  TIP3      H1            -29.0958187297       30.2142056991      -92.5972842740  TIP3      8391            0.0000000000
     76688      9751  TIP3      H2            -28.1830689917       30.3245361768      -91.4264937185  TIP3      8391            0.0000000000
     76689      9752  TIP3      OH2           -22.5576213795       22.2444437430       90.7688140923  TIP3      8392            0.0000000000
     76690      9752  TIP3      H1            -23.0203354644       21.8636418462       90.0080377146  TIP3      8392            0.0000000000
     76691      9752  TIP3      H2            -22.3827064803       23.1563506280       90.4487725445  TIP3      8392            0.0000000000
     76692      9753  TIP3      OH2           -22.5737463796       27.9911301501      -91.1669566236  TIP3      8393            0.0000000000
     76693      9753  TIP3      H1            -23.3881821842       28.3693704268      -91.5136657527  TIP3      8393            0.0000000000
     76694      9753  TIP3      H2            -21.9501357264       28.0813156370      -91.9255945193  TIP3      8393            0.0000000000
     76695      9754  TIP3      OH2           -24.1731829077       31.0383487356       91.1662602236  TIP3      8394            0.0000000000
     76696      9754  TIP3      H1            -24.5617778212       30.2323904408       91.5194021199  TIP3      8394            0.0000000000
     76697      9754  TIP3      H2            -23.8967684972       30.8394376634       90.2656042996  TIP3      8394            0.0000000000
     76698      9755  TIP3      OH2           -27.0063825809       25.8527452447      -96.4585160315  TIP3      8395            0.0000000000
     76699      9755  TIP3      H1            -27.9452020348       25.6483603426      -96.6097765263  TIP3      8395            0.0000000000
     76700      9755  TIP3      H2            -26.5698268158       25.0970460566      -96.8899342514  TIP3      8395            0.0000000000
     76701      9756  TIP3      OH2           -32.5769695195       32.0459630478      -94.4753472723  TIP3      8396            0.0000000000
     76702      9756  TIP3      H1            -32.0910762430       32.8404414919      -94.7212108478  TIP3      8396            0.0000000000
     76703      9756  TIP3      H2            -32.0051584522       31.6816386951      -93.7755938145  TIP3      8396            0.0000000000
     76704      9757  TIP3      OH2           -34.3867811068       32.8392765259       93.4867613921  TIP3      8397            0.0000000000
     76705      9757  TIP3      H1            -35.3519260869       32.9869485676       93.5089037136  TIP3      8397            0.0000000000
     76706      9757  TIP3      H2            -34.0094495406       33.7057122931       93.7162463146  TIP3      8397            0.0000000000
     76707      9758  TIP3      OH2           -26.8337406267       29.0761332013       89.0362979706  TIP3      8398            0.0000000000
     76708      9758  TIP3      H1            -26.4905241276       28.6298208707       89.8378488600  TIP3      8398            0.0000000000
     76709      9758  TIP3      H2            -27.7895644493       28.9294562396       89.0893857071  TIP3      8398            0.0000000000
     76710      9759  TIP3      OH2           -22.2988845534       33.4940306098       89.1639280581  TIP3      8399            0.0000000000
     76711      9759  TIP3      H1            -21.5867981339       34.1168754237       89.0515130625  TIP3      8399            0.0000000000
     76712      9759  TIP3      H2            -22.9982219804       34.0498559525       89.5688623430  TIP3      8399            0.0000000000
     76713      9760  TIP3      OH2           -38.2305582234       19.8605539650      -92.9155020066  TIP3      8400            0.0000000000
     76714      9760  TIP3      H1            -39.1371935935       20.1953723942      -92.9243448247  TIP3      8400            0.0000000000
     76715      9760  TIP3      H2            -38.3284006151       19.0029832660      -92.4854501180  TIP3      8400            0.0000000000
     76716      9761  TIP3      OH2           -25.9676771214       27.6901575852       91.2197418588  TIP3      8401            0.0000000000
     76717      9761  TIP3      H1            -26.2361604097       26.9337147050       91.7888850989  TIP3      8401            0.0000000000
     76718      9761  TIP3      H2            -25.0633468570       27.8347379025       91.5005084284  TIP3      8401            0.0000000000
     76719      9762  TIP3      OH2           -28.7267474377       19.2278946686       91.8391623334  TIP3      8402            0.0000000000
     76720      9762  TIP3      H1            -28.5033308721       19.7035727524       91.0262428383  TIP3      8402            0.0000000000
     76721      9762  TIP3      H2            -28.1742120326       19.6745076018       92.4878952113  TIP3      8402            0.0000000000
     76722      9763  TIP3      OH2           -30.5882080201       18.0230239868       93.6287234008  TIP3      8403            0.0000000000
     76723      9763  TIP3      H1            -31.0294350894       18.6990011124       94.1610682705  TIP3      8403            0.0000000000
     76724      9763  TIP3      H2            -29.9831701967       18.5652813424       93.0846428092  TIP3      8403            0.0000000000
     76725      9764  TIP3      OH2           -33.7082168037       32.4153254630       90.6699596006  TIP3      8404            0.0000000000
     76726      9764  TIP3      H1            -33.4904258052       33.2150661964       90.1562323385  TIP3      8404            0.0000000000
     76727      9764  TIP3      H2            -33.9042133962       32.7586594512       91.5552480661  TIP3      8404            0.0000000000
     76728      9765  TIP3      OH2           -24.7489169942       19.8516117129      -92.0279716473  TIP3      8405            0.0000000000
     76729      9765  TIP3      H1            -25.6860392698       20.1647587642      -92.1571068079  TIP3      8405            0.0000000000
     76730      9765  TIP3      H2            -24.4761321466       19.8379060765      -92.9587699163  TIP3      8405            0.0000000000
     76731      9766  TIP3      OH2           -26.1495086155       23.6712144769       96.6935501957  TIP3      8406            0.0000000000
     76732      9766  TIP3      H1            -26.9811358546       23.2212379761       96.4430841704  TIP3      8406            0.0000000000
     76733      9766  TIP3      H2            -25.6808550264       22.9765107928       97.2177351771  TIP3      8406            0.0000000000
     76734      9767  TIP3      OH2           -25.0573509092       32.8664292850      -96.3494973441  TIP3      8407            0.0000000000
     76735      9767  TIP3      H1            -25.2288378062       33.5852964438      -96.9901543206  TIP3      8407            0.0000000000
     76736      9767  TIP3      H2            -24.1006603381       32.9836851960      -96.2341447109  TIP3      8407            0.0000000000
     76737      9768  TIP3      OH2           -37.5861485217       17.0460222165       97.1523201011  TIP3      8408            0.0000000000
     76738      9768  TIP3      H1            -37.8306079137       17.0688718426       96.2024800908  TIP3      8408            0.0000000000
     76739      9768  TIP3      H2            -38.0493313073       16.2345782408       97.4162716106  TIP3      8408            0.0000000000
     76740      9769  TIP3      OH2           -38.6181976446       31.0677851454       93.4244930774  TIP3      8409            0.0000000000
     76741      9769  TIP3      H1            -39.5165425951       31.3943770634       93.2698855582  TIP3      8409            0.0000000000
     76742      9769  TIP3      H2            -38.1972720982       31.3994303646       92.6140082512  TIP3      8409            0.0000000000
     76743      9770  TIP3      OH2           -39.3893998867       33.5424793249      -90.0986403785  TIP3      8410            0.0000000000
     76744      9770  TIP3      H1            -38.7738681177       33.3737494664      -89.3683979446  TIP3      8410            0.0000000000
     76745      9770  TIP3      H2            -39.8261839766       32.7226060647      -90.3747115399  TIP3      8410            0.0000000000
     76746      9771  TIP3      OH2           -34.7887824778       32.4999131863      -88.5403181712  TIP3      8411            0.0000000000
     76747      9771  TIP3      H1            -34.0476734219       32.0377581354      -88.1244599489  TIP3      8411            0.0000000000
     76748      9771  TIP3      H2            -34.7473917577       32.2507710619      -89.4635081797  TIP3      8411            0.0000000000
     76749      9772  TIP3      OH2           -28.2674980509       30.8887192948      -89.7668773570  TIP3      8412            0.0000000000
     76750      9772  TIP3      H1            -28.5646367021       30.0075281544      -89.4741526778  TIP3      8412            0.0000000000
     76751      9772  TIP3      H2            -27.4951676848       31.0333558578      -89.1879269736  TIP3      8412            0.0000000000
     76752      9773  TIP3      OH2           -26.0872119774       31.8199254455       87.8166842362  TIP3      8413            0.0000000000
     76753      9773  TIP3      H1            -25.8236856373       31.0131947121       88.2899149824  TIP3      8413            0.0000000000
     76754      9773  TIP3      H2            -25.3105964778       32.0543386716       87.3015554108  TIP3      8413            0.0000000000
     76755      9774  TIP3      OH2           -39.2028413480       27.3618817755      -89.3490110255  TIP3      8414            0.0000000000
     76756      9774  TIP3      H1            -39.1507889088       26.4153015708      -89.6000941082  TIP3      8414            0.0000000000
     76757      9774  TIP3      H2            -39.9340887488       27.6281621248      -89.9246240012  TIP3      8414            0.0000000000
     76758      9775  TIP3      OH2           -27.0782149618       27.2552989751      -92.3598163996  TIP3      8415            0.0000000000
     76759      9775  TIP3      H1            -26.3294885071       27.8636256475      -92.4363762758  TIP3      8415            0.0000000000
     76760      9775  TIP3      H2            -27.8193630639       27.8788764486      -92.3128537597  TIP3      8415            0.0000000000
     76761      9776  TIP3      OH2           -38.6521826516       24.5753109830      -89.7392962079  TIP3      8416            0.0000000000
     76762      9776  TIP3      H1            -38.1716042244       23.7487916509      -89.8886782709  TIP3      8416            0.0000000000
     76763      9776  TIP3      H2            -38.9309154167       24.5349333202      -88.8341366918  TIP3      8416            0.0000000000
     76764      9777  TIP3      OH2           -29.6552646240       26.1451321511      -88.9872257408  TIP3      8417            0.0000000000
     76765      9777  TIP3      H1            -28.7106821862       26.0852313952      -89.1615672818  TIP3      8417            0.0000000000
     76766      9777  TIP3      H2            -29.8138714444       25.3258023147      -88.5034036078  TIP3      8417            0.0000000000
     76767      9778  TIP3      OH2           -33.9008158216       19.2957634066      -93.8051614391  TIP3      8418            0.0000000000
     76768      9778  TIP3      H1            -33.3937952369       19.7864072820      -94.4840289895  TIP3      8418            0.0000000000
     76769      9778  TIP3      H2            -34.7941471383       19.2396715117      -94.2102382817  TIP3      8418            0.0000000000
     76770      9779  TIP3      OH2           -27.9626194310       22.5653904938      -88.5159317300  TIP3      8419            0.0000000000
     76771      9779  TIP3      H1            -27.7525916752       21.6284031605      -88.6070209814  TIP3      8419            0.0000000000
     76772      9779  TIP3      H2            -27.0962354987       22.9905531530      -88.5389567691  TIP3      8419            0.0000000000
     76773      9780  TIP3      OH2           -26.6151398161       25.3553039977      -90.4079290775  TIP3      8420            0.0000000000
     76774      9780  TIP3      H1            -26.8852214250       26.0632882912      -91.0281939169  TIP3      8420            0.0000000000
     76775      9780  TIP3      H2            -25.6625757046       25.3126819170      -90.6134732349  TIP3      8420            0.0000000000
     76776      9781  TIP3      OH2           -33.1479579502       16.7448401997      -93.3495959967  TIP3      8421            0.0000000000
     76777      9781  TIP3      H1            -33.2649768139       17.7171777956      -93.4648792222  TIP3      8421            0.0000000000
     76778      9781  TIP3      H2            -33.8899141470       16.3867013719      -93.8570733398  TIP3      8421            0.0000000000
     76779      9782  TIP3      OH2           -31.8501962945       21.0387558077      -89.7679677703  TIP3      8422            0.0000000000
     76780      9782  TIP3      H1            -32.1299539857       20.8503682767      -88.8574855273  TIP3      8422            0.0000000000
     76781      9782  TIP3      H2            -32.6240796653       20.8616513194      -90.3084586062  TIP3      8422            0.0000000000
     76782      9783  TIP3      OH2           -29.0997838635       20.2006451218      -90.6849214470  TIP3      8423            0.0000000000
     76783      9783  TIP3      H1            -30.0584753426       20.2640525116      -90.5662317786  TIP3      8423            0.0000000000
     76784      9783  TIP3      H2            -28.8154157699       19.5950917572      -89.9863318106  TIP3      8423            0.0000000000
     76785      9784  TIP3      OH2           -27.6210580791       18.9052690045      -88.7224549351  TIP3      8424            0.0000000000
     76786      9784  TIP3      H1            -27.5040999223       17.9472688156      -88.7122051171  TIP3      8424            0.0000000000
     76787      9784  TIP3      H2            -27.8092197634       19.1375719237      -87.8057630128  TIP3      8424            0.0000000000
     76788      9785  TIP3      OH2           -32.5608206334       17.6780547277      -88.5815094396  TIP3      8425            0.0000000000
     76789      9785  TIP3      H1            -32.6589097836       17.3107489173      -89.4611189943  TIP3      8425            0.0000000000
     76790      9785  TIP3      H2            -33.0926579082       18.5008277914      -88.6605985107  TIP3      8425            0.0000000000
     76791      9786  TIP3      OH2           -33.0699696670       34.7103760172       89.3115653908  TIP3      8426            0.0000000000
     76792      9786  TIP3      H1            -32.0961199832       34.7542911237       89.3883065698  TIP3      8426            0.0000000000
     76793      9786  TIP3      H2            -33.2675768792       35.3057791820       88.5894055186  TIP3      8426            0.0000000000
     76794      9787  TIP3      OH2           -39.4290341699       29.3499457397       88.6710311173  TIP3      8427            0.0000000000
     76795      9787  TIP3      H1            -38.5385643703       29.3445352201       89.0226992836  TIP3      8427            0.0000000000
     76796      9787  TIP3      H2            -39.4430119143       28.6072931496       88.0645606228  TIP3      8427            0.0000000000
     76797      9788  TIP3      OH2            40.7355374063       34.6503060052       93.7580263468  TIP3      8428            0.0000000000
     76798      9788  TIP3      H1             39.9788172274       34.1546652908       93.4602100807  TIP3      8428            0.0000000000
     76799      9788  TIP3      H2             40.9834279875       34.0261362532       94.4676068054  TIP3      8428            0.0000000000
     76800      9789  TIP3      OH2           -39.8073948342       32.7556937305       95.6080457427  TIP3      8429            0.0000000000
     76801      9789  TIP3      H1            -40.2582836835       31.8993769533       95.7401414839  TIP3      8429            0.0000000000
     76802      9789  TIP3      H2            -39.6957745029       33.0773047250       96.5026133864  TIP3      8429            0.0000000000
     76803      9790  TIP3      OH2           -22.4455338867       33.6465859540      -96.2309513296  TIP3      8430            0.0000000000
     76804      9790  TIP3      H1            -22.3844092918       33.7378484531      -95.2778726792  TIP3      8430            0.0000000000
     76805      9790  TIP3      H2            -21.6494455014       34.0979380677      -96.5155366386  TIP3      8430            0.0000000000
     76806      9791  TIP3      OH2           -24.3649278222       28.8890459631      -88.5559979167  TIP3      8431            0.0000000000
     76807      9791  TIP3      H1            -25.2492019329       28.8207986249      -88.1520194427  TIP3      8431            0.0000000000
     76808      9791  TIP3      H2            -23.9854068874       29.6524058043      -88.1141064936  TIP3      8431            0.0000000000
     76809      9792  TIP3      OH2           -22.6591383525       25.2210761770       93.4857257789  TIP3      8432            0.0000000000
     76810      9792  TIP3      H1            -23.4290462664       24.7702279834       93.8892440570  TIP3      8432            0.0000000000
     76811      9792  TIP3      H2            -22.0859297267       25.4007349154       94.2490325291  TIP3      8432            0.0000000000
     76812      9793  TIP3      OH2           -22.4027943595       25.1126284420       89.8856970512  TIP3      8433            0.0000000000
     76813      9793  TIP3      H1            -22.9613561729       25.4503286989       89.1775315464  TIP3      8433            0.0000000000
     76814      9793  TIP3      H2            -22.4113484248       25.7941045524       90.5693536557  TIP3      8433            0.0000000000
     76815      9794  TIP3      OH2           -24.8915617489       23.7578775437       94.0451435895  TIP3      8434            0.0000000000
     76816      9794  TIP3      H1            -25.0228192917       22.8012738892       94.0475938512  TIP3      8434            0.0000000000
     76817      9794  TIP3      H2            -25.1878522324       23.9925167047       94.9443301144  TIP3      8434            0.0000000000
     76818      9795  TIP3      OH2           -39.8478640739       25.8062841064      -96.6536357240  TIP3      8435            0.0000000000
     76819      9795  TIP3      H1            -39.6509446167       25.7473098253      -97.5877086503  TIP3      8435            0.0000000000
     76820      9795  TIP3      H2            -39.0061703386       25.7114996171      -96.1986455037  TIP3      8435            0.0000000000
     76821      9796  TIP3      OH2           -24.0176533495       25.7173816458      -91.0009730152  TIP3      8436            0.0000000000
     76822      9796  TIP3      H1            -23.3885515669       24.9840259899      -90.8417004392  TIP3      8436            0.0000000000
     76823      9796  TIP3      H2            -23.4039054097       26.4854873916      -90.9714285970  TIP3      8436            0.0000000000
     76824      9797  TIP3      OH2           -22.5071571115       23.6031448918      -90.3427110984  TIP3      8437            0.0000000000
     76825      9797  TIP3      H1            -23.3892211090       23.1879052716      -90.4698371829  TIP3      8437            0.0000000000
     76826      9797  TIP3      H2            -21.9339383228       22.8215974680      -90.4009852989  TIP3      8437            0.0000000000
     76827      9798  TIP3      OH2           -25.1742560111       21.3345671943       92.4896694675  TIP3      8438            0.0000000000
     76828      9798  TIP3      H1            -24.8593836487       20.4387062199       92.6541197164  TIP3      8438            0.0000000000
     76829      9798  TIP3      H2            -24.3726919856       21.7610553987       92.1538872724  TIP3      8438            0.0000000000
     76830      9799  TIP3      OH2           -24.5639131777       21.9054964909      -96.7658071345  TIP3      8439            0.0000000000
     76831      9799  TIP3      H1            -23.6005715890       22.1001191071      -96.7685799852  TIP3      8439            0.0000000000
     76832      9799  TIP3      H2            -24.7403069724       21.9458988844      -95.8131337508  TIP3      8439            0.0000000000
     76833      9800  TIP3      OH2           -24.5011101526       22.5947883959      -93.9769800654  TIP3      8440            0.0000000000
     76834      9800  TIP3      H1            -25.3689891728       22.8948987093      -93.6373327054  TIP3      8440            0.0000000000
     76835      9800  TIP3      H2            -24.0540582721       23.4487541380      -94.1905885239  TIP3      8440            0.0000000000
     76836      9801  TIP3      OH2           -40.1712467092       20.9230136519      -90.6421056550  TIP3      8441            0.0000000000
     76837      9801  TIP3      H1            -39.2849479826       20.8994751862      -90.2791168852  TIP3      8441            0.0000000000
     76838      9801  TIP3      H2            -40.6668183715       20.2961033700      -90.1092295507  TIP3      8441            0.0000000000
     76839      9802  TIP3      OH2           -22.1287883674       16.6505022773      -88.6133085017  TIP3      8442            0.0000000000
     76840      9802  TIP3      H1            -21.8504349251       15.9748929558      -89.2500837381  TIP3      8442            0.0000000000
     76841      9802  TIP3      H2            -22.1264876316       17.4756324489      -89.1306148673  TIP3      8442            0.0000000000
     76842      9803  TIP3      OH2           -38.9990234643       19.4199464079       97.0655704374  TIP3      8443            0.0000000000
     76843      9803  TIP3      H1            -38.5669549639       18.6152514530       97.3992269663  TIP3      8443            0.0000000000
     76844      9803  TIP3      H2            -38.5300188428       20.1117651539       97.5411722023  TIP3      8443            0.0000000000
     76845      9804  TIP3      OH2           -40.5012655278       22.8217130534      -97.3111920437  TIP3      8444            0.0000000000
     76846      9804  TIP3      H1            -40.0357206118       21.9879979670      -97.4195297598  TIP3      8444            0.0000000000
     76847      9804  TIP3      H2            -40.2135987960       23.0840097309      -96.4356778061  TIP3      8444            0.0000000000
     76848      9805  TIP3      OH2           -22.6719717354       18.7178982359      -90.2850366977  TIP3      8445            0.0000000000
     76849      9805  TIP3      H1            -23.6086821171       19.0122925189      -90.3182788437  TIP3      8445            0.0000000000
     76850      9805  TIP3      H2            -22.6426502778       18.2051472552      -91.0975882856  TIP3      8445            0.0000000000
     76851      9806  TIP3      OH2           -40.2475744117       18.6020898610       92.2555268917  TIP3      8446            0.0000000000
     76852      9806  TIP3      H1            -41.1384044649       18.9887111186       92.3548378697  TIP3      8446            0.0000000000
     76853      9806  TIP3      H2            -39.7854605090       19.2644666442       91.6982275925  TIP3      8446            0.0000000000
     76854      9807  TIP3      OH2           -25.6527763679       33.6476610270       94.1818790316  TIP3      8447            0.0000000000
     76855      9807  TIP3      H1            -24.9651304029       33.3385751126       93.5682559115  TIP3      8447            0.0000000000
     76856      9807  TIP3      H2            -25.1310338676       34.1266630264       94.8470409119  TIP3      8447            0.0000000000
     76857      9808  TIP3      OH2           -35.2929772725       31.6078352229      -93.7188172764  TIP3      8448            0.0000000000
     76858      9808  TIP3      H1            -35.6910517692       32.4295125116      -94.0019053615  TIP3      8448            0.0000000000
     76859      9808  TIP3      H2            -34.3877906530       31.6213209923      -94.0693433055  TIP3      8448            0.0000000000
     76860      9809  TIP3      OH2           -30.9659861117       32.9674023452      -90.8243264841  TIP3      8449            0.0000000000
     76861      9809  TIP3      H1            -30.8040345774       32.6459553607      -89.9093712998  TIP3      8449            0.0000000000
     76862      9809  TIP3      H2            -30.0772776888       33.3028909388      -91.0884578408  TIP3      8449            0.0000000000
     76863      9810  TIP3      OH2           -28.6554533504       34.2455119123      -91.5258265164  TIP3      8450            0.0000000000
     76864      9810  TIP3      H1            -27.9675819520       33.6208919387      -91.7813988023  TIP3      8450            0.0000000000
     76865      9810  TIP3      H2            -28.2927139137       34.6727426013      -90.7245025199  TIP3      8450            0.0000000000
     76866      9811  TIP3      OH2           -37.9078195525       34.5101246414      -93.7649126224  TIP3      8451            0.0000000000
     76867      9811  TIP3      H1            -38.5930033096       35.1179037092      -94.1096585033  TIP3      8451            0.0000000000
     76868      9811  TIP3      H2            -38.1652207304       34.5066558654      -92.8326677741  TIP3      8451            0.0000000000
     76869      9812  TIP3      OH2           -35.4621259776       34.3132266802      -94.8029707869  TIP3      8452            0.0000000000
     76870      9812  TIP3      H1            -36.2833947872       34.4594902484      -94.2547926681  TIP3      8452            0.0000000000
     76871      9812  TIP3      H2            -35.4129594281       35.1080272030      -95.3467245837  TIP3      8452            0.0000000000
     76872      9813  TIP3      OH2           -30.7365199478       34.2696999143      -95.4624811335  TIP3      8453            0.0000000000
     76873      9813  TIP3      H1            -31.1305439055       34.8192229029      -96.1543376648  TIP3      8453            0.0000000000
     76874      9813  TIP3      H2            -30.5456019482       34.9284686532      -94.7567618742  TIP3      8453            0.0000000000
     76875      9814  TIP3      OH2           -28.4037930734       33.1416790599      -94.4851852617  TIP3      8454            0.0000000000
     76876      9814  TIP3      H1            -29.2718687326       33.3634016205      -94.8504571137  TIP3      8454            0.0000000000
     76877      9814  TIP3      H2            -27.9545965088       33.9875431381      -94.5850186723  TIP3      8454            0.0000000000
     76878      9815  TIP3      OH2           -33.8190150072       32.6385707939      -97.2698568743  TIP3      8455            0.0000000000
     76879      9815  TIP3      H1            -33.5531739824       31.7405908092      -97.5287159362  TIP3      8455            0.0000000000
     76880      9815  TIP3      H2            -33.6724359798       32.5321554286      -96.3117855358  TIP3      8455            0.0000000000
     76881      9816  TIP3      OH2           -37.9733115119       16.9295315167       94.4506496327  TIP3      8456            0.0000000000
     76882      9816  TIP3      H1            -38.7415503905       16.6452453019       93.9379670928  TIP3      8456            0.0000000000
     76883      9816  TIP3      H2            -37.4281110127       16.0954911550       94.3848902576  TIP3      8456            0.0000000000
     76884      9817  TIP3      OH2           -39.1511579358       16.6765826904       90.1975324313  TIP3      8457            0.0000000000
     76885      9817  TIP3      H1            -38.6435754611       17.2646433458       89.6263592212  TIP3      8457            0.0000000000
     76886      9817  TIP3      H2            -39.7071115270       17.2562422786       90.6997211127  TIP3      8457            0.0000000000
     76887      9818  TIP3      OH2           -39.2961406479       32.6650039578       91.2273713397  TIP3      8458            0.0000000000
     76888      9818  TIP3      H1            -39.8874912373       32.5939546836       90.4711110061  TIP3      8458            0.0000000000
     76889      9818  TIP3      H2            -39.1843905595       33.6189893359       91.3137574807  TIP3      8458            0.0000000000
     76890      9819  TIP3      OH2           -30.3861871694       33.9570342104       89.4930046549  TIP3      8459            0.0000000000
     76891      9819  TIP3      H1            -29.4384248075       34.1377028573       89.3434741320  TIP3      8459            0.0000000000
     76892      9819  TIP3      H2            -30.5633927322       33.3613641802       88.7520409332  TIP3      8459            0.0000000000
     76893      9820  TIP3      OH2           -23.6331447151       33.4210729980       92.2320239282  TIP3      8460            0.0000000000
     76894      9820  TIP3      H1            -23.8427687506       32.6393647985       91.6679206872  TIP3      8460            0.0000000000
     76895      9820  TIP3      H2            -23.6816010683       34.1475133634       91.5813508484  TIP3      8460            0.0000000000
     76896      9821  TIP3      OH2           -36.0083366604       16.8337235317      -89.1765534064  TIP3      8461            0.0000000000
     76897      9821  TIP3      H1            -35.1623012300       16.5052929836      -89.4890711722  TIP3      8461            0.0000000000
     76898      9821  TIP3      H2            -36.4473845018       16.0521422509      -88.8490672989  TIP3      8461            0.0000000000
     76899      9822  TIP3      OH2           -37.3772274145       33.4835030055       88.1647112307  TIP3      8462            0.0000000000
     76900      9822  TIP3      H1            -37.6786496004       33.8851832830       88.9910418433  TIP3      8462            0.0000000000
     76901      9822  TIP3      H2            -36.5708940818       33.0255953682       88.3630118054  TIP3      8462            0.0000000000
     76902      9823  TIP3      OH2           -24.6268379834       32.1483113755      -90.1276824223  TIP3      8463            0.0000000000
     76903      9823  TIP3      H1            -25.1770135687       31.9753047431      -90.9020421542  TIP3      8463            0.0000000000
     76904      9823  TIP3      H2            -24.5430223784       33.1253390910      -90.1629541899  TIP3      8463            0.0000000000
     76905      9824  TIP3      OH2            -9.9900316680       26.0617863864       94.3378256398  TIP3      8464            0.0000000000
     76906      9824  TIP3      H1             -9.9695514272       27.0367822674       94.2560877188  TIP3      8464            0.0000000000
     76907      9824  TIP3      H2            -10.6698858050       25.7915702715       93.6908467774  TIP3      8464            0.0000000000
     76908      9825  TIP3      OH2           -11.1520163401       25.2936019400      -96.9257303598  TIP3      8465            0.0000000000
     76909      9825  TIP3      H1            -11.1142280280       24.6572255083      -96.2055242727  TIP3      8465            0.0000000000
     76910      9825  TIP3      H2            -11.4121703229       24.8246211548      -97.7169850754  TIP3      8465            0.0000000000
     76911      9826  TIP3      OH2           -21.1833467477       23.0024558761       93.3019387144  TIP3      8466            0.0000000000
     76912      9826  TIP3      H1            -21.6439461089       23.8620223386       93.2842398228  TIP3      8466            0.0000000000
     76913      9826  TIP3      H2            -21.7697799144       22.4646373435       92.7534537951  TIP3      8466            0.0000000000
     76914      9827  TIP3      OH2           -20.4441440742       25.2519200643       95.5246242894  TIP3      8467            0.0000000000
     76915      9827  TIP3      H1            -20.2486094727       24.3750835150       95.9291372795  TIP3      8467            0.0000000000
     76916      9827  TIP3      H2            -19.7825360641       25.2587257272       94.8162308111  TIP3      8467            0.0000000000
     76917      9828  TIP3      OH2           -12.6072050852       27.8221648675      -97.0281999194  TIP3      8468            0.0000000000
     76918      9828  TIP3      H1            -12.3226537072       26.9227324220      -97.1892785448  TIP3      8468            0.0000000000
     76919      9828  TIP3      H2            -12.2039914259       27.9218187724      -96.1279337193  TIP3      8468            0.0000000000
     76920      9829  TIP3      OH2            -4.0860115175       19.3527737849      -95.7320069996  TIP3      8469            0.0000000000
     76921      9829  TIP3      H1             -3.9582131030       19.9254150711      -94.9375366022  TIP3      8469            0.0000000000
     76922      9829  TIP3      H2             -3.5690079077       19.8251559377      -96.3845689176  TIP3      8469            0.0000000000
     76923      9830  TIP3      OH2            -8.6893235849       20.3390577273       94.1909077948  TIP3      8470            0.0000000000
     76924      9830  TIP3      H1             -8.0293024042       20.0505658608       94.8450059187  TIP3      8470            0.0000000000
     76925      9830  TIP3      H2             -8.1694489095       20.9064848682       93.6038943153  TIP3      8470            0.0000000000
     76926      9831  TIP3      OH2           -19.8234666585       22.6884108168       96.5286150799  TIP3      8471            0.0000000000
     76927      9831  TIP3      H1            -19.1695630120       22.1214329619       96.9996546483  TIP3      8471            0.0000000000
     76928      9831  TIP3      H2            -19.7329474729       22.3452473097       95.6239981176  TIP3      8471            0.0000000000
     76929      9832  TIP3      OH2           -14.6575636379       24.1914285562       95.8199089300  TIP3      8472            0.0000000000
     76930      9832  TIP3      H1            -14.0188109729       23.6453070175       96.2655363563  TIP3      8472            0.0000000000
     76931      9832  TIP3      H2            -15.2034405768       23.5514216444       95.3273875320  TIP3      8472            0.0000000000
     76932      9833  TIP3      OH2            -3.6828890731       20.7854726523      -93.4915118067  TIP3      8473            0.0000000000
     76933      9833  TIP3      H1             -4.3187682342       21.5245526302      -93.5537768888  TIP3      8473            0.0000000000
     76934      9833  TIP3      H2             -3.5962492664       20.6515597356      -92.5327241613  TIP3      8473            0.0000000000
     76935      9834  TIP3      OH2           -17.5579470972       19.1703693662      -94.8392922272  TIP3      8474            0.0000000000
     76936      9834  TIP3      H1            -17.8332523057       19.6847423722      -95.6152434048  TIP3      8474            0.0000000000
     76937      9834  TIP3      H2            -18.2461850079       19.3924627895      -94.1836024218  TIP3      8474            0.0000000000
     76938      9835  TIP3      OH2           -10.2572817412       28.6497276018       93.4186621791  TIP3      8475            0.0000000000
     76939      9835  TIP3      H1            -10.5161634188       28.3307293980       92.5458256759  TIP3      8475            0.0000000000
     76940      9835  TIP3      H2            -10.5596092638       29.5645311885       93.4168231829  TIP3      8475            0.0000000000
     76941      9836  TIP3      OH2           -15.1601314242       26.7086559811      -94.5779039851  TIP3      8476            0.0000000000
     76942      9836  TIP3      H1            -15.8279778412       27.3845061338      -94.5573689783  TIP3      8476            0.0000000000
     76943      9836  TIP3      H2            -14.3762044995       27.2659334348      -94.8252685902  TIP3      8476            0.0000000000
     76944      9837  TIP3      OH2            -6.9087748866       19.6758653933       96.2033292142  TIP3      8477            0.0000000000
     76945      9837  TIP3      H1             -7.1080845034       18.8897458938       96.7087830360  TIP3      8477            0.0000000000
     76946      9837  TIP3      H2             -6.2325062426       20.1287520763       96.7275196150  TIP3      8477            0.0000000000
     76947      9838  TIP3      OH2           -18.0229082623       21.0699480010      -96.9042183259  TIP3      8478            0.0000000000
     76948      9838  TIP3      H1            -17.3549867420       21.6834586765      -96.5113109562  TIP3      8478            0.0000000000
     76949      9838  TIP3      H2            -17.4991640747       20.5840824311      -97.5564939322  TIP3      8478            0.0000000000
     76950      9839  TIP3      OH2            -6.5987342898       18.3891842438      -94.9170674888  TIP3      8479            0.0000000000
     76951      9839  TIP3      H1             -7.3210236638       19.0174496949      -94.9184197005  TIP3      8479            0.0000000000
     76952      9839  TIP3      H2             -5.8695699388       18.8248822961      -95.3904274781  TIP3      8479            0.0000000000
     76953      9840  TIP3      OH2           -11.3016420595       25.2936243019       91.8254236268  TIP3      8480            0.0000000000
     76954      9840  TIP3      H1            -12.0072062074       25.8420751184       91.4362605556  TIP3      8480            0.0000000000
     76955      9840  TIP3      H2            -10.6137893929       25.3623689038       91.1428248612  TIP3      8480            0.0000000000
     76956      9841  TIP3      OH2           -11.2540205471       23.7515335601       88.9247152995  TIP3      8481            0.0000000000
     76957      9841  TIP3      H1            -10.5131464486       23.8071458957       89.5364957142  TIP3      8481            0.0000000000
     76958      9841  TIP3      H2            -10.9230867905       23.1910564657       88.2183123949  TIP3      8481            0.0000000000
     76959      9842  TIP3      OH2            -3.9561788898       24.7101441772      -94.6153827136  TIP3      8482            0.0000000000
     76960      9842  TIP3      H1             -4.5834195709       25.4364883767      -94.6148299008  TIP3      8482            0.0000000000
     76961      9842  TIP3      H2             -3.4308483415       24.8960451485      -95.4255788459  TIP3      8482            0.0000000000
     76962      9843  TIP3      OH2            -7.8721795701       25.4695849930       92.7396089661  TIP3      8483            0.0000000000
     76963      9843  TIP3      H1             -8.6061054494       25.7288714256       93.3497289982  TIP3      8483            0.0000000000
     76964      9843  TIP3      H2             -7.4026321948       24.8148430642       93.2828510302  TIP3      8483            0.0000000000
     76965      9844  TIP3      OH2            -7.9152615189       23.6868251762      -92.8689446238  TIP3      8484            0.0000000000
     76966      9844  TIP3      H1             -7.9507658122       24.5021406121      -92.3528083033  TIP3      8484            0.0000000000
     76967      9844  TIP3      H2             -8.5757255061       23.9569853394      -93.5472079724  TIP3      8484            0.0000000000
     76968      9845  TIP3      OH2           -16.2442042234       26.1515868524       94.6414414596  TIP3      8485            0.0000000000
     76969      9845  TIP3      H1            -16.5523295260       25.7555850524       93.8031038387  TIP3      8485            0.0000000000
     76970      9845  TIP3      H2            -15.6324716505       25.4658710118       94.9913977298  TIP3      8485            0.0000000000
     76971      9846  TIP3      OH2           -14.8244396451       29.6586762296       97.2127511180  TIP3      8486            0.0000000000
     76972      9846  TIP3      H1            -14.9372164066       28.9624323168       96.5689546962  TIP3      8486            0.0000000000
     76973      9846  TIP3      H2            -14.1609515667       29.2242212553       97.7967803013  TIP3      8486            0.0000000000
     76974      9847  TIP3      OH2            -9.5462963234       30.5239514262      -95.7315627956  TIP3      8487            0.0000000000
     76975      9847  TIP3      H1             -9.8314438102       31.0770418275      -95.0172503411  TIP3      8487            0.0000000000
     76976      9847  TIP3      H2             -9.7250362169       29.6296823405      -95.3416006034  TIP3      8487            0.0000000000
     76977      9848  TIP3      OH2           -15.0454700499       29.3321912467      -91.6816504280  TIP3      8488            0.0000000000
     76978      9848  TIP3      H1            -15.3761340321       30.1338265813      -91.2637557671  TIP3      8488            0.0000000000
     76979      9848  TIP3      H2            -15.6313594751       29.1845685340      -92.4276770385  TIP3      8488            0.0000000000
     76980      9849  TIP3      OH2            -8.9894252269       24.6570464911       90.4068587087  TIP3      8489            0.0000000000
     76981      9849  TIP3      H1             -8.4614719789       24.8734256481       91.2185710467  TIP3      8489            0.0000000000
     76982      9849  TIP3      H2             -8.6154120764       25.2285134416       89.7332956508  TIP3      8489            0.0000000000
     76983      9850  TIP3      OH2           -18.0619151319       25.4767126416      -92.4739564693  TIP3      8490            0.0000000000
     76984      9850  TIP3      H1            -18.0247703198       26.1740807606      -91.8141721951  TIP3      8490            0.0000000000
     76985      9850  TIP3      H2            -18.9680975235       25.5828656420      -92.8068124908  TIP3      8490            0.0000000000
     76986      9851  TIP3      OH2            -5.3323660313       16.4303943050       90.3783851488  TIP3      8491            0.0000000000
     76987      9851  TIP3      H1             -6.2920178139       16.5326218785       90.4713615383  TIP3      8491            0.0000000000
     76988      9851  TIP3      H2             -5.0757861914       17.2201107774       89.8819114945  TIP3      8491            0.0000000000
     76989      9852  TIP3      OH2           -17.2372240762       25.2150869040       92.2115462920  TIP3      8492            0.0000000000
     76990      9852  TIP3      H1            -17.5531002811       25.9785942536       91.6997970930  TIP3      8492            0.0000000000
     76991      9852  TIP3      H2            -17.9405981018       24.5650558336       92.0772063612  TIP3      8492            0.0000000000
     76992      9853  TIP3      OH2           -21.2209324285       27.5879640969      -93.5913429234  TIP3      8493            0.0000000000
     76993      9853  TIP3      H1            -21.6282517850       27.4884766249      -94.4591215244  TIP3      8493            0.0000000000
     76994      9853  TIP3      H2            -21.1117386910       26.6548914830      -93.3273302219  TIP3      8493            0.0000000000
     76995      9854  TIP3      OH2           -12.2045252889       30.5877105407      -92.1517027722  TIP3      8494            0.0000000000
     76996      9854  TIP3      H1            -12.1927356154       31.4543180622      -91.7159795759  TIP3      8494            0.0000000000
     76997      9854  TIP3      H2            -13.0965346813       30.2067143947      -92.0204253859  TIP3      8494            0.0000000000
     76998      9855  TIP3      OH2           -11.7842216330       34.3231071464       92.2607220119  TIP3      8495            0.0000000000
     76999      9855  TIP3      H1            -11.9059272009       34.2609567012       91.2982211847  TIP3      8495            0.0000000000
     77000      9855  TIP3      H2            -11.8004444545       35.2812942032       92.4615458207  TIP3      8495            0.0000000000
     77001      9856  TIP3      OH2            -6.1885611669       22.4020510631      -90.6812458292  TIP3      8496            0.0000000000
     77002      9856  TIP3      H1             -6.5631470746       22.8558134958      -91.4650626364  TIP3      8496            0.0000000000
     77003      9856  TIP3      H2             -6.0577856318       21.4933284053      -91.0418544854  TIP3      8496            0.0000000000
     77004      9857  TIP3      OH2            -8.2702434713       20.9100429042      -92.3395145741  TIP3      8497            0.0000000000
     77005      9857  TIP3      H1             -8.8961377630       20.6953372952      -91.6380911119  TIP3      8497            0.0000000000
     77006      9857  TIP3      H2             -8.4849701346       21.8008006512      -92.6658221089  TIP3      8497            0.0000000000
     77007      9858  TIP3      OH2           -16.1658033804       22.3799006286      -95.4967664295  TIP3      8498            0.0000000000
     77008      9858  TIP3      H1            -16.8276270500       22.3384799930      -94.7796909180  TIP3      8498            0.0000000000
     77009      9858  TIP3      H2            -16.1895225518       23.3124450043      -95.7465218164  TIP3      8498            0.0000000000
     77010      9859  TIP3      OH2           -16.1806065346       22.5252239405       94.1330227388  TIP3      8499            0.0000000000
     77011      9859  TIP3      H1            -17.1061277760       22.2318854708       94.0474633773  TIP3      8499            0.0000000000
     77012      9859  TIP3      H2            -15.8053125966       22.1800289918       93.3278720989  TIP3      8499            0.0000000000
     77013      9860  TIP3      OH2           -10.6592951206       22.9681831742       92.9153082054  TIP3      8500            0.0000000000
     77014      9860  TIP3      H1            -11.0389302504       23.8117718928       92.6071537836  TIP3      8500            0.0000000000
     77015      9860  TIP3      H2             -9.9471639702       22.8119127055       92.2813538727  TIP3      8500            0.0000000000
     77016      9861  TIP3      OH2           -11.5990098430       23.1550846264      -90.3499983863  TIP3      8501            0.0000000000
     77017      9861  TIP3      H1            -12.1241723382       22.4190224903      -90.0228682933  TIP3      8501            0.0000000000
     77018      9861  TIP3      H2            -10.7723504212       23.0641738412      -89.8555335014  TIP3      8501            0.0000000000
     77019      9862  TIP3      OH2           -18.5061124077       22.6249006629      -93.7140097533  TIP3      8502            0.0000000000
     77020      9862  TIP3      H1            -18.4248277692       23.0783348846      -92.8555722875  TIP3      8502            0.0000000000
     77021      9862  TIP3      H2            -18.9389828703       21.7843061604      -93.5168005728  TIP3      8502            0.0000000000
     77022      9863  TIP3      OH2           -21.7597761066       19.9090926517       94.9389812733  TIP3      8503            0.0000000000
     77023      9863  TIP3      H1            -21.1839019494       19.6911221704       95.6975502658  TIP3      8503            0.0000000000
     77024      9863  TIP3      H2            -21.4064046263       19.3505198997       94.2447439474  TIP3      8503            0.0000000000
     77025      9864  TIP3      OH2           -20.4872835810       20.5258144470       90.4466019231  TIP3      8504            0.0000000000
     77026      9864  TIP3      H1            -20.1088264507       21.0338645607       89.7154912051  TIP3      8504            0.0000000000
     77027      9864  TIP3      H2            -21.2940537697       21.0403834499       90.6344384267  TIP3      8504            0.0000000000
     77028      9865  TIP3      OH2           -10.4057149548       24.0185546206      -94.3744495623  TIP3      8505            0.0000000000
     77029      9865  TIP3      H1            -10.0684790480       23.3484942457      -94.9808813936  TIP3      8505            0.0000000000
     77030      9865  TIP3      H2            -10.8644867520       23.5409910875      -93.6664939572  TIP3      8505            0.0000000000
     77031      9866  TIP3      OH2           -18.8163740632       21.5921949832       94.0396933989  TIP3      8506            0.0000000000
     77032      9866  TIP3      H1            -19.7047002535       21.7492543900       93.6507719833  TIP3      8506            0.0000000000
     77033      9866  TIP3      H2            -18.5395190850       20.7570527479       93.6444616218  TIP3      8506            0.0000000000
     77034      9867  TIP3      OH2           -13.0872146435       27.3458781605       91.2210223150  TIP3      8507            0.0000000000
     77035      9867  TIP3      H1            -13.8755691469       26.8806726344       90.8589117931  TIP3      8507            0.0000000000
     77036      9867  TIP3      H2            -13.3086774005       27.4137853616       92.1685897510  TIP3      8507            0.0000000000
     77037      9868  TIP3      OH2            -9.2046077687       20.1765223895       89.2843817556  TIP3      8508            0.0000000000
     77038      9868  TIP3      H1            -10.1595839083       20.2932323262       89.2410340424  TIP3      8508            0.0000000000
     77039      9868  TIP3      H2             -8.9560996532       21.0151376103       89.7195963573  TIP3      8508            0.0000000000
     77040      9869  TIP3      OH2           -11.2655730569       27.6526434404      -91.7461825177  TIP3      8509            0.0000000000
     77041      9869  TIP3      H1            -12.0121472334       27.1299737439      -91.4545965731  TIP3      8509            0.0000000000
     77042      9869  TIP3      H2            -11.7556407793       28.3228686246      -92.2808905417  TIP3      8509            0.0000000000
     77043      9870  TIP3      OH2            -8.5129944584       22.0231007378       90.9897651382  TIP3      8510            0.0000000000
     77044      9870  TIP3      H1             -7.6395837671       21.9637566527       91.4199603219  TIP3      8510            0.0000000000
     77045      9870  TIP3      H2             -8.4714225721       22.8694040648       90.5205519143  TIP3      8510            0.0000000000
     77046      9871  TIP3      OH2           -11.0119686477       28.8274266929       90.2196071172  TIP3      8511            0.0000000000
     77047      9871  TIP3      H1            -11.3285199848       29.6607467929       90.5695921607  TIP3      8511            0.0000000000
     77048      9871  TIP3      H2            -11.7395209044       28.2040520344       90.3968211574  TIP3      8511            0.0000000000
     77049      9872  TIP3      OH2           -20.9951014674       25.1388521132      -92.4930215353  TIP3      8512            0.0000000000
     77050      9872  TIP3      H1            -20.8321758739       24.7334331839      -91.6224446803  TIP3      8512            0.0000000000
     77051      9872  TIP3      H2            -21.6027721023       24.5265685499      -92.9305761956  TIP3      8512            0.0000000000
     77052      9873  TIP3      OH2           -14.0177368688       24.6809068070      -90.2562038028  TIP3      8513            0.0000000000
     77053      9873  TIP3      H1            -14.3094679508       24.4356079052      -91.1442988640  TIP3      8513            0.0000000000
     77054      9873  TIP3      H2            -13.0751335184       24.4364659091      -90.2988446814  TIP3      8513            0.0000000000
     77055      9874  TIP3      OH2            -9.3098172499       30.0581103923      -92.3720417914  TIP3      8514            0.0000000000
     77056      9874  TIP3      H1            -10.2431572882       30.1427833238      -92.6400946728  TIP3      8514            0.0000000000
     77057      9874  TIP3      H2             -9.3833355740       30.2375470229      -91.4415995876  TIP3      8514            0.0000000000
     77058      9875  TIP3      OH2            -3.7241263018       22.2246810125       90.7903172976  TIP3      8515            0.0000000000
     77059      9875  TIP3      H1             -4.1732455101       21.8714050025       90.0139056479  TIP3      8515            0.0000000000
     77060      9875  TIP3      H2             -3.5236241051       23.1298930262       90.4767170660  TIP3      8515            0.0000000000
     77061      9876  TIP3      OH2            -3.7188421085       27.8898777916      -91.2303000585  TIP3      8516            0.0000000000
     77062      9876  TIP3      H1             -4.4746581603       28.4147844164      -91.5358171619  TIP3      8516            0.0000000000
     77063      9876  TIP3      H2             -3.0622699947       28.0838185500      -91.9401502696  TIP3      8516            0.0000000000
     77064      9877  TIP3      OH2           -19.8404260276       25.0643125303       88.8752370976  TIP3      8517            0.0000000000
     77065      9877  TIP3      H1            -19.2645777555       25.6976414934       89.3277288149  TIP3      8517            0.0000000000
     77066      9877  TIP3      H2            -20.7298625622       25.3038090090       89.1945422827  TIP3      8517            0.0000000000
     77067      9878  TIP3      OH2           -14.1878672394       27.8519815229       93.8628574793  TIP3      8518            0.0000000000
     77068      9878  TIP3      H1            -14.4453152274       28.7643278472       93.9680002128  TIP3      8518            0.0000000000
     77069      9878  TIP3      H2            -14.9136480744       27.3671877133       94.3137543620  TIP3      8518            0.0000000000
     77070      9879  TIP3      OH2           -13.7534413603       32.0635124472      -94.4347274317  TIP3      8519            0.0000000000
     77071      9879  TIP3      H1            -13.2690956910       32.8346869917      -94.7499015607  TIP3      8519            0.0000000000
     77072      9879  TIP3      H2            -13.1535327211       31.6611085708      -93.7919896295  TIP3      8519            0.0000000000
     77073      9880  TIP3      OH2            -9.8176179741       28.0945606343      -94.6823748999  TIP3      8520            0.0000000000
     77074      9880  TIP3      H1            -10.5772966894       27.9051483200      -94.0757443859  TIP3      8520            0.0000000000
     77075      9880  TIP3      H2             -9.5871120490       27.2231179710      -94.9908591498  TIP3      8520            0.0000000000
     77076      9881  TIP3      OH2           -19.3775057729       19.8905530817      -92.9038230717  TIP3      8521            0.0000000000
     77077      9881  TIP3      H1            -20.2893149191       20.2159925021      -92.9826639436  TIP3      8521            0.0000000000
     77078      9881  TIP3      H2            -19.4619507089       19.0283140377      -92.4742731922  TIP3      8521            0.0000000000
     77079      9882  TIP3      OH2            -7.0845317120       27.6305457075       91.1861075269  TIP3      8522            0.0000000000
     77080      9882  TIP3      H1             -7.3903186471       26.9499175012       91.8116666972  TIP3      8522            0.0000000000
     77081      9882  TIP3      H2             -6.2057519676       27.8588307745       91.5010500968  TIP3      8522            0.0000000000
     77082      9883  TIP3      OH2           -18.4895809333       26.9774831473       90.4008540015  TIP3      8523            0.0000000000
     77083      9883  TIP3      H1            -19.1453265768       27.3563329082       90.9999415691  TIP3      8523            0.0000000000
     77084      9883  TIP3      H2            -17.9195297205       27.7228763121       90.1680326196  TIP3      8523            0.0000000000
     77085      9884  TIP3      OH2            -9.8620375502       19.2522705531       91.8181733001  TIP3      8524            0.0000000000
     77086      9884  TIP3      H1             -9.6123292828       19.7099487930       91.0048030004  TIP3      8524            0.0000000000
     77087      9884  TIP3      H2             -9.3128506948       19.6646247180       92.4890400027  TIP3      8524            0.0000000000
     77088      9885  TIP3      OH2            -5.8792067057       19.8707942015      -92.0398663223  TIP3      8525            0.0000000000
     77089      9885  TIP3      H1             -6.8185819727       20.1550710355      -92.1595722776  TIP3      8525            0.0000000000
     77090      9885  TIP3      H2             -5.6011138631       19.8106274529      -92.9665987486  TIP3      8525            0.0000000000
     77091      9886  TIP3      OH2            -7.2954855094       23.6271190207       96.6749447097  TIP3      8526            0.0000000000
     77092      9886  TIP3      H1             -8.1384391688       23.2290196025       96.4517121413  TIP3      8526            0.0000000000
     77093      9886  TIP3      H2             -6.8555343945       22.9556462644       97.2339557823  TIP3      8526            0.0000000000
     77094      9887  TIP3      OH2           -18.8116746746       17.0537651099       97.1569001575  TIP3      8527            0.0000000000
     77095      9887  TIP3      H1            -18.8985114851       17.0142012378       96.1965756581  TIP3      8527            0.0000000000
     77096      9887  TIP3      H2            -19.1530365728       16.1801611270       97.4227165182  TIP3      8527            0.0000000000
     77097      9888  TIP3      OH2           -13.9576695820       27.3721060338      -89.7265247187  TIP3      8528            0.0000000000
     77098      9888  TIP3      H1            -14.2528424133       27.6605893908      -90.6057835847  TIP3      8528            0.0000000000
     77099      9888  TIP3      H2            -13.8457681225       26.3993789794      -89.8260980878  TIP3      8528            0.0000000000
     77100      9889  TIP3      OH2            -8.1754372343       27.2467771545      -92.2288419075  TIP3      8529            0.0000000000
     77101      9889  TIP3      H1             -7.5387312704       27.9018838025      -92.5284705575  TIP3      8529            0.0000000000
     77102      9889  TIP3      H2             -8.9840807063       27.7991611306      -92.3370612883  TIP3      8529            0.0000000000
     77103      9890  TIP3      OH2           -19.7512936960       24.6256043565      -89.7415584062  TIP3      8530            0.0000000000
     77104      9890  TIP3      H1            -19.3568506948       23.7607814827      -89.8529963200  TIP3      8530            0.0000000000
     77105      9890  TIP3      H2            -20.0113840884       24.6363514779      -88.8184657108  TIP3      8530            0.0000000000
     77106      9891  TIP3      OH2           -15.0906419101       25.7350290935       90.0373152859  TIP3      8531            0.0000000000
     77107      9891  TIP3      H1            -15.5641642996       25.2020607659       90.6949782714  TIP3      8531            0.0000000000
     77108      9891  TIP3      H2            -14.8079955415       25.0684112146       89.3954931593  TIP3      8531            0.0000000000
     77109      9892  TIP3      OH2           -15.8649099797       23.5448153918      -92.3312958166  TIP3      8532            0.0000000000
     77110      9892  TIP3      H1            -16.4567393487       24.2848548824      -92.1140997476  TIP3      8532            0.0000000000
     77111      9892  TIP3      H2            -15.4685583109       23.8986594832      -93.1503214624  TIP3      8532            0.0000000000
     77112      9893  TIP3      OH2           -10.7770975842       26.0890817351      -89.0074007442  TIP3      8533            0.0000000000
     77113      9893  TIP3      H1             -9.8268446445       26.1103122603      -89.1225640408  TIP3      8533            0.0000000000
     77114      9893  TIP3      H2            -10.9739440442       25.3554633445      -88.4173728931  TIP3      8533            0.0000000000
     77115      9894  TIP3      OH2           -15.4317228043       20.9338918739      -91.2968878212  TIP3      8534            0.0000000000
     77116      9894  TIP3      H1            -15.3120715341       20.2218645875      -91.9306860285  TIP3      8534            0.0000000000
     77117      9894  TIP3      H2            -15.5023033542       21.7374688939      -91.8473034807  TIP3      8534            0.0000000000
     77118      9895  TIP3      OH2           -13.4867925682       24.7327411938      -93.5291208807  TIP3      8535            0.0000000000
     77119      9895  TIP3      H1            -12.7293522809       24.6525081457      -94.1044972324  TIP3      8535            0.0000000000
     77120      9895  TIP3      H2            -13.8409224456       25.6035957733      -93.8187602906  TIP3      8535            0.0000000000
     77121      9896  TIP3      OH2            -9.1044497883       22.5408018641      -88.6523676557  TIP3      8536            0.0000000000
     77122      9896  TIP3      H1             -8.8664139950       21.6116649820      -88.5744118140  TIP3      8536            0.0000000000
     77123      9896  TIP3      H2             -8.2552249520       22.9740105997      -88.4895306000  TIP3      8536            0.0000000000
     77124      9897  TIP3      OH2            -7.7282858192       25.3360366826      -90.4034145350  TIP3      8537            0.0000000000
     77125      9897  TIP3      H1             -8.0801605978       26.0484301034      -91.0041736666  TIP3      8537            0.0000000000
     77126      9897  TIP3      H2             -6.8033214398       25.3995557644      -90.6837767022  TIP3      8537            0.0000000000
     77127      9898  TIP3      OH2           -16.9923194098       22.1647149443      -89.3927378273  TIP3      8538            0.0000000000
     77128      9898  TIP3      H1            -17.7405669333       21.5912590131      -89.5629755489  TIP3      8538            0.0000000000
     77129      9898  TIP3      H2            -16.3183376938       21.7843368117      -89.9993245998  TIP3      8538            0.0000000000
     77130      9899  TIP3      OH2           -14.1694141934       34.6275071397       89.2397797302  TIP3      8539            0.0000000000
     77131      9899  TIP3      H1            -13.2293884441       34.7769497570       89.4163868438  TIP3      8539            0.0000000000
     77132      9899  TIP3      H2            -14.4200297112       35.3386474531       88.6475431601  TIP3      8539            0.0000000000
     77133      9900  TIP3      OH2           -21.9270245807       34.6697157444       93.8036629837  TIP3      8540            0.0000000000
     77134      9900  TIP3      H1            -22.5831098344       34.1514806042       93.2882866684  TIP3      8540            0.0000000000
     77135      9900  TIP3      H2            -21.5603510547       33.9942158157       94.3887517224  TIP3      8540            0.0000000000
     77136      9901  TIP3      OH2            -3.8252524025       25.3113312520       93.4986609153  TIP3      8541            0.0000000000
     77137      9901  TIP3      H1             -4.5583876907       24.7710441917       93.8680635987  TIP3      8541            0.0000000000
     77138      9901  TIP3      H2             -3.2489102407       25.4304725505       94.2698752804  TIP3      8541            0.0000000000
     77139      9902  TIP3      OH2            -3.5863519102       25.0901655872       89.8864354132  TIP3      8542            0.0000000000
     77140      9902  TIP3      H1             -4.1131387215       25.4695444212       89.1761362088  TIP3      8542            0.0000000000
     77141      9902  TIP3      H2             -3.5833045376       25.7654274718       90.5788455972  TIP3      8542            0.0000000000
     77142      9903  TIP3      OH2            -5.9960944625       23.7240361754       94.0912382215  TIP3      8543            0.0000000000
     77143      9903  TIP3      H1             -6.1800444008       22.7732734752       94.0493897780  TIP3      8543            0.0000000000
     77144      9903  TIP3      H2             -6.3755968485       23.9740402248       94.9509888338  TIP3      8543            0.0000000000
     77145      9904  TIP3      OH2           -21.0007153388       25.7591993671      -96.5770842890  TIP3      8544            0.0000000000
     77146      9904  TIP3      H1            -20.8216494812       25.7509278929      -97.5440096237  TIP3      8544            0.0000000000
     77147      9904  TIP3      H2            -20.1112393941       25.7408813096      -96.2169765737  TIP3      8544            0.0000000000
     77148      9905  TIP3      OH2            -5.1317750620       25.6941296825      -90.8451462049  TIP3      8545            0.0000000000
     77149      9905  TIP3      H1             -4.4371598657       25.0077714449      -90.9358755464  TIP3      8545            0.0000000000
     77150      9905  TIP3      H2             -4.5622475830       26.4871665593      -91.0284119683  TIP3      8545            0.0000000000
     77151      9906  TIP3      OH2            -3.6007872516       23.5910533812      -90.4224678483  TIP3      8546            0.0000000000
     77152      9906  TIP3      H1             -4.3832904970       23.0978185849      -90.6757506953  TIP3      8546            0.0000000000
     77153      9906  TIP3      H2             -2.9693596027       22.8332739811      -90.4288606998  TIP3      8546            0.0000000000
     77154      9907  TIP3      OH2            -5.9293995361       19.7218905476       87.5172602085  TIP3      8547            0.0000000000
     77155      9907  TIP3      H1             -5.3126810845       19.3816635162       88.1687207843  TIP3      8547            0.0000000000
     77156      9907  TIP3      H2             -6.7809387897       19.3570981837       87.7812792323  TIP3      8547            0.0000000000
     77157      9908  TIP3      OH2            -6.2868795576       21.3433297049       92.5451517742  TIP3      8548            0.0000000000
     77158      9908  TIP3      H1             -6.0109024888       20.4047146284       92.6407422458  TIP3      8548            0.0000000000
     77159      9908  TIP3      H2             -5.4946730445       21.7281078731       92.1535864258  TIP3      8548            0.0000000000
     77160      9909  TIP3      OH2            -5.6960359119       21.8701304570      -96.7426242771  TIP3      8549            0.0000000000
     77161      9909  TIP3      H1             -4.7720646079       22.1433743027      -96.7885141567  TIP3      8549            0.0000000000
     77162      9909  TIP3      H2             -5.8987569992       22.0207225419      -95.8059398206  TIP3      8549            0.0000000000
     77163      9910  TIP3      OH2            -5.6215963505       22.5924478236      -93.9096155360  TIP3      8550            0.0000000000
     77164      9910  TIP3      H1             -6.5196688263       22.8900574618      -93.6644110048  TIP3      8550            0.0000000000
     77165      9910  TIP3      H2             -5.2038323859       23.4338481267      -94.2079908035  TIP3      8550            0.0000000000
     77166      9911  TIP3      OH2           -21.3948822160       21.1249126576      -90.4592252297  TIP3      8551            0.0000000000
     77167      9911  TIP3      H1            -20.4642019551       20.9663013195      -90.2708755595  TIP3      8551            0.0000000000
     77168      9911  TIP3      H2            -21.8405604521       20.3096532232      -90.1408215221  TIP3      8551            0.0000000000
     77169      9912  TIP3      OH2            -5.6723521825       18.5922442169       92.5466912738  TIP3      8552            0.0000000000
     77170      9912  TIP3      H1             -5.5097779804       18.2072916415       93.4284033535  TIP3      8552            0.0000000000
     77171      9912  TIP3      H2             -6.2937366160       17.9784561177       92.1411145736  TIP3      8552            0.0000000000
     77172      9913  TIP3      OH2           -20.1691880176       19.3952941902       97.0930495961  TIP3      8553            0.0000000000
     77173      9913  TIP3      H1            -19.7102647156       18.5888278062       97.4172406737  TIP3      8553            0.0000000000
     77174      9913  TIP3      H2            -19.6727836836       20.1044652918       97.5296581070  TIP3      8553            0.0000000000
     77175      9914  TIP3      OH2           -21.8946862138       22.4424381686      -96.5514720195  TIP3      8554            0.0000000000
     77176      9914  TIP3      H1            -21.3392555308       22.1815506232      -97.3098960703  TIP3      8554            0.0000000000
     77177      9914  TIP3      H2            -21.4357111926       23.2406816922      -96.2712594489  TIP3      8554            0.0000000000
     77178      9915  TIP3      OH2            -3.8395863880       18.7716517186      -90.2295161447  TIP3      8555            0.0000000000
     77179      9915  TIP3      H1             -4.7809018748       18.9819671801      -90.3221245230  TIP3      8555            0.0000000000
     77180      9915  TIP3      H2             -3.7348735567       18.2165566895      -91.0210722005  TIP3      8555            0.0000000000
     77181      9916  TIP3      OH2           -12.1100003138       33.0061086483      -90.8135974060  TIP3      8556            0.0000000000
     77182      9916  TIP3      H1            -11.9528675903       32.6243187326      -89.9177535007  TIP3      8556            0.0000000000
     77183      9916  TIP3      H2            -11.2276042479       33.2423410252      -91.0984736604  TIP3      8556            0.0000000000
     77184      9917  TIP3      OH2            -4.8269039042       16.8373221071      -92.4242599956  TIP3      8557            0.0000000000
     77185      9917  TIP3      H1             -5.6480837713       17.1123354164      -92.8513740523  TIP3      8557            0.0000000000
     77186      9917  TIP3      H2             -4.6300474281       16.0139712243      -92.9284523588  TIP3      8557            0.0000000000
     77187      9918  TIP3      OH2           -19.0123712595       34.8297133345      -93.7421511567  TIP3      8558            0.0000000000
     77188      9918  TIP3      H1            -19.7490344843       35.2797048592      -94.1432033725  TIP3      8558            0.0000000000
     77189      9918  TIP3      H2            -19.3353120092       34.5345350553      -92.8843178672  TIP3      8558            0.0000000000
     77190      9919  TIP3      OH2           -16.5453017370       34.3770147618      -94.6716542196  TIP3      8559            0.0000000000
     77191      9919  TIP3      H1            -17.4330843728       34.5099339046      -94.2726605682  TIP3      8559            0.0000000000
     77192      9919  TIP3      H2            -16.5818867782       34.9506647300      -95.4566720575  TIP3      8559            0.0000000000
     77193      9920  TIP3      OH2           -11.8595747572       34.2759017766      -95.5017868938  TIP3      8560            0.0000000000
     77194      9920  TIP3      H1            -12.3194878654       34.8306594820      -96.1487947622  TIP3      8560            0.0000000000
     77195      9920  TIP3      H2            -11.6741749716       34.9080290435      -94.7838236510  TIP3      8560            0.0000000000
     77196      9921  TIP3      OH2            -6.3112503728       16.3425011427       96.6909988659  TIP3      8561            0.0000000000
     77197      9921  TIP3      H1             -5.6839616572       16.9028283342       96.1741158538  TIP3      8561            0.0000000000
     77198      9921  TIP3      H2             -7.1701188890       16.6804993878       96.4287350479  TIP3      8561            0.0000000000
     77199      9922  TIP3      OH2            -4.6322944450       17.5590755508       94.9617258129  TIP3      8562            0.0000000000
     77200      9922  TIP3      H1             -3.9721110923       16.9797785607       94.5094484428  TIP3      8562            0.0000000000
     77201      9922  TIP3      H2             -4.1579978910       18.4167517770       95.0375811727  TIP3      8562            0.0000000000
     77202      9923  TIP3      OH2           -11.5255656665       33.9393213114       89.5225114807  TIP3      8563            0.0000000000
     77203      9923  TIP3      H1            -10.6117074598       34.1641355061       89.3432407470  TIP3      8563            0.0000000000
     77204      9923  TIP3      H2            -11.7360236592       33.3848655982       88.7521592267  TIP3      8563            0.0000000000
     77205      9924  TIP3      OH2             7.7903000100       25.2897318404      -96.9785597725  TIP3      8564            0.0000000000
     77206      9924  TIP3      H1              7.7347139507       24.6806616817      -96.2271974437  TIP3      8564            0.0000000000
     77207      9924  TIP3      H2              7.3777383018       24.7776546499      -97.6875454037  TIP3      8564            0.0000000000
     77208      9925  TIP3      OH2             0.0865026876       24.9628545659      -95.3606204890  TIP3      8565            0.0000000000
     77209      9925  TIP3      H1              0.1914767409       24.2891376477      -94.6705480248  TIP3      8565            0.0000000000
     77210      9925  TIP3      H2              0.8414357312       25.5300857732      -95.1551874796  TIP3      8565            0.0000000000
     77211      9926  TIP3      OH2             1.0465150065       29.4154623836      -96.9278982540  TIP3      8566            0.0000000000
     77212      9926  TIP3      H1              0.7016369641       28.5424934110      -97.1883500034  TIP3      8566            0.0000000000
     77213      9926  TIP3      H2              1.9546647201       29.1642308799      -96.7507376313  TIP3      8566            0.0000000000
     77214      9927  TIP3      OH2            -2.3445319209       22.9878975499       93.3350472700  TIP3      8567            0.0000000000
     77215      9927  TIP3      H1             -2.7580722704       23.8681832753       93.2904792908  TIP3      8567            0.0000000000
     77216      9927  TIP3      H2             -2.9162481954       22.4731158781       92.7470485972  TIP3      8567            0.0000000000
     77217      9928  TIP3      OH2            -1.6356629970       25.2235430659       95.4798153389  TIP3      8568            0.0000000000
     77218      9928  TIP3      H1             -1.3707290231       24.4132442346       95.9392511432  TIP3      8568            0.0000000000
     77219      9928  TIP3      H2             -0.9179964650       25.3073760140       94.8341646559  TIP3      8568            0.0000000000
     77220      9929  TIP3      OH2            14.7070705357       19.3934471099      -95.7261445626  TIP3      8569            0.0000000000
     77221      9929  TIP3      H1             14.8978873793       19.9525867276      -94.9359670649  TIP3      8569            0.0000000000
     77222      9929  TIP3      H2             15.2971730080       19.7712830691      -96.3769966373  TIP3      8569            0.0000000000
     77223      9930  TIP3      OH2             9.2864981607       22.1598853445      -96.1515639010  TIP3      8570            0.0000000000
     77224      9930  TIP3      H1              9.4647224130       21.2038864672      -96.1722916437  TIP3      8570            0.0000000000
     77225      9930  TIP3      H2              9.1754574179       22.3297164233      -97.1076971670  TIP3      8570            0.0000000000
     77226      9931  TIP3      OH2            10.1578738602       20.3324266748       94.1563232319  TIP3      8571            0.0000000000
     77227      9931  TIP3      H1             10.8046326462       20.0382057486       94.8405679570  TIP3      8571            0.0000000000
     77228      9931  TIP3      H2             10.7175626546       20.8992250106       93.6127363050  TIP3      8571            0.0000000000
     77229      9932  TIP3      OH2             4.2212262795       24.2157660794       95.8101694412  TIP3      8572            0.0000000000
     77230      9932  TIP3      H1              4.8449557398       23.6376734625       96.2773324375  TIP3      8572            0.0000000000
     77231      9932  TIP3      H2              3.6516623130       23.5698379708       95.3433224807  TIP3      8572            0.0000000000
     77232      9933  TIP3      OH2            15.1654812682       20.8020894802      -93.4857486649  TIP3      8573            0.0000000000
     77233      9933  TIP3      H1             14.5102414642       21.5258164798      -93.5474177197  TIP3      8573            0.0000000000
     77234      9933  TIP3      H2             15.2444587087       20.6776979864      -92.5251987233  TIP3      8573            0.0000000000
     77235      9934  TIP3      OH2            11.9308633903       19.6827257772       96.1936985398  TIP3      8574            0.0000000000
     77236      9934  TIP3      H1             11.7078581154       18.8908693837       96.6973589381  TIP3      8574            0.0000000000
     77237      9934  TIP3      H2             12.6092975075       20.1044919286       96.7427546753  TIP3      8574            0.0000000000
     77238      9935  TIP3      OH2             2.2423055468       28.7858892642      -93.8405403315  TIP3      8575            0.0000000000
     77239      9935  TIP3      H1              2.2368561107       29.7195060690      -94.1271167186  TIP3      8575            0.0000000000
     77240      9935  TIP3      H2              1.3765760986       28.7271461440      -93.3756946526  TIP3      8575            0.0000000000
     77241      9936  TIP3      OH2            12.2898918180       18.3964083354      -94.8697702326  TIP3      8576            0.0000000000
     77242      9936  TIP3      H1             11.5431759016       19.0041573107      -94.9636631170  TIP3      8576            0.0000000000
     77243      9936  TIP3      H2             12.9942793940       18.7927533181      -95.4127316332  TIP3      8576            0.0000000000
     77244      9937  TIP3      OH2             5.3266954495       16.4883303370      -97.3391845078  TIP3      8577            0.0000000000
     77245      9937  TIP3      H1              5.1578740619       15.5534065084      -97.5076274210  TIP3      8577            0.0000000000
     77246      9937  TIP3      H2              4.4281693308       16.7989035811      -97.1586819041  TIP3      8577            0.0000000000
     77247      9938  TIP3      OH2             7.5868658185       23.7458348881       88.9033096495  TIP3      8578            0.0000000000
     77248      9938  TIP3      H1              8.3187050813       23.8025100454       89.5158122239  TIP3      8578            0.0000000000
     77249      9938  TIP3      H2              7.9255348798       23.1667601444       88.2156391131  TIP3      8578            0.0000000000
     77250      9939  TIP3      OH2            10.9308453398       25.4189278079       92.7313872671  TIP3      8579            0.0000000000
     77251      9939  TIP3      H1             10.2765165483       25.7507389279       93.3475763634  TIP3      8579            0.0000000000
     77252      9939  TIP3      H2             11.4672638516       24.8030041156       93.2540222148  TIP3      8579            0.0000000000
     77253      9940  TIP3      OH2            10.9816002589       23.6765202289      -92.9705538125  TIP3      8580            0.0000000000
     77254      9940  TIP3      H1             10.8737793231       24.3911495034      -92.3091126110  TIP3      8580            0.0000000000
     77255      9940  TIP3      H2             10.2703072300       23.9748229920      -93.5596192938  TIP3      8580            0.0000000000
     77256      9941  TIP3      OH2             2.5807491678       26.1523028670       94.6604342715  TIP3      8581            0.0000000000
     77257      9941  TIP3      H1              2.3037462252       25.7875898186       93.7875229457  TIP3      8581            0.0000000000
     77258      9941  TIP3      H2              3.2240962093       25.4757054245       94.9725511774  TIP3      8581            0.0000000000
     77259      9942  TIP3      OH2             2.9355422665       24.9652415124      -96.4408207827  TIP3      8582            0.0000000000
     77260      9942  TIP3      H1              3.5211511731       25.0167713252      -97.2146702478  TIP3      8582            0.0000000000
     77261      9942  TIP3      H2              3.3415194380       25.5625056486      -95.8119427135  TIP3      8582            0.0000000000
     77262      9943  TIP3      OH2             3.7965502068       29.2618716984      -91.6815950670  TIP3      8583            0.0000000000
     77263      9943  TIP3      H1              3.5352197927       30.1062355143      -91.3006079762  TIP3      8583            0.0000000000
     77264      9943  TIP3      H2              3.2022037850       29.1512889594      -92.4590787803  TIP3      8583            0.0000000000
     77265      9944  TIP3      OH2             0.8370540248       25.5140890643      -92.5257153069  TIP3      8584            0.0000000000
     77266      9944  TIP3      H1              0.8470409156       26.1705654734      -91.8055889377  TIP3      8584            0.0000000000
     77267      9944  TIP3      H2             -0.0982385797       25.5621066297      -92.7665998548  TIP3      8584            0.0000000000
     77268      9945  TIP3      OH2            13.5922708208       16.4351005773       90.3318031491  TIP3      8585            0.0000000000
     77269      9945  TIP3      H1             12.6425861137       16.5642678505       90.5242655414  TIP3      8585            0.0000000000
     77270      9945  TIP3      H2             13.8097880721       17.2515708354       89.8605262481  TIP3      8585            0.0000000000
     77271      9946  TIP3      OH2             1.5993894831       25.1972738892       92.2773168825  TIP3      8586            0.0000000000
     77272      9946  TIP3      H1              1.3225225477       25.9636330438       91.7315453604  TIP3      8586            0.0000000000
     77273      9946  TIP3      H2              0.9251821392       24.5489845706       92.0547796096  TIP3      8586            0.0000000000
     77274      9947  TIP3      OH2            -2.3433496012       27.5958500137      -93.5853396981  TIP3      8587            0.0000000000
     77275      9947  TIP3      H1             -2.7557187511       27.5074634230      -94.4513865048  TIP3      8587            0.0000000000
     77276      9947  TIP3      H2             -2.2429633602       26.6508035651      -93.3568840907  TIP3      8587            0.0000000000
     77277      9948  TIP3      OH2            10.1842241011       33.5974591274       89.2787426207  TIP3      8588            0.0000000000
     77278      9948  TIP3      H1             10.5095928289       32.8095336637       88.8519128844  TIP3      8588            0.0000000000
     77279      9948  TIP3      H2             10.0787948733       33.3282720016       90.1948670479  TIP3      8588            0.0000000000
     77280      9949  TIP3      OH2            12.8496669717       22.4938889121      -90.6366443979  TIP3      8589            0.0000000000
     77281      9949  TIP3      H1             12.3202989971       22.9611996123      -91.3062889264  TIP3      8589            0.0000000000
     77282      9949  TIP3      H2             12.7939646075       21.5716633498      -90.9289641089  TIP3      8589            0.0000000000
     77283      9950  TIP3      OH2            -0.0920339879       28.9327509437      -92.6273145291  TIP3      8590            0.0000000000
     77284      9950  TIP3      H1              0.1483785133       28.5621094468      -91.7513442073  TIP3      8590            0.0000000000
     77285      9950  TIP3      H2             -0.9427348922       28.5121754190      -92.8339774841  TIP3      8590            0.0000000000
     77286      9951  TIP3      OH2            10.5604863731       20.8971093202      -92.4172411916  TIP3      8591            0.0000000000
     77287      9951  TIP3      H1              9.9948343891       20.7020958912      -91.6306520436  TIP3      8591            0.0000000000
     77288      9951  TIP3      H2             10.3856916024       21.8362672179      -92.6057904771  TIP3      8591            0.0000000000
     77289      9952  TIP3      OH2             6.9627060654       19.5950234442       88.7600803213  TIP3      8592            0.0000000000
     77290      9952  TIP3      H1              6.6044830181       19.6044471172       89.6549031466  TIP3      8592            0.0000000000
     77291      9952  TIP3      H2              6.6322362848       18.7416814768       88.4719249218  TIP3      8592            0.0000000000
     77292      9953  TIP3      OH2             2.6419526693       22.6815042009       94.1015198852  TIP3      8593            0.0000000000
     77293      9953  TIP3      H1              1.7435730082       22.2886658829       94.0919735395  TIP3      8593            0.0000000000
     77294      9953  TIP3      H2              3.0483728036       22.2320712997       93.3442146674  TIP3      8593            0.0000000000
     77295      9954  TIP3      OH2             8.2068280943       23.0140059334       92.9412866399  TIP3      8594            0.0000000000
     77296      9954  TIP3      H1              7.7596108049       23.7859365372       92.5869995707  TIP3      8594            0.0000000000
     77297      9954  TIP3      H2              8.8858996118       22.7918370732       92.2754210378  TIP3      8594            0.0000000000
     77298      9955  TIP3      OH2             6.8962944985       23.0895863962      -90.3026827074  TIP3      8595            0.0000000000
     77299      9955  TIP3      H1              6.6370711445       22.2298072084      -89.9483004675  TIP3      8595            0.0000000000
     77300      9955  TIP3      H2              7.8659175818       23.1438640036      -90.0389545021  TIP3      8595            0.0000000000
     77301      9956  TIP3      OH2             9.2442780744       22.4589690952       95.7689229788  TIP3      8596            0.0000000000
     77302      9956  TIP3      H1              8.9355006323       22.9986177455       95.0254986968  TIP3      8596            0.0000000000
     77303      9956  TIP3      H2              9.3364661228       21.6049295138       95.3078920129  TIP3      8596            0.0000000000
     77304      9957  TIP3      OH2            -3.0048260094       19.6498772844       94.9724078524  TIP3      8597            0.0000000000
     77305      9957  TIP3      H1             -2.3108761598       19.7679728962       95.6179457034  TIP3      8597            0.0000000000
     77306      9957  TIP3      H2             -2.5445978224       19.4037438742       94.1616360282  TIP3      8597            0.0000000000
     77307      9958  TIP3      OH2            -1.6384031961       20.5935086034       90.4483591130  TIP3      8598            0.0000000000
     77308      9958  TIP3      H1             -1.2904624567       21.0996923425       89.7102676557  TIP3      8598            0.0000000000
     77309      9958  TIP3      H2             -2.4379021721       21.0916019685       90.6808105314  TIP3      8598            0.0000000000
     77310      9959  TIP3      OH2             8.3998744544       24.0501337700      -94.4153633675  TIP3      8599            0.0000000000
     77311      9959  TIP3      H1              8.8260822791       23.3549151340      -94.9637754915  TIP3      8599            0.0000000000
     77312      9959  TIP3      H2              8.0287820254       23.5448080044      -93.6682199372  TIP3      8599            0.0000000000
     77313      9960  TIP3      OH2             0.0308336958       21.5672104000       94.0417741366  TIP3      8600            0.0000000000
     77314      9960  TIP3      H1             -0.8476223492       21.7592172236       93.6446349977  TIP3      8600            0.0000000000
     77315      9960  TIP3      H2              0.2995170984       20.7565204451       93.6100407865  TIP3      8600            0.0000000000
     77316      9961  TIP3      OH2             9.6455936406       19.2744149675      -96.3135081655  TIP3      8601            0.0000000000
     77317      9961  TIP3      H1              8.9556434899       19.3153082718      -95.6427524928  TIP3      8601            0.0000000000
     77318      9961  TIP3      H2              9.1441418312       19.0047876653      -97.1020116522  TIP3      8601            0.0000000000
     77319      9962  TIP3      OH2            12.8923839228       34.9423885921      -89.9227729779  TIP3      8602            0.0000000000
     77320      9962  TIP3      H1             13.1171282280       35.3219098329      -90.7799951045  TIP3      8602            0.0000000000
     77321      9962  TIP3      H2             13.6168963245       35.2445808782      -89.3573614662  TIP3      8602            0.0000000000
     77322      9963  TIP3      OH2             0.5494047909       27.4397292857      -90.4337284667  TIP3      8603            0.0000000000
     77323      9963  TIP3      H1              1.2573502152       27.6090223343      -89.7846858350  TIP3      8603            0.0000000000
     77324      9963  TIP3      H2             -0.2294550638       27.5066323500      -89.8408180794  TIP3      8603            0.0000000000
     77325      9964  TIP3      OH2             6.5434660181       22.7778306222       97.0857024439  TIP3      8604            0.0000000000
     77326      9964  TIP3      H1              7.0984503549       22.2002422331       96.5498594279  TIP3      8604            0.0000000000
     77327      9964  TIP3      H2              6.3606809764       22.2164693136       97.8578981359  TIP3      8604            0.0000000000
     77328      9965  TIP3      OH2             5.1744436040       21.2249809731      -95.2711071341  TIP3      8605            0.0000000000
     77329      9965  TIP3      H1              4.3164426798       21.6184384162      -95.0898462792  TIP3      8605            0.0000000000
     77330      9965  TIP3      H2              5.7041547725       21.4419779622      -94.4860524834  TIP3      8605            0.0000000000
     77331      9966  TIP3      OH2             5.6460276585       27.4406060540       91.1473721655  TIP3      8606            0.0000000000
     77332      9966  TIP3      H1              4.9542713145       26.8240647145       90.8507832808  TIP3      8606            0.0000000000
     77333      9966  TIP3      H2              5.5922965015       27.3974459249       92.1138349685  TIP3      8606            0.0000000000
     77334      9967  TIP3      OH2            12.8865434009       26.5045112380      -94.7619681368  TIP3      8607            0.0000000000
     77335      9967  TIP3      H1             13.5305306419       26.9861238901      -95.3037997333  TIP3      8607            0.0000000000
     77336      9967  TIP3      H2             12.0588891827       26.6148205120      -95.2527092909  TIP3      8607            0.0000000000
     77337      9968  TIP3      OH2             9.6186541242       20.1314436488       89.3707842654  TIP3      8608            0.0000000000
     77338      9968  TIP3      H1              8.6716727806       20.2769041827       89.1846714437  TIP3      8608            0.0000000000
     77339      9968  TIP3      H2              9.9199038756       21.0048911808       89.6728315292  TIP3      8608            0.0000000000
     77340      9969  TIP3      OH2            10.3227262281       22.1533434654       91.0457010383  TIP3      8609            0.0000000000
     77341      9969  TIP3      H1             11.2291666298       21.9409372551       91.3751523924  TIP3      8609            0.0000000000
     77342      9969  TIP3      H2             10.4720017787       22.9033793902       90.4767265645  TIP3      8609            0.0000000000
     77343      9970  TIP3      OH2             0.8552895717       26.6947338011       96.9979582351  TIP3      8610            0.0000000000
     77344      9970  TIP3      H1              1.5523593604       26.6405373691       96.3112598994  TIP3      8610            0.0000000000
     77345      9970  TIP3      H2              0.9346123833       25.8374785781       97.4456725244  TIP3      8610            0.0000000000
     77346      9971  TIP3      OH2            -2.1705397303       25.1341098583      -92.4589440760  TIP3      8611            0.0000000000
     77347      9971  TIP3      H1             -1.9107490191       24.6827551705      -91.6357469587  TIP3      8611            0.0000000000
     77348      9971  TIP3      H2             -2.7151990653       24.4808055302      -92.9236012769  TIP3      8611            0.0000000000
     77349      9972  TIP3      OH2             4.8453436904       24.7022532121      -90.2726445335  TIP3      8612            0.0000000000
     77350      9972  TIP3      H1              4.5764522500       24.4420647081      -91.1614921308  TIP3      8612            0.0000000000
     77351      9972  TIP3      H2              5.7903976118       24.4011450165      -90.2801643433  TIP3      8612            0.0000000000
     77352      9973  TIP3      OH2            10.6785383054       25.8760258585      -96.4711175658  TIP3      8613            0.0000000000
     77353      9973  TIP3      H1              9.7408601357       25.6393774068      -96.5330575667  TIP3      8613            0.0000000000
     77354      9973  TIP3      H2             11.1294905071       25.1066730764      -96.8698747833  TIP3      8613            0.0000000000
     77355      9974  TIP3      OH2             3.2516354136       30.2067281306       94.3832869127  TIP3      8614            0.0000000000
     77356      9974  TIP3      H1              3.7406688235       30.9850543089       94.1354534425  TIP3      8614            0.0000000000
     77357      9974  TIP3      H2              2.3511641618       30.3994069768       94.0876329647  TIP3      8614            0.0000000000
     77358      9975  TIP3      OH2            -1.0183126581       25.0343441975       88.9287691801  TIP3      8615            0.0000000000
     77359      9975  TIP3      H1             -0.4053342295       25.6843604701       89.3115976981  TIP3      8615            0.0000000000
     77360      9975  TIP3      H2             -1.8953309316       25.3213916684       89.2139132921  TIP3      8615            0.0000000000
     77361      9976  TIP3      OH2             4.6574688232       27.8857919991       93.8974920472  TIP3      8616            0.0000000000
     77362      9976  TIP3      H1              4.3282590960       28.7952779626       93.9796083684  TIP3      8616            0.0000000000
     77363      9976  TIP3      H2              3.9340678962       27.3736976321       94.3187425619  TIP3      8616            0.0000000000
     77364      9977  TIP3      OH2             5.0439114230       32.0711256962      -94.4066198675  TIP3      8617            0.0000000000
     77365      9977  TIP3      H1              5.5109105515       32.8521333481      -94.7169602270  TIP3      8617            0.0000000000
     77366      9977  TIP3      H2              5.6547178989       31.6837686458      -93.7635348511  TIP3      8617            0.0000000000
     77367      9978  TIP3      OH2            -0.9015935491       31.6569531927      -94.4759721814  TIP3      8618            0.0000000000
     77368      9978  TIP3      H1             -0.5872207398       30.7407947211      -94.5103117983  TIP3      8618            0.0000000000
     77369      9978  TIP3      H2             -0.5850736419       31.9403748982      -93.6031723016  TIP3      8618            0.0000000000
     77370      9979  TIP3      OH2             3.8484486565       29.7305765252       89.9307525463  TIP3      8619            0.0000000000
     77371      9979  TIP3      H1              4.1405202046       29.1711717755       90.6653301612  TIP3      8619            0.0000000000
     77372      9979  TIP3      H2              3.9709167573       30.6267736739       90.2489909400  TIP3      8619            0.0000000000
     77373      9980  TIP3      OH2             0.4632848446       26.9170373036       90.4605293794  TIP3      8620            0.0000000000
     77374      9980  TIP3      H1             -0.2312577064       27.3274813301       90.9858172040  TIP3      8620            0.0000000000
     77375      9980  TIP3      H2              0.9315036234       27.7124818540       90.1383726132  TIP3      8620            0.0000000000
     77376      9981  TIP3      OH2             9.0054355736       19.2107155104       91.8533739285  TIP3      8621            0.0000000000
     77377      9981  TIP3      H1              9.2301635694       19.6878455155       91.0262884811  TIP3      8621            0.0000000000
     77378      9981  TIP3      H2              9.5486572846       19.6946298004       92.4970459373  TIP3      8621            0.0000000000
     77379      9982  TIP3      OH2             6.8037964773       22.0233251961      -92.9117522707  TIP3      8622            0.0000000000
     77380      9982  TIP3      H1              6.8413842161       22.5455640615      -92.0829809414  TIP3      8622            0.0000000000
     77381      9982  TIP3      H2              7.4247680041       21.3066345953      -92.7425417699  TIP3      8622            0.0000000000
     77382      9983  TIP3      OH2             7.1726058195       17.9832427543       93.5787035983  TIP3      8623            0.0000000000
     77383      9983  TIP3      H1              6.7726930226       18.6174122333       94.1896855260  TIP3      8623            0.0000000000
     77384      9983  TIP3      H2              7.7668771438       18.5798888067       93.0793739937  TIP3      8623            0.0000000000
     77385      9984  TIP3      OH2            12.9732955829       19.8758186100      -92.0399769343  TIP3      8624            0.0000000000
     77386      9984  TIP3      H1             12.0349784193       20.1590507623      -92.1609572285  TIP3      8624            0.0000000000
     77387      9984  TIP3      H2             13.2533841891       19.8265323915      -92.9629860007  TIP3      8624            0.0000000000
     77388      9985  TIP3      OH2            11.5406704561       23.6413348255       96.7283842321  TIP3      8625            0.0000000000
     77389      9985  TIP3      H1             10.7190377645       23.2008702644       96.4421316785  TIP3      8625            0.0000000000
     77390      9985  TIP3      H2             12.0083363082       22.9479411322       97.2363053926  TIP3      8625            0.0000000000
     77391      9986  TIP3      OH2             1.0221274345       29.5091578971       89.3916786465  TIP3      8626            0.0000000000
     77392      9986  TIP3      H1              1.6179992144       30.2414503044       89.5860001826  TIP3      8626            0.0000000000
     77393      9986  TIP3      H2              1.4457157599       29.1561992015       88.6038892997  TIP3      8626            0.0000000000
     77394      9987  TIP3      OH2            12.6036488093       32.9304785523      -96.3082643030  TIP3      8627            0.0000000000
     77395      9987  TIP3      H1             12.4946541421       33.5940483188      -97.0060266574  TIP3      8627            0.0000000000
     77396      9987  TIP3      H2             13.5699586754       32.9748202563      -96.2017349493  TIP3      8627            0.0000000000
     77397      9988  TIP3      OH2            -0.8532158556       30.9677194483       93.2762778912  TIP3      8628            0.0000000000
     77398      9988  TIP3      H1             -1.7184265837       31.4141487581       93.3088295811  TIP3      8628            0.0000000000
     77399      9988  TIP3      H2             -0.3959265467       31.4857141730       92.6229447137  TIP3      8628            0.0000000000
     77400      9989  TIP3      OH2            -1.8426068070       27.3115937777      -89.1537785467  TIP3      8629            0.0000000000
     77401      9989  TIP3      H1             -1.6147623902       26.4292756259      -89.4887479931  TIP3      8629            0.0000000000
     77402      9989  TIP3      H2             -2.5191241611       27.6699572579      -89.7418948901  TIP3      8629            0.0000000000
     77403      9990  TIP3      OH2             4.8273955493       27.3561848394      -89.7061022483  TIP3      8630            0.0000000000
     77404      9990  TIP3      H1              4.6051840252       27.6714177132      -90.5987911428  TIP3      8630            0.0000000000
     77405      9990  TIP3      H2              5.0651008922       26.4155193175      -89.8474873937  TIP3      8630            0.0000000000
     77406      9991  TIP3      OH2            10.6025073954       27.2517959209      -92.4199549728  TIP3      8631            0.0000000000
     77407      9991  TIP3      H1             11.3786165474       27.8175861762      -92.4242150927  TIP3      8631            0.0000000000
     77408      9991  TIP3      H2              9.8753993563       27.8586701046      -92.2539128963  TIP3      8631            0.0000000000
     77409      9992  TIP3      OH2            -0.9418887485       24.6025619622      -89.7432522104  TIP3      8632            0.0000000000
     77410      9992  TIP3      H1             -0.4749687657       23.7709246807      -89.8609756506  TIP3      8632            0.0000000000
     77411      9992  TIP3      H2             -1.0892887561       24.6186028715      -88.7721455315  TIP3      8632            0.0000000000
     77412      9993  TIP3      OH2             3.7179869986       25.7218468200       90.0156173335  TIP3      8633            0.0000000000
     77413      9993  TIP3      H1              3.2919582653       25.2011365122       90.7031491566  TIP3      8633            0.0000000000
     77414      9993  TIP3      H2              4.0486355444       25.0332596720       89.3954064344  TIP3      8633            0.0000000000
     77415      9994  TIP3      OH2             3.0426785982       23.6001050567      -92.3492641024  TIP3      8634            0.0000000000
     77416      9994  TIP3      H1              2.3819754306       24.2752898678      -92.1232900751  TIP3      8634            0.0000000000
     77417      9994  TIP3      H2              3.3882354385       23.9219078432      -93.1979713748  TIP3      8634            0.0000000000
     77418      9995  TIP3      OH2             4.8165044192       23.9400338998       88.2612618773  TIP3      8635            0.0000000000
     77419      9995  TIP3      H1              4.6993557201       23.7721364231       87.3220882835  TIP3      8635            0.0000000000
     77420      9995  TIP3      H2              5.7842070100       24.0236798394       88.3549073014  TIP3      8635            0.0000000000
     77421      9996  TIP3      OH2             8.0080800894       26.2620834802      -88.8476343788  TIP3      8636            0.0000000000
     77422      9996  TIP3      H1              8.8812709996       26.0996037883      -89.2510332169  TIP3      8636            0.0000000000
     77423      9996  TIP3      H2              7.8475794733       25.3794588874      -88.5059338600  TIP3      8636            0.0000000000
     77424      9997  TIP3      OH2             5.3188694543       24.7609309914      -93.5946762452  TIP3      8637            0.0000000000
     77425      9997  TIP3      H1              6.1380125560       24.6363083395      -94.0886438627  TIP3      8637            0.0000000000
     77426      9997  TIP3      H2              5.0680891936       25.6520226539      -93.8323958869  TIP3      8637            0.0000000000
     77427      9998  TIP3      OH2             9.9061672475       22.3812324479      -88.1311145437  TIP3      8638            0.0000000000
     77428      9998  TIP3      H1             10.0203865245       21.5865353414      -88.6737847106  TIP3      8638            0.0000000000
     77429      9998  TIP3      H2             10.5230044566       22.9826189714      -88.5970938250  TIP3      8638            0.0000000000
     77430      9999  TIP3      OH2            11.5641539364       25.9806675480      -90.2406467139  TIP3      8639            0.0000000000
     77431      9999  TIP3      H1             10.9092328993       26.0341397065      -90.9740892070  TIP3      8639            0.0000000000
     77432      9999  TIP3      H2             12.1936183501       25.3648578019      -90.6681417077  TIP3      8639            0.0000000000
     77433     10000  TIP3      OH2             5.8345688585       20.8576188282      -89.7615686426  TIP3      8640            0.0000000000
     77434     10000  TIP3      H1              5.5677850896       20.8583429812      -88.8284497614  TIP3      8640            0.0000000000
     77435     10000  TIP3      H2              5.0370447559       20.8752844687      -90.2957024863  TIP3      8640            0.0000000000
     77436     10001  TIP3      OH2             8.5889685671       20.2448104813      -90.6363230467  TIP3      8641            0.0000000000
     77437     10001  TIP3      H1              7.6255397816       20.2765007050      -90.5271316923  TIP3      8641            0.0000000000
     77438     10001  TIP3      H2              8.8843988543       19.5651056201      -90.0024921817  TIP3      8641            0.0000000000
     77439     10002  TIP3      OH2            10.1359138819       18.8113712917      -88.7682842043  TIP3      8642            0.0000000000
     77440     10002  TIP3      H1             10.1624981636       17.8523156314      -88.6839442834  TIP3      8642            0.0000000000
     77441     10002  TIP3      H2              9.9097463497       19.1403710288      -87.8642386757  TIP3      8642            0.0000000000
     77442     10003  TIP3      OH2             4.6985122989       34.7232194531       89.3275435832  TIP3      8643            0.0000000000
     77443     10003  TIP3      H1              5.6654825969       34.7169691572       89.3436522638  TIP3      8643            0.0000000000
     77444     10003  TIP3      H2              4.4769247469       35.2168131437       88.5474542731  TIP3      8643            0.0000000000
     77445     10004  TIP3      OH2            15.3540589903       33.5659224836      -96.1162506352  TIP3      8644            0.0000000000
     77446     10004  TIP3      H1             15.3444979879       33.7080914936      -95.1548233757  TIP3      8644            0.0000000000
     77447     10004  TIP3      H2             16.0696977261       34.1165893954      -96.4377975687  TIP3      8644            0.0000000000
     77448     10005  TIP3      OH2            14.9815073853       33.1195090170      -93.2331315249  TIP3      8645            0.0000000000
     77449     10005  TIP3      H1             14.4115738611       32.3966137019      -93.5766744674  TIP3      8645            0.0000000000
     77450     10005  TIP3      H2             15.4267791435       32.7038044610      -92.4994255252  TIP3      8645            0.0000000000
     77451     10006  TIP3      OH2            14.9620604095       25.3544308892       93.4998109023  TIP3      8646            0.0000000000
     77452     10006  TIP3      H1             14.2840254555       24.7685569594       93.8812322967  TIP3      8646            0.0000000000
     77453     10006  TIP3      H2             15.6182606791       25.4189719046       94.1974562596  TIP3      8646            0.0000000000
     77454     10007  TIP3      OH2            14.7614785168       27.9746954539      -96.3107636157  TIP3      8647            0.0000000000
     77455     10007  TIP3      H1             15.6139790843       27.5899725022      -96.5589514335  TIP3      8647            0.0000000000
     77456     10007  TIP3      H2             14.9548657885       28.9254896959      -96.3976718659  TIP3      8647            0.0000000000
     77457     10008  TIP3      OH2            13.3457914090       30.9137937102      -93.9722616760  TIP3      8648            0.0000000000
     77458     10008  TIP3      H1             12.6545590561       31.2264839071      -93.3807221252  TIP3      8648            0.0000000000
     77459     10008  TIP3      H2             12.8131998320       30.4809717727      -94.6571398437  TIP3      8648            0.0000000000
     77460     10009  TIP3      OH2            15.3057684839       25.0927251871       89.8665354242  TIP3      8649            0.0000000000
     77461     10009  TIP3      H1             14.7451872985       25.4657154319       89.1873355864  TIP3      8649            0.0000000000
     77462     10009  TIP3      H2             15.3236176729       25.7577164578       90.5667265343  TIP3      8649            0.0000000000
     77463     10010  TIP3      OH2            12.8159618414       23.7371742058       94.0636829767  TIP3      8650            0.0000000000
     77464     10010  TIP3      H1             12.6834704089       22.7771361289       94.0390163573  TIP3      8650            0.0000000000
     77465     10010  TIP3      H2             12.5255565595       23.9741860378       94.9601766835  TIP3      8650            0.0000000000
     77466     10011  TIP3      OH2            -2.1813629506       25.8641903277      -96.6133034594  TIP3      8651            0.0000000000
     77467     10011  TIP3      H1             -1.9867074533       25.7724384334      -97.5668993147  TIP3      8651            0.0000000000
     77468     10011  TIP3      H2             -1.2961423748       25.6591339938      -96.2434420277  TIP3      8651            0.0000000000
     77469     10012  TIP3      OH2            13.8563892776       25.6950046111      -91.1778693304  TIP3      8652            0.0000000000
     77470     10012  TIP3      H1             14.3838908585       24.9707386606      -90.8016502864  TIP3      8652            0.0000000000
     77471     10012  TIP3      H2             14.3536228758       26.4835607300      -90.9819996822  TIP3      8652            0.0000000000
     77472     10013  TIP3      OH2            15.2344191008       23.6212966144      -90.3283376951  TIP3      8653            0.0000000000
     77473     10013  TIP3      H1             14.3413098421       23.2181496671      -90.4629146971  TIP3      8653            0.0000000000
     77474     10013  TIP3      H2             15.7999436535       22.8327630562      -90.4026020242  TIP3      8653            0.0000000000
     77475     10014  TIP3      OH2            12.9329322973       19.7192754396       87.5212681724  TIP3      8654            0.0000000000
     77476     10014  TIP3      H1             13.5422388335       19.3882397534       88.1982733421  TIP3      8654            0.0000000000
     77477     10014  TIP3      H2             12.0563446087       19.3905003468       87.7601763244  TIP3      8654            0.0000000000
     77478     10015  TIP3      OH2            12.5230615929       21.3129883801       92.5459345671  TIP3      8655            0.0000000000
     77479     10015  TIP3      H1             12.8415220937       20.3899090151       92.6688750197  TIP3      8655            0.0000000000
     77480     10015  TIP3      H2             13.3023426872       21.7366365648       92.1635765699  TIP3      8655            0.0000000000
     77481     10016  TIP3      OH2            13.1696875999       21.8738815893      -96.7697945933  TIP3      8656            0.0000000000
     77482     10016  TIP3      H1             14.0967913597       22.1279119293      -96.7896436190  TIP3      8656            0.0000000000
     77483     10016  TIP3      H2             12.9612746048       22.0228241131      -95.8293298241  TIP3      8656            0.0000000000
     77484     10017  TIP3      OH2            13.2299384594       22.6114498002      -94.0185872178  TIP3      8657            0.0000000000
     77485     10017  TIP3      H1             12.3645327351       22.8932406184      -93.6280512832  TIP3      8657            0.0000000000
     77486     10017  TIP3      H2             13.6124845589       23.4989115093      -94.1429670335  TIP3      8657            0.0000000000
     77487     10018  TIP3      OH2            -2.5622128911       21.1524987065      -90.4067918872  TIP3      8658            0.0000000000
     77488     10018  TIP3      H1             -1.6253700337       20.9364520396      -90.2990932531  TIP3      8658            0.0000000000
     77489     10018  TIP3      H2             -2.9759862279       20.2889545867      -90.1794559787  TIP3      8658            0.0000000000
     77490     10019  TIP3      OH2            15.4583537012       16.5974920277      -88.6544491980  TIP3      8659            0.0000000000
     77491     10019  TIP3      H1             15.8858760956       15.9726692280      -89.2534834273  TIP3      8659            0.0000000000
     77492     10019  TIP3      H2             15.5970906319       17.4455313089      -89.1273171760  TIP3      8659            0.0000000000
     77493     10020  TIP3      OH2            13.1703119783       18.6378772708       92.5981374861  TIP3      8660            0.0000000000
     77494     10020  TIP3      H1             13.3773776196       18.1399457414       93.4208769420  TIP3      8660            0.0000000000
     77495     10020  TIP3      H2             12.5845098800       18.0013849192       92.1342731651  TIP3      8660            0.0000000000
     77496     10021  TIP3      OH2            14.9971040113       18.7503585533      -90.2334179652  TIP3      8661            0.0000000000
     77497     10021  TIP3      H1             14.0570397251       19.0020530751      -90.3109299170  TIP3      8661            0.0000000000
     77498     10021  TIP3      H2             15.1026947829       18.2488252137      -91.0609512867  TIP3      8661            0.0000000000
     77499     10022  TIP3      OH2            15.0220351314       18.6519079308       89.1527448518  TIP3      8662            0.0000000000
     77500     10022  TIP3      H1             15.4237313280       17.9244191943       88.6503962401  TIP3      8662            0.0000000000
     77501     10022  TIP3      H2             15.6866574571       19.3512218220       89.1356986124  TIP3      8662            0.0000000000
     77502     10023  TIP3      OH2            12.0917872746       33.7520190414       94.0944626346  TIP3      8663            0.0000000000
     77503     10023  TIP3      H1             12.7416233258       33.2189562054       93.6413537095  TIP3      8663            0.0000000000
     77504     10023  TIP3      H2             12.5770042499       34.0628240654       94.8734108174  TIP3      8663            0.0000000000
     77505     10024  TIP3      OH2            -2.7422983384       17.3317919912      -94.1936836165  TIP3      8664            0.0000000000
     77506     10024  TIP3      H1             -3.3765475906       17.1414033216      -93.4815869388  TIP3      8664            0.0000000000
     77507     10024  TIP3      H2             -3.1798264675       18.0200480259      -94.7165805237  TIP3      8664            0.0000000000
     77508     10025  TIP3      OH2             2.4003834261       31.5192845505      -93.7871998800  TIP3      8665            0.0000000000
     77509     10025  TIP3      H1              2.0347830848       32.3809317441      -94.0351662324  TIP3      8665            0.0000000000
     77510     10025  TIP3      H2              3.3377455788       31.6543146850      -94.0531382000  TIP3      8665            0.0000000000
     77511     10026  TIP3      OH2            14.0593155790       16.8498670971      -92.4519286401  TIP3      8666            0.0000000000
     77512     10026  TIP3      H1             13.1993186209       17.1259764206      -92.8187245545  TIP3      8666            0.0000000000
     77513     10026  TIP3      H2             14.2017942389       16.0109548238      -92.9504071972  TIP3      8666            0.0000000000
     77514     10027  TIP3      OH2            -0.1720646687       34.8253358345      -93.6949092289  TIP3      8667            0.0000000000
     77515     10027  TIP3      H1             -0.9057063705       35.2599856260      -94.1438266427  TIP3      8667            0.0000000000
     77516     10027  TIP3      H2             -0.5416991112       34.5144116167      -92.8626854586  TIP3      8667            0.0000000000
     77517     10028  TIP3      OH2             2.3062966967       34.3403992391      -94.6548469669  TIP3      8668            0.0000000000
     77518     10028  TIP3      H1              1.4135567826       34.4937132300      -94.2735308709  TIP3      8668            0.0000000000
     77519     10028  TIP3      H2              2.2697908328       34.9504270633      -95.4216920368  TIP3      8668            0.0000000000
     77520     10029  TIP3      OH2            -0.6477981478       33.5063402451      -96.7601929654  TIP3      8669            0.0000000000
     77521     10029  TIP3      H1             -0.7779065517       32.9682289311      -95.9569979700  TIP3      8669            0.0000000000
     77522     10029  TIP3      H2              0.0618309876       33.0369911950      -97.2228452515  TIP3      8669            0.0000000000
     77523     10030  TIP3      OH2             1.4095749619       32.1282564945       96.6601647329  TIP3      8670            0.0000000000
     77524     10030  TIP3      H1              1.1906085168       31.1939607439       96.8187344531  TIP3      8670            0.0000000000
     77525     10030  TIP3      H2              2.2374362968       32.2468611766       97.1221049235  TIP3      8670            0.0000000000
     77526     10031  TIP3      OH2             7.4494909781       18.3093791545       96.6296985131  TIP3      8671            0.0000000000
     77527     10031  TIP3      H1              6.7479579695       17.6665968192       96.8434080273  TIP3      8671            0.0000000000
     77528     10031  TIP3      H2              7.9828510948       17.8048817395       96.0023190791  TIP3      8671            0.0000000000
     77529     10032  TIP3      OH2            12.5559674193       16.3722731014       96.6824257552  TIP3      8672            0.0000000000
     77530     10032  TIP3      H1             13.1886371603       16.8981822388       96.1435070714  TIP3      8672            0.0000000000
     77531     10032  TIP3      H2             11.6849774519       16.6965151639       96.4258164445  TIP3      8672            0.0000000000
     77532     10033  TIP3      OH2            14.2311800379       17.5528343513       94.9608832005  TIP3      8673            0.0000000000
     77533     10033  TIP3      H1             14.9026163859       16.9800237095       94.5218460779  TIP3      8673            0.0000000000
     77534     10033  TIP3      H2             14.7277729192       18.3887704040       95.0494222608  TIP3      8673            0.0000000000
     77535     10034  TIP3      OH2             9.8687173523       16.9013818799       95.9001640678  TIP3      8674            0.0000000000
     77536     10034  TIP3      H1              9.9525754309       16.9796541596       94.9405485022  TIP3      8674            0.0000000000
     77537     10034  TIP3      H2              9.6444742792       15.9652748360       96.0136207423  TIP3      8674            0.0000000000
     77538     10035  TIP3      OH2            11.2708963486       16.9086275472       91.5611451019  TIP3      8675            0.0000000000
     77539     10035  TIP3      H1             10.5241465055       17.4840624161       91.3438152826  TIP3      8675            0.0000000000
     77540     10035  TIP3      H2             10.8663969592       16.0442688809       91.7016409698  TIP3      8675            0.0000000000
     77541     10036  TIP3      OH2            26.6159095726       25.2862660577      -96.9729578211  TIP3      8676            0.0000000000
     77542     10036  TIP3      H1             26.5917805598       24.6651515916      -96.2207146098  TIP3      8676            0.0000000000
     77543     10036  TIP3      H2             26.2276081434       24.8098159149      -97.7149682233  TIP3      8676            0.0000000000
     77544     10037  TIP3      OH2            19.8720027308       29.3902661590      -96.8199420982  TIP3      8677            0.0000000000
     77545     10037  TIP3      H1             19.5720665597       28.5427800272      -97.1910043931  TIP3      8677            0.0000000000
     77546     10037  TIP3      H2             20.8436379094       29.2688371794      -96.8376371792  TIP3      8677            0.0000000000
     77547     10038  TIP3      OH2            25.0379534645       27.7966403672      -96.5557180522  TIP3      8678            0.0000000000
     77548     10038  TIP3      H1             25.3059362377       27.0372894214      -97.0929361386  TIP3      8678            0.0000000000
     77549     10038  TIP3      H2             25.7502874354       27.8526184109      -95.9119501688  TIP3      8678            0.0000000000
     77550     10039  TIP3      OH2            28.1442254724       22.1792760223      -96.2081729002  TIP3      8679            0.0000000000
     77551     10039  TIP3      H1             28.2841219626       21.2135626921      -96.1575570189  TIP3      8679            0.0000000000
     77552     10039  TIP3      H2             27.9997078828       22.3126663331      -97.1396352896  TIP3      8679            0.0000000000
     77553     10040  TIP3      OH2            17.1896223349       28.4204030681       91.6676798222  TIP3      8680            0.0000000000
     77554     10040  TIP3      H1             16.9569829219       28.7181363593       90.7832395336  TIP3      8680            0.0000000000
     77555     10040  TIP3      H2             17.2849838804       29.2464713450       92.1827730474  TIP3      8680            0.0000000000
     77556     10041  TIP3      OH2            31.1577156195       18.3782413425      -94.8814272851  TIP3      8681            0.0000000000
     77557     10041  TIP3      H1             30.3959200860       18.9652132264      -94.9414283452  TIP3      8681            0.0000000000
     77558     10041  TIP3      H2             31.8214941925       18.8077171046      -95.4288972437  TIP3      8681            0.0000000000
     77559     10042  TIP3      OH2            24.1219346119       16.4616250668      -97.4057293448  TIP3      8682            0.0000000000
     77560     10042  TIP3      H1             24.0130058984       15.4897077054      -97.4896594435  TIP3      8682            0.0000000000
     77561     10042  TIP3      H2             23.2527203461       16.7610715256      -97.1168442919  TIP3      8682            0.0000000000
     77562     10043  TIP3      OH2            29.7456407449       23.6550472145      -92.8616037182  TIP3      8683            0.0000000000
     77563     10043  TIP3      H1             29.8276437494       24.4501598541      -92.3240274011  TIP3      8683            0.0000000000
     77564     10043  TIP3      H2             29.1199844058       23.9606043414      -93.5437777093  TIP3      8683            0.0000000000
     77565     10044  TIP3      OH2            21.4625478885       26.1593531952       94.6616480061  TIP3      8684            0.0000000000
     77566     10044  TIP3      H1             21.1567412764       25.7611706358       93.8206023166  TIP3      8684            0.0000000000
     77567     10044  TIP3      H2             22.0642584297       25.4742695232       94.9900936011  TIP3      8684            0.0000000000
     77568     10045  TIP3      OH2            22.7223573382       29.4202290562       97.3466559278  TIP3      8685            0.0000000000
     77569     10045  TIP3      H1             22.7802767298       28.9731892115       96.4944956457  TIP3      8685            0.0000000000
     77570     10045  TIP3      H2             23.5480973567       29.1747054412       97.7946101743  TIP3      8685            0.0000000000
     77571     10046  TIP3      OH2            22.7076314497       29.2870096804      -91.7013540904  TIP3      8686            0.0000000000
     77572     10046  TIP3      H1             22.3884428037       30.0790452540      -91.2286940698  TIP3      8686            0.0000000000
     77573     10046  TIP3      H2             22.0791826485       29.2247835195      -92.4294196738  TIP3      8686            0.0000000000
     77574     10047  TIP3      OH2            20.9699650313       31.4165602431      -90.9496725160  TIP3      8687            0.0000000000
     77575     10047  TIP3      H1             20.9658447844       31.2765796166      -91.9159901266  TIP3      8687            0.0000000000
     77576     10047  TIP3      H2             20.0532870588       31.1996434979      -90.6900705591  TIP3      8687            0.0000000000
     77577     10048  TIP3      OH2            20.5107100944       25.1877247384       92.2106829945  TIP3      8688            0.0000000000
     77578     10048  TIP3      H1             20.1314515836       25.9562899273       91.7466054188  TIP3      8688            0.0000000000
     77579     10048  TIP3      H2             19.8116729702       24.5285022672       92.0918740245  TIP3      8688            0.0000000000
     77580     10049  TIP3      OH2            16.3194440964       30.3327618463      -96.8148166036  TIP3      8689            0.0000000000
     77581     10049  TIP3      H1             17.2715483333       30.2283253948      -96.7793104957  TIP3      8689            0.0000000000
     77582     10049  TIP3      H2             16.1688623454       31.1165500875      -96.2674856716  TIP3      8689            0.0000000000
     77583     10050  TIP3      OH2            25.9355747606       34.2930125135       92.2932396995  TIP3      8690            0.0000000000
     77584     10050  TIP3      H1             25.8439721478       34.1821681546       91.3293825225  TIP3      8690            0.0000000000
     77585     10050  TIP3      H2             25.9504316595       35.2534603027       92.3801661129  TIP3      8690            0.0000000000
     77586     10051  TIP3      OH2            19.5422954509       33.1907549643       94.0911263879  TIP3      8691            0.0000000000
     77587     10051  TIP3      H1             19.6892611493       32.8129769089       94.9853438886  TIP3      8691            0.0000000000
     77588     10051  TIP3      H2             18.6679473877       32.8205066818       93.9047655009  TIP3      8691            0.0000000000
     77589     10052  TIP3      OH2            26.1000599795       17.1155804393      -93.2567454167  TIP3      8692            0.0000000000
     77590     10052  TIP3      H1             26.5151373102       16.6837406143      -92.4978541975  TIP3      8692            0.0000000000
     77591     10052  TIP3      H2             25.1475402425       16.9128021889      -93.1426491763  TIP3      8692            0.0000000000
     77592     10053  TIP3      OH2            29.2595145872       20.8314999272      -92.4828093370  TIP3      8693            0.0000000000
     77593     10053  TIP3      H1             28.9214099357       20.7173212933      -91.5875033235  TIP3      8693            0.0000000000
     77594     10053  TIP3      H2             29.3184796763       21.7951635777      -92.6001793999  TIP3      8693            0.0000000000
     77595     10054  TIP3      OH2            25.8047124511       19.6009612901       88.7338306143  TIP3      8694            0.0000000000
     77596     10054  TIP3      H1             25.4669611115       19.6323162834       89.6337875198  TIP3      8694            0.0000000000
     77597     10054  TIP3      H2             25.5045918416       18.7424519519       88.4411823896  TIP3      8694            0.0000000000
     77598     10055  TIP3      OH2            15.8805298990       19.7505069043       94.9879642474  TIP3      8695            0.0000000000
     77599     10055  TIP3      H1             16.5385665764       19.6201919776       95.6747771290  TIP3      8695            0.0000000000
     77600     10055  TIP3      H2             16.2875850612       19.3385765998       94.1932885744  TIP3      8695            0.0000000000
     77601     10056  TIP3      OH2            27.3118152369       24.0499273559      -94.3508891316  TIP3      8696            0.0000000000
     77602     10056  TIP3      H1             27.6250842931       23.3692442636      -94.9716083411  TIP3      8696            0.0000000000
     77603     10056  TIP3      H2             26.8667992165       23.5165524929      -93.6709361630  TIP3      8696            0.0000000000
     77604     10057  TIP3      OH2            28.4855155128       19.2768781467      -96.3073123019  TIP3      8697            0.0000000000
     77605     10057  TIP3      H1             27.8172158315       19.3077353988      -95.5904600965  TIP3      8697            0.0000000000
     77606     10057  TIP3      H2             27.9528759100       19.0197373618      -97.0671580612  TIP3      8697            0.0000000000
     77607     10058  TIP3      OH2            31.3217917624       34.8288598924      -90.3401762452  TIP3      8698            0.0000000000
     77608     10058  TIP3      H1             31.8984680194       35.3210839465      -90.9204732906  TIP3      8698            0.0000000000
     77609     10058  TIP3      H2             31.9058687881       35.0349657534      -89.5518049547  TIP3      8698            0.0000000000
     77610     10059  TIP3      OH2            19.4410400700       27.5050555093      -90.3489989478  TIP3      8699            0.0000000000
     77611     10059  TIP3      H1             20.1264085917       27.6932415452      -89.7032541347  TIP3      8699            0.0000000000
     77612     10059  TIP3      H2             18.6146466536       27.5536448152      -89.8246280697  TIP3      8699            0.0000000000
     77613     10060  TIP3      OH2            31.7390729256       26.5273019067      -94.7168282556  TIP3      8700            0.0000000000
     77614     10060  TIP3      H1             32.3774104551       26.9264140225      -95.3133007826  TIP3      8700            0.0000000000
     77615     10060  TIP3      H2             30.9211639166       26.6049404790      -95.2321628263  TIP3      8700            0.0000000000
     77616     10061  TIP3      OH2            28.4566943658       20.1521439204       89.4102018282  TIP3      8701            0.0000000000
     77617     10061  TIP3      H1             27.5274768615       20.2964792584       89.1723650663  TIP3      8701            0.0000000000
     77618     10061  TIP3      H2             28.7841364051       21.0292096838       89.6256415924  TIP3      8701            0.0000000000
     77619     10062  TIP3      OH2            26.0185701880       27.5935109662      -92.3548110871  TIP3      8702            0.0000000000
     77620     10062  TIP3      H1             25.7769920915       27.2124775927      -91.5157745094  TIP3      8702            0.0000000000
     77621     10062  TIP3      H2             25.8905036729       28.5321749800      -92.2149573372  TIP3      8702            0.0000000000
     77622     10063  TIP3      OH2            19.7118523048       26.6785479944       96.9857892487  TIP3      8703            0.0000000000
     77623     10063  TIP3      H1             20.4153213922       26.6659339776       96.2983798925  TIP3      8703            0.0000000000
     77624     10063  TIP3      H2             19.8391112511       25.8242031569       97.4038911732  TIP3      8703            0.0000000000
     77625     10064  TIP3      OH2            34.0754658417       28.0193647710      -91.1273123735  TIP3      8704            0.0000000000
     77626     10064  TIP3      H1             33.2346096180       28.3240247409      -91.5106014072  TIP3      8704            0.0000000000
     77627     10064  TIP3      H2             34.6160956787       28.0345991355      -91.9427534132  TIP3      8704            0.0000000000
     77628     10065  TIP3      OH2            32.4309720092       31.0731340746       91.1851518397  TIP3      8705            0.0000000000
     77629     10065  TIP3      H1             32.0030193554       30.2826337394       91.5389639179  TIP3      8705            0.0000000000
     77630     10065  TIP3      H2             32.6726493979       30.9088931424       90.2750782639  TIP3      8705            0.0000000000
     77631     10066  TIP3      OH2            29.5639043329       25.8255895430      -96.4936809362  TIP3      8706            0.0000000000
     77632     10066  TIP3      H1             28.6093018459       25.6458662673      -96.5435259948  TIP3      8706            0.0000000000
     77633     10066  TIP3      H2             29.9885932193       25.0630431396      -96.9074506409  TIP3      8706            0.0000000000
     77634     10067  TIP3      OH2            22.1034610349       30.1799074298       94.3793274335  TIP3      8707            0.0000000000
     77635     10067  TIP3      H1             22.5940159970       30.9793026387       94.1470610878  TIP3      8707            0.0000000000
     77636     10067  TIP3      H2             21.2247290254       30.4025656451       94.0613618491  TIP3      8707            0.0000000000
     77637     10068  TIP3      OH2            22.1846216790       32.8615819734       93.4215257899  TIP3      8708            0.0000000000
     77638     10068  TIP3      H1             21.2214204503       32.9607847747       93.5816619542  TIP3      8708            0.0000000000
     77639     10068  TIP3      H2             22.5613080607       33.6631144970       93.7984658335  TIP3      8708            0.0000000000
     77640     10069  TIP3      OH2            34.0895513619       33.3569866564       89.5934841066  TIP3      8709            0.0000000000
     77641     10069  TIP3      H1             34.7294607231       33.9168707650       89.1006685682  TIP3      8709            0.0000000000
     77642     10069  TIP3      H2             33.4310444243       34.0847243670       89.6212179930  TIP3      8709            0.0000000000
     77643     10070  TIP3      OH2            18.0174390729       31.6677379039      -94.5110161053  TIP3      8710            0.0000000000
     77644     10070  TIP3      H1             18.2447947297       30.7295558094      -94.5111078012  TIP3      8710            0.0000000000
     77645     10070  TIP3      H2             18.2413079687       31.9344940378      -93.6155694450  TIP3      8710            0.0000000000
     77646     10071  TIP3      OH2            22.5422744317       29.7591819890       89.9180561960  TIP3      8711            0.0000000000
     77647     10071  TIP3      H1             22.9041470671       29.2337237226       90.6363163729  TIP3      8711            0.0000000000
     77648     10071  TIP3      H2             22.7847314223       30.6664898099       90.2104147072  TIP3      8711            0.0000000000
     77649     10072  TIP3      OH2            19.3029601475       26.9584258354       90.4458445653  TIP3      8712            0.0000000000
     77650     10072  TIP3      H1             18.5582697248       27.3122892455       90.9669112116  TIP3      8712            0.0000000000
     77651     10072  TIP3      H2             19.7331861770       27.7650180507       90.1455505537  TIP3      8712            0.0000000000
     77652     10073  TIP3      OH2            27.0825935457       19.6201175832      -94.0113080495  TIP3      8713            0.0000000000
     77653     10073  TIP3      H1             27.8101005768       19.6937407743      -93.3719215656  TIP3      8713            0.0000000000
     77654     10073  TIP3      H2             26.7061742567       18.7436340537      -93.8111259264  TIP3      8713            0.0000000000
     77655     10074  TIP3      OH2            25.3523070218       20.8607793997       92.7615464463  TIP3      8714            0.0000000000
     77656     10074  TIP3      H1             25.9163978020       21.6268034587       92.7327288951  TIP3      8714            0.0000000000
     77657     10074  TIP3      H2             24.8377754386       20.9307210820       93.5698854060  TIP3      8714            0.0000000000
     77658     10075  TIP3      OH2            25.6570297231       22.0569268057      -92.9258380285  TIP3      8715            0.0000000000
     77659     10075  TIP3      H1             25.6884838679       22.5923721493      -92.1179319875  TIP3      8715            0.0000000000
     77660     10075  TIP3      H2             26.2445906072       21.3046464357      -92.7984806875  TIP3      8715            0.0000000000
     77661     10076  TIP3      OH2            22.8543044998       32.4167649993       90.6277442682  TIP3      8716            0.0000000000
     77662     10076  TIP3      H1             23.0423747289       33.2609398567       90.1620385112  TIP3      8716            0.0000000000
     77663     10076  TIP3      H2             22.6687752892       32.7216533900       91.5411794836  TIP3      8716            0.0000000000
     77664     10077  TIP3      OH2            30.4102074766       23.6120138653       96.7875191027  TIP3      8717            0.0000000000
     77665     10077  TIP3      H1             29.6106355134       23.2232025221       96.4387663078  TIP3      8717            0.0000000000
     77666     10077  TIP3      H2             30.8370022468       22.9157923705       97.2858160423  TIP3      8717            0.0000000000
     77667     10078  TIP3      OH2            19.8122265057       29.6045512706       89.3073892002  TIP3      8718            0.0000000000
     77668     10078  TIP3      H1             20.4901068748       30.2215203431       89.6066655932  TIP3      8718            0.0000000000
     77669     10078  TIP3      H2             20.2877094068       29.1318884209       88.6124039827  TIP3      8718            0.0000000000
     77670     10079  TIP3      OH2            17.8621828365       30.9407517668       93.2087476496  TIP3      8719            0.0000000000
     77671     10079  TIP3      H1             17.0705258508       31.4775493309       93.3261341550  TIP3      8719            0.0000000000
     77672     10079  TIP3      H2             18.4551250410       31.4775484000       92.6798111208  TIP3      8719            0.0000000000
     77673     10080  TIP3      OH2            17.1925389387       33.6012726101      -90.1480792849  TIP3      8720            0.0000000000
     77674     10080  TIP3      H1             17.7375421965       33.3914011068      -89.3756651361  TIP3      8720            0.0000000000
     77675     10080  TIP3      H2             16.7372428077       32.7660162019      -90.2793144862  TIP3      8720            0.0000000000
     77676     10081  TIP3      OH2            21.8275477631       32.5604112559      -88.4979506459  TIP3      8721            0.0000000000
     77677     10081  TIP3      H1             22.5584640643       32.0087984527      -88.1782433676  TIP3      8721            0.0000000000
     77678     10081  TIP3      H2             21.7674993854       32.2537347056      -89.4244830027  TIP3      8721            0.0000000000
     77679     10082  TIP3      OH2            17.1062581512       27.3025184671      -89.1341749281  TIP3      8722            0.0000000000
     77680     10082  TIP3      H1             17.2085232433       26.4080128325      -89.4600619730  TIP3      8722            0.0000000000
     77681     10082  TIP3      H2             16.3499627811       27.6106795108      -89.6301203984  TIP3      8722            0.0000000000
     77682     10083  TIP3      OH2            23.7812593111       27.3463264582      -89.7308638422  TIP3      8723            0.0000000000
     77683     10083  TIP3      H1             23.3974703744       27.6675956412      -90.5764634652  TIP3      8723            0.0000000000
     77684     10083  TIP3      H2             23.8728171964       26.4012877052      -89.8780501556  TIP3      8723            0.0000000000
     77685     10084  TIP3      OH2            24.2011467430       24.7669778380      -93.5653842749  TIP3      8724            0.0000000000
     77686     10084  TIP3      H1             24.9768337593       24.5980903070      -94.1053535632  TIP3      8724            0.0000000000
     77687     10084  TIP3      H2             23.8643603659       25.6149405309      -93.8448991922  TIP3      8724            0.0000000000
     77688     10085  TIP3      OH2            23.4477505374       16.7726725545      -93.3738474092  TIP3      8725            0.0000000000
     77689     10085  TIP3      H1             23.2895161523       17.7198916086      -93.4790813739  TIP3      8725            0.0000000000
     77690     10085  TIP3      H2             22.6898596170       16.3790059261      -93.8447562361  TIP3      8725            0.0000000000
     77691     10086  TIP3      OH2            23.7020101228       16.1178116268      -90.6599477725  TIP3      8726            0.0000000000
     77692     10086  TIP3      H1             24.3722977279       15.4104960185      -90.7101680429  TIP3      8726            0.0000000000
     77693     10086  TIP3      H2             23.5379813659       16.3001261949      -91.6019690610  TIP3      8726            0.0000000000
     77694     10087  TIP3      OH2            23.5419685162       34.6481181875       89.2648244733  TIP3      8727            0.0000000000
     77695     10087  TIP3      H1             24.4998861249       34.7675213189       89.4059243032  TIP3      8727            0.0000000000
     77696     10087  TIP3      H2             23.3185457247       35.3457799732       88.6385257571  TIP3      8727            0.0000000000
     77697     10088  TIP3      OH2            16.6473163383       32.7490686812       95.6303387389  TIP3      8728            0.0000000000
     77698     10088  TIP3      H1             16.2668766673       31.8829673764       95.8360808820  TIP3      8728            0.0000000000
     77699     10088  TIP3      H2             16.8578279680       33.0829422599       96.5136508177  TIP3      8728            0.0000000000
     77700     10089  TIP3      OH2            34.0214617923       25.1758880283       93.4646823021  TIP3      8729            0.0000000000
     77701     10089  TIP3      H1             33.2496909248       24.7852627705       93.8780654772  TIP3      8729            0.0000000000
     77702     10089  TIP3      H2             34.5673918927       25.4524409435       94.2133271929  TIP3      8729            0.0000000000
     77703     10090  TIP3      OH2            16.7343729931       25.8684045559      -96.6529496704  TIP3      8730            0.0000000000
     77704     10090  TIP3      H1             16.9205814805       25.7342658802      -97.5827139190  TIP3      8730            0.0000000000
     77705     10090  TIP3      H2             17.5753919922       25.6833398834      -96.2302786060  TIP3      8730            0.0000000000
     77706     10091  TIP3      OH2            16.3244628905       21.1549315954      -90.4288111071  TIP3      8731            0.0000000000
     77707     10091  TIP3      H1             17.2525223703       20.9114163643      -90.3513231082  TIP3      8731            0.0000000000
     77708     10091  TIP3      H2             15.8869220281       20.3195011296      -90.1533503009  TIP3      8731            0.0000000000
     77709     10092  TIP3      OH2            16.1729199879       18.6922326277       92.2132723471  TIP3      8732            0.0000000000
     77710     10092  TIP3      H1             15.2239232377       18.8765752975       92.1053417245  TIP3      8732            0.0000000000
     77711     10092  TIP3      H2             16.5966076108       19.2072590811       91.5277324332  TIP3      8732            0.0000000000
     77712     10093  TIP3      OH2            16.1456541124       17.3620493732      -94.1908365621  TIP3      8733            0.0000000000
     77713     10093  TIP3      H1             15.4866741639       17.1729848354      -93.5007373194  TIP3      8733            0.0000000000
     77714     10093  TIP3      H2             15.6787816453       18.0178222284      -94.7291011545  TIP3      8733            0.0000000000
     77715     10094  TIP3      OH2            18.3488806427       30.6026110338      -89.9971623666  TIP3      8734            0.0000000000
     77716     10094  TIP3      H1             17.5060512298       30.7106111656      -90.4301317353  TIP3      8734            0.0000000000
     77717     10094  TIP3      H2             18.1290698399       30.4686972408      -89.0648012447  TIP3      8734            0.0000000000
     77718     10095  TIP3      OH2            21.3130405610       31.5292842323      -93.6955438236  TIP3      8735            0.0000000000
     77719     10095  TIP3      H1             20.9155761363       32.3515281981      -94.0117804141  TIP3      8735            0.0000000000
     77720     10095  TIP3      H2             22.1938064448       31.6307125955      -94.0716049379  TIP3      8735            0.0000000000
     77721     10096  TIP3      OH2            18.6538556037       34.7220222084      -93.7406346928  TIP3      8736            0.0000000000
     77722     10096  TIP3      H1             17.9816378495       35.2720638860      -94.1479457838  TIP3      8736            0.0000000000
     77723     10096  TIP3      H2             18.3637559682       34.6391804122      -92.8215517564  TIP3      8736            0.0000000000
     77724     10097  TIP3      OH2            21.1290969834       34.3927832142      -94.6591066600  TIP3      8737            0.0000000000
     77725     10097  TIP3      H1             20.2399021658       34.5197953107      -94.2618873248  TIP3      8737            0.0000000000
     77726     10097  TIP3      H2             21.0979737537       34.9140878846      -95.4597455350  TIP3      8737            0.0000000000
     77727     10098  TIP3      OH2            18.1481676285       33.4819999358      -96.7832556133  TIP3      8738            0.0000000000
     77728     10098  TIP3      H1             18.0737051865       32.9620687910      -95.9583023006  TIP3      8738            0.0000000000
     77729     10098  TIP3      H2             18.9180947003       33.0585698890      -97.2149646476  TIP3      8738            0.0000000000
     77730     10099  TIP3      OH2            20.2470876280       32.1541819101       96.5871718267  TIP3      8739            0.0000000000
     77731     10099  TIP3      H1             20.0546540570       31.2186963111       96.7743740109  TIP3      8739            0.0000000000
     77732     10099  TIP3      H2             21.0781521514       32.2563002188       97.0666586133  TIP3      8739            0.0000000000
     77733     10100  TIP3      OH2            26.2598104238       18.2994890613       96.5880935044  TIP3      8740            0.0000000000
     77734     10100  TIP3      H1             25.6142509887       17.6258774281       96.8631989214  TIP3      8740            0.0000000000
     77735     10100  TIP3      H2             26.8437116452       17.7666655545       96.0346323548  TIP3      8740            0.0000000000
     77736     10101  TIP3      OH2            31.4318051883       16.3156308884       96.6672395489  TIP3      8741            0.0000000000
     77737     10101  TIP3      H1             32.0126094789       16.9351264474       96.1989716655  TIP3      8741            0.0000000000
     77738     10101  TIP3      H2             30.5847675832       16.7074764178       96.4357215054  TIP3      8741            0.0000000000
     77739     10102  TIP3      OH2            18.6243812448       16.9071687143       94.4193375889  TIP3      8742            0.0000000000
     77740     10102  TIP3      H1             17.8284424974       16.6630605414       93.9190598909  TIP3      8742            0.0000000000
     77741     10102  TIP3      H2             19.1308616350       16.0818703771       94.3965877907  TIP3      8742            0.0000000000
     77742     10103  TIP3      OH2            17.4262307408       16.6915046669       90.1425150267  TIP3      8743            0.0000000000
     77743     10103  TIP3      H1             17.9156000976       17.3307726213       89.6242338081  TIP3      8743            0.0000000000
     77744     10103  TIP3      H2             16.8467529551       17.2002315178       90.7347735112  TIP3      8743            0.0000000000
     77745     10104  TIP3      OH2            23.1383011810       16.9199769425       94.2335950034  TIP3      8744            0.0000000000
     77746     10104  TIP3      H1             24.0629982171       17.1586438952       94.1817035268  TIP3      8744            0.0000000000
     77747     10104  TIP3      H2             23.0759561403       16.6069392313       95.1356342693  TIP3      8744            0.0000000000
     77748     10105  TIP3      OH2            26.1720678559       33.9449702385       89.5652914961  TIP3      8745            0.0000000000
     77749     10105  TIP3      H1             27.0446262595       34.2643725602       89.3535273672  TIP3      8745            0.0000000000
     77750     10105  TIP3      H2             25.9618684013       33.4211602897       88.7839309123  TIP3      8745            0.0000000000
     77751     10106  TIP3      OH2            32.8363979359       33.3555682189       92.1627495914  TIP3      8746            0.0000000000
     77752     10106  TIP3      H1             32.6777586705       32.6003026974       91.5654637240  TIP3      8746            0.0000000000
     77753     10106  TIP3      H2             32.8347317132       34.1295166852       91.5696434297  TIP3      8746            0.0000000000
     77754     10107  TIP3      OH2            18.5193521115       17.3959006833      -90.8363127720  TIP3      8747            0.0000000000
     77755     10107  TIP3      H1             18.1850188168       16.6304341631      -90.3558333142  TIP3      8747            0.0000000000
     77756     10107  TIP3      H2             19.4336214826       17.4514029468      -90.4788134313  TIP3      8747            0.0000000000
     77757     10108  TIP3      OH2            20.5680936849       16.7977628118      -89.2342433736  TIP3      8748            0.0000000000
     77758     10108  TIP3      H1             21.4517973197       16.4634524851      -89.4468856566  TIP3      8748            0.0000000000
     77759     10108  TIP3      H2             20.1818984058       16.0352138196      -88.7625086611  TIP3      8748            0.0000000000
     77760     10109  TIP3      OH2            19.2047773761       33.4896079542       88.1120567209  TIP3      8749            0.0000000000
     77761     10109  TIP3      H1             18.9528368842       33.8708793660       88.9593178695  TIP3      8749            0.0000000000
     77762     10109  TIP3      H2             19.9896566651       32.9855849959       88.3055576080  TIP3      8749            0.0000000000
     77763     10110  TIP3      OH2            37.8221605816       24.9496588949      -95.3698190373  TIP3      8750            0.0000000000
     77764     10110  TIP3      H1             37.8859817078       24.2701414372      -94.6728295066  TIP3      8750            0.0000000000
     77765     10110  TIP3      H2             38.5413654158       25.5422107435      -95.1324903103  TIP3      8750            0.0000000000
     77766     10111  TIP3      OH2            38.7983546872       29.4378256400      -96.8568855312  TIP3      8751            0.0000000000
     77767     10111  TIP3      H1             38.4177210443       28.5899127786      -97.1588310196  TIP3      8751            0.0000000000
     77768     10111  TIP3      H2             39.7103287142       29.1800434504      -96.7597871850  TIP3      8751            0.0000000000
     77769     10112  TIP3      OH2            36.0537887247       25.1626951407       95.4208738714  TIP3      8752            0.0000000000
     77770     10112  TIP3      H1             36.3427940059       24.4465274476       95.9877307997  TIP3      8752            0.0000000000
     77771     10112  TIP3      H2             36.8337770379       25.3348548246       94.8724338365  TIP3      8752            0.0000000000
     77772     10113  TIP3      OH2            39.5618968143       20.5209174278       96.1705302363  TIP3      8753            0.0000000000
     77773     10113  TIP3      H1             40.1027886318       21.1423265651       95.6415086489  TIP3      8753            0.0000000000
     77774     10113  TIP3      H2             39.6737438279       19.7804709865       95.5656247514  TIP3      8753            0.0000000000
     77775     10114  TIP3      OH2            39.7256650948       28.8754616778      -94.0041371796  TIP3      8754            0.0000000000
     77776     10114  TIP3      H1             39.8715327920       29.8355539797      -94.0742921919  TIP3      8754            0.0000000000
     77777     10114  TIP3      H2             39.0231190821       28.8270294760      -93.3266268067  TIP3      8754            0.0000000000
     77778     10115  TIP3      OH2            40.3267069521       26.1362618358       94.7022385267  TIP3      8755            0.0000000000
     77779     10115  TIP3      H1             39.9992653483       25.8267289976       93.8246543597  TIP3      8755            0.0000000000
     77780     10115  TIP3      H2             40.8815576478       25.4087104463       94.9875790903  TIP3      8755            0.0000000000
     77781     10116  TIP3      OH2            38.4763351627       25.4545299999      -92.4813497925  TIP3      8756            0.0000000000
     77782     10116  TIP3      H1             38.5740282100       26.1772589328      -91.8402065980  TIP3      8756            0.0000000000
     77783     10116  TIP3      H2             37.5896793620       25.6272418809      -92.8305993587  TIP3      8756            0.0000000000
     77784     10117  TIP3      OH2            39.7953715472       31.3234024752      -90.8978329091  TIP3      8757            0.0000000000
     77785     10117  TIP3      H1             39.8317867327       31.2467859443      -91.8815346902  TIP3      8757            0.0000000000
     77786     10117  TIP3      H2             38.8358389939       31.2381863504      -90.7520730204  TIP3      8757            0.0000000000
     77787     10118  TIP3      OH2            39.2963619982       25.1814907537       92.3213336273  TIP3      8758            0.0000000000
     77788     10118  TIP3      H1             39.0298837984       25.9504496491       91.7616101789  TIP3      8758            0.0000000000
     77789     10118  TIP3      H2             38.6385734786       24.5487195838       92.0196599900  TIP3      8758            0.0000000000
     77790     10119  TIP3      OH2            35.3842735270       27.6244937369      -93.6024344239  TIP3      8759            0.0000000000
     77791     10119  TIP3      H1             34.9435146226       27.5356378691      -94.4623542625  TIP3      8759            0.0000000000
     77792     10119  TIP3      H2             35.4250167396       26.6724601621      -93.3647144343  TIP3      8759            0.0000000000
     77793     10120  TIP3      OH2            35.1541351100       30.3644384632      -96.7939887803  TIP3      8760            0.0000000000
     77794     10120  TIP3      H1             36.1086787366       30.2101112806      -96.8066131641  TIP3      8760            0.0000000000
     77795     10120  TIP3      H2             35.0944539250       31.1536662714      -96.2586517304  TIP3      8760            0.0000000000
     77796     10121  TIP3      OH2            38.6004628401       32.7437854842       94.0773595358  TIP3      8761            0.0000000000
     77797     10121  TIP3      H1             38.5622157267       32.7559794756       95.0474425144  TIP3      8761            0.0000000000
     77798     10121  TIP3      H2             37.6503666585       32.7418776255       93.8763533521  TIP3      8761            0.0000000000
     77799     10122  TIP3      OH2            37.5530113688       28.9872905432      -92.5696562790  TIP3      8762            0.0000000000
     77800     10122  TIP3      H1             37.8306176416       28.5279266856      -91.7597797677  TIP3      8762            0.0000000000
     77801     10122  TIP3      H2             36.7691557578       28.4840737574      -92.8687765421  TIP3      8762            0.0000000000
     77802     10123  TIP3      OH2            40.3208348090       17.5894376598      -96.9020697707  TIP3      8763            0.0000000000
     77803     10123  TIP3      H1             39.3908439937       17.3749428260      -97.1285243596  TIP3      8763            0.0000000000
     77804     10123  TIP3      H2             40.2236518777       18.3143057566      -96.2744794730  TIP3      8763            0.0000000000
     77805     10124  TIP3      OH2            40.4268262371       22.4628520606      -94.8234542952  TIP3      8764            0.0000000000
     77806     10124  TIP3      H1             39.4836672331       22.2619372658      -94.6713012004  TIP3      8764            0.0000000000
     77807     10124  TIP3      H2             40.2746475738       23.0462683572      -95.5750692309  TIP3      8764            0.0000000000
     77808     10125  TIP3      OH2            40.1250945476       22.4200251169       94.4275139742  TIP3      8765            0.0000000000
     77809     10125  TIP3      H1             39.2763970201       22.2003714170       94.0588646215  TIP3      8765            0.0000000000
     77810     10125  TIP3      H2             40.7528542479       22.1076565293       93.7703383153  TIP3      8765            0.0000000000
     77811     10126  TIP3      OH2            38.0540023519       22.6265668113      -93.6674773900  TIP3      8766            0.0000000000
     77812     10126  TIP3      H1             38.0830918286       23.0653404493      -92.8029454841  TIP3      8766            0.0000000000
     77813     10126  TIP3      H2             37.5748973832       21.8080881073      -93.5344563709  TIP3      8766            0.0000000000
     77814     10127  TIP3      OH2            40.1246580596       22.6302902645       89.2740273997  TIP3      8767            0.0000000000
     77815     10127  TIP3      H1             39.5356210451       22.4794133477       88.5198160259  TIP3      8767            0.0000000000
     77816     10127  TIP3      H2             40.8939129718       23.0136089680       88.8317748019  TIP3      8767            0.0000000000
     77817     10128  TIP3      OH2            38.2383273872       27.3403218372      -90.3950728649  TIP3      8768            0.0000000000
     77818     10128  TIP3      H1             38.9555769080       27.6657629342      -89.8521379615  TIP3      8768            0.0000000000
     77819     10128  TIP3      H2             37.4340702953       27.5616006201      -89.8879120989  TIP3      8768            0.0000000000
     77820     10129  TIP3      OH2            38.6321727416       26.7269790547       96.9805528639  TIP3      8769            0.0000000000
     77821     10129  TIP3      H1             39.3038720044       26.6475267241       96.2835304991  TIP3      8769            0.0000000000
     77822     10129  TIP3      H2             38.6359160748       25.8685057686       97.4413832173  TIP3      8769            0.0000000000
     77823     10130  TIP3      OH2            35.5680860570       25.1087846607      -92.4932229439  TIP3      8770            0.0000000000
     77824     10130  TIP3      H1             35.7744255274       24.6968308269      -91.6419366080  TIP3      8770            0.0000000000
     77825     10130  TIP3      H2             34.9397466517       24.4970739270      -92.9096522687  TIP3      8770            0.0000000000
     77826     10131  TIP3      OH2            36.8200318051       31.6653739874      -94.4908094667  TIP3      8771            0.0000000000
     77827     10131  TIP3      H1             37.1074823449       30.7450082459      -94.4817657206  TIP3      8771            0.0000000000
     77828     10131  TIP3      H2             37.1167481942       31.9688630238      -93.6254632302  TIP3      8771            0.0000000000
     77829     10132  TIP3      OH2            38.1326564783       26.9475394911       90.4815836371  TIP3      8772            0.0000000000
     77830     10132  TIP3      H1             37.3954049387       27.3490766248       90.9535856050  TIP3      8772            0.0000000000
     77831     10132  TIP3      H2             38.5774297396       27.7494589931       90.1632765180  TIP3      8772            0.0000000000
     77832     10133  TIP3      OH2           -41.1878409418       19.1604391023       90.0842494206  TIP3      8773            0.0000000000
     77833     10133  TIP3      H1            -41.1488610194       20.0540728407       90.4513934126  TIP3      8773            0.0000000000
     77834     10133  TIP3      H2            -40.2267379202       18.9777033245       90.2036984008  TIP3      8773            0.0000000000
     77835     10134  TIP3      OH2            38.7268572743       29.5712590883       89.3301894499  TIP3      8774            0.0000000000
     77836     10134  TIP3      H1             39.3662975903       30.2295030588       89.6149856040  TIP3      8774            0.0000000000
     77837     10134  TIP3      H2             39.1864959107       29.1460382663       88.6036347236  TIP3      8774            0.0000000000
     77838     10135  TIP3      OH2            37.8572822322       17.0092199805       97.1304330016  TIP3      8775            0.0000000000
     77839     10135  TIP3      H1             37.6084961289       17.1178581014       96.1969445442  TIP3      8775            0.0000000000
     77840     10135  TIP3      H2             37.4214248420       16.1852435129       97.3899065814  TIP3      8775            0.0000000000
     77841     10136  TIP3      OH2            36.7838843562       30.8748940955       93.3055386634  TIP3      8776            0.0000000000
     77842     10136  TIP3      H1             35.9470108494       31.3575286149       93.2688899506  TIP3      8776            0.0000000000
     77843     10136  TIP3      H2             37.3054297949       31.4082144717       92.6873963343  TIP3      8776            0.0000000000
     77844     10137  TIP3      OH2            36.6725125198       32.6733374368      -90.0773469674  TIP3      8777            0.0000000000
     77845     10137  TIP3      H1             36.6846567201       33.2543959661      -89.3087685721  TIP3      8777            0.0000000000
     77846     10137  TIP3      H2             35.7194638483       32.6868775160      -90.3183220760  TIP3      8777            0.0000000000
     77847     10138  TIP3      OH2            35.9736297549       27.3760383405      -89.0943903638  TIP3      8778            0.0000000000
     77848     10138  TIP3      H1             36.0640684965       26.4700018157      -89.4491330177  TIP3      8778            0.0000000000
     77849     10138  TIP3      H2             35.2041023230       27.6750816022      -89.6501803682  TIP3      8778            0.0000000000
     77850     10139  TIP3      OH2            36.8242605353       24.6338626878      -89.7080916770  TIP3      8779            0.0000000000
     77851     10139  TIP3      H1             37.2276701175       23.7614404165      -89.8397315764  TIP3      8779            0.0000000000
     77852     10139  TIP3      H2             36.4993368957       24.5372872395      -88.8067082857  TIP3      8779            0.0000000000
     77853     10140  TIP3      OH2            39.4717270079       22.2593756661      -89.3290805350  TIP3      8780            0.0000000000
     77854     10140  TIP3      H1             38.7774301151       21.5992366089      -89.5477148043  TIP3      8780            0.0000000000
     77855     10140  TIP3      H2             40.1806017117       21.9214107360      -89.9203701198  TIP3      8780            0.0000000000
     77856     10141  TIP3      OH2            37.7966860001       20.1181396889      -89.6949279325  TIP3      8781            0.0000000000
     77857     10141  TIP3      H1             37.9334940698       19.3451529396      -90.2564225752  TIP3      8781            0.0000000000
     77858     10141  TIP3      H2             37.6346157569       19.6682909489      -88.8266892913  TIP3      8781            0.0000000000
     77859     10142  TIP3      OH2            33.2770482288       34.9054639321       94.0112283357  TIP3      8782            0.0000000000
     77860     10142  TIP3      H1             33.4256060346       34.2876938445       93.2538754545  TIP3      8782            0.0000000000
     77861     10142  TIP3      H2             34.1105167001       34.6190314069       94.3998411205  TIP3      8782            0.0000000000
     77862     10143  TIP3      OH2            35.4863464280       32.6163408185       95.7099975548  TIP3      8783            0.0000000000
     77863     10143  TIP3      H1             35.1481229020       31.7423099422       95.9142386002  TIP3      8783            0.0000000000
     77864     10143  TIP3      H2             35.7917484466       33.0064870394       96.5524209894  TIP3      8783            0.0000000000
     77865     10144  TIP3      OH2            37.1512657260       30.2424668166      -89.9571636262  TIP3      8784            0.0000000000
     77866     10144  TIP3      H1             36.4656645258       30.7535617065      -90.4396387034  TIP3      8784            0.0000000000
     77867     10144  TIP3      H2             36.8878415462       30.5244351845      -89.0825992920  TIP3      8784            0.0000000000
     77868     10145  TIP3      OH2            40.1526299194       31.5475104458      -93.7151325572  TIP3      8785            0.0000000000
     77869     10145  TIP3      H1             39.7503460597       32.3834198316      -94.0510493465  TIP3      8785            0.0000000000
     77870     10145  TIP3      H2             41.0571188251       31.6390426160      -94.0416305770  TIP3      8785            0.0000000000
     77871     10146  TIP3      OH2            37.5198609462       34.7049424675      -93.7082613075  TIP3      8786            0.0000000000
     77872     10146  TIP3      H1             36.8543151642       35.2776789497      -94.1492480703  TIP3      8786            0.0000000000
     77873     10146  TIP3      H2             37.1470720456       34.6250249436      -92.8217994563  TIP3      8786            0.0000000000
     77874     10147  TIP3      OH2            39.6326706154       33.8912599319      -94.9479876863  TIP3      8787            0.0000000000
     77875     10147  TIP3      H1             39.0658136851       34.3608838854      -94.2840204172  TIP3      8787            0.0000000000
     77876     10147  TIP3      H2             39.9476901645       34.7172539267      -95.3834123568  TIP3      8787            0.0000000000
     77877     10148  TIP3      OH2            36.8810151105       33.3064740112      -96.7916349642  TIP3      8788            0.0000000000
     77878     10148  TIP3      H1             37.0063815666       32.9983632583      -95.8749484333  TIP3      8788            0.0000000000
     77879     10148  TIP3      H2             37.7449439511       33.0951039597      -97.2013053906  TIP3      8788            0.0000000000
     77880     10149  TIP3      OH2            39.0717800052       32.1448411354       96.6120171550  TIP3      8789            0.0000000000
     77881     10149  TIP3      H1             38.8555480879       31.2070013780       96.7879263706  TIP3      8789            0.0000000000
     77882     10149  TIP3      H2             39.8780338629       32.2802574038       97.1052706181  TIP3      8789            0.0000000000
     77883     10150  TIP3      OH2            37.5097149122       16.9544327606       94.3087749764  TIP3      8790            0.0000000000
     77884     10150  TIP3      H1             36.6491697993       16.6873993562       93.9473452008  TIP3      8790            0.0000000000
     77885     10150  TIP3      H2             37.9613663083       16.0973986423       94.4377446004  TIP3      8790            0.0000000000
     77886     10151  TIP3      OH2            36.2963467277       16.6528251029       90.2310295567  TIP3      8791            0.0000000000
     77887     10151  TIP3      H1             36.7330621606       17.2820433954       89.6104149003  TIP3      8791            0.0000000000
     77888     10151  TIP3      H2             35.6779648198       17.2386097112       90.6809720687  TIP3      8791            0.0000000000
     77889     10152  TIP3      OH2            35.8832840322       32.3937294481       91.3464505650  TIP3      8792            0.0000000000
     77890     10152  TIP3      H1             35.4037425655       32.5228804205       90.5084534897  TIP3      8792            0.0000000000
     77891     10152  TIP3      H2             36.2295785482       33.2919444460       91.4726825356  TIP3      8792            0.0000000000
     77892     10153  TIP3      OH2            38.1407379064       18.4145131719       88.7888477418  TIP3      8793            0.0000000000
     77893     10153  TIP3      H1             38.6252030504       18.0693480725       88.0230258214  TIP3      8793            0.0000000000
     77894     10153  TIP3      H2             38.8173950211       18.9837834520       89.2003620337  TIP3      8793            0.0000000000
     77895     10154  TIP3      OH2            39.4505461014       16.8437391154      -89.1983516580  TIP3      8794            0.0000000000
     77896     10154  TIP3      H1             40.2969205872       16.4863056499      -89.4754561386  TIP3      8794            0.0000000000
     77897     10154  TIP3      H2             38.9941271421       16.0650103446      -88.8195674944  TIP3      8794            0.0000000000
     77898     10155  TIP3      OH2            38.8318967259       33.1367671588       87.2814377211  TIP3      8795            0.0000000000
     77899     10155  TIP3      H1             38.1134356660       33.4731556524       87.8649083097  TIP3      8795            0.0000000000
     77900     10155  TIP3      H2             39.1341386414       32.7958630406       88.1495877475  TIP3      8795            0.0000000000
     77901     10156  TIP3      OH2           -22.9354732298       38.1599644244      -95.7099776343  TIP3      8796            0.0000000000
     77902     10156  TIP3      H1            -22.7722737485       38.7717784638      -94.9590038149  TIP3      8796            0.0000000000
     77903     10156  TIP3      H2            -22.4692563380       38.6530870085      -96.3966468688  TIP3      8796            0.0000000000
     77904     10157  TIP3      OH2           -35.2448276530       39.0957548732       95.8182496534  TIP3      8797            0.0000000000
     77905     10157  TIP3      H1            -35.1890547877       39.9280452269       95.3365885305  TIP3      8797            0.0000000000
     77906     10157  TIP3      H2            -35.7146499488       38.5758061698       95.1217945836  TIP3      8797            0.0000000000
     77907     10158  TIP3      OH2           -27.5602936479       39.0021528291       94.2427438970  TIP3      8798            0.0000000000
     77908     10158  TIP3      H1            -26.8626213184       38.8170345917       94.8980135759  TIP3      8798            0.0000000000
     77909     10158  TIP3      H2            -27.0717319840       39.6122237368       93.6649603881  TIP3      8798            0.0000000000
     77910     10159  TIP3      OH2           -22.5313142456       39.6675548893      -93.4599856778  TIP3      8799            0.0000000000
     77911     10159  TIP3      H1            -23.1844480617       40.3594770540      -93.4531125714  TIP3      8799            0.0000000000
     77912     10159  TIP3      H2            -22.4914713293       39.5005086952      -92.5076434624  TIP3      8799            0.0000000000
     77913     10160  TIP3      OH2           -36.3844981635       37.9281401330      -94.9272408384  TIP3      8800            0.0000000000
     77914     10160  TIP3      H1            -36.6683606106       38.5556305298      -95.6426679030  TIP3      8800            0.0000000000
     77915     10160  TIP3      H2            -37.0183435146       38.1921910607      -94.2156059937  TIP3      8800            0.0000000000
     77916     10161  TIP3      OH2           -25.4594873049       38.4691767878       95.9749479621  TIP3      8801            0.0000000000
     77917     10161  TIP3      H1            -25.8518372513       37.7864470894       96.5394556718  TIP3      8801            0.0000000000
     77918     10161  TIP3      H2            -25.0157200286       39.0196675803       96.6501787190  TIP3      8801            0.0000000000
     77919     10162  TIP3      OH2           -36.7484812025       39.7142726329      -96.7608820548  TIP3      8802            0.0000000000
     77920     10162  TIP3      H1            -36.2996843913       40.5545937869      -96.5682604551  TIP3      8802            0.0000000000
     77921     10162  TIP3      H2            -36.3001979328       39.4550322734      -97.6003711516  TIP3      8802            0.0000000000
     77922     10163  TIP3      OH2           -25.2900799672       37.0635327310      -94.8179493624  TIP3      8803            0.0000000000
     77923     10163  TIP3      H1            -26.1217058463       37.5646452169      -94.8840305111  TIP3      8803            0.0000000000
     77924     10163  TIP3      H2            -24.6652365893       37.5478587510      -95.3792970216  TIP3      8803            0.0000000000
     77925     10164  TIP3      OH2           -32.4553753054       35.3417027594      -97.4035726858  TIP3      8804            0.0000000000
     77926     10164  TIP3      H1            -32.5609199586       34.3795998295      -97.4999319141  TIP3      8804            0.0000000000
     77927     10164  TIP3      H2            -33.3131152929       35.6799327422      -97.1164778826  TIP3      8804            0.0000000000
     77928     10165  TIP3      OH2           -24.1312502926       35.1964127423       90.2945877540  TIP3      8805            0.0000000000
     77929     10165  TIP3      H1            -25.0746463306       35.3740447007       90.5264765183  TIP3      8805            0.0000000000
     77930     10165  TIP3      H2            -23.9365298645       36.0602255220       89.9013818919  TIP3      8805            0.0000000000
     77931     10166  TIP3      OH2           -35.0890540194       36.3129383507      -96.6489098555  TIP3      8806            0.0000000000
     77932     10166  TIP3      H1            -35.9809765681       36.3808559185      -97.0537060589  TIP3      8806            0.0000000000
     77933     10166  TIP3      H2            -35.1392269346       37.1585803115      -96.1517754330  TIP3      8806            0.0000000000
     77934     10167  TIP3      OH2           -30.4570799640       35.8805467572      -93.3014377848  TIP3      8807            0.0000000000
     77935     10167  TIP3      H1            -30.0419922459       35.4971578646      -92.5067488234  TIP3      8807            0.0000000000
     77936     10167  TIP3      H2            -31.4239362999       35.7483642549      -93.1634518310  TIP3      8807            0.0000000000
     77937     10168  TIP3      OH2           -26.7073458869       39.4001427086      -92.3217711972  TIP3      8808            0.0000000000
     77938     10168  TIP3      H1            -27.4735528015       39.2375926780      -91.7360560542  TIP3      8808            0.0000000000
     77939     10168  TIP3      H2            -27.0169440839       40.2725677582      -92.6620794081  TIP3      8808            0.0000000000
     77940     10169  TIP3      OH2           -30.8336445394       38.4932415550       88.7272342769  TIP3      8809            0.0000000000
     77941     10169  TIP3      H1            -31.0857025368       38.4459702047       89.6735053552  TIP3      8809            0.0000000000
     77942     10169  TIP3      H2            -31.0759242360       37.5961491836       88.4768478762  TIP3      8809            0.0000000000
     77943     10170  TIP3      OH2           -39.9712637604       38.6165894931       94.3280434320  TIP3      8810            0.0000000000
     77944     10170  TIP3      H1            -40.0202504062       38.4326461269       95.3116774500  TIP3      8810            0.0000000000
     77945     10170  TIP3      H2            -39.9370337492       37.7283751795       93.9552433088  TIP3      8810            0.0000000000
     77946     10171  TIP3      OH2           -39.2298513833       39.3860683833       90.5720817241  TIP3      8811            0.0000000000
     77947     10171  TIP3      H1            -38.8843880526       39.9149349555       89.8005288926  TIP3      8811            0.0000000000
     77948     10171  TIP3      H2            -39.9833414850       39.9704937094       90.6814009172  TIP3      8811            0.0000000000
     77949     10172  TIP3      OH2           -32.4655141262       38.9725516110       95.1776586757  TIP3      8812            0.0000000000
     77950     10172  TIP3      H1            -33.3877525033       38.8911621788       95.4585400413  TIP3      8812            0.0000000000
     77951     10172  TIP3      H2            -31.9580160494       38.6967219988       95.9589481651  TIP3      8812            0.0000000000
     77952     10173  TIP3      OH2           -37.5610879991       39.8254486327       94.0401692275  TIP3      8813            0.0000000000
     77953     10173  TIP3      H1            -38.4049702864       40.0992599216       93.6565466843  TIP3      8813            0.0000000000
     77954     10173  TIP3      H2            -37.2513076809       39.1623014896       93.3998428849  TIP3      8813            0.0000000000
     77955     10174  TIP3      OH2           -33.9694018427      -41.0013800213       91.5462337198  TIP3      8814            0.0000000000
     77956     10174  TIP3      H1            -33.0705085094      -40.8281662806       91.9036208811  TIP3      8814            0.0000000000
     77957     10174  TIP3      H2            -34.1965219327      -40.2407912496       91.0124848294  TIP3      8814            0.0000000000
     77958     10175  TIP3      OH2           -27.9802994939       37.2975312384      -94.9761245819  TIP3      8815            0.0000000000
     77959     10175  TIP3      H1            -28.6281466000       38.0620516428      -94.9916621107  TIP3      8815            0.0000000000
     77960     10175  TIP3      H2            -28.0741469333       37.5276097060      -95.9348725685  TIP3      8815            0.0000000000
     77961     10176  TIP3      OH2           -36.1508773088       37.7548470772       93.4947698582  TIP3      8816            0.0000000000
     77962     10176  TIP3      H1            -36.4847328542       36.8539285966       93.4363127018  TIP3      8816            0.0000000000
     77963     10176  TIP3      H2            -35.3551516007       37.7372572960       92.9497187191  TIP3      8816            0.0000000000
     77964     10177  TIP3      OH2           -32.5284013612       39.9040774740      -95.2685857495  TIP3      8817            0.0000000000
     77965     10177  TIP3      H1            -33.2906650845       40.4708854521      -95.1675961799  TIP3      8817            0.0000000000
     77966     10177  TIP3      H2            -31.9705363558       40.2934990690      -94.5540613686  TIP3      8817            0.0000000000
     77967     10178  TIP3      OH2           -28.1871489198       39.0196246067       89.5701094472  TIP3      8818            0.0000000000
     77968     10178  TIP3      H1            -29.0653920404       39.1183242526       89.1760505794  TIP3      8818            0.0000000000
     77969     10178  TIP3      H2            -27.8017895414       39.8977798711       89.6040347549  TIP3      8818            0.0000000000
     77970     10179  TIP3      OH2           -37.3137615656       38.5915598682      -92.0042906111  TIP3      8819            0.0000000000
     77971     10179  TIP3      H1            -38.1037889289       39.0928044035      -92.3506382069  TIP3      8819            0.0000000000
     77972     10179  TIP3      H2            -37.8221190477       37.7665591498      -92.2426023837  TIP3      8819            0.0000000000
     77973     10180  TIP3      OH2           -29.8769973094       38.4869193787      -93.7828404889  TIP3      8820            0.0000000000
     77974     10180  TIP3      H1            -28.9566657484       38.5714148457      -93.4548612558  TIP3      8820            0.0000000000
     77975     10180  TIP3      H2            -29.9262954141       37.5128331018      -93.7559500860  TIP3      8820            0.0000000000
     77976     10181  TIP3      OH2           -28.7876665878       38.1437019719       91.8939429912  TIP3      8821            0.0000000000
     77977     10181  TIP3      H1            -28.4818453998       38.5115225474       91.0373893296  TIP3      8821            0.0000000000
     77978     10181  TIP3      H2            -28.1153683886       38.4860729209       92.4940414250  TIP3      8821            0.0000000000
     77979     10182  TIP3      OH2           -31.5120884617       39.8596109325       92.6613845156  TIP3      8822            0.0000000000
     77980     10182  TIP3      H1            -30.7001296278       40.3853925966       92.6815713127  TIP3      8822            0.0000000000
     77981     10182  TIP3      H2            -31.7504734645       39.6660884515       93.5935845215  TIP3      8822            0.0000000000
     77982     10183  TIP3      OH2           -30.9052555964      -40.6000613373      -92.8365619211  TIP3      8823            0.0000000000
     77983     10183  TIP3      H1            -30.7922557437      -40.0144244609      -92.0895662842  TIP3      8823            0.0000000000
     77984     10183  TIP3      H2            -30.2605692750      -41.3211699212      -92.7724622916  TIP3      8823            0.0000000000
     77985     10184  TIP3      OH2           -30.6725816274       36.9254822282       93.4252972872  TIP3      8824            0.0000000000
     77986     10184  TIP3      H1            -30.9298533697       37.4704219965       94.2094667830  TIP3      8824            0.0000000000
     77987     10184  TIP3      H2            -29.9445070513       37.4408612912       93.0347295581  TIP3      8824            0.0000000000
     77988     10185  TIP3      OH2           -34.9391989219       38.0158618345       90.2386521757  TIP3      8825            0.0000000000
     77989     10185  TIP3      H1            -35.0278567913       38.8951312588       90.6573930269  TIP3      8825            0.0000000000
     77990     10185  TIP3      H2            -34.0628268723       37.7321551275       90.5464793651  TIP3      8825            0.0000000000
     77991     10186  TIP3      OH2           -24.4470490356       38.5431755393      -92.0117570242  TIP3      8826            0.0000000000
     77992     10186  TIP3      H1            -25.3808128421       38.8814594445      -91.9544216940  TIP3      8826            0.0000000000
     77993     10186  TIP3      H2            -24.3973279083       38.6747092520      -92.9663427291  TIP3      8826            0.0000000000
     77994     10187  TIP3      OH2           -37.5829364991       35.8516361592       97.1590346356  TIP3      8827            0.0000000000
     77995     10187  TIP3      H1            -37.8513054370       35.9773309993       96.2045342893  TIP3      8827            0.0000000000
     77996     10187  TIP3      H2            -38.2020381743       35.1582711381       97.3953229901  TIP3      8827            0.0000000000
     77997     10188  TIP3      OH2           -34.6507187879       39.6639295326      -91.3665113195  TIP3      8828            0.0000000000
     77998     10188  TIP3      H1            -34.2331281658       39.0132261609      -91.9556641228  TIP3      8828            0.0000000000
     77999     10188  TIP3      H2            -34.4250767446       40.4970616167      -91.7871400039  TIP3      8828            0.0000000000
     78000     10189  TIP3      OH2           -33.9186392133       38.1673092037      -93.8062388320  TIP3      8829            0.0000000000
     78001     10189  TIP3      H1            -33.3415595002       38.6310850080      -94.4601435953  TIP3      8829            0.0000000000
     78002     10189  TIP3      H2            -34.8120727485       38.1102192832      -94.2079354363  TIP3      8829            0.0000000000
     78003     10190  TIP3      OH2           -33.1075769281       35.6190950465      -93.3774465702  TIP3      8830            0.0000000000
     78004     10190  TIP3      H1            -33.2644795427       36.5899192184      -93.4472594540  TIP3      8830            0.0000000000
     78005     10190  TIP3      H2            -33.8720470249       35.2374292304      -93.8242090762  TIP3      8830            0.0000000000
     78006     10191  TIP3      OH2           -31.6914762071       39.5290536219      -89.6724090035  TIP3      8831            0.0000000000
     78007     10191  TIP3      H1            -32.0058791816       39.6671131594      -88.7475217285  TIP3      8831            0.0000000000
     78008     10191  TIP3      H2            -32.5521138310       39.5965454799      -90.1041565345  TIP3      8831            0.0000000000
     78009     10192  TIP3      OH2           -29.4411825896       38.3547488653      -90.8988765308  TIP3      8832            0.0000000000
     78010     10192  TIP3      H1            -30.1110711454       38.9948807525      -90.5790040491  TIP3      8832            0.0000000000
     78011     10192  TIP3      H2            -28.8597363326       38.3712270721      -90.1089890142  TIP3      8832            0.0000000000
     78012     10193  TIP3      OH2           -27.6080370366       37.5744327928      -88.9101504077  TIP3      8833            0.0000000000
     78013     10193  TIP3      H1            -27.6282526591       36.6145492956      -88.7661178830  TIP3      8833            0.0000000000
     78014     10193  TIP3      H2            -27.7255833399       37.9271189157      -88.0014358773  TIP3      8833            0.0000000000
     78015     10194  TIP3      OH2           -37.6862632313       39.0022655109      -89.5371749922  TIP3      8834            0.0000000000
     78016     10194  TIP3      H1            -37.4718844255       38.3206689323      -90.2361728383  TIP3      8834            0.0000000000
     78017     10194  TIP3      H2            -37.7961800896       38.4415925251      -88.7433196854  TIP3      8834            0.0000000000
     78018     10195  TIP3      OH2           -32.9160074969       34.9356544020      -90.6818042993  TIP3      8835            0.0000000000
     78019     10195  TIP3      H1            -32.1878255928       34.2900774134      -90.7110504141  TIP3      8835            0.0000000000
     78020     10195  TIP3      H2            -33.0035061027       35.1682409350      -91.6292795897  TIP3      8835            0.0000000000
     78021     10196  TIP3      OH2           -32.5771651189       36.5903621103      -88.5924670963  TIP3      8836            0.0000000000
     78022     10196  TIP3      H1            -32.6933343566       36.1267802054      -89.4509473670  TIP3      8836            0.0000000000
     78023     10196  TIP3      H2            -33.1148976036       37.3985382653      -88.7077382302  TIP3      8836            0.0000000000
     78024     10197  TIP3      OH2           -24.8191374343       38.5172790664       87.3047935344  TIP3      8837            0.0000000000
     78025     10197  TIP3      H1            -24.2190085939       38.3726905232       88.0569450873  TIP3      8837            0.0000000000
     78026     10197  TIP3      H2            -25.6711550918       38.2499875146       87.6681971721  TIP3      8837            0.0000000000
     78027     10198  TIP3      OH2           -24.2503760287       40.3152306523       93.5489649669  TIP3      8838            0.0000000000
     78028     10198  TIP3      H1            -24.5775764411       39.5775815585       93.0441420269  TIP3      8838            0.0000000000
     78029     10198  TIP3      H2            -24.4473111857       40.9314572211       92.8123997526  TIP3      8838            0.0000000000
     78030     10199  TIP3      OH2           -24.1994099203      -41.2010432716      -96.5748318501  TIP3      8839            0.0000000000
     78031     10199  TIP3      H1            -23.5944769110      -40.4852136399      -96.8381445193  TIP3      8839            0.0000000000
     78032     10199  TIP3      H2            -24.6781641836      -40.6860186475      -95.9301499781  TIP3      8839            0.0000000000
     78033     10200  TIP3      OH2           -39.8303954670       40.0518501929      -90.6561139805  TIP3      8840            0.0000000000
     78034     10200  TIP3      H1            -39.0496383823       39.7567125164      -90.1813376118  TIP3      8840            0.0000000000
     78035     10200  TIP3      H2            -40.4739577500       39.3466206121      -90.3692363144  TIP3      8840            0.0000000000
     78036     10201  TIP3      OH2           -22.1531944916       35.4912354027      -88.6734209895  TIP3      8841            0.0000000000
     78037     10201  TIP3      H1            -21.9069442748       34.7793196588      -89.2641817206  TIP3      8841            0.0000000000
     78038     10201  TIP3      H2            -22.1708636854       36.2631929785      -89.2575940647  TIP3      8841            0.0000000000
     78039     10202  TIP3      OH2           -24.2485231224       37.1616358537       92.7444405667  TIP3      8842            0.0000000000
     78040     10202  TIP3      H1            -24.3417628246       36.8466567338       93.6530191366  TIP3      8842            0.0000000000
     78041     10202  TIP3      H2            -25.0315332199       36.8229877577       92.2616142149  TIP3      8842            0.0000000000
     78042     10203  TIP3      OH2           -38.8705663041       38.2806417393       97.0913540070  TIP3      8843            0.0000000000
     78043     10203  TIP3      H1            -38.5454755989       37.4559371570       97.4480401419  TIP3      8843            0.0000000000
     78044     10203  TIP3      H2            -38.4997335714       39.0050806909       97.5833909852  TIP3      8843            0.0000000000
     78045     10204  TIP3      OH2           -22.6413153270       37.5829420266      -90.2129476424  TIP3      8844            0.0000000000
     78046     10204  TIP3      H1            -23.5920721317       37.8999756569      -90.3134239800  TIP3      8844            0.0000000000
     78047     10204  TIP3      H2            -22.6356722468       37.0988139486      -91.0599239162  TIP3      8844            0.0000000000
     78048     10205  TIP3      OH2           -40.1564918361       37.3613593495       92.2074991832  TIP3      8845            0.0000000000
     78049     10205  TIP3      H1            -41.1023353421       37.5948447667       92.0166973871  TIP3      8845            0.0000000000
     78050     10205  TIP3      H2            -39.7549789232       38.0500324532       91.6483242679  TIP3      8845            0.0000000000
     78051     10206  TIP3      OH2            41.3041815561       35.6601921876      -94.6857579485  TIP3      8846            0.0000000000
     78052     10206  TIP3      H1             40.6464583369       35.6812828503      -93.9295395343  TIP3      8846            0.0000000000
     78053     10206  TIP3      H2             40.8497236339       36.4651726136      -95.0246040334  TIP3      8846            0.0000000000
     78054     10207  TIP3      OH2           -30.7932047899       36.9569279495       95.9445409556  TIP3      8847            0.0000000000
     78055     10207  TIP3      H1            -31.0029953367       36.5233321486       96.7802448315  TIP3      8847            0.0000000000
     78056     10207  TIP3      H2            -29.8536094010       36.7036518082       95.9537327969  TIP3      8847            0.0000000000
     78057     10208  TIP3      OH2           -25.1485457350       35.2345974715       96.7292099288  TIP3      8848            0.0000000000
     78058     10208  TIP3      H1            -24.5268875260       35.7794333878       96.1900540071  TIP3      8848            0.0000000000
     78059     10208  TIP3      H2            -26.0315141086       35.5447212394       96.4476270833  TIP3      8848            0.0000000000
     78060     10209  TIP3      OH2           -23.4755932539       36.3898624142       95.0520382205  TIP3      8849            0.0000000000
     78061     10209  TIP3      H1            -22.8057650124       35.8578024292       94.5605170530  TIP3      8849            0.0000000000
     78062     10209  TIP3      H2            -23.0112258388       37.2570401692       95.0771220963  TIP3      8849            0.0000000000
     78063     10210  TIP3      OH2           -37.9512415487       35.7260381646       94.4622957985  TIP3      8850            0.0000000000
     78064     10210  TIP3      H1            -38.7428220783       35.5649324053       93.9131325927  TIP3      8850            0.0000000000
     78065     10210  TIP3      H2            -37.4464540652       34.8992379802       94.3395178075  TIP3      8850            0.0000000000
     78066     10211  TIP3      OH2           -39.0794497393       35.5253810468       90.2275397833  TIP3      8851            0.0000000000
     78067     10211  TIP3      H1            -38.6683881305       36.1620463272       89.6114432161  TIP3      8851            0.0000000000
     78068     10211  TIP3      H2            -39.7183772321       36.0746886590       90.7033750089  TIP3      8851            0.0000000000
     78069     10212  TIP3      OH2           -33.4352802184       35.6902327567       94.2562216062  TIP3      8852            0.0000000000
     78070     10212  TIP3      H1            -32.5196600061       36.0288813340       94.1509555069  TIP3      8852            0.0000000000
     78071     10212  TIP3      H2            -33.4234965992       35.4602379235       95.1735801715  TIP3      8852            0.0000000000
     78072     10213  TIP3      OH2           -27.6501250449       35.6388411771       95.8094671481  TIP3      8853            0.0000000000
     78073     10213  TIP3      H1            -27.7955353655       35.7779426655       94.8730808899  TIP3      8853            0.0000000000
     78074     10213  TIP3      H2            -28.1341265757       34.7921163987       95.9803558830  TIP3      8853            0.0000000000
     78075     10214  TIP3      OH2           -26.4603888230       35.7641180995       91.5604692405  TIP3      8854            0.0000000000
     78076     10214  TIP3      H1            -27.2241532618       36.3325311735       91.3652740268  TIP3      8854            0.0000000000
     78077     10214  TIP3      H2            -26.8854014855       34.8898319714       91.7564670236  TIP3      8854            0.0000000000
     78078     10215  TIP3      OH2           -37.3089169958       37.4543380881       88.7178019501  TIP3      8855            0.0000000000
     78079     10215  TIP3      H1            -36.8057294396       36.8723180891       88.1288374757  TIP3      8855            0.0000000000
     78080     10215  TIP3      H2            -36.6067453484       37.8031696700       89.2841602410  TIP3      8855            0.0000000000
     78081     10216  TIP3      OH2           -32.2403201048       37.7386232941       91.0830060985  TIP3      8856            0.0000000000
     78082     10216  TIP3      H1            -32.0150958112       37.1407995245       91.8230684047  TIP3      8856            0.0000000000
     78083     10216  TIP3      H2            -32.2351338038       38.5891637321       91.5735431597  TIP3      8856            0.0000000000
     78084     10217  TIP3      OH2           -38.0764287113       36.2672474474      -90.7548293932  TIP3      8857            0.0000000000
     78085     10217  TIP3      H1            -38.4201561596       35.4699389443      -90.3477616385  TIP3      8857            0.0000000000
     78086     10217  TIP3      H2            -37.1280129560       36.2501302272      -90.4769679503  TIP3      8857            0.0000000000
     78087     10218  TIP3      OH2           -36.0057908283       35.6803369323      -89.2043431367  TIP3      8858            0.0000000000
     78088     10218  TIP3      H1            -35.1199194867       35.3478930009      -89.4388812963  TIP3      8858            0.0000000000
     78089     10218  TIP3      H2            -36.4080138815       34.9042573949      -88.7772635332  TIP3      8858            0.0000000000
     78090     10219  TIP3      OH2           -27.5887975834       34.9591136034      -89.0484941050  TIP3      8859            0.0000000000
     78091     10219  TIP3      H1            -27.5306206317       34.4791483203      -88.2010591382  TIP3      8859            0.0000000000
     78092     10219  TIP3      H2            -26.6841469131       34.9327270114      -89.4086331758  TIP3      8859            0.0000000000
     78093     10220  TIP3      OH2            -4.0623304362       38.1226163318      -95.6752753615  TIP3      8860            0.0000000000
     78094     10220  TIP3      H1             -3.9842243844       38.7866773474      -94.9633094649  TIP3      8860            0.0000000000
     78095     10220  TIP3      H2             -3.6330331183       38.5954222345      -96.3891196784  TIP3      8860            0.0000000000
     78096     10221  TIP3      OH2           -16.4608921391       39.1559849020       95.8094998064  TIP3      8861            0.0000000000
     78097     10221  TIP3      H1            -16.3576341503       39.9553222688       95.2857968756  TIP3      8861            0.0000000000
     78098     10221  TIP3      H2            -16.8170953217       38.5352389055       95.1608869265  TIP3      8861            0.0000000000
     78099     10222  TIP3      OH2            -8.7236787208       39.2171624073       94.1289161024  TIP3      8862            0.0000000000
     78100     10222  TIP3      H1             -8.0876550756       38.9070156153       94.8271640997  TIP3      8862            0.0000000000
     78101     10222  TIP3      H2             -8.0972549476       39.7516332485       93.6222428740  TIP3      8862            0.0000000000
     78102     10223  TIP3      OH2            -3.6124386011       39.5842784583      -93.4647073176  TIP3      8863            0.0000000000
     78103     10223  TIP3      H1             -4.2924602293       40.2315315291      -93.6277704088  TIP3      8863            0.0000000000
     78104     10223  TIP3      H2             -3.5794007979       39.5372820609      -92.4952837128  TIP3      8863            0.0000000000
     78105     10224  TIP3      OH2           -17.5840682904       37.9492790306      -94.8946593213  TIP3      8864            0.0000000000
     78106     10224  TIP3      H1            -17.8075515926       38.5786182552      -95.6126157367  TIP3      8864            0.0000000000
     78107     10224  TIP3      H2            -18.2193626366       38.2539678991      -94.2024743096  TIP3      8864            0.0000000000
     78108     10225  TIP3      OH2            -6.8971246293       38.4849221223       96.0987777305  TIP3      8865            0.0000000000
     78109     10225  TIP3      H1             -7.1458276776       37.7800239440       96.7054376271  TIP3      8865            0.0000000000
     78110     10225  TIP3      H2             -6.3257001744       39.0106022865       96.6896578816  TIP3      8865            0.0000000000
     78111     10226  TIP3      OH2           -17.9186454626       39.7279802987      -96.7709682001  TIP3      8866            0.0000000000
     78112     10226  TIP3      H1            -17.4431812938       40.5531803521      -96.5674073797  TIP3      8866            0.0000000000
     78113     10226  TIP3      H2            -17.4473971463       39.4358780860      -97.5854673740  TIP3      8866            0.0000000000
     78114     10227  TIP3      OH2           -13.5518910587       35.3591891791      -97.4170704854  TIP3      8867            0.0000000000
     78115     10227  TIP3      H1            -13.6996311196       34.4063365637      -97.5026959624  TIP3      8867            0.0000000000
     78116     10227  TIP3      H2            -14.4302138433       35.6691618109      -97.1196394977  TIP3      8867            0.0000000000
     78117     10228  TIP3      OH2            -5.3100625936       35.2601498766       90.2470882580  TIP3      8868            0.0000000000
     78118     10228  TIP3      H1             -6.2313193111       35.4031076059       90.5368808878  TIP3      8868            0.0000000000
     78119     10228  TIP3      H2             -5.0495972797       36.1366795459       89.9213661452  TIP3      8868            0.0000000000
     78120     10229  TIP3      OH2           -16.2269083326       36.2579306852      -96.7198777585  TIP3      8869            0.0000000000
     78121     10229  TIP3      H1            -17.1381247223       36.1280894190      -97.0485773819  TIP3      8869            0.0000000000
     78122     10229  TIP3      H2            -16.3362893263       37.0497788972      -96.1702228856  TIP3      8869            0.0000000000
     78123     10230  TIP3      OH2           -11.6113018841       35.9316607435      -93.2991896858  TIP3      8870            0.0000000000
     78124     10230  TIP3      H1            -11.2244113688       35.5374678025      -92.5149840001  TIP3      8870            0.0000000000
     78125     10230  TIP3      H2            -12.5812959099       35.7936327985      -93.1632678018  TIP3      8870            0.0000000000
     78126     10231  TIP3      OH2            -8.2870515073       39.7285240628      -92.4034269385  TIP3      8871            0.0000000000
     78127     10231  TIP3      H1             -8.8503403203       39.5653645592      -91.6170295713  TIP3      8871            0.0000000000
     78128     10231  TIP3      H2             -8.4969759473       40.6269188590      -92.6259394549  TIP3      8871            0.0000000000
     78129     10232  TIP3      OH2           -11.9367090623       38.4555427929       88.7765268098  TIP3      8872            0.0000000000
     78130     10232  TIP3      H1            -12.2624605980       38.4204299764       89.6958272461  TIP3      8872            0.0000000000
     78131     10232  TIP3      H2            -12.2453690301       37.5929165280       88.4748470650  TIP3      8872            0.0000000000
     78132     10233  TIP3      OH2           -21.8333597020       38.4874429428       94.9284092033  TIP3      8873            0.0000000000
     78133     10233  TIP3      H1            -21.1849982757       38.5779084456       95.6560494362  TIP3      8873            0.0000000000
     78134     10233  TIP3      H2            -21.3200702403       38.2111997095       94.1686568353  TIP3      8873            0.0000000000
     78135     10234  TIP3      OH2           -13.6156930881       38.8109158426       95.1387202299  TIP3      8874            0.0000000000
     78136     10234  TIP3      H1            -14.5322927757       38.8583138042       95.4666529547  TIP3      8874            0.0000000000
     78137     10234  TIP3      H2            -13.1394153288       38.7271086174       95.9885599456  TIP3      8874            0.0000000000
     78138     10235  TIP3      OH2           -18.8008305597       40.4323817114       94.0796242566  TIP3      8875            0.0000000000
     78139     10235  TIP3      H1            -19.6559900426       40.5707876626       93.6597362102  TIP3      8875            0.0000000000
     78140     10235  TIP3      H2            -18.4940755154       39.6502751176       93.6187195770  TIP3      8875            0.0000000000
     78141     10236  TIP3      OH2           -15.1775843155      -41.0202140330       91.6104272298  TIP3      8876            0.0000000000
     78142     10236  TIP3      H1            -14.2550598844      -40.8598945751       91.8938418707  TIP3      8876            0.0000000000
     78143     10236  TIP3      H2            -15.3618155960      -40.2703755584       91.0373102464  TIP3      8876            0.0000000000
     78144     10237  TIP3      OH2            -9.1836992066       38.0392187122      -96.3120661595  TIP3      8877            0.0000000000
     78145     10237  TIP3      H1             -9.8685606579       38.2031787270      -95.6323129427  TIP3      8877            0.0000000000
     78146     10237  TIP3      H2             -9.6988948816       37.8684671376      -97.1050605557  TIP3      8877            0.0000000000
     78147     10238  TIP3      OH2           -13.7671515582       39.6943375158      -94.6564640619  TIP3      8878            0.0000000000
     78148     10238  TIP3      H1            -14.3526283839       40.3605533448      -95.0477826914  TIP3      8878            0.0000000000
     78149     10238  TIP3      H2            -13.0699407834       40.3071255659      -94.4210117903  TIP3      8878            0.0000000000
     78150     10239  TIP3      OH2            -9.2422734062       38.8997707669       89.3494036686  TIP3      8879            0.0000000000
     78151     10239  TIP3      H1            -10.1769394579       39.1081779540       89.1622366376  TIP3      8879            0.0000000000
     78152     10239  TIP3      H2             -8.9049450313       39.7648022382       89.6172412880  TIP3      8879            0.0000000000
     78153     10240  TIP3      OH2           -19.3700753532       38.7094193155      -92.8618984366  TIP3      8880            0.0000000000
     78154     10240  TIP3      H1            -20.2549027399       39.0930585803      -93.0064641087  TIP3      8880            0.0000000000
     78155     10240  TIP3      H2            -19.5012849348       37.8386316089      -92.5120328979  TIP3      8880            0.0000000000
     78156     10241  TIP3      OH2           -10.6424620958       38.5085731078      -94.0263802937  TIP3      8881            0.0000000000
     78157     10241  TIP3      H1             -9.9309370741       38.5620234815      -93.3732295833  TIP3      8881            0.0000000000
     78158     10241  TIP3      H2            -10.9951885563       37.6181152048      -93.8115239700  TIP3      8881            0.0000000000
     78159     10242  TIP3      OH2            -9.8739889439       38.0934016424       91.8571998202  TIP3      8882            0.0000000000
     78160     10242  TIP3      H1             -9.6234511762       38.5393240675       91.0260312109  TIP3      8882            0.0000000000
     78161     10242  TIP3      H2             -9.2956854223       38.5061494147       92.5207211720  TIP3      8882            0.0000000000
     78162     10243  TIP3      OH2           -12.6464005796       39.8079980337       92.6319000338  TIP3      8883            0.0000000000
     78163     10243  TIP3      H1            -11.8813109684       40.4011266586       92.6780238227  TIP3      8883            0.0000000000
     78164     10243  TIP3      H2            -12.9387719183       39.6892935923       93.5583578979  TIP3      8883            0.0000000000
     78165     10244  TIP3      OH2           -12.0831881917      -40.8496321526      -92.5662064973  TIP3      8884            0.0000000000
     78166     10244  TIP3      H1            -11.8653467773      -40.0735204305      -92.0279109985  TIP3      8884            0.0000000000
     78167     10244  TIP3      H2            -11.2704856655      -41.3623306429      -92.6740921880  TIP3      8884            0.0000000000
     78168     10245  TIP3      OH2           -11.7202800013       36.9015692490       93.5958666973  TIP3      8885            0.0000000000
     78169     10245  TIP3      H1            -12.1191493131       37.5333708576       94.2220863505  TIP3      8885            0.0000000000
     78170     10245  TIP3      H2            -11.1094210534       37.4717396243       93.0912026333  TIP3      8885            0.0000000000
     78171     10246  TIP3      OH2           -16.1092596596       37.9809785577       90.2717664975  TIP3      8886            0.0000000000
     78172     10246  TIP3      H1            -16.1644677830       38.8705779005       90.6466075644  TIP3      8886            0.0000000000
     78173     10246  TIP3      H2            -15.2110087918       37.7201645721       90.5291190435  TIP3      8886            0.0000000000
     78174     10247  TIP3      OH2           -18.7702677406       35.9282685912       97.1309748433  TIP3      8887            0.0000000000
     78175     10247  TIP3      H1            -18.9381066101       35.8680424301       96.1710519143  TIP3      8887            0.0000000000
     78176     10247  TIP3      H2            -19.1237980689       35.0656033897       97.3991599634  TIP3      8887            0.0000000000
     78177     10248  TIP3      OH2           -15.4712313163       39.7757589860      -91.3017137283  TIP3      8888            0.0000000000
     78178     10248  TIP3      H1            -15.3362118586       39.0526052534      -91.9446056730  TIP3      8888            0.0000000000
     78179     10248  TIP3      H2            -15.4495777666       40.5519943208      -91.8777396127  TIP3      8888            0.0000000000
     78180     10249  TIP3      OH2           -15.2003982704       37.9723274610      -93.7017209786  TIP3      8889            0.0000000000
     78181     10249  TIP3      H1            -14.5856211717       38.4916624453      -94.2981558697  TIP3      8889            0.0000000000
     78182     10249  TIP3      H2            -16.0231925350       38.0540906461      -94.2110990865  TIP3      8889            0.0000000000
     78183     10250  TIP3      OH2           -14.2670322331       35.5880346917      -93.3484773543  TIP3      8890            0.0000000000
     78184     10250  TIP3      H1            -14.4227849144       36.5608498001      -93.4692624967  TIP3      8890            0.0000000000
     78185     10250  TIP3      H2            -15.0197047772       35.2344245887      -93.8598081668  TIP3      8890            0.0000000000
     78186     10251  TIP3      OH2           -12.9576960947       39.7915264733      -89.7836314075  TIP3      8891            0.0000000000
     78187     10251  TIP3      H1            -13.2608370418       39.7405275211      -88.8735000701  TIP3      8891            0.0000000000
     78188     10251  TIP3      H2            -13.7717340608       39.7574460069      -90.3094437139  TIP3      8891            0.0000000000
     78189     10252  TIP3      OH2           -10.2727891235       39.0045528966      -90.7632753873  TIP3      8892            0.0000000000
     78190     10252  TIP3      H1            -11.2154049970       39.1413385614      -90.5567742906  TIP3      8892            0.0000000000
     78191     10252  TIP3      H2             -9.9442130409       38.4812796272      -90.0126384780  TIP3      8892            0.0000000000
     78192     10253  TIP3      OH2            -8.6285777929       37.6897279983      -88.7117170012  TIP3      8893            0.0000000000
     78193     10253  TIP3      H1             -8.7959344974       36.7323030157      -88.7457488104  TIP3      8893            0.0000000000
     78194     10253  TIP3      H2             -8.9499575541       37.9686567102      -87.8241499419  TIP3      8893            0.0000000000
     78195     10254  TIP3      OH2           -18.9972204593       38.8261636632      -89.5919255069  TIP3      8894            0.0000000000
     78196     10254  TIP3      H1            -18.5074634705       38.3253465215      -90.2714868475  TIP3      8894            0.0000000000
     78197     10254  TIP3      H2            -18.6971274446       38.4825647812      -88.7518298799  TIP3      8894            0.0000000000
     78198     10255  TIP3      OH2           -14.0199235059       34.9599509510      -90.6986530135  TIP3      8895            0.0000000000
     78199     10255  TIP3      H1            -13.3498153366       34.2575448872      -90.7206118552  TIP3      8895            0.0000000000
     78200     10255  TIP3      H2            -14.1763916688       35.1544472921      -91.6481100852  TIP3      8895            0.0000000000
     78201     10256  TIP3      OH2           -13.6432127124       36.6081419583      -88.6041779616  TIP3      8896            0.0000000000
     78202     10256  TIP3      H1            -13.8194039498       36.1072943620      -89.4279885987  TIP3      8896            0.0000000000
     78203     10256  TIP3      H2            -14.2722026298       37.3273112235      -88.6689941859  TIP3      8896            0.0000000000
     78204     10257  TIP3      OH2            -5.9547677048       38.6228526157       87.5456486356  TIP3      8897            0.0000000000
     78205     10257  TIP3      H1             -5.2926877895       38.2602223060       88.1617092442  TIP3      8897            0.0000000000
     78206     10257  TIP3      H2             -6.7778493724       38.1910385440       87.7647295927  TIP3      8897            0.0000000000
     78207     10258  TIP3      OH2            -6.3267279827       40.1669050842       92.5383459610  TIP3      8898            0.0000000000
     78208     10258  TIP3      H1             -6.0388902926       39.2333637615       92.6505208165  TIP3      8898            0.0000000000
     78209     10258  TIP3      H2             -5.5468288956       40.5521960339       92.1371415504  TIP3      8898            0.0000000000
     78210     10259  TIP3      OH2            -5.2908410605      -40.9886696607      -96.1872416479  TIP3      8899            0.0000000000
     78211     10259  TIP3      H1             -4.8417099538      -40.4109893957      -96.8015512548  TIP3      8899            0.0000000000
     78212     10259  TIP3      H2             -5.9938702099      -40.4613590319      -95.7915046783  TIP3      8899            0.0000000000
     78213     10260  TIP3      OH2           -21.3885180332       39.9853507663      -90.4301354036  TIP3      8900            0.0000000000
     78214     10260  TIP3      H1            -20.4281845731       39.8476547431      -90.3164663529  TIP3      8900            0.0000000000
     78215     10260  TIP3      H2            -21.8814551025       39.1887365335      -90.2116272994  TIP3      8900            0.0000000000
     78216     10261  TIP3      OH2            -5.7073573622       37.4906776373       92.6035713739  TIP3      8901            0.0000000000
     78217     10261  TIP3      H1             -5.4676699794       36.9968628732       93.4215606514  TIP3      8901            0.0000000000
     78218     10261  TIP3      H2             -6.2838016290       36.8521122167       92.1457619449  TIP3      8901            0.0000000000
     78219     10262  TIP3      OH2           -20.1369862899       38.3264952258       97.1155272893  TIP3      8902            0.0000000000
     78220     10262  TIP3      H1            -19.7244030070       37.4775246571       97.3846788604  TIP3      8902            0.0000000000
     78221     10262  TIP3      H2            -19.6118577873       38.9853546745       97.5889382224  TIP3      8902            0.0000000000
     78222     10263  TIP3      OH2            -3.8624027146       37.5264925212       89.0542887627  TIP3      8903            0.0000000000
     78223     10263  TIP3      H1             -3.3608819693       36.8508248054       88.5871812145  TIP3      8903            0.0000000000
     78224     10263  TIP3      H2             -3.1317932737       38.1623063127       89.1783911826  TIP3      8903            0.0000000000
     78225     10264  TIP3      OH2           -11.4417636579       37.1635322839       96.6290871149  TIP3      8904            0.0000000000
     78226     10264  TIP3      H1            -12.0896019151       36.4736951210       96.8708975343  TIP3      8904            0.0000000000
     78227     10264  TIP3      H2            -10.8732898757       36.6600199484       96.0326095701  TIP3      8904            0.0000000000
     78228     10265  TIP3      OH2            -6.3071792312       35.2080588087       96.7024252427  TIP3      8905            0.0000000000
     78229     10265  TIP3      H1             -5.6711637963       35.7564440740       96.1978993327  TIP3      8905            0.0000000000
     78230     10265  TIP3      H2             -7.1717208395       35.5741844830       96.4673369350  TIP3      8905            0.0000000000
     78231     10266  TIP3      OH2            -4.6130567790       36.4234826792       94.8935503462  TIP3      8906            0.0000000000
     78232     10266  TIP3      H1             -3.9266899285       35.8300198527       94.5633412006  TIP3      8906            0.0000000000
     78233     10266  TIP3      H2             -4.1330541571       37.2663054150       95.0504170386  TIP3      8906            0.0000000000
     78234     10267  TIP3      OH2            -8.9121014135       35.7103075081       95.8583845806  TIP3      8907            0.0000000000
     78235     10267  TIP3      H1             -8.8987031868       35.8175488823       94.9035127726  TIP3      8907            0.0000000000
     78236     10267  TIP3      H2             -9.2093236994       34.7945966620       95.9951838845  TIP3      8907            0.0000000000
     78237     10268  TIP3      OH2            -7.6094516966       35.7582825971       91.5034397276  TIP3      8908            0.0000000000
     78238     10268  TIP3      H1             -8.3559385372       36.3629851454       91.3789570279  TIP3      8908            0.0000000000
     78239     10268  TIP3      H2             -8.0168495589       34.9069081997       91.7172748133  TIP3      8908            0.0000000000
     78240     10269  TIP3      OH2           -13.3998231606       37.7461888744       91.0745098336  TIP3      8909            0.0000000000
     78241     10269  TIP3      H1            -13.1904086986       37.1398061272       91.8005742653  TIP3      8909            0.0000000000
     78242     10269  TIP3      H2            -13.3835411247       38.5832074439       91.5845693593  TIP3      8909            0.0000000000
     78243     10270  TIP3      OH2            -8.7504081479       34.9547400730      -89.0562235671  TIP3      8910            0.0000000000
     78244     10270  TIP3      H1             -8.6281761677       34.5197531645      -88.2098661066  TIP3      8910            0.0000000000
     78245     10270  TIP3      H2             -7.8673755533       34.9528290278      -89.4393245445  TIP3      8910            0.0000000000
     78246     10271  TIP3      OH2             2.4493482447       39.0287866497       96.2234314874  TIP3      8911            0.0000000000
     78247     10271  TIP3      H1              2.5274834118       39.8349978257       95.6280937303  TIP3      8911            0.0000000000
     78248     10271  TIP3      H2              2.1145705489       38.5578775006       95.4336181948  TIP3      8911            0.0000000000
     78249     10272  TIP3      OH2            10.1379926532       39.2672989459       94.1645291805  TIP3      8912            0.0000000000
     78250     10272  TIP3      H1             10.7817635569       38.8980674324       94.8174431168  TIP3      8912            0.0000000000
     78251     10272  TIP3      H2             10.7739539761       39.7667363145       93.6281722737  TIP3      8912            0.0000000000
     78252     10273  TIP3      OH2             1.2891354496       37.9288291610      -94.8436887660  TIP3      8913            0.0000000000
     78253     10273  TIP3      H1              1.0481418341       38.5452733090      -95.5763816806  TIP3      8913            0.0000000000
     78254     10273  TIP3      H2              0.6261128403       38.2237247147      -94.1785871212  TIP3      8913            0.0000000000
     78255     10274  TIP3      OH2            11.9985225999       38.4673686287       96.1142195869  TIP3      8914            0.0000000000
     78256     10274  TIP3      H1             11.7056493901       37.7797329833       96.7258367210  TIP3      8914            0.0000000000
     78257     10274  TIP3      H2             12.5228609844       39.0240529236       96.7081161821  TIP3      8914            0.0000000000
     78258     10275  TIP3      OH2             0.9979981091       39.7178527843      -96.5832625451  TIP3      8915            0.0000000000
     78259     10275  TIP3      H1              1.4287609660       40.5797849521      -96.5721427279  TIP3      8915            0.0000000000
     78260     10275  TIP3      H2              1.3563723246       39.4698085149      -97.4806683423  TIP3      8915            0.0000000000
     78261     10276  TIP3      OH2            13.5850453154       35.3534399180       90.3131629413  TIP3      8916            0.0000000000
     78262     10276  TIP3      H1             12.6498297357       35.4604489990       90.5645137279  TIP3      8916            0.0000000000
     78263     10276  TIP3      H2             13.7932831821       36.1836432045       89.8714452759  TIP3      8916            0.0000000000
     78264     10277  TIP3      OH2             2.6394059206       36.2120556294      -96.6444118061  TIP3      8917            0.0000000000
     78265     10277  TIP3      H1              1.7376536189       36.0993257871      -97.0065319445  TIP3      8917            0.0000000000
     78266     10277  TIP3      H2              2.5328398236       37.0557143434      -96.1859431614  TIP3      8917            0.0000000000
     78267     10278  TIP3      OH2            10.5636262061       39.7209104293      -92.4498616683  TIP3      8918            0.0000000000
     78268     10278  TIP3      H1             10.0559576684       39.5632181815      -91.6137284053  TIP3      8918            0.0000000000
     78269     10278  TIP3      H2             10.3610006243       40.6285949632      -92.6615935475  TIP3      8918            0.0000000000
     78270     10279  TIP3      OH2             7.4469698181       38.3869700549       88.8044416943  TIP3      8919            0.0000000000
     78271     10279  TIP3      H1              6.8602417706       38.5226454190       89.5666475090  TIP3      8919            0.0000000000
     78272     10279  TIP3      H2              6.8763281393       37.7258426055       88.3760161849  TIP3      8919            0.0000000000
     78273     10280  TIP3      OH2            -3.0282106492       38.5578944611       94.8891103306  TIP3      8920            0.0000000000
     78274     10280  TIP3      H1             -2.4203470391       38.5233287956       95.6542736434  TIP3      8920            0.0000000000
     78275     10280  TIP3      H2             -2.4844888867       38.2157790428       94.1765382853  TIP3      8920            0.0000000000
     78276     10281  TIP3      OH2            -1.6580213467       39.1688888834       90.3844902805  TIP3      8921            0.0000000000
     78277     10281  TIP3      H1             -1.2607801633       39.8263689118       89.7758933652  TIP3      8921            0.0000000000
     78278     10281  TIP3      H2             -2.3513514690       39.7669165736       90.6718039023  TIP3      8921            0.0000000000
     78279     10282  TIP3      OH2             5.2498385331       38.8774737800       95.1631620863  TIP3      8922            0.0000000000
     78280     10282  TIP3      H1              4.3322557700       38.8654535523       95.4745722006  TIP3      8922            0.0000000000
     78281     10282  TIP3      H2              5.7549582001       38.7396019615       95.9760778314  TIP3      8922            0.0000000000
     78282     10283  TIP3      OH2             0.0761038963       40.5135584071       93.4240040012  TIP3      8923            0.0000000000
     78283     10283  TIP3      H1             -0.8465690961       40.5178057026       93.6197568403  TIP3      8923            0.0000000000
     78284     10283  TIP3      H2              0.3149465953       39.5906396507       93.5703158228  TIP3      8923            0.0000000000
     78285     10284  TIP3      OH2             4.4581712601      -39.5882050912       91.7856133306  TIP3      8924            0.0000000000
     78286     10284  TIP3      H1              4.6749341557      -40.5122049456       91.9813625313  TIP3      8924            0.0000000000
     78287     10284  TIP3      H2              3.6530520646      -39.8670036553       91.3233741236  TIP3      8924            0.0000000000
     78288     10285  TIP3      OH2             9.6473646862       38.0251599073      -96.3191937848  TIP3      8925            0.0000000000
     78289     10285  TIP3      H1              8.9811067642       38.2566564665      -95.6395860861  TIP3      8925            0.0000000000
     78290     10285  TIP3      H2              9.1082839577       37.9191583233      -97.1134724734  TIP3      8925            0.0000000000
     78291     10286  TIP3      OH2            -0.0043235570       38.0091753809       93.3625197431  TIP3      8926            0.0000000000
     78292     10286  TIP3      H1              0.2291765601       37.0719917489       93.4583913941  TIP3      8926            0.0000000000
     78293     10286  TIP3      H2              0.9116962120       38.0429994897       92.9469428942  TIP3      8926            0.0000000000
     78294     10287  TIP3      OH2             5.1715550889       40.0086397569      -95.2652099321  TIP3      8927            0.0000000000
     78295     10287  TIP3      H1              4.3497289279       40.4689393108      -95.0754977853  TIP3      8927            0.0000000000
     78296     10287  TIP3      H2              5.7161450755       40.2284204517      -94.4867943088  TIP3      8927            0.0000000000
     78297     10288  TIP3      OH2             9.7207232537       39.0978357067       89.4592524739  TIP3      8928            0.0000000000
     78298     10288  TIP3      H1              8.7606501533       39.1080262186       89.1800849872  TIP3      8928            0.0000000000
     78299     10288  TIP3      H2              9.9384561108       39.9937127672       89.6450086583  TIP3      8928            0.0000000000
     78300     10289  TIP3      OH2            -0.5216206655       38.7190109928      -92.9623844717  TIP3      8929            0.0000000000
     78301     10289  TIP3      H1             -1.4185640877       39.0806887715      -92.9539611633  TIP3      8929            0.0000000000
     78302     10289  TIP3      H2             -0.6161837297       37.8968094028      -92.4687480953  TIP3      8929            0.0000000000
     78303     10290  TIP3      OH2             8.2304847642       38.6313463640      -93.9916119300  TIP3      8930            0.0000000000
     78304     10290  TIP3      H1              8.9505520148       38.5931581974      -93.3460712394  TIP3      8930            0.0000000000
     78305     10290  TIP3      H2              7.8722715585       37.7510894322      -93.8387912692  TIP3      8930            0.0000000000
     78306     10291  TIP3      OH2             8.9585666328       38.1174246746       91.8645086313  TIP3      8931            0.0000000000
     78307     10291  TIP3      H1              9.2339940192       38.5186893633       91.0146808421  TIP3      8931            0.0000000000
     78308     10291  TIP3      H2              9.5729076029       38.5030565490       92.5082364678  TIP3      8931            0.0000000000
     78309     10292  TIP3      OH2             6.6681602578       39.8121349603       92.8894428649  TIP3      8932            0.0000000000
     78310     10292  TIP3      H1              7.2002357397       40.5998574384       92.8718123187  TIP3      8932            0.0000000000
     78311     10292  TIP3      H2              6.1009453740       39.8245614628       93.6933523216  TIP3      8932            0.0000000000
     78312     10293  TIP3      OH2             6.4860994905      -41.1338287019      -92.6056027451  TIP3      8933            0.0000000000
     78313     10293  TIP3      H1              6.6862649316      -40.3504205614      -92.0636363794  TIP3      8933            0.0000000000
     78314     10293  TIP3      H2              7.3800791144      -41.4646778309      -92.8160119252  TIP3      8933            0.0000000000
     78315     10294  TIP3      OH2             7.1101696968       36.9386062991       93.6089427682  TIP3      8934            0.0000000000
     78316     10294  TIP3      H1              6.7525225419       37.5886192589       94.2328654784  TIP3      8934            0.0000000000
     78317     10294  TIP3      H2              7.7590736793       37.4446114817       93.0759799578  TIP3      8934            0.0000000000
     78318     10295  TIP3      OH2             2.1287632344       37.2303497058       90.5466961142  TIP3      8935            0.0000000000
     78319     10295  TIP3      H1              2.1755023086       38.2262550556       90.3790621128  TIP3      8935            0.0000000000
     78320     10295  TIP3      H2              3.1081091954       37.2965986667       90.6209643727  TIP3      8935            0.0000000000
     78321     10296  TIP3      OH2            13.0008561208       38.7054460816      -92.0706561477  TIP3      8936            0.0000000000
     78322     10296  TIP3      H1             12.0626483693       39.0071707593      -92.1338161747  TIP3      8936            0.0000000000
     78323     10296  TIP3      H2             13.2513805766       38.7540776053      -92.9915744776  TIP3      8936            0.0000000000
     78324     10297  TIP3      OH2             0.1470015638       35.8837508108       97.1165691942  TIP3      8937            0.0000000000
     78325     10297  TIP3      H1             -0.1375567307       35.8716409171       96.2007017581  TIP3      8937            0.0000000000
     78326     10297  TIP3      H2             -0.3019939860       35.0513651987       97.4299494319  TIP3      8937            0.0000000000
     78327     10298  TIP3      OH2             3.4857623035       39.8333434867      -91.2826750609  TIP3      8938            0.0000000000
     78328     10298  TIP3      H1              3.5255880543       39.1240553780      -91.9522006415  TIP3      8938            0.0000000000
     78329     10298  TIP3      H2              3.4420586785       40.6161069767      -91.8540771140  TIP3      8938            0.0000000000
     78330     10299  TIP3      OH2             3.7742864901       38.1746608538      -93.7848998536  TIP3      8939            0.0000000000
     78331     10299  TIP3      H1              4.3257695791       38.5932372007      -94.4699721323  TIP3      8939            0.0000000000
     78332     10299  TIP3      H2              2.8928587454       38.0791347399      -94.2121717479  TIP3      8939            0.0000000000
     78333     10300  TIP3      OH2             4.4685820006       35.5785563873      -93.2813275789  TIP3      8940            0.0000000000
     78334     10300  TIP3      H1              4.4358194611       36.5405129473      -93.4643115866  TIP3      8940            0.0000000000
     78335     10300  TIP3      H2              3.7863670840       35.2622889624      -93.8967456506  TIP3      8940            0.0000000000
     78336     10301  TIP3      OH2             5.8964639337       39.9452402525      -89.7978124921  TIP3      8941            0.0000000000
     78337     10301  TIP3      H1              5.6147233144       39.7211409864      -88.8817028529  TIP3      8941            0.0000000000
     78338     10301  TIP3      H2              5.0989628215       39.7663311138      -90.3214279492  TIP3      8941            0.0000000000
     78339     10302  TIP3      OH2             8.5913920217       39.0222297966      -90.7689127935  TIP3      8942            0.0000000000
     78340     10302  TIP3      H1              7.6479824035       39.1425216202      -90.5557704229  TIP3      8942            0.0000000000
     78341     10302  TIP3      H2              8.9004704835       38.4944519600      -90.0090204332  TIP3      8942            0.0000000000
     78342     10303  TIP3      OH2            10.1538291695       37.7256503869      -88.7511363650  TIP3      8943            0.0000000000
     78343     10303  TIP3      H1             10.0982915285       36.7497335120      -88.7560567706  TIP3      8943            0.0000000000
     78344     10303  TIP3      H2              9.8941550271       37.9864471807      -87.8443517990  TIP3      8943            0.0000000000
     78345     10304  TIP3      OH2            -0.6838594637       38.6801115702      -90.0367707642  TIP3      8944            0.0000000000
     78346     10304  TIP3      H1              0.1484845561       38.3887659300      -90.4681870858  TIP3      8944            0.0000000000
     78347     10304  TIP3      H2             -0.3079917581       38.6825059720      -89.1525765074  TIP3      8944            0.0000000000
     78348     10305  TIP3      OH2             4.8114218002       34.9476405610      -90.6808255091  TIP3      8945            0.0000000000
     78349     10305  TIP3      H1              5.5028897761       34.2852418042      -90.7131995341  TIP3      8945            0.0000000000
     78350     10305  TIP3      H2              4.6778608758       35.1550349784      -91.6358845906  TIP3      8945            0.0000000000
     78351     10306  TIP3      OH2             5.0849804690       36.5808623808      -88.5756689971  TIP3      8946            0.0000000000
     78352     10306  TIP3      H1              5.0572869189       36.1063827020      -89.4462047344  TIP3      8946            0.0000000000
     78353     10306  TIP3      H2              4.6214992432       37.4081061871      -88.7224845952  TIP3      8946            0.0000000000
     78354     10307  TIP3      OH2            12.9512936587       38.5492830945       87.5190583254  TIP3      8947            0.0000000000
     78355     10307  TIP3      H1             13.5337305079       38.2325632820       88.2335339355  TIP3      8947            0.0000000000
     78356     10307  TIP3      H2             12.0781418202       38.2097277200       87.7572784601  TIP3      8947            0.0000000000
     78357     10308  TIP3      OH2            12.6062684323       40.0839154767       92.7448827038  TIP3      8948            0.0000000000
     78358     10308  TIP3      H1             12.9110674658       39.1588803656       92.6310434433  TIP3      8948            0.0000000000
     78359     10308  TIP3      H2             13.2369960164       40.5527329291       92.1591197268  TIP3      8948            0.0000000000
     78360     10309  TIP3      OH2            -2.6711590918       40.0119318954      -90.5087852626  TIP3      8949            0.0000000000
     78361     10309  TIP3      H1             -1.7098726471       39.8384017280      -90.3396626858  TIP3      8949            0.0000000000
     78362     10309  TIP3      H2             -3.0230194875       39.2110711792      -90.1176817927  TIP3      8949            0.0000000000
     78363     10310  TIP3      OH2            15.5380778287       35.4710590584      -88.6267787896  TIP3      8950            0.0000000000
     78364     10310  TIP3      H1             15.8454191947       34.8352583148      -89.2771041256  TIP3      8950            0.0000000000
     78365     10310  TIP3      H2             15.5799910431       36.3305832331      -89.1053278515  TIP3      8950            0.0000000000
     78366     10311  TIP3      OH2            13.1481181392       37.4856097182       92.6116398860  TIP3      8951            0.0000000000
     78367     10311  TIP3      H1             13.3566792730       36.9905852716       93.4195725554  TIP3      8951            0.0000000000
     78368     10311  TIP3      H2             12.5675411738       36.8603441106       92.1328135769  TIP3      8951            0.0000000000
     78369     10312  TIP3      OH2            -1.4700029470       37.9734326919       97.3191618015  TIP3      8952            0.0000000000
     78370     10312  TIP3      H1             -0.8135987717       37.2662046982       97.4678052588  TIP3      8952            0.0000000000
     78371     10312  TIP3      H2             -0.9305608359       38.7511528897       97.5444213900  TIP3      8952            0.0000000000
     78372     10313  TIP3      OH2            14.9206051026       37.5136840243      -90.2329793070  TIP3      8953            0.0000000000
     78373     10313  TIP3      H1             14.0321705376       37.9207678059      -90.2900815355  TIP3      8953            0.0000000000
     78374     10313  TIP3      H2             15.0675063065       37.0965833852      -91.0830504435  TIP3      8953            0.0000000000
     78375     10314  TIP3      OH2            15.0132871591       37.5377958285       89.1091262310  TIP3      8954            0.0000000000
     78376     10314  TIP3      H1             15.4400541195       36.8029850985       88.6521324585  TIP3      8954            0.0000000000
     78377     10314  TIP3      H2             15.7060455265       38.1983225034       89.1898694705  TIP3      8954            0.0000000000
     78378     10315  TIP3      OH2             7.4008899531       37.1450965800       96.6069255650  TIP3      8955            0.0000000000
     78379     10315  TIP3      H1              6.7907111247       36.4499590362       96.8683704496  TIP3      8955            0.0000000000
     78380     10315  TIP3      H2              7.9784222988       36.6664304647       95.9926735608  TIP3      8955            0.0000000000
     78381     10316  TIP3      OH2            12.5499485493       35.2216576967       96.6857508705  TIP3      8956            0.0000000000
     78382     10316  TIP3      H1             13.1658135236       35.7811022071       96.1766832276  TIP3      8956            0.0000000000
     78383     10316  TIP3      H2             11.6730245920       35.5690732420       96.4630807859  TIP3      8956            0.0000000000
     78384     10317  TIP3      OH2            14.2787825696       36.4045762722       94.9559942539  TIP3      8957            0.0000000000
     78385     10317  TIP3      H1             14.9290065125       35.8385206229       94.5218637772  TIP3      8957            0.0000000000
     78386     10317  TIP3      H2             14.7158093020       37.2555122886       95.0492099868  TIP3      8957            0.0000000000
     78387     10318  TIP3      OH2             9.8918109353       35.7112918642       95.8242446437  TIP3      8958            0.0000000000
     78388     10318  TIP3      H1              9.9562823731       35.7998875845       94.8686434351  TIP3      8958            0.0000000000
     78389     10318  TIP3      H2              9.6552668624       34.7859048858       95.9640621151  TIP3      8958            0.0000000000
     78390     10319  TIP3      OH2            11.2536074037       35.7712834246       91.5256344984  TIP3      8959            0.0000000000
     78391     10319  TIP3      H1             10.5178496211       36.3766384749       91.3475699228  TIP3      8959            0.0000000000
     78392     10319  TIP3      H2             10.8063468122       34.9425385608       91.7307691826  TIP3      8959            0.0000000000
     78393     10320  TIP3      OH2             5.8965858664       37.1680273680       91.0681970683  TIP3      8960            0.0000000000
     78394     10320  TIP3      H1              5.7882236356       36.8661855919       91.9758231084  TIP3      8960            0.0000000000
     78395     10320  TIP3      H2              5.7647761073       38.1175282249       91.3424281489  TIP3      8960            0.0000000000
     78396     10321  TIP3      OH2            10.1368149467       35.0509772120      -89.0509620077  TIP3      8961            0.0000000000
     78397     10321  TIP3      H1             10.1636534684       34.5182295185      -88.2541108877  TIP3      8961            0.0000000000
     78398     10321  TIP3      H2             11.0340297589       34.9658397425      -89.4261831480  TIP3      8961            0.0000000000
     78399     10322  TIP3      OH2            33.6343707650       38.1366843083      -95.6676484383  TIP3      8962            0.0000000000
     78400     10322  TIP3      H1             33.7165055454       38.7927721951      -94.9472119884  TIP3      8962            0.0000000000
     78401     10322  TIP3      H2             34.0782515692       38.6338815567      -96.3579551177  TIP3      8962            0.0000000000
     78402     10323  TIP3      OH2            29.0233848425       39.1612143869       94.1361807876  TIP3      8963            0.0000000000
     78403     10323  TIP3      H1             29.6774415972       38.9050529625       94.8415225990  TIP3      8963            0.0000000000
     78404     10323  TIP3      H2             29.5978581837       39.7358844665       93.6127710000  TIP3      8963            0.0000000000
     78405     10324  TIP3      OH2            33.9401740804       39.5142643444      -93.4543978657  TIP3      8964            0.0000000000
     78406     10324  TIP3      H1             33.4582308228       40.3136388755      -93.6245013756  TIP3      8964            0.0000000000
     78407     10324  TIP3      H2             34.0944194658       39.5437673541      -92.4834138693  TIP3      8964            0.0000000000
     78408     10325  TIP3      OH2            30.7739197877       38.5191422572       96.1522485259  TIP3      8965            0.0000000000
     78409     10325  TIP3      H1             30.5807627546       37.7572319757       96.7011792368  TIP3      8965            0.0000000000
     78410     10325  TIP3      H2             31.4212203741       38.9688504577       96.7191420599  TIP3      8965            0.0000000000
     78411     10326  TIP3      OH2            32.3271184222       35.2580048997       90.2761498052  TIP3      8966            0.0000000000
     78412     10326  TIP3      H1             31.4174496487       35.3974959366       90.5192878865  TIP3      8966            0.0000000000
     78413     10326  TIP3      H2             32.6583307011       36.0964440877       89.8921586378  TIP3      8966            0.0000000000
     78414     10327  TIP3      OH2            26.1358859907       35.9938599801      -93.2371744411  TIP3      8967            0.0000000000
     78415     10327  TIP3      H1             26.4843964201       35.4741298613      -92.5177662539  TIP3      8967            0.0000000000
     78416     10327  TIP3      H2             25.1746097778       35.7673874639      -93.1924996514  TIP3      8967            0.0000000000
     78417     10328  TIP3      OH2            29.4019352530       39.7266256645      -92.4228100897  TIP3      8968            0.0000000000
     78418     10328  TIP3      H1             28.8520049491       39.6000453603      -91.6218546994  TIP3      8968            0.0000000000
     78419     10328  TIP3      H2             29.1883611444       40.6250620166      -92.6711211912  TIP3      8968            0.0000000000
     78420     10329  TIP3      OH2            28.4823871458       38.0507814828      -96.3333841976  TIP3      8969            0.0000000000
     78421     10329  TIP3      H1             27.8321609398       38.2260451954      -95.6209009899  TIP3      8969            0.0000000000
     78422     10329  TIP3      H2             27.9510318175       37.9080224143      -97.1156116776  TIP3      8969            0.0000000000
     78423     10330  TIP3      OH2            24.0549366866       39.6636294405      -95.4151648579  TIP3      8970            0.0000000000
     78424     10330  TIP3      H1             23.3455283537       40.3246822052      -95.3510184750  TIP3      8970            0.0000000000
     78425     10330  TIP3      H2             24.5806250256       40.1368546439      -94.7176762797  TIP3      8970            0.0000000000
     78426     10331  TIP3      OH2            27.0389339360       38.4700817510      -94.0412406337  TIP3      8971            0.0000000000
     78427     10331  TIP3      H1             27.7373999028       38.5494296356      -93.3738834681  TIP3      8971            0.0000000000
     78428     10331  TIP3      H2             26.6829237657       37.5758092795      -93.8514112957  TIP3      8971            0.0000000000
     78429     10332  TIP3      OH2            27.8817326574       38.0975915974       91.7694933373  TIP3      8972            0.0000000000
     78430     10332  TIP3      H1             28.0903667852       38.6412923835       91.0201480249  TIP3      8972            0.0000000000
     78431     10332  TIP3      H2             28.3391351960       38.5173136869       92.5257577867  TIP3      8972            0.0000000000
     78432     10333  TIP3      OH2            31.7950985170       38.7029304980      -92.0402788335  TIP3      8973            0.0000000000
     78433     10333  TIP3      H1             30.8643347009       38.9986778514      -92.1470235719  TIP3      8973            0.0000000000
     78434     10333  TIP3      H2             32.1125426564       38.6924259208      -92.9513584874  TIP3      8973            0.0000000000
     78435     10334  TIP3      OH2            22.6222116453       38.1795676932      -93.7842574548  TIP3      8974            0.0000000000
     78436     10334  TIP3      H1             23.2237932399       38.6025956594      -94.4379908367  TIP3      8974            0.0000000000
     78437     10334  TIP3      H2             21.8076053898       38.0999225736      -94.2561694465  TIP3      8974            0.0000000000
     78438     10335  TIP3      OH2            23.4651472514       35.6021078141      -93.4046821825  TIP3      8975            0.0000000000
     78439     10335  TIP3      H1             23.2845595614       36.5620265118      -93.4451068912  TIP3      8975            0.0000000000
     78440     10335  TIP3      H2             22.7029203432       35.2223137242      -93.8643767138  TIP3      8975            0.0000000000
     78441     10336  TIP3      OH2            27.4574786046       39.1109960799      -90.7085357510  TIP3      8976            0.0000000000
     78442     10336  TIP3      H1             26.5205121133       39.0923806209      -90.5766924346  TIP3      8976            0.0000000000
     78443     10336  TIP3      H2             27.7969319738       38.4977225245      -90.0279545874  TIP3      8976            0.0000000000
     78444     10337  TIP3      OH2            28.9471603973       37.7134523924      -88.7727220907  TIP3      8977            0.0000000000
     78445     10337  TIP3      H1             29.0116487841       36.7524846800      -88.7215398757  TIP3      8977            0.0000000000
     78446     10337  TIP3      H2             28.8176525637       37.9763154889      -87.8354325043  TIP3      8977            0.0000000000
     78447     10338  TIP3      OH2            31.7297673224       38.6643491180       87.6177049881  TIP3      8978            0.0000000000
     78448     10338  TIP3      H1             32.4346946998       38.2124718863       88.1389852230  TIP3      8978            0.0000000000
     78449     10338  TIP3      H2             30.9389720733       38.1650367282       87.7542776742  TIP3      8978            0.0000000000
     78450     10339  TIP3      OH2            31.4824850847       40.1187446027       92.6552290596  TIP3      8979            0.0000000000
     78451     10339  TIP3      H1             31.7670061365       39.1803752970       92.6667853728  TIP3      8979            0.0000000000
     78452     10339  TIP3      H2             32.1605314961       40.5800551672       92.1575269607  TIP3      8979            0.0000000000
     78453     10340  TIP3      OH2            32.4118932897      -40.9944006135      -96.2083899735  TIP3      8980            0.0000000000
     78454     10340  TIP3      H1             32.9153688607      -40.3789277575      -96.7416460780  TIP3      8980            0.0000000000
     78455     10340  TIP3      H2             31.7483700045      -40.4677575672      -95.7620273716  TIP3      8980            0.0000000000
     78456     10341  TIP3      OH2            33.0729648862       35.5646189435      -88.9787025461  TIP3      8981            0.0000000000
     78457     10341  TIP3      H1             33.7921450030       34.8916084510      -88.7985391502  TIP3      8981            0.0000000000
     78458     10341  TIP3      H2             33.8079788904       36.2244208206      -89.1535147732  TIP3      8981            0.0000000000
     78459     10342  TIP3      OH2            31.9873680492       37.4850536809       92.6092032289  TIP3      8982            0.0000000000
     78460     10342  TIP3      H1             32.2285012727       36.9934540190       93.4230071459  TIP3      8982            0.0000000000
     78461     10342  TIP3      H2             31.4820282150       36.8165192789       92.1417234639  TIP3      8982            0.0000000000
     78462     10343  TIP3      OH2            33.8731530958       37.6285570384      -90.2407135241  TIP3      8983            0.0000000000
     78463     10343  TIP3      H1             32.9317754312       37.9217173209      -90.3057868267  TIP3      8983            0.0000000000
     78464     10343  TIP3      H2             33.9814275484       37.1417771163      -91.0722466234  TIP3      8983            0.0000000000
     78465     10344  TIP3      OH2            33.6921276759       37.4563139109       88.8080083382  TIP3      8984            0.0000000000
     78466     10344  TIP3      H1             34.2751390640       36.7177075707       88.6253220676  TIP3      8984            0.0000000000
     78467     10344  TIP3      H2             34.3878533970       38.0769997529       89.1709771843  TIP3      8984            0.0000000000
     78468     10345  TIP3      OH2            26.3085157600       37.1486241693       96.6382409214  TIP3      8985            0.0000000000
     78469     10345  TIP3      H1             25.6254888010       36.5251530170       96.8752210561  TIP3      8985            0.0000000000
     78470     10345  TIP3      H2             26.8182301557       36.6983685102       95.9694370107  TIP3      8985            0.0000000000
     78471     10346  TIP3      OH2            32.8941062373       36.8715412242       95.3892829002  TIP3      8986            0.0000000000
     78472     10346  TIP3      H1             33.3240733190       36.1105886469       94.9345505212  TIP3      8986            0.0000000000
     78473     10346  TIP3      H2             33.5125499650       37.5242543520       95.0973997927  TIP3      8986            0.0000000000
     78474     10347  TIP3      OH2            18.5165218365       36.2934140727      -90.8402822122  TIP3      8987            0.0000000000
     78475     10347  TIP3      H1             18.1903679609       35.5160407474      -90.3737667286  TIP3      8987            0.0000000000
     78476     10347  TIP3      H2             19.4395924429       36.3228196529      -90.5030570408  TIP3      8987            0.0000000000
     78477     10348  TIP3      OH2            20.5409957962       35.5998809387      -89.2638245978  TIP3      8988            0.0000000000
     78478     10348  TIP3      H1             21.4428270528       35.3157256952      -89.4587621899  TIP3      8988            0.0000000000
     78479     10348  TIP3      H2             20.2010894171       34.8471322959      -88.7797281496  TIP3      8988            0.0000000000
     78480     10349  TIP3      OH2            40.2589746091       38.7782068065       96.3768027771  TIP3      8989            0.0000000000
     78481     10349  TIP3      H1             40.3114701814       39.6154241428       95.8964208751  TIP3      8989            0.0000000000
     78482     10349  TIP3      H2             39.8305047081       38.3208896829       95.6401919725  TIP3      8989            0.0000000000
     78483     10350  TIP3      OH2            38.4757298050       37.4409788257      -94.9001439695  TIP3      8990            0.0000000000
     78484     10350  TIP3      H1             38.6469012666       38.1677151544      -95.5600322198  TIP3      8990            0.0000000000
     78485     10350  TIP3      H2             38.2156923595       38.0852904501      -94.2353126214  TIP3      8990            0.0000000000
     78486     10351  TIP3      OH2            38.5645003629       38.9900859059      -96.7437355608  TIP3      8991            0.0000000000
     78487     10351  TIP3      H1             38.9915166417       39.8171920345      -96.4473679408  TIP3      8991            0.0000000000
     78488     10351  TIP3      H2             38.9656800951       39.1090684398      -97.6305737814  TIP3      8991            0.0000000000
     78489     10352  TIP3      OH2            40.3431697252       36.3248109633      -96.8333804910  TIP3      8992            0.0000000000
     78490     10352  TIP3      H1             39.4047184924       36.0965097147      -97.0501182907  TIP3      8992            0.0000000000
     78491     10352  TIP3      H2             40.1544756137       37.1240567818      -96.3401490207  TIP3      8992            0.0000000000
     78492     10353  TIP3      OH2            34.7162510931       38.9711538759       93.9395542775  TIP3      8993            0.0000000000
     78493     10353  TIP3      H1             35.0595786149       39.1006112802       94.8285221237  TIP3      8993            0.0000000000
     78494     10353  TIP3      H2             35.1539892683       38.0844584935       93.8612660495  TIP3      8993            0.0000000000
     78495     10354  TIP3      OH2            35.1647327551       38.4787001393       90.3944504322  TIP3      8994            0.0000000000
     78496     10354  TIP3      H1             35.8639220981       39.0800180497       90.0374002891  TIP3      8994            0.0000000000
     78497     10354  TIP3      H2             34.8152819652       39.3165284600       90.7364785853  TIP3      8994            0.0000000000
     78498     10355  TIP3      OH2            36.3568147453       41.0068121053       94.0103827161  TIP3      8995            0.0000000000
     78499     10355  TIP3      H1             36.4432645571       40.6809901742       93.0857499190  TIP3      8995            0.0000000000
     78500     10355  TIP3      H2             37.1188751824       40.3506586528       94.0965336867  TIP3      8995            0.0000000000
     78501     10356  TIP3      OH2            39.0794859913       37.6069070228       93.3024001019  TIP3      8996            0.0000000000
     78502     10356  TIP3      H1             38.9508537414       36.6883113515       93.5334893333  TIP3      8996            0.0000000000
     78503     10356  TIP3      H2             40.0409271770       37.7205974522       93.2290744318  TIP3      8996            0.0000000000
     78504     10357  TIP3      OH2            36.8141852203       38.4397655566      -92.2708911801  TIP3      8997            0.0000000000
     78505     10357  TIP3      H1             36.2572221028       38.9754865725      -92.8579829033  TIP3      8997            0.0000000000
     78506     10357  TIP3      H2             36.8622499129       37.5323867140      -92.5645413615  TIP3      8997            0.0000000000
     78507     10358  TIP3      OH2           -41.0563668396       37.8475061936       90.0304602810  TIP3      8998            0.0000000000
     78508     10358  TIP3      H1            -41.0927429653       38.7327779645       90.3981344532  TIP3      8998            0.0000000000
     78509     10358  TIP3      H2            -40.1195120621       37.6988280084       90.2341064844  TIP3      8998            0.0000000000
     78510     10359  TIP3      OH2            37.8742370986       35.7438619104       97.3966720703  TIP3      8999            0.0000000000
     78511     10359  TIP3      H1             37.6956488194       35.8918452473       96.4179095260  TIP3      8999            0.0000000000
     78512     10359  TIP3      H2             37.3504012473       34.9294047957       97.4838400712  TIP3      8999            0.0000000000
     78513     10360  TIP3      OH2            36.4096137832       38.8684052771      -89.6660389208  TIP3      9000            0.0000000000
     78514     10360  TIP3      H1             37.0403045202       38.5632404756      -90.3698922754  TIP3      9000            0.0000000000
     78515     10360  TIP3      H2             37.1065300607       38.6372068025      -89.0384763529  TIP3      9000            0.0000000000
     78516     10361  TIP3      OH2            34.8530653946       40.2090454790      -90.6982998277  TIP3      9001            0.0000000000
     78517     10361  TIP3      H1             35.8162533444       39.9978320233      -90.4701180428  TIP3      9001            0.0000000000
     78518     10361  TIP3      H2             34.6453799958       39.3388403994      -90.2508778984  TIP3      9001            0.0000000000
     78519     10362  TIP3      OH2            36.3866279265       37.9998477539       98.4685495530  TIP3      9002            0.0000000000
     78520     10362  TIP3      H1             36.7820338848       37.3891426033       97.7800894431  TIP3      9002            0.0000000000
     78521     10362  TIP3      H2             36.8381126359       38.7290986585       97.9622258194  TIP3      9002            0.0000000000
     78522     10363  TIP3      OH2            34.6062653273       37.2121160367       92.2474765488  TIP3      9003            0.0000000000
     78523     10363  TIP3      H1             33.8627391641       37.7980540334       92.1150441756  TIP3      9003            0.0000000000
     78524     10363  TIP3      H2             35.2873803072       37.7583001365       91.7331381982  TIP3      9003            0.0000000000
     78525     10364  TIP3      OH2            35.0327581550       36.2434661044      -94.1633710884  TIP3      9004            0.0000000000
     78526     10364  TIP3      H1             34.3627081853       35.9930628363      -93.5224105508  TIP3      9004            0.0000000000
     78527     10364  TIP3      H2             34.5518163997       36.8722646119      -94.7367003848  TIP3      9004            0.0000000000
     78528     10365  TIP3      OH2            37.4533906334       34.6434547295       95.2780945361  TIP3      9005            0.0000000000
     78529     10365  TIP3      H1             36.6684878777       34.7900386402       94.7195344350  TIP3      9005            0.0000000000
     78530     10365  TIP3      H2             38.0857375549       34.8187558309       94.5963935804  TIP3      9005            0.0000000000
     78531     10366  TIP3      OH2            34.9945732158       35.6618816734       90.2169544788  TIP3      9006            0.0000000000
     78532     10366  TIP3      H1             35.8435637458       35.9254291151       89.8138184136  TIP3      9006            0.0000000000
     78533     10366  TIP3      H2             35.2665422784       36.2302673447       90.9648947530  TIP3      9006            0.0000000000
     78534     10367  TIP3      OH2            38.4752508971       37.5836023168       88.3025576287  TIP3      9007            0.0000000000
     78535     10367  TIP3      H1             38.7598973706       36.7028918262       88.0573543133  TIP3      9007            0.0000000000
     78536     10367  TIP3      H2             38.9403098471       37.7264359444       89.1367016663  TIP3      9007            0.0000000000
     78537     10368  TIP3      OH2            37.6800311914       35.8682421729      -91.0438140147  TIP3      9008            0.0000000000
     78538     10368  TIP3      H1             37.0514912204       35.5671430313      -90.3727179621  TIP3      9008            0.0000000000
     78539     10368  TIP3      H2             38.4185341956       36.1738568833      -90.5057554187  TIP3      9008            0.0000000000
     78540     10369  TIP3      OH2            39.4259799062       35.5325941330      -89.2337803599  TIP3      9009            0.0000000000
     78541     10369  TIP3      H1             40.3198210611       35.2667816836      -89.4953353457  TIP3      9009            0.0000000000
     78542     10369  TIP3      H2             39.0325924569       34.7737490509      -88.7785523428  TIP3      9009            0.0000000000
     78543     10370  TIP3      OH2           -30.1397135062      -32.7619275303      -87.0557862571  TIP3      9010            0.0000000000
     78544     10370  TIP3      H1            -29.4157517584      -32.7318752794      -86.3966965030  TIP3      9010            0.0000000000
     78545     10370  TIP3      H2            -29.7852303121      -33.4448207222      -87.6373602670  TIP3      9010            0.0000000000
     78546     10371  TIP3      OH2           -27.8633263640      -31.9299708791      -85.4380818338  TIP3      9011            0.0000000000
     78547     10371  TIP3      H1            -27.2900190829      -31.7220206619      -84.7018815889  TIP3      9011            0.0000000000
     78548     10371  TIP3      H2            -27.4702810453      -31.4135033622      -86.1662154615  TIP3      9011            0.0000000000
     78549     10372  TIP3      OH2           -26.3624000837      -30.9000502791      -87.7159913762  TIP3      9012            0.0000000000
     78550     10372  TIP3      H1            -26.3956410021      -31.0610841401      -88.6896654376  TIP3      9012            0.0000000000
     78551     10372  TIP3      H2            -25.5221162314      -30.4307690246      -87.6153108225  TIP3      9012            0.0000000000
     78552     10373  TIP3      OH2           -30.8425718426      -36.9819280217      -87.1373805888  TIP3      9013            0.0000000000
     78553     10373  TIP3      H1            -31.0769188475      -36.9746950599      -86.2078929648  TIP3      9013            0.0000000000
     78554     10373  TIP3      H2            -31.1230726233      -37.8629128424      -87.4317005609  TIP3      9013            0.0000000000
     78555     10374  TIP3      OH2           -33.9963970656      -36.5949717979      -88.0739672452  TIP3      9014            0.0000000000
     78556     10374  TIP3      H1            -34.4217405197      -36.9484427031      -87.2655926939  TIP3      9014            0.0000000000
     78557     10374  TIP3      H2            -34.7143051199      -36.1341761970      -88.5253458708  TIP3      9014            0.0000000000
     78558     10375  TIP3      OH2           -39.3992101769      -36.0571649475      -85.5113460962  TIP3      9015            0.0000000000
     78559     10375  TIP3      H1            -38.9321385483      -35.4779947806      -86.1267429766  TIP3      9015            0.0000000000
     78560     10375  TIP3      H2            -40.1535029734      -35.5448091722      -85.2065818306  TIP3      9015            0.0000000000
     78561     10376  TIP3      OH2           -35.3342379203      -33.8185023186      -86.6017862585  TIP3      9016            0.0000000000
     78562     10376  TIP3      H1            -35.8511370676      -34.1452576553      -87.3540736077  TIP3      9016            0.0000000000
     78563     10376  TIP3      H2            -34.5186911111      -33.5486246000      -87.0597243332  TIP3      9016            0.0000000000
     78564     10377  TIP3      OH2           -32.6384127757      -26.4009139257      -88.3911415831  TIP3      9017            0.0000000000
     78565     10377  TIP3      H1            -32.4990070653      -27.1756457649      -88.9624264117  TIP3      9017            0.0000000000
     78566     10377  TIP3      H2            -33.0576914194      -26.8187291716      -87.5989846413  TIP3      9017            0.0000000000
     78567     10378  TIP3      OH2           -33.7254649379      -26.9012550021      -85.9535851819  TIP3      9018            0.0000000000
     78568     10378  TIP3      H1            -33.6443159087      -27.3808014427      -85.1330505483  TIP3      9018            0.0000000000
     78569     10378  TIP3      H2            -33.7859301235      -25.9722317378      -85.6523587217  TIP3      9018            0.0000000000
     78570     10379  TIP3      OH2           -33.6399674760      -24.1465826814      -85.1923811033  TIP3      9019            0.0000000000
     78571     10379  TIP3      H1            -33.5494074570      -23.3443511472      -85.7581386113  TIP3      9019            0.0000000000
     78572     10379  TIP3      H2            -33.9051062181      -23.7793415613      -84.3482307755  TIP3      9019            0.0000000000
     78573     10380  TIP3      OH2           -34.9798225818      -37.4438799718      -85.6589687339  TIP3      9020            0.0000000000
     78574     10380  TIP3      H1            -35.0819540438      -36.5636994830      -85.2579608967  TIP3      9020            0.0000000000
     78575     10380  TIP3      H2            -34.0989770466      -37.6872798298      -85.3540621914  TIP3      9020            0.0000000000
     78576     10381  TIP3      OH2           -38.4323893121      -34.3860976759      -87.4552487540  TIP3      9021            0.0000000000
     78577     10381  TIP3      H1            -38.3813208314      -33.4362046923      -87.2813663706  TIP3      9021            0.0000000000
     78578     10381  TIP3      H2            -39.3159607181      -34.6081378769      -87.7590563063  TIP3      9021            0.0000000000
     78579     10382  TIP3      OH2           -30.6161480101      -24.5294022700      -88.2277541595  TIP3      9022            0.0000000000
     78580     10382  TIP3      H1            -31.3244764168      -25.1798990295      -88.0213358560  TIP3      9022            0.0000000000
     78581     10382  TIP3      H2            -29.9440719577      -25.1346419316      -88.5512108905  TIP3      9022            0.0000000000
     78582     10383  TIP3      OH2           -35.2091366732      -28.9067169235      -88.2509875682  TIP3      9023            0.0000000000
     78583     10383  TIP3      H1            -35.0166747767      -29.6037760055      -87.6091178702  TIP3      9023            0.0000000000
     78584     10383  TIP3      H2            -34.4546482581      -28.9709501546      -88.8617668803  TIP3      9023            0.0000000000
     78585     10384  TIP3      OH2           -29.7222607829      -27.7502337635      -88.4239919490  TIP3      9024            0.0000000000
     78586     10384  TIP3      H1            -30.0821549992      -27.6384829967      -87.5472309236  TIP3      9024            0.0000000000
     78587     10384  TIP3      H2            -29.9496053943      -28.6913426637      -88.6099720030  TIP3      9024            0.0000000000
     78588     10385  TIP3      OH2           -33.9971577272      -30.8591036475      -85.8655654013  TIP3      9025            0.0000000000
     78589     10385  TIP3      H1            -34.4605521015      -31.3689995911      -85.1956011029  TIP3      9025            0.0000000000
     78590     10385  TIP3      H2            -33.7124284850      -31.5179687417      -86.5268090601  TIP3      9025            0.0000000000
     78591     10386  TIP3      OH2           -32.9175196142      -32.6711971098      -87.6170489911  TIP3      9026            0.0000000000
     78592     10386  TIP3      H1            -33.0452331278      -32.7203861584      -88.5846615682  TIP3      9026            0.0000000000
     78593     10386  TIP3      H2            -31.9464438484      -32.5365157675      -87.5539446010  TIP3      9026            0.0000000000
     78594     10387  TIP3      OH2           -23.5694091208      -30.2609657132      -88.1444786408  TIP3      9027            0.0000000000
     78595     10387  TIP3      H1            -23.7576681309      -30.6772857216      -89.0013961423  TIP3      9027            0.0000000000
     78596     10387  TIP3      H2            -23.4306269547      -29.3317996787      -88.3762550167  TIP3      9027            0.0000000000
     78597     10388  TIP3      OH2           -32.9502041850      -21.9902368305      -86.6243322708  TIP3      9028            0.0000000000
     78598     10388  TIP3      H1            -32.0333400676      -21.7627612702      -86.5082003242  TIP3      9028            0.0000000000
     78599     10388  TIP3      H2            -33.2304816718      -21.3223535545      -87.2766528488  TIP3      9028            0.0000000000
     78600     10389  TIP3      OH2           -22.4185571468      -31.4619452054      -85.9904509719  TIP3      9029            0.0000000000
     78601     10389  TIP3      H1            -22.9213666929      -31.0525499334      -86.7180415380  TIP3      9029            0.0000000000
     78602     10389  TIP3      H2            -22.4317077696      -30.7915895134      -85.3016942565  TIP3      9029            0.0000000000
     78603     10390  TIP3      OH2           -39.0863269098      -39.6029747964      -85.6875130258  TIP3      9030            0.0000000000
     78604     10390  TIP3      H1            -38.6576473537      -38.9981268169      -86.2829730913  TIP3      9030            0.0000000000
     78605     10390  TIP3      H2            -39.7793002329      -39.1277746443      -85.2295275513  TIP3      9030            0.0000000000
     78606     10391  TIP3      OH2           -37.2328460823      -37.8870727249      -87.2707306299  TIP3      9031            0.0000000000
     78607     10391  TIP3      H1            -36.7754278497      -38.5958904150      -87.7510810911  TIP3      9031            0.0000000000
     78608     10391  TIP3      H2            -36.6325511317      -37.6795172026      -86.5332039939  TIP3      9031            0.0000000000
     78609     10392  TIP3      OH2           -37.3448383577      -22.8978563018      -87.7884245592  TIP3      9032            0.0000000000
     78610     10392  TIP3      H1            -37.7219618191      -22.7806221245      -86.9100605547  TIP3      9032            0.0000000000
     78611     10392  TIP3      H2            -36.6609836456      -23.5729057294      -87.6081903119  TIP3      9032            0.0000000000
     78612     10393  TIP3      OH2            -4.1411288634      -25.7998114450      -87.2837471374  TIP3      9033            0.0000000000
     78613     10393  TIP3      H1             -4.0337884822      -24.8854913080      -87.0445620994  TIP3      9033            0.0000000000
     78614     10393  TIP3      H2             -3.2225357430      -26.1361261092      -87.2383924539  TIP3      9033            0.0000000000
     78615     10394  TIP3      OH2            -7.5350803346      -30.8827474490      -87.7784327030  TIP3      9034            0.0000000000
     78616     10394  TIP3      H1             -7.4915994715      -31.0527133086      -88.7222713085  TIP3      9034            0.0000000000
     78617     10394  TIP3      H2             -6.6853135741      -30.4462541801      -87.6061751178  TIP3      9034            0.0000000000
     78618     10395  TIP3      OH2           -19.8582516963      -31.5353463603      -86.9913507240  TIP3      9035            0.0000000000
     78619     10395  TIP3      H1            -19.2656903816      -30.9319997740      -86.4944837677  TIP3      9035            0.0000000000
     78620     10395  TIP3      H2            -20.7376826640      -31.2711549953      -86.6545330662  TIP3      9035            0.0000000000
     78621     10396  TIP3      OH2            -7.8780654778      -27.5771766378      -86.8869526216  TIP3      9036            0.0000000000
     78622     10396  TIP3      H1             -7.5926600991      -27.8921128088      -86.0309570454  TIP3      9036            0.0000000000
     78623     10396  TIP3      H2             -8.8435182871      -27.5795452410      -86.7960647092  TIP3      9036            0.0000000000
     78624     10397  TIP3      OH2           -18.4731795775      -29.6101071357      -85.5111149582  TIP3      9037            0.0000000000
     78625     10397  TIP3      H1            -19.1285204106      -29.3087467122      -84.8745569827  TIP3      9037            0.0000000000
     78626     10397  TIP3      H2            -17.9219581700      -28.8481277834      -85.6779212480  TIP3      9037            0.0000000000
     78627     10398  TIP3      OH2           -19.5300724841      -34.3275816762      -87.4932002867  TIP3      9038            0.0000000000
     78628     10398  TIP3      H1            -19.5270071074      -33.3945729630      -87.2029021082  TIP3      9038            0.0000000000
     78629     10398  TIP3      H2            -20.4524266814      -34.4951545564      -87.6201621031  TIP3      9038            0.0000000000
     78630     10399  TIP3      OH2            -7.1877204319      -24.7453364194      -88.0225755089  TIP3      9039            0.0000000000
     78631     10399  TIP3      H1             -6.9636825116      -25.5689986422      -87.5779769187  TIP3      9039            0.0000000000
     78632     10399  TIP3      H2             -6.4603472326      -24.5777952445      -88.6173685904  TIP3      9039            0.0000000000
     78633     10400  TIP3      OH2           -16.3134472114      -28.8714408317      -88.1550771302  TIP3      9040            0.0000000000
     78634     10400  TIP3      H1            -16.2000240854      -29.6822468743      -87.6490497705  TIP3      9040            0.0000000000
     78635     10400  TIP3      H2            -15.6034375380      -28.9707981629      -88.8336116772  TIP3      9040            0.0000000000
     78636     10401  TIP3      OH2           -10.8358628125      -27.8345623772      -88.4182705685  TIP3      9041            0.0000000000
     78637     10401  TIP3      H1            -11.1472819434      -27.6313122163      -87.5410302747  TIP3      9041            0.0000000000
     78638     10401  TIP3      H2            -11.1158119286      -28.7448676427      -88.6027344105  TIP3      9041            0.0000000000
     78639     10402  TIP3      OH2            -4.6800676913      -30.2489274448      -88.1553382202  TIP3      9042            0.0000000000
     78640     10402  TIP3      H1             -4.9059691471      -30.6511217794      -89.0090944885  TIP3      9042            0.0000000000
     78641     10402  TIP3      H2             -4.6507222454      -29.2975507898      -88.3826138482  TIP3      9042            0.0000000000
     78642     10403  TIP3      OH2           -20.6129374107      -27.4240520629      -87.0494227173  TIP3      9043            0.0000000000
     78643     10403  TIP3      H1            -19.6976316523      -27.1903140211      -86.9243193566  TIP3      9043            0.0000000000
     78644     10403  TIP3      H2            -20.6007675828      -28.0010882656      -87.8337013084  TIP3      9043            0.0000000000
     78645     10404  TIP3      OH2            -3.5531533066      -31.4376177304      -85.9708211251  TIP3      9044            0.0000000000
     78646     10404  TIP3      H1             -4.0466253411      -31.0609230547      -86.7271267273  TIP3      9044            0.0000000000
     78647     10404  TIP3      H2             -3.6071999508      -30.7544429600      -85.3006519484  TIP3      9044            0.0000000000
     78648     10405  TIP3      OH2            13.4892979503      -40.0706308913      -85.5348346156  TIP3      9045            0.0000000000
     78649     10405  TIP3      H1             12.5714114584      -39.9894222471      -85.3316035948  TIP3      9045            0.0000000000
     78650     10405  TIP3      H2             13.7807714935      -39.2791583389      -85.9990226507  TIP3      9045            0.0000000000
     78651     10406  TIP3      OH2            14.7198773440      -25.7665852063      -87.3248598605  TIP3      9046            0.0000000000
     78652     10406  TIP3      H1             14.8335297638      -24.8467511620      -87.0304096174  TIP3      9046            0.0000000000
     78653     10406  TIP3      H2             15.6251888959      -26.0930063721      -87.2246741361  TIP3      9046            0.0000000000
     78654     10407  TIP3      OH2            10.1607145530      -23.0106396971      -86.5348957204  TIP3      9047            0.0000000000
     78655     10407  TIP3      H1             10.5388541943      -23.7762937567      -87.0364938797  TIP3      9047            0.0000000000
     78656     10407  TIP3      H2             10.1828496011      -23.3674285829      -85.6420397976  TIP3      9047            0.0000000000
     78657     10408  TIP3      OH2             2.4250202417      -33.8022346683      -86.6040408545  TIP3      9048            0.0000000000
     78658     10408  TIP3      H1              1.8527855380      -34.1565295669      -87.3031647488  TIP3      9048            0.0000000000
     78659     10408  TIP3      H2              3.2329074451      -33.5676412434      -87.0771703210  TIP3      9048            0.0000000000
     78660     10409  TIP3      OH2            -1.0198551190      -31.3807988977      -87.0990792305  TIP3      9049            0.0000000000
     78661     10409  TIP3      H1             -0.4054598195      -30.9283059811      -86.4765726855  TIP3      9049            0.0000000000
     78662     10409  TIP3      H2             -1.8783095734      -31.2812416609      -86.6469051100  TIP3      9049            0.0000000000
     78663     10410  TIP3      OH2            15.3911231655      -23.0996114586      -86.6754215219  TIP3      9050            0.0000000000
     78664     10410  TIP3      H1             16.1362236443      -22.4916167569      -86.7698615851  TIP3      9050            0.0000000000
     78665     10410  TIP3      H2             14.6940040883      -22.5000044618      -86.3423129235  TIP3      9050            0.0000000000
     78666     10411  TIP3      OH2             5.0192800842      -26.3832531955      -88.3816610164  TIP3      9051            0.0000000000
     78667     10411  TIP3      H1              5.1966574301      -27.1456222481      -88.9568509446  TIP3      9051            0.0000000000
     78668     10411  TIP3      H2              4.6741561599      -26.8275712329      -87.5784186207  TIP3      9051            0.0000000000
     78669     10412  TIP3      OH2             3.9240189636      -26.8732118987      -85.9211317451  TIP3      9052            0.0000000000
     78670     10412  TIP3      H1              4.1231967067      -27.4021873054      -85.1392721183  TIP3      9052            0.0000000000
     78671     10412  TIP3      H2              4.0158833915      -25.9776549195      -85.5854217240  TIP3      9052            0.0000000000
     78672     10413  TIP3      OH2             0.3526707163      -29.5892941301      -85.4877972298  TIP3      9053            0.0000000000
     78673     10413  TIP3      H1             -0.2869110040      -29.2583479654      -84.8602303954  TIP3      9053            0.0000000000
     78674     10413  TIP3      H2              0.9236429959      -28.8395552048      -85.7207308466  TIP3      9053            0.0000000000
     78675     10414  TIP3      OH2             6.6318349209      -25.1754315969      -85.1697736915  TIP3      9054            0.0000000000
     78676     10414  TIP3      H1              5.8499813303      -24.6274458519      -85.1462350791  TIP3      9054            0.0000000000
     78677     10414  TIP3      H2              7.1888203793      -24.6802017246      -85.7971166628  TIP3      9054            0.0000000000
     78678     10415  TIP3      OH2             0.9684056296      -27.0009046537      -86.5235408117  TIP3      9055            0.0000000000
     78679     10415  TIP3      H1              1.6177490348      -26.3324443986      -86.2896213418  TIP3      9055            0.0000000000
     78680     10415  TIP3      H2              1.4630927626      -27.4468497765      -87.2392840900  TIP3      9055            0.0000000000
     78681     10416  TIP3      OH2             7.0856144276      -24.5514267949      -88.2423980368  TIP3      9056            0.0000000000
     78682     10416  TIP3      H1              6.3918110889      -25.2015310455      -88.0129542486  TIP3      9056            0.0000000000
     78683     10416  TIP3      H2              7.8031005785      -25.1404159103      -88.5138315704  TIP3      9056            0.0000000000
     78684     10417  TIP3      OH2            11.6458933701      -24.7320907434      -88.1082279940  TIP3      9057            0.0000000000
     78685     10417  TIP3      H1             11.8983046052      -25.5173754017      -87.5776149793  TIP3      9057            0.0000000000
     78686     10417  TIP3      H2             12.4450571102      -24.5703355399      -88.6139966583  TIP3      9057            0.0000000000
     78687     10418  TIP3      OH2             2.5305269462      -28.8448928953      -88.2396827498  TIP3      9058            0.0000000000
     78688     10418  TIP3      H1              2.6497536624      -29.5991853599      -87.6316737709  TIP3      9058            0.0000000000
     78689     10418  TIP3      H2              3.2813768690      -28.9637513193      -88.8525225015  TIP3      9058            0.0000000000
     78690     10419  TIP3      OH2             7.9204111031      -27.7609223790      -88.4056439129  TIP3      9059            0.0000000000
     78691     10419  TIP3      H1              7.6315408960      -27.6206873620      -87.4998754999  TIP3      9059            0.0000000000
     78692     10419  TIP3      H2              7.7422341567      -28.6940757604      -88.5744857040  TIP3      9059            0.0000000000
     78693     10420  TIP3      OH2             3.6961096813      -30.8545482679      -85.9071251412  TIP3      9060            0.0000000000
     78694     10420  TIP3      H1              3.2736972303      -31.3439459729      -85.1875132126  TIP3      9060            0.0000000000
     78695     10420  TIP3      H2              3.9731619716      -31.5552722666      -86.5234012449  TIP3      9060            0.0000000000
     78696     10421  TIP3      OH2             4.8020686970      -32.6832463307      -87.6286993367  TIP3      9061            0.0000000000
     78697     10421  TIP3      H1              4.6500953476      -32.7151430809      -88.5942121737  TIP3      9061            0.0000000000
     78698     10421  TIP3      H2              5.7542649013      -32.5584541073      -87.5552115286  TIP3      9061            0.0000000000
     78699     10422  TIP3      OH2            -1.7926419802      -27.2824611621      -87.1393133879  TIP3      9062            0.0000000000
     78700     10422  TIP3      H1             -0.8527008581      -27.2387977074      -86.8582630826  TIP3      9062            0.0000000000
     78701     10422  TIP3      H2             -1.7377663376      -28.0098405846      -87.7901955217  TIP3      9062            0.0000000000
     78702     10423  TIP3      OH2            12.8785377211      -36.7063782768      -88.2142933232  TIP3      9063            0.0000000000
     78703     10423  TIP3      H1             13.5972823273      -37.1998748096      -87.7450857528  TIP3      9063            0.0000000000
     78704     10423  TIP3      H2             12.1057123178      -37.2815168438      -88.1469392834  TIP3      9063            0.0000000000
     78705     10424  TIP3      OH2            14.8724273925      -37.7220401022      -86.8700901084  TIP3      9064            0.0000000000
     78706     10424  TIP3      H1             15.3064839936      -38.5620210611      -87.1568193802  TIP3      9064            0.0000000000
     78707     10424  TIP3      H2             15.7035005476      -37.2741363373      -86.6355244689  TIP3      9064            0.0000000000
     78708     10425  TIP3      OH2             7.3424650490      -22.6872864643      -86.3370737424  TIP3      9065            0.0000000000
     78709     10425  TIP3      H1              8.2356782724      -22.3902467117      -86.5504402028  TIP3      9065            0.0000000000
     78710     10425  TIP3      H2              7.1172175042      -23.1681062175      -87.1629246624  TIP3      9065            0.0000000000
     78711     10426  TIP3      OH2            33.5265592898      -25.6846943878      -87.4188688316  TIP3      9066            0.0000000000
     78712     10426  TIP3      H1             33.7292183368      -24.8151669463      -87.0064255024  TIP3      9066            0.0000000000
     78713     10426  TIP3      H2             34.3979327583      -26.1170157318      -87.2121169257  TIP3      9066            0.0000000000
     78714     10427  TIP3      OH2            25.8462756011      -37.0195136287      -87.1073609252  TIP3      9067            0.0000000000
     78715     10427  TIP3      H1             25.4679688684      -36.9588353346      -86.2301862913  TIP3      9067            0.0000000000
     78716     10427  TIP3      H2             25.4661521224      -37.8410100308      -87.4575718858  TIP3      9067            0.0000000000
     78717     10428  TIP3      OH2            22.6442716954      -36.5639338894      -88.1592633884  TIP3      9068            0.0000000000
     78718     10428  TIP3      H1             22.1698548038      -36.8770530959      -87.3556320981  TIP3      9068            0.0000000000
     78719     10428  TIP3      H2             21.8974799402      -36.1231116999      -88.5791849149  TIP3      9068            0.0000000000
     78720     10429  TIP3      OH2            17.1752869325      -36.0248658926      -85.4628419831  TIP3      9069            0.0000000000
     78721     10429  TIP3      H1             17.6624863427      -35.5056360789      -86.1388211039  TIP3      9069            0.0000000000
     78722     10429  TIP3      H2             16.4386987178      -35.4887360783      -85.2223633056  TIP3      9069            0.0000000000
     78723     10430  TIP3      OH2            28.4676016069      -36.4031721629      -86.5286517199  TIP3      9070            0.0000000000
     78724     10430  TIP3      H1             27.5118211655      -36.2549348560      -86.6356510159  TIP3      9070            0.0000000000
     78725     10430  TIP3      H2             28.7743502128      -35.5659469916      -86.1344923352  TIP3      9070            0.0000000000
     78726     10431  TIP3      OH2            29.1890787912      -34.4424284510      -84.8421919647  TIP3      9071            0.0000000000
     78727     10431  TIP3      H1             30.0947184315      -34.6555180666      -84.5812433840  TIP3      9071            0.0000000000
     78728     10431  TIP3      H2             29.2719429061      -33.6777479459      -85.4175529738  TIP3      9071            0.0000000000
     78729     10432  TIP3      OH2            34.1019964132      -34.3321865051      -85.0968329651  TIP3      9072            0.0000000000
     78730     10432  TIP3      H1             33.5376264487      -34.6835628646      -85.8110413196  TIP3      9072            0.0000000000
     78731     10432  TIP3      H2             34.1058221952      -33.4080725180      -85.3792704751  TIP3      9072            0.0000000000
     78732     10433  TIP3      OH2            17.7886688574      -31.5008282187      -86.9857515049  TIP3      9073            0.0000000000
     78733     10433  TIP3      H1             18.4191776409      -30.9195189695      -86.5125161440  TIP3      9073            0.0000000000
     78734     10433  TIP3      H2             16.9523222104      -31.1885910978      -86.6336186550  TIP3      9073            0.0000000000
     78735     10434  TIP3      OH2            34.2221333254      -23.1364732563      -86.6714870112  TIP3      9074            0.0000000000
     78736     10434  TIP3      H1             34.9925972237      -22.5328488975      -86.7214105314  TIP3      9074            0.0000000000
     78737     10434  TIP3      H2             33.5700897779      -22.5053379556      -86.3369246841  TIP3      9074            0.0000000000
     78738     10435  TIP3      OH2            19.1891905689      -29.5984875537      -85.5243728327  TIP3      9075            0.0000000000
     78739     10435  TIP3      H1             18.5673067593      -29.2878374638      -84.8610616895  TIP3      9075            0.0000000000
     78740     10435  TIP3      H2             19.7607263510      -28.8427797609      -85.6754966645  TIP3      9075            0.0000000000
     78741     10436  TIP3      OH2            21.4562206648      -36.9290252723      -85.9707125968  TIP3      9076            0.0000000000
     78742     10436  TIP3      H1             21.3859710904      -36.3795525940      -85.1950068629  TIP3      9076            0.0000000000
     78743     10436  TIP3      H2             22.1994318217      -37.4520889766      -85.6327125764  TIP3      9076            0.0000000000
     78744     10437  TIP3      OH2            19.7989684249      -27.0081722513      -86.5541343704  TIP3      9077            0.0000000000
     78745     10437  TIP3      H1             20.4592813991      -26.4200414213      -86.1709097626  TIP3      9077            0.0000000000
     78746     10437  TIP3      H2             20.2715834102      -27.4328204640      -87.2751350939  TIP3      9077            0.0000000000
     78747     10438  TIP3      OH2            18.1350371261      -34.3156797807      -87.3412201042  TIP3      9078            0.0000000000
     78748     10438  TIP3      H1             18.1552574985      -33.3497943310      -87.2249242837  TIP3      9078            0.0000000000
     78749     10438  TIP3      H2             17.2780512841      -34.5017954517      -87.7236006985  TIP3      9078            0.0000000000
     78750     10439  TIP3      OH2            30.4349782587      -24.8123104643      -88.1243536895  TIP3      9079            0.0000000000
     78751     10439  TIP3      H1             30.7422079384      -25.4529762495      -87.4547992398  TIP3      9079            0.0000000000
     78752     10439  TIP3      H2             31.2123385332      -24.3129812970      -88.4172458015  TIP3      9079            0.0000000000
     78753     10440  TIP3      OH2            23.6763704403      -32.6521045551      -87.6469896396  TIP3      9080            0.0000000000
     78754     10440  TIP3      H1             23.5125472952      -32.7859639286      -88.5857803701  TIP3      9080            0.0000000000
     78755     10440  TIP3      H2             24.6326031352      -32.5160396301      -87.5812309770  TIP3      9080            0.0000000000
     78756     10441  TIP3      OH2            33.1225691790      -30.2281188232      -88.1703978245  TIP3      9081            0.0000000000
     78757     10441  TIP3      H1             32.7966550232      -30.6737134413      -88.9633752057  TIP3      9081            0.0000000000
     78758     10441  TIP3      H2             33.0423561111      -29.2952757017      -88.4032584527  TIP3      9081            0.0000000000
     78759     10442  TIP3      OH2            23.5720673025      -21.9671481377      -86.6199470621  TIP3      9082            0.0000000000
     78760     10442  TIP3      H1             24.4975908982      -21.7933851961      -86.4521102782  TIP3      9082            0.0000000000
     78761     10442  TIP3      H2             23.3021014950      -21.2783386749      -87.2316233554  TIP3      9082            0.0000000000
     78762     10443  TIP3      OH2            17.1459030243      -27.2778999017      -87.1015201248  TIP3      9083            0.0000000000
     78763     10443  TIP3      H1             18.0834484836      -27.2286504648      -86.8599700242  TIP3      9083            0.0000000000
     78764     10443  TIP3      H2             17.1263576287      -27.9850357053      -87.7762721026  TIP3      9083            0.0000000000
     78765     10444  TIP3      OH2            33.6407804114      -31.3496429371      -85.6001204374  TIP3      9084            0.0000000000
     78766     10444  TIP3      H1             33.6255308906      -31.1033043955      -86.5655068240  TIP3      9084            0.0000000000
     78767     10444  TIP3      H2             34.1845749492      -30.6336896609      -85.2493442981  TIP3      9084            0.0000000000
     78768     10445  TIP3      OH2            32.6314343192      -34.2153496558      -87.4478828920  TIP3      9085            0.0000000000
     78769     10445  TIP3      H1             32.5932244950      -33.5510715268      -88.1387470446  TIP3      9085            0.0000000000
     78770     10445  TIP3      H2             32.3638900590      -35.0365572744      -87.9116591475  TIP3      9085            0.0000000000
     78771     10446  TIP3      OH2            31.7657134238      -36.7399631500      -88.2945443400  TIP3      9086            0.0000000000
     78772     10446  TIP3      H1             32.3956732757      -37.1941740115      -87.7030175799  TIP3      9086            0.0000000000
     78773     10446  TIP3      H2             30.9446843860      -37.2277505084      -88.1136546154  TIP3      9086            0.0000000000
     78774     10447  TIP3      OH2            33.9075378431      -37.8469620965      -86.7860253691  TIP3      9087            0.0000000000
     78775     10447  TIP3      H1             34.2879395454      -38.5896935207      -87.2671492711  TIP3      9087            0.0000000000
     78776     10447  TIP3      H2             34.6221689125      -37.2201375876      -86.7110249068  TIP3      9087            0.0000000000
     78777     10448  TIP3      OH2            16.8600502665      -38.7665190084      -85.7960904626  TIP3      9088            0.0000000000
     78778     10448  TIP3      H1             17.6234386782      -39.2205713889      -86.1967323842  TIP3      9088            0.0000000000
     78779     10448  TIP3      H2             16.7809703821      -39.3014613438      -85.0184676405  TIP3      9088            0.0000000000
     78780     10449  TIP3      OH2            19.2791666680      -37.4807656655      -87.2752881444  TIP3      9089            0.0000000000
     78781     10449  TIP3      H1             19.6285064321      -38.2904046382      -87.6800094610  TIP3      9089            0.0000000000
     78782     10449  TIP3      H2             19.8816316453      -37.4706790779      -86.5018234992  TIP3      9089            0.0000000000
     78783     10450  TIP3      OH2            19.1179673103      -23.0005864120      -87.7159344141  TIP3      9090            0.0000000000
     78784     10450  TIP3      H1             18.8971601688      -22.7005452905      -86.8272050809  TIP3      9090            0.0000000000
     78785     10450  TIP3      H2             19.9366932161      -23.5112125995      -87.5771314242  TIP3      9090            0.0000000000
     78786     10451  TIP3      OH2            40.0866836519      -33.6990569229      -86.6225869774  TIP3      9091            0.0000000000
     78787     10451  TIP3      H1             39.5470529694      -34.1861681431      -87.2899184632  TIP3      9091            0.0000000000
     78788     10451  TIP3      H2             40.8917834800      -33.5822598898      -87.1166102547  TIP3      9091            0.0000000000
     78789     10452  TIP3      OH2            36.9214202546      -32.7148566388      -85.9635744999  TIP3      9092            0.0000000000
     78790     10452  TIP3      H1             37.3697490709      -32.0924809823      -86.5694146589  TIP3      9092            0.0000000000
     78791     10452  TIP3      H2             36.2684661866      -31.9680665722      -85.9664674690  TIP3      9092            0.0000000000
     78792     10453  TIP3      OH2            38.5420702724      -29.0841254302      -84.2436437970  TIP3      9093            0.0000000000
     78793     10453  TIP3      H1             37.6270979914      -29.0650050450      -84.5612668362  TIP3      9093            0.0000000000
     78794     10453  TIP3      H2             38.8154466423      -28.7617401240      -85.1148605169  TIP3      9093            0.0000000000
     78795     10454  TIP3      OH2            39.7054575688      -25.9725831193      -86.8540233517  TIP3      9094            0.0000000000
     78796     10454  TIP3      H1             39.2873627247      -26.1866954167      -86.0027639935  TIP3      9094            0.0000000000
     78797     10454  TIP3      H2             39.4709388183      -26.8871333052      -87.2269273365  TIP3      9094            0.0000000000
     78798     10455  TIP3      OH2            36.9351319163      -34.7107926027      -87.4212467621  TIP3      9095            0.0000000000
     78799     10455  TIP3      H1             37.0945285298      -33.7784886807      -87.1761537680  TIP3      9095            0.0000000000
     78800     10455  TIP3      H2             36.0377494362      -34.6618991056      -87.7189237374  TIP3      9095            0.0000000000
     78801     10456  TIP3      OH2            39.9672715410      -27.9035579269      -88.1969043290  TIP3      9096            0.0000000000
     78802     10456  TIP3      H1             40.4537227703      -28.6412434724      -87.7521522410  TIP3      9096            0.0000000000
     78803     10456  TIP3      H2             40.4225104816      -28.1496502521      -89.0347510101  TIP3      9096            0.0000000000
     78804     10457  TIP3      OH2            35.2761667823      -27.6619229863      -87.2897108031  TIP3      9097            0.0000000000
     78805     10457  TIP3      H1             36.1538100327      -27.3262683843      -87.0201451670  TIP3      9097            0.0000000000
     78806     10457  TIP3      H2             35.7085151519      -28.1483912371      -88.0298807282  TIP3      9097            0.0000000000
     78807     10458  TIP3      OH2            38.0439547252      -22.9446704411      -87.7376317929  TIP3      9098            0.0000000000
     78808     10458  TIP3      H1             37.7387630892      -22.7147569168      -86.8480219415  TIP3      9098            0.0000000000
     78809     10458  TIP3      H2             38.7653075632      -23.5795256528      -87.5991538169  TIP3      9098            0.0000000000
     78810     10459  TIP3      OH2           -30.1078805263      -13.9569684619      -87.0467149984  TIP3      9099            0.0000000000
     78811     10459  TIP3      H1            -29.4164361023      -13.8935686793      -86.3694689057  TIP3      9099            0.0000000000
     78812     10459  TIP3      H2            -29.7405784640      -14.6014578035      -87.6536512251  TIP3      9099            0.0000000000
     78813     10460  TIP3      OH2           -27.8366912684      -13.0654107689      -85.4520394796  TIP3      9100            0.0000000000
     78814     10460  TIP3      H1            -27.2900201702      -12.8345777153      -84.6994309301  TIP3      9100            0.0000000000
     78815     10460  TIP3      H2            -27.4428563278      -12.5463726667      -86.1805365202  TIP3      9100            0.0000000000
     78816     10461  TIP3      OH2           -23.0293048915       -6.8742014553      -87.3024279484  TIP3      9101            0.0000000000
     78817     10461  TIP3      H1            -22.9303199306       -5.9616096166      -86.9554929571  TIP3      9101            0.0000000000
     78818     10461  TIP3      H2            -22.1926975259       -7.2786345485      -86.9787371571  TIP3      9101            0.0000000000
     78819     10462  TIP3      OH2           -26.3921966119      -12.0421379346      -87.6999239532  TIP3      9102            0.0000000000
     78820     10462  TIP3      H1            -26.4046225462      -12.1981492035      -88.6748536050  TIP3      9102            0.0000000000
     78821     10462  TIP3      H2            -25.5670299217      -11.5489041051      -87.6114005222  TIP3      9102            0.0000000000
     78822     10463  TIP3      OH2           -27.3969160644      -15.6104768193      -84.8326522160  TIP3      9103            0.0000000000
     78823     10463  TIP3      H1            -26.4946581953      -15.8175076924      -84.5709690923  TIP3      9103            0.0000000000
     78824     10463  TIP3      H2            -27.3234908493      -14.8435311605      -85.4255133406  TIP3      9103            0.0000000000
     78825     10464  TIP3      OH2           -29.8907544255       -8.8735318598      -85.7077308776  TIP3      9104            0.0000000000
     78826     10464  TIP3      H1            -30.1330214267       -8.0597944522      -85.2607882648  TIP3      9104            0.0000000000
     78827     10464  TIP3      H2            -30.5606616361       -9.5165966792      -85.4464751522  TIP3      9104            0.0000000000
     78828     10465  TIP3      OH2           -22.5253786808      -15.4748865959      -85.1016001588  TIP3      9105            0.0000000000
     78829     10465  TIP3      H1            -23.0629455922      -15.8011593708      -85.8380706260  TIP3      9105            0.0000000000
     78830     10465  TIP3      H2            -22.4373103217      -14.5579320557      -85.3729593154  TIP3      9105            0.0000000000
     78831     10466  TIP3      OH2           -22.2851070502       -4.2683356515      -86.7024989233  TIP3      9106            0.0000000000
     78832     10466  TIP3      H1            -21.5247489172       -3.6399177771      -86.7422056231  TIP3      9106            0.0000000000
     78833     10466  TIP3      H2            -22.9320233949       -3.6446677881      -86.3407823283  TIP3      9106            0.0000000000
     78834     10467  TIP3      OH2           -32.6990453324       -7.5604303404      -88.4521530931  TIP3      9107            0.0000000000
     78835     10467  TIP3      H1            -32.5187297924       -8.3660554622      -88.9634584274  TIP3      9107            0.0000000000
     78836     10467  TIP3      H2            -33.0031385731       -7.9447599816      -87.6042507408  TIP3      9107            0.0000000000
     78837     10468  TIP3      OH2           -33.7629250451       -8.0022619321      -85.9566158199  TIP3      9108            0.0000000000
     78838     10468  TIP3      H1            -33.6055240467       -8.5232499229      -85.1603610767  TIP3      9108            0.0000000000
     78839     10468  TIP3      H2            -33.7373599957       -7.1076543987      -85.6105359457  TIP3      9108            0.0000000000
     78840     10469  TIP3      OH2           -36.7735935362       -8.1078302939      -86.5726395642  TIP3      9109            0.0000000000
     78841     10469  TIP3      H1            -36.1385904572       -7.4576241118      -86.2600989582  TIP3      9109            0.0000000000
     78842     10469  TIP3      H2            -36.2324122893       -8.5854687932      -87.2129556737  TIP3      9109            0.0000000000
     78843     10470  TIP3      OH2           -29.8446886191       -8.8949265185      -88.4931616918  TIP3      9110            0.0000000000
     78844     10470  TIP3      H1            -29.9504971476       -8.7910209086      -87.5342820488  TIP3      9110            0.0000000000
     78845     10470  TIP3      H2            -29.9475057737       -9.8609026555      -88.5909871191  TIP3      9110            0.0000000000
     78846     10471  TIP3      OH2           -39.4895402790       -8.5417134123      -87.0828978765  TIP3      9111            0.0000000000
     78847     10471  TIP3      H1            -38.5591558125       -8.3192987971      -86.8687758933  TIP3      9111            0.0000000000
     78848     10471  TIP3      H2            -39.3819356328       -9.1498698072      -87.8312709651  TIP3      9111            0.0000000000
     78849     10472  TIP3      OH2           -24.0003449538      -15.3732613578      -87.4409592775  TIP3      9112            0.0000000000
     78850     10472  TIP3      H1            -23.9343409546      -14.7134730979      -88.1410127546  TIP3      9112            0.0000000000
     78851     10472  TIP3      H2            -24.2113530440      -16.1853519850      -87.9410184760  TIP3      9112            0.0000000000
     78852     10473  TIP3      OH2           -24.8679080373      -17.8059148172      -88.3541452398  TIP3      9113            0.0000000000
     78853     10473  TIP3      H1            -24.2320551071      -18.2291054479      -87.7666700690  TIP3      9113            0.0000000000
     78854     10473  TIP3      H2            -25.6401155936      -18.3244002368      -88.1122183751  TIP3      9113            0.0000000000
     78855     10474  TIP3      OH2           -37.3847247401       -4.1542487871      -87.7715216076  TIP3      9114            0.0000000000
     78856     10474  TIP3      H1            -37.6968884884       -3.9366901690      -86.8676223810  TIP3      9114            0.0000000000
     78857     10474  TIP3      H2            -36.6207731446       -4.7260454037      -87.6021503210  TIP3      9114            0.0000000000
     78858     10475  TIP3      OH2           -11.2803333918      -13.9669773455      -87.0467044775  TIP3      9115            0.0000000000
     78859     10475  TIP3      H1            -10.5668272517      -13.8994371985      -86.3985752836  TIP3      9115            0.0000000000
     78860     10475  TIP3      H2            -10.8769859944      -14.5676207511      -87.6867151513  TIP3      9115            0.0000000000
     78861     10476  TIP3      OH2            -7.5150927976      -12.0385369082      -87.7298769121  TIP3      9116            0.0000000000
     78862     10476  TIP3      H1             -7.5351645588      -12.2235626531      -88.6914697365  TIP3      9116            0.0000000000
     78863     10476  TIP3      H2             -6.6759704799      -11.5773245964      -87.6030831429  TIP3      9116            0.0000000000
     78864     10477  TIP3      OH2           -11.8916682148      -18.1431529906      -87.1244587363  TIP3      9117            0.0000000000
     78865     10477  TIP3      H1            -12.1906493970      -18.1284672281      -86.2062347782  TIP3      9117            0.0000000000
     78866     10477  TIP3      H2            -12.2348325429      -18.9919248678      -87.4229597280  TIP3      9117            0.0000000000
     78867     10478  TIP3      OH2            -9.2375829555      -17.4935034480      -86.5915074352  TIP3      9118            0.0000000000
     78868     10478  TIP3      H1            -10.2016055276      -17.4349551786      -86.6114929964  TIP3      9118            0.0000000000
     78869     10478  TIP3      H2             -8.9647593394      -16.7029536799      -86.0920010399  TIP3      9118            0.0000000000
     78870     10479  TIP3      OH2            -8.5504640586      -15.5397083943      -84.8681946554  TIP3      9119            0.0000000000
     78871     10479  TIP3      H1             -7.6582948910      -15.7825435692      -84.5569396244  TIP3      9119            0.0000000000
     78872     10479  TIP3      H2             -8.3809325225      -14.8013165352      -85.4448515991  TIP3      9119            0.0000000000
     78873     10480  TIP3      OH2           -14.8833315025       -8.0232879995      -85.9480491517  TIP3      9120            0.0000000000
     78874     10480  TIP3      H1            -14.7567512753       -8.5408342480      -85.1448209205  TIP3      9120            0.0000000000
     78875     10480  TIP3      H2            -14.9063060844       -7.1268114492      -85.6068849659  TIP3      9120            0.0000000000
     78876     10481  TIP3      OH2           -17.9159337588       -8.1146018225      -86.5932616877  TIP3      9121            0.0000000000
     78877     10481  TIP3      H1            -17.2483544773       -7.5124479689      -86.2461876538  TIP3      9121            0.0000000000
     78878     10481  TIP3      H2            -17.3604811120       -8.6131761340      -87.2033463848  TIP3      9121            0.0000000000
     78879     10482  TIP3      OH2           -13.8938615418      -13.8267025454      -87.7459687620  TIP3      9122            0.0000000000
     78880     10482  TIP3      H1            -14.1012314670      -13.9029265816      -88.6740436784  TIP3      9122            0.0000000000
     78881     10482  TIP3      H2            -12.9407743483      -13.6747902251      -87.6319409597  TIP3      9122            0.0000000000
     78882     10483  TIP3      OH2            -4.7034209712      -11.4083316761      -88.1456303313  TIP3      9123            0.0000000000
     78883     10483  TIP3      H1             -4.8857369260      -11.8184557458      -89.0042071063  TIP3      9123            0.0000000000
     78884     10483  TIP3      H2             -4.5901116487      -10.4791754294      -88.3770841017  TIP3      9123            0.0000000000
     78885     10484  TIP3      OH2           -20.5879998954       -8.3622840525      -87.3056199320  TIP3      9124            0.0000000000
     78886     10484  TIP3      H1            -19.7061267102       -8.3645433183      -86.8358003733  TIP3      9124            0.0000000000
     78887     10484  TIP3      H2            -20.5280723080       -9.2437463177      -87.7010364239  TIP3      9124            0.0000000000
     78888     10485  TIP3      OH2            -3.5243764425      -12.5937388232      -85.9846523978  TIP3      9125            0.0000000000
     78889     10485  TIP3      H1             -4.0624665726      -12.2348141448      -86.7148178101  TIP3      9125            0.0000000000
     78890     10485  TIP3      H2             -3.5617843296      -11.9049817832      -85.3150730292  TIP3      9125            0.0000000000
     78891     10486  TIP3      OH2            -5.1968256266      -15.3392121803      -87.4225171569  TIP3      9126            0.0000000000
     78892     10486  TIP3      H1             -5.0494311833      -14.7129847812      -88.1316908231  TIP3      9126            0.0000000000
     78893     10486  TIP3      H2             -5.3343163732      -16.1810687547      -87.8978009220  TIP3      9126            0.0000000000
     78894     10487  TIP3      OH2            -5.9176848745      -17.9023483523      -88.3032328049  TIP3      9127            0.0000000000
     78895     10487  TIP3      H1             -5.3527829282      -18.3153813218      -87.6506719429  TIP3      9127            0.0000000000
     78896     10487  TIP3      H2             -6.7647811893      -18.3483974187      -88.1310580774  TIP3      9127            0.0000000000
     78897     10488  TIP3      OH2           -20.2614961673      -21.0001877290      -85.6839729998  TIP3      9128            0.0000000000
     78898     10488  TIP3      H1            -19.7909078570      -20.3703609481      -86.2172839857  TIP3      9128            0.0000000000
     78899     10488  TIP3      H2            -20.8820293633      -20.4897861145      -85.1737648366  TIP3      9128            0.0000000000
     78900     10489  TIP3      OH2           -18.5929243764       -4.1504216427      -87.7683208322  TIP3      9129            0.0000000000
     78901     10489  TIP3      H1            -18.8237555358       -3.8545089812      -86.8678053925  TIP3      9129            0.0000000000
     78902     10489  TIP3      H2            -17.7972131913       -4.7008540770      -87.6229282717  TIP3      9129            0.0000000000
     78903     10490  TIP3      OH2             7.6293991036      -13.9489130763      -87.2068266323  TIP3      9130            0.0000000000
     78904     10490  TIP3      H1              8.2044188506      -13.8397582909      -86.4114658737  TIP3      9130            0.0000000000
     78905     10490  TIP3      H2              8.0298270904      -14.6743512115      -87.6716376259  TIP3      9130            0.0000000000
     78906     10491  TIP3      OH2             9.9579293882      -13.1334301232      -85.4973021501  TIP3      9131            0.0000000000
     78907     10491  TIP3      H1             10.3788759953      -12.8082247338      -84.7015115903  TIP3      9131            0.0000000000
     78908     10491  TIP3      H2             10.2570395314      -12.5178445491      -86.1905563447  TIP3      9131            0.0000000000
     78909     10492  TIP3      OH2            13.5862774776      -21.2685359438      -85.5508244450  TIP3      9132            0.0000000000
     78910     10492  TIP3      H1             12.6506094758      -21.1909675379      -85.3469047296  TIP3      9132            0.0000000000
     78911     10492  TIP3      H2             13.7859404652      -20.4215051358      -85.9888585440  TIP3      9132            0.0000000000
     78912     10493  TIP3      OH2            11.3335312470      -11.9962424353      -87.7246412781  TIP3      9133            0.0000000000
     78913     10493  TIP3      H1             11.3036951231      -12.1896901661      -88.6908546810  TIP3      9133            0.0000000000
     78914     10493  TIP3      H2             12.2098936625      -11.6000427852      -87.6298727231  TIP3      9133            0.0000000000
     78915     10494  TIP3      OH2             6.9120458713      -18.1074360816      -87.1632574077  TIP3      9134            0.0000000000
     78916     10494  TIP3      H1              6.5991479020      -18.0853428545      -86.2432860547  TIP3      9134            0.0000000000
     78917     10494  TIP3      H2              6.6187442914      -18.9878720564      -87.4236764981  TIP3      9134            0.0000000000
     78918     10495  TIP3      OH2             9.5760513439      -17.5371077307      -86.5558221777  TIP3      9135            0.0000000000
     78919     10495  TIP3      H1              8.6145851135      -17.4029084339      -86.6106370347  TIP3      9135            0.0000000000
     78920     10495  TIP3      H2              9.9034076612      -16.7224087438      -86.1107477396  TIP3      9135            0.0000000000
     78921     10496  TIP3      OH2            10.3303544541      -15.6357178009      -84.8824199626  TIP3      9136            0.0000000000
     78922     10496  TIP3      H1             11.2311333644      -15.7913402875      -84.5797546825  TIP3      9136            0.0000000000
     78923     10496  TIP3      H2             10.3869239271      -14.8093857850      -85.4011296748  TIP3      9136            0.0000000000
     78924     10497  TIP3      OH2            15.1263766000      -15.4864305527      -85.0381549852  TIP3      9137            0.0000000000
     78925     10497  TIP3      H1             14.6593598689      -15.8216557278      -85.8236379383  TIP3      9137            0.0000000000
     78926     10497  TIP3      H2             15.3300470578      -14.5913499580      -85.3925572712  TIP3      9137            0.0000000000
     78927     10498  TIP3      OH2            -1.0046063594      -12.6156250457      -87.0076573291  TIP3      9138            0.0000000000
     78928     10498  TIP3      H1             -0.4116306458      -12.0207475713      -86.4920165379  TIP3      9138            0.0000000000
     78929     10498  TIP3      H2             -1.8884049179      -12.4059234531      -86.6439013831  TIP3      9138            0.0000000000
     78930     10499  TIP3      OH2             5.0360810308       -7.5423546921      -88.4101007357  TIP3      9139            0.0000000000
     78931     10499  TIP3      H1              5.2238813057       -8.3320578534      -88.9340294002  TIP3      9139            0.0000000000
     78932     10499  TIP3      H2              4.7131183674       -7.9608500572      -87.5815831757  TIP3      9139            0.0000000000
     78933     10500  TIP3      OH2             3.8266887198       -8.0156475885      -85.9289511028  TIP3      9140            0.0000000000
     78934     10500  TIP3      H1              4.1552844435       -8.5276571451      -85.1667804101  TIP3      9140            0.0000000000
     78935     10500  TIP3      H2              4.0033994352       -7.1027260875      -85.6224805664  TIP3      9140            0.0000000000
     78936     10501  TIP3      OH2             0.3396884386      -10.7417456228      -85.5111068689  TIP3      9141            0.0000000000
     78937     10501  TIP3      H1             -0.2702539808      -10.4154969004      -84.8464642867  TIP3      9141            0.0000000000
     78938     10501  TIP3      H2              0.9256665829       -9.9925034839      -85.7034554409  TIP3      9141            0.0000000000
     78939     10502  TIP3      OH2             3.9798824888       -5.2933627211      -85.1904134008  TIP3      9142            0.0000000000
     78940     10502  TIP3      H1              4.1664250413       -4.4854610263      -85.7352645123  TIP3      9142            0.0000000000
     78941     10502  TIP3      H2              3.8419786243       -4.9201775639      -84.3222396040  TIP3      9142            0.0000000000
     78942     10503  TIP3      OH2             0.9808046736       -8.1437341219      -86.5500602468  TIP3      9143            0.0000000000
     78943     10503  TIP3      H1              1.6178276451       -7.4745015025      -86.2669740089  TIP3      9143            0.0000000000
     78944     10503  TIP3      H2              1.5100765668       -8.5947537098      -87.2357125281  TIP3      9143            0.0000000000
     78945     10504  TIP3      OH2             2.4988250588      -10.0518306893      -88.2517566237  TIP3      9144            0.0000000000
     78946     10504  TIP3      H1              2.7148771712      -10.7607746057      -87.6116191286  TIP3      9144            0.0000000000
     78947     10504  TIP3      H2              3.2793643963      -10.1152834119      -88.8375667459  TIP3      9144            0.0000000000
     78948     10505  TIP3      OH2             3.5180586341      -12.0155077842      -85.9933261878  TIP3      9145            0.0000000000
     78949     10505  TIP3      H1              3.3328714540      -12.4888719876      -85.1693189771  TIP3      9145            0.0000000000
     78950     10505  TIP3      H2              4.0623091317      -12.6690801991      -86.4885769875  TIP3      9145            0.0000000000
     78951     10506  TIP3      OH2             4.8054050554      -13.7546518596      -87.6469758105  TIP3      9146            0.0000000000
     78952     10506  TIP3      H1              4.6804714893      -13.8628259404      -88.6004034302  TIP3      9146            0.0000000000
     78953     10506  TIP3      H2              5.7731104235      -13.6882221733      -87.5009341271  TIP3      9146            0.0000000000
     78954     10507  TIP3      OH2            14.1660091912      -11.4048489309      -88.1613334389  TIP3      9147            0.0000000000
     78955     10507  TIP3      H1             13.9535117834      -11.8156959877      -89.0179438684  TIP3      9147            0.0000000000
     78956     10507  TIP3      H2             14.2203380981      -10.4524838636      -88.3843887388  TIP3      9147            0.0000000000
     78957     10508  TIP3      OH2             4.6926373701       -3.0893627187      -86.5917351005  TIP3      9148            0.0000000000
     78958     10508  TIP3      H1              5.6386356013       -2.9528742894      -86.4795873197  TIP3      9148            0.0000000000
     78959     10508  TIP3      H2              4.4479316890       -2.4369682501      -87.2472252579  TIP3      9148            0.0000000000
     78960     10509  TIP3      OH2            -1.7559141703       -8.5075390107      -87.0901577545  TIP3      9149            0.0000000000
     78961     10509  TIP3      H1             -0.8140283686       -8.3688773333      -86.8735448769  TIP3      9149            0.0000000000
     78962     10509  TIP3      H2             -1.7077331445       -9.1657966285      -87.8016812156  TIP3      9149            0.0000000000
     78963     10510  TIP3      OH2            15.2875606696      -12.6324037766      -85.9682466832  TIP3      9150            0.0000000000
     78964     10510  TIP3      H1             14.8320914007      -12.2133790212      -86.7234773671  TIP3      9150            0.0000000000
     78965     10510  TIP3      H2             15.3305583948      -11.9267425598      -85.3055636448  TIP3      9150            0.0000000000
     78966     10511  TIP3      OH2            13.6465909187      -15.3487839822      -87.4256643378  TIP3      9151            0.0000000000
     78967     10511  TIP3      H1             13.8032337780      -14.7099085053      -88.1227648176  TIP3      9151            0.0000000000
     78968     10511  TIP3      H2             13.5235414337      -16.1888858668      -87.9086712861  TIP3      9151            0.0000000000
     78969     10512  TIP3      OH2            12.9168437000      -17.9154288392      -88.3257568833  TIP3      9152            0.0000000000
     78970     10512  TIP3      H1             13.5264802496      -18.3171335079      -87.6754403385  TIP3      9152            0.0000000000
     78971     10512  TIP3      H2             12.0841142749      -18.3446673274      -88.1036357462  TIP3      9152            0.0000000000
     78972     10513  TIP3      OH2            15.0254311451      -19.0553434722      -86.7387170519  TIP3      9153            0.0000000000
     78973     10513  TIP3      H1             15.4520453130      -19.7828242019      -87.2371978067  TIP3      9153            0.0000000000
     78974     10513  TIP3      H2             15.7315381550      -18.3924911739      -86.7145000464  TIP3      9153            0.0000000000
     78975     10514  TIP3      OH2             0.3124841117       -4.0975115196      -87.7562357868  TIP3      9154            0.0000000000
     78976     10514  TIP3      H1              0.0463946924       -3.8881846194      -86.8523450854  TIP3      9154            0.0000000000
     78977     10514  TIP3      H2              1.0785630927       -4.6866588931      -87.6076809802  TIP3      9154            0.0000000000
     78978     10515  TIP3      OH2            28.7305270690      -13.0550029232      -85.4353937233  TIP3      9155            0.0000000000
     78979     10515  TIP3      H1             29.2859146841      -12.8361649772      -84.6954583809  TIP3      9155            0.0000000000
     78980     10515  TIP3      H2             29.1124286000      -12.5553321052      -86.1759806940  TIP3      9155            0.0000000000
     78981     10516  TIP3      OH2            33.5934178891       -6.9198577718      -87.2890113460  TIP3      9156            0.0000000000
     78982     10516  TIP3      H1             33.6822047584       -5.9954395889      -87.0404444046  TIP3      9156            0.0000000000
     78983     10516  TIP3      H2             34.5101170686       -7.2375219998      -87.2392419244  TIP3      9156            0.0000000000
     78984     10517  TIP3      OH2            30.1776915381      -11.9967233765      -87.6943495746  TIP3      9157            0.0000000000
     78985     10517  TIP3      H1             30.1317728805      -12.2076991685      -88.6594265716  TIP3      9157            0.0000000000
     78986     10517  TIP3      H2             31.0271827631      -11.5686690836      -87.6167946841  TIP3      9157            0.0000000000
     78987     10518  TIP3      OH2            28.4254081396      -17.5725189999      -86.5473788616  TIP3      9158            0.0000000000
     78988     10518  TIP3      H1             27.5001974772      -17.3627651013      -86.6072866861  TIP3      9158            0.0000000000
     78989     10518  TIP3      H2             28.7451130935      -16.7410709777      -86.1363961669  TIP3      9158            0.0000000000
     78990     10519  TIP3      OH2            29.1887334604      -15.6162273091      -84.8245635632  TIP3      9159            0.0000000000
     78991     10519  TIP3      H1             30.0961227255      -15.8042927598      -84.5832581825  TIP3      9159            0.0000000000
     78992     10519  TIP3      H2             29.2342975653      -14.8270836921      -85.3973416793  TIP3      9159            0.0000000000
     78993     10520  TIP3      OH2            23.9522547845       -7.6315304961      -88.3163323963  TIP3      9160            0.0000000000
     78994     10520  TIP3      H1             24.0529355673       -8.3547616203      -88.9479439798  TIP3      9160            0.0000000000
     78995     10520  TIP3      H2             23.5512335058       -8.0197173238      -87.5400466681  TIP3      9160            0.0000000000
     78996     10521  TIP3      OH2            19.8329817382       -8.1231118158      -86.5326479790  TIP3      9161            0.0000000000
     78997     10521  TIP3      H1             20.4828035835       -7.4487060047      -86.2691574250  TIP3      9161            0.0000000000
     78998     10521  TIP3      H2             20.3316500591       -8.5862636200      -87.2293478513  TIP3      9161            0.0000000000
     78999     10522  TIP3      OH2            21.4383340856       -9.9955010953      -88.1450518078  TIP3      9162            0.0000000000
     79000     10522  TIP3      H1             21.5220450556      -10.8004150401      -87.6480032545  TIP3      9162            0.0000000000
     79001     10522  TIP3      H2             22.1002957702      -10.0831414169      -88.8620566696  TIP3      9162            0.0000000000
     79002     10523  TIP3      OH2            17.1041950891       -8.4846394153      -87.1015450409  TIP3      9163            0.0000000000
     79003     10523  TIP3      H1             18.0433276167       -8.3701154460      -86.8665569774  TIP3      9163            0.0000000000
     79004     10523  TIP3      H2             17.1420552256       -9.1609991074      -87.7986742696  TIP3      9163            0.0000000000
     79005     10524  TIP3      OH2            19.2148622383       -4.1005383345      -87.7704931113  TIP3      9164            0.0000000000
     79006     10524  TIP3      H1             18.8773037845       -3.8554450309      -86.8838095640  TIP3      9164            0.0000000000
     79007     10524  TIP3      H2             19.9087174812       -4.7387437805      -87.5524708330  TIP3      9164            0.0000000000
     79008     10525  TIP3      OH2            38.6634183587       -8.1162380276      -86.6292585494  TIP3      9165            0.0000000000
     79009     10525  TIP3      H1             39.3001913819       -7.4727417773      -86.2531710254  TIP3      9165            0.0000000000
     79010     10525  TIP3      H2             39.2408173057       -8.5760735955      -87.2393929409  TIP3      9165            0.0000000000
     79011     10526  TIP3      OH2            35.9517131817       -8.4636153967      -87.0962589114  TIP3      9166            0.0000000000
     79012     10526  TIP3      H1             36.9054555529       -8.3384997807      -86.8660808586  TIP3      9166            0.0000000000
     79013     10526  TIP3      H2             35.9997879449       -9.1201579210      -87.8156659506  TIP3      9166            0.0000000000
     79014     10527  TIP3      OH2            36.3122772638      -21.0069234305      -85.7209648531  TIP3      9167            0.0000000000
     79015     10527  TIP3      H1             36.7673638903      -20.3483504927      -86.2426546547  TIP3      9167            0.0000000000
     79016     10527  TIP3      H2             35.7019415819      -20.4671769517      -85.2036823169  TIP3      9167            0.0000000000
     79017     10528  TIP3      OH2           -30.1150770261        4.8850456316      -86.9298463301  TIP3      9168            0.0000000000
     79018     10528  TIP3      H1            -29.4111065036        4.9347883085      -86.2471942706  TIP3      9168            0.0000000000
     79019     10528  TIP3      H2            -29.8270361357        4.1060692491      -87.4179672809  TIP3      9168            0.0000000000
     79020     10529  TIP3      OH2           -27.8159158616        5.8087577431      -85.4817436927  TIP3      9169            0.0000000000
     79021     10529  TIP3      H1            -27.3191727709        6.0293414779      -84.6812937367  TIP3      9169            0.0000000000
     79022     10529  TIP3      H2            -27.3701735669        6.2870667623      -86.1956594460  TIP3      9169            0.0000000000
     79023     10530  TIP3      OH2           -26.4041380932        6.8532820041      -87.7187411548  TIP3      9170            0.0000000000
     79024     10530  TIP3      H1            -26.3867784125        6.6379843203      -88.6808302598  TIP3      9170            0.0000000000
     79025     10530  TIP3      H2            -25.5091439165        7.2107442383      -87.6029832863  TIP3      9170            0.0000000000
     79026     10531  TIP3      OH2           -33.9247829812        1.1210140318      -88.0558543597  TIP3      9171            0.0000000000
     79027     10531  TIP3      H1            -34.3592137574        0.7672601053      -87.2620546660  TIP3      9171            0.0000000000
     79028     10531  TIP3      H2            -34.6748221690        1.5471520174      -88.5066526339  TIP3      9171            0.0000000000
     79029     10532  TIP3      OH2           -38.5264114314        1.6651640637      -84.8305967744  TIP3      9172            0.0000000000
     79030     10532  TIP3      H1            -38.5335790315        1.9522522252      -85.7582696299  TIP3      9172            0.0000000000
     79031     10532  TIP3      H2            -39.5335776543        1.6910903347      -84.8795387834  TIP3      9172            0.0000000000
     79032     10533  TIP3      OH2           -35.2237711652        3.8398410847      -86.5288088477  TIP3      9173            0.0000000000
     79033     10533  TIP3      H1            -35.8506441665        3.6295911774      -87.2722765409  TIP3      9173            0.0000000000
     79034     10533  TIP3      H2            -34.4907509421        4.1845818432      -87.0595976156  TIP3      9173            0.0000000000
     79035     10534  TIP3      OH2           -27.3768868423        3.2111614331      -84.8541783379  TIP3      9174            0.0000000000
     79036     10534  TIP3      H1            -26.4793719209        3.0337567410      -84.5433867750  TIP3      9174            0.0000000000
     79037     10534  TIP3      H2            -27.3002847478        3.9943202732      -85.4136819852  TIP3      9174            0.0000000000
     79038     10535  TIP3      OH2           -22.5450611127        3.4094745122      -85.0683291345  TIP3      9175            0.0000000000
     79039     10535  TIP3      H1            -23.0483821962        3.0438864558      -85.8225567423  TIP3      9175            0.0000000000
     79040     10535  TIP3      H2            -22.3961141617        4.3149116519      -85.4056050356  TIP3      9175            0.0000000000
     79041     10536  TIP3      OH2           -34.9834548944        0.2463175195      -85.5961693357  TIP3      9176            0.0000000000
     79042     10536  TIP3      H1            -35.0860148864        1.1547082947      -85.2590626626  TIP3      9176            0.0000000000
     79043     10536  TIP3      H2            -34.0466110493        0.0779163997      -85.4105418533  TIP3      9176            0.0000000000
     79044     10537  TIP3      OH2           -37.2598783440        3.7139828597      -87.9881627605  TIP3      9177            0.0000000000
     79045     10537  TIP3      H1            -37.8105681152        4.3391215180      -87.4932361840  TIP3      9177            0.0000000000
     79046     10537  TIP3      H2            -38.0127984168        3.1466836594      -88.2078545571  TIP3      9177            0.0000000000
     79047     10538  TIP3      OH2           -32.9122250234        5.1042642061      -87.6209379481  TIP3      9178            0.0000000000
     79048     10538  TIP3      H1            -33.0795643339        4.9563779534      -88.5666256157  TIP3      9178            0.0000000000
     79049     10538  TIP3      H2            -31.9568510154        5.1561512618      -87.5118251886  TIP3      9178            0.0000000000
     79050     10539  TIP3      OH2           -23.5416683662        7.4517184792      -88.1390536948  TIP3      9179            0.0000000000
     79051     10539  TIP3      H1            -23.7235133490        7.0238172669      -88.9977275380  TIP3      9179            0.0000000000
     79052     10539  TIP3      H2            -23.4694753255        8.3902672800      -88.4241747557  TIP3      9179            0.0000000000
     79053     10540  TIP3      OH2           -22.3799667965        6.2552244581      -85.9580830185  TIP3      9180            0.0000000000
     79054     10540  TIP3      H1            -22.8840578027        6.6022473887      -86.7280471716  TIP3      9180            0.0000000000
     79055     10540  TIP3      H2            -22.3859324713        6.9648423268      -85.3133367177  TIP3      9180            0.0000000000
     79056     10541  TIP3      OH2           -23.9880145204        3.4980655834      -87.4277335081  TIP3      9181            0.0000000000
     79057     10541  TIP3      H1            -23.8943346359        4.1615705500      -88.1179260508  TIP3      9181            0.0000000000
     79058     10541  TIP3      H2            -24.1563585161        2.6853123829      -87.9393239918  TIP3      9181            0.0000000000
     79059     10542  TIP3      OH2           -24.7506055351        0.9113533498      -88.3140423957  TIP3      9182            0.0000000000
     79060     10542  TIP3      H1            -24.1477041025        0.5309933558      -87.6648851213  TIP3      9182            0.0000000000
     79061     10542  TIP3      H2            -25.5969118821        0.4986664204      -88.0878224826  TIP3      9182            0.0000000000
     79062     10543  TIP3      OH2           -39.5055344276       -3.0231410679      -85.5688800162  TIP3      9183            0.0000000000
     79063     10543  TIP3      H1            -39.0335858879       -2.4280425626      -86.1561807200  TIP3      9183            0.0000000000
     79064     10543  TIP3      H2            -39.7347571765       -2.1958414223      -85.0534005600  TIP3      9183            0.0000000000
     79065     10544  TIP3      OH2           -36.6815818401        0.6286433165      -87.6580678559  TIP3      9184            0.0000000000
     79066     10544  TIP3      H1            -36.7239182389       -0.3071911148      -87.9666612449  TIP3      9184            0.0000000000
     79067     10544  TIP3      H2            -36.6248053038        0.3946245108      -86.7045626497  TIP3      9184            0.0000000000
     79068     10545  TIP3      OH2            -4.1079850878       11.9486744739      -87.3048475184  TIP3      9185            0.0000000000
     79069     10545  TIP3      H1             -3.9999782358       12.8874829944      -87.0592446154  TIP3      9185            0.0000000000
     79070     10545  TIP3      H2             -3.1948645203       11.6484678281      -87.2645840971  TIP3      9185            0.0000000000
     79071     10546  TIP3      OH2            -8.7015315172       14.7049719449      -86.5392032598  TIP3      9186            0.0000000000
     79072     10546  TIP3      H1             -8.3606569916       13.9470610329      -87.0347790594  TIP3      9186            0.0000000000
     79073     10546  TIP3      H2             -8.7078648780       14.3903485105      -85.6293138198  TIP3      9186            0.0000000000
     79074     10547  TIP3      OH2           -11.9855097634        0.6350648773      -87.1373825353  TIP3      9187            0.0000000000
     79075     10547  TIP3      H1            -12.2365024600        0.7096016889      -86.2069598827  TIP3      9187            0.0000000000
     79076     10547  TIP3      H2            -12.3018671334       -0.2311754989      -87.4133544658  TIP3      9187            0.0000000000
     79077     10548  TIP3      OH2           -20.6193074049        1.5748630591      -85.6010248341  TIP3      9188            0.0000000000
     79078     10548  TIP3      H1            -20.0790413760        2.2102887191      -86.1077675127  TIP3      9188            0.0000000000
     79079     10548  TIP3      H2            -21.2866767154        2.1708250974      -85.2063708731  TIP3      9188            0.0000000000
     79080     10549  TIP3      OH2           -19.8580717517        6.2121119371      -86.9975489420  TIP3      9189            0.0000000000
     79081     10549  TIP3      H1            -19.2822011264        6.8217181561      -86.5291988628  TIP3      9189            0.0000000000
     79082     10549  TIP3      H2            -20.7402044271        6.4661286090      -86.6596039763  TIP3      9189            0.0000000000
     79083     10550  TIP3      OH2            -3.5039253162       14.5736547291      -86.7057921325  TIP3      9190            0.0000000000
     79084     10550  TIP3      H1             -2.7466770194       15.1696004384      -86.7258495506  TIP3      9190            0.0000000000
     79085     10550  TIP3      H2             -4.1668961002       15.1853087798      -86.3288125871  TIP3      9190            0.0000000000
     79086     10551  TIP3      OH2           -13.7738636499       11.2686495918      -88.3208111824  TIP3      9191            0.0000000000
     79087     10551  TIP3      H1            -13.6663925681       10.5664773102      -88.9736261567  TIP3      9191            0.0000000000
     79088     10551  TIP3      H2            -14.1923233531       10.8600747691      -87.5654500212  TIP3      9191            0.0000000000
     79089     10552  TIP3      OH2           -17.9627061253       10.8228983614      -86.7010283091  TIP3      9192            0.0000000000
     79090     10552  TIP3      H1            -17.3216635861       11.3901949021      -86.2713416468  TIP3      9192            0.0000000000
     79091     10552  TIP3      H2            -17.4255943367       10.2494340698      -87.2694470530  TIP3      9192            0.0000000000
     79092     10553  TIP3      OH2           -19.5192514344        3.4144239092      -87.4560806073  TIP3      9193            0.0000000000
     79093     10553  TIP3      H1            -19.5638324887        4.3630077278      -87.2132154950  TIP3      9193            0.0000000000
     79094     10553  TIP3      H2            -20.4171646105        3.1857959931      -87.7127474758  TIP3      9193            0.0000000000
     79095     10554  TIP3      OH2           -11.8131241224       13.1444876154      -88.2334683985  TIP3      9194            0.0000000000
     79096     10554  TIP3      H1            -12.4699198544       12.4855315583      -87.9992541782  TIP3      9194            0.0000000000
     79097     10554  TIP3      H2            -11.0484076676       12.6609907457      -88.5500926411  TIP3      9194            0.0000000000
     79098     10555  TIP3      OH2            -7.2322766290       12.8954381339      -88.1187762837  TIP3      9195            0.0000000000
     79099     10555  TIP3      H1             -6.8783392744       12.1862899374      -87.5830401370  TIP3      9195            0.0000000000
     79100     10555  TIP3      H2             -6.4583745549       13.1719136304      -88.6425226382  TIP3      9195            0.0000000000
     79101     10556  TIP3      OH2           -16.2059101621        8.9033192192      -88.1355736244  TIP3      9196            0.0000000000
     79102     10556  TIP3      H1            -16.2816218511        8.0531455793      -87.6760276720  TIP3      9196            0.0000000000
     79103     10556  TIP3      H2            -15.6505501438        8.7149702869      -88.9001035073  TIP3      9196            0.0000000000
     79104     10557  TIP3      OH2            -4.6708974386        7.4330516057      -88.1495127077  TIP3      9197            0.0000000000
     79105     10557  TIP3      H1             -4.9566383605        7.0325805923      -88.9772638443  TIP3      9197            0.0000000000
     79106     10557  TIP3      H2             -4.6187617507        8.3773385590      -88.3695754397  TIP3      9197            0.0000000000
     79107     10558  TIP3      OH2            -5.9357669560        0.8828353287      -88.3434146885  TIP3      9198            0.0000000000
     79108     10558  TIP3      H1             -5.3104042752        0.5653581532      -87.6750708006  TIP3      9198            0.0000000000
     79109     10558  TIP3      H2             -6.7686222654        0.4918766716      -88.0938582836  TIP3      9198            0.0000000000
     79110     10559  TIP3      OH2            -3.7918660303       -0.2185708808      -86.6818500212  TIP3      9199            0.0000000000
     79111     10559  TIP3      H1             -3.4357086401       -0.9329712400      -87.2526188297  TIP3      9199            0.0000000000
     79112     10559  TIP3      H2             -3.1544438538        0.4911454510      -86.7361172555  TIP3      9199            0.0000000000
     79113     10560  TIP3      OH2           -20.3005763843       -2.1614055170      -85.7277539990  TIP3      9200            0.0000000000
     79114     10560  TIP3      H1            -19.7957496804       -1.5045243065      -86.2405495526  TIP3      9200            0.0000000000
     79115     10560  TIP3      H2            -20.8546788710       -1.5806233392      -85.2035416465  TIP3      9200            0.0000000000
     79116     10561  TIP3      OH2           -18.4260879669       -0.2252900501      -87.2251434962  TIP3      9201            0.0000000000
     79117     10561  TIP3      H1            -17.9073968663       -0.8382196237      -87.7696540625  TIP3      9201            0.0000000000
     79118     10561  TIP3      H2            -17.7941974604        0.0842849173      -86.5593153197  TIP3      9201            0.0000000000
     79119     10562  TIP3      OH2           -18.6584148441       14.4587806480      -87.6599559570  TIP3      9202            0.0000000000
     79120     10562  TIP3      H1            -18.8209496755       14.9445244700      -86.8495225305  TIP3      9202            0.0000000000
     79121     10562  TIP3      H2            -17.7440693157       14.1385268819      -87.5976449770  TIP3      9202            0.0000000000
     79122     10563  TIP3      OH2             7.5674491800        4.8772281153      -86.9858397505  TIP3      9203            0.0000000000
     79123     10563  TIP3      H1              8.3006259748        4.9471094690      -86.3623638877  TIP3      9203            0.0000000000
     79124     10563  TIP3      H2              7.9534425433        4.3171014008      -87.6695876461  TIP3      9203            0.0000000000
     79125     10564  TIP3      OH2             9.5834512486        1.3840046480      -86.5877656878  TIP3      9204            0.0000000000
     79126     10564  TIP3      H1              8.6423108398        1.4977918779      -86.6344934394  TIP3      9204            0.0000000000
     79127     10564  TIP3      H2              9.9046367916        2.1856753622      -86.1516083430  TIP3      9204            0.0000000000
     79128     10565  TIP3      OH2            15.1896112990        3.4052232773      -85.1252850156  TIP3      9205            0.0000000000
     79129     10565  TIP3      H1             14.6712488898        3.0240055562      -85.8390167340  TIP3      9205            0.0000000000
     79130     10565  TIP3      H2             15.3011983440        4.3188276496      -85.4120934499  TIP3      9205            0.0000000000
     79131     10566  TIP3      OH2             5.0807781824       11.2729121282      -88.3432346746  TIP3      9206            0.0000000000
     79132     10566  TIP3      H1              5.2169997349       10.5345177578      -88.9629680852  TIP3      9206            0.0000000000
     79133     10566  TIP3      H2              4.6221251984       10.8618383805      -87.5815398371  TIP3      9206            0.0000000000
     79134     10567  TIP3      OH2             3.9743207684       10.8359528493      -85.9533928789  TIP3      9207            0.0000000000
     79135     10567  TIP3      H1              4.0354377090       10.3143382629      -85.1427857308  TIP3      9207            0.0000000000
     79136     10567  TIP3      H2              3.9317883550       11.7327827607      -85.6222525897  TIP3      9207            0.0000000000
     79137     10568  TIP3      OH2             6.9247129783       13.1688045760      -88.2280700513  TIP3      9208            0.0000000000
     79138     10568  TIP3      H1              6.2857306793       12.4740181512      -88.0077500994  TIP3      9208            0.0000000000
     79139     10568  TIP3      H2              7.6658961064       12.6322594962      -88.5357994862  TIP3      9208            0.0000000000
     79140     10569  TIP3      OH2             2.5621515744        8.8686898446      -88.1917463388  TIP3      9209            0.0000000000
     79141     10569  TIP3      H1              2.6704950342        8.0775454459      -87.6578540362  TIP3      9209            0.0000000000
     79142     10569  TIP3      H2              3.2811788143        8.7784911456      -88.8407386631  TIP3      9209            0.0000000000
     79143     10570  TIP3      OH2             7.9364015593        9.9374373096      -88.4329271138  TIP3      9210            0.0000000000
     79144     10570  TIP3      H1              7.6147662876       10.0732387802      -87.5465302927  TIP3      9210            0.0000000000
     79145     10570  TIP3      H2              7.7296934333        8.9969210055      -88.6356235584  TIP3      9210            0.0000000000
     79146     10571  TIP3      OH2            33.5934124326       11.9231220210      -87.2293213662  TIP3      9211            0.0000000000
     79147     10571  TIP3      H1             33.7114142563       12.8548260941      -87.0574990983  TIP3      9211            0.0000000000
     79148     10571  TIP3      H2             34.5068411286       11.5895839012      -87.2341028531  TIP3      9211            0.0000000000
     79149     10572  TIP3      OH2            28.9595190031       14.7155102274      -86.5327880870  TIP3      9212            0.0000000000
     79150     10572  TIP3      H1             29.3630244275       13.9675333880      -87.0309985550  TIP3      9212            0.0000000000
     79151     10572  TIP3      H2             29.0125046176       14.3579606529      -85.6318589685  TIP3      9212            0.0000000000
     79152     10573  TIP3      OH2            22.6096171199        1.1926355766      -88.0113646681  TIP3      9213            0.0000000000
     79153     10573  TIP3      H1             22.1753043904        0.7254553455      -87.2666882093  TIP3      9213            0.0000000000
     79154     10573  TIP3      H2             21.8577502462        1.5342269083      -88.5116938701  TIP3      9213            0.0000000000
     79155     10574  TIP3      OH2            17.1188747054        1.5983609522      -85.5833262364  TIP3      9214            0.0000000000
     79156     10574  TIP3      H1             17.6367430234        2.2253262797      -86.1121355396  TIP3      9214            0.0000000000
     79157     10574  TIP3      H2             16.4489439668        2.1927454716      -85.1934184655  TIP3      9214            0.0000000000
     79158     10575  TIP3      OH2            21.2728067271        3.9251833889      -86.5997838064  TIP3      9215            0.0000000000
     79159     10575  TIP3      H1             20.6988960128        3.5851417452      -87.3113757271  TIP3      9215            0.0000000000
     79160     10575  TIP3      H2             22.0709657586        4.1600184410      -87.0931582010  TIP3      9215            0.0000000000
     79161     10576  TIP3      OH2            23.9310988907       11.3156660876      -88.3958541912  TIP3      9216            0.0000000000
     79162     10576  TIP3      H1             24.0646197523       10.5285684394      -88.9420275525  TIP3      9216            0.0000000000
     79163     10576  TIP3      H2             23.5453334741       10.8885614089      -87.5912038737  TIP3      9216            0.0000000000
     79164     10577  TIP3      OH2            22.6738460897       10.8361812406      -85.9311993352  TIP3      9217            0.0000000000
     79165     10577  TIP3      H1             23.0071586117       10.3219891343      -85.1785425280  TIP3      9217            0.0000000000
     79166     10577  TIP3      H2             22.8514513500       11.7439742127      -85.6191440021  TIP3      9217            0.0000000000
     79167     10578  TIP3      OH2            19.3191341511        8.0919827553      -85.3969674530  TIP3      9218            0.0000000000
     79168     10578  TIP3      H1             18.5492698317        8.4174071811      -84.9277318311  TIP3      9218            0.0000000000
     79169     10578  TIP3      H2             19.7667675520        8.8747869314      -85.7482174737  TIP3      9218            0.0000000000
     79170     10579  TIP3      OH2            25.5145499669       12.5507942020      -85.1266612067  TIP3      9219            0.0000000000
     79171     10579  TIP3      H1             24.6803745044       13.0341539901      -85.1612666046  TIP3      9219            0.0000000000
     79172     10579  TIP3      H2             26.0317780708       13.0166274104      -85.7942394560  TIP3      9219            0.0000000000
     79173     10580  TIP3      OH2            22.9264609600       13.5886072952      -85.2068460962  TIP3      9220            0.0000000000
     79174     10580  TIP3      H1             22.9949221776       14.4037644888      -85.7648374204  TIP3      9220            0.0000000000
     79175     10580  TIP3      H2             22.7100533023       13.9273837302      -84.3270965984  TIP3      9220            0.0000000000
     79176     10581  TIP3      OH2            21.5863819401        0.2624952396      -85.6552241868  TIP3      9221            0.0000000000
     79177     10581  TIP3      H1             21.4943294005        1.1355466028      -85.2418710705  TIP3      9221            0.0000000000
     79178     10581  TIP3      H2             22.4754628182        0.0304196162      -85.3596046220  TIP3      9221            0.0000000000
     79179     10582  TIP3      OH2            19.8260370133       10.7420281711      -86.5560466666  TIP3      9222            0.0000000000
     79180     10582  TIP3      H1             20.4997173554       11.3704468191      -86.2646171263  TIP3      9222            0.0000000000
     79181     10582  TIP3      H2             20.3422041662       10.2493897379      -87.2240390688  TIP3      9222            0.0000000000
     79182     10583  TIP3      OH2            18.1776837048        3.4038592403      -87.4689165653  TIP3      9223            0.0000000000
     79183     10583  TIP3      H1             18.1456813750        4.3383634134      -87.2376312705  TIP3      9223            0.0000000000
     79184     10583  TIP3      H2             17.2772548102        3.1734064443      -87.7036077974  TIP3      9223            0.0000000000
     79185     10584  TIP3      OH2            25.9331546372       13.1862043212      -88.2770974913  TIP3      9224            0.0000000000
     79186     10584  TIP3      H1             25.2590494334       12.5237123334      -87.9890036078  TIP3      9224            0.0000000000
     79187     10584  TIP3      H2             26.6792789658       12.6058394712      -88.4815334124  TIP3      9224            0.0000000000
     79188     10585  TIP3      OH2            30.5020568394       12.9213341273      -88.0422281583  TIP3      9225            0.0000000000
     79189     10585  TIP3      H1             30.8176692650       12.1294102624      -87.5817012060  TIP3      9225            0.0000000000
     79190     10585  TIP3      H2             31.2534088330       13.1567772233      -88.6118064584  TIP3      9225            0.0000000000
     79191     10586  TIP3      OH2            21.3692417569        8.8560592339      -88.2315725084  TIP3      9226            0.0000000000
     79192     10586  TIP3      H1             21.5336079493        8.1037995042      -87.6414915700  TIP3      9226            0.0000000000
     79193     10586  TIP3      H2             22.1402973842        8.7611327767      -88.8317593216  TIP3      9226            0.0000000000
     79194     10587  TIP3      OH2            22.5974979668        6.8194871593      -85.8768296111  TIP3      9227            0.0000000000
     79195     10587  TIP3      H1             22.0875989999        6.3518232806      -85.2045997133  TIP3      9227            0.0000000000
     79196     10587  TIP3      H2             22.8353716907        6.1628611294      -86.5450171451  TIP3      9227            0.0000000000
     79197     10588  TIP3      OH2            23.6712021895        5.0388884001      -87.6243148914  TIP3      9228            0.0000000000
     79198     10588  TIP3      H1             23.4728048655        4.9862424947      -88.5847371864  TIP3      9228            0.0000000000
     79199     10588  TIP3      H2             24.6225206735        5.1973371508      -87.6152547096  TIP3      9228            0.0000000000
     79200     10589  TIP3      OH2            23.5378226018       15.7898965006      -86.5691237929  TIP3      9229            0.0000000000
     79201     10589  TIP3      H1             24.4980358585       15.9191988970      -86.4736282025  TIP3      9229            0.0000000000
     79202     10589  TIP3      H2             23.3168682572       16.4125490274      -87.2630275561  TIP3      9229            0.0000000000
     79203     10590  TIP3      OH2            33.8935817534       -0.2578650336      -86.7154324663  TIP3      9230            0.0000000000
     79204     10590  TIP3      H1             34.2938671301       -0.9546252181      -87.2495962204  TIP3      9230            0.0000000000
     79205     10590  TIP3      H2             34.5409294950        0.4450837264      -86.7047080072  TIP3      9230            0.0000000000
     79206     10591  TIP3      OH2            17.4932938382       -2.1546256950      -85.6810536118  TIP3      9231            0.0000000000
     79207     10591  TIP3      H1             17.9073827480       -1.5057026623      -86.2568017907  TIP3      9231            0.0000000000
     79208     10591  TIP3      H2             16.8443209596       -1.6170750414      -85.2345938656  TIP3      9231            0.0000000000
     79209     10592  TIP3      OH2            19.3331029342       -0.1792956875      -87.2710422444  TIP3      9232            0.0000000000
     79210     10592  TIP3      H1             19.8157450066       -0.8819676914      -87.7313447868  TIP3      9232            0.0000000000
     79211     10592  TIP3      H2             19.9120354930        0.0357226631      -86.5145219393  TIP3      9232            0.0000000000
     79212     10593  TIP3      OH2            26.1886371590       15.0759969668      -86.3517433974  TIP3      9233            0.0000000000
     79213     10593  TIP3      H1             27.1075890203       15.2873600449      -86.5635349433  TIP3      9233            0.0000000000
     79214     10593  TIP3      H2             25.9813297555       14.5304538434      -87.1399494495  TIP3      9233            0.0000000000
     79215     10594  TIP3      OH2            19.1122358784       14.7394155517      -87.7408499637  TIP3      9234            0.0000000000
     79216     10594  TIP3      H1             18.8891707221       14.9683658581      -86.8316798757  TIP3      9234            0.0000000000
     79217     10594  TIP3      H2             19.9052810758       14.1800140168      -87.6245416690  TIP3      9234            0.0000000000
     79218     10595  TIP3      OH2            36.6959109844        6.1985610449      -86.9733108634  TIP3      9235            0.0000000000
     79219     10595  TIP3      H1             37.3205473823        6.8067271027      -86.5041330759  TIP3      9235            0.0000000000
     79220     10595  TIP3      H2             35.8481880722        6.5204096827      -86.6628192970  TIP3      9235            0.0000000000
     79221     10596  TIP3      OH2            38.0563538393        8.1076508152      -85.4958583705  TIP3      9236            0.0000000000
     79222     10596  TIP3      H1             37.4342224414        8.4331861007      -84.8500741252  TIP3      9236            0.0000000000
     79223     10596  TIP3      H2             38.6090911215        8.8704840582      -85.7092924524  TIP3      9236            0.0000000000
     79224     10597  TIP3      OH2            38.6968316288       10.7152286743      -86.5531141028  TIP3      9237            0.0000000000
     79225     10597  TIP3      H1             39.3219971921       11.3903981001      -86.2758887242  TIP3      9237            0.0000000000
     79226     10597  TIP3      H2             39.1870448666       10.2689462258      -87.2681505022  TIP3      9237            0.0000000000
     79227     10598  TIP3      OH2            40.1660588714        8.7555966956      -88.2491747023  TIP3      9238            0.0000000000
     79228     10598  TIP3      H1             40.3924051222        8.0760284374      -87.6082322784  TIP3      9238            0.0000000000
     79229     10598  TIP3      H2             40.9657410133        8.7648927972      -88.8035037744  TIP3      9238            0.0000000000
     79230     10599  TIP3      OH2            35.9999744624       10.4317626426      -87.1349505450  TIP3      9239            0.0000000000
     79231     10599  TIP3      H1             36.9395246731       10.4880605281      -86.8759970936  TIP3      9239            0.0000000000
     79232     10599  TIP3      H2             36.0080730458        9.7139305422      -87.7990982018  TIP3      9239            0.0000000000
     79233     10600  TIP3      OH2            38.0461780406       14.6946114943      -87.7726658462  TIP3      9240            0.0000000000
     79234     10600  TIP3      H1             37.7523904212       14.9934255266      -86.8949926247  TIP3      9240            0.0000000000
     79235     10600  TIP3      H2             38.7989112477       14.1346817325      -87.5708557970  TIP3      9240            0.0000000000
     79236     10601  TIP3      OH2           -27.8310622117       24.6601944671      -85.4604956750  TIP3      9241            0.0000000000
     79237     10601  TIP3      H1            -27.3077973886       24.8650509203      -84.6919580000  TIP3      9241            0.0000000000
     79238     10601  TIP3      H2            -27.4248609657       25.1610505406      -86.1877887105  TIP3      9241            0.0000000000
     79239     10602  TIP3      OH2           -27.5686347844       33.5579005741      -86.5612078659  TIP3      9242            0.0000000000
     79240     10602  TIP3      H1            -27.1468495936       32.8052734875      -87.0321352712  TIP3      9242            0.0000000000
     79241     10602  TIP3      H2            -27.5407701929       33.2458376172      -85.6439135433  TIP3      9242            0.0000000000
     79242     10603  TIP3      OH2           -26.3980116953       25.7050859437      -87.7099232928  TIP3      9243            0.0000000000
     79243     10603  TIP3      H1            -26.4131688724       25.4877718981      -88.6726073798  TIP3      9243            0.0000000000
     79244     10603  TIP3      H2            -25.5322289609       26.1242917600      -87.6240281095  TIP3      9243            0.0000000000
     79245     10604  TIP3      OH2           -30.8239737576       19.5831467196      -87.1277481940  TIP3      9244            0.0000000000
     79246     10604  TIP3      H1            -31.0432593588       19.6121946654      -86.1924571155  TIP3      9244            0.0000000000
     79247     10604  TIP3      H2            -31.1261963195       18.7179404666      -87.4176800153  TIP3      9244            0.0000000000
     79248     10605  TIP3      OH2           -33.9172841083       19.9778091026      -88.0610413123  TIP3      9245            0.0000000000
     79249     10605  TIP3      H1            -34.3661166366       19.5805911035      -87.2790959085  TIP3      9245            0.0000000000
     79250     10605  TIP3      H2            -34.6520342520       20.3688688426      -88.5356573858  TIP3      9245            0.0000000000
     79251     10606  TIP3      OH2           -27.3799121098       22.0615152314      -84.8525331018  TIP3      9246            0.0000000000
     79252     10606  TIP3      H1            -26.4767221203       21.8929883217      -84.5799815406  TIP3      9246            0.0000000000
     79253     10606  TIP3      H2            -27.3636436916       22.8523027998      -85.4187674970  TIP3      9246            0.0000000000
     79254     10607  TIP3      OH2           -29.8837097387       28.8074509556      -85.7206759846  TIP3      9247            0.0000000000
     79255     10607  TIP3      H1            -30.1674441817       29.6443040100      -85.2945589085  TIP3      9247            0.0000000000
     79256     10607  TIP3      H2            -30.5596506023       28.1857269160      -85.4241986111  TIP3      9247            0.0000000000
     79257     10608  TIP3      OH2           -22.4919628748       22.2499816590      -85.0569280215  TIP3      9248            0.0000000000
     79258     10608  TIP3      H1            -23.0291504921       21.8971623952      -85.7929212557  TIP3      9248            0.0000000000
     79259     10608  TIP3      H2            -22.3880540310       23.1576460261      -85.4085883727  TIP3      9248            0.0000000000
     79260     10609  TIP3      OH2           -26.7647326665       29.0642493967      -86.8676265642  TIP3      9249            0.0000000000
     79261     10609  TIP3      H1            -26.4737779701       28.7047506310      -86.0234872398  TIP3      9249            0.0000000000
     79262     10609  TIP3      H2            -27.7299111443       28.9405119225      -86.7778227727  TIP3      9249            0.0000000000
     79263     10610  TIP3      OH2           -31.0052951692       31.4132509425      -85.1669920010  TIP3      9250            0.0000000000
     79264     10610  TIP3      H1            -31.8798389556       31.8719028319      -85.1714774985  TIP3      9250            0.0000000000
     79265     10610  TIP3      H2            -30.5216787455       31.9313579942      -85.8181786249  TIP3      9250            0.0000000000
     79266     10611  TIP3      OH2           -33.5625537723       32.4408004217      -85.1839266285  TIP3      9251            0.0000000000
     79267     10611  TIP3      H1            -33.5972337053       33.2386633883      -85.7603130889  TIP3      9251            0.0000000000
     79268     10611  TIP3      H2            -33.9124005903       32.7869889152      -84.3542827230  TIP3      9251            0.0000000000
     79269     10612  TIP3      OH2           -34.9359468557       19.2091831080      -85.7237507229  TIP3      9252            0.0000000000
     79270     10612  TIP3      H1            -35.0733929939       19.9809282683      -85.1587295493  TIP3      9252            0.0000000000
     79271     10612  TIP3      H2            -34.1180504065       18.8549009737      -85.3391321228  TIP3      9252            0.0000000000
     79272     10613  TIP3      OH2           -30.6695049797       32.0181575025      -88.3129996501  TIP3      9253            0.0000000000
     79273     10613  TIP3      H1            -31.2832189837       31.3745168272      -87.9360089385  TIP3      9253            0.0000000000
     79274     10613  TIP3      H2            -29.9110303996       31.4417142702      -88.5112298627  TIP3      9253            0.0000000000
     79275     10614  TIP3      OH2           -26.1030682511       31.7768427735      -88.0464554376  TIP3      9254            0.0000000000
     79276     10614  TIP3      H1            -25.7999353173       31.0049023024      -87.5622341487  TIP3      9254            0.0000000000
     79277     10614  TIP3      H2            -25.3453432280       31.9974144808      -88.6422383075  TIP3      9254            0.0000000000
     79278     10615  TIP3      OH2           -29.7645782621       28.8342176018      -88.4498229483  TIP3      9255            0.0000000000
     79279     10615  TIP3      H1            -29.9683722204       28.9085979893      -87.4975704973  TIP3      9255            0.0000000000
     79280     10615  TIP3      H2            -29.9255049263       27.8710194702      -88.6052590131  TIP3      9255            0.0000000000
     79281     10616  TIP3      OH2           -23.5522505082       26.3008836474      -88.1547277507  TIP3      9256            0.0000000000
     79282     10616  TIP3      H1            -23.7390645502       25.8896894937      -89.0125056136  TIP3      9256            0.0000000000
     79283     10616  TIP3      H2            -23.4499104052       27.2460034861      -88.4089470312  TIP3      9256            0.0000000000
     79284     10617  TIP3      OH2           -32.9959115543       34.6880337346      -86.5222781877  TIP3      9257            0.0000000000
     79285     10617  TIP3      H1            -32.0262814380       34.7862601038      -86.5069955246  TIP3      9257            0.0000000000
     79286     10617  TIP3      H2            -33.2271829199       35.2974072039      -87.2392522067  TIP3      9257            0.0000000000
     79287     10618  TIP3      OH2           -39.3914674782       29.3820923817      -87.1532231307  TIP3      9258            0.0000000000
     79288     10618  TIP3      H1            -38.4854086911       29.3317174218      -86.8120652644  TIP3      9258            0.0000000000
     79289     10618  TIP3      H2            -39.3600407903       28.6188654804      -87.7632955363  TIP3      9258            0.0000000000
     79290     10619  TIP3      OH2           -22.4412432128       25.0412164588      -85.9424925142  TIP3      9259            0.0000000000
     79291     10619  TIP3      H1            -22.8546964477       25.4605668941      -86.7306542942  TIP3      9259            0.0000000000
     79292     10619  TIP3      H2            -22.3761022292       25.8003294282      -85.3530084608  TIP3      9259            0.0000000000
     79293     10620  TIP3      OH2           -23.9817366492       22.3688867578      -87.4364402182  TIP3      9260            0.0000000000
     79294     10620  TIP3      H1            -23.9549319546       23.0189168787      -88.1507675289  TIP3      9260            0.0000000000
     79295     10620  TIP3      H2            -24.2191193301       21.5299671632      -87.8946892974  TIP3      9260            0.0000000000
     79296     10621  TIP3      OH2           -24.8047822857       19.8180003929      -88.3181528976  TIP3      9261            0.0000000000
     79297     10621  TIP3      H1            -24.2011441672       19.3898507086      -87.6719621708  TIP3      9261            0.0000000000
     79298     10621  TIP3      H2            -25.6193770674       19.3440571847      -88.0907509028  TIP3      9261            0.0000000000
     79299     10622  TIP3      OH2           -22.7314602057       18.7080568065      -86.7627455456  TIP3      9262            0.0000000000
     79300     10622  TIP3      H1            -22.3343119294       17.9221607192      -87.1986283411  TIP3      9262            0.0000000000
     79301     10622  TIP3      H2            -21.9654213475       19.2870173021      -86.6973397627  TIP3      9262            0.0000000000
     79302     10623  TIP3      OH2           -30.3763427223       33.8687473897      -86.3473460993  TIP3      9263            0.0000000000
     79303     10623  TIP3      H1            -29.4712485867       34.1563335002      -86.5469279144  TIP3      9263            0.0000000000
     79304     10623  TIP3      H2            -30.5730827315       33.3715232187      -87.1681882202  TIP3      9263            0.0000000000
     79305     10624  TIP3      OH2           -37.4863565360       33.4715547282      -87.7273832093  TIP3      9264            0.0000000000
     79306     10624  TIP3      H1            -37.6325404770       33.9106198666      -86.8623492055  TIP3      9264            0.0000000000
     79307     10624  TIP3      H2            -36.6245341653       33.0200870923      -87.5800110018  TIP3      9264            0.0000000000
     79308     10625  TIP3      OH2           -11.3090610882       23.6934468038      -86.9873090978  TIP3      9265            0.0000000000
     79309     10625  TIP3      H1            -10.5496884292       23.8631115190      -86.3927643358  TIP3      9265            0.0000000000
     79310     10625  TIP3      H2            -10.9038748652       23.1265864640      -87.6501038217  TIP3      9265            0.0000000000
     79311     10626  TIP3      OH2            -9.0099405658       24.6298430661      -85.4572395416  TIP3      9266            0.0000000000
     79312     10626  TIP3      H1             -8.4595862378       24.8313364945      -84.6967154222  TIP3      9266            0.0000000000
     79313     10626  TIP3      H2             -8.5996537063       25.1440264446      -86.1749908133  TIP3      9266            0.0000000000
     79314     10627  TIP3      OH2            -5.2857157276       16.4389794648      -85.5460633474  TIP3      9267            0.0000000000
     79315     10627  TIP3      H1             -6.2255900384       16.5144384191      -85.3335883225  TIP3      9267            0.0000000000
     79316     10627  TIP3      H2             -5.1150118207       17.2749450961      -85.9809192264  TIP3      9267            0.0000000000
     79317     10628  TIP3      OH2            -7.4247732224       25.5567388797      -87.7018089134  TIP3      9268            0.0000000000
     79318     10628  TIP3      H1             -7.6049604147       25.5661780431      -88.6696434359  TIP3      9268            0.0000000000
     79319     10628  TIP3      H2             -6.7079995459       26.1898893472      -87.5836175915  TIP3      9268            0.0000000000
     79320     10629  TIP3      OH2           -11.0622677845       28.8270204917      -85.7252722843  TIP3      9269            0.0000000000
     79321     10629  TIP3      H1            -11.3211068441       29.6584685760      -85.2855762831  TIP3      9269            0.0000000000
     79322     10629  TIP3      H2            -11.7129841872       28.1922297773      -85.4234883578  TIP3      9269            0.0000000000
     79323     10630  TIP3      OH2            -3.6573401521       22.2484590129      -85.0812973203  TIP3      9270            0.0000000000
     79324     10630  TIP3      H1             -4.2088525126       21.9000307400      -85.8038841676  TIP3      9270            0.0000000000
     79325     10630  TIP3      H2             -3.5251387959       23.1661007896      -85.3923674382  TIP3      9270            0.0000000000
     79326     10631  TIP3      OH2           -12.1506720935       31.4174515028      -85.1753671260  TIP3      9271            0.0000000000
     79327     10631  TIP3      H1            -12.9776980492       31.9181356657      -85.1402712690  TIP3      9271            0.0000000000
     79328     10631  TIP3      H2            -11.6304675138       31.9309191499      -85.8121488787  TIP3      9271            0.0000000000
     79329     10632  TIP3      OH2           -19.5343742980       22.2679497435      -87.5275963744  TIP3      9272            0.0000000000
     79330     10632  TIP3      H1            -19.5696841673       23.1700869706      -87.1889695017  TIP3      9272            0.0000000000
     79331     10632  TIP3      H2            -20.4569283380       22.0370783320      -87.6427015439  TIP3      9272            0.0000000000
     79332     10633  TIP3      OH2           -11.8139536043       32.0070336432      -88.3282658011  TIP3      9273            0.0000000000
     79333     10633  TIP3      H1            -12.4428172118       31.3700285345      -87.9586967926  TIP3      9273            0.0000000000
     79334     10633  TIP3      H2            -11.0578143556       31.4134002826      -88.4738358662  TIP3      9273            0.0000000000
     79335     10634  TIP3      OH2           -16.2734808791       27.7276080611      -88.1843660230  TIP3      9274            0.0000000000
     79336     10634  TIP3      H1            -16.1594528610       26.9268675634      -87.6586288665  TIP3      9274            0.0000000000
     79337     10634  TIP3      H2            -15.5834440188       27.6149008439      -88.8617137624  TIP3      9274            0.0000000000
     79338     10635  TIP3      OH2           -10.9437769598       28.8335949709      -88.4896969528  TIP3      9275            0.0000000000
     79339     10635  TIP3      H1            -11.0984909973       28.8942468659      -87.5324728042  TIP3      9275            0.0000000000
     79340     10635  TIP3      H2            -11.1045885444       27.8726917899      -88.6277632666  TIP3      9275            0.0000000000
     79341     10636  TIP3      OH2           -15.1218187122       25.7148230604      -85.8975834635  TIP3      9276            0.0000000000
     79342     10636  TIP3      H1            -15.5894167306       25.2364240609      -85.2067744830  TIP3      9276            0.0000000000
     79343     10636  TIP3      H2            -14.8479141239       25.0416887887      -86.5225653298  TIP3      9276            0.0000000000
     79344     10637  TIP3      OH2            -4.7412449326       26.2798663846      -88.1788578510  TIP3      9277            0.0000000000
     79345     10637  TIP3      H1             -4.8924981868       25.9700636327      -89.0772233562  TIP3      9277            0.0000000000
     79346     10637  TIP3      H2             -4.5517601358       27.2225867892      -88.3457070757  TIP3      9277            0.0000000000
     79347     10638  TIP3      OH2            -3.5769375011       25.0941488038      -85.9854625074  TIP3      9278            0.0000000000
     79348     10638  TIP3      H1             -4.0630053242       25.5106381935      -86.7137916286  TIP3      9278            0.0000000000
     79349     10638  TIP3      H2             -3.5556971858       25.7750689658      -85.3029604863  TIP3      9278            0.0000000000
     79350     10639  TIP3      OH2            -5.1920556858       22.3553256285      -87.4067246928  TIP3      9279            0.0000000000
     79351     10639  TIP3      H1             -4.9268533912       22.9553575720      -88.0600743990  TIP3      9279            0.0000000000
     79352     10639  TIP3      H2             -5.3241741716       21.4943128055      -87.8635780921  TIP3      9279            0.0000000000
     79353     10640  TIP3      OH2            -5.9354457296       19.8174053540      -88.2992884987  TIP3      9280            0.0000000000
     79354     10640  TIP3      H1             -5.3400434352       19.3956292679      -87.6738143578  TIP3      9280            0.0000000000
     79355     10640  TIP3      H2             -6.7485346701       19.3412209802      -88.0921049813  TIP3      9280            0.0000000000
     79356     10641  TIP3      OH2           -11.4644412942       33.8019248931      -86.3145781893  TIP3      9281            0.0000000000
     79357     10641  TIP3      H1            -10.6285942042       34.2207259272      -86.5338325668  TIP3      9281            0.0000000000
     79358     10641  TIP3      H2            -11.7389164873       33.4287007028      -87.1747208295  TIP3      9281            0.0000000000
     79359     10642  TIP3      OH2             7.5315231669       23.7384490080      -87.0109674796  TIP3      9282            0.0000000000
     79360     10642  TIP3      H1              8.2889607472       23.8075125183      -86.4180727452  TIP3      9282            0.0000000000
     79361     10642  TIP3      H2              7.9186742829       23.1440972995      -87.6744174609  TIP3      9282            0.0000000000
     79362     10643  TIP3      OH2            13.5499217536       16.4446017089      -85.5636188265  TIP3      9283            0.0000000000
     79363     10643  TIP3      H1             12.6270207399       16.5212547524      -85.3124082079  TIP3      9283            0.0000000000
     79364     10643  TIP3      H2             13.7708981967       17.2870258570      -85.9798408413  TIP3      9283            0.0000000000
     79365     10644  TIP3      OH2             6.8882751492       19.5908888883      -87.1548732939  TIP3      9284            0.0000000000
     79366     10644  TIP3      H1              6.6093944601       19.6147276148      -86.2254782853  TIP3      9284            0.0000000000
     79367     10644  TIP3      H2              6.6210163378       18.6982264089      -87.4056397906  TIP3      9284            0.0000000000
     79368     10645  TIP3      OH2            -1.7425301527       20.4250193462      -85.5757868085  TIP3      9285            0.0000000000
     79369     10645  TIP3      H1             -1.2597022238       21.1013142108      -86.0674238505  TIP3      9285            0.0000000000
     79370     10645  TIP3      H2             -2.4014111335       21.0240762142      -85.1679101765  TIP3      9285            0.0000000000
     79371     10646  TIP3      OH2             9.5977625799       20.1314952151      -86.5207545406  TIP3      9286            0.0000000000
     79372     10646  TIP3      H1              8.6470027438       20.3020135199      -86.6440787553  TIP3      9286            0.0000000000
     79373     10646  TIP3      H2              9.9245655844       20.9848867983      -86.1748189383  TIP3      9286            0.0000000000
     79374     10647  TIP3      OH2            10.3068392399       22.1856691424      -84.8377661997  TIP3      9287            0.0000000000
     79375     10647  TIP3      H1             11.2073653674       21.9183371637      -84.5795349791  TIP3      9287            0.0000000000
     79376     10647  TIP3      H2             10.4590865602       22.8874040290      -85.4708447629  TIP3      9287            0.0000000000
     79377     10648  TIP3      OH2            15.1499847887       22.2667176910      -85.0531884484  TIP3      9288            0.0000000000
     79378     10648  TIP3      H1             14.6705159548       21.9031150335      -85.8212383750  TIP3      9288            0.0000000000
     79379     10648  TIP3      H2             15.3420760913       23.1604580650      -85.4103632708  TIP3      9288            0.0000000000
     79380     10649  TIP3      OH2            -1.0304457775       25.0656837968      -87.0081898551  TIP3      9289            0.0000000000
     79381     10649  TIP3      H1             -0.4235543425       25.6429851589      -86.4971665461  TIP3      9289            0.0000000000
     79382     10649  TIP3      H2             -1.8869768419       25.3283097391      -86.6477333827  TIP3      9289            0.0000000000
     79383     10650  TIP3      OH2            15.4114240582       33.5077362337      -86.6587345620  TIP3      9290            0.0000000000
     79384     10650  TIP3      H1             16.1534457761       34.1144227485      -86.7698800010  TIP3      9290            0.0000000000
     79385     10650  TIP3      H2             14.7180051527       34.0868414775      -86.3278524916  TIP3      9290            0.0000000000
     79386     10651  TIP3      OH2             0.3830092294       26.9514942651      -85.4537586851  TIP3      9291            0.0000000000
     79387     10651  TIP3      H1             -0.2661398389       27.3294684984      -84.8592327006  TIP3      9291            0.0000000000
     79388     10651  TIP3      H2              0.9139864762       27.7276518005      -85.7203818276  TIP3      9291            0.0000000000
     79389     10652  TIP3      OH2             3.9438873584       32.4772318261      -85.1964230421  TIP3      9292            0.0000000000
     79390     10652  TIP3      H1              4.1501876189       33.2366996018      -85.7660739488  TIP3      9292            0.0000000000
     79391     10652  TIP3      H2              3.8195287932       32.8220833655      -84.3218314100  TIP3      9292            0.0000000000
     79392     10653  TIP3      OH2             1.0445242239       29.5392076194      -86.5082546289  TIP3      9293            0.0000000000
     79393     10653  TIP3      H1              1.6292798869       30.2654091176      -86.2526986413  TIP3      9293            0.0000000000
     79394     10653  TIP3      H2              1.5215600951       29.1221762430      -87.2444168438  TIP3      9293            0.0000000000
     79395     10654  TIP3      OH2             2.4928818186       27.6443654896      -88.2376697577  TIP3      9294            0.0000000000
     79396     10654  TIP3      H1              2.7295650486       26.9228884771      -87.6337554762  TIP3      9294            0.0000000000
     79397     10654  TIP3      H2              3.2822555853       27.6097236267      -88.8259626783  TIP3      9294            0.0000000000
     79398     10655  TIP3      OH2             3.7028993963       25.7030712572      -85.9158324681  TIP3      9295            0.0000000000
     79399     10655  TIP3      H1              3.2878386325       25.2403564665      -85.1768145874  TIP3      9295            0.0000000000
     79400     10655  TIP3      H2              3.9995655460       25.0065016955      -86.5256778675  TIP3      9295            0.0000000000
     79401     10656  TIP3      OH2             4.8028633368       23.8840382508      -87.6246845984  TIP3      9296            0.0000000000
     79402     10656  TIP3      H1              4.6670948419       23.8565403448      -88.5901003782  TIP3      9296            0.0000000000
     79403     10656  TIP3      H2              5.7662700113       24.0282399677      -87.5609619008  TIP3      9296            0.0000000000
     79404     10657  TIP3      OH2             4.7077585415       34.7230594478      -86.5455454504  TIP3      9297            0.0000000000
     79405     10657  TIP3      H1              5.6718317295       34.7540300838      -86.5310782654  TIP3      9297            0.0000000000
     79406     10657  TIP3      H2              4.4876211660       35.3114418190      -87.2816134236  TIP3      9297            0.0000000000
     79407     10658  TIP3      OH2            15.2875510514       25.1154850971      -85.9642494819  TIP3      9298            0.0000000000
     79408     10658  TIP3      H1             14.8338595021       25.5068261343      -86.7153935237  TIP3      9298            0.0000000000
     79409     10658  TIP3      H2             15.3413577142       25.8270884342      -85.3128991403  TIP3      9298            0.0000000000
     79410     10659  TIP3      OH2            13.6736921995       22.3611761025      -87.4245982859  TIP3      9299            0.0000000000
     79411     10659  TIP3      H1             13.7817315168       23.0001616522      -88.1370126869  TIP3      9299            0.0000000000
     79412     10659  TIP3      H2             13.5224403198       21.5252106165      -87.9085156977  TIP3      9299            0.0000000000
     79413     10660  TIP3      OH2            12.9368297199       19.7992902245      -88.3184155752  TIP3      9300            0.0000000000
     79414     10660  TIP3      H1             13.5350460258       19.3996307259      -87.6591765403  TIP3      9300            0.0000000000
     79415     10660  TIP3      H2             12.0964766821       19.3699795626      -88.0999330099  TIP3      9300            0.0000000000
     79416     10661  TIP3      OH2            15.0172090928       18.6695277870      -86.7599240428  TIP3      9301            0.0000000000
     79417     10661  TIP3      H1             15.4449131249       17.9200334148      -87.2269518603  TIP3      9301            0.0000000000
     79418     10661  TIP3      H2             15.7274458094       19.3206657643      -86.7007063121  TIP3      9301            0.0000000000
     79419     10662  TIP3      OH2            34.1715612611       32.6116546480      -86.9234427948  TIP3      9302            0.0000000000
     79420     10662  TIP3      H1             34.8678566948       33.2806695381      -87.0420770329  TIP3      9302            0.0000000000
     79421     10662  TIP3      H2             33.6030970798       33.3066120657      -86.4424855488  TIP3      9302            0.0000000000
     79422     10663  TIP3      OH2            23.8718164458       30.1807748535      -88.4390187668  TIP3      9303            0.0000000000
     79423     10663  TIP3      H1             24.0593967681       29.3869509355      -88.9538720062  TIP3      9303            0.0000000000
     79424     10663  TIP3      H2             23.5560621695       29.8213506745      -87.5850863829  TIP3      9303            0.0000000000
     79425     10664  TIP3      OH2            22.8497391809       29.7153030690      -85.9593584969  TIP3      9304            0.0000000000
     79426     10664  TIP3      H1             22.9295581490       29.2504521766      -85.1242780514  TIP3      9304            0.0000000000
     79427     10664  TIP3      H2             22.8253311829       30.6489846683      -85.6466539314  TIP3      9304            0.0000000000
     79428     10665  TIP3      OH2            22.8304648441       32.4422843651      -85.2182139888  TIP3      9305            0.0000000000
     79429     10665  TIP3      H1             23.0629160873       33.2413228707      -85.7155047186  TIP3      9305            0.0000000000
     79430     10665  TIP3      H2             22.7070433124       32.7615971952      -84.3171249882  TIP3      9305            0.0000000000
     79431     10666  TIP3      OH2            19.7939067573       29.6873975571      -86.6173262668  TIP3      9306            0.0000000000
     79432     10666  TIP3      H1             20.4806467616       30.2532335345      -86.2685688386  TIP3      9306            0.0000000000
     79433     10666  TIP3      H2             20.3102051359       29.1239415113      -87.2121514726  TIP3      9306            0.0000000000
     79434     10667  TIP3      OH2            21.3990900855       27.6836599937      -88.2782969149  TIP3      9307            0.0000000000
     79435     10667  TIP3      H1             21.4859149777       26.9614888049      -87.6630226610  TIP3      9307            0.0000000000
     79436     10667  TIP3      H2             22.1448148778       27.6008938453      -88.8956270585  TIP3      9307            0.0000000000
     79437     10668  TIP3      OH2            40.1098421749       22.8618763005      -86.6405195058  TIP3      9308            0.0000000000
     79438     10668  TIP3      H1             39.5643674880       22.4205889762      -87.3169804388  TIP3      9308            0.0000000000
     79439     10668  TIP3      H2             40.9410258845       22.9562107875      -87.0885968725  TIP3      9308            0.0000000000
     79440     10669  TIP3      OH2            38.1035885726       26.9325584042      -85.3780655001  TIP3      9309            0.0000000000
     79441     10669  TIP3      H1             37.4077735842       27.2138602265      -84.7702216069  TIP3      9309            0.0000000000
     79442     10669  TIP3      H2             38.6419122122       27.7217155437      -85.4292556787  TIP3      9309            0.0000000000
     79443     10670  TIP3      OH2           -40.9531567243       19.1495594200      -85.6307234495  TIP3      9310            0.0000000000
     79444     10670  TIP3      H1            -41.0776335177       20.0223115104      -85.2445341935  TIP3      9310            0.0000000000
     79445     10670  TIP3      H2            -40.0730485653       18.8863710827      -85.3576035310  TIP3      9310            0.0000000000
     79446     10671  TIP3      OH2            38.7468026242       29.6900473335      -86.5798369360  TIP3      9311            0.0000000000
     79447     10671  TIP3      H1             39.3040948468       30.3657310713      -86.1675564233  TIP3      9311            0.0000000000
     79448     10671  TIP3      H2             39.2880869860       29.3394137572      -87.2893501709  TIP3      9311            0.0000000000
     79449     10672  TIP3      OH2            40.0923138213       27.7356692076      -88.1171157366  TIP3      9312            0.0000000000
     79450     10672  TIP3      H1             40.3681133420       26.9377880165      -87.6292345500  TIP3      9312            0.0000000000
     79451     10672  TIP3      H2             40.8565332728       27.6564655765      -88.7303281998  TIP3      9312            0.0000000000
     79452     10673  TIP3      OH2            35.9923769499       29.2281325358      -87.0981452847  TIP3      9313            0.0000000000
     79453     10673  TIP3      H1             36.8951937782       29.4398209303      -86.8604786758  TIP3      9313            0.0000000000
     79454     10673  TIP3      H2             35.9763257717       28.6073543560      -87.8495503764  TIP3      9313            0.0000000000
     79455     10674  TIP3      OH2            38.1675604736       18.6722273963      -87.2743044287  TIP3      9314            0.0000000000
     79456     10674  TIP3      H1             38.6695163560       17.9949072446      -87.7454822069  TIP3      9314            0.0000000000
     79457     10674  TIP3      H2             38.7874695516       18.9019816789      -86.5569050259  TIP3      9314            0.0000000000
     79458     10675  TIP3      OH2            38.1447308909       33.5648842374      -87.6791564404  TIP3      9315            0.0000000000
     79459     10675  TIP3      H1             37.7851776792       33.7244807966      -86.7956201464  TIP3      9315            0.0000000000
     79460     10675  TIP3      H2             38.8511770969       32.9664727011      -87.5057846403  TIP3      9315            0.0000000000
     79461     10676  TIP3      OH2           -30.9538603601       38.3623673376      -87.2504762102  TIP3      9316            0.0000000000
     79462     10676  TIP3      H1            -31.0647943300       38.4491315744      -86.2905872991  TIP3      9316            0.0000000000
     79463     10676  TIP3      H2            -31.1741514799       37.4616200416      -87.4754644507  TIP3      9316            0.0000000000
     79464     10677  TIP3      OH2           -33.9526659031       38.8903737854      -88.0350881952  TIP3      9317            0.0000000000
     79465     10677  TIP3      H1            -34.3977280480       38.4664481697      -87.2759654886  TIP3      9317            0.0000000000
     79466     10677  TIP3      H2            -34.7022339439       39.2476743127      -88.5201212002  TIP3      9317            0.0000000000
     79467     10678  TIP3      OH2           -38.8428054988       39.4400947093      -85.3417696208  TIP3      9318            0.0000000000
     79468     10678  TIP3      H1            -38.7690097740       39.9722799914      -86.1491975458  TIP3      9318            0.0000000000
     79469     10678  TIP3      H2            -39.7012250657       39.8702913655      -85.1710602586  TIP3      9318            0.0000000000
     79470     10679  TIP3      OH2           -27.5401973723       38.7537270246      -86.7090851311  TIP3      9319            0.0000000000
     79471     10679  TIP3      H1            -28.5133741487       38.7413008442      -86.9196791657  TIP3      9319            0.0000000000
     79472     10679  TIP3      H2            -27.5003771141       39.6070811827      -86.2632881500  TIP3      9319            0.0000000000
     79473     10680  TIP3      OH2           -34.9813483477       37.9960511980      -85.6382765422  TIP3      9320            0.0000000000
     79474     10680  TIP3      H1            -35.0725689324       38.8693096312      -85.2255656893  TIP3      9320            0.0000000000
     79475     10680  TIP3      H2            -34.1010239568       37.7256565302      -85.3544333038  TIP3      9320            0.0000000000
     79476     10681  TIP3      OH2           -24.8746273884       38.4060347730      -88.7422338506  TIP3      9321            0.0000000000
     79477     10681  TIP3      H1            -24.3159218036       38.2899846865      -87.9749607086  TIP3      9321            0.0000000000
     79478     10681  TIP3      H2            -25.7219126933       38.2906470545      -88.2812402447  TIP3      9321            0.0000000000
     79479     10682  TIP3      OH2           -21.7393045431       37.1008635866      -86.7694635718  TIP3      9322            0.0000000000
     79480     10682  TIP3      H1            -22.3621470590       36.6095003198      -87.3610979993  TIP3      9322            0.0000000000
     79481     10682  TIP3      H2            -22.1379819949       37.9723476351      -86.5782448807  TIP3      9322            0.0000000000
     79482     10683  TIP3      OH2           -38.3121692769       35.9017641882      -85.9654577455  TIP3      9323            0.0000000000
     79483     10683  TIP3      H1            -38.5673091727       36.5050910136      -86.6747936136  TIP3      9323            0.0000000000
     79484     10683  TIP3      H2            -39.0428598878       36.1426512601      -85.3597771834  TIP3      9323            0.0000000000
     79485     10684  TIP3      OH2           -37.0950471321       37.6767242961      -87.3844681667  TIP3      9324            0.0000000000
     79486     10684  TIP3      H1            -36.7892101263       36.8252928598      -87.7336844358  TIP3      9324            0.0000000000
     79487     10684  TIP3      H2            -36.6485633632       37.7245463388      -86.5230825045  TIP3      9324            0.0000000000
     79488     10685  TIP3      OH2           -11.9281719981       38.4399098703      -87.0638275961  TIP3      9325            0.0000000000
     79489     10685  TIP3      H1            -12.2841368691       38.4137612920      -86.1743899182  TIP3      9325            0.0000000000
     79490     10685  TIP3      H2            -12.2723671489       37.5993880417      -87.4272670649  TIP3      9325            0.0000000000
     79491     10686  TIP3      OH2           -20.6636793853       39.3610167878      -85.6605274113  TIP3      9326            0.0000000000
     79492     10686  TIP3      H1            -20.0810222822       40.0240444144      -86.0371836202  TIP3      9326            0.0000000000
     79493     10686  TIP3      H2            -21.2732187240       39.9221994451      -85.1514890938  TIP3      9326            0.0000000000
     79494     10687  TIP3      OH2            -9.2219659570       39.0406582514      -86.5100143378  TIP3      9327            0.0000000000
     79495     10687  TIP3      H1            -10.1889011179       39.1268981944      -86.6363460420  TIP3      9327            0.0000000000
     79496     10687  TIP3      H2             -8.9512721862       39.8901109794      -86.1633537395  TIP3      9327            0.0000000000
     79497     10688  TIP3      OH2            -5.9336148476       38.6963819045      -88.2444615582  TIP3      9328            0.0000000000
     79498     10688  TIP3      H1             -5.3294694258       38.2288179122      -87.6748551547  TIP3      9328            0.0000000000
     79499     10688  TIP3      H2             -6.7753149189       38.2227315194      -88.1517610729  TIP3      9328            0.0000000000
     79500     10689  TIP3      OH2             6.9861519007       38.4340004627      -87.0819103396  TIP3      9329            0.0000000000
     79501     10689  TIP3      H1              6.6312527308       38.4323021266      -86.2005432785  TIP3      9329            0.0000000000
     79502     10689  TIP3      H2              6.6018900428       37.6246737417      -87.4502391595  TIP3      9329            0.0000000000
     79503     10690  TIP3      OH2             4.2969934316       39.1711783671      -87.8850900035  TIP3      9330            0.0000000000
     79504     10690  TIP3      H1              3.7548966693       38.5459797640      -87.3098436851  TIP3      9330            0.0000000000
     79505     10690  TIP3      H2              3.5527464047       39.3541432042      -88.5041557998  TIP3      9330            0.0000000000
     79506     10691  TIP3      OH2            -1.8857291029       38.6530788463      -85.3513896563  TIP3      9331            0.0000000000
     79507     10691  TIP3      H1             -1.3042799462       39.2490718437      -85.8509717090  TIP3      9331            0.0000000000
     79508     10691  TIP3      H2             -2.4323095690       39.3988181837      -85.0567827875  TIP3      9331            0.0000000000
     79509     10692  TIP3      OH2             9.6366201069       39.0567563450      -86.5076748339  TIP3      9332            0.0000000000
     79510     10692  TIP3      H1              8.6693561731       39.1489175534      -86.6596554296  TIP3      9332            0.0000000000
     79511     10692  TIP3      H2              9.9157792609       39.8996555462      -86.1640041475  TIP3      9332            0.0000000000
     79512     10693  TIP3      OH2             3.4287567322       37.8670661650      -85.9416303958  TIP3      9333            0.0000000000
     79513     10693  TIP3      H1              2.8226159415       38.4805761035      -85.4379557015  TIP3      9333            0.0000000000
     79514     10693  TIP3      H2              3.8930689906       37.5866866908      -85.1523645311  TIP3      9333            0.0000000000
     79515     10694  TIP3      OH2            12.9153073675       38.5584208447      -88.3768271548  TIP3      9334            0.0000000000
     79516     10694  TIP3      H1             13.5098366406       38.3147617183      -87.6604077568  TIP3      9334            0.0000000000
     79517     10694  TIP3      H2             12.0552184441       38.2204772229      -88.1059318140  TIP3      9334            0.0000000000
     79518     10695  TIP3      OH2            -0.6459105550       36.3331559588      -86.7235304210  TIP3      9335            0.0000000000
     79519     10695  TIP3      H1              0.0221337297       36.4302938691      -87.4683952584  TIP3      9335            0.0000000000
     79520     10695  TIP3      H2              0.0252337733       36.9361504486      -86.2776424347  TIP3      9335            0.0000000000
     79521     10696  TIP3      OH2            32.2529492325       35.2541055120      -85.4516901209  TIP3      9336            0.0000000000
     79522     10696  TIP3      H1             31.3379294013       35.4571404139      -85.2878551017  TIP3      9336            0.0000000000
     79523     10696  TIP3      H2             32.5638817579       36.0774509773      -85.8801560478  TIP3      9336            0.0000000000
     79524     10697  TIP3      OH2            28.4267857813       39.0448964448      -86.5433722625  TIP3      9337            0.0000000000
     79525     10697  TIP3      H1             27.4901335103       39.2043525243      -86.6436957518  TIP3      9337            0.0000000000
     79526     10697  TIP3      H2             28.7593328669       39.8731577248      -86.1678475909  TIP3      9337            0.0000000000
     79527     10698  TIP3      OH2            31.6521902553       38.6960638666      -88.4865611481  TIP3      9338            0.0000000000
     79528     10698  TIP3      H1             32.2615189944       38.3527184904      -87.7988990451  TIP3      9338            0.0000000000
     79529     10698  TIP3      H2             30.8942712932       38.2158763328      -88.1488767433  TIP3      9338            0.0000000000
     79530     10699  TIP3      OH2            32.9106542132       37.5822122691      -86.7242947659  TIP3      9339            0.0000000000
     79531     10699  TIP3      H1             33.6734853633       37.0479819661      -86.9682349469  TIP3      9339            0.0000000000
     79532     10699  TIP3      H2             33.6824346883       38.0989088109      -86.4203235216  TIP3      9339            0.0000000000
     79533     10700  TIP3      OH2            36.7675802770       39.9206126083      -85.3903809643  TIP3      9340            0.0000000000
     79534     10700  TIP3      H1             36.5013450708       39.9760162305      -86.3080527153  TIP3      9340            0.0000000000
     79535     10700  TIP3      H2             35.8945742690       39.9582705108      -84.9475363547  TIP3      9340            0.0000000000
     79536     10701  TIP3      OH2           -40.0144044225       37.8551161575      -86.8008504008  TIP3      9341            0.0000000000
     79537     10701  TIP3      H1            -40.5616225051       38.5291940709      -86.3020404594  TIP3      9341            0.0000000000
     79538     10701  TIP3      H2            -39.7372561617       37.6866168779      -85.8690920826  TIP3      9341            0.0000000000
     79539     10702  TIP3      OH2            36.6885677267       35.2612744995      -84.8963298405  TIP3      9342            0.0000000000
     79540     10702  TIP3      H1             37.0608810744       35.8923082863      -85.5507781188  TIP3      9342            0.0000000000
     79541     10702  TIP3      H2             35.8516100518       35.7602532453      -84.8654491144  TIP3      9342            0.0000000000
     79542     10703  TIP3      OH2            38.9974144329       36.8619174834      -86.5650544565  TIP3      9343            0.0000000000
     79543     10703  TIP3      H1             38.8991447465       36.8544798092      -87.5263094626  TIP3      9343            0.0000000000
     79544     10703  TIP3      H2             38.8926402467       37.8451975501      -86.5276376008  TIP3      9343            0.0000000000
     79545     10704  TIP3      OH2           -28.8231258342      -30.5297030497      -77.8845173118  TIP3      9344            0.0000000000
     79546     10704  TIP3      H1            -28.8037082093      -29.5546552258      -77.9763284153  TIP3      9344            0.0000000000
     79547     10704  TIP3      H2            -29.5134469146      -30.7782213931      -78.5204261037  TIP3      9344            0.0000000000
     79548     10705  TIP3      OH2           -29.9488822763      -31.2644706866      -74.4166430854  TIP3      9345            0.0000000000
     79549     10705  TIP3      H1            -29.9496290649      -31.9196227215      -73.7028725926  TIP3      9345            0.0000000000
     79550     10705  TIP3      H2            -30.2996485817      -31.7597802496      -75.1740032965  TIP3      9345            0.0000000000
     79551     10706  TIP3      OH2           -26.2511584620      -28.3654231691      -76.1145548589  TIP3      9346            0.0000000000
     79552     10706  TIP3      H1            -26.7165872135      -29.0669679996      -75.6417294772  TIP3      9346            0.0000000000
     79553     10706  TIP3      H2            -26.2596360357      -27.6150642129      -75.5088658211  TIP3      9346            0.0000000000
     79554     10707  TIP3      OH2           -36.6794845497      -27.1802277883      -74.3433926300  TIP3      9347            0.0000000000
     79555     10707  TIP3      H1            -36.9809597769      -28.0144846697      -74.7078098827  TIP3      9347            0.0000000000
     79556     10707  TIP3      H2            -35.7096097854      -27.3069409250      -74.3285295064  TIP3      9347            0.0000000000
     79557     10708  TIP3      OH2           -31.5940468681      -28.8613153554      -73.9876402444  TIP3      9348            0.0000000000
     79558     10708  TIP3      H1            -31.2501021973      -29.5191676509      -74.6076092556  TIP3      9348            0.0000000000
     79559     10708  TIP3      H2            -30.8184997475      -28.7014713208      -73.4356153495  TIP3      9348            0.0000000000
     79560     10709  TIP3      OH2           -35.2909157584      -36.3014366682      -76.4318424145  TIP3      9349            0.0000000000
     79561     10709  TIP3      H1            -35.2090764196      -35.4523476292      -76.9045200018  TIP3      9349            0.0000000000
     79562     10709  TIP3      H2            -35.6984552548      -36.8857748501      -77.1101605385  TIP3      9349            0.0000000000
     79563     10710  TIP3      OH2           -27.5799215383      -36.2238861317      -78.0543087640  TIP3      9350            0.0000000000
     79564     10710  TIP3      H1            -26.9410473597      -36.5421528735      -77.4072119603  TIP3      9350            0.0000000000
     79565     10710  TIP3      H2            -26.9961215312      -35.7062544178      -78.6286136203  TIP3      9350            0.0000000000
     79566     10711  TIP3      OH2           -33.5158114462      -32.3320857640      -76.3997977355  TIP3      9351            0.0000000000
     79567     10711  TIP3      H1            -32.8594234918      -32.9156375531      -75.9752763302  TIP3      9351            0.0000000000
     79568     10711  TIP3      H2            -34.0502253457      -33.0051391865      -76.8683231198  TIP3      9351            0.0000000000
     79569     10712  TIP3      OH2           -36.3832450399      -37.4051669279      -72.3911592427  TIP3      9352            0.0000000000
     79570     10712  TIP3      H1            -36.6852657529      -36.8579132654      -73.1500876975  TIP3      9352            0.0000000000
     79571     10712  TIP3      H2            -37.0467523367      -37.1989690669      -71.6900009171  TIP3      9352            0.0000000000
     79572     10713  TIP3      OH2           -29.1995193848      -27.9506153885      -78.7980392768  TIP3      9353            0.0000000000
     79573     10713  TIP3      H1            -29.3544074335      -28.1917451605      -79.7217490957  TIP3      9353            0.0000000000
     79574     10713  TIP3      H2            -29.3786013277      -26.9954365520      -78.8093635673  TIP3      9353            0.0000000000
     79575     10714  TIP3      OH2           -33.8862048098      -29.7690471234      -72.1080504379  TIP3      9354            0.0000000000
     79576     10714  TIP3      H1            -34.5956729874      -29.1210658290      -71.9251152610  TIP3      9354            0.0000000000
     79577     10714  TIP3      H2            -33.1814135360      -29.1756378638      -72.4072210336  TIP3      9354            0.0000000000
     79578     10715  TIP3      OH2           -36.8208554284      -35.6049735712      -74.2793548808  TIP3      9355            0.0000000000
     79579     10715  TIP3      H1            -36.2695413001      -34.8266737331      -74.0780281955  TIP3      9355            0.0000000000
     79580     10715  TIP3      H2            -36.3592547877      -35.9494113789      -75.0834517230  TIP3      9355            0.0000000000
     79581     10716  TIP3      OH2           -35.4630595757      -27.7772998552      -71.3476507593  TIP3      9356            0.0000000000
     79582     10716  TIP3      H1            -35.4628930349      -26.8488852810      -71.6570715079  TIP3      9356            0.0000000000
     79583     10716  TIP3      H2            -36.3354449128      -27.8416357067      -70.8849507793  TIP3      9356            0.0000000000
     79584     10717  TIP3      OH2           -32.5530159219      -40.0780440690      -75.1573132019  TIP3      9357            0.0000000000
     79585     10717  TIP3      H1            -32.5060892559      -41.0127431950      -74.9316029107  TIP3      9357            0.0000000000
     79586     10717  TIP3      H2            -33.2718074915      -39.7465543917      -74.6075091659  TIP3      9357            0.0000000000
     79587     10718  TIP3      OH2           -26.2816523817      -26.8092651436      -78.6562865289  TIP3      9358            0.0000000000
     79588     10718  TIP3      H1            -26.5948859302      -27.4774951775      -79.2815665345  TIP3      9358            0.0000000000
     79589     10718  TIP3      H2            -26.2489824829      -27.2917728158      -77.8228817788  TIP3      9358            0.0000000000
     79590     10719  TIP3      OH2           -24.6842729286      -28.1710622741      -70.1924473378  TIP3      9359            0.0000000000
     79591     10719  TIP3      H1            -24.5054497363      -28.8510083945      -70.8838813403  TIP3      9359            0.0000000000
     79592     10719  TIP3      H2            -24.4083013999      -27.3466215047      -70.6085317213  TIP3      9359            0.0000000000
     79593     10720  TIP3      OH2           -30.1928788118      -31.2383993456      -80.4058942608  TIP3      9360            0.0000000000
     79594     10720  TIP3      H1            -30.8622990373      -30.6906024818      -80.8413228817  TIP3      9360            0.0000000000
     79595     10720  TIP3      H2            -29.4624133301      -31.2104150372      -81.0638821093  TIP3      9360            0.0000000000
     79596     10721  TIP3      OH2           -30.1190035848      -32.7639262227      -83.3327295813  TIP3      9361            0.0000000000
     79597     10721  TIP3      H1            -29.3781657314      -32.7532097672      -82.7106164920  TIP3      9361            0.0000000000
     79598     10721  TIP3      H2            -29.7818406341      -33.4064691464      -83.9718790864  TIP3      9361            0.0000000000
     79599     10722  TIP3      OH2           -22.7283860815      -31.8735658272      -72.1127797082  TIP3      9362            0.0000000000
     79600     10722  TIP3      H1            -23.4473957679      -31.2137374068      -72.0622600237  TIP3      9362            0.0000000000
     79601     10722  TIP3      H2            -22.2753431092      -31.6394245266      -72.9421110719  TIP3      9362            0.0000000000
     79602     10723  TIP3      OH2           -26.7231122919      -31.0789711131      -79.4815548500  TIP3      9363            0.0000000000
     79603     10723  TIP3      H1            -27.4528934650      -30.8356623059      -78.8685228860  TIP3      9363            0.0000000000
     79604     10723  TIP3      H2            -26.2465229354      -31.7487737272      -78.9708156400  TIP3      9363            0.0000000000
     79605     10724  TIP3      OH2           -35.0999806962      -30.3884702760      -77.6196661369  TIP3      9364            0.0000000000
     79606     10724  TIP3      H1            -35.4785078554      -30.8330056811      -78.4068407233  TIP3      9364            0.0000000000
     79607     10724  TIP3      H2            -34.5486671121      -31.1014247175      -77.2119308629  TIP3      9364            0.0000000000
     79608     10725  TIP3      OH2           -33.7832930757      -26.9999832711      -74.8823917521  TIP3      9365            0.0000000000
     79609     10725  TIP3      H1            -33.8086296394      -27.5447444893      -75.6743932027  TIP3      9365            0.0000000000
     79610     10725  TIP3      H2            -33.0043464229      -27.3716770177      -74.4297888755  TIP3      9365            0.0000000000
     79611     10726  TIP3      OH2           -34.7588916813      -31.6663196927      -73.9223853832  TIP3      9366            0.0000000000
     79612     10726  TIP3      H1            -34.2161045727      -31.5660309765      -74.7248136284  TIP3      9366            0.0000000000
     79613     10726  TIP3      H2            -34.3905807873      -31.0126103192      -73.3001003288  TIP3      9366            0.0000000000
     79614     10727  TIP3      OH2           -33.8252641987      -27.2685239499      -69.2103181933  TIP3      9367            0.0000000000
     79615     10727  TIP3      H1            -34.1763708359      -26.4778555533      -68.7582078249  TIP3      9367            0.0000000000
     79616     10727  TIP3      H2            -34.4619123997      -27.4110474260      -69.9387988273  TIP3      9367            0.0000000000
     79617     10728  TIP3      OH2           -27.8772240062      -31.8828579436      -81.7815174058  TIP3      9368            0.0000000000
     79618     10728  TIP3      H1            -27.2854251438      -31.7189594758      -81.0103886767  TIP3      9368            0.0000000000
     79619     10728  TIP3      H2            -27.4748038057      -31.3784683714      -82.4998625254  TIP3      9368            0.0000000000
     79620     10729  TIP3      OH2           -35.5882279053      -25.1982087146      -68.4388539788  TIP3      9369            0.0000000000
     79621     10729  TIP3      H1            -35.6293880681      -25.2784264690      -69.4073744295  TIP3      9369            0.0000000000
     79622     10729  TIP3      H2            -36.5277069978      -25.2904630800      -68.1906935075  TIP3      9369            0.0000000000
     79623     10730  TIP3      OH2           -36.0793363819      -31.3936294468      -80.0324294042  TIP3      9370            0.0000000000
     79624     10730  TIP3      H1            -36.4227425754      -30.6146582488      -80.4826828429  TIP3      9370            0.0000000000
     79625     10730  TIP3      H2            -36.7910625686      -32.0370884850      -80.1539280193  TIP3      9370            0.0000000000
     79626     10731  TIP3      OH2           -22.0236714209      -25.5394997669      -68.5739034667  TIP3      9371            0.0000000000
     79627     10731  TIP3      H1            -22.1634908782      -26.4923796136      -68.6306014009  TIP3      9371            0.0000000000
     79628     10731  TIP3      H2            -22.8898577172      -25.2782594449      -68.1894711776  TIP3      9371            0.0000000000
     79629     10732  TIP3      OH2           -36.9924854480      -23.4037817746      -78.1466125490  TIP3      9372            0.0000000000
     79630     10732  TIP3      H1            -36.8793313084      -23.7428119115      -77.2296003299  TIP3      9372            0.0000000000
     79631     10732  TIP3      H2            -37.8610947946      -23.7592604250      -78.3426049308  TIP3      9372            0.0000000000
     79632     10733  TIP3      OH2           -24.8760383288      -34.0505043156      -68.1151567290  TIP3      9373            0.0000000000
     79633     10733  TIP3      H1            -25.3688282861      -33.5990892328      -68.8144179795  TIP3      9373            0.0000000000
     79634     10733  TIP3      H2            -24.9739068165      -34.9690906938      -68.3960997311  TIP3      9373            0.0000000000
     79635     10734  TIP3      OH2           -37.8171537160      -27.6391121640      -70.1529197353  TIP3      9374            0.0000000000
     79636     10734  TIP3      H1            -37.5766916089      -28.0130376593      -69.2732153314  TIP3      9374            0.0000000000
     79637     10734  TIP3      H2            -38.6821629936      -28.0526277100      -70.2510334095  TIP3      9374            0.0000000000
     79638     10735  TIP3      OH2           -35.0796860963      -39.2169140848      -74.1529751283  TIP3      9375            0.0000000000
     79639     10735  TIP3      H1            -35.9810433593      -39.2180796073      -74.5490722887  TIP3      9375            0.0000000000
     79640     10735  TIP3      H2            -35.1484834055      -38.3728192775      -73.6822732917  TIP3      9375            0.0000000000
     79641     10736  TIP3      OH2           -30.4013074054      -39.0151569736      -70.6277248562  TIP3      9376            0.0000000000
     79642     10736  TIP3      H1            -29.9089709529      -39.7118126364      -70.2060334213  TIP3      9376            0.0000000000
     79643     10736  TIP3      H2            -31.2521097354      -39.4268651307      -70.8789735832  TIP3      9376            0.0000000000
     79644     10737  TIP3      OH2           -30.7968593471      -36.9919460935      -83.4377196863  TIP3      9377            0.0000000000
     79645     10737  TIP3      H1            -31.0875632559      -37.0086120870      -82.5146675326  TIP3      9377            0.0000000000
     79646     10737  TIP3      H2            -31.0761228925      -37.8576068546      -83.7494673216  TIP3      9377            0.0000000000
     79647     10738  TIP3      OH2           -34.9978398030      -34.0672917894      -78.0413375412  TIP3      9378            0.0000000000
     79648     10738  TIP3      H1            -35.9434578641      -34.3147842477      -78.1794071753  TIP3      9378            0.0000000000
     79649     10738  TIP3      H2            -34.6269198637      -34.3673421345      -78.8916938114  TIP3      9378            0.0000000000
     79650     10739  TIP3      OH2           -29.4685946550      -33.5943473877      -79.2647425530  TIP3      9379            0.0000000000
     79651     10739  TIP3      H1            -29.9190099564      -32.7847258731      -79.5982413520  TIP3      9379            0.0000000000
     79652     10739  TIP3      H2            -28.8281181807      -33.7292117348      -79.9682535514  TIP3      9379            0.0000000000
     79653     10740  TIP3      OH2           -30.4412574004      -33.3767287480      -67.8433554461  TIP3      9380            0.0000000000
     79654     10740  TIP3      H1            -30.9584662917      -34.1677963271      -67.5550602595  TIP3      9380            0.0000000000
     79655     10740  TIP3      H2            -29.5921047449      -33.5077064946      -67.3876025324  TIP3      9380            0.0000000000
     79656     10741  TIP3      OH2           -28.4185765104      -34.1094253604      -76.4639167676  TIP3      9381            0.0000000000
     79657     10741  TIP3      H1            -28.7452725446      -33.5400872679      -77.1765961517  TIP3      9381            0.0000000000
     79658     10741  TIP3      H2            -28.3913747643      -34.9670676470      -76.9193637528  TIP3      9381            0.0000000000
     79659     10742  TIP3      OH2           -40.1844263156      -36.8115267246      -77.7940072038  TIP3      9382            0.0000000000
     79660     10742  TIP3      H1            -39.9956607329      -36.9928829667      -76.8424603333  TIP3      9382            0.0000000000
     79661     10742  TIP3      H2            -39.8868846885      -37.5912297303      -78.2775169943  TIP3      9382            0.0000000000
     79662     10743  TIP3      OH2           -39.2022094331      -35.9909308717      -81.6538497894  TIP3      9383            0.0000000000
     79663     10743  TIP3      H1            -38.9106437437      -35.5328484867      -82.4815103477  TIP3      9383            0.0000000000
     79664     10743  TIP3      H2            -40.0365062904      -35.4811713678      -81.6330235873  TIP3      9383            0.0000000000
     79665     10744  TIP3      OH2           -29.2875893120      -32.5336148641      -71.9177798217  TIP3      9384            0.0000000000
     79666     10744  TIP3      H1            -28.8378447220      -33.2005923145      -72.4387943433  TIP3      9384            0.0000000000
     79667     10744  TIP3      H2            -29.6988126854      -33.0476350734      -71.2008325789  TIP3      9384            0.0000000000
     79668     10745  TIP3      OH2           -32.4800819284      -36.4581539249      -77.0378914231  TIP3      9385            0.0000000000
     79669     10745  TIP3      H1            -33.3905260707      -36.5303639972      -76.7037064272  TIP3      9385            0.0000000000
     79670     10745  TIP3      H2            -31.9608078968      -36.7319333025      -76.2532527797  TIP3      9385            0.0000000000
     79671     10746  TIP3      OH2           -37.6174924441      -34.9597433149      -78.2583533240  TIP3      9386            0.0000000000
     79672     10746  TIP3      H1            -38.5493452111      -34.8749713191      -78.4937052363  TIP3      9386            0.0000000000
     79673     10746  TIP3      H2            -37.3804302275      -35.8404689950      -78.5974932283  TIP3      9386            0.0000000000
     79674     10747  TIP3      OH2           -34.0299409355      -34.9457143676      -80.5606456013  TIP3      9387            0.0000000000
     79675     10747  TIP3      H1            -33.0800754284      -34.8244611652      -80.3610982051  TIP3      9387            0.0000000000
     79676     10747  TIP3      H2            -34.2335217191      -34.2797427696      -81.2353330798  TIP3      9387            0.0000000000
     79677     10748  TIP3      OH2           -35.2985933835      -33.7915802452      -82.9579603433  TIP3      9388            0.0000000000
     79678     10748  TIP3      H1            -35.8278304023      -34.1186390227      -83.6929488651  TIP3      9388            0.0000000000
     79679     10748  TIP3      H2            -34.4852144038      -33.5386989856      -83.4188906583  TIP3      9388            0.0000000000
     79680     10749  TIP3      OH2           -24.8365228383      -21.6381560650      -67.4339201994  TIP3      9389            0.0000000000
     79681     10749  TIP3      H1            -24.5780311483      -21.2827831848      -68.3078018950  TIP3      9389            0.0000000000
     79682     10749  TIP3      H2            -24.1059464458      -21.3342502790      -66.8660936112  TIP3      9389            0.0000000000
     79683     10750  TIP3      OH2           -37.1723541052      -29.1585142835      -67.9126211132  TIP3      9390            0.0000000000
     79684     10750  TIP3      H1            -36.4544334881      -28.9561896401      -67.2860241209  TIP3      9390            0.0000000000
     79685     10750  TIP3      H2            -37.9537794230      -29.1325291951      -67.3573681095  TIP3      9390            0.0000000000
     79686     10751  TIP3      OH2           -31.1849112658      -33.7793466039      -75.1540965270  TIP3      9391            0.0000000000
     79687     10751  TIP3      H1            -30.5802925790      -34.3236076789      -75.6754992641  TIP3      9391            0.0000000000
     79688     10751  TIP3      H2            -31.3229088378      -34.3489373962      -74.3832898353  TIP3      9391            0.0000000000
     79689     10752  TIP3      OH2           -36.1731159443      -37.6052966135      -78.7211427379  TIP3      9392            0.0000000000
     79690     10752  TIP3      H1            -36.4669341811      -38.5298995929      -78.7284991841  TIP3      9392            0.0000000000
     79691     10752  TIP3      H2            -35.3746805335      -37.6719361150      -79.2584629539  TIP3      9392            0.0000000000
     79692     10753  TIP3      OH2           -32.5821897993      -35.4278973127      -72.7299963829  TIP3      9393            0.0000000000
     79693     10753  TIP3      H1            -33.3745770649      -34.9167727910      -72.6015468382  TIP3      9393            0.0000000000
     79694     10753  TIP3      H2            -31.9742725691      -35.1386823490      -72.0272935528  TIP3      9393            0.0000000000
     79695     10754  TIP3      OH2           -31.9907877463      -29.1681690325      -81.0383714311  TIP3      9394            0.0000000000
     79696     10754  TIP3      H1            -32.6513909351      -29.8029148945      -81.4074189892  TIP3      9394            0.0000000000
     79697     10754  TIP3      H2            -32.0512111678      -29.2068947605      -80.0646220670  TIP3      9394            0.0000000000
     79698     10755  TIP3      OH2           -24.7979259206      -29.9650425120      -72.2328706314  TIP3      9395            0.0000000000
     79699     10755  TIP3      H1            -24.1881535257      -29.5837161058      -72.8896692513  TIP3      9395            0.0000000000
     79700     10755  TIP3      H2            -25.6572935163      -29.9899555744      -72.6971729110  TIP3      9395            0.0000000000
     79701     10756  TIP3      OH2           -30.4756106281      -28.9699417673      -69.7816941029  TIP3      9396            0.0000000000
     79702     10756  TIP3      H1            -30.8260601176      -29.3932983366      -68.9946598503  TIP3      9396            0.0000000000
     79703     10756  TIP3      H2            -30.7019144944      -28.0529923092      -69.6669543139  TIP3      9396            0.0000000000
     79704     10757  TIP3      OH2           -32.8460209960      -31.8963336871      -67.7899423499  TIP3      9397            0.0000000000
     79705     10757  TIP3      H1            -33.1582717232      -32.1516589382      -68.6717520530  TIP3      9397            0.0000000000
     79706     10757  TIP3      H2            -31.9055583352      -32.1841959518      -67.8088953891  TIP3      9397            0.0000000000
     79707     10758  TIP3      OH2           -22.4880027454      -28.4869297891      -68.6476110202  TIP3      9398            0.0000000000
     79708     10758  TIP3      H1            -23.3770258033      -28.2780454526      -69.0102464943  TIP3      9398            0.0000000000
     79709     10758  TIP3      H2            -21.9487648080      -28.5388566471      -69.4648980555  TIP3      9398            0.0000000000
     79710     10759  TIP3      OH2           -26.9972810899      -30.6575203556      -74.0447708286  TIP3      9399            0.0000000000
     79711     10759  TIP3      H1            -27.9375674764      -30.9200153947      -74.0283793464  TIP3      9399            0.0000000000
     79712     10759  TIP3      H2            -26.5850621514      -31.4908871007      -74.2979523259  TIP3      9399            0.0000000000
     79713     10760  TIP3      OH2           -34.4910471074      -26.4251212258      -77.9642205583  TIP3      9400            0.0000000000
     79714     10760  TIP3      H1            -33.9904751772      -25.5912078285      -78.0596429110  TIP3      9400            0.0000000000
     79715     10760  TIP3      H2            -35.3858819672      -26.1025559260      -78.1294524075  TIP3      9400            0.0000000000
     79716     10761  TIP3      OH2           -33.1251338661      -28.6949271473      -78.4449908302  TIP3      9401            0.0000000000
     79717     10761  TIP3      H1            -33.3279315869      -27.7700175716      -78.1726762985  TIP3      9401            0.0000000000
     79718     10761  TIP3      H2            -33.7609436885      -29.1928248164      -77.8707892791  TIP3      9401            0.0000000000
     79719     10762  TIP3      OH2           -32.6117754808      -24.5408112743      -71.9251211869  TIP3      9402            0.0000000000
     79720     10762  TIP3      H1            -32.2008798002      -23.7122380348      -72.2044422237  TIP3      9402            0.0000000000
     79721     10762  TIP3      H2            -32.0354114908      -24.8480959020      -71.2119131498  TIP3      9402            0.0000000000
     79722     10763  TIP3      OH2           -34.3679466536      -23.7436122299      -78.7339208676  TIP3      9403            0.0000000000
     79723     10763  TIP3      H1            -35.3367327753      -23.5912668821      -78.6550285986  TIP3      9403            0.0000000000
     79724     10763  TIP3      H2            -34.0373557704      -22.8739080304      -78.4371227780  TIP3      9403            0.0000000000
     79725     10764  TIP3      OH2           -38.1309173440      -36.7898056194      -70.3231464415  TIP3      9404            0.0000000000
     79726     10764  TIP3      H1            -38.9640621354      -36.3715094560      -70.0861693910  TIP3      9404            0.0000000000
     79727     10764  TIP3      H2            -38.2441667026      -37.6661817110      -69.9184290918  TIP3      9404            0.0000000000
     79728     10765  TIP3      OH2           -25.9711509578      -28.8733537450      -80.9966320970  TIP3      9405            0.0000000000
     79729     10765  TIP3      H1            -26.2220420876      -29.6302469189      -80.4448232713  TIP3      9405            0.0000000000
     79730     10765  TIP3      H2            -25.0351189590      -28.7513105220      -80.7797594356  TIP3      9405            0.0000000000
     79731     10766  TIP3      OH2           -38.6266177089      -24.9705636009      -71.9790925920  TIP3      9406            0.0000000000
     79732     10766  TIP3      H1            -38.2497935310      -25.8520324652      -71.9860234460  TIP3      9406            0.0000000000
     79733     10766  TIP3      H2            -38.2956032082      -24.6127918746      -71.1399376875  TIP3      9406            0.0000000000
     79734     10767  TIP3      OH2           -33.8365222436      -26.7325092734      -82.3843653103  TIP3      9407            0.0000000000
     79735     10767  TIP3      H1            -33.3785786371      -27.1897924634      -81.7062094128  TIP3      9407            0.0000000000
     79736     10767  TIP3      H2            -33.8057470051      -25.8013274808      -82.0755112212  TIP3      9407            0.0000000000
     79737     10768  TIP3      OH2           -29.4680894636      -36.7199250102      -71.1601442208  TIP3      9408            0.0000000000
     79738     10768  TIP3      H1            -28.6673802289      -36.9527575473      -70.7221031212  TIP3      9408            0.0000000000
     79739     10768  TIP3      H2            -29.8205955599      -37.6289646405      -71.4097225825  TIP3      9408            0.0000000000
     79740     10769  TIP3      OH2           -28.6867039441      -37.3494369260      -80.4027301907  TIP3      9409            0.0000000000
     79741     10769  TIP3      H1            -28.5188611784      -36.8379651244      -81.2015166008  TIP3      9409            0.0000000000
     79742     10769  TIP3      H2            -28.1500472566      -36.9108439086      -79.7350931666  TIP3      9409            0.0000000000
     79743     10770  TIP3      OH2           -31.1007116068      -25.2283662985      -81.5853068362  TIP3      9410            0.0000000000
     79744     10770  TIP3      H1            -31.8871915226      -24.6659404528      -81.5295196104  TIP3      9410            0.0000000000
     79745     10770  TIP3      H2            -30.5062748434      -24.7602901534      -82.1805062260  TIP3      9410            0.0000000000
     79746     10771  TIP3      OH2           -31.5281833477      -35.5829412944      -79.5617149241  TIP3      9411            0.0000000000
     79747     10771  TIP3      H1            -30.7011981372      -35.0630787970      -79.5219562700  TIP3      9411            0.0000000000
     79748     10771  TIP3      H2            -31.7389107955      -35.7615795164      -78.6197538715  TIP3      9411            0.0000000000
     79749     10772  TIP3      OH2           -30.9695838613      -34.5762084256      -70.3615598682  TIP3      9412            0.0000000000
     79750     10772  TIP3      H1            -30.8280484268      -34.0264705052      -69.5760311627  TIP3      9412            0.0000000000
     79751     10772  TIP3      H2            -30.3393695803      -35.3294835392      -70.3128060807  TIP3      9412            0.0000000000
     79752     10773  TIP3      OH2           -30.7668246748      -38.4572726285      -78.8901192167  TIP3      9413            0.0000000000
     79753     10773  TIP3      H1            -30.9252309254      -38.0154266311      -78.0124799331  TIP3      9413            0.0000000000
     79754     10773  TIP3      H2            -29.9472136878      -38.0020960766      -79.1497326478  TIP3      9413            0.0000000000
     79755     10774  TIP3      OH2           -33.6935291307      -24.1549232391      -81.5227198981  TIP3      9414            0.0000000000
     79756     10774  TIP3      H1            -33.5621488828      -23.3336149875      -82.0580085940  TIP3      9414            0.0000000000
     79757     10774  TIP3      H2            -33.9198528742      -23.7867273913      -80.6465511603  TIP3      9414            0.0000000000
     79758     10775  TIP3      OH2           -34.9763940795      -37.4316783065      -81.9578546040  TIP3      9415            0.0000000000
     79759     10775  TIP3      H1            -35.0370644018      -36.5284294224      -81.6046935849  TIP3      9415            0.0000000000
     79760     10775  TIP3      H2            -34.0707080282      -37.6680703771      -81.6899261758  TIP3      9415            0.0000000000
     79761     10776  TIP3      OH2           -36.4706463430      -27.1386223164      -82.7236559095  TIP3      9416            0.0000000000
     79762     10776  TIP3      H1            -36.0427582393      -26.2810962922      -82.6437134768  TIP3      9416            0.0000000000
     79763     10776  TIP3      H2            -36.2340593309      -27.4082441512      -83.6233729765  TIP3      9416            0.0000000000
     79764     10777  TIP3      OH2           -37.6334303444      -39.4215668923      -75.0803996960  TIP3      9417            0.0000000000
     79765     10777  TIP3      H1            -37.8549575187      -39.4308287607      -76.0380673190  TIP3      9417            0.0000000000
     79766     10777  TIP3      H2            -38.0086241548      -40.2755498963      -74.8080538140  TIP3      9417            0.0000000000
     79767     10778  TIP3      OH2           -39.5476503346      -22.9860256488      -67.5268074134  TIP3      9418            0.0000000000
     79768     10778  TIP3      H1            -38.7873141004      -23.1487840165      -66.9118442309  TIP3      9418            0.0000000000
     79769     10778  TIP3      H2            -39.7519195858      -23.8729030583      -67.8402173723  TIP3      9418            0.0000000000
     79770     10779  TIP3      OH2           -34.7584629594      -24.0370944600      -66.0101355057  TIP3      9419            0.0000000000
     79771     10779  TIP3      H1            -33.9919608060      -24.5270362629      -65.6901396561  TIP3      9419            0.0000000000
     79772     10779  TIP3      H2            -34.8065470451      -24.3383139062      -66.9386555781  TIP3      9419            0.0000000000
     79773     10780  TIP3      OH2           -28.2527922650      -25.6879417414      -67.2696216373  TIP3      9420            0.0000000000
     79774     10780  TIP3      H1            -28.5723409916      -26.5630138326      -66.9973908096  TIP3      9420            0.0000000000
     79775     10780  TIP3      H2            -27.4840143096      -25.5451746280      -66.6881489461  TIP3      9420            0.0000000000
     79776     10781  TIP3      OH2           -32.8058682840      -29.1922121060      -67.2434309260  TIP3      9421            0.0000000000
     79777     10781  TIP3      H1            -33.1586474249      -28.8812483087      -68.0974543986  TIP3      9421            0.0000000000
     79778     10781  TIP3      H2            -32.7108061175      -30.1666080569      -67.3473640389  TIP3      9421            0.0000000000
     79779     10782  TIP3      OH2           -27.0981668207      -29.3134869308      -69.8232808374  TIP3      9422            0.0000000000
     79780     10782  TIP3      H1            -26.3130402031      -28.7304180870      -69.9041841988  TIP3      9422            0.0000000000
     79781     10782  TIP3      H2            -27.8525819451      -28.7316022535      -69.7931992972  TIP3      9422            0.0000000000
     79782     10783  TIP3      OH2           -38.6395574078      -31.9785064596      -67.2367895391  TIP3      9423            0.0000000000
     79783     10783  TIP3      H1            -38.1504807963      -32.8020059759      -67.3264748042  TIP3      9423            0.0000000000
     79784     10783  TIP3      H2            -38.8291716477      -31.9381622293      -66.2955598211  TIP3      9423            0.0000000000
     79785     10784  TIP3      OH2           -33.9434593803      -30.8009445035      -82.1100109938  TIP3      9424            0.0000000000
     79786     10784  TIP3      H1            -34.4937949911      -31.3877701227      -81.5588904338  TIP3      9424            0.0000000000
     79787     10784  TIP3      H2            -33.6726138962      -31.4469703460      -82.8201995544  TIP3      9424            0.0000000000
     79788     10785  TIP3      OH2           -34.7181911243      -33.0233558074      -69.8960656617  TIP3      9425            0.0000000000
     79789     10785  TIP3      H1            -35.2964716875      -32.3128893544      -69.5985454696  TIP3      9425            0.0000000000
     79790     10785  TIP3      H2            -34.2996425861      -32.6468646294      -70.6923909725  TIP3      9425            0.0000000000
     79791     10786  TIP3      OH2           -32.9246638064      -32.5698446604      -83.9682876891  TIP3      9426            0.0000000000
     79792     10786  TIP3      H1            -33.0318041339      -32.7556029426      -84.9115866762  TIP3      9426            0.0000000000
     79793     10786  TIP3      H2            -31.9393113034      -32.5424284873      -83.8885624797  TIP3      9426            0.0000000000
     79794     10787  TIP3      OH2           -29.6364557601      -30.4344819055      -66.4827697849  TIP3      9427            0.0000000000
     79795     10787  TIP3      H1            -28.6886237708      -30.4783616609      -66.6780625998  TIP3      9427            0.0000000000
     79796     10787  TIP3      H2            -29.8026913215      -31.2274617234      -65.9572213973  TIP3      9427            0.0000000000
     79797     10788  TIP3      OH2           -34.3221954438      -35.6592613898      -68.8297015617  TIP3      9428            0.0000000000
     79798     10788  TIP3      H1            -34.1383450754      -36.3535473284      -69.4851173877  TIP3      9428            0.0000000000
     79799     10788  TIP3      H2            -34.3443722847      -34.8433328401      -69.3668104356  TIP3      9428            0.0000000000
     79800     10789  TIP3      OH2           -33.9208802566      -37.2550251795      -71.2770353944  TIP3      9429            0.0000000000
     79801     10789  TIP3      H1            -33.3575443314      -36.8291576815      -71.9753312053  TIP3      9429            0.0000000000
     79802     10789  TIP3      H2            -34.7891971815      -37.3559382961      -71.7189400523  TIP3      9429            0.0000000000
     79803     10790  TIP3      OH2           -32.3602189176      -31.8065208854      -71.0406762149  TIP3      9430            0.0000000000
     79804     10790  TIP3      H1            -31.6012567923      -31.9302070212      -71.6165902672  TIP3      9430            0.0000000000
     79805     10790  TIP3      H2            -32.7028774917      -30.9454146711      -71.3438286352  TIP3      9430            0.0000000000
     79806     10791  TIP3      OH2           -27.9693527660      -34.0171453288      -66.0491469550  TIP3      9431            0.0000000000
     79807     10791  TIP3      H1            -27.7344664629      -34.9586499069      -66.1400038062  TIP3      9431            0.0000000000
     79808     10791  TIP3      H2            -27.0963990193      -33.5908679964      -66.0490615231  TIP3      9431            0.0000000000
     79809     10792  TIP3      OH2           -26.6193775917      -31.1857898465      -67.8756638017  TIP3      9432            0.0000000000
     79810     10792  TIP3      H1            -26.8886786451      -30.5266037593      -68.5530941847  TIP3      9432            0.0000000000
     79811     10792  TIP3      H2            -25.6783964214      -31.2588386847      -68.1251945482  TIP3      9432            0.0000000000
     79812     10793  TIP3      OH2           -35.8459245930      -34.4389019391      -66.8395712952  TIP3      9433            0.0000000000
     79813     10793  TIP3      H1            -36.6372180254      -34.9290728547      -67.1079267912  TIP3      9433            0.0000000000
     79814     10793  TIP3      H2            -35.2187722628      -34.7352084144      -67.5331614990  TIP3      9433            0.0000000000
     79815     10794  TIP3      OH2           -33.2317112177      -39.8024749331      -70.8650364075  TIP3      9434            0.0000000000
     79816     10794  TIP3      H1            -33.2537811753      -38.8248737068      -71.0027834165  TIP3      9434            0.0000000000
     79817     10794  TIP3      H2            -33.9588583235      -40.1088170897      -71.4019081199  TIP3      9434            0.0000000000
     79818     10795  TIP3      OH2           -31.8432745914      -35.4990008667      -67.2652197997  TIP3      9435            0.0000000000
     79819     10795  TIP3      H1            -32.1366775432      -35.7214258932      -66.3635991034  TIP3      9435            0.0000000000
     79820     10795  TIP3      H2            -32.6519820049      -35.6847876255      -67.7747317220  TIP3      9435            0.0000000000
     79821     10796  TIP3      OH2           -29.1342769020      -36.3201612316      -68.1832711498  TIP3      9436            0.0000000000
     79822     10796  TIP3      H1            -30.0993420708      -36.3367775671      -68.0823578720  TIP3      9436            0.0000000000
     79823     10796  TIP3      H2            -28.8146719284      -36.9798738923      -67.5390058786  TIP3      9436            0.0000000000
     79824     10797  TIP3      OH2           -27.5618719471      -37.7065068813      -66.2315859273  TIP3      9437            0.0000000000
     79825     10797  TIP3      H1            -27.5914862599      -38.6872049853      -66.2363398576  TIP3      9437            0.0000000000
     79826     10797  TIP3      H2            -27.8270885986      -37.4473475235      -65.3211838391  TIP3      9437            0.0000000000
     79827     10798  TIP3      OH2           -37.7662382688      -36.4947045678      -67.1846973903  TIP3      9438            0.0000000000
     79828     10798  TIP3      H1            -37.4180730056      -37.1973462902      -67.7731031366  TIP3      9438            0.0000000000
     79829     10798  TIP3      H2            -37.6391184678      -36.7862734008      -66.2725003488  TIP3      9438            0.0000000000
     79830     10799  TIP3      OH2           -32.8420323590      -40.0322939373      -68.3379056310  TIP3      9439            0.0000000000
     79831     10799  TIP3      H1            -32.2093119855      -40.7839464197      -68.2796666160  TIP3      9439            0.0000000000
     79832     10799  TIP3      H2            -33.0265740638      -40.1173297556      -69.2966775969  TIP3      9439            0.0000000000
     79833     10800  TIP3      OH2           -32.5402816520      -38.8417866805      -66.0454477957  TIP3      9440            0.0000000000
     79834     10800  TIP3      H1            -32.6638530933      -39.2888810253      -66.9154685778  TIP3      9440            0.0000000000
     79835     10800  TIP3      H2            -33.0872696065      -38.0450283711      -66.1693942815  TIP3      9440            0.0000000000
     79836     10801  TIP3      OH2           -33.0991504808      -21.9529920754      -82.9809286162  TIP3      9441            0.0000000000
     79837     10801  TIP3      H1            -32.1778551002      -21.7120479051      -82.7503981023  TIP3      9441            0.0000000000
     79838     10801  TIP3      H2            -33.2846246019      -21.2014921131      -83.5482967112  TIP3      9441            0.0000000000
     79839     10802  TIP3      OH2           -24.3728197671      -27.6839155519      -66.0696889873  TIP3      9442            0.0000000000
     79840     10802  TIP3      H1            -25.2415170468      -27.7331940603      -65.6302832086  TIP3      9442            0.0000000000
     79841     10802  TIP3      H2            -23.9750119317      -26.9206843393      -65.5919869375  TIP3      9442            0.0000000000
     79842     10803  TIP3      OH2           -23.0063294410      -29.4112725424      -80.6066078406  TIP3      9443            0.0000000000
     79843     10803  TIP3      H1            -22.1812848279      -28.9603363174      -80.3668713294  TIP3      9443            0.0000000000
     79844     10803  TIP3      H2            -23.0423582119      -30.1046326548      -79.9111179396  TIP3      9443            0.0000000000
     79845     10804  TIP3      OH2           -22.6891882165      -31.2824459067      -78.7119916111  TIP3      9444            0.0000000000
     79846     10804  TIP3      H1            -23.4149881180      -31.8183061954      -78.3281112725  TIP3      9444            0.0000000000
     79847     10804  TIP3      H2            -22.0619907434      -31.1798231589      -77.9714603947  TIP3      9444            0.0000000000
     79848     10805  TIP3      OH2           -22.9265390578      -28.5603442229      -73.7429562611  TIP3      9445            0.0000000000
     79849     10805  TIP3      H1            -22.1148928672      -28.9761202833      -74.0980753201  TIP3      9445            0.0000000000
     79850     10805  TIP3      H2            -22.7045397723      -27.6200294633      -73.8960812695  TIP3      9445            0.0000000000
     79851     10806  TIP3      OH2           -24.4048255535      -25.6862579020      -71.4967082956  TIP3      9446            0.0000000000
     79852     10806  TIP3      H1            -25.0326219113      -25.3609531630      -70.8408041064  TIP3      9446            0.0000000000
     79853     10806  TIP3      H2            -24.9466965658      -26.1163161454      -72.1539506051  TIP3      9446            0.0000000000
     79854     10807  TIP3      OH2           -22.3975056155      -31.4382221699      -82.3758033807  TIP3      9447            0.0000000000
     79855     10807  TIP3      H1            -22.9729847648      -31.0854756781      -83.0521695100  TIP3      9447            0.0000000000
     79856     10807  TIP3      H2            -22.4596998382      -30.7750166259      -81.6630912164  TIP3      9447            0.0000000000
     79857     10808  TIP3      OH2           -24.9002944165      -32.8228614569      -78.1709423381  TIP3      9448            0.0000000000
     79858     10808  TIP3      H1            -24.9872529124      -33.7835830353      -78.1605855128  TIP3      9448            0.0000000000
     79859     10808  TIP3      H2            -25.1530452465      -32.5857484636      -77.2726635390  TIP3      9448            0.0000000000
     79860     10809  TIP3      OH2           -23.9895013813      -30.8520940249      -68.4654227264  TIP3      9449            0.0000000000
     79861     10809  TIP3      H1            -23.3777647210      -31.6029234340      -68.3215266567  TIP3      9449            0.0000000000
     79862     10809  TIP3      H2            -23.4025142571      -30.0687010316      -68.4630013528  TIP3      9449            0.0000000000
     79863     10810  TIP3      OH2           -22.4943262309      -32.9827076419      -67.8294135793  TIP3      9450            0.0000000000
     79864     10810  TIP3      H1            -23.3874652172      -33.3716075302      -67.9843052760  TIP3      9450            0.0000000000
     79865     10810  TIP3      H2            -21.9028084671      -33.7270810465      -67.9001401063  TIP3      9450            0.0000000000
     79866     10811  TIP3      OH2           -40.1239274374      -35.6693866529      -68.1961265187  TIP3      9451            0.0000000000
     79867     10811  TIP3      H1            -39.2422335634      -35.6399518522      -67.7694661529  TIP3      9451            0.0000000000
     79868     10811  TIP3      H2            -40.6637765078      -36.2242704146      -67.6149769242  TIP3      9451            0.0000000000
     79869     10812  TIP3      OH2           -22.1635067174      -39.8541040625      -66.0936255013  TIP3      9452            0.0000000000
     79870     10812  TIP3      H1            -21.9361887695      -40.5686677864      -66.7223816982  TIP3      9452            0.0000000000
     79871     10812  TIP3      H2            -22.1133938077      -39.0862500934      -66.6546232002  TIP3      9452            0.0000000000
     79872     10813  TIP3      OH2           -39.0711176000      -37.0954361161      -75.0337808983  TIP3      9453            0.0000000000
     79873     10813  TIP3      H1            -38.6080292778      -37.9490730307      -74.8646885258  TIP3      9453            0.0000000000
     79874     10813  TIP3      H2            -38.4504274189      -36.4280434722      -74.7543743615  TIP3      9453            0.0000000000
     79875     10814  TIP3      OH2           -40.3029371304      -38.0789604497      -79.9466274066  TIP3      9454            0.0000000000
     79876     10814  TIP3      H1            -41.2075314114      -37.7556518485      -80.0970439812  TIP3      9454            0.0000000000
     79877     10814  TIP3      H2            -39.8535960339      -37.4116557069      -80.5065164382  TIP3      9454            0.0000000000
     79878     10815  TIP3      OH2            41.0612899607      -39.0277548823      -71.4769856501  TIP3      9455            0.0000000000
     79879     10815  TIP3      H1             40.3496394569      -39.4358595260      -70.9737519540  TIP3      9455            0.0000000000
     79880     10815  TIP3      H2             40.5536937485      -38.6666382137      -72.2324132212  TIP3      9455            0.0000000000
     79881     10816  TIP3      OH2           -38.2442482533      -25.9532675099      -67.5056141599  TIP3      9456            0.0000000000
     79882     10816  TIP3      H1            -39.0838243677      -25.8888736811      -67.9692844481  TIP3      9456            0.0000000000
     79883     10816  TIP3      H2            -38.5047289681      -26.0905400275      -66.5839841855  TIP3      9456            0.0000000000
     79884     10817  TIP3      OH2           -35.2866987509      -25.0420927972      -71.2125974410  TIP3      9457            0.0000000000
     79885     10817  TIP3      H1            -35.6495973141      -24.1937034530      -71.5089478588  TIP3      9457            0.0000000000
     79886     10817  TIP3      H2            -34.3704461701      -24.9376564927      -71.5593832632  TIP3      9457            0.0000000000
     79887     10818  TIP3      OH2           -31.0032248132      -23.5686399546      -68.3070270750  TIP3      9458            0.0000000000
     79888     10818  TIP3      H1            -30.8567015082      -23.9871192052      -67.4300669284  TIP3      9458            0.0000000000
     79889     10818  TIP3      H2            -30.0893191228      -23.3816557680      -68.5542207545  TIP3      9458            0.0000000000
     79890     10819  TIP3      OH2           -37.8946655094      -21.8045684745      -71.2104593388  TIP3      9459            0.0000000000
     79891     10819  TIP3      H1            -38.6140917617      -21.3221866158      -71.6562220052  TIP3      9459            0.0000000000
     79892     10819  TIP3      H2            -38.2706838554      -22.0248846950      -70.3547406169  TIP3      9459            0.0000000000
     79893     10820  TIP3      OH2           -35.4233572547      -22.1991961931      -72.1564476727  TIP3      9460            0.0000000000
     79894     10820  TIP3      H1            -36.3160098043      -22.0785304358      -71.7518034829  TIP3      9460            0.0000000000
     79895     10820  TIP3      H2            -35.5577542878      -21.6458652721      -72.9309135065  TIP3      9460            0.0000000000
     79896     10821  TIP3      OH2           -38.4862419670      -23.2126737012      -74.3126391739  TIP3      9461            0.0000000000
     79897     10821  TIP3      H1            -38.4584086242      -23.6050489762      -73.4313693943  TIP3      9461            0.0000000000
     79898     10821  TIP3      H2            -37.6461589754      -23.4819914354      -74.7101176124  TIP3      9461            0.0000000000
     79899     10822  TIP3      OH2           -36.3467591436      -24.4600528916      -75.6792775330  TIP3      9462            0.0000000000
     79900     10822  TIP3      H1            -36.5365829345      -25.3801661946      -75.4339522054  TIP3      9462            0.0000000000
     79901     10822  TIP3      H2            -35.5309792936      -24.2995673017      -75.1849131201  TIP3      9462            0.0000000000
     79902     10823  TIP3      OH2           -30.4979970825      -38.5888203652      -76.3720283655  TIP3      9463            0.0000000000
     79903     10823  TIP3      H1            -30.8717481947      -38.7919116435      -75.4789271261  TIP3      9463            0.0000000000
     79904     10823  TIP3      H2            -29.6017233159      -38.8456063531      -76.1746409104  TIP3      9463            0.0000000000
     79905     10824  TIP3      OH2           -38.0192048455      -39.2079244601      -77.6865244187  TIP3      9464            0.0000000000
     79906     10824  TIP3      H1            -38.6999571966      -39.6111159876      -78.2209912911  TIP3      9464            0.0000000000
     79907     10824  TIP3      H2            -37.4633682694      -40.0228857096      -77.6179064247  TIP3      9464            0.0000000000
     79908     10825  TIP3      OH2           -39.1861362986      -39.6734788065      -82.0989615992  TIP3      9465            0.0000000000
     79909     10825  TIP3      H1            -38.6502533777      -39.0979397502      -82.6696359717  TIP3      9465            0.0000000000
     79910     10825  TIP3      H2            -39.7729234408      -39.1522037097      -81.5611023852  TIP3      9465            0.0000000000
     79911     10826  TIP3      OH2           -33.4196648006      -39.7056379920      -77.9933377218  TIP3      9466            0.0000000000
     79912     10826  TIP3      H1            -32.5085117984      -39.3582005430      -78.0249078729  TIP3      9466            0.0000000000
     79913     10826  TIP3      H2            -33.4156351772      -39.9558932108      -77.0674713757  TIP3      9466            0.0000000000
     79914     10827  TIP3      OH2           -39.1314115239      -23.9218205555      -81.1210331937  TIP3      9467            0.0000000000
     79915     10827  TIP3      H1            -39.8728058073      -23.9848314947      -81.7432034349  TIP3      9467            0.0000000000
     79916     10827  TIP3      H2            -39.2046805456      -23.0070833545      -80.8533640317  TIP3      9467            0.0000000000
     79917     10828  TIP3      OH2           -37.3215898204      -38.0069822504      -83.5217636454  TIP3      9468            0.0000000000
     79918     10828  TIP3      H1            -36.7992183800      -38.5759254323      -84.0818271860  TIP3      9468            0.0000000000
     79919     10828  TIP3      H2            -36.6261528868      -37.6283577085      -82.9595852946  TIP3      9468            0.0000000000
     79920     10829  TIP3      OH2           -32.2919867031      -37.7261842879      -81.1283186568  TIP3      9469            0.0000000000
     79921     10829  TIP3      H1            -31.9964851819      -38.2861031261      -80.3820014362  TIP3      9469            0.0000000000
     79922     10829  TIP3      H2            -32.2420206635      -36.8649999266      -80.6575858989  TIP3      9469            0.0000000000
     79923     10830  TIP3      OH2           -38.1006410782      -39.0676659779      -68.1196033905  TIP3      9470            0.0000000000
     79924     10830  TIP3      H1            -38.3751224297      -40.0015503070      -68.0332303135  TIP3      9470            0.0000000000
     79925     10830  TIP3      H2            -37.1202319974      -39.1826776685      -68.0341627828  TIP3      9470            0.0000000000
     79926     10831  TIP3      OH2           -36.0003085297      -39.7350043604      -66.6294386431  TIP3      9471            0.0000000000
     79927     10831  TIP3      H1            -35.1451661660      -40.0469001440      -66.9786921366  TIP3      9471            0.0000000000
     79928     10831  TIP3      H2            -36.3683867331      -40.5859271992      -66.3529006779  TIP3      9471            0.0000000000
     79929     10832  TIP3      OH2           -27.5391772284      -40.3778465053      -66.5368160265  TIP3      9472            0.0000000000
     79930     10832  TIP3      H1            -27.4948913426      -40.9593006427      -65.7759452607  TIP3      9472            0.0000000000
     79931     10832  TIP3      H2            -26.6696608901      -40.5050835737      -66.9294139834  TIP3      9472            0.0000000000
     79932     10833  TIP3      OH2           -24.4345857470      -24.4037016903      -67.8727210719  TIP3      9473            0.0000000000
     79933     10833  TIP3      H1            -25.2402353383      -24.5564691908      -68.3894901774  TIP3      9473            0.0000000000
     79934     10833  TIP3      H2            -24.5202900212      -23.4440646631      -67.7019488927  TIP3      9473            0.0000000000
     79935     10834  TIP3      OH2           -10.0018512026      -30.5220195927      -77.8946866221  TIP3      9474            0.0000000000
     79936     10834  TIP3      H1             -9.9471116468      -29.5522782853      -77.9923880718  TIP3      9474            0.0000000000
     79937     10834  TIP3      H2            -10.6537060651      -30.7722971044      -78.5445245386  TIP3      9474            0.0000000000
     79938     10835  TIP3      OH2           -18.6910987191      -31.6253379730      -72.9194256301  TIP3      9475            0.0000000000
     79939     10835  TIP3      H1            -18.6957196290      -32.2554593616      -72.1687669472  TIP3      9475            0.0000000000
     79940     10835  TIP3      H2            -18.0228098383      -30.9970172008      -72.6209535029  TIP3      9475            0.0000000000
     79941     10836  TIP3      OH2            -7.4463746489      -28.3006407234      -76.1486207281  TIP3      9476            0.0000000000
     79942     10836  TIP3      H1             -7.8161208751      -29.0401255907      -75.6486890313  TIP3      9476            0.0000000000
     79943     10836  TIP3      H2             -7.3688327767      -27.6226975063      -75.4631509466  TIP3      9476            0.0000000000
     79944     10837  TIP3      OH2           -17.8403947953      -27.1626291544      -74.3024930563  TIP3      9477            0.0000000000
     79945     10837  TIP3      H1            -18.1514729539      -27.9979211288      -74.6908689331  TIP3      9477            0.0000000000
     79946     10837  TIP3      H2            -16.8953842385      -27.3473118769      -74.2692505255  TIP3      9477            0.0000000000
     79947     10838  TIP3      OH2           -21.1756630997      -33.5773016079      -78.8955353405  TIP3      9478            0.0000000000
     79948     10838  TIP3      H1            -21.6221407389      -32.7159028226      -78.9626091377  TIP3      9478            0.0000000000
     79949     10838  TIP3      H2            -21.7332292859      -34.1383407724      -79.4365312302  TIP3      9478            0.0000000000
     79950     10839  TIP3      OH2           -20.4634622066      -31.3596154033      -76.7365656199  TIP3      9479            0.0000000000
     79951     10839  TIP3      H1            -20.2370867691      -32.1985202826      -76.2820743030  TIP3      9479            0.0000000000
     79952     10839  TIP3      H2            -19.7638242476      -31.2712186859      -77.3998273421  TIP3      9479            0.0000000000
     79953     10840  TIP3      OH2            -9.4232408996      -34.4305821918      -73.7029527800  TIP3      9480            0.0000000000
     79954     10840  TIP3      H1             -9.4638011893      -35.3871778945      -73.6832235480  TIP3      9480            0.0000000000
     79955     10840  TIP3      H2             -9.7316885691      -34.2505867425      -74.5954631149  TIP3      9480            0.0000000000
     79956     10841  TIP3      OH2           -16.4451160250      -36.3091625519      -76.4126474520  TIP3      9481            0.0000000000
     79957     10841  TIP3      H1            -16.3417706017      -35.4727900855      -76.8978354109  TIP3      9481            0.0000000000
     79958     10841  TIP3      H2            -16.8650778053      -36.8861673674      -77.0846441837  TIP3      9481            0.0000000000
     79959     10842  TIP3      OH2           -19.7768753652      -33.8367811487      -75.6702484690  TIP3      9482            0.0000000000
     79960     10842  TIP3      H1            -19.1741591555      -34.4616738733      -75.2322704325  TIP3      9482            0.0000000000
     79961     10842  TIP3      H2            -19.7643258778      -34.2171589887      -76.5636861351  TIP3      9482            0.0000000000
     79962     10843  TIP3      OH2            -3.6820381825      -35.8350968548      -70.9299320105  TIP3      9483            0.0000000000
     79963     10843  TIP3      H1             -4.2958636257      -35.0912270878      -71.0746748451  TIP3      9483            0.0000000000
     79964     10843  TIP3      H2             -3.6609101008      -35.9209675308      -69.9778369750  TIP3      9483            0.0000000000
     79965     10844  TIP3      OH2           -17.5428203714      -37.3791460871      -72.3607313687  TIP3      9484            0.0000000000
     79966     10844  TIP3      H1            -17.8596025798      -36.8726423542      -73.1412721220  TIP3      9484            0.0000000000
     79967     10844  TIP3      H2            -18.2516772430      -37.1853111878      -71.6987639972  TIP3      9484            0.0000000000
     79968     10845  TIP3      OH2           -10.2106552123      -27.9135062228      -78.8018958450  TIP3      9485            0.0000000000
     79969     10845  TIP3      H1            -10.5408772693      -28.2096960177      -79.6548886242  TIP3      9485            0.0000000000
     79970     10845  TIP3      H2            -10.5611658943      -27.0137907044      -78.7617244901  TIP3      9485            0.0000000000
     79971     10846  TIP3      OH2           -18.0147818704      -35.6175732999      -74.3938951583  TIP3      9486            0.0000000000
     79972     10846  TIP3      H1            -17.4069636338      -34.9205867778      -74.0510902440  TIP3      9486            0.0000000000
     79973     10846  TIP3      H2            -17.4535470613      -35.9925700932      -75.1099557302  TIP3      9486            0.0000000000
     79974     10847  TIP3      OH2           -16.6112098006      -27.7811384297      -71.3781548952  TIP3      9487            0.0000000000
     79975     10847  TIP3      H1            -16.6272561290      -26.8795190431      -71.6949386879  TIP3      9487            0.0000000000
     79976     10847  TIP3      H2            -17.4635297304      -27.8449159826      -70.8816096758  TIP3      9487            0.0000000000
     79977     10848  TIP3      OH2           -20.5344822953      -28.1099124156      -80.5288172986  TIP3      9488            0.0000000000
     79978     10848  TIP3      H1            -20.7772945298      -27.8115980006      -81.4253095997  TIP3      9488            0.0000000000
     79979     10848  TIP3      H2            -20.4112224025      -27.2902189795      -80.0168756728  TIP3      9488            0.0000000000
     79980     10849  TIP3      OH2            -6.8795676848      -26.4808618710      -73.7462926261  TIP3      9489            0.0000000000
     79981     10849  TIP3      H1             -7.8207165675      -26.3637373232      -73.6665585846  TIP3      9489            0.0000000000
     79982     10849  TIP3      H2             -6.5994055001      -25.5758566408      -73.9814954497  TIP3      9489            0.0000000000
     79983     10850  TIP3      OH2            -6.5409288323      -38.1909112938      -72.3369411017  TIP3      9490            0.0000000000
     79984     10850  TIP3      H1             -7.2773536276      -37.5832184717      -72.4434558415  TIP3      9490            0.0000000000
     79985     10850  TIP3      H2             -5.8803295166      -37.7852979280      -72.9043872326  TIP3      9490            0.0000000000
     79986     10851  TIP3      OH2           -13.6752566344      -40.0828946255      -75.1056996855  TIP3      9491            0.0000000000
     79987     10851  TIP3      H1            -13.6722088955      -41.0288430721      -74.9439651470  TIP3      9491            0.0000000000
     79988     10851  TIP3      H2            -14.4669362280      -39.7771841722      -74.6498063705  TIP3      9491            0.0000000000
     79989     10852  TIP3      OH2            -8.6509369549      -24.6970912376      -77.1366284692  TIP3      9492            0.0000000000
     79990     10852  TIP3      H1             -8.1939803795      -25.3871656779      -77.6593081270  TIP3      9492            0.0000000000
     79991     10852  TIP3      H2             -8.2743859491      -23.9096521015      -77.5726108128  TIP3      9492            0.0000000000
     79992     10853  TIP3      OH2            -7.4252425343      -26.7697077511      -78.6611088115  TIP3      9493            0.0000000000
     79993     10853  TIP3      H1             -7.7262970800      -27.4497764986      -79.2885818799  TIP3      9493            0.0000000000
     79994     10853  TIP3      H2             -7.3983421266      -27.2781059077      -77.8346023426  TIP3      9493            0.0000000000
     79995     10854  TIP3      OH2            -5.8324763449      -28.1599276981      -70.1519122391  TIP3      9494            0.0000000000
     79996     10854  TIP3      H1             -5.6840533428      -28.8241084084      -70.8632602730  TIP3      9494            0.0000000000
     79997     10854  TIP3      H2             -5.5994256263      -27.3363722640      -70.6143127128  TIP3      9494            0.0000000000
     79998     10855  TIP3      OH2            -3.9142595396      -31.8676372065      -72.1384183179  TIP3      9495            0.0000000000
     79999     10855  TIP3      H1             -4.5815284772      -31.1557984332      -72.0935105708  TIP3      9495            0.0000000000
     80000     10855  TIP3      H2             -3.4194551362      -31.6309531789      -72.9475427740  TIP3      9495            0.0000000000
     80001     10856  TIP3      OH2           -16.2431143790      -30.4321777181      -77.5452571351  TIP3      9496            0.0000000000
     80002     10856  TIP3      H1            -16.5702859539      -30.7915293896      -78.4035682908  TIP3      9496            0.0000000000
     80003     10856  TIP3      H2            -15.6338332563      -31.1164739111      -77.2624666448  TIP3      9496            0.0000000000
     80004     10857  TIP3      OH2           -18.0670588848      -31.1234510681      -70.0312265365  TIP3      9497            0.0000000000
     80005     10857  TIP3      H1            -17.9867045801      -30.4388474157      -69.3391695962  TIP3      9497            0.0000000000
     80006     10857  TIP3      H2            -18.9862690492      -30.9662056086      -70.2761016475  TIP3      9497            0.0000000000
     80007     10858  TIP3      OH2            -5.3869053440      -40.1415941740      -82.1192650859  TIP3      9498            0.0000000000
     80008     10858  TIP3      H1             -6.2103955968      -40.0163012466      -81.6399588391  TIP3      9498            0.0000000000
     80009     10858  TIP3      H2             -5.0666364618      -39.2461870054      -82.3436480830  TIP3      9498            0.0000000000
     80010     10859  TIP3      OH2           -17.3069201417      -31.3486025489      -79.9120199830  TIP3      9499            0.0000000000
     80011     10859  TIP3      H1            -17.5547932419      -30.6177926481      -80.5071191480  TIP3      9499            0.0000000000
     80012     10859  TIP3      H2            -17.9168372662      -32.0390508578      -80.1788290732  TIP3      9499            0.0000000000
     80013     10860  TIP3      OH2            -4.1408299243      -25.8095914215      -83.5779592438  TIP3      9500            0.0000000000
     80014     10860  TIP3      H1             -4.0237895302      -24.8602444894      -83.4025268204  TIP3      9500            0.0000000000
     80015     10860  TIP3      H2             -3.2184245439      -26.1064691387      -83.6105655875  TIP3      9500            0.0000000000
     80016     10861  TIP3      OH2           -21.2590100371      -28.9636152535      -71.0627392778  TIP3      9501            0.0000000000
     80017     10861  TIP3      H1            -21.6433094940      -29.0445991893      -71.9480348069  TIP3      9501            0.0000000000
     80018     10861  TIP3      H2            -21.1095690816      -29.9093638893      -70.8570060365  TIP3      9501            0.0000000000
     80019     10862  TIP3      OH2           -21.4086952513      -26.2581153294      -74.2557947623  TIP3      9502            0.0000000000
     80020     10862  TIP3      H1            -20.4480855224      -26.3242418153      -74.3361177120  TIP3      9502            0.0000000000
     80021     10862  TIP3      H2            -21.4781293495      -25.4307204296      -73.7686373219  TIP3      9502            0.0000000000
     80022     10863  TIP3      OH2            -3.2136284199      -25.5355807610      -68.6258819524  TIP3      9503            0.0000000000
     80023     10863  TIP3      H1             -3.2952511083      -26.4992092056      -68.6346546906  TIP3      9503            0.0000000000
     80024     10863  TIP3      H2             -4.0477685554      -25.2716342958      -68.2012557978  TIP3      9503            0.0000000000
     80025     10864  TIP3      OH2           -18.2202192221      -23.3385407808      -78.1107531135  TIP3      9504            0.0000000000
     80026     10864  TIP3      H1            -18.0103122293      -23.7625779272      -77.2729129255  TIP3      9504            0.0000000000
     80027     10864  TIP3      H2            -18.9974369915      -23.8305013862      -78.3678734922  TIP3      9504            0.0000000000
     80028     10865  TIP3      OH2            -6.0629928593      -34.0538475062      -68.0977756728  TIP3      9505            0.0000000000
     80029     10865  TIP3      H1             -6.4961849773      -33.5870791562      -68.8223486088  TIP3      9505            0.0000000000
     80030     10865  TIP3      H2             -6.0450926435      -34.9723984250      -68.4180342334  TIP3      9505            0.0000000000
     80031     10866  TIP3      OH2           -18.9087158108      -27.6547584074      -70.1220604010  TIP3      9506            0.0000000000
     80032     10866  TIP3      H1            -18.6982206213      -28.0046901366      -69.2345425868  TIP3      9506            0.0000000000
     80033     10866  TIP3      H2            -19.7686920548      -28.0594446322      -70.3351309850  TIP3      9506            0.0000000000
     80034     10867  TIP3      OH2           -16.2514065792      -39.1934092961      -74.1370423452  TIP3      9507            0.0000000000
     80035     10867  TIP3      H1            -17.1443006994      -39.2254301845      -74.5436012995  TIP3      9507            0.0000000000
     80036     10867  TIP3      H2            -16.3366723449      -38.3558600269      -73.6555043135  TIP3      9507            0.0000000000
     80037     10868  TIP3      OH2           -16.3065899879      -34.2754034878      -73.0878520987  TIP3      9508            0.0000000000
     80038     10868  TIP3      H1            -16.8761096043      -34.2698192321      -72.2949874826  TIP3      9508            0.0000000000
     80039     10868  TIP3      H2            -16.2165776457      -33.3314879335      -73.2702133788  TIP3      9508            0.0000000000
     80040     10869  TIP3      OH2           -16.1813056503      -34.0668057451      -78.0759522313  TIP3      9509            0.0000000000
     80041     10869  TIP3      H1            -17.1225240932      -34.3173136356      -78.2004561931  TIP3      9509            0.0000000000
     80042     10869  TIP3      H2            -15.7834231934      -34.3830878713      -78.9022682647  TIP3      9509            0.0000000000
     80043     10870  TIP3      OH2           -18.4194866950      -33.9666203895      -71.2081200927  TIP3      9510            0.0000000000
     80044     10870  TIP3      H1            -18.4738036668      -33.5271553051      -70.3439864570  TIP3      9510            0.0000000000
     80045     10870  TIP3      H2            -18.9325110341      -34.7691324365      -71.0373046597  TIP3      9510            0.0000000000
     80046     10871  TIP3      OH2           -21.8489425535      -36.7904632799      -77.3157925201  TIP3      9511            0.0000000000
     80047     10871  TIP3      H1            -21.2390110843      -36.8415768955      -76.5488895279  TIP3      9511            0.0000000000
     80048     10871  TIP3      H2            -21.3475015570      -37.2291305015      -77.9935294022  TIP3      9511            0.0000000000
     80049     10872  TIP3      OH2           -18.7832523136      -34.9942218499      -78.2108563400  TIP3      9512            0.0000000000
     80050     10872  TIP3      H1            -19.6891235855      -34.8307001922      -78.5429853975  TIP3      9512            0.0000000000
     80051     10872  TIP3      H2            -18.5380655388      -35.8476832715      -78.6033102658  TIP3      9512            0.0000000000
     80052     10873  TIP3      OH2           -15.1577179135      -34.9714936467      -80.5900667315  TIP3      9513            0.0000000000
     80053     10873  TIP3      H1            -14.2211841715      -34.8156823325      -80.3840382692  TIP3      9513            0.0000000000
     80054     10873  TIP3      H2            -15.3702880770      -34.2426803570      -81.1941337884  TIP3      9513            0.0000000000
     80055     10874  TIP3      OH2            -5.9514914226      -21.6804183360      -67.4492242723  TIP3      9514            0.0000000000
     80056     10874  TIP3      H1             -5.7416814024      -21.2647926707      -68.3138438960  TIP3      9514            0.0000000000
     80057     10874  TIP3      H2             -5.2517968219      -21.3113801856      -66.8806717299  TIP3      9514            0.0000000000
     80058     10875  TIP3      OH2           -18.2878826749      -29.2013824860      -67.9168682696  TIP3      9515            0.0000000000
     80059     10875  TIP3      H1            -17.6163786997      -28.9467522124      -67.2658413065  TIP3      9515            0.0000000000
     80060     10875  TIP3      H2            -19.0935401367      -29.0930067896      -67.3588199985  TIP3      9515            0.0000000000
     80061     10876  TIP3      OH2           -17.2691088312      -37.6226760902      -78.7242659416  TIP3      9516            0.0000000000
     80062     10876  TIP3      H1            -17.6436358758      -38.5189890745      -78.7268627212  TIP3      9516            0.0000000000
     80063     10876  TIP3      H2            -16.5130579063      -37.6704646889      -79.3099032452  TIP3      9516            0.0000000000
     80064     10877  TIP3      OH2            -5.9315300344      -29.9918799021      -72.2349918114  TIP3      9517            0.0000000000
     80065     10877  TIP3      H1             -5.3383382395      -29.5662823369      -72.8830101085  TIP3      9517            0.0000000000
     80066     10877  TIP3      H2             -6.7845310394      -29.9862636705      -72.7208286200  TIP3      9517            0.0000000000
     80067     10878  TIP3      OH2           -17.9964749459      -29.8354466012      -75.2547027969  TIP3      9518            0.0000000000
     80068     10878  TIP3      H1            -17.2952576840      -29.9045754046      -75.9342039507  TIP3      9518            0.0000000000
     80069     10878  TIP3      H2            -17.9716743723      -30.6935010895      -74.8046112127  TIP3      9518            0.0000000000
     80070     10879  TIP3      OH2           -21.0030427319      -31.4274625642      -69.9747449099  TIP3      9519            0.0000000000
     80071     10879  TIP3      H1            -20.8222903872      -31.8661203372      -69.1231045841  TIP3      9519            0.0000000000
     80072     10879  TIP3      H2            -21.6303500199      -32.0268754205      -70.4323210712  TIP3      9519            0.0000000000
     80073     10880  TIP3      OH2            -3.5831209088      -34.3422663946      -81.4742128733  TIP3      9520            0.0000000000
     80074     10880  TIP3      H1             -4.1904195215      -34.6446276853      -82.1774111456  TIP3      9520            0.0000000000
     80075     10880  TIP3      H2             -3.5542903735      -33.4026044917      -81.7395780820  TIP3      9520            0.0000000000
     80076     10881  TIP3      OH2            -3.6279558525      -28.4350630353      -68.6403933618  TIP3      9521            0.0000000000
     80077     10881  TIP3      H1             -4.5157083898      -28.2683214937      -69.0309925213  TIP3      9521            0.0000000000
     80078     10881  TIP3      H2             -3.0842325412      -28.5413935518      -69.4529258585  TIP3      9521            0.0000000000
     80079     10882  TIP3      OH2            -5.3307825142      -25.5318310029      -81.0715733399  TIP3      9522            0.0000000000
     80080     10882  TIP3      H1             -5.7150120155      -26.3374910872      -80.7093536282  TIP3      9522            0.0000000000
     80081     10882  TIP3      H2             -5.0680177767      -25.7621685731      -81.9742552055  TIP3      9522            0.0000000000
     80082     10883  TIP3      OH2            -8.1316194528      -30.6744591241      -73.9891425420  TIP3      9523            0.0000000000
     80083     10883  TIP3      H1             -9.0690334685      -30.9156710315      -74.0463310099  TIP3      9523            0.0000000000
     80084     10883  TIP3      H2             -7.7165250598      -31.4843358873      -74.3578830272  TIP3      9523            0.0000000000
     80085     10884  TIP3      OH2           -19.8565013493      -31.5112777180      -83.3551044769  TIP3      9524            0.0000000000
     80086     10884  TIP3      H1            -19.2584623397      -30.9065496751      -82.8976144634  TIP3      9524            0.0000000000
     80087     10884  TIP3      H2            -20.7374676568      -31.2857093887      -83.0154119669  TIP3      9524            0.0000000000
     80088     10885  TIP3      OH2            -7.4342696818      -23.9576311027      -69.8237121515  TIP3      9525            0.0000000000
     80089     10885  TIP3      H1             -8.1414724576      -24.3965461900      -70.3231263481  TIP3      9525            0.0000000000
     80090     10885  TIP3      H2             -7.2204363607      -23.2395743964      -70.4661280728  TIP3      9525            0.0000000000
     80091     10886  TIP3      OH2           -19.3815739575      -36.7308224436      -70.4200297983  TIP3      9526            0.0000000000
     80092     10886  TIP3      H1            -20.2780277181      -36.3808039359      -70.4351019934  TIP3      9526            0.0000000000
     80093     10886  TIP3      H2            -19.4882111623      -37.5912872171      -69.9638029895  TIP3      9526            0.0000000000
     80094     10887  TIP3      OH2            -7.0854870454      -28.8477275209      -80.9694886225  TIP3      9527            0.0000000000
     80095     10887  TIP3      H1             -7.3344741497      -29.6223095549      -80.4516896980  TIP3      9527            0.0000000000
     80096     10887  TIP3      H2             -6.1406234989      -28.7779606078      -80.7880340286  TIP3      9527            0.0000000000
     80097     10888  TIP3      OH2           -19.7360816369      -24.9128096891      -72.0193759438  TIP3      9528            0.0000000000
     80098     10888  TIP3      H1            -19.5061180481      -25.8469616173      -71.9779802744  TIP3      9528            0.0000000000
     80099     10888  TIP3      H2            -19.5107869764      -24.6055862633      -71.1305094719  TIP3      9528            0.0000000000
     80100     10889  TIP3      OH2           -18.4858334155      -29.5637395385      -81.8750331472  TIP3      9529            0.0000000000
     80101     10889  TIP3      H1            -19.1253649674      -29.2265415958      -81.2148311278  TIP3      9529            0.0000000000
     80102     10889  TIP3      H2            -17.8966120016      -28.8133526501      -82.0227538124  TIP3      9529            0.0000000000
     80103     10890  TIP3      OH2           -16.2397676961      -37.4906653652      -81.7636898912  TIP3      9530            0.0000000000
     80104     10890  TIP3      H1            -16.2307936871      -36.5319190907      -81.5927431367  TIP3      9530            0.0000000000
     80105     10890  TIP3      H2            -15.2997861492      -37.6795458278      -81.7476701218  TIP3      9530            0.0000000000
     80106     10891  TIP3      OH2            -5.9473653590      -36.6861264079      -69.5407484248  TIP3      9531            0.0000000000
     80107     10891  TIP3      H1             -6.8564985544      -36.4098540141      -69.6684320643  TIP3      9531            0.0000000000
     80108     10891  TIP3      H2             -5.5905682794      -36.7252642277      -70.4519867713  TIP3      9531            0.0000000000
     80109     10892  TIP3      OH2            -7.2920673228      -32.9203795702      -75.4958433097  TIP3      9532            0.0000000000
     80110     10892  TIP3      H1             -8.1103172973      -33.3353347444      -75.7830577070  TIP3      9532            0.0000000000
     80111     10892  TIP3      H2             -6.8215836829      -33.6042045863      -74.9725934065  TIP3      9532            0.0000000000
     80112     10893  TIP3      OH2            -6.2746833223      -23.6586243580      -73.8323322016  TIP3      9533            0.0000000000
     80113     10893  TIP3      H1             -6.3524830718      -23.0008571899      -74.5519184403  TIP3      9533            0.0000000000
     80114     10893  TIP3      H2             -5.3024953872      -23.6159264808      -73.6762729692  TIP3      9533            0.0000000000
     80115     10894  TIP3      OH2           -18.7902425640      -39.4408884100      -75.0790924216  TIP3      9534            0.0000000000
     80116     10894  TIP3      H1            -19.0054745505      -39.4210204243      -76.0330674254  TIP3      9534            0.0000000000
     80117     10894  TIP3      H2            -19.1438266461      -40.3124805553      -74.8134470747  TIP3      9534            0.0000000000
     80118     10895  TIP3      OH2           -19.8095748240      -25.6172759418      -78.9643500322  TIP3      9535            0.0000000000
     80119     10895  TIP3      H1            -20.6210260914      -25.1086595323      -78.9298734710  TIP3      9535            0.0000000000
     80120     10895  TIP3      H2            -19.2347833149      -25.1529367455      -79.5812334275  TIP3      9535            0.0000000000
     80121     10896  TIP3      OH2           -20.5748031612      -22.9587130252      -67.5820286301  TIP3      9536            0.0000000000
     80122     10896  TIP3      H1            -19.9697081775      -23.1847576434      -66.8536360778  TIP3      9536            0.0000000000
     80123     10896  TIP3      H2            -20.9832677118      -23.8151971888      -67.8094310796  TIP3      9536            0.0000000000
     80124     10897  TIP3      OH2           -15.9188133251      -24.0601545316      -66.0092681598  TIP3      9537            0.0000000000
     80125     10897  TIP3      H1            -15.1375296257      -24.5179649915      -65.6700814570  TIP3      9537            0.0000000000
     80126     10897  TIP3      H2            -15.8986599561      -24.3163327719      -66.9345114545  TIP3      9537            0.0000000000
     80127     10898  TIP3      OH2            -9.2852937279      -25.7622064122      -67.3739445998  TIP3      9538            0.0000000000
     80128     10898  TIP3      H1             -9.7616637808      -26.5355030080      -67.0180023086  TIP3      9538            0.0000000000
     80129     10898  TIP3      H2             -8.6690941407      -25.5242918775      -66.6718410361  TIP3      9538            0.0000000000
     80130     10899  TIP3      OH2            -7.2191939016      -24.7701175050      -84.3673830589  TIP3      9539            0.0000000000
     80131     10899  TIP3      H1             -6.9047196448      -25.5560558267      -83.9168253511  TIP3      9539            0.0000000000
     80132     10899  TIP3      H2             -6.4893179737      -24.5335027511      -84.9422958550  TIP3      9539            0.0000000000
     80133     10900  TIP3      OH2           -20.6581944534      -29.1916601666      -66.6286125667  TIP3      9540            0.0000000000
     80134     10900  TIP3      H1            -20.4776892951      -30.0922450014      -66.9569302157  TIP3      9540            0.0000000000
     80135     10900  TIP3      H2            -21.3929374403      -28.9156220491      -67.2064242524  TIP3      9540            0.0000000000
     80136     10901  TIP3      OH2           -14.0039174192      -29.2313058347      -67.2075134677  TIP3      9541            0.0000000000
     80137     10901  TIP3      H1            -14.2634548582      -28.9323226175      -68.0928463380  TIP3      9541            0.0000000000
     80138     10901  TIP3      H2            -13.7866884004      -30.1635348190      -67.3475079617  TIP3      9541            0.0000000000
     80139     10902  TIP3      OH2            -8.2803458697      -29.3396438215      -69.8895181941  TIP3      9542            0.0000000000
     80140     10902  TIP3      H1             -7.4619066914      -28.7980846476      -69.9291778956  TIP3      9542            0.0000000000
     80141     10902  TIP3      H2             -8.9613841212      -28.6822788306      -69.7671304886  TIP3      9542            0.0000000000
     80142     10903  TIP3      OH2           -19.7335683303      -31.9657469275      -67.2296333601  TIP3      9543            0.0000000000
     80143     10903  TIP3      H1            -19.3476898762      -32.8420610167      -67.3196826165  TIP3      9543            0.0000000000
     80144     10903  TIP3      H2            -19.9891046009      -31.9504445666      -66.2871570192  TIP3      9543            0.0000000000
     80145     10904  TIP3      OH2           -10.7983480900      -30.4615276787      -66.5250452803  TIP3      9544            0.0000000000
     80146     10904  TIP3      H1             -9.8398470672      -30.4769618501      -66.6640517477  TIP3      9544            0.0000000000
     80147     10904  TIP3      H2            -10.9519355561      -31.2295241773      -65.9588492081  TIP3      9544            0.0000000000
     80148     10905  TIP3      OH2           -15.4995807239      -35.6483110465      -68.8524934098  TIP3      9545            0.0000000000
     80149     10905  TIP3      H1            -15.2932901382      -36.3788131247      -69.4459708653  TIP3      9545            0.0000000000
     80150     10905  TIP3      H2            -15.4529832093      -34.8704746514      -69.3977774752  TIP3      9545            0.0000000000
     80151     10906  TIP3      OH2           -15.0173879788      -37.2422149319      -71.3376360903  TIP3      9546            0.0000000000
     80152     10906  TIP3      H1            -14.5337164607      -36.7780987293      -72.0232569335  TIP3      9546            0.0000000000
     80153     10906  TIP3      H2            -15.9275513244      -37.3571150936      -71.7034436671  TIP3      9546            0.0000000000
     80154     10907  TIP3      OH2            -9.0845585369      -34.0125258635      -65.9901913732  TIP3      9547            0.0000000000
     80155     10907  TIP3      H1             -8.8986333026      -34.9531759818      -66.1332140883  TIP3      9547            0.0000000000
     80156     10907  TIP3      H2             -8.2183290026      -33.5893638980      -66.0648615631  TIP3      9547            0.0000000000
     80157     10908  TIP3      OH2            -7.7326800797      -31.2114987725      -67.8711638530  TIP3      9548            0.0000000000
     80158     10908  TIP3      H1             -8.0381357443      -30.5630081399      -68.5445706197  TIP3      9548            0.0000000000
     80159     10908  TIP3      H2             -6.7754865629      -31.2480449023      -68.0882827896  TIP3      9548            0.0000000000
     80160     10909  TIP3      OH2           -16.9728488253      -34.4004401415      -66.8806221064  TIP3      9549            0.0000000000
     80161     10909  TIP3      H1            -17.7489281995      -34.9639185065      -67.0750366366  TIP3      9549            0.0000000000
     80162     10909  TIP3      H2            -16.3263829834      -34.8024871754      -67.4921635862  TIP3      9549            0.0000000000
     80163     10910  TIP3      OH2           -14.4928861727      -39.7953405865      -70.8208396898  TIP3      9550            0.0000000000
     80164     10910  TIP3      H1            -14.4134503977      -38.8363170452      -70.9962672177  TIP3      9550            0.0000000000
     80165     10910  TIP3      H2            -15.1323109142      -40.1149871990      -71.4404741988  TIP3      9550            0.0000000000
     80166     10911  TIP3      OH2            -8.6467977076      -37.7144988852      -66.2513736142  TIP3      9551            0.0000000000
     80167     10911  TIP3      H1             -8.7595590216      -38.6830834419      -66.2521533072  TIP3      9551            0.0000000000
     80168     10911  TIP3      H2             -8.9815642088      -37.4267621161      -65.3736957175  TIP3      9551            0.0000000000
     80169     10912  TIP3      OH2           -18.8489395949      -36.4730848417      -67.1611828419  TIP3      9552            0.0000000000
     80170     10912  TIP3      H1            -18.6528299488      -37.2202603517      -67.7500252531  TIP3      9552            0.0000000000
     80171     10912  TIP3      H2            -18.9531355711      -36.9171867207      -66.2972902327  TIP3      9552            0.0000000000
     80172     10913  TIP3      OH2           -13.9760114113      -40.0564905980      -68.3339606122  TIP3      9553            0.0000000000
     80173     10913  TIP3      H1            -13.3405247968      -40.7964599579      -68.2834742249  TIP3      9553            0.0000000000
     80174     10913  TIP3      H2            -14.1524378885      -40.1047584009      -69.2976458510  TIP3      9553            0.0000000000
     80175     10914  TIP3      OH2           -13.7245376781      -38.8626025388      -66.0184682264  TIP3      9554            0.0000000000
     80176     10914  TIP3      H1            -13.7944215312      -39.2609607307      -66.9177076173  TIP3      9554            0.0000000000
     80177     10914  TIP3      H2            -14.2289471348      -38.0353127386      -66.1586814033  TIP3      9554            0.0000000000
     80178     10915  TIP3      OH2           -20.5772259847      -27.4349585120      -83.3433113203  TIP3      9555            0.0000000000
     80179     10915  TIP3      H1            -19.6450277149      -27.2091895054      -83.2597774101  TIP3      9555            0.0000000000
     80180     10915  TIP3      H2            -20.6042115506      -27.9144951333      -84.1837495890  TIP3      9555            0.0000000000
     80181     10916  TIP3      OH2            -3.5447320316      -23.0143149558      -73.6242920192  TIP3      9556            0.0000000000
     80182     10916  TIP3      H1             -3.4884703439      -22.8587420601      -72.6683405792  TIP3      9556            0.0000000000
     80183     10916  TIP3      H2             -2.8494797418      -22.4238832619      -73.9306838374  TIP3      9556            0.0000000000
     80184     10917  TIP3      OH2            -3.9641318589      -23.4195898261      -70.6800830008  TIP3      9557            0.0000000000
     80185     10917  TIP3      H1             -4.4022905597      -24.1915416614      -71.0902551507  TIP3      9557            0.0000000000
     80186     10917  TIP3      H2             -3.3942865625      -23.8681904808      -70.0301965623  TIP3      9557            0.0000000000
     80187     10918  TIP3      OH2            -5.4803509239      -27.8631716789      -66.0970273833  TIP3      9558            0.0000000000
     80188     10918  TIP3      H1             -6.3590711572      -27.8931792493      -65.6564815470  TIP3      9558            0.0000000000
     80189     10918  TIP3      H2             -4.9300264880      -27.2361477563      -65.5918006054  TIP3      9558            0.0000000000
     80190     10919  TIP3      OH2            -4.1687250738      -29.3884036719      -80.5910788399  TIP3      9559            0.0000000000
     80191     10919  TIP3      H1             -3.3136167904      -28.9874134976      -80.3716343927  TIP3      9559            0.0000000000
     80192     10919  TIP3      H2             -4.2059780222      -30.1233413641      -79.9321200538  TIP3      9559            0.0000000000
     80193     10920  TIP3      OH2            -3.8040792315      -31.3029176445      -78.7161271167  TIP3      9560            0.0000000000
     80194     10920  TIP3      H1             -4.5564846521      -31.8426985678      -78.3650296533  TIP3      9560            0.0000000000
     80195     10920  TIP3      H2             -3.2105509644      -31.1840621515      -77.9566474737  TIP3      9560            0.0000000000
     80196     10921  TIP3      OH2            -4.0283986802      -28.5875544557      -73.7317429174  TIP3      9561            0.0000000000
     80197     10921  TIP3      H1             -3.2159357982      -28.9576284943      -74.1183854325  TIP3      9561            0.0000000000
     80198     10921  TIP3      H2             -3.8900647299      -27.6342755286      -73.9002068183  TIP3      9561            0.0000000000
     80199     10922  TIP3      OH2            -5.5237997904      -25.6880798844      -71.4624118299  TIP3      9562            0.0000000000
     80200     10922  TIP3      H1             -6.2065101460      -25.3325261609      -70.8755174389  TIP3      9562            0.0000000000
     80201     10922  TIP3      H2             -6.0588886732      -26.0861046353      -72.1796576245  TIP3      9562            0.0000000000
     80202     10923  TIP3      OH2            -3.5272175447      -31.4467892430      -82.3397102946  TIP3      9563            0.0000000000
     80203     10923  TIP3      H1             -4.1075069689      -31.1443560277      -83.0418518267  TIP3      9563            0.0000000000
     80204     10923  TIP3      H2             -3.6337403207      -30.7665181092      -81.6474598981  TIP3      9563            0.0000000000
     80205     10924  TIP3      OH2            -5.1436928934      -34.2629672664      -83.7520128504  TIP3      9564            0.0000000000
     80206     10924  TIP3      H1             -5.0524069681      -33.5820635562      -84.4273084355  TIP3      9564            0.0000000000
     80207     10924  TIP3      H2             -5.3537869058      -35.0412174573      -84.2733840699  TIP3      9564            0.0000000000
     80208     10925  TIP3      OH2            -6.0014565131      -32.7850063023      -78.1014593370  TIP3      9565            0.0000000000
     80209     10925  TIP3      H1             -6.1859179558      -33.7338807884      -78.2223855579  TIP3      9565            0.0000000000
     80210     10925  TIP3      H2             -6.3994731926      -32.5732748013      -77.2487221327  TIP3      9565            0.0000000000
     80211     10926  TIP3      OH2           -21.0208884189      -30.7032665667      -74.1006176185  TIP3      9566            0.0000000000
     80212     10926  TIP3      H1            -20.8170849652      -30.8295383956      -75.0515262722  TIP3      9566            0.0000000000
     80213     10926  TIP3      H2            -20.1393849629      -30.9276151860      -73.7327182107  TIP3      9566            0.0000000000
     80214     10927  TIP3      OH2            -5.1392359707      -30.8428548388      -68.4453174696  TIP3      9567            0.0000000000
     80215     10927  TIP3      H1             -4.5318307261      -31.6021320518      -68.3171466317  TIP3      9567            0.0000000000
     80216     10927  TIP3      H2             -4.5300038332      -30.0821984564      -68.4658222467  TIP3      9567            0.0000000000
     80217     10928  TIP3      OH2            -3.6471837042      -32.9642855158      -67.8184693416  TIP3      9568            0.0000000000
     80218     10928  TIP3      H1             -4.5280662235      -33.3627125170      -67.9642791071  TIP3      9568            0.0000000000
     80219     10928  TIP3      H2             -3.0631929577      -33.7430847635      -67.8860879982  TIP3      9568            0.0000000000
     80220     10929  TIP3      OH2            -6.3017357593      -35.2391447057      -79.6293788918  TIP3      9569            0.0000000000
     80221     10929  TIP3      H1             -6.0215473550      -36.1526948012      -79.6229065946  TIP3      9569            0.0000000000
     80222     10929  TIP3      H2             -5.5869265145      -34.8013115554      -80.1155442003  TIP3      9569            0.0000000000
     80223     10930  TIP3      OH2            -5.6985116991      -34.7007161661      -74.2233749724  TIP3      9570            0.0000000000
     80224     10930  TIP3      H1             -4.7389641672      -34.4457097493      -74.2578442509  TIP3      9570            0.0000000000
     80225     10930  TIP3      H2             -5.8865015234      -34.5567780398      -73.2873152459  TIP3      9570            0.0000000000
     80226     10931  TIP3      OH2            -5.6888193549      -33.9299950825      -71.4427407017  TIP3      9571            0.0000000000
     80227     10931  TIP3      H1             -6.5416712741      -33.5981651558      -71.1584219404  TIP3      9571            0.0000000000
     80228     10931  TIP3      H2             -5.1956288835      -33.1115793024      -71.7037906161  TIP3      9571            0.0000000000
     80229     10932  TIP3      OH2            -3.1704583179      -39.8525731934      -66.0659460615  TIP3      9572            0.0000000000
     80230     10932  TIP3      H1             -3.1112574559      -40.5626060584      -66.7431818849  TIP3      9572            0.0000000000
     80231     10932  TIP3      H2             -3.3165790968      -39.0830620715      -66.6440770255  TIP3      9572            0.0000000000
     80232     10933  TIP3      OH2           -20.1975347565      -37.1632366788      -75.0993296112  TIP3      9573            0.0000000000
     80233     10933  TIP3      H1            -19.7074695031      -37.9547114547      -74.8113940272  TIP3      9573            0.0000000000
     80234     10933  TIP3      H2            -19.6736063219      -36.4527375413      -74.6932782864  TIP3      9573            0.0000000000
     80235     10934  TIP3      OH2            -3.8026427336      -37.8339493865      -67.7980142173  TIP3      9574            0.0000000000
     80236     10934  TIP3      H1             -4.7501423528      -37.5840304135      -67.7851823341  TIP3      9574            0.0000000000
     80237     10934  TIP3      H2             -3.8097866589      -38.4263402579      -68.5739680460  TIP3      9574            0.0000000000
     80238     10935  TIP3      OH2            -3.8670466693      -37.9924493340      -83.0941560043  TIP3      9575            0.0000000000
     80239     10935  TIP3      H1             -3.3913770450      -38.6616320607      -83.5905275859  TIP3      9575            0.0000000000
     80240     10935  TIP3      H2             -3.2023643076      -37.2860967956      -83.0078356809  TIP3      9575            0.0000000000
     80241     10936  TIP3      OH2            -6.7969451591      -22.8692470927      -78.0884047571  TIP3      9576            0.0000000000
     80242     10936  TIP3      H1             -6.0746922427      -23.2420628151      -78.6471493770  TIP3      9576            0.0000000000
     80243     10936  TIP3      H2             -6.2706618056      -22.4622827475      -77.3933271784  TIP3      9576            0.0000000000
     80244     10937  TIP3      OH2           -21.5556957301      -39.0912901777      -71.6244363447  TIP3      9577            0.0000000000
     80245     10937  TIP3      H1            -22.2165759669      -39.4441860303      -71.0289931477  TIP3      9577            0.0000000000
     80246     10937  TIP3      H2            -22.0453213658      -38.5779488899      -72.2835641783  TIP3      9577            0.0000000000
     80247     10938  TIP3      OH2           -19.3547017666      -26.0501677034      -67.4872060259  TIP3      9578            0.0000000000
     80248     10938  TIP3      H1            -20.1766051513      -25.8009149717      -67.9454026146  TIP3      9578            0.0000000000
     80249     10938  TIP3      H2            -19.6280067428      -26.0812842374      -66.5667510639  TIP3      9578            0.0000000000
     80250     10939  TIP3      OH2            -9.7994619614      -22.2840769300      -69.0815573425  TIP3      9579            0.0000000000
     80251     10939  TIP3      H1             -9.1316862838      -22.9537220679      -69.2529804869  TIP3      9579            0.0000000000
     80252     10939  TIP3      H2             -9.4815077198      -21.9136910482      -68.2345850142  TIP3      9579            0.0000000000
     80253     10940  TIP3      OH2            -4.8648344178      -39.6448019668      -69.8886688584  TIP3      9580            0.0000000000
     80254     10940  TIP3      H1             -5.6921827910      -39.3767256104      -70.3067328306  TIP3      9580            0.0000000000
     80255     10940  TIP3      H2             -4.6219065406      -40.4287652595      -70.3455089870  TIP3      9580            0.0000000000
     80256     10941  TIP3      OH2           -19.0093884076      -21.8123008732      -71.2359813959  TIP3      9581            0.0000000000
     80257     10941  TIP3      H1            -19.7145575346      -21.2910157367      -71.6569829817  TIP3      9581            0.0000000000
     80258     10941  TIP3      H2            -19.3449274171      -21.9653462765      -70.3550876079  TIP3      9581            0.0000000000
     80259     10942  TIP3      OH2            -9.5176141610      -23.4510330515      -72.0336703168  TIP3      9582            0.0000000000
     80260     10942  TIP3      H1            -10.4101592225      -23.2031653878      -72.2786772075  TIP3      9582            0.0000000000
     80261     10942  TIP3      H2             -9.0451092098      -22.6031741679      -72.0490074827  TIP3      9582            0.0000000000
     80262     10943  TIP3      OH2            -6.9687152736      -21.9191925145      -71.7563780379  TIP3      9583            0.0000000000
     80263     10943  TIP3      H1             -7.0428396533      -20.9544461217      -71.9594143908  TIP3      9583            0.0000000000
     80264     10943  TIP3      H2             -6.7369009127      -22.2845661774      -72.6293917821  TIP3      9583            0.0000000000
     80265     10944  TIP3      OH2           -19.6602036968      -23.2140938044      -74.3131125206  TIP3      9584            0.0000000000
     80266     10944  TIP3      H1            -19.6613526559      -23.5756545195      -73.4051846558  TIP3      9584            0.0000000000
     80267     10944  TIP3      H2            -18.7987712735      -23.4789413037      -74.6428653346  TIP3      9584            0.0000000000
     80268     10945  TIP3      OH2            -6.4415685773      -40.1567780576      -76.1892988710  TIP3      9585            0.0000000000
     80269     10945  TIP3      H1             -5.7302163356      -39.5414464505      -76.0426795381  TIP3      9585            0.0000000000
     80270     10945  TIP3      H2             -7.2203618888      -39.7777949352      -75.7666732561  TIP3      9585            0.0000000000
     80271     10946  TIP3      OH2           -19.1732240945      -39.2116935682      -77.7171230744  TIP3      9586            0.0000000000
     80272     10946  TIP3      H1            -19.8511742140      -39.6461733649      -78.2330475134  TIP3      9586            0.0000000000
     80273     10946  TIP3      H2            -18.6077273787      -40.0098349352      -77.6205037431  TIP3      9586            0.0000000000
     80274     10947  TIP3      OH2           -20.2617190349      -39.7257323540      -82.0302497714  TIP3      9587            0.0000000000
     80275     10947  TIP3      H1            -19.8200753388      -39.1457443555      -82.6690848079  TIP3      9587            0.0000000000
     80276     10947  TIP3      H2            -20.9249303781      -39.1814155275      -81.5951527496  TIP3      9587            0.0000000000
     80277     10948  TIP3      OH2           -18.4483360684      -38.0254965022      -83.5454842391  TIP3      9588            0.0000000000
     80278     10948  TIP3      H1            -17.9061351035      -38.5706268176      -84.1130972802  TIP3      9588            0.0000000000
     80279     10948  TIP3      H2            -17.7953537181      -37.6384297852      -82.9451647403  TIP3      9588            0.0000000000
     80280     10949  TIP3      OH2            -4.8498857815      -23.1425153348      -79.9624625135  TIP3      9589            0.0000000000
     80281     10949  TIP3      H1             -4.9598603827      -23.9230691141      -80.5548381250  TIP3      9589            0.0000000000
     80282     10949  TIP3      H2             -4.8194237748      -22.4325323582      -80.6283687230  TIP3      9589            0.0000000000
     80283     10950  TIP3      OH2           -19.1734978989      -39.1014634745      -68.3057216183  TIP3      9590            0.0000000000
     80284     10950  TIP3      H1            -19.5139999952      -39.9112412788      -67.9201545614  TIP3      9590            0.0000000000
     80285     10950  TIP3      H2            -18.2553264029      -39.1513589461      -67.9788292714  TIP3      9590            0.0000000000
     80286     10951  TIP3      OH2           -17.1083526371      -39.7455144244      -66.6677302916  TIP3      9591            0.0000000000
     80287     10951  TIP3      H1            -16.2505006758      -40.0700740264      -66.9865806094  TIP3      9591            0.0000000000
     80288     10951  TIP3      H2            -17.5214080265      -40.5639558300      -66.3574764237  TIP3      9591            0.0000000000
     80289     10952  TIP3      OH2            -8.6906653795      -40.3955521614      -66.5076084025  TIP3      9592            0.0000000000
     80290     10952  TIP3      H1             -8.6451459559      -40.9825428255      -65.7532206834  TIP3      9592            0.0000000000
     80291     10952  TIP3      H2             -7.8179452649      -40.5120516742      -66.9015967860  TIP3      9592            0.0000000000
     80292     10953  TIP3      OH2            -5.6535563635      -24.4486549445      -67.7547164186  TIP3      9593            0.0000000000
     80293     10953  TIP3      H1             -6.3534423192      -24.5352151358      -68.4509914145  TIP3      9593            0.0000000000
     80294     10953  TIP3      H2             -5.6382710133      -23.4593113927      -67.7273706654  TIP3      9593            0.0000000000
     80295     10954  TIP3      OH2             0.0721560086      -31.5762444778      -72.8494190964  TIP3      9594            0.0000000000
     80296     10954  TIP3      H1              0.1748119281      -32.2771524714      -72.1733576129  TIP3      9594            0.0000000000
     80297     10954  TIP3      H2              0.8517690552      -31.0446454472      -72.6546363423  TIP3      9594            0.0000000000
     80298     10955  TIP3      OH2            -1.6388700014      -31.3710015874      -76.7493624844  TIP3      9595            0.0000000000
     80299     10955  TIP3      H1             -1.3614365037      -32.1787717479      -76.2747812591  TIP3      9595            0.0000000000
     80300     10955  TIP3      H2             -0.9232817899      -31.2488631353      -77.3919604060  TIP3      9595            0.0000000000
     80301     10956  TIP3      OH2             8.5584914829      -23.1609427564      -75.9111667524  TIP3      9596            0.0000000000
     80302     10956  TIP3      H1              9.1754894074      -23.8816040974      -76.2010486056  TIP3      9596            0.0000000000
     80303     10956  TIP3      H2              8.3268275164      -23.4603865720      -75.0288407218  TIP3      9596            0.0000000000
     80304     10957  TIP3      OH2             9.3320547502      -34.4107138194      -73.6940291619  TIP3      9597            0.0000000000
     80305     10957  TIP3      H1              9.4725543346      -35.3668301319      -73.6827457576  TIP3      9597            0.0000000000
     80306     10957  TIP3      H2              9.2044330594      -34.2042026129      -74.6229393234  TIP3      9597            0.0000000000
     80307     10958  TIP3      OH2             2.4357605211      -36.2885155770      -76.4159006798  TIP3      9598            0.0000000000
     80308     10958  TIP3      H1              2.5254994472      -35.4490258132      -76.9091808704  TIP3      9598            0.0000000000
     80309     10958  TIP3      H2              2.0888617937      -36.8990069189      -77.0799636557  TIP3      9598            0.0000000000
     80310     10959  TIP3      OH2            -0.9337764494      -33.8624589256      -75.6982099501  TIP3      9599            0.0000000000
     80311     10959  TIP3      H1             -0.3186075147      -34.4557799381      -75.1982517849  TIP3      9599            0.0000000000
     80312     10959  TIP3      H2             -0.9263369029      -34.2492698237      -76.5757333129  TIP3      9599            0.0000000000
     80313     10960  TIP3      OH2             4.1537683954      -32.3626774685      -76.4228183307  TIP3      9600            0.0000000000
     80314     10960  TIP3      H1              4.8186034012      -32.9090156973      -75.9877985423  TIP3      9600            0.0000000000
     80315     10960  TIP3      H2              3.6246039194      -33.0249790182      -76.9036249249  TIP3      9600            0.0000000000
     80316     10961  TIP3      OH2             3.8241595169      -29.7595613154      -72.1623473577  TIP3      9601            0.0000000000
     80317     10961  TIP3      H1              3.1097495729      -29.1245970300      -71.9486620277  TIP3      9601            0.0000000000
     80318     10961  TIP3      H2              4.5434169211      -29.1707307152      -72.3978578856  TIP3      9601            0.0000000000
     80319     10962  TIP3      OH2             0.8474823669      -35.4157764252      -74.5142117477  TIP3      9602            0.0000000000
     80320     10962  TIP3      H1              1.5046104186      -34.8898009104      -74.0076293285  TIP3      9602            0.0000000000
     80321     10962  TIP3      H2              1.4240778406      -35.9714348592      -75.0692649260  TIP3      9602            0.0000000000
     80322     10963  TIP3      OH2             2.2687708109      -27.7370772144      -71.2875779249  TIP3      9603            0.0000000000
     80323     10963  TIP3      H1              2.2169469932      -26.8787221271      -71.7236581642  TIP3      9603            0.0000000000
     80324     10963  TIP3      H2              1.3643155376      -27.8411526471      -70.8901531385  TIP3      9603            0.0000000000
     80325     10964  TIP3      OH2            -1.6589534020      -28.1597148409      -80.5498270706  TIP3      9604            0.0000000000
     80326     10964  TIP3      H1             -1.9122181326      -27.8061317560      -81.4221897925  TIP3      9604            0.0000000000
     80327     10964  TIP3      H2             -1.5771630865      -27.3371058655      -80.0113288134  TIP3      9604            0.0000000000
     80328     10965  TIP3      OH2            11.9986973812      -26.4641270950      -73.7133711828  TIP3      9605            0.0000000000
     80329     10965  TIP3      H1             11.0244025473      -26.3828734263      -73.6694576090  TIP3      9605            0.0000000000
     80330     10965  TIP3      H2             12.2316752871      -25.5586515288      -73.9863023769  TIP3      9605            0.0000000000
     80331     10966  TIP3      OH2            12.3268705626      -38.1753587313      -72.3156354509  TIP3      9606            0.0000000000
     80332     10966  TIP3      H1             11.5417600239      -37.6291458383      -72.4756426010  TIP3      9606            0.0000000000
     80333     10966  TIP3      H2             12.9420700628      -37.7679817064      -72.9319772887  TIP3      9606            0.0000000000
     80334     10967  TIP3      OH2            10.2128179752      -24.6741889132      -77.1892624135  TIP3      9607            0.0000000000
     80335     10967  TIP3      H1             10.6653265658      -25.4100640312      -77.6021051527  TIP3      9607            0.0000000000
     80336     10967  TIP3      H2             10.6405220401      -23.8910248218      -77.5867914711  TIP3      9607            0.0000000000
     80337     10968  TIP3      OH2            13.0914565867      -28.1958163459      -70.1684817697  TIP3      9608            0.0000000000
     80338     10968  TIP3      H1             13.2182568699      -28.7872472064      -70.9192032597  TIP3      9608            0.0000000000
     80339     10968  TIP3      H2             13.2438421396      -27.3278315527      -70.5800218064  TIP3      9608            0.0000000000
     80340     10969  TIP3      OH2             2.6095636495      -30.4129815414      -77.5786476460  TIP3      9609            0.0000000000
     80341     10969  TIP3      H1              2.3135983829      -30.7950917343      -78.4373657961  TIP3      9609            0.0000000000
     80342     10969  TIP3      H2              3.2096001040      -31.1120972210      -77.2338143903  TIP3      9609            0.0000000000
     80343     10970  TIP3      OH2             3.9215459826      -27.0452102134      -74.8612473991  TIP3      9610            0.0000000000
     80344     10970  TIP3      H1              3.8583310351      -27.5574225741      -75.6754447622  TIP3      9610            0.0000000000
     80345     10970  TIP3      H2              4.6952946443      -27.3821872699      -74.4122151017  TIP3      9610            0.0000000000
     80346     10971  TIP3      OH2             2.9476329926      -31.6625002005      -73.9098618883  TIP3      9611            0.0000000000
     80347     10971  TIP3      H1              3.4966496690      -31.5617300898      -74.7055856474  TIP3      9611            0.0000000000
     80348     10971  TIP3      H2              3.3237222841      -31.0046680245      -73.2912611469  TIP3      9611            0.0000000000
     80349     10972  TIP3      OH2             9.3059409054      -26.1397669037      -73.2316490403  TIP3      9612            0.0000000000
     80350     10972  TIP3      H1              9.0411504679      -25.4916810261      -72.5639014938  TIP3      9612            0.0000000000
     80351     10972  TIP3      H2              9.0893904334      -26.9784334243      -72.7924624877  TIP3      9612            0.0000000000
     80352     10973  TIP3      OH2             3.8915624344      -27.2291665732      -69.2401398744  TIP3      9613            0.0000000000
     80353     10973  TIP3      H1              3.4824254485      -26.4925190804      -68.7361803573  TIP3      9613            0.0000000000
     80354     10973  TIP3      H2              3.2083267852      -27.4586523121      -69.9115666917  TIP3      9613            0.0000000000
     80355     10974  TIP3      OH2             0.8209866608      -31.0806292108      -70.0483200778  TIP3      9614            0.0000000000
     80356     10974  TIP3      H1              0.8684085516      -30.4228360479      -69.3324653616  TIP3      9614            0.0000000000
     80357     10974  TIP3      H2             -0.1153632010      -30.9847766124      -70.2757884499  TIP3      9614            0.0000000000
     80358     10975  TIP3      OH2             2.1397096477      -25.2285983508      -68.4839031901  TIP3      9615            0.0000000000
     80359     10975  TIP3      H1              2.0225889061      -25.3055147883      -69.4250771994  TIP3      9615            0.0000000000
     80360     10975  TIP3      H2              1.2143922968      -25.3142975641      -68.1664112311  TIP3      9615            0.0000000000
     80361     10976  TIP3      OH2            13.5922485439      -40.1679054854      -81.9038145565  TIP3      9616            0.0000000000
     80362     10976  TIP3      H1             12.6556413000      -40.0168301609      -81.6571131391  TIP3      9616            0.0000000000
     80363     10976  TIP3      H2             13.8261507632      -39.3211103382      -82.3364708883  TIP3      9616            0.0000000000
     80364     10977  TIP3      OH2             1.5720970030      -31.3696295851      -79.9371768308  TIP3      9617            0.0000000000
     80365     10977  TIP3      H1              1.3158510102      -30.6071871305      -80.4937681530  TIP3      9617            0.0000000000
     80366     10977  TIP3      H2              0.9168670442      -32.0207909424      -80.1965964531  TIP3      9617            0.0000000000
     80367     10978  TIP3      OH2            14.6980171844      -25.7955948046      -83.4757031530  TIP3      9618            0.0000000000
     80368     10978  TIP3      H1             14.8220533291      -24.8265016421      -83.4503663528  TIP3      9618            0.0000000000
     80369     10978  TIP3      H2             15.6105047174      -26.0902060658      -83.6337320822  TIP3      9618            0.0000000000
     80370     10979  TIP3      OH2            -2.3307564201      -28.9662658697      -71.0743744025  TIP3      9619            0.0000000000
     80371     10979  TIP3      H1             -2.7893567522      -29.0515666958      -71.9296309085  TIP3      9619            0.0000000000
     80372     10979  TIP3      H2             -2.2651940190      -29.9151526702      -70.8462938235  TIP3      9619            0.0000000000
     80373     10980  TIP3      OH2            -2.5612214786      -26.2329036917      -74.2308038602  TIP3      9620            0.0000000000
     80374     10980  TIP3      H1             -1.6050256791      -26.3113413407      -74.3239022780  TIP3      9620            0.0000000000
     80375     10980  TIP3      H2             -2.6468567773      -25.3943718194      -73.7623640102  TIP3      9620            0.0000000000
     80376     10981  TIP3      OH2            15.6449186603      -25.5289744211      -68.6188253275  TIP3      9621            0.0000000000
     80377     10981  TIP3      H1             15.5484387536      -26.4917016858      -68.6097566613  TIP3      9621            0.0000000000
     80378     10981  TIP3      H2             14.7947047128      -25.2792730218      -68.1849641315  TIP3      9621            0.0000000000
     80379     10982  TIP3      OH2             6.6494978320      -26.0330423538      -69.6922843222  TIP3      9622            0.0000000000
     80380     10982  TIP3      H1              6.6857491478      -25.1491378758      -69.2702687237  TIP3      9622            0.0000000000
     80381     10982  TIP3      H2              5.7463713920      -26.3357025723      -69.4969456939  TIP3      9622            0.0000000000
     80382     10983  TIP3      OH2             7.0810523444      -22.2346786109      -79.9512223392  TIP3      9623            0.0000000000
     80383     10983  TIP3      H1              6.9658232757      -22.3053418926      -80.9141815634  TIP3      9623            0.0000000000
     80384     10983  TIP3      H2              7.0618554700      -21.2720391899      -79.7817806307  TIP3      9623            0.0000000000
     80385     10984  TIP3      OH2            10.1200478415      -23.0334302761      -82.9637912703  TIP3      9624            0.0000000000
     80386     10984  TIP3      H1             10.5189571309      -23.8055375150      -83.3717698523  TIP3      9624            0.0000000000
     80387     10984  TIP3      H2             10.1331660472      -23.2878956909      -82.0170285972  TIP3      9624            0.0000000000
     80388     10985  TIP3      OH2             9.7967035606      -23.1125829945      -80.2051886992  TIP3      9625            0.0000000000
     80389     10985  TIP3      H1              8.8485614023      -23.0052425828      -79.9794632712  TIP3      9625            0.0000000000
     80390     10985  TIP3      H2             10.0431638442      -23.8093484288      -79.5888119414  TIP3      9625            0.0000000000
     80391     10986  TIP3      OH2            -0.0544918527      -27.6638208008      -70.1147414666  TIP3      9626            0.0000000000
     80392     10986  TIP3      H1              0.1574795761      -28.0347153912      -69.2282498594  TIP3      9626            0.0000000000
     80393     10986  TIP3      H2             -0.9246692523      -28.0522456317      -70.3346137662  TIP3      9626            0.0000000000
     80394     10987  TIP3      OH2             2.6301693595      -34.2513126237      -72.9812213777  TIP3      9627            0.0000000000
     80395     10987  TIP3      H1              1.9754366493      -34.2411189872      -72.2627709744  TIP3      9627            0.0000000000
     80396     10987  TIP3      H2              2.6884367085      -33.3052036638      -73.2540974238  TIP3      9627            0.0000000000
     80397     10988  TIP3      OH2             2.6785293399      -34.1262122832      -78.0625480274  TIP3      9628            0.0000000000
     80398     10988  TIP3      H1              1.7553570187      -34.3178983387      -78.2468342425  TIP3      9628            0.0000000000
     80399     10988  TIP3      H2              3.1063688223      -34.3834533723      -78.9184717643  TIP3      9628            0.0000000000
     80400     10989  TIP3      OH2             7.2661629901      -33.3623718364      -67.8207176178  TIP3      9629            0.0000000000
     80401     10989  TIP3      H1              6.7484026819      -34.1505329018      -67.5327834157  TIP3      9629            0.0000000000
     80402     10989  TIP3      H2              8.1199715525      -33.5046849406      -67.3855129628  TIP3      9629            0.0000000000
     80403     10990  TIP3      OH2             0.3617373934      -33.9413880900      -71.2239477613  TIP3      9630            0.0000000000
     80404     10990  TIP3      H1              0.4053358289      -33.5329335507      -70.3463174968  TIP3      9630            0.0000000000
     80405     10990  TIP3      H2             -0.0859049185      -34.7843881386      -71.0495605762  TIP3      9630            0.0000000000
     80406     10991  TIP3      OH2             5.2412763769      -36.5447773773      -77.0542777473  TIP3      9631            0.0000000000
     80407     10991  TIP3      H1              4.3056450406      -36.5153440585      -76.7718190277  TIP3      9631            0.0000000000
     80408     10991  TIP3      H2              5.7128463328      -36.6300325981      -76.2208231448  TIP3      9631            0.0000000000
     80409     10992  TIP3      OH2             3.6537507844      -34.8611932997      -80.4702049674  TIP3      9632            0.0000000000
     80410     10992  TIP3      H1              4.6269492572      -34.8649889399      -80.3984969062  TIP3      9632            0.0000000000
     80411     10992  TIP3      H2              3.4605413660      -34.3148735619      -81.2523239188  TIP3      9632            0.0000000000
     80412     10993  TIP3      OH2             9.6444486700      -37.3371704636      -73.7553476242  TIP3      9633            0.0000000000
     80413     10993  TIP3      H1              8.9243972757      -37.2767089521      -73.1234807988  TIP3      9633            0.0000000000
     80414     10993  TIP3      H2              9.1983461061      -37.5561733388      -74.5849137188  TIP3      9633            0.0000000000
     80415     10994  TIP3      OH2             2.3869522398      -33.7519296664      -82.9557573440  TIP3      9634            0.0000000000
     80416     10994  TIP3      H1              1.8514015851      -34.1113319940      -83.6767522660  TIP3      9634            0.0000000000
     80417     10994  TIP3      H2              3.2259272809      -33.5832474952      -83.4111060425  TIP3      9634            0.0000000000
     80418     10995  TIP3      OH2            12.8519863896      -21.6533362286      -67.4436972759  TIP3      9635            0.0000000000
     80419     10995  TIP3      H1             13.1253103458      -21.2871840279      -68.3070414063  TIP3      9635            0.0000000000
     80420     10995  TIP3      H2             13.5795167572      -21.3427959917      -66.8834860464  TIP3      9635            0.0000000000
     80421     10996  TIP3      OH2             0.5364186319      -29.1664400653      -67.9163016283  TIP3      9636            0.0000000000
     80422     10996  TIP3      H1              1.2404618065      -28.9606200897      -67.2768632132  TIP3      9636            0.0000000000
     80423     10996  TIP3      H2             -0.2488991968      -29.0783495316      -67.3341319271  TIP3      9636            0.0000000000
     80424     10997  TIP3      OH2             7.1993452584      -28.9904162780      -69.7952102468  TIP3      9637            0.0000000000
     80425     10997  TIP3      H1              6.9079933482      -29.3844897800      -68.9733725597  TIP3      9637            0.0000000000
     80426     10997  TIP3      H2              7.0291257901      -28.0479828963      -69.7055113581  TIP3      9637            0.0000000000
     80427     10998  TIP3      OH2             0.8747828155      -29.8607784954      -75.2429795917  TIP3      9638            0.0000000000
     80428     10998  TIP3      H1              1.5723958941      -29.8927805579      -75.9213751830  TIP3      9638            0.0000000000
     80429     10998  TIP3      H2              0.9509545345      -30.7030133777      -74.7730271464  TIP3      9638            0.0000000000
     80430     10999  TIP3      OH2            -2.1521819821      -31.4338210028      -69.9850661821  TIP3      9639            0.0000000000
     80431     10999  TIP3      H1             -1.9676145300      -31.8744479955      -69.1315337782  TIP3      9639            0.0000000000
     80432     10999  TIP3      H2             -2.7612608313      -32.0555335821      -70.4252237558  TIP3      9639            0.0000000000
     80433     11000  TIP3      OH2             4.8716984668      -31.8792706077      -67.7985160358  TIP3      9640            0.0000000000
     80434     11000  TIP3      H1              4.5724893166      -32.1522437334      -68.6786507196  TIP3      9640            0.0000000000
     80435     11000  TIP3      H2              5.8039677495      -32.1847840843      -67.8126496028  TIP3      9640            0.0000000000
     80436     11001  TIP3      OH2             9.5395737126      -26.5423114773      -69.9003764886  TIP3      9641            0.0000000000
     80437     11001  TIP3      H1              8.6086644431      -26.3707126332      -70.1017818146  TIP3      9641            0.0000000000
     80438     11001  TIP3      H2              9.5218598274      -26.2744777217      -68.9606028486  TIP3      9641            0.0000000000
     80439     11002  TIP3      OH2            15.2601651129      -34.3169034632      -81.4877753948  TIP3      9642            0.0000000000
     80440     11002  TIP3      H1             14.6787441989      -34.6900458070      -82.1562524899  TIP3      9642            0.0000000000
     80441     11002  TIP3      H2             15.3066260942      -33.3847086093      -81.7519032621  TIP3      9642            0.0000000000
     80442     11003  TIP3      OH2            15.2506872881      -28.4329886150      -68.6368871173  TIP3      9643            0.0000000000
     80443     11003  TIP3      H1             14.3287389043      -28.3017201701      -68.9768517515  TIP3      9643            0.0000000000
     80444     11003  TIP3      H2             15.7500248993      -28.5207842947      -69.4668643328  TIP3      9643            0.0000000000
     80445     11004  TIP3      OH2            13.4856878122      -25.5163331787      -81.0438565098  TIP3      9644            0.0000000000
     80446     11004  TIP3      H1             13.1816168084      -26.3782958427      -80.7522065563  TIP3      9644            0.0000000000
     80447     11004  TIP3      H2             13.8251668737      -25.6965672604      -81.9511817351  TIP3      9644            0.0000000000
     80448     11005  TIP3      OH2             3.2431964563      -26.3745195066      -77.8816408933  TIP3      9645            0.0000000000
     80449     11005  TIP3      H1              3.7502110734      -25.5781480410      -78.0452065154  TIP3      9645            0.0000000000
     80450     11005  TIP3      H2              2.3446614985      -26.1533757171      -78.1586370944  TIP3      9645            0.0000000000
     80451     11006  TIP3      OH2            -1.0084823439      -31.4880437627      -83.3213260352  TIP3      9646            0.0000000000
     80452     11006  TIP3      H1             -0.3973089966      -30.8820486380      -82.8780950702  TIP3      9646            0.0000000000
     80453     11006  TIP3      H2             -1.8939099794      -31.2500889121      -83.0008273432  TIP3      9646            0.0000000000
     80454     11007  TIP3      OH2             4.6394091712      -28.6739107351      -78.2277562860  TIP3      9647            0.0000000000
     80455     11007  TIP3      H1              4.3075031752      -27.7670012744      -78.2384017529  TIP3      9647            0.0000000000
     80456     11007  TIP3      H2              3.8804435853      -29.1899889133      -77.9052436807  TIP3      9647            0.0000000000
     80457     11008  TIP3      OH2            11.4459599592      -23.9525861146      -69.8270727075  TIP3      9648            0.0000000000
     80458     11008  TIP3      H1             10.7524208782      -24.4464986262      -70.3043554294  TIP3      9648            0.0000000000
     80459     11008  TIP3      H2             11.6294056684      -23.2496406621      -70.4831241094  TIP3      9648            0.0000000000
     80460     11009  TIP3      OH2            15.4422267950      -23.1076275739      -82.9599735478  TIP3      9649            0.0000000000
     80461     11009  TIP3      H1             16.1310618316      -22.4660890972      -83.2027531237  TIP3      9649            0.0000000000
     80462     11009  TIP3      H2             14.7113863991      -22.5074496160      -82.6865206253  TIP3      9649            0.0000000000
     80463     11010  TIP3      OH2            -0.5070203556      -36.7275691487      -70.4412641092  TIP3      9650            0.0000000000
     80464     11010  TIP3      H1             -1.4047588363      -36.3476531568      -70.4759609976  TIP3      9650            0.0000000000
     80465     11010  TIP3      H2             -0.6365431468      -37.5546408205      -69.9774588705  TIP3      9650            0.0000000000
     80466     11011  TIP3      OH2            -0.8932232236      -24.9272842145      -71.9556394421  TIP3      9651            0.0000000000
     80467     11011  TIP3      H1             -0.6186928518      -25.8469976654      -71.9831238318  TIP3      9651            0.0000000000
     80468     11011  TIP3      H2             -0.6316851972      -24.6268503697      -71.0817488917  TIP3      9651            0.0000000000
     80469     11012  TIP3      OH2             3.8407130902      -26.8098771590      -82.3105023704  TIP3      9652            0.0000000000
     80470     11012  TIP3      H1              4.1045167088      -27.3962778500      -81.5824681002  TIP3      9652            0.0000000000
     80471     11012  TIP3      H2              4.0029575656      -25.9347818834      -81.9568530422  TIP3      9652            0.0000000000
     80472     11013  TIP3      OH2             0.3589526735      -29.5948583068      -81.8265216659  TIP3      9653            0.0000000000
     80473     11013  TIP3      H1             -0.2835802164      -29.1947575287      -81.2109059496  TIP3      9653            0.0000000000
     80474     11013  TIP3      H2              0.9350667863      -28.8479618974      -82.0515298657  TIP3      9653            0.0000000000
     80475     11014  TIP3      OH2             6.6533238124      -25.1451153959      -81.5442435626  TIP3      9654            0.0000000000
     80476     11014  TIP3      H1              5.8678272416      -24.6057675579      -81.4989764179  TIP3      9654            0.0000000000
     80477     11014  TIP3      H2              7.2028016213      -24.6794527809      -82.1879376927  TIP3      9654            0.0000000000
     80478     11015  TIP3      OH2             6.2168610944      -35.5957086548      -79.5550379161  TIP3      9655            0.0000000000
     80479     11015  TIP3      H1              6.9972411081      -35.0390366260      -79.5534518801  TIP3      9655            0.0000000000
     80480     11015  TIP3      H2              5.9427535538      -35.7146331738      -78.6358204680  TIP3      9655            0.0000000000
     80481     11016  TIP3      OH2             6.7141177330      -34.6727180631      -70.3346645036  TIP3      9656            0.0000000000
     80482     11016  TIP3      H1              6.8612743017      -34.0195065705      -69.6240976636  TIP3      9656            0.0000000000
     80483     11016  TIP3      H2              7.4609677240      -35.2647824117      -70.2647016400  TIP3      9656            0.0000000000
     80484     11017  TIP3      OH2             7.1641738185      -38.5352102112      -78.6041771155  TIP3      9657            0.0000000000
     80485     11017  TIP3      H1              6.7079418430      -37.9041107341      -78.0300794253  TIP3      9657            0.0000000000
     80486     11017  TIP3      H2              7.7240885562      -37.9653389651      -79.1327233003  TIP3      9657            0.0000000000
     80487     11018  TIP3      OH2            12.9487479513      -36.7551410993      -69.5759912537  TIP3      9658            0.0000000000
     80488     11018  TIP3      H1             12.0489538644      -36.4058736754      -69.6179966102  TIP3      9658            0.0000000000
     80489     11018  TIP3      H2             13.2622760014      -36.6790555818      -70.4818197544  TIP3      9658            0.0000000000
     80490     11019  TIP3      OH2             0.9912188870      -27.0293513636      -82.9055690091  TIP3      9659            0.0000000000
     80491     11019  TIP3      H1              1.6036553289      -26.3377686575      -82.6222087076  TIP3      9659            0.0000000000
     80492     11019  TIP3      H2              1.4905940495      -27.4473996578      -83.6165915549  TIP3      9659            0.0000000000
     80493     11020  TIP3      OH2            12.6202255516      -23.6497194144      -73.8431558857  TIP3      9660            0.0000000000
     80494     11020  TIP3      H1             12.5233620476      -22.9701138216      -74.5358724985  TIP3      9660            0.0000000000
     80495     11020  TIP3      H2             13.5870180037      -23.6027553168      -73.6755730755  TIP3      9660            0.0000000000
     80496     11021  TIP3      OH2            -0.9587991297      -25.6692235332      -79.0169787151  TIP3      9661            0.0000000000
     80497     11021  TIP3      H1             -1.7621010375      -25.1370612957      -78.8975438695  TIP3      9661            0.0000000000
     80498     11021  TIP3      H2             -0.4177011418      -25.0595214627      -79.5166856647  TIP3      9661            0.0000000000
     80499     11022  TIP3      OH2             2.9493088676      -24.0712305745      -65.9815900406  TIP3      9662            0.0000000000
     80500     11022  TIP3      H1              3.7400624434      -24.5290808356      -65.6845410546  TIP3      9662            0.0000000000
     80501     11022  TIP3      H2              2.9183409884      -24.3128435340      -66.9260549349  TIP3      9662            0.0000000000
     80502     11023  TIP3      OH2             9.4699531627      -25.6785713894      -67.2924442239  TIP3      9663            0.0000000000
     80503     11023  TIP3      H1              9.1358303948      -26.5434295911      -66.9801088516  TIP3      9663            0.0000000000
     80504     11023  TIP3      H2             10.2297715094      -25.5355097208      -66.6954624074  TIP3      9663            0.0000000000
     80505     11024  TIP3      OH2            -1.8400508876      -29.2067155162      -66.6115648576  TIP3      9664            0.0000000000
     80506     11024  TIP3      H1             -1.6446115793      -30.1037420377      -66.9475629435  TIP3      9664            0.0000000000
     80507     11024  TIP3      H2             -2.5446722114      -28.9192369091      -67.2168888136  TIP3      9664            0.0000000000
     80508     11025  TIP3      OH2             4.8946775065      -29.2159950734      -67.2017562531  TIP3      9665            0.0000000000
     80509     11025  TIP3      H1              4.5708932597      -28.9062630023      -68.0667661687  TIP3      9665            0.0000000000
     80510     11025  TIP3      H2              5.0100998442      -30.1835180880      -67.3486107268  TIP3      9665            0.0000000000
     80511     11026  TIP3      OH2             7.8706827930      -27.8734797629      -84.8147320014  TIP3      9666            0.0000000000
     80512     11026  TIP3      H1              7.6319266448      -27.6106256198      -83.9152460450  TIP3      9666            0.0000000000
     80513     11026  TIP3      H2              7.7025271697      -28.8104349094      -84.8456272361  TIP3      9666            0.0000000000
     80514     11027  TIP3      OH2            10.6113002014      -29.3351282405      -69.8880148607  TIP3      9667            0.0000000000
     80515     11027  TIP3      H1             11.3791583414      -28.7369630483      -69.9062482059  TIP3      9667            0.0000000000
     80516     11027  TIP3      H2              9.8908449293      -28.7060541765      -69.8025121404  TIP3      9667            0.0000000000
     80517     11028  TIP3      OH2            -0.9137797386      -31.9658747302      -67.2361104821  TIP3      9668            0.0000000000
     80518     11028  TIP3      H1             -0.4876261586      -32.8256640020      -67.3257153350  TIP3      9668            0.0000000000
     80519     11028  TIP3      H2             -1.1348539953      -31.9427873037      -66.2843313134  TIP3      9668            0.0000000000
     80520     11029  TIP3      OH2             3.7325774634      -30.8279506666      -82.2205309520  TIP3      9669            0.0000000000
     80521     11029  TIP3      H1              3.2602076203      -31.3350357086      -81.5512407746  TIP3      9669            0.0000000000
     80522     11029  TIP3      H2              4.0238818021      -31.5219109761      -82.8437904762  TIP3      9669            0.0000000000
     80523     11030  TIP3      OH2             3.0029176452      -33.0264561146      -69.8689549693  TIP3      9670            0.0000000000
     80524     11030  TIP3      H1              2.4217107189      -32.2933581140      -69.6116885398  TIP3      9670            0.0000000000
     80525     11030  TIP3      H2              3.4005157503      -32.6638720330      -70.6797368220  TIP3      9670            0.0000000000
     80526     11031  TIP3      OH2             4.8094008543      -32.6348714808      -83.9890028738  TIP3      9671            0.0000000000
     80527     11031  TIP3      H1              4.6688733737      -32.7968844034      -84.9314882815  TIP3      9671            0.0000000000
     80528     11031  TIP3      H2              5.7714982229      -32.5754304873      -83.9086911273  TIP3      9671            0.0000000000
     80529     11032  TIP3      OH2             8.0807634447      -30.4591635104      -66.4960133139  TIP3      9672            0.0000000000
     80530     11032  TIP3      H1              9.0298071493      -30.4620830850      -66.6611554124  TIP3      9672            0.0000000000
     80531     11032  TIP3      H2              7.9185264745      -31.2526292010      -65.9675498489  TIP3      9672            0.0000000000
     80532     11033  TIP3      OH2             3.4567254992      -35.6065123052      -68.8142581876  TIP3      9673            0.0000000000
     80533     11033  TIP3      H1              3.4145685583      -36.3561297734      -69.4028736822  TIP3      9673            0.0000000000
     80534     11033  TIP3      H2              3.3761576002      -34.8090918013      -69.3881375672  TIP3      9673            0.0000000000
     80535     11034  TIP3      OH2             5.3263916912      -31.8145072385      -71.0399101606  TIP3      9674            0.0000000000
     80536     11034  TIP3      H1              6.1140454379      -31.9423506496      -71.5897199047  TIP3      9674            0.0000000000
     80537     11034  TIP3      H2              5.0018473562      -30.9608052169      -71.3619919997  TIP3      9674            0.0000000000
     80538     11035  TIP3      OH2             9.7694849235      -34.0081482241      -66.0089773378  TIP3      9675            0.0000000000
     80539     11035  TIP3      H1              9.9748972287      -34.9488092110      -66.1412399519  TIP3      9675            0.0000000000
     80540     11035  TIP3      H2             10.6389702277      -33.5879397012      -66.0648543060  TIP3      9675            0.0000000000
     80541     11036  TIP3      OH2             1.8773812006      -34.4168072954      -66.8445341401  TIP3      9676            0.0000000000
     80542     11036  TIP3      H1              1.0949568083      -34.9596142297      -67.0656353314  TIP3      9676            0.0000000000
     80543     11036  TIP3      H2              2.5218742833      -34.7336908554      -67.5089050474  TIP3      9676            0.0000000000
     80544     11037  TIP3      OH2             5.8757719122      -35.5053893492      -67.2596517265  TIP3      9677            0.0000000000
     80545     11037  TIP3      H1              5.5791951143      -35.7542910927      -66.3707021064  TIP3      9677            0.0000000000
     80546     11037  TIP3      H2              5.0881288924      -35.6904026250      -67.7990794305  TIP3      9677            0.0000000000
     80547     11038  TIP3      OH2             8.5670943713      -36.3123128465      -68.1805838017  TIP3      9678            0.0000000000
     80548     11038  TIP3      H1              7.6115721966      -36.2953121572      -68.0342678466  TIP3      9678            0.0000000000
     80549     11038  TIP3      H2              8.8637886685      -36.9717196515      -67.5293508441  TIP3      9678            0.0000000000
     80550     11039  TIP3      OH2            10.1549619714      -37.7031399425      -66.2696094433  TIP3      9679            0.0000000000
     80551     11039  TIP3      H1             10.1289615819      -38.6872569850      -66.2408755143  TIP3      9679            0.0000000000
     80552     11039  TIP3      H2              9.8904617283      -37.4403186934      -65.3580308586  TIP3      9679            0.0000000000
     80553     11040  TIP3      OH2            -0.0693622093      -36.5091966028      -67.1978850881  TIP3      9680            0.0000000000
     80554     11040  TIP3      H1              0.2482454882      -37.2085028432      -67.7785375083  TIP3      9680            0.0000000000
     80555     11040  TIP3      H2             -0.1068004699      -36.9133629197      -66.3089261199  TIP3      9680            0.0000000000
     80556     11041  TIP3      OH2             5.1242147323      -38.8489254878      -66.0968687242  TIP3      9681            0.0000000000
     80557     11041  TIP3      H1              5.0761363318      -39.2921176230      -66.9506354695  TIP3      9681            0.0000000000
     80558     11041  TIP3      H2              4.5947297568      -38.0398074765      -66.1959399971  TIP3      9681            0.0000000000
     80559     11042  TIP3      OH2            -1.7629663456      -27.3057757054      -83.4677175266  TIP3      9682            0.0000000000
     80560     11042  TIP3      H1             -0.8167555140      -27.2442824643      -83.2138331271  TIP3      9682            0.0000000000
     80561     11042  TIP3      H2             -1.7509188169      -27.9725926550      -84.1643225048  TIP3      9682            0.0000000000
     80562     11043  TIP3      OH2            -2.1905124106      -23.7931203972      -76.5840275951  TIP3      9683            0.0000000000
     80563     11043  TIP3      H1             -2.5229010477      -24.6837874356      -76.4231974066  TIP3      9683            0.0000000000
     80564     11043  TIP3      H2             -1.9722074307      -23.4940814723      -75.7005845556  TIP3      9683            0.0000000000
     80565     11044  TIP3      OH2            15.3280450986      -23.0272207804      -73.6413729035  TIP3      9684            0.0000000000
     80566     11044  TIP3      H1             15.3655122409      -22.8520048279      -72.6858752833  TIP3      9684            0.0000000000
     80567     11044  TIP3      H2             16.0290936649      -22.4439989449      -73.9577625876  TIP3      9684            0.0000000000
     80568     11045  TIP3      OH2            14.9176482073      -23.4196295707      -70.7002862802  TIP3      9685            0.0000000000
     80569     11045  TIP3      H1             14.4457321567      -24.1921400962      -71.0839591014  TIP3      9685            0.0000000000
     80570     11045  TIP3      H2             15.4094340309      -23.8680355439      -69.9936931280  TIP3      9685            0.0000000000
     80571     11046  TIP3      OH2            13.3628140568      -27.6927677440      -66.0667571173  TIP3      9686            0.0000000000
     80572     11046  TIP3      H1             12.4876094545      -27.7495098387      -65.6376528401  TIP3      9686            0.0000000000
     80573     11046  TIP3      H2             13.7446425826      -26.9249897945      -65.5829856748  TIP3      9686            0.0000000000
     80574     11047  TIP3      OH2            14.6626931212      -29.3436516161      -80.5718271614  TIP3      9687            0.0000000000
     80575     11047  TIP3      H1             15.5463205998      -29.0002640632      -80.4098728648  TIP3      9687            0.0000000000
     80576     11047  TIP3      H2             14.6664903510      -30.1099677022      -79.9660419612  TIP3      9687            0.0000000000
     80577     11048  TIP3      OH2            15.0085450097      -31.3007208200      -78.7277204521  TIP3      9688            0.0000000000
     80578     11048  TIP3      H1             14.3038084310      -31.8226371669      -78.3140471165  TIP3      9688            0.0000000000
     80579     11048  TIP3      H2             15.6324450830      -31.1517918550      -77.9907909479  TIP3      9688            0.0000000000
     80580     11049  TIP3      OH2            14.8403709847      -28.6018348518      -73.7045963763  TIP3      9689            0.0000000000
     80581     11049  TIP3      H1             15.6381540297      -28.9799156463      -74.1083815998  TIP3      9689            0.0000000000
     80582     11049  TIP3      H2             14.9279000439      -27.6438363567      -73.9141867651  TIP3      9689            0.0000000000
     80583     11050  TIP3      OH2            13.3517765132      -25.6941169552      -71.4520371156  TIP3      9690            0.0000000000
     80584     11050  TIP3      H1             12.6487009295      -25.3682701563      -70.8693146732  TIP3      9690            0.0000000000
     80585     11050  TIP3      H2             12.8131839690      -26.0914966960      -72.1693276518  TIP3      9690            0.0000000000
     80586     11051  TIP3      OH2            -2.1330936964      -30.7172869261      -74.0896107452  TIP3      9691            0.0000000000
     80587     11051  TIP3      H1             -1.9568795248      -30.8210387727      -75.0511485482  TIP3      9691            0.0000000000
     80588     11051  TIP3      H2             -1.2460577870      -30.9180735227      -73.7314511741  TIP3      9691            0.0000000000
     80589     11052  TIP3      OH2            -2.5218030763      -35.4172230638      -67.9272372500  TIP3      9692            0.0000000000
     80590     11052  TIP3      H1             -1.5913251017      -35.6646471732      -67.7642531518  TIP3      9692            0.0000000000
     80591     11052  TIP3      H2             -2.9757022919      -36.2484773496      -67.6716610855  TIP3      9692            0.0000000000
     80592     11053  TIP3      OH2            15.5826920120      -39.8639189156      -66.0589599722  TIP3      9693            0.0000000000
     80593     11053  TIP3      H1             15.7791285282      -40.5624427712      -66.7223469534  TIP3      9693            0.0000000000
     80594     11053  TIP3      H2             15.5700569086      -39.0806789928      -66.6323457230  TIP3      9693            0.0000000000
     80595     11054  TIP3      OH2            13.2261918415      -38.0092257902      -79.6886332826  TIP3      9694            0.0000000000
     80596     11054  TIP3      H1             13.3755521669      -38.4088869282      -78.8094111802  TIP3      9694            0.0000000000
     80597     11054  TIP3      H2             12.5457412629      -38.5857029901      -80.0805379622  TIP3      9694            0.0000000000
     80598     11055  TIP3      OH2            -3.0532629874      -34.1255022094      -74.0714009906  TIP3      9695            0.0000000000
     80599     11055  TIP3      H1             -2.4650646580      -34.3868064885      -74.8021924849  TIP3      9695            0.0000000000
     80600     11055  TIP3      H2             -2.5772386857      -33.3447102799      -73.7692382889  TIP3      9695            0.0000000000
     80601     11056  TIP3      OH2            15.0261686170      -37.8161106495      -67.7984057715  TIP3      9696            0.0000000000
     80602     11056  TIP3      H1             14.0771851119      -37.5551768166      -67.8066128514  TIP3      9696            0.0000000000
     80603     11056  TIP3      H2             15.0465138482      -38.4447337651      -68.5338170955  TIP3      9696            0.0000000000
     80604     11057  TIP3      OH2            15.0915860136      -37.9538952025      -83.0369679003  TIP3      9697            0.0000000000
     80605     11057  TIP3      H1             15.4125051542      -38.6246203910      -83.6522780145  TIP3      9697            0.0000000000
     80606     11057  TIP3      H2             15.7503202792      -37.2518153639      -83.1197512726  TIP3      9697            0.0000000000
     80607     11058  TIP3      OH2            12.0677121276      -22.9445962488      -78.0370285064  TIP3      9698            0.0000000000
     80608     11058  TIP3      H1             12.7596126065      -23.2279430061      -78.6591361217  TIP3      9698            0.0000000000
     80609     11058  TIP3      H2             12.5843218786      -22.4503015123      -77.3799551848  TIP3      9698            0.0000000000
     80610     11059  TIP3      OH2            -0.4985770707      -26.0392359671      -67.5274838856  TIP3      9699            0.0000000000
     80611     11059  TIP3      H1             -1.3275782085      -25.7730245203      -67.9505617578  TIP3      9699            0.0000000000
     80612     11059  TIP3      H2             -0.7468741231      -26.0386350303      -66.5932196532  TIP3      9699            0.0000000000
     80613     11060  TIP3      OH2             6.7116141716      -23.5948791761      -68.3155245526  TIP3      9700            0.0000000000
     80614     11060  TIP3      H1              6.8720903790      -23.9466989796      -67.4078715758  TIP3      9700            0.0000000000
     80615     11060  TIP3      H2              7.6138908091      -23.3063831768      -68.5804385000  TIP3      9700            0.0000000000
     80616     11061  TIP3      OH2             9.0132741972      -22.3371705042      -69.0245609721  TIP3      9701            0.0000000000
     80617     11061  TIP3      H1              9.7514448691      -22.9215067478      -69.2641748428  TIP3      9701            0.0000000000
     80618     11061  TIP3      H2              9.4002530880      -21.9036683585      -68.2342826012  TIP3      9701            0.0000000000
     80619     11062  TIP3      OH2            14.0275047746      -39.6292965104      -69.9948682952  TIP3      9702            0.0000000000
     80620     11062  TIP3      H1             13.1391971286      -39.3969560003      -70.3003701283  TIP3      9702            0.0000000000
     80621     11062  TIP3      H2             14.1622934746      -40.5148925943      -70.3108540171  TIP3      9702            0.0000000000
     80622     11063  TIP3      OH2             7.0198885848      -22.2828556833      -72.9817498888  TIP3      9703            0.0000000000
     80623     11063  TIP3      H1              6.5703969629      -21.7432626293      -73.6494726478  TIP3      9703            0.0000000000
     80624     11063  TIP3      H2              7.1838555980      -21.6467866680      -72.2569953548  TIP3      9703            0.0000000000
     80625     11064  TIP3      OH2             9.2858974115      -23.4388846047      -71.9290180674  TIP3      9704            0.0000000000
     80626     11064  TIP3      H1              8.4341371422      -23.2099111633      -72.3401472476  TIP3      9704            0.0000000000
     80627     11064  TIP3      H2              9.7886595435      -22.6203344272      -72.0733112170  TIP3      9704            0.0000000000
     80628     11065  TIP3      OH2            11.8931812661      -21.9083710993      -71.7483700385  TIP3      9705            0.0000000000
     80629     11065  TIP3      H1             11.8240202756      -20.9500454331      -71.9785486890  TIP3      9705            0.0000000000
     80630     11065  TIP3      H2             12.1065032833      -22.2848073342      -72.6253311573  TIP3      9705            0.0000000000
     80631     11066  TIP3      OH2            12.4165578641      -40.2293399899      -75.9672096002  TIP3      9706            0.0000000000
     80632     11066  TIP3      H1             13.1146898549      -39.5722706385      -76.1576981932  TIP3      9706            0.0000000000
     80633     11066  TIP3      H2             11.6026381620      -39.7246647877      -75.8210072564  TIP3      9706            0.0000000000
     80634     11067  TIP3      OH2            14.2992046905      -38.9589299118      -77.2569181823  TIP3      9707            0.0000000000
     80635     11067  TIP3      H1             14.9118049725      -39.5612182895      -77.7018251246  TIP3      9707            0.0000000000
     80636     11067  TIP3      H2             14.7668132882      -38.0926205060      -77.2269681446  TIP3      9707            0.0000000000
     80637     11068  TIP3      OH2             9.8427580281      -39.6924176732      -76.3783808048  TIP3      9708            0.0000000000
     80638     11068  TIP3      H1              9.9676109899      -39.6657884789      -77.3289994181  TIP3      9708            0.0000000000
     80639     11068  TIP3      H2              9.6330795561      -40.6293558009      -76.2403799791  TIP3      9708            0.0000000000
     80640     11069  TIP3      OH2            11.1743086789      -39.6016090484      -80.8852051529  TIP3      9709            0.0000000000
     80641     11069  TIP3      H1             10.4280515307      -39.0007342871      -80.8887356161  TIP3      9709            0.0000000000
     80642     11069  TIP3      H2             10.8502049385      -40.4367529028      -80.5101769936  TIP3      9709            0.0000000000
     80643     11070  TIP3      OH2             5.4878862896      -37.7404431092      -81.1010797959  TIP3      9710            0.0000000000
     80644     11070  TIP3      H1              5.6819158480      -38.2988250075      -80.3541383927  TIP3      9710            0.0000000000
     80645     11070  TIP3      H2              5.4516408118      -36.8599404072      -80.6907214199  TIP3      9710            0.0000000000
     80646     11071  TIP3      OH2             7.3306490702      -22.6746077350      -82.7061549267  TIP3      9711            0.0000000000
     80647     11071  TIP3      H1              8.2391682326      -22.3973186604      -82.9055216518  TIP3      9711            0.0000000000
     80648     11071  TIP3      H2              7.1023282469      -23.1269632433      -83.5240781531  TIP3      9711            0.0000000000
     80649     11072  TIP3      OH2            14.0638864417      -23.1206720958      -79.9929138284  TIP3      9712            0.0000000000
     80650     11072  TIP3      H1             13.8847555131      -23.9062629737      -80.5605462634  TIP3      9712            0.0000000000
     80651     11072  TIP3      H2             13.9909724709      -22.4004151176      -80.6491643277  TIP3      9712            0.0000000000
     80652     11073  TIP3      OH2            10.1613544918      -40.3904629413      -66.5037513971  TIP3      9713            0.0000000000
     80653     11073  TIP3      H1             10.2175984484      -40.9851935138      -65.7547320366  TIP3      9713            0.0000000000
     80654     11073  TIP3      H2             11.0307926888      -40.5085133345      -66.9062470606  TIP3      9713            0.0000000000
     80655     11074  TIP3      OH2            13.2938747310      -24.3976168908      -67.8747193347  TIP3      9714            0.0000000000
     80656     11074  TIP3      H1             12.5066784499      -24.5512631073      -68.4416965790  TIP3      9714            0.0000000000
     80657     11074  TIP3      H2             13.1875679636      -23.4439201844      -67.6944512217  TIP3      9714            0.0000000000
     80658     11075  TIP3      OH2            19.8852527085      -27.1471369152      -74.3982558912  TIP3      9715            0.0000000000
     80659     11075  TIP3      H1             19.5442078296      -28.0050100041      -74.6589806013  TIP3      9715            0.0000000000
     80660     11075  TIP3      H2             20.8250008725      -27.3505636420      -74.2910807921  TIP3      9715            0.0000000000
     80661     11076  TIP3      OH2            16.5335516216      -33.5917242702      -78.9074356298  TIP3      9716            0.0000000000
     80662     11076  TIP3      H1             16.1053229505      -32.7160575911      -78.9732309452  TIP3      9716            0.0000000000
     80663     11076  TIP3      H2             15.9408756115      -34.1323595514      -79.4453208970  TIP3      9716            0.0000000000
     80664     11077  TIP3      OH2            17.2673552590      -31.3247918943      -76.7472565054  TIP3      9717            0.0000000000
     80665     11077  TIP3      H1             17.4541262751      -32.1836498617      -76.3055848454  TIP3      9717            0.0000000000
     80666     11077  TIP3      H2             17.9690645969      -31.2797635256      -77.4100440125  TIP3      9717            0.0000000000
     80667     11078  TIP3      OH2            33.5888229011      -37.2718145228      -73.2386474495  TIP3      9718            0.0000000000
     80668     11078  TIP3      H1             33.7360102683      -36.6802345557      -72.4632966297  TIP3      9718            0.0000000000
     80669     11078  TIP3      H2             34.1185860888      -36.7894666001      -73.8817533377  TIP3      9718            0.0000000000
     80670     11079  TIP3      OH2            28.1667463717      -34.3777188622      -73.6588783290  TIP3      9719            0.0000000000
     80671     11079  TIP3      H1             28.2840246969      -35.3445837923      -73.6457178422  TIP3      9719            0.0000000000
     80672     11079  TIP3      H2             28.0542178006      -34.2467180176      -74.6221244702  TIP3      9719            0.0000000000
     80673     11080  TIP3      OH2            21.2820860782      -36.2763712311      -76.4119387270  TIP3      9720            0.0000000000
     80674     11080  TIP3      H1             21.3478036206      -35.4444230154      -76.9102493340  TIP3      9720            0.0000000000
     80675     11080  TIP3      H2             20.8788618908      -36.8856813928      -77.0789078616  TIP3      9720            0.0000000000
     80676     11081  TIP3      OH2            28.9910651079      -36.2196116142      -78.0488571586  TIP3      9721            0.0000000000
     80677     11081  TIP3      H1             29.6545488015      -36.5526954733      -77.4037366211  TIP3      9721            0.0000000000
     80678     11081  TIP3      H2             29.5622584200      -35.6749947399      -78.6123256332  TIP3      9721            0.0000000000
     80679     11082  TIP3      OH2            17.9197518108      -33.8382653987      -75.6892618090  TIP3      9722            0.0000000000
     80680     11082  TIP3      H1             18.5362961818      -34.4437574551      -75.2345792087  TIP3      9722            0.0000000000
     80681     11082  TIP3      H2             17.9479846442      -34.2226598130      -76.5855389692  TIP3      9722            0.0000000000
     80682     11083  TIP3      OH2            34.0417147210      -35.8016817141      -70.9662036441  TIP3      9723            0.0000000000
     80683     11083  TIP3      H1             33.4043762821      -35.0628796796      -71.0636314741  TIP3      9723            0.0000000000
     80684     11083  TIP3      H2             34.0485310020      -35.9413795004      -70.0100859278  TIP3      9723            0.0000000000
     80685     11084  TIP3      OH2            19.4562789744      -37.3731108239      -72.6348903387  TIP3      9724            0.0000000000
     80686     11084  TIP3      H1             19.7434892932      -36.6165186217      -73.1870130341  TIP3      9724            0.0000000000
     80687     11084  TIP3      H2             19.3039243352      -36.9832330022      -71.7340333982  TIP3      9724            0.0000000000
     80688     11085  TIP3      OH2            30.8071989469      -36.9009999908      -76.0698215177  TIP3      9725            0.0000000000
     80689     11085  TIP3      H1             30.5713772369      -37.6686409250      -75.5384011278  TIP3      9725            0.0000000000
     80690     11085  TIP3      H2             31.4454568296      -36.4344667151      -75.5009983705  TIP3      9725            0.0000000000
     80691     11086  TIP3      OH2            19.7642419079      -35.5266542033      -74.3708218151  TIP3      9726            0.0000000000
     80692     11086  TIP3      H1             20.3501708648      -34.8325124103      -74.0583997859  TIP3      9726            0.0000000000
     80693     11086  TIP3      H2             20.2647470520      -35.9466002017      -75.1121472208  TIP3      9726            0.0000000000
     80694     11087  TIP3      OH2            17.2166867525      -28.1327347004      -80.5464898010  TIP3      9727            0.0000000000
     80695     11087  TIP3      H1             16.9213439645      -27.8369876949      -81.4283189719  TIP3      9727            0.0000000000
     80696     11087  TIP3      H2             17.2523247863      -27.2974393599      -80.0381754866  TIP3      9727            0.0000000000
     80697     11088  TIP3      OH2            30.8338810872      -26.4158051664      -73.6526013980  TIP3      9728            0.0000000000
     80698     11088  TIP3      H1             29.8702559451      -26.4490823059      -73.7029086328  TIP3      9728            0.0000000000
     80699     11088  TIP3      H2             31.0961501389      -25.5718166623      -74.0510329825  TIP3      9728            0.0000000000
     80700     11089  TIP3      OH2            31.1383499632      -38.2144672053      -72.3712915593  TIP3      9729            0.0000000000
     80701     11089  TIP3      H1             30.4227902500      -37.5700846063      -72.4750926659  TIP3      9729            0.0000000000
     80702     11089  TIP3      H2             31.8661650378      -37.7910173038      -72.8734601298  TIP3      9729            0.0000000000
     80703     11090  TIP3      OH2            23.7000130231      -40.9833569055      -75.4714100668  TIP3      9730            0.0000000000
     80704     11090  TIP3      H1             24.2295842601      -41.3694913536      -74.7596495859  TIP3      9730            0.0000000000
     80705     11090  TIP3      H2             23.4634460329      -40.1787474158      -74.9392807591  TIP3      9730            0.0000000000
     80706     11091  TIP3      OH2            29.1394588947      -24.6330090887      -77.0553456424  TIP3      9731            0.0000000000
     80707     11091  TIP3      H1             29.4683951493      -25.3504893850      -77.6094873116  TIP3      9731            0.0000000000
     80708     11091  TIP3      H2             29.4476322167      -23.8774067371      -77.5851154725  TIP3      9731            0.0000000000
     80709     11092  TIP3      OH2            31.8682500605      -28.1736210776      -70.1692090192  TIP3      9732            0.0000000000
     80710     11092  TIP3      H1             32.0452772123      -28.8503095410      -70.8667759142  TIP3      9732            0.0000000000
     80711     11092  TIP3      H2             32.1482335466      -27.3611625060      -70.6076627847  TIP3      9732            0.0000000000
     80712     11093  TIP3      OH2            33.7644206234      -31.8746601694      -72.1077657022  TIP3      9733            0.0000000000
     80713     11093  TIP3      H1             33.1031034965      -31.1520295089      -72.0821049328  TIP3      9733            0.0000000000
     80714     11093  TIP3      H2             34.2469507767      -31.6435690197      -72.9289296766  TIP3      9733            0.0000000000
     80715     11094  TIP3      OH2            29.7490181662      -32.8874757521      -70.3947696887  TIP3      9734            0.0000000000
     80716     11094  TIP3      H1             29.7887145842      -32.0882413537      -69.8437914998  TIP3      9734            0.0000000000
     80717     11094  TIP3      H2             29.1061554755      -32.5904916527      -71.0737677937  TIP3      9734            0.0000000000
     80718     11095  TIP3      OH2            28.7736070903      -31.9228300528      -81.7511908416  TIP3      9735            0.0000000000
     80719     11095  TIP3      H1             29.3237259489      -31.7248729670      -80.9878522183  TIP3      9735            0.0000000000
     80720     11095  TIP3      H2             29.1302315613      -31.4067155516      -82.4849100164  TIP3      9735            0.0000000000
     80721     11096  TIP3      OH2            19.6825235235      -31.0627888443      -70.0416558362  TIP3      9736            0.0000000000
     80722     11096  TIP3      H1             19.7458243448      -30.4104611149      -69.3208337560  TIP3      9736            0.0000000000
     80723     11096  TIP3      H2             18.7647960972      -30.9668688701      -70.2822421182  TIP3      9736            0.0000000000
     80724     11097  TIP3      OH2            20.9467230400      -25.1175986996      -68.4421877066  TIP3      9737            0.0000000000
     80725     11097  TIP3      H1             20.9576508909      -25.3394736643      -69.3989091652  TIP3      9737            0.0000000000
     80726     11097  TIP3      H2             20.0213000690      -25.3502670464      -68.2273895206  TIP3      9737            0.0000000000
     80727     11098  TIP3      OH2            32.3331893375      -40.1826096829      -82.0399332204  TIP3      9738            0.0000000000
     80728     11098  TIP3      H1             31.4501475674      -39.9969785767      -81.6643719588  TIP3      9738            0.0000000000
     80729     11098  TIP3      H2             32.6588457166      -39.3162455066      -82.3321212480  TIP3      9738            0.0000000000
     80730     11099  TIP3      OH2            20.3624845921      -31.4359501915      -79.9307537002  TIP3      9739            0.0000000000
     80731     11099  TIP3      H1             20.1416601168      -30.6429216506      -80.4404728918  TIP3      9739            0.0000000000
     80732     11099  TIP3      H2             19.7268472831      -32.0984405841      -80.1790380829  TIP3      9739            0.0000000000
     80733     11100  TIP3      OH2            33.5319307973      -25.7729080332      -83.5308872515  TIP3      9740            0.0000000000
     80734     11100  TIP3      H1             33.6920803756      -24.8226970163      -83.4197513774  TIP3      9740            0.0000000000
     80735     11100  TIP3      H2             34.4494442478      -26.1047423156      -83.5869715875  TIP3      9740            0.0000000000
     80736     11101  TIP3      OH2            16.4785408006      -29.0020279265      -71.0563144068  TIP3      9741            0.0000000000
     80737     11101  TIP3      H1             16.0798264268      -29.0127973200      -71.9500437677  TIP3      9741            0.0000000000
     80738     11101  TIP3      H2             16.5681695031      -29.9357807188      -70.8863079894  TIP3      9741            0.0000000000
     80739     11102  TIP3      OH2            16.2773093602      -26.2044596988      -74.3162922918  TIP3      9742            0.0000000000
     80740     11102  TIP3      H1             17.2306814661      -26.3511652212      -74.2913213232  TIP3      9742            0.0000000000
     80741     11102  TIP3      H2             16.1834650642      -25.4043022304      -73.7812833310  TIP3      9742            0.0000000000
     80742     11103  TIP3      OH2            34.5138712249      -25.5257032232      -68.6193609611  TIP3      9743            0.0000000000
     80743     11103  TIP3      H1             34.4204794353      -26.4890909892      -68.6295684709  TIP3      9743            0.0000000000
     80744     11103  TIP3      H2             33.6653702714      -25.2843725152      -68.1736411056  TIP3      9743            0.0000000000
     80745     11104  TIP3      OH2            25.5033538784      -25.9512167405      -69.7679562517  TIP3      9744            0.0000000000
     80746     11104  TIP3      H1             25.5337121204      -25.1348528587      -69.2409653100  TIP3      9744            0.0000000000
     80747     11104  TIP3      H2             24.6652303982      -26.3553194684      -69.4974576893  TIP3      9744            0.0000000000
     80748     11105  TIP3      OH2            25.9126785941      -22.2178271701      -79.9384715156  TIP3      9745            0.0000000000
     80749     11105  TIP3      H1             25.8297108697      -22.3221855963      -80.8981183295  TIP3      9745            0.0000000000
     80750     11105  TIP3      H2             25.9139261557      -21.2572785031      -79.7713353497  TIP3      9745            0.0000000000
     80751     11106  TIP3      OH2            19.5564711770      -23.3563600268      -78.1085324044  TIP3      9746            0.0000000000
     80752     11106  TIP3      H1             19.6907383118      -23.7859445266      -77.2420039102  TIP3      9746            0.0000000000
     80753     11106  TIP3      H2             18.6977940243      -23.7383837841      -78.3549955802  TIP3      9746            0.0000000000
     80754     11107  TIP3      OH2            28.9101377624      -23.0462691399      -82.9183931345  TIP3      9747            0.0000000000
     80755     11107  TIP3      H1             29.3865229736      -23.7526888631      -83.4092347174  TIP3      9747            0.0000000000
     80756     11107  TIP3      H2             28.9992228423      -23.3543912667      -82.0161648042  TIP3      9747            0.0000000000
     80757     11108  TIP3      OH2            31.6714968743      -34.0637348271      -68.1200568105  TIP3      9748            0.0000000000
     80758     11108  TIP3      H1             31.2007580727      -33.6059066575      -68.8354725118  TIP3      9748            0.0000000000
     80759     11108  TIP3      H2             31.6586713134      -34.9832123833      -68.4394199493  TIP3      9748            0.0000000000
     80760     11109  TIP3      OH2            18.8155638864      -27.6328389566      -70.1272992693  TIP3      9749            0.0000000000
     80761     11109  TIP3      H1             19.0489503350      -28.0179025539      -69.2572575431  TIP3      9749            0.0000000000
     80762     11109  TIP3      H2             17.9607316365      -28.0415665469      -70.3337715913  TIP3      9749            0.0000000000
     80763     11110  TIP3      OH2            20.6313225141      -38.6736381991      -75.1218185647  TIP3      9750            0.0000000000
     80764     11110  TIP3      H1             20.1214274728      -39.3705595798      -74.6939712885  TIP3      9750            0.0000000000
     80765     11110  TIP3      H2             21.1083357430      -38.4764014076      -74.2915728023  TIP3      9750            0.0000000000
     80766     11111  TIP3      OH2            26.2691549211      -38.9918853192      -70.7976092941  TIP3      9751            0.0000000000
     80767     11111  TIP3      H1             26.6946489902      -39.7045126204      -70.2990398603  TIP3      9751            0.0000000000
     80768     11111  TIP3      H2             25.4093160698      -39.4846550955      -70.9253716922  TIP3      9751            0.0000000000
     80769     11112  TIP3      OH2            29.3982911189      -35.7007670380      -69.9201323051  TIP3      9752            0.0000000000
     80770     11112  TIP3      H1             28.8555049054      -35.8727484615      -69.1131474969  TIP3      9752            0.0000000000
     80771     11112  TIP3      H2             29.2429139620      -34.7658028480      -70.1482900676  TIP3      9752            0.0000000000
     80772     11113  TIP3      OH2            25.7739608535      -36.9932244067      -83.4392927341  TIP3      9753            0.0000000000
     80773     11113  TIP3      H1             25.4555024997      -36.9741237133      -82.5163351575  TIP3      9753            0.0000000000
     80774     11113  TIP3      H2             25.4541631335      -37.8516331091      -83.7130047620  TIP3      9753            0.0000000000
     80775     11114  TIP3      OH2            21.5169774775      -34.0431989254      -78.0917756628  TIP3      9754            0.0000000000
     80776     11114  TIP3      H1             20.5925863311      -34.3213959693      -78.1995677588  TIP3      9754            0.0000000000
     80777     11114  TIP3      H2             21.9101407672      -34.3931870169      -78.9062402252  TIP3      9754            0.0000000000
     80778     11115  TIP3      OH2            27.0843094512      -33.5656443110      -79.2873745398  TIP3      9755            0.0000000000
     80779     11115  TIP3      H1             26.6304500485      -32.7968913814      -79.6396118868  TIP3      9755            0.0000000000
     80780     11115  TIP3      H2             27.7520345330      -33.7704793041      -79.9648495235  TIP3      9755            0.0000000000
     80781     11116  TIP3      OH2            26.1513415589      -33.4003696306      -67.8775107029  TIP3      9756            0.0000000000
     80782     11116  TIP3      H1             25.6050888324      -34.1393038187      -67.5241212111  TIP3      9756            0.0000000000
     80783     11116  TIP3      H2             26.9659820498      -33.4893621962      -67.3614538251  TIP3      9756            0.0000000000
     80784     11117  TIP3      OH2            28.0961187992      -34.1258122416      -76.4396126472  TIP3      9757            0.0000000000
     80785     11117  TIP3      H1             27.8145068159      -33.5644124584      -77.1807252784  TIP3      9757            0.0000000000
     80786     11117  TIP3      H2             28.2092958188      -34.9722367931      -76.9088590307  TIP3      9757            0.0000000000
     80787     11118  TIP3      OH2            19.2410484000      -33.9502432370      -71.2340975958  TIP3      9758            0.0000000000
     80788     11118  TIP3      H1             19.2245297629      -33.4887325908      -70.3829503249  TIP3      9758            0.0000000000
     80789     11118  TIP3      H2             18.7931913209      -34.7767470016      -71.0413114576  TIP3      9758            0.0000000000
     80790     11119  TIP3      OH2            15.8556499220      -36.8220214853      -77.3164810024  TIP3      9759            0.0000000000
     80791     11119  TIP3      H1             16.5193950773      -36.8501822032      -76.5929056005  TIP3      9759            0.0000000000
     80792     11119  TIP3      H2             16.3261470260      -37.2310725960      -78.0576112174  TIP3      9759            0.0000000000
     80793     11120  TIP3      OH2            17.1288922046      -36.0980107573      -81.8503217414  TIP3      9760            0.0000000000
     80794     11120  TIP3      H1             17.6217240368      -35.5220654781      -82.4576548595  TIP3      9760            0.0000000000
     80795     11120  TIP3      H2             16.4345444508      -35.4833019887      -81.5478476747  TIP3      9760            0.0000000000
     80796     11121  TIP3      OH2            27.3076009813      -32.5089810175      -71.8308189784  TIP3      9761            0.0000000000
     80797     11121  TIP3      H1             27.5979981143      -33.1580260218      -72.4991178341  TIP3      9761            0.0000000000
     80798     11121  TIP3      H2             26.8251496194      -33.0639711237      -71.2027027494  TIP3      9761            0.0000000000
     80799     11122  TIP3      OH2            24.1358685681      -36.4288216530      -77.0950837590  TIP3      9762            0.0000000000
     80800     11122  TIP3      H1             23.1984348609      -36.5350113363      -76.8242191151  TIP3      9762            0.0000000000
     80801     11122  TIP3      H2             24.6061595088      -36.6429774381      -76.2811881273  TIP3      9762            0.0000000000
     80802     11123  TIP3      OH2            18.9109947176      -34.9852888837      -78.1660341859  TIP3      9763            0.0000000000
     80803     11123  TIP3      H1             18.0276723378      -34.8662594568      -78.5665107645  TIP3      9763            0.0000000000
     80804     11123  TIP3      H2             19.2214075201      -35.8287574789      -78.5576779057  TIP3      9763            0.0000000000
     80805     11124  TIP3      OH2            22.5507528595      -34.9202656360      -80.5666793400  TIP3      9764            0.0000000000
     80806     11124  TIP3      H1             23.5009642333      -34.8288934024      -80.3729559349  TIP3      9764            0.0000000000
     80807     11124  TIP3      H2             22.3255335729      -34.2332963575      -81.2200567400  TIP3      9764            0.0000000000
     80808     11125  TIP3      OH2            28.5076607610      -37.3528621752      -73.8201013044  TIP3      9765            0.0000000000
     80809     11125  TIP3      H1             27.8409163763      -37.2372536450      -73.1110954117  TIP3      9765            0.0000000000
     80810     11125  TIP3      H2             27.9903543848      -37.5642690000      -74.6129081486  TIP3      9765            0.0000000000
     80811     11126  TIP3      OH2            21.2441172335      -33.7902531054      -82.9746422493  TIP3      9766            0.0000000000
     80812     11126  TIP3      H1             20.7094743761      -34.1513287723      -83.6912065651  TIP3      9766            0.0000000000
     80813     11126  TIP3      H2             22.0613108654      -33.5311656768      -83.4187036732  TIP3      9766            0.0000000000
     80814     11127  TIP3      OH2            31.7089224710      -21.6677072232      -67.4507306951  TIP3      9767            0.0000000000
     80815     11127  TIP3      H1             32.0016410397      -21.2681646580      -68.2933732130  TIP3      9767            0.0000000000
     80816     11127  TIP3      H2             32.4235654332      -21.3465904625      -66.8779213453  TIP3      9767            0.0000000000
     80817     11128  TIP3      OH2            19.3801884213      -29.1954424658      -67.9143114473  TIP3      9768            0.0000000000
     80818     11128  TIP3      H1             20.1047890141      -28.9605554388      -67.3163432133  TIP3      9768            0.0000000000
     80819     11128  TIP3      H2             18.6019673649      -29.0813916258      -67.3281357643  TIP3      9768            0.0000000000
     80820     11129  TIP3      OH2            25.4407357708      -33.8001292890      -75.1667150961  TIP3      9769            0.0000000000
     80821     11129  TIP3      H1             25.9919483860      -34.3723925072      -75.7045961016  TIP3      9769            0.0000000000
     80822     11129  TIP3      H2             25.2337461014      -34.3220830111      -74.3740223277  TIP3      9769            0.0000000000
     80823     11130  TIP3      OH2            20.4773794947      -37.5584056950      -78.7363622254  TIP3      9770            0.0000000000
     80824     11130  TIP3      H1             20.1008128031      -38.4553197392      -78.7459102463  TIP3      9770            0.0000000000
     80825     11130  TIP3      H2             21.2118516324      -37.6698120592      -79.3488809643  TIP3      9770            0.0000000000
     80826     11131  TIP3      OH2            24.1876259660      -34.9322239987      -72.8393312266  TIP3      9771            0.0000000000
     80827     11131  TIP3      H1             23.2431457894      -34.8288815088      -72.6089197165  TIP3      9771            0.0000000000
     80828     11131  TIP3      H2             24.6331981652      -35.0322061672      -71.9792374187  TIP3      9771            0.0000000000
     80829     11132  TIP3      OH2            31.7941707641      -30.0235644920      -72.2695457883  TIP3      9772            0.0000000000
     80830     11132  TIP3      H1             32.3676457316      -29.5365551402      -72.8833324869  TIP3      9772            0.0000000000
     80831     11132  TIP3      H2             30.9299135439      -29.9597710375      -72.7387201317  TIP3      9772            0.0000000000
     80832     11133  TIP3      OH2            28.4636389117      -36.4203811020      -82.8631676116  TIP3      9773            0.0000000000
     80833     11133  TIP3      H1             27.5209805791      -36.2626524328      -83.0435042168  TIP3      9773            0.0000000000
     80834     11133  TIP3      H2             28.7672745580      -35.5518127810      -82.5540773459  TIP3      9773            0.0000000000
     80835     11134  TIP3      OH2            29.1818392934      -34.4813463238      -81.1644112057  TIP3      9774            0.0000000000
     80836     11134  TIP3      H1             30.0896524399      -34.6576438611      -80.8441679807  TIP3      9774            0.0000000000
     80837     11134  TIP3      H2             29.2475048024      -33.6919277067      -81.7346841289  TIP3      9774            0.0000000000
     80838     11135  TIP3      OH2            28.4010495722      -26.4396758799      -69.8869054391  TIP3      9775            0.0000000000
     80839     11135  TIP3      H1             27.4432421350      -26.3915672872      -70.0823995755  TIP3      9775            0.0000000000
     80840     11135  TIP3      H2             28.3583980110      -26.2778715337      -68.9162738884  TIP3      9775            0.0000000000
     80841     11136  TIP3      OH2            33.9918619850      -34.3211556615      -81.4317712598  TIP3      9776            0.0000000000
     80842     11136  TIP3      H1             33.5466368309      -34.6936584122      -82.2040437595  TIP3      9776            0.0000000000
     80843     11136  TIP3      H2             34.1696443336      -33.4090885488      -81.7564022281  TIP3      9776            0.0000000000
     80844     11137  TIP3      OH2            34.0728426618      -28.5005936397      -68.6594280584  TIP3      9777            0.0000000000
     80845     11137  TIP3      H1             33.1846390441      -28.2772195369      -69.0244130078  TIP3      9777            0.0000000000
     80846     11137  TIP3      H2             34.6202598356      -28.5373667429      -69.4730816603  TIP3      9777            0.0000000000
     80847     11138  TIP3      OH2            32.3569931211      -25.5309687707      -81.0619123882  TIP3      9778            0.0000000000
     80848     11138  TIP3      H1             32.0023783068      -26.3665493324      -80.7457017256  TIP3      9778            0.0000000000
     80849     11138  TIP3      H2             32.6664105663      -25.7318297873      -81.9671311957  TIP3      9778            0.0000000000
     80850     11139  TIP3      OH2            29.5573002866      -30.7163015732      -73.9433904877  TIP3      9779            0.0000000000
     80851     11139  TIP3      H1             28.6366263416      -30.9585721515      -74.0373999179  TIP3      9779            0.0000000000
     80852     11139  TIP3      H2             30.0043014202      -31.4593155425      -74.3908403448  TIP3      9779            0.0000000000
     80853     11140  TIP3      OH2            22.1042508706      -26.3585356926      -77.8402425116  TIP3      9780            0.0000000000
     80854     11140  TIP3      H1             22.6007084941      -25.5696229150      -78.1012136613  TIP3      9780            0.0000000000
     80855     11140  TIP3      H2             21.2179961862      -26.1813692042      -78.1873969216  TIP3      9780            0.0000000000
     80856     11141  TIP3      OH2            17.8337641434      -31.5410024479      -83.2989086403  TIP3      9781            0.0000000000
     80857     11141  TIP3      H1             18.4381894120      -30.9053119775      -82.8836740974  TIP3      9781            0.0000000000
     80858     11141  TIP3      H2             16.9671590226      -31.2212482164      -83.0321042466  TIP3      9781            0.0000000000
     80859     11142  TIP3      OH2            23.9560054227      -24.5207289114      -71.9469551534  TIP3      9782            0.0000000000
     80860     11142  TIP3      H1             24.4203335601      -23.7250988454      -72.2486767600  TIP3      9782            0.0000000000
     80861     11142  TIP3      H2             24.5561502068      -24.8635096415      -71.2648138149  TIP3      9782            0.0000000000
     80862     11143  TIP3      OH2            22.1724679989      -23.7261158657      -78.7443831240  TIP3      9783            0.0000000000
     80863     11143  TIP3      H1             21.2050033911      -23.5679144853      -78.6846406115  TIP3      9783            0.0000000000
     80864     11143  TIP3      H2             22.5526541346      -22.8894881346      -78.4728831567  TIP3      9783            0.0000000000
     80865     11144  TIP3      OH2            30.3268012091      -23.8840090252      -69.5356113797  TIP3      9784            0.0000000000
     80866     11144  TIP3      H1             29.6511575958      -24.5036959302      -69.8573439582  TIP3      9784            0.0000000000
     80867     11144  TIP3      H2             30.5707528996      -23.1832991434      -70.1751758039  TIP3      9784            0.0000000000
     80868     11145  TIP3      OH2            34.2730863490      -23.0789401277      -83.0078325312  TIP3      9785            0.0000000000
     80869     11145  TIP3      H1             34.9918864826      -22.4542145551      -83.1992382119  TIP3      9785            0.0000000000
     80870     11145  TIP3      H2             33.5635760479      -22.4852798512      -82.6874021763  TIP3      9785            0.0000000000
     80871     11146  TIP3      OH2            18.3456821650      -36.7208552116      -70.3885505906  TIP3      9786            0.0000000000
     80872     11146  TIP3      H1             17.4402665265      -36.3853716433      -70.4225307385  TIP3      9786            0.0000000000
     80873     11146  TIP3      H2             18.2054163005      -37.5773603839      -69.9488611612  TIP3      9786            0.0000000000
     80874     11147  TIP3      OH2            17.9719161027      -24.9027851400      -71.9992932388  TIP3      9787            0.0000000000
     80875     11147  TIP3      H1             18.2554464237      -25.8252759111      -71.9715056093  TIP3      9787            0.0000000000
     80876     11147  TIP3      H2             18.2520619608      -24.6190453024      -71.1219767731  TIP3      9787            0.0000000000
     80877     11148  TIP3      OH2            19.1177458178      -29.5978396995      -81.8685263925  TIP3      9788            0.0000000000
     80878     11148  TIP3      H1             18.5275296315      -29.2068070763      -81.1934944723  TIP3      9788            0.0000000000
     80879     11148  TIP3      H2             19.7479285771      -28.8678588176      -81.9875246291  TIP3      9788            0.0000000000
     80880     11149  TIP3      OH2            27.1083675401      -36.7787294203      -71.4990917936  TIP3      9789            0.0000000000
     80881     11149  TIP3      H1             27.8104426416      -36.8510390366      -70.8402251595  TIP3      9789            0.0000000000
     80882     11149  TIP3      H2             26.7394562270      -37.6977101150      -71.3648925618  TIP3      9789            0.0000000000
     80883     11150  TIP3      OH2            27.8740255338      -37.3650652162      -80.3650407184  TIP3      9790            0.0000000000
     80884     11150  TIP3      H1             28.0721357669      -36.8623699436      -81.1798356689  TIP3      9790            0.0000000000
     80885     11150  TIP3      H2             28.4252012105      -36.9008262397      -79.7192079815  TIP3      9790            0.0000000000
     80886     11151  TIP3      OH2            25.0903459497      -35.6212543466      -79.5714147696  TIP3      9791            0.0000000000
     80887     11151  TIP3      H1             25.8466896395      -35.0119645670      -79.5256177797  TIP3      9791            0.0000000000
     80888     11151  TIP3      H2             24.7825293778      -35.6888609823      -78.6440273802  TIP3      9791            0.0000000000
     80889     11152  TIP3      OH2            25.5849046995      -34.5846991916      -70.3562019463  TIP3      9792            0.0000000000
     80890     11152  TIP3      H1             25.7464544128      -34.0209416015      -69.5673593494  TIP3      9792            0.0000000000
     80891     11152  TIP3      H2             26.2723806073      -35.2717581993      -70.2925882962  TIP3      9792            0.0000000000
     80892     11153  TIP3      OH2            25.9323969227      -38.5461053115      -78.6720079550  TIP3      9793            0.0000000000
     80893     11153  TIP3      H1             25.5848519045      -37.8874378985      -78.0365319678  TIP3      9793            0.0000000000
     80894     11153  TIP3      H2             26.6184858504      -38.0014757845      -79.1088501234  TIP3      9793            0.0000000000
     80895     11154  TIP3      OH2            22.8632563672      -24.1701513324      -81.5697165558  TIP3      9794            0.0000000000
     80896     11154  TIP3      H1             23.0496582309      -23.3511152430      -82.0667323077  TIP3      9794            0.0000000000
     80897     11154  TIP3      H2             22.6712063569      -23.8274178428      -80.6847895884  TIP3      9794            0.0000000000
     80898     11155  TIP3      OH2            21.4666498561      -37.3803606232      -81.4785500737  TIP3      9795            0.0000000000
     80899     11155  TIP3      H1             21.5355454748      -36.4197973340      -81.5234979674  TIP3      9795            0.0000000000
     80900     11155  TIP3      H2             22.3970701514      -37.6216412282      -81.6723395038  TIP3      9795            0.0000000000
     80901     11156  TIP3      OH2            31.7943372724      -36.6997286578      -69.5406304488  TIP3      9796            0.0000000000
     80902     11156  TIP3      H1             30.8643630026      -36.3929735075      -69.6643460475  TIP3      9796            0.0000000000
     80903     11156  TIP3      H2             32.1056761396      -36.7326895619      -70.4620474067  TIP3      9796            0.0000000000
     80904     11157  TIP3      OH2            30.4207395720      -32.9299141315      -75.5059006639  TIP3      9797            0.0000000000
     80905     11157  TIP3      H1             29.5865028030      -33.3553895991      -75.7757373046  TIP3      9797            0.0000000000
     80906     11157  TIP3      H2             30.8855493701      -33.6221745763      -74.9903920420  TIP3      9797            0.0000000000
     80907     11158  TIP3      OH2            31.4329039807      -23.6045317040      -73.7957722471  TIP3      9798            0.0000000000
     80908     11158  TIP3      H1             31.3827616323      -22.9841067088      -74.5551188798  TIP3      9798            0.0000000000
     80909     11158  TIP3      H2             32.4206621220      -23.6239068107      -73.6859159871  TIP3      9798            0.0000000000
     80910     11159  TIP3      OH2            18.3117410293      -39.4747060986      -75.1332079886  TIP3      9799            0.0000000000
     80911     11159  TIP3      H1             18.6713281168      -39.4200149679      -76.0611589581  TIP3      9799            0.0000000000
     80912     11159  TIP3      H2             18.4563274440      -40.3733818666      -74.8803946928  TIP3      9799            0.0000000000
     80913     11160  TIP3      OH2            17.9024932846      -25.5983767210      -78.8687883903  TIP3      9800            0.0000000000
     80914     11160  TIP3      H1             17.0588814255      -25.1385165547      -78.9445787132  TIP3      9800            0.0000000000
     80915     11160  TIP3      H2             18.4127982332      -25.1624883500      -79.5705338302  TIP3      9800            0.0000000000
     80916     11161  TIP3      OH2            17.1639401488      -22.9694831992      -67.6113386311  TIP3      9801            0.0000000000
     80917     11161  TIP3      H1             17.7260048557      -23.1810212289      -66.8482673844  TIP3      9801            0.0000000000
     80918     11161  TIP3      H2             16.7215703223      -23.8189902455      -67.7848525554  TIP3      9801            0.0000000000
     80919     11162  TIP3      OH2            21.8586964404      -24.0282739219      -66.0372879403  TIP3      9802            0.0000000000
     80920     11162  TIP3      H1             22.5304725453      -24.6282268203      -65.6766326518  TIP3      9802            0.0000000000
     80921     11162  TIP3      H2             21.7131093247      -24.3996960292      -66.9420730372  TIP3      9802            0.0000000000
     80922     11163  TIP3      OH2            28.3505244563      -25.6814069060      -67.3099452002  TIP3      9803            0.0000000000
     80923     11163  TIP3      H1             27.9995039396      -26.5406091004      -66.9829695363  TIP3      9803            0.0000000000
     80924     11163  TIP3      H2             29.0786083974      -25.5449941845      -66.6693474226  TIP3      9803            0.0000000000
     80925     11164  TIP3      OH2            30.5207164194      -24.7824413340      -84.4157355951  TIP3      9804            0.0000000000
     80926     11164  TIP3      H1             30.8263071812      -25.5584957319      -83.9198767960  TIP3      9804            0.0000000000
     80927     11164  TIP3      H2             31.2806357348      -24.5176050508      -84.9393229884  TIP3      9804            0.0000000000
     80928     11165  TIP3      OH2            17.0459842582      -29.2035871772      -66.6152853663  TIP3      9805            0.0000000000
     80929     11165  TIP3      H1             17.2295153946      -30.1061475443      -66.9493529760  TIP3      9805            0.0000000000
     80930     11165  TIP3      H2             16.3124550632      -28.9289640760      -67.1977385351  TIP3      9805            0.0000000000
     80931     11166  TIP3      OH2            29.4375307901      -29.3534799870      -69.8306541922  TIP3      9806            0.0000000000
     80932     11166  TIP3      H1             30.2197036354      -28.7695108107      -69.9314657312  TIP3      9806            0.0000000000
     80933     11166  TIP3      H2             28.7317218813      -28.7024323304      -69.7894163764  TIP3      9806            0.0000000000
     80934     11167  TIP3      OH2            17.9173743741      -31.9659058296      -67.2312457218  TIP3      9807            0.0000000000
     80935     11167  TIP3      H1             18.3578875914      -32.8203215075      -67.3336805276  TIP3      9807            0.0000000000
     80936     11167  TIP3      H2             17.7333627291      -31.9468979995      -66.2732374825  TIP3      9807            0.0000000000
     80937     11168  TIP3      OH2            26.9394072617      -30.4227504645      -66.4061998145  TIP3      9808            0.0000000000
     80938     11168  TIP3      H1             27.8719652082      -30.4867975137      -66.6662222446  TIP3      9808            0.0000000000
     80939     11168  TIP3      H2             26.7600860263      -31.2536108978      -65.9460906524  TIP3      9808            0.0000000000
     80940     11169  TIP3      OH2            22.3035237266      -35.5874175556      -68.7244265596  TIP3      9809            0.0000000000
     80941     11169  TIP3      H1             22.3946878163      -36.2824249608      -69.3843536355  TIP3      9809            0.0000000000
     80942     11169  TIP3      H2             22.2319588799      -34.8498148170      -69.3415122531  TIP3      9809            0.0000000000
     80943     11170  TIP3      OH2            22.2340352348      -36.2503063448      -71.2047643098  TIP3      9810            0.0000000000
     80944     11170  TIP3      H1             23.0140277682      -36.3534584339      -71.7952754110  TIP3      9810            0.0000000000
     80945     11170  TIP3      H2             21.7793908729      -37.0608172415      -71.5016427028  TIP3      9810            0.0000000000
     80946     11171  TIP3      OH2            28.5902965746      -34.0170434780      -66.0820611093  TIP3      9811            0.0000000000
     80947     11171  TIP3      H1             28.8241740248      -34.9581786647      -66.1295768684  TIP3      9811            0.0000000000
     80948     11171  TIP3      H2             29.4642867467      -33.5904465351      -66.0538961762  TIP3      9811            0.0000000000
     80949     11172  TIP3      OH2            29.9498637653      -31.2248007001      -67.9175745790  TIP3      9812            0.0000000000
     80950     11172  TIP3      H1             29.6646536761      -30.5064255917      -68.5291787055  TIP3      9812            0.0000000000
     80951     11172  TIP3      H2             30.9092109170      -31.2366955917      -68.1102396238  TIP3      9812            0.0000000000
     80952     11173  TIP3      OH2            20.7124774783      -34.4124151604      -66.8398050312  TIP3      9813            0.0000000000
     80953     11173  TIP3      H1             19.9275962009      -34.9540318021      -67.0693436443  TIP3      9813            0.0000000000
     80954     11173  TIP3      H2             21.3479420738      -34.7493869672      -67.4931955661  TIP3      9813            0.0000000000
     80955     11174  TIP3      OH2            23.9254918518      -39.6523820344      -70.3844252336  TIP3      9814            0.0000000000
     80956     11174  TIP3      H1             23.5228987036      -38.8304391720      -70.6922590460  TIP3      9814            0.0000000000
     80957     11174  TIP3      H2             23.2650281227      -40.1531230053      -70.9478143191  TIP3      9814            0.0000000000
     80958     11175  TIP3      OH2            24.7231190885      -35.4629112219      -67.2617563844  TIP3      9815            0.0000000000
     80959     11175  TIP3      H1             24.4315290066      -35.7360864163      -66.3743153228  TIP3      9815            0.0000000000
     80960     11175  TIP3      H2             23.9408137505      -35.6967186257      -67.7904733631  TIP3      9815            0.0000000000
     80961     11176  TIP3      OH2            27.4371745221      -36.3308894018      -68.1698333650  TIP3      9816            0.0000000000
     80962     11176  TIP3      H1             26.4813064353      -36.3036840628      -68.0308645949  TIP3      9816            0.0000000000
     80963     11176  TIP3      H2             27.7179606825      -36.9812147584      -67.4958039792  TIP3      9816            0.0000000000
     80964     11177  TIP3      OH2            29.0015893611      -37.7071780153      -66.2505484443  TIP3      9817            0.0000000000
     80965     11177  TIP3      H1             28.9801797026      -38.6892444547      -66.2356305217  TIP3      9817            0.0000000000
     80966     11177  TIP3      H2             28.7552910869      -37.4450558516      -65.3347692031  TIP3      9817            0.0000000000
     80967     11178  TIP3      OH2            18.8237818507      -36.4591946632      -67.1488678439  TIP3      9818            0.0000000000
     80968     11178  TIP3      H1             19.0495499313      -37.2022708779      -67.7385584695  TIP3      9818            0.0000000000
     80969     11178  TIP3      H2             18.7432406465      -36.9264949207      -66.2900870812  TIP3      9818            0.0000000000
     80970     11179  TIP3      OH2            23.7264294843      -40.2061533035      -67.9875475208  TIP3      9819            0.0000000000
     80971     11179  TIP3      H1             24.3574892462      -40.9362804421      -68.1036551881  TIP3      9819            0.0000000000
     80972     11179  TIP3      H2             23.5473333022      -40.1280303180      -68.9502695295  TIP3      9819            0.0000000000
     80973     11180  TIP3      OH2            24.0669579335      -38.7520851017      -65.9949954398  TIP3      9820            0.0000000000
     80974     11180  TIP3      H1             23.9190472365      -39.2927825669      -66.8155864596  TIP3      9820            0.0000000000
     80975     11180  TIP3      H2             23.4395618013      -38.0320723519      -66.1475549697  TIP3      9820            0.0000000000
     80976     11181  TIP3      OH2            23.5251200253      -21.8660769648      -82.9298844990  TIP3      9821            0.0000000000
     80977     11181  TIP3      H1             24.4911947461      -21.8198201800      -82.8310455714  TIP3      9821            0.0000000000
     80978     11181  TIP3      H2             23.3175857910      -21.2285673625      -83.6097377320  TIP3      9821            0.0000000000
     80979     11182  TIP3      OH2            17.1803079881      -27.2695444722      -83.4365176179  TIP3      9822            0.0000000000
     80980     11182  TIP3      H1             18.1205548209      -27.2147135284      -83.2268242105  TIP3      9822            0.0000000000
     80981     11182  TIP3      H2             17.0933109179      -27.9302842207      -84.1374152655  TIP3      9822            0.0000000000
     80982     11183  TIP3      OH2            15.8408630386      -21.9138601347      -78.4617513963  TIP3      9823            0.0000000000
     80983     11183  TIP3      H1             15.1539804915      -22.4137640737      -78.9476853644  TIP3      9823            0.0000000000
     80984     11183  TIP3      H2             16.1351806165      -22.5786955567      -77.8095630490  TIP3      9823            0.0000000000
     80985     11184  TIP3      OH2            16.6224245606      -23.8296168653      -76.5854083093  TIP3      9824            0.0000000000
     80986     11184  TIP3      H1             16.2974779409      -24.7139317163      -76.3677449669  TIP3      9824            0.0000000000
     80987     11184  TIP3      H2             16.8736806727      -23.4859374639      -75.7104382612  TIP3      9824            0.0000000000
     80988     11185  TIP3      OH2            34.1263253974      -22.9589809457      -73.6211185672  TIP3      9825            0.0000000000
     80989     11185  TIP3      H1             34.2443916016      -22.8397900386      -72.6644630227  TIP3      9825            0.0000000000
     80990     11185  TIP3      H2             34.9068253781      -22.4783802350      -73.9446997612  TIP3      9825            0.0000000000
     80991     11186  TIP3      OH2            33.6897230695      -23.4197853794      -70.6907086768  TIP3      9826            0.0000000000
     80992     11186  TIP3      H1             33.3412716547      -24.2265636146      -71.1025833530  TIP3      9826            0.0000000000
     80993     11186  TIP3      H2             34.2713614061      -23.8375916986      -70.0276232498  TIP3      9826            0.0000000000
     80994     11187  TIP3      OH2            32.2224810997      -27.7004125115      -66.0420119839  TIP3      9827            0.0000000000
     80995     11187  TIP3      H1             31.3293613812      -27.7292759925      -65.6505665110  TIP3      9827            0.0000000000
     80996     11187  TIP3      H2             32.5973303591      -26.9193927025      -65.5746838229  TIP3      9827            0.0000000000
     80997     11188  TIP3      OH2            33.5182207943      -29.4013416120      -80.6125471582  TIP3      9828            0.0000000000
     80998     11188  TIP3      H1             34.3885481388      -28.9848768417      -80.4326269778  TIP3      9828            0.0000000000
     80999     11188  TIP3      H2             33.5126842699      -30.0970023035      -79.9180880962  TIP3      9828            0.0000000000
     81000     11189  TIP3      OH2            33.8900396803      -31.2907401894      -78.7336891171  TIP3      9829            0.0000000000
     81001     11189  TIP3      H1             33.1608610977      -31.8152074680      -78.3327062837  TIP3      9829            0.0000000000
     81002     11189  TIP3      H2             34.4949472125      -31.1402424572      -77.9782444732  TIP3      9829            0.0000000000
     81003     11190  TIP3      OH2            33.6907434793      -28.5876059782      -73.7415031220  TIP3      9830            0.0000000000
     81004     11190  TIP3      H1             34.4932527615      -28.9729404448      -74.1216224527  TIP3      9830            0.0000000000
     81005     11190  TIP3      H2             33.8368168479      -27.6365370958      -73.9104445561  TIP3      9830            0.0000000000
     81006     11191  TIP3      OH2            32.1793175683      -25.6476025172      -71.4911693129  TIP3      9831            0.0000000000
     81007     11191  TIP3      H1             31.5345498576      -25.4590740673      -70.8053761147  TIP3      9831            0.0000000000
     81008     11191  TIP3      H2             31.6796844905      -26.1372591112      -72.1874773680  TIP3      9831            0.0000000000
     81009     11192  TIP3      OH2            33.9591354677      -31.5224472594      -82.2485781812  TIP3      9832            0.0000000000
     81010     11192  TIP3      H1             33.6379897548      -31.1159743549      -83.0658019985  TIP3      9832            0.0000000000
     81011     11192  TIP3      H2             34.1111593729      -30.7529783477      -81.6684259064  TIP3      9832            0.0000000000
     81012     11193  TIP3      OH2            31.7257923858      -32.8155203993      -78.1623548706  TIP3      9833            0.0000000000
     81013     11193  TIP3      H1             31.5421637428      -33.7645867952      -78.1843625169  TIP3      9833            0.0000000000
     81014     11193  TIP3      H2             31.3606889057      -32.5721395221      -77.2946765191  TIP3      9833            0.0000000000
     81015     11194  TIP3      OH2            16.7524409404      -30.6747760338      -74.1110631023  TIP3      9834            0.0000000000
     81016     11194  TIP3      H1             16.9084077502      -30.8445943429      -75.0637282654  TIP3      9834            0.0000000000
     81017     11194  TIP3      H2             17.6074643202      -30.9056885020      -73.7509564401  TIP3      9834            0.0000000000
     81018     11195  TIP3      OH2            32.5555627074      -30.8368093893      -68.4713178971  TIP3      9835            0.0000000000
     81019     11195  TIP3      H1             33.1627879821      -31.5989655175      -68.3279657385  TIP3      9835            0.0000000000
     81020     11195  TIP3      H2             33.1676677671      -30.0710557816      -68.4633384413  TIP3      9835            0.0000000000
     81021     11196  TIP3      OH2            34.0728778602      -32.9670944095      -67.8173207375  TIP3      9836            0.0000000000
     81022     11196  TIP3      H1             33.1904693368      -33.3681449820      -67.9658561003  TIP3      9836            0.0000000000
     81023     11196  TIP3      H2             34.6505534014      -33.7459751458      -67.8909174007  TIP3      9836            0.0000000000
     81024     11197  TIP3      OH2            31.7442180108      -36.7997667849      -84.6783298492  TIP3      9837            0.0000000000
     81025     11197  TIP3      H1             32.3772245372      -37.1912396897      -84.0460910542  TIP3      9837            0.0000000000
     81026     11197  TIP3      H2             30.9191077238      -37.2492579040      -84.4779461609  TIP3      9837            0.0000000000
     81027     11198  TIP3      OH2            31.3944546579      -35.2459290453      -79.6748821065  TIP3      9838            0.0000000000
     81028     11198  TIP3      H1             31.6936399951      -36.1772501463      -79.5753480603  TIP3      9838            0.0000000000
     81029     11198  TIP3      H2             32.1834020580      -34.8508040922      -80.0738677857  TIP3      9838            0.0000000000
     81030     11199  TIP3      OH2            32.0239047291      -34.7363263125      -74.2374090726  TIP3      9839            0.0000000000
     81031     11199  TIP3      H1             32.9676469957      -34.4522623968      -74.2713843962  TIP3      9839            0.0000000000
     81032     11199  TIP3      H2             31.8221537707      -34.5457729307      -73.3060253440  TIP3      9839            0.0000000000
     81033     11200  TIP3      OH2            32.0692603992      -33.9545983238      -71.4782575570  TIP3      9840            0.0000000000
     81034     11200  TIP3      H1             31.1920280357      -33.6592197855      -71.1537283671  TIP3      9840            0.0000000000
     81035     11200  TIP3      H2             32.5136321239      -33.1029747923      -71.6931298758  TIP3      9840            0.0000000000
     81036     11201  TIP3      OH2            16.3498887809      -35.4300820886      -67.9278521129  TIP3      9841            0.0000000000
     81037     11201  TIP3      H1             17.2767163751      -35.6692497493      -67.7769409390  TIP3      9841            0.0000000000
     81038     11201  TIP3      H2             15.8831885163      -36.2532230133      -67.6691693212  TIP3      9841            0.0000000000
     81039     11202  TIP3      OH2            34.4180159074      -39.8405332356      -66.0678010307  TIP3      9842            0.0000000000
     81040     11202  TIP3      H1             34.6346736003      -40.5571473683      -66.7082987077  TIP3      9842            0.0000000000
     81041     11202  TIP3      H2             34.4244441508      -39.0722332918      -66.6559058226  TIP3      9842            0.0000000000
     81042     11203  TIP3      OH2            31.9322392651      -37.9233614047      -79.6219119421  TIP3      9843            0.0000000000
     81043     11203  TIP3      H1             32.2198048534      -38.3956197732      -78.8148715296  TIP3      9843            0.0000000000
     81044     11203  TIP3      H2             31.4291047659      -38.6145961243      -80.0926053158  TIP3      9843            0.0000000000
     81045     11204  TIP3      OH2            17.4816559367      -37.0806600229      -75.1122218589  TIP3      9844            0.0000000000
     81046     11204  TIP3      H1             17.9630946396      -37.9104407736      -74.8599090674  TIP3      9844            0.0000000000
     81047     11204  TIP3      H2             18.0460772847      -36.4150103775      -74.7069586294  TIP3      9844            0.0000000000
     81048     11205  TIP3      OH2            33.8938900621      -37.8086653885      -67.7932353113  TIP3      9845            0.0000000000
     81049     11205  TIP3      H1             32.9380008454      -37.5764540405      -67.8023209564  TIP3      9845            0.0000000000
     81050     11205  TIP3      H2             33.9039907456      -38.4246162610      -68.5484939146  TIP3      9845            0.0000000000
     81051     11206  TIP3      OH2            33.8847852955      -37.9058251414      -83.1051468459  TIP3      9846            0.0000000000
     81052     11206  TIP3      H1             34.3139511981      -38.6243160987      -83.5874440787  TIP3      9846            0.0000000000
     81053     11206  TIP3      H2             34.5851732989      -37.2361226617      -83.0566851994  TIP3      9846            0.0000000000
     81054     11207  TIP3      OH2            16.1541348178      -37.8735751895      -79.9350889171  TIP3      9847            0.0000000000
     81055     11207  TIP3      H1             15.2138454823      -37.6941070270      -80.0984759811  TIP3      9847            0.0000000000
     81056     11207  TIP3      H2             16.5973109095      -37.4020346312      -80.6674655040  TIP3      9847            0.0000000000
     81057     11208  TIP3      OH2            30.9182270522      -22.9086875130      -78.0337770048  TIP3      9848            0.0000000000
     81058     11208  TIP3      H1             31.5913819420      -23.2383958804      -78.6563601579  TIP3      9848            0.0000000000
     81059     11208  TIP3      H2             31.4763998008      -22.4790719103      -77.3700802053  TIP3      9848            0.0000000000
     81060     11209  TIP3      OH2            16.1557948116      -39.1716470888      -71.6612547026  TIP3      9849            0.0000000000
     81061     11209  TIP3      H1             15.4996032283      -39.3867333128      -70.9766384055  TIP3      9849            0.0000000000
     81062     11209  TIP3      H2             15.7137346539      -38.5403869184      -72.2342158515  TIP3      9849            0.0000000000
     81063     11210  TIP3      OH2            18.3650048708      -25.9895499038      -67.4985402409  TIP3      9850            0.0000000000
     81064     11210  TIP3      H1             17.5202474108      -25.8169316193      -67.9444342021  TIP3      9850            0.0000000000
     81065     11210  TIP3      H2             18.0859356597      -26.0892660624      -66.5833949224  TIP3      9850            0.0000000000
     81066     11211  TIP3      OH2            21.2685186082      -25.0191462507      -71.2433793485  TIP3      9851            0.0000000000
     81067     11211  TIP3      H1             20.9265625649      -24.1613555409      -71.5125373641  TIP3      9851            0.0000000000
     81068     11211  TIP3      H2             22.1944023329      -24.9374622269      -71.5567845257  TIP3      9851            0.0000000000
     81069     11212  TIP3      OH2            25.5804669904      -23.5691207754      -68.2902925112  TIP3      9852            0.0000000000
     81070     11212  TIP3      H1             25.7643213050      -23.9681890471      -67.4070962143  TIP3      9852            0.0000000000
     81071     11212  TIP3      H2             26.4782466827      -23.2893060399      -68.5791181158  TIP3      9852            0.0000000000
     81072     11213  TIP3      OH2            27.8806501060      -22.3368380519      -69.0378951225  TIP3      9853            0.0000000000
     81073     11213  TIP3      H1             28.6093600977      -22.9349083036      -69.2082333365  TIP3      9853            0.0000000000
     81074     11213  TIP3      H2             28.2429393675      -21.8825949442      -68.2386058521  TIP3      9853            0.0000000000
     81075     11214  TIP3      OH2            32.8287354257      -39.6791233336      -69.8819691019  TIP3      9854            0.0000000000
     81076     11214  TIP3      H1             32.0166922814      -39.3804770092      -70.3037359122  TIP3      9854            0.0000000000
     81077     11214  TIP3      H2             33.0798782948      -40.4524878095      -70.3433075875  TIP3      9854            0.0000000000
     81078     11215  TIP3      OH2            18.6994615958      -21.7834955694      -71.2489285293  TIP3      9855            0.0000000000
     81079     11215  TIP3      H1             17.9530868951      -21.2912337071      -71.6351739395  TIP3      9855            0.0000000000
     81080     11215  TIP3      H2             18.3813584583      -21.9835219858      -70.3537884706  TIP3      9855            0.0000000000
     81081     11216  TIP3      OH2            21.1745930090      -22.1919962150      -72.2002745025  TIP3      9856            0.0000000000
     81082     11216  TIP3      H1             20.2909473849      -22.0893541044      -71.7638840415  TIP3      9856            0.0000000000
     81083     11216  TIP3      H2             21.0340164525      -21.6153165666      -72.9504070871  TIP3      9856            0.0000000000
     81084     11217  TIP3      OH2            25.8394357666      -22.2851549976      -72.9670053737  TIP3      9857            0.0000000000
     81085     11217  TIP3      H1             25.4091808342      -21.7254472149      -73.6264836106  TIP3      9857            0.0000000000
     81086     11217  TIP3      H2             26.0415208512      -21.6612534806      -72.2501694072  TIP3      9857            0.0000000000
     81087     11218  TIP3      OH2            30.7060609750      -21.9615755535      -71.7510613800  TIP3      9858            0.0000000000
     81088     11218  TIP3      H1             30.6535620822      -20.9783090386      -71.9152242509  TIP3      9858            0.0000000000
     81089     11218  TIP3      H2             30.9917635607      -22.2417612241      -72.6445200213  TIP3      9858            0.0000000000
     81090     11219  TIP3      OH2            18.1151528898      -23.1615029788      -74.3066842117  TIP3      9859            0.0000000000
     81091     11219  TIP3      H1             18.0694616508      -23.5887517322      -73.4256784459  TIP3      9859            0.0000000000
     81092     11219  TIP3      H2             18.9432234827      -23.5080594487      -74.6894451932  TIP3      9859            0.0000000000
     81093     11220  TIP3      OH2            20.2469629250      -24.4177462934      -75.6119245933  TIP3      9860            0.0000000000
     81094     11220  TIP3      H1             20.0548511523      -25.3566620919      -75.4136573700  TIP3      9860            0.0000000000
     81095     11220  TIP3      H2             21.0911145887      -24.3173747644      -75.1579242676  TIP3      9860            0.0000000000
     81096     11221  TIP3      OH2            26.5700926073      -38.1022810400      -75.9672654097  TIP3      9861            0.0000000000
     81097     11221  TIP3      H1             25.8551009146      -38.6915886689      -75.6083738874  TIP3      9861            0.0000000000
     81098     11221  TIP3      H2             27.0775157041      -38.8416972928      -76.3083750995  TIP3      9861            0.0000000000
     81099     11222  TIP3      OH2            31.2316148587      -40.2162770043      -76.2311585154  TIP3      9862            0.0000000000
     81100     11222  TIP3      H1             31.9662228659      -39.5814519254      -76.1639932556  TIP3      9862            0.0000000000
     81101     11222  TIP3      H2             30.4658741248      -39.7912827531      -75.8081150840  TIP3      9862            0.0000000000
     81102     11223  TIP3      OH2            33.2192517888      -38.9823589824      -77.2546365055  TIP3      9863            0.0000000000
     81103     11223  TIP3      H1             33.7844767279      -39.5938771769      -77.7370109498  TIP3      9863            0.0000000000
     81104     11223  TIP3      H2             33.6421805788      -38.1067768164      -77.2148191093  TIP3      9863            0.0000000000
     81105     11224  TIP3      OH2            18.8092669484      -39.0916556807      -77.6251217024  TIP3      9864            0.0000000000
     81106     11224  TIP3      H1             18.1059011022      -39.5207488622      -78.1563880414  TIP3      9864            0.0000000000
     81107     11224  TIP3      H2             19.4179427635      -39.8666041492      -77.6180067283  TIP3      9864            0.0000000000
     81108     11225  TIP3      OH2            17.3658319748      -39.6288643302      -81.5239865052  TIP3      9865            0.0000000000
     81109     11225  TIP3      H1             17.7786498118      -39.2496305855      -82.3219363925  TIP3      9865            0.0000000000
     81110     11225  TIP3      H2             16.5618306694      -39.1096437989      -81.4371336326  TIP3      9865            0.0000000000
     81111     11226  TIP3      OH2            23.4592524504      -39.2252543788      -77.5309685505  TIP3      9866            0.0000000000
     81112     11226  TIP3      H1             24.2546487300      -39.4492916300      -78.0075027601  TIP3      9866            0.0000000000
     81113     11226  TIP3      H2             23.2623241541      -40.0150849254      -76.9710653220  TIP3      9866            0.0000000000
     81114     11227  TIP3      OH2            28.7152942288      -39.7060394162      -76.3770581255  TIP3      9867            0.0000000000
     81115     11227  TIP3      H1             28.8413985742      -39.6482379486      -77.3284971448  TIP3      9867            0.0000000000
     81116     11227  TIP3      H2             28.4930629552      -40.6490631876      -76.2556838049  TIP3      9867            0.0000000000
     81117     11228  TIP3      OH2            30.0044887169      -39.6232877819      -80.8873633002  TIP3      9868            0.0000000000
     81118     11228  TIP3      H1             29.2559902470      -39.0242083870      -80.8422931855  TIP3      9868            0.0000000000
     81119     11228  TIP3      H2             29.7169666615      -40.4626092158      -80.4880447605  TIP3      9868            0.0000000000
     81120     11229  TIP3      OH2            17.3121973023      -23.9457494852      -81.0538765601  TIP3      9869            0.0000000000
     81121     11229  TIP3      H1             16.6431006762      -23.9525595473      -81.7621039901  TIP3      9869            0.0000000000
     81122     11229  TIP3      H2             17.3536144042      -22.9999739844      -80.8652017723  TIP3      9869            0.0000000000
     81123     11230  TIP3      OH2            19.2494920639      -37.7101315232      -83.3309851996  TIP3      9870            0.0000000000
     81124     11230  TIP3      H1             19.7281055844      -38.3414432461      -83.8706695405  TIP3      9870            0.0000000000
     81125     11230  TIP3      H2             19.9820302754      -37.5332507011      -82.7283375862  TIP3      9870            0.0000000000
     81126     11231  TIP3      OH2            24.3093976335      -37.7114010113      -81.1480741572  TIP3      9871            0.0000000000
     81127     11231  TIP3      H1             24.5180809366      -38.2949192972      -80.4003939226  TIP3      9871            0.0000000000
     81128     11231  TIP3      H2             24.3159232996      -36.8604922208      -80.6562095369  TIP3      9871            0.0000000000
     81129     11232  TIP3      OH2            26.1908570300      -22.5732792923      -82.7528546266  TIP3      9872            0.0000000000
     81130     11232  TIP3      H1             27.1356133113      -22.4036224349      -82.9070155400  TIP3      9872            0.0000000000
     81131     11232  TIP3      H2             25.9785487414      -23.1785247327      -83.4783612015  TIP3      9872            0.0000000000
     81132     11233  TIP3      OH2            32.9187975125      -23.1467330823      -80.0024882010  TIP3      9873            0.0000000000
     81133     11233  TIP3      H1             32.7183375916      -23.9397519722      -80.5595772583  TIP3      9873            0.0000000000
     81134     11233  TIP3      H2             32.8188816218      -22.4166852451      -80.6458094082  TIP3      9873            0.0000000000
     81135     11234  TIP3      OH2            18.5415697383      -39.0992153539      -68.2737961282  TIP3      9874            0.0000000000
     81136     11234  TIP3      H1             18.1743950351      -39.9235072147      -67.9299150856  TIP3      9874            0.0000000000
     81137     11234  TIP3      H2             19.4656388925      -39.1794073406      -67.9671564716  TIP3      9874            0.0000000000
     81138     11235  TIP3      OH2            20.5886039145      -39.7254641463      -66.6124124764  TIP3      9875            0.0000000000
     81139     11235  TIP3      H1             21.4226022649      -40.0481873064      -67.0038900748  TIP3      9875            0.0000000000
     81140     11235  TIP3      H2             20.1930454992      -40.5701647977      -66.3619647133  TIP3      9875            0.0000000000
     81141     11236  TIP3      OH2            19.1527946333      -23.0309590537      -84.0983899071  TIP3      9876            0.0000000000
     81142     11236  TIP3      H1             18.9211712053      -22.7266666069      -83.2150535735  TIP3      9876            0.0000000000
     81143     11236  TIP3      H2             19.9530592299      -23.5347477642      -83.9146727535  TIP3      9876            0.0000000000
     81144     11237  TIP3      OH2            29.0071541187      -40.3945790778      -66.5226567327  TIP3      9877            0.0000000000
     81145     11237  TIP3      H1             29.0650507590      -40.9765004337      -65.7596004144  TIP3      9877            0.0000000000
     81146     11237  TIP3      H2             29.8866422426      -40.5088669625      -66.9097010130  TIP3      9877            0.0000000000
     81147     11238  TIP3      OH2            32.1947486966      -24.4108368550      -67.8625985156  TIP3      9878            0.0000000000
     81148     11238  TIP3      H1             31.3750575424      -24.5417058559      -68.3809426667  TIP3      9878            0.0000000000
     81149     11238  TIP3      H2             32.0808323381      -23.4593013409      -67.6623588182  TIP3      9878            0.0000000000
     81150     11239  TIP3      OH2            37.9299678038      -31.7851911143      -72.9624585926  TIP3      9879            0.0000000000
     81151     11239  TIP3      H1             37.8509169750      -32.3086637512      -72.1688904262  TIP3      9879            0.0000000000
     81152     11239  TIP3      H2             38.4340941113      -31.0211477315      -72.6404026718  TIP3      9879            0.0000000000
     81153     11240  TIP3      OH2            39.2811710482      -26.2894270495      -75.7718555779  TIP3      9880            0.0000000000
     81154     11240  TIP3      H1             38.9688201550      -27.2081354448      -75.4476675298  TIP3      9880            0.0000000000
     81155     11240  TIP3      H2             39.6144682595      -26.8659017848      -74.9920926992  TIP3      9880            0.0000000000
     81156     11241  TIP3      OH2            35.3810072751      -33.6254793454      -78.9319327929  TIP3      9881            0.0000000000
     81157     11241  TIP3      H1             34.9692646840      -32.7331742144      -78.9418264939  TIP3      9881            0.0000000000
     81158     11241  TIP3      H2             34.7964672170      -34.1213026156      -79.5140588279  TIP3      9881            0.0000000000
     81159     11242  TIP3      OH2            36.0868324380      -31.3956884290      -76.7618466647  TIP3      9882            0.0000000000
     81160     11242  TIP3      H1             36.3774497514      -32.1876901393      -76.2696100618  TIP3      9882            0.0000000000
     81161     11242  TIP3      H2             36.8200514869      -31.2757243050      -77.3886314266  TIP3      9882            0.0000000000
     81162     11243  TIP3      OH2            39.6565619720      -36.0585966726      -76.1709092518  TIP3      9883            0.0000000000
     81163     11243  TIP3      H1             40.1885407367      -35.4356997573      -76.7144923778  TIP3      9883            0.0000000000
     81164     11243  TIP3      H2             39.7284731078      -36.7971495497      -76.7884385075  TIP3      9883            0.0000000000
     81165     11244  TIP3      OH2            36.7034502977      -33.9380449773      -75.6776874380  TIP3      9884            0.0000000000
     81166     11244  TIP3      H1             37.4135952060      -34.4379679445      -75.2283500969  TIP3      9884            0.0000000000
     81167     11244  TIP3      H2             36.8480695817      -34.1994253203      -76.6032819846  TIP3      9884            0.0000000000
     81168     11245  TIP3      OH2            39.0431487787      -37.3583759740      -72.3074056984  TIP3      9885            0.0000000000
     81169     11245  TIP3      H1             38.7159456614      -36.8620196115      -73.0924115635  TIP3      9885            0.0000000000
     81170     11245  TIP3      H2             38.3024053269      -37.1803409723      -71.6813117586  TIP3      9885            0.0000000000
     81171     11246  TIP3      OH2            38.4485307950      -35.4917056335      -74.1126369188  TIP3      9886            0.0000000000
     81172     11246  TIP3      H1             39.1654590397      -34.8442350569      -73.9865274257  TIP3      9886            0.0000000000
     81173     11246  TIP3      H2             38.8946092194      -35.9087703564      -74.9083621726  TIP3      9886            0.0000000000
     81174     11247  TIP3      OH2            39.9887515176      -27.9235971094      -70.9358519565  TIP3      9887            0.0000000000
     81175     11247  TIP3      H1             39.8502888054      -27.0774343724      -71.3233288235  TIP3      9887            0.0000000000
     81176     11247  TIP3      H2             39.0380201438      -27.9999476160      -70.7246299983  TIP3      9887            0.0000000000
     81177     11248  TIP3      OH2            35.8499735914      -28.2104493259      -80.4825251178  TIP3      9888            0.0000000000
     81178     11248  TIP3      H1             35.8026729300      -27.8978615813      -81.4157360735  TIP3      9888            0.0000000000
     81179     11248  TIP3      H2             36.0762456249      -27.3894877855      -80.0147516172  TIP3      9888            0.0000000000
     81180     11249  TIP3      OH2            40.3261445069      -30.7538653008      -77.1102508608  TIP3      9889            0.0000000000
     81181     11249  TIP3      H1             39.9061645498      -30.7328208817      -78.0098702822  TIP3      9889            0.0000000000
     81182     11249  TIP3      H2             41.0998338111      -31.3048709812      -77.1670105426  TIP3      9889            0.0000000000
     81183     11250  TIP3      OH2            37.9053976047      -30.3132714947      -70.8086438480  TIP3      9890            0.0000000000
     81184     11250  TIP3      H1             38.4960752939      -30.2629001828      -70.0154691331  TIP3      9890            0.0000000000
     81185     11250  TIP3      H2             37.3344725766      -30.9922554879      -70.4123431859  TIP3      9890            0.0000000000
     81186     11251  TIP3      OH2            39.7564270424      -25.1235253729      -68.3578071767  TIP3      9891            0.0000000000
     81187     11251  TIP3      H1             39.8566752703      -25.3006288041      -69.3257783323  TIP3      9891            0.0000000000
     81188     11251  TIP3      H2             38.8472320844      -25.4549603878      -68.2269246243  TIP3      9891            0.0000000000
     81189     11252  TIP3      OH2            38.6589478134      -30.9731031726      -79.1248021746  TIP3      9892            0.0000000000
     81190     11252  TIP3      H1             38.8943255096      -30.6186882327      -80.0138250147  TIP3      9892            0.0000000000
     81191     11252  TIP3      H2             38.8817791031      -31.9032657089      -79.4006424010  TIP3      9892            0.0000000000
     81192     11253  TIP3      OH2            35.3160179270      -28.9585193599      -71.0553635672  TIP3      9893            0.0000000000
     81193     11253  TIP3      H1             34.9218872170      -29.0508101769      -71.9373794180  TIP3      9893            0.0000000000
     81194     11253  TIP3      H2             35.4892555004      -29.9010713776      -70.8560265656  TIP3      9893            0.0000000000
     81195     11254  TIP3      OH2            34.8231976390      -26.1232873458      -74.3671676367  TIP3      9894            0.0000000000
     81196     11254  TIP3      H1             35.7598702342      -26.4275596173      -74.3453118501  TIP3      9894            0.0000000000
     81197     11254  TIP3      H2             34.9318219645      -25.3756295753      -73.7733094312  TIP3      9894            0.0000000000
     81198     11255  TIP3      OH2            38.2236120023      -23.2080642223      -78.0022190729  TIP3      9895            0.0000000000
     81199     11255  TIP3      H1             38.5441738485      -23.7165380986      -77.2164250503  TIP3      9895            0.0000000000
     81200     11255  TIP3      H2             37.5212304509      -23.7627964724      -78.3450827243  TIP3      9895            0.0000000000
     81201     11256  TIP3      OH2            37.6179416229      -27.5639531952      -70.0630998262  TIP3      9896            0.0000000000
     81202     11256  TIP3      H1             37.8967018270      -28.0494046785      -69.2541178428  TIP3      9896            0.0000000000
     81203     11256  TIP3      H2             36.8142519207      -28.0573872156      -70.3330148426  TIP3      9896            0.0000000000
     81204     11257  TIP3      OH2            40.4492767347      -38.6509327478      -74.0737998776  TIP3      9897            0.0000000000
     81205     11257  TIP3      H1             39.7147746133      -39.1954596947      -74.4958573511  TIP3      9897            0.0000000000
     81206     11257  TIP3      H2             40.0618356736      -37.9636006794      -73.5922366833  TIP3      9897            0.0000000000
     81207     11258  TIP3      OH2            40.3756445906      -34.2868730650      -72.6843388652  TIP3      9898            0.0000000000
     81208     11258  TIP3      H1             39.5219559468      -34.2014839954      -72.2159414371  TIP3      9898            0.0000000000
     81209     11258  TIP3      H2             40.3573421541      -33.4726268369      -73.2464086102  TIP3      9898            0.0000000000
     81210     11259  TIP3      OH2            40.3704256652      -34.0249645247      -78.1316830264  TIP3      9899            0.0000000000
     81211     11259  TIP3      H1             39.4446258865      -34.3267661373      -78.1799326361  TIP3      9899            0.0000000000
     81212     11259  TIP3      H2             40.7712531169      -34.4023889638      -78.9080445759  TIP3      9899            0.0000000000
     81213     11260  TIP3      OH2            38.1158827884      -33.9532806544      -71.1937052836  TIP3      9900            0.0000000000
     81214     11260  TIP3      H1             38.0819918079      -33.5321752058      -70.3255777419  TIP3      9900            0.0000000000
     81215     11260  TIP3      H2             37.5975353036      -34.7728666439      -71.0742792880  TIP3      9900            0.0000000000
     81216     11261  TIP3      OH2            34.7245128160      -36.7693243110      -77.2690937369  TIP3      9901            0.0000000000
     81217     11261  TIP3      H1             35.4006526804      -36.8354684026      -76.5617595939  TIP3      9901            0.0000000000
     81218     11261  TIP3      H2             35.1214317186      -37.2016870065      -78.0138495486  TIP3      9901            0.0000000000
     81219     11262  TIP3      OH2            36.0617039713      -36.0764247008      -81.7310547209  TIP3      9902            0.0000000000
     81220     11262  TIP3      H1             36.4547471306      -35.5545222994      -82.4723153528  TIP3      9902            0.0000000000
     81221     11262  TIP3      H2             35.2844640255      -35.5278013367      -81.5668752337  TIP3      9902            0.0000000000
     81222     11263  TIP3      OH2            37.7197302896      -34.9967905060      -78.1054228963  TIP3      9903            0.0000000000
     81223     11263  TIP3      H1             36.8837932599      -34.8045523933      -78.5845610690  TIP3      9903            0.0000000000
     81224     11263  TIP3      H2             38.0580820633      -35.7751331051      -78.5491728073  TIP3      9903            0.0000000000
     81225     11264  TIP3      OH2            40.7502544608      -34.5026425727      -82.9447453707  TIP3      9904            0.0000000000
     81226     11264  TIP3      H1             39.8437039379      -34.4335173785      -83.3207391913  TIP3      9904            0.0000000000
     81227     11264  TIP3      H2             41.0256590406      -33.6363447496      -83.2819212040  TIP3      9904            0.0000000000
     81228     11265  TIP3      OH2            38.2427280486      -29.1618857602      -67.8915210551  TIP3      9905            0.0000000000
     81229     11265  TIP3      H1             38.9872844754      -28.9371181116      -67.3191519688  TIP3      9905            0.0000000000
     81230     11265  TIP3      H2             37.4652613871      -29.0428304789      -67.3089787204  TIP3      9905            0.0000000000
     81231     11266  TIP3      OH2            38.3852613854      -30.6655464555      -75.1361677957  TIP3      9906            0.0000000000
     81232     11266  TIP3      H1             39.0624179534      -30.1654446354      -75.6574956129  TIP3      9906            0.0000000000
     81233     11266  TIP3      H2             38.8805972535      -31.1536026988      -74.5010293955  TIP3      9906            0.0000000000
     81234     11267  TIP3      OH2            35.5535354354      -31.4488724227      -69.9623441375  TIP3      9907            0.0000000000
     81235     11267  TIP3      H1             35.7176075824      -31.8823263962      -69.1040317953  TIP3      9907            0.0000000000
     81236     11267  TIP3      H2             34.9190710502      -32.0359469383      -70.4116130046  TIP3      9907            0.0000000000
     81237     11268  TIP3      OH2            36.3117416225      -31.1999075233      -83.2233339225  TIP3      9908            0.0000000000
     81238     11268  TIP3      H1             37.0867396723      -30.8330334535      -82.7246142144  TIP3      9908            0.0000000000
     81239     11268  TIP3      H2             35.5048487200      -30.9640632849      -82.7776984075  TIP3      9908            0.0000000000
     81240     11269  TIP3      OH2            37.2102168933      -36.7304770002      -70.4300931487  TIP3      9909            0.0000000000
     81241     11269  TIP3      H1             36.3102059643      -36.3569179033      -70.4402509337  TIP3      9909            0.0000000000
     81242     11269  TIP3      H2             37.0596861768      -37.5596490297      -69.9460132121  TIP3      9909            0.0000000000
     81243     11270  TIP3      OH2            36.7490148931      -24.7129180026      -71.7711091525  TIP3      9910            0.0000000000
     81244     11270  TIP3      H1             37.0529588912      -25.6181019963      -72.0099074094  TIP3      9910            0.0000000000
     81245     11270  TIP3      H2             37.1748878374      -24.5997045254      -70.9269171942  TIP3      9910            0.0000000000
     81246     11271  TIP3      OH2            37.6319376526      -29.4961228367      -81.7662579106  TIP3      9911            0.0000000000
     81247     11271  TIP3      H1             37.2302473785      -29.0415940800      -81.0104254811  TIP3      9911            0.0000000000
     81248     11271  TIP3      H2             38.3762533847      -28.9117037977      -81.9942135037  TIP3      9911            0.0000000000
     81249     11272  TIP3      OH2           -41.2265189929      -37.5207560037      -82.1297945124  TIP3      9912            0.0000000000
     81250     11272  TIP3      H1            -41.1882353706      -36.6141986093      -81.8063144552  TIP3      9912            0.0000000000
     81251     11272  TIP3      H2            -40.2873123823      -37.7003249212      -81.9726797776  TIP3      9912            0.0000000000
     81252     11273  TIP3      OH2            38.6250343570      -26.8117751029      -82.6826395948  TIP3      9913            0.0000000000
     81253     11273  TIP3      H1             39.4026155867      -26.2539015625      -82.5348600004  TIP3      9913            0.0000000000
     81254     11273  TIP3      H2             38.9811355344      -27.3278865569      -83.4365226520  TIP3      9913            0.0000000000
     81255     11274  TIP3      OH2            36.7616091166      -34.7259701339      -83.8197672107  TIP3      9914            0.0000000000
     81256     11274  TIP3      H1             36.9982967280      -33.7881238491      -83.6446903780  TIP3      9914            0.0000000000
     81257     11274  TIP3      H2             35.8923170754      -34.6021638090      -84.1976024750  TIP3      9914            0.0000000000
     81258     11275  TIP3      OH2            35.7586440532      -25.6109882793      -78.5245191307  TIP3      9915            0.0000000000
     81259     11275  TIP3      H1             35.3649596706      -24.8318480792      -78.8992042392  TIP3      9915            0.0000000000
     81260     11275  TIP3      H2             36.5510814111      -25.4448986967      -79.0667817382  TIP3      9915            0.0000000000
     81261     11276  TIP3      OH2            36.0722172792      -22.9665790602      -67.6557981587  TIP3      9916            0.0000000000
     81262     11276  TIP3      H1             36.5418713631      -23.1784568638      -66.8327192722  TIP3      9916            0.0000000000
     81263     11276  TIP3      H2             35.5492095016      -23.7838856299      -67.7975387753  TIP3      9916            0.0000000000
     81264     11277  TIP3      OH2            35.8878254491      -29.2102664831      -66.6175029481  TIP3      9917            0.0000000000
     81265     11277  TIP3      H1             36.0794062429      -30.1070496728      -66.9544045840  TIP3      9917            0.0000000000
     81266     11277  TIP3      H2             35.1640741594      -28.9346635584      -67.2075761157  TIP3      9917            0.0000000000
     81267     11278  TIP3      OH2            36.7881274852      -31.9499334520      -67.2366872263  TIP3      9918            0.0000000000
     81268     11278  TIP3      H1             37.1930989800      -32.8172683733      -67.3348246091  TIP3      9918            0.0000000000
     81269     11278  TIP3      H2             36.5786157967      -31.9472252886      -66.2810452161  TIP3      9918            0.0000000000
     81270     11279  TIP3      OH2            39.5388009474      -34.3638376662      -66.8146229332  TIP3      9919            0.0000000000
     81271     11279  TIP3      H1             38.7750030412      -34.9368898796      -67.0485104157  TIP3      9919            0.0000000000
     81272     11279  TIP3      H2             40.2038698588      -34.6457344769      -67.4682335495  TIP3      9919            0.0000000000
     81273     11280  TIP3      OH2            37.7503756474      -36.4709658901      -67.1761117096  TIP3      9920            0.0000000000
     81274     11280  TIP3      H1             37.8794342609      -37.2484313418      -67.7548741923  TIP3      9920            0.0000000000
     81275     11280  TIP3      H2             37.5812206010      -36.9025515900      -66.3116215228  TIP3      9920            0.0000000000
     81276     11281  TIP3      OH2            35.8951663583      -27.3479171926      -83.3673612043  TIP3      9921            0.0000000000
     81277     11281  TIP3      H1             36.8523281378      -27.1840118828      -83.2022905031  TIP3      9921            0.0000000000
     81278     11281  TIP3      H2             35.9319339820      -27.9219641732      -84.1394640624  TIP3      9921            0.0000000000
     81279     11282  TIP3      OH2            34.6949199396      -21.8747109506      -78.4568171766  TIP3      9922            0.0000000000
     81280     11282  TIP3      H1             34.0035975411      -22.3825044950      -78.9232929775  TIP3      9922            0.0000000000
     81281     11282  TIP3      H2             34.9666204284      -22.5502336848      -77.8059635574  TIP3      9922            0.0000000000
     81282     11283  TIP3      OH2            35.5034478242      -23.7770074617      -76.5632929310  TIP3      9923            0.0000000000
     81283     11283  TIP3      H1             35.2051906003      -24.6927493414      -76.4127353149  TIP3      9923            0.0000000000
     81284     11283  TIP3      H2             35.7614066946      -23.4743342777      -75.6828783019  TIP3      9923            0.0000000000
     81285     11284  TIP3      OH2            35.5316265960      -30.8519677702      -74.0335127100  TIP3      9924            0.0000000000
     81286     11284  TIP3      H1             35.7290391867      -30.8370541088      -75.0071163661  TIP3      9924            0.0000000000
     81287     11284  TIP3      H2             36.4610824439      -30.9240988390      -73.7406618654  TIP3      9924            0.0000000000
     81288     11285  TIP3      OH2            35.2399665867      -35.4301887351      -67.9525092017  TIP3      9925            0.0000000000
     81289     11285  TIP3      H1             36.1539985482      -35.6908399200      -67.7410936770  TIP3      9925            0.0000000000
     81290     11285  TIP3      H2             34.7418613221      -36.2371318149      -67.6784874357  TIP3      9925            0.0000000000
     81291     11286  TIP3      OH2            36.3700560921      -37.1762919852      -75.1129266396  TIP3      9926            0.0000000000
     81292     11286  TIP3      H1             36.8791476301      -37.9295322963      -74.8093747312  TIP3      9926            0.0000000000
     81293     11286  TIP3      H2             36.9085079381      -36.4554937493      -74.7293084485  TIP3      9926            0.0000000000
     81294     11287  TIP3      OH2            34.6378964986      -34.1416063358      -74.0464337909  TIP3      9927            0.0000000000
     81295     11287  TIP3      H1             35.2169090206      -34.3856053240      -74.8019858053  TIP3      9927            0.0000000000
     81296     11287  TIP3      H2             35.1173648093      -33.3481850962      -73.7813929511  TIP3      9927            0.0000000000
     81297     11288  TIP3      OH2            37.1991046480      -25.9492506544      -67.4836966927  TIP3      9928            0.0000000000
     81298     11288  TIP3      H1             36.3556718419      -25.8902711246      -67.9686730777  TIP3      9928            0.0000000000
     81299     11288  TIP3      H2             36.9007905522      -26.1103111999      -66.5799095344  TIP3      9928            0.0000000000
     81300     11289  TIP3      OH2            40.5210455865      -24.4307915335      -70.7315257479  TIP3      9929            0.0000000000
     81301     11289  TIP3      H1             39.8354253987      -24.1816746734      -71.3894479581  TIP3      9929            0.0000000000
     81302     11289  TIP3      H2             41.0973915232      -24.8452189182      -71.4095662120  TIP3      9929            0.0000000000
     81303     11290  TIP3      OH2            37.5553459475      -21.7898978602      -71.2211210340  TIP3      9930            0.0000000000
     81304     11290  TIP3      H1             36.8289575611      -21.3181446749      -71.6632588988  TIP3      9930            0.0000000000
     81305     11290  TIP3      H2             37.1624549498      -21.9944319192      -70.3703403443  TIP3      9930            0.0000000000
     81306     11291  TIP3      OH2            39.8643117990      -22.4026602122      -72.3232108228  TIP3      9931            0.0000000000
     81307     11291  TIP3      H1             39.0948980554      -22.1042254079      -71.7986410380  TIP3      9931            0.0000000000
     81308     11291  TIP3      H2             39.9900394474      -21.6650196776      -72.9619476926  TIP3      9931            0.0000000000
     81309     11292  TIP3      OH2            36.9447794539      -23.1794306919      -74.2854481787  TIP3      9932            0.0000000000
     81310     11292  TIP3      H1             36.9446297517      -23.5734408985      -73.3890177504  TIP3      9932            0.0000000000
     81311     11292  TIP3      H2             37.8092420960      -23.4438763261      -74.6957802725  TIP3      9932            0.0000000000
     81312     11293  TIP3      OH2            39.0271983622      -24.0114900468      -75.6370757812  TIP3      9933            0.0000000000
     81313     11293  TIP3      H1             38.8660646288      -25.0013358995      -75.6107965542  TIP3      9933            0.0000000000
     81314     11293  TIP3      H2             39.9189252026      -24.1526172521      -75.2801963622  TIP3      9933            0.0000000000
     81315     11294  TIP3      OH2            35.9739444890      -23.8608214604      -80.9802129763  TIP3      9934            0.0000000000
     81316     11294  TIP3      H1             35.4420291765      -23.8798029384      -81.7919978653  TIP3      9934            0.0000000000
     81317     11294  TIP3      H2             36.1754776277      -22.9250383456      -80.9056450401  TIP3      9934            0.0000000000
     81318     11295  TIP3      OH2            37.4263586164      -39.0885845914      -68.2928552804  TIP3      9935            0.0000000000
     81319     11295  TIP3      H1             37.0353430708      -39.8966247724      -67.9352641646  TIP3      9935            0.0000000000
     81320     11295  TIP3      H2             38.3263399076      -39.2027504707      -67.9618513961  TIP3      9935            0.0000000000
     81321     11296  TIP3      OH2            39.4758980070      -39.7261957664      -66.6718076594  TIP3      9936            0.0000000000
     81322     11296  TIP3      H1             40.2757965652      -40.1531635811      -67.0342236988  TIP3      9936            0.0000000000
     81323     11296  TIP3      H2             39.0012925209      -40.5351186341      -66.3849888629  TIP3      9936            0.0000000000
     81324     11297  TIP3      OH2            37.9684744903      -23.0901284652      -84.0809300469  TIP3      9937            0.0000000000
     81325     11297  TIP3      H1             37.7446676519      -22.7098210609      -83.2198375110  TIP3      9937            0.0000000000
     81326     11297  TIP3      H2             38.8064262960      -23.5167907862      -83.9169197940  TIP3      9937            0.0000000000
     81327     11298  TIP3      OH2           -28.8711342142      -11.6602436509      -77.8295016853  TIP3      9938            0.0000000000
     81328     11298  TIP3      H1            -28.8240763034      -10.6954985157      -78.0021798266  TIP3      9938            0.0000000000
     81329     11298  TIP3      H2            -29.4906619620      -11.9261730727      -78.5484463340  TIP3      9938            0.0000000000
     81330     11299  TIP3      OH2           -29.8336631096      -12.6052263949      -74.5557931831  TIP3      9939            0.0000000000
     81331     11299  TIP3      H1            -29.9652696853      -13.2272407126      -73.8212554686  TIP3      9939            0.0000000000
     81332     11299  TIP3      H2            -30.3165762015      -13.0172603302      -75.3008375788  TIP3      9939            0.0000000000
     81333     11300  TIP3      OH2           -26.3278709750       -9.4736798754      -76.1543447564  TIP3      9940            0.0000000000
     81334     11300  TIP3      H1            -26.6868793373      -10.2096676918      -75.6530932666  TIP3      9940            0.0000000000
     81335     11300  TIP3      H2            -26.2168869453       -8.7825929976      -75.4870580728  TIP3      9940            0.0000000000
     81336     11301  TIP3      OH2           -36.7052874447       -8.2755296069      -74.3693847836  TIP3      9941            0.0000000000
     81337     11301  TIP3      H1            -36.9871641414       -9.1686798579      -74.6762246703  TIP3      9941            0.0000000000
     81338     11301  TIP3      H2            -35.7465476872       -8.4553453492      -74.3041982313  TIP3      9941            0.0000000000
     81339     11302  TIP3      OH2           -31.7529900327       -9.8447816622      -74.1173394402  TIP3      9942            0.0000000000
     81340     11302  TIP3      H1            -31.4193157554      -10.5015169466      -74.7536984246  TIP3      9942            0.0000000000
     81341     11302  TIP3      H2            -31.0169174255       -9.5152843054      -73.5859259090  TIP3      9942            0.0000000000
     81342     11303  TIP3      OH2           -28.4409887997      -15.5506592830      -73.6533261323  TIP3      9943            0.0000000000
     81343     11303  TIP3      H1            -28.2584129871      -16.5186191325      -73.6464457012  TIP3      9943            0.0000000000
     81344     11303  TIP3      H2            -28.5184445750      -15.4108160570      -74.6170524040  TIP3      9943            0.0000000000
     81345     11304  TIP3      OH2           -27.5487303174      -17.3103605780      -78.0045693038  TIP3      9944            0.0000000000
     81346     11304  TIP3      H1            -26.8898748633      -17.6865089969      -77.4145925195  TIP3      9944            0.0000000000
     81347     11304  TIP3      H2            -27.0061797030      -16.8106039349      -78.6278457500  TIP3      9944            0.0000000000
     81348     11305  TIP3      OH2           -33.5125314410      -13.5148596269      -76.2661793049  TIP3      9945            0.0000000000
     81349     11305  TIP3      H1            -32.7954101850      -14.0957316781      -76.0007285297  TIP3      9945            0.0000000000
     81350     11305  TIP3      H2            -33.9971892599      -14.0739385926      -76.8796487373  TIP3      9945            0.0000000000
     81351     11306  TIP3      OH2           -22.5140379043      -16.9434043745      -70.9654629484  TIP3      9946            0.0000000000
     81352     11306  TIP3      H1            -23.1588828927      -16.2128601600      -71.0709009612  TIP3      9946            0.0000000000
     81353     11306  TIP3      H2            -22.4996105460      -17.0403850304      -70.0102488740  TIP3      9946            0.0000000000
     81354     11307  TIP3      OH2           -29.1038867173       -9.0794847647      -78.8052955073  TIP3      9947            0.0000000000
     81355     11307  TIP3      H1            -29.3667920877       -9.3651905707      -79.6945336211  TIP3      9947            0.0000000000
     81356     11307  TIP3      H2            -29.4032646461       -8.1653371214      -78.7723466707  TIP3      9947            0.0000000000
     81357     11308  TIP3      OH2           -33.8107785235      -10.8847384225      -72.1204305415  TIP3      9948            0.0000000000
     81358     11308  TIP3      H1            -34.5880378928      -10.3130220367      -71.9235728112  TIP3      9948            0.0000000000
     81359     11308  TIP3      H2            -33.1967143227      -10.2356583122      -72.4270461401  TIP3      9948            0.0000000000
     81360     11309  TIP3      OH2           -35.4404789510       -8.9172100212      -71.3114656880  TIP3      9949            0.0000000000
     81361     11309  TIP3      H1            -35.5003566563       -8.0179343210      -71.6753858817  TIP3      9949            0.0000000000
     81362     11309  TIP3      H2            -36.3333618361       -9.0169863833      -70.8954010336  TIP3      9949            0.0000000000
     81363     11310  TIP3      OH2           -39.4346473359       -9.2447817690      -80.5141732773  TIP3      9950            0.0000000000
     81364     11310  TIP3      H1            -39.5920426469       -8.9985673279      -81.4385686772  TIP3      9950            0.0000000000
     81365     11310  TIP3      H2            -39.3260923351       -8.4093619459      -80.0546323686  TIP3      9950            0.0000000000
     81366     11311  TIP3      OH2           -25.7399981430       -7.6620053143      -73.7370381053  TIP3      9951            0.0000000000
     81367     11311  TIP3      H1            -26.7038803945       -7.5281518418      -73.6272147877  TIP3      9951            0.0000000000
     81368     11311  TIP3      H2            -25.4690426484       -6.7616304603      -73.9690126981  TIP3      9951            0.0000000000
     81369     11312  TIP3      OH2           -26.2169834354       -7.9416037107      -78.6689803454  TIP3      9952            0.0000000000
     81370     11312  TIP3      H1            -26.5665229145       -8.6078299666      -79.2815110314  TIP3      9952            0.0000000000
     81371     11312  TIP3      H2            -26.2798938987       -8.4097768678      -77.8239410714  TIP3      9952            0.0000000000
     81372     11313  TIP3      OH2           -24.4297418460       -9.3184734984      -70.4238422110  TIP3      9953            0.0000000000
     81373     11313  TIP3      H1            -24.4858971614       -9.9749293253      -71.1346638044  TIP3      9953            0.0000000000
     81374     11313  TIP3      H2            -24.4142480756       -8.4333543685      -70.7999301426  TIP3      9953            0.0000000000
     81375     11314  TIP3      OH2           -29.6665089680      -12.1539300761      -80.3579522973  TIP3      9954            0.0000000000
     81376     11314  TIP3      H1            -30.5766210936      -11.9300385336      -80.6431442156  TIP3      9954            0.0000000000
     81377     11314  TIP3      H2            -29.2876180770      -12.3998019163      -81.2075849193  TIP3      9954            0.0000000000
     81378     11315  TIP3      OH2           -30.0953712808      -13.9315647316      -83.3355786634  TIP3      9955            0.0000000000
     81379     11315  TIP3      H1            -29.3858589594      -13.9228516873      -82.6936124600  TIP3      9955            0.0000000000
     81380     11315  TIP3      H2            -29.7991350342      -14.5719836964      -83.9908649809  TIP3      9955            0.0000000000
     81381     11316  TIP3      OH2           -22.8008270267      -13.0025746298      -72.1306845823  TIP3      9956            0.0000000000
     81382     11316  TIP3      H1            -23.4694618698      -12.2829878786      -72.0674740141  TIP3      9956            0.0000000000
     81383     11316  TIP3      H2            -22.3086986552      -12.7888472457      -72.9414581465  TIP3      9956            0.0000000000
     81384     11317  TIP3      OH2           -26.7562805591      -12.2522125673      -79.5154992196  TIP3      9957            0.0000000000
     81385     11317  TIP3      H1            -27.4824248578      -11.9681235171      -78.9076126500  TIP3      9957            0.0000000000
     81386     11317  TIP3      H2            -26.2511428807      -12.8682925855      -78.9510451176  TIP3      9957            0.0000000000
     81387     11318  TIP3      OH2           -26.8080104062      -14.0595053019      -70.3638889408  TIP3      9958            0.0000000000
     81388     11318  TIP3      H1            -26.7607469072      -13.2463269410      -69.8198016516  TIP3      9958            0.0000000000
     81389     11318  TIP3      H2            -27.4210279429      -13.7536958438      -71.0553137651  TIP3      9958            0.0000000000
     81390     11319  TIP3      OH2           -33.7919709564       -8.1116337965      -74.8817484182  TIP3      9959            0.0000000000
     81391     11319  TIP3      H1            -33.8169764308       -8.6661224875      -75.6766957626  TIP3      9959            0.0000000000
     81392     11319  TIP3      H2            -33.0248642144       -8.5225254034      -74.4408781836  TIP3      9959            0.0000000000
     81393     11320  TIP3      OH2           -28.3453714697       -7.2656900534      -73.1344441839  TIP3      9960            0.0000000000
     81394     11320  TIP3      H1            -28.7042366617       -6.6077844901      -72.5370758927  TIP3      9960            0.0000000000
     81395     11320  TIP3      H2            -28.6121994296       -8.1121163739      -72.7250542007  TIP3      9960            0.0000000000
     81396     11321  TIP3      OH2           -33.8214065507       -8.3635409368      -69.2284452900  TIP3      9961            0.0000000000
     81397     11321  TIP3      H1            -34.2231466232       -7.6250529030      -68.7268948045  TIP3      9961            0.0000000000
     81398     11321  TIP3      H2            -34.5291769466       -8.5768116453      -69.8838921188  TIP3      9961            0.0000000000
     81399     11322  TIP3      OH2           -27.7153635090      -13.1399818548      -81.9069694258  TIP3      9962            0.0000000000
     81400     11322  TIP3      H1            -27.3562581541      -12.8407505137      -81.0275204055  TIP3      9962            0.0000000000
     81401     11322  TIP3      H2            -27.4454127597      -12.4455688851      -82.5124091408  TIP3      9962            0.0000000000
     81402     11323  TIP3      OH2           -36.8832943104      -12.2320316546      -69.9852220232  TIP3      9963            0.0000000000
     81403     11323  TIP3      H1            -36.8668668549      -11.5218028278      -69.3210301961  TIP3      9963            0.0000000000
     81404     11323  TIP3      H2            -37.7831519273      -12.1303886621      -70.3233267913  TIP3      9963            0.0000000000
     81405     11324  TIP3      OH2           -35.6070694172       -6.3553886030      -68.4720792241  TIP3      9964            0.0000000000
     81406     11324  TIP3      H1            -35.6659498444       -6.4683925626      -69.4367518485  TIP3      9964            0.0000000000
     81407     11324  TIP3      H2            -36.5387064589       -6.4658684256      -68.1954641856  TIP3      9964            0.0000000000
     81408     11325  TIP3      OH2           -39.6364268461      -10.3329176576      -71.2837638009  TIP3      9965            0.0000000000
     81409     11325  TIP3      H1            -40.4228762409      -10.1226459777      -71.8204619635  TIP3      9965            0.0000000000
     81410     11325  TIP3      H2            -39.9780369489      -11.1171633792      -70.8265565187  TIP3      9965            0.0000000000
     81411     11326  TIP3      OH2           -40.2395897269       -7.3749866250      -74.3309085862  TIP3      9966            0.0000000000
     81412     11326  TIP3      H1            -39.2867534901       -7.5380453714      -74.3358865611  TIP3      9966            0.0000000000
     81413     11326  TIP3      H2            -40.2925557107       -6.6683059039      -73.7322239479  TIP3      9966            0.0000000000
     81414     11327  TIP3      OH2           -22.0819995562       -6.6645946706      -68.6135088245  TIP3      9967            0.0000000000
     81415     11327  TIP3      H1            -22.1383169024       -7.6410620489      -68.6255032106  TIP3      9967            0.0000000000
     81416     11327  TIP3      H2            -22.9223055332       -6.4815513725      -68.1721028701  TIP3      9967            0.0000000000
     81417     11328  TIP3      OH2           -31.0622270849       -7.1837320286      -69.7036968095  TIP3      9968            0.0000000000
     81418     11328  TIP3      H1            -31.0206954517       -6.3013682085      -69.2650695774  TIP3      9968            0.0000000000
     81419     11328  TIP3      H2            -31.9682225407       -7.4579811754      -69.4834437388  TIP3      9968            0.0000000000
     81420     11329  TIP3      OH2           -37.0190016931       -4.5106450611      -78.1286160200  TIP3      9969            0.0000000000
     81421     11329  TIP3      H1            -36.8587961247       -4.9041009109      -77.2362266594  TIP3      9969            0.0000000000
     81422     11329  TIP3      H2            -37.8393105970       -4.9634583382      -78.3448973077  TIP3      9969            0.0000000000
     81423     11330  TIP3      OH2           -24.9102394741      -15.2284837849      -68.1218226352  TIP3      9970            0.0000000000
     81424     11330  TIP3      H1            -25.3434972676      -14.7334186750      -68.8357771268  TIP3      9970            0.0000000000
     81425     11330  TIP3      H2            -24.9198355805      -16.1369108411      -68.4398784250  TIP3      9970            0.0000000000
     81426     11331  TIP3      OH2           -37.8396109325       -8.6927084571      -70.0999454951  TIP3      9971            0.0000000000
     81427     11331  TIP3      H1            -37.5836330484       -9.1672825878      -69.2868451534  TIP3      9971            0.0000000000
     81428     11331  TIP3      H2            -38.6277034037       -9.2297193303      -70.3657727294  TIP3      9971            0.0000000000
     81429     11332  TIP3      OH2           -27.1566334133      -16.8324920592      -69.9331261084  TIP3      9972            0.0000000000
     81430     11332  TIP3      H1            -27.6997410933      -17.0090021479      -69.1285287203  TIP3      9972            0.0000000000
     81431     11332  TIP3      H2            -27.3030648307      -15.8914710952      -70.1384283988  TIP3      9972            0.0000000000
     81432     11333  TIP3      OH2           -29.4911229961      -14.7416562621      -79.2758387541  TIP3      9973            0.0000000000
     81433     11333  TIP3      H1            -29.9420810616      -13.9209392611      -79.5856944796  TIP3      9973            0.0000000000
     81434     11333  TIP3      H2            -28.8351050835      -14.8772189004      -79.9701632771  TIP3      9973            0.0000000000
     81435     11334  TIP3      OH2           -30.4596935743      -14.5249330420      -67.8267049778  TIP3      9974            0.0000000000
     81436     11334  TIP3      H1            -30.9766847072      -15.3066028044      -67.5334986990  TIP3      9974            0.0000000000
     81437     11334  TIP3      H2            -29.6096678975      -14.6435550312      -67.3696653024  TIP3      9974            0.0000000000
     81438     11335  TIP3      OH2           -28.5214607443      -15.2405264017      -76.4390526677  TIP3      9975            0.0000000000
     81439     11335  TIP3      H1            -28.7691267432      -14.6862417071      -77.2015850680  TIP3      9975            0.0000000000
     81440     11335  TIP3      H2            -28.3747233430      -16.0871243207      -76.9105785714  TIP3      9975            0.0000000000
     81441     11336  TIP3      OH2           -29.2995656031      -13.6184164219      -71.9186050767  TIP3      9976            0.0000000000
     81442     11336  TIP3      H1            -28.8868727519      -14.3275621271      -72.4716867289  TIP3      9976            0.0000000000
     81443     11336  TIP3      H2            -29.6901350577      -14.1697281378      -71.2050126182  TIP3      9976            0.0000000000
     81444     11337  TIP3      OH2           -32.4593214737      -17.7102200287      -77.0278057638  TIP3      9977            0.0000000000
     81445     11337  TIP3      H1            -33.3912844613      -17.6810718621      -76.7929390899  TIP3      9977            0.0000000000
     81446     11337  TIP3      H2            -31.9558303713      -17.8272562215      -76.2191383074  TIP3      9977            0.0000000000
     81447     11338  TIP3      OH2           -28.0919530096      -18.4116144908      -73.7938069022  TIP3      9978            0.0000000000
     81448     11338  TIP3      H1            -28.7495306971      -18.3698725762      -73.0810328965  TIP3      9978            0.0000000000
     81449     11338  TIP3      H2            -28.6089220937      -18.6900156520      -74.5554622998  TIP3      9978            0.0000000000
     81450     11339  TIP3      OH2           -37.0647467646      -10.3585091037      -67.9656658207  TIP3      9979            0.0000000000
     81451     11339  TIP3      H1            -36.4132557600      -10.0917961237      -67.2967764527  TIP3      9979            0.0000000000
     81452     11339  TIP3      H2            -37.8832272806      -10.2401166170      -67.4292227458  TIP3      9979            0.0000000000
     81453     11340  TIP3      OH2           -31.1919949558      -14.9310778615      -75.1168857517  TIP3      9980            0.0000000000
     81454     11340  TIP3      H1            -30.6051440897      -15.4402826220      -75.7018533423  TIP3      9980            0.0000000000
     81455     11340  TIP3      H2            -31.2940547749      -15.4947230485      -74.3518462879  TIP3      9980            0.0000000000
     81456     11341  TIP3      OH2           -32.1009006136       -9.9931799072      -81.0797334004  TIP3      9981            0.0000000000
     81457     11341  TIP3      H1            -32.6127730440      -10.7806682472      -81.3775216294  TIP3      9981            0.0000000000
     81458     11341  TIP3      H2            -32.1134437890      -10.2792979318      -80.1437930719  TIP3      9981            0.0000000000
     81459     11342  TIP3      OH2           -24.7788097942      -11.2486452391      -72.3043208508  TIP3      9982            0.0000000000
     81460     11342  TIP3      H1            -24.2260870783      -10.6818047412      -72.8674931890  TIP3      9982            0.0000000000
     81461     11342  TIP3      H2            -25.6532163415      -11.0986390739      -72.6985819521  TIP3      9982            0.0000000000
     81462     11343  TIP3      OH2           -28.1186222458      -17.5676138514      -82.8486618393  TIP3      9983            0.0000000000
     81463     11343  TIP3      H1            -29.0477237620      -17.4058413847      -83.0122625137  TIP3      9983            0.0000000000
     81464     11343  TIP3      H2            -27.8108567364      -16.7029860660      -82.5448018709  TIP3      9983            0.0000000000
     81465     11344  TIP3      OH2           -30.5157150105      -10.1076390061      -69.8626553003  TIP3      9984            0.0000000000
     81466     11344  TIP3      H1            -30.7711776978      -10.5246232827      -69.0230810926  TIP3      9984            0.0000000000
     81467     11344  TIP3      H2            -30.6811365929       -9.1691794987      -69.6763322426  TIP3      9984            0.0000000000
     81468     11345  TIP3      OH2           -27.3592130752      -15.6673381483      -81.1781253939  TIP3      9985            0.0000000000
     81469     11345  TIP3      H1            -26.4450394856      -15.7825130962      -80.8612722749  TIP3      9985            0.0000000000
     81470     11345  TIP3      H2            -27.3218438378      -14.8422425847      -81.7012139327  TIP3      9985            0.0000000000
     81471     11346  TIP3      OH2           -36.8126861477      -10.9477368613      -75.2726842528  TIP3      9986            0.0000000000
     81472     11346  TIP3      H1            -36.1441690987      -11.0638397921      -75.9546067893  TIP3      9986            0.0000000000
     81473     11346  TIP3      H2            -36.7409919698      -11.7785410740      -74.7823202609  TIP3      9986            0.0000000000
     81474     11347  TIP3      OH2           -29.8411169651       -8.8622231007      -81.9985051680  TIP3      9987            0.0000000000
     81475     11347  TIP3      H1            -30.1833331105       -8.0489474269      -81.6438165093  TIP3      9987            0.0000000000
     81476     11347  TIP3      H2            -30.5730969253       -9.4884848782      -81.8272379307  TIP3      9987            0.0000000000
     81477     11348  TIP3      OH2           -39.9372484115      -12.5855845255      -69.9336270428  TIP3      9988            0.0000000000
     81478     11348  TIP3      H1            -39.6083150157      -13.0388614668      -69.1418934439  TIP3      9988            0.0000000000
     81479     11348  TIP3      H2            -40.4306203927      -13.2583305278      -70.4098471898  TIP3      9988            0.0000000000
     81480     11349  TIP3      OH2           -32.8326659784      -12.9838468195      -67.7565607015  TIP3      9989            0.0000000000
     81481     11349  TIP3      H1            -33.1860516354      -13.2899188850      -68.6140656249  TIP3      9989            0.0000000000
     81482     11349  TIP3      H2            -31.9224913319      -13.3303868640      -67.8030499081  TIP3      9989            0.0000000000
     81483     11350  TIP3      OH2           -28.1811061729       -7.6473708352      -69.8929446844  TIP3      9990            0.0000000000
     81484     11350  TIP3      H1            -29.1098288157       -7.4799274413      -70.0699584228  TIP3      9990            0.0000000000
     81485     11350  TIP3      H2            -28.1684728515       -7.4374619791      -68.9361989557  TIP3      9990            0.0000000000
     81486     11351  TIP3      OH2           -22.4540756775       -9.6099551266      -68.6590659721  TIP3      9991            0.0000000000
     81487     11351  TIP3      H1            -23.3909921098       -9.4548578526      -68.9730101127  TIP3      9991            0.0000000000
     81488     11351  TIP3      H2            -21.9670108003       -9.6813753152      -69.4980315353  TIP3      9991            0.0000000000
     81489     11352  TIP3      OH2           -27.0478628305      -11.8489253479      -73.9354867461  TIP3      9992            0.0000000000
     81490     11352  TIP3      H1            -27.9449587259      -12.1377664098      -74.1093047348  TIP3      9992            0.0000000000
     81491     11352  TIP3      H2            -26.5572509956      -12.5792780235      -74.3787428046  TIP3      9992            0.0000000000
     81492     11353  TIP3      OH2           -34.4486362020       -7.5418183884      -77.9125517162  TIP3      9993            0.0000000000
     81493     11353  TIP3      H1            -33.9837138411       -6.7080375819      -78.0618989511  TIP3      9993            0.0000000000
     81494     11353  TIP3      H2            -35.3481063942       -7.2938527869      -78.1721265800  TIP3      9993            0.0000000000
     81495     11354  TIP3      OH2           -33.0527319279       -9.8572068807      -78.2871002800  TIP3      9994            0.0000000000
     81496     11354  TIP3      H1            -33.3778292857       -8.9418625152      -78.2726519843  TIP3      9994            0.0000000000
     81497     11354  TIP3      H2            -33.7695023721      -10.3568414740      -77.8843086468  TIP3      9994            0.0000000000
     81498     11355  TIP3      OH2           -34.3791961215       -4.8422521572      -78.7879016108  TIP3      9995            0.0000000000
     81499     11355  TIP3      H1            -35.3491532110       -4.7242037063      -78.6816470319  TIP3      9995            0.0000000000
     81500     11355  TIP3      H2            -34.0306975719       -4.0329601186      -78.3974524954  TIP3      9995            0.0000000000
     81501     11356  TIP3      OH2           -29.0488892838       -9.6479974034      -72.2766197371  TIP3      9996            0.0000000000
     81502     11356  TIP3      H1            -29.3289384347       -9.7791410924      -71.3373668746  TIP3      9996            0.0000000000
     81503     11356  TIP3      H2            -28.2931066182      -10.2666625522      -72.3625856742  TIP3      9996            0.0000000000
     81504     11357  TIP3      OH2           -25.9762299479      -10.0473986906      -80.9892843294  TIP3      9997            0.0000000000
     81505     11357  TIP3      H1            -26.1968350563      -10.7922084939      -80.4129872174  TIP3      9997            0.0000000000
     81506     11357  TIP3      H2            -25.0304391524       -9.8924615601      -80.8033595006  TIP3      9997            0.0000000000
     81507     11358  TIP3      OH2           -38.7028097569       -6.0776852194      -71.9675575101  TIP3      9998            0.0000000000
     81508     11358  TIP3      H1            -38.2725352388       -6.9569376952      -72.0223708201  TIP3      9998            0.0000000000
     81509     11358  TIP3      H2            -38.2885186175       -5.7742908762      -71.1389837762  TIP3      9998            0.0000000000
     81510     11359  TIP3      OH2           -33.8501991116       -7.9855355294      -82.3165927995  TIP3      9999            0.0000000000
     81511     11359  TIP3      H1            -33.5992246632       -8.5361783175      -81.5549418147  TIP3      9999            0.0000000000
     81512     11359  TIP3      H2            -33.8123966634       -7.0561377360      -81.9926664739  TIP3      9999            0.0000000000
     81513     11360  TIP3      OH2           -29.4802355528      -18.1146907251      -71.5026488581  TIP3      10000           0.0000000000
     81514     11360  TIP3      H1            -28.7484325035      -18.0031134848      -70.8710132437  TIP3      10000           0.0000000000
     81515     11360  TIP3      H2            -29.8448483462      -18.9724059035      -71.2853849442  TIP3      10000           0.0000000000
     81516     11361  TIP3      OH2           -28.6714564357      -18.4872922963      -80.3624428679  TIP3      10001           0.0000000000
     81517     11361  TIP3      H1            -28.5024200896      -18.0263927001      -81.2148041734  TIP3      10001           0.0000000000
     81518     11361  TIP3      H2            -28.1473181879      -18.0074640720      -79.7295686048  TIP3      10001           0.0000000000
     81519     11362  TIP3      OH2           -31.5449313792      -16.7411381053      -79.5954022555  TIP3      10002           0.0000000000
     81520     11362  TIP3      H1            -30.7569243508      -16.1821568363      -79.5643507308  TIP3      10002           0.0000000000
     81521     11362  TIP3      H2            -31.7705007838      -16.8768440562      -78.6731283816  TIP3      10002           0.0000000000
     81522     11363  TIP3      OH2           -30.9177435238      -15.7196957159      -70.4128432001  TIP3      10003           0.0000000000
     81523     11363  TIP3      H1            -30.8699114047      -15.1759288361      -69.6028796186  TIP3      10003           0.0000000000
     81524     11363  TIP3      H2            -30.2659308648      -16.4187423585      -70.2858943818  TIP3      10003           0.0000000000
     81525     11364  TIP3      OH2           -33.9067564165       -5.3175502896      -81.6559528782  TIP3      10004           0.0000000000
     81526     11364  TIP3      H1            -33.5465193524       -4.5174680017      -82.0982267622  TIP3      10004           0.0000000000
     81527     11364  TIP3      H2            -33.9388160098       -5.0073044282      -80.7258758627  TIP3      10004           0.0000000000
     81528     11365  TIP3      OH2           -24.7502593659      -17.8711746256      -69.5594705777  TIP3      10005           0.0000000000
     81529     11365  TIP3      H1            -25.6732572124      -17.5257640564      -69.6725627173  TIP3      10005           0.0000000000
     81530     11365  TIP3      H2            -24.4357692947      -17.8289411428      -70.4765159022  TIP3      10005           0.0000000000
     81531     11366  TIP3      OH2           -26.2001628605      -14.0408219130      -75.4779312020  TIP3      10006           0.0000000000
     81532     11366  TIP3      H1            -26.9760542002      -14.5282374500      -75.7959917117  TIP3      10006           0.0000000000
     81533     11366  TIP3      H2            -25.6878681031      -14.7395482242      -75.0031980896  TIP3      10006           0.0000000000
     81534     11367  TIP3      OH2           -36.7417073364       -8.1003952339      -82.9376533506  TIP3      10007           0.0000000000
     81535     11367  TIP3      H1            -36.1034667237       -7.4641592475      -82.6005589941  TIP3      10007           0.0000000000
     81536     11367  TIP3      H2            -36.2399615701       -8.5964822693      -83.5922530590  TIP3      10007           0.0000000000
     81537     11368  TIP3      OH2           -38.6265491258       -6.7422579688      -78.9146369167  TIP3      10008           0.0000000000
     81538     11368  TIP3      H1            -39.5065558347       -6.3766597957      -78.9392378162  TIP3      10008           0.0000000000
     81539     11368  TIP3      H2            -38.1322464478       -6.2996569634      -79.6117898603  TIP3      10008           0.0000000000
     81540     11369  TIP3      OH2           -39.3840677314       -4.1300161888      -67.6408731519  TIP3      10009           0.0000000000
     81541     11369  TIP3      H1            -38.8117723817       -4.3286687179      -66.8736148987  TIP3      10009           0.0000000000
     81542     11369  TIP3      H2            -39.8712878560       -4.9559184883      -67.7715879028  TIP3      10009           0.0000000000
     81543     11370  TIP3      OH2           -34.7722961064       -5.2038853587      -65.9934189166  TIP3      10010           0.0000000000
     81544     11370  TIP3      H1            -33.9911958920       -5.6771089877      -65.6876663667  TIP3      10010           0.0000000000
     81545     11370  TIP3      H2            -34.7916899971       -5.4627882283      -66.9365767012  TIP3      10010           0.0000000000
     81546     11371  TIP3      OH2           -28.2850911398       -6.7984959131      -67.2301276324  TIP3      10011           0.0000000000
     81547     11371  TIP3      H1            -28.5449273267       -7.7125932816      -66.9906656718  TIP3      10011           0.0000000000
     81548     11371  TIP3      H2            -27.4664951699       -6.7093091531      -66.6976849468  TIP3      10011           0.0000000000
     81549     11372  TIP3      OH2           -39.3132488474      -10.3502699576      -66.7970403777  TIP3      10012           0.0000000000
     81550     11372  TIP3      H1            -39.2634441738      -11.3111257774      -66.9990758232  TIP3      10012           0.0000000000
     81551     11372  TIP3      H2            -40.0711855673      -10.0739557578      -67.3386140401  TIP3      10012           0.0000000000
     81552     11373  TIP3      OH2           -32.8259402084      -10.3370145425      -67.2199501190  TIP3      10013           0.0000000000
     81553     11373  TIP3      H1            -33.1603824554      -10.0389787809      -68.0799621909  TIP3      10013           0.0000000000
     81554     11373  TIP3      H2            -32.7154417249      -11.3114300598      -67.3420039595  TIP3      10013           0.0000000000
     81555     11374  TIP3      OH2           -27.2330102771      -10.4754826803      -70.1814510211  TIP3      10014           0.0000000000
     81556     11374  TIP3      H1            -26.3953034941      -10.0237358698      -69.8550291091  TIP3      10014           0.0000000000
     81557     11374  TIP3      H2            -27.8087852792       -9.8248283444      -69.7562174148  TIP3      10014           0.0000000000
     81558     11375  TIP3      OH2           -38.6663539537      -13.1496266949      -67.2607236718  TIP3      10015           0.0000000000
     81559     11375  TIP3      H1            -38.1587406443      -13.9710419342      -67.3650349648  TIP3      10015           0.0000000000
     81560     11375  TIP3      H2            -38.8043904511      -13.1138649076      -66.3025332156  TIP3      10015           0.0000000000
     81561     11376  TIP3      OH2           -34.7028922170      -14.1200140508      -69.8580646970  TIP3      10016           0.0000000000
     81562     11376  TIP3      H1            -35.3396885967      -13.4246737815      -69.6200363291  TIP3      10016           0.0000000000
     81563     11376  TIP3      H2            -34.3289362888      -13.7677047689      -70.6737659352  TIP3      10016           0.0000000000
     81564     11377  TIP3      OH2           -29.6206558647      -11.5916644890      -66.4887529908  TIP3      10017           0.0000000000
     81565     11377  TIP3      H1            -28.6658578951      -11.6006791349      -66.6491196150  TIP3      10017           0.0000000000
     81566     11377  TIP3      H2            -29.7856672235      -12.3800620215      -65.9482705607  TIP3      10017           0.0000000000
     81567     11378  TIP3      OH2           -32.3195119425      -12.8935169046      -71.0230611344  TIP3      10018           0.0000000000
     81568     11378  TIP3      H1            -31.6095231159      -13.1119562398      -71.6174132009  TIP3      10018           0.0000000000
     81569     11378  TIP3      H2            -32.7488284250      -12.0836279530      -71.3542810000  TIP3      10018           0.0000000000
     81570     11379  TIP3      OH2           -27.9569352881      -15.1518575838      -66.1383411260  TIP3      10019           0.0000000000
     81571     11379  TIP3      H1            -27.7183957300      -16.0902899948      -66.0900811631  TIP3      10019           0.0000000000
     81572     11379  TIP3      H2            -27.0922006839      -14.7191107839      -66.0363175460  TIP3      10019           0.0000000000
     81573     11380  TIP3      OH2           -26.6477542760      -12.4452351071      -67.9561691665  TIP3      10020           0.0000000000
     81574     11380  TIP3      H1            -26.8423323149      -11.6155647010      -68.4385501630  TIP3      10020           0.0000000000
     81575     11380  TIP3      H2            -25.6774766977      -12.3612867025      -68.0602503764  TIP3      10020           0.0000000000
     81576     11381  TIP3      OH2           -31.8559220180      -16.6839165976      -67.2897365268  TIP3      10021           0.0000000000
     81577     11381  TIP3      H1            -32.1289970073      -16.8802117091      -66.3701644021  TIP3      10021           0.0000000000
     81578     11381  TIP3      H2            -32.6678032968      -16.8524782217      -67.7861935569  TIP3      10021           0.0000000000
     81579     11382  TIP3      OH2           -29.1496818980      -17.5545792473      -68.2416519748  TIP3      10022           0.0000000000
     81580     11382  TIP3      H1            -30.0902549384      -17.4330527799      -68.0394697106  TIP3      10022           0.0000000000
     81581     11382  TIP3      H2            -28.8431828884      -18.1324212867      -67.5123504126  TIP3      10022           0.0000000000
     81582     11383  TIP3      OH2           -27.5912527317      -18.8586100883      -66.2769296608  TIP3      10023           0.0000000000
     81583     11383  TIP3      H1            -27.5845365151      -19.8407486453      -66.2310741136  TIP3      10023           0.0000000000
     81584     11383  TIP3      H2            -27.8051982033      -18.5768093232      -65.3519583274  TIP3      10023           0.0000000000
     81585     11384  TIP3      OH2           -32.8789735322      -21.5879801318      -68.1794861807  TIP3      10024           0.0000000000
     81586     11384  TIP3      H1            -32.2006122256      -22.2999437639      -68.2200950955  TIP3      10024           0.0000000000
     81587     11384  TIP3      H2            -33.0240825330      -21.4146417036      -69.1086155321  TIP3      10024           0.0000000000
     81588     11385  TIP3      OH2           -32.5378417756      -19.9827376725      -66.1017007173  TIP3      10025           0.0000000000
     81589     11385  TIP3      H1            -32.7138054112      -20.4841840237      -66.9346718439  TIP3      10025           0.0000000000
     81590     11385  TIP3      H2            -33.1263035591      -19.2096005162      -66.1874118989  TIP3      10025           0.0000000000
     81591     11386  TIP3      OH2           -33.0165297086       -3.0593889399      -82.9324939843  TIP3      10026           0.0000000000
     81592     11386  TIP3      H1            -32.0674171268       -2.9090699359      -82.8120727455  TIP3      10026           0.0000000000
     81593     11386  TIP3      H2            -33.2538286592       -2.4206730703      -83.6078637184  TIP3      10026           0.0000000000
     81594     11387  TIP3      OH2           -39.3948631906       -8.4137409332      -83.4038945317  TIP3      10027           0.0000000000
     81595     11387  TIP3      H1            -38.4437262658       -8.3549270392      -83.1947485572  TIP3      10027           0.0000000000
     81596     11387  TIP3      H2            -39.4449093505       -9.0782914645      -84.0921845254  TIP3      10027           0.0000000000
     81597     11388  TIP3      OH2            40.5377762990       -3.9721743184      -77.0077896602  TIP3      10028           0.0000000000
     81598     11388  TIP3      H1             40.0834039228       -3.7204009718      -77.8483204678  TIP3      10028           0.0000000000
     81599     11388  TIP3      H2             41.3625315410       -3.9696781744      -77.5321069413  TIP3      10028           0.0000000000
     81600     11389  TIP3      OH2           -39.3949662277       -5.6271563692      -76.2467387960  TIP3      10029           0.0000000000
     81601     11389  TIP3      H1            -40.2969178586       -5.9558971191      -76.4198366847  TIP3      10029           0.0000000000
     81602     11389  TIP3      H2            -39.6360170674       -4.7471416485      -75.8485022469  TIP3      10029           0.0000000000
     81603     11390  TIP3      OH2           -22.6922491570       -4.5807446029      -70.7789940800  TIP3      10030           0.0000000000
     81604     11390  TIP3      H1            -23.2388753178       -5.3278792879      -71.0930982281  TIP3      10030           0.0000000000
     81605     11390  TIP3      H2            -22.2759102203       -4.9876626889      -70.0129078958  TIP3      10030           0.0000000000
     81606     11391  TIP3      OH2           -24.1756331193       -8.8892386712      -65.6080814697  TIP3      10031           0.0000000000
     81607     11391  TIP3      H1            -25.1560224374       -8.8818090184      -65.7207591491  TIP3      10031           0.0000000000
     81608     11391  TIP3      H2            -23.9671513341       -7.9522950681      -65.4605733329  TIP3      10031           0.0000000000
     81609     11392  TIP3      OH2           -23.0451941469      -10.5535032364      -80.5538088287  TIP3      10032           0.0000000000
     81610     11392  TIP3      H1            -22.1899967652      -10.1036922726      -80.4158092459  TIP3      10032           0.0000000000
     81611     11392  TIP3      H2            -23.0519607255      -11.2728672091      -79.9327955534  TIP3      10032           0.0000000000
     81612     11393  TIP3      OH2           -22.9411754199       -9.7238432636      -73.7479505926  TIP3      10033           0.0000000000
     81613     11393  TIP3      H1            -22.1207350780      -10.1201977114      -74.0959814174  TIP3      10033           0.0000000000
     81614     11393  TIP3      H2            -22.7660828713       -8.7792573392      -73.9184111405  TIP3      10033           0.0000000000
     81615     11394  TIP3      OH2           -24.3845774646       -6.7831852080      -71.4892201136  TIP3      10034           0.0000000000
     81616     11394  TIP3      H1            -25.0642541576       -6.5121083203      -70.8573069171  TIP3      10034           0.0000000000
     81617     11394  TIP3      H2            -24.9331758971       -7.2601997264      -72.1477440674  TIP3      10034           0.0000000000
     81618     11395  TIP3      OH2           -24.8738051831      -13.9466586220      -78.1764720326  TIP3      10035           0.0000000000
     81619     11395  TIP3      H1            -25.0348814187      -14.9009386047      -78.1912930667  TIP3      10035           0.0000000000
     81620     11395  TIP3      H2            -25.1837041414      -13.7026247068      -77.2852652346  TIP3      10035           0.0000000000
     81621     11396  TIP3      OH2           -23.9950433059      -12.0768072058      -68.5065395528  TIP3      10036           0.0000000000
     81622     11396  TIP3      H1            -23.3341167763      -12.7708864626      -68.3147377099  TIP3      10036           0.0000000000
     81623     11396  TIP3      H2            -23.4902667346      -11.2375287279      -68.4458508943  TIP3      10036           0.0000000000
     81624     11397  TIP3      OH2           -22.4862856836      -14.1323354045      -67.7764526520  TIP3      10037           0.0000000000
     81625     11397  TIP3      H1            -23.3683939850      -14.5041124782      -67.9857433519  TIP3      10037           0.0000000000
     81626     11397  TIP3      H2            -21.9004132874      -14.8949284594      -67.9308430540  TIP3      10037           0.0000000000
     81627     11398  TIP3      OH2           -25.1693912902      -16.3424790736      -79.6951810531  TIP3      10038           0.0000000000
     81628     11398  TIP3      H1            -24.8823601092      -17.2565246445      -79.5690292710  TIP3      10038           0.0000000000
     81629     11398  TIP3      H2            -24.3729096376      -15.9484008721      -80.0791704080  TIP3      10038           0.0000000000
     81630     11399  TIP3      OH2           -24.5442632170      -15.8150105988      -74.2509545801  TIP3      10039           0.0000000000
     81631     11399  TIP3      H1            -23.6096462631      -15.5946266086      -74.2692236786  TIP3      10039           0.0000000000
     81632     11399  TIP3      H2            -24.7473250682      -15.7313680692      -73.3074813854  TIP3      10039           0.0000000000
     81633     11400  TIP3      OH2           -24.4921949493      -15.1133766147      -71.4621007369  TIP3      10040           0.0000000000
     81634     11400  TIP3      H1            -25.3729741200      -14.8251181481      -71.1426353055  TIP3      10040           0.0000000000
     81635     11400  TIP3      H2            -24.0587236326      -14.2560017872      -71.6782770177  TIP3      10040           0.0000000000
     81636     11401  TIP3      OH2           -40.1114789094      -16.7230636739      -68.1146713006  TIP3      10041           0.0000000000
     81637     11401  TIP3      H1            -39.2258131118      -16.7776009241      -67.7536951339  TIP3      10041           0.0000000000
     81638     11401  TIP3      H2            -40.6123402900      -17.3889766126      -67.6279194649  TIP3      10041           0.0000000000
     81639     11402  TIP3      OH2           -22.2087383268      -21.0650030700      -66.1329183463  TIP3      10042           0.0000000000
     81640     11402  TIP3      H1            -21.8353157078      -21.7311008905      -66.7308919328  TIP3      10042           0.0000000000
     81641     11402  TIP3      H2            -22.1027075569      -20.2401869957      -66.6437605963  TIP3      10042           0.0000000000
     81642     11403  TIP3      OH2           -22.7043819188      -18.9777029950      -67.7799326932  TIP3      10043           0.0000000000
     81643     11403  TIP3      H1            -23.6420387973      -18.6853753022      -67.7903142805  TIP3      10043           0.0000000000
     81644     11403  TIP3      H2            -22.6534285038      -19.4885170601      -68.5982710502  TIP3      10043           0.0000000000
     81645     11404  TIP3      OH2           -22.6135300908      -19.0776426579      -83.0363183996  TIP3      10044           0.0000000000
     81646     11404  TIP3      H1            -22.2798498685      -19.7978429621      -83.5744007909  TIP3      10044           0.0000000000
     81647     11404  TIP3      H2            -21.9466619760      -18.3850427680      -83.0671534067  TIP3      10044           0.0000000000
     81648     11405  TIP3      OH2            41.0527174338      -20.1301219994      -71.4177496162  TIP3      10045           0.0000000000
     81649     11405  TIP3      H1             40.3141834816      -20.6019457913      -71.0353411347  TIP3      10045           0.0000000000
     81650     11405  TIP3      H2             40.6283319319      -19.7436785058      -72.1987173171  TIP3      10045           0.0000000000
     81651     11406  TIP3      OH2           -38.2376183943       -7.1187791035      -67.4853350350  TIP3      10046           0.0000000000
     81652     11406  TIP3      H1            -39.0835488922       -6.9684678845      -67.9220309263  TIP3      10046           0.0000000000
     81653     11406  TIP3      H2            -38.4995219509       -7.2363649982      -66.5671881157  TIP3      10046           0.0000000000
     81654     11407  TIP3      OH2           -35.3434380643       -6.1756163383      -71.2544826953  TIP3      10047           0.0000000000
     81655     11407  TIP3      H1            -35.6478198354       -5.2837533974      -71.4998845440  TIP3      10047           0.0000000000
     81656     11407  TIP3      H2            -34.4113926817       -6.0978292880      -71.5142947917  TIP3      10047           0.0000000000
     81657     11408  TIP3      OH2           -30.9815150936       -4.7363824280      -68.3101644267  TIP3      10048           0.0000000000
     81658     11408  TIP3      H1            -30.8223810649       -5.0942727821      -67.4032573172  TIP3      10048           0.0000000000
     81659     11408  TIP3      H2            -30.0959995871       -4.4665240872      -68.5808439748  TIP3      10048           0.0000000000
     81660     11409  TIP3      OH2           -23.7109571320      -20.9154449211      -69.9276754745  TIP3      10049           0.0000000000
     81661     11409  TIP3      H1            -24.4921490986      -20.5258935577      -70.3486736966  TIP3      10049           0.0000000000
     81662     11409  TIP3      H2            -23.4786442861      -21.6456551113      -70.5178200796  TIP3      10049           0.0000000000
     81663     11410  TIP3      OH2           -37.9201541285       -3.0128646081      -71.2298306835  TIP3      10050           0.0000000000
     81664     11410  TIP3      H1            -38.5554044192       -2.3942136258      -71.6425825339  TIP3      10050           0.0000000000
     81665     11410  TIP3      H2            -38.2069982883       -3.0754376875      -70.3094445129  TIP3      10050           0.0000000000
     81666     11411  TIP3      OH2           -35.4269478939       -3.4053135094      -72.1718671689  TIP3      10051           0.0000000000
     81667     11411  TIP3      H1            -36.2748679694       -3.1772859167      -71.7441865462  TIP3      10051           0.0000000000
     81668     11411  TIP3      H2            -35.4242288333       -2.7745913897      -72.9313474441  TIP3      10051           0.0000000000
     81669     11412  TIP3      OH2           -38.4839544644       -4.3868314179      -74.2133359662  TIP3      10052           0.0000000000
     81670     11412  TIP3      H1            -38.3129786901       -4.7860435414      -73.3599871409  TIP3      10052           0.0000000000
     81671     11412  TIP3      H2            -37.6650194572       -4.6242602028      -74.7231117051  TIP3      10052           0.0000000000
     81672     11413  TIP3      OH2           -36.3516896438       -5.5554697879      -75.6468885317  TIP3      10053           0.0000000000
     81673     11413  TIP3      H1            -36.5375966033       -6.4836276402      -75.4328574558  TIP3      10053           0.0000000000
     81674     11413  TIP3      H2            -35.4887244025       -5.4344922672      -75.1938042382  TIP3      10053           0.0000000000
     81675     11414  TIP3      OH2           -33.7278572368       -5.1273610183      -74.7716388505  TIP3      10054           0.0000000000
     81676     11414  TIP3      H1            -33.5562661219       -6.0485773625      -75.0181201867  TIP3      10054           0.0000000000
     81677     11414  TIP3      H2            -33.7259145162       -5.1346306052      -73.8099221684  TIP3      10054           0.0000000000
     81678     11415  TIP3      OH2           -30.2832941138      -19.4221316243      -75.5989076510  TIP3      10055           0.0000000000
     81679     11415  TIP3      H1            -30.9178376151      -20.0972635049      -75.3492489722  TIP3      10055           0.0000000000
     81680     11415  TIP3      H2            -29.7278421042      -19.9000587553      -76.2299218716  TIP3      10055           0.0000000000
     81681     11416  TIP3      OH2           -37.9380062677      -20.8001908407      -77.8070721960  TIP3      10056           0.0000000000
     81682     11416  TIP3      H1            -38.7227229392      -21.0555859434      -78.2969768242  TIP3      10056           0.0000000000
     81683     11416  TIP3      H2            -37.4198373513      -21.6181562018      -77.8181751173  TIP3      10056           0.0000000000
     81684     11417  TIP3      OH2           -33.3683715947      -20.9806134938      -78.0035028443  TIP3      10057           0.0000000000
     81685     11417  TIP3      H1            -32.5497248144      -20.4732040920      -78.0538590360  TIP3      10057           0.0000000000
     81686     11417  TIP3      H2            -33.5235822402      -21.0646023611      -77.0685354892  TIP3      10057           0.0000000000
     81687     11418  TIP3      OH2           -39.1050660024       -5.2706041209      -81.5284486775  TIP3      10058           0.0000000000
     81688     11418  TIP3      H1            -39.9702886183       -5.1720747043      -81.9170476546  TIP3      10058           0.0000000000
     81689     11418  TIP3      H2            -39.1003924604       -4.4116490522      -81.0312552060  TIP3      10058           0.0000000000
     81690     11419  TIP3      OH2           -32.3596238420      -18.8471862885      -81.1369172583  TIP3      10059           0.0000000000
     81691     11419  TIP3      H1            -32.0141811615      -19.4342937609      -80.4664656951  TIP3      10059           0.0000000000
     81692     11419  TIP3      H2            -32.2217023675      -17.9747470790      -80.7103920310  TIP3      10059           0.0000000000
     81693     11420  TIP3      OH2           -36.0165426309      -20.8676862218      -66.6936693667  TIP3      10060           0.0000000000
     81694     11420  TIP3      H1            -35.1516180759      -21.2327422019      -66.9511527966  TIP3      10060           0.0000000000
     81695     11420  TIP3      H2            -36.4204946924      -21.6601456137      -66.2987486823  TIP3      10060           0.0000000000
     81696     11421  TIP3      OH2           -37.3289311507       -4.1505295708      -84.1069399058  TIP3      10061           0.0000000000
     81697     11421  TIP3      H1            -37.7029044705       -3.8554862012      -83.2589075805  TIP3      10061           0.0000000000
     81698     11421  TIP3      H2            -36.6159240392       -4.7198943795      -83.8589966798  TIP3      10061           0.0000000000
     81699     11422  TIP3      OH2           -27.5852177241      -21.5200635924      -66.4860991044  TIP3      10062           0.0000000000
     81700     11422  TIP3      H1            -27.5262937033      -22.0959866314      -65.7100563864  TIP3      10062           0.0000000000
     81701     11422  TIP3      H2            -26.7087463362      -21.6424074073      -66.8949675278  TIP3      10062           0.0000000000
     81702     11423  TIP3      OH2            -9.9796978930      -11.6245168873      -77.9012164447  TIP3      10063           0.0000000000
     81703     11423  TIP3      H1             -9.9813641055      -10.6684281275      -78.0231476938  TIP3      10063           0.0000000000
     81704     11423  TIP3      H2            -10.6646339979      -11.9199387789      -78.5393887021  TIP3      10063           0.0000000000
     81705     11424  TIP3      OH2            -7.3348194906       -9.5565335797      -76.0871457865  TIP3      10064           0.0000000000
     81706     11424  TIP3      H1             -7.8437581566      -10.2449339233      -75.6644903351  TIP3      10064           0.0000000000
     81707     11424  TIP3      H2             -7.4056604992       -8.7949723017      -75.5124731769  TIP3      10064           0.0000000000
     81708     11425  TIP3      OH2           -17.8348831222       -8.3102065043      -74.3510370499  TIP3      10065           0.0000000000
     81709     11425  TIP3      H1            -18.1586353044       -9.1536253418      -74.7074382470  TIP3      10065           0.0000000000
     81710     11425  TIP3      H2            -16.8667491568       -8.4435543862      -74.3071525785  TIP3      10065           0.0000000000
     81711     11426  TIP3      OH2            -4.1729782733      -18.3421593145      -73.2093816097  TIP3      10066           0.0000000000
     81712     11426  TIP3      H1             -3.9532990147      -17.7870580274      -72.4244964808  TIP3      10066           0.0000000000
     81713     11426  TIP3      H2             -3.5877021780      -17.9107443811      -73.8540264817  TIP3      10066           0.0000000000
     81714     11427  TIP3      OH2            -9.4823693554      -15.5520290515      -73.6510378744  TIP3      10067           0.0000000000
     81715     11427  TIP3      H1             -9.4541490076      -16.5179978185      -73.6535647278  TIP3      10067           0.0000000000
     81716     11427  TIP3      H2             -9.6924879084      -15.3989641444      -74.5918265572  TIP3      10067           0.0000000000
     81717     11428  TIP3      OH2            -8.6865422449      -17.3690581299      -78.0051449573  TIP3      10068           0.0000000000
     81718     11428  TIP3      H1             -8.0033519453      -17.6883285599      -77.3874137251  TIP3      10068           0.0000000000
     81719     11428  TIP3      H2             -8.1855970278      -16.8445375360      -78.6489759331  TIP3      10068           0.0000000000
     81720     11429  TIP3      OH2            -3.7062253466      -16.9444867041      -70.9711400050  TIP3      10069           0.0000000000
     81721     11429  TIP3      H1             -4.3036517033      -16.1775891115      -71.0392105692  TIP3      10069           0.0000000000
     81722     11429  TIP3      H2             -3.6170113269      -17.0433362537      -70.0126939281  TIP3      10069           0.0000000000
     81723     11430  TIP3      OH2           -17.5344282157      -18.4983670436      -72.3562720494  TIP3      10070           0.0000000000
     81724     11430  TIP3      H1            -17.8720055015      -18.0836666081      -73.1551027344  TIP3      10070           0.0000000000
     81725     11430  TIP3      H2            -18.2505574205      -18.3280647929      -71.7032002509  TIP3      10070           0.0000000000
     81726     11431  TIP3      OH2            -6.8276389623      -18.1072025035      -76.0857400646  TIP3      10071           0.0000000000
     81727     11431  TIP3      H1             -7.1487340866      -18.7772403216      -75.4836662643  TIP3      10071           0.0000000000
     81728     11431  TIP3      H2             -6.2850289406      -17.5734909427      -75.4861380260  TIP3      10071           0.0000000000
     81729     11432  TIP3      OH2           -16.6030042558       -8.8186258758      -71.2317888418  TIP3      10072           0.0000000000
     81730     11432  TIP3      H1            -16.6615519588       -7.9472225880      -71.6610793595  TIP3      10072           0.0000000000
     81731     11432  TIP3      H2            -17.5121749551       -8.9498253570      -70.8586878878  TIP3      10072           0.0000000000
     81732     11433  TIP3      OH2           -20.5589517595       -9.2981074464      -80.5289969846  TIP3      10073           0.0000000000
     81733     11433  TIP3      H1            -20.7546562500       -9.0085612287      -81.4413940902  TIP3      10073           0.0000000000
     81734     11433  TIP3      H2            -20.4662416479       -8.4532100257      -80.0538983451  TIP3      10073           0.0000000000
     81735     11434  TIP3      OH2            -6.5975365557      -19.3399885071      -72.4195161581  TIP3      10074           0.0000000000
     81736     11434  TIP3      H1             -7.3197195221      -18.6998957211      -72.4610390763  TIP3      10074           0.0000000000
     81737     11434  TIP3      H2             -5.8515074532      -18.9091779684      -72.8844996958  TIP3      10074           0.0000000000
     81738     11435  TIP3      OH2            -5.8309209379       -9.3470838179      -70.1788437699  TIP3      10075           0.0000000000
     81739     11435  TIP3      H1             -5.6764588805       -9.9886479970      -70.8999657251  TIP3      10075           0.0000000000
     81740     11435  TIP3      H2             -5.6193879775       -8.5077407688      -70.5844002740  TIP3      10075           0.0000000000
     81741     11436  TIP3      OH2           -11.3069588825      -12.4170413973      -80.3861098201  TIP3      10076           0.0000000000
     81742     11436  TIP3      H1            -12.0025376947      -11.8723206497      -80.7650454259  TIP3      10076           0.0000000000
     81743     11436  TIP3      H2            -10.6111175929      -12.3538307532      -81.0659293178  TIP3      10076           0.0000000000
     81744     11437  TIP3      OH2           -11.1279683497      -13.8014610778      -83.3672484040  TIP3      10077           0.0000000000
     81745     11437  TIP3      H1            -10.4742779312      -13.8972775152      -82.6622637701  TIP3      10077           0.0000000000
     81746     11437  TIP3      H2            -10.9132243278      -14.5238796590      -83.9598857581  TIP3      10077           0.0000000000
     81747     11438  TIP3      OH2            -3.9642200138      -13.0168328852      -72.1362547808  TIP3      10078           0.0000000000
     81748     11438  TIP3      H1             -4.5934498399      -12.2753025209      -72.0824742829  TIP3      10078           0.0000000000
     81749     11438  TIP3      H2             -3.4348093645      -12.7888344874      -72.9228120755  TIP3      10078           0.0000000000
     81750     11439  TIP3      OH2            -7.8889847574      -12.1944743316      -79.4833553882  TIP3      10079           0.0000000000
     81751     11439  TIP3      H1             -8.6339802797      -11.9771254175      -78.8798604044  TIP3      10079           0.0000000000
     81752     11439  TIP3      H2             -7.4136612245      -12.8905371438      -78.9981948064  TIP3      10079           0.0000000000
     81753     11440  TIP3      OH2            -7.9594648389      -14.0445704677      -70.3888192228  TIP3      10080           0.0000000000
     81754     11440  TIP3      H1             -7.9159689605      -13.2694943126      -69.8128971057  TIP3      10080           0.0000000000
     81755     11440  TIP3      H2             -8.5700722871      -13.7822740486      -71.0937620178  TIP3      10080           0.0000000000
     81756     11441  TIP3      OH2           -14.9841917648       -8.2166355120      -74.8754586144  TIP3      10081           0.0000000000
     81757     11441  TIP3      H1            -14.9358941245       -8.6765721051      -75.7225974414  TIP3      10081           0.0000000000
     81758     11441  TIP3      H2            -14.1408064052       -8.4832188071      -74.4530040443  TIP3      10081           0.0000000000
     81759     11442  TIP3      OH2           -14.9948138416       -8.4307302825      -69.2189547662  TIP3      10082           0.0000000000
     81760     11442  TIP3      H1            -15.3191650932       -7.6542689889      -68.7284748798  TIP3      10082           0.0000000000
     81761     11442  TIP3      H2            -15.6737617507       -8.5249718192      -69.9262596910  TIP3      10082           0.0000000000
     81762     11443  TIP3      OH2            -8.9606231286      -13.1176116395      -81.8093161253  TIP3      10083           0.0000000000
     81763     11443  TIP3      H1             -8.4466352499      -12.8284130503      -81.0176575720  TIP3      10083           0.0000000000
     81764     11443  TIP3      H2             -8.6454803524      -12.5085881491      -82.5019070728  TIP3      10083           0.0000000000
     81765     11444  TIP3      OH2           -16.7464522970       -6.2937052804      -68.4622640777  TIP3      10084           0.0000000000
     81766     11444  TIP3      H1            -16.7640107593       -6.4485544669      -69.4241997814  TIP3      10084           0.0000000000
     81767     11444  TIP3      H2            -17.6708716336       -6.4997152242      -68.2159212647  TIP3      10084           0.0000000000
     81768     11445  TIP3      OH2            -5.2958277059      -21.3051145104      -81.9191581473  TIP3      10085           0.0000000000
     81769     11445  TIP3      H1             -6.2285014968      -21.1595552752      -81.6930392828  TIP3      10085           0.0000000000
     81770     11445  TIP3      H2             -5.0530398672      -20.4929628073      -82.3644333609  TIP3      10085           0.0000000000
     81771     11446  TIP3      OH2           -21.1200712770      -10.1277355413      -71.0980643677  TIP3      10086           0.0000000000
     81772     11446  TIP3      H1            -21.6741079122      -10.1748245241      -71.8934016924  TIP3      10086           0.0000000000
     81773     11446  TIP3      H2            -21.1072494366      -11.0670572508      -70.8271603104  TIP3      10086           0.0000000000
     81774     11447  TIP3      OH2           -21.4217057942       -7.3836685532      -74.3070113546  TIP3      10087           0.0000000000
     81775     11447  TIP3      H1            -20.4618157423       -7.4813432612      -74.3081112562  TIP3      10087           0.0000000000
     81776     11447  TIP3      H2            -21.5077284513       -6.5786030260      -73.7822622213  TIP3      10087           0.0000000000
     81777     11448  TIP3      OH2            -3.1816495254       -6.6765213757      -68.6088184386  TIP3      10088           0.0000000000
     81778     11448  TIP3      H1             -3.3029969112       -7.6330554433      -68.6033822405  TIP3      10088           0.0000000000
     81779     11448  TIP3      H2             -4.0463033112       -6.4297044164      -68.1926218335  TIP3      10088           0.0000000000
     81780     11449  TIP3      OH2           -11.7972210533       -3.3230958108      -79.9059019895  TIP3      10089           0.0000000000
     81781     11449  TIP3      H1            -11.9158703889       -3.4760140930      -80.8492773003  TIP3      10089           0.0000000000
     81782     11449  TIP3      H2            -11.7861566069       -2.3750235821      -79.8254959307  TIP3      10089           0.0000000000
     81783     11450  TIP3      OH2           -18.1532583020       -4.5234153610      -78.1282452539  TIP3      10090           0.0000000000
     81784     11450  TIP3      H1            -18.0167909244       -4.9035226998      -77.2350926359  TIP3      10090           0.0000000000
     81785     11450  TIP3      H2            -19.0010021423       -4.9322112741      -78.3604348480  TIP3      10090           0.0000000000
     81786     11451  TIP3      OH2            -6.0829672996      -15.1757989097      -68.1286893563  TIP3      10091           0.0000000000
     81787     11451  TIP3      H1             -6.5259639674      -14.7378975102      -68.8663217680  TIP3      10091           0.0000000000
     81788     11451  TIP3      H2             -6.0648303252      -16.0971787959      -68.4316860576  TIP3      10091           0.0000000000
     81789     11452  TIP3      OH2           -18.9431529228       -8.7639526467      -70.1168225042  TIP3      10092           0.0000000000
     81790     11452  TIP3      H1            -18.6997922824       -9.1726023040      -69.2498698450  TIP3      10092           0.0000000000
     81791     11452  TIP3      H2            -19.7772682978       -9.2254155512      -70.3328202264  TIP3      10092           0.0000000000
     81792     11453  TIP3      OH2            -8.2919639181      -16.7952590867      -69.9187421944  TIP3      10093           0.0000000000
     81793     11453  TIP3      H1             -8.8503395257      -17.0135262981      -69.1304465347  TIP3      10093           0.0000000000
     81794     11453  TIP3      H2             -8.4980186820      -15.8803967800      -70.1654997724  TIP3      10093           0.0000000000
     81795     11454  TIP3      OH2           -10.6090409847      -14.6980262248      -79.2585154780  TIP3      10094           0.0000000000
     81796     11454  TIP3      H1            -11.0655737958      -13.9213367645      -79.6352862733  TIP3      10094           0.0000000000
     81797     11454  TIP3      H2             -9.9787939296      -14.9287130626      -79.9552015596  TIP3      10094           0.0000000000
     81798     11455  TIP3      OH2           -11.5678506534      -14.5373061975      -67.8378486457  TIP3      10095           0.0000000000
     81799     11455  TIP3      H1            -12.1105770917      -15.3020338211      -67.5246071772  TIP3      10095           0.0000000000
     81800     11455  TIP3      H2            -10.7332233568      -14.6629648566      -67.3542494365  TIP3      10095           0.0000000000
     81801     11456  TIP3      OH2            -9.5496445515      -15.2386465906      -76.4750727914  TIP3      10096           0.0000000000
     81802     11456  TIP3      H1             -9.9351875890      -14.7102416202      -77.1914181173  TIP3      10096           0.0000000000
     81803     11456  TIP3      H2             -9.5514845456      -16.1043009154      -76.9317906024  TIP3      10096           0.0000000000
     81804     11457  TIP3      OH2           -21.9027562814      -18.0529347315      -77.1500749717  TIP3      10097           0.0000000000
     81805     11457  TIP3      H1            -21.1791878931      -17.9791058492      -76.5253908214  TIP3      10097           0.0000000000
     81806     11457  TIP3      H2            -21.4432860991      -18.3276572819      -77.9564822321  TIP3      10097           0.0000000000
     81807     11458  TIP3      OH2           -13.6569932127      -17.7850522708      -77.0437216769  TIP3      10098           0.0000000000
     81808     11458  TIP3      H1            -14.5557471944      -17.6793312443      -76.7304213942  TIP3      10098           0.0000000000
     81809     11458  TIP3      H2            -13.1216809723      -17.7798658744      -76.2363248595  TIP3      10098           0.0000000000
     81810     11459  TIP3      OH2            -9.2100559283      -18.5002828433      -73.8238215605  TIP3      10099           0.0000000000
     81811     11459  TIP3      H1             -9.8787020683      -18.3685332868      -73.1117253619  TIP3      10099           0.0000000000
     81812     11459  TIP3      H2             -9.7687065821      -18.6389696888      -74.6000496662  TIP3      10099           0.0000000000
     81813     11460  TIP3      OH2            -5.9921814056       -2.7936960017      -67.4482804131  TIP3      10100           0.0000000000
     81814     11460  TIP3      H1             -5.7187832149       -2.4152225557      -68.3078464321  TIP3      10100           0.0000000000
     81815     11460  TIP3      H2             -5.2632013873       -2.4851637441      -66.8840322215  TIP3      10100           0.0000000000
     81816     11461  TIP3      OH2           -18.3413208306      -10.2831537603      -67.9379169106  TIP3      10101           0.0000000000
     81817     11461  TIP3      H1            -17.6116211914      -10.1169053810      -67.3204638405  TIP3      10101           0.0000000000
     81818     11461  TIP3      H2            -19.1124026843      -10.2568687747      -67.3405824078  TIP3      10101           0.0000000000
     81819     11462  TIP3      OH2           -17.3084042665      -18.7908431174      -78.8185148838  TIP3      10102           0.0000000000
     81820     11462  TIP3      H1            -17.6341048818      -19.6976038735      -78.7537963971  TIP3      10102           0.0000000000
     81821     11462  TIP3      H2            -16.5032230382      -18.8428864087      -79.3314722592  TIP3      10102           0.0000000000
     81822     11463  TIP3      OH2           -13.6924497027      -16.5977173533      -72.7160382777  TIP3      10103           0.0000000000
     81823     11463  TIP3      H1            -14.4894062708      -16.0903173169      -72.6200105707  TIP3      10103           0.0000000000
     81824     11463  TIP3      H2            -13.0909367890      -16.2503239028      -72.0292961604  TIP3      10103           0.0000000000
     81825     11464  TIP3      OH2            -5.9306448736      -11.1400007777      -72.2376233211  TIP3      10104           0.0000000000
     81826     11464  TIP3      H1             -5.3267086565      -10.7211756074      -72.8811625165  TIP3      10104           0.0000000000
     81827     11464  TIP3      H2             -6.7635056085      -11.1546348978      -72.7453355611  TIP3      10104           0.0000000000
     81828     11465  TIP3      OH2            -9.2302556121      -17.5769040357      -82.9331461839  TIP3      10105           0.0000000000
     81829     11465  TIP3      H1            -10.1723346508      -17.4147649428      -82.9683432534  TIP3      10105           0.0000000000
     81830     11465  TIP3      H2             -8.9535729187      -16.7386957841      -82.5124733266  TIP3      10105           0.0000000000
     81831     11466  TIP3      OH2            -8.5039344899      -15.6711617634      -81.2115356408  TIP3      10106           0.0000000000
     81832     11466  TIP3      H1             -7.6225161160      -15.7610815707      -80.8129934468  TIP3      10106           0.0000000000
     81833     11466  TIP3      H2             -8.4600611060      -14.8370784659      -81.7094526370  TIP3      10106           0.0000000000
     81834     11467  TIP3      OH2           -18.0597779258      -10.9606065090      -75.3370359999  TIP3      10107           0.0000000000
     81835     11467  TIP3      H1            -17.3096535668      -11.0030568844      -75.9400586170  TIP3      10107           0.0000000000
     81836     11467  TIP3      H2            -17.9701452948      -11.7891130224      -74.8623432484  TIP3      10107           0.0000000000
     81837     11468  TIP3      OH2           -21.0131480527      -12.5901981773      -69.9894678304  TIP3      10108           0.0000000000
     81838     11468  TIP3      H1            -20.7853290860      -13.0071657763      -69.1349575847  TIP3      10108           0.0000000000
     81839     11468  TIP3      H2            -21.6331487865      -13.2125329935      -70.4015616864  TIP3      10108           0.0000000000
     81840     11469  TIP3      OH2           -13.9635125643      -13.0595045030      -67.7393195890  TIP3      10109           0.0000000000
     81841     11469  TIP3      H1            -14.3176596552      -13.2215929191      -68.6247580074  TIP3      10109           0.0000000000
     81842     11469  TIP3      H2            -13.0243686030      -13.3128749976      -67.8043607537  TIP3      10109           0.0000000000
     81843     11470  TIP3      OH2            -3.6529523581       -9.6347217598      -68.6492825758  TIP3      10110           0.0000000000
     81844     11470  TIP3      H1             -4.5472672239       -9.4230776456      -69.0017070253  TIP3      10110           0.0000000000
     81845     11470  TIP3      H2             -3.1052132515       -9.6850399736      -69.4617262514  TIP3      10110           0.0000000000
     81846     11471  TIP3      OH2            -8.0342782062      -11.9862076324      -73.9063539411  TIP3      10111           0.0000000000
     81847     11471  TIP3      H1             -8.9903611406      -12.1345137434      -74.0053398040  TIP3      10111           0.0000000000
     81848     11471  TIP3      H2             -7.6808153819      -12.7322078953      -74.4292782745  TIP3      10111           0.0000000000
     81849     11472  TIP3      OH2           -15.6461074597       -7.5046639109      -77.7803094522  TIP3      10112           0.0000000000
     81850     11472  TIP3      H1            -15.1270623251       -6.7459312575      -78.1088570811  TIP3      10112           0.0000000000
     81851     11472  TIP3      H2            -16.4944231803       -7.2837546724      -78.1866700766  TIP3      10112           0.0000000000
     81852     11473  TIP3      OH2           -14.1865696310       -9.8476450960      -78.3188874327  TIP3      10113           0.0000000000
     81853     11473  TIP3      H1            -14.4953546945       -8.9265939130      -78.2934968663  TIP3      10113           0.0000000000
     81854     11473  TIP3      H2            -14.9381857189      -10.3155795858      -77.9573681877  TIP3      10113           0.0000000000
     81855     11474  TIP3      OH2           -13.7542387290       -5.6888051727      -71.9229927146  TIP3      10114           0.0000000000
     81856     11474  TIP3      H1            -13.2780719899       -4.8946869300      -72.2357386780  TIP3      10114           0.0000000000
     81857     11474  TIP3      H2            -13.1499084856       -6.0191947490      -71.2473657050  TIP3      10114           0.0000000000
     81858     11475  TIP3      OH2           -15.4917521868       -4.8537413486      -78.7353067997  TIP3      10115           0.0000000000
     81859     11475  TIP3      H1            -16.4602157766       -4.7056252761      -78.7074851100  TIP3      10115           0.0000000000
     81860     11475  TIP3      H2            -15.1614769576       -3.9864087815      -78.4725617049  TIP3      10115           0.0000000000
     81861     11476  TIP3      OH2            -7.4434650880       -5.0789441586      -69.8159431249  TIP3      10116           0.0000000000
     81862     11476  TIP3      H1             -8.1169491064       -5.5989339487      -70.2715729900  TIP3      10116           0.0000000000
     81863     11476  TIP3      H2             -7.2251693423       -4.4072854414      -70.4762332054  TIP3      10116           0.0000000000
     81864     11477  TIP3      OH2            -3.3004051796       -4.1445035593      -82.7881383314  TIP3      10117           0.0000000000
     81865     11477  TIP3      H1             -2.6908820973       -3.5349909806      -83.2213111664  TIP3      10117           0.0000000000
     81866     11477  TIP3      H2             -4.1280371641       -3.6231163556      -82.6559315535  TIP3      10117           0.0000000000
     81867     11478  TIP3      OH2           -19.3300723751      -17.8521986590      -70.4023152036  TIP3      10118           0.0000000000
     81868     11478  TIP3      H1            -20.2259662536      -17.4852998244      -70.4833434735  TIP3      10118           0.0000000000
     81869     11478  TIP3      H2            -19.4833426597      -18.7066724822      -69.9795644049  TIP3      10118           0.0000000000
     81870     11479  TIP3      OH2            -7.0862025392      -10.0265921005      -81.0045421548  TIP3      10119           0.0000000000
     81871     11479  TIP3      H1             -7.3497718998      -10.7673675060      -80.4282832920  TIP3      10119           0.0000000000
     81872     11479  TIP3      H2             -6.1578837400       -9.9164767785      -80.7646283634  TIP3      10119           0.0000000000
     81873     11480  TIP3      OH2           -19.7279620914       -6.0370575559      -72.0214704871  TIP3      10120           0.0000000000
     81874     11480  TIP3      H1            -19.4703856582       -6.9697590991      -72.0050961817  TIP3      10120           0.0000000000
     81875     11480  TIP3      H2            -19.4552983528       -5.7683666156      -71.1376640080  TIP3      10120           0.0000000000
     81876     11481  TIP3      OH2           -10.6039617076      -18.1146525398      -71.5235432181  TIP3      10121           0.0000000000
     81877     11481  TIP3      H1             -9.9329084827      -17.9915187099      -70.8353469261  TIP3      10121           0.0000000000
     81878     11481  TIP3      H2            -11.0347556045      -18.9456110590      -71.2875423786  TIP3      10121           0.0000000000
     81879     11482  TIP3      OH2           -12.0571360657      -15.7567799547      -70.3850569862  TIP3      10122           0.0000000000
     81880     11482  TIP3      H1            -11.9593790415      -15.1863574868      -69.5956592184  TIP3      10122           0.0000000000
     81881     11482  TIP3      H2            -11.3841273618      -16.4389630682      -70.3046798860  TIP3      10122           0.0000000000
     81882     11483  TIP3      OH2           -16.1586862080      -18.5693463713      -81.9599754733  TIP3      10123           0.0000000000
     81883     11483  TIP3      H1            -16.1717924057      -17.6535801068      -81.6626636473  TIP3      10123           0.0000000000
     81884     11483  TIP3      H2            -15.2542072651      -18.8308045750      -81.7460278051  TIP3      10123           0.0000000000
     81885     11484  TIP3      OH2            -5.9014576912      -17.8478288032      -69.5318205939  TIP3      10124           0.0000000000
     81886     11484  TIP3      H1             -6.8279034577      -17.5292610227      -69.6559717974  TIP3      10124           0.0000000000
     81887     11484  TIP3      H2             -5.5898778124      -17.8588828821      -70.4519465935  TIP3      10124           0.0000000000
     81888     11485  TIP3      OH2            -7.3139560695      -14.0596468054      -75.5145027463  TIP3      10125           0.0000000000
     81889     11485  TIP3      H1             -8.1404832013      -14.5085762002      -75.8026401473  TIP3      10125           0.0000000000
     81890     11485  TIP3      H2             -6.8502213494      -14.7509173539      -74.9913462289  TIP3      10125           0.0000000000
     81891     11486  TIP3      OH2           -17.9080251298       -8.0955217760      -82.9548744533  TIP3      10126           0.0000000000
     81892     11486  TIP3      H1            -17.2588224836       -7.4842123259      -82.5886571847  TIP3      10126           0.0000000000
     81893     11486  TIP3      H2            -17.3877377604       -8.5928344171      -83.5946849550  TIP3      10126           0.0000000000
     81894     11487  TIP3      OH2           -18.7355207488      -20.7481304788      -75.1055781855  TIP3      10127           0.0000000000
     81895     11487  TIP3      H1            -18.9831949928      -20.6559938137      -76.0392588537  TIP3      10127           0.0000000000
     81896     11487  TIP3      H2            -19.2066652716      -21.5370830438      -74.7918268846  TIP3      10127           0.0000000000
     81897     11488  TIP3      OH2           -19.7689298941       -6.7283443450      -78.8864617582  TIP3      10128           0.0000000000
     81898     11488  TIP3      H1            -20.6291157807       -6.2897315717      -78.9408243864  TIP3      10128           0.0000000000
     81899     11488  TIP3      H2            -19.3068435084       -6.2880674317      -79.6077699160  TIP3      10128           0.0000000000
     81900     11489  TIP3      OH2           -20.5581787927       -4.1171027614      -67.5946174330  TIP3      10129           0.0000000000
     81901     11489  TIP3      H1            -19.9575381494       -4.3184917854      -66.8475781963  TIP3      10129           0.0000000000
     81902     11489  TIP3      H2            -20.9502776136       -4.9864855181      -67.7792023684  TIP3      10129           0.0000000000
     81903     11490  TIP3      OH2           -15.9075144144       -5.1917577076      -65.9994453197  TIP3      10130           0.0000000000
     81904     11490  TIP3      H1            -15.1334074372       -5.6789324480      -65.6862042094  TIP3      10130           0.0000000000
     81905     11490  TIP3      H2            -15.9332123697       -5.4598909221      -66.9412191967  TIP3      10130           0.0000000000
     81906     11491  TIP3      OH2           -20.6665890498      -10.3572273361      -66.6184456496  TIP3      10131           0.0000000000
     81907     11491  TIP3      H1            -20.4936725103      -11.2559893644      -66.9633461442  TIP3      10131           0.0000000000
     81908     11491  TIP3      H2            -21.4103658051      -10.0831225807      -67.1934944772  TIP3      10131           0.0000000000
     81909     11492  TIP3      OH2           -14.0067075032      -10.3535740415      -67.2035769634  TIP3      10132           0.0000000000
     81910     11492  TIP3      H1            -14.2735339024      -10.0372400499      -68.0906877074  TIP3      10132           0.0000000000
     81911     11492  TIP3      H2            -13.8155781258      -11.2972576834      -67.3641586368  TIP3      10132           0.0000000000
     81912     11493  TIP3      OH2           -19.8066913721      -13.1182869660      -67.2184795488  TIP3      10133           0.0000000000
     81913     11493  TIP3      H1            -19.3287245174      -13.9484091022      -67.3513948546  TIP3      10133           0.0000000000
     81914     11493  TIP3      H2            -19.9976705633      -13.0962374192      -66.2610530137  TIP3      10133           0.0000000000
     81915     11494  TIP3      OH2           -10.7773485125      -11.6211408362      -66.4995637387  TIP3      10134           0.0000000000
     81916     11494  TIP3      H1             -9.8226183024      -11.6011815707      -66.6368509124  TIP3      10134           0.0000000000
     81917     11494  TIP3      H2            -10.9397067735      -12.3852211708      -65.9345193902  TIP3      10134           0.0000000000
     81918     11495  TIP3      OH2           -15.0243650163      -18.3820606298      -71.2808914000  TIP3      10135           0.0000000000
     81919     11495  TIP3      H1            -14.5242621574      -17.9597396495      -72.0067473788  TIP3      10135           0.0000000000
     81920     11495  TIP3      H2            -15.9113596296      -18.5258098200      -71.6961784187  TIP3      10135           0.0000000000
     81921     11496  TIP3      OH2            -9.1053769315      -15.1588975200      -66.0705387081  TIP3      10136           0.0000000000
     81922     11496  TIP3      H1             -8.8788320032      -16.0990933221      -66.1185659930  TIP3      10136           0.0000000000
     81923     11496  TIP3      H2             -8.2270699279      -14.7509056325      -66.0348454521  TIP3      10136           0.0000000000
     81924     11497  TIP3      OH2            -7.7595140886      -12.3624428642      -67.9386455466  TIP3      10137           0.0000000000
     81925     11497  TIP3      H1             -8.0016286553      -11.5965687106      -68.4689820678  TIP3      10137           0.0000000000
     81926     11497  TIP3      H2             -6.7896354821      -12.3869405620      -68.0890673308  TIP3      10137           0.0000000000
     81927     11498  TIP3      OH2           -16.9565197010      -15.6382609557      -66.7945740421  TIP3      10138           0.0000000000
     81928     11498  TIP3      H1            -17.7751518064      -16.0992766109      -67.0779329229  TIP3      10138           0.0000000000
     81929     11498  TIP3      H2            -16.3662854900      -15.8442245581      -67.5225514592  TIP3      10138           0.0000000000
     81930     11499  TIP3      OH2           -12.9812231850      -16.6416649852      -67.2589530494  TIP3      10139           0.0000000000
     81931     11499  TIP3      H1            -13.2847733613      -16.8782353379      -66.3623184444  TIP3      10139           0.0000000000
     81932     11499  TIP3      H2            -13.7452276252      -16.8558112861      -67.8050721902  TIP3      10139           0.0000000000
     81933     11500  TIP3      OH2           -10.2502238088      -17.4968223038      -68.1830209722  TIP3      10140           0.0000000000
     81934     11500  TIP3      H1            -11.2112869634      -17.4684761977      -68.0470842033  TIP3      10140           0.0000000000
     81935     11500  TIP3      H2             -9.9714645993      -18.1277650471      -67.4956948642  TIP3      10140           0.0000000000
     81936     11501  TIP3      OH2            -8.7147984961      -18.8457028340      -66.2735608078  TIP3      10141           0.0000000000
     81937     11501  TIP3      H1             -8.7284753531      -19.8210038122      -66.2398795159  TIP3      10141           0.0000000000
     81938     11501  TIP3      H2             -8.9454306684      -18.5803702464      -65.3545819380  TIP3      10141           0.0000000000
     81939     11502  TIP3      OH2           -18.8924612897      -17.6003550555      -67.1744822533  TIP3      10142           0.0000000000
     81940     11502  TIP3      H1            -18.6600925748      -18.3560265457      -67.7480072645  TIP3      10142           0.0000000000
     81941     11502  TIP3      H2            -18.9712993321      -18.0277285889      -66.2962204237  TIP3      10142           0.0000000000
     81942     11503  TIP3      OH2           -14.0540890086      -21.6390204519      -68.1866896376  TIP3      10143           0.0000000000
     81943     11503  TIP3      H1            -13.3204627060      -22.2677830697      -68.2267124648  TIP3      10143           0.0000000000
     81944     11503  TIP3      H2            -14.1329983683      -21.4012798089      -69.1190960394  TIP3      10143           0.0000000000
     81945     11504  TIP3      OH2           -13.6877186228      -19.9737138815      -66.0928069359  TIP3      10144           0.0000000000
     81946     11504  TIP3      H1            -13.8307322518      -20.4708820434      -66.9328060747  TIP3      10144           0.0000000000
     81947     11504  TIP3      H2            -14.2728064346      -19.1983799976      -66.1908636922  TIP3      10144           0.0000000000
     81948     11505  TIP3      OH2           -14.1835396811       -3.0057200627      -82.9296489651  TIP3      10145           0.0000000000
     81949     11505  TIP3      H1            -13.2277017701       -2.9520495082      -82.8567473821  TIP3      10145           0.0000000000
     81950     11505  TIP3      H2            -14.3857171955       -2.3878771707      -83.6250621542  TIP3      10145           0.0000000000
     81951     11506  TIP3      OH2           -20.6055313204       -8.4418223370      -83.4540578041  TIP3      10146           0.0000000000
     81952     11506  TIP3      H1            -19.6618664029       -8.3563372958      -83.2224642670  TIP3      10146           0.0000000000
     81953     11506  TIP3      H2            -20.5742596390       -9.1063495953      -84.1433384435  TIP3      10146           0.0000000000
     81954     11507  TIP3      OH2           -21.8918623810       -3.1102080351      -78.4972780060  TIP3      10147           0.0000000000
     81955     11507  TIP3      H1            -22.6335165578       -3.5578792701      -78.9002318725  TIP3      10147           0.0000000000
     81956     11507  TIP3      H2            -21.6179824862       -3.7140098206      -77.7790302695  TIP3      10147           0.0000000000
     81957     11508  TIP3      OH2           -21.0381998772       -4.9654602779      -76.5893948869  TIP3      10148           0.0000000000
     81958     11508  TIP3      H1            -21.4250958201       -5.8246296978      -76.3738665156  TIP3      10148           0.0000000000
     81959     11508  TIP3      H2            -20.8586620782       -4.5923146742      -75.7068331056  TIP3      10148           0.0000000000
     81960     11509  TIP3      OH2            -3.4969010130       -4.1723951965      -73.6638461370  TIP3      10149           0.0000000000
     81961     11509  TIP3      H1             -3.5266082914       -3.9971396770      -72.7120289553  TIP3      10149           0.0000000000
     81962     11509  TIP3      H2             -2.7981832631       -3.5740586028      -73.9516916631  TIP3      10149           0.0000000000
     81963     11510  TIP3      OH2            -3.9787126973       -4.5652596507      -70.6788674004  TIP3      10150           0.0000000000
     81964     11510  TIP3      H1             -4.3912826241       -5.3292588091      -71.0842080267  TIP3      10150           0.0000000000
     81965     11510  TIP3      H2             -3.4338941025       -4.9844504978      -69.9922096962  TIP3      10150           0.0000000000
     81966     11511  TIP3      OH2            -5.4968796318       -8.8511147810      -66.0632768060  TIP3      10151           0.0000000000
     81967     11511  TIP3      H1             -6.3890131707       -8.8629786267      -65.6651270620  TIP3      10151           0.0000000000
     81968     11511  TIP3      H2             -5.1304185102       -8.0576088994      -65.6123210948  TIP3      10151           0.0000000000
     81969     11512  TIP3      OH2            -4.1616906334      -10.5389530310      -80.5909356585  TIP3      10152           0.0000000000
     81970     11512  TIP3      H1             -3.3134717081      -10.1086408849      -80.3802833995  TIP3      10152           0.0000000000
     81971     11512  TIP3      H2             -4.1669500431      -11.2628300309      -79.9183704130  TIP3      10152           0.0000000000
     81972     11513  TIP3      OH2            -3.8188500671      -12.4451370307      -78.7358707267  TIP3      10153           0.0000000000
     81973     11513  TIP3      H1             -4.5619156709      -12.9593766549      -78.3606932199  TIP3      10153           0.0000000000
     81974     11513  TIP3      H2             -3.2186049236      -12.3029880865      -77.9829826003  TIP3      10153           0.0000000000
     81975     11514  TIP3      OH2            -4.0912976844       -9.7337026976      -73.7153299363  TIP3      10154           0.0000000000
     81976     11514  TIP3      H1             -3.2766346869      -10.1042414366      -74.1013266471  TIP3      10154           0.0000000000
     81977     11514  TIP3      H2             -3.8914946040       -8.7921431417      -73.8908287447  TIP3      10154           0.0000000000
     81978     11515  TIP3      OH2            -3.5152082597      -12.5522978341      -82.3829850326  TIP3      10155           0.0000000000
     81979     11515  TIP3      H1             -4.1389707564      -12.2516612051      -83.0410923334  TIP3      10155           0.0000000000
     81980     11515  TIP3      H2             -3.6054947401      -11.9243361943      -81.6484578194  TIP3      10155           0.0000000000
     81981     11516  TIP3      OH2            -5.2909265617      -15.3481763394      -83.7801763409  TIP3      10156           0.0000000000
     81982     11516  TIP3      H1             -5.0292279866      -14.7205014958      -84.4636756498  TIP3      10156           0.0000000000
     81983     11516  TIP3      H2             -5.2914541503      -16.1955278983      -84.2587744628  TIP3      10156           0.0000000000
     81984     11517  TIP3      OH2            -5.9974846817      -13.9502249165      -78.1245076176  TIP3      10157           0.0000000000
     81985     11517  TIP3      H1             -6.1621042331      -14.9040985176      -78.2045810015  TIP3      10157           0.0000000000
     81986     11517  TIP3      H2             -6.3862449283      -13.7275697735      -77.2660509944  TIP3      10157           0.0000000000
     81987     11518  TIP3      OH2           -21.0625558832      -11.7420461027      -74.1730061872  TIP3      10158           0.0000000000
     81988     11518  TIP3      H1            -20.8422613640      -11.9677625508      -75.0908680641  TIP3      10158           0.0000000000
     81989     11518  TIP3      H2            -20.2521388980      -11.9690356221      -73.7119940542  TIP3      10158           0.0000000000
     81990     11519  TIP3      OH2            -5.1425825364      -11.9851836529      -68.4820880121  TIP3      10159           0.0000000000
     81991     11519  TIP3      H1             -4.5247266226      -12.7405109500      -68.3286690703  TIP3      10159           0.0000000000
     81992     11519  TIP3      H2             -4.5428771283      -11.2132768327      -68.4560232025  TIP3      10159           0.0000000000
     81993     11520  TIP3      OH2            -3.6456548082      -14.1056042902      -67.8189840948  TIP3      10160           0.0000000000
     81994     11520  TIP3      H1             -4.5240655115      -14.5133898440      -67.9611475978  TIP3      10160           0.0000000000
     81995     11520  TIP3      H2             -3.0687164602      -14.8883184769      -67.8957325136  TIP3      10160           0.0000000000
     81996     11521  TIP3      OH2            -5.9191955806      -17.9389279567      -84.6726122514  TIP3      10161           0.0000000000
     81997     11521  TIP3      H1             -5.3224001005      -18.3427877246      -84.0375075824  TIP3      10161           0.0000000000
     81998     11521  TIP3      H2             -6.7736227189      -18.3585912651      -84.5001457302  TIP3      10161           0.0000000000
     81999     11522  TIP3      OH2            -6.3159134142      -16.3804810101      -79.6624085819  TIP3      10162           0.0000000000
     82000     11522  TIP3      H1             -6.0283321885      -17.3181472776      -79.5793708862  TIP3      10162           0.0000000000
     82001     11522  TIP3      H2             -5.5365447160      -15.9891638004      -80.0784141015  TIP3      10162           0.0000000000
     82002     11523  TIP3      OH2            -5.6900277960      -15.8392929231      -74.2532978139  TIP3      10163           0.0000000000
     82003     11523  TIP3      H1             -4.7551380383      -15.5889960635      -74.2578428035  TIP3      10163           0.0000000000
     82004     11523  TIP3      H2             -5.9149098082      -15.6996967776      -73.3147567103  TIP3      10163           0.0000000000
     82005     11524  TIP3      OH2            -5.6376669664      -15.1020509187      -71.4681788487  TIP3      10164           0.0000000000
     82006     11524  TIP3      H1             -6.5233292401      -14.8104489934      -71.1621436115  TIP3      10164           0.0000000000
     82007     11524  TIP3      H2             -5.1903527496      -14.2487618381      -71.6742502140  TIP3      10164           0.0000000000
     82008     11525  TIP3      OH2           -21.3853659678      -16.5870950126      -67.9145512929  TIP3      10165           0.0000000000
     82009     11525  TIP3      H1            -20.4384761820      -16.7811237034      -67.7735259470  TIP3      10165           0.0000000000
     82010     11525  TIP3      H2            -21.8263617109      -17.4142202207      -67.6346637509  TIP3      10165           0.0000000000
     82011     11526  TIP3      OH2            -3.3815249886      -21.0966564471      -66.1265338493  TIP3      10166           0.0000000000
     82012     11526  TIP3      H1             -2.9945482357      -21.7309639836      -66.7302018890  TIP3      10166           0.0000000000
     82013     11526  TIP3      H2             -3.2541904062      -20.2610860972      -66.6183031740  TIP3      10166           0.0000000000
     82014     11527  TIP3      OH2            -5.6906524369      -19.0946597198      -79.6258887662  TIP3      10167           0.0000000000
     82015     11527  TIP3      H1             -5.4594772244      -19.5733989472      -78.8243310229  TIP3      10167           0.0000000000
     82016     11527  TIP3      H2             -6.2368450448      -19.7463739602      -80.1078696096  TIP3      10167           0.0000000000
     82017     11528  TIP3      OH2            -3.8279997178      -18.9861644111      -67.7497808733  TIP3      10168           0.0000000000
     82018     11528  TIP3      H1             -4.7641675929      -18.6907581988      -67.7956684465  TIP3      10168           0.0000000000
     82019     11528  TIP3      H2             -3.8033793358      -19.4888853492      -68.5748568470  TIP3      10168           0.0000000000
     82020     11529  TIP3      OH2           -21.5557584397      -20.3413485363      -71.6698845589  TIP3      10169           0.0000000000
     82021     11529  TIP3      H1            -22.2167880521      -20.5474768757      -71.0014480621  TIP3      10169           0.0000000000
     82022     11529  TIP3      H2            -22.0157589447      -19.7033431718      -72.2317038028  TIP3      10169           0.0000000000
     82023     11530  TIP3      OH2           -19.3476701895       -7.1542132623      -67.5184361745  TIP3      10170           0.0000000000
     82024     11530  TIP3      H1            -20.1937383118       -6.9682477154      -67.9526251849  TIP3      10170           0.0000000000
     82025     11530  TIP3      H2            -19.6016940309       -7.2403562608      -66.5890711411  TIP3      10170           0.0000000000
     82026     11531  TIP3      OH2           -16.4288413810       -6.1398198008      -71.2318891365  TIP3      10171           0.0000000000
     82027     11531  TIP3      H1            -16.8106140996       -5.2973920475      -71.5302035332  TIP3      10171           0.0000000000
     82028     11531  TIP3      H2            -15.5061192534       -6.0506718608      -71.5526660614  TIP3      10171           0.0000000000
     82029     11532  TIP3      OH2            -9.8263983533       -3.4716512616      -69.0607609581  TIP3      10172           0.0000000000
     82030     11532  TIP3      H1             -9.1199445938       -4.0951699223      -69.2642386259  TIP3      10172           0.0000000000
     82031     11532  TIP3      H2             -9.4606937460       -3.0645448698      -68.2499743852  TIP3      10172           0.0000000000
     82032     11533  TIP3      OH2            -4.8293254359      -20.8540782550      -69.9201828865  TIP3      10173           0.0000000000
     82033     11533  TIP3      H1             -5.6661823520      -20.5651329901      -70.3287024878  TIP3      10173           0.0000000000
     82034     11533  TIP3      H2             -4.6581451604      -21.6786150558      -70.4323224937  TIP3      10173           0.0000000000
     82035     11534  TIP3      OH2           -19.0178272437       -2.9066503234      -71.2133590185  TIP3      10174           0.0000000000
     82036     11534  TIP3      H1            -19.7446878896       -2.4557554578      -71.6556216940  TIP3      10174           0.0000000000
     82037     11534  TIP3      H2            -19.3693850846       -3.1229281179      -70.3363065895  TIP3      10174           0.0000000000
     82038     11535  TIP3      OH2           -16.5460527605       -3.3470662961      -72.1588232678  TIP3      10175           0.0000000000
     82039     11535  TIP3      H1            -17.4347298569       -3.2056122917      -71.7647257405  TIP3      10175           0.0000000000
     82040     11535  TIP3      H2            -16.5988961867       -2.7712243243      -72.9448180493  TIP3      10175           0.0000000000
     82041     11536  TIP3      OH2           -11.9176342533       -3.4596302636      -72.9378453273  TIP3      10176           0.0000000000
     82042     11536  TIP3      H1            -12.2809106692       -2.8782371992      -73.6198884490  TIP3      10176           0.0000000000
     82043     11536  TIP3      H2            -11.6406614779       -2.8031025506      -72.2694884352  TIP3      10176           0.0000000000
     82044     11537  TIP3      OH2           -19.5894452673       -4.2829146662      -74.2981216531  TIP3      10177           0.0000000000
     82045     11537  TIP3      H1            -19.6457203134       -4.7425185515      -73.4344408447  TIP3      10177           0.0000000000
     82046     11537  TIP3      H2            -18.7701774903       -4.6464488149      -74.6939417033  TIP3      10177           0.0000000000
     82047     11538  TIP3      OH2           -17.4864528927       -5.5721363238      -75.6269296508  TIP3      10178           0.0000000000
     82048     11538  TIP3      H1            -17.6396286096       -6.5070340824      -75.4036651997  TIP3      10178           0.0000000000
     82049     11538  TIP3      H2            -16.6159376667       -5.4279335630      -75.1984546716  TIP3      10178           0.0000000000
     82050     11539  TIP3      OH2           -14.9082124487       -5.0825873783      -74.7607507651  TIP3      10179           0.0000000000
     82051     11539  TIP3      H1            -14.6986732311       -5.9856537400      -75.0544089289  TIP3      10179           0.0000000000
     82052     11539  TIP3      H2            -14.8383105900       -5.1832998749      -73.7998479768  TIP3      10179           0.0000000000
     82053     11540  TIP3      OH2           -11.3344719867      -19.4001972067      -75.6591550261  TIP3      10180           0.0000000000
     82054     11540  TIP3      H1            -12.0555055243      -19.9886618897      -75.4190033181  TIP3      10180           0.0000000000
     82055     11540  TIP3      H2            -10.8621344240      -19.9432579602      -76.2950977345  TIP3      10180           0.0000000000
     82056     11541  TIP3      OH2            -6.2601735242      -21.3757950017      -75.5676485855  TIP3      10181           0.0000000000
     82057     11541  TIP3      H1             -5.6971066624      -20.7607672156      -76.0508952093  TIP3      10181           0.0000000000
     82058     11541  TIP3      H2             -7.1443789362      -21.0541117953      -75.7789660236  TIP3      10181           0.0000000000
     82059     11542  TIP3      OH2           -19.1430415511      -20.8233784817      -77.7977711802  TIP3      10182           0.0000000000
     82060     11542  TIP3      H1            -19.8710403124      -21.0286077122      -78.3835920936  TIP3      10182           0.0000000000
     82061     11542  TIP3      H2            -18.5790764080      -21.6265169853      -77.8535633530  TIP3      10182           0.0000000000
     82062     11543  TIP3      OH2           -20.2395758284      -21.0071668648      -82.0433492414  TIP3      10183           0.0000000000
     82063     11543  TIP3      H1            -19.7710214897      -20.3879835455      -82.6241546743  TIP3      10183           0.0000000000
     82064     11543  TIP3      H2            -20.8797324239      -20.4800011054      -81.5597673083  TIP3      10183           0.0000000000
     82065     11544  TIP3      OH2            -7.6167455159      -20.8401061448      -80.6448842359  TIP3      10184           0.0000000000
     82066     11544  TIP3      H1             -8.3233459452      -20.2404412179      -80.9106800779  TIP3      10184           0.0000000000
     82067     11544  TIP3      H2             -8.0595927431      -21.6869229667      -80.5133044791  TIP3      10184           0.0000000000
     82068     11545  TIP3      OH2           -20.3764561022       -5.0695739835      -81.0374505269  TIP3      10185           0.0000000000
     82069     11545  TIP3      H1            -21.0226895103       -5.1290644759      -81.7506440858  TIP3      10185           0.0000000000
     82070     11545  TIP3      H2            -20.3503826965       -4.1128737128      -80.9022717180  TIP3      10185           0.0000000000
     82071     11546  TIP3      OH2           -18.4317366624      -19.1551965287      -83.5203714947  TIP3      10186           0.0000000000
     82072     11546  TIP3      H1            -17.8858201253      -19.7261087938      -84.0669890065  TIP3      10186           0.0000000000
     82073     11546  TIP3      H2            -17.7586558854      -18.7801025620      -82.9165595524  TIP3      10186           0.0000000000
     82074     11547  TIP3      OH2           -19.1875509487      -20.2583309487      -68.3033778217  TIP3      10187           0.0000000000
     82075     11547  TIP3      H1            -19.5480888490      -21.0872720333      -67.9350367056  TIP3      10187           0.0000000000
     82076     11547  TIP3      H2            -18.2603796114      -20.3087696880      -67.9777014934  TIP3      10187           0.0000000000
     82077     11548  TIP3      OH2           -17.1303175598      -20.9017149435      -66.7089080037  TIP3      10188           0.0000000000
     82078     11548  TIP3      H1            -16.2502624571      -21.2564887377      -66.9421244403  TIP3      10188           0.0000000000
     82079     11548  TIP3      H2            -17.5403188047      -21.6893494211      -66.2904393021  TIP3      10188           0.0000000000
     82080     11549  TIP3      OH2           -18.5668768122       -4.1782888964      -84.0778865292  TIP3      10189           0.0000000000
     82081     11549  TIP3      H1            -18.8390057095       -3.8365427992      -83.2114290632  TIP3      10189           0.0000000000
     82082     11549  TIP3      H2            -17.7692886442       -4.6731586040      -83.8928980549  TIP3      10189           0.0000000000
     82083     11550  TIP3      OH2            -8.7540414815      -21.5819623348      -66.5607251702  TIP3      10190           0.0000000000
     82084     11550  TIP3      H1             -8.6887866533      -22.0665840280      -65.7221987978  TIP3      10190           0.0000000000
     82085     11550  TIP3      H2             -7.8410303835      -21.6012375675      -66.8985634447  TIP3      10190           0.0000000000
     82086     11551  TIP3      OH2            -5.5571214457       -5.5528228521      -67.8872603178  TIP3      10191           0.0000000000
     82087     11551  TIP3      H1             -6.3697890439       -5.7054026042      -68.4188960559  TIP3      10191           0.0000000000
     82088     11551  TIP3      H2             -5.6745185094       -4.6010514550      -67.6944735047  TIP3      10191           0.0000000000
     82089     11552  TIP3      OH2             8.8604090967      -11.6611874549      -77.9166065645  TIP3      10192           0.0000000000
     82090     11552  TIP3      H1              8.8946886010      -10.6979750945      -77.9489279050  TIP3      10192           0.0000000000
     82091     11552  TIP3      H2              8.1595358032      -11.8926108747      -78.5546031393  TIP3      10192           0.0000000000
     82092     11553  TIP3      OH2             7.7586464809      -12.3934984010      -74.4365950184  TIP3      10193           0.0000000000
     82093     11553  TIP3      H1              7.7383076290      -13.0438782872      -73.7205172945  TIP3      10193           0.0000000000
     82094     11553  TIP3      H2              7.4090361767      -12.9041137900      -75.1814296757  TIP3      10193           0.0000000000
     82095     11554  TIP3      OH2             0.0873638055      -12.7418089422      -72.8595554142  TIP3      10194           0.0000000000
     82096     11554  TIP3      H1              0.1870906565      -13.3961148421      -72.1522002716  TIP3      10194           0.0000000000
     82097     11554  TIP3      H2              0.8542938867      -12.1831397849      -72.6659404310  TIP3      10194           0.0000000000
     82098     11555  TIP3      OH2            11.4580235342       -9.4809687192      -76.1156286004  TIP3      10195           0.0000000000
     82099     11555  TIP3      H1             10.9987613406      -10.1882185086      -75.6511039221  TIP3      10195           0.0000000000
     82100     11555  TIP3      H2             11.4312047403       -8.7436249572      -75.4994295905  TIP3      10195           0.0000000000
     82101     11556  TIP3      OH2             1.0247725088       -8.3111767479      -74.3643747525  TIP3      10196           0.0000000000
     82102     11556  TIP3      H1              0.7146313860       -9.1760744132      -74.6885844479  TIP3      10196           0.0000000000
     82103     11556  TIP3      H2              1.9837954676       -8.4810885188      -74.3235610187  TIP3      10196           0.0000000000
     82104     11557  TIP3      OH2            -1.6358497270      -12.5473208090      -76.7708413587  TIP3      10197           0.0000000000
     82105     11557  TIP3      H1             -1.3347978203      -13.3255318906      -76.3005632261  TIP3      10197           0.0000000000
     82106     11557  TIP3      H2             -0.9132911776      -12.3838827898      -77.4021509031  TIP3      10197           0.0000000000
     82107     11558  TIP3      OH2             6.1110812370      -10.0175457104      -73.9709508411  TIP3      10198           0.0000000000
     82108     11558  TIP3      H1              6.4599134946      -10.6541975800      -74.6104754300  TIP3      10198           0.0000000000
     82109     11558  TIP3      H2              6.9166552460       -9.8386946417      -73.4528622823  TIP3      10198           0.0000000000
     82110     11559  TIP3      OH2            14.7385720339      -18.3475120015      -73.2175507361  TIP3      10199           0.0000000000
     82111     11559  TIP3      H1             14.8916223818      -17.7601094086      -72.4469889748  TIP3      10199           0.0000000000
     82112     11559  TIP3      H2             15.2939250926      -17.9328778573      -73.8869499273  TIP3      10199           0.0000000000
     82113     11560  TIP3      OH2             9.2777673492      -15.5444266190      -73.6472630398  TIP3      10200           0.0000000000
     82114     11560  TIP3      H1              9.4561836102      -16.5012860696      -73.6388069868  TIP3      10200           0.0000000000
     82115     11560  TIP3      H2              9.1800920291      -15.4057112284      -74.6081525808  TIP3      10200           0.0000000000
     82116     11561  TIP3      OH2            10.1543391525      -17.3802599059      -78.0561350912  TIP3      10201           0.0000000000
     82117     11561  TIP3      H1             10.8087356058      -17.6881814667      -77.3868948778  TIP3      10201           0.0000000000
     82118     11561  TIP3      H2             10.6999715628      -16.7988251671      -78.6099800473  TIP3      10201           0.0000000000
     82119     11562  TIP3      OH2             4.1893046332      -13.5160042636      -76.3890767152  TIP3      10202           0.0000000000
     82120     11562  TIP3      H1              4.8621015242      -14.0698127356      -75.9559494397  TIP3      10202           0.0000000000
     82121     11562  TIP3      H2              3.6611684225      -14.1823478326      -76.8348771481  TIP3      10202           0.0000000000
     82122     11563  TIP3      OH2            15.1854453795      -16.9232957657      -70.9636061560  TIP3      10203           0.0000000000
     82123     11563  TIP3      H1             14.5372008672      -16.1943929356      -71.0458029838  TIP3      10203           0.0000000000
     82124     11563  TIP3      H2             15.2248817989      -17.0235947428      -70.0013046754  TIP3      10203           0.0000000000
     82125     11564  TIP3      OH2             3.8206125900      -10.9099378988      -72.1260348713  TIP3      10204           0.0000000000
     82126     11564  TIP3      H1              3.1140995793      -10.2611207510      -71.9308136738  TIP3      10204           0.0000000000
     82127     11564  TIP3      H2              4.5251480451      -10.3189635542      -72.4370338029  TIP3      10204           0.0000000000
     82128     11565  TIP3      OH2            11.9481314122      -18.0296634792      -76.0631815372  TIP3      10205           0.0000000000
     82129     11565  TIP3      H1             11.7231925749      -18.7986089775      -75.5301389468  TIP3      10205           0.0000000000
     82130     11565  TIP3      H2             12.6032917660      -17.5891161832      -75.4980388844  TIP3      10205           0.0000000000
     82131     11566  TIP3      OH2             2.2688825886       -8.9054525581      -71.3075323086  TIP3      10206           0.0000000000
     82132     11566  TIP3      H1              2.2194159315       -7.9932882202      -71.6583327610  TIP3      10206           0.0000000000
     82133     11566  TIP3      H2              1.3798395772       -8.9975577919      -70.8808459057  TIP3      10206           0.0000000000
     82134     11567  TIP3      OH2            -1.7319756933       -9.2842652808      -80.5317862475  TIP3      10207           0.0000000000
     82135     11567  TIP3      H1             -1.8808631553       -8.9846708801      -81.4508009265  TIP3      10207           0.0000000000
     82136     11567  TIP3      H2             -1.5792641231       -8.4587775795      -80.0278263306  TIP3      10207           0.0000000000
     82137     11568  TIP3      OH2            12.2709482224      -19.3457487791      -72.3772697810  TIP3      10208           0.0000000000
     82138     11568  TIP3      H1             11.5506182470      -18.7096367478      -72.4708210592  TIP3      10208           0.0000000000
     82139     11568  TIP3      H2             12.9870512341      -18.9294173072      -72.8964161323  TIP3      10208           0.0000000000
     82140     11569  TIP3      OH2             5.2878333556      -21.2121989395      -74.9300426037  TIP3      10209           0.0000000000
     82141     11569  TIP3      H1              5.1844613712      -22.1801901707      -75.0142809174  TIP3      10209           0.0000000000
     82142     11569  TIP3      H2              4.4287947913      -20.8956779947      -74.6419590310  TIP3      10209           0.0000000000
     82143     11570  TIP3      OH2            13.1285538300       -9.3250301676      -70.1732424228  TIP3      10210           0.0000000000
     82144     11570  TIP3      H1             13.1979369071       -9.9947189333      -70.8907957988  TIP3      10210           0.0000000000
     82145     11570  TIP3      H2             13.1933297801       -8.4896915903      -70.6338012479  TIP3      10210           0.0000000000
     82146     11571  TIP3      OH2             7.5629734521      -12.4573623984      -80.3907745696  TIP3      10211           0.0000000000
     82147     11571  TIP3      H1              6.8749518555      -11.8455701876      -80.7611941074  TIP3      10211           0.0000000000
     82148     11571  TIP3      H2              8.2129086975      -12.3625660317      -81.1026087036  TIP3      10211           0.0000000000
     82149     11572  TIP3      OH2             7.6912244138      -14.3572422539      -83.0325665255  TIP3      10212           0.0000000000
     82150     11572  TIP3      H1              8.4450723224      -13.8717779014      -82.6849316747  TIP3      10212           0.0000000000
     82151     11572  TIP3      H2              7.9039178360      -14.4651558203      -83.9708710105  TIP3      10212           0.0000000000
     82152     11573  TIP3      OH2            14.9290138690      -13.0091096869      -72.1309678477  TIP3      10213           0.0000000000
     82153     11573  TIP3      H1             14.2439067651      -12.3109737567      -72.0580430362  TIP3      10213           0.0000000000
     82154     11573  TIP3      H2             15.3822777371      -12.7555955062      -72.9324451212  TIP3      10213           0.0000000000
     82155     11574  TIP3      OH2            10.9701574907      -12.2893382180      -79.5048115989  TIP3      10214           0.0000000000
     82156     11574  TIP3      H1             10.2683951592      -11.9693943180      -78.8898602258  TIP3      10214           0.0000000000
     82157     11574  TIP3      H2             11.4755340604      -12.8908167511      -78.9371159634  TIP3      10214           0.0000000000
     82158     11575  TIP3      OH2            10.9210031322      -14.0523518096      -70.3722942156  TIP3      10215           0.0000000000
     82159     11575  TIP3      H1             10.9174602623      -13.2382923549      -69.8430142828  TIP3      10215           0.0000000000
     82160     11575  TIP3      H2             10.2939930375      -13.7597974626      -71.0647359545  TIP3      10215           0.0000000000
     82161     11576  TIP3      OH2             2.5404465057      -11.5990242484      -77.5271283038  TIP3      10216           0.0000000000
     82162     11576  TIP3      H1              2.3288019188      -11.8586226252      -78.4356957796  TIP3      10216           0.0000000000
     82163     11576  TIP3      H2              3.2463438501      -12.2196442535      -77.2492068714  TIP3      10216           0.0000000000
     82164     11577  TIP3      OH2             3.9030975225       -8.1608453279      -74.8425491177  TIP3      10217           0.0000000000
     82165     11577  TIP3      H1              3.9061639178       -8.6595553784      -75.6814631163  TIP3      10217           0.0000000000
     82166     11577  TIP3      H2              4.7049784280       -8.5227772054      -74.4251656913  TIP3      10217           0.0000000000
     82167     11578  TIP3      OH2             2.9266269628      -12.7892465507      -73.9335946409  TIP3      10218           0.0000000000
     82168     11578  TIP3      H1              3.5252514750      -12.6967611989      -74.6915713462  TIP3      10218           0.0000000000
     82169     11578  TIP3      H2              3.3151468723      -12.1678434959      -73.2842459218  TIP3      10218           0.0000000000
     82170     11579  TIP3      OH2             3.8809876856       -8.3873840887      -69.2151410296  TIP3      10219           0.0000000000
     82171     11579  TIP3      H1              3.4763163939       -7.6404648165      -68.7324768300  TIP3      10219           0.0000000000
     82172     11579  TIP3      H2              3.2127268749       -8.5829085324      -69.9155638639  TIP3      10219           0.0000000000
     82173     11580  TIP3      OH2             9.9090617824      -13.0654742933      -81.8270068061  TIP3      10220           0.0000000000
     82174     11580  TIP3      H1             10.4155727164      -12.8289425688      -81.0104446559  TIP3      10220           0.0000000000
     82175     11580  TIP3      H2             10.2283536009      -12.4715435644      -82.5143423657  TIP3      10220           0.0000000000
     82176     11581  TIP3      OH2             0.8374373439      -12.2109946035      -70.0592149824  TIP3      10221           0.0000000000
     82177     11581  TIP3      H1              0.8740806594      -11.5563933538      -69.3377252988  TIP3      10221           0.0000000000
     82178     11581  TIP3      H2             -0.1047211567      -12.1398612275      -70.2694745648  TIP3      10221           0.0000000000
     82179     11582  TIP3      OH2             2.1434532237       -6.3225796703      -68.4802939822  TIP3      10222           0.0000000000
     82180     11582  TIP3      H1              2.0713280327       -6.4700694571      -69.4404663550  TIP3      10222           0.0000000000
     82181     11582  TIP3      H2              1.2171241917       -6.4688277994      -68.2040187181  TIP3      10222           0.0000000000
     82182     11583  TIP3      OH2            13.5984234454      -21.2978090010      -81.9310001595  TIP3      10223           0.0000000000
     82183     11583  TIP3      H1             12.6495890079      -21.1718945360      -81.6880163792  TIP3      10223           0.0000000000
     82184     11583  TIP3      H2             13.7980371615      -20.4407292466      -82.3349774972  TIP3      10223           0.0000000000
     82185     11584  TIP3      OH2            14.7066829186       -6.9431629403      -83.5732343388  TIP3      10224           0.0000000000
     82186     11584  TIP3      H1             14.8154525620       -5.9969788094      -83.3742926705  TIP3      10224           0.0000000000
     82187     11584  TIP3      H2             15.6246091802       -7.2556727128      -83.5860716993  TIP3      10224           0.0000000000
     82188     11585  TIP3      OH2            -2.3393255450      -10.1032893230      -71.0722286501  TIP3      10225           0.0000000000
     82189     11585  TIP3      H1             -2.7785261267      -10.1838600769      -71.9372208529  TIP3      10225           0.0000000000
     82190     11585  TIP3      H2             -2.2724482844      -11.0499320882      -70.8416210553  TIP3      10225           0.0000000000
     82191     11586  TIP3      OH2            -2.5719176639       -7.4202332791      -74.2415137411  TIP3      10226           0.0000000000
     82192     11586  TIP3      H1             -1.6109730249       -7.4841603324      -74.3350838897  TIP3      10226           0.0000000000
     82193     11586  TIP3      H2             -2.6505513966       -6.5605499256      -73.8013687844  TIP3      10226           0.0000000000
     82194     11587  TIP3      OH2            15.6004179071       -6.6502997362      -68.6189533278  TIP3      10227           0.0000000000
     82195     11587  TIP3      H1             15.6111315245       -7.6281518327      -68.6232405134  TIP3      10227           0.0000000000
     82196     11587  TIP3      H2             14.7498743077       -6.5798644026      -68.1306245629  TIP3      10227           0.0000000000
     82197     11588  TIP3      OH2             6.6003081949       -7.1069488901      -69.7547756002  TIP3      10228           0.0000000000
     82198     11588  TIP3      H1              6.6803495761       -6.2906575091      -69.2126103686  TIP3      10228           0.0000000000
     82199     11588  TIP3      H2              5.7543341866       -7.4929744700      -69.4636214247  TIP3      10228           0.0000000000
     82200     11589  TIP3      OH2             0.6999015132       -4.5419327153      -78.1434808951  TIP3      10229           0.0000000000
     82201     11589  TIP3      H1              0.8419221964       -4.8926972989      -77.2346640977  TIP3      10229           0.0000000000
     82202     11589  TIP3      H2             -0.1764415675       -4.9158388694      -78.3278345753  TIP3      10229           0.0000000000
     82203     11590  TIP3      OH2            12.8181716522      -15.1999244407      -68.1300073621  TIP3      10230           0.0000000000
     82204     11590  TIP3      H1             12.3396243280      -14.7482450714      -68.8437830097  TIP3      10230           0.0000000000
     82205     11590  TIP3      H2             12.7933103294      -16.1224629137      -68.4278847081  TIP3      10230           0.0000000000
     82206     11591  TIP3      OH2            -0.0861099145       -8.7738181414      -70.1208228936  TIP3      10231           0.0000000000
     82207     11591  TIP3      H1              0.1613734446       -9.1667109092      -69.2571910421  TIP3      10231           0.0000000000
     82208     11591  TIP3      H2             -0.9327786917       -9.2089739420      -70.3382841910  TIP3      10231           0.0000000000
     82209     11592  TIP3      OH2             7.2372193556      -20.6503100716      -70.7981702814  TIP3      10232           0.0000000000
     82210     11592  TIP3      H1              7.6845249074      -21.0553762718      -70.0254915295  TIP3      10232           0.0000000000
     82211     11592  TIP3      H2              6.3029381209      -20.7606430071      -70.5933298446  TIP3      10232           0.0000000000
     82212     11593  TIP3      OH2            10.5630099588      -16.8079981429      -69.9160610829  TIP3      10233           0.0000000000
     82213     11593  TIP3      H1             10.0028583427      -17.0202641549      -69.1291039710  TIP3      10233           0.0000000000
     82214     11593  TIP3      H2             10.3770310139      -15.8812979242      -70.1397148124  TIP3      10233           0.0000000000
     82215     11594  TIP3      OH2             6.9183191790      -18.0904228649      -83.4499360103  TIP3      10234           0.0000000000
     82216     11594  TIP3      H1              6.5697323415      -18.1329047788      -82.5426101269  TIP3      10234           0.0000000000
     82217     11594  TIP3      H2              6.6100307077      -18.9537819409      -83.7497090057  TIP3      10234           0.0000000000
     82218     11595  TIP3      OH2             8.2054110192      -14.7247161814      -79.2921099335  TIP3      10235           0.0000000000
     82219     11595  TIP3      H1              7.7959096674      -13.9080921360      -79.6608602923  TIP3      10235           0.0000000000
     82220     11595  TIP3      H2              8.8863208503      -14.9026525659      -79.9669621471  TIP3      10235           0.0000000000
     82221     11596  TIP3      OH2             7.2673684711      -14.5263301122      -67.8405662437  TIP3      10236           0.0000000000
     82222     11596  TIP3      H1              6.7415445217      -15.3022724681      -67.5370321369  TIP3      10236           0.0000000000
     82223     11596  TIP3      H2              8.1068612756      -14.6441415276      -67.3651732893  TIP3      10236           0.0000000000
     82224     11597  TIP3      OH2             9.2431869414      -15.2430444328      -76.4443684824  TIP3      10237           0.0000000000
     82225     11597  TIP3      H1              8.9670738500      -14.6820686209      -77.1866633901  TIP3      10237           0.0000000000
     82226     11597  TIP3      H2              9.3411519917      -16.0936786115      -76.9121445240  TIP3      10237           0.0000000000
     82227     11598  TIP3      OH2             8.4622283572      -13.6618986639      -71.8721440454  TIP3      10238           0.0000000000
     82228     11598  TIP3      H1              8.8163272916      -14.3480014848      -72.4737386691  TIP3      10238           0.0000000000
     82229     11598  TIP3      H2              7.9913864519      -14.1843720881      -71.1999643000  TIP3      10238           0.0000000000
     82230     11599  TIP3      OH2             9.6448028960      -18.4402136560      -73.8137098039  TIP3      10239           0.0000000000
     82231     11599  TIP3      H1              8.9675056216      -18.3836296086      -73.1046872198  TIP3      10239           0.0000000000
     82232     11599  TIP3      H2              9.1305861460      -18.6927839647      -74.5937623314  TIP3      10239           0.0000000000
     82233     11600  TIP3      OH2            13.0394701101       -2.9435784945      -67.5176746296  TIP3      10240           0.0000000000
     82234     11600  TIP3      H1             13.0756406613       -2.3605181983      -68.3010919161  TIP3      10240           0.0000000000
     82235     11600  TIP3      H2             13.5308897518       -2.4267353884      -66.8535221989  TIP3      10240           0.0000000000
     82236     11601  TIP3      OH2             0.5399483037      -10.3363004557      -67.9185217138  TIP3      10241           0.0000000000
     82237     11601  TIP3      H1              1.2428133229      -10.0968663129      -67.2928239416  TIP3      10241           0.0000000000
     82238     11601  TIP3      H2             -0.2463291378      -10.2502130778      -67.3366854565  TIP3      10241           0.0000000000
     82239     11602  TIP3      OH2             6.5486230146      -14.9164575422      -75.1278129637  TIP3      10242           0.0000000000
     82240     11602  TIP3      H1              7.1230101947      -15.4610284715      -75.6801168039  TIP3      10242           0.0000000000
     82241     11602  TIP3      H2              6.3847858200      -15.4872000807      -74.3655078839  TIP3      10242           0.0000000000
     82242     11603  TIP3      OH2             5.1496043626      -16.5890104046      -72.7058855922  TIP3      10243           0.0000000000
     82243     11603  TIP3      H1              4.3625704244      -16.0440094465      -72.6278955598  TIP3      10243           0.0000000000
     82244     11603  TIP3      H2              5.7369583606      -16.2301243702      -72.0067979670  TIP3      10243           0.0000000000
     82245     11604  TIP3      OH2             5.9215969739      -10.5013981957      -81.0348717284  TIP3      10244           0.0000000000
     82246     11604  TIP3      H1              5.0516589222      -10.7657493432      -81.4238612973  TIP3      10244           0.0000000000
     82247     11604  TIP3      H2              5.5713937699      -10.2386361528      -80.1706402458  TIP3      10244           0.0000000000
     82248     11605  TIP3      OH2            12.9327075962      -11.1832625225      -72.2465194432  TIP3      10245           0.0000000000
     82249     11605  TIP3      H1             13.4951728739      -10.6907665896      -72.8679727511  TIP3      10245           0.0000000000
     82250     11605  TIP3      H2             12.0712018873      -11.1093512330      -72.7090103494  TIP3      10245           0.0000000000
     82251     11606  TIP3      OH2             9.6112286872      -17.5599071256      -82.8724718050  TIP3      10246           0.0000000000
     82252     11606  TIP3      H1              8.6582186322      -17.4100437540      -83.0304182369  TIP3      10246           0.0000000000
     82253     11606  TIP3      H2              9.9079484214      -16.6885957460      -82.5517786414  TIP3      10246           0.0000000000
     82254     11607  TIP3      OH2             7.2367554189      -10.1188776989      -69.7989262608  TIP3      10247           0.0000000000
     82255     11607  TIP3      H1              6.8941233296      -10.5285313602      -68.9994344407  TIP3      10247           0.0000000000
     82256     11607  TIP3      H2              7.0058797784       -9.1868758946      -69.7024249910  TIP3      10247           0.0000000000
     82257     11608  TIP3      OH2            10.3594387089      -15.6367659800      -81.2032036570  TIP3      10248           0.0000000000
     82258     11608  TIP3      H1             11.2548245373      -15.7647495189      -80.8412802370  TIP3      10248           0.0000000000
     82259     11608  TIP3      H2             10.3973334771      -14.8187259899      -81.7253223553  TIP3      10248           0.0000000000
     82260     11609  TIP3      OH2             0.8486853110      -11.0560561980      -75.2251054419  TIP3      10249           0.0000000000
     82261     11609  TIP3      H1              1.5475734561      -11.0655042479      -75.9203740554  TIP3      10249           0.0000000000
     82262     11609  TIP3      H2              0.9635798528      -11.8931425890      -74.7535833441  TIP3      10249           0.0000000000
     82263     11610  TIP3      OH2             7.8832096164       -8.8684672928      -81.9510264819  TIP3      10250           0.0000000000
     82264     11610  TIP3      H1              7.4459970791       -8.0658509064      -81.6461316286  TIP3      10250           0.0000000000
     82265     11610  TIP3      H2              7.1625027429       -9.5278708733      -81.8557358376  TIP3      10250           0.0000000000
     82266     11611  TIP3      OH2            -2.1623975240      -12.5588446427      -69.9593802471  TIP3      10251           0.0000000000
     82267     11611  TIP3      H1             -1.9490381576      -13.0327576329      -69.1349195642  TIP3      10251           0.0000000000
     82268     11611  TIP3      H2             -2.7559703142      -13.1876628124      -70.4107457866  TIP3      10251           0.0000000000
     82269     11612  TIP3      OH2             4.8764443022      -13.0056372982      -67.7912387336  TIP3      10252           0.0000000000
     82270     11612  TIP3      H1              4.5506009807      -13.3108766347      -68.6514927398  TIP3      10252           0.0000000000
     82271     11612  TIP3      H2              5.7995983710      -13.3291557030      -67.8029400424  TIP3      10252           0.0000000000
     82272     11613  TIP3      OH2             9.5640171647       -7.6399694117      -69.8713762975  TIP3      10253           0.0000000000
     82273     11613  TIP3      H1              8.6321468586       -7.5332483560      -70.1016985562  TIP3      10253           0.0000000000
     82274     11613  TIP3      H2              9.5124334842       -7.3957055734      -68.9268507442  TIP3      10253           0.0000000000
     82275     11614  TIP3      OH2            15.1663790979      -15.5083918715      -81.4586370319  TIP3      10254           0.0000000000
     82276     11614  TIP3      H1             14.6937782084      -15.8317862487      -82.2337974222  TIP3      10254           0.0000000000
     82277     11614  TIP3      H2             15.3542229612      -14.5957116539      -81.7473594292  TIP3      10254           0.0000000000
     82278     11615  TIP3      OH2            15.2325022601       -9.5888238790      -68.6483021564  TIP3      10255           0.0000000000
     82279     11615  TIP3      H1             14.3241040923       -9.4498553941      -69.0221188015  TIP3      10255           0.0000000000
     82280     11615  TIP3      H2             15.7584401476       -9.6905535963      -69.4414453894  TIP3      10255           0.0000000000
     82281     11616  TIP3      OH2            10.7098511855      -11.8590993778      -73.9854619631  TIP3      10256           0.0000000000
     82282     11616  TIP3      H1              9.7653575441      -12.0760929663      -74.0548749771  TIP3      10256           0.0000000000
     82283     11616  TIP3      H2             11.1316739088      -12.6315905135      -74.4051448201  TIP3      10256           0.0000000000
     82284     11617  TIP3      OH2             3.1921084140       -7.4723514655      -77.7471195041  TIP3      10257           0.0000000000
     82285     11617  TIP3      H1              3.7377096414       -6.7517633735      -78.0916102468  TIP3      10257           0.0000000000
     82286     11617  TIP3      H2              2.3692582695       -7.3227879956      -78.2243195792  TIP3      10257           0.0000000000
     82287     11618  TIP3      OH2            -1.0201062477      -12.6199060219      -83.3908099013  TIP3      10258           0.0000000000
     82288     11618  TIP3      H1             -0.4178029625      -12.0466903198      -82.8774878276  TIP3      10258           0.0000000000
     82289     11618  TIP3      H2             -1.8923198694      -12.4383528464      -82.9993043722  TIP3      10258           0.0000000000
     82290     11619  TIP3      OH2             4.7799227000       -9.8867308055      -77.9409913810  TIP3      10259           0.0000000000
     82291     11619  TIP3      H1              4.4073957991       -9.0451951046      -78.2965408575  TIP3      10259           0.0000000000
     82292     11619  TIP3      H2              3.9293615842      -10.3516376385      -77.9259012806  TIP3      10259           0.0000000000
     82293     11620  TIP3      OH2             5.1038273132       -5.6973126789      -71.9189812559  TIP3      10260           0.0000000000
     82294     11620  TIP3      H1              5.5250467129       -4.8829322697      -72.2056939151  TIP3      10260           0.0000000000
     82295     11620  TIP3      H2              5.7193063641       -6.0236515296      -71.2372753736  TIP3      10260           0.0000000000
     82296     11621  TIP3      OH2             3.3580210501       -4.8122616339      -78.8271847237  TIP3      10261           0.0000000000
     82297     11621  TIP3      H1              2.3872554578       -4.7365954112      -78.6758153211  TIP3      10261           0.0000000000
     82298     11621  TIP3      H2              3.6860916567       -3.9923350654      -78.4278154240  TIP3      10261           0.0000000000
     82299     11622  TIP3      OH2             8.6382284146       -9.6601932991      -72.3415005991  TIP3      10262           0.0000000000
     82300     11622  TIP3      H1              8.3100220510       -9.8272850205      -71.4365300701  TIP3      10262           0.0000000000
     82301     11622  TIP3      H2              9.2715483111      -10.3769188482      -72.4842089713  TIP3      10262           0.0000000000
     82302     11623  TIP3      OH2            11.4755596170       -5.0551855987      -69.8020116035  TIP3      10263           0.0000000000
     82303     11623  TIP3      H1             10.7885619472       -5.6200354130      -70.2133575590  TIP3      10263           0.0000000000
     82304     11623  TIP3      H2             11.5728201754       -4.3681700847      -70.4673556158  TIP3      10263           0.0000000000
     82305     11624  TIP3      OH2            15.4704731066       -4.2094980416      -82.9759012076  TIP3      10264           0.0000000000
     82306     11624  TIP3      H1             16.1447519228       -3.5550294631      -83.2099015745  TIP3      10264           0.0000000000
     82307     11624  TIP3      H2             14.7176677112       -3.6511242991      -82.6808547378  TIP3      10264           0.0000000000
     82308     11625  TIP3      OH2            11.7695846875      -10.0784948918      -81.0173789164  TIP3      10265           0.0000000000
     82309     11625  TIP3      H1             11.5147663737      -10.7855706430      -80.4166439049  TIP3      10265           0.0000000000
     82310     11625  TIP3      H2             12.6950873084       -9.8936671244      -80.7903151187  TIP3      10265           0.0000000000
     82311     11626  TIP3      OH2            -0.9014878964       -6.0628674757      -71.9889130898  TIP3      10266           0.0000000000
     82312     11626  TIP3      H1             -0.5804617605       -6.9726617612      -72.0038487174  TIP3      10266           0.0000000000
     82313     11626  TIP3      H2             -0.6092892938       -5.7579375805      -71.1246273457  TIP3      10266           0.0000000000
     82314     11627  TIP3      OH2             4.0432318517       -7.7786683631      -82.5001482229  TIP3      10267           0.0000000000
     82315     11627  TIP3      H1              4.0767879181       -8.4788498898      -81.7904196340  TIP3      10267           0.0000000000
     82316     11627  TIP3      H2              3.9074269927       -6.9899307283      -81.9577495124  TIP3      10267           0.0000000000
     82317     11628  TIP3      OH2             0.3051980948      -10.7177795386      -81.8989658566  TIP3      10268           0.0000000000
     82318     11628  TIP3      H1             -0.2632674518      -10.3546239182      -81.2027111452  TIP3      10268           0.0000000000
     82319     11628  TIP3      H2              0.9820789847      -10.0223546547      -81.9819348246  TIP3      10268           0.0000000000
     82320     11629  TIP3      OH2             8.2512239002      -18.0582844401      -71.4729680920  TIP3      10269           0.0000000000
     82321     11629  TIP3      H1              8.9596348684      -18.0044389453      -70.8230022029  TIP3      10269           0.0000000000
     82322     11629  TIP3      H2              7.8522324449      -18.9324785118      -71.2907267557  TIP3      10269           0.0000000000
     82323     11630  TIP3      OH2             8.9813671568      -18.4653026710      -80.3602506096  TIP3      10270           0.0000000000
     82324     11630  TIP3      H1              9.2180595294      -18.0373699444      -81.2103331804  TIP3      10270           0.0000000000
     82325     11630  TIP3      H2              9.5711764001      -18.0085247333      -79.7510127823  TIP3      10270           0.0000000000
     82326     11631  TIP3      OH2             6.6884187174       -6.2864178488      -81.4841163034  TIP3      10271           0.0000000000
     82327     11631  TIP3      H1              5.8112671970       -5.8623068577      -81.4952336672  TIP3      10271           0.0000000000
     82328     11631  TIP3      H2              7.1535227864       -5.8372216459      -82.1888567167  TIP3      10271           0.0000000000
     82329     11632  TIP3      OH2             6.2158902790      -16.7615098733      -79.5582904264  TIP3      10272           0.0000000000
     82330     11632  TIP3      H1              6.9847119313      -16.1515365104      -79.5609075586  TIP3      10272           0.0000000000
     82331     11632  TIP3      H2              5.9690911209      -16.8350098159      -78.6380102489  TIP3      10272           0.0000000000
     82332     11633  TIP3      OH2             6.7597351328      -15.7301574858      -70.3765119145  TIP3      10273           0.0000000000
     82333     11633  TIP3      H1              6.8351154118      -15.1698543061      -69.5816172711  TIP3      10273           0.0000000000
     82334     11633  TIP3      H2              7.4358917375      -16.4110953231      -70.2779277547  TIP3      10273           0.0000000000
     82335     11634  TIP3      OH2             7.0611722849      -19.6878821628      -78.6891155075  TIP3      10274           0.0000000000
     82336     11634  TIP3      H1              6.7875836282      -19.0542114856      -78.0174087552  TIP3      10274           0.0000000000
     82337     11634  TIP3      H2              7.7540670014      -19.1508853309      -79.1414291576  TIP3      10274           0.0000000000
     82338     11635  TIP3      OH2             4.0370027877       -5.2546459853      -81.5643137813  TIP3      10275           0.0000000000
     82339     11635  TIP3      H1              4.1905442299       -4.4378991610      -82.0507563210  TIP3      10275           0.0000000000
     82340     11635  TIP3      H2              3.7960412213       -4.9674838392      -80.6540219763  TIP3      10275           0.0000000000
     82341     11636  TIP3      OH2            12.9460433422      -17.8457867515      -69.5290913634  TIP3      10276           0.0000000000
     82342     11636  TIP3      H1             12.0156730722      -17.5374648399      -69.6599407400  TIP3      10276           0.0000000000
     82343     11636  TIP3      H2             13.2569940265      -17.8466341144      -70.4498990614  TIP3      10276           0.0000000000
     82344     11637  TIP3      OH2            11.5473125978      -14.0577314937      -75.5081854397  TIP3      10277           0.0000000000
     82345     11637  TIP3      H1             10.7297870842      -14.5055013280      -75.7945057806  TIP3      10277           0.0000000000
     82346     11637  TIP3      H2             12.0092573588      -14.7514128105      -74.9901574748  TIP3      10277           0.0000000000
     82347     11638  TIP3      OH2             0.9338076611       -8.0837318641      -82.9853803679  TIP3      10278           0.0000000000
     82348     11638  TIP3      H1              1.5981562594       -7.5167925110      -82.5801614859  TIP3      10278           0.0000000000
     82349     11638  TIP3      H2              1.4904762238       -8.6081520453      -83.5708587170  TIP3      10278           0.0000000000
     82350     11639  TIP3      OH2            -0.9539471747       -6.7678990755      -78.9085152877  TIP3      10279           0.0000000000
     82351     11639  TIP3      H1             -1.7713429461       -6.2592825845      -78.9182699455  TIP3      10279           0.0000000000
     82352     11639  TIP3      H2             -0.4322305663       -6.3051449639      -79.5818869103  TIP3      10279           0.0000000000
     82353     11640  TIP3      OH2            -1.7129266450       -4.1001390664      -67.6082631547  TIP3      10280           0.0000000000
     82354     11640  TIP3      H1             -1.1181972451       -4.3055065654      -66.8621294639  TIP3      10280           0.0000000000
     82355     11640  TIP3      H2             -2.1321808171       -4.9592731964      -67.7785483463  TIP3      10280           0.0000000000
     82356     11641  TIP3      OH2             2.9516230287       -5.1805125904      -66.0226515355  TIP3      10281           0.0000000000
     82357     11641  TIP3      H1              3.7060936142       -5.6790652990      -65.6810973326  TIP3      10281           0.0000000000
     82358     11641  TIP3      H2              2.9164415181       -5.4865043631      -66.9481600053  TIP3      10281           0.0000000000
     82359     11642  TIP3      OH2             9.4731109377       -6.8123713311      -67.2768044162  TIP3      10282           0.0000000000
     82360     11642  TIP3      H1              9.1514188040       -7.6932825974      -66.9963930722  TIP3      10282           0.0000000000
     82361     11642  TIP3      H2             10.2174286284       -6.6852445495      -66.6587876977  TIP3      10282           0.0000000000
     82362     11643  TIP3      OH2            -1.8167309088      -10.3544483812      -66.6252414854  TIP3      10283           0.0000000000
     82363     11643  TIP3      H1             -1.6366795909      -11.2567482031      -66.9548403576  TIP3      10283           0.0000000000
     82364     11643  TIP3      H2             -2.5507546242      -10.0791372751      -67.2045086124  TIP3      10283           0.0000000000
     82365     11644  TIP3      OH2             4.9069359116      -10.3468260731      -67.2248167815  TIP3      10284           0.0000000000
     82366     11644  TIP3      H1              4.5647444936      -10.0362333792      -68.0865282811  TIP3      10284           0.0000000000
     82367     11644  TIP3      H2              4.9856778852      -11.3215654272      -67.3420844287  TIP3      10284           0.0000000000
     82368     11645  TIP3      OH2            10.6034576746      -10.4856051539      -69.8225524914  TIP3      10285           0.0000000000
     82369     11645  TIP3      H1             11.3709412797       -9.8901322174      -69.9185174536  TIP3      10285           0.0000000000
     82370     11645  TIP3      H2              9.8939824784       -9.8280645331      -69.8067190137  TIP3      10285           0.0000000000
     82371     11646  TIP3      OH2            -0.9102295080      -13.1180175714      -67.2408184003  TIP3      10286           0.0000000000
     82372     11646  TIP3      H1             -0.4844175516      -13.9768508999      -67.3406649139  TIP3      10286           0.0000000000
     82373     11646  TIP3      H2             -1.1255353822      -13.0997669532      -66.2880183171  TIP3      10286           0.0000000000
     82374     11647  TIP3      OH2             3.7465062646      -11.9945550009      -82.2322825796  TIP3      10287           0.0000000000
     82375     11647  TIP3      H1              3.2835794458      -12.4902092042      -81.5624749538  TIP3      10287           0.0000000000
     82376     11647  TIP3      H2              4.0782967798      -12.6711222423      -82.8606513248  TIP3      10287           0.0000000000
     82377     11648  TIP3      OH2             3.0096149156      -14.1697125618      -69.9013568637  TIP3      10288           0.0000000000
     82378     11648  TIP3      H1              2.4051579008      -13.4570185421      -69.6239378901  TIP3      10288           0.0000000000
     82379     11648  TIP3      H2              3.4019610810      -13.7706987483      -70.6956287852  TIP3      10288           0.0000000000
     82380     11649  TIP3      OH2             4.7096446709      -13.9041843913      -83.8780563344  TIP3      10289           0.0000000000
     82381     11649  TIP3      H1              4.6381329451      -13.9352875267      -84.8470101806  TIP3      10289           0.0000000000
     82382     11649  TIP3      H2              5.6603598985      -13.6484820856      -83.8373195529  TIP3      10289           0.0000000000
     82383     11650  TIP3      OH2             8.0747253250      -11.5924367498      -66.4725942816  TIP3      10290           0.0000000000
     82384     11650  TIP3      H1              9.0252828672      -11.6254280836      -66.6523122995  TIP3      10290           0.0000000000
     82385     11650  TIP3      H2              7.9047230214      -12.3847813716      -65.9449038093  TIP3      10290           0.0000000000
     82386     11651  TIP3      OH2             3.4187323222      -16.7631544216      -68.8058586973  TIP3      10291           0.0000000000
     82387     11651  TIP3      H1              3.5394114707      -17.4870906221      -69.4415955949  TIP3      10291           0.0000000000
     82388     11651  TIP3      H2              3.3681221709      -15.9634334446      -69.3680343181  TIP3      10291           0.0000000000
     82389     11652  TIP3      OH2             3.7770673277      -18.4375482263      -71.3036521728  TIP3      10292           0.0000000000
     82390     11652  TIP3      H1              4.3345736536      -17.9458929156      -71.9541828084  TIP3      10292           0.0000000000
     82391     11652  TIP3      H2              2.9136743308      -18.4823647666      -71.7184191606  TIP3      10292           0.0000000000
     82392     11653  TIP3      OH2             5.3509391888      -12.9214174541      -71.0322528095  TIP3      10293           0.0000000000
     82393     11653  TIP3      H1              6.1053376498      -13.0788860151      -71.6085288912  TIP3      10293           0.0000000000
     82394     11653  TIP3      H2              4.9954784077      -12.0792537517      -71.3628815964  TIP3      10293           0.0000000000
     82395     11654  TIP3      OH2             9.7476889049      -15.1646887200      -66.0804468589  TIP3      10294           0.0000000000
     82396     11654  TIP3      H1              9.9819562307      -16.1043760655      -66.1216191941  TIP3      10294           0.0000000000
     82397     11654  TIP3      H2             10.6196008480      -14.7360995008      -66.0489562047  TIP3      10294           0.0000000000
     82398     11655  TIP3      OH2            11.0783596715      -12.3704537400      -67.9146926255  TIP3      10295           0.0000000000
     82399     11655  TIP3      H1             10.8475759863      -11.6390387122      -68.5318322707  TIP3      10295           0.0000000000
     82400     11655  TIP3      H2             12.0400808576      -12.4092226149      -68.0886908321  TIP3      10295           0.0000000000
     82401     11656  TIP3      OH2             1.8891644652      -15.5707580695      -66.8484417248  TIP3      10296           0.0000000000
     82402     11656  TIP3      H1              1.1013282267      -16.1045691130      -67.0822531618  TIP3      10296           0.0000000000
     82403     11656  TIP3      H2              2.5234453312      -15.8886874629      -67.5196303332  TIP3      10296           0.0000000000
     82404     11657  TIP3      OH2             5.8664250021      -16.6591463417      -67.2632225589  TIP3      10297           0.0000000000
     82405     11657  TIP3      H1              5.5641978465      -16.8578739947      -66.3590481401  TIP3      10297           0.0000000000
     82406     11657  TIP3      H2              5.0655993706      -16.8320526417      -67.7908650912  TIP3      10297           0.0000000000
     82407     11658  TIP3      OH2             8.5826202067      -17.5170382851      -68.2004262114  TIP3      10298           0.0000000000
     82408     11658  TIP3      H1              7.6273093059      -17.4373449515      -68.0492103282  TIP3      10298           0.0000000000
     82409     11658  TIP3      H2              8.8566403376      -18.1354574059      -67.4978163370  TIP3      10298           0.0000000000
     82410     11659  TIP3      OH2            10.1505524433      -18.8714113539      -66.2620739017  TIP3      10299           0.0000000000
     82411     11659  TIP3      H1             10.1238424710      -19.8478128857      -66.2302144475  TIP3      10299           0.0000000000
     82412     11659  TIP3      H2              9.9153839423      -18.5885542354      -65.3479634199  TIP3      10299           0.0000000000
     82413     11660  TIP3      OH2            -0.0614485054      -17.6314733870      -67.1792740489  TIP3      10300           0.0000000000
     82414     11660  TIP3      H1              0.2420047175      -18.3499211071      -67.7622160177  TIP3      10300           0.0000000000
     82415     11660  TIP3      H2             -0.1088784702      -18.0492016711      -66.2885983726  TIP3      10300           0.0000000000
     82416     11661  TIP3      OH2             4.8359670929      -21.5869490720      -68.1865940191  TIP3      10301           0.0000000000
     82417     11661  TIP3      H1              5.5035576292      -22.3024808297      -68.1824897130  TIP3      10301           0.0000000000
     82418     11661  TIP3      H2              4.7298149154      -21.3963327398      -69.1088861496  TIP3      10301           0.0000000000
     82419     11662  TIP3      OH2             5.1810399712      -19.9577671949      -66.0861417581  TIP3      10302           0.0000000000
     82420     11662  TIP3      H1              4.9916227730      -20.4826055723      -66.9022321500  TIP3      10302           0.0000000000
     82421     11662  TIP3      H2              4.5746647722      -19.2025211822      -66.1943624213  TIP3      10302           0.0000000000
     82422     11663  TIP3      OH2            -1.7570779336       -8.5051443175      -83.3962146063  TIP3      10303           0.0000000000
     82423     11663  TIP3      H1             -0.7941990805       -8.3731556356      -83.2153626581  TIP3      10303           0.0000000000
     82424     11663  TIP3      H2             -1.7454527181       -9.0671671243      -84.1770463107  TIP3      10303           0.0000000000
     82425     11664  TIP3      OH2            -2.2051350770       -4.9381486951      -76.6185598613  TIP3      10304           0.0000000000
     82426     11664  TIP3      H1             -2.5641825850       -5.8080646602      -76.4035868790  TIP3      10304           0.0000000000
     82427     11664  TIP3      H2             -1.9862354128       -4.6071665475      -75.7289456088  TIP3      10304           0.0000000000
     82428     11665  TIP3      OH2            14.8825240413       -4.5952586074      -70.6673935690  TIP3      10305           0.0000000000
     82429     11665  TIP3      H1             14.4466873652       -5.2976388060      -71.1782844651  TIP3      10305           0.0000000000
     82430     11665  TIP3      H2             15.5651976732       -5.0996090795      -70.2069028082  TIP3      10305           0.0000000000
     82431     11666  TIP3      OH2            13.3571962795       -8.8140732713      -66.0801447352  TIP3      10306           0.0000000000
     82432     11666  TIP3      H1             12.4766693522       -8.8836454675      -65.6593746154  TIP3      10306           0.0000000000
     82433     11666  TIP3      H2             13.7370342059       -8.0636785398      -65.5730492758  TIP3      10306           0.0000000000
     82434     11667  TIP3      OH2            14.6628598998      -10.5217507529      -80.5456296608  TIP3      10307           0.0000000000
     82435     11667  TIP3      H1             15.5397436628      -10.1332764478      -80.4147311870  TIP3      10307           0.0000000000
     82436     11667  TIP3      H2             14.7168592964      -11.2778588414      -79.9298916309  TIP3      10307           0.0000000000
     82437     11668  TIP3      OH2            15.0618635021      -12.4868316349      -78.7174053554  TIP3      10308           0.0000000000
     82438     11668  TIP3      H1             14.3004278828      -12.9628716615      -78.3281806364  TIP3      10308           0.0000000000
     82439     11668  TIP3      H2             15.6471945719      -12.3086240625      -77.9594948029  TIP3      10308           0.0000000000
     82440     11669  TIP3      OH2            14.8018531301       -9.7389055226      -73.7497770824  TIP3      10309           0.0000000000
     82441     11669  TIP3      H1             15.6310960208      -10.0808972459      -74.1003132440  TIP3      10309           0.0000000000
     82442     11669  TIP3      H2             14.9420264728       -8.7826301384      -73.8984703655  TIP3      10309           0.0000000000
     82443     11670  TIP3      OH2            12.8623704797      -13.9716920837      -78.1433350409  TIP3      10310           0.0000000000
     82444     11670  TIP3      H1             12.7048733253      -14.9252840290      -78.1777088499  TIP3      10310           0.0000000000
     82445     11670  TIP3      H2             12.4887008245      -13.7307084673      -77.2770181946  TIP3      10310           0.0000000000
     82446     11671  TIP3      OH2            -2.1360629055      -11.8416390308      -74.1046340944  TIP3      10311           0.0000000000
     82447     11671  TIP3      H1             -1.9504144266      -11.9439936630      -75.0601934878  TIP3      10311           0.0000000000
     82448     11671  TIP3      H2             -1.2554903156      -12.0557014517      -73.7281364474  TIP3      10311           0.0000000000
     82449     11672  TIP3      OH2            13.7066168342      -11.9827839830      -68.4685323282  TIP3      10312           0.0000000000
     82450     11672  TIP3      H1             14.3170260983      -12.7473145610      -68.3365787138  TIP3      10312           0.0000000000
     82451     11672  TIP3      H2             14.3113961683      -11.2183194216      -68.4515280432  TIP3      10312           0.0000000000
     82452     11673  TIP3      OH2            15.2075609404      -14.1012992907      -67.7989206865  TIP3      10313           0.0000000000
     82453     11673  TIP3      H1             14.3425627824      -14.5243458465      -67.9690279430  TIP3      10313           0.0000000000
     82454     11673  TIP3      H2             15.8040005387      -14.8685268589      -67.8942080210  TIP3      10313           0.0000000000
     82455     11674  TIP3      OH2            12.9116388058      -17.9938036070      -84.7078617883  TIP3      10314           0.0000000000
     82456     11674  TIP3      H1             13.5334664200      -18.3550491360      -84.0553905829  TIP3      10314           0.0000000000
     82457     11674  TIP3      H2             12.0387145884      -18.3284752521      -84.4732584821  TIP3      10314           0.0000000000
     82458     11675  TIP3      OH2            12.5327131124      -16.3852278389      -79.6748974576  TIP3      10315           0.0000000000
     82459     11675  TIP3      H1             12.8349123234      -17.3161833856      -79.5614586356  TIP3      10315           0.0000000000
     82460     11675  TIP3      H2             13.3153296584      -15.9767333199      -80.0734439538  TIP3      10315           0.0000000000
     82461     11676  TIP3      OH2            13.1397179752      -15.8556636427      -74.2504632483  TIP3      10316           0.0000000000
     82462     11676  TIP3      H1             14.0889493944      -15.6201604560      -74.2745247041  TIP3      10316           0.0000000000
     82463     11676  TIP3      H2             12.9484279703      -15.7049586440      -73.3094665878  TIP3      10316           0.0000000000
     82464     11677  TIP3      OH2            13.2174670744      -15.1204528725      -71.4922862173  TIP3      10317           0.0000000000
     82465     11677  TIP3      H1             12.3480540352      -14.8274708827      -71.1413693634  TIP3      10317           0.0000000000
     82466     11677  TIP3      H2             13.6521233351      -14.2533150232      -71.6638798621  TIP3      10317           0.0000000000
     82467     11678  TIP3      OH2            -2.5407631220      -16.5540268983      -67.8719475655  TIP3      10318           0.0000000000
     82468     11678  TIP3      H1             -1.5945467947      -16.7827673340      -67.7580221126  TIP3      10318           0.0000000000
     82469     11678  TIP3      H2             -2.9883206476      -17.3958664258      -67.6520621716  TIP3      10318           0.0000000000
     82470     11679  TIP3      OH2            15.5202336228      -21.0644412250      -66.1299149874  TIP3      10319           0.0000000000
     82471     11679  TIP3      H1             15.8553852798      -21.7335450425      -66.7417300162  TIP3      10319           0.0000000000
     82472     11679  TIP3      H2             15.6044666958      -20.2428775908      -66.6514846007  TIP3      10319           0.0000000000
     82473     11680  TIP3      OH2            13.1712587311      -19.0936645263      -79.6414430056  TIP3      10320           0.0000000000
     82474     11680  TIP3      H1             13.3950950539      -19.5394652347      -78.7966407272  TIP3      10320           0.0000000000
     82475     11680  TIP3      H2             12.5809993785      -19.7415146060      -80.0898468739  TIP3      10320           0.0000000000
     82476     11681  TIP3      OH2            15.0078585386      -18.9784411915      -67.7531180890  TIP3      10321           0.0000000000
     82477     11681  TIP3      H1             14.0732705391      -18.6901006605      -67.8028740049  TIP3      10321           0.0000000000
     82478     11681  TIP3      H2             15.0629376492      -19.4900466702      -68.5729780691  TIP3      10321           0.0000000000
     82479     11682  TIP3      OH2            15.0273066211      -19.0521959191      -83.0537960676  TIP3      10322           0.0000000000
     82480     11682  TIP3      H1             15.4089773610      -19.7607594366      -83.6032738821  TIP3      10322           0.0000000000
     82481     11682  TIP3      H2             15.7055163329      -18.3716942946      -83.1041656080  TIP3      10322           0.0000000000
     82482     11683  TIP3      OH2            -2.7289758491      -20.3774006555      -71.7123276396  TIP3      10323           0.0000000000
     82483     11683  TIP3      H1             -3.3758709874      -20.5406694203      -71.0085380646  TIP3      10323           0.0000000000
     82484     11683  TIP3      H2             -3.1603050162      -19.6832356917      -72.2396732341  TIP3      10323           0.0000000000
     82485     11684  TIP3      OH2            -0.4829060547       -7.1529740790      -67.5035967593  TIP3      10324           0.0000000000
     82486     11684  TIP3      H1             -1.3249853654       -6.9473352512      -67.9429636546  TIP3      10324           0.0000000000
     82487     11684  TIP3      H2             -0.7580021386       -7.2263721763      -66.5822057215  TIP3      10324           0.0000000000
     82488     11685  TIP3      OH2             2.4229371400       -6.1766988563      -71.2165695138  TIP3      10325           0.0000000000
     82489     11685  TIP3      H1              2.0813250608       -5.3156575057      -71.4991442407  TIP3      10325           0.0000000000
     82490     11685  TIP3      H2              3.3401446019       -6.0739212949      -71.5493998499  TIP3      10325           0.0000000000
     82491     11686  TIP3      OH2             6.7528076320       -4.7458736932      -68.3543740152  TIP3      10326           0.0000000000
     82492     11686  TIP3      H1              6.8717893622       -5.0908236582      -67.4327871653  TIP3      10326           0.0000000000
     82493     11686  TIP3      H2              7.6513439156       -4.4388219918      -68.5544549779  TIP3      10326           0.0000000000
     82494     11687  TIP3      OH2            14.0412054927      -20.8642743943      -69.9202145292  TIP3      10327           0.0000000000
     82495     11687  TIP3      H1             13.2094588098      -20.5669530355      -70.3285214947  TIP3      10327           0.0000000000
     82496     11687  TIP3      H2             14.2086084870      -21.6814636931      -70.4428082949  TIP3      10327           0.0000000000
     82497     11688  TIP3      OH2            -0.1685928904       -2.9348936201      -71.2387390336  TIP3      10328           0.0000000000
     82498     11688  TIP3      H1             -0.9055908938       -2.4389452064      -71.6388733622  TIP3      10328           0.0000000000
     82499     11688  TIP3      H2             -0.4992599654       -3.0994515913      -70.3485410545  TIP3      10328           0.0000000000
     82500     11689  TIP3      OH2             2.2966069749       -3.3786343956      -72.1894979595  TIP3      10329           0.0000000000
     82501     11689  TIP3      H1              1.4287599538       -3.1736078043      -71.7679119181  TIP3      10329           0.0000000000
     82502     11689  TIP3      H2              2.2232899474       -2.7769781319      -72.9380616018  TIP3      10329           0.0000000000
     82503     11690  TIP3      OH2            -0.7653114409       -4.3454679192      -74.3083524494  TIP3      10330           0.0000000000
     82504     11690  TIP3      H1             -0.7331644487       -4.7315870681      -73.4167863847  TIP3      10330           0.0000000000
     82505     11690  TIP3      H2              0.0857538613       -4.6080101984      -74.7039005994  TIP3      10330           0.0000000000
     82506     11691  TIP3      OH2             1.3513729538       -5.5840699296      -75.6713406856  TIP3      10331           0.0000000000
     82507     11691  TIP3      H1              1.1908778214       -6.5135131184      -75.4242838468  TIP3      10331           0.0000000000
     82508     11691  TIP3      H2              2.2018203652       -5.4088476208      -75.2189612573  TIP3      10331           0.0000000000
     82509     11692  TIP3      OH2             3.9920283462       -5.0977286950      -74.7677269287  TIP3      10332           0.0000000000
     82510     11692  TIP3      H1              4.1446036221       -6.0191471463      -75.0418545398  TIP3      10332           0.0000000000
     82511     11692  TIP3      H2              3.9772441107       -5.1736291381      -73.8057699604  TIP3      10332           0.0000000000
     82512     11693  TIP3      OH2             7.4537631542      -19.4184925347      -75.6311419300  TIP3      10333           0.0000000000
     82513     11693  TIP3      H1              6.7639855682      -20.0512015247      -75.3820539209  TIP3      10333           0.0000000000
     82514     11693  TIP3      H2              8.0048585487      -19.9523410529      -76.2166168798  TIP3      10333           0.0000000000
     82515     11694  TIP3      OH2            12.5524063823      -21.3861075938      -75.5566551169  TIP3      10334           0.0000000000
     82516     11694  TIP3      H1             13.1688603220      -20.8010270007      -76.0669161849  TIP3      10334           0.0000000000
     82517     11694  TIP3      H2             11.6725700931      -21.0337307613      -75.7992547454  TIP3      10334           0.0000000000
     82518     11695  TIP3      OH2            14.2448795188      -20.1412641747      -77.2764887006  TIP3      10335           0.0000000000
     82519     11695  TIP3      H1             14.9294948883      -20.7174846877      -77.6979387394  TIP3      10335           0.0000000000
     82520     11695  TIP3      H2             14.7391213293      -19.3189391741      -77.1654086442  TIP3      10335           0.0000000000
     82521     11696  TIP3      OH2             4.3017695878      -20.8354701663      -77.9884562854  TIP3      10336           0.0000000000
     82522     11696  TIP3      H1              5.2308104812      -20.5661038272      -78.0652101944  TIP3      10336           0.0000000000
     82523     11696  TIP3      H2              4.2152954692      -21.1008477123      -77.0732236612  TIP3      10336           0.0000000000
     82524     11697  TIP3      OH2             9.9617977197      -20.8489785146      -76.3728023658  TIP3      10337           0.0000000000
     82525     11697  TIP3      H1              9.9448587969      -20.7598443658      -77.3339046921  TIP3      10337           0.0000000000
     82526     11697  TIP3      H2              9.5750148754      -21.7481795053      -76.2344206228  TIP3      10337           0.0000000000
     82527     11698  TIP3      OH2            11.2606215171      -20.8139685600      -80.7265878029  TIP3      10338           0.0000000000
     82528     11698  TIP3      H1             10.5043830978      -20.2247237445      -80.8602325257  TIP3      10338           0.0000000000
     82529     11698  TIP3      H2             10.8308004147      -21.6589752576      -80.4916279286  TIP3      10338           0.0000000000
     82530     11699  TIP3      OH2            -1.4895689041       -5.0946036913      -81.0363844799  TIP3      10339           0.0000000000
     82531     11699  TIP3      H1             -2.1714299964       -5.1128630510      -81.7542529965  TIP3      10339           0.0000000000
     82532     11699  TIP3      H2             -1.5006602475       -4.1459360229      -80.8913600754  TIP3      10339           0.0000000000
     82533     11700  TIP3      OH2             5.4449165784      -18.8624961955      -81.1471305128  TIP3      10340           0.0000000000
     82534     11700  TIP3      H1              5.6515584217      -19.4714962973      -80.4245354442  TIP3      10340           0.0000000000
     82535     11700  TIP3      H2              5.4841785810      -18.0077443056      -80.6659132045  TIP3      10340           0.0000000000
     82536     11701  TIP3      OH2             0.3016920594       -4.1004575231      -84.0987599044  TIP3      10341           0.0000000000
     82537     11701  TIP3      H1              0.0397804507       -3.8604561226      -83.2030350467  TIP3      10341           0.0000000000
     82538     11701  TIP3      H2              1.0670233021       -4.6579237654      -83.9460285577  TIP3      10341           0.0000000000
     82539     11702  TIP3      OH2            10.0978210247      -21.5938147639      -66.5530068020  TIP3      10342           0.0000000000
     82540     11702  TIP3      H1             10.1996405609      -22.0718993838      -65.7079580708  TIP3      10342           0.0000000000
     82541     11702  TIP3      H2             11.0134665140      -21.6289794177      -66.8970840621  TIP3      10342           0.0000000000
     82542     11703  TIP3      OH2            13.1261440139       -5.6298442763      -67.7809112186  TIP3      10343           0.0000000000
     82543     11703  TIP3      H1             12.3679412915       -5.7413159964      -68.4112099640  TIP3      10343           0.0000000000
     82544     11703  TIP3      H2             12.9811020557       -4.6833888882      -67.5562675517  TIP3      10343           0.0000000000
     82545     11704  TIP3      OH2            27.7277702368      -11.6357032986      -77.9064680528  TIP3      10344           0.0000000000
     82546     11704  TIP3      H1             27.7429337718      -10.6759598696      -77.9761292296  TIP3      10344           0.0000000000
     82547     11704  TIP3      H2             27.0334562970      -11.9130222061      -78.5420148644  TIP3      10344           0.0000000000
     82548     11705  TIP3      OH2            26.6102304421      -12.4053510213      -74.4396168229  TIP3      10345           0.0000000000
     82549     11705  TIP3      H1             26.5952518113      -13.0411046693      -73.7045072827  TIP3      10345           0.0000000000
     82550     11705  TIP3      H2             26.2990652144      -12.9095184298      -75.1949657370  TIP3      10345           0.0000000000
     82551     11706  TIP3      OH2            30.1580011359       -9.4336903096      -76.2088101300  TIP3      10346           0.0000000000
     82552     11706  TIP3      H1             29.8988349172      -10.1876417582      -75.6659790611  TIP3      10346           0.0000000000
     82553     11706  TIP3      H2             30.3362753129       -8.7869042899      -75.5037540353  TIP3      10346           0.0000000000
     82554     11707  TIP3      OH2            16.4739613352      -14.7590065777      -78.8500843184  TIP3      10347           0.0000000000
     82555     11707  TIP3      H1             16.0950978740      -13.8567105175      -78.9528854188  TIP3      10347           0.0000000000
     82556     11707  TIP3      H2             15.9462921126      -15.2508302449      -79.4894535712  TIP3      10347           0.0000000000
     82557     11708  TIP3      OH2            17.2023132700      -12.5271530888      -76.7908701362  TIP3      10348           0.0000000000
     82558     11708  TIP3      H1             17.4736026935      -13.3182703452      -76.3318203863  TIP3      10348           0.0000000000
     82559     11708  TIP3      H2             17.9291571841      -12.4031889038      -77.4330120110  TIP3      10348           0.0000000000
     82560     11709  TIP3      OH2            25.0241303796       -9.9126985596      -74.0674547244  TIP3      10349           0.0000000000
     82561     11709  TIP3      H1             25.3096925288      -10.6852923751      -74.5747642152  TIP3      10349           0.0000000000
     82562     11709  TIP3      H2             25.7633970120       -9.8457915043      -73.4296214101  TIP3      10349           0.0000000000
     82563     11710  TIP3      OH2            28.2327181611      -15.5142720370      -73.6574381150  TIP3      10350           0.0000000000
     82564     11710  TIP3      H1             28.2647180209      -16.4876626889      -73.6162708199  TIP3      10350           0.0000000000
     82565     11710  TIP3      H2             28.0346676728      -15.4142461501      -74.6091636180  TIP3      10350           0.0000000000
     82566     11711  TIP3      OH2            29.0150287943      -17.3721885853      -78.0593398550  TIP3      10351           0.0000000000
     82567     11711  TIP3      H1             29.6684234638      -17.6824116204      -77.3925720872  TIP3      10351           0.0000000000
     82568     11711  TIP3      H2             29.5609234983      -16.7954802176      -78.6119346860  TIP3      10351           0.0000000000
     82569     11712  TIP3      OH2            22.6948697303      -10.9218621858      -72.0791530238  TIP3      10352           0.0000000000
     82570     11712  TIP3      H1             21.9883936667      -10.2711459601      -71.9408616495  TIP3      10352           0.0000000000
     82571     11712  TIP3      H2             23.3935562599      -10.3543207695      -72.4257039529  TIP3      10352           0.0000000000
     82572     11713  TIP3      OH2            30.8153071011      -18.0350250634      -76.0593071929  TIP3      10353           0.0000000000
     82573     11713  TIP3      H1             30.5410716622      -18.7989953692      -75.5322715835  TIP3      10353           0.0000000000
     82574     11713  TIP3      H2             31.4810277440      -17.6232463141      -75.5138411819  TIP3      10353           0.0000000000
     82575     11714  TIP3      OH2            21.0860644278       -8.9162606731      -71.3255187344  TIP3      10354           0.0000000000
     82576     11714  TIP3      H1             21.0683441879       -8.0035773317      -71.6591792296  TIP3      10354           0.0000000000
     82577     11714  TIP3      H2             20.2286089460       -8.9944136111      -70.8520223303  TIP3      10354           0.0000000000
     82578     11715  TIP3      OH2            17.2075484522       -9.2909052375      -80.5340416210  TIP3      10355           0.0000000000
     82579     11715  TIP3      H1             16.9627315789       -8.9941903185      -81.4288436756  TIP3      10355           0.0000000000
     82580     11715  TIP3      H2             17.2589192691       -8.4473020704      -80.0483341008  TIP3      10355           0.0000000000
     82581     11716  TIP3      OH2            30.8106197330       -7.6108724496      -73.7733757051  TIP3      10356           0.0000000000
     82582     11716  TIP3      H1             29.8585787626       -7.5269123795      -73.6184835264  TIP3      10356           0.0000000000
     82583     11716  TIP3      H2             31.0851403075       -6.6941889436      -73.9584148223  TIP3      10356           0.0000000000
     82584     11717  TIP3      OH2            31.1715839769      -19.3463583099      -72.4177822711  TIP3      10357           0.0000000000
     82585     11717  TIP3      H1             30.4093500690      -18.7404950654      -72.4391592604  TIP3      10357           0.0000000000
     82586     11717  TIP3      H2             31.8346129656      -18.8820363117      -72.9306632097  TIP3      10357           0.0000000000
     82587     11718  TIP3      OH2            24.1222741821      -21.2558864404      -74.9329291066  TIP3      10358           0.0000000000
     82588     11718  TIP3      H1             24.0305788596      -22.2151140881      -74.9906897411  TIP3      10358           0.0000000000
     82589     11718  TIP3      H2             23.2705908759      -20.9656588889      -74.6154206644  TIP3      10358           0.0000000000
     82590     11719  TIP3      OH2            30.2427406895       -7.9508357515      -78.6685428198  TIP3      10359           0.0000000000
     82591     11719  TIP3      H1             30.0262453769       -8.6467528554      -79.2951527523  TIP3      10359           0.0000000000
     82592     11719  TIP3      H2             30.3233440720       -8.3993011368      -77.8090498028  TIP3      10359           0.0000000000
     82593     11720  TIP3      OH2            26.4249155076      -12.3636735890      -80.3599514554  TIP3      10360           0.0000000000
     82594     11720  TIP3      H1             25.6772957846      -11.9173257001      -80.7908186793  TIP3      10360           0.0000000000
     82595     11720  TIP3      H2             27.0824899475      -12.3489486202      -81.0799659349  TIP3      10360           0.0000000000
     82596     11721  TIP3      OH2            26.4676729013      -13.9038335947      -83.3072445656  TIP3      10361           0.0000000000
     82597     11721  TIP3      H1             27.2063301365      -13.9145739291      -82.7022524940  TIP3      10361           0.0000000000
     82598     11721  TIP3      H2             26.7496407302      -14.5230497949      -83.9902913867  TIP3      10361           0.0000000000
     82599     11722  TIP3      OH2            29.8016086636      -12.2119913263      -79.5188110953  TIP3      10362           0.0000000000
     82600     11722  TIP3      H1             29.1000962878      -11.9782701379      -78.8741311309  TIP3      10362           0.0000000000
     82601     11722  TIP3      H2             30.3089846227      -12.8644415256      -78.9952153553  TIP3      10362           0.0000000000
     82602     11723  TIP3      OH2            29.7739507994      -14.0172802716      -70.3712081612  TIP3      10363           0.0000000000
     82603     11723  TIP3      H1             29.7204717134      -13.2368810915      -69.8154526440  TIP3      10363           0.0000000000
     82604     11723  TIP3      H2             29.1242388121      -13.7675052446      -71.0630882289  TIP3      10363           0.0000000000
     82605     11724  TIP3      OH2            22.7889153272       -8.1295155811      -74.9029212279  TIP3      10364           0.0000000000
     82606     11724  TIP3      H1             22.7359922052       -8.7516819621      -75.6308112660  TIP3      10364           0.0000000000
     82607     11724  TIP3      H2             23.5399859177       -8.5060656132      -74.4055480801  TIP3      10364           0.0000000000
     82608     11725  TIP3      OH2            22.7082402884       -8.4177879033      -69.2006741456  TIP3      10365           0.0000000000
     82609     11725  TIP3      H1             22.3339584938       -7.6339464206      -68.7562437446  TIP3      10365           0.0000000000
     82610     11725  TIP3      H2             22.0784715196       -8.5661813687      -69.9420653160  TIP3      10365           0.0000000000
     82611     11726  TIP3      OH2            28.7488140610      -13.0545320344      -81.8200391489  TIP3      10366           0.0000000000
     82612     11726  TIP3      H1             29.2683858894      -12.8302690036      -81.0078744290  TIP3      10366           0.0000000000
     82613     11726  TIP3      H2             29.1287920541      -12.5019252154      -82.5113983358  TIP3      10366           0.0000000000
     82614     11727  TIP3      OH2            21.0097973321       -6.3063480513      -68.4428840248  TIP3      10367           0.0000000000
     82615     11727  TIP3      H1             20.9530664051       -6.4183918021      -69.4031755978  TIP3      10367           0.0000000000
     82616     11727  TIP3      H2             20.0877569649       -6.4768505305      -68.1747298994  TIP3      10367           0.0000000000
     82617     11728  TIP3      OH2            32.4381533090      -21.3097177753      -81.9223051407  TIP3      10368           0.0000000000
     82618     11728  TIP3      H1             31.4988272803      -21.1589522294      -81.6500531513  TIP3      10368           0.0000000000
     82619     11728  TIP3      H2             32.6299531127      -20.4810654417      -82.3683498974  TIP3      10368           0.0000000000
     82620     11729  TIP3      OH2            33.5646112837       -6.9243317439      -83.4946903838  TIP3      10369           0.0000000000
     82621     11729  TIP3      H1             33.6563711807       -5.9548212858      -83.4266041928  TIP3      10369           0.0000000000
     82622     11729  TIP3      H2             34.4668154760       -7.1997812091      -83.6594140313  TIP3      10369           0.0000000000
     82623     11730  TIP3      OH2            16.2949784786       -7.3725472536      -74.2931225324  TIP3      10370           0.0000000000
     82624     11730  TIP3      H1             17.2521310609       -7.4773602653      -74.3300741949  TIP3      10370           0.0000000000
     82625     11730  TIP3      H2             16.2258380744       -6.5536197426      -73.7912916994  TIP3      10370           0.0000000000
     82626     11731  TIP3      OH2            34.5195075459       -6.6969551592      -68.6002748228  TIP3      10371           0.0000000000
     82627     11731  TIP3      H1             34.4057854556       -7.6550388969      -68.5883617822  TIP3      10371           0.0000000000
     82628     11731  TIP3      H2             33.6559373662       -6.4212774007      -68.2011946842  TIP3      10371           0.0000000000
     82629     11732  TIP3      OH2            25.5200367589       -7.1656378410      -69.6443324437  TIP3      10372           0.0000000000
     82630     11732  TIP3      H1             25.5394016752       -6.2717631342      -69.2360982816  TIP3      10372           0.0000000000
     82631     11732  TIP3      H2             24.6016266645       -7.4365859155      -69.5098191244  TIP3      10372           0.0000000000
     82632     11733  TIP3      OH2            19.5186395146       -4.4899741066      -78.1413727788  TIP3      10373           0.0000000000
     82633     11733  TIP3      H1             19.7260326696       -4.9096219563      -77.2812219719  TIP3      10373           0.0000000000
     82634     11733  TIP3      H2             18.6875976990       -4.9304660845      -78.3685714905  TIP3      10373           0.0000000000
     82635     11734  TIP3      OH2            31.5821560272      -15.1949496414      -68.0830456212  TIP3      10374           0.0000000000
     82636     11734  TIP3      H1             31.2321999653      -14.7556640809      -68.8649530886  TIP3      10374           0.0000000000
     82637     11734  TIP3      H2             31.6991216026      -16.1000755489      -68.4039948112  TIP3      10374           0.0000000000
     82638     11735  TIP3      OH2            18.7375894971       -8.7618732788      -70.1398579019  TIP3      10375           0.0000000000
     82639     11735  TIP3      H1             19.0254090125       -9.1788159901      -69.2877804064  TIP3      10375           0.0000000000
     82640     11735  TIP3      H2             17.9256846425       -9.2292632601      -70.3015174312  TIP3      10375           0.0000000000
     82641     11736  TIP3      OH2            26.1340583597      -20.6356295360      -70.7947853501  TIP3      10376           0.0000000000
     82642     11736  TIP3      H1             26.5330353596      -21.0838129000      -70.0332722093  TIP3      10376           0.0000000000
     82643     11736  TIP3      H2             25.1719744812      -20.7938579439      -70.6811118340  TIP3      10376           0.0000000000
     82644     11737  TIP3      OH2            29.4354855416      -16.8058633876      -69.9203528219  TIP3      10377           0.0000000000
     82645     11737  TIP3      H1             28.8654197737      -17.0191336988      -69.1405702774  TIP3      10377           0.0000000000
     82646     11737  TIP3      H2             29.2220731013      -15.8861375109      -70.1372184983  TIP3      10377           0.0000000000
     82647     11738  TIP3      OH2            25.7175794851      -18.0878833761      -83.4807631110  TIP3      10378           0.0000000000
     82648     11738  TIP3      H1             25.4713976853      -18.0943214295      -82.5473980316  TIP3      10378           0.0000000000
     82649     11738  TIP3      H2             25.5099847099      -18.9842362365      -83.7482404329  TIP3      10378           0.0000000000
     82650     11739  TIP3      OH2            27.0863730022      -14.7242420968      -79.2739888421  TIP3      10379           0.0000000000
     82651     11739  TIP3      H1             26.6419553948      -13.9287916994      -79.6369832199  TIP3      10379           0.0000000000
     82652     11739  TIP3      H2             27.7523586699      -14.8924378473      -79.9637815928  TIP3      10379           0.0000000000
     82653     11740  TIP3      OH2            26.1179910741      -14.5297375953      -67.8376933747  TIP3      10380           0.0000000000
     82654     11740  TIP3      H1             25.5948234065      -15.3011506480      -67.5349631180  TIP3      10380           0.0000000000
     82655     11740  TIP3      H2             26.9601668232      -14.6523215518      -67.3752195478  TIP3      10380           0.0000000000
     82656     11741  TIP3      OH2            28.1051632057      -15.2407752560      -76.4416737953  TIP3      10381           0.0000000000
     82657     11741  TIP3      H1             27.8145575333      -14.6981198422      -77.1902769972  TIP3      10381           0.0000000000
     82658     11741  TIP3      H2             28.1955355763      -16.0941295811      -76.9104548202  TIP3      10381           0.0000000000
     82659     11742  TIP3      OH2            27.3528497017      -13.6612113199      -71.8494738073  TIP3      10382           0.0000000000
     82660     11742  TIP3      H1             27.6430017675      -14.3460241937      -72.4739341559  TIP3      10382           0.0000000000
     82661     11742  TIP3      H2             26.8407498318      -14.1788124265      -71.2104474823  TIP3      10382           0.0000000000
     82662     11743  TIP3      OH2            28.5124136961      -18.4320315180      -73.8301785036  TIP3      10383           0.0000000000
     82663     11743  TIP3      H1             27.8376843357      -18.3910902351      -73.1127257671  TIP3      10383           0.0000000000
     82664     11743  TIP3      H2             27.9576251592      -18.6882936823      -74.5836254466  TIP3      10383           0.0000000000
     82665     11744  TIP3      OH2            31.7171854068       -2.8084164656      -67.4330478756  TIP3      10384           0.0000000000
     82666     11744  TIP3      H1             31.9689144172       -2.4270950269      -68.2944419664  TIP3      10384           0.0000000000
     82667     11744  TIP3      H2             32.4433152699       -2.4852258775      -66.8731332551  TIP3      10384           0.0000000000
     82668     11745  TIP3      OH2            19.3673353598      -10.2617409783      -67.9312045022  TIP3      10385           0.0000000000
     82669     11745  TIP3      H1             20.0981542075      -10.1124569242      -67.3114692157  TIP3      10385           0.0000000000
     82670     11745  TIP3      H2             18.5944161716      -10.2474231510      -67.3366293716  TIP3      10385           0.0000000000
     82671     11746  TIP3      OH2            28.4338709446      -17.5705998725      -82.8077795646  TIP3      10386           0.0000000000
     82672     11746  TIP3      H1             27.5010009396      -17.4301070968      -83.0397731723  TIP3      10386           0.0000000000
     82673     11746  TIP3      H2             28.7294529088      -16.6743782091      -82.5583951915  TIP3      10386           0.0000000000
     82674     11747  TIP3      OH2            26.1629115492      -10.1093140898      -69.7705508502  TIP3      10387           0.0000000000
     82675     11747  TIP3      H1             25.7580278337      -10.5170206532      -69.0023700283  TIP3      10387           0.0000000000
     82676     11747  TIP3      H2             25.8552686317       -9.1933814637      -69.7188935856  TIP3      10387           0.0000000000
     82677     11748  TIP3      OH2            29.1656453245      -15.6375902299      -81.1928723263  TIP3      10388           0.0000000000
     82678     11748  TIP3      H1             30.0587696726      -15.7553545909      -80.8219209857  TIP3      10388           0.0000000000
     82679     11748  TIP3      H2             29.2441369854      -14.8214045999      -81.7144248888  TIP3      10388           0.0000000000
     82680     11749  TIP3      OH2            28.4135474474       -7.6895473548      -69.8483374370  TIP3      10389           0.0000000000
     82681     11749  TIP3      H1             27.4914888845       -7.5336748132      -70.1153227309  TIP3      10389           0.0000000000
     82682     11749  TIP3      H2             28.3547616181       -7.3720206739      -68.9242623371  TIP3      10389           0.0000000000
     82683     11750  TIP3      OH2            34.0632379436       -9.6091732799      -68.6566772365  TIP3      10390           0.0000000000
     82684     11750  TIP3      H1             33.1782603945       -9.4368270026      -69.0103391036  TIP3      10390           0.0000000000
     82685     11750  TIP3      H2             34.5933031258       -9.6949406562      -69.4507611701  TIP3      10390           0.0000000000
     82686     11751  TIP3      OH2            32.3509439544       -6.6184526984      -81.0505917912  TIP3      10391           0.0000000000
     82687     11751  TIP3      H1             31.9822705717       -7.4431403020      -80.7115125385  TIP3      10391           0.0000000000
     82688     11751  TIP3      H2             32.6422070721       -6.8637080761      -81.9519855901  TIP3      10391           0.0000000000
     82689     11752  TIP3      OH2            29.5338995470      -11.8679070126      -74.0066710423  TIP3      10392           0.0000000000
     82690     11752  TIP3      H1             28.5888753944      -12.0886047737      -74.0563232967  TIP3      10392           0.0000000000
     82691     11752  TIP3      H2             29.9718443009      -12.6419949433      -74.3888487973  TIP3      10392           0.0000000000
     82692     11753  TIP3      OH2            27.4857575486       -9.6875505861      -72.3392453494  TIP3      10393           0.0000000000
     82693     11753  TIP3      H1             27.1573680337       -9.8368475625      -71.4338206127  TIP3      10393           0.0000000000
     82694     11753  TIP3      H2             28.1450647119      -10.3841572468      -72.4659390756  TIP3      10393           0.0000000000
     82695     11754  TIP3      OH2            29.7406042503       -8.6731484326      -83.1708486417  TIP3      10394           0.0000000000
     82696     11754  TIP3      H1             30.1048661834       -9.0882333717      -82.3709732379  TIP3      10394           0.0000000000
     82697     11754  TIP3      H2             28.7969855942       -8.8068524446      -83.1218362355  TIP3      10394           0.0000000000
     82698     11755  TIP3      OH2            30.3135005197       -5.0773367254      -69.8270516806  TIP3      10395           0.0000000000
     82699     11755  TIP3      H1             29.6146856500       -5.5865732889      -70.2735519735  TIP3      10395           0.0000000000
     82700     11755  TIP3      H2             30.4561740872       -4.3632262782      -70.4822042679  TIP3      10395           0.0000000000
     82701     11756  TIP3      OH2            34.2896386275       -4.2384304470      -82.9493465179  TIP3      10396           0.0000000000
     82702     11756  TIP3      H1             35.0034180444       -3.6142177857      -83.1848168551  TIP3      10396           0.0000000000
     82703     11756  TIP3      H2             33.5737095037       -3.6335071229      -82.7122590466  TIP3      10396           0.0000000000
     82704     11757  TIP3      OH2            18.3671604627      -17.8297549036      -70.4309514441  TIP3      10397           0.0000000000
     82705     11757  TIP3      H1             17.4661859854      -17.4829807887      -70.4566959454  TIP3      10397           0.0000000000
     82706     11757  TIP3      H2             18.2470381387      -18.6769012769      -69.9850056258  TIP3      10397           0.0000000000
     82707     11758  TIP3      OH2            30.6056980497       -9.9755836780      -80.9232861793  TIP3      10398           0.0000000000
     82708     11758  TIP3      H1             30.3726683110      -10.7991078347      -80.4524531953  TIP3      10398           0.0000000000
     82709     11758  TIP3      H2             31.5577560076       -9.9371141159      -80.7879482229  TIP3      10398           0.0000000000
     82710     11759  TIP3      OH2            17.9569827355       -6.0738165732      -71.9966440610  TIP3      10399           0.0000000000
     82711     11759  TIP3      H1             18.2630454169       -6.9890961877      -71.9768503472  TIP3      10399           0.0000000000
     82712     11759  TIP3      H2             18.2573516354       -5.7456081724      -71.1424701197  TIP3      10399           0.0000000000
     82713     11760  TIP3      OH2            22.7056266024       -8.0392509615      -82.2597318781  TIP3      10400           0.0000000000
     82714     11760  TIP3      H1             22.9854976713       -8.5538057020      -81.4974346296  TIP3      10400           0.0000000000
     82715     11760  TIP3      H2             22.8400294841       -7.1286063251      -81.9696581450  TIP3      10400           0.0000000000
     82716     11761  TIP3      OH2            19.2306689882      -10.6829613802      -81.8846871438  TIP3      10401           0.0000000000
     82717     11761  TIP3      H1             18.5603093128      -10.3777247521      -81.2413609258  TIP3      10401           0.0000000000
     82718     11761  TIP3      H2             19.7529165305       -9.8999171554      -82.0394394329  TIP3      10401           0.0000000000
     82719     11762  TIP3      OH2            27.0825661022      -18.0509670621      -71.4554516179  TIP3      10402           0.0000000000
     82720     11762  TIP3      H1             27.7967338998      -18.0067683249      -70.8155380921  TIP3      10402           0.0000000000
     82721     11762  TIP3      H2             26.6912488520      -18.9310610541      -71.2966288083  TIP3      10402           0.0000000000
     82722     11763  TIP3      OH2            27.8099634847      -18.4901625436      -80.3806137986  TIP3      10403           0.0000000000
     82723     11763  TIP3      H1             28.0573040812      -18.0299761058      -81.2133292419  TIP3      10403           0.0000000000
     82724     11763  TIP3      H2             28.3806424961      -18.0518624185      -79.7386855014  TIP3      10403           0.0000000000
     82725     11764  TIP3      OH2            25.1042732624      -16.7329285609      -79.5938522908  TIP3      10404           0.0000000000
     82726     11764  TIP3      H1             25.8557180920      -16.1271600404      -79.5396940454  TIP3      10404           0.0000000000
     82727     11764  TIP3      H2             24.7938446624      -16.8515780886      -78.6964470310  TIP3      10404           0.0000000000
     82728     11765  TIP3      OH2            25.6273784650      -15.7060637087      -70.3501283439  TIP3      10405           0.0000000000
     82729     11765  TIP3      H1             25.7291180172      -15.1536855939      -69.5605824879  TIP3      10405           0.0000000000
     82730     11765  TIP3      H2             26.2962680169      -16.4001710387      -70.2960467961  TIP3      10405           0.0000000000
     82731     11766  TIP3      OH2            25.9782357948      -19.6842577259      -78.6375732963  TIP3      10406           0.0000000000
     82732     11766  TIP3      H1             25.6027981649      -19.0278631435      -78.0430139703  TIP3      10406           0.0000000000
     82733     11766  TIP3      H2             26.6078248529      -19.1271839778      -79.1462795896  TIP3      10406           0.0000000000
     82734     11767  TIP3      OH2            31.8156595898      -17.8356275837      -69.5551477464  TIP3      10407           0.0000000000
     82735     11767  TIP3      H1             30.8802482460      -17.5365936546      -69.6498991710  TIP3      10407           0.0000000000
     82736     11767  TIP3      H2             32.1174398027      -17.8399417062      -70.4639681198  TIP3      10407           0.0000000000
     82737     11768  TIP3      OH2            30.4177677814      -14.0822949370      -75.4851828028  TIP3      10408           0.0000000000
     82738     11768  TIP3      H1             29.5806661779      -14.4875593228      -75.7983081629  TIP3      10408           0.0000000000
     82739     11768  TIP3      H2             30.8135462951      -14.7833805109      -74.9702095861  TIP3      10408           0.0000000000
     82740     11769  TIP3      OH2            19.8239626920       -8.0999850342      -82.9240139201  TIP3      10409           0.0000000000
     82741     11769  TIP3      H1             20.4774311259       -7.4761361571      -82.6025425362  TIP3      10409           0.0000000000
     82742     11769  TIP3      H2             20.3230217190       -8.5724654404      -83.6042368532  TIP3      10409           0.0000000000
     82743     11770  TIP3      OH2            31.4588344772       -4.7651652585      -73.8181466945  TIP3      10410           0.0000000000
     82744     11770  TIP3      H1             31.3722627936       -4.1231186525      -74.5494191905  TIP3      10410           0.0000000000
     82745     11770  TIP3      H2             32.4327089671       -4.7464746143      -73.6734435421  TIP3      10410           0.0000000000
     82746     11771  TIP3      OH2            18.9935438839      -20.6969135498      -75.0554085177  TIP3      10411           0.0000000000
     82747     11771  TIP3      H1             18.7744163701      -20.6379640879      -75.9968256175  TIP3      10411           0.0000000000
     82748     11771  TIP3      H2             18.5447772512      -21.5230214544      -74.7906714038  TIP3      10411           0.0000000000
     82749     11772  TIP3      OH2            17.9381145494       -6.7704651593      -78.9015555719  TIP3      10412           0.0000000000
     82750     11772  TIP3      H1             17.0993799035       -6.3045236616      -78.9714553957  TIP3      10412           0.0000000000
     82751     11772  TIP3      H2             18.4312921038       -6.3005420638      -79.5874993169  TIP3      10412           0.0000000000
     82752     11773  TIP3      OH2            17.0565434223       -4.1476105596      -67.5981809710  TIP3      10413           0.0000000000
     82753     11773  TIP3      H1             17.7345264405       -4.2793725689      -66.8839021058  TIP3      10413           0.0000000000
     82754     11773  TIP3      H2             16.8239586783       -5.0689631296      -67.7631537896  TIP3      10413           0.0000000000
     82755     11774  TIP3      OH2            21.8093764801       -5.1834544618      -66.0042155353  TIP3      10414           0.0000000000
     82756     11774  TIP3      H1             22.5776451398       -5.6756091305      -65.6879382124  TIP3      10414           0.0000000000
     82757     11774  TIP3      H2             21.7750679057       -5.4696300503      -66.9392342559  TIP3      10414           0.0000000000
     82758     11775  TIP3      OH2            28.3266114562       -6.8296900464      -67.2893863628  TIP3      10415           0.0000000000
     82759     11775  TIP3      H1             27.9886527415       -7.6992134188      -66.9894754676  TIP3      10415           0.0000000000
     82760     11775  TIP3      H2             29.0769642164       -6.6778039388      -66.6814744085  TIP3      10415           0.0000000000
     82761     11776  TIP3      OH2            17.0275859603      -10.3525327086      -66.6100236600  TIP3      10416           0.0000000000
     82762     11776  TIP3      H1             17.2310219911      -11.2493094247      -66.9590278540  TIP3      10416           0.0000000000
     82763     11776  TIP3      H2             16.3070183366      -10.0695939232      -67.1997510363  TIP3      10416           0.0000000000
     82764     11777  TIP3      OH2            23.7277937273      -10.3716793228      -67.2245284578  TIP3      10417           0.0000000000
     82765     11777  TIP3      H1             23.4201863821      -10.0384711697      -68.0885171547  TIP3      10417           0.0000000000
     82766     11777  TIP3      H2             23.8942414743      -11.3137143435      -67.3550870730  TIP3      10417           0.0000000000
     82767     11778  TIP3      OH2            29.4879858171      -10.4770536973      -69.8513908547  TIP3      10418           0.0000000000
     82768     11778  TIP3      H1             30.1965552112       -9.8350101095      -69.9215700653  TIP3      10418           0.0000000000
     82769     11778  TIP3      H2             28.7343128076       -9.8561783036      -69.8316488944  TIP3      10418           0.0000000000
     82770     11779  TIP3      OH2            17.9956422539      -13.0880568162      -67.1932411669  TIP3      10419           0.0000000000
     82771     11779  TIP3      H1             18.3539839585      -13.9729643387      -67.3638968055  TIP3      10419           0.0000000000
     82772     11779  TIP3      H2             17.7216439700      -13.1242070185      -66.2648351823  TIP3      10419           0.0000000000
     82773     11780  TIP3      OH2            26.9495930947      -11.5936658007      -66.4991740979  TIP3      10420           0.0000000000
     82774     11780  TIP3      H1             27.8988099326      -11.6231965318      -66.6415161201  TIP3      10420           0.0000000000
     82775     11780  TIP3      H2             26.7773406918      -12.3724655456      -65.9532028941  TIP3      10420           0.0000000000
     82776     11781  TIP3      OH2            22.3532563722      -16.7742973298      -68.7960683935  TIP3      10421           0.0000000000
     82777     11781  TIP3      H1             22.3585993642      -17.4927152424      -69.4287280953  TIP3      10421           0.0000000000
     82778     11781  TIP3      H2             22.1890227388      -15.9992440292      -69.3479126406  TIP3      10421           0.0000000000
     82779     11782  TIP3      OH2            28.6079708235      -15.1413064673      -66.0909898679  TIP3      10422           0.0000000000
     82780     11782  TIP3      H1             28.8310220299      -16.0848330100      -66.1435345859  TIP3      10422           0.0000000000
     82781     11782  TIP3      H2             29.4861531385      -14.7294108187      -66.0659851511  TIP3      10422           0.0000000000
     82782     11783  TIP3      OH2            29.9806072865      -12.3587086314      -67.9145649244  TIP3      10423           0.0000000000
     82783     11783  TIP3      H1             29.6841223757      -11.6457672967      -68.5253620318  TIP3      10423           0.0000000000
     82784     11783  TIP3      H2             30.9227354097      -12.4555667636      -68.0907019600  TIP3      10423           0.0000000000
     82785     11784  TIP3      OH2            23.4234390602      -20.9407532544      -70.8456723630  TIP3      10424           0.0000000000
     82786     11784  TIP3      H1             23.3100663659      -19.9954952101      -71.0304404269  TIP3      10424           0.0000000000
     82787     11784  TIP3      H2             22.7066784804      -21.3311414285      -71.3878623847  TIP3      10424           0.0000000000
     82788     11785  TIP3      OH2            24.7307073836      -16.6635268570      -67.2613676510  TIP3      10425           0.0000000000
     82789     11785  TIP3      H1             24.4168204540      -16.8320703649      -66.3581184756  TIP3      10425           0.0000000000
     82790     11785  TIP3      H2             23.9278546155      -16.7985383217      -67.8043520651  TIP3      10425           0.0000000000
     82791     11786  TIP3      OH2            27.4301462738      -17.5337227778      -68.2139322589  TIP3      10426           0.0000000000
     82792     11786  TIP3      H1             26.4819423344      -17.4483672143      -68.0393556990  TIP3      10426           0.0000000000
     82793     11786  TIP3      H2             27.7168389830      -18.1240578096      -67.4953757592  TIP3      10426           0.0000000000
     82794     11787  TIP3      OH2            29.0038877821      -18.8715514708      -66.2636300970  TIP3      10427           0.0000000000
     82795     11787  TIP3      H1             28.9858379386      -19.8472366151      -66.2329723206  TIP3      10427           0.0000000000
     82796     11787  TIP3      H2             28.7739275021      -18.5883097784      -65.3486184757  TIP3      10427           0.0000000000
     82797     11788  TIP3      OH2            18.8052620302      -17.5954330967      -67.1677704479  TIP3      10428           0.0000000000
     82798     11788  TIP3      H1             19.0569040162      -18.3190269608      -67.7607412930  TIP3      10428           0.0000000000
     82799     11788  TIP3      H2             18.7342279648      -18.0263154730      -66.2957103786  TIP3      10428           0.0000000000
     82800     11789  TIP3      OH2            23.6609885326      -21.6182671778      -68.2016624473  TIP3      10429           0.0000000000
     82801     11789  TIP3      H1             24.3970514726      -22.2671533419      -68.2841464125  TIP3      10429           0.0000000000
     82802     11789  TIP3      H2             23.5761927067      -21.4019718452      -69.1606254959  TIP3      10429           0.0000000000
     82803     11790  TIP3      OH2            23.9029043881      -20.0448918566      -66.0826324171  TIP3      10430           0.0000000000
     82804     11790  TIP3      H1             23.9384949913      -20.3568369474      -67.0138602392  TIP3      10430           0.0000000000
     82805     11790  TIP3      H2             23.4767716375      -19.1569112814      -66.1829687736  TIP3      10430           0.0000000000
     82806     11791  TIP3      OH2            17.0970070616       -8.4268564869      -83.4710979668  TIP3      10431           0.0000000000
     82807     11791  TIP3      H1             18.0430530310       -8.3753265389      -83.2290951546  TIP3      10431           0.0000000000
     82808     11791  TIP3      H2             17.1123992482       -9.1053765731      -84.1576375740  TIP3      10431           0.0000000000
     82809     11792  TIP3      OH2            15.7895165606       -3.0853934127      -78.4706534932  TIP3      10432           0.0000000000
     82810     11792  TIP3      H1             15.0970810155       -3.5603050291      -78.9207519377  TIP3      10432           0.0000000000
     82811     11792  TIP3      H2             16.1132758206       -3.7160960057      -77.7984601034  TIP3      10432           0.0000000000
     82812     11793  TIP3      OH2            16.6577326116       -4.9459333757      -76.6124331720  TIP3      10433           0.0000000000
     82813     11793  TIP3      H1             16.3413149397       -5.8319348739      -76.4141192445  TIP3      10433           0.0000000000
     82814     11793  TIP3      H2             16.9096639551       -4.6055408526      -75.7295426220  TIP3      10433           0.0000000000
     82815     11794  TIP3      OH2            34.1092624411       -4.0904484745      -73.6484257755  TIP3      10434           0.0000000000
     82816     11794  TIP3      H1             34.2175346867       -4.0247102365      -72.6834836689  TIP3      10434           0.0000000000
     82817     11794  TIP3      H2             34.8973996690       -3.6336259085      -73.9604160667  TIP3      10434           0.0000000000
     82818     11795  TIP3      OH2            33.7440981859       -4.5777010854      -70.7049468012  TIP3      10435           0.0000000000
     82819     11795  TIP3      H1             33.2936813198       -5.3529511053      -71.0900976518  TIP3      10435           0.0000000000
     82820     11795  TIP3      H2             34.2651945490       -4.9935279649      -70.0037083955  TIP3      10435           0.0000000000
     82821     11796  TIP3      OH2            32.2159430225       -8.8528329882      -66.0607421546  TIP3      10436           0.0000000000
     82822     11796  TIP3      H1             31.3318993878       -8.8790828863      -65.6481111665  TIP3      10436           0.0000000000
     82823     11796  TIP3      H2             32.5931844491       -8.0633911019      -65.6100067458  TIP3      10436           0.0000000000
     82824     11797  TIP3      OH2            32.2003502900       -6.8324098708      -71.4562911990  TIP3      10437           0.0000000000
     82825     11797  TIP3      H1             31.5112825591       -6.5049475624      -70.8604519775  TIP3      10437           0.0000000000
     82826     11797  TIP3      H2             31.6595809117       -7.2760289400      -72.1416738854  TIP3      10437           0.0000000000
     82827     11798  TIP3      OH2            31.5860898703      -13.9156369643      -78.1857628778  TIP3      10438           0.0000000000
     82828     11798  TIP3      H1             31.5646546394      -14.8823536047      -78.1752544203  TIP3      10438           0.0000000000
     82829     11798  TIP3      H2             31.3596778021      -13.6825486313      -77.2714229858  TIP3      10438           0.0000000000
     82830     11799  TIP3      OH2            31.3538325893      -16.3963967820      -79.7277659943  TIP3      10439           0.0000000000
     82831     11799  TIP3      H1             31.6736484778      -17.2868312248      -79.5277759333  TIP3      10439           0.0000000000
     82832     11799  TIP3      H2             32.1417967605      -15.9453210185      -80.0634616801  TIP3      10439           0.0000000000
     82833     11800  TIP3      OH2            16.3313267222      -16.5731365428      -67.9218615011  TIP3      10440           0.0000000000
     82834     11800  TIP3      H1             17.2810788112      -16.7627426457      -67.7563931871  TIP3      10440           0.0000000000
     82835     11800  TIP3      H2             15.9004644125      -17.4097232503      -67.6492797143  TIP3      10440           0.0000000000
     82836     11801  TIP3      OH2            34.4049559708      -21.0761962994      -66.1111884595  TIP3      10441           0.0000000000
     82837     11801  TIP3      H1             34.6801413239      -21.7296502664      -66.7596145103  TIP3      10441           0.0000000000
     82838     11801  TIP3      H2             34.4359292158      -20.2437123331      -66.6326835952  TIP3      10441           0.0000000000
     82839     11802  TIP3      OH2            17.4910006076      -18.2979268416      -75.0468092340  TIP3      10442           0.0000000000
     82840     11802  TIP3      H1             17.9892243735      -19.1245348515      -74.8690906777  TIP3      10442           0.0000000000
     82841     11802  TIP3      H2             18.0804515556      -17.6266922318      -74.7295169670  TIP3      10442           0.0000000000
     82842     11803  TIP3      OH2            15.8366591624      -15.2846874636      -74.0983454790  TIP3      10443           0.0000000000
     82843     11803  TIP3      H1             16.3698116032      -15.5789963529      -74.8462857414  TIP3      10443           0.0000000000
     82844     11803  TIP3      H2             16.2366981657      -14.4684500406      -73.7838480185  TIP3      10443           0.0000000000
     82845     11804  TIP3      OH2            33.8618583959      -19.0039699911      -67.7459489926  TIP3      10444           0.0000000000
     82846     11804  TIP3      H1             32.9466860904      -18.6585391390      -67.8140070184  TIP3      10444           0.0000000000
     82847     11804  TIP3      H2             33.9238733525      -19.4927853703      -68.5763907193  TIP3      10444           0.0000000000
     82848     11805  TIP3      OH2            16.1711292262      -19.0701762288      -80.0738215675  TIP3      10445           0.0000000000
     82849     11805  TIP3      H1             15.2290381115      -18.8336796977      -80.1020177269  TIP3      10445           0.0000000000
     82850     11805  TIP3      H2             16.5813801484      -18.4920993077      -80.7057398237  TIP3      10445           0.0000000000
     82851     11806  TIP3      OH2            30.9556260591       -4.0461904397      -78.0265753411  TIP3      10446           0.0000000000
     82852     11806  TIP3      H1             31.6209868878       -4.4138667421      -78.6324481787  TIP3      10446           0.0000000000
     82853     11806  TIP3      H2             31.4615880203       -3.5657646630      -77.3657930504  TIP3      10446           0.0000000000
     82854     11807  TIP3      OH2            16.1262538918      -20.3802856066      -71.6874538603  TIP3      10447           0.0000000000
     82855     11807  TIP3      H1             15.4641454984      -20.5523170290      -70.9943796792  TIP3      10447           0.0000000000
     82856     11807  TIP3      H2             15.6819664582      -19.7016213367      -72.2293684730  TIP3      10447           0.0000000000
     82857     11808  TIP3      OH2            18.3689257391       -7.1427857284      -67.5106248972  TIP3      10448           0.0000000000
     82858     11808  TIP3      H1             17.5254492623       -6.9941291834      -67.9448624546  TIP3      10448           0.0000000000
     82859     11808  TIP3      H2             18.1225784649       -7.2498110538      -66.5803546965  TIP3      10448           0.0000000000
     82860     11809  TIP3      OH2            21.2567156918       -6.1711856643      -71.2455285474  TIP3      10449           0.0000000000
     82861     11809  TIP3      H1             20.9356504608       -5.2871401365      -71.5023727215  TIP3      10449           0.0000000000
     82862     11809  TIP3      H2             22.1743357259       -6.0985324033      -71.5542847439  TIP3      10449           0.0000000000
     82863     11810  TIP3      OH2            25.5978875614       -4.7781218768      -68.3251349735  TIP3      10450           0.0000000000
     82864     11810  TIP3      H1             25.7494875487       -5.0916222854      -67.4037823819  TIP3      10450           0.0000000000
     82865     11810  TIP3      H2             26.4704648631       -4.4314658519      -68.5691849506  TIP3      10450           0.0000000000
     82866     11811  TIP3      OH2            32.8474231186      -20.8792658541      -69.8953647232  TIP3      10451           0.0000000000
     82867     11811  TIP3      H1             32.0601962660      -20.5370849860      -70.3400953308  TIP3      10451           0.0000000000
     82868     11811  TIP3      H2             33.0888007522      -21.6600776557      -70.4438115968  TIP3      10451           0.0000000000
     82869     11812  TIP3      OH2            18.7018202893       -2.9334249644      -71.2239677540  TIP3      10452           0.0000000000
     82870     11812  TIP3      H1             17.9760710536       -2.4498969538      -71.6590413887  TIP3      10452           0.0000000000
     82871     11812  TIP3      H2             18.3623555222       -3.1212394975      -70.3456654707  TIP3      10452           0.0000000000
     82872     11813  TIP3      OH2            21.1532297252       -3.4071309915      -72.1678746889  TIP3      10453           0.0000000000
     82873     11813  TIP3      H1             20.2766287998       -3.2104779241      -71.7614809681  TIP3      10453           0.0000000000
     82874     11813  TIP3      H2             21.1238229435       -2.7743383528      -72.9190060841  TIP3      10453           0.0000000000
     82875     11814  TIP3      OH2            30.7608101491       -3.0259675282      -71.7453602799  TIP3      10454           0.0000000000
     82876     11814  TIP3      H1             30.6647404014       -2.0829348050      -71.9947177078  TIP3      10454           0.0000000000
     82877     11814  TIP3      H2             30.9513246675       -3.4320644637      -72.6157443113  TIP3      10454           0.0000000000
     82878     11815  TIP3      OH2            18.0635867303       -4.3258553716      -74.3207592879  TIP3      10455           0.0000000000
     82879     11815  TIP3      H1             18.0885231921       -4.6908763129      -73.4186513467  TIP3      10455           0.0000000000
     82880     11815  TIP3      H2             18.9222475975       -4.6151490965      -74.6990701419  TIP3      10455           0.0000000000
     82881     11816  TIP3      OH2            20.2034583226       -5.5444873368      -75.5884952031  TIP3      10456           0.0000000000
     82882     11816  TIP3      H1             20.0766345972       -6.4884844429      -75.4529292552  TIP3      10456           0.0000000000
     82883     11816  TIP3      H2             21.0871086437       -5.4358292797      -75.2084574359  TIP3      10456           0.0000000000
     82884     11817  TIP3      OH2            26.2988112052      -19.4348237016      -75.6141726349  TIP3      10457           0.0000000000
     82885     11817  TIP3      H1             25.6026499616      -20.0651669700      -75.3730532755  TIP3      10457           0.0000000000
     82886     11817  TIP3      H2             26.8578344628      -19.9473067463      -76.2158774783  TIP3      10457           0.0000000000
     82887     11818  TIP3      OH2            31.4292498449      -21.3441217142      -75.5654842196  TIP3      10458           0.0000000000
     82888     11818  TIP3      H1             32.0290426045      -20.7631261712      -76.0564150057  TIP3      10458           0.0000000000
     82889     11818  TIP3      H2             30.5328188214      -21.0361444641      -75.8070318412  TIP3      10458           0.0000000000
     82890     11819  TIP3      OH2            17.3903101178      -21.0434595821      -82.0829801450  TIP3      10459           0.0000000000
     82891     11819  TIP3      H1             17.9156801320      -20.3942038633      -82.5629674753  TIP3      10459           0.0000000000
     82892     11819  TIP3      H2             16.8306956064      -20.5104932084      -81.4927891787  TIP3      10459           0.0000000000
     82893     11820  TIP3      OH2            28.8008644058      -20.8672492100      -76.3584338342  TIP3      10460           0.0000000000
     82894     11820  TIP3      H1             28.7983458525      -20.7547699275      -77.3177687988  TIP3      10460           0.0000000000
     82895     11820  TIP3      H2             28.4609654796      -21.7683820544      -76.2585638461  TIP3      10460           0.0000000000
     82896     11821  TIP3      OH2            30.1170395209      -20.8218053335      -80.7062983240  TIP3      10461           0.0000000000
     82897     11821  TIP3      H1             29.3557255839      -20.2438088921      -80.8579725014  TIP3      10461           0.0000000000
     82898     11821  TIP3      H2             29.6908762018      -21.6560413534      -80.4842168041  TIP3      10461           0.0000000000
     82899     11822  TIP3      OH2            17.3467689576       -5.0925170489      -81.0539203064  TIP3      10462           0.0000000000
     82900     11822  TIP3      H1             16.6560005802       -5.1036221258      -81.7470767904  TIP3      10462           0.0000000000
     82901     11822  TIP3      H2             17.3602974459       -4.1370499390      -80.8902529293  TIP3      10462           0.0000000000
     82902     11823  TIP3      OH2            32.9292311719       -4.2606630721      -79.9922214343  TIP3      10463           0.0000000000
     82903     11823  TIP3      H1             32.7123101263       -5.0545000085      -80.5453940344  TIP3      10463           0.0000000000
     82904     11823  TIP3      H2             32.8531534973       -3.5517288338      -80.6263882458  TIP3      10463           0.0000000000
     82905     11824  TIP3      OH2            18.5541700396      -20.2854718596      -68.3312229075  TIP3      10464           0.0000000000
     82906     11824  TIP3      H1             18.1440544056      -21.0648834644      -67.9012779236  TIP3      10464           0.0000000000
     82907     11824  TIP3      H2             19.4557396105      -20.2865970745      -67.9618765795  TIP3      10464           0.0000000000
     82908     11825  TIP3      OH2            20.5642062548      -20.8698136308      -66.6237105550  TIP3      10465           0.0000000000
     82909     11825  TIP3      H1             21.3407832335      -21.2226491827      -67.0560848456  TIP3      10465           0.0000000000
     82910     11825  TIP3      H2             20.0985908790      -21.6718053323      -66.2892471960  TIP3      10465           0.0000000000
     82911     11826  TIP3      OH2            19.1758968504       -4.1213035301      -84.1064677039  TIP3      10466           0.0000000000
     82912     11826  TIP3      H1             18.8675482914       -3.8463962240      -83.2325894376  TIP3      10466           0.0000000000
     82913     11826  TIP3      H2             19.9311709729       -4.6782203283      -83.9452374797  TIP3      10466           0.0000000000
     82914     11827  TIP3      OH2            28.9634180125      -21.6112722608      -66.5824007661  TIP3      10467           0.0000000000
     82915     11827  TIP3      H1             29.0513625759      -22.0660869608      -65.7216488884  TIP3      10467           0.0000000000
     82916     11827  TIP3      H2             29.8931449879      -21.6166697938      -66.8839445988  TIP3      10467           0.0000000000
     82917     11828  TIP3      OH2            32.1539755428       -5.5479853149      -67.8793536691  TIP3      10468           0.0000000000
     82918     11828  TIP3      H1             31.3601302814       -5.6833572696      -68.4367672990  TIP3      10468           0.0000000000
     82919     11828  TIP3      H2             32.0540463027       -4.5906009503      -67.6880137147  TIP3      10468           0.0000000000
     82920     11829  TIP3      OH2            37.8124110209      -12.7390576296      -72.8134241046  TIP3      10469           0.0000000000
     82921     11829  TIP3      H1             37.9272594552      -13.4490512031      -72.1589418308  TIP3      10469           0.0000000000
     82922     11829  TIP3      H2             38.5497504365      -12.1450138362      -72.6723787859  TIP3      10469           0.0000000000
     82923     11830  TIP3      OH2            38.7355134812       -8.3352862452      -74.2732868466  TIP3      10470           0.0000000000
     82924     11830  TIP3      H1             38.3915999457       -9.1657231063      -74.6621854827  TIP3      10470           0.0000000000
     82925     11830  TIP3      H2             39.6946597734       -8.5006505491      -74.3149897372  TIP3      10470           0.0000000000
     82926     11831  TIP3      OH2            39.8642157004      -17.8355231302      -76.5672277674  TIP3      10471           0.0000000000
     82927     11831  TIP3      H1             40.1164109228      -16.9234391782      -76.7774277430  TIP3      10471           0.0000000000
     82928     11831  TIP3      H2             39.5541444468      -18.2127184983      -77.3707585907  TIP3      10471           0.0000000000
     82929     11832  TIP3      OH2            39.7538161794       -8.8313808295      -71.5018375445  TIP3      10472           0.0000000000
     82930     11832  TIP3      H1             39.8526826671       -7.8779437420      -71.5993506225  TIP3      10472           0.0000000000
     82931     11832  TIP3      H2             39.0230883336       -8.8900493779      -70.8449385801  TIP3      10472           0.0000000000
     82932     11833  TIP3      OH2            40.2392423442      -11.5645646499      -77.4430267508  TIP3      10473           0.0000000000
     82933     11833  TIP3      H1             39.9711111212      -11.8538995117      -78.3511257220  TIP3      10473           0.0000000000
     82934     11833  TIP3      H2             40.8752457641      -12.2495714899      -77.2351020850  TIP3      10473           0.0000000000
     82935     11834  TIP3      OH2            39.8348873398       -6.2949569806      -68.4369380567  TIP3      10474           0.0000000000
     82936     11834  TIP3      H1             39.7912270258       -6.4852021030      -69.3869183523  TIP3      10474           0.0000000000
     82937     11834  TIP3      H2             38.9125194632       -6.4944797803      -68.1652424994  TIP3      10474           0.0000000000
     82938     11835  TIP3      OH2            38.9713233500      -12.3988639385      -79.8370865474  TIP3      10475           0.0000000000
     82939     11835  TIP3      H1             38.9598904321      -11.7182558774      -80.5335442651  TIP3      10475           0.0000000000
     82940     11835  TIP3      H2             38.6341898035      -13.1813452370      -80.2771289469  TIP3      10475           0.0000000000
     82941     11836  TIP3      OH2            37.5968042600       -8.7195418323      -70.0807648744  TIP3      10476           0.0000000000
     82942     11836  TIP3      H1             37.8831458259       -9.1804412155      -69.2599146227  TIP3      10476           0.0000000000
     82943     11836  TIP3      H2             36.8105304963       -9.2000887761      -70.3350532971  TIP3      10476           0.0000000000
     82944     11837  TIP3      OH2            40.2526996200      -20.3414458087      -74.0816733442  TIP3      10477           0.0000000000
     82945     11837  TIP3      H1             39.3917937101      -20.4134246500      -74.5487084380  TIP3      10477           0.0000000000
     82946     11837  TIP3      H2             40.2575839244      -19.4258106715      -73.8007569078  TIP3      10477           0.0000000000
     82947     11838  TIP3      OH2            40.2100375061      -15.5614701315      -72.8698830276  TIP3      10478           0.0000000000
     82948     11838  TIP3      H1             39.5480301988      -15.4190830060      -72.1985828606  TIP3      10478           0.0000000000
     82949     11838  TIP3      H2             40.4005353258      -14.6615497971      -73.2165380189  TIP3      10478           0.0000000000
     82950     11839  TIP3      OH2            40.2066281741      -15.0231993169      -78.4699763577  TIP3      10479           0.0000000000
     82951     11839  TIP3      H1             39.4458829694      -15.5445118982      -78.2290054070  TIP3      10479           0.0000000000
     82952     11839  TIP3      H2             40.8483325449      -15.5947067114      -78.8938038784  TIP3      10479           0.0000000000
     82953     11840  TIP3      OH2            38.1408013718      -15.0720725670      -71.1374655699  TIP3      10480           0.0000000000
     82954     11840  TIP3      H1             38.0543270744      -14.7015469028      -70.2570575934  TIP3      10480           0.0000000000
     82955     11840  TIP3      H2             37.6256595203      -15.8882759333      -71.0737016904  TIP3      10480           0.0000000000
     82956     11841  TIP3      OH2            40.0843626381      -14.9213767489      -82.9555960354  TIP3      10481           0.0000000000
     82957     11841  TIP3      H1             39.5374925145      -15.2812406827      -83.6640345190  TIP3      10481           0.0000000000
     82958     11841  TIP3      H2             40.9111766644      -14.7167642165      -83.4196135491  TIP3      10481           0.0000000000
     82959     11842  TIP3      OH2            38.2806398614      -10.2920927975      -67.8800900528  TIP3      10482           0.0000000000
     82960     11842  TIP3      H1             38.9727395337      -10.0666806249      -67.2514916743  TIP3      10482           0.0000000000
     82961     11842  TIP3      H2             37.4872375318      -10.1879358244      -67.3160395048  TIP3      10482           0.0000000000
     82962     11843  TIP3      OH2            38.6397797853      -10.9827089443      -75.1865699793  TIP3      10483           0.0000000000
     82963     11843  TIP3      H1             39.2536135599      -11.0474772586      -75.9449092082  TIP3      10483           0.0000000000
     82964     11843  TIP3      H2             38.6047612273      -11.8730326257      -74.8089015752  TIP3      10483           0.0000000000
     82965     11844  TIP3      OH2            36.9354513988       -6.0178793886      -71.9985857753  TIP3      10484           0.0000000000
     82966     11844  TIP3      H1             37.0936442243       -6.9708426596      -72.0054733019  TIP3      10484           0.0000000000
     82967     11844  TIP3      H2             37.0519459318       -5.7883218444      -71.0745100838  TIP3      10484           0.0000000000
     82968     11845  TIP3      OH2           -41.0373200868      -18.5520231791      -81.9424789573  TIP3      10485           0.0000000000
     82969     11845  TIP3      H1            -41.0482072806      -17.6525928563      -81.6091220388  TIP3      10485           0.0000000000
     82970     11845  TIP3      H2            -40.1252870503      -18.8560240955      -81.7709963361  TIP3      10485           0.0000000000
     82971     11846  TIP3      OH2            37.7977565539      -20.6600461156      -75.0670172192  TIP3      10486           0.0000000000
     82972     11846  TIP3      H1             37.5990050904      -20.6181249911      -76.0242819731  TIP3      10486           0.0000000000
     82973     11846  TIP3      H2             37.4150962313      -21.5123456847      -74.7854633163  TIP3      10486           0.0000000000
     82974     11847  TIP3      OH2            36.7976086911       -6.7470035659      -78.9260997296  TIP3      10487           0.0000000000
     82975     11847  TIP3      H1             35.9485165342       -6.2879063130      -78.9151904716  TIP3      10487           0.0000000000
     82976     11847  TIP3      H2             37.2915526979       -6.2315644350      -79.5661464147  TIP3      10487           0.0000000000
     82977     11848  TIP3      OH2            36.0033669578       -4.1117245499      -67.6142514213  TIP3      10488           0.0000000000
     82978     11848  TIP3      H1             36.6144834003       -4.3152000483      -66.8801624747  TIP3      10488           0.0000000000
     82979     11848  TIP3      H2             35.5788600739       -4.9697492803      -67.7995935317  TIP3      10488           0.0000000000
     82980     11849  TIP3      OH2            35.9171129443      -10.3034554443      -66.5972734139  TIP3      10489           0.0000000000
     82981     11849  TIP3      H1             36.0589433528      -11.2267229484      -66.8678026067  TIP3      10489           0.0000000000
     82982     11849  TIP3      H2             35.1614412204      -10.0619683080      -67.1629742407  TIP3      10489           0.0000000000
     82983     11850  TIP3      OH2            40.2521697865      -10.0993663129      -84.6646592451  TIP3      10490           0.0000000000
     82984     11850  TIP3      H1             40.4226941073      -10.7706151213      -83.9927166541  TIP3      10490           0.0000000000
     82985     11850  TIP3      H2             40.9986596533      -10.1104120443      -85.2624395175  TIP3      10490           0.0000000000
     82986     11851  TIP3      OH2            39.4998950141      -15.4621841597      -66.8182246808  TIP3      10491           0.0000000000
     82987     11851  TIP3      H1             38.7583148199      -16.0734872928      -67.0316922874  TIP3      10491           0.0000000000
     82988     11851  TIP3      H2             40.1774404031      -15.8134079503      -67.4313860173  TIP3      10491           0.0000000000
     82989     11852  TIP3      OH2            37.8030354102      -17.6229633175      -67.1590826492  TIP3      10492           0.0000000000
     82990     11852  TIP3      H1             37.8779237492      -18.3732834061      -67.7666921248  TIP3      10492           0.0000000000
     82991     11852  TIP3      H2             37.6028960820      -18.0366399835      -66.2956187199  TIP3      10492           0.0000000000
     82992     11853  TIP3      OH2            34.6908529064       -3.0530125034      -78.4491218440  TIP3      10493           0.0000000000
     82993     11853  TIP3      H1             34.0106792928       -3.5761795187      -78.9242735106  TIP3      10493           0.0000000000
     82994     11853  TIP3      H2             35.0263986540       -3.7277886539      -77.8178062438  TIP3      10493           0.0000000000
     82995     11854  TIP3      OH2            35.4371171254       -4.9559233090      -76.6056198350  TIP3      10494           0.0000000000
     82996     11854  TIP3      H1             35.1880331060       -5.8629889781      -76.4222465959  TIP3      10494           0.0000000000
     82997     11854  TIP3      H2             35.7389646580       -4.6431418273      -75.7394583806  TIP3      10494           0.0000000000
     82998     11855  TIP3      OH2            35.2027607839      -16.5836462845      -67.9292129655  TIP3      10495           0.0000000000
     82999     11855  TIP3      H1             36.1322429496      -16.7726426620      -67.7442425911  TIP3      10495           0.0000000000
     83000     11855  TIP3      H2             34.7432360189      -17.4030646168      -67.6659846027  TIP3      10495           0.0000000000
     83001     11856  TIP3      OH2            35.0089893294      -20.3747143210      -71.6959080128  TIP3      10496           0.0000000000
     83002     11856  TIP3      H1             34.3682923117      -20.5442358183      -70.9846892795  TIP3      10496           0.0000000000
     83003     11856  TIP3      H2             34.5866473730      -19.6725220331      -72.2027837584  TIP3      10496           0.0000000000
     83004     11857  TIP3      OH2            37.1997865019       -7.1696557454      -67.4949545735  TIP3      10497           0.0000000000
     83005     11857  TIP3      H1             36.3676935094       -6.9724947484      -67.9540085558  TIP3      10497           0.0000000000
     83006     11857  TIP3      H2             36.9081431184       -7.2300588449      -66.5785643721  TIP3      10497           0.0000000000
     83007     11858  TIP3      OH2            40.1477107849       -6.2041413560      -71.0711079053  TIP3      10498           0.0000000000
     83008     11858  TIP3      H1             39.6496635114       -5.4065638671      -71.2811839825  TIP3      10498           0.0000000000
     83009     11858  TIP3      H2             41.0871394592       -6.1621525306      -71.3455228707  TIP3      10498           0.0000000000
     83010     11859  TIP3      OH2            37.5811323676       -2.9496351659      -71.2772681561  TIP3      10499           0.0000000000
     83011     11859  TIP3      H1             36.8218046149       -2.4684937424      -71.6454365167  TIP3      10499           0.0000000000
     83012     11859  TIP3      H2             37.2382439993       -3.1009599113      -70.3768082188  TIP3      10499           0.0000000000
     83013     11860  TIP3      OH2            36.9902702187       -4.2068972550      -74.2182971984  TIP3      10500           0.0000000000
     83014     11860  TIP3      H1             36.8839105829       -4.7901384506      -73.4408022939  TIP3      10500           0.0000000000
     83015     11860  TIP3      H2             37.7176621851       -4.6317953056      -74.7288969828  TIP3      10500           0.0000000000
     83016     11861  TIP3      OH2            39.0777610588       -5.5747712586      -75.4923625223  TIP3      10501           0.0000000000
     83017     11861  TIP3      H1             38.8692573790       -6.5309339210      -75.4549490617  TIP3      10501           0.0000000000
     83018     11861  TIP3      H2             39.9931482462       -5.4866254540      -75.2786391562  TIP3      10501           0.0000000000
     83019     11862  TIP3      OH2            37.4877760316      -20.7511198018      -77.7922064484  TIP3      10502           0.0000000000
     83020     11862  TIP3      H1             36.7094853158      -21.0114457995      -78.3104419720  TIP3      10502           0.0000000000
     83021     11862  TIP3      H2             37.9756643127      -21.6091642189      -77.8118677000  TIP3      10502           0.0000000000
     83022     11863  TIP3      OH2            36.2632743671      -21.0344593216      -82.0906221790  TIP3      10503           0.0000000000
     83023     11863  TIP3      H1             36.8012256765      -20.3984386939      -82.6022035380  TIP3      10503           0.0000000000
     83024     11863  TIP3      H2             35.7393077110      -20.4544944953      -81.5153914046  TIP3      10503           0.0000000000
     83025     11864  TIP3      OH2            36.2216187590       -5.0626795218      -81.0988377641  TIP3      10504           0.0000000000
     83026     11864  TIP3      H1             35.4997819123       -5.0833748777      -81.7408952420  TIP3      10504           0.0000000000
     83027     11864  TIP3      H2             36.2125026570       -4.1382271920      -80.8298759839  TIP3      10504           0.0000000000
     83028     11865  TIP3      OH2            38.0872490642      -19.1370834302      -83.5368534894  TIP3      10505           0.0000000000
     83029     11865  TIP3      H1             38.6385329731      -19.7043991709      -84.0750545902  TIP3      10505           0.0000000000
     83030     11865  TIP3      H2             38.7851844097      -18.7691260774      -82.9534777770  TIP3      10505           0.0000000000
     83031     11866  TIP3      OH2            37.4297744352      -20.2895518458      -68.3353523322  TIP3      10506           0.0000000000
     83032     11866  TIP3      H1             37.0122996774      -21.0515075088      -67.8962899338  TIP3      10506           0.0000000000
     83033     11866  TIP3      H2             38.3153176334      -20.2377970504      -67.9386038542  TIP3      10506           0.0000000000
     83034     11867  TIP3      OH2            39.4049276830      -20.7788506601      -66.6476013567  TIP3      10507           0.0000000000
     83035     11867  TIP3      H1             40.3228656216      -21.0426938293      -66.8560612659  TIP3      10507           0.0000000000
     83036     11867  TIP3      H2             39.0128801094      -21.4951252878      -66.1042724015  TIP3      10507           0.0000000000
     83037     11868  TIP3      OH2           -28.8374183219        7.1956363337      -77.8998442243  TIP3      10508           0.0000000000
     83038     11868  TIP3      H1            -28.8245157627        8.1730427594      -77.9661011641  TIP3      10508           0.0000000000
     83039     11868  TIP3      H2            -29.5145155041        6.9524891121      -78.5531861072  TIP3      10508           0.0000000000
     83040     11869  TIP3      OH2           -29.9204633802        6.4349746678      -74.4136167082  TIP3      10509           0.0000000000
     83041     11869  TIP3      H1            -30.0095750484        5.7894607787      -73.7105742910  TIP3      10509           0.0000000000
     83042     11869  TIP3      H2            -30.3051866778        5.9712567879      -75.1755674819  TIP3      10509           0.0000000000
     83043     11870  TIP3      OH2           -37.5645655369        6.0774283510      -72.9346730411  TIP3      10510           0.0000000000
     83044     11870  TIP3      H1            -37.5487214125        5.4538349724      -72.1810597597  TIP3      10510           0.0000000000
     83045     11870  TIP3      H2            -36.9313126250        6.7341154785      -72.6228784428  TIP3      10510           0.0000000000
     83046     11871  TIP3      OH2           -26.2418614187        9.3823322839      -76.1386776856  TIP3      10511           0.0000000000
     83047     11871  TIP3      H1            -26.6899379971        8.6720041058      -75.6742366342  TIP3      10511           0.0000000000
     83048     11871  TIP3      H2            -26.2907680641       10.1209092000      -75.5240103228  TIP3      10511           0.0000000000
     83049     11872  TIP3      OH2           -39.9468828837        4.2502493259      -78.6956753022  TIP3      10512           0.0000000000
     83050     11872  TIP3      H1            -40.4380080935        5.0421971361      -78.9039882276  TIP3      10512           0.0000000000
     83051     11872  TIP3      H2            -40.3477141942        3.6504202030      -79.3153282850  TIP3      10512           0.0000000000
     83052     11873  TIP3      OH2           -39.2394978868        6.2920892254      -76.7434424641  TIP3      10513           0.0000000000
     83053     11873  TIP3      H1            -38.9806614475        5.4850179413      -76.2434721420  TIP3      10513           0.0000000000
     83054     11873  TIP3      H2            -38.5336351584        6.3881562586      -77.3850642787  TIP3      10513           0.0000000000
     83055     11874  TIP3      OH2           -28.4143784695        3.2597300318      -73.6528091559  TIP3      10514           0.0000000000
     83056     11874  TIP3      H1            -28.2999905058        2.3069000054      -73.6753347783  TIP3      10514           0.0000000000
     83057     11874  TIP3      H2            -28.5510557923        3.4684442244      -74.6006645502  TIP3      10514           0.0000000000
     83058     11875  TIP3      OH2           -35.2111661900        1.3780262902      -76.4248999204  TIP3      10515           0.0000000000
     83059     11875  TIP3      H1            -35.1752592730        2.2376798451      -76.8813684763  TIP3      10515           0.0000000000
     83060     11875  TIP3      H2            -35.6661844198        0.8412381601      -77.1106584867  TIP3      10515           0.0000000000
     83061     11876  TIP3      OH2           -27.5591667803        1.5183411445      -78.0194878984  TIP3      10516           0.0000000000
     83062     11876  TIP3      H1            -26.8907254664        1.1776533558      -77.3891037530  TIP3      10516           0.0000000000
     83063     11876  TIP3      H2            -27.0268758858        2.0387285957      -78.6389665847  TIP3      10516           0.0000000000
     83064     11877  TIP3      OH2           -38.3587054571        4.0849548306      -75.7670524450  TIP3      10517           0.0000000000
     83065     11877  TIP3      H1            -37.9761651606        3.3929945752      -75.2134497034  TIP3      10517           0.0000000000
     83066     11877  TIP3      H2            -38.6104731016        3.6073612358      -76.5749716570  TIP3      10517           0.0000000000
     83067     11878  TIP3      OH2           -33.5192218562        5.3536725469      -76.3748911052  TIP3      10518           0.0000000000
     83068     11878  TIP3      H1            -32.8455027404        4.7835786231      -75.9740388621  TIP3      10518           0.0000000000
     83069     11878  TIP3      H2            -34.0286271575        4.7099593101      -76.9103438067  TIP3      10518           0.0000000000
     83070     11879  TIP3      OH2           -22.5376484268        1.8853729451      -70.9238086992  TIP3      10519           0.0000000000
     83071     11879  TIP3      H1            -23.1642362759        2.6219017856      -71.0957612043  TIP3      10519           0.0000000000
     83072     11879  TIP3      H2            -22.5111359736        1.8389393638      -69.9750958091  TIP3      10519           0.0000000000
     83073     11880  TIP3      OH2           -36.2885987549        0.4668820543      -72.2770056949  TIP3      10520           0.0000000000
     83074     11880  TIP3      H1            -36.6639435515        0.8695823761      -73.0867582330  TIP3      10520           0.0000000000
     83075     11880  TIP3      H2            -37.0830166768        0.5318315377      -71.6995668806  TIP3      10520           0.0000000000
     83076     11881  TIP3      OH2           -29.0932651864        9.7776809502      -78.8305007482  TIP3      10521           0.0000000000
     83077     11881  TIP3      H1            -29.3573615097        9.5051226463      -79.7220527604  TIP3      10521           0.0000000000
     83078     11881  TIP3      H2            -29.3739231236       10.6958275831      -78.7832565622  TIP3      10521           0.0000000000
     83079     11882  TIP3      OH2           -25.8054164301        0.8690207408      -76.0281042021  TIP3      10522           0.0000000000
     83080     11882  TIP3      H1            -25.9421982087        0.0485944390      -75.5538054560  TIP3      10522           0.0000000000
     83081     11882  TIP3      H2            -25.0711069890        1.2841115713      -75.5380905977  TIP3      10522           0.0000000000
     83082     11883  TIP3      OH2           -36.6002932256        2.2937653032      -74.3678449309  TIP3      10523           0.0000000000
     83083     11883  TIP3      H1            -35.9873905962        2.9387129522      -73.9998166473  TIP3      10523           0.0000000000
     83084     11883  TIP3      H2            -36.1511305496        1.8416294662      -75.1045302492  TIP3      10523           0.0000000000
     83085     11884  TIP3      OH2           -30.1856818343        6.4538474217      -80.3940189150  TIP3      10524           0.0000000000
     83086     11884  TIP3      H1            -30.8936257980        6.9591869316      -80.8073795231  TIP3      10524           0.0000000000
     83087     11884  TIP3      H2            -29.4723466543        6.5211324565      -81.0592844037  TIP3      10524           0.0000000000
     83088     11885  TIP3      OH2           -30.1241772694        4.8981838563      -83.3457151538  TIP3      10525           0.0000000000
     83089     11885  TIP3      H1            -29.3797805835        4.9745493433      -82.7245743441  TIP3      10525           0.0000000000
     83090     11885  TIP3      H2            -29.7794684057        4.2546078928      -83.9751773154  TIP3      10525           0.0000000000
     83091     11886  TIP3      OH2           -22.7892611018        5.8347336882      -72.1012764916  TIP3      10526           0.0000000000
     83092     11886  TIP3      H1            -23.4692609575        6.5281066931      -72.0777426920  TIP3      10526           0.0000000000
     83093     11886  TIP3      H2            -22.3053303754        6.0532703675      -72.9193910939  TIP3      10526           0.0000000000
     83094     11887  TIP3      OH2           -26.7739286840        6.5218112073      -79.5161511974  TIP3      10527           0.0000000000
     83095     11887  TIP3      H1            -27.4283042866        6.8995297971      -78.8864212025  TIP3      10527           0.0000000000
     83096     11887  TIP3      H2            -26.2278530418        5.9689720933      -78.9415593520  TIP3      10527           0.0000000000
     83097     11888  TIP3      OH2           -26.7992097659        4.7929503395      -70.3764943501  TIP3      10528           0.0000000000
     83098     11888  TIP3      H1            -26.7781929890        5.5862498005      -69.8237563228  TIP3      10528           0.0000000000
     83099     11888  TIP3      H2            -27.4308952506        5.0955519819      -71.0638304417  TIP3      10528           0.0000000000
     83100     11889  TIP3      OH2           -34.8042841998        6.0860409040      -73.9285746386  TIP3      10529           0.0000000000
     83101     11889  TIP3      H1            -34.2149349573        6.1218895842      -74.7120350730  TIP3      10529           0.0000000000
     83102     11889  TIP3      H2            -34.4158249403        6.7032125675      -73.3049201871  TIP3      10529           0.0000000000
     83103     11890  TIP3      OH2           -33.8598614376       10.4490604931      -69.2645435671  TIP3      10530           0.0000000000
     83104     11890  TIP3      H1            -34.2117988711       11.2105976856      -68.7839421438  TIP3      10530           0.0000000000
     83105     11890  TIP3      H2            -34.5540572115       10.2839078413      -69.9189240917  TIP3      10530           0.0000000000
     83106     11891  TIP3      OH2           -27.8127773080        5.7702548537      -81.8191141814  TIP3      10531           0.0000000000
     83107     11891  TIP3      H1            -27.3046279824        6.0183220980      -80.9961850552  TIP3      10531           0.0000000000
     83108     11891  TIP3      H2            -27.4705275847        6.3951489890      -82.4723178900  TIP3      10531           0.0000000000
     83109     11892  TIP3      OH2           -36.9042240965        6.5884857175      -70.0110228180  TIP3      10532           0.0000000000
     83110     11892  TIP3      H1            -36.8529376387        7.3079482622      -69.3485315286  TIP3      10532           0.0000000000
     83111     11892  TIP3      H2            -37.8198868145        6.7508915596      -70.2952317896  TIP3      10532           0.0000000000
     83112     11893  TIP3      OH2           -39.6203906007        8.4882737748      -71.2784789198  TIP3      10533           0.0000000000
     83113     11893  TIP3      H1            -40.3982081525        8.7145896560      -71.8318280952  TIP3      10533           0.0000000000
     83114     11893  TIP3      H2            -39.9909051080        7.7150563251      -70.8262173855  TIP3      10533           0.0000000000
     83115     11894  TIP3      OH2           -40.2205663583       11.6072259123      -74.3329718703  TIP3      10534           0.0000000000
     83116     11894  TIP3      H1            -39.3141965050       11.2900262631      -74.2452628903  TIP3      10534           0.0000000000
     83117     11894  TIP3      H2            -40.3738457000       12.2958440679      -73.6890961591  TIP3      10534           0.0000000000
     83118     11895  TIP3      OH2           -31.1224241272       11.7025785155      -69.7237603974  TIP3      10535           0.0000000000
     83119     11895  TIP3      H1            -31.0151248332       12.5584335218      -69.2527621186  TIP3      10535           0.0000000000
     83120     11895  TIP3      H2            -31.9987586605       11.3754713233      -69.4774135782  TIP3      10535           0.0000000000
     83121     11896  TIP3      OH2           -24.9069488770        3.6430506633      -68.1269853553  TIP3      10536           0.0000000000
     83122     11896  TIP3      H1            -25.3721878285        4.0963099583      -68.8489492024  TIP3      10536           0.0000000000
     83123     11896  TIP3      H2            -24.9472605462        2.7326947208      -68.4308176435  TIP3      10536           0.0000000000
     83124     11897  TIP3      OH2           -37.8020768536       10.1003681557      -70.1215506645  TIP3      10537           0.0000000000
     83125     11897  TIP3      H1            -37.5795519831        9.7141164137      -69.2562274217  TIP3      10537           0.0000000000
     83126     11897  TIP3      H2            -38.6338190231        9.6380994327      -70.3651874954  TIP3      10537           0.0000000000
     83127     11898  TIP3      OH2           -35.1203417005       -1.4622481481      -74.0715067953  TIP3      10538           0.0000000000
     83128     11898  TIP3      H1            -35.9636012596       -1.6109548739      -74.5472951338  TIP3      10538           0.0000000000
     83129     11898  TIP3      H2            -35.2296194304       -0.6002235097      -73.6583442524  TIP3      10538           0.0000000000
     83130     11899  TIP3      OH2           -27.1090960954        1.9785552098      -69.9175882530  TIP3      10539           0.0000000000
     83131     11899  TIP3      H1            -27.6810885944        1.8334778565      -69.1280867575  TIP3      10539           0.0000000000
     83132     11899  TIP3      H2            -27.2899442772        2.9065655735      -70.1400919369  TIP3      10539           0.0000000000
     83133     11900  TIP3      OH2           -34.9439094219        3.5591819117      -72.8847599039  TIP3      10540           0.0000000000
     83134     11900  TIP3      H1            -35.7247512234        3.4728436236      -72.3081994846  TIP3      10540           0.0000000000
     83135     11900  TIP3      H2            -35.0472037093        4.4423109751      -73.2970413170  TIP3      10540           0.0000000000
     83136     11901  TIP3      OH2           -35.0051681530        3.6175591872      -78.0329508693  TIP3      10541           0.0000000000
     83137     11901  TIP3      H1            -35.9658357411        3.4361331976      -78.1888333433  TIP3      10541           0.0000000000
     83138     11901  TIP3      H2            -34.6322655680        3.3457467864      -78.8955530283  TIP3      10541           0.0000000000
     83139     11902  TIP3      OH2           -29.5248218488        4.0720269980      -79.3145042190  TIP3      10542           0.0000000000
     83140     11902  TIP3      H1            -29.9202298310        4.9227432446      -79.6076124140  TIP3      10542           0.0000000000
     83141     11902  TIP3      H2            -28.8029288910        3.9592610822      -79.9567593256  TIP3      10542           0.0000000000
     83142     11903  TIP3      OH2           -30.4419191781        4.3453735672      -67.8388181079  TIP3      10543           0.0000000000
     83143     11903  TIP3      H1            -30.9705216905        3.5648812987      -67.5423884706  TIP3      10543           0.0000000000
     83144     11903  TIP3      H2            -29.6037057769        4.2012620102      -67.3678615962  TIP3      10543           0.0000000000
     83145     11904  TIP3      OH2           -28.4563735274        3.6008897911      -76.4578827840  TIP3      10544           0.0000000000
     83146     11904  TIP3      H1            -28.7420469719        4.1784167789      -77.1898221048  TIP3      10544           0.0000000000
     83147     11904  TIP3      H2            -28.3677914515        2.7508868177      -76.9381510190  TIP3      10544           0.0000000000
     83148     11905  TIP3      OH2           -37.3412273031        3.8039210244      -71.2112044991  TIP3      10545           0.0000000000
     83149     11905  TIP3      H1            -37.3196749196        4.2194648281      -70.3366950723  TIP3      10545           0.0000000000
     83150     11905  TIP3      H2            -37.7946669235        2.9548112021      -71.0576124134  TIP3      10545           0.0000000000
     83151     11906  TIP3      OH2           -40.2851877012        1.6888079769      -77.6529549151  TIP3      10546           0.0000000000
     83152     11906  TIP3      H1            -40.1705241212        1.2445101333      -76.7696798755  TIP3      10546           0.0000000000
     83153     11906  TIP3      H2            -40.2022819928        0.8115088052      -78.0860700652  TIP3      10546           0.0000000000
     83154     11907  TIP3      OH2           -39.0692368886        2.0375487409      -81.9291753589  TIP3      10547           0.0000000000
     83155     11907  TIP3      H1            -38.8252135852        2.4309213515      -82.7225912273  TIP3      10547           0.0000000000
     83156     11907  TIP3      H2            -39.9992303647        2.2551501182      -81.7313222810  TIP3      10547           0.0000000000
     83157     11908  TIP3      OH2           -29.2820981920        5.1999612372      -71.8762498447  TIP3      10548           0.0000000000
     83158     11908  TIP3      H1            -28.8976287463        4.5197646808      -72.4697745936  TIP3      10548           0.0000000000
     83159     11908  TIP3      H2            -29.7169939238        4.6503519440      -71.1999659474  TIP3      10548           0.0000000000
     83160     11909  TIP3      OH2           -37.5259670065        2.8811746926      -78.3769656096  TIP3      10549           0.0000000000
     83161     11909  TIP3      H1            -38.4871105810        2.9509944956      -78.5556767074  TIP3      10549           0.0000000000
     83162     11909  TIP3      H2            -37.3554570496        1.9587918074      -78.6240968775  TIP3      10549           0.0000000000
     83163     11910  TIP3      OH2           -34.0206275727        2.7602739931      -80.5466403756  TIP3      10550           0.0000000000
     83164     11910  TIP3      H1            -33.0616076530        2.8658097896      -80.3699481240  TIP3      10550           0.0000000000
     83165     11910  TIP3      H2            -34.2423291418        3.4340899621      -81.2189529813  TIP3      10550           0.0000000000
     83166     11911  TIP3      OH2           -35.2964925434        3.9109603451      -82.9510686472  TIP3      10551           0.0000000000
     83167     11911  TIP3      H1            -35.8659017694        3.6271202525      -83.6803932415  TIP3      10551           0.0000000000
     83168     11911  TIP3      H2            -34.5066427465        4.1890277527      -83.4448749996  TIP3      10551           0.0000000000
     83169     11912  TIP3      OH2           -24.8637409408       16.0964941109      -67.4494558980  TIP3      10552           0.0000000000
     83170     11912  TIP3      H1            -24.5689969755       16.4265960406      -68.3137561999  TIP3      10552           0.0000000000
     83171     11912  TIP3      H2            -24.1160058216       16.3423548522      -66.8882699511  TIP3      10552           0.0000000000
     83172     11913  TIP3      OH2           -37.0449025953        8.4668175179      -67.9398914805  TIP3      10553           0.0000000000
     83173     11913  TIP3      H1            -36.4192125678        8.7744316952      -67.2647623835  TIP3      10553           0.0000000000
     83174     11913  TIP3      H2            -37.8717023007        8.6378742030      -67.4380439646  TIP3      10553           0.0000000000
     83175     11914  TIP3      OH2           -31.1723221104        3.9361056595      -75.1504637003  TIP3      10554           0.0000000000
     83176     11914  TIP3      H1            -30.6105531337        3.3790129235      -75.7046921187  TIP3      10554           0.0000000000
     83177     11914  TIP3      H2            -31.3342455901        3.3679239324      -74.3855678228  TIP3      10554           0.0000000000
     83178     11915  TIP3      OH2           -36.0135714797        0.1451697863      -78.6208174011  TIP3      10555           0.0000000000
     83179     11915  TIP3      H1            -36.4256413531       -0.7314120784      -78.6775223606  TIP3      10555           0.0000000000
     83180     11915  TIP3      H2            -35.3636156197        0.0814028331      -79.3234701297  TIP3      10555           0.0000000000
     83181     11916  TIP3      OH2           -32.5383332970        2.3049511688      -72.7528917628  TIP3      10556           0.0000000000
     83182     11916  TIP3      H1            -33.3874404525        2.7848132131      -72.6340013229  TIP3      10556           0.0000000000
     83183     11916  TIP3      H2            -31.9977686095        2.5955332104      -71.9971869985  TIP3      10556           0.0000000000
     83184     11917  TIP3      OH2           -24.8043365587        7.6773357932      -72.2527660847  TIP3      10557           0.0000000000
     83185     11917  TIP3      H1            -24.2283577969        8.1651749084      -72.8471244578  TIP3      10557           0.0000000000
     83186     11917  TIP3      H2            -25.6633613371        7.7331143518      -72.7244976401  TIP3      10557           0.0000000000
     83187     11918  TIP3      OH2           -30.4228665406        8.7214267135      -69.7782534578  TIP3      10558           0.0000000000
     83188     11918  TIP3      H1            -30.8079997491        8.3349521671      -68.9916778934  TIP3      10558           0.0000000000
     83189     11918  TIP3      H2            -30.6799963287        9.6550325058      -69.7250251058  TIP3      10558           0.0000000000
     83190     11919  TIP3      OH2           -27.3817622755        3.1844292538      -81.2081517403  TIP3      10559           0.0000000000
     83191     11919  TIP3      H1            -26.4841582596        3.0728326923      -80.8526411842  TIP3      10559           0.0000000000
     83192     11919  TIP3      H2            -27.3252081323        4.0068536306      -81.7249620236  TIP3      10559           0.0000000000
     83193     11920  TIP3      OH2           -36.9948248780        7.5746619197      -75.4794416871  TIP3      10560           0.0000000000
     83194     11920  TIP3      H1            -36.1565787451        7.7705591071      -75.8878932059  TIP3      10560           0.0000000000
     83195     11920  TIP3      H2            -36.7923890382        6.9535740222      -74.7597319724  TIP3      10560           0.0000000000
     83196     11921  TIP3      OH2           -29.8461797058        9.9536028565      -81.8894433291  TIP3      10561           0.0000000000
     83197     11921  TIP3      H1            -30.1909484950       10.8253957377      -81.6902289293  TIP3      10561           0.0000000000
     83198     11921  TIP3      H2            -30.5981874977        9.3616838773      -81.8738647130  TIP3      10561           0.0000000000
     83199     11922  TIP3      OH2           -39.8330166119        6.2306732699      -69.9772333962  TIP3      10562           0.0000000000
     83200     11922  TIP3      H1            -39.6323482432        5.8211140153      -69.1248997316  TIP3      10562           0.0000000000
     83201     11922  TIP3      H2            -40.4874689128        5.6526166093      -70.3983252436  TIP3      10562           0.0000000000
     83202     11923  TIP3      OH2           -32.8453255760        5.8506689494      -67.7939970687  TIP3      10563           0.0000000000
     83203     11923  TIP3      H1            -33.1609805894        5.5304495717      -68.6514210478  TIP3      10563           0.0000000000
     83204     11923  TIP3      H2            -31.9242252189        5.5287848822      -67.7962584783  TIP3      10563           0.0000000000
     83205     11924  TIP3      OH2           -22.5324957437        3.3895651956      -81.4338945504  TIP3      10564           0.0000000000
     83206     11924  TIP3      H1            -22.9943473726        3.0131496990      -82.1995333390  TIP3      10564           0.0000000000
     83207     11924  TIP3      H2            -22.3925765204        4.3009019335      -81.7603141906  TIP3      10564           0.0000000000
     83208     11925  TIP3      OH2           -22.5368205989        9.1444189793      -68.6701216513  TIP3      10565           0.0000000000
     83209     11925  TIP3      H1            -23.3656627975        9.5069839061      -69.0046379624  TIP3      10565           0.0000000000
     83210     11925  TIP3      H2            -21.9509189750        9.2166644690      -69.4525148437  TIP3      10565           0.0000000000
     83211     11926  TIP3      OH2           -27.0108295805        6.9560600072      -73.9255038640  TIP3      10566           0.0000000000
     83212     11926  TIP3      H1            -27.9598313977        6.7862371065      -74.0858771752  TIP3      10566           0.0000000000
     83213     11926  TIP3      H2            -26.5784390230        6.2234992619      -74.4080701853  TIP3      10566           0.0000000000
     83214     11927  TIP3      OH2           -38.6935561423        6.1902330804      -83.2497716250  TIP3      10567           0.0000000000
     83215     11927  TIP3      H1            -38.0836386301        6.8408877330      -82.8997508242  TIP3      10567           0.0000000000
     83216     11927  TIP3      H2            -39.5879397748        6.4818388764      -83.0263639369  TIP3      10567           0.0000000000
     83217     11928  TIP3      OH2           -32.6253374283       13.1835771940      -71.9135181769  TIP3      10568           0.0000000000
     83218     11928  TIP3      H1            -32.1390472638       13.9362974145      -72.2591613742  TIP3      10568           0.0000000000
     83219     11928  TIP3      H2            -31.9980527886       12.8025951223      -71.2821837838  TIP3      10568           0.0000000000
     83220     11929  TIP3      OH2           -28.9743274415        9.2487992513      -72.2633007902  TIP3      10569           0.0000000000
     83221     11929  TIP3      H1            -29.4274922344        9.0197204253      -71.4290868845  TIP3      10569           0.0000000000
     83222     11929  TIP3      H2            -28.4772955090        8.4717028212      -72.5185495580  TIP3      10569           0.0000000000
     83223     11930  TIP3      OH2           -38.2200245071        1.0336400456      -70.4201375398  TIP3      10570           0.0000000000
     83224     11930  TIP3      H1            -39.1271027582        1.3615103745      -70.4482379745  TIP3      10570           0.0000000000
     83225     11930  TIP3      H2            -38.3248022422        0.1606561584      -69.9997974861  TIP3      10570           0.0000000000
     83226     11931  TIP3      OH2           -29.4447106978        0.7575484497      -71.5288059663  TIP3      10571           0.0000000000
     83227     11931  TIP3      H1            -28.7636632572        0.8512822028      -70.8489337915  TIP3      10571           0.0000000000
     83228     11931  TIP3      H2            -29.8712789329       -0.0776536515      -71.3101042097  TIP3      10571           0.0000000000
     83229     11932  TIP3      OH2           -28.6914200912        0.4357281615      -80.4719456340  TIP3      10572           0.0000000000
     83230     11932  TIP3      H1            -28.4611288439        0.9691524172      -81.2273746694  TIP3      10572           0.0000000000
     83231     11932  TIP3      H2            -28.1636450579        0.8217837269      -79.7589687384  TIP3      10572           0.0000000000
     83232     11933  TIP3      OH2           -31.5275979171        2.1195014000      -79.5673303497  TIP3      10573           0.0000000000
     83233     11933  TIP3      H1            -30.7103172218        2.6545041613      -79.5487049650  TIP3      10573           0.0000000000
     83234     11933  TIP3      H2            -31.7435911748        2.0353483322      -78.6360786688  TIP3      10573           0.0000000000
     83235     11934  TIP3      OH2           -30.9523321483        3.1572525877      -70.3818667333  TIP3      10574           0.0000000000
     83236     11934  TIP3      H1            -30.8482286051        3.6787109759      -69.5679450235  TIP3      10574           0.0000000000
     83237     11934  TIP3      H2            -30.3104618220        2.4389693433      -70.2986858654  TIP3      10574           0.0000000000
     83238     11935  TIP3      OH2           -34.9745560500        0.2494056880      -81.9071240606  TIP3      10575           0.0000000000
     83239     11935  TIP3      H1            -35.0323790742        1.1758797141      -81.6120048729  TIP3      10575           0.0000000000
     83240     11935  TIP3      H2            -34.0659407765        0.0381184774      -81.6951737322  TIP3      10575           0.0000000000
     83241     11936  TIP3      OH2           -26.1465708865        4.8031027750      -75.5035714586  TIP3      10576           0.0000000000
     83242     11936  TIP3      H1            -26.9693783500        4.3634119103      -75.7885365353  TIP3      10576           0.0000000000
     83243     11936  TIP3      H2            -25.6710302207        4.0963247394      -75.0031142800  TIP3      10576           0.0000000000
     83244     11937  TIP3      OH2           -37.2452564749       -2.3557067233      -75.2436361159  TIP3      10577           0.0000000000
     83245     11937  TIP3      H1            -37.6623309593       -1.8957116052      -76.0186686925  TIP3      10577           0.0000000000
     83246     11937  TIP3      H2            -38.0267414028       -2.7822614106      -74.8761307641  TIP3      10577           0.0000000000
     83247     11938  TIP3      OH2           -39.4614273914       14.7350088115      -67.5584697227  TIP3      10578           0.0000000000
     83248     11938  TIP3      H1            -38.7846999734       14.5252661841      -66.8843240587  TIP3      10578           0.0000000000
     83249     11938  TIP3      H2            -39.8479599204       13.8775611899      -67.7910515019  TIP3      10578           0.0000000000
     83250     11939  TIP3      OH2           -34.7495373350       13.6591970448      -65.9875557257  TIP3      10579           0.0000000000
     83251     11939  TIP3      H1            -33.9817098131       13.1692240404      -65.6765034125  TIP3      10579           0.0000000000
     83252     11939  TIP3      H2            -34.8150800394       13.3812922870      -66.9145485093  TIP3      10579           0.0000000000
     83253     11940  TIP3      OH2           -28.2524950293       12.0609402730      -67.2772896034  TIP3      10580           0.0000000000
     83254     11940  TIP3      H1            -28.5665211775       11.1708690829      -67.0379891731  TIP3      10580           0.0000000000
     83255     11940  TIP3      H2            -27.4922858529       12.1737415253      -66.6818168881  TIP3      10580           0.0000000000
     83256     11941  TIP3      OH2           -39.3078796077        8.4929095365      -66.7805564817  TIP3      10581           0.0000000000
     83257     11941  TIP3      H1            -39.2393408456        7.5410969712      -67.0185360336  TIP3      10581           0.0000000000
     83258     11941  TIP3      H2            -40.0409149663        8.7934142918      -67.3467467575  TIP3      10581           0.0000000000
     83259     11942  TIP3      OH2           -32.8260462740        8.5049151745      -67.2272486556  TIP3      10582           0.0000000000
     83260     11942  TIP3      H1            -33.1383049770        8.8106932503      -68.1031645053  TIP3      10582           0.0000000000
     83261     11942  TIP3      H2            -32.7018534269        7.5318071340      -67.3390086296  TIP3      10582           0.0000000000
     83262     11943  TIP3      OH2           -38.6764214744        5.7156253620      -67.2356738617  TIP3      10583           0.0000000000
     83263     11943  TIP3      H1            -38.1675537570        4.8921535026      -67.3365299897  TIP3      10583           0.0000000000
     83264     11943  TIP3      H2            -38.8156806260        5.7500524914      -66.2831404444  TIP3      10583           0.0000000000
     83265     11944  TIP3      OH2           -33.9249060462        6.8424534991      -82.2250797753  TIP3      10584           0.0000000000
     83266     11944  TIP3      H1            -34.4328776462        6.3518165067      -81.5724480244  TIP3      10584           0.0000000000
     83267     11944  TIP3      H2            -33.6688305187        6.1644840929      -82.8742739559  TIP3      10584           0.0000000000
     83268     11945  TIP3      OH2           -34.6993900017        4.7044183114      -69.8668656131  TIP3      10585           0.0000000000
     83269     11945  TIP3      H1            -35.3224198702        5.4130697387      -69.6228390521  TIP3      10585           0.0000000000
     83270     11945  TIP3      H2            -34.3149441841        5.0476199435      -70.6881030200  TIP3      10585           0.0000000000
     83271     11946  TIP3      OH2           -32.9198473296        5.0806570722      -83.9882750678  TIP3      10586           0.0000000000
     83272     11946  TIP3      H1            -33.0580331557        4.9144921723      -84.9331129764  TIP3      10586           0.0000000000
     83273     11946  TIP3      H2            -31.9477835118        5.1988270694      -83.8877977589  TIP3      10586           0.0000000000
     83274     11947  TIP3      OH2           -29.6471853535        7.2526558099      -66.4828665708  TIP3      10587           0.0000000000
     83275     11947  TIP3      H1            -28.6975781670        7.2343544195      -66.6521705077  TIP3      10587           0.0000000000
     83276     11947  TIP3      H2            -29.8104638948        6.4679336333      -65.9424899571  TIP3      10587           0.0000000000
     83277     11948  TIP3      OH2           -34.2623113975        2.0660490936      -68.8270782828  TIP3      10588           0.0000000000
     83278     11948  TIP3      H1            -34.1841390683        1.3487243587      -69.4806730406  TIP3      10588           0.0000000000
     83279     11948  TIP3      H2            -34.3418826856        2.8659896430      -69.3819837085  TIP3      10588           0.0000000000
     83280     11949  TIP3      OH2           -33.8594901272        0.4779969176      -71.2517317858  TIP3      10589           0.0000000000
     83281     11949  TIP3      H1            -33.3726335870        0.9200159521      -71.9820743964  TIP3      10589           0.0000000000
     83282     11949  TIP3      H2            -34.7595784481        0.3734040085      -71.6613677864  TIP3      10589           0.0000000000
     83283     11950  TIP3      OH2           -32.3688947577        5.9333995481      -71.0496533532  TIP3      10590           0.0000000000
     83284     11950  TIP3      H1            -31.5897371798        5.7611667013      -71.5945717909  TIP3      10590           0.0000000000
     83285     11950  TIP3      H2            -32.6219807250        6.8130093056      -71.3293858673  TIP3      10590           0.0000000000
     83286     11951  TIP3      OH2           -27.9608898755        3.6909615335      -66.0869223543  TIP3      10591           0.0000000000
     83287     11951  TIP3      H1            -27.7303430207        2.7527721087      -66.0998765850  TIP3      10591           0.0000000000
     83288     11951  TIP3      H2            -27.0894428811        4.1127665112      -66.0274203617  TIP3      10591           0.0000000000
     83289     11952  TIP3      OH2           -26.6240890690        6.5123118882      -67.9336304713  TIP3      10592           0.0000000000
     83290     11952  TIP3      H1            -26.8640524653        7.2457358671      -68.5083591437  TIP3      10592           0.0000000000
     83291     11952  TIP3      H2            -25.6548800469        6.4521781918      -68.0859663935  TIP3      10592           0.0000000000
     83292     11953  TIP3      OH2           -35.8474788466        3.3228811479      -66.8773365491  TIP3      10593           0.0000000000
     83293     11953  TIP3      H1            -36.6159372732        2.7454133509      -67.0702931996  TIP3      10593           0.0000000000
     83294     11953  TIP3      H2            -35.2039682727        2.9640743091      -67.5167572747  TIP3      10593           0.0000000000
     83295     11954  TIP3      OH2           -33.1516901293       -2.1203733266      -70.8476485522  TIP3      10594           0.0000000000
     83296     11954  TIP3      H1            -33.2547811381       -1.1570761554      -70.9901768069  TIP3      10594           0.0000000000
     83297     11954  TIP3      H2            -33.8653676687       -2.4603339817      -71.4039809174  TIP3      10594           0.0000000000
     83298     11955  TIP3      OH2           -31.8306595369        2.2168149119      -67.2595806778  TIP3      10595           0.0000000000
     83299     11955  TIP3      H1            -32.1464598906        1.9854200120      -66.3659065965  TIP3      10595           0.0000000000
     83300     11955  TIP3      H2            -32.6229493132        2.0236138850      -67.8026634312  TIP3      10595           0.0000000000
     83301     11956  TIP3      OH2           -29.1326523607        1.3510275068      -68.2143974691  TIP3      10596           0.0000000000
     83302     11956  TIP3      H1            -30.0903129041        1.4142548194      -68.0508731355  TIP3      10596           0.0000000000
     83303     11956  TIP3      H2            -28.8351110236        0.7337851157      -67.5179971862  TIP3      10596           0.0000000000
     83304     11957  TIP3      OH2           -27.6022900631       -0.0282043270      -66.2779050907  TIP3      10597           0.0000000000
     83305     11957  TIP3      H1            -27.5648498692       -0.9892420055      -66.2241715162  TIP3      10597           0.0000000000
     83306     11957  TIP3      H2            -27.8032917097        0.2589688029      -65.3548020288  TIP3      10597           0.0000000000
     83307     11958  TIP3      OH2           -37.6545498386        1.2335401407      -67.1601543607  TIP3      10598           0.0000000000
     83308     11958  TIP3      H1            -37.4961849989        0.4838275257      -67.7587682679  TIP3      10598           0.0000000000
     83309     11958  TIP3      H2            -37.8188979286        0.7886059027      -66.3011367263  TIP3      10598           0.0000000000
     83310     11959  TIP3      OH2           -32.8978331401       -2.7335209174      -68.1800670995  TIP3      10599           0.0000000000
     83311     11959  TIP3      H1            -32.1964239776       -3.4140191982      -68.2410997764  TIP3      10599           0.0000000000
     83312     11959  TIP3      H2            -33.0085852037       -2.5612636281      -69.1421697645  TIP3      10599           0.0000000000
     83313     11960  TIP3      OH2           -32.5152510492       -1.1169563924      -66.0994003868  TIP3      10600           0.0000000000
     83314     11960  TIP3      H1            -32.7142726717       -1.6233202380      -66.9237303524  TIP3      10600           0.0000000000
     83315     11960  TIP3      H2            -33.1096108795       -0.3468734124      -66.1911661390  TIP3      10600           0.0000000000
     83316     11961  TIP3      OH2            40.6784511870       15.8571455410      -78.4305612765  TIP3      10601           0.0000000000
     83317     11961  TIP3      H1             40.0096265465       15.3342924203      -78.8941542592  TIP3      10601           0.0000000000
     83318     11961  TIP3      H2             40.9892185507       15.1770367734      -77.8052348671  TIP3      10601           0.0000000000
     83319     11962  TIP3      OH2           -39.8357368894       13.8704077856      -76.6317900165  TIP3      10602           0.0000000000
     83320     11962  TIP3      H1            -40.2556882550       13.0056268195      -76.4808456986  TIP3      10602           0.0000000000
     83321     11962  TIP3      H2            -39.6823753190       14.2374263788      -75.7611333758  TIP3      10602           0.0000000000
     83322     11963  TIP3      OH2           -22.2981080420       14.9207157057      -73.7321164366  TIP3      10603           0.0000000000
     83323     11963  TIP3      H1            -22.3151412119       14.9516470677      -72.7730057443  TIP3      10603           0.0000000000
     83324     11963  TIP3      H2            -21.5139864648       15.4039493190      -73.9660601909  TIP3      10603           0.0000000000
     83325     11964  TIP3      OH2           -24.3585567670       10.0064385309      -66.0604319070  TIP3      10604           0.0000000000
     83326     11964  TIP3      H1            -25.2434095623        9.9923928279      -65.6555276988  TIP3      10604           0.0000000000
     83327     11964  TIP3      H2            -23.9724755791       10.7915234853      -65.6120254658  TIP3      10604           0.0000000000
     83328     11965  TIP3      OH2           -22.6450204408        6.3876812963      -78.7459778411  TIP3      10605           0.0000000000
     83329     11965  TIP3      H1            -23.4222923408        5.9395737189      -78.3516631268  TIP3      10605           0.0000000000
     83330     11965  TIP3      H2            -22.0992990858        6.5926803182      -77.9688945501  TIP3      10605           0.0000000000
     83331     11966  TIP3      OH2           -22.3726104102        6.2789502992      -82.3635863802  TIP3      10606           0.0000000000
     83332     11966  TIP3      H1            -23.0001638095        6.5937611853      -83.0161561948  TIP3      10606           0.0000000000
     83333     11966  TIP3      H2            -22.4323913689        6.9025038731      -81.6211587621  TIP3      10606           0.0000000000
     83334     11967  TIP3      OH2           -24.8437082106        4.8708928249      -78.1588672515  TIP3      10607           0.0000000000
     83335     11967  TIP3      H1            -25.0222597255        3.9218542426      -78.1631003379  TIP3      10607           0.0000000000
     83336     11967  TIP3      H2            -25.1907135730        5.1450754579      -77.2899018965  TIP3      10607           0.0000000000
     83337     11968  TIP3      OH2           -39.8938495496        6.9222928653      -74.1413163360  TIP3      10608           0.0000000000
     83338     11968  TIP3      H1            -39.6623876054        6.8736862157      -75.0854510948  TIP3      10608           0.0000000000
     83339     11968  TIP3      H2            -39.0068713764        6.8333977310      -73.7388809890  TIP3      10608           0.0000000000
     83340     11969  TIP3      OH2           -24.0141378564        6.8723951344      -68.5080438671  TIP3      10609           0.0000000000
     83341     11969  TIP3      H1            -23.4063078892        6.1164424215      -68.3392145791  TIP3      10609           0.0000000000
     83342     11969  TIP3      H2            -23.3911631855        7.6313598185      -68.4504527579  TIP3      10609           0.0000000000
     83343     11970  TIP3      OH2           -22.5084368396        4.7553916578      -67.8119908607  TIP3      10610           0.0000000000
     83344     11970  TIP3      H1            -23.3707246521        4.3273103023      -67.9811838543  TIP3      10610           0.0000000000
     83345     11970  TIP3      H2            -21.9136247871        3.9900088029      -67.8861002352  TIP3      10610           0.0000000000
     83346     11971  TIP3      OH2           -25.1657510456        2.4981258226      -79.6855586753  TIP3      10611           0.0000000000
     83347     11971  TIP3      H1            -24.8737141715        1.5860746686      -79.5471349373  TIP3      10611           0.0000000000
     83348     11971  TIP3      H2            -24.3815596023        2.8940298424      -80.0831385323  TIP3      10611           0.0000000000
     83349     11972  TIP3      OH2           -24.5619669498        3.0012630213      -74.2484760603  TIP3      10612           0.0000000000
     83350     11972  TIP3      H1            -23.5980363135        3.2287819075      -74.2663254097  TIP3      10612           0.0000000000
     83351     11972  TIP3      H2            -24.7316769918        3.1239361257      -73.3034112476  TIP3      10612           0.0000000000
     83352     11973  TIP3      OH2           -24.4992790677        3.7429147470      -71.4657683745  TIP3      10613           0.0000000000
     83353     11973  TIP3      H1            -25.3713684673        4.0389139183      -71.1392530409  TIP3      10613           0.0000000000
     83354     11973  TIP3      H2            -24.0400807877        4.5818576162      -71.7027923117  TIP3      10613           0.0000000000
     83355     11974  TIP3      OH2           -40.0447087664        2.1971455446      -67.5844890161  TIP3      10614           0.0000000000
     83356     11974  TIP3      H1            -39.1133688222        1.9283257819      -67.6897575951  TIP3      10614           0.0000000000
     83357     11974  TIP3      H2            -40.5935775543        1.3956789390      -67.6134159408  TIP3      10614           0.0000000000
     83358     11975  TIP3      OH2           -22.1474612916       -2.1848466277      -66.1217210922  TIP3      10615           0.0000000000
     83359     11975  TIP3      H1            -21.8642437776       -2.8746281951      -66.7364748041  TIP3      10615           0.0000000000
     83360     11975  TIP3      H2            -22.1250864806       -1.3837822698      -66.6646543061  TIP3      10615           0.0000000000
     83361     11976  TIP3      OH2           -38.7904321483        1.5682094078      -73.6693437013  TIP3      10616           0.0000000000
     83362     11976  TIP3      H1            -38.6195534973        0.6376158985      -73.9915603798  TIP3      10616           0.0000000000
     83363     11976  TIP3      H2            -38.3731184402        1.7761672364      -74.5219000315  TIP3      10616           0.0000000000
     83364     11977  TIP3      OH2           -40.7227353588        3.8215931894      -74.7166425277  TIP3      10617           0.0000000000
     83365     11977  TIP3      H1            -40.0192365638        3.2291828411      -74.9624466971  TIP3      10617           0.0000000000
     83366     11977  TIP3      H2            -40.2280124847        4.2702013228      -74.0071640399  TIP3      10617           0.0000000000
     83367     11978  TIP3      OH2           -22.7074824856       -0.0613135895      -67.8072202851  TIP3      10618           0.0000000000
     83368     11978  TIP3      H1            -23.6620913775        0.1221325850      -67.7602092800  TIP3      10618           0.0000000000
     83369     11978  TIP3      H2            -22.6534390836       -0.6497044123      -68.5706445803  TIP3      10618           0.0000000000
     83370     11979  TIP3      OH2           -39.8759668372        0.3958955985      -80.4944265323  TIP3      10619           0.0000000000
     83371     11979  TIP3      H1            -40.8383677983        0.1480873968      -80.3807873098  TIP3      10619           0.0000000000
     83372     11979  TIP3      H2            -39.7312882531        0.7898162019      -81.3374680544  TIP3      10619           0.0000000000
     83373     11980  TIP3      OH2            40.9226742259       -0.9524554003      -71.0309890601  TIP3      10620           0.0000000000
     83374     11980  TIP3      H1             40.2851162643       -1.6291282949      -70.7980964819  TIP3      10620           0.0000000000
     83375     11980  TIP3      H2             40.6548251458       -0.6386727587      -71.9117054318  TIP3      10620           0.0000000000
     83376     11981  TIP3      OH2           -38.2595290849       11.6946763548      -67.4657948432  TIP3      10621           0.0000000000
     83377     11981  TIP3      H1            -39.0618617258       11.9173424692      -67.9497471805  TIP3      10621           0.0000000000
     83378     11981  TIP3      H2            -38.5359758181       11.6531728632      -66.5500940718  TIP3      10621           0.0000000000
     83379     11982  TIP3      OH2           -30.9760692043       14.1110591309      -68.3044119600  TIP3      10622           0.0000000000
     83380     11982  TIP3      H1            -30.8142261108       13.7532472145      -67.4029877388  TIP3      10622           0.0000000000
     83381     11982  TIP3      H2            -30.0801141319       14.4012948061      -68.5767426018  TIP3      10622           0.0000000000
     83382     11983  TIP3      OH2           -28.6624107850       15.3663807235      -69.0339693924  TIP3      10623           0.0000000000
     83383     11983  TIP3      H1            -27.9536407893       14.7541357776      -69.2646597713  TIP3      10623           0.0000000000
     83384     11983  TIP3      H2            -28.2888302583       15.8007269868      -68.2351973733  TIP3      10623           0.0000000000
     83385     11984  TIP3      OH2           -37.6089855877       -1.9156517990      -77.5360690766  TIP3      10624           0.0000000000
     83386     11984  TIP3      H1            -38.3203211407       -1.8362995964      -78.1857884717  TIP3      10624           0.0000000000
     83387     11984  TIP3      H2            -37.2851358921       -2.8261059728      -77.7209195414  TIP3      10624           0.0000000000
     83388     11985  TIP3      OH2           -39.0187276711       -2.2642422345      -82.4273601519  TIP3      10625           0.0000000000
     83389     11985  TIP3      H1            -38.5565391048       -1.4946444429      -82.7885117922  TIP3      10625           0.0000000000
     83390     11985  TIP3      H2            -39.6252682232       -1.8199320700      -81.8150238039  TIP3      10625           0.0000000000
     83391     11986  TIP3      OH2           -39.2636209640       13.7853425372      -81.0497153521  TIP3      10626           0.0000000000
     83392     11986  TIP3      H1            -39.8735415281       13.7895822908      -81.7829001921  TIP3      10626           0.0000000000
     83393     11986  TIP3      H2            -39.1765656200       14.7168473697      -80.8477807624  TIP3      10626           0.0000000000
     83394     11987  TIP3      OH2           -37.1939828783       -0.2804642918      -83.4244047373  TIP3      10627           0.0000000000
     83395     11987  TIP3      H1            -36.7101282132       -0.8384922226      -84.0311886041  TIP3      10627           0.0000000000
     83396     11987  TIP3      H2            -36.4920709238        0.0699301656      -82.8602657904  TIP3      10627           0.0000000000
     83397     11988  TIP3      OH2           -38.0590960084       -1.3898968901      -68.2964226658  TIP3      10628           0.0000000000
     83398     11988  TIP3      H1            -38.4298284134       -2.2161662194      -67.9315096704  TIP3      10628           0.0000000000
     83399     11988  TIP3      H2            -37.1338205446       -1.4519575921      -67.9621559684  TIP3      10628           0.0000000000
     83400     11989  TIP3      OH2           -36.0014179330       -2.0306400854      -66.7071611387  TIP3      10629           0.0000000000
     83401     11989  TIP3      H1            -35.1206667730       -2.3895716186      -66.9459345895  TIP3      10629           0.0000000000
     83402     11989  TIP3      H2            -36.4077412340       -2.8174761352      -66.2923070132  TIP3      10629           0.0000000000
     83403     11990  TIP3      OH2           -18.7254033769        6.0365727176      -72.9066267707  TIP3      10630           0.0000000000
     83404     11990  TIP3      H1            -18.6908083602        5.4140141021      -72.1497156036  TIP3      10630           0.0000000000
     83405     11990  TIP3      H2            -18.1052273771        6.7251526731      -72.6529254104  TIP3      10630           0.0000000000
     83406     11991  TIP3      OH2            -7.4150032740        9.4119057354      -76.1586807309  TIP3      10631           0.0000000000
     83407     11991  TIP3      H1             -7.8403780907        8.7114326733      -75.6715661654  TIP3      10631           0.0000000000
     83408     11991  TIP3      H2             -7.3816701859       10.1279700570      -75.4970805276  TIP3      10631           0.0000000000
     83409     11992  TIP3      OH2           -21.2109108236        4.1416945137      -78.9218346382  TIP3      10632           0.0000000000
     83410     11992  TIP3      H1            -21.6629880564        5.0104108658      -78.9379906967  TIP3      10632           0.0000000000
     83411     11992  TIP3      H2            -21.7796755758        3.6035985054      -79.4782485527  TIP3      10632           0.0000000000
     83412     11993  TIP3      OH2           -20.4160669774        6.4016394226      -76.6935607025  TIP3      10633           0.0000000000
     83413     11993  TIP3      H1            -20.2387681446        5.5176762080      -76.3142336635  TIP3      10633           0.0000000000
     83414     11993  TIP3      H2            -19.7889309149        6.4376080081      -77.4318027150  TIP3      10633           0.0000000000
     83415     11994  TIP3      OH2           -10.3162851905       14.5408873963      -75.9130392250  TIP3      10634           0.0000000000
     83416     11994  TIP3      H1             -9.6631215497       13.8583163697      -76.2136952698  TIP3      10634           0.0000000000
     83417     11994  TIP3      H2            -10.4743812576       14.2303033003      -75.0273747950  TIP3      10634           0.0000000000
     83418     11995  TIP3      OH2            -4.0997009791        0.4942198467      -73.2184347825  TIP3      10635           0.0000000000
     83419     11995  TIP3      H1             -3.9628966157        1.0853622615      -72.4423460037  TIP3      10635           0.0000000000
     83420     11995  TIP3      H2             -3.5857852649        0.9409112858      -73.8916801992  TIP3      10635           0.0000000000
     83421     11996  TIP3      OH2           -19.8206957669        3.8243357873      -75.6842372521  TIP3      10636           0.0000000000
     83422     11996  TIP3      H1            -19.1688080471        3.2417291714      -75.2488202707  TIP3      10636           0.0000000000
     83423     11996  TIP3      H2            -19.7304022284        3.4902555051      -76.5975723013  TIP3      10636           0.0000000000
     83424     11997  TIP3      OH2            -3.6930663635        1.9143345654      -70.9698045349  TIP3      10637           0.0000000000
     83425     11997  TIP3      H1             -4.3166582446        2.6665916069      -71.0251608602  TIP3      10637           0.0000000000
     83426     11997  TIP3      H2             -3.6003507847        1.8007712990      -70.0168959692  TIP3      10637           0.0000000000
     83427     11998  TIP3      OH2           -17.5710255368        0.2804401735      -72.3720716664  TIP3      10638           0.0000000000
     83428     11998  TIP3      H1            -17.8352207499        0.8481205573      -73.1268836831  TIP3      10638           0.0000000000
     83429     11998  TIP3      H2            -18.2407043192        0.5384909295      -71.6938606814  TIP3      10638           0.0000000000
     83430     11999  TIP3      OH2            -6.8549303240        0.7648277693      -76.0905336310  TIP3      10639           0.0000000000
     83431     11999  TIP3      H1             -7.1580867942        0.0628789008      -75.5127355567  TIP3      10639           0.0000000000
     83432     11999  TIP3      H2             -6.3008992419        1.3017112310      -75.5065313249  TIP3      10639           0.0000000000
     83433     12000  TIP3      OH2           -17.9711945673        2.1146540308      -74.3941414234  TIP3      10640           0.0000000000
     83434     12000  TIP3      H1            -17.3657852084        2.7968128707      -74.0399218945  TIP3      10640           0.0000000000
     83435     12000  TIP3      H2            -17.4630659453        1.7376092851      -75.1260534706  TIP3      10640           0.0000000000
     83436     12001  TIP3      OH2           -20.5924026427        9.5908008094      -80.5230511382  TIP3      10641           0.0000000000
     83437     12001  TIP3      H1            -20.7242880819        9.8821247795      -81.4238474621  TIP3      10641           0.0000000000
     83438     12001  TIP3      H2            -20.4071159487       10.4171333049      -80.0482931240  TIP3      10641           0.0000000000
     83439     12002  TIP3      OH2            -6.8779757566       11.2294477542      -73.7727867130  TIP3      10642           0.0000000000
     83440     12002  TIP3      H1             -7.8462910247       11.3352062690      -73.6686877417  TIP3      10642           0.0000000000
     83441     12002  TIP3      H2             -6.6243079167       12.1492495793      -73.9744476993  TIP3      10642           0.0000000000
     83442     12003  TIP3      OH2            -6.5373907929       -0.4961312486      -72.3283744639  TIP3      10643           0.0000000000
     83443     12003  TIP3      H1             -7.3059656381        0.0845894133      -72.4484799973  TIP3      10643           0.0000000000
     83444     12003  TIP3      H2             -5.8688129371       -0.0672053559      -72.8955128637  TIP3      10643           0.0000000000
     83445     12004  TIP3      OH2           -13.6104019336       -2.3791060333      -74.9330251308  TIP3      10644           0.0000000000
     83446     12004  TIP3      H1            -13.7403169288       -3.3462968256      -74.9596024301  TIP3      10644           0.0000000000
     83447     12004  TIP3      H2            -14.4757213955       -2.0619851562      -74.6014315149  TIP3      10644           0.0000000000
     83448     12005  TIP3      OH2            -8.6285676115       13.0232842104      -77.1610827262  TIP3      10645           0.0000000000
     83449     12005  TIP3      H1             -8.1930330122       12.3075036456      -77.6710329087  TIP3      10645           0.0000000000
     83450     12005  TIP3      H2             -8.1973369808       13.8007324467      -77.5704621938  TIP3      10645           0.0000000000
     83451     12006  TIP3      OH2            -7.4365091608       10.9340256667      -78.6556779810  TIP3      10646           0.0000000000
     83452     12006  TIP3      H1             -7.6923556441       10.2497542608      -79.2959943977  TIP3      10646           0.0000000000
     83453     12006  TIP3      H2             -7.3809175415       10.4397277067      -77.8201933232  TIP3      10646           0.0000000000
     83454     12007  TIP3      OH2            -5.8564114363        9.5034684682      -70.1777556341  TIP3      10647           0.0000000000
     83455     12007  TIP3      H1             -5.6392989310        8.8805272660      -70.9004405006  TIP3      10647           0.0000000000
     83456     12007  TIP3      H2             -5.6142965305       10.3659413438      -70.5692073963  TIP3      10647           0.0000000000
     83457     12008  TIP3      OH2            -3.9169499896        5.8551739728      -72.1305335512  TIP3      10648           0.0000000000
     83458     12008  TIP3      H1             -4.5922601685        6.5623165034      -72.0709672684  TIP3      10648           0.0000000000
     83459     12008  TIP3      H2             -3.4613310583        6.0704224692      -72.9623136625  TIP3      10648           0.0000000000
     83460     12009  TIP3      OH2            -7.8682927443        6.6735381061      -79.4330272290  TIP3      10649           0.0000000000
     83461     12009  TIP3      H1             -8.6332513796        6.8591439047      -78.8755284783  TIP3      10649           0.0000000000
     83462     12009  TIP3      H2             -7.4178105878        5.9351663690      -78.9730668956  TIP3      10649           0.0000000000
     83463     12010  TIP3      OH2            -7.9584309852        4.8243480815      -70.3784651149  TIP3      10650           0.0000000000
     83464     12010  TIP3      H1             -7.8932805892        5.6190571502      -69.8251381472  TIP3      10650           0.0000000000
     83465     12010  TIP3      H2             -8.5926223410        5.0811006561      -71.0663155774  TIP3      10650           0.0000000000
     83466     12011  TIP3      OH2            -9.5080961547       11.6010915652      -73.2250867975  TIP3      10651           0.0000000000
     83467     12011  TIP3      H1             -9.7797586946       12.2351876601      -72.5587601135  TIP3      10651           0.0000000000
     83468     12011  TIP3      H2             -9.7820051882       10.7510513176      -72.8057675435  TIP3      10651           0.0000000000
     83469     12012  TIP3      OH2           -14.9844749713       10.5178396346      -69.2969925832  TIP3      10652           0.0000000000
     83470     12012  TIP3      H1            -15.3632460350       11.2329814578      -68.7494850276  TIP3      10652           0.0000000000
     83471     12012  TIP3      H2            -15.6986377545       10.2360419232      -69.8770051091  TIP3      10652           0.0000000000
     83472     12013  TIP3      OH2            -9.0234275081        5.7925316474      -81.7769564904  TIP3      10653           0.0000000000
     83473     12013  TIP3      H1             -8.4550890942        6.0068375727      -81.0207815798  TIP3      10653           0.0000000000
     83474     12013  TIP3      H2             -8.6141865042        6.2830058820      -82.4935376506  TIP3      10653           0.0000000000
     83475     12014  TIP3      OH2           -11.2914122496       12.5565324473      -78.3244184314  TIP3      10654           0.0000000000
     83476     12014  TIP3      H1            -10.8327876513       12.8362696744      -77.5298261127  TIP3      10654           0.0000000000
     83477     12014  TIP3      H2            -11.8567738749       13.2863837384      -78.5611501129  TIP3      10654           0.0000000000
     83478     12015  TIP3      OH2           -16.7634849061       12.5623355044      -68.4860784750  TIP3      10655           0.0000000000
     83479     12015  TIP3      H1            -16.8138980298       12.4026322716      -69.4267613153  TIP3      10655           0.0000000000
     83480     12015  TIP3      H2            -17.6813735113       12.3685380738      -68.2010668016  TIP3      10655           0.0000000000
     83481     12016  TIP3      OH2            -5.2623658091       -2.4263029589      -82.0642901580  TIP3      10656           0.0000000000
     83482     12016  TIP3      H1             -6.1506329155       -2.3237913846      -81.7062119228  TIP3      10656           0.0000000000
     83483     12016  TIP3      H2             -5.0520467653       -1.5317520668      -82.3543043962  TIP3      10656           0.0000000000
     83484     12017  TIP3      OH2           -17.2714394661        6.3110437673      -80.0068963761  TIP3      10657           0.0000000000
     83485     12017  TIP3      H1            -17.5507943681        7.1186545230      -80.4616260255  TIP3      10657           0.0000000000
     83486     12017  TIP3      H2            -17.9688024415        5.6737055663      -80.1739731007  TIP3      10657           0.0000000000
     83487     12018  TIP3      OH2            -4.1598440812       11.9500715906      -83.5774158757  TIP3      10658           0.0000000000
     83488     12018  TIP3      H1             -4.0134093677       12.8979956499      -83.4369144147  TIP3      10658           0.0000000000
     83489     12018  TIP3      H2             -3.2364263831       11.6296274937      -83.6207496055  TIP3      10658           0.0000000000
     83490     12019  TIP3      OH2           -21.2158878051        8.7492542199      -71.0630355373  TIP3      10659           0.0000000000
     83491     12019  TIP3      H1            -21.6067244281        8.6433101937      -71.9381725299  TIP3      10659           0.0000000000
     83492     12019  TIP3      H2            -21.1027261715        7.8022191897      -70.8289745231  TIP3      10659           0.0000000000
     83493     12020  TIP3      OH2            -3.2092105331       12.1799031187      -68.6145140486  TIP3      10660           0.0000000000
     83494     12020  TIP3      H1             -3.2979084191       11.2169208921      -68.6205393818  TIP3      10660           0.0000000000
     83495     12020  TIP3      H2             -4.0622386645       12.4302075544      -68.1859629814  TIP3      10660           0.0000000000
     83496     12021  TIP3      OH2           -18.1987091150       14.3471956412      -78.0668916357  TIP3      10661           0.0000000000
     83497     12021  TIP3      H1            -18.0165320292       13.8961907649      -77.2381658340  TIP3      10661           0.0000000000
     83498     12021  TIP3      H2            -19.0264167128       13.9288555565      -78.3653030044  TIP3      10661           0.0000000000
     83499     12022  TIP3      OH2            -8.7162400155       14.6978161184      -82.9389579760  TIP3      10662           0.0000000000
     83500     12022  TIP3      H1             -8.3186582751       13.9268131149      -83.3950979127  TIP3      10662           0.0000000000
     83501     12022  TIP3      H2             -8.7137736970       14.3793231381      -82.0253524843  TIP3      10662           0.0000000000
     83502     12023  TIP3      OH2            -9.0356972217       14.5849019985      -80.1732738595  TIP3      10663           0.0000000000
     83503     12023  TIP3      H1             -9.9855761540       14.6484257780      -80.0079167983  TIP3      10663           0.0000000000
     83504     12023  TIP3      H2             -8.7810071461       13.8421916960      -79.6073973290  TIP3      10663           0.0000000000
     83505     12024  TIP3      OH2            -6.0866703079        3.6642160625      -68.0952964362  TIP3      10664           0.0000000000
     83506     12024  TIP3      H1             -6.4980875863        4.1012939571      -68.8544964965  TIP3      10664           0.0000000000
     83507     12024  TIP3      H2             -6.0563288333        2.7499168311      -68.4318486729  TIP3      10664           0.0000000000
     83508     12025  TIP3      OH2           -18.8980693714       10.0553384372      -70.1440896142  TIP3      10665           0.0000000000
     83509     12025  TIP3      H1            -18.6751081246        9.6819353289      -69.2688931451  TIP3      10665           0.0000000000
     83510     12025  TIP3      H2            -19.7630757507        9.6461553144      -70.3283058001  TIP3      10665           0.0000000000
     83511     12026  TIP3      OH2           -16.2588426410       -1.4863298266      -74.1443732930  TIP3      10666           0.0000000000
     83512     12026  TIP3      H1            -17.1480380349       -1.5852856286      -74.5487349992  TIP3      10666           0.0000000000
     83513     12026  TIP3      H2            -16.3545414559       -0.6337391296      -73.6923332168  TIP3      10666           0.0000000000
     83514     12027  TIP3      OH2           -11.5856359578       -1.8146702648      -70.8208513053  TIP3      10667           0.0000000000
     83515     12027  TIP3      H1            -11.1760065260       -2.2205086729      -70.0372027970  TIP3      10667           0.0000000000
     83516     12027  TIP3      H2            -12.5562373919       -1.9181302509      -70.6767760910  TIP3      10667           0.0000000000
     83517     12028  TIP3      OH2            -8.2570663269        2.0608509151      -69.8684031037  TIP3      10668           0.0000000000
     83518     12028  TIP3      H1             -8.8920939386        1.8378606393      -69.1438717502  TIP3      10668           0.0000000000
     83519     12028  TIP3      H2             -8.5056240927        2.9443663218      -70.1759304122  TIP3      10668           0.0000000000
     83520     12029  TIP3      OH2           -11.8950745910        0.7130606135      -83.4334825890  TIP3      10669           0.0000000000
     83521     12029  TIP3      H1            -12.2284556644        0.7568370766      -82.5318299772  TIP3      10669           0.0000000000
     83522     12029  TIP3      H2            -12.2014736522       -0.1377279118      -83.7625043726  TIP3      10669           0.0000000000
     83523     12030  TIP3      OH2           -16.2508548150        3.4745492384      -72.9188094169  TIP3      10670           0.0000000000
     83524     12030  TIP3      H1            -16.9366513530        3.4711256932      -72.2311507333  TIP3      10670           0.0000000000
     83525     12030  TIP3      H2            -16.2406188109        4.3620241947      -73.2701070037  TIP3      10670           0.0000000000
     83526     12031  TIP3      OH2           -11.5639417949        4.3773455944      -67.7391956417  TIP3      10671           0.0000000000
     83527     12031  TIP3      H1            -12.1268480207        3.5758902974      -67.6015767501  TIP3      10671           0.0000000000
     83528     12031  TIP3      H2            -10.7261297661        4.1023555145      -67.3741652199  TIP3      10671           0.0000000000
     83529     12032  TIP3      OH2           -18.4688853237        3.7917054108      -71.2298724703  TIP3      10672           0.0000000000
     83530     12032  TIP3      H1            -18.4827358031        4.1485882545      -70.3285309487  TIP3      10672           0.0000000000
     83531     12032  TIP3      H2            -18.9409652751        2.9544903670      -71.0623279132  TIP3      10672           0.0000000000
     83532     12033  TIP3      OH2           -21.8284529935        0.9450922865      -77.3062540402  TIP3      10673           0.0000000000
     83533     12033  TIP3      H1            -21.2107013729        0.8225422861      -76.5621700504  TIP3      10673           0.0000000000
     83534     12033  TIP3      H2            -21.3997434090        0.4490905436      -78.0151171684  TIP3      10673           0.0000000000
     83535     12034  TIP3      OH2           -20.5418504626        1.6455547643      -81.8489685585  TIP3      10674           0.0000000000
     83536     12034  TIP3      H1            -20.1140642252        2.1946809523      -82.5117828492  TIP3      10674           0.0000000000
     83537     12034  TIP3      H2            -21.2630142359        2.2375966625      -81.5663582444  TIP3      10674           0.0000000000
     83538     12035  TIP3      OH2           -18.8121724471        2.7435759519      -78.2095886903  TIP3      10675           0.0000000000
     83539     12035  TIP3      H1            -19.7024046266        2.8815161542      -78.5707796995  TIP3      10675           0.0000000000
     83540     12035  TIP3      H2            -18.5274555905        1.8856222578      -78.5602600907  TIP3      10675           0.0000000000
     83541     12036  TIP3      OH2            -9.2084102989        0.3687527236      -73.8274097334  TIP3      10676           0.0000000000
     83542     12036  TIP3      H1             -9.8633782496        0.4800097815      -73.0963484289  TIP3      10676           0.0000000000
     83543     12036  TIP3      H2             -9.7381518860        0.1888170078      -74.6068553584  TIP3      10676           0.0000000000
     83544     12037  TIP3      OH2            -6.0125068294       16.0747143316      -67.4373042010  TIP3      10677           0.0000000000
     83545     12037  TIP3      H1             -5.7325754922       16.4214758171      -68.3134498142  TIP3      10677           0.0000000000
     83546     12037  TIP3      H2             -5.2700781339       16.3696964065      -66.8822374418  TIP3      10677           0.0000000000
     83547     12038  TIP3      OH2           -18.3104203657        8.5487625981      -67.9167250840  TIP3      10678           0.0000000000
     83548     12038  TIP3      H1            -17.5962959896        8.7481651406      -67.2900082337  TIP3      10678           0.0000000000
     83549     12038  TIP3      H2            -19.1015060111        8.6252051478      -67.3489632122  TIP3      10678           0.0000000000
     83550     12039  TIP3      OH2           -17.3128759810        0.0863361547      -78.7746725398  TIP3      10679           0.0000000000
     83551     12039  TIP3      H1            -17.6518245360       -0.8263249099      -78.7220444026  TIP3      10679           0.0000000000
     83552     12039  TIP3      H2            -16.5122490047       -0.0356154542      -79.2718016434  TIP3      10679           0.0000000000
     83553     12040  TIP3      OH2            -5.9461492575        7.6482607279      -72.2746017088  TIP3      10680           0.0000000000
     83554     12040  TIP3      H1             -5.3584749377        8.1596117779      -72.8637346870  TIP3      10680           0.0000000000
     83555     12040  TIP3      H2             -6.7878073634        7.7710229544      -72.7181183832  TIP3      10680           0.0000000000
     83556     12041  TIP3      OH2            -9.2361133229        1.3050107449      -82.8599433812  TIP3      10681           0.0000000000
     83557     12041  TIP3      H1            -10.1844993934        1.4216545151      -83.0242539415  TIP3      10681           0.0000000000
     83558     12041  TIP3      H2             -8.9556988297        2.1805419741      -82.5625163477  TIP3      10681           0.0000000000
     83559     12042  TIP3      OH2           -21.0001030548        6.2724188536      -69.9795570411  TIP3      10682           0.0000000000
     83560     12042  TIP3      H1            -20.8275281651        5.8387024095      -69.1256981417  TIP3      10682           0.0000000000
     83561     12042  TIP3      H2            -21.6163455212        5.6742652595      -70.4367222366  TIP3      10682           0.0000000000
     83562     12043  TIP3      OH2            -9.3549125502       11.0937005196      -69.8377788184  TIP3      10683           0.0000000000
     83563     12043  TIP3      H1            -10.2445930353       11.3548657097      -70.0915311395  TIP3      10683           0.0000000000
     83564     12043  TIP3      H2             -9.3186086998       11.4997067969      -68.9397393917  TIP3      10683           0.0000000000
     83565     12044  TIP3      OH2            -3.6593169183        9.2016935416      -68.6567844872  TIP3      10684           0.0000000000
     83566     12044  TIP3      H1             -4.5307181671        9.4469062964      -69.0362627211  TIP3      10684           0.0000000000
     83567     12044  TIP3      H2             -3.0886978957        9.1832985329      -69.4525741735  TIP3      10684           0.0000000000
     83568     12045  TIP3      OH2            -5.3173216811       12.1983480515      -81.0508952580  TIP3      10685           0.0000000000
     83569     12045  TIP3      H1             -5.7289919995       11.3848370627      -80.7344036655  TIP3      10685           0.0000000000
     83570     12045  TIP3      H2             -5.0398454331       11.9818346978      -81.9643294912  TIP3      10685           0.0000000000
     83571     12046  TIP3      OH2           -15.6484511530       11.3732638375      -77.8591653724  TIP3      10686           0.0000000000
     83572     12046  TIP3      H1            -15.0872069457       12.1111360197      -78.0966589690  TIP3      10686           0.0000000000
     83573     12046  TIP3      H2            -16.5237038727       11.5752500990      -78.1961684754  TIP3      10686           0.0000000000
     83574     12047  TIP3      OH2           -19.8586746227        6.2079772885      -83.3419988119  TIP3      10687           0.0000000000
     83575     12047  TIP3      H1            -19.2538360754        6.8289495141      -82.9312395745  TIP3      10687           0.0000000000
     83576     12047  TIP3      H2            -20.7351401809        6.4580420981      -83.0063858699  TIP3      10687           0.0000000000
     83577     12048  TIP3      OH2           -10.1561466115        9.2332113168      -72.2848342848  TIP3      10688           0.0000000000
     83578     12048  TIP3      H1            -10.5822261379        9.0014683096      -71.4564586230  TIP3      10688           0.0000000000
     83579     12048  TIP3      H2             -9.5948644318        8.4855958916      -72.4920932121  TIP3      10688           0.0000000000
     83580     12049  TIP3      OH2            -7.9355746251       10.2120222354      -83.1801931407  TIP3      10689           0.0000000000
     83581     12049  TIP3      H1             -7.6086263189        9.7360404071      -82.3933129226  TIP3      10689           0.0000000000
     83582     12049  TIP3      H2             -8.8978760156       10.1161525333      -83.0800730164  TIP3      10689           0.0000000000
     83583     12050  TIP3      OH2            -7.4372876168       13.7666482864      -69.8147190449  TIP3      10690           0.0000000000
     83584     12050  TIP3      H1             -8.1078899844       13.2728384279      -70.3101789309  TIP3      10690           0.0000000000
     83585     12050  TIP3      H2             -7.2195019100       14.4764808556      -70.4632784206  TIP3      10690           0.0000000000
     83586     12051  TIP3      OH2            -3.4094356254       14.6375033587      -82.9894093197  TIP3      10691           0.0000000000
     83587     12051  TIP3      H1             -2.7046171083       15.2616860597      -83.2009966452  TIP3      10691           0.0000000000
     83588     12051  TIP3      H2             -4.1362160749       15.2224477378      -82.6783014535  TIP3      10691           0.0000000000
     83589     12052  TIP3      OH2           -19.3578027432        1.0182142933      -70.4162405187  TIP3      10692           0.0000000000
     83590     12052  TIP3      H1            -20.2606681694        1.3802696251      -70.4578242034  TIP3      10692           0.0000000000
     83591     12052  TIP3      H2            -19.4702178121        0.1666964403      -69.9654363374  TIP3      10692           0.0000000000
     83592     12053  TIP3      OH2            -7.0919883149        8.9254672726      -80.9339216308  TIP3      10693           0.0000000000
     83593     12053  TIP3      H1             -7.3488286705        8.0984201560      -80.4728270484  TIP3      10693           0.0000000000
     83594     12053  TIP3      H2             -6.1299078578        8.9085773675      -80.8254550040  TIP3      10693           0.0000000000
     83595     12054  TIP3      OH2           -15.0692260815       10.9149948727      -82.3111491239  TIP3      10694           0.0000000000
     83596     12054  TIP3      H1            -14.8036275946       10.3676367338      -81.5549843336  TIP3      10694           0.0000000000
     83597     12054  TIP3      H2            -14.8969398133       11.7998929710      -81.9824028636  TIP3      10694           0.0000000000
     83598     12055  TIP3      OH2           -10.5936143624        0.7437656439      -71.5317336249  TIP3      10695           0.0000000000
     83599     12055  TIP3      H1             -9.9348131415        0.8720635347      -70.8407179931  TIP3      10695           0.0000000000
     83600     12055  TIP3      H2            -10.9976427179       -0.1057751956      -71.2847344829  TIP3      10695           0.0000000000
     83601     12056  TIP3      OH2           -16.1068786072        0.2835409650      -81.9093252498  TIP3      10696           0.0000000000
     83602     12056  TIP3      H1            -16.2084924344        1.1897226147      -81.6046716868  TIP3      10696           0.0000000000
     83603     12056  TIP3      H2            -15.2143577456        0.0268386756      -81.6858334642  TIP3      10696           0.0000000000
     83604     12057  TIP3      OH2            -5.8918231688        1.0012608932      -69.5461091302  TIP3      10697           0.0000000000
     83605     12057  TIP3      H1             -6.8269941393        1.3103510174      -69.6530726592  TIP3      10697           0.0000000000
     83606     12057  TIP3      H2             -5.5986104039        0.9962596714      -70.4734540123  TIP3      10697           0.0000000000
     83607     12058  TIP3      OH2           -17.9054508340       10.7900799604      -82.9668209132  TIP3      10698           0.0000000000
     83608     12058  TIP3      H1            -17.2338031069       11.3499612207      -82.5811625618  TIP3      10698           0.0000000000
     83609     12058  TIP3      H2            -17.4137057158       10.2018806354      -83.5504065751  TIP3      10698           0.0000000000
     83610     12059  TIP3      OH2            -6.2513484498       14.0646567746      -73.8559624890  TIP3      10699           0.0000000000
     83611     12059  TIP3      H1             -6.3357832608       14.7537584402      -74.5439088102  TIP3      10699           0.0000000000
     83612     12059  TIP3      H2             -5.3062570934       14.1024293416      -73.6463621714  TIP3      10699           0.0000000000
     83613     12060  TIP3      OH2           -18.7383468282       -1.8353724228      -75.0453985897  TIP3      10700           0.0000000000
     83614     12060  TIP3      H1            -18.9319991541       -1.7899628007      -76.0126413732  TIP3      10700           0.0000000000
     83615     12060  TIP3      H2            -19.1843301819       -2.6776153376      -74.8057937297  TIP3      10700           0.0000000000
     83616     12061  TIP3      OH2           -19.7634833867       12.1343081205      -78.8933213256  TIP3      10701           0.0000000000
     83617     12061  TIP3      H1            -20.6262837182       12.5573390402      -78.9718360655  TIP3      10701           0.0000000000
     83618     12061  TIP3      H2            -19.2900994802       12.5834896133      -79.6110570706  TIP3      10701           0.0000000000
     83619     12062  TIP3      OH2           -20.5658795015       14.7129544864      -67.6189042676  TIP3      10702           0.0000000000
     83620     12062  TIP3      H1            -19.9707354949       14.5642727347      -66.8512309334  TIP3      10702           0.0000000000
     83621     12062  TIP3      H2            -20.9832216320       13.8618874498      -67.7440234430  TIP3      10702           0.0000000000
     83622     12063  TIP3      OH2           -15.9156476044       13.6202215343      -65.9597922951  TIP3      10703           0.0000000000
     83623     12063  TIP3      H1            -15.1078747476       13.1887368847      -65.6854317973  TIP3      10703           0.0000000000
     83624     12063  TIP3      H2            -15.9380626523       13.4094512935      -66.9141766356  TIP3      10703           0.0000000000
     83625     12064  TIP3      OH2            -9.3505268536       11.9941230912      -67.3114166461  TIP3      10704           0.0000000000
     83626     12064  TIP3      H1             -9.7354187316       11.1749813164      -66.9597440443  TIP3      10704           0.0000000000
     83627     12064  TIP3      H2             -8.6327664491       12.1972539576      -66.6786867978  TIP3      10704           0.0000000000
     83628     12065  TIP3      OH2            -7.2165923849       12.9436637955      -84.3789311594  TIP3      10705           0.0000000000
     83629     12065  TIP3      H1             -6.9408488912       12.1198834104      -83.9386717988  TIP3      10705           0.0000000000
     83630     12065  TIP3      H2             -6.4639473819       13.1708807038      -84.9299761304  TIP3      10705           0.0000000000
     83631     12066  TIP3      OH2           -20.6922642961        8.5041218084      -66.6194459882  TIP3      10706           0.0000000000
     83632     12066  TIP3      H1            -20.4853018237        7.6086346264      -66.9568542496  TIP3      10706           0.0000000000
     83633     12066  TIP3      H2            -21.4023571536        8.7949183878      -67.2256749513  TIP3      10706           0.0000000000
     83634     12067  TIP3      OH2            -8.2791943527        8.3821055432      -69.8145924291  TIP3      10707           0.0000000000
     83635     12067  TIP3      H1             -7.4654678415        8.9399266258      -69.9249041231  TIP3      10707           0.0000000000
     83636     12067  TIP3      H2             -8.9440654377        9.0880590551      -69.8129670921  TIP3      10707           0.0000000000
     83637     12068  TIP3      OH2           -19.7409604915        5.7465285000      -67.2178414843  TIP3      10708           0.0000000000
     83638     12068  TIP3      H1            -19.3596200233        4.8675715038      -67.3192814905  TIP3      10708           0.0000000000
     83639     12068  TIP3      H2            -19.9905215253        5.7586415676      -66.2739980082  TIP3      10708           0.0000000000
     83640     12069  TIP3      OH2           -15.9714541384        4.6245472076      -69.8559978387  TIP3      10709           0.0000000000
     83641     12069  TIP3      H1            -16.3687212114        5.4201617858      -69.5035281711  TIP3      10709           0.0000000000
     83642     12069  TIP3      H2            -15.4760155012        4.9944018111      -70.5865437027  TIP3      10709           0.0000000000
     83643     12070  TIP3      OH2           -11.0794255193        7.2907690523      -66.4397063086  TIP3      10710           0.0000000000
     83644     12070  TIP3      H1            -10.1956717006        7.5554788931      -66.6769179305  TIP3      10710           0.0000000000
     83645     12070  TIP3      H2            -11.1082866197        6.4492602477      -65.9424934118  TIP3      10710           0.0000000000
     83646     12071  TIP3      OH2            -4.6962645828        7.4332780205      -84.5021596343  TIP3      10711           0.0000000000
     83647     12071  TIP3      H1             -4.8903847524        7.0071210376      -85.3509450693  TIP3      10711           0.0000000000
     83648     12071  TIP3      H2             -4.6190353568        8.3575390658      -84.7518709003  TIP3      10711           0.0000000000
     83649     12072  TIP3      OH2           -15.4692316425        2.0718079298      -68.8339450788  TIP3      10712           0.0000000000
     83650     12072  TIP3      H1            -15.3127497123        1.3590545100      -69.4781354966  TIP3      10712           0.0000000000
     83651     12072  TIP3      H2            -15.4684625833        2.8871085879      -69.3704543113  TIP3      10712           0.0000000000
     83652     12073  TIP3      OH2           -15.0241905243        0.4700653797      -71.3149380335  TIP3      10713           0.0000000000
     83653     12073  TIP3      H1            -14.5248166363        0.9209507197      -72.0076932961  TIP3      10713           0.0000000000
     83654     12073  TIP3      H2            -15.9254708735        0.3814358560      -71.6957116707  TIP3      10713           0.0000000000
     83655     12074  TIP3      OH2            -9.0921979494        3.7536960263      -66.0884137668  TIP3      10714           0.0000000000
     83656     12074  TIP3      H1             -8.9182521169        2.7900481336      -66.1250946018  TIP3      10714           0.0000000000
     83657     12074  TIP3      H2             -8.1826108119        4.0663868239      -66.0376815196  TIP3      10714           0.0000000000
     83658     12075  TIP3      OH2            -7.6617669920        6.4325102267      -68.0916696648  TIP3      10715           0.0000000000
     83659     12075  TIP3      H1             -7.9150480738        7.2002046254      -68.6595944726  TIP3      10715           0.0000000000
     83660     12075  TIP3      H2             -6.6736217987        6.4630791647      -68.1797862450  TIP3      10715           0.0000000000
     83661     12076  TIP3      OH2           -16.9907114916        3.2834406800      -66.8444902304  TIP3      10716           0.0000000000
     83662     12076  TIP3      H1            -17.7652404493        2.7332254535      -67.0750719640  TIP3      10716           0.0000000000
     83663     12076  TIP3      H2            -16.3472593620        2.9600824489      -67.5031119687  TIP3      10716           0.0000000000
     83664     12077  TIP3      OH2           -14.2590113664       -2.1069576947      -70.8747733641  TIP3      10717           0.0000000000
     83665     12077  TIP3      H1            -14.4130337962       -1.1450848289      -70.9936916489  TIP3      10717           0.0000000000
     83666     12077  TIP3      H2            -15.0142424795       -2.4702087873      -71.3740379113  TIP3      10717           0.0000000000
     83667     12078  TIP3      OH2           -12.9793433715        2.2027869176      -67.2548970328  TIP3      10718           0.0000000000
     83668     12078  TIP3      H1            -13.3047245150        2.0206774677      -66.3571237447  TIP3      10718           0.0000000000
     83669     12078  TIP3      H2            -13.7627755539        2.0413420768      -67.8073866393  TIP3      10718           0.0000000000
     83670     12079  TIP3      OH2           -10.2454998761        1.4203326745      -68.1342764678  TIP3      10719           0.0000000000
     83671     12079  TIP3      H1            -11.2170119568        1.3994641252      -68.0890128096  TIP3      10719           0.0000000000
     83672     12079  TIP3      H2             -9.9935873268        0.7379076397      -67.4932038079  TIP3      10719           0.0000000000
     83673     12080  TIP3      OH2            -8.6755212091       -0.0109821992      -66.2466281333  TIP3      10720           0.0000000000
     83674     12080  TIP3      H1             -8.7287204902       -0.9845260364      -66.2328051855  TIP3      10720           0.0000000000
     83675     12080  TIP3      H2             -8.9455722891        0.2730520959      -65.3449497498  TIP3      10720           0.0000000000
     83676     12081  TIP3      OH2           -18.9105437321        1.2517187843      -67.1684613248  TIP3      10721           0.0000000000
     83677     12081  TIP3      H1            -18.6442908366        0.5139047787      -67.7441782153  TIP3      10721           0.0000000000
     83678     12081  TIP3      H2            -18.9754757792        0.8173892638      -66.2909031409  TIP3      10721           0.0000000000
     83679     12082  TIP3      OH2           -14.0436049318       -2.7392228941      -68.1832295536  TIP3      10722           0.0000000000
     83680     12082  TIP3      H1            -13.3407942908       -3.4005028368      -68.2044669657  TIP3      10722           0.0000000000
     83681     12082  TIP3      H2            -14.1447651789       -2.5470083137      -69.1375785203  TIP3      10722           0.0000000000
     83682     12083  TIP3      OH2           -13.6996424965       -1.1248279110      -66.0781327754  TIP3      10723           0.0000000000
     83683     12083  TIP3      H1            -13.8462175861       -1.6115923721      -66.9240461480  TIP3      10723           0.0000000000
     83684     12083  TIP3      H2            -14.2676999212       -0.3373957826      -66.1851277360  TIP3      10723           0.0000000000
     83685     12084  TIP3      OH2           -21.8949482365       15.7562549913      -78.4371408324  TIP3      10724           0.0000000000
     83686     12084  TIP3      H1            -22.5612960382       15.2928182495      -78.9447428360  TIP3      10724           0.0000000000
     83687     12084  TIP3      H2            -21.5843318248       15.1092004047      -77.7760470798  TIP3      10724           0.0000000000
     83688     12085  TIP3      OH2           -21.0624020897       13.8754986860      -76.6071888734  TIP3      10725           0.0000000000
     83689     12085  TIP3      H1            -21.3867223497       12.9966028778      -76.4114014522  TIP3      10725           0.0000000000
     83690     12085  TIP3      H2            -20.8227116079       14.2285954230      -75.7281084268  TIP3      10725           0.0000000000
     83691     12086  TIP3      OH2            -3.9994511740       14.2656465095      -70.6458906729  TIP3      10726           0.0000000000
     83692     12086  TIP3      H1             -4.4138367843       13.4994621606      -71.0821288749  TIP3      10726           0.0000000000
     83693     12086  TIP3      H2             -3.4106797317       13.8319196278      -70.0088691175  TIP3      10726           0.0000000000
     83694     12087  TIP3      OH2            -5.5168362191        9.9974969571      -66.0471556636  TIP3      10727           0.0000000000
     83695     12087  TIP3      H1             -6.3933977406        9.9996454388      -65.6312386083  TIP3      10727           0.0000000000
     83696     12087  TIP3      H2             -5.1132624844       10.7867438466      -65.6132915067  TIP3      10727           0.0000000000
     83697     12088  TIP3      OH2            -4.1957082494        8.3226530901      -80.5838050903  TIP3      10728           0.0000000000
     83698     12088  TIP3      H1             -3.3374305955        8.7526941545      -80.4032434312  TIP3      10728           0.0000000000
     83699     12088  TIP3      H2             -4.2134742027        7.6153562931      -79.9302120588  TIP3      10728           0.0000000000
     83700     12089  TIP3      OH2            -4.0738820527        9.1205798254      -73.7552183130  TIP3      10729           0.0000000000
     83701     12089  TIP3      H1             -3.2295827794        8.7722147415      -74.0879662858  TIP3      10729           0.0000000000
     83702     12089  TIP3      H2             -3.9192724085       10.0794021517      -73.9042575890  TIP3      10729           0.0000000000
     83703     12090  TIP3      OH2            -5.5261466503       11.9984973847      -71.4390428205  TIP3      10730           0.0000000000
     83704     12090  TIP3      H1             -6.2131235535       12.3721490512      -70.8641553156  TIP3      10730           0.0000000000
     83705     12090  TIP3      H2             -6.0559424266       11.6356556117      -72.1764507308  TIP3      10730           0.0000000000
     83706     12091  TIP3      OH2            -3.5107423275        6.2479315250      -82.3099683647  TIP3      10731           0.0000000000
     83707     12091  TIP3      H1             -4.0381729933        6.5944075594      -83.0637051420  TIP3      10731           0.0000000000
     83708     12091  TIP3      H2             -3.5940314287        6.9720010660      -81.6829383388  TIP3      10731           0.0000000000
     83709     12092  TIP3      OH2            -6.0252787589        4.9090708061      -78.1574598637  TIP3      10732           0.0000000000
     83710     12092  TIP3      H1             -6.1752463258        3.9477305075      -78.2151420581  TIP3      10732           0.0000000000
     83711     12092  TIP3      H2             -6.3453030831        5.1097972238      -77.2806409086  TIP3      10732           0.0000000000
     83712     12093  TIP3      OH2           -20.9978239735        6.9804788506      -74.0890860475  TIP3      10733           0.0000000000
     83713     12093  TIP3      H1            -20.8344986701        6.8934535633      -75.0617002157  TIP3      10733           0.0000000000
     83714     12093  TIP3      H2            -20.1106156982        6.8048208613      -73.7384382556  TIP3      10733           0.0000000000
     83715     12094  TIP3      OH2            -5.1483909782        6.8558895698      -68.4030092794  TIP3      10734           0.0000000000
     83716     12094  TIP3      H1             -4.5164409918        6.1042674757      -68.3387853311  TIP3      10734           0.0000000000
     83717     12094  TIP3      H2             -4.5381798499        7.6266998647      -68.4665583724  TIP3      10734           0.0000000000
     83718     12095  TIP3      OH2            -3.6445851399        4.7483451148      -67.8099553073  TIP3      10735           0.0000000000
     83719     12095  TIP3      H1             -4.5079774617        4.3283778928      -67.9759103339  TIP3      10735           0.0000000000
     83720     12095  TIP3      H2             -3.0485796156        3.9815353803      -67.9038357244  TIP3      10735           0.0000000000
     83721     12096  TIP3      OH2            -5.9339000211        0.8990263779      -84.6840400504  TIP3      10736           0.0000000000
     83722     12096  TIP3      H1             -5.3112649521        0.5395586794      -84.0344762422  TIP3      10736           0.0000000000
     83723     12096  TIP3      H2             -6.7862741645        0.5252110557      -84.4470739103  TIP3      10736           0.0000000000
     83724     12097  TIP3      OH2            -6.2717119091        2.5132392267      -79.6648005950  TIP3      10737           0.0000000000
     83725     12097  TIP3      H1             -6.0430123006        1.5642857172      -79.6039078063  TIP3      10737           0.0000000000
     83726     12097  TIP3      H2             -5.5293370264        2.9000401895      -80.1221576587  TIP3      10737           0.0000000000
     83727     12098  TIP3      OH2            -5.7058132573        3.0199698286      -74.2736471748  TIP3      10738           0.0000000000
     83728     12098  TIP3      H1             -4.7580240128        3.2549077425      -74.2717593374  TIP3      10738           0.0000000000
     83729     12098  TIP3      H2             -5.9123634496        3.1633522450      -73.3413603152  TIP3      10738           0.0000000000
     83730     12099  TIP3      OH2            -5.6277895119        3.7289746147      -71.4549200017  TIP3      10739           0.0000000000
     83731     12099  TIP3      H1             -6.5183835608        4.0133331080      -71.1644955128  TIP3      10739           0.0000000000
     83732     12099  TIP3      H2             -5.1994783850        4.5882210632      -71.6683150152  TIP3      10739           0.0000000000
     83733     12100  TIP3      OH2           -21.3712975448        2.2907031251      -67.9396099508  TIP3      10740           0.0000000000
     83734     12100  TIP3      H1            -20.4335568214        2.0716253698      -67.7550149211  TIP3      10740           0.0000000000
     83735     12100  TIP3      H2            -21.8205413096        1.4668747057      -67.6451149384  TIP3      10740           0.0000000000
     83736     12101  TIP3      OH2            -3.3623910365       -2.2198630663      -66.1226121592  TIP3      10741           0.0000000000
     83737     12101  TIP3      H1             -3.0052443310       -2.8806966578      -66.7340342687  TIP3      10741           0.0000000000
     83738     12101  TIP3      H2             -3.2529413638       -1.3974867479      -66.6420071209  TIP3      10741           0.0000000000
     83739     12102  TIP3      OH2            -5.6558637505       -0.2512555514      -79.6374886399  TIP3      10742           0.0000000000
     83740     12102  TIP3      H1             -5.4965390658       -0.7147051085      -78.7920008905  TIP3      10742           0.0000000000
     83741     12102  TIP3      H2             -6.2795549429       -0.8313452244      -80.0842529540  TIP3      10742           0.0000000000
     83742     12103  TIP3      OH2           -20.1644925679        0.5561485401      -75.1029404361  TIP3      10743           0.0000000000
     83743     12103  TIP3      H1            -19.6970089086       -0.2546846056      -74.8319360036  TIP3      10743           0.0000000000
     83744     12103  TIP3      H2            -19.6589737023        1.2641055324      -74.6855222934  TIP3      10743           0.0000000000
     83745     12104  TIP3      OH2           -21.9215568285        3.5774786305      -74.0525728493  TIP3      10744           0.0000000000
     83746     12104  TIP3      H1            -21.3416471540        3.3130216868      -74.7955816140  TIP3      10744           0.0000000000
     83747     12104  TIP3      H2            -21.4529629850        4.3645135476      -73.7661340369  TIP3      10744           0.0000000000
     83748     12105  TIP3      OH2            -3.8630349628       -0.1271308815      -67.7514002687  TIP3      10745           0.0000000000
     83749     12105  TIP3      H1             -4.7920576774        0.1727429684      -67.8103044171  TIP3      10745           0.0000000000
     83750     12105  TIP3      H2             -3.7828988076       -0.6177583669      -68.5864403633  TIP3      10745           0.0000000000
     83751     12106  TIP3      OH2            -3.7912286680       -0.2094657639      -83.0387124079  TIP3      10746           0.0000000000
     83752     12106  TIP3      H1             -3.4260588679       -0.8914661385      -83.6167657742  TIP3      10746           0.0000000000
     83753     12106  TIP3      H2             -3.1501947332        0.5093456038      -83.1058231272  TIP3      10746           0.0000000000
     83754     12107  TIP3      OH2           -21.5519637805       -0.1952478362      -80.0538966748  TIP3      10747           0.0000000000
     83755     12107  TIP3      H1            -22.4726641704        0.0422257099      -80.1443911739  TIP3      10747           0.0000000000
     83756     12107  TIP3      H2            -21.0861321407        0.3506074258      -80.7121516580  TIP3      10747           0.0000000000
     83757     12108  TIP3      OH2            -6.7766752362       14.7945660610      -78.0328851412  TIP3      10748           0.0000000000
     83758     12108  TIP3      H1             -6.0775457217       14.4745853143      -78.6394361839  TIP3      10748           0.0000000000
     83759     12108  TIP3      H2             -6.2727900131       15.2814546033      -77.3671487519  TIP3      10748           0.0000000000
     83760     12109  TIP3      OH2           -19.3598904455       11.7270746729      -67.4958120435  TIP3      10749           0.0000000000
     83761     12109  TIP3      H1            -20.1943598089       11.8756393983      -67.9429758582  TIP3      10749           0.0000000000
     83762     12109  TIP3      H2            -19.6151713630       11.6456640064      -66.5663506440  TIP3      10749           0.0000000000
     83763     12110  TIP3      OH2            -9.8315112122       15.4064934084      -69.0709680069  TIP3      10750           0.0000000000
     83764     12110  TIP3      H1             -9.1223223503       14.7733364453      -69.2454165637  TIP3      10750           0.0000000000
     83765     12110  TIP3      H2             -9.4972744369       15.7977805339      -68.2373126707  TIP3      10750           0.0000000000
     83766     12111  TIP3      OH2            -4.8542493772       -2.0298437722      -69.9270744665  TIP3      10751           0.0000000000
     83767     12111  TIP3      H1             -5.6508550566       -1.6793826693      -70.3613395178  TIP3      10751           0.0000000000
     83768     12111  TIP3      H2             -4.6411793398       -2.8215659257      -70.4719430944  TIP3      10751           0.0000000000
     83769     12112  TIP3      OH2            -9.5302924211       14.2409462074      -72.0371128609  TIP3      10752           0.0000000000
     83770     12112  TIP3      H1            -10.4067816956       14.5130838536      -72.2890909613  TIP3      10752           0.0000000000
     83771     12112  TIP3      H2             -9.0440036157       15.0849472389      -72.0421108036  TIP3      10752           0.0000000000
     83772     12113  TIP3      OH2            -6.9806446814       15.7937595613      -71.7668582315  TIP3      10753           0.0000000000
     83773     12113  TIP3      H1             -7.0188971457       16.7608685831      -71.9687023825  TIP3      10753           0.0000000000
     83774     12113  TIP3      H2             -6.7433362114       15.4428755825      -72.6397075095  TIP3      10753           0.0000000000
     83775     12114  TIP3      OH2           -19.6024563433       14.5349507334      -74.3421904304  TIP3      10754           0.0000000000
     83776     12114  TIP3      H1            -19.6065080383       14.1386786589      -73.4630022765  TIP3      10754           0.0000000000
     83777     12114  TIP3      H2            -18.7382237093       14.2469256634      -74.6753254962  TIP3      10754           0.0000000000
     83778     12115  TIP3      OH2           -11.4700918817       -0.5256752821      -75.6772187667  TIP3      10755           0.0000000000
     83779     12115  TIP3      H1            -12.1150107905       -1.1845864440      -75.3589046455  TIP3      10755           0.0000000000
     83780     12115  TIP3      H2            -10.8919887396       -1.0727325424      -76.2101589519  TIP3      10755           0.0000000000
     83781     12116  TIP3      OH2            -4.5775947737       -1.3303496985      -77.2472683046  TIP3      10756           0.0000000000
     83782     12116  TIP3      H1             -3.9383257809       -1.8789080543      -77.7099380745  TIP3      10756           0.0000000000
     83783     12116  TIP3      H2             -4.1516970631       -0.4716986605      -77.1565898889  TIP3      10756           0.0000000000
     83784     12117  TIP3      OH2           -19.0725827597       -1.9763554029      -77.7748380443  TIP3      10757           0.0000000000
     83785     12117  TIP3      H1            -19.8677183621       -2.1653586570      -78.3118502494  TIP3      10757           0.0000000000
     83786     12117  TIP3      H2            -18.5782413963       -2.8117430483      -77.8500379621  TIP3      10757           0.0000000000
     83787     12118  TIP3      OH2           -20.2495564060       -2.1949927305      -82.0291954394  TIP3      10758           0.0000000000
     83788     12118  TIP3      H1            -19.8027352982       -1.5517481521      -82.6133346771  TIP3      10758           0.0000000000
     83789     12118  TIP3      H2            -20.8451103466       -1.6284693932      -81.5162000691  TIP3      10758           0.0000000000
     83790     12119  TIP3      OH2           -14.5677387144       -1.9871636528      -78.0110000682  TIP3      10759           0.0000000000
     83791     12119  TIP3      H1            -13.6702041284       -1.6656829520      -78.0229385747  TIP3      10759           0.0000000000
     83792     12119  TIP3      H2            -14.6408228965       -2.2455318262      -77.0894584444  TIP3      10759           0.0000000000
     83793     12120  TIP3      OH2           -20.3797716482       13.7664885095      -81.0407982838  TIP3      10760           0.0000000000
     83794     12120  TIP3      H1            -21.0053827301       13.7286043001      -81.7789188453  TIP3      10760           0.0000000000
     83795     12120  TIP3      H2            -20.3256192189       14.7176933998      -80.8852274880  TIP3      10760           0.0000000000
     83796     12121  TIP3      OH2           -18.4145534198       -0.2956435860      -83.5087557981  TIP3      10761           0.0000000000
     83797     12121  TIP3      H1            -17.9054081737       -0.8701042482      -84.0775609944  TIP3      10761           0.0000000000
     83798     12121  TIP3      H2            -17.7524098271        0.0716624286      -82.9068695451  TIP3      10761           0.0000000000
     83799     12122  TIP3      OH2            -4.7662218327       14.5806294508      -79.9792528941  TIP3      10762           0.0000000000
     83800     12122  TIP3      H1             -4.9772190692       13.7955539630      -80.5449370485  TIP3      10762           0.0000000000
     83801     12122  TIP3      H2             -4.8545021164       15.3059163113      -80.6194008416  TIP3      10762           0.0000000000
     83802     12123  TIP3      OH2           -19.1436022498       -1.4067953363      -68.3233925713  TIP3      10763           0.0000000000
     83803     12123  TIP3      H1            -19.5546634146       -2.1968899588      -67.9235306092  TIP3      10763           0.0000000000
     83804     12123  TIP3      H2            -18.2350900356       -1.4563962994      -67.9381717367  TIP3      10763           0.0000000000
     83805     12124  TIP3      OH2           -17.1491552981       -2.0374961779      -66.7003893009  TIP3      10764           0.0000000000
     83806     12124  TIP3      H1            -16.2711427583       -2.3871960987      -66.9333159027  TIP3      10764           0.0000000000
     83807     12124  TIP3      H2            -17.5403149120       -2.8308460547      -66.2827767367  TIP3      10764           0.0000000000
     83808     12125  TIP3      OH2            -8.7491665957       -2.7209551185      -66.5664162855  TIP3      10765           0.0000000000
     83809     12125  TIP3      H1             -8.6711489950       -3.2225870996      -65.7330239453  TIP3      10765           0.0000000000
     83810     12125  TIP3      H2             -7.8252606459       -2.7706407034      -66.8863051198  TIP3      10765           0.0000000000
     83811     12126  TIP3      OH2            -5.5778226020       13.2919572857      -67.8520373970  TIP3      10766           0.0000000000
     83812     12126  TIP3      H1             -6.3474742037       13.1696626430      -68.4517070588  TIP3      10766           0.0000000000
     83813     12126  TIP3      H2             -5.6690589223       14.2527621178      -67.6953382232  TIP3      10766           0.0000000000
     83814     12127  TIP3      OH2             8.8594333390        7.1990198793      -77.8667403406  TIP3      10767           0.0000000000
     83815     12127  TIP3      H1              8.9080687856        8.1518086596      -78.0372276655  TIP3      10767           0.0000000000
     83816     12127  TIP3      H2              8.2007065387        6.9339895225      -78.5342123911  TIP3      10767           0.0000000000
     83817     12128  TIP3      OH2             1.0249473587       10.4780265260      -74.2784600334  TIP3      10768           0.0000000000
     83818     12128  TIP3      H1              0.7091338209        9.6834410462      -74.7191594485  TIP3      10768           0.0000000000
     83819     12128  TIP3      H2              1.9857965429       10.4001917806      -74.2865848258  TIP3      10768           0.0000000000
     83820     12129  TIP3      OH2             8.8580546168       14.5727842925      -75.9396926102  TIP3      10769           0.0000000000
     83821     12129  TIP3      H1              9.2197030121       13.7443534395      -76.2502771473  TIP3      10769           0.0000000000
     83822     12129  TIP3      H2              8.4129106463       14.2992879734      -75.1251731487  TIP3      10769           0.0000000000
     83823     12130  TIP3      OH2            14.7015686877        0.5184253443      -73.2000109911  TIP3      10770           0.0000000000
     83824     12130  TIP3      H1             14.9144305576        1.1123555828      -72.4464205915  TIP3      10770           0.0000000000
     83825     12130  TIP3      H2             15.2691869271        0.8981299490      -73.8902305141  TIP3      10770           0.0000000000
     83826     12131  TIP3      OH2             9.3574364395        3.2684063905      -73.6368198822  TIP3      10771           0.0000000000
     83827     12131  TIP3      H1              9.3995796806        2.3150132705      -73.7218397033  TIP3      10771           0.0000000000
     83828     12131  TIP3      H2              9.1910743211        3.4994196809      -74.5773356297  TIP3      10771           0.0000000000
     83829     12132  TIP3      OH2            15.1675740849        1.9066533870      -70.9543328979  TIP3      10772           0.0000000000
     83830     12132  TIP3      H1             14.5372823965        2.6577870605      -71.0684201578  TIP3      10772           0.0000000000
     83831     12132  TIP3      H2             15.1905234137        1.8172461615      -69.9953539401  TIP3      10772           0.0000000000
     83832     12133  TIP3      OH2            11.8999551611        0.8274276160      -76.0269284416  TIP3      10773           0.0000000000
     83833     12133  TIP3      H1             11.7561694624        0.0214952315      -75.5334488507  TIP3      10773           0.0000000000
     83834     12133  TIP3      H2             12.6072076851        1.2889175546      -75.5465933047  TIP3      10773           0.0000000000
     83835     12134  TIP3      OH2            -1.6973831290        9.5737263188      -80.5113440524  TIP3      10774           0.0000000000
     83836     12134  TIP3      H1             -1.8971622684        9.8840066676      -81.4115725800  TIP3      10774           0.0000000000
     83837     12134  TIP3      H2             -1.5637550748       10.4229470235      -80.0381604136  TIP3      10774           0.0000000000
     83838     12135  TIP3      OH2            12.2863257557       -0.4881703702      -72.3220951012  TIP3      10775           0.0000000000
     83839     12135  TIP3      H1             11.5659149067        0.1289850668      -72.4358886982  TIP3      10775           0.0000000000
     83840     12135  TIP3      H2             12.9824911116       -0.1025353647      -72.9047550988  TIP3      10775           0.0000000000
     83841     12136  TIP3      OH2             7.5873836558        6.4725899666      -80.3724157299  TIP3      10776           0.0000000000
     83842     12136  TIP3      H1              6.8843803120        7.0306992673      -80.7519921402  TIP3      10776           0.0000000000
     83843     12136  TIP3      H2              8.2662743945        6.5377138995      -81.0585494117  TIP3      10776           0.0000000000
     83844     12137  TIP3      OH2            14.8949141693        5.8597559436      -72.1292617617  TIP3      10777           0.0000000000
     83845     12137  TIP3      H1             14.2771550636        6.5832388709      -72.0832443842  TIP3      10777           0.0000000000
     83846     12137  TIP3      H2             15.4165515403        6.0726804709      -72.9346364727  TIP3      10777           0.0000000000
     83847     12138  TIP3      OH2            10.9969415121        6.6541105173      -79.4730674345  TIP3      10778           0.0000000000
     83848     12138  TIP3      H1             10.2542836300        6.8824696893      -78.8794180248  TIP3      10778           0.0000000000
     83849     12138  TIP3      H2             11.4448679264        5.9235716790      -79.0131813996  TIP3      10778           0.0000000000
     83850     12139  TIP3      OH2            10.9718178472        4.8561347299      -70.4314825882  TIP3      10779           0.0000000000
     83851     12139  TIP3      H1             10.9413545061        5.5804571362      -69.7922305278  TIP3      10779           0.0000000000
     83852     12139  TIP3      H2             10.2672995284        5.0653842557      -71.0631368652  TIP3      10779           0.0000000000
     83853     12140  TIP3      OH2             3.8740774876       10.4493547250      -69.2904099929  TIP3      10780           0.0000000000
     83854     12140  TIP3      H1              3.5454812699       11.1873776079      -68.7560232697  TIP3      10780           0.0000000000
     83855     12140  TIP3      H2              3.1563030178       10.3072856126      -69.9206495486  TIP3      10780           0.0000000000
     83856     12141  TIP3      OH2            13.5721668221       -2.3861014857      -81.9058176030  TIP3      10781           0.0000000000
     83857     12141  TIP3      H1             12.6356151978       -2.3070312577      -81.7190673996  TIP3      10781           0.0000000000
     83858     12141  TIP3      H2             13.7859783070       -1.5627082472      -82.3833400226  TIP3      10781           0.0000000000
     83859     12142  TIP3      OH2            -2.3413750846        8.7302631590      -71.0787930597  TIP3      10782           0.0000000000
     83860     12142  TIP3      H1             -2.8123517478        8.6763865883      -71.9234917656  TIP3      10782           0.0000000000
     83861     12142  TIP3      H2             -2.2376996297        7.7831163812      -70.8514799840  TIP3      10782           0.0000000000
     83862     12143  TIP3      OH2            -2.5622611922       11.4317173696      -74.2395661857  TIP3      10783           0.0000000000
     83863     12143  TIP3      H1             -1.6014537825       11.3953281661      -74.3254148809  TIP3      10783           0.0000000000
     83864     12143  TIP3      H2             -2.6438764426       12.2753631185      -73.7780040524  TIP3      10783           0.0000000000
     83865     12144  TIP3      OH2            15.6774492094       12.1967579031      -68.6030465330  TIP3      10784           0.0000000000
     83866     12144  TIP3      H1             15.5600235274       11.2399325808      -68.6158381094  TIP3      10784           0.0000000000
     83867     12144  TIP3      H2             14.8062977730       12.4371578498      -68.2003940730  TIP3      10784           0.0000000000
     83868     12145  TIP3      OH2             6.3786007492       11.8219627055      -69.7993360991  TIP3      10785           0.0000000000
     83869     12145  TIP3      H1              6.6425654779       12.5423841451      -69.2114310721  TIP3      10785           0.0000000000
     83870     12145  TIP3      H2              5.6391472077       11.3627619996      -69.3976497628  TIP3      10785           0.0000000000
     83871     12146  TIP3      OH2             7.1031319643       15.4848354821      -79.9193213136  TIP3      10786           0.0000000000
     83872     12146  TIP3      H1              6.9872044813       15.3938793900      -80.8715584856  TIP3      10786           0.0000000000
     83873     12146  TIP3      H2              7.0827295450       16.4443112375      -79.7699947429  TIP3      10786           0.0000000000
     83874     12147  TIP3      OH2            12.8242602344        3.6749870300      -68.1289006838  TIP3      10787           0.0000000000
     83875     12147  TIP3      H1             12.3362115471        4.1142066435      -68.8408673871  TIP3      10787           0.0000000000
     83876     12147  TIP3      H2             12.8089280151        2.7516923147      -68.4150383676  TIP3      10787           0.0000000000
     83877     12148  TIP3      OH2            -0.0303708080       10.0814337734      -70.1162604779  TIP3      10788           0.0000000000
     83878     12148  TIP3      H1              0.1859340080        9.6572716080      -69.2591511788  TIP3      10788           0.0000000000
     83879     12148  TIP3      H2             -0.8844889254        9.6685401758      -70.3459873003  TIP3      10788           0.0000000000
     83880     12149  TIP3      OH2             8.2110557549        4.1062575377      -79.2500982413  TIP3      10789           0.0000000000
     83881     12149  TIP3      H1              7.7807575744        4.9153197922      -79.5996624658  TIP3      10789           0.0000000000
     83882     12149  TIP3      H2              8.8953764371        3.9718079561      -79.9119162785  TIP3      10789           0.0000000000
     83883     12150  TIP3      OH2             7.2972178243        4.3341962755      -67.7964713149  TIP3      10790           0.0000000000
     83884     12150  TIP3      H1              6.7599335885        3.5519798090      -67.5426182264  TIP3      10790           0.0000000000
     83885     12150  TIP3      H2              8.1230336970        4.1674237792      -67.3351455546  TIP3      10790           0.0000000000
     83886     12151  TIP3      OH2             9.2351058570        3.5743041281      -76.4641461230  TIP3      10791           0.0000000000
     83887     12151  TIP3      H1              8.9569842337        4.1625887595      -77.1952186930  TIP3      10791           0.0000000000
     83888     12151  TIP3      H2              9.3490701488        2.7502479606      -76.9525745178  TIP3      10791           0.0000000000
     83889     12152  TIP3      OH2             5.2413366467        1.1185535576      -77.1062367916  TIP3      10792           0.0000000000
     83890     12152  TIP3      H1              4.3328692609        1.2245271624      -76.7987972408  TIP3      10792           0.0000000000
     83891     12152  TIP3      H2              5.7333461652        1.1467784348      -76.2752350918  TIP3      10792           0.0000000000
     83892     12153  TIP3      OH2            12.8697035262       16.0704596801      -67.4274267233  TIP3      10793           0.0000000000
     83893     12153  TIP3      H1             13.1257257068       16.4275767362      -68.3024794241  TIP3      10793           0.0000000000
     83894     12153  TIP3      H2             13.6104908797       16.3698644008      -66.8740544348  TIP3      10793           0.0000000000
     83895     12154  TIP3      OH2             0.5488285200        8.5658550232      -67.9328011621  TIP3      10794           0.0000000000
     83896     12154  TIP3      H1              1.2444316660        8.7447551273      -67.2869248367  TIP3      10794           0.0000000000
     83897     12154  TIP3      H2             -0.2485046599        8.6190507922      -67.3658933551  TIP3      10794           0.0000000000
     83898     12155  TIP3      OH2             6.5222977976        3.8853565970      -75.1544314932  TIP3      10795           0.0000000000
     83899     12155  TIP3      H1              7.1216555882        3.3775390795      -75.7075338166  TIP3      10795           0.0000000000
     83900     12155  TIP3      H2              6.4322782570        3.4029440082      -74.3484042300  TIP3      10795           0.0000000000
     83901     12156  TIP3      OH2             5.7639489426        8.4356222329      -81.0304447633  TIP3      10796           0.0000000000
     83902     12156  TIP3      H1              4.9363970404        8.0540825084      -81.3489982046  TIP3      10796           0.0000000000
     83903     12156  TIP3      H2              5.5642651604        8.5861606500      -80.0813078277  TIP3      10796           0.0000000000
     83904     12157  TIP3      OH2             0.7345690023        7.8080954738      -75.3393790582  TIP3      10797           0.0000000000
     83905     12157  TIP3      H1              1.5117966368        7.8402550473      -75.9149816859  TIP3      10797           0.0000000000
     83906     12157  TIP3      H2              0.8865454092        7.0084346008      -74.8362008553  TIP3      10797           0.0000000000
     83907     12158  TIP3      OH2            -2.1656350627        6.2883362805      -69.9655322777  TIP3      10798           0.0000000000
     83908     12158  TIP3      H1             -1.9241015038        5.8404112149      -69.1356888305  TIP3      10798           0.0000000000
     83909     12158  TIP3      H2             -2.7548940810        5.6492266449      -70.3906365781  TIP3      10798           0.0000000000
     83910     12159  TIP3      OH2            15.2403066810        3.3755660979      -81.5023263993  TIP3      10799           0.0000000000
     83911     12159  TIP3      H1             14.6587471473        2.9977899904      -82.1768790820  TIP3      10799           0.0000000000
     83912     12159  TIP3      H2             15.2970399945        4.3174006676      -81.7654923931  TIP3      10799           0.0000000000
     83913     12160  TIP3      OH2            15.1870957711        9.2005712455      -68.6607507960  TIP3      10800           0.0000000000
     83914     12160  TIP3      H1             14.3191077851        9.4785404888      -68.9871072263  TIP3      10800           0.0000000000
     83915     12160  TIP3      H2             15.7534927030        9.1894221074      -69.4667287987  TIP3      10800           0.0000000000
     83916     12161  TIP3      OH2             3.2360048255       11.3254069917      -77.8385125308  TIP3      10801           0.0000000000
     83917     12161  TIP3      H1              3.7559683284       12.1013854585      -78.0664480209  TIP3      10801           0.0000000000
     83918     12161  TIP3      H2              2.3606262928       11.5466398110      -78.1824076915  TIP3      10801           0.0000000000
     83919     12162  TIP3      OH2             4.6597401384        8.9727771370      -78.3502745407  TIP3      10802           0.0000000000
     83920     12162  TIP3      H1              4.3826317796        9.9036935207      -78.2367560959  TIP3      10802           0.0000000000
     83921     12162  TIP3      H2              3.9432463003        8.5213058002      -77.8969120488  TIP3      10802           0.0000000000
     83922     12163  TIP3      OH2            11.5694789839       13.8872061783      -69.8296686647  TIP3      10803           0.0000000000
     83923     12163  TIP3      H1             10.9149449142       13.3146537458      -70.2685268464  TIP3      10803           0.0000000000
     83924     12163  TIP3      H2             11.6920701740       14.5454867054      -70.5357421983  TIP3      10803           0.0000000000
     83925     12164  TIP3      OH2            15.4491823187       14.6794070374      -82.9743749178  TIP3      10804           0.0000000000
     83926     12164  TIP3      H1             16.1526129961       15.2918178658      -83.1810811425  TIP3      10804           0.0000000000
     83927     12164  TIP3      H2             14.7107321611       15.2366641862      -82.6664402914  TIP3      10804           0.0000000000
     83928     12165  TIP3      OH2            -0.9506755443       12.7680598805      -71.9649099455  TIP3      10805           0.0000000000
     83929     12165  TIP3      H1             -0.5823818976       11.8786763685      -72.0048385266  TIP3      10805           0.0000000000
     83930     12165  TIP3      H2             -0.6155475937       13.1108512249      -71.1337932861  TIP3      10805           0.0000000000
     83931     12166  TIP3      OH2             0.3391750105        8.1101216799      -81.8348730966  TIP3      10806           0.0000000000
     83932     12166  TIP3      H1             -0.2983173350        8.4785690448      -81.2051359480  TIP3      10806           0.0000000000
     83933     12166  TIP3      H2              0.9307819459        8.8477681930      -82.0259905695  TIP3      10806           0.0000000000
     83934     12167  TIP3      OH2             2.7260133241        0.2608915963      -81.9129620043  TIP3      10807           0.0000000000
     83935     12167  TIP3      H1              2.6877365228        1.1717294847      -81.6327450190  TIP3      10807           0.0000000000
     83936     12167  TIP3      H2              3.6570236731        0.0201990501      -81.7710097087  TIP3      10807           0.0000000000
     83937     12168  TIP3      OH2            12.9641717660        1.0189531773      -69.5429455068  TIP3      10808           0.0000000000
     83938     12168  TIP3      H1             12.0456866905        1.3172586987      -69.6409526263  TIP3      10808           0.0000000000
     83939     12168  TIP3      H2             13.2654192061        1.0001083935      -70.4667888347  TIP3      10808           0.0000000000
     83940     12169  TIP3      OH2            11.5652548304        4.8008299699      -75.5020640971  TIP3      10809           0.0000000000
     83941     12169  TIP3      H1             10.7220274923        4.3897146857      -75.7776318672  TIP3      10809           0.0000000000
     83942     12169  TIP3      H2             12.0119779720        4.0796629045      -75.0072666792  TIP3      10809           0.0000000000
     83943     12170  TIP3      OH2            -0.9494492414       12.0933043043      -78.9372563579  TIP3      10810           0.0000000000
     83944     12170  TIP3      H1             -1.7865073108       12.5696740940      -78.9217633182  TIP3      10810           0.0000000000
     83945     12170  TIP3      H2             -0.4556520199       12.6060522863      -79.5816685301  TIP3      10810           0.0000000000
     83946     12171  TIP3      OH2            -1.7121082604       14.7543058147      -67.5938090688  TIP3      10811           0.0000000000
     83947     12171  TIP3      H1             -1.1113778797       14.5436496002      -66.8548573115  TIP3      10811           0.0000000000
     83948     12171  TIP3      H2             -2.1236602319       13.8944224317      -67.7970502535  TIP3      10811           0.0000000000
     83949     12172  TIP3      OH2             2.9424488452       13.6374443274      -65.9697153181  TIP3      10812           0.0000000000
     83950     12172  TIP3      H1              3.7458153472       13.1914845948      -65.6758320381  TIP3      10812           0.0000000000
     83951     12172  TIP3      H2              2.9483611378       13.4176768817      -66.9046459771  TIP3      10812           0.0000000000
     83952     12173  TIP3      OH2            -1.8177343496        8.4918479914      -66.6194614719  TIP3      10813           0.0000000000
     83953     12173  TIP3      H1             -1.5937406936        7.6158676727      -66.9945541057  TIP3      10813           0.0000000000
     83954     12173  TIP3      H2             -2.5326474499        8.7868420518      -67.2120490880  TIP3      10813           0.0000000000
     83955     12174  TIP3      OH2             4.8297923409        8.4836135199      -67.1834585408  TIP3      10814           0.0000000000
     83956     12174  TIP3      H1              4.6010777350        8.7973733089      -68.0792200040  TIP3      10814           0.0000000000
     83957     12174  TIP3      H2              5.1067064435        7.5738137741      -67.3454934909  TIP3      10814           0.0000000000
     83958     12175  TIP3      OH2            -0.9051426418        5.7186410643      -67.2333508151  TIP3      10815           0.0000000000
     83959     12175  TIP3      H1             -0.4894397054        4.8602064364      -67.3575715114  TIP3      10815           0.0000000000
     83960     12175  TIP3      H2             -1.1374392695        5.7414343953      -66.2837414717  TIP3      10815           0.0000000000
     83961     12176  TIP3      OH2             8.0768773905        7.2309604831      -66.4894999327  TIP3      10816           0.0000000000
     83962     12176  TIP3      H1              9.0276583423        7.2371285585      -66.6362563018  TIP3      10816           0.0000000000
     83963     12176  TIP3      H2              7.9146809874        6.4524459896      -65.9435848662  TIP3      10816           0.0000000000
     83964     12177  TIP3      OH2             9.7385559015        3.6962345724      -66.0457071880  TIP3      10817           0.0000000000
     83965     12177  TIP3      H1              9.9680848065        2.7577813776      -66.1068031650  TIP3      10817           0.0000000000
     83966     12177  TIP3      H2             10.6124694684        4.1161965476      -66.0463151343  TIP3      10817           0.0000000000
     83967     12178  TIP3      OH2            11.0966248512        6.4716309662      -67.9499856937  TIP3      10818           0.0000000000
     83968     12178  TIP3      H1             10.8251463984        7.2515997892      -68.4594366989  TIP3      10818           0.0000000000
     83969     12178  TIP3      H2             12.0690852934        6.4700168913      -68.0834211499  TIP3      10818           0.0000000000
     83970     12179  TIP3      OH2             5.8818019724        2.2178420975      -67.2161072932  TIP3      10819           0.0000000000
     83971     12179  TIP3      H1              5.5836420929        1.9557086565      -66.3346017976  TIP3      10819           0.0000000000
     83972     12179  TIP3      H2              5.1332867509        2.0028520458      -67.7838078469  TIP3      10819           0.0000000000
     83973     12180  TIP3      OH2            10.2699784402       -0.0343444582      -66.1643053128  TIP3      10820           0.0000000000
     83974     12180  TIP3      H1             10.1117157171       -0.9832929537      -66.2150951964  TIP3      10820           0.0000000000
     83975     12180  TIP3      H2              9.8785171292        0.2653535363      -65.3195257105  TIP3      10820           0.0000000000
     83976     12181  TIP3      OH2            -0.0225334335        1.2519498163      -67.1729317786  TIP3      10821           0.0000000000
     83977     12181  TIP3      H1              0.1874841864        0.5057750179      -67.7624003786  TIP3      10821           0.0000000000
     83978     12181  TIP3      H2             -0.1120255449        0.8158281644      -66.3038485633  TIP3      10821           0.0000000000
     83979     12182  TIP3      OH2             4.8062648794       -2.7344621677      -68.1593324206  TIP3      10822           0.0000000000
     83980     12182  TIP3      H1              5.5060903219       -3.4235909412      -68.1811049136  TIP3      10822           0.0000000000
     83981     12182  TIP3      H2              4.6537917698       -2.5556551075      -69.0840345161  TIP3      10822           0.0000000000
     83982     12183  TIP3      OH2             5.1746561511       -1.1238486994      -66.1024225042  TIP3      10823           0.0000000000
     83983     12183  TIP3      H1              5.0231622824       -1.6049954724      -66.9510510572  TIP3      10823           0.0000000000
     83984     12183  TIP3      H2              4.6043802389       -0.3428903735      -66.1977280270  TIP3      10823           0.0000000000
     83985     12184  TIP3      OH2            -1.7671436703       10.3897679437      -83.4400246665  TIP3      10824           0.0000000000
     83986     12184  TIP3      H1             -0.8255036793       10.4793844769      -83.2245415823  TIP3      10824           0.0000000000
     83987     12184  TIP3      H2             -1.7259574927        9.7396413455      -84.1555798577  TIP3      10824           0.0000000000
     83988     12185  TIP3      OH2            14.8575721646       14.2902282919      -70.6483998537  TIP3      10825           0.0000000000
     83989     12185  TIP3      H1             14.4854706968       13.5292129349      -71.1079297103  TIP3      10825           0.0000000000
     83990     12185  TIP3      H2             15.4303956997       13.8392326800      -70.0095506188  TIP3      10825           0.0000000000
     83991     12186  TIP3      OH2            13.3541212083       10.0176293188      -66.0830559269  TIP3      10826           0.0000000000
     83992     12186  TIP3      H1             12.4699515054        9.9869368609      -65.6643657181  TIP3      10826           0.0000000000
     83993     12186  TIP3      H2             13.7305102361       10.7948779449      -65.6105076803  TIP3      10826           0.0000000000
     83994     12187  TIP3      OH2            15.2524530801        6.2012158194      -82.2523793296  TIP3      10827           0.0000000000
     83995     12187  TIP3      H1             14.7677767136        6.5763471855      -83.0012888116  TIP3      10827           0.0000000000
     83996     12187  TIP3      H2             15.2899534493        6.9330672476      -81.6337682918  TIP3      10827           0.0000000000
     83997     12188  TIP3      OH2            12.8685279540        4.9087360918      -78.1843700243  TIP3      10828           0.0000000000
     83998     12188  TIP3      H1             12.6939793758        3.9502450508      -78.2190369899  TIP3      10828           0.0000000000
     83999     12188  TIP3      H2             12.5299123282        5.1194302855      -77.3031691201  TIP3      10828           0.0000000000
     84000     12189  TIP3      OH2            -2.1067134910        6.9317053018      -74.1145081940  TIP3      10829           0.0000000000
     84001     12189  TIP3      H1             -1.9435769711        6.8850926248      -75.0692673634  TIP3      10829           0.0000000000
     84002     12189  TIP3      H2             -1.2311962324        6.8537356058      -73.7377731169  TIP3      10829           0.0000000000
     84003     12190  TIP3      OH2            13.7050710619        6.8861466647      -68.5423784029  TIP3      10830           0.0000000000
     84004     12190  TIP3      H1             14.3006642040        6.1262672257      -68.3292383214  TIP3      10830           0.0000000000
     84005     12190  TIP3      H2             14.3180142435        7.6470006169      -68.4570964289  TIP3      10830           0.0000000000
     84006     12191  TIP3      OH2            15.2048557281        4.7588067044      -67.8442542991  TIP3      10831           0.0000000000
     84007     12191  TIP3      H1             14.3355310101        4.3212581874      -67.9491380035  TIP3      10831           0.0000000000
     84008     12191  TIP3      H2             15.7953165392        3.9868621997      -67.8858695281  TIP3      10831           0.0000000000
     84009     12192  TIP3      OH2            12.5907974405        2.5003877624      -79.6255301501  TIP3      10832           0.0000000000
     84010     12192  TIP3      H1             12.8180523146        1.5561474281      -79.5993741559  TIP3      10832           0.0000000000
     84011     12192  TIP3      H2             13.3209179066        2.8834635656      -80.1072459560  TIP3      10832           0.0000000000
     84012     12193  TIP3      OH2            13.1514819935        3.0127104054      -74.2470474817  TIP3      10833           0.0000000000
     84013     12193  TIP3      H1             14.1106125120        3.2417871703      -74.2763331008  TIP3      10833           0.0000000000
     84014     12193  TIP3      H2             12.9713907075        3.1549676778      -73.3116582818  TIP3      10833           0.0000000000
     84015     12194  TIP3      OH2            13.2077398820        3.7284949030      -71.4681794111  TIP3      10834           0.0000000000
     84016     12194  TIP3      H1             12.3449270322        4.0550635289      -71.1444261016  TIP3      10834           0.0000000000
     84017     12194  TIP3      H2             13.6771528940        4.5603833315      -71.6991912135  TIP3      10834           0.0000000000
     84018     12195  TIP3      OH2            -2.5410341640        2.2971739287      -67.8708389548  TIP3      10835           0.0000000000
     84019     12195  TIP3      H1             -1.5907951701        2.0841607707      -67.7656702349  TIP3      10835           0.0000000000
     84020     12195  TIP3      H2             -2.9658656498        1.4408018531      -67.6620438350  TIP3      10835           0.0000000000
     84021     12196  TIP3      OH2            15.4582659891       -2.2269982789      -66.1680959813  TIP3      10836           0.0000000000
     84022     12196  TIP3      H1             15.9258966536       -2.8573434513      -66.7168319240  TIP3      10836           0.0000000000
     84023     12196  TIP3      H2             15.6136014714       -1.3749448691      -66.6219196938  TIP3      10836           0.0000000000
     84024     12197  TIP3      OH2            13.1766720905       -0.2571901778      -79.6372840652  TIP3      10837           0.0000000000
     84025     12197  TIP3      H1             13.4055036633       -0.6929674896      -78.7992971404  TIP3      10837           0.0000000000
     84026     12197  TIP3      H2             12.6234640616       -0.8751018265      -80.1258223230  TIP3      10837           0.0000000000
     84027     12198  TIP3      OH2            -3.0481374315        3.5890957509      -74.1263356006  TIP3      10838           0.0000000000
     84028     12198  TIP3      H1             -2.4796179888        3.3194809954      -74.8545398616  TIP3      10838           0.0000000000
     84029     12198  TIP3      H2             -2.6272577817        4.3784050885      -73.7662430676  TIP3      10838           0.0000000000
     84030     12199  TIP3      OH2            14.9973285207       -0.1396085604      -67.7608171846  TIP3      10839           0.0000000000
     84031     12199  TIP3      H1             14.0735516613        0.1829175541      -67.7981420861  TIP3      10839           0.0000000000
     84032     12199  TIP3      H2             15.0768376357       -0.6145609725      -68.5987663999  TIP3      10839           0.0000000000
     84033     12200  TIP3      OH2            15.0674347118       -0.2138040825      -83.0267564323  TIP3      10840           0.0000000000
     84034     12200  TIP3      H1             15.4318636342       -0.8778545376      -83.6205329378  TIP3      10840           0.0000000000
     84035     12200  TIP3      H2             15.7229010550        0.4940224384      -83.0784725370  TIP3      10840           0.0000000000
     84036     12201  TIP3      OH2            -2.7487821686       -1.5380538644      -71.7059724307  TIP3      10841           0.0000000000
     84037     12201  TIP3      H1             -3.3835355686       -1.6727488397      -70.9825413925  TIP3      10841           0.0000000000
     84038     12201  TIP3      H2             -3.1873717099       -0.8408531255      -72.2292447276  TIP3      10841           0.0000000000
     84039     12202  TIP3      OH2            -0.4936507257       11.6586668390      -67.4927456871  TIP3      10842           0.0000000000
     84040     12202  TIP3      H1             -1.3135045953       11.9008452137      -67.9547272056  TIP3      10842           0.0000000000
     84041     12202  TIP3      H2             -0.7799166999       11.6206125720      -66.5745758300  TIP3      10842           0.0000000000
     84042     12203  TIP3      OH2             9.0676965118       15.3695379004      -69.0715051789  TIP3      10843           0.0000000000
     84043     12203  TIP3      H1              9.7854846565       14.7581098374      -69.2535905188  TIP3      10843           0.0000000000
     84044     12203  TIP3      H2              9.3859284398       15.7936565202      -68.2465543875  TIP3      10843           0.0000000000
     84045     12204  TIP3      OH2            13.9972233769       -2.0878109699      -69.9054972549  TIP3      10844           0.0000000000
     84046     12204  TIP3      H1             13.2397055512       -1.6679767471      -70.3528092439  TIP3      10844           0.0000000000
     84047     12204  TIP3      H2             14.2243463428       -2.7816948102      -70.5626340928  TIP3      10844           0.0000000000
     84048     12205  TIP3      OH2            -0.1068602765       15.9787358911      -71.1368049510  TIP3      10845           0.0000000000
     84049     12205  TIP3      H1             -0.8312160820       16.3865200498      -71.6403289967  TIP3      10845           0.0000000000
     84050     12205  TIP3      H2             -0.5168105118       15.7021200767      -70.3191512797  TIP3      10845           0.0000000000
     84051     12206  TIP3      OH2            11.9004906336       15.7869841030      -71.7469459911  TIP3      10846           0.0000000000
     84052     12206  TIP3      H1             11.8113764167       16.7472543139      -71.9545178340  TIP3      10846           0.0000000000
     84053     12206  TIP3      H2             12.1200756277       15.4670296694      -72.6267366512  TIP3      10846           0.0000000000
     84054     12207  TIP3      OH2            -0.3069246956       -2.0809250516      -77.6294551407  TIP3      10847           0.0000000000
     84055     12207  TIP3      H1             -0.9799508300       -2.2090621701      -78.2977717658  TIP3      10847           0.0000000000
     84056     12207  TIP3      H2              0.2946243963       -2.8195488547      -77.8174743887  TIP3      10847           0.0000000000
     84057     12208  TIP3      OH2            -1.4252303274       -2.1894560375      -82.0658265011  TIP3      10848           0.0000000000
     84058     12208  TIP3      H1             -0.9535964874       -1.5378870989      -82.5964613171  TIP3      10848           0.0000000000
     84059     12208  TIP3      H2             -2.0100958515       -1.6412241974      -81.5269262696  TIP3      10848           0.0000000000
     84060     12209  TIP3      OH2             4.3221742915       -2.0765447310      -77.9964828416  TIP3      10849           0.0000000000
     84061     12209  TIP3      H1              5.1561438461       -1.6003881929      -78.0372948897  TIP3      10849           0.0000000000
     84062     12209  TIP3      H2              4.1779416033       -2.2033371740      -77.0608740265  TIP3      10849           0.0000000000
     84063     12210  TIP3      OH2            -1.4877767498       13.7710522809      -81.0905556434  TIP3      10850           0.0000000000
     84064     12210  TIP3      H1             -2.1757990673       13.7504446510      -81.7826313970  TIP3      10850           0.0000000000
     84065     12210  TIP3      H2             -1.4985484639       14.6933233704      -80.8297464459  TIP3      10850           0.0000000000
     84066     12211  TIP3      OH2             5.4524773156        0.0875654260      -81.1280598454  TIP3      10851           0.0000000000
     84067     12211  TIP3      H1              5.6592557536       -0.5665113978      -80.4514001948  TIP3      10851           0.0000000000
     84068     12211  TIP3      H2              5.4490546063        0.9306675568      -80.6711400681  TIP3      10851           0.0000000000
     84069     12212  TIP3      OH2            -0.3062267689       -1.4141111479      -68.2938880069  TIP3      10852           0.0000000000
     84070     12212  TIP3      H1             -0.6886298676       -2.2203082797      -67.9050066807  TIP3      10852           0.0000000000
     84071     12212  TIP3      H2              0.6032875001       -1.4506301002      -67.9395986535  TIP3      10852           0.0000000000
     84072     12213  TIP3      OH2             1.7168724073       -2.0339003461      -66.6839483177  TIP3      10853           0.0000000000
     84073     12213  TIP3      H1              2.5904605635       -2.3970891493      -66.9330987868  TIP3      10853           0.0000000000
     84074     12213  TIP3      H2              1.3098711055       -2.8236868549      -66.2662280078  TIP3      10853           0.0000000000
     84075     12214  TIP3      OH2            13.3004422796       13.3074487686      -67.8423674485  TIP3      10854           0.0000000000
     84076     12214  TIP3      H1             12.5371546260       13.1673901033      -68.4472292699  TIP3      10854           0.0000000000
     84077     12214  TIP3      H2             13.1925622790       14.2683562788      -67.6873464611  TIP3      10854           0.0000000000
     84078     12215  TIP3      OH2            18.9608460768        6.1038350298      -72.8693184095  TIP3      10855           0.0000000000
     84079     12215  TIP3      H1             19.0518400845        5.4228426332      -72.1697361939  TIP3      10855           0.0000000000
     84080     12215  TIP3      H2             19.7034476541        6.6864893794      -72.6567029822  TIP3      10855           0.0000000000
     84081     12216  TIP3      OH2            19.9012987228       10.5689329528      -74.4118274490  TIP3      10856           0.0000000000
     84082     12216  TIP3      H1             19.5500829859        9.7032068362      -74.6950485079  TIP3      10856           0.0000000000
     84083     12216  TIP3      H2             20.8451830836       10.3527376604      -74.3060323443  TIP3      10856           0.0000000000
     84084     12217  TIP3      OH2            16.5439356030        4.2072008901      -78.9778698517  TIP3      10857           0.0000000000
     84085     12217  TIP3      H1             16.0382698871        5.0224741705      -78.8937508755  TIP3      10857           0.0000000000
     84086     12217  TIP3      H2             15.9421281344        3.5985693774      -79.4340266181  TIP3      10857           0.0000000000
     84087     12218  TIP3      OH2            17.2745447516        6.3388281390      -76.7204950466  TIP3      10858           0.0000000000
     84088     12218  TIP3      H1             17.5007502380        5.5134146223      -76.2650071778  TIP3      10858           0.0000000000
     84089     12218  TIP3      H2             17.9594073495        6.4336337339      -77.3881496893  TIP3      10858           0.0000000000
     84090     12219  TIP3      OH2            27.3792526966       14.5191412211      -75.9163637762  TIP3      10859           0.0000000000
     84091     12219  TIP3      H1             28.0406616250       13.8451346257      -76.2052904284  TIP3      10859           0.0000000000
     84092     12219  TIP3      H2             27.2199731933       14.2270740052      -75.0222101305  TIP3      10859           0.0000000000
     84093     12220  TIP3      OH2            24.9724700805        8.8367489044      -73.9887067850  TIP3      10860           0.0000000000
     84094     12220  TIP3      H1             25.3144832412        8.2399258325      -74.6602550148  TIP3      10860           0.0000000000
     84095     12220  TIP3      H2             25.7470704582        9.0045769882      -73.4253733269  TIP3      10860           0.0000000000
     84096     12221  TIP3      OH2            21.2805005116        1.3882749224      -76.4302115301  TIP3      10861           0.0000000000
     84097     12221  TIP3      H1             21.3425368612        2.2425566547      -76.8930645505  TIP3      10861           0.0000000000
     84098     12221  TIP3      H2             20.8425486122        0.8199655018      -77.1033281039  TIP3      10861           0.0000000000
     84099     12222  TIP3      OH2            29.0226014630        1.4673502128      -78.1052466708  TIP3      10862           0.0000000000
     84100     12222  TIP3      H1             29.6399656890        1.1930410623      -77.3965613731  TIP3      10862           0.0000000000
     84101     12222  TIP3      H2             29.5640733702        2.0413381811      -78.6591933199  TIP3      10862           0.0000000000
     84102     12223  TIP3      OH2            17.8996586338        3.8004843492      -75.6867738159  TIP3      10863           0.0000000000
     84103     12223  TIP3      H1             18.5660041889        3.2447788637      -75.2332669700  TIP3      10863           0.0000000000
     84104     12223  TIP3      H2             17.9810181070        3.4882108189      -76.5999259867  TIP3      10863           0.0000000000
     84105     12224  TIP3      OH2            23.0592991730        5.3609169136      -76.4218117989  TIP3      10864           0.0000000000
     84106     12224  TIP3      H1             23.6847449593        4.7857750774      -75.9710423023  TIP3      10864           0.0000000000
     84107     12224  TIP3      H2             22.4976850525        4.7012790324      -76.8821031788  TIP3      10864           0.0000000000
     84108     12225  TIP3      OH2            20.1660321870        0.2970135716      -72.3905440320  TIP3      10865           0.0000000000
     84109     12225  TIP3      H1             19.8879006590        0.8679944679      -73.1310260803  TIP3      10865           0.0000000000
     84110     12225  TIP3      H2             19.4953723619        0.5266285530      -71.7103946989  TIP3      10865           0.0000000000
     84111     12226  TIP3      OH2            22.7107850708        7.9225481258      -72.1356429547  TIP3      10866           0.0000000000
     84112     12226  TIP3      H1             21.9883026872        8.5572182313      -71.9336903069  TIP3      10866           0.0000000000
     84113     12226  TIP3      H2             23.3988530184        8.5400290732      -72.4154930141  TIP3      10866           0.0000000000
     84114     12227  TIP3      OH2            30.8350565894        0.7525065203      -76.0749786504  TIP3      10867           0.0000000000
     84115     12227  TIP3      H1             30.5656430128        0.0377361015      -75.5010489964  TIP3      10867           0.0000000000
     84116     12227  TIP3      H2             31.4319480928        1.2945632635      -75.5353024541  TIP3      10867           0.0000000000
     84117     12228  TIP3      OH2            19.7017492355        2.1818591186      -74.3958625024  TIP3      10868           0.0000000000
     84118     12228  TIP3      H1             20.3522212540        2.8284103574      -74.0314518174  TIP3      10868           0.0000000000
     84119     12228  TIP3      H2             20.2613359782        1.7415901035      -75.0801858483  TIP3      10868           0.0000000000
     84120     12229  TIP3      OH2            21.1167218795        9.9337539953      -71.3202200769  TIP3      10869           0.0000000000
     84121     12229  TIP3      H1             21.0815415964       10.8500325402      -71.6645806930  TIP3      10869           0.0000000000
     84122     12229  TIP3      H2             20.2229448990        9.8677374461      -70.8957876791  TIP3      10869           0.0000000000
     84123     12230  TIP3      OH2            31.1469881270       -0.4758025997      -72.4038884944  TIP3      10870           0.0000000000
     84124     12230  TIP3      H1             30.3950018300        0.1301259617      -72.4202727827  TIP3      10870           0.0000000000
     84125     12230  TIP3      H2             31.8078100234       -0.0192509167      -72.9302876113  TIP3      10870           0.0000000000
     84126     12231  TIP3      OH2            29.1042506969       12.9888429518      -77.1383841839  TIP3      10871           0.0000000000
     84127     12231  TIP3      H1             29.5111309732       12.3150434433      -77.7032248750  TIP3      10871           0.0000000000
     84128     12231  TIP3      H2             29.4432461914       13.7917299853      -77.5888831481  TIP3      10871           0.0000000000
     84129     12232  TIP3      OH2            30.3198191462       10.9105952712      -78.6619221333  TIP3      10872           0.0000000000
     84130     12232  TIP3      H1             30.0104656196       10.2328716580      -79.2727821788  TIP3      10872           0.0000000000
     84131     12232  TIP3      H2             30.3435747744       10.4620978786      -77.8098650858  TIP3      10872           0.0000000000
     84132     12233  TIP3      OH2            29.7563965915        4.8271056865      -70.3645033765  TIP3      10873           0.0000000000
     84133     12233  TIP3      H1             29.7773588979        5.6347369554      -69.8281210296  TIP3      10873           0.0000000000
     84134     12233  TIP3      H2             29.1253540206        5.0803636206      -71.0564855753  TIP3      10873           0.0000000000
     84135     12234  TIP3      OH2            21.4265852066        7.2887425470      -77.5811440957  TIP3      10874           0.0000000000
     84136     12234  TIP3      H1             21.1392801076        6.9090414064      -78.4408594845  TIP3      10874           0.0000000000
     84137     12234  TIP3      H2             22.0526655010        6.6192562058      -77.2383883061  TIP3      10874           0.0000000000
     84138     12235  TIP3      OH2            22.7873708672       10.6665246271      -74.8681263123  TIP3      10875           0.0000000000
     84139     12235  TIP3      H1             22.7482522191       10.1652878618      -75.6963784736  TIP3      10875           0.0000000000
     84140     12235  TIP3      H2             23.5821660360       10.3085687475      -74.4400367555  TIP3      10875           0.0000000000
     84141     12236  TIP3      OH2            21.8138494320        6.0386969229      -73.9223313212  TIP3      10876           0.0000000000
     84142     12236  TIP3      H1             22.3783395513        6.1544514046      -74.7037868616  TIP3      10876           0.0000000000
     84143     12236  TIP3      H2             22.1706102183        6.6991838595      -73.2953010548  TIP3      10876           0.0000000000
     84144     12237  TIP3      OH2            28.1404129053       11.6058974954      -73.2304901190  TIP3      10877           0.0000000000
     84145     12237  TIP3      H1             27.9198676472       12.2504054166      -72.5560539533  TIP3      10877           0.0000000000
     84146     12237  TIP3      H2             27.9553336981       10.7562337452      -72.7743959445  TIP3      10877           0.0000000000
     84147     12238  TIP3      OH2            22.7399141800       10.4698366119      -69.2197682067  TIP3      10878           0.0000000000
     84148     12238  TIP3      H1             22.3352997821       11.2123063370      -68.7290675842  TIP3      10878           0.0000000000
     84149     12238  TIP3      H2             22.0668701924       10.2725143192      -69.9134496520  TIP3      10878           0.0000000000
     84150     12239  TIP3      OH2            19.6699592166        6.6410136768      -70.0572158627  TIP3      10879           0.0000000000
     84151     12239  TIP3      H1             19.7264609040        7.2965617156      -69.3356332971  TIP3      10879           0.0000000000
     84152     12239  TIP3      H2             18.7286615070        6.7364287724      -70.2737437866  TIP3      10879           0.0000000000
     84153     12240  TIP3      OH2            26.3768106214       12.5354833588      -78.3314033934  TIP3      10880           0.0000000000
     84154     12240  TIP3      H1             26.8864891477       12.8715608027      -77.5847361824  TIP3      10880           0.0000000000
     84155     12240  TIP3      H2             25.8893187952       13.3147810411      -78.6150430241  TIP3      10880           0.0000000000
     84156     12241  TIP3      OH2            20.9893625583       12.5075186066      -68.4680361767  TIP3      10881           0.0000000000
     84157     12241  TIP3      H1             20.9308040911       12.4036210993      -69.4330975907  TIP3      10881           0.0000000000
     84158     12241  TIP3      H2             20.0589959725       12.3739378658      -68.2009034884  TIP3      10881           0.0000000000
     84159     12242  TIP3      OH2            20.4706555693        6.2935711836      -79.9729707378  TIP3      10882           0.0000000000
     84160     12242  TIP3      H1             20.1991855958        7.0854876753      -80.4858434289  TIP3      10882           0.0000000000
     84161     12242  TIP3      H2             19.7799961156        5.6584154846      -80.1799980680  TIP3      10882           0.0000000000
     84162     12243  TIP3      OH2            16.4891901871        8.7378091311      -71.0399049888  TIP3      10883           0.0000000000
     84163     12243  TIP3      H1             16.1210075048        8.6822976452      -71.9385113471  TIP3      10883           0.0000000000
     84164     12243  TIP3      H2             16.5991552923        7.7862090708      -70.8556618378  TIP3      10883           0.0000000000
     84165     12244  TIP3      OH2            34.5290519403       12.1636573547      -68.5460209767  TIP3      10884           0.0000000000
     84166     12244  TIP3      H1             34.3963817770       11.2225370455      -68.6488760602  TIP3      10884           0.0000000000
     84167     12244  TIP3      H2             33.6536403773       12.4419634472      -68.2012163024  TIP3      10884           0.0000000000
     84168     12245  TIP3      OH2            25.4763170076       11.7142643911      -69.7275955379  TIP3      10885           0.0000000000
     84169     12245  TIP3      H1             25.5425000171       12.5617516516      -69.2284276075  TIP3      10885           0.0000000000
     84170     12245  TIP3      H2             24.5950388201       11.3842935586      -69.4833265251  TIP3      10885           0.0000000000
     84171     12246  TIP3      OH2            25.8356184555       15.4820167802      -79.9275203834  TIP3      10886           0.0000000000
     84172     12246  TIP3      H1             25.8747705750       15.3685059966      -80.8839268592  TIP3      10886           0.0000000000
     84173     12246  TIP3      H2             25.9377333900       16.4351526540      -79.7818184556  TIP3      10886           0.0000000000
     84174     12247  TIP3      OH2            19.5327634321       14.3157875585      -78.1309995565  TIP3      10887           0.0000000000
     84175     12247  TIP3      H1             19.7081195395       13.9314973116      -77.2428254815  TIP3      10887           0.0000000000
     84176     12247  TIP3      H2             18.6862856537       13.9322886662      -78.3868739726  TIP3      10887           0.0000000000
     84177     12248  TIP3      OH2            31.5269647476        3.5970602456      -68.0089155981  TIP3      10888           0.0000000000
     84178     12248  TIP3      H1             31.2545897766        4.0757186061      -68.7994174337  TIP3      10888           0.0000000000
     84179     12248  TIP3      H2             31.6753627790        2.7245040365      -68.4022013954  TIP3      10888           0.0000000000
     84180     12249  TIP3      OH2            18.7702002062       10.0861524149      -70.1298508176  TIP3      10889           0.0000000000
     84181     12249  TIP3      H1             19.0023915704        9.7003822292      -69.2592660766  TIP3      10889           0.0000000000
     84182     12249  TIP3      H2             17.9216957819        9.6642119093      -70.3496402066  TIP3      10889           0.0000000000
     84183     12250  TIP3      OH2            21.4861271911       -1.4687652071      -74.1248570780  TIP3      10890           0.0000000000
     84184     12250  TIP3      H1             20.5981218981       -1.5990566859      -74.5321416177  TIP3      10890           0.0000000000
     84185     12250  TIP3      H2             21.3356086524       -0.6228800051      -73.6694375046  TIP3      10890           0.0000000000
     84186     12251  TIP3      OH2            29.4574894828        2.0511033610      -69.9026867164  TIP3      10891           0.0000000000
     84187     12251  TIP3      H1             28.8536004524        1.8100391212      -69.1534261630  TIP3      10891           0.0000000000
     84188     12251  TIP3      H2             29.1760594404        2.9394843157      -70.1531922126  TIP3      10891           0.0000000000
     84189     12252  TIP3      OH2            21.5242152461        3.4919901415      -72.9663397419  TIP3      10892           0.0000000000
     84190     12252  TIP3      H1             20.8481608341        3.4853406347      -72.2699796849  TIP3      10892           0.0000000000
     84191     12252  TIP3      H2             21.5353969420        4.4223967966      -73.2800201217  TIP3      10892           0.0000000000
     84192     12253  TIP3      OH2            21.5318124655        3.6297296674      -78.0556111776  TIP3      10893           0.0000000000
     84193     12253  TIP3      H1             20.5884863197        3.4056070413      -78.1965821238  TIP3      10893           0.0000000000
     84194     12253  TIP3      H2             21.9181203450        3.3335018933      -78.9016764280  TIP3      10893           0.0000000000
     84195     12254  TIP3      OH2            26.1087816587        4.3751280170      -67.7782092050  TIP3      10894           0.0000000000
     84196     12254  TIP3      H1             25.6120561280        3.5525556196      -67.5627993866  TIP3      10894           0.0000000000
     84197     12254  TIP3      H2             26.9705222266        4.1878494155      -67.3869297820  TIP3      10894           0.0000000000
     84198     12255  TIP3      OH2            19.2025438507        3.7649914029      -71.2289203940  TIP3      10895           0.0000000000
     84199     12255  TIP3      H1             19.2836224533        4.1684838217      -70.3484714771  TIP3      10895           0.0000000000
     84200     12255  TIP3      H2             18.7636924893        2.9223452360      -71.0309043902  TIP3      10895           0.0000000000
     84201     12256  TIP3      OH2            15.8614462042        0.9620209398      -77.2824818827  TIP3      10896           0.0000000000
     84202     12256  TIP3      H1             16.5044945214        0.8488152280      -76.5631016719  TIP3      10896           0.0000000000
     84203     12256  TIP3      H2             16.2704355835        0.4748142960      -78.0161978006  TIP3      10896           0.0000000000
     84204     12257  TIP3      OH2            17.1439974353        1.6202225791      -81.8784785768  TIP3      10897           0.0000000000
     84205     12257  TIP3      H1             17.6326192958        2.1987644359      -82.4758484085  TIP3      10897           0.0000000000
     84206     12257  TIP3      H2             16.4357757780        2.2288946630      -81.5726470154  TIP3      10897           0.0000000000
     84207     12258  TIP3      OH2            24.0617455908        1.1532110808      -77.0287895168  TIP3      10898           0.0000000000
     84208     12258  TIP3      H1             23.1374453692        1.1729901313      -76.7304558248  TIP3      10898           0.0000000000
     84209     12258  TIP3      H2             24.5713195757        1.0411888588      -76.2268149117  TIP3      10898           0.0000000000
     84210     12259  TIP3      OH2            18.8966719005        2.7545555097      -78.2140119649  TIP3      10899           0.0000000000
     84211     12259  TIP3      H1             18.0012334332        2.8938970215      -78.5753379716  TIP3      10899           0.0000000000
     84212     12259  TIP3      H2             19.1657784544        1.9006980876      -78.5885293576  TIP3      10899           0.0000000000
     84213     12260  TIP3      OH2            22.5535375628        2.7638465649      -80.5659926637  TIP3      10900           0.0000000000
     84214     12260  TIP3      H1             23.4935118046        2.9084031396      -80.3817315444  TIP3      10900           0.0000000000
     84215     12260  TIP3      H2             22.3112267051        3.4425522146      -81.2239156568  TIP3      10900           0.0000000000
     84216     12261  TIP3      OH2            21.2576689003        3.9102199291      -82.9556251721  TIP3      10901           0.0000000000
     84217     12261  TIP3      H1             20.6900377672        3.6212976352      -83.6851684671  TIP3      10901           0.0000000000
     84218     12261  TIP3      H2             22.0668035205        4.1578081006      -83.4230986944  TIP3      10901           0.0000000000
     84219     12262  TIP3      OH2            19.3920473828        8.5179288755      -67.9115210164  TIP3      10902           0.0000000000
     84220     12262  TIP3      H1             20.0974918043        8.7667631751      -67.2902799322  TIP3      10902           0.0000000000
     84221     12262  TIP3      H2             18.6084034722        8.6112748692      -67.3281742868  TIP3      10902           0.0000000000
     84222     12263  TIP3      OH2            20.4576507462        0.0653887434      -78.6850464268  TIP3      10903           0.0000000000
     84223     12263  TIP3      H1             20.0522911815       -0.8243318190      -78.7230188926  TIP3      10903           0.0000000000
     84224     12263  TIP3      H2             21.2054894384        0.0115558406      -79.2945391714  TIP3      10903           0.0000000000
     84225     12264  TIP3      OH2            26.1016542306        8.7251919753      -69.8210575786  TIP3      10904           0.0000000000
     84226     12264  TIP3      H1             25.7833836121        8.3287896296      -69.0022824274  TIP3      10904           0.0000000000
     84227     12264  TIP3      H2             25.8808118087        9.6592307645      -69.7074368332  TIP3      10904           0.0000000000
     84228     12265  TIP3      OH2            19.7313737245        7.8768665599      -75.2290872753  TIP3      10905           0.0000000000
     84229     12265  TIP3      H1             20.4045919395        7.7907269432      -75.9319896581  TIP3      10905           0.0000000000
     84230     12265  TIP3      H2             19.7802279951        7.0067984349      -74.7927699860  TIP3      10905           0.0000000000
     84231     12266  TIP3      OH2            16.7218983364        6.2787452034      -69.9811735954  TIP3      10906           0.0000000000
     84232     12266  TIP3      H1             16.8965762333        5.8341571385      -69.1297021994  TIP3      10906           0.0000000000
     84233     12266  TIP3      H2             16.0964070323        5.6748411774      -70.4174813277  TIP3      10906           0.0000000000
     84234     12267  TIP3      OH2            23.7246662420        5.8354193243      -67.8059679575  TIP3      10907           0.0000000000
     84235     12267  TIP3      H1             23.4249260642        5.5448339749      -68.6772228569  TIP3      10907           0.0000000000
     84236     12267  TIP3      H2             24.6476183075        5.5038531362      -67.8104205436  TIP3      10907           0.0000000000
     84237     12268  TIP3      OH2            28.4130182422       11.2312051552      -69.9002006680  TIP3      10908           0.0000000000
     84238     12268  TIP3      H1             27.4721022736       11.3356141563      -70.0999049620  TIP3      10908           0.0000000000
     84239     12268  TIP3      H2             28.3850846315       11.4236244488      -68.9433638227  TIP3      10908           0.0000000000
     84240     12269  TIP3      OH2            32.4035906920       12.2041043016      -81.0252103429  TIP3      10909           0.0000000000
     84241     12269  TIP3      H1             31.9964939456       11.3993377014      -80.7002666711  TIP3      10909           0.0000000000
     84242     12269  TIP3      H2             32.6397642013       11.9929106458      -81.9303975862  TIP3      10909           0.0000000000
     84243     12270  TIP3      OH2            22.0579847437       11.3386137590      -77.8068528441  TIP3      10910           0.0000000000
     84244     12270  TIP3      H1             22.6029935862       12.0990949221      -78.0750576372  TIP3      10910           0.0000000000
     84245     12270  TIP3      H2             21.2071652197       11.5782895015      -78.1773201953  TIP3      10910           0.0000000000
     84246     12271  TIP3      OH2            17.8434790293        6.1389200833      -83.2264390749  TIP3      10911           0.0000000000
     84247     12271  TIP3      H1             18.4677161907        6.8241907589      -82.9369290157  TIP3      10911           0.0000000000
     84248     12271  TIP3      H2             16.9796055396        6.4738930830      -82.9815397126  TIP3      10911           0.0000000000
     84249     12272  TIP3      OH2            23.9671879650       13.1896997475      -71.9359825262  TIP3      10912           0.0000000000
     84250     12272  TIP3      H1             24.4237178080       13.9951392516      -72.2251040985  TIP3      10912           0.0000000000
     84251     12272  TIP3      H2             24.5874835741       12.8403355601      -71.2695586039  TIP3      10912           0.0000000000
     84252     12273  TIP3      OH2            22.1641132507       13.9872631927      -78.8076169520  TIP3      10913           0.0000000000
     84253     12273  TIP3      H1             21.2107737129       14.1576325971      -78.6732880808  TIP3      10913           0.0000000000
     84254     12273  TIP3      H2             22.5638492564       14.8132159500      -78.4640203246  TIP3      10913           0.0000000000
     84255     12274  TIP3      OH2            27.5143636127        9.2614107936      -72.2077395689  TIP3      10914           0.0000000000
     84256     12274  TIP3      H1             27.1219895098        8.9981541366      -71.3521427854  TIP3      10914           0.0000000000
     84257     12274  TIP3      H2             28.0989900280        8.5287592927      -72.4256803236  TIP3      10914           0.0000000000
     84258     12275  TIP3      OH2            30.2417744851       13.7827132521      -69.7861323972  TIP3      10915           0.0000000000
     84259     12275  TIP3      H1             29.6131125811       13.2083224644      -70.2776547398  TIP3      10915           0.0000000000
     84260     12275  TIP3      H2             30.4930994894       14.3999662240      -70.4809974171  TIP3      10915           0.0000000000
     84261     12276  TIP3      OH2            18.3573409353        1.0114495863      -70.4119113577  TIP3      10916           0.0000000000
     84262     12276  TIP3      H1             17.4528800056        1.3701730522      -70.4513183141  TIP3      10916           0.0000000000
     84263     12276  TIP3      H2             18.2343235018        0.1525455054      -69.9904096939  TIP3      10916           0.0000000000
     84264     12277  TIP3      OH2            17.9799739494       12.8181593714      -72.0108799080  TIP3      10917           0.0000000000
     84265     12277  TIP3      H1             18.2528907934       11.8901092528      -72.0137528854  TIP3      10917           0.0000000000
     84266     12277  TIP3      H2             18.2156262496       13.0917425578      -71.1214878299  TIP3      10917           0.0000000000
     84267     12278  TIP3      OH2            22.6988623390       10.8826599073      -82.3157831082  TIP3      10918           0.0000000000
     84268     12278  TIP3      H1             22.9908630523       10.3291741744      -81.5774268385  TIP3      10918           0.0000000000
     84269     12278  TIP3      H2             22.8269244840       11.7901454910      -81.9760868731  TIP3      10918           0.0000000000
     84270     12279  TIP3      OH2            19.2168677529        8.1079691824      -81.7860216532  TIP3      10919           0.0000000000
     84271     12279  TIP3      H1             18.5570601970        8.5335819968      -81.2395190685  TIP3      10919           0.0000000000
     84272     12279  TIP3      H2             19.7671819606        8.8585284142      -82.0683335606  TIP3      10919           0.0000000000
     84273     12280  TIP3      OH2            25.4969504374       12.5159385946      -81.5691468852  TIP3      10920           0.0000000000
     84274     12280  TIP3      H1             24.7090563618       13.0623737780      -81.5018710673  TIP3      10920           0.0000000000
     84275     12280  TIP3      H2             26.0620946402       13.0276102998      -82.1582301080  TIP3      10920           0.0000000000
     84276     12281  TIP3      OH2            22.8316239638       13.5663285029      -81.5546763818  TIP3      10921           0.0000000000
     84277     12281  TIP3      H1             23.0593711976       14.3929301820      -82.0369898609  TIP3      10921           0.0000000000
     84278     12281  TIP3      H2             22.6724441236       13.9073637158      -80.6478426822  TIP3      10921           0.0000000000
     84279     12282  TIP3      OH2            21.5578642785        0.2814974758      -81.9273211871  TIP3      10922           0.0000000000
     84280     12282  TIP3      H1             21.5245503313        1.1982489564      -81.6047562464  TIP3      10922           0.0000000000
     84281     12282  TIP3      H2             22.4733099036        0.0520897302      -81.7246380059  TIP3      10922           0.0000000000
     84282     12283  TIP3      OH2            31.8244898775        0.9954222238      -69.5741405676  TIP3      10923           0.0000000000
     84283     12283  TIP3      H1             30.8850293575        1.2909147937      -69.6528945819  TIP3      10923           0.0000000000
     84284     12283  TIP3      H2             32.1242691884        1.0396144679      -70.4814324865  TIP3      10923           0.0000000000
     84285     12284  TIP3      OH2            19.8819991016       10.7233173128      -82.9294409804  TIP3      10924           0.0000000000
     84286     12284  TIP3      H1             20.5212400268       11.3633338548      -82.6019218745  TIP3      10924           0.0000000000
     84287     12284  TIP3      H2             20.3766219628       10.2693825369      -83.6231400891  TIP3      10924           0.0000000000
     84288     12285  TIP3      OH2            18.9798883426       -1.8342640002      -75.0556826249  TIP3      10925           0.0000000000
     84289     12285  TIP3      H1             18.7557355818       -1.8024909833      -76.0102844338  TIP3      10925           0.0000000000
     84290     12285  TIP3      H2             18.5143792155       -2.6487648906      -74.7797918690  TIP3      10925           0.0000000000
     84291     12286  TIP3      OH2            17.1374750774       14.7429179705      -67.5969492836  TIP3      10926           0.0000000000
     84292     12286  TIP3      H1             17.7331656954       14.5379465043      -66.8516643464  TIP3      10926           0.0000000000
     84293     12286  TIP3      H2             16.7150313361       13.8864164058      -67.7847849654  TIP3      10926           0.0000000000
     84294     12287  TIP3      OH2            21.7972652593       13.6620174962      -65.9998547482  TIP3      10927           0.0000000000
     84295     12287  TIP3      H1             22.5707924650       13.1796754994      -65.6820793954  TIP3      10927           0.0000000000
     84296     12287  TIP3      H2             21.7825572704       13.3925440292      -66.9429584951  TIP3      10927           0.0000000000
     84297     12288  TIP3      OH2            28.3044894961       12.0619065482      -67.2663075828  TIP3      10928           0.0000000000
     84298     12288  TIP3      H1             28.0163876222       11.1613169790      -67.0157873541  TIP3      10928           0.0000000000
     84299     12288  TIP3      H2             29.0860221198       12.1694794125      -66.6904547795  TIP3      10928           0.0000000000
     84300     12289  TIP3      OH2            30.5249047381       12.9650828779      -84.4348565978  TIP3      10929           0.0000000000
     84301     12289  TIP3      H1             30.7612629297       12.1698668663      -83.9350254098  TIP3      10929           0.0000000000
     84302     12289  TIP3      H2             31.3047566811       13.1435978867      -84.9538178346  TIP3      10929           0.0000000000
     84303     12290  TIP3      OH2            17.0335188894        8.5069715204      -66.6260049314  TIP3      10930           0.0000000000
     84304     12290  TIP3      H1             17.2216588606        7.6017910604      -66.9439015214  TIP3      10930           0.0000000000
     84305     12290  TIP3      H2             16.3028005054        8.7760904505      -67.2124446164  TIP3      10930           0.0000000000
     84306     12291  TIP3      OH2            23.7488099991        8.5129666355      -67.2190771239  TIP3      10931           0.0000000000
     84307     12291  TIP3      H1             23.4288459696        8.8158864137      -68.0913218076  TIP3      10931           0.0000000000
     84308     12291  TIP3      H2             23.8647862809        7.5418420478      -67.3459758691  TIP3      10931           0.0000000000
     84309     12292  TIP3      OH2            17.9429148161        5.7442295053      -67.2344590088  TIP3      10932           0.0000000000
     84310     12292  TIP3      H1             18.3714028790        4.8858657308      -67.3259055508  TIP3      10932           0.0000000000
     84311     12292  TIP3      H2             17.7286748740        5.7631304311      -66.2823664638  TIP3      10932           0.0000000000
     84312     12293  TIP3      OH2            22.5779884498        6.8801129884      -82.2072915083  TIP3      10933           0.0000000000
     84313     12293  TIP3      H1             22.1258510442        6.3542659053      -81.5401630120  TIP3      10933           0.0000000000
     84314     12293  TIP3      H2             22.8619668111        6.2046103517      -82.8487131147  TIP3      10933           0.0000000000
     84315     12294  TIP3      OH2            21.8571881440        4.7006699329      -69.8618839166  TIP3      10934           0.0000000000
     84316     12294  TIP3      H1             21.2625422479        5.4267022385      -69.6218188342  TIP3      10934           0.0000000000
     84317     12294  TIP3      H2             22.2456276582        5.0506587174      -70.6814426285  TIP3      10934           0.0000000000
     84318     12295  TIP3      OH2            23.6947654232        5.0331981445      -83.9582913469  TIP3      10935           0.0000000000
     84319     12295  TIP3      H1             23.5337800971        4.9539236784      -84.9068399580  TIP3      10935           0.0000000000
     84320     12295  TIP3      H2             24.6414592108        5.2154918621      -83.8994504596  TIP3      10935           0.0000000000
     84321     12296  TIP3      OH2            26.9447065346        7.2220247815      -66.5535835573  TIP3      10936           0.0000000000
     84322     12296  TIP3      H1             27.8962177091        7.2558657368      -66.6308688767  TIP3      10936           0.0000000000
     84323     12296  TIP3      H2             26.7741856881        6.4654684467      -65.9699474626  TIP3      10936           0.0000000000
     84324     12297  TIP3      OH2            22.2883646292        2.0771564100      -68.8343829289  TIP3      10937           0.0000000000
     84325     12297  TIP3      H1             22.3359627120        1.3599634180      -69.4671684783  TIP3      10937           0.0000000000
     84326     12297  TIP3      H2             22.2230169337        2.8898842853      -69.3861888252  TIP3      10937           0.0000000000
     84327     12298  TIP3      OH2            24.2303356388        5.8990616773      -71.0377446756  TIP3      10938           0.0000000000
     84328     12298  TIP3      H1             24.9878720021        5.7703480803      -71.6127190410  TIP3      10938           0.0000000000
     84329     12298  TIP3      H2             23.8593380140        6.7436615114      -71.3475673809  TIP3      10938           0.0000000000
     84330     12299  TIP3      OH2            28.6208933278        3.6918828720      -66.0401548076  TIP3      10939           0.0000000000
     84331     12299  TIP3      H1             28.8334556064        2.7505125797      -66.1365271682  TIP3      10939           0.0000000000
     84332     12299  TIP3      H2             29.5008390744        4.0922583241      -66.0321781601  TIP3      10939           0.0000000000
     84333     12300  TIP3      OH2            20.7474285868        3.2949909998      -66.8764058703  TIP3      10940           0.0000000000
     84334     12300  TIP3      H1             19.9500748541        2.7568092808      -67.0685909499  TIP3      10940           0.0000000000
     84335     12300  TIP3      H2             21.3783386327        2.9446227768      -67.5289232109  TIP3      10940           0.0000000000
     84336     12301  TIP3      OH2            24.7288162075        2.2101400115      -67.2511885052  TIP3      10941           0.0000000000
     84337     12301  TIP3      H1             24.4203842527        1.9819502238      -66.3570180562  TIP3      10941           0.0000000000
     84338     12301  TIP3      H2             23.9446767959        2.0337441449      -67.7968641949  TIP3      10941           0.0000000000
     84339     12302  TIP3      OH2            27.4683398300        1.3993348162      -68.2013849650  TIP3      10942           0.0000000000
     84340     12302  TIP3      H1             26.4998989393        1.4265162915      -68.1057061004  TIP3      10942           0.0000000000
     84341     12302  TIP3      H2             27.6992992268        0.7270561321      -67.5396125080  TIP3      10942           0.0000000000
     84342     12303  TIP3      OH2            29.0572533614       -0.0216887513      -66.2456878490  TIP3      10943           0.0000000000
     84343     12303  TIP3      H1             28.9637027388       -0.9938749467      -66.2438921232  TIP3      10943           0.0000000000
     84344     12303  TIP3      H2             28.7569847316        0.2648900874      -65.3561508341  TIP3      10943           0.0000000000
     84345     12304  TIP3      OH2            18.8117378792        1.2534911793      -67.1657951620  TIP3      10944           0.0000000000
     84346     12304  TIP3      H1             19.0488487931        0.5090471844      -67.7472528711  TIP3      10944           0.0000000000
     84347     12304  TIP3      H2             18.7387199597        0.8177599187      -66.2902464636  TIP3      10944           0.0000000000
     84348     12305  TIP3      OH2            23.6164627498       -2.7479775177      -68.1977329188  TIP3      10945           0.0000000000
     84349     12305  TIP3      H1             24.3646180400       -3.3878857862      -68.1991689779  TIP3      10945           0.0000000000
     84350     12305  TIP3      H2             23.5964896905       -2.5596394349      -69.1369713778  TIP3      10945           0.0000000000
     84351     12306  TIP3      OH2            23.9959978871       -1.1359926852      -66.0809481292  TIP3      10946           0.0000000000
     84352     12306  TIP3      H1             23.8922885452       -1.6035778782      -66.9457845688  TIP3      10946           0.0000000000
     84353     12306  TIP3      H2             23.4434370605       -0.3400093092      -66.1921827609  TIP3      10946           0.0000000000
     84354     12307  TIP3      OH2            23.5457013916       15.7549043563      -83.0016394646  TIP3      10947           0.0000000000
     84355     12307  TIP3      H1             24.4920480588       15.9143989213      -82.8022668314  TIP3      10947           0.0000000000
     84356     12307  TIP3      H2             23.3256918426       16.4990478181      -83.5681555586  TIP3      10947           0.0000000000
     84357     12308  TIP3      OH2            17.2014026546       10.5584700049      -83.4599300844  TIP3      10948           0.0000000000
     84358     12308  TIP3      H1             18.1335136087       10.5287202837      -83.1913418680  TIP3      10948           0.0000000000
     84359     12308  TIP3      H2             17.1515961251        9.8707598831      -84.1274629162  TIP3      10948           0.0000000000
     84360     12309  TIP3      OH2            15.8149561260       15.7799173034      -78.4485452432  TIP3      10949           0.0000000000
     84361     12309  TIP3      H1             15.1456438671       15.2980316722      -78.9484894863  TIP3      10949           0.0000000000
     84362     12309  TIP3      H2             16.1090215642       15.1153678058      -77.7994548254  TIP3      10949           0.0000000000
     84363     12310  TIP3      OH2            16.6799832513       13.8911499157      -76.6113239060  TIP3      10950           0.0000000000
     84364     12310  TIP3      H1             16.3138706654       13.0257269537      -76.4146160223  TIP3      10950           0.0000000000
     84365     12310  TIP3      H2             16.9012589811       14.2414232789      -75.7234101449  TIP3      10950           0.0000000000
     84366     12311  TIP3      OH2            32.2417387491        9.9854016080      -66.0422203195  TIP3      10951           0.0000000000
     84367     12311  TIP3      H1             31.3351640603        9.9843809506      -65.6777849335  TIP3      10951           0.0000000000
     84368     12311  TIP3      H2             32.5985817548       10.7927837590      -65.6041073420  TIP3      10951           0.0000000000
     84369     12312  TIP3      OH2            31.7679678247        4.8724723422      -78.1462153163  TIP3      10952           0.0000000000
     84370     12312  TIP3      H1             31.5432532667        3.9282339479      -78.2126906530  TIP3      10952           0.0000000000
     84371     12312  TIP3      H2             31.3453660437        5.1018523106      -77.3105603397  TIP3      10952           0.0000000000
     84372     12313  TIP3      OH2            16.6989565488        6.9671667107      -74.0871477379  TIP3      10953           0.0000000000
     84373     12313  TIP3      H1             16.8692716154        6.9186869713      -75.0590201042  TIP3      10953           0.0000000000
     84374     12313  TIP3      H2             17.6033364222        6.8291800925      -73.7487157253  TIP3      10953           0.0000000000
     84375     12314  TIP3      OH2            31.7791524665        0.8864851491      -84.6923104426  TIP3      10954           0.0000000000
     84376     12314  TIP3      H1             32.3986584962        0.5429859626      -84.0504744146  TIP3      10954           0.0000000000
     84377     12314  TIP3      H2             30.9543728820        0.4942863529      -84.4317703401  TIP3      10954           0.0000000000
     84378     12315  TIP3      OH2            31.4249289821        2.4635730490      -79.6189868964  TIP3      10955           0.0000000000
     84379     12315  TIP3      H1             31.6851198357        1.5208016267      -79.5996186330  TIP3      10955           0.0000000000
     84380     12315  TIP3      H2             32.1506551441        2.8674320455      -80.1064600119  TIP3      10955           0.0000000000
     84381     12316  TIP3      OH2            32.1568852913        2.8717944383      -74.1399092681  TIP3      10956           0.0000000000
     84382     12316  TIP3      H1             33.0215958879        3.2816586767      -74.2237145584  TIP3      10956           0.0000000000
     84383     12316  TIP3      H2             31.8452544237        3.1954419974      -73.2805414639  TIP3      10956           0.0000000000
     84384     12317  TIP3      OH2            32.0903102375        3.7393561939      -71.4943839290  TIP3      10957           0.0000000000
     84385     12317  TIP3      H1             31.2037222776        3.9888988141      -71.1563606230  TIP3      10957           0.0000000000
     84386     12317  TIP3      H2             32.4782392374        4.5952016069      -71.6923182229  TIP3      10957           0.0000000000
     84387     12318  TIP3      OH2            16.3415386381        2.2735468772      -67.9324458483  TIP3      10958           0.0000000000
     84388     12318  TIP3      H1             17.2806066859        2.0647377022      -67.7493497859  TIP3      10958           0.0000000000
     84389     12318  TIP3      H2             15.8977535120        1.4565149231      -67.6325421885  TIP3      10958           0.0000000000
     84390     12319  TIP3      OH2            34.3401735174       -2.2195922495      -66.1234266179  TIP3      10959           0.0000000000
     84391     12319  TIP3      H1             34.7121388371       -2.8674723464      -66.7395518181  TIP3      10959           0.0000000000
     84392     12319  TIP3      H2             34.4728702288       -1.3879040258      -66.6295103906  TIP3      10959           0.0000000000
     84393     12320  TIP3      OH2            32.0886388793       -0.2947764929      -79.6770857863  TIP3      10960           0.0000000000
     84394     12320  TIP3      H1             32.1971726738       -0.6978121787      -78.7888580667  TIP3      10960           0.0000000000
     84395     12320  TIP3      H2             31.4016892789       -0.8512295470      -80.1023211516  TIP3      10960           0.0000000000
     84396     12321  TIP3      OH2            17.5161587743        0.5539033150      -75.0796947785  TIP3      10961           0.0000000000
     84397     12321  TIP3      H1             18.0063754769       -0.2609013435      -74.8403029594  TIP3      10961           0.0000000000
     84398     12321  TIP3      H2             18.0706021082        1.2502615840      -74.6991883796  TIP3      10961           0.0000000000
     84399     12322  TIP3      OH2            15.8291160043        3.5750862778      -74.0319693586  TIP3      10962           0.0000000000
     84400     12322  TIP3      H1             16.3758213247        3.3537128504      -74.8101455177  TIP3      10962           0.0000000000
     84401     12322  TIP3      H2             16.2747337384        4.3973517744      -73.7849786648  TIP3      10962           0.0000000000
     84402     12323  TIP3      OH2            33.8550283171       -0.1255422602      -67.7616080185  TIP3      10963           0.0000000000
     84403     12323  TIP3      H1             32.9279386681        0.1857075929      -67.8096227857  TIP3      10963           0.0000000000
     84404     12323  TIP3      H2             33.9200650312       -0.6357306615      -68.5728278123  TIP3      10963           0.0000000000
     84405     12324  TIP3      OH2            16.1905231219       -0.1548127321      -80.0302536815  TIP3      10964           0.0000000000
     84406     12324  TIP3      H1             15.2393882567        0.0127058536      -80.1367699659  TIP3      10964           0.0000000000
     84407     12324  TIP3      H2             16.6161062567        0.3492870632      -80.7411836406  TIP3      10964           0.0000000000
     84408     12325  TIP3      OH2            30.9487422114       14.7555039974      -78.0347814425  TIP3      10965           0.0000000000
     84409     12325  TIP3      H1             31.5908580172       14.4371985221      -78.6712907957  TIP3      10965           0.0000000000
     84410     12325  TIP3      H2             31.4665906644       15.2314099089      -77.3835539982  TIP3      10965           0.0000000000
     84411     12326  TIP3      OH2            16.1125900430       -1.5209413477      -71.6783590940  TIP3      10966           0.0000000000
     84412     12326  TIP3      H1             15.4432559031       -1.6774003346      -71.0071856473  TIP3      10966           0.0000000000
     84413     12326  TIP3      H2             15.6837840224       -0.8364455561      -72.2372447678  TIP3      10966           0.0000000000
     84414     12327  TIP3      OH2            18.3728031809       11.7023761226      -67.5069468199  TIP3      10967           0.0000000000
     84415     12327  TIP3      H1             17.5350350226       11.9168183730      -67.9484156523  TIP3      10967           0.0000000000
     84416     12327  TIP3      H2             18.0961284969       11.6306571257      -66.5852654866  TIP3      10967           0.0000000000
     84417     12328  TIP3      OH2            21.2712103473       12.6720904721      -71.2364150947  TIP3      10968           0.0000000000
     84418     12328  TIP3      H1             20.9272159097       13.5371444495      -71.5115034614  TIP3      10968           0.0000000000
     84419     12328  TIP3      H2             22.1915993573       12.7733748124      -71.5518451616  TIP3      10968           0.0000000000
     84420     12329  TIP3      OH2            25.5939796562       14.1133291616      -68.3256862481  TIP3      10969           0.0000000000
     84421     12329  TIP3      H1             25.7368870192       13.7643596060      -67.4153766382  TIP3      10969           0.0000000000
     84422     12329  TIP3      H2             26.4908374333       14.4006454500      -68.5851539666  TIP3      10969           0.0000000000
     84423     12330  TIP3      OH2            27.9041794634       15.3822345510      -69.0375570655  TIP3      10970           0.0000000000
     84424     12330  TIP3      H1             28.6086905773       14.7587131840      -69.2660219536  TIP3      10970           0.0000000000
     84425     12330  TIP3      H2             28.2573892599       15.7996163834      -68.2245259115  TIP3      10970           0.0000000000
     84426     12331  TIP3      OH2            32.8932722559       -2.0166672901      -69.9319583576  TIP3      10971           0.0000000000
     84427     12331  TIP3      H1             32.0561392593       -1.7247356794      -70.3301542179  TIP3      10971           0.0000000000
     84428     12331  TIP3      H2             33.0743096574       -2.8436473125      -70.4381207669  TIP3      10971           0.0000000000
     84429     12332  TIP3      OH2            18.7073707074       15.9392140970      -71.2325178918  TIP3      10972           0.0000000000
     84430     12332  TIP3      H1             17.9564070972       16.4032262083      -71.6457681475  TIP3      10972           0.0000000000
     84431     12332  TIP3      H2             18.3618964235       15.7172701551      -70.3595532000  TIP3      10972           0.0000000000
     84432     12333  TIP3      OH2            21.1829845408       15.4939017982      -72.1487344820  TIP3      10973           0.0000000000
     84433     12333  TIP3      H1             20.2788543266       15.6333165320      -71.7748200568  TIP3      10973           0.0000000000
     84434     12333  TIP3      H2             21.1127253137       16.0614003207      -72.9375747481  TIP3      10973           0.0000000000
     84435     12334  TIP3      OH2            25.8389665364       15.4005611020      -72.9720604449  TIP3      10974           0.0000000000
     84436     12334  TIP3      H1             25.4384471918       15.9757965562      -73.6458426255  TIP3      10974           0.0000000000
     84437     12334  TIP3      H2             26.0195205458       16.0562136470      -72.2663849514  TIP3      10974           0.0000000000
     84438     12335  TIP3      OH2            28.1915985359       14.2607081849      -71.9766357826  TIP3      10975           0.0000000000
     84439     12335  TIP3      H1             27.3063060199       14.4681958579      -72.3233945529  TIP3      10975           0.0000000000
     84440     12335  TIP3      H2             28.5908951687       15.1198639004      -72.1285866152  TIP3      10975           0.0000000000
     84441     12336  TIP3      OH2            18.1341160630       14.5747112582      -74.3141590742  TIP3      10976           0.0000000000
     84442     12336  TIP3      H1             18.0564425156       14.1420648040      -73.4338948267  TIP3      10976           0.0000000000
     84443     12336  TIP3      H2             18.9527362304       14.1865365881      -74.6794573108  TIP3      10976           0.0000000000
     84444     12337  TIP3      OH2            20.2029317691       13.2879641543      -75.6533666633  TIP3      10977           0.0000000000
     84445     12337  TIP3      H1             20.0471587514       12.3522020649      -75.4238575164  TIP3      10977           0.0000000000
     84446     12337  TIP3      H2             21.0663088208       13.4331800059      -75.2045636484  TIP3      10977           0.0000000000
     84447     12338  TIP3      OH2            22.7946047304       13.7557630702      -74.7833215436  TIP3      10978           0.0000000000
     84448     12338  TIP3      H1             22.9800228271       12.8328857293      -75.0441766533  TIP3      10978           0.0000000000
     84449     12338  TIP3      H2             22.8760304165       13.7103109526      -73.8194121711  TIP3      10978           0.0000000000
     84450     12339  TIP3      OH2            31.3916538404       -2.5129874811      -75.5471584358  TIP3      10979           0.0000000000
     84451     12339  TIP3      H1             32.0304542225       -1.9577919690      -76.0634036450  TIP3      10979           0.0000000000
     84452     12339  TIP3      H2             30.5359662736       -2.1586772793      -75.8126765216  TIP3      10979           0.0000000000
     84453     12340  TIP3      OH2            33.0862216740       -1.3111310684      -77.2510482847  TIP3      10980           0.0000000000
     84454     12340  TIP3      H1             33.7704588401       -1.8653643621      -77.7152267336  TIP3      10980           0.0000000000
     84455     12340  TIP3      H2             33.5658186696       -0.4561898852      -77.1619128168  TIP3      10980           0.0000000000
     84456     12341  TIP3      OH2            18.6296355470       -1.9474712695      -77.7788081712  TIP3      10981           0.0000000000
     84457     12341  TIP3      H1             17.8422035522       -2.1564857370      -78.3202608797  TIP3      10981           0.0000000000
     84458     12341  TIP3      H2             19.1177008254       -2.7950710689      -77.8374174412  TIP3      10981           0.0000000000
     84459     12342  TIP3      OH2            17.4493702790       -2.1891003487      -82.0419201543  TIP3      10982           0.0000000000
     84460     12342  TIP3      H1             17.9099216117       -1.5406728710      -82.6088983372  TIP3      10982           0.0000000000
     84461     12342  TIP3      H2             16.8601091212       -1.6268028351      -81.5141624216  TIP3      10982           0.0000000000
     84462     12343  TIP3      OH2            19.2629831187       -0.3247588567      -83.5135780215  TIP3      10983           0.0000000000
     84463     12343  TIP3      H1             19.8002355056       -0.8427301520      -84.1152244892  TIP3      10983           0.0000000000
     84464     12343  TIP3      H2             19.9477240626        0.0800553154      -82.9516086948  TIP3      10983           0.0000000000
     84465     12344  TIP3      OH2            26.2238286800       15.0425914158      -82.7436739211  TIP3      10984           0.0000000000
     84466     12344  TIP3      H1             27.1233288946       15.3732280815      -82.8970945729  TIP3      10984           0.0000000000
     84467     12344  TIP3      H2             26.0287992786       14.5654973481      -83.5571523229  TIP3      10984           0.0000000000
     84468     12345  TIP3      OH2            18.5462366752       -1.4117565699      -68.3332642200  TIP3      10985           0.0000000000
     84469     12345  TIP3      H1             18.2001039892       -2.2051878502      -67.9112775261  TIP3      10985           0.0000000000
     84470     12345  TIP3      H2             19.4603819671       -1.4323729535      -67.9619069625  TIP3      10985           0.0000000000
     84471     12346  TIP3      OH2            20.5721420558       -2.0252810957      -66.7206029526  TIP3      10986           0.0000000000
     84472     12346  TIP3      H1             21.4589528405       -2.3796207222      -66.9430617334  TIP3      10986           0.0000000000
     84473     12346  TIP3      H2             20.1781477919       -2.8143189200      -66.2927909514  TIP3      10986           0.0000000000
     84474     12347  TIP3      OH2            19.1740158012       14.7590962148      -84.0919152658  TIP3      10987           0.0000000000
     84475     12347  TIP3      H1             18.8741660907       14.9965270624      -83.2013299696  TIP3      10987           0.0000000000
     84476     12347  TIP3      H2             19.9245787522       14.1837185705      -83.9272998921  TIP3      10987           0.0000000000
     84477     12348  TIP3      OH2            28.9625684148       -2.7519264152      -66.4810569228  TIP3      10988           0.0000000000
     84478     12348  TIP3      H1             29.0800862911       -3.2442505686      -65.6583832233  TIP3      10988           0.0000000000
     84479     12348  TIP3      H2             29.8518741046       -2.7865560694      -66.8877936444  TIP3      10988           0.0000000000
     84480     12349  TIP3      OH2            32.0961136042       13.3082092330      -67.7848019264  TIP3      10989           0.0000000000
     84481     12349  TIP3      H1             31.3773993696       13.1641400663      -68.4416267118  TIP3      10989           0.0000000000
     84482     12349  TIP3      H2             32.0687783541       14.2642742406      -67.6919735879  TIP3      10989           0.0000000000
     84483     12350  TIP3      OH2            38.7232009762       10.5352068186      -74.3230966320  TIP3      10990           0.0000000000
     84484     12350  TIP3      H1             38.4208400698        9.6817852969      -74.6786623780  TIP3      10990           0.0000000000
     84485     12350  TIP3      H2             39.6781395409       10.3634552060      -74.2784371970  TIP3      10990           0.0000000000
     84486     12351  TIP3      OH2            35.3889367717        4.1481676582      -78.8375182210  TIP3      10991           0.0000000000
     84487     12351  TIP3      H1             34.9804172825        5.0241679945      -78.9203428320  TIP3      10991           0.0000000000
     84488     12351  TIP3      H2             34.8424297545        3.6158190598      -79.4207477274  TIP3      10991           0.0000000000
     84489     12352  TIP3      OH2            36.1234903483        6.3828635505      -76.7913652543  TIP3      10992           0.0000000000
     84490     12352  TIP3      H1             36.3317192493        5.5834580607      -76.2947315009  TIP3      10992           0.0000000000
     84491     12352  TIP3      H2             36.8601747142        6.4650200805      -77.3955358591  TIP3      10992           0.0000000000
     84492     12353  TIP3      OH2            39.7705652804       10.0062095152      -71.4580655720  TIP3      10993           0.0000000000
     84493     12353  TIP3      H1             39.8478650453       10.9609523796      -71.6073755932  TIP3      10993           0.0000000000
     84494     12353  TIP3      H2             38.9863098876        9.9791711140      -70.8678745314  TIP3      10993           0.0000000000
     84495     12354  TIP3      OH2            36.0754060244        9.5830986267      -80.5622919187  TIP3      10994           0.0000000000
     84496     12354  TIP3      H1             35.7647582534        9.8797357358      -81.4356468376  TIP3      10994           0.0000000000
     84497     12354  TIP3      H2             36.1108482377       10.3978442121      -80.0231714601  TIP3      10994           0.0000000000
     84498     12355  TIP3      OH2            40.1148433708        7.3701526283      -77.6356154758  TIP3      10995           0.0000000000
     84499     12355  TIP3      H1             39.9225490870        6.9080557538      -78.4463013252  TIP3      10995           0.0000000000
     84500     12355  TIP3      H2             40.7982478671        6.7837438355      -77.2141126964  TIP3      10995           0.0000000000
     84501     12356  TIP3      OH2            38.5142107688        6.6689091733      -70.0469840239  TIP3      10996           0.0000000000
     84502     12356  TIP3      H1             38.5668221777        7.3271349894      -69.3317426324  TIP3      10996           0.0000000000
     84503     12356  TIP3      H2             37.5870523393        6.7539460154      -70.2989358615  TIP3      10996           0.0000000000
     84504     12357  TIP3      OH2            39.8408555899       12.4766573585      -68.4552443821  TIP3      10997           0.0000000000
     84505     12357  TIP3      H1             39.7966580495       12.3677789277      -69.4191248993  TIP3      10997           0.0000000000
     84506     12357  TIP3      H2             38.9009488481       12.3689883752      -68.2146634010  TIP3      10997           0.0000000000
     84507     12358  TIP3      OH2            35.4890825562        8.7197653561      -71.0413514968  TIP3      10998           0.0000000000
     84508     12358  TIP3      H1             35.0212967177        8.7136367541      -71.8888556711  TIP3      10998           0.0000000000
     84509     12358  TIP3      H2             35.4549690289        7.7800196060      -70.8090562630  TIP3      10998           0.0000000000
     84510     12359  TIP3      OH2            38.3464918624       14.3678563548      -78.1341729029  TIP3      10999           0.0000000000
     84511     12359  TIP3      H1             38.5637080794       13.9343277170      -77.2738705440  TIP3      10999           0.0000000000
     84512     12359  TIP3      H2             37.5452724433       13.8710207692      -78.3480396659  TIP3      10999           0.0000000000
     84513     12360  TIP3      OH2            37.5902497994       10.1422643606      -70.0359474587  TIP3      11000           0.0000000000
     84514     12360  TIP3      H1             37.8577382209        9.6527227792      -69.2423586406  TIP3      11000           0.0000000000
     84515     12360  TIP3      H2             36.8080362469        9.6519098935      -70.3630979321  TIP3      11000           0.0000000000
     84516     12361  TIP3      OH2            40.3767850740        3.7529899615      -72.2387420110  TIP3      11001           0.0000000000
     84517     12361  TIP3      H1             39.4762650039        3.4811881379      -72.2908465567  TIP3      11001           0.0000000000
     84518     12361  TIP3      H2             40.3229740251        4.2263129385      -73.0749126666  TIP3      11001           0.0000000000
     84519     12362  TIP3      OH2            34.6986256946        0.7967190107      -77.2423102989  TIP3      11002           0.0000000000
     84520     12362  TIP3      H1             35.4131256119        0.8760453564      -76.6122478815  TIP3      11002           0.0000000000
     84521     12362  TIP3      H2             35.1527860311        0.5190162014      -78.0653890678  TIP3      11002           0.0000000000
     84522     12363  TIP3      OH2            38.2778346390        8.4684860436      -67.8989743510  TIP3      11003           0.0000000000
     84523     12363  TIP3      H1             38.9597409163        8.7908460014      -67.3018174800  TIP3      11003           0.0000000000
     84524     12363  TIP3      H2             37.4769604007        8.6627448740      -67.3666669714  TIP3      11003           0.0000000000
     84525     12364  TIP3      OH2            38.5326858819        7.8222090568      -75.2613625456  TIP3      11004           0.0000000000
     84526     12364  TIP3      H1             39.2807733742        7.8121340358      -75.8938147431  TIP3      11004           0.0000000000
     84527     12364  TIP3      H2             38.6855164054        6.9989513058      -74.7863110741  TIP3      11004           0.0000000000
     84528     12365  TIP3      OH2            35.6480110367        6.2268193037      -70.0013835388  TIP3      11005           0.0000000000
     84529     12365  TIP3      H1             35.8308942666        5.8400024804      -69.1215100758  TIP3      11005           0.0000000000
     84530     12365  TIP3      H2             34.9726857076        5.6448624006      -70.3650066592  TIP3      11005           0.0000000000
     84531     12366  TIP3      OH2            36.7492995127        6.2806589370      -83.3625320223  TIP3      11006           0.0000000000
     84532     12366  TIP3      H1             37.3779273406        6.8230943833      -82.8539406119  TIP3      11006           0.0000000000
     84533     12366  TIP3      H2             35.9040433423        6.4787202232      -82.9589589203  TIP3      11006           0.0000000000
     84534     12367  TIP3      OH2            38.1136188067        8.1174162548      -81.8362803311  TIP3      11007           0.0000000000
     84535     12367  TIP3      H1             37.4274328386        8.4778481553      -81.2308341585  TIP3      11007           0.0000000000
     84536     12367  TIP3      H2             38.6190441308        8.9080085050      -82.0343666385  TIP3      11007           0.0000000000
     84537     12368  TIP3      OH2            38.7250876382       10.6808092212      -82.8841467518  TIP3      11008           0.0000000000
     84538     12368  TIP3      H1             39.2994694906       11.4050391057      -82.6233330289  TIP3      11008           0.0000000000
     84539     12368  TIP3      H2             39.1887269707       10.2785044062      -83.6255525955  TIP3      11008           0.0000000000
     84540     12369  TIP3      OH2            36.7599918576       12.1259978881      -78.9094815774  TIP3      11009           0.0000000000
     84541     12369  TIP3      H1             35.9016451750       12.5585774953      -78.9678182093  TIP3      11009           0.0000000000
     84542     12369  TIP3      H2             37.2805718904       12.5699231203      -79.5942443422  TIP3      11009           0.0000000000
     84543     12370  TIP3      OH2            35.9798383439       14.7202001294      -67.5882518528  TIP3      11010           0.0000000000
     84544     12370  TIP3      H1             36.6014732824       14.5068757459      -66.8639681378  TIP3      11010           0.0000000000
     84545     12370  TIP3      H2             35.5716935330       13.8644406924      -67.8099251446  TIP3      11010           0.0000000000
     84546     12371  TIP3      OH2            35.9079188157        8.5319063804      -66.6406024272  TIP3      11011           0.0000000000
     84547     12371  TIP3      H1             36.0822108466        7.6183006654      -66.9476977018  TIP3      11011           0.0000000000
     84548     12371  TIP3      H2             35.1665979894        8.7972173716      -67.1924962772  TIP3      11011           0.0000000000
     84549     12372  TIP3      OH2            36.7444212380        5.7544779490      -67.2585855303  TIP3      11012           0.0000000000
     84550     12372  TIP3      H1             37.1886937449        4.8949459449      -67.3550904246  TIP3      11012           0.0000000000
     84551     12372  TIP3      H2             36.5541459437        5.7537190315      -66.2964292540  TIP3      11012           0.0000000000
     84552     12373  TIP3      OH2            35.9819086216       10.3595591362      -83.3954601446  TIP3      11013           0.0000000000
     84553     12373  TIP3      H1             36.9230795406       10.5110408839      -83.1934171882  TIP3      11013           0.0000000000
     84554     12373  TIP3      H2             36.0054001823        9.7649252116      -84.1462633000  TIP3      11013           0.0000000000
     84555     12374  TIP3      OH2            35.6438299845       13.8291579112      -76.6746511894  TIP3      11014           0.0000000000
     84556     12374  TIP3      H1             35.1866434082       13.0090010968      -76.4599560903  TIP3      11014           0.0000000000
     84557     12374  TIP3      H2             35.7669154312       14.2232380870      -75.8061922380  TIP3      11014           0.0000000000
     84558     12375  TIP3      OH2            35.0766730400       -0.1470306951      -79.9651336549  TIP3      11015           0.0000000000
     84559     12375  TIP3      H1             34.1153930841        0.0083527040      -80.0863614568  TIP3      11015           0.0000000000
     84560     12375  TIP3      H2             35.4706001403        0.3174081514      -80.7026973679  TIP3      11015           0.0000000000
     84561     12376  TIP3      OH2            34.9659174093       -1.6061484583      -71.6824723912  TIP3      11016           0.0000000000
     84562     12376  TIP3      H1             34.3212421401       -1.7379558192      -70.9624644394  TIP3      11016           0.0000000000
     84563     12376  TIP3      H2             34.5553425078       -0.9021518546      -72.1967368932  TIP3      11016           0.0000000000
     84564     12377  TIP3      OH2            37.1814917405       11.7359070759      -67.5117282162  TIP3      11017           0.0000000000
     84565     12377  TIP3      H1             36.3476872178       11.9224639679      -67.9778314548  TIP3      11017           0.0000000000
     84566     12377  TIP3      H2             36.9029183453       11.6293547974      -66.5924213112  TIP3      11017           0.0000000000
     84567     12378  TIP3      OH2            40.1189276842       12.6771260612      -71.2647147067  TIP3      11018           0.0000000000
     84568     12378  TIP3      H1             39.7340749714       13.5398977489      -71.5122674862  TIP3      11018           0.0000000000
     84569     12378  TIP3      H2             41.0436341501       12.7942514790      -71.4969061854  TIP3      11018           0.0000000000
     84570     12379  TIP3      OH2            37.5657708346       15.9525793792      -71.2059605445  TIP3      11019           0.0000000000
     84571     12379  TIP3      H1             36.8150129421       16.3347632351      -71.6730279700  TIP3      11019           0.0000000000
     84572     12379  TIP3      H2             37.2232362184       15.6802772575      -70.3408982530  TIP3      11019           0.0000000000
     84573     12380  TIP3      OH2            39.9756463699       15.4117261654      -72.2660778792  TIP3      11020           0.0000000000
     84574     12380  TIP3      H1             39.1474855649       15.6261527294      -71.7731430104  TIP3      11020           0.0000000000
     84575     12380  TIP3      H2             39.9798397026       16.1360258685      -72.9315214825  TIP3      11020           0.0000000000
     84576     12381  TIP3      OH2            39.0459687583       13.2862337041      -75.6512284788  TIP3      11021           0.0000000000
     84577     12381  TIP3      H1             38.8394114441       12.3615204679      -75.4075752979  TIP3      11021           0.0000000000
     84578     12381  TIP3      H2             39.8624772100       13.4144043269      -75.1673978120  TIP3      11021           0.0000000000
     84579     12382  TIP3      OH2            36.2066813105       -2.1651137057      -82.0118470623  TIP3      11022           0.0000000000
     84580     12382  TIP3      H1             36.6907004032       -1.5422131807      -82.5721646198  TIP3      11022           0.0000000000
     84581     12382  TIP3      H2             35.6598941421       -1.5922632424      -81.4670185144  TIP3      11022           0.0000000000
     84582     12383  TIP3      OH2            36.1998250568       13.7949316808      -81.0833795836  TIP3      11023           0.0000000000
     84583     12383  TIP3      H1             35.5151388632       13.7679434436      -81.7598687744  TIP3      11023           0.0000000000
     84584     12383  TIP3      H2             36.1896852925       14.7246737111      -80.8595401874  TIP3      11023           0.0000000000
     84585     12384  TIP3      OH2            37.3784197395       -1.4706671138      -68.3847996401  TIP3      11024           0.0000000000
     84586     12384  TIP3      H1             37.0501292981       -2.2217312223      -67.8762760936  TIP3      11024           0.0000000000
     84587     12384  TIP3      H2             38.2734180466       -1.3556429431      -67.9918600424  TIP3      11024           0.0000000000
     84588     12385  TIP3      OH2            39.4399208058       -2.0818211927      -66.7613832747  TIP3      11025           0.0000000000
     84589     12385  TIP3      H1             40.3274759083       -2.3972560847      -66.9740951556  TIP3      11025           0.0000000000
     84590     12385  TIP3      H2             39.0322672042       -2.8345990552      -66.2939898763  TIP3      11025           0.0000000000
     84591     12386  TIP3      OH2            38.0064093085       14.6560303833      -84.1168507227  TIP3      11026           0.0000000000
     84592     12386  TIP3      H1             37.7635386420       15.0324444318      -83.2596867001  TIP3      11026           0.0000000000
     84593     12386  TIP3      H2             38.8244345411       14.2094097948      -83.9384293042  TIP3      11026           0.0000000000
     84594     12387  TIP3      OH2           -28.8192385893       26.0539537169      -77.9096266165  TIP3      11027           0.0000000000
     84595     12387  TIP3      H1            -28.8304055517       27.0271556181      -77.9988203133  TIP3      11027           0.0000000000
     84596     12387  TIP3      H2            -29.5343187027       25.7808516207      -78.5151399920  TIP3      11027           0.0000000000
     84597     12388  TIP3      OH2           -26.2424948499       28.2471108714      -76.1320471638  TIP3      11028           0.0000000000
     84598     12388  TIP3      H1            -26.6937632774       27.5305707357      -75.6718762802  TIP3      11028           0.0000000000
     84599     12388  TIP3      H2            -26.2642307600       28.9601550550      -75.4716365209  TIP3      11028           0.0000000000
     84600     12389  TIP3      OH2           -39.7367886596       23.3225001277      -79.4749642177  TIP3      11029           0.0000000000
     84601     12389  TIP3      H1            -40.3113616988       23.9312598479      -78.9844147715  TIP3      11029           0.0000000000
     84602     12389  TIP3      H2            -40.3638074601       22.6281693454      -79.6413619440  TIP3      11029           0.0000000000
     84603     12390  TIP3      OH2           -29.1644600878       33.3873798605      -75.9222498310  TIP3      11030           0.0000000000
     84604     12390  TIP3      H1            -28.5071878995       32.7066208724      -76.2022269899  TIP3      11030           0.0000000000
     84605     12390  TIP3      H2            -29.3724409703       33.0766588294      -75.0424419111  TIP3      11030           0.0000000000
     84606     12391  TIP3      OH2           -31.5160726133       27.8148328178      -74.0479338784  TIP3      11031           0.0000000000
     84607     12391  TIP3      H1            -31.2432322591       27.1054576501      -74.6378896328  TIP3      11031           0.0000000000
     84608     12391  TIP3      H2            -30.7719844926       27.8995243858      -73.4266663146  TIP3      11031           0.0000000000
     84609     12392  TIP3      OH2           -22.9425078275       19.3236862456      -73.2005350239  TIP3      11032           0.0000000000
     84610     12392  TIP3      H1            -22.8287922023       19.9649469312      -72.4678893320  TIP3      11032           0.0000000000
     84611     12392  TIP3      H2            -22.4435499764       19.7598219042      -73.9051569564  TIP3      11032           0.0000000000
     84612     12393  TIP3      OH2           -35.2692663598       20.2509945115      -76.4311961339  TIP3      11033           0.0000000000
     84613     12393  TIP3      H1            -35.2385174556       21.1004893990      -76.8840030197  TIP3      11033           0.0000000000
     84614     12393  TIP3      H2            -35.7214020772       19.6987458661      -77.1089077026  TIP3      11033           0.0000000000
     84615     12394  TIP3      OH2           -27.5706646083       20.3149964615      -78.0544629962  TIP3      11034           0.0000000000
     84616     12394  TIP3      H1            -26.9156585600       20.0162502310      -77.3863128609  TIP3      11034           0.0000000000
     84617     12394  TIP3      H2            -27.0407051083       20.8865214252      -78.6291728625  TIP3      11034           0.0000000000
     84618     12395  TIP3      OH2           -22.5067512976       20.7662638442      -70.9570066808  TIP3      11035           0.0000000000
     84619     12395  TIP3      H1            -23.1449152461       21.5048295207      -71.0626774373  TIP3      11035           0.0000000000
     84620     12395  TIP3      H2            -22.5178218472       20.6533177966      -69.9999871051  TIP3      11035           0.0000000000
     84621     12396  TIP3      OH2           -29.1539816680       28.6255650874      -78.8057061994  TIP3      11036           0.0000000000
     84622     12396  TIP3      H1            -29.3898922676       28.3492862744      -79.6999850383  TIP3      11036           0.0000000000
     84623     12396  TIP3      H2            -29.4046057455       29.5797126065      -78.7991751544  TIP3      11036           0.0000000000
     84624     12397  TIP3      OH2           -25.7768375965       19.7127237580      -76.0535482716  TIP3      11037           0.0000000000
     84625     12397  TIP3      H1            -25.9606402855       18.9001270908      -75.5625428301  TIP3      11037           0.0000000000
     84626     12397  TIP3      H2            -25.0997929186       20.1246952167      -75.4996212527  TIP3      11037           0.0000000000
     84627     12398  TIP3      OH2           -36.8594734087       20.9986571492      -74.3482545631  TIP3      11038           0.0000000000
     84628     12398  TIP3      H1            -36.2784667389       21.6954593650      -74.0238959689  TIP3      11038           0.0000000000
     84629     12398  TIP3      H2            -36.3431824799       20.6068894006      -75.0797825396  TIP3      11038           0.0000000000
     84630     12399  TIP3      OH2           -25.7537437397       30.1009049678      -73.7600087386  TIP3      11039           0.0000000000
     84631     12399  TIP3      H1            -26.7329274784       30.1723121923      -73.6576685538  TIP3      11039           0.0000000000
     84632     12399  TIP3      H2            -25.4996376921       30.9982303571      -73.9889871797  TIP3      11039           0.0000000000
     84633     12400  TIP3      OH2           -25.3737065994       18.3755294881      -72.3091803428  TIP3      11040           0.0000000000
     84634     12400  TIP3      H1            -26.1496698462       18.9326657144      -72.4817710278  TIP3      11040           0.0000000000
     84635     12400  TIP3      H2            -24.7269651902       18.7598608565      -72.9333881718  TIP3      11040           0.0000000000
     84636     12401  TIP3      OH2           -32.4390636931       16.4864452747      -74.9887840815  TIP3      11041           0.0000000000
     84637     12401  TIP3      H1            -32.5605633506       15.5290404663      -74.9639216455  TIP3      11041           0.0000000000
     84638     12401  TIP3      H2            -33.2785305951       16.8050723316      -74.6211313776  TIP3      11041           0.0000000000
     84639     12402  TIP3      OH2           -27.4910028857       31.8536708415      -77.1787720683  TIP3      11042           0.0000000000
     84640     12402  TIP3      H1            -27.0469296530       31.1600431942      -77.7057330066  TIP3      11042           0.0000000000
     84641     12402  TIP3      H2            -27.0675022967       32.6594699536      -77.5633163463  TIP3      11042           0.0000000000
     84642     12403  TIP3      OH2           -26.3039529968       29.7871002244      -78.6807082855  TIP3      11043           0.0000000000
     84643     12403  TIP3      H1            -26.5962649388       29.0853491192      -79.2799890554  TIP3      11043           0.0000000000
     84644     12403  TIP3      H2            -26.2380716832       29.3022295371      -77.8368116098  TIP3      11043           0.0000000000
     84645     12404  TIP3      OH2           -24.6707266851       28.3767218772      -70.1752608518  TIP3      11044           0.0000000000
     84646     12404  TIP3      H1            -24.5045226688       27.7333892518      -70.8960706783  TIP3      11044           0.0000000000
     84647     12404  TIP3      H2            -24.4617435376       29.2318766628      -70.5977809407  TIP3      11044           0.0000000000
     84648     12405  TIP3      OH2           -30.1263539315       25.3468506738      -80.3605687373  TIP3      11045           0.0000000000
     84649     12405  TIP3      H1            -30.8391814854       25.8495875571      -80.7906042756  TIP3      11045           0.0000000000
     84650     12405  TIP3      H2            -29.4669417502       25.3368906636      -81.0836504998  TIP3      11045           0.0000000000
     84651     12406  TIP3      OH2           -22.7721466863       24.6931234982      -72.1248495232  TIP3      11046           0.0000000000
     84652     12406  TIP3      H1            -23.4416934476       25.4047810975      -72.0823342514  TIP3      11046           0.0000000000
     84653     12406  TIP3      H2            -22.2896901542       24.9373661863      -72.9353919546  TIP3      11046           0.0000000000
     84654     12407  TIP3      OH2           -26.7148742274       25.4768069140      -79.4834225619  TIP3      11047           0.0000000000
     84655     12407  TIP3      H1            -27.4554447037       25.7161518238      -78.8692493797  TIP3      11047           0.0000000000
     84656     12407  TIP3      H2            -26.2529418849       24.8015303577      -78.9499597080  TIP3      11047           0.0000000000
     84657     12408  TIP3      OH2           -26.8015850749       23.6635114152      -70.3898173706  TIP3      11048           0.0000000000
     84658     12408  TIP3      H1            -26.7788936288       24.4654836446      -69.8389179236  TIP3      11048           0.0000000000
     84659     12408  TIP3      H2            -27.4256478639       23.9432721588      -71.0752813512  TIP3      11048           0.0000000000
     84660     12409  TIP3      OH2           -33.7718188730       29.5593022374      -74.9395362220  TIP3      11049           0.0000000000
     84661     12409  TIP3      H1            -33.8228965707       28.9876258402      -75.7077938712  TIP3      11049           0.0000000000
     84662     12409  TIP3      H2            -33.0178316224       29.1953549778      -74.4348690265  TIP3      11049           0.0000000000
     84663     12410  TIP3      OH2           -28.3692745882       30.4316278147      -73.2106086676  TIP3      11050           0.0000000000
     84664     12410  TIP3      H1            -28.6506634449       31.0821474294      -72.5626418312  TIP3      11050           0.0000000000
     84665     12410  TIP3      H2            -28.6371708252       29.5880667775      -72.7786887250  TIP3      11050           0.0000000000
     84666     12411  TIP3      OH2           -33.8390031968       29.3405964013      -69.2420410014  TIP3      11051           0.0000000000
     84667     12411  TIP3      H1            -34.2442312401       30.0727246484      -68.7380486205  TIP3      11051           0.0000000000
     84668     12411  TIP3      H2            -34.5442769106       29.1517740522      -69.8876437908  TIP3      11051           0.0000000000
     84669     12412  TIP3      OH2           -27.8418892552       24.6914263811      -81.8222163567  TIP3      11052           0.0000000000
     84670     12412  TIP3      H1            -27.3022657838       24.8712279017      -81.0165854750  TIP3      11052           0.0000000000
     84671     12412  TIP3      H2            -27.4541029139       25.2153878651      -82.5199984566  TIP3      11052           0.0000000000
     84672     12413  TIP3      OH2           -36.9453040801       25.5149556735      -70.0412039082  TIP3      11053           0.0000000000
     84673     12413  TIP3      H1            -36.8523375993       26.1889451841      -69.3423993930  TIP3      11053           0.0000000000
     84674     12413  TIP3      H2            -37.8597517417       25.6163734018      -70.3058279077  TIP3      11053           0.0000000000
     84675     12414  TIP3      OH2           -30.1080468742       31.4181154431      -78.3580199838  TIP3      11054           0.0000000000
     84676     12414  TIP3      H1            -29.6872341668       31.7307549014      -77.5468210036  TIP3      11054           0.0000000000
     84677     12414  TIP3      H2            -30.7023490083       32.1447484279      -78.5896201984  TIP3      11054           0.0000000000
     84678     12415  TIP3      OH2           -35.6099877557       31.3657216959      -68.4614138788  TIP3      11055           0.0000000000
     84679     12415  TIP3      H1            -35.6621787004       31.2581399814      -69.4312419514  TIP3      11055           0.0000000000
     84680     12415  TIP3      H2            -36.5439808917       31.2397725479      -68.2111059991  TIP3      11055           0.0000000000
     84681     12416  TIP3      OH2           -39.6604123977       27.3862142329      -71.2165907553  TIP3      11056           0.0000000000
     84682     12416  TIP3      H1            -40.4103851827       27.5751343929      -71.8092352901  TIP3      11056           0.0000000000
     84683     12416  TIP3      H2            -39.9755573201       26.5574475927      -70.8235642253  TIP3      11056           0.0000000000
     84684     12417  TIP3      OH2           -40.2433456458       30.3686861648      -74.3132060463  TIP3      11057           0.0000000000
     84685     12417  TIP3      H1            -39.2990930577       30.1831927317      -74.2683523712  TIP3      11057           0.0000000000
     84686     12417  TIP3      H2            -40.3774473240       31.1081138158      -73.7079279513  TIP3      11057           0.0000000000
     84687     12418  TIP3      OH2           -22.0861393270       30.9832464191      -68.6220648671  TIP3      11058           0.0000000000
     84688     12418  TIP3      H1            -22.1646728074       30.0313479194      -68.5872353177  TIP3      11058           0.0000000000
     84689     12418  TIP3      H2            -22.8932617718       31.2846212644      -68.1635968130  TIP3      11058           0.0000000000
     84690     12419  TIP3      OH2           -31.0765243690       30.5850275928      -69.7247756330  TIP3      11059           0.0000000000
     84691     12419  TIP3      H1            -31.0235749292       31.4339575972      -69.2285620873  TIP3      11059           0.0000000000
     84692     12419  TIP3      H2            -31.9544746587       30.2438611881      -69.4776160383  TIP3      11059           0.0000000000
     84693     12420  TIP3      OH2           -30.6597764463       34.3173762788      -79.9337724972  TIP3      11060           0.0000000000
     84694     12420  TIP3      H1            -30.7470468592       34.2474850323      -80.8971133017  TIP3      11060           0.0000000000
     84695     12420  TIP3      H2            -30.6182521229       35.2774642204      -79.7679423323  TIP3      11060           0.0000000000
     84696     12421  TIP3      OH2           -37.0048440620       33.1482802299      -78.1316045898  TIP3      11061           0.0000000000
     84697     12421  TIP3      H1            -36.8816180771       32.7582560078      -77.2395461683  TIP3      11061           0.0000000000
     84698     12421  TIP3      H2            -37.8708333599       32.7853469062      -78.3875580377  TIP3      11061           0.0000000000
     84699     12422  TIP3      OH2           -27.6827793524       33.4791530617      -82.9658428212  TIP3      11062           0.0000000000
     84700     12422  TIP3      H1            -27.1495204361       32.7631206649      -83.3702914290  TIP3      11062           0.0000000000
     84701     12422  TIP3      H2            -27.5565328584       33.2859141464      -82.0145749345  TIP3      11062           0.0000000000
     84702     12423  TIP3      OH2           -27.9327792969       33.4123412292      -80.1888678001  TIP3      11063           0.0000000000
     84703     12423  TIP3      H1            -28.8668365754       33.5598628742      -79.9505320074  TIP3      11063           0.0000000000
     84704     12423  TIP3      H2            -27.6402036140       32.7276105352      -79.5744423632  TIP3      11063           0.0000000000
     84705     12424  TIP3      OH2           -24.9027046658       22.5094156205      -68.1212689555  TIP3      11064           0.0000000000
     84706     12424  TIP3      H1            -25.3686967220       22.9662197394      -68.8378744757  TIP3      11064           0.0000000000
     84707     12424  TIP3      H2            -24.9285293624       21.5933953623      -68.4359277189  TIP3      11064           0.0000000000
     84708     12425  TIP3      OH2           -37.8456528362       29.0361215966      -70.0810444054  TIP3      11065           0.0000000000
     84709     12425  TIP3      H1            -37.5676835453       28.5484742991      -69.2882025062  TIP3      11065           0.0000000000
     84710     12425  TIP3      H2            -38.6100173746       28.4902906342      -70.3777647055  TIP3      11065           0.0000000000
     84711     12426  TIP3      OH2           -30.4957494282       17.1541560878      -70.7416974487  TIP3      11066           0.0000000000
     84712     12426  TIP3      H1            -30.0279223184       16.6353431816      -70.0612698246  TIP3      11066           0.0000000000
     84713     12426  TIP3      H2            -31.4102477577       16.8858938084      -70.6414112210  TIP3      11066           0.0000000000
     84714     12427  TIP3      OH2           -27.1351016160       20.8960565650      -69.9086174539  TIP3      11067           0.0000000000
     84715     12427  TIP3      H1            -27.7281989152       20.6964521563      -69.1402645504  TIP3      11067           0.0000000000
     84716     12427  TIP3      H2            -27.3295635922       21.8153151507      -70.1488161113  TIP3      11067           0.0000000000
     84717     12428  TIP3      OH2           -30.8672649352       19.6413905012      -83.4725097842  TIP3      11068           0.0000000000
     84718     12428  TIP3      H1            -31.0821582471       19.5669449928      -82.5197169014  TIP3      11068           0.0000000000
     84719     12428  TIP3      H2            -31.0540006684       18.7288366201      -83.7185063816  TIP3      11068           0.0000000000
     84720     12429  TIP3      OH2           -29.4981337206       22.9708488060      -79.2709062057  TIP3      11069           0.0000000000
     84721     12429  TIP3      H1            -29.9096603525       23.7946862269      -79.6064272844  TIP3      11069           0.0000000000
     84722     12429  TIP3      H2            -28.8146399148       22.8049264649      -79.9431491835  TIP3      11069           0.0000000000
     84723     12430  TIP3      OH2           -30.4368907758       23.1873496912      -67.8282151866  TIP3      11070           0.0000000000
     84724     12430  TIP3      H1            -30.9744394097       22.4166818088      -67.5475508879  TIP3      11070           0.0000000000
     84725     12430  TIP3      H2            -29.6009450521       23.0533243652      -67.3634606272  TIP3      11070           0.0000000000
     84726     12431  TIP3      OH2           -28.4072905241       22.4779065837      -76.4792465784  TIP3      11071           0.0000000000
     84727     12431  TIP3      H1            -28.7733247634       23.0162502976      -77.1974138146  TIP3      11071           0.0000000000
     84728     12431  TIP3      H2            -28.3703359145       21.6055843244      -76.9198599987  TIP3      11071           0.0000000000
     84729     12432  TIP3      OH2           -37.4013282602       22.6468352976      -71.2412528910  TIP3      11072           0.0000000000
     84730     12432  TIP3      H1            -37.3596319614       23.1101245856      -70.3905263548  TIP3      11072           0.0000000000
     84731     12432  TIP3      H2            -37.8238198056       21.8102111762      -71.0454101649  TIP3      11072           0.0000000000
     84732     12433  TIP3      OH2           -39.9408912434       19.8594323070      -77.7697907967  TIP3      11073           0.0000000000
     84733     12433  TIP3      H1            -39.9781073807       19.6496362463      -76.8053488112  TIP3      11073           0.0000000000
     84734     12433  TIP3      H2            -39.9689569452       18.9777038059      -78.1907854779  TIP3      11073           0.0000000000
     84735     12434  TIP3      OH2           -39.2412372704       20.6653819144      -81.7239067525  TIP3      11074           0.0000000000
     84736     12434  TIP3      H1            -38.8731977213       21.1203650361      -82.4904732093  TIP3      11074           0.0000000000
     84737     12434  TIP3      H2            -40.0420887699       21.1807597990      -81.6149663794  TIP3      11074           0.0000000000
     84738     12435  TIP3      OH2           -32.4637251989       19.9967227265      -77.0583887777  TIP3      11075           0.0000000000
     84739     12435  TIP3      H1            -33.3861844289       20.0562770208      -76.7506817513  TIP3      11075           0.0000000000
     84740     12435  TIP3      H2            -31.9682896432       19.9461645272      -76.2280314310  TIP3      11075           0.0000000000
     84741     12436  TIP3      OH2           -37.6029060288       21.6118051925      -78.2237329255  TIP3      11076           0.0000000000
     84742     12436  TIP3      H1            -38.5061307348       21.7450733783      -78.5499000209  TIP3      11076           0.0000000000
     84743     12436  TIP3      H2            -37.3802897433       20.7208629056      -78.5444374450  TIP3      11076           0.0000000000
     84744     12437  TIP3      OH2           -28.0347595767       19.1562217726      -73.7943873141  TIP3      11077           0.0000000000
     84745     12437  TIP3      H1            -28.7166040390       19.3400609903      -73.1150359064  TIP3      11077           0.0000000000
     84746     12437  TIP3      H2            -28.5668538015       19.0618612822      -74.5902763095  TIP3      11077           0.0000000000
     84747     12438  TIP3      OH2           -24.8339081221       34.8916593724      -67.4699101572  TIP3      11078           0.0000000000
     84748     12438  TIP3      H1            -24.6019725223       35.3016595933      -68.3125348147  TIP3      11078           0.0000000000
     84749     12438  TIP3      H2            -24.1390092188       35.2365227740      -66.8817049290  TIP3      11078           0.0000000000
     84750     12439  TIP3      OH2           -37.0760992750       27.3631643554      -67.9480723895  TIP3      11079           0.0000000000
     84751     12439  TIP3      H1            -36.4111237268       27.6253424086      -67.2942992550  TIP3      11079           0.0000000000
     84752     12439  TIP3      H2            -37.8899380272       27.5028649306      -67.4170293053  TIP3      11079           0.0000000000
     84753     12440  TIP3      OH2           -36.2259614128       18.9457583540      -78.7512733464  TIP3      11080           0.0000000000
     84754     12440  TIP3      H1            -36.4978887715       18.0094229908      -78.7448034016  TIP3      11080           0.0000000000
     84755     12440  TIP3      H2            -35.3984190215       18.9187271225      -79.2575651803  TIP3      11080           0.0000000000
     84756     12441  TIP3      OH2           -31.9925338845       27.3266044933      -81.0270308182  TIP3      11081           0.0000000000
     84757     12441  TIP3      H1            -32.7623798694       26.8570498123      -81.3732819021  TIP3      11081           0.0000000000
     84758     12441  TIP3      H2            -32.1723732159       27.4115359230      -80.0857195234  TIP3      11081           0.0000000000
     84759     12442  TIP3      OH2           -24.7802421324       26.5255109416      -72.2581117894  TIP3      11082           0.0000000000
     84760     12442  TIP3      H1            -24.2079247929       27.0286423696      -72.8638460975  TIP3      11082           0.0000000000
     84761     12442  TIP3      H2            -25.6384398677       26.5918893900      -72.7183834632  TIP3      11082           0.0000000000
     84762     12443  TIP3      OH2           -28.0917767431       20.1199585286      -82.8591363349  TIP3      11083           0.0000000000
     84763     12443  TIP3      H1            -29.0311471000       20.2734726235      -83.0222504512  TIP3      11083           0.0000000000
     84764     12443  TIP3      H2            -27.8166378835       20.9867720988      -82.5221941082  TIP3      11083           0.0000000000
     84765     12444  TIP3      OH2           -30.4887876605       27.5866724818      -69.8001493434  TIP3      11084           0.0000000000
     84766     12444  TIP3      H1            -30.7928424941       27.2117113606      -68.9647912150  TIP3      11084           0.0000000000
     84767     12444  TIP3      H2            -30.7194962665       28.5211621358      -69.7017662978  TIP3      11084           0.0000000000
     84768     12445  TIP3      OH2           -27.3592717515       22.0773307028      -81.1723819243  TIP3      11085           0.0000000000
     84769     12445  TIP3      H1            -26.4582836638       21.9128790375      -80.8494726277  TIP3      11085           0.0000000000
     84770     12445  TIP3      H2            -27.3258894752       22.8705999312      -81.7368357034  TIP3      11085           0.0000000000
     84771     12446  TIP3      OH2           -29.8472132838       28.8128649299      -81.9435316372  TIP3      11086           0.0000000000
     84772     12446  TIP3      H1            -30.2275429727       29.6665894529      -81.6519527971  TIP3      11086           0.0000000000
     84773     12446  TIP3      H2            -30.5931114005       28.1909220128      -81.8049270489  TIP3      11086           0.0000000000
     84774     12447  TIP3      OH2           -39.9234033855       25.1273395558      -69.9297978346  TIP3      11087           0.0000000000
     84775     12447  TIP3      H1            -39.5857810726       24.6687858452      -69.1478365561  TIP3      11087           0.0000000000
     84776     12447  TIP3      H2            -40.4606153660       24.4782806774      -70.4030530455  TIP3      11087           0.0000000000
     84777     12448  TIP3      OH2           -28.1650527716       30.0520676084      -69.8785252286  TIP3      11088           0.0000000000
     84778     12448  TIP3      H1            -29.1031380462       30.1921342332      -70.0915249252  TIP3      11088           0.0000000000
     84779     12448  TIP3      H2            -28.1950995026       30.3113134878      -68.9323286354  TIP3      11088           0.0000000000
     84780     12449  TIP3      OH2           -22.5406810370       22.2524738214      -81.4469564430  TIP3      11089           0.0000000000
     84781     12449  TIP3      H1            -23.0307934757       21.8822533639      -82.1951733243  TIP3      11089           0.0000000000
     84782     12449  TIP3      H2            -22.3934130818       23.1704197593      -81.7643313340  TIP3      11089           0.0000000000
     84783     12450  TIP3      OH2           -22.5133870301       28.0575339052      -68.6458872201  TIP3      11090           0.0000000000
     84784     12450  TIP3      H1            -23.3928299278       28.3169171624      -69.0125812992  TIP3      11090           0.0000000000
     84785     12450  TIP3      H2            -21.9506322174       28.0429448841      -69.4468516469  TIP3      11090           0.0000000000
     84786     12451  TIP3      OH2           -24.1571844511       30.9987727844      -81.0506813714  TIP3      11091           0.0000000000
     84787     12451  TIP3      H1            -24.5911032675       30.2127903754      -80.7133366180  TIP3      11091           0.0000000000
     84788     12451  TIP3      H2            -23.9242857538       30.8451138963      -81.9673440211  TIP3      11091           0.0000000000
     84789     12452  TIP3      OH2           -27.0121097619       25.8479863309      -73.9614128569  TIP3      11092           0.0000000000
     84790     12452  TIP3      H1            -27.9369838642       25.6049085598      -74.0729163194  TIP3      11092           0.0000000000
     84791     12452  TIP3      H2            -26.5606504117       25.0942029809      -74.3932893055  TIP3      11092           0.0000000000
     84792     12453  TIP3      OH2           -32.6043031276       32.0142020637      -71.9482104962  TIP3      11093           0.0000000000
     84793     12453  TIP3      H1            -32.1729269442       32.8364637717      -72.2229350407  TIP3      11093           0.0000000000
     84794     12453  TIP3      H2            -31.9983494054       31.6974774563      -71.2571403762  TIP3      11093           0.0000000000
     84795     12454  TIP3      OH2           -34.3884503538       32.8741816570      -78.8618563211  TIP3      11094           0.0000000000
     84796     12454  TIP3      H1            -35.3425528051       32.9609260271      -78.6550422824  TIP3      11094           0.0000000000
     84797     12454  TIP3      H2            -34.0051889229       33.6695473283      -78.4541278520  TIP3      11094           0.0000000000
     84798     12455  TIP3      OH2           -29.1149064278       28.0078869310      -72.3376602063  TIP3      11095           0.0000000000
     84799     12455  TIP3      H1            -29.4000571305       27.8659119788      -71.4115906202  TIP3      11095           0.0000000000
     84800     12455  TIP3      H2            -28.3876212459       27.3759850914      -72.4593435368  TIP3      11095           0.0000000000
     84801     12456  TIP3      OH2           -26.7765797479       29.0759180262      -83.1952737475  TIP3      11096           0.0000000000
     84802     12456  TIP3      H1            -26.5003932725       28.6245854292      -82.3752700829  TIP3      11096           0.0000000000
     84803     12456  TIP3      H2            -27.7377825088       28.9403872667      -83.1335844412  TIP3      11096           0.0000000000
     84804     12457  TIP3      OH2           -26.2671568371       32.6085052068      -69.8277592474  TIP3      11097           0.0000000000
     84805     12457  TIP3      H1            -26.9691964393       32.1087771752      -70.2911605937  TIP3      11097           0.0000000000
     84806     12457  TIP3      H2            -26.1016113926       33.3035355883      -70.4699043311  TIP3      11097           0.0000000000
     84807     12458  TIP3      OH2           -38.2392240192       19.8719538168      -70.4165871299  TIP3      11098           0.0000000000
     84808     12458  TIP3      H1            -39.1353136216       20.2290532538      -70.4230191948  TIP3      11098           0.0000000000
     84809     12458  TIP3      H2            -38.3413602849       19.0184346689      -69.9952754946  TIP3      11098           0.0000000000
     84810     12459  TIP3      OH2           -25.9590273427       27.7233140922      -80.9830262592  TIP3      11099           0.0000000000
     84811     12459  TIP3      H1            -26.2202606399       26.9491217397      -80.4366184455  TIP3      11099           0.0000000000
     84812     12459  TIP3      H2            -25.0204519319       27.8044165148      -80.7503322259  TIP3      11099           0.0000000000
     84813     12460  TIP3      OH2           -38.5898614415       31.6732804253      -72.0093575987  TIP3      11100           0.0000000000
     84814     12460  TIP3      H1            -38.2981398695       30.7450666735      -71.9823826477  TIP3      11100           0.0000000000
     84815     12460  TIP3      H2            -38.2851319797       31.9377408771      -71.1291621980  TIP3      11100           0.0000000000
     84816     12461  TIP3      OH2           -29.4841772650       19.6140077765      -71.5102289335  TIP3      11101           0.0000000000
     84817     12461  TIP3      H1            -28.7893855123       19.7111163285      -70.8487746438  TIP3      11101           0.0000000000
     84818     12461  TIP3      H2            -29.8614668308       18.7342389824      -71.2927306438  TIP3      11101           0.0000000000
     84819     12462  TIP3      OH2           -31.0487232014       31.3763897384      -81.5450242553  TIP3      11102           0.0000000000
     84820     12462  TIP3      H1            -31.8741006104       31.8933557047      -81.5007740665  TIP3      11102           0.0000000000
     84821     12462  TIP3      H2            -30.5208114607       31.8803027951      -82.1695855704  TIP3      11102           0.0000000000
     84822     12463  TIP3      OH2           -31.4809750854       20.9350409071      -79.5671244089  TIP3      11103           0.0000000000
     84823     12463  TIP3      H1            -30.7109960035       21.5352292703      -79.5141541451  TIP3      11103           0.0000000000
     84824     12463  TIP3      H2            -31.7592928867       20.8426221248      -78.6377972361  TIP3      11103           0.0000000000
     84825     12464  TIP3      OH2           -30.9687431373       21.9592247519      -70.3382983238  TIP3      11104           0.0000000000
     84826     12464  TIP3      H1            -30.8496452643       22.5573155545      -69.5751722782  TIP3      11104           0.0000000000
     84827     12464  TIP3      H2            -30.2870079731       21.2869670454      -70.2770807197  TIP3      11104           0.0000000000
     84828     12465  TIP3      OH2           -33.6707008114       32.4285634764      -81.5314744647  TIP3      11105           0.0000000000
     84829     12465  TIP3      H1            -33.5263259008       33.2410040983      -82.0513636984  TIP3      11105           0.0000000000
     84830     12465  TIP3      H2            -33.9309061692       32.7606780916      -80.6507746072  TIP3      11105           0.0000000000
     84831     12466  TIP3      OH2           -24.7471809274       19.8849889496      -69.5323152622  TIP3      11106           0.0000000000
     84832     12466  TIP3      H1            -25.6876014453       20.1646007534      -69.6527259880  TIP3      11106           0.0000000000
     84833     12466  TIP3      H2            -24.4618403309       19.8592173041      -70.4580085515  TIP3      11106           0.0000000000
     84834     12467  TIP3      OH2           -26.1702723747       23.6614257980      -75.5026349895  TIP3      11107           0.0000000000
     84835     12467  TIP3      H1            -26.9844587078       23.1952618145      -75.8005302091  TIP3      11107           0.0000000000
     84836     12467  TIP3      H2            -25.6770414317       22.9624342372      -75.0123957170  TIP3      11107           0.0000000000
     84837     12468  TIP3      OH2           -39.3864706650       33.5990644702      -67.6205162151  TIP3      11108           0.0000000000
     84838     12468  TIP3      H1            -38.8136417603       33.3721578098      -66.8635067933  TIP3      11108           0.0000000000
     84839     12468  TIP3      H2            -39.8654065933       32.7706727501      -67.7946237516  TIP3      11108           0.0000000000
     84840     12469  TIP3      OH2           -34.7670226741       32.5239252198      -66.0090413986  TIP3      11109           0.0000000000
     84841     12469  TIP3      H1            -33.9982247165       32.0370100541      -65.6852856984  TIP3      11109           0.0000000000
     84842     12469  TIP3      H2            -34.7922260738       32.2468932401      -66.9468924379  TIP3      11109           0.0000000000
     84843     12470  TIP3      OH2           -28.2478121646       30.9054424284      -67.2881831052  TIP3      11110           0.0000000000
     84844     12470  TIP3      H1            -28.5691884291       30.0302133176      -66.9898448567  TIP3      11110           0.0000000000
     84845     12470  TIP3      H2            -27.4848321740       31.0305060177      -66.6902244527  TIP3      11110           0.0000000000
     84846     12471  TIP3      OH2           -26.0997234578       31.7922439501      -84.4243407356  TIP3      11111           0.0000000000
     84847     12471  TIP3      H1            -25.8182055189       31.0162621283      -83.9153997826  TIP3      11111           0.0000000000
     84848     12471  TIP3      H2            -25.3079361677       32.0525430545      -84.9074720135  TIP3      11111           0.0000000000
     84849     12472  TIP3      OH2           -39.3085674963       27.3569065646      -66.7741296152  TIP3      11112           0.0000000000
     84850     12472  TIP3      H1            -39.2317350296       26.4043206928      -67.0209392927  TIP3      11112           0.0000000000
     84851     12472  TIP3      H2            -40.0472698369       27.6431053824      -67.3347279614  TIP3      11112           0.0000000000
     84852     12473  TIP3      OH2           -32.8171421268       27.3616878145      -67.2269603690  TIP3      11113           0.0000000000
     84853     12473  TIP3      H1            -33.1550611808       27.6665746935      -68.0892654745  TIP3      11113           0.0000000000
     84854     12473  TIP3      H2            -32.6999255285       26.4059147366      -67.3528080935  TIP3      11113           0.0000000000
     84855     12474  TIP3      OH2           -27.1334264112       27.2208687517      -69.8717843376  TIP3      11114           0.0000000000
     84856     12474  TIP3      H1            -26.3362855631       27.7999072087      -69.9135441022  TIP3      11114           0.0000000000
     84857     12474  TIP3      H2            -27.8200576015       27.8962591343      -69.7897138393  TIP3      11114           0.0000000000
     84858     12475  TIP3      OH2           -38.6066574563       24.5863274935      -67.2478250416  TIP3      11115           0.0000000000
     84859     12475  TIP3      H1            -38.1651026110       23.7321601669      -67.3581410208  TIP3      11115           0.0000000000
     84860     12475  TIP3      H2            -38.8182453137       24.6066582031      -66.3036796256  TIP3      11115           0.0000000000
     84861     12476  TIP3      OH2           -29.6261773217       26.1181163797      -66.5028705775  TIP3      11116           0.0000000000
     84862     12476  TIP3      H1            -28.6699730307       26.0941321889      -66.6290546729  TIP3      11116           0.0000000000
     84863     12476  TIP3      H2            -29.8138997693       25.3291997475      -65.9702021549  TIP3      11116           0.0000000000
     84864     12477  TIP3      OH2           -33.9064952210       19.2889088026      -71.3213591563  TIP3      11117           0.0000000000
     84865     12477  TIP3      H1            -33.3707899739       19.7857309165      -71.9525064667  TIP3      11117           0.0000000000
     84866     12477  TIP3      H2            -34.7778678133       19.2544309090      -71.7247103750  TIP3      11117           0.0000000000
     84867     12478  TIP3      OH2           -27.9826960241       22.5600546501      -66.0943963636  TIP3      11118           0.0000000000
     84868     12478  TIP3      H1            -27.7456225509       21.6199002671      -66.1225127421  TIP3      11118           0.0000000000
     84869     12478  TIP3      H2            -27.1078615784       22.9838557649      -66.0656635515  TIP3      11118           0.0000000000
     84870     12479  TIP3      OH2           -26.6056916475       25.3527644103      -67.8953797373  TIP3      11119           0.0000000000
     84871     12479  TIP3      H1            -26.8831548084       26.0522670939      -68.5240629262  TIP3      11119           0.0000000000
     84872     12479  TIP3      H2            -25.6407072416       25.3202417553      -68.0818268039  TIP3      11119           0.0000000000
     84873     12480  TIP3      OH2           -31.8428334965       21.0636786156      -67.2688073590  TIP3      11120           0.0000000000
     84874     12480  TIP3      H1            -32.1410581339       20.8450673395      -66.3736314480  TIP3      11120           0.0000000000
     84875     12480  TIP3      H2            -32.6160939235       20.8578048836      -67.8062447644  TIP3      11120           0.0000000000
     84876     12481  TIP3      OH2           -29.1198601993       20.2093869345      -68.1941415385  TIP3      11121           0.0000000000
     84877     12481  TIP3      H1            -30.0784021312       20.2604093166      -68.0710041468  TIP3      11121           0.0000000000
     84878     12481  TIP3      H2            -28.8508056176       19.5788757571      -67.5038551530  TIP3      11121           0.0000000000
     84879     12482  TIP3      OH2           -27.5736189586       18.8513621993      -66.2616681125  TIP3      11122           0.0000000000
     84880     12482  TIP3      H1            -27.5806716797       17.8751913728      -66.2283150112  TIP3      11122           0.0000000000
     84881     12482  TIP3      H2            -27.7980261627       19.1276836509      -65.3439120900  TIP3      11122           0.0000000000
     84882     12483  TIP3      OH2           -37.7236305435       20.0842399446      -67.1798563645  TIP3      11123           0.0000000000
     84883     12483  TIP3      H1            -37.4600346344       19.3465838061      -67.7475318763  TIP3      11123           0.0000000000
     84884     12483  TIP3      H2            -37.7988395466       19.6517230087      -66.3043985619  TIP3      11123           0.0000000000
     84885     12484  TIP3      OH2           -32.5912459868       17.7048996256      -66.1057184154  TIP3      11124           0.0000000000
     84886     12484  TIP3      H1            -32.6907196001       17.2738492652      -66.9601715371  TIP3      11124           0.0000000000
     84887     12484  TIP3      H2            -33.1282888476       18.5162346794      -66.1922135109  TIP3      11124           0.0000000000
     84888     12485  TIP3      OH2           -33.0682701513       34.6542629274      -82.9772620023  TIP3      11125           0.0000000000
     84889     12485  TIP3      H1            -32.1005892616       34.7588875672      -82.8283314682  TIP3      11125           0.0000000000
     84890     12485  TIP3      H2            -33.2651807166       35.3315725354      -83.6231726003  TIP3      11125           0.0000000000
     84891     12486  TIP3      OH2           -39.4410121872       29.3242566099      -83.5471177321  TIP3      11126           0.0000000000
     84892     12486  TIP3      H1            -38.5604778418       29.3089357996      -83.1509125718  TIP3      11126           0.0000000000
     84893     12486  TIP3      H2            -39.3954255873       28.5695763875      -84.1234042152  TIP3      11126           0.0000000000
     84894     12487  TIP3      OH2            41.0738051607       34.3930806392      -78.4076405311  TIP3      11127           0.0000000000
     84895     12487  TIP3      H1             40.1504963617       34.2447104775      -78.7482236866  TIP3      11127           0.0000000000
     84896     12487  TIP3      H2             41.0475969985       33.7986195300      -77.6435230796  TIP3      11127           0.0000000000
     84897     12488  TIP3      OH2           -39.7010697208       32.6168866300      -76.6343407811  TIP3      11128           0.0000000000
     84898     12488  TIP3      H1            -40.2865106655       31.8670891720      -76.4535541985  TIP3      11128           0.0000000000
     84899     12488  TIP3      H2            -39.7038733518       33.1187003735      -75.8013506390  TIP3      11128           0.0000000000
     84900     12489  TIP3      OH2           -24.3535374305       28.8608542406      -66.0410065367  TIP3      11129           0.0000000000
     84901     12489  TIP3      H1            -25.2439254650       28.8411910957      -65.6442555516  TIP3      11129           0.0000000000
     84902     12489  TIP3      H2            -23.9734997543       29.6534478309      -65.5976763467  TIP3      11129           0.0000000000
     84903     12490  TIP3      OH2           -23.0206534943       27.1560891949      -80.6137904481  TIP3      11130           0.0000000000
     84904     12490  TIP3      H1            -22.2198979705       27.6134899834      -80.3661641129  TIP3      11130           0.0000000000
     84905     12490  TIP3      H2            -23.0642401000       26.4670840227      -79.9093233593  TIP3      11130           0.0000000000
     84906     12491  TIP3      OH2           -22.6719502950       25.2750892693      -78.7325302422  TIP3      11131           0.0000000000
     84907     12491  TIP3      H1            -23.4230462836       24.7765944753      -78.3361911422  TIP3      11131           0.0000000000
     84908     12491  TIP3      H2            -22.0815645680       25.3969875444      -77.9609313636  TIP3      11131           0.0000000000
     84909     12492  TIP3      OH2           -22.9033361960       28.0053321715      -73.7250417908  TIP3      11132           0.0000000000
     84910     12492  TIP3      H1            -22.0980372561       27.5941771393      -74.0972455113  TIP3      11132           0.0000000000
     84911     12492  TIP3      H2            -22.7800077432       28.9423354878      -73.9055213053  TIP3      11132           0.0000000000
     84912     12493  TIP3      OH2           -24.4526610985       30.7464700935      -71.4164691186  TIP3      11133           0.0000000000
     84913     12493  TIP3      H1            -25.0804742876       31.2225424790      -70.8547842302  TIP3      11133           0.0000000000
     84914     12493  TIP3      H2            -24.9885321012       30.4312700146      -72.1663609498  TIP3      11133           0.0000000000
     84915     12494  TIP3      OH2           -22.3901325131       25.1002260655      -82.3356283313  TIP3      11134           0.0000000000
     84916     12494  TIP3      H1            -22.9563044124       25.4217179185      -83.0473272039  TIP3      11134           0.0000000000
     84917     12494  TIP3      H2            -22.4601620891       25.8058138025      -81.6681056498  TIP3      11134           0.0000000000
     84918     12495  TIP3      OH2           -24.8523313600       23.7263240290      -78.1572818155  TIP3      11135           0.0000000000
     84919     12495  TIP3      H1            -25.0165126653       22.7757231965      -78.1656448169  TIP3      11135           0.0000000000
     84920     12495  TIP3      H2            -25.2061532651       23.9731950526      -77.2834188789  TIP3      11135           0.0000000000
     84921     12496  TIP3      OH2           -23.9952407289       25.7168439299      -68.4592994810  TIP3      11136           0.0000000000
     84922     12496  TIP3      H1            -23.3832139970       24.9613818644      -68.3241468361  TIP3      11136           0.0000000000
     84923     12496  TIP3      H2            -23.3961407296       26.4921631068      -68.4611648342  TIP3      11136           0.0000000000
     84924     12497  TIP3      OH2           -22.4980590797       23.6024391262      -67.8200630667  TIP3      11137           0.0000000000
     84925     12497  TIP3      H1            -23.3790002728       23.1986313903      -67.9675794955  TIP3      11137           0.0000000000
     84926     12497  TIP3      H2            -21.9235290339       22.8210795931      -67.8882190086  TIP3      11137           0.0000000000
     84927     12498  TIP3      OH2           -25.1520657784       21.3433212764      -79.7099307795  TIP3      11138           0.0000000000
     84928     12498  TIP3      H1            -24.8681356683       20.4347125716      -79.5543862893  TIP3      11138           0.0000000000
     84929     12498  TIP3      H2            -24.3607854664       21.7544130561      -80.0741816501  TIP3      11138           0.0000000000
     84930     12499  TIP3      OH2           -24.5685850363       21.8989195907      -74.2377834006  TIP3      11139           0.0000000000
     84931     12499  TIP3      H1            -23.6090047381       22.1119631022      -74.2615082706  TIP3      11139           0.0000000000
     84932     12499  TIP3      H2            -24.7538399134       21.9970638661      -73.2954438256  TIP3      11139           0.0000000000
     84933     12500  TIP3      OH2           -24.4926497032       22.5916908491      -71.4657178974  TIP3      11140           0.0000000000
     84934     12500  TIP3      H1            -25.3743145302       22.8866013032      -71.1475274961  TIP3      11140           0.0000000000
     84935     12500  TIP3      H2            -24.0548098604       23.4514269191      -71.6895255697  TIP3      11140           0.0000000000
     84936     12501  TIP3      OH2           -40.1222762617       20.9340695328      -68.1276802975  TIP3      11141           0.0000000000
     84937     12501  TIP3      H1            -39.2221733952       20.9027903691      -67.7528407916  TIP3      11141           0.0000000000
     84938     12501  TIP3      H2            -40.6191085364       20.2916313251      -67.6147247964  TIP3      11141           0.0000000000
     84939     12502  TIP3      OH2           -22.1755247641       16.6547479158      -66.1227918362  TIP3      11142           0.0000000000
     84940     12502  TIP3      H1            -21.8511675384       15.9807671767      -66.7417953051  TIP3      11142           0.0000000000
     84941     12502  TIP3      H2            -22.1050544977       17.4813261216      -66.6366993543  TIP3      11142           0.0000000000
     84942     12503  TIP3      OH2           -39.0670594421       19.4658616804      -75.1228990831  TIP3      11143           0.0000000000
     84943     12503  TIP3      H1            -38.6488662664       18.6624281550      -74.7876515000  TIP3      11143           0.0000000000
     84944     12503  TIP3      H2            -38.5156864135       20.1433707504      -74.7018462512  TIP3      11143           0.0000000000
     84945     12504  TIP3      OH2           -40.7202794667       22.6528412474      -74.7017000017  TIP3      11144           0.0000000000
     84946     12504  TIP3      H1            -40.0320870786       22.0332822723      -74.9664637159  TIP3      11144           0.0000000000
     84947     12504  TIP3      H2            -40.2261303581       23.1057653250      -73.9963574406  TIP3      11144           0.0000000000
     84948     12505  TIP3      OH2           -22.6772001095       18.7336558562      -67.7755760262  TIP3      11145           0.0000000000
     84949     12505  TIP3      H1            -23.6141099997       19.0293374857      -67.7938875749  TIP3      11145           0.0000000000
     84950     12505  TIP3      H2            -22.6758822349       18.2049777300      -68.5815692607  TIP3      11145           0.0000000000
     84951     12506  TIP3      OH2           -22.6776222517       18.6576408369      -83.0366407407  TIP3      11146           0.0000000000
     84952     12506  TIP3      H1            -22.2944087803       17.9476333858      -83.5750856176  TIP3      11146           0.0000000000
     84953     12506  TIP3      H2            -21.9924046390       19.3365534222      -83.0850646810  TIP3      11146           0.0000000000
     84954     12507  TIP3      OH2           -40.1951629502       18.5851566656      -79.9427235692  TIP3      11147           0.0000000000
     84955     12507  TIP3      H1            -41.1247330214       18.7310661245      -80.2178700844  TIP3      11147           0.0000000000
     84956     12507  TIP3      H2            -39.7483872188       19.1666393669      -80.5696988271  TIP3      11147           0.0000000000
     84957     12508  TIP3      OH2           -25.6550285948       33.6144482955      -78.0199475033  TIP3      11148           0.0000000000
     84958     12508  TIP3      H1            -24.9719162105       33.3811919624      -78.6885107584  TIP3      11148           0.0000000000
     84959     12508  TIP3      H2            -25.1060805153       34.1696012118      -77.4483497574  TIP3      11148           0.0000000000
     84960     12509  TIP3      OH2           -38.2552357574       30.5987384490      -67.5031110318  TIP3      11149           0.0000000000
     84961     12509  TIP3      H1            -39.0887011609       30.7732537176      -67.9606412413  TIP3      11149           0.0000000000
     84962     12509  TIP3      H2            -38.5143965641       30.4763363453      -66.5808224305  TIP3      11149           0.0000000000
     84963     12510  TIP3      OH2           -35.2864034651       31.5354795627      -71.2207151064  TIP3      11150           0.0000000000
     84964     12510  TIP3      H1            -35.6655282265       32.3841658864      -71.5006113814  TIP3      11150           0.0000000000
     84965     12510  TIP3      H2            -34.3736033066       31.6322501199      -71.5542072875  TIP3      11150           0.0000000000
     84966     12511  TIP3      OH2           -30.9824036989       32.9655367708      -68.3273559219  TIP3      11151           0.0000000000
     84967     12511  TIP3      H1            -30.8373879499       32.6182005115      -67.4163392497  TIP3      11151           0.0000000000
     84968     12511  TIP3      H2            -30.0833946605       33.2715691563      -68.5734229271  TIP3      11151           0.0000000000
     84969     12512  TIP3      OH2           -28.6816659178       34.2359811742      -69.0273255390  TIP3      11152           0.0000000000
     84970     12512  TIP3      H1            -27.9533658816       33.6411923596      -69.2559651458  TIP3      11152           0.0000000000
     84971     12512  TIP3      H2            -28.3312896500       34.6733385888      -68.2195199238  TIP3      11152           0.0000000000
     84972     12513  TIP3      OH2           -23.6961155737       16.8288210469      -69.9475062687  TIP3      11153           0.0000000000
     84973     12513  TIP3      H1            -24.5181820579       17.1865577985      -70.3372018899  TIP3      11153           0.0000000000
     84974     12513  TIP3      H2            -23.5331419448       16.0486751445      -70.4933202610  TIP3      11153           0.0000000000
     84975     12514  TIP3      OH2           -37.7088876207       34.6181462357      -70.9428404689  TIP3      11154           0.0000000000
     84976     12514  TIP3      H1            -38.3680465605       34.8866924942      -71.5818819735  TIP3      11154           0.0000000000
     84977     12514  TIP3      H2            -38.2540070675       34.4862294232      -70.1591363137  TIP3      11154           0.0000000000
     84978     12515  TIP3      OH2           -35.4148976602       34.3324814167      -72.1898946404  TIP3      11155           0.0000000000
     84979     12515  TIP3      H1            -36.2811078293       34.5077402528      -71.7547298029  TIP3      11155           0.0000000000
     84980     12515  TIP3      H2            -35.4513585103       34.9435608560      -72.9494354188  TIP3      11155           0.0000000000
     84981     12516  TIP3      OH2           -30.6918371265       34.2625414320      -72.9850845764  TIP3      11156           0.0000000000
     84982     12516  TIP3      H1            -31.1411754889       34.8110967347      -73.6504230366  TIP3      11156           0.0000000000
     84983     12516  TIP3      H2            -30.5397660117       34.9237958598      -72.2725834798  TIP3      11156           0.0000000000
     84984     12517  TIP3      OH2           -28.3780000968       33.0976647313      -71.9815315952  TIP3      11157           0.0000000000
     84985     12517  TIP3      H1            -29.2544350928       33.3409394013      -72.3290125658  TIP3      11157           0.0000000000
     84986     12517  TIP3      H2            -27.9633319967       33.9622931447      -72.0924990080  TIP3      11157           0.0000000000
     84987     12518  TIP3      OH2           -38.3741516158       33.3948975899      -74.2434872324  TIP3      11158           0.0000000000
     84988     12518  TIP3      H1            -38.4000633058       32.9224070781      -73.3959814589  TIP3      11158           0.0000000000
     84989     12518  TIP3      H2            -37.5636721122       33.0419701625      -74.6755491672  TIP3      11158           0.0000000000
     84990     12519  TIP3      OH2           -36.3738276429       32.1748596090      -75.5999406152  TIP3      11159           0.0000000000
     84991     12519  TIP3      H1            -36.5078734651       31.2328468607      -75.4609463055  TIP3      11159           0.0000000000
     84992     12519  TIP3      H2            -35.4987372450       32.3087405673      -75.1800948819  TIP3      11159           0.0000000000
     84993     12520  TIP3      OH2           -33.7241508192       32.6260957269      -74.7618226512  TIP3      11160           0.0000000000
     84994     12520  TIP3      H1            -33.5748511718       31.7056921512      -75.0399125142  TIP3      11160           0.0000000000
     84995     12520  TIP3      H2            -33.6874510105       32.5368720601      -73.8014780490  TIP3      11160           0.0000000000
     84996     12521  TIP3      OH2           -30.2442975141       18.2645452386      -75.6159043473  TIP3      11161           0.0000000000
     84997     12521  TIP3      H1            -30.9590520787       17.6505279742      -75.3637475038  TIP3      11161           0.0000000000
     84998     12521  TIP3      H2            -29.7124125193       17.7686585694      -76.2396736381  TIP3      11161           0.0000000000
     84999     12522  TIP3      OH2           -23.4371361229       17.5530591445      -77.2615559382  TIP3      11162           0.0000000000
     85000     12522  TIP3      H1            -22.7787155758       16.9905161458      -77.7114214629  TIP3      11162           0.0000000000
     85001     12522  TIP3      H2            -22.9937169745       18.4161444124      -77.1847308702  TIP3      11162           0.0000000000
     85002     12523  TIP3      OH2           -37.9636952407       16.8799162121      -77.8718669479  TIP3      11163           0.0000000000
     85003     12523  TIP3      H1            -38.7843950749       16.6411242997      -78.3304576234  TIP3      11163           0.0000000000
     85004     12523  TIP3      H2            -37.4390389914       16.0706666965      -77.8778759029  TIP3      11163           0.0000000000
     85005     12524  TIP3      OH2           -33.3843649516       16.8490241795      -77.9912032769  TIP3      11164           0.0000000000
     85006     12524  TIP3      H1            -32.5138146022       17.2544969958      -78.0371845018  TIP3      11164           0.0000000000
     85007     12524  TIP3      H2            -33.4739577899       16.6458104157      -77.0631009276  TIP3      11164           0.0000000000
     85008     12525  TIP3      OH2           -39.2685435870       32.6527955658      -81.0319561000  TIP3      11165           0.0000000000
     85009     12525  TIP3      H1            -39.8741689037       32.6298290956      -81.7772144841  TIP3      11165           0.0000000000
     85010     12525  TIP3      H2            -39.1765100142       33.5980843659      -80.8825773500  TIP3      11165           0.0000000000
     85011     12526  TIP3      OH2           -32.2729259776       18.8889909044      -81.1521937445  TIP3      11166           0.0000000000
     85012     12526  TIP3      H1            -32.0721135430       18.2650070129      -80.4397489096  TIP3      11166           0.0000000000
     85013     12526  TIP3      H2            -32.2337369514       19.7354756616      -80.6531750294  TIP3      11166           0.0000000000
     85014     12527  TIP3      OH2           -30.3901574928       33.9523884745      -82.7584008231  TIP3      11167           0.0000000000
     85015     12527  TIP3      H1            -29.4353924985       34.1320679800      -82.8767438245  TIP3      11167           0.0000000000
     85016     12527  TIP3      H2            -30.5491299901       33.3711630584      -83.5170129008  TIP3      11167           0.0000000000
     85017     12528  TIP3      OH2           -23.6883881772       33.3996572097      -79.9873995170  TIP3      11168           0.0000000000
     85018     12528  TIP3      H1            -23.8393185044       32.6506890654      -80.5929905827  TIP3      11168           0.0000000000
     85019     12528  TIP3      H2            -23.7111571249       34.1525338545      -80.6143287837  TIP3      11168           0.0000000000
     85020     12529  TIP3      OH2           -36.0335661922       16.8565056760      -66.6682719431  TIP3      11169           0.0000000000
     85021     12529  TIP3      H1            -35.1800751858       16.4832914969      -66.9333047412  TIP3      11169           0.0000000000
     85022     12529  TIP3      H2            -36.4602925164       16.0449307364      -66.3219399777  TIP3      11169           0.0000000000
     85023     12530  TIP3      OH2           -37.4400159877       33.4874945340      -84.0749317145  TIP3      11170           0.0000000000
     85024     12530  TIP3      H1            -37.6430653496       33.8825298063      -83.2166651171  TIP3      11170           0.0000000000
     85025     12530  TIP3      H2            -36.6090161649       33.0302308827      -83.9211580712  TIP3      11170           0.0000000000
     85026     12531  TIP3      OH2           -27.6095319414       16.1150671613      -66.5796686475  TIP3      11171           0.0000000000
     85027     12531  TIP3      H1            -27.5102671904       15.6366165362      -65.7341527838  TIP3      11171           0.0000000000
     85028     12531  TIP3      H2            -26.6869307368       16.0848339549      -66.9035860254  TIP3      11171           0.0000000000
     85029     12532  TIP3      OH2           -24.4685543875       32.1395391805      -67.8247268734  TIP3      11172           0.0000000000
     85030     12532  TIP3      H1            -25.2262593188       32.0164429172      -68.4341712185  TIP3      11172           0.0000000000
     85031     12532  TIP3      H2            -24.4973546257       33.1081285845      -67.7023197374  TIP3      11172           0.0000000000
     85032     12533  TIP3      OH2           -10.0447274395       26.0291517659      -77.8735640838  TIP3      11173           0.0000000000
     85033     12533  TIP3      H1             -9.9559333677       27.0078968849      -77.9594006099  TIP3      11173           0.0000000000
     85034     12533  TIP3      H2            -10.6625350341       25.8157069193      -78.5954377996  TIP3      11173           0.0000000000
     85035     12534  TIP3      OH2           -11.2454064260       25.3026440132      -74.4269797844  TIP3      11174           0.0000000000
     85036     12534  TIP3      H1            -11.0765715597       24.6658382403      -73.7039819697  TIP3      11174           0.0000000000
     85037     12534  TIP3      H2            -11.3801080402       24.7577903974      -75.2103082179  TIP3      11174           0.0000000000
     85038     12535  TIP3      OH2           -18.7771241540       24.9647070031      -72.8712967373  TIP3      11175           0.0000000000
     85039     12535  TIP3      H1            -18.6727730180       24.2765911980      -72.1786783654  TIP3      11175           0.0000000000
     85040     12535  TIP3      H2            -18.0318177089       25.5332531208      -72.6480377657  TIP3      11175           0.0000000000
     85041     12536  TIP3      OH2           -21.1990524609       22.9726008562      -78.9237304876  TIP3      11176           0.0000000000
     85042     12536  TIP3      H1            -21.6368492263       23.8464958341      -78.9318634848  TIP3      11176           0.0000000000
     85043     12536  TIP3      H2            -21.7862837450       22.4446220060      -79.4821932026  TIP3      11176           0.0000000000
     85044     12537  TIP3      OH2           -20.4966209755       25.1990339309      -76.7446748325  TIP3      11177           0.0000000000
     85045     12537  TIP3      H1            -20.2351366098       24.3834522143      -76.2739419009  TIP3      11177           0.0000000000
     85046     12537  TIP3      H2            -19.7594484269       25.3003853388      -77.3655548286  TIP3      11177           0.0000000000
     85047     12538  TIP3      OH2           -10.2771724549       33.3940944959      -75.9187212307  TIP3      11178           0.0000000000
     85048     12538  TIP3      H1             -9.6468555738       32.6890363731      -76.1918141100  TIP3      11178           0.0000000000
     85049     12538  TIP3      H2            -10.5187843798       33.0841413684      -75.0437200696  TIP3      11178           0.0000000000
     85050     12539  TIP3      OH2           -12.7736880707       27.5472030445      -73.9507566028  TIP3      11179           0.0000000000
     85051     12539  TIP3      H1            -12.2699578628       27.1379613399      -74.6640537292  TIP3      11179           0.0000000000
     85052     12539  TIP3      H2            -12.0050020869       27.9043168732      -73.4438061151  TIP3      11179           0.0000000000
     85053     12540  TIP3      OH2            -4.1212550615       19.3445494932      -73.2502460089  TIP3      11180           0.0000000000
     85054     12540  TIP3      H1             -3.9670091427       19.8911167632      -72.4440607444  TIP3      11180           0.0000000000
     85055     12540  TIP3      H2             -3.5884514021       19.8360354177      -73.8706853377  TIP3      11180           0.0000000000
     85056     12541  TIP3      OH2            -9.6141620559       22.1665032397      -73.6720563798  TIP3      11181           0.0000000000
     85057     12541  TIP3      H1             -9.4102212745       21.2118598633      -73.6401390407  TIP3      11181           0.0000000000
     85058     12541  TIP3      H2             -9.6484601532       22.2900871967      -74.6401140263  TIP3      11181           0.0000000000
     85059     12542  TIP3      OH2           -19.8258683256       22.6383041071      -75.6840392802  TIP3      11182           0.0000000000
     85060     12542  TIP3      H1            -19.1198705527       22.1337022519      -75.2608675224  TIP3      11182           0.0000000000
     85061     12542  TIP3      H2            -19.7197738032       22.3597264484      -76.6110783641  TIP3      11182           0.0000000000
     85062     12543  TIP3      OH2           -14.6456469681       24.2078270394      -76.3133574451  TIP3      11183           0.0000000000
     85063     12543  TIP3      H1            -13.9773266488       23.5715471523      -76.0114209113  TIP3      11183           0.0000000000
     85064     12543  TIP3      H2            -15.1723717752       23.5937020269      -76.8634920236  TIP3      11183           0.0000000000
     85065     12544  TIP3      OH2            -3.7144458325       20.7672317178      -70.9736123946  TIP3      11184           0.0000000000
     85066     12544  TIP3      H1             -4.3207023661       21.5250617374      -71.0566149995  TIP3      11184           0.0000000000
     85067     12544  TIP3      H2             -3.6329099605       20.6554687742      -70.0177196893  TIP3      11184           0.0000000000
     85068     12545  TIP3      OH2           -17.6299368379       19.1193234599      -72.3626605648  TIP3      11185           0.0000000000
     85069     12545  TIP3      H1            -17.8074790333       19.6945244862      -73.1128128642  TIP3      11185           0.0000000000
     85070     12545  TIP3      H2            -18.2529419890       19.4228246576      -71.6816626125  TIP3      11185           0.0000000000
     85071     12546  TIP3      OH2           -10.1801392717       28.6557404330      -78.8676349254  TIP3      11186           0.0000000000
     85072     12546  TIP3      H1            -10.5404919298       28.3511719352      -79.7117527934  TIP3      11186           0.0000000000
     85073     12546  TIP3      H2            -10.5673177583       29.5528310422      -78.7701845729  TIP3      11186           0.0000000000
     85074     12547  TIP3      OH2           -15.0260696853       26.8304010335      -72.1829336600  TIP3      11187           0.0000000000
     85075     12547  TIP3      H1            -15.7595736340       27.4317452379      -71.9718599864  TIP3      11187           0.0000000000
     85076     12547  TIP3      H2            -14.3195338438       27.4637093525      -72.3855122676  TIP3      11187           0.0000000000
     85077     12548  TIP3      OH2            -6.8920109409       19.6716136971      -76.0630247157  TIP3      11188           0.0000000000
     85078     12548  TIP3      H1             -7.1389490312       18.9222215042      -75.5183209880  TIP3      11188           0.0000000000
     85079     12548  TIP3      H2             -6.2378894528       20.1289065974      -75.5182741339  TIP3      11188           0.0000000000
     85080     12549  TIP3      OH2            -6.5990880195       18.3733454123      -72.4111778076  TIP3      11189           0.0000000000
     85081     12549  TIP3      H1             -7.3086619506       19.0237065824      -72.4557442108  TIP3      11189           0.0000000000
     85082     12549  TIP3      H2             -5.8588276625       18.7894777833      -72.8983601534  TIP3      11189           0.0000000000
     85083     12550  TIP3      OH2            -8.6056084173       31.8570965832      -77.2050570647  TIP3      11190           0.0000000000
     85084     12550  TIP3      H1             -8.1518803428       31.1286674840      -77.6561588809  TIP3      11190           0.0000000000
     85085     12550  TIP3      H2             -8.2249456184       32.6719363316      -77.5831042772  TIP3      11190           0.0000000000
     85086     12551  TIP3      OH2            -5.8030655828       28.3735600066      -70.1632101318  TIP3      11191           0.0000000000
     85087     12551  TIP3      H1             -5.6531300076       27.7310081837      -70.8896235783  TIP3      11191           0.0000000000
     85088     12551  TIP3      H2             -5.6260342649       29.2201718399      -70.5839709292  TIP3      11191           0.0000000000
     85089     12552  TIP3      OH2           -11.3117488096       25.3832133908      -80.3667355389  TIP3      11192           0.0000000000
     85090     12552  TIP3      H1            -12.0278778306       25.8566409470      -80.8191190710  TIP3      11192           0.0000000000
     85091     12552  TIP3      H2            -10.6343745490       25.3076840272      -81.0650639225  TIP3      11192           0.0000000000
     85092     12553  TIP3      OH2           -11.2725718113       23.7596426573      -83.3380337404  TIP3      11193           0.0000000000
     85093     12553  TIP3      H1            -10.5378750636       23.7927700399      -82.7010254196  TIP3      11193           0.0000000000
     85094     12553  TIP3      H2            -10.9287707474       23.1602850493      -84.0047119529  TIP3      11193           0.0000000000
     85095     12554  TIP3      OH2            -3.9207246861       24.6873910665      -72.1336440802  TIP3      11194           0.0000000000
     85096     12554  TIP3      H1             -4.5825972093       25.4009624046      -72.0748029671  TIP3      11194           0.0000000000
     85097     12554  TIP3      H2             -3.4218454179       24.9233526750      -72.9417379972  TIP3      11194           0.0000000000
     85098     12555  TIP3      OH2            -7.8550103262       25.4924197417      -79.4773523084  TIP3      11195           0.0000000000
     85099     12555  TIP3      H1             -8.6017909188       25.7287317667      -78.8896944764  TIP3      11195           0.0000000000
     85100     12555  TIP3      H2             -7.4046208833       24.7954258395      -78.9693768754  TIP3      11195           0.0000000000
     85101     12556  TIP3      OH2            -7.9499682016       23.6658713503      -70.3502256569  TIP3      11196           0.0000000000
     85102     12556  TIP3      H1             -7.9103126535       24.5004688443      -69.8586741453  TIP3      11196           0.0000000000
     85103     12556  TIP3      H2             -8.5492949237       23.9532956228      -71.0736428818  TIP3      11196           0.0000000000
     85104     12557  TIP3      OH2           -16.2584142966       26.1315784130      -77.5753583573  TIP3      11197           0.0000000000
     85105     12557  TIP3      H1            -16.5770744545       25.7406334005      -78.4233063998  TIP3      11197           0.0000000000
     85106     12557  TIP3      H2            -15.6339680652       25.4600526203      -77.2653759656  TIP3      11197           0.0000000000
     85107     12558  TIP3      OH2           -16.0499485781       24.8352733560      -73.8558220942  TIP3      11198           0.0000000000
     85108     12558  TIP3      H1            -15.7117974903       24.9486865364      -74.7502538559  TIP3      11198           0.0000000000
     85109     12558  TIP3      H2            -15.7290341079       25.5294482307      -73.2417943265  TIP3      11198           0.0000000000
     85110     12559  TIP3      OH2            -9.5893050262       30.4770642001      -73.2206199525  TIP3      11199           0.0000000000
     85111     12559  TIP3      H1             -9.7890530435       31.0907536185      -72.5135150855  TIP3      11199           0.0000000000
     85112     12559  TIP3      H2             -9.7725151052       29.6078035142      -72.8027050594  TIP3      11199           0.0000000000
     85113     12560  TIP3      OH2           -15.0131604901       29.3087536507      -69.2648454957  TIP3      11200           0.0000000000
     85114     12560  TIP3      H1            -15.3719777193       30.0635401414      -68.7514050868  TIP3      11200           0.0000000000
     85115     12560  TIP3      H2            -15.6983722369       29.1628982528      -69.9326012065  TIP3      11200           0.0000000000
     85116     12561  TIP3      OH2            -8.9888341218       24.6714369541      -81.8019356199  TIP3      11201           0.0000000000
     85117     12561  TIP3      H1             -8.4440210201       24.8819569388      -80.9987433792  TIP3      11201           0.0000000000
     85118     12561  TIP3      H2             -8.6075371314       25.2013397182      -82.5008712051  TIP3      11201           0.0000000000
     85119     12562  TIP3      OH2           -18.0154373640       25.4869845008      -70.0509357751  TIP3      11202           0.0000000000
     85120     12562  TIP3      H1            -17.9903070486       26.1592873159      -69.3441061567  TIP3      11202           0.0000000000
     85121     12562  TIP3      H2            -18.9505436334       25.5821778646      -70.2942203752  TIP3      11202           0.0000000000
     85122     12563  TIP3      OH2           -11.2576244178       31.4213357387      -78.3566999850  TIP3      11203           0.0000000000
     85123     12563  TIP3      H1            -10.8446997843       31.7212010487      -77.5320534848  TIP3      11203           0.0000000000
     85124     12563  TIP3      H2            -11.8405563362       32.1594566708      -78.5783059648  TIP3      11203           0.0000000000
     85125     12564  TIP3      OH2           -16.7242252778       31.3429837818      -68.4495792096  TIP3      11204           0.0000000000
     85126     12564  TIP3      H1            -16.8171033487       31.2669140281      -69.4032123320  TIP3      11204           0.0000000000
     85127     12564  TIP3      H2            -17.6716986337       31.2561472927      -68.1930392916  TIP3      11204           0.0000000000
     85128     12565  TIP3      OH2            -5.2639925599       16.4313442905      -81.9308589689  TIP3      11205           0.0000000000
     85129     12565  TIP3      H1             -6.2099534808       16.5406690324      -81.6831389292  TIP3      11205           0.0000000000
     85130     12565  TIP3      H2             -5.0490615234       17.3040735588      -82.3018345339  TIP3      11205           0.0000000000
     85131     12566  TIP3      OH2           -17.2976680884       25.2253268282      -79.9260172039  TIP3      11206           0.0000000000
     85132     12566  TIP3      H1            -17.5340714861       25.9488527040      -80.5427524074  TIP3      11206           0.0000000000
     85133     12566  TIP3      H2            -17.9140572769       24.5318859347      -80.1953432091  TIP3      11206           0.0000000000
     85134     12567  TIP3      OH2           -21.2064245494       27.5975389984      -71.0759994210  TIP3      11207           0.0000000000
     85135     12567  TIP3      H1            -21.6383667582       27.4895596864      -71.9386934695  TIP3      11207           0.0000000000
     85136     12567  TIP3      H2            -21.1168034239       26.6525001333      -70.8365753831  TIP3      11207           0.0000000000
     85137     12568  TIP3      OH2           -12.1836645859       30.5177620166      -69.6323413810  TIP3      11208           0.0000000000
     85138     12568  TIP3      H1            -12.1708781949       31.4336152216      -69.2677588126  TIP3      11208           0.0000000000
     85139     12568  TIP3      H2            -13.1106689899       30.2472031515      -69.5118691068  TIP3      11208           0.0000000000
     85140     12569  TIP3      OH2           -11.7835566820       34.3377114728      -79.9472590516  TIP3      11209           0.0000000000
     85141     12569  TIP3      H1            -11.8871706055       34.2626515681      -80.9109005568  TIP3      11209           0.0000000000
     85142     12569  TIP3      H2            -11.7757208071       35.2913110692      -79.7684108181  TIP3      11209           0.0000000000
     85143     12570  TIP3      OH2            -8.7568837187       33.5360019938      -82.9654727551  TIP3      11210           0.0000000000
     85144     12570  TIP3      H1             -8.3563355400       32.7746885208      -83.3928192870  TIP3      11210           0.0000000000
     85145     12570  TIP3      H2             -8.7258714634       33.3154735034      -82.0143729839  TIP3      11210           0.0000000000
     85146     12571  TIP3      OH2            -9.0779418416       33.4411977377      -80.1762397243  TIP3      11211           0.0000000000
     85147     12571  TIP3      H1            -10.0254481182       33.5430179095      -79.9576475011  TIP3      11211           0.0000000000
     85148     12571  TIP3      H2             -8.7986950748       32.7521083831      -79.5633535684  TIP3      11211           0.0000000000
     85149     12572  TIP3      OH2            -6.0958557435       22.5019962124      -68.0883056980  TIP3      11212           0.0000000000
     85150     12572  TIP3      H1             -6.4923841834       22.9646550369      -68.8443896294  TIP3      11212           0.0000000000
     85151     12572  TIP3      H2             -6.0125113188       21.5944347989      -68.4325299912  TIP3      11212           0.0000000000
     85152     12573  TIP3      OH2           -18.8829541586       28.9164147665      -70.1410440117  TIP3      11213           0.0000000000
     85153     12573  TIP3      H1            -18.6810575350       28.5707955669      -69.2514935912  TIP3      11213           0.0000000000
     85154     12573  TIP3      H2            -19.7596501140       28.5418217719      -70.3385160174  TIP3      11213           0.0000000000
     85155     12574  TIP3      OH2           -11.5354073854       17.1276225050      -70.7588403871  TIP3      11214           0.0000000000
     85156     12574  TIP3      H1            -11.1418595506       16.6583646705      -69.9970148596  TIP3      11214           0.0000000000
     85157     12574  TIP3      H2            -12.4831418280       16.9913556046      -70.5906616012  TIP3      11214           0.0000000000
     85158     12575  TIP3      OH2            -8.2546279438       20.9288940660      -69.8910825122  TIP3      11215           0.0000000000
     85159     12575  TIP3      H1             -8.8657850931       20.6708711905      -69.1623399710  TIP3      11215           0.0000000000
     85160     12575  TIP3      H2             -8.4769701079       21.8345627669      -70.1498077357  TIP3      11215           0.0000000000
     85161     12576  TIP3      OH2           -11.7239528183       23.1854739785      -68.0932255213  TIP3      11216           0.0000000000
     85162     12576  TIP3      H1            -12.2237269389       22.4083929296      -67.7089812986  TIP3      11216           0.0000000000
     85163     12576  TIP3      H2            -10.8102054231       22.9578564189      -67.8859009907  TIP3      11216           0.0000000000
     85164     12577  TIP3      OH2            -9.7175001500       22.4369149196      -76.4494773272  TIP3      11217           0.0000000000
     85165     12577  TIP3      H1             -9.8336479714       23.0495236933      -77.1945789219  TIP3      11217           0.0000000000
     85166     12577  TIP3      H2             -9.4931756117       21.6218009907      -76.9241024053  TIP3      11217           0.0000000000
     85167     12578  TIP3      OH2           -18.5539251258       22.6364318892      -71.2143713109  TIP3      11218           0.0000000000
     85168     12578  TIP3      H1            -18.4171076104       23.0443244001      -70.3453588856  TIP3      11218           0.0000000000
     85169     12578  TIP3      H2            -18.9311240537       21.7726667724      -71.0199585245  TIP3      11218           0.0000000000
     85170     12579  TIP3      OH2           -21.8313510615       19.7713223745      -77.2779903990  TIP3      11219           0.0000000000
     85171     12579  TIP3      H1            -21.1886746349       19.6666342475      -76.5523453977  TIP3      11219           0.0000000000
     85172     12579  TIP3      H2            -21.3958386990       19.3366152552      -78.0361136725  TIP3      11219           0.0000000000
     85173     12580  TIP3      OH2           -20.5727094466       20.5002688070      -81.8434960755  TIP3      11220           0.0000000000
     85174     12580  TIP3      H1            -20.0615603287       21.0638086167      -82.4588216490  TIP3      11220           0.0000000000
     85175     12580  TIP3      H2            -21.2753863159       21.1081663767      -81.5632468978  TIP3      11220           0.0000000000
     85176     12581  TIP3      OH2           -10.4431306363       24.0686078344      -71.8894852835  TIP3      11221           0.0000000000
     85177     12581  TIP3      H1            -10.0505734453       23.3832411086      -72.4672357173  TIP3      11221           0.0000000000
     85178     12581  TIP3      H2            -10.8611733967       23.5237489467      -71.2008345328  TIP3      11221           0.0000000000
     85179     12582  TIP3      OH2           -18.8458653789       21.6055197698      -78.1306155115  TIP3      11222           0.0000000000
     85180     12582  TIP3      H1            -19.6893708288       21.7348133858      -78.5982842179  TIP3      11222           0.0000000000
     85181     12582  TIP3      H2            -18.4872648168       20.8142690726      -78.5525852096  TIP3      11222           0.0000000000
     85182     12583  TIP3      OH2            -9.2337160629       19.2734903450      -73.8052327187  TIP3      11223           0.0000000000
     85183     12583  TIP3      H1             -9.8999960903       19.3018961096      -73.1042832350  TIP3      11223           0.0000000000
     85184     12583  TIP3      H2             -9.7091064631       19.0299184592      -74.6051938809  TIP3      11223           0.0000000000
     85185     12584  TIP3      OH2           -16.4794536712       22.8297951332      -82.9740884443  TIP3      11224           0.0000000000
     85186     12584  TIP3      H1            -17.0211896257       22.4313177325      -83.6686638954  TIP3      11224           0.0000000000
     85187     12584  TIP3      H2            -15.6170703426       22.9641765452      -83.3883377880  TIP3      11224           0.0000000000
     85188     12585  TIP3      OH2            -6.0213794682       34.9481692906      -67.4421659898  TIP3      11225           0.0000000000
     85189     12585  TIP3      H1             -5.7045657274       35.2527414781      -68.3014138884  TIP3      11225           0.0000000000
     85190     12585  TIP3      H2             -5.2756053261       35.1839986377      -66.8668942376  TIP3      11225           0.0000000000
     85191     12586  TIP3      OH2           -18.3079704848       27.3514796180      -67.8920841331  TIP3      11226           0.0000000000
     85192     12586  TIP3      H1            -17.6132942630       27.6185527113      -67.2740398865  TIP3      11226           0.0000000000
     85193     12586  TIP3      H2            -19.1063606548       27.5069381410      -67.3410366619  TIP3      11226           0.0000000000
     85194     12587  TIP3      OH2           -12.3685545709       22.7841240299      -75.1059600286  TIP3      11227           0.0000000000
     85195     12587  TIP3      H1            -11.7531951446       22.2718465547      -75.6658013688  TIP3      11227           0.0000000000
     85196     12587  TIP3      H2            -12.4131868649       22.2174347116      -74.3266243158  TIP3      11227           0.0000000000
     85197     12588  TIP3      OH2           -13.1109820813       27.3508585431      -81.0457493061  TIP3      11228           0.0000000000
     85198     12588  TIP3      H1            -13.8941704292       26.8706553448      -81.3977496352  TIP3      11228           0.0000000000
     85199     12588  TIP3      H2            -13.3008944534       27.4174826867      -80.1061062709  TIP3      11228           0.0000000000
     85200     12589  TIP3      OH2            -5.9154100070       26.5393725071      -72.2635083572  TIP3      11229           0.0000000000
     85201     12589  TIP3      H1             -5.3717976952       27.0478016063      -72.8602945830  TIP3      11229           0.0000000000
     85202     12589  TIP3      H2             -6.7934397899       26.5786738608      -72.7051192047  TIP3      11229           0.0000000000
     85203     12590  TIP3      OH2           -11.6450469010       27.5740278571      -69.8052615883  TIP3      11230           0.0000000000
     85204     12590  TIP3      H1            -11.9492997685       27.1910238545      -68.9794505681  TIP3      11230           0.0000000000
     85205     12590  TIP3      H2            -11.8396477803       28.5194262426      -69.7097697523  TIP3      11230           0.0000000000
     85206     12591  TIP3      OH2            -8.5121547314       21.9968170572      -81.2463654217  TIP3      11231           0.0000000000
     85207     12591  TIP3      H1             -7.6332955343       21.9203606269      -80.8378946039  TIP3      11231           0.0000000000
     85208     12591  TIP3      H2             -8.4828083690       22.8450121604      -81.7044821242  TIP3      11231           0.0000000000
     85209     12592  TIP3      OH2           -17.9793712700       26.6648824727      -75.2521291523  TIP3      11232           0.0000000000
     85210     12592  TIP3      H1            -17.3089358671       26.6505338389      -75.9557782790  TIP3      11232           0.0000000000
     85211     12592  TIP3      H2            -17.9361058012       25.8152513887      -74.7905189933  TIP3      11232           0.0000000000
     85212     12593  TIP3      OH2           -11.0142844493       28.8268617698      -81.9825704930  TIP3      11233           0.0000000000
     85213     12593  TIP3      H1            -11.3714740407       29.6642604077      -81.6415592565  TIP3      11233           0.0000000000
     85214     12593  TIP3      H2            -11.7561599393       28.2012262831      -81.8385539754  TIP3      11233           0.0000000000
     85215     12594  TIP3      OH2           -21.0076414785       25.1590173516      -69.9770704796  TIP3      11234           0.0000000000
     85216     12594  TIP3      H1            -20.8097625571       24.7014630809      -69.1371388628  TIP3      11234           0.0000000000
     85217     12594  TIP3      H2            -21.6030212178       24.5285613303      -70.4232698822  TIP3      11234           0.0000000000
     85218     12595  TIP3      OH2           -13.9794954759       24.7026328633      -67.7576223847  TIP3      11235           0.0000000000
     85219     12595  TIP3      H1            -14.3345252441       24.4183379126      -68.6182854466  TIP3      11235           0.0000000000
     85220     12595  TIP3      H2            -13.0662329918       24.3940981738      -67.8518765458  TIP3      11235           0.0000000000
     85221     12596  TIP3      OH2            -9.3249905240       30.0393724087      -69.8735135814  TIP3      11236           0.0000000000
     85222     12596  TIP3      H1            -10.2555964797       30.2191743345      -70.0917231512  TIP3      11236           0.0000000000
     85223     12596  TIP3      H2             -9.3384344943       30.3238147002      -68.9360136886  TIP3      11236           0.0000000000
     85224     12597  TIP3      OH2            -3.6523873427       22.2351383359      -81.4381828456  TIP3      11237           0.0000000000
     85225     12597  TIP3      H1             -4.1467733466       21.8622578111      -82.1765857033  TIP3      11237           0.0000000000
     85226     12597  TIP3      H2             -3.5269908958       23.1497804420      -81.7525925730  TIP3      11237           0.0000000000
     85227     12598  TIP3      OH2            -3.6460298998       28.0325605157      -68.6393763023  TIP3      11238           0.0000000000
     85228     12598  TIP3      H1             -4.5227624655       28.3197738133      -68.9898756766  TIP3      11238           0.0000000000
     85229     12598  TIP3      H2             -3.0969830913       28.0531359587      -69.4523301699  TIP3      11238           0.0000000000
     85230     12599  TIP3      OH2            -8.1559592968       25.8107165384      -73.9400333694  TIP3      11239           0.0000000000
     85231     12599  TIP3      H1             -9.0926870196       25.6396731642      -74.0839749594  TIP3      11239           0.0000000000
     85232     12599  TIP3      H2             -7.7168584166       25.0790014638      -74.4060690290  TIP3      11239           0.0000000000
     85233     12600  TIP3      OH2           -19.8692720892       24.9845800268      -83.2768323978  TIP3      11240           0.0000000000
     85234     12600  TIP3      H1            -19.2641679830       25.6534824761      -82.9226488006  TIP3      11240           0.0000000000
     85235     12600  TIP3      H2            -20.7490036592       25.3097318209      -83.0275976724  TIP3      11240           0.0000000000
     85236     12601  TIP3      OH2           -10.2793148466       28.0088300153      -72.3225036133  TIP3      11241           0.0000000000
     85237     12601  TIP3      H1            -10.5277246233       27.8536214592      -71.3867842289  TIP3      11241           0.0000000000
     85238     12601  TIP3      H2             -9.5817095451       27.3576420582      -72.4758904791  TIP3      11241           0.0000000000
     85239     12602  TIP3      OH2            -7.4559441202       32.6701395053      -69.7997256049  TIP3      11242           0.0000000000
     85240     12602  TIP3      H1             -8.0760920763       32.0824471920      -70.2750660994  TIP3      11242           0.0000000000
     85241     12602  TIP3      H2             -7.2054815899       33.2869055404      -70.4787620264  TIP3      11242           0.0000000000
     85242     12603  TIP3      OH2           -19.3579069927       19.8725744096      -70.3933803875  TIP3      11243           0.0000000000
     85243     12603  TIP3      H1            -20.2621437704       20.2249514319      -70.4811899617  TIP3      11243           0.0000000000
     85244     12603  TIP3      H2            -19.4938207413       19.0157091106      -69.9846030986  TIP3      11243           0.0000000000
     85245     12604  TIP3      OH2           -18.4972856018       26.9364076521      -81.7516902150  TIP3      11244           0.0000000000
     85246     12604  TIP3      H1            -19.1558579977       27.3616121625      -81.2146604263  TIP3      11244           0.0000000000
     85247     12604  TIP3      H2            -17.9213981509       27.6775228690      -82.0372135990  TIP3      11244           0.0000000000
     85248     12605  TIP3      OH2           -12.1562616979       31.3934623049      -81.5279293539  TIP3      11245           0.0000000000
     85249     12605  TIP3      H1            -12.9765130485       31.9030192634      -81.5021790834  TIP3      11245           0.0000000000
     85250     12605  TIP3      H2            -11.6612950864       31.8858913355      -82.1860105857  TIP3      11245           0.0000000000
     85251     12606  TIP3      OH2           -12.0640699109       21.9887264517      -70.4182401093  TIP3      11246           0.0000000000
     85252     12606  TIP3      H1            -12.0434989582       22.5349121923      -69.6091575089  TIP3      11246           0.0000000000
     85253     12606  TIP3      H2            -11.4382721730       21.2806204946      -70.2842510233  TIP3      11246           0.0000000000
     85254     12607  TIP3      OH2            -5.9033873911       19.8694416656      -69.5411310793  TIP3      11247           0.0000000000
     85255     12607  TIP3      H1             -6.8364429195       20.1726733904      -69.6594967701  TIP3      11247           0.0000000000
     85256     12607  TIP3      H2             -5.6018533696       19.8287203785      -70.4641013967  TIP3      11247           0.0000000000
     85257     12608  TIP3      OH2            -7.3012963463       23.6461763554      -75.5204555917  TIP3      11248           0.0000000000
     85258     12608  TIP3      H1             -8.1179910254       23.2040392719      -75.8056474378  TIP3      11248           0.0000000000
     85259     12608  TIP3      H2             -6.8156468771       22.9560169684      -75.0039567246  TIP3      11248           0.0000000000
     85260     12609  TIP3      OH2           -19.5513827613       22.2304654282      -83.7299103920  TIP3      11249           0.0000000000
     85261     12609  TIP3      H1            -19.5696611497       23.2000350350      -83.6161213481  TIP3      11249           0.0000000000
     85262     12609  TIP3      H2            -20.4235482827       22.0554879447      -84.1076828205  TIP3      11249           0.0000000000
     85263     12610  TIP3      OH2           -18.7824403558       17.0587592611      -75.0569513058  TIP3      11250           0.0000000000
     85264     12610  TIP3      H1            -18.9460999415       17.0713814138      -76.0257875339  TIP3      11250           0.0000000000
     85265     12610  TIP3      H2            -19.1550474195       16.2010826946      -74.7927759179  TIP3      11250           0.0000000000
     85266     12611  TIP3      OH2           -15.9062586994       32.5037946364      -65.9813062615  TIP3      11251           0.0000000000
     85267     12611  TIP3      H1            -15.1203371548       32.0339627750      -65.6767302768  TIP3      11251           0.0000000000
     85268     12611  TIP3      H2            -15.9339921744       32.2498109683      -66.9235447669  TIP3      11251           0.0000000000
     85269     12612  TIP3      OH2            -9.4150720118       30.9108730462      -67.2606126087  TIP3      11252           0.0000000000
     85270     12612  TIP3      H1             -9.7077939627       30.0153029839      -67.0046701850  TIP3      11252           0.0000000000
     85271     12612  TIP3      H2             -8.6311719571       31.0330113359      -66.6893506335  TIP3      11252           0.0000000000
     85272     12613  TIP3      OH2           -20.6809409445       27.3485413448      -66.6108279479  TIP3      11253           0.0000000000
     85273     12613  TIP3      H1            -20.4903882058       26.4567530410      -66.9609139286  TIP3      11253           0.0000000000
     85274     12613  TIP3      H2            -21.3830892131       27.6578989115      -67.2128859976  TIP3      11253           0.0000000000
     85275     12614  TIP3      OH2           -13.9230135675       27.3493345474      -67.2154618024  TIP3      11254           0.0000000000
     85276     12614  TIP3      H1            -14.2887034592       27.6763888439      -68.0620942330  TIP3      11254           0.0000000000
     85277     12614  TIP3      H2            -13.8863297677       26.3754345927      -67.3425288334  TIP3      11254           0.0000000000
     85278     12615  TIP3      OH2            -8.2582662501       27.2189725014      -69.7985765347  TIP3      11255           0.0000000000
     85279     12615  TIP3      H1             -7.4793659401       27.8049879997      -69.9243350567  TIP3      11255           0.0000000000
     85280     12615  TIP3      H2             -8.9586376132       27.8892645773      -69.8320098528  TIP3      11255           0.0000000000
     85281     12616  TIP3      OH2           -19.7710828438       24.5930983188      -67.2311299740  TIP3      11256           0.0000000000
     85282     12616  TIP3      H1            -19.3392828476       23.7381390087      -67.3306075486  TIP3      11256           0.0000000000
     85283     12616  TIP3      H2            -19.9836296485       24.6149014997      -66.2785539599  TIP3      11256           0.0000000000
     85284     12617  TIP3      OH2           -15.0575901649       25.7233898288      -82.1526568472  TIP3      11257           0.0000000000
     85285     12617  TIP3      H1            -15.6019621363       25.2008900998      -81.5520796962  TIP3      11257           0.0000000000
     85286     12617  TIP3      H2            -14.8180082090       25.0402222057      -82.8178676088  TIP3      11257           0.0000000000
     85287     12618  TIP3      OH2           -15.8407874520       23.5673436628      -69.8694400279  TIP3      11258           0.0000000000
     85288     12618  TIP3      H1            -16.4642997782       24.2673673644      -69.6187629247  TIP3      11258           0.0000000000
     85289     12618  TIP3      H2            -15.4773579720       23.9010142279      -70.7026534797  TIP3      11258           0.0000000000
     85290     12619  TIP3      OH2           -14.0341826293       23.9406494189      -83.9851810662  TIP3      11259           0.0000000000
     85291     12619  TIP3      H1            -14.1269027802       23.8131216051      -84.9287409231  TIP3      11259           0.0000000000
     85292     12619  TIP3      H2            -13.0621591395       24.0304698331      -83.8536222616  TIP3      11259           0.0000000000
     85293     12620  TIP3      OH2           -10.7703617646       26.0225443303      -66.5776745479  TIP3      11260           0.0000000000
     85294     12620  TIP3      H1             -9.8092763786       26.1582337894      -66.6458812017  TIP3      11260           0.0000000000
     85295     12620  TIP3      H2            -10.9499550658       25.4539326678      -65.8368248577  TIP3      11260           0.0000000000
     85296     12621  TIP3      OH2           -15.3923705832       20.9857434654      -68.7920750142  TIP3      11261           0.0000000000
     85297     12621  TIP3      H1            -15.3186532127       20.2546309467      -69.4142785527  TIP3      11261           0.0000000000
     85298     12621  TIP3      H2            -15.5043613385       21.7627096342      -69.3853150810  TIP3      11261           0.0000000000
     85299     12622  TIP3      OH2           -13.4926212788       24.7531680368      -71.0458442634  TIP3      11262           0.0000000000
     85300     12622  TIP3      H1            -12.7086143101       24.6261097958      -71.5806353461  TIP3      11262           0.0000000000
     85301     12622  TIP3      H2            -13.8617419983       25.6060227326      -71.3159741809  TIP3      11262           0.0000000000
     85302     12623  TIP3      OH2            -8.8352887656       22.4495587462      -65.9249034429  TIP3      11263           0.0000000000
     85303     12623  TIP3      H1             -8.6427734068       21.5105923807      -66.1261818950  TIP3      11263           0.0000000000
     85304     12623  TIP3      H2             -7.9765449165       22.8992692971      -66.0511638574  TIP3      11263           0.0000000000
     85305     12624  TIP3      OH2            -7.7650718290       25.3344436339      -67.9094103052  TIP3      11264           0.0000000000
     85306     12624  TIP3      H1             -8.0004625978       26.0743978369      -68.5220054568  TIP3      11264           0.0000000000
     85307     12624  TIP3      H2             -6.7986068662       25.3242874557      -68.0992594730  TIP3      11264           0.0000000000
     85308     12625  TIP3      OH2           -16.9655637797       22.1252916527      -66.8578678577  TIP3      11265           0.0000000000
     85309     12625  TIP3      H1            -17.7615019276       21.6031516907      -67.0808010640  TIP3      11265           0.0000000000
     85310     12625  TIP3      H2            -16.3316525035       21.8192428614      -67.5352157161  TIP3      11265           0.0000000000
     85311     12626  TIP3      OH2           -12.9813927227       21.1119503058      -67.2158182046  TIP3      11266           0.0000000000
     85312     12626  TIP3      H1            -13.3161080054       20.8066790384      -66.3522755463  TIP3      11266           0.0000000000
     85313     12626  TIP3      H2            -13.7438065255       20.8866627208      -67.7936622400  TIP3      11266           0.0000000000
     85314     12627  TIP3      OH2           -10.2805907824       20.3132426264      -68.1062390806  TIP3      11267           0.0000000000
     85315     12627  TIP3      H1            -11.2458092287       20.2098392733      -68.0884640838  TIP3      11267           0.0000000000
     85316     12627  TIP3      H2            -10.0010869802       19.5636198779      -67.5435837246  TIP3      11267           0.0000000000
     85317     12628  TIP3      OH2            -8.7193155707       18.8639247560      -66.2648478921  TIP3      11268           0.0000000000
     85318     12628  TIP3      H1             -8.7097025341       17.8849537758      -66.2369906087  TIP3      11268           0.0000000000
     85319     12628  TIP3      H2             -8.9338597268       19.1159237874      -65.3389539172  TIP3      11268           0.0000000000
     85320     12629  TIP3      OH2           -18.9020907241       20.0846657571      -67.1768231331  TIP3      11269           0.0000000000
     85321     12629  TIP3      H1            -18.6111408649       19.3727747637      -67.7607235326  TIP3      11269           0.0000000000
     85322     12629  TIP3      H2            -18.9691618092       19.6612637910      -66.2934014311  TIP3      11269           0.0000000000
     85323     12630  TIP3      OH2           -13.7267377468       17.7081340111      -66.1014501064  TIP3      11270           0.0000000000
     85324     12630  TIP3      H1            -13.8497515418       17.2450288719      -66.9467522303  TIP3      11270           0.0000000000
     85325     12630  TIP3      H2            -14.2791975675       18.5075955807      -66.1884359108  TIP3      11270           0.0000000000
     85326     12631  TIP3      OH2           -14.1684385528       34.6128388691      -82.9724348500  TIP3      11271           0.0000000000
     85327     12631  TIP3      H1            -13.2309723550       34.7873869078      -82.8144934730  TIP3      11271           0.0000000000
     85328     12631  TIP3      H2            -14.4260626324       35.3069745358      -83.5845256549  TIP3      11271           0.0000000000
     85329     12632  TIP3      OH2            -5.5036672884       28.8426830565      -66.0281049601  TIP3      11272           0.0000000000
     85330     12632  TIP3      H1             -6.4006390195       28.8421842226      -65.6478145651  TIP3      11272           0.0000000000
     85331     12632  TIP3      H2             -5.1208569486       29.6492978078      -65.6101930407  TIP3      11272           0.0000000000
     85332     12633  TIP3      OH2            -3.8241263505       25.2489114123      -78.7217070730  TIP3      11273           0.0000000000
     85333     12633  TIP3      H1             -4.5890634894       24.7550836677      -78.3499954016  TIP3      11273           0.0000000000
     85334     12633  TIP3      H2             -3.2382857054       25.4259226377      -77.9634141009  TIP3      11273           0.0000000000
     85335     12634  TIP3      OH2            -3.5605050027       25.0979487807      -82.3306808322  TIP3      11274           0.0000000000
     85336     12634  TIP3      H1             -4.1126550134       25.4592115926      -83.0308711711  TIP3      11274           0.0000000000
     85337     12634  TIP3      H2             -3.5666837226       25.7786694398      -81.6421320861  TIP3      11274           0.0000000000
     85338     12635  TIP3      OH2            -6.0456686795       23.7569214022      -78.1573465019  TIP3      11275           0.0000000000
     85339     12635  TIP3      H1             -6.1666258756       22.7900547606      -78.1944855476  TIP3      11275           0.0000000000
     85340     12635  TIP3      H2             -6.3404688824       23.9753780729      -77.2613564993  TIP3      11275           0.0000000000
     85341     12636  TIP3      OH2           -21.0186657596       25.8159090358      -74.0962074539  TIP3      11276           0.0000000000
     85342     12636  TIP3      H1            -20.7943417425       25.7551810970      -75.0515986473  TIP3      11276           0.0000000000
     85343     12636  TIP3      H2            -20.1153210635       25.6860122067      -73.7328977603  TIP3      11276           0.0000000000
     85344     12637  TIP3      OH2            -5.1475190860       25.7294998270      -68.5004173892  TIP3      11277           0.0000000000
     85345     12637  TIP3      H1             -4.5396761765       24.9793068814      -68.3292485599  TIP3      11277           0.0000000000
     85346     12637  TIP3      H2             -4.5407070960       26.5003204942      -68.4642389747  TIP3      11277           0.0000000000
     85347     12638  TIP3      OH2            -3.6498652302       23.6067166102      -67.8219472489  TIP3      11278           0.0000000000
     85348     12638  TIP3      H1             -4.5305068121       23.2041197053      -67.9612711306  TIP3      11278           0.0000000000
     85349     12638  TIP3      H2             -3.0728394511       22.8226674393      -67.8857805224  TIP3      11278           0.0000000000
     85350     12639  TIP3      OH2            -5.9043618600       19.6809172387      -84.7401886938  TIP3      11279           0.0000000000
     85351     12639  TIP3      H1             -5.3205704988       19.3910317962      -84.0176955872  TIP3      11279           0.0000000000
     85352     12639  TIP3      H2             -6.7808301862       19.3924649214      -84.4634325900  TIP3      11279           0.0000000000
     85353     12640  TIP3      OH2            -6.3034061292       21.3312572968      -79.7040839660  TIP3      11280           0.0000000000
     85354     12640  TIP3      H1             -6.0335891018       20.3981329553      -79.5745382798  TIP3      11280           0.0000000000
     85355     12640  TIP3      H2             -5.5032496469       21.7063750763      -80.0837253328  TIP3      11280           0.0000000000
     85356     12641  TIP3      OH2            -5.6861633279       21.8720331394      -74.2523076162  TIP3      11281           0.0000000000
     85357     12641  TIP3      H1             -4.7250766675       22.1042530125      -74.2707758489  TIP3      11281           0.0000000000
     85358     12641  TIP3      H2             -5.8814388184       22.0257876032      -73.3121280854  TIP3      11281           0.0000000000
     85359     12642  TIP3      OH2            -5.6396019679       22.5862717814      -71.4588313440  TIP3      11282           0.0000000000
     85360     12642  TIP3      H1             -6.5052172984       22.8975969151      -71.1283999853  TIP3      11282           0.0000000000
     85361     12642  TIP3      H2             -5.1844794024       23.4306461927      -71.6804975042  TIP3      11282           0.0000000000
     85362     12643  TIP3      OH2           -21.3779018244       21.1301786551      -67.9489450948  TIP3      11283           0.0000000000
     85363     12643  TIP3      H1            -20.4409096228       20.9346790266      -67.7533057709  TIP3      11283           0.0000000000
     85364     12643  TIP3      H2            -21.8383336589       20.3142809443      -67.6546147017  TIP3      11283           0.0000000000
     85365     12644  TIP3      OH2            -3.3632125232       16.6386368025      -66.1317160784  TIP3      11284           0.0000000000
     85366     12644  TIP3      H1             -2.9999933844       15.9756559926      -66.7377466466  TIP3      11284           0.0000000000
     85367     12644  TIP3      H2             -3.2553304679       17.4621710087      -66.6475454429  TIP3      11284           0.0000000000
     85368     12645  TIP3      OH2            -5.6595458942       18.5985088261      -79.6594746074  TIP3      11285           0.0000000000
     85369     12645  TIP3      H1             -5.5148713733       18.1969845260      -78.7902231601  TIP3      11285           0.0000000000
     85370     12645  TIP3      H2             -6.2512571937       17.9584666790      -80.0979402661  TIP3      11285           0.0000000000
     85371     12646  TIP3      OH2           -20.1822041977       19.4343991498      -75.0945233268  TIP3      11286           0.0000000000
     85372     12646  TIP3      H1            -19.6978803469       18.6112656474      -74.8527713913  TIP3      11286           0.0000000000
     85373     12646  TIP3      H2            -19.6553397652       20.1028051353      -74.6766626227  TIP3      11286           0.0000000000
     85374     12647  TIP3      OH2           -21.8856191524       22.4187189054      -74.0510148688  TIP3      11287           0.0000000000
     85375     12647  TIP3      H1            -21.3152732367       22.1961178643      -74.8176721553  TIP3      11287           0.0000000000
     85376     12647  TIP3      H2            -21.4437416529       23.2371952805      -73.7760190277  TIP3      11287           0.0000000000
     85377     12648  TIP3      OH2            -3.8484178962       18.7558854439      -67.7626964163  TIP3      11288           0.0000000000
     85378     12648  TIP3      H1             -4.7878455374       19.0237113561      -67.8130304017  TIP3      11288           0.0000000000
     85379     12648  TIP3      H2             -3.7915788845       18.2195599134      -68.5766549661  TIP3      11288           0.0000000000
     85380     12649  TIP3      OH2            -3.8639661017       18.6433710667      -83.1103527367  TIP3      11289           0.0000000000
     85381     12649  TIP3      H1             -3.3863525498       17.9532129257      -83.5864906020  TIP3      11289           0.0000000000
     85382     12649  TIP3      H2             -3.1893682846       19.3429106753      -83.0518272975  TIP3      11289           0.0000000000
     85383     12650  TIP3      OH2           -21.5566463463       18.7393455055      -79.9718049493  TIP3      11290           0.0000000000
     85384     12650  TIP3      H1            -22.4767189391       18.8836488348      -80.1782170959  TIP3      11290           0.0000000000
     85385     12650  TIP3      H2            -21.0771578890       19.1387344928      -80.7240490914  TIP3      11290           0.0000000000
     85386     12651  TIP3      OH2            -6.8614671939       33.8162437073      -78.0879150337  TIP3      11291           0.0000000000
     85387     12651  TIP3      H1             -6.2091327579       33.4067486624      -78.6788421451  TIP3      11291           0.0000000000
     85388     12651  TIP3      H2             -6.2989465430       34.1783794661      -77.3925009541  TIP3      11291           0.0000000000
     85389     12652  TIP3      OH2           -21.5883920448       17.3474967222      -71.7109961874  TIP3      11292           0.0000000000
     85390     12652  TIP3      H1            -22.2182190302       17.2145352383      -70.9874867673  TIP3      11292           0.0000000000
     85391     12652  TIP3      H2            -22.0224580560       18.0385929469      -72.2466008278  TIP3      11292           0.0000000000
     85392     12653  TIP3      OH2           -19.3532005036       30.4892561839      -67.5066087596  TIP3      11293           0.0000000000
     85393     12653  TIP3      H1            -20.1526821523       30.8264634677      -67.9666484233  TIP3      11293           0.0000000000
     85394     12653  TIP3      H2            -19.6328701762       30.5437019871      -66.5876916523  TIP3      11293           0.0000000000
     85395     12654  TIP3      OH2           -12.1373776794       32.9708011444      -68.3172169405  TIP3      11294           0.0000000000
     85396     12654  TIP3      H1            -11.9700424531       32.6127830750      -67.4147666365  TIP3      11294           0.0000000000
     85397     12654  TIP3      H2            -11.2384394440       33.2537684160      -68.5854465792  TIP3      11294           0.0000000000
     85398     12655  TIP3      OH2            -9.8009754906       34.2367733553      -69.0565216898  TIP3      11295           0.0000000000
     85399     12655  TIP3      H1             -9.0846387918       33.6115575110      -69.2562237709  TIP3      11295           0.0000000000
     85400     12655  TIP3      H2             -9.4546501283       34.6483657635      -68.2378583011  TIP3      11295           0.0000000000
     85401     12656  TIP3      OH2            -4.8655994454       16.8147337675      -69.8605793523  TIP3      11296           0.0000000000
     85402     12656  TIP3      H1             -5.6262373766       17.1528307265      -70.3497774632  TIP3      11296           0.0000000000
     85403     12656  TIP3      H2             -4.6053882695       16.0726265902      -70.4480410413  TIP3      11296           0.0000000000
     85404     12657  TIP3      OH2           -16.5471689325       34.4560715140      -72.0999400373  TIP3      11297           0.0000000000
     85405     12657  TIP3      H1            -17.4574756478       34.4599911471      -71.8031299987  TIP3      11297           0.0000000000
     85406     12657  TIP3      H2            -16.5902454506       34.9578703838      -72.9350386716  TIP3      11297           0.0000000000
     85407     12658  TIP3      OH2           -11.8094872217       34.2711239801      -73.0197029317  TIP3      11298           0.0000000000
     85408     12658  TIP3      H1            -12.2947447494       34.8165268234      -73.6522960743  TIP3      11298           0.0000000000
     85409     12658  TIP3      H2            -11.7132721826       34.8919205970      -72.2693816742  TIP3      11298           0.0000000000
     85410     12659  TIP3      OH2            -9.4860837987       33.1195297070      -71.9909595631  TIP3      11299           0.0000000000
     85411     12659  TIP3      H1            -10.3999405458       33.3045363849      -72.3008512165  TIP3      11299           0.0000000000
     85412     12659  TIP3      H2             -9.1243406371       34.0005847253      -72.0984440927  TIP3      11299           0.0000000000
     85413     12660  TIP3      OH2            -6.2762391604       16.3118157004      -75.5417563836  TIP3      11300           0.0000000000
     85414     12660  TIP3      H1             -5.6962283727       16.9179928840      -76.0633222330  TIP3      11300           0.0000000000
     85415     12660  TIP3      H2             -7.1562191534       16.6790433778      -75.7611596321  TIP3      11300           0.0000000000
     85416     12661  TIP3      OH2            -4.5852880201       17.5126984649      -77.2387034029  TIP3      11301           0.0000000000
     85417     12661  TIP3      H1             -3.9371856484       16.9790834033      -77.7147980119  TIP3      11301           0.0000000000
     85418     12661  TIP3      H2             -4.1654218279       18.4043001041      -77.1984967093  TIP3      11301           0.0000000000
     85419     12662  TIP3      OH2           -19.1174428731       16.9137831573      -77.7444798845  TIP3      11302           0.0000000000
     85420     12662  TIP3      H1            -19.8712192082       16.7012427053      -78.3236394428  TIP3      11302           0.0000000000
     85421     12662  TIP3      H2            -18.5929223040       16.0930391137      -77.8411260662  TIP3      11302           0.0000000000
     85422     12663  TIP3      OH2            -8.9311896213       16.8621446228      -76.3396654782  TIP3      11303           0.0000000000
     85423     12663  TIP3      H1             -8.8828875791       16.9676727889      -77.2956776911  TIP3      11303           0.0000000000
     85424     12663  TIP3      H2             -9.2736061179       15.9463929048      -76.2378205566  TIP3      11303           0.0000000000
     85425     12664  TIP3      OH2            -7.6184623880       16.8949035498      -80.7164442842  TIP3      11304           0.0000000000
     85426     12664  TIP3      H1             -8.3545539532       17.4819067743      -80.9021093332  TIP3      11304           0.0000000000
     85427     12664  TIP3      H2             -8.0546091434       16.0414278386      -80.4964410334  TIP3      11304           0.0000000000
     85428     12665  TIP3      OH2           -11.5134472118       33.9119395533      -82.7210992039  TIP3      11305           0.0000000000
     85429     12665  TIP3      H1            -10.5866491040       34.1686555315      -82.8924581191  TIP3      11305           0.0000000000
     85430     12665  TIP3      H2            -11.7197313655       33.4064676337      -83.5216143916  TIP3      11305           0.0000000000
     85431     12666  TIP3      OH2            -8.7544402816       16.1178623998      -66.5365612204  TIP3      11306           0.0000000000
     85432     12666  TIP3      H1             -8.6520452256       15.6262568710      -65.7018195222  TIP3      11306           0.0000000000
     85433     12666  TIP3      H2             -7.8477067952       16.0873227569      -66.9022355132  TIP3      11306           0.0000000000
     85434     12667  TIP3      OH2             0.0904004569       24.9521424497      -72.8598307744  TIP3      11307           0.0000000000
     85435     12667  TIP3      H1              0.1938232844       24.2708449537      -72.1649327956  TIP3      11307           0.0000000000
     85436     12667  TIP3      H2              0.8256187321       25.5445021676      -72.6534493855  TIP3      11307           0.0000000000
     85437     12668  TIP3      OH2            -2.3431022499       22.9776674979      -78.8891722225  TIP3      11308           0.0000000000
     85438     12668  TIP3      H1             -2.7833486394       23.8533082750      -78.9427802530  TIP3      11308           0.0000000000
     85439     12668  TIP3      H2             -2.9135235609       22.4589425691      -79.4820206451  TIP3      11308           0.0000000000
     85440     12669  TIP3      OH2            -1.6324229220       25.2311640410      -76.7331908220  TIP3      11309           0.0000000000
     85441     12669  TIP3      H1             -1.3802506593       24.3990817862      -76.2838269662  TIP3      11309           0.0000000000
     85442     12669  TIP3      H2             -0.9203941436       25.3004840574      -77.3865849670  TIP3      11309           0.0000000000
     85443     12670  TIP3      OH2             8.5517500177       33.4410550847      -75.9307077082  TIP3      11310           0.0000000000
     85444     12670  TIP3      H1              9.1641939427       32.7627112271      -76.2262430437  TIP3      11310           0.0000000000
     85445     12670  TIP3      H2              8.3212864732       33.1555284899      -75.0443082382  TIP3      11310           0.0000000000
     85446     12671  TIP3      OH2            14.6896840617       19.3823756267      -73.2418683165  TIP3      11311           0.0000000000
     85447     12671  TIP3      H1             14.9111366546       19.9336415816      -72.4516960616  TIP3      11311           0.0000000000
     85448     12671  TIP3      H2             15.3017273763       19.7576121078      -73.8878036644  TIP3      11311           0.0000000000
     85449     12672  TIP3      OH2             9.4402319620       22.1403188245      -73.7022147693  TIP3      11312           0.0000000000
     85450     12672  TIP3      H1              9.3082159688       21.1750735640      -73.6334501098  TIP3      11312           0.0000000000
     85451     12672  TIP3      H2              9.0985951148       22.3678349693      -74.5970583582  TIP3      11312           0.0000000000
     85452     12673  TIP3      OH2            10.1501612040       20.3722782121      -78.0170820803  TIP3      11313           0.0000000000
     85453     12673  TIP3      H1             10.8221156923       19.9807109123      -77.4255938478  TIP3      11313           0.0000000000
     85454     12673  TIP3      H2             10.7101341920       20.8843180597      -78.6247628873  TIP3      11313           0.0000000000
     85455     12674  TIP3      OH2            -0.9848957414       22.6649347152      -75.6924713261  TIP3      11314           0.0000000000
     85456     12674  TIP3      H1             -0.3184325934       22.1151637215      -75.2211793792  TIP3      11314           0.0000000000
     85457     12674  TIP3      H2             -0.8839293680       22.3836126265      -76.6032225256  TIP3      11314           0.0000000000
     85458     12675  TIP3      OH2             4.2301788582       24.2074859056      -76.4270329386  TIP3      11315           0.0000000000
     85459     12675  TIP3      H1              4.8740039717       23.6376524719      -75.9721182270  TIP3      11315           0.0000000000
     85460     12675  TIP3      H2              3.6736603356       23.5498768176      -76.8574954562  TIP3      11315           0.0000000000
     85461     12676  TIP3      OH2            15.1589375968       20.7717595146      -70.9862948162  TIP3      11316           0.0000000000
     85462     12676  TIP3      H1             14.5638922906       21.5421545670      -71.0557615687  TIP3      11316           0.0000000000
     85463     12676  TIP3      H2             15.2228084535       20.6740016849      -70.0257278298  TIP3      11316           0.0000000000
     85464     12677  TIP3      OH2             3.8124225800       26.8102014029      -72.1479537053  TIP3      11317           0.0000000000
     85465     12677  TIP3      H1              3.0956831039       27.4543001825      -71.9470574202  TIP3      11317           0.0000000000
     85466     12677  TIP3      H2              4.5301342830       27.4082875266      -72.3725656285  TIP3      11317           0.0000000000
     85467     12678  TIP3      OH2            11.9572663859       19.6399423386      -76.0726955361  TIP3      11318           0.0000000000
     85468     12678  TIP3      H1             11.7730940481       18.7973926058      -75.6157601292  TIP3      11318           0.0000000000
     85469     12678  TIP3      H2             12.7781775892       19.9520711787      -75.6538179563  TIP3      11318           0.0000000000
     85470     12679  TIP3      OH2             0.8598433114       21.0748153635      -74.4509066796  TIP3      11319           0.0000000000
     85471     12679  TIP3      H1              1.5053112106       21.6677956395      -74.0114381571  TIP3      11319           0.0000000000
     85472     12679  TIP3      H2              1.3799266551       20.5700988672      -75.0814082958  TIP3      11319           0.0000000000
     85473     12680  TIP3      OH2             2.2487807109       28.7880281209      -71.3056325491  TIP3      11320           0.0000000000
     85474     12680  TIP3      H1              2.2361433389       29.6950545095      -71.6656153848  TIP3      11320           0.0000000000
     85475     12680  TIP3      H2              1.3574318452       28.7248724642      -70.8839401890  TIP3      11320           0.0000000000
     85476     12681  TIP3      OH2            12.2572026020       18.3878280160      -72.4053990342  TIP3      11321           0.0000000000
     85477     12681  TIP3      H1             11.5416316743       19.0288519415      -72.4329995490  TIP3      11321           0.0000000000
     85478     12681  TIP3      H2             13.0100679401       18.7694491167      -72.8999791077  TIP3      11321           0.0000000000
     85479     12682  TIP3      OH2            13.0800493185       28.2485764151      -70.1997307186  TIP3      11322           0.0000000000
     85480     12682  TIP3      H1             13.1969383181       27.6420458795      -70.9597753780  TIP3      11322           0.0000000000
     85481     12682  TIP3      H2             13.1959348117       29.1243201398      -70.5864681282  TIP3      11322           0.0000000000
     85482     12683  TIP3      OH2             7.6196467579       23.8095872744      -83.3815788017  TIP3      11323           0.0000000000
     85483     12683  TIP3      H1              8.3286773909       23.8267552364      -82.7183938336  TIP3      11323           0.0000000000
     85484     12683  TIP3      H2              7.9013822014       23.1104099443      -83.9766619471  TIP3      11323           0.0000000000
     85485     12684  TIP3      OH2            14.9173274125       24.6782133636      -72.1404723612  TIP3      11324           0.0000000000
     85486     12684  TIP3      H1             14.2582134484       25.3990608649      -72.0684373558  TIP3      11324           0.0000000000
     85487     12684  TIP3      H2             15.3982968910       24.9619170605      -72.9345367703  TIP3      11324           0.0000000000
     85488     12685  TIP3      OH2            10.9235631054       23.6662743869      -70.4157103033  TIP3      11325           0.0000000000
     85489     12685  TIP3      H1             10.9276634349       24.4538895706      -69.8429071072  TIP3      11325           0.0000000000
     85490     12685  TIP3      H2             10.2563772730       23.9796309364      -71.0646760978  TIP3      11325           0.0000000000
     85491     12686  TIP3      OH2             2.5885736583       26.1552561848      -77.5804045864  TIP3      11326           0.0000000000
     85492     12686  TIP3      H1              2.3041677316       25.8006199386      -78.4551149383  TIP3      11326           0.0000000000
     85493     12686  TIP3      H2              3.2164562331       25.4807348463      -77.2485907159  TIP3      11326           0.0000000000
     85494     12687  TIP3      OH2             3.9914061751       29.5716940562      -74.9000098740  TIP3      11327           0.0000000000
     85495     12687  TIP3      H1              3.8656548700       29.0010486419      -75.6671714692  TIP3      11327           0.0000000000
     85496     12687  TIP3      H2              4.7216068566       29.1845439842      -74.4161568470  TIP3      11327           0.0000000000
     85497     12688  TIP3      OH2             2.9407044281       24.8992326220      -73.9098429189  TIP3      11328           0.0000000000
     85498     12688  TIP3      H1              3.4935584645       25.0179559408      -74.7008943755  TIP3      11328           0.0000000000
     85499     12688  TIP3      H2              3.3158497743       25.5573242209      -73.2843152790  TIP3      11328           0.0000000000
     85500     12689  TIP3      OH2             3.8866521744       29.3164589584      -69.2361849974  TIP3      11329           0.0000000000
     85501     12689  TIP3      H1              3.4900779399       30.0643724160      -68.7427964934  TIP3      11329           0.0000000000
     85502     12689  TIP3      H2              3.2136744504       29.1269822900      -69.9286963176  TIP3      11329           0.0000000000
     85503     12690  TIP3      OH2             9.9503913380       24.5837047710      -81.8564086777  TIP3      11330           0.0000000000
     85504     12690  TIP3      H1             10.3930138554       24.8394794808      -81.0288204246  TIP3      11330           0.0000000000
     85505     12690  TIP3      H2             10.2212010433       25.2569325322      -82.4970653683  TIP3      11330           0.0000000000
     85506     12691  TIP3      OH2             0.8191792877       25.4716533272      -70.0425307608  TIP3      11331           0.0000000000
     85507     12691  TIP3      H1              0.8682441812       26.1609796869      -69.3545643938  TIP3      11331           0.0000000000
     85508     12691  TIP3      H2             -0.1131228604       25.5911421417      -70.2769399901  TIP3      11331           0.0000000000
     85509     12692  TIP3      OH2             2.1301815930       31.3347555841      -68.4623254198  TIP3      11332           0.0000000000
     85510     12692  TIP3      H1              2.0774869200       31.2738748977      -69.4316090689  TIP3      11332           0.0000000000
     85511     12692  TIP3      H2              1.1933220244       31.2466419142      -68.1959048351  TIP3      11332           0.0000000000
     85512     12693  TIP3      OH2            13.5861690350       16.4235161935      -81.9390312454  TIP3      11333           0.0000000000
     85513     12693  TIP3      H1             12.6564322986       16.5222323291      -81.6499204102  TIP3      11333           0.0000000000
     85514     12693  TIP3      H2             13.7810392528       17.2736068259      -82.3533620095  TIP3      11333           0.0000000000
     85515     12694  TIP3      OH2             1.5947403974       25.2093660632      -79.9399841635  TIP3      11334           0.0000000000
     85516     12694  TIP3      H1              1.3356455201       25.9614710247      -80.5132306798  TIP3      11334           0.0000000000
     85517     12694  TIP3      H2              0.9288962447       24.5550050675      -80.1881645555  TIP3      11334           0.0000000000
     85518     12695  TIP3      OH2            -2.3678451441       27.5960082958      -71.0363296816  TIP3      11335           0.0000000000
     85519     12695  TIP3      H1             -2.7499461581       27.5403706366      -71.9269237760  TIP3      11335           0.0000000000
     85520     12695  TIP3      H2             -2.2638085678       26.6428049125      -70.8478415841  TIP3      11335           0.0000000000
     85521     12696  TIP3      OH2             6.5902062727       30.6042373070      -69.7795508093  TIP3      11336           0.0000000000
     85522     12696  TIP3      H1              6.7022253574       31.4022250027      -69.2241023750  TIP3      11336           0.0000000000
     85523     12696  TIP3      H2              5.7613097064       30.2156581592      -69.4611529735  TIP3      11336           0.0000000000
     85524     12697  TIP3      OH2             7.0597529893       34.3271587124      -79.9573289824  TIP3      11337           0.0000000000
     85525     12697  TIP3      H1              6.9518796112       34.2664352876      -80.8969947474  TIP3      11337           0.0000000000
     85526     12697  TIP3      H2              7.0740154333       35.2854418757      -79.7684730368  TIP3      11337           0.0000000000
     85527     12698  TIP3      OH2             0.6555137747       33.1711508703      -78.0965412379  TIP3      11338           0.0000000000
     85528     12698  TIP3      H1              0.8355858218       32.7613291161      -77.2411412299  TIP3      11338           0.0000000000
     85529     12698  TIP3      H2             -0.1423822713       32.7293037611      -78.3877200827  TIP3      11338           0.0000000000
     85530     12699  TIP3      OH2            12.8106810857       22.5090274410      -68.1248172985  TIP3      11339           0.0000000000
     85531     12699  TIP3      H1             12.3400638638       22.9629804192      -68.8417801084  TIP3      11339           0.0000000000
     85532     12699  TIP3      H2             12.7992493470       21.5897880014      -68.4309348240  TIP3      11339           0.0000000000
     85533     12700  TIP3      OH2            -0.1029779745       28.9684792255      -70.1180678398  TIP3      11340           0.0000000000
     85534     12700  TIP3      H1              0.1483597630       28.5607140549      -69.2610309925  TIP3      11340           0.0000000000
     85535     12700  TIP3      H2             -0.9358563637       28.5115671275      -70.3502115144  TIP3      11340           0.0000000000
     85536     12701  TIP3      OH2            10.5435850196       20.9028915370      -69.9417291293  TIP3      11341           0.0000000000
     85537     12701  TIP3      H1             10.0226073064       20.6958255997      -69.1218388108  TIP3      11341           0.0000000000
     85538     12701  TIP3      H2             10.3793160779       21.8445058213      -70.1237233438  TIP3      11341           0.0000000000
     85539     12702  TIP3      OH2             6.8999529306       19.5997636075      -83.4816610753  TIP3      11342           0.0000000000
     85540     12702  TIP3      H1              6.5872425078       19.5692722915      -82.5520987652  TIP3      11342           0.0000000000
     85541     12702  TIP3      H2              6.6656629292       18.6963671545      -83.7316396595  TIP3      11342           0.0000000000
     85542     12703  TIP3      OH2             2.7123281813       22.3721720810      -72.9234016837  TIP3      11343           0.0000000000
     85543     12703  TIP3      H1              1.9789865040       22.3452890588      -72.2794443941  TIP3      11343           0.0000000000
     85544     12703  TIP3      H2              2.6636217980       23.2898149885      -73.2766664988  TIP3      11343           0.0000000000
     85545     12704  TIP3      OH2             8.2119283813       23.0269437812      -79.2646218187  TIP3      11344           0.0000000000
     85546     12704  TIP3      H1              7.7913801329       23.8054184401      -79.6329396275  TIP3      11344           0.0000000000
     85547     12704  TIP3      H2              8.8615809198       22.8125005635      -79.9546270249  TIP3      11344           0.0000000000
     85548     12705  TIP3      OH2             7.2662250454       23.1859719545      -67.8402322658  TIP3      11345           0.0000000000
     85549     12705  TIP3      H1              6.7417834455       22.4083744626      -67.5380928734  TIP3      11345           0.0000000000
     85550     12705  TIP3      H2              8.1058579993       23.0662869850      -67.3652751857  TIP3      11345           0.0000000000
     85551     12706  TIP3      OH2             9.3053833989       22.4080404647      -76.4372289885  TIP3      11346           0.0000000000
     85552     12706  TIP3      H1              8.9591859587       23.0035344354      -77.1340800353  TIP3      11346           0.0000000000
     85553     12706  TIP3      H2              9.3222472788       21.5837243119      -76.9639949138  TIP3      11346           0.0000000000
     85554     12707  TIP3      OH2             0.3665259929       22.6188645563      -71.2242844478  TIP3      11347           0.0000000000
     85555     12707  TIP3      H1              0.4111469198       23.0389433598      -70.3507280891  TIP3      11347           0.0000000000
     85556     12707  TIP3      H2             -0.1128725381       21.7972107710      -71.0598502254  TIP3      11347           0.0000000000
     85557     12708  TIP3      OH2            -3.0330125635       19.6965090505      -77.2847214181  TIP3      11348           0.0000000000
     85558     12708  TIP3      H1             -2.3555511931       19.7617428206      -76.6066216279  TIP3      11348           0.0000000000
     85559     12708  TIP3      H2             -2.5506690866       19.3911856286      -78.0610329263  TIP3      11348           0.0000000000
     85560     12709  TIP3      OH2             8.4961375376       24.0461633852      -71.8400435384  TIP3      11349           0.0000000000
     85561     12709  TIP3      H1              8.8017401887       23.3992857149      -72.4899684995  TIP3      11349           0.0000000000
     85562     12709  TIP3      H2              7.9670347309       23.5360695872      -71.2046894219  TIP3      11349           0.0000000000
     85563     12710  TIP3      OH2             5.2386545603       20.0597982017      -77.0615811057  TIP3      11350           0.0000000000
     85564     12710  TIP3      H1              4.3181895165       20.0309505954      -76.7874874355  TIP3      11350           0.0000000000
     85565     12710  TIP3      H2              5.7227268691       19.8953515938      -76.2419513516  TIP3      11350           0.0000000000
     85566     12711  TIP3      OH2             3.6674868287       21.6493539445      -80.5322060069  TIP3      11351           0.0000000000
     85567     12711  TIP3      H1              4.6243871671       21.7294063077      -80.3867925683  TIP3      11351           0.0000000000
     85568     12711  TIP3      H2              3.4483624677       22.2905231975      -81.2306633204  TIP3      11351           0.0000000000
     85569     12712  TIP3      OH2             9.6566357755       19.3595235881      -73.8507107121  TIP3      11352           0.0000000000
     85570     12712  TIP3      H1              8.9953418277       19.3064002502      -73.1140862536  TIP3      11352           0.0000000000
     85571     12712  TIP3      H2              9.1462201856       18.9745246014      -74.5906774428  TIP3      11352           0.0000000000
     85572     12713  TIP3      OH2             2.3894678481       22.9652307377      -82.8922752159  TIP3      11353           0.0000000000
     85573     12713  TIP3      H1              1.8463696823       22.5211235391      -83.5639959167  TIP3      11353           0.0000000000
     85574     12713  TIP3      H2              3.2181235446       23.0503283707      -83.3987626308  TIP3      11353           0.0000000000
     85575     12714  TIP3      OH2            12.8715139006       34.9121050865      -67.4529063342  TIP3      11354           0.0000000000
     85576     12714  TIP3      H1             13.1517966840       35.2946883266      -68.3043297963  TIP3      11354           0.0000000000
     85577     12714  TIP3      H2             13.5879072455       35.2191561923      -66.8808121206  TIP3      11354           0.0000000000
     85578     12715  TIP3      OH2             0.5325314016       27.3945475202      -67.9186907193  TIP3      11355           0.0000000000
     85579     12715  TIP3      H1              1.2428699514       27.6108126436      -67.2882399143  TIP3      11355           0.0000000000
     85580     12715  TIP3      H2             -0.2514184503       27.4848197421      -67.3310079802  TIP3      11355           0.0000000000
     85581     12716  TIP3      OH2             6.5364668292       22.7613781732      -75.1681690809  TIP3      11356           0.0000000000
     85582     12716  TIP3      H1              7.1164105542       22.2139909625      -75.6977111315  TIP3      11356           0.0000000000
     85583     12716  TIP3      H2              6.3769889353       22.2546463609      -74.3605381617  TIP3      11356           0.0000000000
     85584     12717  TIP3      OH2             5.1746399426       21.1217418195      -72.7347349431  TIP3      11357           0.0000000000
     85585     12717  TIP3      H1              4.3563740618       21.6566004428      -72.6434167342  TIP3      11357           0.0000000000
     85586     12717  TIP3      H2              5.7305965296       21.4839556282      -72.0117292182  TIP3      11357           0.0000000000
     85587     12718  TIP3      OH2            12.9088006400       26.5469686671      -72.2622675331  TIP3      11358           0.0000000000
     85588     12718  TIP3      H1             13.4916513905       27.0079302096      -72.8891783543  TIP3      11358           0.0000000000
     85589     12718  TIP3      H2             12.0408303526       26.6251097252      -72.6950498415  TIP3      11358           0.0000000000
     85590     12719  TIP3      OH2             9.6057728443       20.1213877884      -82.8435004341  TIP3      11359           0.0000000000
     85591     12719  TIP3      H1              8.6655379990       20.2824889905      -83.0460308830  TIP3      11359           0.0000000000
     85592     12719  TIP3      H2              9.9229777865       21.0015300286      -82.5686829056  TIP3      11359           0.0000000000
     85593     12720  TIP3      OH2             7.1868677316       27.5624665473      -69.7974123908  TIP3      11360           0.0000000000
     85594     12720  TIP3      H1              6.8944533184       27.1867243292      -68.9691187897  TIP3      11360           0.0000000000
     85595     12720  TIP3      H2              7.0499879517       28.5152657382      -69.7154931518  TIP3      11360           0.0000000000
     85596     12721  TIP3      OH2            10.3269667162       22.0708428115      -81.1974123047  TIP3      11361           0.0000000000
     85597     12721  TIP3      H1             11.2260627558       21.9275394889      -80.8319223088  TIP3      11361           0.0000000000
     85598     12721  TIP3      H2             10.4114129658       22.8848790026      -81.7232793905  TIP3      11361           0.0000000000
     85599     12722  TIP3      OH2             0.8455556660       26.6744217707      -75.2741037786  TIP3      11362           0.0000000000
     85600     12722  TIP3      H1              1.5769884178       26.6441564336      -75.9112676722  TIP3      11362           0.0000000000
     85601     12722  TIP3      H2              0.9341689524       25.8498283094      -74.7770172330  TIP3      11362           0.0000000000
     85602     12723  TIP3      OH2            -2.1385728859       25.1050300760      -69.9859772256  TIP3      11363           0.0000000000
     85603     12723  TIP3      H1             -1.9783849620       24.6874123883      -69.1205022078  TIP3      11363           0.0000000000
     85604     12723  TIP3      H2             -2.7827614009       24.5276029209      -70.4200978070  TIP3      11363           0.0000000000
     85605     12724  TIP3      OH2             4.8619460547       24.6863690126      -67.7966259577  TIP3      11364           0.0000000000
     85606     12724  TIP3      H1              4.5621428503       24.4049559371      -68.6721768790  TIP3      11364           0.0000000000
     85607     12724  TIP3      H2              5.7962053971       24.3909576252      -67.8065318220  TIP3      11364           0.0000000000
     85608     12725  TIP3      OH2            15.1749431558       22.2189326964      -81.4617246327  TIP3      11365           0.0000000000
     85609     12725  TIP3      H1             14.6624543701       21.8900583666      -82.2172996212  TIP3      11365           0.0000000000
     85610     12725  TIP3      H2             15.3161367474       23.1477635016      -81.7664571755  TIP3      11365           0.0000000000
     85611     12726  TIP3      OH2            15.2211636091       28.0502190352      -68.6429703646  TIP3      11366           0.0000000000
     85612     12726  TIP3      H1             14.3354185778       28.2824010713      -68.9997435442  TIP3      11366           0.0000000000
     85613     12726  TIP3      H2             15.7659283938       28.0297397522      -69.4540937617  TIP3      11366           0.0000000000
     85614     12727  TIP3      OH2            -1.0132962141       25.0388379634      -83.3151069959  TIP3      11367           0.0000000000
     85615     12727  TIP3      H1             -0.3967844407       25.6706830739      -82.9074990405  TIP3      11367           0.0000000000
     85616     12727  TIP3      H2             -1.8861323595       25.2987857562      -82.9942675220  TIP3      11367           0.0000000000
     85617     12728  TIP3      OH2             5.1092736680       32.0346443964      -71.9498423292  TIP3      11368           0.0000000000
     85618     12728  TIP3      H1              5.5523800028       32.8560295418      -72.2140649844  TIP3      11368           0.0000000000
     85619     12728  TIP3      H2              5.7096332079       31.6856687013      -71.2639555395  TIP3      11368           0.0000000000
     85620     12729  TIP3      OH2             3.3311391428       32.8316076989      -78.7678355941  TIP3      11369           0.0000000000
     85621     12729  TIP3      H1              2.3710838614       32.9643509351      -78.6757268458  TIP3      11369           0.0000000000
     85622     12729  TIP3      H2              3.6798170426       33.6788376437      -78.4338822991  TIP3      11369           0.0000000000
     85623     12730  TIP3      OH2            11.8119070478       27.6576445684      -81.0384315557  TIP3      11370           0.0000000000
     85624     12730  TIP3      H1             11.5120638414       27.0113616956      -80.4034613328  TIP3      11370           0.0000000000
     85625     12730  TIP3      H2             12.7328597271       27.8190721669      -80.7939795004  TIP3      11370           0.0000000000
     85626     12731  TIP3      OH2            -0.7362242698       31.7534812970      -71.9414462308  TIP3      11371           0.0000000000
     85627     12731  TIP3      H1             -0.6124615409       30.7828356936      -71.9912654203  TIP3      11371           0.0000000000
     85628     12731  TIP3      H2             -0.5786657726       31.9203150383      -71.0199379175  TIP3      11371           0.0000000000
     85629     12732  TIP3      OH2             3.8468205373       29.7396244001      -82.2719118113  TIP3      11372           0.0000000000
     85630     12732  TIP3      H1              4.1087867072       29.1802719993      -81.5400583407  TIP3      11372           0.0000000000
     85631     12732  TIP3      H2              3.9523867928       30.6642795632      -81.9746885777  TIP3      11372           0.0000000000
     85632     12733  TIP3      OH2             0.3629796947       26.9675484437      -81.7968964169  TIP3      11373           0.0000000000
     85633     12733  TIP3      H1             -0.2912751039       27.3756652390      -81.2264289091  TIP3      11373           0.0000000000
     85634     12733  TIP3      H2              0.9014916695       27.7372459149      -82.0726566083  TIP3      11373           0.0000000000
     85635     12734  TIP3      OH2             8.2598543912       19.6010085444      -71.5178661309  TIP3      11374           0.0000000000
     85636     12734  TIP3      H1              8.9214762467       19.7040474858      -70.8172360672  TIP3      11374           0.0000000000
     85637     12734  TIP3      H2              7.8338956605       18.7744752007      -71.2724984745  TIP3      11374           0.0000000000
     85638     12735  TIP3      OH2             9.0144813295       19.2037383146      -80.3537150505  TIP3      11375           0.0000000000
     85639     12735  TIP3      H1              9.1949521773       19.6828728658      -81.1901061588  TIP3      11375           0.0000000000
     85640     12735  TIP3      H2              9.5688560428       19.6873258735      -79.7350785670  TIP3      11375           0.0000000000
     85641     12736  TIP3      OH2             6.2275110402       20.9820428548      -79.5760018122  TIP3      11376           0.0000000000
     85642     12736  TIP3      H1              7.0042238872       21.5619596820      -79.5286176427  TIP3      11376           0.0000000000
     85643     12736  TIP3      H2              5.9561038988       20.8542787439      -78.6481075182  TIP3      11376           0.0000000000
     85644     12737  TIP3      OH2             6.7555939985       21.9466208307      -70.3623425056  TIP3      11377           0.0000000000
     85645     12737  TIP3      H1              6.8369778140       22.5340573885      -69.5818453762  TIP3      11377           0.0000000000
     85646     12737  TIP3      H2              7.4301520888       21.2756856870      -70.2472794027  TIP3      11377           0.0000000000
     85647     12738  TIP3      OH2             7.0956513866       18.0363197970      -78.6394273924  TIP3      11378           0.0000000000
     85648     12738  TIP3      H1              6.7546502289       18.6944712168      -78.0263078984  TIP3      11378           0.0000000000
     85649     12738  TIP3      H2              7.7386104540       18.5798309323      -79.1411253525  TIP3      11378           0.0000000000
     85650     12739  TIP3      OH2             4.0257936639       32.3927096426      -81.5162428383  TIP3      11379           0.0000000000
     85651     12739  TIP3      H1              4.1684760788       33.1982908726      -82.0586117462  TIP3      11379           0.0000000000
     85652     12739  TIP3      H2              3.7951128562       32.7816369140      -80.6534359721  TIP3      11379           0.0000000000
     85653     12740  TIP3      OH2            12.9475377144       19.8655356937      -69.5290030674  TIP3      11380           0.0000000000
     85654     12740  TIP3      H1             12.0209183581       20.1787737640      -69.6510377460  TIP3      11380           0.0000000000
     85655     12740  TIP3      H2             13.2633120303       19.8451940717      -70.4450138046  TIP3      11380           0.0000000000
     85656     12741  TIP3      OH2            11.5926830827       23.6258792922      -75.5724211597  TIP3      11381           0.0000000000
     85657     12741  TIP3      H1             10.7087860512       23.2644461795      -75.7704927414  TIP3      11381           0.0000000000
     85658     12741  TIP3      H2             12.0740004132       23.0460323889      -74.9591791800  TIP3      11381           0.0000000000
     85659     12742  TIP3      OH2             0.9795623592       29.5219428604      -82.8491968235  TIP3      11382           0.0000000000
     85660     12742  TIP3      H1              1.5654221856       30.2620663417      -82.6444591172  TIP3      11382           0.0000000000
     85661     12742  TIP3      H2              1.4514489332       29.1729792835      -83.6181133940  TIP3      11382           0.0000000000
     85662     12743  TIP3      OH2             2.9502940225       32.4708153720      -65.9776041832  TIP3      11383           0.0000000000
     85663     12743  TIP3      H1              3.7513195216       32.0254045479      -65.6860200953  TIP3      11383           0.0000000000
     85664     12743  TIP3      H2              2.9339643541       32.2652309964      -66.9345465109  TIP3      11383           0.0000000000
     85665     12744  TIP3      OH2            -1.8089510907       27.3496744036      -66.6148793756  TIP3      11384           0.0000000000
     85666     12744  TIP3      H1             -1.6415613895       26.4499684703      -66.9507073338  TIP3      11384           0.0000000000
     85667     12744  TIP3      H2             -2.5342119892       27.6451162699      -67.1986954251  TIP3      11384           0.0000000000
     85668     12745  TIP3      OH2             4.9033037050       27.3777831617      -67.2263424292  TIP3      11385           0.0000000000
     85669     12745  TIP3      H1              4.5601936243       27.6773993951      -68.0921790959  TIP3      11385           0.0000000000
     85670     12745  TIP3      H2              5.0085378623       26.4060407351      -67.3505029126  TIP3      11385           0.0000000000
     85671     12746  TIP3      OH2            10.6127948686       27.2235085225      -69.8002192605  TIP3      11386           0.0000000000
     85672     12746  TIP3      H1             11.3766908160       27.8140932439      -69.9315086921  TIP3      11386           0.0000000000
     85673     12746  TIP3      H2              9.8639372610       27.8300177053      -69.7998123682  TIP3      11386           0.0000000000
     85674     12747  TIP3      OH2            -0.9052444121       24.5911856351      -67.2395347832  TIP3      11387           0.0000000000
     85675     12747  TIP3      H1             -0.4843069538       23.7314874401      -67.3252761197  TIP3      11387           0.0000000000
     85676     12747  TIP3      H2             -1.1261124352       24.6175554244      -66.2882415370  TIP3      11387           0.0000000000
     85677     12748  TIP3      OH2             3.7228855902       25.7220688531      -82.2173930636  TIP3      11388           0.0000000000
     85678     12748  TIP3      H1              3.2774565373       25.2175807752      -81.5353221535  TIP3      11388           0.0000000000
     85679     12748  TIP3      H2              4.0443356488       25.0373332606      -82.8324236106  TIP3      11388           0.0000000000
     85680     12749  TIP3      OH2             3.0013366569       23.5517877155      -69.8810098917  TIP3      11389           0.0000000000
     85681     12749  TIP3      H1              2.4208045400       24.2826285939      -69.6064151678  TIP3      11389           0.0000000000
     85682     12749  TIP3      H2              3.4066629684       23.9263294753      -70.6828787564  TIP3      11389           0.0000000000
     85683     12750  TIP3      OH2             4.8020191824       23.8928712572      -84.0104815228  TIP3      11390           0.0000000000
     85684     12750  TIP3      H1              4.7185483329       23.8122824174      -84.9707403055  TIP3      11390           0.0000000000
     85685     12750  TIP3      H2              5.7634344346       24.0185448380      -83.8671180506  TIP3      11390           0.0000000000
     85686     12751  TIP3      OH2             8.0689026617       26.1108195073      -66.4650633200  TIP3      11391           0.0000000000
     85687     12751  TIP3      H1              9.0175361296       26.0941944521      -66.6636338285  TIP3      11391           0.0000000000
     85688     12751  TIP3      H2              7.9074680111       25.3193235653      -65.9340156416  TIP3      11391           0.0000000000
     85689     12752  TIP3      OH2             3.4432104597       20.9415362576      -68.8236451383  TIP3      11392           0.0000000000
     85690     12752  TIP3      H1              3.5223951904       20.2117247261      -69.4671453056  TIP3      11392           0.0000000000
     85691     12752  TIP3      H2              3.3683577189       21.7364891749      -69.3918781922  TIP3      11392           0.0000000000
     85692     12753  TIP3      OH2             3.7901097147       19.3308952058      -71.2966274270  TIP3      11393           0.0000000000
     85693     12753  TIP3      H1              4.3299132578       19.7762142601      -71.9845609943  TIP3      11393           0.0000000000
     85694     12753  TIP3      H2              2.9292406785       19.2150508548      -71.7087999278  TIP3      11393           0.0000000000
     85695     12754  TIP3      OH2             5.3271042172       24.7829503985      -71.0431030632  TIP3      11394           0.0000000000
     85696     12754  TIP3      H1              6.1103678306       24.6316836417      -71.5903241009  TIP3      11394           0.0000000000
     85697     12754  TIP3      H2              5.0117394205       25.6492527721      -71.3508992947  TIP3      11394           0.0000000000
     85698     12755  TIP3      OH2             9.7488056693       22.5496177913      -66.0797352375  TIP3      11395           0.0000000000
     85699     12755  TIP3      H1              9.9851958125       21.6103760456      -66.1065513530  TIP3      11395           0.0000000000
     85700     12755  TIP3      H2             10.6207947248       22.9771756712      -66.0496605775  TIP3      11395           0.0000000000
     85701     12756  TIP3      OH2            11.0759713091       25.3426146644      -67.9181448872  TIP3      11396           0.0000000000
     85702     12756  TIP3      H1             10.8282929139       26.0738020172      -68.5307091877  TIP3      11396           0.0000000000
     85703     12756  TIP3      H2             12.0382157388       25.3256047129      -68.1002695703  TIP3      11396           0.0000000000
     85704     12757  TIP3      OH2             1.8886894118       22.1669713796      -66.8616676754  TIP3      11397           0.0000000000
     85705     12757  TIP3      H1              1.1042472364       21.6141001152      -67.0609856671  TIP3      11397           0.0000000000
     85706     12757  TIP3      H2              2.5262125990       21.8112549617      -67.5129076497  TIP3      11397           0.0000000000
     85707     12758  TIP3      OH2             5.8816279230       21.0329361466      -67.2734177627  TIP3      11398           0.0000000000
     85708     12758  TIP3      H1              5.5625255897       20.8480974286      -66.3710761789  TIP3      11398           0.0000000000
     85709     12758  TIP3      H2              5.0826657554       20.8729096738      -67.8085956653  TIP3      11398           0.0000000000
     85710     12759  TIP3      OH2             8.5900345626       20.2183770151      -68.1848487182  TIP3      11399           0.0000000000
     85711     12759  TIP3      H1              7.6274118383       20.2614914521      -68.0506913331  TIP3      11399           0.0000000000
     85712     12759  TIP3      H2              8.8632497854       19.5808821831      -67.4974054344  TIP3      11399           0.0000000000
     85713     12760  TIP3      OH2            10.1341922323       18.8432662432      -66.2773495361  TIP3      11400           0.0000000000
     85714     12760  TIP3      H1             10.1405218218       17.8684818327      -66.2277844084  TIP3      11400           0.0000000000
     85715     12760  TIP3      H2              9.9106353987       19.1245508443      -65.3601097952  TIP3      11400           0.0000000000
     85716     12761  TIP3      OH2            -0.0505417358       20.1172205801      -67.1781774089  TIP3      11401           0.0000000000
     85717     12761  TIP3      H1              0.1815956438       19.3621468620      -67.7555438876  TIP3      11401           0.0000000000
     85718     12761  TIP3      H2             -0.1169983462       19.6726247141      -66.3047686945  TIP3      11401           0.0000000000
     85719     12762  TIP3      OH2             5.1450965649       17.7150804048      -66.1070758734  TIP3      11402           0.0000000000
     85720     12762  TIP3      H1              5.0106810638       17.2701137596      -66.9521821909  TIP3      11402           0.0000000000
     85721     12762  TIP3      H2              4.5911672514       18.5175284939      -66.1871493636  TIP3      11402           0.0000000000
     85722     12763  TIP3      OH2             4.7215849875       34.6481291519      -82.9302592537  TIP3      11403           0.0000000000
     85723     12763  TIP3      H1              5.6567954501       34.8285555454      -82.8504904681  TIP3      11403           0.0000000000
     85724     12763  TIP3      H2              4.4070979801       35.2966757345      -83.5735695256  TIP3      11403           0.0000000000
     85725     12764  TIP3      OH2            14.9679649731       33.1942030437      -70.7805948995  TIP3      11404           0.0000000000
     85726     12764  TIP3      H1             14.4845234620       32.4339528521      -71.1066820887  TIP3      11404           0.0000000000
     85727     12764  TIP3      H2             15.4304781208       32.8013446537      -70.0282645816  TIP3      11404           0.0000000000
     85728     12765  TIP3      OH2            13.3480699239       28.8929142397      -66.0846010679  TIP3      11405           0.0000000000
     85729     12765  TIP3      H1             12.4716289288       28.8359355411      -65.6546938556  TIP3      11405           0.0000000000
     85730     12765  TIP3      H2             13.7351032472       29.6427439119      -65.5819328551  TIP3      11405           0.0000000000
     85731     12766  TIP3      OH2            14.6508777641       27.1906117231      -80.5582762328  TIP3      11406           0.0000000000
     85732     12766  TIP3      H1             15.5376310607       27.5953686286      -80.4355969628  TIP3      11406           0.0000000000
     85733     12766  TIP3      H2             14.6888821800       26.4658983565      -79.9018024748  TIP3      11406           0.0000000000
     85734     12767  TIP3      OH2            15.0685531918       25.2740267412      -78.7416030876  TIP3      11407           0.0000000000
     85735     12767  TIP3      H1             14.3081417810       24.7741880523      -78.3675804670  TIP3      11407           0.0000000000
     85736     12767  TIP3      H2             15.6260420463       25.4070931769      -77.9553543055  TIP3      11407           0.0000000000
     85737     12768  TIP3      OH2            14.8367167633       27.9821130822      -73.7479661558  TIP3      11408           0.0000000000
     85738     12768  TIP3      H1             15.6483845531       27.6091464778      -74.1238346900  TIP3      11408           0.0000000000
     85739     12768  TIP3      H2             14.9585737495       28.9392890982      -73.9145581619  TIP3      11408           0.0000000000
     85740     12769  TIP3      OH2            15.2865544813       25.0556824705      -82.3163436248  TIP3      11409           0.0000000000
     85741     12769  TIP3      H1             14.8031354433       25.4639510783      -83.0355958277  TIP3      11409           0.0000000000
     85742     12769  TIP3      H2             15.3043420421       25.7994933853      -81.6818467027  TIP3      11409           0.0000000000
     85743     12770  TIP3      OH2            12.8791508715       23.7442736731      -78.1583149834  TIP3      11410           0.0000000000
     85744     12770  TIP3      H1             12.6979589907       22.7985061950      -78.2013387758  TIP3      11410           0.0000000000
     85745     12770  TIP3      H2             12.5012322303       24.0061990572      -77.3032511909  TIP3      11410           0.0000000000
     85746     12771  TIP3      OH2            -2.1601648944       25.8389847210      -74.0961358496  TIP3      11411           0.0000000000
     85747     12771  TIP3      H1             -1.9523144129       25.7547404861      -75.0545591753  TIP3      11411           0.0000000000
     85748     12771  TIP3      H2             -1.2610013986       25.6685880975      -73.7362113796  TIP3      11411           0.0000000000
     85749     12772  TIP3      OH2            13.7108184790       25.7224327079      -68.4709155296  TIP3      11412           0.0000000000
     85750     12772  TIP3      H1             14.3243051804       24.9693956919      -68.3269751897  TIP3      11412           0.0000000000
     85751     12772  TIP3      H2             14.3114415425       26.4938437582      -68.4625658053  TIP3      11412           0.0000000000
     85752     12773  TIP3      OH2            15.2176137111       23.6083013819      -67.8136270589  TIP3      11413           0.0000000000
     85753     12773  TIP3      H1             14.3404294210       23.2030382440      -67.9708085289  TIP3      11413           0.0000000000
     85754     12773  TIP3      H2             15.7943811613       22.8270416037      -67.8914040787  TIP3      11413           0.0000000000
     85755     12774  TIP3      OH2            12.9045340437       19.7656633337      -84.6629607401  TIP3      11414           0.0000000000
     85756     12774  TIP3      H1             13.5462921096       19.3714539743      -84.0469538355  TIP3      11414           0.0000000000
     85757     12774  TIP3      H2             12.0649480614       19.3378145177      -84.4647789556  TIP3      11414           0.0000000000
     85758     12775  TIP3      OH2            12.5144838548       21.3468585162      -79.6719282056  TIP3      11415           0.0000000000
     85759     12775  TIP3      H1             12.8275182571       20.4171471138      -79.5788830884  TIP3      11415           0.0000000000
     85760     12775  TIP3      H2             13.2980657597       21.7420906147      -80.0873408727  TIP3      11415           0.0000000000
     85761     12776  TIP3      OH2            13.1844302245       21.9081068171      -74.1998624604  TIP3      11416           0.0000000000
     85762     12776  TIP3      H1             14.1569171345       22.1194747378      -74.2523123248  TIP3      11416           0.0000000000
     85763     12776  TIP3      H2             13.0560964757       22.0781201560      -73.2462196772  TIP3      11416           0.0000000000
     85764     12777  TIP3      OH2            13.2010057844       22.5941444453      -71.5146919163  TIP3      11417           0.0000000000
     85765     12777  TIP3      H1             12.3421093321       22.8955859701      -71.1344609318  TIP3      11417           0.0000000000
     85766     12777  TIP3      H2             13.6544248637       23.4618145882      -71.6666758631  TIP3      11417           0.0000000000
     85767     12778  TIP3      OH2            -2.5257013260       21.1516557581      -67.8875075045  TIP3      11418           0.0000000000
     85768     12778  TIP3      H1             -1.5859146468       20.9180830076      -67.7477105748  TIP3      11418           0.0000000000
     85769     12778  TIP3      H2             -2.9694586708       20.3044683854      -67.6642098664  TIP3      11418           0.0000000000
     85770     12779  TIP3      OH2            15.5111340119       16.6485413909      -66.1315507767  TIP3      11419           0.0000000000
     85771     12779  TIP3      H1             15.8541031163       15.9779397906      -66.7386391541  TIP3      11419           0.0000000000
     85772     12779  TIP3      H2             15.6055351371       17.4694674987      -66.6507529009  TIP3      11419           0.0000000000
     85773     12780  TIP3      OH2            13.1747273408       18.6286622363      -79.6175301707  TIP3      11420           0.0000000000
     85774     12780  TIP3      H1             13.4191008079       18.1474416509      -78.7961320579  TIP3      11420           0.0000000000
     85775     12780  TIP3      H2             12.5894680169       17.9848562089      -80.0771432213  TIP3      11420           0.0000000000
     85776     12781  TIP3      OH2            -3.0536001441       22.4563988358      -74.0864140546  TIP3      11421           0.0000000000
     85777     12781  TIP3      H1             -2.4564096274       22.2029894762      -74.8208148618  TIP3      11421           0.0000000000
     85778     12781  TIP3      H2             -2.5728954278       23.2333710531      -73.7662091655  TIP3      11421           0.0000000000
     85779     12782  TIP3      OH2            15.0082666338       18.7457596744      -67.7604968134  TIP3      11422           0.0000000000
     85780     12782  TIP3      H1             14.0694019150       19.0231955766      -67.8060199890  TIP3      11422           0.0000000000
     85781     12782  TIP3      H2             15.0645684016       18.2201548274      -68.5733851658  TIP3      11422           0.0000000000
     85782     12783  TIP3      OH2            15.0282684347       18.6626834973      -83.0541446209  TIP3      11423           0.0000000000
     85783     12783  TIP3      H1             15.4211385940       17.9517865531      -83.5961060693  TIP3      11423           0.0000000000
     85784     12783  TIP3      H2             15.7267659611       19.3336255499      -83.0596746602  TIP3      11423           0.0000000000
     85785     12784  TIP3      OH2            -0.4964156016       30.5588521861      -67.5307682678  TIP3      11424           0.0000000000
     85786     12784  TIP3      H1             -1.3413284716       30.7749259801      -67.9355889137  TIP3      11424           0.0000000000
     85787     12784  TIP3      H2             -0.7381662932       30.5130826741      -66.5931536718  TIP3      11424           0.0000000000
     85788     12785  TIP3      OH2             2.4314141526       31.5646973087      -71.2195377651  TIP3      11425           0.0000000000
     85789     12785  TIP3      H1              2.0710665530       32.4087479829      -71.5377192618  TIP3      11425           0.0000000000
     85790     12785  TIP3      H2              3.3541871422       31.6404322781      -71.5522599740  TIP3      11425           0.0000000000
     85791     12786  TIP3      OH2             6.7346505681       32.9865972766      -68.3272678903  TIP3      11426           0.0000000000
     85792     12786  TIP3      H1              6.8450520549       32.6281757325      -67.4115106871  TIP3      11426           0.0000000000
     85793     12786  TIP3      H2              7.6438258829       33.2078907520      -68.5579662660  TIP3      11426           0.0000000000
     85794     12787  TIP3      OH2            14.0309904091       16.8363855934      -69.9362938189  TIP3      11427           0.0000000000
     85795     12787  TIP3      H1             13.2105832824       17.1421233212      -70.3530381290  TIP3      11427           0.0000000000
     85796     12787  TIP3      H2             14.2176190591       16.0172866840      -70.4578414713  TIP3      11427           0.0000000000
     85797     12788  TIP3      OH2             2.2644116920       34.3466280108      -72.1496865885  TIP3      11428           0.0000000000
     85798     12788  TIP3      H1              1.3975862904       34.5199793394      -71.7635523400  TIP3      11428           0.0000000000
     85799     12788  TIP3      H2              2.2383944895       34.9323847250      -72.9301968199  TIP3      11428           0.0000000000
     85800     12789  TIP3      OH2             7.0181385436       34.2782718973      -73.0148173813  TIP3      11429           0.0000000000
     85801     12789  TIP3      H1              6.5420109636       34.8357131588      -73.6477599208  TIP3      11429           0.0000000000
     85802     12789  TIP3      H2              7.1794400610       34.8985950281      -72.2714315542  TIP3      11429           0.0000000000
     85803     12790  TIP3      OH2            -0.6424262649       33.5184806629      -74.2452031788  TIP3      11430           0.0000000000
     85804     12790  TIP3      H1             -0.8125670334       32.9627459411      -73.4621304427  TIP3      11430           0.0000000000
     85805     12790  TIP3      H2              0.0857167304       33.0635965869      -74.6690136513  TIP3      11430           0.0000000000
     85806     12791  TIP3      OH2             3.9611952343       32.6382517094      -74.7742200352  TIP3      11431           0.0000000000
     85807     12791  TIP3      H1              4.1081858399       31.7153082712      -75.0333182860  TIP3      11431           0.0000000000
     85808     12791  TIP3      H2              4.0106258343       32.5717166611      -73.8166832344  TIP3      11431           0.0000000000
     85809     12792  TIP3      OH2             7.4305709020       18.3108781281      -75.5920706505  TIP3      11432           0.0000000000
     85810     12792  TIP3      H1              6.7721842673       17.6437840085      -75.4008488267  TIP3      11432           0.0000000000
     85811     12792  TIP3      H2              7.9718134128       17.8043876832      -76.2314086528  TIP3      11432           0.0000000000
     85812     12793  TIP3      OH2            14.2119829749       17.5879061346      -77.2669047796  TIP3      11433           0.0000000000
     85813     12793  TIP3      H1             14.8837819331       17.0030807099      -77.6881944869  TIP3      11433           0.0000000000
     85814     12793  TIP3      H2             14.7331045943       18.4119550333      -77.1792173662  TIP3      11433           0.0000000000
     85815     12794  TIP3      OH2             9.9403924710       16.8969375329      -76.3978990658  TIP3      11434           0.0000000000
     85816     12794  TIP3      H1              9.9556156862       16.9460398061      -77.3541126700  TIP3      11434           0.0000000000
     85817     12794  TIP3      H2              9.6141069015       15.9707418514      -76.2534208549  TIP3      11434           0.0000000000
     85818     12795  TIP3      OH2            11.2472723889       16.9165606313      -80.6728709899  TIP3      11435           0.0000000000
     85819     12795  TIP3      H1             10.4831324924       17.4793638756      -80.8774272384  TIP3      11435           0.0000000000
     85820     12795  TIP3      H2             10.8299806973       16.0509886662      -80.5376286997  TIP3      11435           0.0000000000
     85821     12796  TIP3      OH2             5.4151577037       18.8598800950      -81.1634028238  TIP3      11436           0.0000000000
     85822     12796  TIP3      H1              5.6516224219       18.2570414516      -80.4470002509  TIP3      11436           0.0000000000
     85823     12796  TIP3      H2              5.4404715431       19.6941640202      -80.6590742408  TIP3      11436           0.0000000000
     85824     12797  TIP3      OH2            -0.3131124470       17.4511431950      -68.2568840700  TIP3      11437           0.0000000000
     85825     12797  TIP3      H1             -0.6955251617       16.6185288524      -67.9220117712  TIP3      11437           0.0000000000
     85826     12797  TIP3      H2              0.6194973302       17.3865416467      -67.9583144422  TIP3      11437           0.0000000000
     85827     12798  TIP3      OH2             1.7230728418       16.8322873609      -66.6568145129  TIP3      11438           0.0000000000
     85828     12798  TIP3      H1              2.5804867887       16.4712697408      -66.9605515364  TIP3      11438           0.0000000000
     85829     12798  TIP3      H2              1.3136581359       16.0203009129      -66.2918658252  TIP3      11438           0.0000000000
     85830     12799  TIP3      OH2            10.1034172739       16.1075601767      -66.5719191093  TIP3      11439           0.0000000000
     85831     12799  TIP3      H1             10.1975767784       15.6353894042      -65.7215015829  TIP3      11439           0.0000000000
     85832     12799  TIP3      H2             11.0296631116       16.0810108092      -66.8888163900  TIP3      11439           0.0000000000
     85833     12800  TIP3      OH2            16.5333386018       22.9757023829      -78.9063320443  TIP3      11440           0.0000000000
     85834     12800  TIP3      H1             16.0868063596       23.8462749404      -78.9289507495  TIP3      11440           0.0000000000
     85835     12800  TIP3      H2             15.9468848860       22.4504236706      -79.4633900388  TIP3      11440           0.0000000000
     85836     12801  TIP3      OH2            17.2894558799       25.2543725711      -76.7067178563  TIP3      11441           0.0000000000
     85837     12801  TIP3      H1             17.4677618884       24.3728961708      -76.3323396219  TIP3      11441           0.0000000000
     85838     12801  TIP3      H2             17.9038265665       25.2893387585      -77.4576853240  TIP3      11441           0.0000000000
     85839     12802  TIP3      OH2            17.9660467758       22.6891939597      -75.6886512885  TIP3      11442           0.0000000000
     85840     12802  TIP3      H1             18.5657457068       22.0659160481      -75.2744801221  TIP3      11442           0.0000000000
     85841     12802  TIP3      H2             17.9407577897       22.3385187155      -76.6007134793  TIP3      11442           0.0000000000
     85842     12803  TIP3      OH2            17.0897422386       28.4405774326      -80.5332618743  TIP3      11443           0.0000000000
     85843     12803  TIP3      H1             16.9910738972       28.7370347435      -81.4467350296  TIP3      11443           0.0000000000
     85844     12803  TIP3      H2             17.2805311949       29.2645929055      -80.0568493613  TIP3      11443           0.0000000000
     85845     12804  TIP3      OH2            24.0964893929       16.4662448442      -74.9213639418  TIP3      11444           0.0000000000
     85846     12804  TIP3      H1             23.9854742095       15.4978276037      -74.9893146191  TIP3      11444           0.0000000000
     85847     12804  TIP3      H2             23.2175007870       16.7598072388      -74.6191118234  TIP3      11444           0.0000000000
     85848     12805  TIP3      OH2            29.7464945847       23.6592023180      -70.3644602165  TIP3      11445           0.0000000000
     85849     12805  TIP3      H1             29.7749252334       24.4448447651      -69.8207242415  TIP3      11445           0.0000000000
     85850     12805  TIP3      H2             29.1231748794       23.9439278535      -71.0659530893  TIP3      11445           0.0000000000
     85851     12806  TIP3      OH2            22.7419985625       29.3237147204      -69.2508219768  TIP3      11446           0.0000000000
     85852     12806  TIP3      H1             22.3627061225       30.0803892642      -68.7629146106  TIP3      11446           0.0000000000
     85853     12806  TIP3      H2             22.0626697811       29.1608165098      -69.9221521531  TIP3      11446           0.0000000000
     85854     12807  TIP3      OH2            28.6238256462       24.7270688359      -81.7937430871  TIP3      11447           0.0000000000
     85855     12807  TIP3      H1             29.2353104213       24.8313059348      -81.0629916492  TIP3      11447           0.0000000000
     85856     12807  TIP3      H2             29.0863429116       25.1492969329      -82.5210151693  TIP3      11447           0.0000000000
     85857     12808  TIP3      OH2            20.9798359126       31.4027957667      -68.4563336009  TIP3      11448           0.0000000000
     85858     12808  TIP3      H1             20.9427506721       31.2845880007      -69.4251789276  TIP3      11448           0.0000000000
     85859     12808  TIP3      H2             20.0525087282       31.2093638703      -68.2185391135  TIP3      11448           0.0000000000
     85860     12809  TIP3      OH2            16.4979196417       27.5993507192      -71.0925838777  TIP3      11449           0.0000000000
     85861     12809  TIP3      H1             16.0598767949       27.5187931614      -71.9495363386  TIP3      11449           0.0000000000
     85862     12809  TIP3      H2             16.5822508234       26.6573405871      -70.8340838998  TIP3      11449           0.0000000000
     85863     12810  TIP3      OH2            16.2984965488       30.3395158004      -74.2685149807  TIP3      11450           0.0000000000
     85864     12810  TIP3      H1             17.2555610789       30.2334672943      -74.3193359117  TIP3      11450           0.0000000000
     85865     12810  TIP3      H2             16.2175560361       31.1614527968      -73.7747476724  TIP3      11450           0.0000000000
     85866     12811  TIP3      OH2            25.4264862756       30.5968739821      -69.7654675911  TIP3      11451           0.0000000000
     85867     12811  TIP3      H1             25.5788093013       31.4098166866      -69.2434449507  TIP3      11451           0.0000000000
     85868     12811  TIP3      H2             24.5753663855       30.2691505459      -69.4516403083  TIP3      11451           0.0000000000
     85869     12812  TIP3      OH2            19.6014785512       33.1310625783      -78.1376162795  TIP3      11452           0.0000000000
     85870     12812  TIP3      H1             19.6988331388       32.8273158968      -77.2138477546  TIP3      11452           0.0000000000
     85871     12812  TIP3      H2             18.7085624733       32.8216872746      -78.3354709466  TIP3      11452           0.0000000000
     85872     12813  TIP3      OH2            31.6714695888       22.5479474464      -68.0939628273  TIP3      11453           0.0000000000
     85873     12813  TIP3      H1             31.1820816196       22.9253358057      -68.8473424858  TIP3      11453           0.0000000000
     85874     12813  TIP3      H2             31.6565485290       21.6243483388      -68.3872430064  TIP3      11453           0.0000000000
     85875     12814  TIP3      OH2            18.7845147163       28.9754774861      -70.1296852244  TIP3      11454           0.0000000000
     85876     12814  TIP3      H1             19.0438023573       28.5445748064      -69.2802407345  TIP3      11454           0.0000000000
     85877     12814  TIP3      H2             17.9438678287       28.5244053877      -70.3357009778  TIP3      11454           0.0000000000
     85878     12815  TIP3      OH2            21.5028722222       17.3728826483      -74.1336166072  TIP3      11455           0.0000000000
     85879     12815  TIP3      H1             20.6009900960       17.2430509269      -74.5216426704  TIP3      11455           0.0000000000
     85880     12815  TIP3      H2             21.3699194004       18.2287601476      -73.6838594631  TIP3      11455           0.0000000000
     85881     12816  TIP3      OH2            26.1383895035       17.0096818901      -70.8108421378  TIP3      11456           0.0000000000
     85882     12816  TIP3      H1             26.5128515981       16.6320983719      -69.9996383472  TIP3      11456           0.0000000000
     85883     12816  TIP3      H2             25.1685531517       16.9290391799      -70.6625690480  TIP3      11456           0.0000000000
     85884     12817  TIP3      OH2            29.4952446230       20.8615553369      -69.8849972253  TIP3      11457           0.0000000000
     85885     12817  TIP3      H1             28.8696744490       20.6991427234      -69.1474716998  TIP3      11457           0.0000000000
     85886     12817  TIP3      H2             29.2783581942       21.7610825068      -70.1770347077  TIP3      11457           0.0000000000
     85887     12818  TIP3      OH2            27.0552068481       22.9791187338      -79.2894040391  TIP3      11458           0.0000000000
     85888     12818  TIP3      H1             26.6471269856       23.7908757006      -79.6074649599  TIP3      11458           0.0000000000
     85889     12818  TIP3      H2             27.7422483769       22.8422436493      -79.9457172484  TIP3      11458           0.0000000000
     85890     12819  TIP3      OH2            26.1594576246       23.1814026684      -67.8273137755  TIP3      11459           0.0000000000
     85891     12819  TIP3      H1             25.6044585035       22.4247220199      -67.5322682825  TIP3      11459           0.0000000000
     85892     12819  TIP3      H2             26.9946685209       23.0378070111      -67.3622356592  TIP3      11459           0.0000000000
     85893     12820  TIP3      OH2            15.8248112924       19.7527911408      -77.2511768944  TIP3      11460           0.0000000000
     85894     12820  TIP3      H1             16.5251310256       19.6974471419      -76.5745978891  TIP3      11460           0.0000000000
     85895     12820  TIP3      H2             16.2767744218       19.3557181848      -78.0190144229  TIP3      11460           0.0000000000
     85896     12821  TIP3      OH2            17.1453798010       20.4782782526      -81.8937258340  TIP3      11461           0.0000000000
     85897     12821  TIP3      H1             17.5842310739       21.0903913973      -82.4915827942  TIP3      11461           0.0000000000
     85898     12821  TIP3      H2             16.4352712897       21.0710447311      -81.5701412255  TIP3      11461           0.0000000000
     85899     12822  TIP3      OH2            27.3527602250       24.0472456427      -71.8289181331  TIP3      11462           0.0000000000
     85900     12822  TIP3      H1             27.5983037947       23.4000200953      -72.4975036924  TIP3      11462           0.0000000000
     85901     12822  TIP3      H2             26.8357278203       23.5124451991      -71.2111406303  TIP3      11462           0.0000000000
     85902     12823  TIP3      OH2            31.7283976080       34.8886471732      -67.4655915917  TIP3      11463           0.0000000000
     85903     12823  TIP3      H1             31.9870271641       35.2896269955      -68.3136958571  TIP3      11463           0.0000000000
     85904     12823  TIP3      H2             32.4358363412       35.2137781181      -66.8924550042  TIP3      11463           0.0000000000
     85905     12824  TIP3      OH2            19.3622668267       27.4133628921      -67.9204263583  TIP3      11464           0.0000000000
     85906     12824  TIP3      H1             20.0991095332       27.5927345270      -67.3156162996  TIP3      11464           0.0000000000
     85907     12824  TIP3      H2             18.5898593706       27.4689788313      -67.3284148481  TIP3      11464           0.0000000000
     85908     12825  TIP3      OH2            31.7162961150       26.5487226213      -72.2456927609  TIP3      11465           0.0000000000
     85909     12825  TIP3      H1             32.3656923669       26.9337302999      -72.8399298002  TIP3      11465           0.0000000000
     85910     12825  TIP3      H2             30.8891004957       26.6233577850      -72.7269322695  TIP3      11465           0.0000000000
     85911     12826  TIP3      OH2            26.0931297780       27.5608060559      -69.7680814195  TIP3      11466           0.0000000000
     85912     12826  TIP3      H1             25.7383305804       27.2036487122      -68.9613365717  TIP3      11466           0.0000000000
     85913     12826  TIP3      H2             25.9208402175       28.5158716951      -69.7536913269  TIP3      11466           0.0000000000
     85914     12827  TIP3      OH2            16.6885890554       25.1551928313      -69.9697573313  TIP3      11467           0.0000000000
     85915     12827  TIP3      H1             16.9331979223       24.7068054202      -69.1367533827  TIP3      11467           0.0000000000
     85916     12827  TIP3      H2             16.0949480327       24.5226367002      -70.4027106662  TIP3      11467           0.0000000000
     85917     12828  TIP3      OH2            22.0965470508       30.2011092324      -77.8025152741  TIP3      11468           0.0000000000
     85918     12828  TIP3      H1             22.5809781283       30.9835732067      -78.1074912362  TIP3      11468           0.0000000000
     85919     12828  TIP3      H2             21.2279561957       30.3871822767      -78.1906785417  TIP3      11468           0.0000000000
     85920     12829  TIP3      OH2            23.4339588370       27.8373984981      -78.2742816876  TIP3      11469           0.0000000000
     85921     12829  TIP3      H1             23.1907301012       28.7753940052      -78.2221218510  TIP3      11469           0.0000000000
     85922     12829  TIP3      H2             22.6953673907       27.3983009267      -77.8620572394  TIP3      11469           0.0000000000
     85923     12830  TIP3      OH2            23.9255750481       32.0456489361      -71.9425816366  TIP3      11470           0.0000000000
     85924     12830  TIP3      H1             24.4385560787       32.8166995772      -72.2332439652  TIP3      11470           0.0000000000
     85925     12830  TIP3      H2             24.5640228071       31.6563955547      -71.3020780774  TIP3      11470           0.0000000000
     85926     12831  TIP3      OH2            22.2301408209       32.8698051694      -78.8012938766  TIP3      11471           0.0000000000
     85927     12831  TIP3      H1             21.2544640665       32.9883136510      -78.6947766593  TIP3      11471           0.0000000000
     85928     12831  TIP3      H2             22.5375901649       33.7203115193      -78.4424534008  TIP3      11471           0.0000000000
     85929     12832  TIP3      OH2            18.3552265301       19.8726564326      -70.4039144410  TIP3      11472           0.0000000000
     85930     12832  TIP3      H1             17.4571064590       20.2269917448      -70.4529464220  TIP3      11472           0.0000000000
     85931     12832  TIP3      H2             18.2291433766       18.9964556369      -70.0112492470  TIP3      11472           0.0000000000
     85932     12833  TIP3      OH2            17.9395043936       31.6325961422      -71.9767624201  TIP3      11473           0.0000000000
     85933     12833  TIP3      H1             18.2721994293       30.7320317748      -71.9725939784  TIP3      11473           0.0000000000
     85934     12833  TIP3      H2             18.2838802937       31.9606869697      -71.1436801565  TIP3      11473           0.0000000000
     85935     12834  TIP3      OH2            22.7057029789       29.7341237677      -82.3201177762  TIP3      11474           0.0000000000
     85936     12834  TIP3      H1             22.9478378108       29.1962527902      -81.5549374925  TIP3      11474           0.0000000000
     85937     12834  TIP3      H2             22.7953885700       30.6446308671      -81.9772281994  TIP3      11474           0.0000000000
     85938     12835  TIP3      OH2            27.0776085046       19.6977488378      -71.4178710656  TIP3      11475           0.0000000000
     85939     12835  TIP3      H1             27.8539394437       19.7101335721      -70.8565261603  TIP3      11475           0.0000000000
     85940     12835  TIP3      H2             26.7362750984       18.7896006131      -71.3325050388  TIP3      11475           0.0000000000
     85941     12836  TIP3      OH2            27.8335499231       19.2883431859      -80.4025320650  TIP3      11476           0.0000000000
     85942     12836  TIP3      H1             28.0677864037       19.7139219975      -81.2351094028  TIP3      11476           0.0000000000
     85943     12836  TIP3      H2             28.4400408341       19.6886146054      -79.7786015363  TIP3      11476           0.0000000000
     85944     12837  TIP3      OH2            25.5838674017       21.9931016742      -70.3524610090  TIP3      11477           0.0000000000
     85945     12837  TIP3      H1             25.7440269143       22.5350776027      -69.5659178772  TIP3      11477           0.0000000000
     85946     12837  TIP3      H2             26.2559603340       21.2947219750      -70.3212192421  TIP3      11477           0.0000000000
     85947     12838  TIP3      OH2            26.0037456566       18.0527550367      -78.5890038748  TIP3      11478           0.0000000000
     85948     12838  TIP3      H1             25.6334114578       18.7178058146      -77.9918809160  TIP3      11478           0.0000000000
     85949     12838  TIP3      H2             26.6221588458       18.5744820951      -79.1470650357  TIP3      11478           0.0000000000
     85950     12839  TIP3      OH2            22.8444322172       32.4453557554      -81.5933867562  TIP3      11479           0.0000000000
     85951     12839  TIP3      H1             23.0489928996       33.2843032857      -82.0661559398  TIP3      11479           0.0000000000
     85952     12839  TIP3      H2             22.6803478808       32.7447577635      -80.6747335735  TIP3      11479           0.0000000000
     85953     12840  TIP3      OH2            19.8221850394       29.6000707866      -82.9017271645  TIP3      11480           0.0000000000
     85954     12840  TIP3      H1             20.4657190038       30.2507933745      -82.6197061851  TIP3      11480           0.0000000000
     85955     12840  TIP3      H2             20.2738999233       29.1198620775      -83.5952475596  TIP3      11480           0.0000000000
     85956     12841  TIP3      OH2            18.9986079533       17.0409240239      -75.0434117711  TIP3      11481           0.0000000000
     85957     12841  TIP3      H1             18.7683778312       17.0605405628      -76.0019325376  TIP3      11481           0.0000000000
     85958     12841  TIP3      H2             18.5316725418       16.2138420362      -74.7823080698  TIP3      11481           0.0000000000
     85959     12842  TIP3      OH2            17.9319587401       30.9559662386      -78.8975664903  TIP3      11482           0.0000000000
     85960     12842  TIP3      H1             17.0903658437       31.4191243565      -78.9434055196  TIP3      11482           0.0000000000
     85961     12842  TIP3      H2             18.4170563191       31.4166270695      -79.6000081730  TIP3      11482           0.0000000000
     85962     12843  TIP3      OH2            17.1472470693       33.6157793721      -67.5865965160  TIP3      11483           0.0000000000
     85963     12843  TIP3      H1             17.7512890463       33.4140302139      -66.8452497966  TIP3      11483           0.0000000000
     85964     12843  TIP3      H2             16.7590391023       32.7566643746      -67.7673493668  TIP3      11483           0.0000000000
     85965     12844  TIP3      OH2            21.8090639045       32.5183946551      -65.9939390381  TIP3      11484           0.0000000000
     85966     12844  TIP3      H1             22.5795208282       32.0317587428      -65.6799663447  TIP3      11484           0.0000000000
     85967     12844  TIP3      H2             21.7807262860       32.2466476813      -66.9339445646  TIP3      11484           0.0000000000
     85968     12845  TIP3      OH2            28.2545694285       30.9516642468      -67.2179199945  TIP3      11485           0.0000000000
     85969     12845  TIP3      H1             28.0158591091       30.0194638794      -67.0680588352  TIP3      11485           0.0000000000
     85970     12845  TIP3      H2             29.0922105403       31.0188313419      -66.7227758796  TIP3      11485           0.0000000000
     85971     12846  TIP3      OH2            17.0296153841       27.3448480932      -66.6136329836  TIP3      11486           0.0000000000
     85972     12846  TIP3      H1             17.2441324239       26.4578673330      -66.9716774010  TIP3      11486           0.0000000000
     85973     12846  TIP3      H2             16.3139616098       27.6285163293      -67.2128147581  TIP3      11486           0.0000000000
     85974     12847  TIP3      OH2            23.7082948826       27.3562036179      -67.2203380684  TIP3      11487           0.0000000000
     85975     12847  TIP3      H1             23.4195225848       27.6795453714      -68.0988123513  TIP3      11487           0.0000000000
     85976     12847  TIP3      H2             23.9052288978       26.4185177994      -67.3464726828  TIP3      11487           0.0000000000
     85977     12848  TIP3      OH2            17.9653750792       24.6083618291      -67.2436692544  TIP3      11488           0.0000000000
     85978     12848  TIP3      H1             18.3771289825       23.7423118127      -67.3493631383  TIP3      11488           0.0000000000
     85979     12848  TIP3      H2             17.7363515929       24.6202631414      -66.2942656047  TIP3      11488           0.0000000000
     85980     12849  TIP3      OH2            26.9271224451       26.1046713963      -66.4778050578  TIP3      11489           0.0000000000
     85981     12849  TIP3      H1             27.8764578624       26.0946300608      -66.6449630195  TIP3      11489           0.0000000000
     85982     12849  TIP3      H2             26.7686227492       25.3199384998      -65.9357805760  TIP3      11489           0.0000000000
     85983     12850  TIP3      OH2            22.2812698128       20.9260461562      -68.8147457674  TIP3      11490           0.0000000000
     85984     12850  TIP3      H1             22.3780003833       20.2013020547      -69.4406891320  TIP3      11490           0.0000000000
     85985     12850  TIP3      H2             22.2369449143       21.7261143605      -69.3586090286  TIP3      11490           0.0000000000
     85986     12851  TIP3      OH2            28.5980587414       22.5497988946      -66.0879024643  TIP3      11491           0.0000000000
     85987     12851  TIP3      H1             28.8449371315       21.6142849490      -66.1586755756  TIP3      11491           0.0000000000
     85988     12851  TIP3      H2             29.4725981066       22.9666601260      -66.0407628533  TIP3      11491           0.0000000000
     85989     12852  TIP3      OH2            29.9664254710       25.3764526858      -67.9243473396  TIP3      11492           0.0000000000
     85990     12852  TIP3      H1             29.6607128496       26.0810507119      -68.5111537357  TIP3      11492           0.0000000000
     85991     12852  TIP3      H2             30.8961461479       25.2942459387      -68.1373006730  TIP3      11492           0.0000000000
     85992     12853  TIP3      OH2            20.7567578546       22.1109778619      -66.8064126328  TIP3      11493           0.0000000000
     85993     12853  TIP3      H1             19.9501270597       21.6275714674      -67.0841380779  TIP3      11493           0.0000000000
     85994     12853  TIP3      H2             21.3598574259       21.8331181341      -67.5206670717  TIP3      11493           0.0000000000
     85995     12854  TIP3      OH2            23.4312096843       16.7691542258      -70.8633504055  TIP3      11494           0.0000000000
     85996     12854  TIP3      H1             23.3064688392       17.7129760776      -71.0271485250  TIP3      11494           0.0000000000
     85997     12854  TIP3      H2             22.7037495306       16.3793245330      -71.3832077276  TIP3      11494           0.0000000000
     85998     12855  TIP3      OH2            24.7302973316       21.0707178691      -67.2614644228  TIP3      11495           0.0000000000
     85999     12855  TIP3      H1             24.4212695334       20.8605266442      -66.3606397348  TIP3      11495           0.0000000000
     86000     12855  TIP3      H2             23.9354204909       20.8851941341      -67.7952296384  TIP3      11495           0.0000000000
     86001     12856  TIP3      OH2            27.4259066526       20.1987698416      -68.2329936126  TIP3      11496           0.0000000000
     86002     12856  TIP3      H1             26.4781094517       20.2501678942      -68.0554217949  TIP3      11496           0.0000000000
     86003     12856  TIP3      H2             27.7378606954       19.5923605782      -67.5396107352  TIP3      11496           0.0000000000
     86004     12857  TIP3      OH2            29.0130849714       18.8375652322      -66.2579517939  TIP3      11497           0.0000000000
     86005     12857  TIP3      H1             28.9698624037       17.8658419182      -66.2221077017  TIP3      11497           0.0000000000
     86006     12857  TIP3      H2             28.7626314873       19.1269481264      -65.3473519064  TIP3      11497           0.0000000000
     86007     12858  TIP3      OH2            18.8149575744       20.1063675175      -67.1750996336  TIP3      11498           0.0000000000
     86008     12858  TIP3      H1             19.0633520378       19.3711106982      -67.7631375927  TIP3      11498           0.0000000000
     86009     12858  TIP3      H2             18.7403949599       19.6666473557      -66.3024306969  TIP3      11498           0.0000000000
     86010     12859  TIP3      OH2            23.6739505454       16.1319975134      -68.1851872044  TIP3      11499           0.0000000000
     86011     12859  TIP3      H1             24.3544736706       15.4286388078      -68.2011355411  TIP3      11499           0.0000000000
     86012     12859  TIP3      H2             23.5686198524       16.2874025440      -69.1434162684  TIP3      11499           0.0000000000
     86013     12860  TIP3      OH2            24.0261810281       17.7512282214      -66.1028555148  TIP3      11500           0.0000000000
     86014     12860  TIP3      H1             23.8558261823       17.2377851830      -66.9277605888  TIP3      11500           0.0000000000
     86015     12860  TIP3      H2             23.4344605453       18.5222211023      -66.1937195760  TIP3      11500           0.0000000000
     86016     12861  TIP3      OH2            23.5526648512       34.6128808032      -82.9760964382  TIP3      11501           0.0000000000
     86017     12861  TIP3      H1             24.4865431025       34.8039667999      -82.8269483662  TIP3      11501           0.0000000000
     86018     12861  TIP3      H2             23.3075778411       35.3087810847      -83.6037207692  TIP3      11501           0.0000000000
     86019     12862  TIP3      OH2            15.8411970892       34.6165922591      -78.4799004442  TIP3      11502           0.0000000000
     86020     12862  TIP3      H1             15.1386494683       34.1622883846      -78.9503765170  TIP3      11502           0.0000000000
     86021     12862  TIP3      H2             16.1213552331       33.9691238139      -77.8049895193  TIP3      11502           0.0000000000
     86022     12863  TIP3      OH2            16.6519007667       32.7595062927      -76.5954558351  TIP3      11503           0.0000000000
     86023     12863  TIP3      H1             16.2964859661       31.8820223366      -76.3998078279  TIP3      11503           0.0000000000
     86024     12863  TIP3      H2             16.8749445728       33.0844634576      -75.7171750969  TIP3      11503           0.0000000000
     86025     12864  TIP3      OH2            32.2381051718       28.8399832000      -66.0284847014  TIP3      11504           0.0000000000
     86026     12864  TIP3      H1             31.3285107359       28.8530567403      -65.6739719180  TIP3      11504           0.0000000000
     86027     12864  TIP3      H2             32.5829141074       29.6604765706      -65.6045907120  TIP3      11504           0.0000000000
     86028     12865  TIP3      OH2            16.7513885259       25.8015348712      -74.0978620118  TIP3      11505           0.0000000000
     86029     12865  TIP3      H1             16.8866406110       25.7488940899      -75.0733128500  TIP3      11505           0.0000000000
     86030     12865  TIP3      H2             17.6322117968       25.7070035266      -73.7475451570  TIP3      11505           0.0000000000
     86031     12866  TIP3      OH2            34.1044044506       23.6479392267      -67.8087321145  TIP3      11506           0.0000000000
     86032     12866  TIP3      H1             33.2162644609       23.2510333267      -67.9819640952  TIP3      11506           0.0000000000
     86033     12866  TIP3      H2             34.6359276158       22.8334661851      -67.9066945883  TIP3      11506           0.0000000000
     86034     12867  TIP3      OH2            16.3245562856       21.1480219214      -67.9052217433  TIP3      11507           0.0000000000
     86035     12867  TIP3      H1             17.2697557541       20.9460761006      -67.7535768180  TIP3      11507           0.0000000000
     86036     12867  TIP3      H2             15.8890308935       20.3066581840      -67.6506602549  TIP3      11507           0.0000000000
     86037     12868  TIP3      OH2            34.4054959530       16.6592655560      -66.1318374976  TIP3      11508           0.0000000000
     86038     12868  TIP3      H1             34.6885983609       15.9787480094      -66.7607425992  TIP3      11508           0.0000000000
     86039     12868  TIP3      H2             34.4620479285       17.4612390997      -66.6503015097  TIP3      11508           0.0000000000
     86040     12869  TIP3      OH2            17.5305512217       19.4236882226      -75.0974094698  TIP3      11509           0.0000000000
     86041     12869  TIP3      H1             17.9827445533       18.5887211022      -74.8507892987  TIP3      11509           0.0000000000
     86042     12869  TIP3      H2             18.0527887799       20.0844400213      -74.6601667344  TIP3      11509           0.0000000000
     86043     12870  TIP3      OH2            15.8222088397       22.4048740176      -74.0731328934  TIP3      11510           0.0000000000
     86044     12870  TIP3      H1             16.3931418989       22.1744151228      -74.8281259115  TIP3      11510           0.0000000000
     86045     12870  TIP3      H2             16.2220757088       23.2349429799      -73.7886883356  TIP3      11510           0.0000000000
     86046     12871  TIP3      OH2            16.2061522277       18.7301082841      -80.0000959486  TIP3      11511           0.0000000000
     86047     12871  TIP3      H1             15.2479758561       18.8631505730      -80.1145295504  TIP3      11511           0.0000000000
     86048     12871  TIP3      H2             16.5985087484       19.2064172955      -80.7439337118  TIP3      11511           0.0000000000
     86049     12872  TIP3      OH2            30.9722993259       33.6564270312      -78.0220999093  TIP3      11512           0.0000000000
     86050     12872  TIP3      H1             31.6343296117       33.3430690992      -78.6715041606  TIP3      11512           0.0000000000
     86051     12872  TIP3      H2             31.4839344868       34.1463405912      -77.3709729269  TIP3      11512           0.0000000000
     86052     12873  TIP3      OH2            16.1309063865       17.3486738793      -71.6687365481  TIP3      11513           0.0000000000
     86053     12873  TIP3      H1             15.4670702818       17.1431833720      -70.9936229125  TIP3      11513           0.0000000000
     86054     12873  TIP3      H2             15.6633759324       17.9893237233      -72.2276107048  TIP3      11513           0.0000000000
     86055     12874  TIP3      OH2            18.3689524068       30.5892070909      -67.5007038611  TIP3      11514           0.0000000000
     86056     12874  TIP3      H1             17.5348608296       30.7046185292      -67.9571559451  TIP3      11514           0.0000000000
     86057     12874  TIP3      H2             18.1020739588       30.4892548098      -66.5775883545  TIP3      11514           0.0000000000
     86058     12875  TIP3      OH2            21.2888834330       31.5279073033      -71.2124983028  TIP3      11515           0.0000000000
     86059     12875  TIP3      H1             20.9213304746       32.3675346843      -71.5168296210  TIP3      11515           0.0000000000
     86060     12875  TIP3      H2             22.2022798016       31.6228505805      -71.5492113254  TIP3      11515           0.0000000000
     86061     12876  TIP3      OH2            25.5800229243       32.9910686836      -68.3085868829  TIP3      11516           0.0000000000
     86062     12876  TIP3      H1             25.7543877136       32.5986520948      -67.4258127210  TIP3      11516           0.0000000000
     86063     12876  TIP3      H2             26.4838689292       33.2485498316      -68.5995041033  TIP3      11516           0.0000000000
     86064     12877  TIP3      OH2            27.8994840129       34.2286678749      -69.0436766329  TIP3      11517           0.0000000000
     86065     12877  TIP3      H1             28.5973463475       33.6073038950      -69.2972912400  TIP3      11517           0.0000000000
     86066     12877  TIP3      H2             28.2801113682       34.6496334596      -68.2430174686  TIP3      11517           0.0000000000
     86067     12878  TIP3      OH2            21.1840746452       34.3589210855      -72.1583369889  TIP3      11518           0.0000000000
     86068     12878  TIP3      H1             20.3005304095       34.4950396535      -71.7778478427  TIP3      11518           0.0000000000
     86069     12878  TIP3      H2             21.0534894794       34.9000711339      -72.9461665086  TIP3      11518           0.0000000000
     86070     12879  TIP3      OH2            25.8717423714       34.2508348050      -72.9641725100  TIP3      11519           0.0000000000
     86071     12879  TIP3      H1             25.4310824340       34.8058340018      -73.6313416015  TIP3      11519           0.0000000000
     86072     12879  TIP3      H2             26.0493419656       34.9110782301      -72.2605354272  TIP3      11519           0.0000000000
     86073     12880  TIP3      OH2            28.1974055134       33.1434756229      -71.9897090012  TIP3      11520           0.0000000000
     86074     12880  TIP3      H1             27.3084419156       33.3220110746      -72.3383357863  TIP3      11520           0.0000000000
     86075     12880  TIP3      H2             28.6116920007       34.0093508251      -72.0415963875  TIP3      11520           0.0000000000
     86076     12881  TIP3      OH2            30.7286320037       34.6950845138      -71.7850048880  TIP3      11521           0.0000000000
     86077     12881  TIP3      H1             30.6552134392       35.6643265160      -71.9784464888  TIP3      11521           0.0000000000
     86078     12881  TIP3      H2             30.9369768607       34.3494546467      -72.6503305784  TIP3      11521           0.0000000000
     86079     12882  TIP3      OH2            20.2233471813       32.1260017787      -75.6436778729  TIP3      11522           0.0000000000
     86080     12882  TIP3      H1             20.0541928198       31.2093526148      -75.4124655288  TIP3      11522           0.0000000000
     86081     12882  TIP3      H2             21.0599727574       32.3097349769      -75.1758320119  TIP3      11522           0.0000000000
     86082     12883  TIP3      OH2            22.7806608736       32.6554144097      -74.7505812152  TIP3      11523           0.0000000000
     86083     12883  TIP3      H1             23.0069541411       31.7627862312      -75.0491838523  TIP3      11523           0.0000000000
     86084     12883  TIP3      H2             22.8856402264       32.5616731795      -73.7918854363  TIP3      11523           0.0000000000
     86085     12884  TIP3      OH2            26.3091295075       18.1559194708      -75.6389093561  TIP3      11524           0.0000000000
     86086     12884  TIP3      H1             25.5891968297       17.5750461335      -75.3670122634  TIP3      11524           0.0000000000
     86087     12884  TIP3      H2             26.8769409988       17.6504891356      -76.2251146019  TIP3      11524           0.0000000000
     86088     12885  TIP3      OH2            18.6348290152       16.8996018198      -77.7781784697  TIP3      11525           0.0000000000
     86089     12885  TIP3      H1             17.8470650241       16.6853014778      -78.3111634688  TIP3      11525           0.0000000000
     86090     12885  TIP3      H2             19.1425623939       16.0726590242      -77.8499791815  TIP3      11525           0.0000000000
     86091     12886  TIP3      OH2            17.4108180785       16.6879032648      -82.1070071306  TIP3      11526           0.0000000000
     86092     12886  TIP3      H1             17.9047508701       17.3409318263      -82.6031646969  TIP3      11526           0.0000000000
     86093     12886  TIP3      H2             16.8391694610       17.1929533441      -81.5058462357  TIP3      11526           0.0000000000
     86094     12887  TIP3      OH2            23.1371032362       16.6626590792      -77.9268208208  TIP3      11527           0.0000000000
     86095     12887  TIP3      H1             23.9760996731       17.1464618300      -78.0548338516  TIP3      11527           0.0000000000
     86096     12887  TIP3      H2             23.0711466886       16.6311283966      -76.9783078240  TIP3      11527           0.0000000000
     86097     12888  TIP3      OH2            28.7757144868       16.8618228571      -76.3761593035  TIP3      11528           0.0000000000
     86098     12888  TIP3      H1             28.8176852184       16.9235438681      -77.3252932520  TIP3      11528           0.0000000000
     86099     12888  TIP3      H2             28.4659829882       15.9446210539      -76.2382402786  TIP3      11528           0.0000000000
     86100     12889  TIP3      OH2            17.3825038653       32.6557404392      -81.0766861966  TIP3      11529           0.0000000000
     86101     12889  TIP3      H1             16.6823493681       32.5731981008      -81.7484453309  TIP3      11529           0.0000000000
     86102     12889  TIP3      H2             17.3475079030       33.5870277390      -80.8423806299  TIP3      11529           0.0000000000
     86103     12890  TIP3      OH2            32.8598295848       33.4243789086      -79.9873376104  TIP3      11530           0.0000000000
     86104     12890  TIP3      H1             32.7490518684       32.7005832733      -80.6128371915  TIP3      11530           0.0000000000
     86105     12890  TIP3      H2             32.9081367002       34.1711867536      -80.6364448145  TIP3      11530           0.0000000000
     86106     12891  TIP3      OH2            18.5516093102       17.4516707485      -68.3231778866  TIP3      11531           0.0000000000
     86107     12891  TIP3      H1             18.1659503218       16.6516784161      -67.9200711548  TIP3      11531           0.0000000000
     86108     12891  TIP3      H2             19.4647228559       17.4155905067      -67.9583902524  TIP3      11531           0.0000000000
     86109     12892  TIP3      OH2            20.5519591041       16.8298117162      -66.6876754913  TIP3      11532           0.0000000000
     86110     12892  TIP3      H1             21.4279953160       16.4760754472      -66.9338201683  TIP3      11532           0.0000000000
     86111     12892  TIP3      H2             20.1667260271       16.0289114282      -66.2804403577  TIP3      11532           0.0000000000
     86112     12893  TIP3      OH2            19.1456258141       33.5496998720      -84.0453946919  TIP3      11533           0.0000000000
     86113     12893  TIP3      H1             18.9145255142       33.8621527717      -83.1691584147  TIP3      11533           0.0000000000
     86114     12893  TIP3      H2             19.9332087530       33.0161151277      -83.9163155349  TIP3      11533           0.0000000000
     86115     12894  TIP3      OH2            28.9581786398       16.1141092021      -66.5591196817  TIP3      11534           0.0000000000
     86116     12894  TIP3      H1             29.0498570833       15.6505514435      -65.7019847682  TIP3      11534           0.0000000000
     86117     12894  TIP3      H2             29.8601946368       16.0917944799      -66.8965467554  TIP3      11534           0.0000000000
     86118     12895  TIP3      OH2            37.8605479805       24.9465226876      -72.8876807985  TIP3      11535           0.0000000000
     86119     12895  TIP3      H1             37.8991436023       24.2732646276      -72.1756997026  TIP3      11535           0.0000000000
     86120     12895  TIP3      H2             38.5462090308       25.5774011724      -72.6401707960  TIP3      11535           0.0000000000
     86121     12896  TIP3      OH2            38.6835658143       29.3810516256      -74.3269827523  TIP3      11536           0.0000000000
     86122     12896  TIP3      H1             38.3959692553       28.5225840163      -74.6779358314  TIP3      11536           0.0000000000
     86123     12896  TIP3      H2             39.6461257606       29.2526625464      -74.2517014030  TIP3      11536           0.0000000000
     86124     12897  TIP3      OH2            39.6366524799       20.3887204075      -76.2255153267  TIP3      11537           0.0000000000
     86125     12897  TIP3      H1             40.1456267896       21.0914578440      -76.7092011221  TIP3      11537           0.0000000000
     86126     12897  TIP3      H2             39.6919939062       19.7235327088      -76.9060829862  TIP3      11537           0.0000000000
     86127     12898  TIP3      OH2            36.7789367280       22.6449147236      -75.6590863016  TIP3      11538           0.0000000000
     86128     12898  TIP3      H1             37.4450775091       22.0919713458      -75.2293853227  TIP3      11538           0.0000000000
     86129     12898  TIP3      H2             36.8307835521       22.3553151995      -76.5715018385  TIP3      11538           0.0000000000
     86130     12899  TIP3      OH2            38.9508519517       19.1028870390      -72.3658780167  TIP3      11539           0.0000000000
     86131     12899  TIP3      H1             38.7638259345       19.7054632458      -73.1158445316  TIP3      11539           0.0000000000
     86132     12899  TIP3      H2             38.3111798241       19.4088999634      -71.6958490845  TIP3      11539           0.0000000000
     86133     12900  TIP3      OH2            38.5080076424       21.0470283078      -74.1001048944  TIP3      11540           0.0000000000
     86134     12900  TIP3      H1             39.1874505618       21.7353442130      -74.0030179157  TIP3      11540           0.0000000000
     86135     12900  TIP3      H2             38.9463738077       20.6406741201      -74.9072341853  TIP3      11540           0.0000000000
     86136     12901  TIP3      OH2            39.7593663022       28.9053839374      -71.5160629656  TIP3      11541           0.0000000000
     86137     12901  TIP3      H1             39.8654241843       29.8678191731      -71.5993901390  TIP3      11541           0.0000000000
     86138     12901  TIP3      H2             39.0129794714       28.8618090092      -70.8905745286  TIP3      11541           0.0000000000
     86139     12902  TIP3      OH2            36.1541096472       28.4700315265      -80.5356958872  TIP3      11542           0.0000000000
     86140     12902  TIP3      H1             35.8008093771       28.7368986003      -81.4066805946  TIP3      11542           0.0000000000
     86141     12902  TIP3      H2             36.1394260951       29.3078849603      -80.0295439138  TIP3      11542           0.0000000000
     86142     12903  TIP3      OH2            40.1900302297       26.0643325555      -77.4113521350  TIP3      11543           0.0000000000
     86143     12903  TIP3      H1             39.9762844407       25.8039674354      -78.3389092373  TIP3      11543           0.0000000000
     86144     12903  TIP3      H2             40.9087587348       25.4544662960      -77.2186498179  TIP3      11543           0.0000000000
     86145     12904  TIP3      OH2            38.4775448294       25.4878860879      -70.0032900045  TIP3      11544           0.0000000000
     86146     12904  TIP3      H1             38.5987069010       26.2119328371      -69.3737082777  TIP3      11544           0.0000000000
     86147     12904  TIP3      H2             37.5824954057       25.6237912855      -70.3245210386  TIP3      11544           0.0000000000
     86148     12905  TIP3      OH2            39.8182926664       31.4139703665      -68.4582042620  TIP3      11545           0.0000000000
     86149     12905  TIP3      H1             39.7791180572       31.1724434554      -69.4019745952  TIP3      11545           0.0000000000
     86150     12905  TIP3      H2             38.8976510713       31.2360218384      -68.2010220961  TIP3      11545           0.0000000000
     86151     12906  TIP3      OH2            39.3139851725       25.1900919760      -79.9468674336  TIP3      11546           0.0000000000
     86152     12906  TIP3      H1             39.0350393624       25.9601364736      -80.4875576600  TIP3      11546           0.0000000000
     86153     12906  TIP3      H2             38.6304443185       24.5613471670      -80.1707950224  TIP3      11546           0.0000000000
     86154     12907  TIP3      OH2            35.3747109151       27.6044376297      -71.0707541699  TIP3      11547           0.0000000000
     86155     12907  TIP3      H1             34.9503669290       27.5655443483      -71.9435043241  TIP3      11547           0.0000000000
     86156     12907  TIP3      H2             35.4190862113       26.6534856906      -70.9040005846  TIP3      11547           0.0000000000
     86157     12908  TIP3      OH2            38.4202153395       33.1932466711      -78.0892773175  TIP3      11548           0.0000000000
     86158     12908  TIP3      H1             38.5670618886       32.7708153420      -77.2142938799  TIP3      11548           0.0000000000
     86159     12908  TIP3      H2             37.5748657528       32.7735608111      -78.3344000703  TIP3      11548           0.0000000000
     86160     12909  TIP3      OH2            37.6021655575       28.9515900106      -70.0433442780  TIP3      11549           0.0000000000
     86161     12909  TIP3      H1             37.8699127016       28.5302660354      -69.2183238618  TIP3      11549           0.0000000000
     86162     12909  TIP3      H2             36.7912696118       28.5070897672      -70.3582193352  TIP3      11549           0.0000000000
     86163     12910  TIP3      OH2            40.2878914667       17.3629005567      -74.1472997784  TIP3      11550           0.0000000000
     86164     12910  TIP3      H1             39.4164708078       17.3234832271      -74.5947054252  TIP3      11550           0.0000000000
     86165     12910  TIP3      H2             40.2449958741       18.2390075203      -73.7231264489  TIP3      11550           0.0000000000
     86166     12911  TIP3      OH2            40.3809935868       22.5076479036      -72.2415673991  TIP3      11551           0.0000000000
     86167     12911  TIP3      H1             39.4434568019       22.2813733722      -72.1410716722  TIP3      11551           0.0000000000
     86168     12911  TIP3      H2             40.2960038275       23.0353169294      -73.0478561324  TIP3      11551           0.0000000000
     86169     12912  TIP3      OH2            40.1210978684       22.3477190854      -77.7964877751  TIP3      11552           0.0000000000
     86170     12912  TIP3      H1             39.2250031966       22.1670242073      -78.1531756473  TIP3      11552           0.0000000000
     86171     12912  TIP3      H2             40.7269016149       22.0896383744      -78.4911724679  TIP3      11552           0.0000000000
     86172     12913  TIP3      OH2            37.9897541107       22.6780103714      -71.1623900990  TIP3      11553           0.0000000000
     86173     12913  TIP3      H1             38.1004184244       23.0153987677      -70.2679131902  TIP3      11553           0.0000000000
     86174     12913  TIP3      H2             37.6471223719       21.7798176000      -71.0425212744  TIP3      11553           0.0000000000
     86175     12914  TIP3      OH2            37.7269887679       21.6097888721      -78.2556149391  TIP3      11554           0.0000000000
     86176     12914  TIP3      H1             36.8184389768       21.6453774885      -78.5544235696  TIP3      11554           0.0000000000
     86177     12914  TIP3      H2             38.0399830065       20.7198724590      -78.5197353217  TIP3      11554           0.0000000000
     86178     12915  TIP3      OH2            40.1183971925       22.6870405039      -82.9670210720  TIP3      11555           0.0000000000
     86179     12915  TIP3      H1             39.5453015325       22.4800011793      -83.7207400231  TIP3      11555           0.0000000000
     86180     12915  TIP3      H2             40.9055849864       23.0218339601      -83.4123052488  TIP3      11555           0.0000000000
     86181     12916  TIP3      OH2            38.2107230014       27.2896547226      -67.8406899630  TIP3      11556           0.0000000000
     86182     12916  TIP3      H1             38.9729109105       27.6350361074      -67.3337666504  TIP3      11556           0.0000000000
     86183     12916  TIP3      H2             37.5005306305       27.6784982795      -67.2974646568  TIP3      11556           0.0000000000
     86184     12917  TIP3      OH2            38.9885043579       18.9189267997      -78.8244392355  TIP3      11557           0.0000000000
     86185     12917  TIP3      H1             38.8458295820       17.9669212612      -78.6654435032  TIP3      11557           0.0000000000
     86186     12917  TIP3      H2             39.9524817144       18.9237002587      -78.9800643983  TIP3      11557           0.0000000000
     86187     12918  TIP3      OH2            38.6515836295       26.7361440603      -75.2117774446  TIP3      11558           0.0000000000
     86188     12918  TIP3      H1             39.2565314089       26.6226195856      -75.9737711010  TIP3      11558           0.0000000000
     86189     12918  TIP3      H2             38.5971764308       25.8507234453      -74.8168821423  TIP3      11558           0.0000000000
     86190     12919  TIP3      OH2            35.5279832129       25.1500191596      -69.9177372270  TIP3      11559           0.0000000000
     86191     12919  TIP3      H1             35.7416408206       24.5399861753      -69.1980877821  TIP3      11559           0.0000000000
     86192     12919  TIP3      H2             34.9525120551       24.5592928458      -70.4412906834  TIP3      11559           0.0000000000
     86193     12920  TIP3      OH2            37.1985803160       19.8512497545      -70.4394498758  TIP3      11560           0.0000000000
     86194     12920  TIP3      H1             36.3118079187       20.2381417126      -70.4162015110  TIP3      11560           0.0000000000
     86195     12920  TIP3      H2             37.1025308614       19.0262183470      -69.9362517924  TIP3      11560           0.0000000000
     86196     12921  TIP3      OH2            38.1324273148       26.9509899819      -81.7660553272  TIP3      11561           0.0000000000
     86197     12921  TIP3      H1             37.3872754629       27.3339962486      -81.2518385704  TIP3      11561           0.0000000000
     86198     12921  TIP3      H2             38.6025265635       27.7540468912      -82.0079428412  TIP3      11561           0.0000000000
     86199     12922  TIP3      OH2           -41.2022328127       19.0998654899      -82.1362676916  TIP3      11562           0.0000000000
     86200     12922  TIP3      H1            -41.1424259900       19.9760292978      -81.7386548745  TIP3      11562           0.0000000000
     86201     12922  TIP3      H2            -40.2812642328       18.8229312579      -81.9602006529  TIP3      11562           0.0000000000
     86202     12923  TIP3      OH2            38.6842034059       29.6001373211      -82.9801861763  TIP3      11563           0.0000000000
     86203     12923  TIP3      H1             39.2982678656       30.2247786510      -82.5694592969  TIP3      11563           0.0000000000
     86204     12923  TIP3      H2             39.2644247857       29.1269058297      -83.5627675634  TIP3      11563           0.0000000000
     86205     12924  TIP3      OH2            37.8001982942       17.0152585486      -75.0763450305  TIP3      11564           0.0000000000
     86206     12924  TIP3      H1             37.6458422268       17.0673952443      -76.0496683883  TIP3      11564           0.0000000000
     86207     12924  TIP3      H2             37.4153649214       16.1695097691      -74.8233799948  TIP3      11564           0.0000000000
     86208     12925  TIP3      OH2            36.7842122646       30.9586892614      -78.9097045913  TIP3      11565           0.0000000000
     86209     12925  TIP3      H1             35.9400421020       31.4266486602      -78.9651765036  TIP3      11565           0.0000000000
     86210     12925  TIP3      H2             37.2891263521       31.4390231130      -79.5786075065  TIP3      11565           0.0000000000
     86211     12926  TIP3      OH2            35.9973210689       33.6007000435      -67.5986697363  TIP3      11566           0.0000000000
     86212     12926  TIP3      H1             36.5946226980       33.3851584216      -66.8488227868  TIP3      11566           0.0000000000
     86213     12926  TIP3      H2             35.5671215496       32.7532111249      -67.7635206455  TIP3      11566           0.0000000000
     86214     12927  TIP3      OH2            35.8687036127       27.7283506889      -66.6711587769  TIP3      11567           0.0000000000
     86215     12927  TIP3      H1             35.9761096194       26.7949160663      -66.4545400663  TIP3      11567           0.0000000000
     86216     12927  TIP3      H2             35.0410044497       27.8507547244      -67.1590623183  TIP3      11567           0.0000000000
     86217     12928  TIP3      OH2            36.8995310758       24.1113157091      -67.2067643640  TIP3      11568           0.0000000000
     86218     12928  TIP3      H1             37.4189686800       23.2914153549      -67.1860732930  TIP3      11568           0.0000000000
     86219     12928  TIP3      H2             36.6684627906       24.2802120908      -66.2617425904  TIP3      11568           0.0000000000
     86220     12929  TIP3      OH2            39.4998871205       22.2497515863      -66.8440732411  TIP3      11569           0.0000000000
     86221     12929  TIP3      H1             38.7971817839       21.6058291643      -67.0638365984  TIP3      11569           0.0000000000
     86222     12929  TIP3      H2             40.2018399509       21.8845607862      -67.4281945780  TIP3      11569           0.0000000000
     86223     12930  TIP3      OH2            37.7318198315       20.1157150548      -67.1684580993  TIP3      11570           0.0000000000
     86224     12930  TIP3      H1             37.9033491677       19.3568840880      -67.7520841961  TIP3      11570           0.0000000000
     86225     12930  TIP3      H2             37.6103900921       19.6745637646      -66.3002784971  TIP3      11570           0.0000000000
     86226     12931  TIP3      OH2            36.0403664089       29.1954323568      -83.3693583802  TIP3      11571           0.0000000000
     86227     12931  TIP3      H1             36.9812771691       29.3554241103      -83.1992461374  TIP3      11571           0.0000000000
     86228     12931  TIP3      H2             35.9954306263       28.6172268363      -84.1286320712  TIP3      11571           0.0000000000
     86229     12932  TIP3      OH2            34.7342259268       34.6490903500      -78.4378425173  TIP3      11572           0.0000000000
     86230     12932  TIP3      H1             34.0403268013       34.1908940413      -78.9750440155  TIP3      11572           0.0000000000
     86231     12932  TIP3      H2             34.9659038024       33.9392757186      -77.8035669193  TIP3      11572           0.0000000000
     86232     12933  TIP3      OH2            35.5139423235       32.7906209016      -76.6979823384  TIP3      11573           0.0000000000
     86233     12933  TIP3      H1             35.2150995401       31.8912134972      -76.4864817160  TIP3      11573           0.0000000000
     86234     12933  TIP3      H2             35.7803052693       33.0905350307      -75.8006254477  TIP3      11573           0.0000000000
     86235     12934  TIP3      OH2            35.5378020163       25.8087896752      -74.1357719025  TIP3      11574           0.0000000000
     86236     12934  TIP3      H1             35.7586735361       25.7180089155      -75.0649059129  TIP3      11574           0.0000000000
     86237     12934  TIP3      H2             36.4140705744       25.6498729007      -73.7445444732  TIP3      11574           0.0000000000
     86238     12935  TIP3      OH2            35.2356551601       21.1311645014      -67.9596128190  TIP3      11575           0.0000000000
     86239     12935  TIP3      H1             36.1611685989       20.9185157222      -67.7283325435  TIP3      11575           0.0000000000
     86240     12935  TIP3      H2             34.7429136798       20.3423406509      -67.6647381989  TIP3      11575           0.0000000000
     86241     12936  TIP3      OH2            36.3756322058       19.3926616499      -75.0586583611  TIP3      11576           0.0000000000
     86242     12936  TIP3      H1             36.9298608019       18.6153184897      -74.8744233026  TIP3      11576           0.0000000000
     86243     12936  TIP3      H2             36.9127006972       20.1259801049      -74.7116320346  TIP3      11576           0.0000000000
     86244     12937  TIP3      OH2            37.1843904376       30.5283254459      -67.4950008854  TIP3      11577           0.0000000000
     86245     12937  TIP3      H1             36.3536043791       30.7181003346      -67.9469004346  TIP3      11577           0.0000000000
     86246     12937  TIP3      H2             36.9258401685       30.5142496331      -66.5627954347  TIP3      11577           0.0000000000
     86247     12938  TIP3      OH2            40.1715559526       31.5046160746      -71.1718407137  TIP3      11578           0.0000000000
     86248     12938  TIP3      H1             39.7698247314       32.3423651188      -71.5144389768  TIP3      11578           0.0000000000
     86249     12938  TIP3      H2             41.0662992165       31.6339275486      -71.5348235529  TIP3      11578           0.0000000000
     86250     12939  TIP3      OH2            37.1573806611       34.4152855279      -71.7360643633  TIP3      11579           0.0000000000
     86251     12939  TIP3      H1             36.7362392341       35.2912291434      -71.8748890936  TIP3      11579           0.0000000000
     86252     12939  TIP3      H2             37.1622331456       34.4063471530      -70.7636294493  TIP3      11579           0.0000000000
     86253     12940  TIP3      OH2            39.7569999017       33.6986225625      -72.2835138430  TIP3      11580           0.0000000000
     86254     12940  TIP3      H1             39.0846592934       34.1957907843      -71.7626570888  TIP3      11580           0.0000000000
     86255     12940  TIP3      H2             39.8157972893       34.4607273356      -72.8977607726  TIP3      11580           0.0000000000
     86256     12941  TIP3      OH2            36.9392011708       33.3570087336      -74.3750118437  TIP3      11581           0.0000000000
     86257     12941  TIP3      H1             36.9257308910       33.0610232983      -73.4424730109  TIP3      11581           0.0000000000
     86258     12941  TIP3      H2             37.8305569877       33.0970686465      -74.6711610748  TIP3      11581           0.0000000000
     86259     12942  TIP3      OH2            39.0640738298       32.0808822361      -75.6657237491  TIP3      11582           0.0000000000
     86260     12942  TIP3      H1             38.8784413495       31.1656916852      -75.3806093317  TIP3      11582           0.0000000000
     86261     12942  TIP3      H2             39.8651072029       32.3083834081      -75.1832779674  TIP3      11582           0.0000000000
     86262     12943  TIP3      OH2            37.4818437240       16.8931030313      -77.7802353250  TIP3      11583           0.0000000000
     86263     12943  TIP3      H1             36.7251717985       16.6726148411      -78.3317935600  TIP3      11583           0.0000000000
     86264     12943  TIP3      H2             38.0065225585       16.0648323554      -77.8318248792  TIP3      11583           0.0000000000
     86265     12944  TIP3      OH2            36.0245299628       32.5151003964      -80.9833896288  TIP3      11584           0.0000000000
     86266     12944  TIP3      H1             35.5449040955       32.6292677390      -81.8203388765  TIP3      11584           0.0000000000
     86267     12944  TIP3      H2             36.2311666338       33.4672126261      -80.8670181817  TIP3      11584           0.0000000000
     86268     12945  TIP3      OH2            38.1106673867       18.6386839297      -83.5614148537  TIP3      11585           0.0000000000
     86269     12945  TIP3      H1             38.5973783261       18.0187057941      -84.1119338286  TIP3      11585           0.0000000000
     86270     12945  TIP3      H2             38.8062540186       18.8978489822      -82.9323910902  TIP3      11585           0.0000000000
     86271     12946  TIP3      OH2            37.4018735580       17.4314933510      -68.3669798229  TIP3      11586           0.0000000000
     86272     12946  TIP3      H1             37.0355212946       16.6504489359      -67.9045922139  TIP3      11586           0.0000000000
     86273     12946  TIP3      H2             38.3070168319       17.4092415005      -67.9877622668  TIP3      11586           0.0000000000
     86274     12947  TIP3      OH2            39.4052208524       16.8116777783      -66.7315615199  TIP3      11587           0.0000000000
     86275     12947  TIP3      H1             40.2917106361       16.4735460864      -66.9500945848  TIP3      11587           0.0000000000
     86276     12947  TIP3      H2             39.0101022338       16.0376426738      -66.2788613974  TIP3      11587           0.0000000000
     86277     12948  TIP3      OH2            38.2242775031       32.6277195319      -84.6759246759  TIP3      11588           0.0000000000
     86278     12948  TIP3      H1             37.6133638343       33.0634026393      -83.9969147243  TIP3      11588           0.0000000000
     86279     12948  TIP3      H2             38.9548312163       32.8633837718      -84.1148825897  TIP3      11588           0.0000000000
     86280     12949  TIP3      OH2           -35.2649497014       39.1422808335      -76.4148804240  TIP3      11589           0.0000000000
     86281     12949  TIP3      H1            -35.1639960701       39.9572506177      -76.9169721685  TIP3      11589           0.0000000000
     86282     12949  TIP3      H2            -35.6886298895       38.5702878381      -77.0862459154  TIP3      11589           0.0000000000
     86283     12950  TIP3      OH2           -27.9465549930       38.6117909682      -77.1994861966  TIP3      11590           0.0000000000
     86284     12950  TIP3      H1            -26.9827716107       38.6558503537      -77.0065938094  TIP3      11590           0.0000000000
     86285     12950  TIP3      H2            -27.8127039454       39.2774457088      -77.9084654695  TIP3      11590           0.0000000000
     86286     12951  TIP3      OH2           -22.5230548719       39.6254773404      -70.9254577741  TIP3      11591           0.0000000000
     86287     12951  TIP3      H1            -23.1474104741       40.3484158983      -70.9876404450  TIP3      11591           0.0000000000
     86288     12951  TIP3      H2            -22.4832581296       39.5003310047      -69.9715751557  TIP3      11591           0.0000000000
     86289     12952  TIP3      OH2           -36.4293618447       37.9661474793      -72.3800230337  TIP3      11592           0.0000000000
     86290     12952  TIP3      H1            -36.6735607012       38.5600118903      -73.1264410866  TIP3      11592           0.0000000000
     86291     12952  TIP3      H2            -37.0680864809       38.2534909473      -71.6978756280  TIP3      11592           0.0000000000
     86292     12953  TIP3      OH2           -25.6463866743       38.2284249843      -76.1099544198  TIP3      11593           0.0000000000
     86293     12953  TIP3      H1            -26.0846509751       37.6556265490      -75.4796167193  TIP3      11593           0.0000000000
     86294     12953  TIP3      H2            -25.1674787810       38.8831688021      -75.5933568050  TIP3      11593           0.0000000000
     86295     12954  TIP3      OH2           -36.7239787387       39.7619063171      -74.1939947120  TIP3      11594           0.0000000000
     86296     12954  TIP3      H1            -36.2645755268       40.6016402081      -74.0700614496  TIP3      11594           0.0000000000
     86297     12954  TIP3      H2            -36.3352152346       39.4633260060      -75.0550010619  TIP3      11594           0.0000000000
     86298     12955  TIP3      OH2           -25.4181522083       37.1681880417      -72.3390340839  TIP3      11595           0.0000000000
     86299     12955  TIP3      H1            -26.1592279702       37.7958476254      -72.4187242703  TIP3      11595           0.0000000000
     86300     12955  TIP3      H2            -24.7334121690       37.6483708237      -72.8188814392  TIP3      11595           0.0000000000
     86301     12956  TIP3      OH2           -32.4652797305       35.3592173498      -74.9075715610  TIP3      11596           0.0000000000
     86302     12956  TIP3      H1            -32.6087790085       34.3984197789      -74.9875989691  TIP3      11596           0.0000000000
     86303     12956  TIP3      H2            -33.3527349867       35.6684844052      -74.6222045062  TIP3      11596           0.0000000000
     86304     12957  TIP3      OH2           -24.1496960314       35.2951023241      -81.9455742372  TIP3      11597           0.0000000000
     86305     12957  TIP3      H1            -25.0942622886       35.3857205677      -81.6841913137  TIP3      11597           0.0000000000
     86306     12957  TIP3      H2            -23.9183260954       36.1447387957      -82.3318807112  TIP3      11597           0.0000000000
     86307     12958  TIP3      OH2           -35.0348523976       36.2497995437      -74.1268616944  TIP3      11598           0.0000000000
     86308     12958  TIP3      H1            -35.9320420713       36.1198234228      -74.5262017832  TIP3      11598           0.0000000000
     86309     12958  TIP3      H2            -35.1790295143       37.1019698993      -73.6934482157  TIP3      11598           0.0000000000
     86310     12959  TIP3      OH2           -30.4537007892       35.9288944980      -70.7944383922  TIP3      11599           0.0000000000
     86311     12959  TIP3      H1            -30.0471261171       35.4931927266      -70.0219894030  TIP3      11599           0.0000000000
     86312     12959  TIP3      H2            -31.4223137382       35.7778442623      -70.6607664420  TIP3      11599           0.0000000000
     86313     12960  TIP3      OH2           -27.1786793782       39.7420067478      -69.9137339151  TIP3      11600           0.0000000000
     86314     12960  TIP3      H1            -27.7016499023       39.5567608119      -69.0941628950  TIP3      11600           0.0000000000
     86315     12960  TIP3      H2            -27.4073945196       40.6461288533      -70.1195287743  TIP3      11600           0.0000000000
     86316     12961  TIP3      OH2           -30.9172380938       38.4504097331      -83.4382525005  TIP3      11601           0.0000000000
     86317     12961  TIP3      H1            -31.1538224875       38.4104167915      -82.4968321931  TIP3      11601           0.0000000000
     86318     12961  TIP3      H2            -31.0908704649       37.5672315237      -83.7503961714  TIP3      11601           0.0000000000
     86319     12962  TIP3      OH2           -39.5036534328       38.6592639127      -77.8311154308  TIP3      11602           0.0000000000
     86320     12962  TIP3      H1            -39.8030230587       38.5442086493      -76.8931755062  TIP3      11602           0.0000000000
     86321     12962  TIP3      H2            -40.1999498298       38.0510382688      -78.1886701694  TIP3      11602           0.0000000000
     86322     12963  TIP3      OH2           -39.0794019838       39.4103418819      -81.6213143875  TIP3      11603           0.0000000000
     86323     12963  TIP3      H1            -38.8003060356       39.9209750892      -82.4225881902  TIP3      11603           0.0000000000
     86324     12963  TIP3      H2            -39.8956507435       39.9337664628      -81.5680639921  TIP3      11603           0.0000000000
     86325     12964  TIP3      OH2           -32.4532169589       38.8790650855      -77.0471231202  TIP3      11604           0.0000000000
     86326     12964  TIP3      H1            -33.3850859618       38.8987238374      -76.7599422462  TIP3      11604           0.0000000000
     86327     12964  TIP3      H2            -31.9502471645       38.7656779608      -76.2249199104  TIP3      11604           0.0000000000
     86328     12965  TIP3      OH2           -37.4879642558       39.9684990209      -78.3381037361  TIP3      11605           0.0000000000
     86329     12965  TIP3      H1            -38.3832976385       40.2550660772      -78.6339329252  TIP3      11605           0.0000000000
     86330     12965  TIP3      H2            -37.2372759277       39.3082905432      -78.9687166727  TIP3      11605           0.0000000000
     86331     12966  TIP3      OH2           -34.0147780430      -41.0225345328      -80.6629550650  TIP3      11606           0.0000000000
     86332     12966  TIP3      H1            -33.1207885427      -40.8221226492      -80.3120084830  TIP3      11606           0.0000000000
     86333     12966  TIP3      H2            -34.2200110769      -40.2552737740      -81.1989876725  TIP3      11606           0.0000000000
     86334     12967  TIP3      OH2           -28.0649724010       38.0385739651      -73.7949006394  TIP3      11607           0.0000000000
     86335     12967  TIP3      H1            -28.7590896742       38.1995244940      -73.1244584693  TIP3      11607           0.0000000000
     86336     12967  TIP3      H2            -28.5886448707       37.8987064164      -74.6017815354  TIP3      11607           0.0000000000
     86337     12968  TIP3      OH2           -36.0530148529       37.7368046809      -78.7387690735  TIP3      11608           0.0000000000
     86338     12968  TIP3      H1            -36.2773705563       36.7998704281      -78.7887164601  TIP3      11608           0.0000000000
     86339     12968  TIP3      H2            -35.2704681832       37.7688294082      -79.2970396307  TIP3      11608           0.0000000000
     86340     12969  TIP3      OH2           -32.5679905262       39.8487823431      -72.7516282277  TIP3      11609           0.0000000000
     86341     12969  TIP3      H1            -33.2877163133       40.4789411140      -72.6862036360  TIP3      11609           0.0000000000
     86342     12969  TIP3      H2            -31.9854756410       40.2722596997      -72.0886909281  TIP3      11609           0.0000000000
     86343     12970  TIP3      OH2           -28.1421008256       38.8853193712      -82.3765689718  TIP3      11610           0.0000000000
     86344     12970  TIP3      H1            -28.9432976023       39.0358066673      -82.9125565627  TIP3      11610           0.0000000000
     86345     12970  TIP3      H2            -27.6857608840       39.7386331982      -82.5424118620  TIP3      11610           0.0000000000
     86346     12971  TIP3      OH2           -38.0130408814       38.8351103040      -70.3516078170  TIP3      11611           0.0000000000
     86347     12971  TIP3      H1            -38.9487904532       39.1267097513      -70.4206436683  TIP3      11611           0.0000000000
     86348     12971  TIP3      H2            -38.0664369439       37.9527119356      -69.9627247694  TIP3      11611           0.0000000000
     86349     12972  TIP3      OH2           -29.5032602083       38.5061721468      -71.5008667915  TIP3      11612           0.0000000000
     86350     12972  TIP3      H1            -28.7915891704       38.5454415337      -70.8492301557  TIP3      11612           0.0000000000
     86351     12972  TIP3      H2            -29.8737001957       37.6241402122      -71.2945723593  TIP3      11612           0.0000000000
     86352     12973  TIP3      OH2           -29.2048881403       38.2207890757      -80.2745000407  TIP3      11613           0.0000000000
     86353     12973  TIP3      H1            -28.7199492751       38.4218863436      -81.1163274410  TIP3      11613           0.0000000000
     86354     12973  TIP3      H2            -28.3683975928       38.4297376601      -79.8425212016  TIP3      11613           0.0000000000
     86355     12974  TIP3      OH2           -31.4794670687       39.8618381184      -79.5930338775  TIP3      11614           0.0000000000
     86356     12974  TIP3      H1            -30.7227135398       40.4608352008      -79.5088602854  TIP3      11614           0.0000000000
     86357     12974  TIP3      H2            -31.7674266232       39.7154591825      -78.6665493316  TIP3      11614           0.0000000000
     86358     12975  TIP3      OH2           -31.1500627097      -41.2490333372      -69.9270949584  TIP3      11615           0.0000000000
     86359     12975  TIP3      H1            -31.0475580636      -40.3082539863      -69.6613435939  TIP3      11615           0.0000000000
     86360     12975  TIP3      H2            -30.2964349819      -41.4446801294      -70.3473537941  TIP3      11615           0.0000000000
     86361     12976  TIP3      OH2           -30.6703921084       36.8822658322      -78.6168670382  TIP3      11616           0.0000000000
     86362     12976  TIP3      H1            -30.9578505693       37.5612295766      -77.9719217629  TIP3      11616           0.0000000000
     86363     12976  TIP3      H2            -30.0159174442       37.4163086453      -79.1401838466  TIP3      11616           0.0000000000
     86364     12977  TIP3      OH2           -34.9428431698       37.9984494833      -81.9326999445  TIP3      11617           0.0000000000
     86365     12977  TIP3      H1            -35.0322090100       38.9028580158      -81.5794186713  TIP3      11617           0.0000000000
     86366     12977  TIP3      H2            -34.0250330017       37.7567649945      -81.7109378754  TIP3      11617           0.0000000000
     86367     12978  TIP3      OH2           -24.7446850493       38.7188465921      -69.5449220621  TIP3      11618           0.0000000000
     86368     12978  TIP3      H1            -25.6835193757       39.0067941310      -69.6473352161  TIP3      11618           0.0000000000
     86369     12978  TIP3      H2            -24.4498255573       38.7211129672      -70.4646229759  TIP3      11618           0.0000000000
     86370     12979  TIP3      OH2           -37.2949086302       35.8705039663      -75.1539355639  TIP3      11619           0.0000000000
     86371     12979  TIP3      H1            -37.7110259169       35.8934024394      -76.0318836036  TIP3      11619           0.0000000000
     86372     12979  TIP3      H2            -37.8678471437       35.1686286718      -74.7815647808  TIP3      11619           0.0000000000
     86373     12980  TIP3      OH2           -34.7147636325       39.6648978007      -68.9030032530  TIP3      11620           0.0000000000
     86374     12980  TIP3      H1            -34.2235500869       39.0134288470      -69.4452391500  TIP3      11620           0.0000000000
     86375     12980  TIP3      H2            -34.3744378418       40.4895585332      -69.2714513678  TIP3      11620           0.0000000000
     86376     12981  TIP3      OH2           -33.9309567214       38.1831196536      -71.2728044450  TIP3      11621           0.0000000000
     86377     12981  TIP3      H1            -33.3703062669       38.6121088309      -71.9582784140  TIP3      11621           0.0000000000
     86378     12981  TIP3      H2            -34.8023811905       38.0848549856      -71.7141859682  TIP3      11621           0.0000000000
     86379     12982  TIP3      OH2           -33.1101405608       35.6262365216      -70.8653443888  TIP3      11622           0.0000000000
     86380     12982  TIP3      H1            -33.3066205886       36.5839170396      -70.9693352039  TIP3      11622           0.0000000000
     86381     12982  TIP3      H2            -33.8542977107       35.2505704982      -71.3745192041  TIP3      11622           0.0000000000
     86382     12983  TIP3      OH2           -31.6824290260       39.4959075641      -67.1313010313  TIP3      11623           0.0000000000
     86383     12983  TIP3      H1            -32.0396196202       39.6815386034      -66.2407211416  TIP3      11623           0.0000000000
     86384     12983  TIP3      H2            -32.5017551678       39.6040053345      -67.6232580353  TIP3      11623           0.0000000000
     86385     12984  TIP3      OH2           -29.1027350487       39.0396683716      -68.2262503590  TIP3      11624           0.0000000000
     86386     12984  TIP3      H1            -30.0586809449       39.1078402786      -68.0308314662  TIP3      11624           0.0000000000
     86387     12984  TIP3      H2            -28.8075265386       38.4791602058      -67.4904029285  TIP3      11624           0.0000000000
     86388     12985  TIP3      OH2           -27.5443323218       37.6959372520      -66.2417754159  TIP3      11625           0.0000000000
     86389     12985  TIP3      H1            -27.6071169870       36.7215045442      -66.2262579971  TIP3      11625           0.0000000000
     86390     12985  TIP3      H2            -27.7886137518       37.9871091006      -65.3373787646  TIP3      11625           0.0000000000
     86391     12986  TIP3      OH2           -37.6653880892       39.0143750224      -67.1124263748  TIP3      11626           0.0000000000
     86392     12986  TIP3      H1            -37.5121710215       38.2628040533      -67.7297853229  TIP3      11626           0.0000000000
     86393     12986  TIP3      H2            -37.8297901680       38.4833905393      -66.3037417714  TIP3      11626           0.0000000000
     86394     12987  TIP3      OH2           -32.9006340076       34.9780216713      -68.1830602821  TIP3      11627           0.0000000000
     86395     12987  TIP3      H1            -32.2184872144       34.2760995796      -68.1959544387  TIP3      11627           0.0000000000
     86396     12987  TIP3      H2            -32.9880995456       35.1531935135      -69.1421092465  TIP3      11627           0.0000000000
     86397     12988  TIP3      OH2           -32.5786245057       36.5741973114      -66.0613207585  TIP3      11628           0.0000000000
     86398     12988  TIP3      H1            -32.6966511000       36.1111293691      -66.9266915913  TIP3      11628           0.0000000000
     86399     12988  TIP3      H2            -33.1016277260       37.3909885273      -66.1919488026  TIP3      11628           0.0000000000
     86400     12989  TIP3      OH2           -25.2141998496       38.5735516904      -83.9090641862  TIP3      11629           0.0000000000
     86401     12989  TIP3      H1            -24.3000006511       38.2316581615      -83.9808896385  TIP3      11629           0.0000000000
     86402     12989  TIP3      H2            -25.7236827737       38.0193481610      -84.4897413706  TIP3      11629           0.0000000000
     86403     12990  TIP3      OH2           -23.6855978409       41.1445377720      -80.6579072547  TIP3      11630           0.0000000000
     86404     12990  TIP3      H1            -24.2783177281       40.9291803418      -79.8798754742  TIP3      11630           0.0000000000
     86405     12990  TIP3      H2            -23.6002853501       40.2199662422      -80.5232069690  TIP3      11630           0.0000000000
     86406     12991  TIP3      OH2           -23.6812740578      -39.1368990908      -73.6104115878  TIP3      11631           0.0000000000
     86407     12991  TIP3      H1            -23.4611671590      -39.7950761135      -74.3173817200  TIP3      11631           0.0000000000
     86408     12991  TIP3      H2            -24.4615989662      -39.7381274888      -73.4287535039  TIP3      11631           0.0000000000
     86409     12992  TIP3      OH2           -40.2256088556       39.9741960099      -67.9298990447  TIP3      11632           0.0000000000
     86410     12992  TIP3      H1            -39.2986048061       39.7244494163      -67.7990718372  TIP3      11632           0.0000000000
     86411     12992  TIP3      H2            -40.6937486720       39.1689301917      -67.6462872018  TIP3      11632           0.0000000000
     86412     12993  TIP3      OH2           -22.2277635888       35.5008808692      -66.1425411228  TIP3      11633           0.0000000000
     86413     12993  TIP3      H1            -21.8595442176       34.8238522119      -66.7205217515  TIP3      11633           0.0000000000
     86414     12993  TIP3      H2            -22.1085385328       36.3353668951      -66.6298126886  TIP3      11633           0.0000000000
     86415     12994  TIP3      OH2           -24.8478828319       36.2764668840      -79.1669854402  TIP3      11634           0.0000000000
     86416     12994  TIP3      H1            -24.3212452229       36.9728716857      -78.7226595456  TIP3      11634           0.0000000000
     86417     12994  TIP3      H2            -25.1491810048       36.7415365515      -79.9665809831  TIP3      11634           0.0000000000
     86418     12995  TIP3      OH2           -38.3319975807       38.3759988004      -75.5158534225  TIP3      11635           0.0000000000
     86419     12995  TIP3      H1            -38.4529861256       37.5728208731      -74.9692056922  TIP3      11635           0.0000000000
     86420     12995  TIP3      H2            -38.4648512992       39.0248664283      -74.7921538763  TIP3      11635           0.0000000000
     86421     12996  TIP3      OH2           -22.7235987825       37.6046850149      -67.7921837230  TIP3      11636           0.0000000000
     86422     12996  TIP3      H1            -23.6622505598       37.9027357351      -67.7918852131  TIP3      11636           0.0000000000
     86423     12996  TIP3      H2            -22.6778020916       37.0689540036      -68.5894178682  TIP3      11636           0.0000000000
     86424     12997  TIP3      OH2           -22.7051482376       37.5559978865      -83.1818095137  TIP3      11637           0.0000000000
     86425     12997  TIP3      H1            -22.2422842359       36.8203606365      -83.5877627006  TIP3      11637           0.0000000000
     86426     12997  TIP3      H2            -21.9734941547       38.1683902817      -82.9707879306  TIP3      11637           0.0000000000
     86427     12998  TIP3      OH2           -39.9730104552       37.5334911860      -79.8869776014  TIP3      11638           0.0000000000
     86428     12998  TIP3      H1            -40.9292813100       37.6181000047      -80.1382993009  TIP3      11638           0.0000000000
     86429     12998  TIP3      H2            -39.7079074222       38.0944507501      -80.6429653539  TIP3      11638           0.0000000000
     86430     12999  TIP3      OH2            40.9844387415       35.1784339025      -70.7028282662  TIP3      11639           0.0000000000
     86431     12999  TIP3      H1             40.2858699944       35.7932428336      -70.3888216216  TIP3      11639           0.0000000000
     86432     12999  TIP3      H2             40.8240103819       35.7611119987      -71.4835837549  TIP3      11639           0.0000000000
     86433     13000  TIP3      OH2           -30.3496139921       37.1240630591      -75.6862649772  TIP3      11640           0.0000000000
     86434     13000  TIP3      H1            -30.9672996352       36.4538014330      -75.3503455863  TIP3      11640           0.0000000000
     86435     13000  TIP3      H2            -29.7056184073       36.6047368632      -76.1961390111  TIP3      11640           0.0000000000
     86436     13001  TIP3      OH2           -23.3894900083       36.3551336841      -77.1345223216  TIP3      11641           0.0000000000
     86437     13001  TIP3      H1            -22.8076816428       35.8523311070      -77.7109726330  TIP3      11641           0.0000000000
     86438     13001  TIP3      H2            -22.9592084282       37.2277382685      -77.1468787530  TIP3      11641           0.0000000000
     86439     13002  TIP3      OH2           -37.9764705279       35.4910536959      -77.6550358726  TIP3      11642           0.0000000000
     86440     13002  TIP3      H1            -38.7525240178       35.3175586709      -78.2405961314  TIP3      11642           0.0000000000
     86441     13002  TIP3      H2            -37.3990200600       34.7133853854      -77.8461923410  TIP3      11642           0.0000000000
     86442     13003  TIP3      OH2           -38.9797159861       35.5008631169      -81.8833758253  TIP3      11643           0.0000000000
     86443     13003  TIP3      H1            -38.6773701264       36.1233503819      -82.6043518540  TIP3      11643           0.0000000000
     86444     13003  TIP3      H2            -39.7319914506       36.0237591102      -81.5669492154  TIP3      11643           0.0000000000
     86445     13004  TIP3      OH2           -33.4514524903       35.7253028568      -77.9826808039  TIP3      11644           0.0000000000
     86446     13004  TIP3      H1            -32.5240333816       36.0163937083      -78.0714815972  TIP3      11644           0.0000000000
     86447     13004  TIP3      H2            -33.4647488586       35.4660551638      -77.0629211188  TIP3      11644           0.0000000000
     86448     13005  TIP3      OH2           -27.8371184066       35.7010281183      -76.3787594139  TIP3      11645           0.0000000000
     86449     13005  TIP3      H1            -27.7448283874       35.7931451143      -77.3288747412  TIP3      11645           0.0000000000
     86450     13005  TIP3      H2            -28.1057337833       34.7710015241      -76.2472415496  TIP3      11645           0.0000000000
     86451     13006  TIP3      OH2           -26.6060060527       35.6386792730      -80.9799757887  TIP3      11646           0.0000000000
     86452     13006  TIP3      H1            -27.2245771353       36.3569680665      -80.8364707842  TIP3      11646           0.0000000000
     86453     13006  TIP3      H2            -26.9419327437       34.8587325600      -80.4812988563  TIP3      11646           0.0000000000
     86454     13007  TIP3      OH2           -37.1234147135       37.4627657405      -83.4894536807  TIP3      11647           0.0000000000
     86455     13007  TIP3      H1            -36.7308809971       36.8586356003      -84.1221213520  TIP3      11647           0.0000000000
     86456     13007  TIP3      H2            -36.4553680624       37.8025247726      -82.9059991241  TIP3      11647           0.0000000000
     86457     13008  TIP3      OH2           -32.2666468153       37.7152574524      -81.1336598121  TIP3      11648           0.0000000000
     86458     13008  TIP3      H1            -32.0132468058       37.1280244907      -80.4028058523  TIP3      11648           0.0000000000
     86459     13008  TIP3      H2            -32.2477413511       38.5752615840      -80.6530644822  TIP3      11648           0.0000000000
     86460     13009  TIP3      OH2           -38.0771297640       36.3605886551      -68.2715880981  TIP3      11649           0.0000000000
     86461     13009  TIP3      H1            -38.4090215516       35.5019959477      -67.9381785253  TIP3      11649           0.0000000000
     86462     13009  TIP3      H2            -37.1402731083       36.2643037830      -67.9676468787  TIP3      11649           0.0000000000
     86463     13010  TIP3      OH2           -36.0097168490       35.6923999071      -66.7090371419  TIP3      11650           0.0000000000
     86464     13010  TIP3      H1            -35.1329385884       35.3251422973      -66.9350247283  TIP3      11650           0.0000000000
     86465     13010  TIP3      H2            -36.4102226494       34.9042045297      -66.2853842054  TIP3      11650           0.0000000000
     86466     13011  TIP3      OH2           -27.6125476436       34.9757152902      -66.5582507555  TIP3      11651           0.0000000000
     86467     13011  TIP3      H1            -27.5194599835       34.5002769557      -65.7090722012  TIP3      11651           0.0000000000
     86468     13011  TIP3      H2            -26.6951088862       34.9457318285      -66.8880188434  TIP3      11651           0.0000000000
     86469     13012  TIP3      OH2           -16.4537698336       39.1318398617      -76.4014438150  TIP3      11652           0.0000000000
     86470     13012  TIP3      H1            -16.3265763434       39.9458910155      -76.8987587421  TIP3      11652           0.0000000000
     86471     13012  TIP3      H2            -16.8311761219       38.5566069097      -77.1048711391  TIP3      11652           0.0000000000
     86472     13013  TIP3      OH2            -8.7321155288       39.2036520466      -78.0821680630  TIP3      11653           0.0000000000
     86473     13013  TIP3      H1             -8.0832989555       38.9187208898      -77.3973545846  TIP3      11653           0.0000000000
     86474     13013  TIP3      H2             -8.1237042182       39.7635767526      -78.5938942573  TIP3      11653           0.0000000000
     86475     13014  TIP3      OH2            -3.6423124284       39.5484483873      -70.9497086239  TIP3      11654           0.0000000000
     86476     13014  TIP3      H1             -4.2143503567       40.2754253124      -71.1798366432  TIP3      11654           0.0000000000
     86477     13014  TIP3      H2             -3.6462134569       39.5180384486      -69.9826956738  TIP3      11654           0.0000000000
     86478     13015  TIP3      OH2           -17.5548533498       37.9899958347      -72.3733763586  TIP3      11655           0.0000000000
     86479     13015  TIP3      H1            -17.8411035977       38.5590849101      -73.1264670923  TIP3      11655           0.0000000000
     86480     13015  TIP3      H2            -18.2423365567       38.2550467168      -71.7101601145  TIP3      11655           0.0000000000
     86481     13016  TIP3      OH2            -6.8848645958       38.4644841895      -76.1047082151  TIP3      11656           0.0000000000
     86482     13016  TIP3      H1             -7.1862168816       37.7795911225      -75.5056283189  TIP3      11656           0.0000000000
     86483     13016  TIP3      H2             -6.3186026804       39.0127633600      -75.5384488843  TIP3      11656           0.0000000000
     86484     13017  TIP3      OH2           -17.8985476711       39.7318053327      -74.2857561572  TIP3      11657           0.0000000000
     86485     13017  TIP3      H1            -17.4142177910       40.5528123445      -74.0833613724  TIP3      11657           0.0000000000
     86486     13017  TIP3      H2            -17.4340819619       39.4377124073      -75.1042145395  TIP3      11657           0.0000000000
     86487     13018  TIP3      OH2           -13.5556609462       35.3604078370      -74.9196744503  TIP3      11658           0.0000000000
     86488     13018  TIP3      H1            -13.6945703849       34.4069473412      -74.9668021797  TIP3      11658           0.0000000000
     86489     13018  TIP3      H2            -14.4282409539       35.6747606627      -74.6083851950  TIP3      11658           0.0000000000
     86490     13019  TIP3      OH2           -16.2081372002       36.2622694399      -74.1412201073  TIP3      11659           0.0000000000
     86491     13019  TIP3      H1            -17.1065293396       36.1346930891      -74.5245213646  TIP3      11659           0.0000000000
     86492     13019  TIP3      H2            -16.3589152602       37.0958959421      -73.6814257937  TIP3      11659           0.0000000000
     86493     13020  TIP3      OH2           -11.5679948734       35.9388168766      -70.7802645268  TIP3      11660           0.0000000000
     86494     13020  TIP3      H1            -11.1853277895       35.4788839724      -70.0124741420  TIP3      11660           0.0000000000
     86495     13020  TIP3      H2            -12.5375969687       35.7846617064      -70.6642067330  TIP3      11660           0.0000000000
     86496     13021  TIP3      OH2            -8.2686819420       39.7497161597      -69.9117174603  TIP3      11661           0.0000000000
     86497     13021  TIP3      H1             -8.8305233150       39.5720679329      -69.1224129297  TIP3      11661           0.0000000000
     86498     13021  TIP3      H2             -8.5359399722       40.6301476266      -70.1611366892  TIP3      11661           0.0000000000
     86499     13022  TIP3      OH2           -11.9553052115       38.4779098825      -83.4620289691  TIP3      11662           0.0000000000
     86500     13022  TIP3      H1            -12.2734909958       38.4271245517      -82.5465060521  TIP3      11662           0.0000000000
     86501     13022  TIP3      H2            -12.2392094299       37.6117155580      -83.7741745023  TIP3      11662           0.0000000000
     86502     13023  TIP3      OH2           -15.1273052983       38.8230014467      -84.4151572112  TIP3      11663           0.0000000000
     86503     13023  TIP3      H1            -15.5764874934       38.4504667599      -83.6292149818  TIP3      11663           0.0000000000
     86504     13023  TIP3      H2            -15.8155671648       39.3151548662      -84.8710052429  TIP3      11663           0.0000000000
     86505     13024  TIP3      OH2           -21.8695968357       38.4359425877      -77.3724451973  TIP3      11664           0.0000000000
     86506     13024  TIP3      H1            -21.2248230232       38.5408157040      -76.6429950512  TIP3      11664           0.0000000000
     86507     13024  TIP3      H2            -21.3198876887       38.1640758568      -78.1304785714  TIP3      11664           0.0000000000
     86508     13025  TIP3      OH2           -20.6738020427       39.2173716578      -81.9322987744  TIP3      11665           0.0000000000
     86509     13025  TIP3      H1            -20.1063433254       39.8786292035      -82.3902086574  TIP3      11665           0.0000000000
     86510     13025  TIP3      H2            -21.2651808033       39.8959242959      -81.5926498746  TIP3      11665           0.0000000000
     86511     13026  TIP3      OH2           -13.6167755473       38.9141406308      -77.0262098033  TIP3      11666           0.0000000000
     86512     13026  TIP3      H1            -14.5460485171       38.8921288445      -76.7414915339  TIP3      11666           0.0000000000
     86513     13026  TIP3      H2            -13.1019471797       38.7540861010      -76.2187021119  TIP3      11666           0.0000000000
     86514     13027  TIP3      OH2           -18.8996388458       39.8389965236      -78.2052562272  TIP3      11667           0.0000000000
     86515     13027  TIP3      H1            -19.5864236640       40.2818799378      -78.7137628315  TIP3      11667           0.0000000000
     86516     13027  TIP3      H2            -18.4178159753       39.3014562812      -78.8597355553  TIP3      11667           0.0000000000
     86517     13028  TIP3      OH2           -15.1456146948      -40.9183038489      -80.5210704335  TIP3      11668           0.0000000000
     86518     13028  TIP3      H1            -14.1919053692      -40.8193149089      -80.4300524975  TIP3      11668           0.0000000000
     86519     13028  TIP3      H2            -15.3750189540      -40.3163275495      -81.2403574458  TIP3      11668           0.0000000000
     86520     13029  TIP3      OH2            -9.1925550525       38.0007489635      -73.8164604474  TIP3      11669           0.0000000000
     86521     13029  TIP3      H1             -9.8627307132       38.1975298334      -73.1288603164  TIP3      11669           0.0000000000
     86522     13029  TIP3      H2             -9.7454691766       37.9269812780      -74.6056541900  TIP3      11669           0.0000000000
     86523     13030  TIP3      OH2           -17.2510741764       37.7685497190      -78.6735674325  TIP3      11670           0.0000000000
     86524     13030  TIP3      H1            -17.5917950324       36.8763938301      -78.7953586108  TIP3      11670           0.0000000000
     86525     13030  TIP3      H2            -16.5232588576       37.7323137019      -79.3040883267  TIP3      11670           0.0000000000
     86526     13031  TIP3      OH2           -13.7060371791       39.8445618618      -72.7229600124  TIP3      11671           0.0000000000
     86527     13031  TIP3      H1            -14.4321249503       40.4653362771      -72.6922158847  TIP3      11671           0.0000000000
     86528     13031  TIP3      H2            -13.1145469328       40.2886819130      -72.0702760962  TIP3      11671           0.0000000000
     86529     13032  TIP3      OH2            -9.2249042338       39.0483766267      -82.8260205896  TIP3      11672           0.0000000000
     86530     13032  TIP3      H1            -10.1693565943       39.1200273885      -83.0379176811  TIP3      11672           0.0000000000
     86531     13032  TIP3      H2             -8.9550970088       39.9302201343      -82.5677345022  TIP3      11672           0.0000000000
     86532     13033  TIP3      OH2           -19.3617192927       38.7053553130      -70.4009960819  TIP3      11673           0.0000000000
     86533     13033  TIP3      H1            -20.2476414263       39.1058757102      -70.4742949596  TIP3      11673           0.0000000000
     86534     13033  TIP3      H2            -19.5193509254       37.8776553786      -69.9595723272  TIP3      11673           0.0000000000
     86535     13034  TIP3      OH2           -10.6766696123       38.4976107081      -71.4951055819  TIP3      11674           0.0000000000
     86536     13034  TIP3      H1             -9.9446724923       38.5831545670      -70.8710328158  TIP3      11674           0.0000000000
     86537     13034  TIP3      H2            -11.0153209749       37.6089602134      -71.2898387215  TIP3      11674           0.0000000000
     86538     13035  TIP3      OH2            -9.9179547013       38.1523418032      -80.3709386812  TIP3      11675           0.0000000000
     86539     13035  TIP3      H1             -9.5792552950       38.5091492193      -81.2149886917  TIP3      11675           0.0000000000
     86540     13035  TIP3      H2             -9.2728909798       38.5007725695      -79.7244188358  TIP3      11675           0.0000000000
     86541     13036  TIP3      OH2           -12.4972086062       39.1241640141      -79.4029875008  TIP3      11676           0.0000000000
     86542     13036  TIP3      H1            -11.9214062441       39.8866864499      -79.6540214836  TIP3      11676           0.0000000000
     86543     13036  TIP3      H2            -12.9333180849       39.3991002880      -78.5666586839  TIP3      11676           0.0000000000
     86544     13037  TIP3      OH2           -12.0556641673      -40.6483260953      -70.3003151076  TIP3      11677           0.0000000000
     86545     13037  TIP3      H1            -11.9325231401      -40.0260783668      -69.5775047931  TIP3      11677           0.0000000000
     86546     13037  TIP3      H2            -11.3668065386      -41.3179291805      -70.2542432266  TIP3      11677           0.0000000000
     86547     13038  TIP3      OH2           -11.7191038950       36.8377109604      -78.5757999306  TIP3      11678           0.0000000000
     86548     13038  TIP3      H1            -12.0924714738       37.5459389942      -78.0112432217  TIP3      11678           0.0000000000
     86549     13038  TIP3      H2            -11.1191524495       37.4076214488      -79.1273472470  TIP3      11678           0.0000000000
     86550     13039  TIP3      OH2           -16.0639869565       38.0173712290      -81.9780271568  TIP3      11679           0.0000000000
     86551     13039  TIP3      H1            -16.1791243275       38.8931038898      -81.5928699819  TIP3      11679           0.0000000000
     86552     13039  TIP3      H2            -15.1760473331       37.7412764764      -81.6969786451  TIP3      11679           0.0000000000
     86553     13040  TIP3      OH2            -5.8952291467       38.6968006884      -69.5679724815  TIP3      11680           0.0000000000
     86554     13040  TIP3      H1             -6.8234021860       39.0305805734      -69.6436691166  TIP3      11680           0.0000000000
     86555     13040  TIP3      H2             -5.5804282283       38.8026594382      -70.4633827711  TIP3      11680           0.0000000000
     86556     13041  TIP3      OH2           -18.6896910166       35.8515184506      -75.0765261956  TIP3      11681           0.0000000000
     86557     13041  TIP3      H1            -18.9796878773       35.9230289922      -75.9980374064  TIP3      11681           0.0000000000
     86558     13041  TIP3      H2            -19.1987121245       35.0781929976      -74.8040664749  TIP3      11681           0.0000000000
     86559     13042  TIP3      OH2           -15.8337868235       39.6591407624      -68.8981641370  TIP3      11682           0.0000000000
     86560     13042  TIP3      H1            -15.3559202035       39.0201833179      -69.4592196433  TIP3      11682           0.0000000000
     86561     13042  TIP3      H2            -15.5227128211       40.5033049248      -69.2670273460  TIP3      11682           0.0000000000
     86562     13043  TIP3      OH2           -15.0804483832       38.1711261568      -71.2669763945  TIP3      11683           0.0000000000
     86563     13043  TIP3      H1            -14.5093205370       38.6129262524      -71.9474628763  TIP3      11683           0.0000000000
     86564     13043  TIP3      H2            -15.9454934480       38.0838014612      -71.7185336588  TIP3      11683           0.0000000000
     86565     13044  TIP3      OH2           -14.2830275931       35.6461480087      -70.8237998137  TIP3      11684           0.0000000000
     86566     13044  TIP3      H1            -14.4362051385       36.6054918795      -70.9646227753  TIP3      11684           0.0000000000
     86567     13044  TIP3      H2            -14.9869814277       35.2386921149      -71.3688559985  TIP3      11684           0.0000000000
     86568     13045  TIP3      OH2           -12.8346850314       39.4784320855      -67.1460270681  TIP3      11685           0.0000000000
     86569     13045  TIP3      H1            -13.1705864834       39.6861517345      -66.2501911219  TIP3      11685           0.0000000000
     86570     13045  TIP3      H2            -13.6658542037       39.6029862538      -67.6136225820  TIP3      11685           0.0000000000
     86571     13046  TIP3      OH2           -10.2269984959       38.9924868761      -68.2622107649  TIP3      11686           0.0000000000
     86572     13046  TIP3      H1            -11.1720069194       39.1176860701      -68.0397067821  TIP3      11686           0.0000000000
     86573     13046  TIP3      H2             -9.9350698390       38.4773254967      -67.4916564147  TIP3      11686           0.0000000000
     86574     13047  TIP3      OH2            -8.7385734077       37.7174202834      -66.2545553196  TIP3      11687           0.0000000000
     86575     13047  TIP3      H1             -8.7473526801       36.7371832738      -66.2346834376  TIP3      11687           0.0000000000
     86576     13047  TIP3      H2             -8.9385594471       37.9928308738      -65.3335486348  TIP3      11687           0.0000000000
     86577     13048  TIP3      OH2           -18.8869352205       38.9717308335      -67.1501635457  TIP3      11688           0.0000000000
     86578     13048  TIP3      H1            -18.5974611468       38.2534840197      -67.7386808100  TIP3      11688           0.0000000000
     86579     13048  TIP3      H2            -18.9501279803       38.4932437702      -66.2966837954  TIP3      11688           0.0000000000
     86580     13049  TIP3      OH2           -14.0464717887       34.9934666862      -68.1962152108  TIP3      11689           0.0000000000
     86581     13049  TIP3      H1            -13.3611560122       34.2951983953      -68.2142856965  TIP3      11689           0.0000000000
     86582     13049  TIP3      H2            -14.1368205769       35.1469875166      -69.1577499449  TIP3      11689           0.0000000000
     86583     13050  TIP3      OH2           -13.7189684797       36.5796105182      -66.0778531057  TIP3      11690           0.0000000000
     86584     13050  TIP3      H1            -13.8568454872       36.0984897734      -66.9282817725  TIP3      11690           0.0000000000
     86585     13050  TIP3      H2            -14.2520753448       37.3912496234      -66.1981789841  TIP3      11690           0.0000000000
     86586     13051  TIP3      OH2            -6.3694262778       40.1808700296      -79.6628266127  TIP3      11691           0.0000000000
     86587     13051  TIP3      H1             -6.0454911842       39.2545484024      -79.5787617440  TIP3      11691           0.0000000000
     86588     13051  TIP3      H2             -5.5978153251       40.5556235430      -80.1075536205  TIP3      11691           0.0000000000
     86589     13052  TIP3      OH2            -5.5451781228      -41.0218136799      -73.8042215803  TIP3      11692           0.0000000000
     86590     13052  TIP3      H1             -4.9048575052      -40.4671503180      -74.2353838252  TIP3      11692           0.0000000000
     86591     13052  TIP3      H2             -6.0067022318      -40.4365882846      -73.2132311905  TIP3      11692           0.0000000000
     86592     13053  TIP3      OH2           -21.3827252118       39.9185339293      -68.0347302418  TIP3      11693           0.0000000000
     86593     13053  TIP3      H1            -20.4440823484       39.7692825243      -67.7976898001  TIP3      11693           0.0000000000
     86594     13053  TIP3      H2            -21.8377708183       39.1461333195      -67.6370045613  TIP3      11693           0.0000000000
     86595     13054  TIP3      OH2            -3.3210193993       35.5212516444      -66.1233318731  TIP3      11694           0.0000000000
     86596     13054  TIP3      H1             -3.0337456007       34.8432349112      -66.7426431662  TIP3      11694           0.0000000000
     86597     13054  TIP3      H2             -3.2565205317       36.3430460366      -66.6397457563  TIP3      11694           0.0000000000
     86598     13055  TIP3      OH2            -5.6926378395       37.5006250657      -79.6399436699  TIP3      11695           0.0000000000
     86599     13055  TIP3      H1             -5.4630318747       37.0098213634      -78.8467849585  TIP3      11695           0.0000000000
     86600     13055  TIP3      H2             -6.2613732726       36.8655861509      -80.1235961754  TIP3      11695           0.0000000000
     86601     13056  TIP3      OH2           -20.1211969656       38.2546378008      -75.1454564367  TIP3      11696           0.0000000000
     86602     13056  TIP3      H1            -19.7052098236       37.4460899605      -74.7968221190  TIP3      11696           0.0000000000
     86603     13056  TIP3      H2            -19.6648020245       38.9723314061      -74.6811504443  TIP3      11696           0.0000000000
     86604     13057  TIP3      OH2            -3.8439769190       37.6082774542      -67.7848901556  TIP3      11697           0.0000000000
     86605     13057  TIP3      H1             -4.7860011881       37.9058944196      -67.7760983198  TIP3      11697           0.0000000000
     86606     13057  TIP3      H2             -3.8223003076       37.0414740530      -68.5654524621  TIP3      11697           0.0000000000
     86607     13058  TIP3      OH2           -21.4838092729       37.6703513431      -79.8712004225  TIP3      11698           0.0000000000
     86608     13058  TIP3      H1            -22.4100994796       37.6397745374      -80.1372446503  TIP3      11698           0.0000000000
     86609     13058  TIP3      H2            -21.0617750125       37.9912567120      -80.6855400707  TIP3      11698           0.0000000000
     86610     13059  TIP3      OH2           -11.4457136217       37.1278344355      -75.6621914187  TIP3      11699           0.0000000000
     86611     13059  TIP3      H1            -12.0972856129       36.4689818170      -75.3635276313  TIP3      11699           0.0000000000
     86612     13059  TIP3      H2            -10.8530123542       36.5954732271      -76.2144701322  TIP3      11699           0.0000000000
     86613     13060  TIP3      OH2           -14.5731429320       35.7629497732      -77.9800503631  TIP3      11700           0.0000000000
     86614     13060  TIP3      H1            -13.6408015888       36.0162337948      -78.0708980689  TIP3      11700           0.0000000000
     86615     13060  TIP3      H2            -14.6109107437       35.4389579789      -77.0799225792  TIP3      11700           0.0000000000
     86616     13061  TIP3      OH2            -8.8761201965       35.6905508498      -76.3571599691  TIP3      11701           0.0000000000
     86617     13061  TIP3      H1             -8.8920344695       35.8141261903      -77.3119331354  TIP3      11701           0.0000000000
     86618     13061  TIP3      H2             -9.2734904988       34.8044941307      -76.2413626929  TIP3      11701           0.0000000000
     86619     13062  TIP3      OH2            -7.5862126645       35.7611425163      -80.6126350135  TIP3      11702           0.0000000000
     86620     13062  TIP3      H1             -8.2894618810       36.3570095930      -80.8887908571  TIP3      11702           0.0000000000
     86621     13062  TIP3      H2             -8.0398665092       34.9051621463      -80.5140214349  TIP3      11702           0.0000000000
     86622     13063  TIP3      OH2           -13.4610135537       37.6341451750      -81.2095899292  TIP3      11703           0.0000000000
     86623     13063  TIP3      H1            -13.1928779086       37.0913409576      -80.4533277245  TIP3      11703           0.0000000000
     86624     13063  TIP3      H2            -13.3714044399       38.4759821670      -80.7076952133  TIP3      11703           0.0000000000
     86625     13064  TIP3      OH2           -17.1852841231       35.6966720904      -66.6809936210  TIP3      11704           0.0000000000
     86626     13064  TIP3      H1            -16.3167252340       35.3372354111      -66.9472962064  TIP3      11704           0.0000000000
     86627     13064  TIP3      H2            -17.5787148586       34.8794371937      -66.3139383247  TIP3      11704           0.0000000000
     86628     13065  TIP3      OH2            -8.7610612967       34.9854555805      -66.5468386361  TIP3      11705           0.0000000000
     86629     13065  TIP3      H1             -8.6630981909       34.4987218950      -65.7066671534  TIP3      11705           0.0000000000
     86630     13065  TIP3      H2             -7.8437156194       34.9292923146      -66.8976335603  TIP3      11705           0.0000000000
     86631     13066  TIP3      OH2            14.8390290026       38.0892469499      -73.2101522251  TIP3      11706           0.0000000000
     86632     13066  TIP3      H1             14.8923844213       38.7499879047      -72.4828552193  TIP3      11706           0.0000000000
     86633     13066  TIP3      H2             15.2033475147       38.6458165772      -73.8975542921  TIP3      11706           0.0000000000
     86634     13067  TIP3      OH2             2.5409127264       39.0834044707      -76.4144235185  TIP3      11707           0.0000000000
     86635     13067  TIP3      H1              2.4604445654       39.9350085529      -76.8600534472  TIP3      11707           0.0000000000
     86636     13067  TIP3      H2              2.0014809025       38.5500611246      -77.0595331754  TIP3      11707           0.0000000000
     86637     13068  TIP3      OH2            10.2027192594       39.1764725114      -78.1020805180  TIP3      11708           0.0000000000
     86638     13068  TIP3      H1             10.8205864727       38.9097576264      -77.3821382683  TIP3      11708           0.0000000000
     86639     13068  TIP3      H2             10.7967786113       39.7526402516      -78.5945912721  TIP3      11708           0.0000000000
     86640     13069  TIP3      OH2            15.1964813867       39.5305996005      -70.9739580975  TIP3      11709           0.0000000000
     86641     13069  TIP3      H1             14.6189930694       40.2618097725      -71.1528986526  TIP3      11709           0.0000000000
     86642     13069  TIP3      H2             15.2744892644       39.4919261575      -70.0054064841  TIP3      11709           0.0000000000
     86643     13070  TIP3      OH2             1.3177600184       37.9570755952      -72.3601259615  TIP3      11710           0.0000000000
     86644     13070  TIP3      H1              1.0251246957       38.5288669659      -73.1092629147  TIP3      11710           0.0000000000
     86645     13070  TIP3      H2              0.6421806571       38.2312301620      -71.6910298041  TIP3      11710           0.0000000000
     86646     13071  TIP3      OH2            11.9726386492       38.4851794764      -76.0865600653  TIP3      11711           0.0000000000
     86647     13071  TIP3      H1             11.6959770925       37.7442486066      -75.5411236220  TIP3      11711           0.0000000000
     86648     13071  TIP3      H2             12.5350385267       38.9992485270      -75.4843613271  TIP3      11711           0.0000000000
     86649     13072  TIP3      OH2             1.3769185325       39.7301124798      -74.1312578338  TIP3      11712           0.0000000000
     86650     13072  TIP3      H1              1.4158911875       40.6966295230      -74.1123579452  TIP3      11712           0.0000000000
     86651     13072  TIP3      H2              1.3204274975       39.5202777812      -75.0986945781  TIP3      11712           0.0000000000
     86652     13073  TIP3      OH2             5.2558326592       35.3513937045      -74.9232379885  TIP3      11713           0.0000000000
     86653     13073  TIP3      H1              5.1175833340       34.3837613420      -74.9990795077  TIP3      11713           0.0000000000
     86654     13073  TIP3      H2              4.3664846834       35.6197376372      -74.6268507542  TIP3      11713           0.0000000000
     86655     13074  TIP3      OH2            13.5414935587       35.2431118484      -82.0096448847  TIP3      11714           0.0000000000
     86656     13074  TIP3      H1             12.6575077416       35.4235932705      -81.6349979599  TIP3      11714           0.0000000000
     86657     13074  TIP3      H2             13.7947908607       36.1193533856      -82.3303025139  TIP3      11714           0.0000000000
     86658     13075  TIP3      OH2             2.6627182172       36.2752816661      -74.1811611671  TIP3      11715           0.0000000000
     86659     13075  TIP3      H1              1.7509636190       36.1021245039      -74.5464100502  TIP3      11715           0.0000000000
     86660     13075  TIP3      H2              2.4447871853       37.0589770890      -73.6483953353  TIP3      11715           0.0000000000
     86661     13076  TIP3      OH2             7.2482088465       35.9413891267      -70.8092287479  TIP3      11716           0.0000000000
     86662     13076  TIP3      H1              7.5978257033       35.5603661333      -69.9996401502  TIP3      11716           0.0000000000
     86663     13076  TIP3      H2              6.2784086706       35.7998251153      -70.6688859240  TIP3      11716           0.0000000000
     86664     13077  TIP3      OH2            10.5788989425       39.7466215643      -69.9156615319  TIP3      11717           0.0000000000
     86665     13077  TIP3      H1             10.0184369559       39.5674277972      -69.1214318888  TIP3      11717           0.0000000000
     86666     13077  TIP3      H2             10.3206240437       40.6382257625      -70.1471980069  TIP3      11717           0.0000000000
     86667     13078  TIP3      OH2             6.9169984598       38.4843642552      -83.4658257084  TIP3      11718           0.0000000000
     86668     13078  TIP3      H1              6.6315783288       38.4270339131      -82.5330568468  TIP3      11718           0.0000000000
     86669     13078  TIP3      H2              6.6644541465       37.5985164018      -83.7487341296  TIP3      11718           0.0000000000
     86670     13079  TIP3      OH2            -3.1963233805       38.4890786604      -77.5364714708  TIP3      11719           0.0000000000
     86671     13079  TIP3      H1             -2.6277753646       38.5364366423      -76.7441725299  TIP3      11719           0.0000000000
     86672     13079  TIP3      H2             -2.5467500043       38.1956937442      -78.1638314710  TIP3      11719           0.0000000000
     86673     13080  TIP3      OH2            -1.6513068078       39.3303564696      -81.9148592840  TIP3      11720           0.0000000000
     86674     13080  TIP3      H1             -1.2349605972       39.9402353617      -82.5048665413  TIP3      11720           0.0000000000
     86675     13080  TIP3      H2             -2.4053535000       39.8364548927      -81.5941291458  TIP3      11720           0.0000000000
     86676     13081  TIP3      OH2             5.2419342580       38.8013263960      -77.0519711074  TIP3      11721           0.0000000000
     86677     13081  TIP3      H1              4.2992368859       38.8830545801      -76.8176214687  TIP3      11721           0.0000000000
     86678     13081  TIP3      H2              5.7996893149       38.7871844815      -76.2650404472  TIP3      11721           0.0000000000
     86679     13082  TIP3      OH2             0.2674039686       39.8817236082      -78.1028331809  TIP3      11722           0.0000000000
     86680     13082  TIP3      H1             -0.5692597517       40.3324361831      -78.3958778308  TIP3      11722           0.0000000000
     86681     13082  TIP3      H2              0.4228254645       39.2654732971      -78.8040585394  TIP3      11722           0.0000000000
     86682     13083  TIP3      OH2             4.8620086545      -40.6147370026      -79.4412898684  TIP3      11723           0.0000000000
     86683     13083  TIP3      H1              5.1689113078      -41.0445740185      -80.2442538849  TIP3      11723           0.0000000000
     86684     13083  TIP3      H2              4.1343501492      -40.2545611842      -79.9836106751  TIP3      11723           0.0000000000
     86685     13084  TIP3      OH2             9.6594026274       38.0698446352      -73.8168176677  TIP3      11724           0.0000000000
     86686     13084  TIP3      H1              8.9772275283       38.2170360946      -73.1391144895  TIP3      11724           0.0000000000
     86687     13084  TIP3      H2              9.1657808668       37.8868972140      -74.6212150892  TIP3      11724           0.0000000000
     86688     13085  TIP3      OH2             1.5825400920       37.7374279127      -78.6372732331  TIP3      11725           0.0000000000
     86689     13085  TIP3      H1              1.1947459618       36.8561806469      -78.7509650648  TIP3      11725           0.0000000000
     86690     13085  TIP3      H2              2.2986314048       37.6900015225      -79.2913304599  TIP3      11725           0.0000000000
     86691     13086  TIP3      OH2             5.1004537063       39.7775952755      -72.6027521761  TIP3      11726           0.0000000000
     86692     13086  TIP3      H1              4.4082387464       40.4482293767      -72.6014917354  TIP3      11726           0.0000000000
     86693     13086  TIP3      H2              5.7462393739       40.2103021115      -71.9880272256  TIP3      11726           0.0000000000
     86694     13087  TIP3      OH2             9.5848984933       39.0400429426      -82.7876765306  TIP3      11727           0.0000000000
     86695     13087  TIP3      H1              8.6585544235       39.1775792501      -83.0309887671  TIP3      11727           0.0000000000
     86696     13087  TIP3      H2              9.9397859441       39.9074041941      -82.6045273393  TIP3      11727           0.0000000000
     86697     13088  TIP3      OH2            -0.5813991391       38.7101161482      -70.4779982105  TIP3      11728           0.0000000000
     86698     13088  TIP3      H1             -1.4630325619       39.0947279483      -70.4830644590  TIP3      11728           0.0000000000
     86699     13088  TIP3      H2             -0.6340273965       37.8921316859      -69.9773804662  TIP3      11728           0.0000000000
     86700     13089  TIP3      OH2             8.1804922583       38.5123661984      -71.5113747937  TIP3      11729           0.0000000000
     86701     13089  TIP3      H1              8.9089305964       38.5877151531      -70.8746236572  TIP3      11729           0.0000000000
     86702     13089  TIP3      H2              7.8544032066       37.6183593935      -71.2904988556  TIP3      11729           0.0000000000
     86703     13090  TIP3      OH2             9.0062274708       38.0697598120      -80.3825807668  TIP3      11730           0.0000000000
     86704     13090  TIP3      H1              9.2595296934       38.5404294326      -81.1984674572  TIP3      11730           0.0000000000
     86705     13090  TIP3      H2              9.5328761205       38.5154139486      -79.6910382981  TIP3      11730           0.0000000000
     86706     13091  TIP3      OH2             6.8248989626       39.5125856345      -79.4296680317  TIP3      11731           0.0000000000
     86707     13091  TIP3      H1              7.0885990004       40.4407738714      -79.5156590459  TIP3      11731           0.0000000000
     86708     13091  TIP3      H2              6.0394336631       39.6823560976      -78.8350017313  TIP3      11731           0.0000000000
     86709     13092  TIP3      OH2             6.7030300185      -40.5662963883      -70.3960366389  TIP3      11732           0.0000000000
     86710     13092  TIP3      H1              6.8419532278      -40.0244408262      -69.6096176528  TIP3      11732           0.0000000000
     86711     13092  TIP3      H2              7.3768154109      -41.2639884910      -70.2831002800  TIP3      11732           0.0000000000
     86712     13093  TIP3      OH2             7.0917201652       36.9046356457      -78.6504532599  TIP3      11733           0.0000000000
     86713     13093  TIP3      H1              6.7635747828       37.5660904768      -78.0154880746  TIP3      11733           0.0000000000
     86714     13093  TIP3      H2              7.7474189596       37.4700306523      -79.1335606588  TIP3      11733           0.0000000000
     86715     13094  TIP3      OH2             2.5136758737       37.2440147260      -81.4487680787  TIP3      11734           0.0000000000
     86716     13094  TIP3      H1              2.3657819476       38.2152724309      -81.5863251047  TIP3      11734           0.0000000000
     86717     13094  TIP3      H2              3.4563138347       37.4046372962      -81.6624047786  TIP3      11734           0.0000000000
     86718     13095  TIP3      OH2            12.9472605240       38.6879333913      -69.5614443373  TIP3      11735           0.0000000000
     86719     13095  TIP3      H1             12.0238563976       39.0115299673      -69.6547338662  TIP3      11735           0.0000000000
     86720     13095  TIP3      H2             13.2673846005       38.7144311353      -70.4682803832  TIP3      11735           0.0000000000
     86721     13096  TIP3      OH2             0.2244165879       35.8660982028      -75.0922327481  TIP3      11736           0.0000000000
     86722     13096  TIP3      H1             -0.1179257942       35.9371566789      -76.0081790438  TIP3      11736           0.0000000000
     86723     13096  TIP3      H2             -0.3299522727       35.1028940789      -74.8064885424  TIP3      11736           0.0000000000
     86724     13097  TIP3      OH2             4.3854480267       39.7012486448      -68.7400672382  TIP3      11737           0.0000000000
     86725     13097  TIP3      H1              3.7965558346       38.9783034981      -69.0515053132  TIP3      11737           0.0000000000
     86726     13097  TIP3      H2              3.8343771423       40.4358705272      -69.0458629477  TIP3      11737           0.0000000000
     86727     13098  TIP3      OH2             3.8280043282       37.9385656121      -71.4263734826  TIP3      11738           0.0000000000
     86728     13098  TIP3      H1              4.3398902556       38.6298205938      -71.8941383924  TIP3      11738           0.0000000000
     86729     13098  TIP3      H2              2.8885580446       38.0861096554      -71.6704520509  TIP3      11738           0.0000000000
     86730     13099  TIP3      OH2             4.6178596263       35.5749703646      -70.8971152636  TIP3      11739           0.0000000000
     86731     13099  TIP3      H1              4.4091077955       36.5421401048      -70.9383442231  TIP3      11739           0.0000000000
     86732     13099  TIP3      H2              3.8109647270       35.2476779259      -71.3312027042  TIP3      11739           0.0000000000
     86733     13100  TIP3      OH2             6.1569311732       39.9394367168      -67.0596838540  TIP3      11740           0.0000000000
     86734     13100  TIP3      H1              5.6603510996       39.7153956107      -66.2649482436  TIP3      11740           0.0000000000
     86735     13100  TIP3      H2              5.4184799430       39.7590083965      -67.6941808133  TIP3      11740           0.0000000000
     86736     13101  TIP3      OH2             8.5985499730       39.0038986382      -68.2807149063  TIP3      11741           0.0000000000
     86737     13101  TIP3      H1              7.6624680153       39.1440016607      -68.0403346948  TIP3      11741           0.0000000000
     86738     13101  TIP3      H2              8.8924598995       38.4980575285      -67.5001327816  TIP3      11741           0.0000000000
     86739     13102  TIP3      OH2            10.1230603597       37.7164548981      -66.2557380936  TIP3      11742           0.0000000000
     86740     13102  TIP3      H1             10.1143484962       36.7340938616      -66.2318798141  TIP3      11742           0.0000000000
     86741     13102  TIP3      H2              9.9179752774       37.9962606678      -65.3367486693  TIP3      11742           0.0000000000
     86742     13103  TIP3      OH2            -0.1252917296       38.9143855155      -67.1753218069  TIP3      11743           0.0000000000
     86743     13103  TIP3      H1              0.2997912467       38.2511002811      -67.7990740271  TIP3      11743           0.0000000000
     86744     13103  TIP3      H2             -0.0904042607       38.3327360889      -66.3909333241  TIP3      11743           0.0000000000
     86745     13104  TIP3      OH2             4.8522013697       34.9801578113      -68.1836782687  TIP3      11744           0.0000000000
     86746     13104  TIP3      H1              5.5124771552       34.2684325781      -68.2416624092  TIP3      11744           0.0000000000
     86747     13104  TIP3      H2              4.6740532251       35.1737462558      -69.1244248603  TIP3      11744           0.0000000000
     86748     13105  TIP3      OH2             5.2019310937       36.5882872322      -66.0954424437  TIP3      11745           0.0000000000
     86749     13105  TIP3      H1              4.9766609990       36.0943309235      -66.9225895228  TIP3      11745           0.0000000000
     86750     13105  TIP3      H2              4.6159865343       37.3559582995      -66.2089552556  TIP3      11745           0.0000000000
     86751     13106  TIP3      OH2            12.8716266031       38.5012181087      -84.7306553433  TIP3      11746           0.0000000000
     86752     13106  TIP3      H1             13.5248634656       38.2916318542      -84.0360012564  TIP3      11746           0.0000000000
     86753     13106  TIP3      H2             12.0296093812       38.1836860357      -84.4144606855  TIP3      11746           0.0000000000
     86754     13107  TIP3      OH2            12.6091096723       40.0967784091      -79.5504032244  TIP3      11747           0.0000000000
     86755     13107  TIP3      H1             12.9121844259       39.1670863209      -79.5837696505  TIP3      11747           0.0000000000
     86756     13107  TIP3      H2             13.2681166830       40.5326766026      -80.1220352260  TIP3      11747           0.0000000000
     86757     13108  TIP3      OH2            13.5292198507      -41.0280837913      -73.6636800830  TIP3      11748           0.0000000000
     86758     13108  TIP3      H1             14.0027440009      -40.4451696580      -74.2707334438  TIP3      11748           0.0000000000
     86759     13108  TIP3      H2             12.8512056846      -40.4687369566      -73.2826551263  TIP3      11748           0.0000000000
     86760     13109  TIP3      OH2            -2.5078183933       39.9614713595      -67.9733673243  TIP3      11749           0.0000000000
     86761     13109  TIP3      H1             -1.5672401502       39.7296925810      -67.8373272158  TIP3      11749           0.0000000000
     86762     13109  TIP3      H2             -2.9850394767       39.1550684188      -67.6707795670  TIP3      11749           0.0000000000
     86763     13110  TIP3      OH2            15.4960886453       35.4973985515      -66.1202983395  TIP3      11750           0.0000000000
     86764     13110  TIP3      H1             15.8537292644       34.8442834979      -66.7398611963  TIP3      11750           0.0000000000
     86765     13110  TIP3      H2             15.5844577869       36.3297896256      -66.6300659052  TIP3      11750           0.0000000000
     86766     13111  TIP3      OH2            13.1754898670       37.4801513134      -79.6266631819  TIP3      11751           0.0000000000
     86767     13111  TIP3      H1             13.3601641528       36.9906350719      -78.8029140460  TIP3      11751           0.0000000000
     86768     13111  TIP3      H2             12.5655732157       36.8667656892      -80.0818437956  TIP3      11751           0.0000000000
     86769     13112  TIP3      OH2            14.9824238356       37.6178549291      -67.7516763626  TIP3      11752           0.0000000000
     86770     13112  TIP3      H1             14.0398516804       37.8842801621      -67.8002861570  TIP3      11752           0.0000000000
     86771     13112  TIP3      H2             15.0670537437       37.0591131990      -68.5497839904  TIP3      11752           0.0000000000
     86772     13113  TIP3      OH2            14.9948203117       37.4370851616      -83.0565251152  TIP3      11753           0.0000000000
     86773     13113  TIP3      H1             15.4604830455       36.7955039573      -83.5987084697  TIP3      11753           0.0000000000
     86774     13113  TIP3      H2             15.6563887805       38.1439543756      -82.9871781730  TIP3      11753           0.0000000000
     86775     13114  TIP3      OH2            14.0259923288       35.6948075988      -69.9284701602  TIP3      11754           0.0000000000
     86776     13114  TIP3      H1             13.2228890784       36.0320860226      -70.3386353069  TIP3      11754           0.0000000000
     86777     13114  TIP3      H2             14.2416450175       34.9028688482      -70.4681769597  TIP3      11754           0.0000000000
     86778     13115  TIP3      OH2             7.3860349828       37.1430051638      -75.5974937995  TIP3      11755           0.0000000000
     86779     13115  TIP3      H1              6.7673768712       36.4394525370      -75.3603667583  TIP3      11755           0.0000000000
     86780     13115  TIP3      H2              7.9867182489       36.6560612106      -76.1877672459  TIP3      11755           0.0000000000
     86781     13116  TIP3      OH2            14.2610516613       36.3939554019      -77.2839025784  TIP3      11756           0.0000000000
     86782     13116  TIP3      H1             14.9441239183       35.8418880946      -77.7161589689  TIP3      11756           0.0000000000
     86783     13116  TIP3      H2             14.6823442049       37.2388476926      -77.1256940952  TIP3      11756           0.0000000000
     86784     13117  TIP3      OH2            -0.2550780305       35.7225132039      -77.7206078586  TIP3      11757           0.0000000000
     86785     13117  TIP3      H1             -0.9469702934       35.5889202459      -78.3712664425  TIP3      11757           0.0000000000
     86786     13117  TIP3      H2              0.2977456367       34.9308911690      -77.8668910594  TIP3      11757           0.0000000000
     86787     13118  TIP3      OH2             4.2809358317       35.7424814456      -77.9760671483  TIP3      11758           0.0000000000
     86788     13118  TIP3      H1              5.2093036360       36.0161441908      -78.0549784476  TIP3      11758           0.0000000000
     86789     13118  TIP3      H2              4.2482486116       35.4497524122      -77.0706958732  TIP3      11758           0.0000000000
     86790     13119  TIP3      OH2             9.9160270298       35.7397864419      -76.3855222420  TIP3      11759           0.0000000000
     86791     13119  TIP3      H1              9.9680833948       35.8203471251      -77.3385450942  TIP3      11759           0.0000000000
     86792     13119  TIP3      H2              9.5745799437       34.8341934322      -76.2645023181  TIP3      11759           0.0000000000
     86793     13120  TIP3      OH2            11.2448142008       35.8092085453      -80.6559752249  TIP3      11760           0.0000000000
     86794     13120  TIP3      H1             10.4923922409       36.3767459250      -80.8918873612  TIP3      11760           0.0000000000
     86795     13120  TIP3      H2             10.8337178722       34.9448265620      -80.5034781416  TIP3      11760           0.0000000000
     86796     13121  TIP3      OH2             5.4362135088       37.7539833128      -81.1528774076  TIP3      11761           0.0000000000
     86797     13121  TIP3      H1              5.6614898339       37.1306358321      -80.4363690979  TIP3      11761           0.0000000000
     86798     13121  TIP3      H2              5.4886173741       38.5605916210      -80.6151314731  TIP3      11761           0.0000000000
     86799     13122  TIP3      OH2             1.8972764090       35.3768969854      -66.0764634512  TIP3      11762           0.0000000000
     86800     13122  TIP3      H1              2.4491539441       35.3387521552      -66.8897856318  TIP3      11762           0.0000000000
     86801     13122  TIP3      H2              1.2684570467       34.6580791780      -66.2721656592  TIP3      11762           0.0000000000
     86802     13123  TIP3      OH2            10.0955537837       34.9935420753      -66.5650261803  TIP3      11763           0.0000000000
     86803     13123  TIP3      H1             10.2006164305       34.4869783832      -65.7391172246  TIP3      11763           0.0000000000
     86804     13123  TIP3      H2             11.0064914395       34.9320693567      -66.9250718661  TIP3      11763           0.0000000000
     86805     13124  TIP3      OH2            33.3904791865       37.9954758601      -73.0056288858  TIP3      11764           0.0000000000
     86806     13124  TIP3      H1             33.6585669902       38.7302367310      -72.4185879163  TIP3      11764           0.0000000000
     86807     13124  TIP3      H2             33.8783068228       38.3933619829      -73.7601464476  TIP3      11764           0.0000000000
     86808     13125  TIP3      OH2            28.9752800554       39.2182265691      -78.0464107498  TIP3      11765           0.0000000000
     86809     13125  TIP3      H1             29.6337688398       38.9058337477      -77.3826459446  TIP3      11765           0.0000000000
     86810     13125  TIP3      H2             29.5823769134       39.7500223562      -78.5839672553  TIP3      11765           0.0000000000
     86811     13126  TIP3      OH2            34.0986444924       39.5709722554      -70.9573865575  TIP3      11766           0.0000000000
     86812     13126  TIP3      H1             33.5128819321       40.2943106386      -71.1660927626  TIP3      11766           0.0000000000
     86813     13126  TIP3      H2             34.1109326665       39.5370348463      -69.9846194782  TIP3      11766           0.0000000000
     86814     13127  TIP3      OH2            30.8042787035       38.4976909254      -76.0728529050  TIP3      11767           0.0000000000
     86815     13127  TIP3      H1             30.5256074394       37.7709774537      -75.5125726716  TIP3      11767           0.0000000000
     86816     13127  TIP3      H2             31.3858634297       39.0144253163      -75.4890818142  TIP3      11767           0.0000000000
     86817     13128  TIP3      OH2            31.0704801946       37.2289355666      -72.3557049729  TIP3      11768           0.0000000000
     86818     13128  TIP3      H1             30.3559464520       37.8671427348      -72.4933516559  TIP3      11768           0.0000000000
     86819     13128  TIP3      H2             31.8235369990       37.6383335629      -72.8561982407  TIP3      11768           0.0000000000
     86820     13129  TIP3      OH2            24.1883217078       35.2517426967      -74.9164137530  TIP3      11769           0.0000000000
     86821     13129  TIP3      H1             23.9594884237       34.3081333890      -75.0095900267  TIP3      11769           0.0000000000
     86822     13129  TIP3      H2             23.3469515704       35.6521234079      -74.6455514636  TIP3      11769           0.0000000000
     86823     13130  TIP3      OH2            32.3846785242       35.2572939463      -81.9151529184  TIP3      11770           0.0000000000
     86824     13130  TIP3      H1             31.4708197598       35.4546667463      -81.6735999071  TIP3      11770           0.0000000000
     86825     13130  TIP3      H2             32.6912215818       36.0917876696      -82.3250282548  TIP3      11770           0.0000000000
     86826     13131  TIP3      OH2            26.0806361093       35.9530708733      -70.7652337283  TIP3      11771           0.0000000000
     86827     13131  TIP3      H1             26.5280594770       35.4915790217      -70.0350405221  TIP3      11771           0.0000000000
     86828     13131  TIP3      H2             25.1464333240       35.7227375723      -70.6534212087  TIP3      11771           0.0000000000
     86829     13132  TIP3      OH2            29.4671403659       39.7830140558      -69.8691507377  TIP3      11772           0.0000000000
     86830     13132  TIP3      H1             28.8376342145       39.5680319733      -69.1334007330  TIP3      11772           0.0000000000
     86831     13132  TIP3      H2             29.1636765396       40.6437081169      -70.1524860133  TIP3      11772           0.0000000000
     86832     13133  TIP3      OH2            24.0692361197       38.6014462847      -77.1326062493  TIP3      11773           0.0000000000
     86833     13133  TIP3      H1             23.2234270787       38.9168293051      -76.7695050630  TIP3      11773           0.0000000000
     86834     13133  TIP3      H2             24.5976556682       38.8008865086      -76.3267516489  TIP3      11773           0.0000000000
     86835     13134  TIP3      OH2            28.5662543400       38.0561622217      -73.8827760326  TIP3      11774           0.0000000000
     86836     13134  TIP3      H1             27.9108610072       38.1924674459      -73.1404061468  TIP3      11774           0.0000000000
     86837     13134  TIP3      H2             27.9669325229       37.9051558626      -74.6191762829  TIP3      11774           0.0000000000
     86838     13135  TIP3      OH2            28.4388390405       39.0629834605      -82.9193423587  TIP3      11775           0.0000000000
     86839     13135  TIP3      H1             27.4851487261       39.1877128334      -82.9779633829  TIP3      11775           0.0000000000
     86840     13135  TIP3      H2             28.7792957936       39.8935923222      -82.5715195659  TIP3      11775           0.0000000000
     86841     13136  TIP3      OH2            27.5021332718       38.0762187401      -71.5119127717  TIP3      11776           0.0000000000
     86842     13136  TIP3      H1             27.7698277505       38.5513220023      -70.7313206816  TIP3      11776           0.0000000000
     86843     13136  TIP3      H2             26.6954295690       37.5952602873      -71.2486971212  TIP3      11776           0.0000000000
     86844     13137  TIP3      OH2            27.8513451881       38.0897560737      -80.3942582795  TIP3      11777           0.0000000000
     86845     13137  TIP3      H1             28.0766720217       38.5736587924      -81.2057994024  TIP3      11777           0.0000000000
     86846     13137  TIP3      H2             28.3930213950       38.5255309473      -79.7141720488  TIP3      11777           0.0000000000
     86847     13138  TIP3      OH2            25.9341021376      -40.8288237700      -69.2252520440  TIP3      11778           0.0000000000
     86848     13138  TIP3      H1             25.6241584739      -39.9234895520      -69.4591578169  TIP3      11778           0.0000000000
     86849     13138  TIP3      H2             26.0533493719      -41.2327965720      -70.1214030847  TIP3      11778           0.0000000000
     86850     13139  TIP3      OH2            25.9830646020       36.9034480102      -78.5946558947  TIP3      11779           0.0000000000
     86851     13139  TIP3      H1             25.5764030678       37.5940095017      -78.0447638058  TIP3      11779           0.0000000000
     86852     13139  TIP3      H2             26.5836393133       37.4469204678      -79.1500924429  TIP3      11779           0.0000000000
     86853     13140  TIP3      OH2            31.8323208035       38.7279795033      -69.5610755569  TIP3      11780           0.0000000000
     86854     13140  TIP3      H1             30.8890715624       39.0109454206      -69.6447372367  TIP3      11780           0.0000000000
     86855     13140  TIP3      H2             32.1149747450       38.7132986826      -70.4786490314  TIP3      11780           0.0000000000
     86856     13141  TIP3      OH2            23.4271872722       35.6588152031      -70.8400775470  TIP3      11781           0.0000000000
     86857     13141  TIP3      H1             23.3022296529       36.6022068069      -71.0027445544  TIP3      11781           0.0000000000
     86858     13141  TIP3      H2             22.7201340084       35.2579678757      -71.3716259959  TIP3      11781           0.0000000000
     86859     13142  TIP3      OH2            27.5146298257       38.9277858804      -68.2540650718  TIP3      11782           0.0000000000
     86860     13142  TIP3      H1             26.5712587297       39.1437255624      -68.1093125476  TIP3      11782           0.0000000000
     86861     13142  TIP3      H2             27.7391188906       38.4587790563      -67.4527733930  TIP3      11782           0.0000000000
     86862     13143  TIP3      OH2            29.0005666995       37.7096256470      -66.2379897531  TIP3      11783           0.0000000000
     86863     13143  TIP3      H1             28.9614017521       36.7346728526      -66.2328696219  TIP3      11783           0.0000000000
     86864     13143  TIP3      H2             28.7667858678       37.9946276636      -65.3328922635  TIP3      11783           0.0000000000
     86865     13144  TIP3      OH2            18.8396505752       38.9968782268      -67.1444509322  TIP3      11784           0.0000000000
     86866     13144  TIP3      H1             19.0464587147       38.2725016665      -67.7706634691  TIP3      11784           0.0000000000
     86867     13144  TIP3      H2             18.7717386406       38.4838119154      -66.3141096322  TIP3      11784           0.0000000000
     86868     13145  TIP3      OH2            23.6859178219       34.9999440803      -68.1861585968  TIP3      11785           0.0000000000
     86869     13145  TIP3      H1             24.3557561421       34.2781428138      -68.2006606379  TIP3      11785           0.0000000000
     86870     13145  TIP3      H2             23.5831661630       35.1474919629      -69.1402561461  TIP3      11785           0.0000000000
     86871     13146  TIP3      OH2            24.0043736198       36.5980041933      -66.0910999268  TIP3      11786           0.0000000000
     86872     13146  TIP3      H1             23.8542702052       36.1065954053      -66.9329390702  TIP3      11786           0.0000000000
     86873     13146  TIP3      H2             23.4529107698       37.4020702462      -66.1939606079  TIP3      11786           0.0000000000
     86874     13147  TIP3      OH2            31.7019734344       38.6590660910      -84.6190172246  TIP3      11787           0.0000000000
     86875     13147  TIP3      H1             32.3830444834       38.2627200376      -84.0382634843  TIP3      11787           0.0000000000
     86876     13147  TIP3      H2             30.9009185114       38.1722783742      -84.4446449685  TIP3      11787           0.0000000000
     86877     13148  TIP3      OH2            31.3820214947       40.0513877750      -79.5615123624  TIP3      11788           0.0000000000
     86878     13148  TIP3      H1             31.7613665897       39.1446203052      -79.5618406056  TIP3      11788           0.0000000000
     86879     13148  TIP3      H2             32.0728811543       40.5315689147      -80.0511126241  TIP3      11788           0.0000000000
     86880     13149  TIP3      OH2            31.7645420712      -40.9174082090      -73.8234729319  TIP3      11789           0.0000000000
     86881     13149  TIP3      H1             32.6362505707      -40.6092524071      -74.1607718579  TIP3      11789           0.0000000000
     86882     13149  TIP3      H2             31.6720385029      -40.3562663693      -73.0797999045  TIP3      11789           0.0000000000
     86883     13150  TIP3      OH2            16.3377519952       39.9574863362      -67.9804307122  TIP3      11790           0.0000000000
     86884     13150  TIP3      H1             17.2793732383       39.7579962706      -67.8044251188  TIP3      11790           0.0000000000
     86885     13150  TIP3      H2             15.9032120714       39.1305384799      -67.6735702836  TIP3      11790           0.0000000000
     86886     13151  TIP3      OH2            34.3357398158       35.4879238361      -66.1280783413  TIP3      11791           0.0000000000
     86887     13151  TIP3      H1             34.7242089709       34.8444822364      -66.7356177023  TIP3      11791           0.0000000000
     86888     13151  TIP3      H2             34.4539882006       36.3385033941      -66.6030873406  TIP3      11791           0.0000000000
     86889     13152  TIP3      OH2            31.9951204433       37.4944580088      -79.6476905037  TIP3      11792           0.0000000000
     86890     13152  TIP3      H1             32.2297501231       36.9938733140      -78.8382931826  TIP3      11792           0.0000000000
     86891     13152  TIP3      H2             31.4039811932       36.8595442850      -80.0925763652  TIP3      11792           0.0000000000
     86892     13153  TIP3      OH2            33.8438503457       37.5726469395      -67.7713493415  TIP3      11793           0.0000000000
     86893     13153  TIP3      H1             32.9174809941       37.9006622513      -67.7960811848  TIP3      11793           0.0000000000
     86894     13153  TIP3      H2             33.8974978557       37.0385427220      -68.5730964457  TIP3      11793           0.0000000000
     86895     13154  TIP3      OH2            33.7557650227       37.5080537853      -82.9857065654  TIP3      11794           0.0000000000
     86896     13154  TIP3      H1             34.1842808068       36.8115672783      -83.4993996440  TIP3      11794           0.0000000000
     86897     13154  TIP3      H2             34.4464887177       38.2133535237      -83.0152707358  TIP3      11794           0.0000000000
     86898     13155  TIP3      OH2            16.1033610197       36.1908401496      -71.6995651777  TIP3      11795           0.0000000000
     86899     13155  TIP3      H1             15.4792223171       36.0575830166      -70.9792922012  TIP3      11795           0.0000000000
     86900     13155  TIP3      H2             15.6871860183       36.9041283767      -72.2192683528  TIP3      11795           0.0000000000
     86901     13156  TIP3      OH2            32.8967456732       35.6644413907      -69.9234761882  TIP3      11796           0.0000000000
     86902     13156  TIP3      H1             32.0970842975       36.0488946626      -70.3311974444  TIP3      11796           0.0000000000
     86903     13156  TIP3      H2             33.0426372524       34.9233883317      -70.5268223924  TIP3      11796           0.0000000000
     86904     13157  TIP3      OH2            26.2562896254       37.1611938403      -75.6409536691  TIP3      11797           0.0000000000
     86905     13157  TIP3      H1             25.6161952401       36.4884183404      -75.3679526531  TIP3      11797           0.0000000000
     86906     13157  TIP3      H2             26.8458876292       36.6435878309      -76.2052227935  TIP3      11797           0.0000000000
     86907     13158  TIP3      OH2            31.4030339599       35.2261445800      -75.5158101422  TIP3      11798           0.0000000000
     86908     13158  TIP3      H1             32.0290224790       35.7682331905      -76.0563385309  TIP3      11798           0.0000000000
     86909     13158  TIP3      H2             30.5284782668       35.5761625006      -75.7786857344  TIP3      11798           0.0000000000
     86910     13159  TIP3      OH2            32.8970636181       36.1986975165      -77.4198127454  TIP3      11799           0.0000000000
     86911     13159  TIP3      H1             33.7072992946       35.7528830719      -77.7633766125  TIP3      11799           0.0000000000
     86912     13159  TIP3      H2             33.2437108580       37.0985366773      -77.2574695627  TIP3      11799           0.0000000000
     86913     13160  TIP3      OH2            23.2963710536       35.5577078872      -78.0664178795  TIP3      11800           0.0000000000
     86914     13160  TIP3      H1             24.1019775907       36.1040850034      -78.0826039241  TIP3      11800           0.0000000000
     86915     13160  TIP3      H2             23.0942999963       35.4921594980      -77.1303020074  TIP3      11800           0.0000000000
     86916     13161  TIP3      OH2            28.7872649891       35.7050158179      -76.3618094747  TIP3      11801           0.0000000000
     86917     13161  TIP3      H1             28.8073035824       35.8193296966      -77.3204658516  TIP3      11801           0.0000000000
     86918     13161  TIP3      H2             28.4802975867       34.7955878743      -76.2603813336  TIP3      11801           0.0000000000
     86919     13162  TIP3      OH2            30.0779572899       35.8060670087      -80.6997974550  TIP3      11802           0.0000000000
     86920     13162  TIP3      H1             29.3320106629       36.3955719434      -80.8585782411  TIP3      11802           0.0000000000
     86921     13162  TIP3      H2             29.7033977997       34.9368649124      -80.5025852241  TIP3      11802           0.0000000000
     86922     13163  TIP3      OH2            18.5505366810       36.3449353325      -68.2784502359  TIP3      11803           0.0000000000
     86923     13163  TIP3      H1             18.1695752508       35.5111188150      -67.9532486190  TIP3      11803           0.0000000000
     86924     13163  TIP3      H2             19.4774573081       36.2616936887      -67.9743709782  TIP3      11803           0.0000000000
     86925     13164  TIP3      OH2            20.5650874569       35.6784487839      -66.6832809736  TIP3      11804           0.0000000000
     86926     13164  TIP3      H1             21.4370254336       35.3140391515      -66.9279841846  TIP3      11804           0.0000000000
     86927     13164  TIP3      H2             20.1644407055       34.8812229084      -66.2762815609  TIP3      11804           0.0000000000
     86928     13165  TIP3      OH2            28.9664752554       34.9780670642      -66.5645397619  TIP3      11805           0.0000000000
     86929     13165  TIP3      H1             29.0516151168       34.4902235356      -65.7226988794  TIP3      11805           0.0000000000
     86930     13165  TIP3      H2             29.8842528974       34.9279795131      -66.9061051775  TIP3      11805           0.0000000000
     86931     13166  TIP3      OH2            40.3265415523       38.8889867048      -76.1606804653  TIP3      11806           0.0000000000
     86932     13166  TIP3      H1             40.3877526485       39.8065538673      -76.5196807151  TIP3      11806           0.0000000000
     86933     13166  TIP3      H2             39.8174143263       38.5215520668      -76.8958490252  TIP3      11806           0.0000000000
     86934     13167  TIP3      OH2            37.1582744183       38.1351600786      -71.9941446467  TIP3      11807           0.0000000000
     86935     13167  TIP3      H1             37.8042789645       38.3307836705      -72.7017046887  TIP3      11807           0.0000000000
     86936     13167  TIP3      H2             37.9256617385       38.1255823387      -71.4026265441  TIP3      11807           0.0000000000
     86937     13168  TIP3      OH2            39.9240563867       40.6380938303      -74.7385660905  TIP3      11808           0.0000000000
     86938     13168  TIP3      H1             39.3827835358       40.6274033132      -73.9281547552  TIP3      11808           0.0000000000
     86939     13168  TIP3      H2             39.4546493116       39.8153856249      -75.0913087173  TIP3      11808           0.0000000000
     86940     13169  TIP3      OH2            38.9085098867       35.6729653522      -73.3464746199  TIP3      11809           0.0000000000
     86941     13169  TIP3      H1             39.0100413759       35.7717139707      -74.3508294615  TIP3      11809           0.0000000000
     86942     13169  TIP3      H2             39.5911896600       36.3728786774      -73.3843332592  TIP3      11809           0.0000000000
     86943     13170  TIP3      OH2            34.3777073473       38.7894733250      -77.9290032946  TIP3      11810           0.0000000000
     86944     13170  TIP3      H1             34.9942999419       38.8289898206      -77.1401631087  TIP3      11810           0.0000000000
     86945     13170  TIP3      H2             35.0323562004       38.2657329470      -78.3886600297  TIP3      11810           0.0000000000
     86946     13171  TIP3      OH2            35.3091332351       39.4937983199      -82.3609633669  TIP3      11811           0.0000000000
     86947     13171  TIP3      H1             36.1923522627       39.8822296842      -82.5113658246  TIP3      11811           0.0000000000
     86948     13171  TIP3      H2             35.0797277748       39.9746268561      -81.5548833668  TIP3      11811           0.0000000000
     86949     13172  TIP3      OH2            36.1262817104       40.4761701960      -77.4520714677  TIP3      11812           0.0000000000
     86950     13172  TIP3      H1             36.0615323422       40.4173155083      -78.4295995536  TIP3      11812           0.0000000000
     86951     13172  TIP3      H2             36.9968054326       40.2922149573      -77.8500450761  TIP3      11812           0.0000000000
     86952     13173  TIP3      OH2            39.6097891016       37.8793486371      -78.1617425490  TIP3      11813           0.0000000000
     86953     13173  TIP3      H1             38.9029424935       37.2936924938      -78.4649506600  TIP3      11813           0.0000000000
     86954     13173  TIP3      H2             40.1039942746       37.8349678947      -78.9906602542  TIP3      11813           0.0000000000
     86955     13174  TIP3      OH2            36.9293878731       39.1172159679      -69.8814157748  TIP3      11814           0.0000000000
     86956     13174  TIP3      H1             36.1590991981       39.1659604221      -70.4873858710  TIP3      11814           0.0000000000
     86957     13174  TIP3      H2             37.0369885747       38.1474234068      -69.9528060125  TIP3      11814           0.0000000000
     86958     13175  TIP3      OH2           -40.8196605396       37.8215137039      -82.0262340861  TIP3      11815           0.0000000000
     86959     13175  TIP3      H1            -41.0636341860       38.7395278484      -81.8238485056  TIP3      11815           0.0000000000
     86960     13175  TIP3      H2            -39.8542687886       37.8019542616      -81.9806668210  TIP3      11815           0.0000000000
     86961     13176  TIP3      OH2            37.8628266082       35.7133575582      -75.4600453036  TIP3      11816           0.0000000000
     86962     13176  TIP3      H1             37.4361682664       35.7718866414      -76.3133364818  TIP3      11816           0.0000000000
     86963     13176  TIP3      H2             37.3848705662       35.0324888988      -74.9126832549  TIP3      11816           0.0000000000
     86964     13177  TIP3      OH2            37.8420229556       39.1570463760      -67.0667404107  TIP3      11817           0.0000000000
     86965     13177  TIP3      H1             37.9179820450       38.4179730129      -67.7133520701  TIP3      11817           0.0000000000
     86966     13177  TIP3      H2             37.6096225009       38.5438327844      -66.3369887382  TIP3      11817           0.0000000000
     86967     13178  TIP3      OH2            35.1877370937       39.9609639411      -67.9426846307  TIP3      11818           0.0000000000
     86968     13178  TIP3      H1             36.1344121514       39.7541675180      -67.7975504220  TIP3      11818           0.0000000000
     86969     13178  TIP3      H2             34.7534373869       39.1278514693      -67.6655741750  TIP3      11818           0.0000000000
     86970     13179  TIP3      OH2            36.5304333844       37.2582311057      -74.1377488905  TIP3      11819           0.0000000000
     86971     13179  TIP3      H1             36.9954810519       37.0246733318      -74.9547080298  TIP3      11819           0.0000000000
     86972     13179  TIP3      H2             36.6054007989       38.2195440514      -74.3569519393  TIP3      11819           0.0000000000
     86973     13180  TIP3      OH2            34.8914328066       37.3260276972      -80.1176222450  TIP3      11820           0.0000000000
     86974     13180  TIP3      H1             33.9962322729       37.6967904014      -80.1468108192  TIP3      11820           0.0000000000
     86975     13180  TIP3      H2             35.3529081479       37.9600459929      -80.6685804792  TIP3      11820           0.0000000000
     86976     13181  TIP3      OH2            35.0181988982       36.2414031550      -71.6239641797  TIP3      11821           0.0000000000
     86977     13181  TIP3      H1             34.2968382396       36.0791967781      -71.0115379817  TIP3      11821           0.0000000000
     86978     13181  TIP3      H2             34.5784028760       36.8579512466      -72.2473234904  TIP3      11821           0.0000000000
     86979     13182  TIP3      OH2            37.4104659389       35.7838911261      -77.8293824726  TIP3      11822           0.0000000000
     86980     13182  TIP3      H1             36.6097023904       35.4817764526      -78.2611664990  TIP3      11822           0.0000000000
     86981     13182  TIP3      H2             37.9179635724       34.9213288470      -77.8083851774  TIP3      11822           0.0000000000
     86982     13183  TIP3      OH2            35.3283903180       35.6419265586      -81.9752735559  TIP3      11823           0.0000000000
     86983     13183  TIP3      H1             36.1899357336       35.7832610082      -82.4215262408  TIP3      11823           0.0000000000
     86984     13183  TIP3      H2             35.4403504986       36.3299291283      -81.2991666056  TIP3      11823           0.0000000000
     86985     13184  TIP3      OH2            37.8715305400       37.3141714460      -84.3683596990  TIP3      11824           0.0000000000
     86986     13184  TIP3      H1             38.5886357165       36.6769086141      -84.3817573756  TIP3      11824           0.0000000000
     86987     13184  TIP3      H2             38.2470854068       37.6626215804      -83.5079150186  TIP3      11824           0.0000000000
     86988     13185  TIP3      OH2            37.0655062268       36.7150490507      -67.2318535196  TIP3      11825           0.0000000000
     86989     13185  TIP3      H1             36.8280105353       35.8733662551      -67.6333675379  TIP3      11825           0.0000000000
     86990     13185  TIP3      H2             37.9628803566       36.6788537767      -67.6752858422  TIP3      11825           0.0000000000
     86991     13186  TIP3      OH2            39.4334233062       35.6199142532      -66.7855159906  TIP3      11826           0.0000000000
     86992     13186  TIP3      H1             40.3354641151       35.3161060786      -66.9531654228  TIP3      11826           0.0000000000
     86993     13186  TIP3      H2             39.0302157962       34.8947192207      -66.2734948474  TIP3      11826           0.0000000000
     86994     13187  TIP3      OH2           -30.1329624481      -32.7726273212      -64.5672711754  TIP3      11827           0.0000000000
     86995     13187  TIP3      H1            -29.4157595209      -32.7302284764      -63.9041788733  TIP3      11827           0.0000000000
     86996     13187  TIP3      H2            -29.7728354199      -33.4523431005      -65.1489963926  TIP3      11827           0.0000000000
     86997     13188  TIP3      OH2           -27.8444023884      -31.9031139933      -62.9674611832  TIP3      11828           0.0000000000
     86998     13188  TIP3      H1            -27.2960567329      -31.6938817674      -62.2105602217  TIP3      11828           0.0000000000
     86999     13188  TIP3      H2            -27.4298855219      -31.3983827510      -63.6954405537  TIP3      11828           0.0000000000
     87000     13189  TIP3      OH2           -24.1360510187      -40.0708576616      -63.0178484472  TIP3      11829           0.0000000000
     87001     13189  TIP3      H1            -25.0763997045      -40.0380692836      -62.8393162342  TIP3      11829           0.0000000000
     87002     13189  TIP3      H2            -23.9249558132      -39.2653224268      -63.5129071310  TIP3      11829           0.0000000000
     87003     13190  TIP3      OH2           -22.9858119166      -25.7852212981      -64.7902943735  TIP3      11830           0.0000000000
     87004     13190  TIP3      H1            -22.8463790201      -24.8485413460      -64.5575287024  TIP3      11830           0.0000000000
     87005     13190  TIP3      H2            -22.0592318117      -26.0750825038      -64.7352570496  TIP3      11830           0.0000000000
     87006     13191  TIP3      OH2           -27.5592450901      -23.0113268812      -64.0502763512  TIP3      11831           0.0000000000
     87007     13191  TIP3      H1            -27.1565630660      -23.7653554627      -64.5392889440  TIP3      11831           0.0000000000
     87008     13191  TIP3      H2            -27.4988268581      -23.3342201537      -63.1430905541  TIP3      11831           0.0000000000
     87009     13192  TIP3      OH2           -26.3745779167      -30.8830127121      -65.1997383546  TIP3      11832           0.0000000000
     87010     13192  TIP3      H1            -26.4105412002      -31.0446792391      -66.1783144127  TIP3      11832           0.0000000000
     87011     13192  TIP3      H2            -25.5312565233      -30.4102294465      -65.1334909173  TIP3      11832           0.0000000000
     87012     13193  TIP3      OH2           -30.7845475812      -36.9957588844      -64.6206110381  TIP3      11833           0.0000000000
     87013     13193  TIP3      H1            -31.1069866605      -36.9685000162      -63.7150702670  TIP3      11833           0.0000000000
     87014     13193  TIP3      H2            -31.1077340302      -37.8584955856      -64.9482504651  TIP3      11833           0.0000000000
     87015     13194  TIP3      OH2           -33.9788100413      -36.6208007872      -65.5797214976  TIP3      11834           0.0000000000
     87016     13194  TIP3      H1            -34.4052036928      -36.9385765673      -64.7562453145  TIP3      11834           0.0000000000
     87017     13194  TIP3      H2            -34.6698394242      -36.1134291131      -66.0292190550  TIP3      11834           0.0000000000
     87018     13195  TIP3      OH2           -39.2507335645      -35.9241875600      -62.9490784318  TIP3      11835           0.0000000000
     87019     13195  TIP3      H1            -38.8684948033      -35.3624244343      -63.6468669480  TIP3      11835           0.0000000000
     87020     13195  TIP3      H2            -40.0472210467      -35.4342435240      -62.7279936474  TIP3      11835           0.0000000000
     87021     13196  TIP3      OH2           -35.3020042932      -33.8437417943      -64.1054836343  TIP3      11836           0.0000000000
     87022     13196  TIP3      H1            -35.8588464907      -34.0990934822      -64.8620980237  TIP3      11836           0.0000000000
     87023     13196  TIP3      H2            -34.5053500548      -33.5587864476      -64.5759587064  TIP3      11836           0.0000000000
     87024     13197  TIP3      OH2           -28.1296114472      -36.4314699421      -64.0022662683  TIP3      11837           0.0000000000
     87025     13197  TIP3      H1            -29.0747140497      -36.2551339284      -64.1474428033  TIP3      11837           0.0000000000
     87026     13197  TIP3      H2            -27.7922323760      -35.5913548788      -63.6343203362  TIP3      11837           0.0000000000
     87027     13198  TIP3      OH2           -27.3906037857      -34.4504247505      -62.3477896739  TIP3      11838           0.0000000000
     87028     13198  TIP3      H1            -26.4844999913      -34.6644423642      -62.0818745204  TIP3      11838           0.0000000000
     87029     13198  TIP3      H2            -27.3026060751      -33.6795088029      -62.9286460615  TIP3      11838           0.0000000000
     87030     13199  TIP3      OH2           -29.8702812314      -27.7718645950      -63.1932155755  TIP3      11839           0.0000000000
     87031     13199  TIP3      H1            -30.1763109104      -26.9256193441      -62.8122620311  TIP3      11839           0.0000000000
     87032     13199  TIP3      H2            -30.5667275344      -28.3834729212      -62.9322139616  TIP3      11839           0.0000000000
     87033     13200  TIP3      OH2           -22.5300983998      -34.3128931071      -62.5727767585  TIP3      11840           0.0000000000
     87034     13200  TIP3      H1            -23.0463222234      -34.6758831784      -63.3236838504  TIP3      11840           0.0000000000
     87035     13200  TIP3      H2            -22.4095397871      -33.4028449084      -62.9038325818  TIP3      11840           0.0000000000
     87036     13201  TIP3      OH2           -38.7696801396      -31.5260222952      -64.4835758978  TIP3      11841           0.0000000000
     87037     13201  TIP3      H1            -38.1283498797      -30.9360569796      -64.0185092846  TIP3      11841           0.0000000000
     87038     13201  TIP3      H2            -39.6043688060      -31.2012908910      -64.1450763271  TIP3      11841           0.0000000000
     87039     13202  TIP3      OH2           -26.7660049779      -27.4941993552      -64.3963008468  TIP3      11842           0.0000000000
     87040     13202  TIP3      H1            -26.4491200225      -27.8479556771      -63.5581534928  TIP3      11842           0.0000000000
     87041     13202  TIP3      H2            -27.7238561972      -27.6288789348      -64.2732997533  TIP3      11842           0.0000000000
     87042     13203  TIP3      OH2           -22.3268044647      -23.0996718388      -64.1599664446  TIP3      11843           0.0000000000
     87043     13203  TIP3      H1            -21.5667335099      -22.4927316539      -64.2232921916  TIP3      11843           0.0000000000
     87044     13203  TIP3      H2            -23.0053146412      -22.4776601302      -63.8292640226  TIP3      11843           0.0000000000
     87045     13204  TIP3      OH2           -32.6228113345      -26.3959373475      -65.8597625919  TIP3      11844           0.0000000000
     87046     13204  TIP3      H1            -32.5186461802      -27.1531606326      -66.4575973940  TIP3      11844           0.0000000000
     87047     13204  TIP3      H2            -33.0542031638      -26.8304607290      -65.0917134257  TIP3      11844           0.0000000000
     87048     13205  TIP3      OH2           -33.8439958432      -26.9062088908      -63.4454855364  TIP3      11845           0.0000000000
     87049     13205  TIP3      H1            -33.5853446149      -27.3694741199      -62.6386413086  TIP3      11845           0.0000000000
     87050     13205  TIP3      H2            -33.7509703845      -25.9804516757      -63.1444733711  TIP3      11845           0.0000000000
     87051     13206  TIP3      OH2           -37.4011487496      -29.6050674213      -63.0291176420  TIP3      11846           0.0000000000
     87052     13206  TIP3      H1            -37.9932081064      -29.2852341563      -62.3500002864  TIP3      11846           0.0000000000
     87053     13206  TIP3      H2            -36.7913688710      -28.8652793075      -63.2151712224  TIP3      11846           0.0000000000
     87054     13207  TIP3      OH2           -31.0454871172      -25.1242478202      -62.6204947646  TIP3      11847           0.0000000000
     87055     13207  TIP3      H1            -31.9060176342      -24.6782659826      -62.7254405166  TIP3      11847           0.0000000000
     87056     13207  TIP3      H2            -30.5293978671      -24.6870723477      -63.3252493821  TIP3      11847           0.0000000000
     87057     13208  TIP3      OH2           -33.6081336556      -24.1584018230      -62.6546906806  TIP3      11848           0.0000000000
     87058     13208  TIP3      H1            -33.5748009554      -23.3795009904      -63.2722570303  TIP3      11848           0.0000000000
     87059     13208  TIP3      H2            -33.9238858457      -23.7503519197      -61.8455567733  TIP3      11848           0.0000000000
     87060     13209  TIP3      OH2           -34.9859315762      -37.4367038290      -63.1375591971  TIP3      11849           0.0000000000
     87061     13209  TIP3      H1            -35.0496379189      -36.5524016294      -62.7396220023  TIP3      11849           0.0000000000
     87062     13209  TIP3      H2            -34.0980477833      -37.6865869171      -62.8464162335  TIP3      11849           0.0000000000
     87063     13210  TIP3      OH2           -36.7402383269      -26.9921459448      -64.0601543948  TIP3      11850           0.0000000000
     87064     13210  TIP3      H1            -36.0946636197      -26.3315972130      -63.7655757469  TIP3      11850           0.0000000000
     87065     13210  TIP3      H2            -36.2134648005      -27.4562867070      -64.7433574128  TIP3      11850           0.0000000000
     87066     13211  TIP3      OH2           -38.4108576629      -34.3136612646      -64.9443467138  TIP3      11851           0.0000000000
     87067     13211  TIP3      H1            -38.4074617570      -33.3545089953      -64.7389514590  TIP3      11851           0.0000000000
     87068     13211  TIP3      H2            -39.2968479347      -34.5122527772      -65.2389586072  TIP3      11851           0.0000000000
     87069     13212  TIP3      OH2           -30.6313974053      -24.5370759637      -65.7313107262  TIP3      11852           0.0000000000
     87070     13212  TIP3      H1            -31.3181684293      -25.2074734776      -65.5288939492  TIP3      11852           0.0000000000
     87071     13212  TIP3      H2            -29.9046505455      -25.1064465974      -66.0291465506  TIP3      11852           0.0000000000
     87072     13213  TIP3      OH2           -26.0705841526      -24.7829553625      -65.5816310061  TIP3      11853           0.0000000000
     87073     13213  TIP3      H1            -25.7622664733      -25.5415676462      -65.0621452093  TIP3      11853           0.0000000000
     87074     13213  TIP3      H2            -25.2995080631      -24.5680404152      -66.1329270450  TIP3      11853           0.0000000000
     87075     13214  TIP3      OH2           -35.1992145067      -28.8820630170      -65.7203239983  TIP3      11854           0.0000000000
     87076     13214  TIP3      H1            -34.9948779319      -29.6218674844      -65.1259361998  TIP3      11854           0.0000000000
     87077     13214  TIP3      H2            -34.4551770070      -28.9639152650      -66.3514789482  TIP3      11854           0.0000000000
     87078     13215  TIP3      OH2           -29.7196376658      -27.7632111950      -65.9394467937  TIP3      11855           0.0000000000
     87079     13215  TIP3      H1            -30.0050873357      -27.6641518877      -65.0197635066  TIP3      11855           0.0000000000
     87080     13215  TIP3      H2            -29.9453019947      -28.7112369645      -66.1013936241  TIP3      11855           0.0000000000
     87081     13216  TIP3      OH2           -33.9740495256      -30.8592727467      -63.3878145554  TIP3      11856           0.0000000000
     87082     13216  TIP3      H1            -34.4450558486      -31.3499107741      -62.7003991249  TIP3      11856           0.0000000000
     87083     13216  TIP3      H2            -33.6878672474      -31.5357114387      -64.0322961694  TIP3      11856           0.0000000000
     87084     13217  TIP3      OH2           -32.9064278853      -32.6548500068      -65.1316072493  TIP3      11857           0.0000000000
     87085     13217  TIP3      H1            -33.0392150903      -32.7157525480      -66.1021453793  TIP3      11857           0.0000000000
     87086     13217  TIP3      H2            -31.9316451254      -32.5412531976      -65.0588279003  TIP3      11857           0.0000000000
     87087     13218  TIP3      OH2           -23.5390150698      -30.2601803589      -65.6381649386  TIP3      11858           0.0000000000
     87088     13218  TIP3      H1            -23.7492097809      -30.6571087691      -66.5018864367  TIP3      11858           0.0000000000
     87089     13218  TIP3      H2            -23.4779483935      -29.3155401109      -65.8956183043  TIP3      11858           0.0000000000
     87090     13219  TIP3      OH2           -33.0194856708      -21.8938140282      -63.9983364780  TIP3      11859           0.0000000000
     87091     13219  TIP3      H1            -32.0460306740      -21.8146064693      -64.0131977148  TIP3      11859           0.0000000000
     87092     13219  TIP3      H2            -33.2336099778      -21.3165748145      -64.7528808178  TIP3      11859           0.0000000000
     87093     13220  TIP3      OH2           -39.4161708403      -27.2686836894      -64.5132787395  TIP3      11860           0.0000000000
     87094     13220  TIP3      H1            -38.4552919933      -27.1969406017      -64.3476089570  TIP3      11860           0.0000000000
     87095     13220  TIP3      H2            -39.4336576601      -27.9098856666      -65.2294389487  TIP3      11860           0.0000000000
     87096     13221  TIP3      OH2           -22.4020530535      -31.4638594068      -63.4662751124  TIP3      11861           0.0000000000
     87097     13221  TIP3      H1            -22.9069249562      -31.0800062972      -64.2187917341  TIP3      11861           0.0000000000
     87098     13221  TIP3      H2            -22.4331589185      -30.7497596176      -62.8168072999  TIP3      11861           0.0000000000
     87099     13222  TIP3      OH2           -23.9608878736      -34.2206000985      -64.9371602238  TIP3      11862           0.0000000000
     87100     13222  TIP3      H1            -23.9347597629      -33.5633767800      -65.6346798257  TIP3      11862           0.0000000000
     87101     13222  TIP3      H2            -24.1992704721      -35.0450378071      -65.4131177368  TIP3      11862           0.0000000000
     87102     13223  TIP3      OH2           -24.7462530579      -36.7533177272      -65.7722368838  TIP3      11863           0.0000000000
     87103     13223  TIP3      H1            -24.1371238346      -37.2147873294      -65.1682240144  TIP3      11863           0.0000000000
     87104     13223  TIP3      H2            -25.5914747909      -37.2208499240      -65.6405033081  TIP3      11863           0.0000000000
     87105     13224  TIP3      OH2           -22.6869970953      -37.8706373663      -64.3021935757  TIP3      11864           0.0000000000
     87106     13224  TIP3      H1            -22.2700953537      -38.6604662183      -64.7146674809  TIP3      11864           0.0000000000
     87107     13224  TIP3      H2            -21.9606588702      -37.2426922635      -64.1919314896  TIP3      11864           0.0000000000
     87108     13225  TIP3      OH2           -39.1200516861      -39.6938602571      -63.2845119971  TIP3      11865           0.0000000000
     87109     13225  TIP3      H1            -38.5798636698      -39.0339407092      -63.6776238624  TIP3      11865           0.0000000000
     87110     13225  TIP3      H2            -39.7176513154      -39.2434462190      -62.6709669696  TIP3      11865           0.0000000000
     87111     13226  TIP3      OH2           -37.1191725862      -37.9294644061      -64.5831122746  TIP3      11866           0.0000000000
     87112     13226  TIP3      H1            -36.5894306149      -38.5680624397      -65.0948016357  TIP3      11866           0.0000000000
     87113     13226  TIP3      H2            -36.4381794307      -37.6469590059      -63.9126595973  TIP3      11866           0.0000000000
     87114     13227  TIP3      OH2           -30.3558671793      -22.6877575140      -63.8361699312  TIP3      11867           0.0000000000
     87115     13227  TIP3      H1            -29.4547283156      -22.4144148138      -64.0759485916  TIP3      11867           0.0000000000
     87116     13227  TIP3      H2            -30.5591945083      -23.1882010513      -64.6643141351  TIP3      11867           0.0000000000
     87117     13228  TIP3      OH2           -37.4495541075      -22.9877453445      -65.2520551126  TIP3      11868           0.0000000000
     87118     13228  TIP3      H1            -37.6826014839      -22.7204808949      -64.3479173704  TIP3      11868           0.0000000000
     87119     13228  TIP3      H2            -36.6491409792      -23.5252907870      -65.1020925466  TIP3      11868           0.0000000000
     87120     13229  TIP3      OH2           -11.2747174335      -32.7733075598      -64.5559293686  TIP3      11869           0.0000000000
     87121     13229  TIP3      H1            -10.5479187761      -32.7443193494      -63.9070807999  TIP3      11869           0.0000000000
     87122     13229  TIP3      H2            -10.9237951815      -33.4441502530      -65.1650671647  TIP3      11869           0.0000000000
     87123     13230  TIP3      OH2            -8.9913184823      -31.9012458449      -62.9722160914  TIP3      11870           0.0000000000
     87124     13230  TIP3      H1             -8.4418626281      -31.6974300385      -62.2156951068  TIP3      11870           0.0000000000
     87125     13230  TIP3      H2             -8.5768229752      -31.3945407467      -63.6985517771  TIP3      11870           0.0000000000
     87126     13231  TIP3      OH2            -5.2766911281      -40.0772509105      -63.0255453531  TIP3      11871           0.0000000000
     87127     13231  TIP3      H1             -6.2167657690      -40.0429676691      -62.8431665067  TIP3      11871           0.0000000000
     87128     13231  TIP3      H2             -5.0778017324      -39.2589331910      -63.5008639225  TIP3      11871           0.0000000000
     87129     13232  TIP3      OH2            -3.9523817659      -25.7969843304      -64.6750348639  TIP3      11872           0.0000000000
     87130     13232  TIP3      H1             -3.8297371817      -24.8355456018      -64.4849458823  TIP3      11872           0.0000000000
     87131     13232  TIP3      H2             -3.0201828635      -26.0835203718      -64.6738603529  TIP3      11872           0.0000000000
     87132     13233  TIP3      OH2            -8.7090045103      -22.9827247217      -64.0227329125  TIP3      11873           0.0000000000
     87133     13233  TIP3      H1             -8.3530063762      -23.7345557524      -64.5371599730  TIP3      11873           0.0000000000
     87134     13233  TIP3      H2             -8.6819905169      -23.3214713244      -63.1156988389  TIP3      11873           0.0000000000
     87135     13234  TIP3      OH2            -7.5350290774      -30.8474397855      -65.2001409709  TIP3      11874           0.0000000000
     87136     13234  TIP3      H1             -7.5631462195      -31.0795412754      -66.1640753273  TIP3      11874           0.0000000000
     87137     13234  TIP3      H2             -6.6627714445      -30.4378482963      -65.1367373383  TIP3      11874           0.0000000000
     87138     13235  TIP3      OH2           -11.8814145420      -37.0247166307      -64.5727528888  TIP3      11875           0.0000000000
     87139     13235  TIP3      H1            -12.2765759571      -36.9742731730      -63.7033921607  TIP3      11875           0.0000000000
     87140     13235  TIP3      H2            -12.2590390584      -37.8386760842      -64.9532669641  TIP3      11875           0.0000000000
     87141     13236  TIP3      OH2           -15.1353408590      -36.5891597905      -65.5507060220  TIP3      11876           0.0000000000
     87142     13236  TIP3      H1            -15.5862565909      -36.9530652866      -64.7666691626  TIP3      11876           0.0000000000
     87143     13236  TIP3      H2            -15.8284788930      -36.1355365047      -66.0397007005  TIP3      11876           0.0000000000
     87144     13237  TIP3      OH2           -20.6156629564      -36.1470066960      -63.1190665750  TIP3      11877           0.0000000000
     87145     13237  TIP3      H1            -20.0743321896      -35.4908816994      -63.5970670868  TIP3      11877           0.0000000000
     87146     13237  TIP3      H2            -21.2503128962      -35.5293156896      -62.6971736530  TIP3      11877           0.0000000000
     87147     13238  TIP3      OH2           -16.4351056143      -33.8066763847      -64.0807888278  TIP3      11878           0.0000000000
     87148     13238  TIP3      H1            -16.9915904594      -34.1400387014      -64.8073578674  TIP3      11878           0.0000000000
     87149     13238  TIP3      H2            -15.6350931700      -33.5743770098      -64.5668719123  TIP3      11878           0.0000000000
     87150     13239  TIP3      OH2            -9.2536605510      -36.4165873821      -64.0369975371  TIP3      11879           0.0000000000
     87151     13239  TIP3      H1            -10.2099147406      -36.2610029704      -64.1641344534  TIP3      11879           0.0000000000
     87152     13239  TIP3      H2             -8.9315705381      -35.5915360636      -63.6304092607  TIP3      11879           0.0000000000
     87153     13240  TIP3      OH2            -8.5257658026      -34.4478603049      -62.3322543096  TIP3      11880           0.0000000000
     87154     13240  TIP3      H1             -7.6181373113      -34.6640353033      -62.0806690192  TIP3      11880           0.0000000000
     87155     13240  TIP3      H2             -8.4478564442      -33.6918382891      -62.9341464703  TIP3      11880           0.0000000000
     87156     13241  TIP3      OH2           -10.9939088026      -27.7705612654      -63.1914560572  TIP3      11881           0.0000000000
     87157     13241  TIP3      H1            -11.3174842685      -26.9200495292      -62.8185711792  TIP3      11881           0.0000000000
     87158     13241  TIP3      H2            -11.6976049107      -28.3793878667      -62.9369323393  TIP3      11881           0.0000000000
     87159     13242  TIP3      OH2            -3.6700211773      -34.3183791605      -62.5799501954  TIP3      11882           0.0000000000
     87160     13242  TIP3      H1             -4.1883482603      -34.6778639295      -63.3316405079  TIP3      11882           0.0000000000
     87161     13242  TIP3      H2             -3.5549979070      -33.4037778416      -62.9028818378  TIP3      11882           0.0000000000
     87162     13243  TIP3      OH2           -19.8846367993      -31.4983096538      -64.4967748956  TIP3      11883           0.0000000000
     87163     13243  TIP3      H1            -19.2744927030      -30.9119170772      -63.9978605262  TIP3      11883           0.0000000000
     87164     13243  TIP3      H2            -20.7547498404      -31.2266875460      -64.1540295105  TIP3      11883           0.0000000000
     87165     13244  TIP3      OH2            -7.8595886653      -27.4410605350      -64.3890107571  TIP3      11884           0.0000000000
     87166     13244  TIP3      H1             -7.6140464471      -27.8772469816      -63.5560488627  TIP3      11884           0.0000000000
     87167     13244  TIP3      H2             -8.8302406132      -27.6059723709      -64.2946784092  TIP3      11884           0.0000000000
     87168     13245  TIP3      OH2            -3.5097668107      -23.1050823822      -64.1858436725  TIP3      11885           0.0000000000
     87169     13245  TIP3      H1             -2.7167561273      -22.5243517166      -64.2093623687  TIP3      11885           0.0000000000
     87170     13245  TIP3      H2             -4.1416151301      -22.4517246348      -63.8192996579  TIP3      11885           0.0000000000
     87171     13246  TIP3      OH2           -13.7869288782      -26.4101761317      -65.8572390495  TIP3      11886           0.0000000000
     87172     13246  TIP3      H1            -13.6352524678      -27.1575250438      -66.4550770351  TIP3      11886           0.0000000000
     87173     13246  TIP3      H2            -14.1948816483      -26.8365415796      -65.0713721928  TIP3      11886           0.0000000000
     87174     13247  TIP3      OH2           -14.9754092051      -26.8969566552      -63.4468597730  TIP3      11887           0.0000000000
     87175     13247  TIP3      H1            -14.7326043039      -27.3717026240      -62.6420278089  TIP3      11887           0.0000000000
     87176     13247  TIP3      H2            -14.8612155889      -25.9733415480      -63.1336999385  TIP3      11887           0.0000000000
     87177     13248  TIP3      OH2           -18.5242509824      -29.5993329417      -63.0049813401  TIP3      11888           0.0000000000
     87178     13248  TIP3      H1            -19.1434981899      -29.2664134205      -62.3585481447  TIP3      11888           0.0000000000
     87179     13248  TIP3      H2            -17.9340100784      -28.8589416542      -63.2248642573  TIP3      11888           0.0000000000
     87180     13249  TIP3      OH2           -12.2065067453      -25.1686527372      -62.6890224443  TIP3      11889           0.0000000000
     87181     13249  TIP3      H1            -13.0372657722      -24.6577028476      -62.6526552557  TIP3      11889           0.0000000000
     87182     13249  TIP3      H2            -11.6824688074      -24.6575817314      -63.3317519881  TIP3      11889           0.0000000000
     87183     13250  TIP3      OH2           -14.7998124008      -24.1618487091      -62.6639868958  TIP3      11890           0.0000000000
     87184     13250  TIP3      H1            -14.7149009093      -23.3677291404      -63.2443234683  TIP3      11890           0.0000000000
     87185     13250  TIP3      H2            -15.0343649714      -23.7603179770      -61.8209926061  TIP3      11890           0.0000000000
     87186     13251  TIP3      OH2           -16.1491877164      -37.4406083060      -63.1644235475  TIP3      11891           0.0000000000
     87187     13251  TIP3      H1            -16.2215028849      -36.5611956230      -62.7612467238  TIP3      11891           0.0000000000
     87188     13251  TIP3      H2            -15.2701857158      -37.6958081243      -62.8614924324  TIP3      11891           0.0000000000
     87189     13252  TIP3      OH2           -17.8782745257      -26.9845120370      -64.0486168522  TIP3      11892           0.0000000000
     87190     13252  TIP3      H1            -17.2221341235      -26.3395757525      -63.7600855825  TIP3      11892           0.0000000000
     87191     13252  TIP3      H2            -17.3731478737      -27.4542887204      -64.7403852382  TIP3      11892           0.0000000000
     87192     13253  TIP3      OH2           -19.5549323248      -34.3230754581      -64.9291990000  TIP3      11893           0.0000000000
     87193     13253  TIP3      H1            -19.5550438185      -33.3658405063      -64.7235284663  TIP3      11893           0.0000000000
     87194     13253  TIP3      H2            -20.4518661166      -34.5148654062      -65.2011915892  TIP3      11893           0.0000000000
     87195     13254  TIP3      OH2           -11.7870155532      -24.5296984389      -65.6635725615  TIP3      11894           0.0000000000
     87196     13254  TIP3      H1            -12.4856490700      -25.2050118197      -65.5565417536  TIP3      11894           0.0000000000
     87197     13254  TIP3      H2            -11.1120038520      -25.0680393895      -66.0963116998  TIP3      11894           0.0000000000
     87198     13255  TIP3      OH2            -7.4998098821      -24.6116753672      -65.6847660949  TIP3      11895           0.0000000000
     87199     13255  TIP3      H1             -7.3342606706      -25.3069370342      -65.0149046022  TIP3      11895           0.0000000000
     87200     13255  TIP3      H2             -6.6772893579      -24.3498419195      -66.1647472829  TIP3      11895           0.0000000000
     87201     13256  TIP3      OH2           -16.3302131799      -28.8642472159      -65.7115167839  TIP3      11896           0.0000000000
     87202     13256  TIP3      H1            -16.1628226987      -29.6218273391      -65.1271156772  TIP3      11896           0.0000000000
     87203     13256  TIP3      H2            -15.5837902708      -28.9572632983      -66.3327310471  TIP3      11896           0.0000000000
     87204     13257  TIP3      OH2           -10.8287045427      -27.7616896615      -65.9468202765  TIP3      11897           0.0000000000
     87205     13257  TIP3      H1            -11.1573963637      -27.6482520071      -65.0376856988  TIP3      11897           0.0000000000
     87206     13257  TIP3      H2            -11.0836504916      -28.7037362185      -66.1063449161  TIP3      11897           0.0000000000
     87207     13258  TIP3      OH2           -15.1263816515      -30.8530290233      -63.3796717401  TIP3      11898           0.0000000000
     87208     13258  TIP3      H1            -15.5918657222      -31.3462459292      -62.6902934774  TIP3      11898           0.0000000000
     87209     13258  TIP3      H2            -14.8512990873      -31.5339254443      -64.0248072375  TIP3      11898           0.0000000000
     87210     13259  TIP3      OH2           -14.0436201009      -32.5892538931      -65.1586157756  TIP3      11899           0.0000000000
     87211     13259  TIP3      H1            -14.1836563541      -32.8049635583      -66.0899806894  TIP3      11899           0.0000000000
     87212     13259  TIP3      H2            -13.0641915957      -32.5510183371      -65.0613201465  TIP3      11899           0.0000000000
     87213     13260  TIP3      OH2            -4.6840131691      -30.2792780218      -65.6249480958  TIP3      11900           0.0000000000
     87214     13260  TIP3      H1             -4.8757782645      -30.6864129768      -66.4902290823  TIP3      11900           0.0000000000
     87215     13260  TIP3      H2             -4.6076394991      -29.3410584034      -65.9017533484  TIP3      11900           0.0000000000
     87216     13261  TIP3      OH2           -14.1785165411      -21.8982189432      -64.0227825983  TIP3      11901           0.0000000000
     87217     13261  TIP3      H1            -13.2050304536      -21.8313817176      -63.9890741896  TIP3      11901           0.0000000000
     87218     13261  TIP3      H2            -14.3524918329      -21.2897259316      -64.7538569400  TIP3      11901           0.0000000000
     87219     13262  TIP3      OH2           -20.6420614829      -27.3233290251      -64.5877573836  TIP3      11902           0.0000000000
     87220     13262  TIP3      H1            -19.6887022420      -27.2357769220      -64.3746557033  TIP3      11902           0.0000000000
     87221     13262  TIP3      H2            -20.5992622354      -27.9951677059      -65.3023236810  TIP3      11902           0.0000000000
     87222     13263  TIP3      OH2            -3.5375454381      -31.4723972123      -63.4629420930  TIP3      11903           0.0000000000
     87223     13263  TIP3      H1             -4.0417727749      -31.1121565506      -64.2262966920  TIP3      11903           0.0000000000
     87224     13263  TIP3      H2             -3.5796292255      -30.7486994141      -62.8229645096  TIP3      11903           0.0000000000
     87225     13264  TIP3      OH2            -5.1188708631      -34.2135831991      -64.9320042319  TIP3      11904           0.0000000000
     87226     13264  TIP3      H1             -5.0719284155      -33.5653285233      -65.6388512714  TIP3      11904           0.0000000000
     87227     13264  TIP3      H2             -5.3302308281      -35.0435009273      -65.4076766076  TIP3      11904           0.0000000000
     87228     13265  TIP3      OH2            -5.9032565812      -36.7690138271      -65.8005890962  TIP3      11905           0.0000000000
     87229     13265  TIP3      H1             -5.2812722128      -37.2056495581      -65.1850720004  TIP3      11905           0.0000000000
     87230     13265  TIP3      H2             -6.7499721278      -37.2199002114      -65.6130414840  TIP3      11905           0.0000000000
     87231     13266  TIP3      OH2            -3.8167222162      -37.8943913932      -64.2509809873  TIP3      11906           0.0000000000
     87232     13266  TIP3      H1             -3.4384238678      -38.6525247879      -64.7476589539  TIP3      11906           0.0000000000
     87233     13266  TIP3      H2             -3.1047446322      -37.2460565454      -64.1704596015  TIP3      11906           0.0000000000
     87234     13267  TIP3      OH2           -20.1849029994      -39.7863520741      -63.2042816782  TIP3      11907           0.0000000000
     87235     13267  TIP3      H1            -19.7996247649      -39.1185931468      -63.7778390759  TIP3      11907           0.0000000000
     87236     13267  TIP3      H2            -20.8643194927      -39.2869750654      -62.7361572626  TIP3      11907           0.0000000000
     87237     13268  TIP3      OH2           -18.4425498282      -37.9575324325      -64.7303989706  TIP3      11908           0.0000000000
     87238     13268  TIP3      H1            -17.9091363899      -38.5708653463      -65.2654431073  TIP3      11908           0.0000000000
     87239     13268  TIP3      H2            -17.7963401398      -37.6476035566      -64.0667812445  TIP3      11908           0.0000000000
     87240     13269  TIP3      OH2           -11.5175998227      -22.6700845678      -63.8358738051  TIP3      11909           0.0000000000
     87241     13269  TIP3      H1            -10.6060629091      -22.4129603894      -64.0489477393  TIP3      11909           0.0000000000
     87242     13269  TIP3      H2            -11.7054229866      -23.1939729109      -64.6604503760  TIP3      11909           0.0000000000
     87243     13270  TIP3      OH2           -18.5763822483      -22.9542925754      -65.2514389972  TIP3      11910           0.0000000000
     87244     13270  TIP3      H1            -18.8448270566      -22.7297414645      -64.3458669496  TIP3      11910           0.0000000000
     87245     13270  TIP3      H2            -17.8198749721      -23.5618578799      -65.1196263178  TIP3      11910           0.0000000000
     87246     13271  TIP3      OH2             7.5809738267      -32.7676567957      -64.5777329421  TIP3      11911           0.0000000000
     87247     13271  TIP3      H1              8.2866248829      -32.7328098333      -63.9032838903  TIP3      11911           0.0000000000
     87248     13271  TIP3      H2              7.9377167730      -33.4570919827      -65.1514715551  TIP3      11911           0.0000000000
     87249     13272  TIP3      OH2             9.8618382046      -31.9121799301      -62.9561690673  TIP3      11912           0.0000000000
     87250     13272  TIP3      H1             10.4240831088      -31.6891913448      -62.2017378155  TIP3      11912           0.0000000000
     87251     13272  TIP3      H2             10.2796860541      -31.3892914996      -63.6672492308  TIP3      11912           0.0000000000
     87252     13273  TIP3      OH2            13.5741263242      -40.0803512811      -63.0188682130  TIP3      11913           0.0000000000
     87253     13273  TIP3      H1             12.6343044272      -40.0390210118      -62.8455085420  TIP3      11913           0.0000000000
     87254     13273  TIP3      H2             13.7946433554      -39.2713356384      -63.5067121483  TIP3      11913           0.0000000000
     87255     13274  TIP3      OH2            14.7301744158      -25.7503600513      -64.8316618050  TIP3      11914           0.0000000000
     87256     13274  TIP3      H1             14.8782600668      -24.8310816607      -64.5470414370  TIP3      11914           0.0000000000
     87257     13274  TIP3      H2             15.6348752424      -26.0927436230      -64.7103133897  TIP3      11914           0.0000000000
     87258     13275  TIP3      OH2            10.1517407729      -23.0161209178      -64.0447296016  TIP3      11915           0.0000000000
     87259     13275  TIP3      H1             10.5614524264      -23.7677977325      -64.5273048623  TIP3      11915           0.0000000000
     87260     13275  TIP3      H2             10.2025900366      -23.3338834382      -63.1301382242  TIP3      11915           0.0000000000
     87261     13276  TIP3      OH2            11.3157603783      -30.8919651766      -65.2652032239  TIP3      11916           0.0000000000
     87262     13276  TIP3      H1             11.3645499380      -31.0561284145      -66.2174021410  TIP3      11916           0.0000000000
     87263     13276  TIP3      H2             12.1542081416      -30.4178217785      -65.0895771138  TIP3      11916           0.0000000000
     87264     13277  TIP3      OH2             6.9194972629      -36.9886231944      -64.6447761580  TIP3      11917           0.0000000000
     87265     13277  TIP3      H1              6.6110480367      -36.9692337131      -63.7299571789  TIP3      11917           0.0000000000
     87266     13277  TIP3      H2              6.6185160016      -37.8611571216      -64.9490734649  TIP3      11917           0.0000000000
     87267     13278  TIP3      OH2             3.7052833926      -36.6198094511      -65.5706985416  TIP3      11918           0.0000000000
     87268     13278  TIP3      H1              3.2851351504      -36.9508469552      -64.7527917627  TIP3      11918           0.0000000000
     87269     13278  TIP3      H2              3.0154845114      -36.1124405744      -66.0207190822  TIP3      11918           0.0000000000
     87270     13279  TIP3      OH2            -1.7506916642      -36.1590313064      -63.1212037239  TIP3      11919           0.0000000000
     87271     13279  TIP3      H1             -1.2214986061      -35.4970675457      -63.6086017910  TIP3      11919           0.0000000000
     87272     13279  TIP3      H2             -2.3917210977      -35.5424454308      -62.7082652825  TIP3      11919           0.0000000000
     87273     13280  TIP3      OH2             2.4316501888      -33.8281893845      -64.0940831757  TIP3      11920           0.0000000000
     87274     13280  TIP3      H1              1.8589114265      -34.1122872188      -64.8268983314  TIP3      11920           0.0000000000
     87275     13280  TIP3      H2              3.2194294858      -33.5574130518      -64.5856341130  TIP3      11920           0.0000000000
     87276     13281  TIP3      OH2             9.5997224722      -36.4236088514      -64.0433349892  TIP3      11921           0.0000000000
     87277     13281  TIP3      H1              8.6478679164      -36.2582230974      -64.1515589801  TIP3      11921           0.0000000000
     87278     13281  TIP3      H2              9.9218843807      -35.5963067858      -63.6323435451  TIP3      11921           0.0000000000
     87279     13282  TIP3      OH2            10.3168924537      -34.4769666017      -62.3608118746  TIP3      11922           0.0000000000
     87280     13282  TIP3      H1             11.2263038348      -34.6416592885      -62.0724093582  TIP3      11922           0.0000000000
     87281     13282  TIP3      H2             10.3981464107      -33.6674399670      -62.8871403378  TIP3      11922           0.0000000000
     87282     13283  TIP3      OH2             7.8426586715      -27.7671856202      -63.1878356488  TIP3      11923           0.0000000000
     87283     13283  TIP3      H1              7.5229644016      -26.9203689192      -62.8025826807  TIP3      11923           0.0000000000
     87284     13283  TIP3      H2              7.1451799102      -28.3814644482      -62.9330281741  TIP3      11923           0.0000000000
     87285     13284  TIP3      OH2            15.2165834831      -34.3306744564      -62.5947137713  TIP3      11924           0.0000000000
     87286     13284  TIP3      H1             14.6602259639      -34.6602270171      -63.3305845007  TIP3      11924           0.0000000000
     87287     13284  TIP3      H2             15.2963709608      -33.3951036464      -62.8757470799  TIP3      11924           0.0000000000
     87288     13285  TIP3      OH2            -1.0160556502      -31.4948793500      -64.4906658112  TIP3      11925           0.0000000000
     87289     13285  TIP3      H1             -0.4133099648      -30.9161960483      -63.9765625284  TIP3      11925           0.0000000000
     87290     13285  TIP3      H2             -1.8958041115      -31.2313024986      -64.1591751481  TIP3      11925           0.0000000000
     87291     13286  TIP3      OH2            10.9558167797      -27.5006571468      -64.3893604760  TIP3      11926           0.0000000000
     87292     13286  TIP3      H1             11.2872062131      -27.8627879314      -63.5518842494  TIP3      11926           0.0000000000
     87293     13286  TIP3      H2             10.0010845067      -27.6311929821      -64.2582888567  TIP3      11926           0.0000000000
     87294     13287  TIP3      OH2            15.3834118326      -23.0955270163      -64.1686894740  TIP3      11927           0.0000000000
     87295     13287  TIP3      H1             16.1454130670      -22.4892105278      -64.2137432794  TIP3      11927           0.0000000000
     87296     13287  TIP3      H2             14.7019461967      -22.4797170483      -63.8294251892  TIP3      11927           0.0000000000
     87297     13288  TIP3      OH2             5.0991734026      -26.4017937645      -65.8739535650  TIP3      11928           0.0000000000
     87298     13288  TIP3      H1              5.2046515309      -27.1707702988      -66.4542211875  TIP3      11928           0.0000000000
     87299     13288  TIP3      H2              4.6654442500      -26.8233251541      -65.0939385596  TIP3      11928           0.0000000000
     87300     13289  TIP3      OH2             3.8930614075      -26.8900899548      -63.4443311613  TIP3      11929           0.0000000000
     87301     13289  TIP3      H1              4.1252121862      -27.3686887088      -62.6392154565  TIP3      11929           0.0000000000
     87302     13289  TIP3      H2              3.9855454272      -25.9657971451      -63.1280933565  TIP3      11929           0.0000000000
     87303     13290  TIP3      OH2             0.3405119140      -29.6046533522      -62.9982444656  TIP3      11930           0.0000000000
     87304     13290  TIP3      H1             -0.2875463070      -29.2682203847      -62.3603532397  TIP3      11930           0.0000000000
     87305     13290  TIP3      H2              0.9118104879      -28.8512772026      -63.2280893517  TIP3      11930           0.0000000000
     87306     13291  TIP3      OH2             6.6517368246      -25.1721755510      -62.6799265116  TIP3      11931           0.0000000000
     87307     13291  TIP3      H1              5.8233362620      -24.6594369072      -62.6717037681  TIP3      11931           0.0000000000
     87308     13291  TIP3      H2              7.1874699519      -24.6540774455      -63.3037590106  TIP3      11931           0.0000000000
     87309     13292  TIP3      OH2             4.0734994707      -24.1589204557      -62.6867221643  TIP3      11932           0.0000000000
     87310     13292  TIP3      H1              4.1370351717      -23.3715344063      -63.2784652937  TIP3      11932           0.0000000000
     87311     13292  TIP3      H2              3.8181678640      -23.7543111962      -61.8486698103  TIP3      11932           0.0000000000
     87312     13293  TIP3      OH2             2.7020243934      -37.4512222055      -63.1533033439  TIP3      11933           0.0000000000
     87313     13293  TIP3      H1              2.6339182170      -36.5633516875      -62.7570025641  TIP3      11933           0.0000000000
     87314     13293  TIP3      H2              3.5899763002      -37.6849550165      -62.8518589634  TIP3      11933           0.0000000000
     87315     13294  TIP3      OH2             0.9859656768      -27.0095805139      -64.0167773055  TIP3      11934           0.0000000000
     87316     13294  TIP3      H1              1.6222755467      -26.3232558376      -63.7801947805  TIP3      11934           0.0000000000
     87317     13294  TIP3      H2              1.4737805773      -27.4365045104      -64.7476442824  TIP3      11934           0.0000000000
     87318     13295  TIP3      OH2            -0.6841116869      -34.3228614366      -64.9434578942  TIP3      11935           0.0000000000
     87319     13295  TIP3      H1             -0.6963944392      -33.3690060498      -64.7131940827  TIP3      11935           0.0000000000
     87320     13295  TIP3      H2             -1.5934497162      -34.5046576014      -65.1866607483  TIP3      11935           0.0000000000
     87321     13296  TIP3      OH2             7.0848304595      -24.5371138232      -65.7546795277  TIP3      11936           0.0000000000
     87322     13296  TIP3      H1              6.3937253749      -25.1967873199      -65.5222019708  TIP3      11936           0.0000000000
     87323     13296  TIP3      H2              7.8009293855      -25.1266658453      -66.0349556548  TIP3      11936           0.0000000000
     87324     13297  TIP3      OH2            11.6351436266      -24.7763260387      -65.6073623689  TIP3      11937           0.0000000000
     87325     13297  TIP3      H1             11.9328403006      -25.5376460025      -65.0799826537  TIP3      11937           0.0000000000
     87326     13297  TIP3      H2             12.4239922125      -24.5642057917      -66.1314333787  TIP3      11937           0.0000000000
     87327     13298  TIP3      OH2             2.5241748927      -28.8666155167      -65.7305131073  TIP3      11938           0.0000000000
     87328     13298  TIP3      H1              2.6969155508      -29.6228446534      -65.1458231123  TIP3      11938           0.0000000000
     87329     13298  TIP3      H2              3.2732200937      -28.9674200304      -66.3527646619  TIP3      11938           0.0000000000
     87330     13299  TIP3      OH2             7.9969602824      -27.7471550519      -65.9332427315  TIP3      11939           0.0000000000
     87331     13299  TIP3      H1              7.6984619891      -27.6511442598      -65.0132293347  TIP3      11939           0.0000000000
     87332     13299  TIP3      H2              7.7695321779      -28.6946063011      -66.1063925789  TIP3      11939           0.0000000000
     87333     13300  TIP3      OH2             3.7352492539      -30.8528457494      -63.3801485439  TIP3      11940           0.0000000000
     87334     13300  TIP3      H1              3.2633185934      -31.3468672739      -62.6969196957  TIP3      11940           0.0000000000
     87335     13300  TIP3      H2              4.0107728063      -31.5313886195      -64.0251464521  TIP3      11940           0.0000000000
     87336     13301  TIP3      OH2             4.8177651875      -32.6592861484      -65.1310129899  TIP3      11941           0.0000000000
     87337     13301  TIP3      H1              4.6700307242      -32.7058419423      -66.1001059267  TIP3      11941           0.0000000000
     87338     13301  TIP3      H2              5.7898690886      -32.5406499477      -65.0629678615  TIP3      11941           0.0000000000
     87339     13302  TIP3      OH2            14.1772910641      -30.2738884637      -65.6601189725  TIP3      11942           0.0000000000
     87340     13302  TIP3      H1             13.9705808734      -30.6771144294      -66.5078403053  TIP3      11942           0.0000000000
     87341     13302  TIP3      H2             14.2360324586      -29.3227663407      -65.8974641573  TIP3      11942           0.0000000000
     87342     13303  TIP3      OH2             4.6853839522      -21.8902309018      -64.0115094046  TIP3      11943           0.0000000000
     87343     13303  TIP3      H1              5.6567660592      -21.8205931009      -63.9946773726  TIP3      11943           0.0000000000
     87344     13303  TIP3      H2              4.4876105913      -21.3201220995      -64.7706588845  TIP3      11943           0.0000000000
     87345     13304  TIP3      OH2            -1.7916591052      -27.3283248440      -64.5926639726  TIP3      11944           0.0000000000
     87346     13304  TIP3      H1             -0.8353636885      -27.2365496958      -64.3755624553  TIP3      11944           0.0000000000
     87347     13304  TIP3      H2             -1.7310310926      -27.9984035147      -65.3074178707  TIP3      11944           0.0000000000
     87348     13305  TIP3      OH2            15.3687736403      -31.4675676367      -63.5080952306  TIP3      11945           0.0000000000
     87349     13305  TIP3      H1             14.7910158448      -31.0781154326      -64.1979036442  TIP3      11945           0.0000000000
     87350     13305  TIP3      H2             15.1973290644      -30.8102652356      -62.7911052579  TIP3      11945           0.0000000000
     87351     13306  TIP3      OH2            13.7202480662      -34.2297906586      -64.9122611370  TIP3      11946           0.0000000000
     87352     13306  TIP3      H1             13.8027241541      -33.5611241014      -65.5976752882  TIP3      11946           0.0000000000
     87353     13306  TIP3      H2             13.5452759795      -35.0519654151      -65.4185337492  TIP3      11946           0.0000000000
     87354     13307  TIP3      OH2            12.9447046968      -36.7694659146      -65.7825243148  TIP3      11947           0.0000000000
     87355     13307  TIP3      H1             13.5801073721      -37.2135371626      -65.1926516847  TIP3      11947           0.0000000000
     87356     13307  TIP3      H2             12.1127390755      -37.2417810377      -65.6100681082  TIP3      11947           0.0000000000
     87357     13308  TIP3      OH2            15.0363269933      -37.8985842321      -64.2488052562  TIP3      11948           0.0000000000
     87358     13308  TIP3      H1             15.4187962486      -38.6445585706      -64.7663121568  TIP3      11948           0.0000000000
     87359     13308  TIP3      H2             15.7624370370      -37.2616719307      -64.1850331755  TIP3      11948           0.0000000000
     87360     13309  TIP3      OH2            -1.3034289759      -39.7916575270      -63.2454598959  TIP3      11949           0.0000000000
     87361     13309  TIP3      H1             -0.9493084873      -39.0516396929      -63.7396807728  TIP3      11949           0.0000000000
     87362     13309  TIP3      H2             -1.9990836661      -39.3262498847      -62.7359202724  TIP3      11949           0.0000000000
     87363     13310  TIP3      OH2             0.4132361432      -38.0114312068      -64.7245917098  TIP3      11950           0.0000000000
     87364     13310  TIP3      H1              1.0054022488      -38.5348202642      -65.2521917667  TIP3      11950           0.0000000000
     87365     13310  TIP3      H2              1.0186555459      -37.6366128352      -64.0464476233  TIP3      11950           0.0000000000
     87366     13311  TIP3      OH2             7.3500587824      -22.6890202474      -63.8256540579  TIP3      11951           0.0000000000
     87367     13311  TIP3      H1              8.2529303290      -22.4130039142      -64.0522328862  TIP3      11951           0.0000000000
     87368     13311  TIP3      H2              7.1380246212      -23.1855362020      -64.6526215657  TIP3      11951           0.0000000000
     87369     13312  TIP3      OH2             0.2445098628      -22.9840126724      -65.2194674265  TIP3      11952           0.0000000000
     87370     13312  TIP3      H1              0.0282252478      -22.7308563704      -64.3190870506  TIP3      11952           0.0000000000
     87371     13312  TIP3      H2              1.0479900770      -23.5312664857      -65.1418054738  TIP3      11952           0.0000000000
     87372     13313  TIP3      OH2            26.4336481392      -32.7739282957      -64.5655901485  TIP3      11953           0.0000000000
     87373     13313  TIP3      H1             27.1505248351      -32.7337945982      -63.8998527442  TIP3      11953           0.0000000000
     87374     13313  TIP3      H2             26.7972322404      -33.4560950390      -65.1450455574  TIP3      11953           0.0000000000
     87375     13314  TIP3      OH2            28.7237815251      -31.9046534223      -62.9675834350  TIP3      11954           0.0000000000
     87376     13314  TIP3      H1             29.2715436638      -31.6936997969      -62.2106894757  TIP3      11954           0.0000000000
     87377     13314  TIP3      H2             29.1381450810      -31.3988481789      -63.6952507883  TIP3      11954           0.0000000000
     87378     13315  TIP3      OH2            32.4302430627      -40.0756215187      -63.0160969875  TIP3      11955           0.0000000000
     87379     13315  TIP3      H1             31.4901320961      -40.0397602830      -62.8460050222  TIP3      11955           0.0000000000
     87380     13315  TIP3      H2             32.6488173184      -39.2698148972      -63.5081188696  TIP3      11955           0.0000000000
     87381     13316  TIP3      OH2            33.5839281804      -25.7764302521      -64.8075065727  TIP3      11956           0.0000000000
     87382     13316  TIP3      H1             33.7222250966      -24.8472230556      -64.5481231088  TIP3      11956           0.0000000000
     87383     13316  TIP3      H2             34.5033760828      -26.0792631130      -64.7190505071  TIP3      11956           0.0000000000
     87384     13317  TIP3      OH2            29.0085643148      -23.0139912394      -64.0332967798  TIP3      11957           0.0000000000
     87385     13317  TIP3      H1             29.4157703865      -23.7658182576      -64.5186198360  TIP3      11957           0.0000000000
     87386     13317  TIP3      H2             29.0615653363      -23.3346202693      -63.1233795968  TIP3      11957           0.0000000000
     87387     13318  TIP3      OH2            30.1966812203      -30.8788838864      -65.1877676948  TIP3      11958           0.0000000000
     87388     13318  TIP3      H1             30.1570863677      -31.0561013199      -66.1581496457  TIP3      11958           0.0000000000
     87389     13318  TIP3      H2             31.0432907315      -30.4112018529      -65.1357760552  TIP3      11958           0.0000000000
     87390     13319  TIP3      OH2            25.8018328586      -37.0024035576      -64.6283457538  TIP3      11959           0.0000000000
     87391     13319  TIP3      H1             25.4559376767      -36.9730758709      -63.7314414633  TIP3      11959           0.0000000000
     87392     13319  TIP3      H2             25.4483771461      -37.8575665369      -64.9534582884  TIP3      11959           0.0000000000
     87393     13320  TIP3      OH2            22.5909388038      -36.5254371911      -65.5228334423  TIP3      11960           0.0000000000
     87394     13320  TIP3      H1             22.1432664675      -36.9710834337      -64.7724487683  TIP3      11960           0.0000000000
     87395     13320  TIP3      H2             21.8592840518      -36.1634682472      -66.0396171755  TIP3      11960           0.0000000000
     87396     13321  TIP3      OH2            17.1135296976      -36.1481152695      -63.0952263075  TIP3      11961           0.0000000000
     87397     13321  TIP3      H1             17.6359756624      -35.5046480657      -63.6137796176  TIP3      11961           0.0000000000
     87398     13321  TIP3      H2             16.4617002219      -35.5345121455      -62.6986451679  TIP3      11961           0.0000000000
     87399     13322  TIP3      OH2            21.2659592240      -33.8253468616      -64.0926651358  TIP3      11962           0.0000000000
     87400     13322  TIP3      H1             20.7102433747      -34.1297920323      -64.8321247753  TIP3      11962           0.0000000000
     87401     13322  TIP3      H2             22.0683928492      -33.5712217567      -64.5658405967  TIP3      11962           0.0000000000
     87402     13323  TIP3      OH2            28.4543376878      -36.4194254476      -64.0374376564  TIP3      11963           0.0000000000
     87403     13323  TIP3      H1             27.4988523088      -36.2583108982      -64.1361295443  TIP3      11963           0.0000000000
     87404     13323  TIP3      H2             28.7797772033      -35.5952921153      -63.6250427442  TIP3      11963           0.0000000000
     87405     13324  TIP3      OH2            29.1757525955      -34.4536073846      -62.3480989035  TIP3      11964           0.0000000000
     87406     13324  TIP3      H1             30.0825499251      -34.6637155696      -62.0815130822  TIP3      11964           0.0000000000
     87407     13324  TIP3      H2             29.2625646123      -33.6824678287      -62.9287764881  TIP3      11964           0.0000000000
     87408     13325  TIP3      OH2            26.6892130754      -27.7668853263      -63.2106356221  TIP3      11965           0.0000000000
     87409     13325  TIP3      H1             26.3982550717      -26.9247233282      -62.7944468059  TIP3      11965           0.0000000000
     87410     13325  TIP3      H2             26.0025374735      -28.3825118056      -62.9282602335  TIP3      11965           0.0000000000
     87411     13326  TIP3      OH2            34.0346245437      -34.3146485822      -62.5775758324  TIP3      11966           0.0000000000
     87412     13326  TIP3      H1             33.5219391283      -34.6775284812      -63.3315867443  TIP3      11966           0.0000000000
     87413     13326  TIP3      H2             34.1554662973      -33.4026318393      -62.9036103849  TIP3      11966           0.0000000000
     87414     13327  TIP3      OH2            17.8445131831      -31.4766296802      -64.5194012422  TIP3      11967           0.0000000000
     87415     13327  TIP3      H1             18.4349869604      -30.9145243043      -63.9756984841  TIP3      11967           0.0000000000
     87416     13327  TIP3      H2             16.9630845504      -31.2449531279      -64.1476641430  TIP3      11967           0.0000000000
     87417     13328  TIP3      OH2            29.8049858714      -27.4947563713      -64.3843289720  TIP3      11968           0.0000000000
     87418     13328  TIP3      H1             30.1153536316      -27.8558633626      -63.5468148004  TIP3      11968           0.0000000000
     87419     13328  TIP3      H2             28.8423861236      -27.6270032611      -64.2848733410  TIP3      11968           0.0000000000
     87420     13329  TIP3      OH2            34.2315394866      -23.0986776659      -64.1633606260  TIP3      11969           0.0000000000
     87421     13329  TIP3      H1             34.9871217242      -22.4845916782      -64.2031052517  TIP3      11969           0.0000000000
     87422     13329  TIP3      H2             33.5549173369      -22.4802042167      -63.8294898613  TIP3      11969           0.0000000000
     87423     13330  TIP3      OH2            23.9221798260      -26.3918777914      -65.8909187846  TIP3      11970           0.0000000000
     87424     13330  TIP3      H1             24.0845445967      -27.1569143036      -66.4561670924  TIP3      11970           0.0000000000
     87425     13330  TIP3      H2             23.5307916651      -26.8198900040      -65.0899071278  TIP3      11970           0.0000000000
     87426     13331  TIP3      OH2            22.7600096869      -26.8770880690      -63.4673010725  TIP3      11971           0.0000000000
     87427     13331  TIP3      H1             22.9731655186      -27.3679823574      -62.6606387668  TIP3      11971           0.0000000000
     87428     13331  TIP3      H2             22.8413446636      -25.9680758565      -63.1127353097  TIP3      11971           0.0000000000
     87429     13332  TIP3      OH2            19.2087039907      -29.6024085076      -62.9954099618  TIP3      11972           0.0000000000
     87430     13332  TIP3      H1             18.5552124419      -29.2797264640      -62.3712709188  TIP3      11972           0.0000000000
     87431     13332  TIP3      H2             19.7744020993      -28.8473974534      -63.2174329907  TIP3      11972           0.0000000000
     87432     13333  TIP3      OH2            25.4964437378      -25.1709886703      -62.6951731355  TIP3      11973           0.0000000000
     87433     13333  TIP3      H1             24.6747982277      -24.6567794806      -62.6478877699  TIP3      11973           0.0000000000
     87434     13333  TIP3      H2             26.0489899518      -24.6513497232      -63.2998901983  TIP3      11973           0.0000000000
     87435     13334  TIP3      OH2            22.9027338313      -24.1570156870      -62.6918638896  TIP3      11974           0.0000000000
     87436     13334  TIP3      H1             23.0023812460      -23.3550268210      -63.2416623398  TIP3      11974           0.0000000000
     87437     13334  TIP3      H2             22.6864287023      -23.7821262694      -61.8240248701  TIP3      11974           0.0000000000
     87438     13335  TIP3      OH2            21.5567377590      -37.4485263129      -63.1449345195  TIP3      11975           0.0000000000
     87439     13335  TIP3      H1             21.4953706577      -36.5614985777      -62.7577986504  TIP3      11975           0.0000000000
     87440     13335  TIP3      H2             22.4481519927      -37.7063328822      -62.8811165713  TIP3      11975           0.0000000000
     87441     13336  TIP3      OH2            19.8343911671      -26.9956942416      -64.0557190613  TIP3      11976           0.0000000000
     87442     13336  TIP3      H1             20.4780506647      -26.3477591789      -63.7450542327  TIP3      11976           0.0000000000
     87443     13336  TIP3      H2             20.3500358366      -27.4518993716      -64.7461391134  TIP3      11976           0.0000000000
     87444     13337  TIP3      OH2            18.1666385395      -34.3209828657      -64.8983811389  TIP3      11977           0.0000000000
     87445     13337  TIP3      H1             18.1561385501      -33.3605774347      -64.7229351814  TIP3      11977           0.0000000000
     87446     13337  TIP3      H2             17.2765813502      -34.5156781708      -65.2063638096  TIP3      11977           0.0000000000
     87447     13338  TIP3      OH2            25.9128549450      -24.5355686468      -65.7551542960  TIP3      11978           0.0000000000
     87448     13338  TIP3      H1             25.2623155521      -25.2286386170      -65.5106677361  TIP3      11978           0.0000000000
     87449     13338  TIP3      H2             26.6593542937      -25.1073244610      -66.0132336142  TIP3      11978           0.0000000000
     87450     13339  TIP3      OH2            30.4897709714      -24.7892865909      -65.6146846659  TIP3      11979           0.0000000000
     87451     13339  TIP3      H1             30.7890610898      -25.5404578700      -65.0766402363  TIP3      11979           0.0000000000
     87452     13339  TIP3      H2             31.2926108718      -24.5647462465      -66.1112122686  TIP3      11979           0.0000000000
     87453     13340  TIP3      OH2            21.3953735185      -28.8636054927      -65.7237428388  TIP3      11980           0.0000000000
     87454     13340  TIP3      H1             21.5443519803      -29.6252690921      -65.1360342239  TIP3      11980           0.0000000000
     87455     13340  TIP3      H2             22.0970634225      -28.9829908244      -66.3732075769  TIP3      11980           0.0000000000
     87456     13341  TIP3      OH2            26.8264610084      -27.7404762439      -65.9559739840  TIP3      11981           0.0000000000
     87457     13341  TIP3      H1             26.5871712324      -27.6608870995      -65.0135644158  TIP3      11981           0.0000000000
     87458     13341  TIP3      H2             26.6376232360      -28.7020280893      -66.1118442460  TIP3      11981           0.0000000000
     87459     13342  TIP3      OH2            22.5856551077      -30.8539241229      -63.3883729408  TIP3      11982           0.0000000000
     87460     13342  TIP3      H1             22.1249287197      -31.3491298557      -62.6924913691  TIP3      11982           0.0000000000
     87461     13342  TIP3      H2             22.8646752646      -31.5346734132      -64.0320870904  TIP3      11982           0.0000000000
     87462     13343  TIP3      OH2            23.6734029792      -32.6440390577      -65.1418601541  TIP3      11983           0.0000000000
     87463     13343  TIP3      H1             23.5276261511      -32.7638105999      -66.0924103930  TIP3      11983           0.0000000000
     87464     13343  TIP3      H2             24.6491612771      -32.5307650076      -65.0798966588  TIP3      11983           0.0000000000
     87465     13344  TIP3      OH2            33.0278801273      -30.2623508904      -65.6419237775  TIP3      11984           0.0000000000
     87466     13344  TIP3      H1             32.8248075700      -30.6651319677      -66.5027491676  TIP3      11984           0.0000000000
     87467     13344  TIP3      H2             33.0929975848      -29.3136079488      -65.8901209570  TIP3      11984           0.0000000000
     87468     13345  TIP3      OH2            23.5503955728      -21.9246130055      -64.0770489283  TIP3      11985           0.0000000000
     87469     13345  TIP3      H1             24.5227574261      -21.8389630388      -63.9263468947  TIP3      11985           0.0000000000
     87470     13345  TIP3      H2             23.4031765992      -21.1407907566      -64.6173647753  TIP3      11985           0.0000000000
     87471     13346  TIP3      OH2            17.0965073285      -27.2752117651      -64.6020049579  TIP3      11986           0.0000000000
     87472     13346  TIP3      H1             18.0496366230      -27.2243035779      -64.3788639588  TIP3      11986           0.0000000000
     87473     13346  TIP3      H2             17.1125226626      -27.9842657536      -65.2780290627  TIP3      11986           0.0000000000
     87474     13347  TIP3      OH2            34.1720358055      -31.4676031585      -63.4686761348  TIP3      11987           0.0000000000
     87475     13347  TIP3      H1             33.6671688415      -31.0933348375      -64.2267936334  TIP3      11987           0.0000000000
     87476     13347  TIP3      H2             34.1331520372      -30.7503661248      -62.8214816747  TIP3      11987           0.0000000000
     87477     13348  TIP3      OH2            32.5890293782      -34.2133321103      -64.9374442575  TIP3      11988           0.0000000000
     87478     13348  TIP3      H1             32.6421628829      -33.5699024531      -65.6500635606  TIP3      11988           0.0000000000
     87479     13348  TIP3      H2             32.3842264502      -35.0489478045      -65.4083146104  TIP3      11988           0.0000000000
     87480     13349  TIP3      OH2            31.8016408916      -36.7618699126      -65.7907930707  TIP3      11989           0.0000000000
     87481     13349  TIP3      H1             32.4306944451      -37.2067444898      -65.1918255262  TIP3      11989           0.0000000000
     87482     13349  TIP3      H2             30.9670072004      -37.2290008924      -65.6120593261  TIP3      11989           0.0000000000
     87483     13350  TIP3      OH2            33.8879773442      -37.8860793314      -64.2552770161  TIP3      11990           0.0000000000
     87484     13350  TIP3      H1             34.2812961840      -38.6479771363      -64.7469028937  TIP3      11990           0.0000000000
     87485     13350  TIP3      H2             34.6086012952      -37.2494351688      -64.1748320520  TIP3      11990           0.0000000000
     87486     13351  TIP3      OH2            17.5403911028      -39.7871051205      -63.1870527201  TIP3      11991           0.0000000000
     87487     13351  TIP3      H1             17.9077564216      -39.1230269175      -63.7779137036  TIP3      11991           0.0000000000
     87488     13351  TIP3      H2             16.8394916834      -39.2914442690      -62.7478356238  TIP3      11991           0.0000000000
     87489     13352  TIP3      OH2            19.2737714392      -37.9405358432      -64.7284245141  TIP3      11992           0.0000000000
     87490     13352  TIP3      H1             19.7892733727      -38.5807854647      -65.2606298003  TIP3      11992           0.0000000000
     87491     13352  TIP3      H2             19.9104804228      -37.6557960120      -64.0459828402  TIP3      11992           0.0000000000
     87492     13353  TIP3      OH2            26.1737731002      -22.6520753459      -63.8635369532  TIP3      11993           0.0000000000
     87493     13353  TIP3      H1             27.1068673834      -22.4188373880      -64.0278708250  TIP3      11993           0.0000000000
     87494     13353  TIP3      H2             26.0318731424      -23.2142162914      -64.6557823712  TIP3      11993           0.0000000000
     87495     13354  TIP3      OH2            19.1878668686      -22.9159149474      -65.2535383626  TIP3      11994           0.0000000000
     87496     13354  TIP3      H1             18.8485138562      -22.7371783207      -64.3572413161  TIP3      11994           0.0000000000
     87497     13354  TIP3      H2             19.8666922282      -23.5945167918      -65.0998996855  TIP3      11994           0.0000000000
     87498     13355  TIP3      OH2            35.9542383560      -36.1390318542      -63.0860298269  TIP3      11995           0.0000000000
     87499     13355  TIP3      H1             36.4923336344      -35.5021756337      -63.5915635538  TIP3      11995           0.0000000000
     87500     13355  TIP3      H2             35.3026922072      -35.5186090139      -62.7016117423  TIP3      11995           0.0000000000
     87501     13356  TIP3      OH2            40.1387386425      -33.8747299537      -64.1017082262  TIP3      11996           0.0000000000
     87502     13356  TIP3      H1             39.5243715952      -34.0861910226      -64.8354191678  TIP3      11996           0.0000000000
     87503     13356  TIP3      H2             40.8796656195      -33.5057222316      -64.5740546012  TIP3      11996           0.0000000000
     87504     13357  TIP3      OH2            36.7016687722      -31.4813341533      -64.5252717683  TIP3      11997           0.0000000000
     87505     13357  TIP3      H1             37.2994374293      -30.9229292884      -63.9876456015  TIP3      11997           0.0000000000
     87506     13357  TIP3      H2             35.8222096741      -31.2404900970      -64.1726062924  TIP3      11997           0.0000000000
     87507     13358  TIP3      OH2            38.0996199295      -29.6152177997      -62.9589000632  TIP3      11998           0.0000000000
     87508     13358  TIP3      H1             37.4197776542      -29.2880397788      -62.3691271728  TIP3      11998           0.0000000000
     87509     13358  TIP3      H2             38.5941059778      -28.8311573510      -63.2209068961  TIP3      11998           0.0000000000
     87510     13359  TIP3      OH2           -41.1110753703      -37.6282406997      -63.0932137357  TIP3      11999           0.0000000000
     87511     13359  TIP3      H1            -41.1838611919      -36.6980273627      -62.8182872198  TIP3      11999           0.0000000000
     87512     13359  TIP3      H2            -40.1648036634      -37.6614660005      -62.9095927886  TIP3      11999           0.0000000000
     87513     13360  TIP3      OH2            38.7072928494      -26.9977652030      -64.0773861990  TIP3      12000           0.0000000000
     87514     13360  TIP3      H1             39.3481123234      -26.3534689738      -63.7651757588  TIP3      12000           0.0000000000
     87515     13360  TIP3      H2             39.2170963124      -27.4580690962      -64.7623934407  TIP3      12000           0.0000000000
     87516     13361  TIP3      OH2            37.0347021957      -34.3108694471      -64.9390194304  TIP3      12001           0.0000000000
     87517     13361  TIP3      H1             37.0022119571      -33.3592175036      -64.7146430179  TIP3      12001           0.0000000000
     87518     13361  TIP3      H2             36.1294462365      -34.5089801249      -65.1940331960  TIP3      12001           0.0000000000
     87519     13362  TIP3      OH2            40.2372446177      -28.8888784822      -65.7114424469  TIP3      12002           0.0000000000
     87520     13362  TIP3      H1             40.3560413196      -29.6510315494      -65.1376750441  TIP3      12002           0.0000000000
     87521     13362  TIP3      H2             40.9055731043      -29.0324180514      -66.4021693297  TIP3      12002           0.0000000000
     87522     13363  TIP3      OH2            35.9502134590      -27.3070270232      -64.5925403646  TIP3      12003           0.0000000000
     87523     13363  TIP3      H1             36.8992858367      -27.2362605615      -64.3779852367  TIP3      12003           0.0000000000
     87524     13363  TIP3      H2             35.9760635605      -27.9878108993      -65.2997294072  TIP3      12003           0.0000000000
     87525     13364  TIP3      OH2            36.3666076735      -39.7894490104      -63.1872698785  TIP3      12004           0.0000000000
     87526     13364  TIP3      H1             36.7711631086      -39.1426455430      -63.7766591005  TIP3      12004           0.0000000000
     87527     13364  TIP3      H2             35.7026794950      -39.2674287460      -62.7307870550  TIP3      12004           0.0000000000
     87528     13365  TIP3      OH2            38.1795220757      -37.9400640163      -64.7533702586  TIP3      12005           0.0000000000
     87529     13365  TIP3      H1             38.6870800503      -38.5915659591      -65.2591190084  TIP3      12005           0.0000000000
     87530     13365  TIP3      H2             38.8042175088      -37.6667829350      -64.0613028949  TIP3      12005           0.0000000000
     87531     13366  TIP3      OH2            38.1265431117      -22.9419488216      -65.3150621935  TIP3      12006           0.0000000000
     87532     13366  TIP3      H1             37.7212767677      -22.6998298830      -64.4418825899  TIP3      12006           0.0000000000
     87533     13366  TIP3      H2             38.7642113165      -23.6027174103      -65.0112912944  TIP3      12006           0.0000000000
     87534     13367  TIP3      OH2           -30.1130455867      -13.8895435037      -64.5888301419  TIP3      12007           0.0000000000
     87535     13367  TIP3      H1            -29.4433089235      -13.9072685748      -63.8745639978  TIP3      12007           0.0000000000
     87536     13367  TIP3      H2            -29.7778628210      -14.6095243674      -65.1346246910  TIP3      12007           0.0000000000
     87537     13368  TIP3      OH2           -27.8313727887      -13.0339100057      -62.9804733198  TIP3      12008           0.0000000000
     87538     13368  TIP3      H1            -27.3033732005      -12.8678280932      -62.1985072652  TIP3      12008           0.0000000000
     87539     13368  TIP3      H2            -27.4046363096      -12.5326267205      -63.7023003672  TIP3      12008           0.0000000000
     87540     13369  TIP3      OH2           -24.1359368016      -21.2900166548      -63.0563960627  TIP3      12009           0.0000000000
     87541     13369  TIP3      H1            -25.0710770469      -21.1802543019      -62.8337877613  TIP3      12009           0.0000000000
     87542     13369  TIP3      H2            -23.9333737575      -20.4337412350      -63.4755602491  TIP3      12009           0.0000000000
     87543     13370  TIP3      OH2           -22.9460821533       -6.8497039916      -64.7806140461  TIP3      12010           0.0000000000
     87544     13370  TIP3      H1            -22.8145306388       -5.9264912745      -64.5349714113  TIP3      12010           0.0000000000
     87545     13370  TIP3      H2            -22.0501049740       -7.2207611400      -64.7076803040  TIP3      12010           0.0000000000
     87546     13371  TIP3      OH2           -27.5935659186       -4.1781745276      -64.0288800814  TIP3      12011           0.0000000000
     87547     13371  TIP3      H1            -27.1539573185       -4.8968091990      -64.5332565323  TIP3      12011           0.0000000000
     87548     13371  TIP3      H2            -27.5098632305       -4.4867532281      -63.1212944497  TIP3      12011           0.0000000000
     87549     13372  TIP3      OH2           -26.3420428526      -12.0480576977      -65.2118613624  TIP3      12012           0.0000000000
     87550     13372  TIP3      H1            -26.4017077326      -12.1497125820      -66.1900956122  TIP3      12012           0.0000000000
     87551     13372  TIP3      H2            -25.5316386101      -11.5200508837      -65.1671108767  TIP3      12012           0.0000000000
     87552     13373  TIP3      OH2           -30.8580615009      -18.0817303289      -64.6740724554  TIP3      12013           0.0000000000
     87553     13373  TIP3      H1            -31.0724597392      -18.0835239447      -63.7260829770  TIP3      12013           0.0000000000
     87554     13373  TIP3      H2            -31.0898562602      -18.9904663404      -64.9315982616  TIP3      12013           0.0000000000
     87555     13374  TIP3      OH2           -33.9672232059      -17.7041785245      -65.5402941942  TIP3      12014           0.0000000000
     87556     13374  TIP3      H1            -34.4322592969      -18.1172022757      -64.7792539937  TIP3      12014           0.0000000000
     87557     13374  TIP3      H2            -34.6935931060      -17.3335195611      -66.0576063432  TIP3      12014           0.0000000000
     87558     13375  TIP3      OH2           -39.2391716257      -17.0018125632      -62.8704274804  TIP3      12015           0.0000000000
     87559     13375  TIP3      H1            -38.8747486511      -16.5556697804      -63.6569784666  TIP3      12015           0.0000000000
     87560     13375  TIP3      H2            -40.0831270987      -16.5705504911      -62.7806050389  TIP3      12015           0.0000000000
     87561     13376  TIP3      OH2           -35.3031669090      -14.9506614870      -64.1153070953  TIP3      12016           0.0000000000
     87562     13376  TIP3      H1            -35.8745721160      -15.2898014059      -64.8147456653  TIP3      12016           0.0000000000
     87563     13376  TIP3      H2            -34.4927253169      -14.7081029475      -64.5874479898  TIP3      12016           0.0000000000
     87564     13377  TIP3      OH2           -28.1124131219      -17.5602918945      -64.0789745971  TIP3      12017           0.0000000000
     87565     13377  TIP3      H1            -29.0678589540      -17.4052551538      -64.0881949270  TIP3      12017           0.0000000000
     87566     13377  TIP3      H2            -27.7936702645      -16.7519289609      -63.5994899134  TIP3      12017           0.0000000000
     87567     13378  TIP3      OH2           -27.1841742125      -15.6582369453      -62.6137579237  TIP3      12018           0.0000000000
     87568     13378  TIP3      H1            -26.4210588632      -15.7264611643      -62.0422502101  TIP3      12018           0.0000000000
     87569     13378  TIP3      H2            -27.2868104607      -14.7479113298      -62.9085645188  TIP3      12018           0.0000000000
     87570     13379  TIP3      OH2           -29.8765357568       -8.9144641300      -63.2016909740  TIP3      12019           0.0000000000
     87571     13379  TIP3      H1            -30.1871378628       -8.0751600131      -62.7969237398  TIP3      12019           0.0000000000
     87572     13379  TIP3      H2            -30.5649005293       -9.5303697593      -62.9324908881  TIP3      12019           0.0000000000
     87573     13380  TIP3      OH2           -22.5200208251      -15.4797361328      -62.5810708380  TIP3      12020           0.0000000000
     87574     13380  TIP3      H1            -23.0523906124      -15.8165747184      -63.3293950167  TIP3      12020           0.0000000000
     87575     13380  TIP3      H2            -22.4090653613      -14.5580559166      -62.9028141915  TIP3      12020           0.0000000000
     87576     13381  TIP3      OH2           -38.7723776796      -12.6681870484      -64.4956723179  TIP3      12021           0.0000000000
     87577     13381  TIP3      H1            -38.1361705110      -12.0886962383      -64.0023929837  TIP3      12021           0.0000000000
     87578     13381  TIP3      H2            -39.6097405971      -12.3547482233      -64.1432415009  TIP3      12021           0.0000000000
     87579     13382  TIP3      OH2           -26.7666555381       -8.6490990766      -64.3675973392  TIP3      12022           0.0000000000
     87580     13382  TIP3      H1            -26.4493097709       -9.0321977930      -63.5452396606  TIP3      12022           0.0000000000
     87581     13382  TIP3      H2            -27.7257719511       -8.7717445815      -64.2778461526  TIP3      12022           0.0000000000
     87582     13383  TIP3      OH2           -22.3282647435       -4.2358872683      -64.1684924989  TIP3      12023           0.0000000000
     87583     13383  TIP3      H1            -21.5693680349       -3.6263878216      -64.2226436066  TIP3      12023           0.0000000000
     87584     13383  TIP3      H2            -23.0060623721       -3.6157952191      -63.8333665155  TIP3      12023           0.0000000000
     87585     13384  TIP3      OH2           -32.6199077264       -7.5397580635      -65.8689010936  TIP3      12024           0.0000000000
     87586     13384  TIP3      H1            -32.5170684735       -8.2978957866      -66.4661238680  TIP3      12024           0.0000000000
     87587     13384  TIP3      H2            -33.0469209572       -7.9710391790      -65.0925274157  TIP3      12024           0.0000000000
     87588     13385  TIP3      OH2           -33.8452171856       -8.0397562240      -63.4392950433  TIP3      12025           0.0000000000
     87589     13385  TIP3      H1            -33.5869184659       -8.5152034922      -62.6402012520  TIP3      12025           0.0000000000
     87590     13385  TIP3      H2            -33.7259117295       -7.1166803424      -63.1262284033  TIP3      12025           0.0000000000
     87591     13386  TIP3      OH2           -37.3953490898      -10.7510335959      -63.0182248495  TIP3      12026           0.0000000000
     87592     13386  TIP3      H1            -37.9962209313      -10.4236978643      -62.3529135096  TIP3      12026           0.0000000000
     87593     13386  TIP3      H2            -36.7940555826      -10.0086973359      -63.2193734235  TIP3      12026           0.0000000000
     87594     13387  TIP3      OH2           -31.0681914038       -6.3214378026      -62.6712244983  TIP3      12027           0.0000000000
     87595     13387  TIP3      H1            -31.8885832108       -5.7986212529      -62.6748625995  TIP3      12027           0.0000000000
     87596     13387  TIP3      H2            -30.5270670298       -5.8111746304      -63.2967480078  TIP3      12027           0.0000000000
     87597     13388  TIP3      OH2           -33.6475206418       -5.3100031647      -62.6781367638  TIP3      12028           0.0000000000
     87598     13388  TIP3      H1            -33.5752424346       -4.5194079602      -63.2689897779  TIP3      12028           0.0000000000
     87599     13388  TIP3      H2            -33.8867241394       -4.9050957733      -61.8346408719  TIP3      12028           0.0000000000
     87600     13389  TIP3      OH2           -34.9900214309      -18.5741114705      -63.1434877624  TIP3      12029           0.0000000000
     87601     13389  TIP3      H1            -35.0629650272      -17.6987095165      -62.7325305864  TIP3      12029           0.0000000000
     87602     13389  TIP3      H2            -34.0966893068      -18.8137495042      -62.8578188114  TIP3      12029           0.0000000000
     87603     13390  TIP3      OH2           -36.7408229121       -8.1422070260      -64.0397228868  TIP3      12030           0.0000000000
     87604     13390  TIP3      H1            -36.0948966850       -7.4780198482      -63.7621582908  TIP3      12030           0.0000000000
     87605     13390  TIP3      H2            -36.2247247446       -8.5979742691      -64.7328889516  TIP3      12030           0.0000000000
     87606     13391  TIP3      OH2           -38.3904353965      -15.4569649086      -64.9691362078  TIP3      12031           0.0000000000
     87607     13391  TIP3      H1            -38.4140778852      -14.5038422474      -64.7544696258  TIP3      12031           0.0000000000
     87608     13391  TIP3      H2            -39.2773854831      -15.6974828915      -65.2364332140  TIP3      12031           0.0000000000
     87609     13392  TIP3      OH2           -30.6244205938       -5.6881605151      -65.7536108757  TIP3      12032           0.0000000000
     87610     13392  TIP3      H1            -31.3123500706       -6.3521673065      -65.5242867111  TIP3      12032           0.0000000000
     87611     13392  TIP3      H2            -29.8961315218       -6.2669232169      -66.0446094426  TIP3      12032           0.0000000000
     87612     13393  TIP3      OH2           -26.0727960153       -5.9440995526      -65.6384781723  TIP3      12033           0.0000000000
     87613     13393  TIP3      H1            -25.7835620920       -6.6905546313      -65.0811392112  TIP3      12033           0.0000000000
     87614     13393  TIP3      H2            -25.2843158834       -5.6993723368      -66.1230799318  TIP3      12033           0.0000000000
     87615     13394  TIP3      OH2           -35.1994251349      -10.0363002742      -65.7367353855  TIP3      12034           0.0000000000
     87616     13394  TIP3      H1            -34.9999524011      -10.7753084066      -65.1414501192  TIP3      12034           0.0000000000
     87617     13394  TIP3      H2            -34.4396360069      -10.1042516300      -66.3509723645  TIP3      12034           0.0000000000
     87618     13395  TIP3      OH2           -29.7707668694       -8.8740517114      -65.9511976328  TIP3      12035           0.0000000000
     87619     13395  TIP3      H1            -29.9902848415       -8.8015311234      -65.0077536758  TIP3      12035           0.0000000000
     87620     13395  TIP3      H2            -29.9272530810       -9.8381689887      -66.1061230569  TIP3      12035           0.0000000000
     87621     13396  TIP3      OH2           -33.9916848566      -12.0060971421      -63.4010795681  TIP3      12036           0.0000000000
     87622     13396  TIP3      H1            -34.4356431846      -12.4951104460      -62.6945394714  TIP3      12036           0.0000000000
     87623     13396  TIP3      H2            -33.6838299236      -12.6846971009      -64.0329307969  TIP3      12036           0.0000000000
     87624     13397  TIP3      OH2           -32.9105288569      -13.7989296453      -65.1374246020  TIP3      12037           0.0000000000
     87625     13397  TIP3      H1            -33.0299901508      -13.8440489806      -66.1096820903  TIP3      12037           0.0000000000
     87626     13397  TIP3      H2            -31.9333733448      -13.6803330584      -65.0405451790  TIP3      12037           0.0000000000
     87627     13398  TIP3      OH2           -23.4965960517      -11.4472964941      -65.6493600928  TIP3      12038           0.0000000000
     87628     13398  TIP3      H1            -23.7716008110      -11.7933944960      -66.5124745993  TIP3      12038           0.0000000000
     87629     13398  TIP3      H2            -23.5065090068      -10.4772815072      -65.8728423189  TIP3      12038           0.0000000000
     87630     13399  TIP3      OH2           -33.0297121142       -3.0429849858      -64.0259753757  TIP3      12039           0.0000000000
     87631     13399  TIP3      H1            -32.0581014469       -2.9687647177      -63.9940448145  TIP3      12039           0.0000000000
     87632     13399  TIP3      H2            -33.2164580100       -2.4500530698      -64.7654419479  TIP3      12039           0.0000000000
     87633     13400  TIP3      OH2           -39.4408612581       -8.4729822797      -64.5204430700  TIP3      12040           0.0000000000
     87634     13400  TIP3      H1            -38.4833537876       -8.3430392678      -64.3487570616  TIP3      12040           0.0000000000
     87635     13400  TIP3      H2            -39.3819039362       -9.0837671228      -65.2624705728  TIP3      12040           0.0000000000
     87636     13401  TIP3      OH2           -22.4118200016      -12.6102474304      -63.4718141134  TIP3      12041           0.0000000000
     87637     13401  TIP3      H1            -22.9062591467      -12.2268039271      -64.2372199406  TIP3      12041           0.0000000000
     87638     13401  TIP3      H2            -22.4337517804      -11.8935127939      -62.8257893442  TIP3      12041           0.0000000000
     87639     13402  TIP3      OH2           -23.9864223351      -15.3509413323      -64.9528195076  TIP3      12042           0.0000000000
     87640     13402  TIP3      H1            -23.9358652258      -14.7025353829      -65.6614456029  TIP3      12042           0.0000000000
     87641     13402  TIP3      H2            -24.1855270400      -16.1887025518      -65.4182319639  TIP3      12042           0.0000000000
     87642     13403  TIP3      OH2           -24.7508078526      -17.9277465695      -65.8052619654  TIP3      12043           0.0000000000
     87643     13403  TIP3      H1            -24.1578673319      -18.3396625893      -65.1529566063  TIP3      12043           0.0000000000
     87644     13403  TIP3      H2            -25.6081687011      -18.3380201118      -65.6049678122  TIP3      12043           0.0000000000
     87645     13404  TIP3      OH2           -22.6823290893      -19.0752033477      -64.2531069484  TIP3      12044           0.0000000000
     87646     13404  TIP3      H1            -22.2520714070      -19.7995298848      -64.7483406358  TIP3      12044           0.0000000000
     87647     13404  TIP3      H2            -21.9798625388      -18.4087737094      -64.1703935208  TIP3      12044           0.0000000000
     87648     13405  TIP3      OH2           -39.1429830727      -21.0227970840      -63.2296412871  TIP3      12045           0.0000000000
     87649     13405  TIP3      H1            -38.6450749664      -20.3767600932      -63.7503088437  TIP3      12045           0.0000000000
     87650     13405  TIP3      H2            -39.7292293424      -20.4894114300      -62.6980624995  TIP3      12045           0.0000000000
     87651     13406  TIP3      OH2           -37.2757462038      -19.0368752500      -64.7300897002  TIP3      12046           0.0000000000
     87652     13406  TIP3      H1            -36.8111545226      -19.7063014518      -65.2684679934  TIP3      12046           0.0000000000
     87653     13406  TIP3      H2            -36.6296009765      -18.8376422563      -64.0297344220  TIP3      12046           0.0000000000
     87654     13407  TIP3      OH2           -30.3807951030       -3.8185750988      -63.8418191932  TIP3      12047           0.0000000000
     87655     13407  TIP3      H1            -29.4628549581       -3.5656939952      -64.0420574945  TIP3      12047           0.0000000000
     87656     13407  TIP3      H2            -30.5633066072       -4.3378824213      -64.6584622700  TIP3      12047           0.0000000000
     87657     13408  TIP3      OH2           -37.4209631145       -4.1117018571      -65.2483448709  TIP3      12048           0.0000000000
     87658     13408  TIP3      H1            -37.6976460424       -3.8742449129      -64.3482793645  TIP3      12048           0.0000000000
     87659     13408  TIP3      H2            -36.6542463243       -4.6927565985      -65.0906376039  TIP3      12048           0.0000000000
     87660     13409  TIP3      OH2           -11.2794914458      -13.9247518079      -64.5574319037  TIP3      12049           0.0000000000
     87661     13409  TIP3      H1            -10.5579621625      -13.8768028520      -63.9034684622  TIP3      12049           0.0000000000
     87662     13409  TIP3      H2            -10.9202736321      -14.5924283200      -65.1540179727  TIP3      12049           0.0000000000
     87663     13410  TIP3      OH2            -8.9872692462      -13.0471068818      -62.9693877311  TIP3      12050           0.0000000000
     87664     13410  TIP3      H1             -8.4401470645      -12.8369499569      -62.2115573483  TIP3      12050           0.0000000000
     87665     13410  TIP3      H2             -8.5744876135      -12.5395994473      -63.6976003700  TIP3      12050           0.0000000000
     87666     13411  TIP3      OH2            -5.2880060514      -21.2972850779      -63.0719039741  TIP3      12051           0.0000000000
     87667     13411  TIP3      H1             -6.2133137036      -21.1731284459      -62.8290359046  TIP3      12051           0.0000000000
     87668     13411  TIP3      H2             -5.0690593168      -20.4315482481      -63.4628262421  TIP3      12051           0.0000000000
     87669     13412  TIP3      OH2            -4.1394700342       -6.9216241264      -64.8194804655  TIP3      12052           0.0000000000
     87670     13412  TIP3      H1             -4.0052829920       -5.9934096051      -64.5538276862  TIP3      12052           0.0000000000
     87671     13412  TIP3      H2             -3.2201167342       -7.2225029942      -64.7213532552  TIP3      12052           0.0000000000
     87672     13413  TIP3      OH2            -8.6929715785       -4.1492178517      -64.0332942842  TIP3      12053           0.0000000000
     87673     13413  TIP3      H1             -8.3029443376       -4.9085253353      -64.5372133644  TIP3      12053           0.0000000000
     87674     13413  TIP3      H2             -8.6553666517       -4.4879953744      -63.1312272259  TIP3      12053           0.0000000000
     87675     13414  TIP3      OH2            -7.5106940528      -12.0294101290      -65.1913839217  TIP3      12054           0.0000000000
     87676     13414  TIP3      H1             -7.5536872768      -12.1807086357      -66.1661878648  TIP3      12054           0.0000000000
     87677     13414  TIP3      H2             -6.6666229352      -11.5553933061      -65.1236005565  TIP3      12054           0.0000000000
     87678     13415  TIP3      OH2           -11.9614056581      -18.1087023574      -64.6497577816  TIP3      12055           0.0000000000
     87679     13415  TIP3      H1            -12.2441193336      -18.1148166110      -63.7283111440  TIP3      12055           0.0000000000
     87680     13415  TIP3      H2            -12.2324725360      -18.9897923372      -64.9624401440  TIP3      12055           0.0000000000
     87681     13416  TIP3      OH2           -15.1263016369      -17.7044164025      -65.5541398640  TIP3      12056           0.0000000000
     87682     13416  TIP3      H1            -15.5665710137      -18.0925344475      -64.7660874135  TIP3      12056           0.0000000000
     87683     13416  TIP3      H2            -15.8628086745      -17.2862828667      -66.0218862402  TIP3      12056           0.0000000000
     87684     13417  TIP3      OH2           -20.6072337542      -17.3052377405      -63.1020557540  TIP3      12057           0.0000000000
     87685     13417  TIP3      H1            -20.0852757352      -16.6488848651      -63.6045294513  TIP3      12057           0.0000000000
     87686     13417  TIP3      H2            -21.2528844843      -16.6838528191      -62.7029155782  TIP3      12057           0.0000000000
     87687     13418  TIP3      OH2           -16.4331475357      -14.9759362684      -64.1003807816  TIP3      12058           0.0000000000
     87688     13418  TIP3      H1            -16.9979383063      -15.2712627915      -64.8371488447  TIP3      12058           0.0000000000
     87689     13418  TIP3      H2            -15.6389900115      -14.7013696097      -64.5778887682  TIP3      12058           0.0000000000
     87690     13419  TIP3      OH2            -9.2494469574      -17.5474773926      -64.0452918884  TIP3      12059           0.0000000000
     87691     13419  TIP3      H1            -10.2064713850      -17.4087557084      -64.1318295044  TIP3      12059           0.0000000000
     87692     13419  TIP3      H2             -8.9352611735      -16.7246011113      -63.6196372715  TIP3      12059           0.0000000000
     87693     13420  TIP3      OH2            -8.5356504517      -15.5981759427      -62.3470352032  TIP3      12060           0.0000000000
     87694     13420  TIP3      H1             -7.6293352608      -15.8001922046      -62.0792087368  TIP3      12060           0.0000000000
     87695     13420  TIP3      H2             -8.4494808562      -14.8237421560      -62.9247630283  TIP3      12060           0.0000000000
     87696     13421  TIP3      OH2           -11.0058361186       -8.9222254592      -63.1722570617  TIP3      12061           0.0000000000
     87697     13421  TIP3      H1            -11.3249441206       -8.0657268889      -62.8121144243  TIP3      12061           0.0000000000
     87698     13421  TIP3      H2            -11.7135912340       -9.5283561791      -62.9282544992  TIP3      12061           0.0000000000
     87699     13422  TIP3      OH2            -3.6617757134      -15.4724721174      -62.5839863873  TIP3      12062           0.0000000000
     87700     13422  TIP3      H1             -4.1933841652      -15.8145222651      -63.3299619846  TIP3      12062           0.0000000000
     87701     13422  TIP3      H2             -3.5517621164      -14.5527777155      -62.8986206325  TIP3      12062           0.0000000000
     87702     13423  TIP3      OH2           -19.8677504112      -12.6731867347      -64.4605616463  TIP3      12063           0.0000000000
     87703     13423  TIP3      H1            -19.2629057251      -12.0573156567      -63.9948984379  TIP3      12063           0.0000000000
     87704     13423  TIP3      H2            -20.7471434375      -12.3725431018      -64.1644292224  TIP3      12063           0.0000000000
     87705     13424  TIP3      OH2            -7.8970499329       -8.6366678786      -64.3726796571  TIP3      12064           0.0000000000
     87706     13424  TIP3      H1             -7.6023672759       -9.0000170762      -63.5359021811  TIP3      12064           0.0000000000
     87707     13424  TIP3      H2             -8.8654528106       -8.7550438403      -64.3019580004  TIP3      12064           0.0000000000
     87708     13425  TIP3      OH2            -3.4747932204       -4.2393779830      -64.1609048456  TIP3      12065           0.0000000000
     87709     13425  TIP3      H1             -2.7112087463       -3.6346746802      -64.2146068755  TIP3      12065           0.0000000000
     87710     13425  TIP3      H2             -4.1516283296       -3.6197168988      -63.8274070727  TIP3      12065           0.0000000000
     87711     13426  TIP3      OH2           -13.7867348975       -7.5400859192      -65.8917164459  TIP3      12066           0.0000000000
     87712     13426  TIP3      H1            -13.6331712919       -8.3092050143      -66.4655045545  TIP3      12066           0.0000000000
     87713     13426  TIP3      H2            -14.1831570154       -7.9668978109      -65.0963640125  TIP3      12066           0.0000000000
     87714     13427  TIP3      OH2           -14.9642935192       -8.0375062349      -63.4420762537  TIP3      12067           0.0000000000
     87715     13427  TIP3      H1            -14.7308301342       -8.5146032893      -62.6355263845  TIP3      12067           0.0000000000
     87716     13427  TIP3      H2            -14.8623885869       -7.1135757006      -63.1293074614  TIP3      12067           0.0000000000
     87717     13428  TIP3      OH2           -18.5285004107      -10.7410607584      -63.0084074589  TIP3      12068           0.0000000000
     87718     13428  TIP3      H1            -19.1342068555      -10.4267599520      -62.3353321789  TIP3      12068           0.0000000000
     87719     13428  TIP3      H2            -17.9373911188       -9.9991569778      -63.2203883319  TIP3      12068           0.0000000000
     87720     13429  TIP3      OH2           -12.2079731007       -6.3159766244      -62.6930896169  TIP3      12069           0.0000000000
     87721     13429  TIP3      H1            -13.0351331318       -5.8013944854      -62.6603575964  TIP3      12069           0.0000000000
     87722     13429  TIP3      H2            -11.6725132101       -5.7964353554      -63.3156761555  TIP3      12069           0.0000000000
     87723     13430  TIP3      OH2           -14.7958879158       -5.3084080818      -62.6654215284  TIP3      12070           0.0000000000
     87724     13430  TIP3      H1            -14.7226624925       -4.5207562510      -63.2604141066  TIP3      12070           0.0000000000
     87725     13430  TIP3      H2            -15.0338450087       -4.9006807299      -61.8254244797  TIP3      12070           0.0000000000
     87726     13431  TIP3      OH2           -16.1392942754      -18.5774579735      -63.1771355504  TIP3      12071           0.0000000000
     87727     13431  TIP3      H1            -16.2318311608      -17.7087015310      -62.7501669464  TIP3      12071           0.0000000000
     87728     13431  TIP3      H2            -15.2622006525      -18.8230167505      -62.8701384610  TIP3      12071           0.0000000000
     87729     13432  TIP3      OH2           -17.8789729467       -8.1345032086      -64.0349415782  TIP3      12072           0.0000000000
     87730     13432  TIP3      H1            -17.2196939748       -7.4846617427      -63.7676555379  TIP3      12072           0.0000000000
     87731     13432  TIP3      H2            -17.3792314321       -8.6030709649      -64.7331905140  TIP3      12072           0.0000000000
     87732     13433  TIP3      OH2           -19.5407926886      -15.4668744502      -64.9241908845  TIP3      12073           0.0000000000
     87733     13433  TIP3      H1            -19.5478350258      -14.5080556297      -64.7332054537  TIP3      12073           0.0000000000
     87734     13433  TIP3      H2            -20.4359417565      -15.6518043929      -65.2146310188  TIP3      12073           0.0000000000
     87735     13434  TIP3      OH2           -11.7749562681       -5.6686225521      -65.7326066938  TIP3      12074           0.0000000000
     87736     13434  TIP3      H1            -12.4603204845       -6.3359670893      -65.5244639324  TIP3      12074           0.0000000000
     87737     13434  TIP3      H2            -11.0724245381       -6.2601216974      -66.0402042452  TIP3      12074           0.0000000000
     87738     13435  TIP3      OH2            -7.1930822298       -5.8694743743      -65.5491337638  TIP3      12075           0.0000000000
     87739     13435  TIP3      H1             -6.9584577862       -6.7029119264      -65.1171911712  TIP3      12075           0.0000000000
     87740     13435  TIP3      H2             -6.4496141760       -5.7234969005      -66.1439715357  TIP3      12075           0.0000000000
     87741     13436  TIP3      OH2           -16.3419038460       -9.9983041900      -65.6841551708  TIP3      12076           0.0000000000
     87742     13436  TIP3      H1            -16.1642314764      -10.7710744866      -65.1255609144  TIP3      12076           0.0000000000
     87743     13436  TIP3      H2            -15.6042141839      -10.0936222470      -66.3247320653  TIP3      12076           0.0000000000
     87744     13437  TIP3      OH2           -10.8887983563       -8.8923965969      -65.9074900899  TIP3      12077           0.0000000000
     87745     13437  TIP3      H1            -11.1530072415       -8.8028534117      -64.9855040217  TIP3      12077           0.0000000000
     87746     13437  TIP3      H2            -11.0904422941       -9.8351821047      -66.1003809070  TIP3      12077           0.0000000000
     87747     13438  TIP3      OH2           -15.1140815248      -12.0085164824      -63.4118253916  TIP3      12078           0.0000000000
     87748     13438  TIP3      H1            -15.5821590028      -12.4896741729      -62.7120156372  TIP3      12078           0.0000000000
     87749     13438  TIP3      H2            -14.8529448204      -12.6961532886      -64.0500803134  TIP3      12078           0.0000000000
     87750     13439  TIP3      OH2           -14.0306311607      -13.8445185404      -65.1187682503  TIP3      12079           0.0000000000
     87751     13439  TIP3      H1            -14.1863486890      -13.8439775656      -66.0895610020  TIP3      12079           0.0000000000
     87752     13439  TIP3      H2            -13.0663208466      -13.6675424145      -65.0472534584  TIP3      12079           0.0000000000
     87753     13440  TIP3      OH2            -4.7026438808      -11.4019984099      -65.6423811738  TIP3      12080           0.0000000000
     87754     13440  TIP3      H1             -4.8739318508      -11.8116482963      -66.5051155436  TIP3      12080           0.0000000000
     87755     13440  TIP3      H2             -4.6382463750      -10.4501686558      -65.8922126435  TIP3      12080           0.0000000000
     87756     13441  TIP3      OH2           -14.1736817622       -3.0487152937      -64.0298940001  TIP3      12081           0.0000000000
     87757     13441  TIP3      H1            -13.2039237482       -2.9709463271      -63.9896813695  TIP3      12081           0.0000000000
     87758     13441  TIP3      H2            -14.3559662624       -2.4502580855      -64.7675306184  TIP3      12081           0.0000000000
     87759     13442  TIP3      OH2           -20.6528260658       -8.4549756381      -64.6129483138  TIP3      12082           0.0000000000
     87760     13442  TIP3      H1            -19.6999573638       -8.3770819683      -64.3800640476  TIP3      12082           0.0000000000
     87761     13442  TIP3      H2            -20.6049631639       -9.1490383233      -65.3082796618  TIP3      12082           0.0000000000
     87762     13443  TIP3      OH2            -3.5447249546      -12.6098347203      -63.4687714587  TIP3      12083           0.0000000000
     87763     13443  TIP3      H1             -4.0466709308      -12.2369255443      -64.2276177108  TIP3      12083           0.0000000000
     87764     13443  TIP3      H2             -3.5790720711      -11.8941857179      -62.8220147897  TIP3      12083           0.0000000000
     87765     13444  TIP3      OH2            -5.1354481892      -15.3527072140      -64.9398741793  TIP3      12084           0.0000000000
     87766     13444  TIP3      H1             -5.0673514605      -14.7133265377      -65.6537898888  TIP3      12084           0.0000000000
     87767     13444  TIP3      H2             -5.3254440205      -16.1923520254      -65.4098525851  TIP3      12084           0.0000000000
     87768     13445  TIP3      OH2            -5.9015293007      -17.9311665262      -65.8106337316  TIP3      12085           0.0000000000
     87769     13445  TIP3      H1             -5.3032826392      -18.3409461512      -65.1582812230  TIP3      12085           0.0000000000
     87770     13445  TIP3      H2             -6.7569829160      -18.3360298935      -65.6003345568  TIP3      12085           0.0000000000
     87771     13446  TIP3      OH2            -3.8390169123      -19.0639337247      -64.2686837174  TIP3      12086           0.0000000000
     87772     13446  TIP3      H1             -3.4060164680      -19.8032882676      -64.7377104092  TIP3      12086           0.0000000000
     87773     13446  TIP3      H2             -3.1253736318      -18.4120067509      -64.1658060204  TIP3      12086           0.0000000000
     87774     13447  TIP3      OH2           -20.2685232494      -21.0009755032      -63.2220992818  TIP3      12087           0.0000000000
     87775     13447  TIP3      H1            -19.7754994784      -20.3554508410      -63.7446285694  TIP3      12087           0.0000000000
     87776     13447  TIP3      H2            -20.8563037395      -20.4365672555      -62.7288891113  TIP3      12087           0.0000000000
     87777     13448  TIP3      OH2           -18.4101461233      -19.0590841911      -64.7378693266  TIP3      12088           0.0000000000
     87778     13448  TIP3      H1            -17.9272717961      -19.7367814032      -65.2410232784  TIP3      12088           0.0000000000
     87779     13448  TIP3      H2            -17.7897009312      -18.8167287158      -64.0234503552  TIP3      12088           0.0000000000
     87780     13449  TIP3      OH2           -11.5163615267       -3.8228372100      -63.8374776060  TIP3      12089           0.0000000000
     87781     13449  TIP3      H1            -10.6060399664       -3.5567211069      -64.0463275725  TIP3      12089           0.0000000000
     87782     13449  TIP3      H2            -11.7006194672       -4.3458406712      -64.6590381580  TIP3      12089           0.0000000000
     87783     13450  TIP3      OH2           -18.5786814648       -4.1103330136      -65.2560250574  TIP3      12090           0.0000000000
     87784     13450  TIP3      H1            -18.8413240934       -3.8742011669      -64.3517496305  TIP3      12090           0.0000000000
     87785     13450  TIP3      H2            -17.8141020555       -4.7012993573      -65.1156869887  TIP3      12090           0.0000000000
     87786     13451  TIP3      OH2             7.5839247214      -13.9098825918      -64.5728250532  TIP3      12091           0.0000000000
     87787     13451  TIP3      H1              8.2931680699      -13.8729100986      -63.9041140288  TIP3      12091           0.0000000000
     87788     13451  TIP3      H2              7.9378068807      -14.5992742710      -65.1478020335  TIP3      12091           0.0000000000
     87789     13452  TIP3      OH2             9.8681206401      -13.0492159397      -62.9671338229  TIP3      12092           0.0000000000
     87790     13452  TIP3      H1             10.4157607811      -12.8369900584      -62.2107044968  TIP3      12092           0.0000000000
     87791     13452  TIP3      H2             10.2812739286      -12.5433942410      -63.6954036360  TIP3      12092           0.0000000000
     87792     13453  TIP3      OH2            13.5898498687      -21.2809494471      -63.0471839688  TIP3      12093           0.0000000000
     87793     13453  TIP3      H1             12.6507612750      -21.1881881880      -62.8399033689  TIP3      12093           0.0000000000
     87794     13453  TIP3      H2             13.7894140783      -20.4374004780      -63.4852999588  TIP3      12093           0.0000000000
     87795     13454  TIP3      OH2            14.7513000013       -6.9136682971      -64.8506883167  TIP3      12094           0.0000000000
     87796     13454  TIP3      H1             14.8570260316       -5.9991749333      -64.5258208059  TIP3      12094           0.0000000000
     87797     13454  TIP3      H2             15.6571568982       -7.2354773231      -64.6969388088  TIP3      12094           0.0000000000
     87798     13455  TIP3      OH2            10.1228787890       -4.1646383229      -64.0194864196  TIP3      12095           0.0000000000
     87799     13455  TIP3      H1             10.5473446985       -4.8849178414      -64.5349955972  TIP3      12095           0.0000000000
     87800     13455  TIP3      H2             10.2126402404       -4.4914233772      -63.1194680215  TIP3      12095           0.0000000000
     87801     13456  TIP3      OH2            11.3348273298      -12.0184486335      -65.1949242777  TIP3      12096           0.0000000000
     87802     13456  TIP3      H1             11.2985793459      -12.1984868946      -66.1671291274  TIP3      12096           0.0000000000
     87803     13456  TIP3      H2             12.1841880500      -11.5565556419      -65.1356409642  TIP3      12096           0.0000000000
     87804     13457  TIP3      OH2             6.9131517800      -18.1009120537      -64.6311451157  TIP3      12097           0.0000000000
     87805     13457  TIP3      H1              6.6110666566      -18.1121523353      -63.7176710952  TIP3      12097           0.0000000000
     87806     13457  TIP3      H2              6.6219546737      -18.9721161635      -64.9537358146  TIP3      12097           0.0000000000
     87807     13458  TIP3      OH2             3.7318952442      -17.7098880388      -65.5126298502  TIP3      12098           0.0000000000
     87808     13458  TIP3      H1              3.2613377728      -18.1136314237      -64.7572831809  TIP3      12098           0.0000000000
     87809     13458  TIP3      H2              3.0272080556      -17.3026980564      -66.0392031485  TIP3      12098           0.0000000000
     87810     13459  TIP3      OH2            -1.7567921052      -17.3036121293      -63.1176449304  TIP3      12099           0.0000000000
     87811     13459  TIP3      H1             -1.2282588096      -16.6451263203      -63.6092887855  TIP3      12099           0.0000000000
     87812     13459  TIP3      H2             -2.3973214856      -16.6826253197      -62.7069341553  TIP3      12099           0.0000000000
     87813     13460  TIP3      OH2             2.4245909172      -14.9630750025      -64.0918036228  TIP3      12100           0.0000000000
     87814     13460  TIP3      H1              1.8604299546      -15.2581471225      -64.8293982497  TIP3      12100           0.0000000000
     87815     13460  TIP3      H2              3.2175636753      -14.7047790875      -64.5821133866  TIP3      12100           0.0000000000
     87816     13461  TIP3      OH2             9.6066799922      -17.5499780094      -64.0417765756  TIP3      12101           0.0000000000
     87817     13461  TIP3      H1              8.6480606446      -17.4149200143      -64.1311170303  TIP3      12101           0.0000000000
     87818     13461  TIP3      H2              9.9212683006      -16.7257995414      -63.6180730959  TIP3      12101           0.0000000000
     87819     13462  TIP3      OH2            10.3206443322      -15.5987239712      -62.3484716354  TIP3      12102           0.0000000000
     87820     13462  TIP3      H1             11.2266089073      -15.8005531716      -62.0796483667  TIP3      12102           0.0000000000
     87821     13462  TIP3      H2             10.4068030737      -14.8246432208      -62.9265899071  TIP3      12102           0.0000000000
     87822     13463  TIP3      OH2             7.8470627359       -8.9149089297      -63.1900515424  TIP3      12103           0.0000000000
     87823     13463  TIP3      H1              7.5316026182       -8.0683990497      -62.8053916875  TIP3      12103           0.0000000000
     87824     13463  TIP3      H2              7.1465681989       -9.5259687883      -62.9335126809  TIP3      12103           0.0000000000
     87825     13464  TIP3      OH2            15.1967360989      -15.4755409419      -62.5856357363  TIP3      12104           0.0000000000
     87826     13464  TIP3      H1             14.6617574124      -15.8151709061      -63.3300794875  TIP3      12104           0.0000000000
     87827     13464  TIP3      H2             15.3032273611      -14.5554539199      -62.8987249796  TIP3      12104           0.0000000000
     87828     13465  TIP3      OH2            -1.0201678851      -12.6401665243      -64.4898857877  TIP3      12105           0.0000000000
     87829     13465  TIP3      H1             -0.4147912825      -12.0597655592      -63.9799696811  TIP3      12105           0.0000000000
     87830     13465  TIP3      H2             -1.8971848468      -12.3748168652      -64.1583138858  TIP3      12105           0.0000000000
     87831     13466  TIP3      OH2            10.9598386595       -8.6520226882      -64.3765592578  TIP3      12106           0.0000000000
     87832     13466  TIP3      H1             11.2613454131       -8.9992248520      -63.5319589596  TIP3      12106           0.0000000000
     87833     13466  TIP3      H2              9.9958295138       -8.7539364118      -64.2714293186  TIP3      12106           0.0000000000
     87834     13467  TIP3      OH2            15.3761502665       -4.2320453975      -64.2063480346  TIP3      12107           0.0000000000
     87835     13467  TIP3      H1             16.1462374383       -3.6334633004      -64.2013586550  TIP3      12107           0.0000000000
     87836     13467  TIP3      H2             14.7092742853       -3.6312298964      -63.8135572664  TIP3      12107           0.0000000000
     87837     13468  TIP3      OH2             5.0924502430       -7.5402356596      -65.8784352805  TIP3      12108           0.0000000000
     87838     13468  TIP3      H1              5.1946642984       -8.3074966761      -66.4602135738  TIP3      12108           0.0000000000
     87839     13468  TIP3      H2              4.6657062074       -7.9653385311      -65.0966128342  TIP3      12108           0.0000000000
     87840     13469  TIP3      OH2             3.8895825721       -8.0363221392      -63.4424711440  TIP3      12109           0.0000000000
     87841     13469  TIP3      H1              4.1263777009       -8.5150599869      -62.6390192253  TIP3      12109           0.0000000000
     87842     13469  TIP3      H2              3.9907501653       -7.1139959574      -63.1237827665  TIP3      12109           0.0000000000
     87843     13470  TIP3      OH2             0.3327104393      -10.7431173817      -63.0045776099  TIP3      12110           0.0000000000
     87844     13470  TIP3      H1             -0.2876522356      -10.4104717579      -62.3588576340  TIP3      12110           0.0000000000
     87845     13470  TIP3      H2              0.9214693704      -10.0022260878      -63.2241481157  TIP3      12110           0.0000000000
     87846     13471  TIP3      OH2             6.6422404010       -6.3229177184      -62.6732444554  TIP3      12111           0.0000000000
     87847     13471  TIP3      H1              5.8221931162       -5.7982046133      -62.6724513402  TIP3      12111           0.0000000000
     87848     13471  TIP3      H2              7.1856817131       -5.8088756933      -63.2925738611  TIP3      12111           0.0000000000
     87849     13472  TIP3      OH2             4.0676344046       -5.3036279590      -62.6864915891  TIP3      12112           0.0000000000
     87850     13472  TIP3      H1              4.1381953076       -4.5130108917      -63.2734476358  TIP3      12112           0.0000000000
     87851     13472  TIP3      H2              3.8266958789       -4.9060145842      -61.8394117225  TIP3      12112           0.0000000000
     87852     13473  TIP3      OH2             2.7071878053      -18.5885902551      -63.1367397105  TIP3      12113           0.0000000000
     87853     13473  TIP3      H1              2.6287576801      -17.7053599662      -62.7396529404  TIP3      12113           0.0000000000
     87854     13473  TIP3      H2              3.5986976773      -18.8228456957      -62.8633054091  TIP3      12113           0.0000000000
     87855     13474  TIP3      OH2             0.9698519507       -8.1194733778      -64.0507288701  TIP3      12114           0.0000000000
     87856     13474  TIP3      H1              1.6355382519       -7.4829498748      -63.7677568252  TIP3      12114           0.0000000000
     87857     13474  TIP3      H2              1.4791047395       -8.5977161225      -64.7345839799  TIP3      12114           0.0000000000
     87858     13475  TIP3      OH2            -0.6898553810      -15.4647178892      -64.9263618489  TIP3      12115           0.0000000000
     87859     13475  TIP3      H1             -0.6988451587      -14.5099880771      -64.7211088852  TIP3      12115           0.0000000000
     87860     13475  TIP3      H2             -1.5904245942      -15.6485261027      -65.1983177038  TIP3      12115           0.0000000000
     87861     13476  TIP3      OH2             7.0788850144       -5.6804230422      -65.7693954201  TIP3      12116           0.0000000000
     87862     13476  TIP3      H1              6.3997073376       -6.3491330204      -65.5148376588  TIP3      12116           0.0000000000
     87863     13476  TIP3      H2              7.8141887195       -6.2605822470      -66.0234864234  TIP3      12116           0.0000000000
     87864     13477  TIP3      OH2            11.6273585607       -5.9299401883      -65.5486036391  TIP3      12117           0.0000000000
     87865     13477  TIP3      H1             11.9331513419       -6.7087113501      -65.0613113010  TIP3      12117           0.0000000000
     87866     13477  TIP3      H2             12.3847690186       -5.7177531336      -66.1155478320  TIP3      12117           0.0000000000
     87867     13478  TIP3      OH2             2.5262297494      -10.0097710716      -65.7284670570  TIP3      12118           0.0000000000
     87868     13478  TIP3      H1              2.6977807923      -10.7676980951      -65.1454125951  TIP3      12118           0.0000000000
     87869     13478  TIP3      H2              3.2724384062      -10.1108550245      -66.3533435312  TIP3      12118           0.0000000000
     87870     13479  TIP3      OH2             8.0005430632       -8.8887163927      -65.9472183697  TIP3      12119           0.0000000000
     87871     13479  TIP3      H1              7.7146474328       -8.7994821233      -65.0217825787  TIP3      12119           0.0000000000
     87872     13479  TIP3      H2              7.7670995652       -9.8390048310      -66.1015740120  TIP3      12119           0.0000000000
     87873     13480  TIP3      OH2             3.7385373623      -12.0043277391      -63.3841358805  TIP3      12120           0.0000000000
     87874     13480  TIP3      H1              3.2645023864      -12.4966095240      -62.7008459555  TIP3      12120           0.0000000000
     87875     13480  TIP3      H2              4.0119147984      -12.6824535811      -64.0287511808  TIP3      12120           0.0000000000
     87876     13481  TIP3      OH2             4.8173727928      -13.8046582954      -65.1349405446  TIP3      12121           0.0000000000
     87877     13481  TIP3      H1              4.6708924943      -13.8547396753      -66.1038995921  TIP3      12121           0.0000000000
     87878     13481  TIP3      H2              5.7887805395      -13.6846116789      -65.0630091449  TIP3      12121           0.0000000000
     87879     13482  TIP3      OH2            14.1674260648      -11.4098438912      -65.6333047525  TIP3      12122           0.0000000000
     87880     13482  TIP3      H1             13.9719024457      -11.8163632447      -66.4959402214  TIP3      12122           0.0000000000
     87881     13482  TIP3      H2             14.2328215118      -10.4575022080      -65.8716724811  TIP3      12122           0.0000000000
     87882     13483  TIP3      OH2             4.6832119286       -3.0420759812      -64.0289210476  TIP3      12123           0.0000000000
     87883     13483  TIP3      H1              5.6544501819       -2.9681772812      -63.9938293377  TIP3      12123           0.0000000000
     87884     13483  TIP3      H2              4.4931381749       -2.4431250168      -64.7658394283  TIP3      12123           0.0000000000
     87885     13484  TIP3      OH2            -1.7892933455       -8.4734383538      -64.5825714345  TIP3      12124           0.0000000000
     87886     13484  TIP3      H1             -0.8335768204       -8.3757957483      -64.3787066637  TIP3      12124           0.0000000000
     87887     13484  TIP3      H2             -1.7409120537       -9.1367206590      -65.3044416956  TIP3      12124           0.0000000000
     87888     13485  TIP3      OH2            15.3125203495      -12.6039384455      -63.4547444046  TIP3      12125           0.0000000000
     87889     13485  TIP3      H1             14.8185681632      -12.2411816172      -64.2290711989  TIP3      12125           0.0000000000
     87890     13485  TIP3      H2             15.2626981536      -11.8807651725      -62.8209320077  TIP3      12125           0.0000000000
     87891     13486  TIP3      OH2            13.7171843491      -15.3595063920      -64.9247300701  TIP3      12126           0.0000000000
     87892     13486  TIP3      H1             13.7869808929      -14.7181190298      -65.6387110836  TIP3      12126           0.0000000000
     87893     13486  TIP3      H2             13.5357978150      -16.1921702096      -65.4089840347  TIP3      12126           0.0000000000
     87894     13487  TIP3      OH2            12.9537730801      -17.9308711065      -65.8099449049  TIP3      12127           0.0000000000
     87895     13487  TIP3      H1             13.5498408987      -18.3424891457      -65.1577368159  TIP3      12127           0.0000000000
     87896     13487  TIP3      H2             12.0984573431      -18.3367771686      -65.6012293155  TIP3      12127           0.0000000000
     87897     13488  TIP3      OH2            15.0211322881      -19.0595617416      -64.2585789668  TIP3      12128           0.0000000000
     87898     13488  TIP3      H1             15.4501071241      -19.7937942642      -64.7435555083  TIP3      12128           0.0000000000
     87899     13488  TIP3      H2             15.7397775517      -18.4105913028      -64.1785740084  TIP3      12128           0.0000000000
     87900     13489  TIP3      OH2            -1.4171269560      -21.0040442648      -63.2248653995  TIP3      12129           0.0000000000
     87901     13489  TIP3      H1             -0.9197183140      -20.3674375714      -63.7534989974  TIP3      12129           0.0000000000
     87902     13489  TIP3      H2             -1.9986443539      -20.4376199996      -62.7154593347  TIP3      12129           0.0000000000
     87903     13490  TIP3      OH2             0.4478158783      -19.0540162959      -64.7700075675  TIP3      12130           0.0000000000
     87904     13490  TIP3      H1              0.9215782670      -19.7600378138      -65.2306135359  TIP3      12130           0.0000000000
     87905     13490  TIP3      H2              1.0613998937      -18.8197635367      -64.0473926874  TIP3      12130           0.0000000000
     87906     13491  TIP3      OH2             7.3398576814       -3.8238242530      -63.8362987273  TIP3      12131           0.0000000000
     87907     13491  TIP3      H1              8.2528523046       -3.5565780322      -64.0551853423  TIP3      12131           0.0000000000
     87908     13491  TIP3      H2              7.1526760012       -4.3350667689      -64.6565253897  TIP3      12131           0.0000000000
     87909     13492  TIP3      OH2             0.2768212860       -4.1098379667      -65.2563513821  TIP3      12132           0.0000000000
     87910     13492  TIP3      H1              0.0145777917       -3.8740925414      -64.3518780885  TIP3      12132           0.0000000000
     87911     13492  TIP3      H2              1.0414198263       -4.7007516276      -65.1159209258  TIP3      12132           0.0000000000
     87912     13493  TIP3      OH2            26.4311111248      -13.9218854849      -64.5639828811  TIP3      12133           0.0000000000
     87913     13493  TIP3      H1             27.1514003690      -13.8736717889      -63.9022047366  TIP3      12133           0.0000000000
     87914     13493  TIP3      H2             26.7927076530      -14.5965143441      -65.1538924821  TIP3      12133           0.0000000000
     87915     13494  TIP3      OH2            28.7159954506      -13.0318364417      -62.9607187149  TIP3      12134           0.0000000000
     87916     13494  TIP3      H1             29.2788970993      -12.8554774546      -62.2213870879  TIP3      12134           0.0000000000
     87917     13494  TIP3      H2             29.1218135096      -12.5496371014      -63.7081017318  TIP3      12134           0.0000000000
     87918     13495  TIP3      OH2            32.4431541542      -21.2827267348      -63.0467621509  TIP3      12135           0.0000000000
     87919     13495  TIP3      H1             31.5047875518      -21.1865224247      -62.8410279981  TIP3      12135           0.0000000000
     87920     13495  TIP3      H2             32.6480735686      -20.4382614701      -63.4836286720  TIP3      12135           0.0000000000
     87921     13496  TIP3      OH2            33.5807536385       -6.9160837262      -64.7990899226  TIP3      12136           0.0000000000
     87922     13496  TIP3      H1             33.7262441703       -5.9866266607      -64.5462434572  TIP3      12136           0.0000000000
     87923     13496  TIP3      H2             34.4987739347       -7.2267447472      -64.7248678063  TIP3      12136           0.0000000000
     87924     13497  TIP3      OH2            29.0071915552       -4.1624349077      -64.0397688836  TIP3      12137           0.0000000000
     87925     13497  TIP3      H1             29.4173738281       -4.9097930806      -64.5304289730  TIP3      12137           0.0000000000
     87926     13497  TIP3      H2             29.0571822094       -4.4805922943      -63.1311249187  TIP3      12137           0.0000000000
     87927     13498  TIP3      OH2            30.1995000173      -12.0026432035      -65.1847461454  TIP3      12138           0.0000000000
     87928     13498  TIP3      H1             30.1518782506      -12.2317876998      -66.1470595589  TIP3      12138           0.0000000000
     87929     13498  TIP3      H2             31.0649347564      -11.5668032304      -65.1519563345  TIP3      12138           0.0000000000
     87930     13499  TIP3      OH2            25.7578072833      -18.1351716792      -64.6309448628  TIP3      12139           0.0000000000
     87931     13499  TIP3      H1             25.4767857065      -18.1119759693      -63.7093937729  TIP3      12139           0.0000000000
     87932     13499  TIP3      H2             25.4690848337      -18.9953084015      -64.9473763821  TIP3      12139           0.0000000000
     87933     13500  TIP3      OH2            22.5840994849      -17.7573390266      -65.5754221655  TIP3      12140           0.0000000000
     87934     13500  TIP3      H1             22.1315674143      -18.0709569011      -64.7616030011  TIP3      12140           0.0000000000
     87935     13500  TIP3      H2             21.8795457752      -17.2936242185      -66.0556113667  TIP3      12140           0.0000000000
     87936     13501  TIP3      OH2            17.1082580313      -17.3076803754      -63.1222415859  TIP3      12141           0.0000000000
     87937     13501  TIP3      H1             17.6216840016      -16.6539319669      -63.6317875953  TIP3      12141           0.0000000000
     87938     13501  TIP3      H2             16.4572213120      -16.6902579778      -62.7230205599  TIP3      12141           0.0000000000
     87939     13502  TIP3      OH2            21.2724499835      -14.9482221179      -64.1051407609  TIP3      12142           0.0000000000
     87940     13502  TIP3      H1             20.7017044855      -15.2974866569      -64.8078010721  TIP3      12142           0.0000000000
     87941     13502  TIP3      H2             22.0796890305      -14.7118623041      -64.5801742726  TIP3      12142           0.0000000000
     87942     13503  TIP3      OH2            28.4669080314      -17.5373412362      -64.0440975544  TIP3      12143           0.0000000000
     87943     13503  TIP3      H1             27.5084951713      -17.4121753529      -64.1303627083  TIP3      12143           0.0000000000
     87944     13503  TIP3      H2             28.7772953696      -16.7187499640      -63.6160595102  TIP3      12143           0.0000000000
     87945     13504  TIP3      OH2            29.1807314681      -15.5706175291      -62.3254947411  TIP3      12144           0.0000000000
     87946     13504  TIP3      H1             30.0863977334      -15.8242725282      -62.1002370995  TIP3      12144           0.0000000000
     87947     13504  TIP3      H2             29.2649900937      -14.8362685162      -62.9500362547  TIP3      12144           0.0000000000
     87948     13505  TIP3      OH2            26.6927634667       -8.9167471969      -63.1969525845  TIP3      12145           0.0000000000
     87949     13505  TIP3      H1             26.3870968877       -8.0688569821      -62.8063390407  TIP3      12145           0.0000000000
     87950     13505  TIP3      H2             25.9991569491       -9.5284608978      -62.9322522016  TIP3      12145           0.0000000000
     87951     13506  TIP3      OH2            34.0199611125      -15.4597625716      -62.5636394846  TIP3      12146           0.0000000000
     87952     13506  TIP3      H1             33.5105571837      -15.8151319429      -63.3219195372  TIP3      12146           0.0000000000
     87953     13506  TIP3      H2             34.1751181167      -14.5608797520      -62.9205009168  TIP3      12146           0.0000000000
     87954     13507  TIP3      OH2            17.8345298549      -12.6690916924      -64.4360161422  TIP3      12147           0.0000000000
     87955     13507  TIP3      H1             18.4436388210      -12.0270184812      -64.0266374330  TIP3      12147           0.0000000000
     87956     13507  TIP3      H2             16.9506211914      -12.3620619423      -64.1597442633  TIP3      12147           0.0000000000
     87957     13508  TIP3      OH2            29.8159123461       -8.6552992054      -64.3741149761  TIP3      12148           0.0000000000
     87958     13508  TIP3      H1             30.1075253161       -8.9993870888      -63.5309250408  TIP3      12148           0.0000000000
     87959     13508  TIP3      H2             28.8488824059       -8.7567388524      -64.2889818380  TIP3      12148           0.0000000000
     87960     13509  TIP3      OH2            34.2427438049       -4.2355949946      -64.1708266057  TIP3      12149           0.0000000000
     87961     13509  TIP3      H1             35.0043033843       -3.6261003779      -64.2166414263  TIP3      12149           0.0000000000
     87962     13509  TIP3      H2             33.5634996056       -3.6197784585      -63.8313591898  TIP3      12149           0.0000000000
     87963     13510  TIP3      OH2            23.9472523611       -7.5537994958      -65.8724183595  TIP3      12150           0.0000000000
     87964     13510  TIP3      H1             24.0515421618       -8.3120628941      -66.4663474353  TIP3      12150           0.0000000000
     87965     13510  TIP3      H2             23.5209851649       -7.9679522829      -65.0877178676  TIP3      12150           0.0000000000
     87966     13511  TIP3      OH2            22.7460051874       -8.0360032576      -63.4426990334  TIP3      12151           0.0000000000
     87967     13511  TIP3      H1             22.9807219119       -8.5161021202      -62.6390890895  TIP3      12151           0.0000000000
     87968     13511  TIP3      H2             22.8462655883       -7.1139115893      -63.1231487602  TIP3      12151           0.0000000000
     87969     13512  TIP3      OH2            19.2267032081      -10.7593005973      -62.9384132220  TIP3      12152           0.0000000000
     87970     13512  TIP3      H1             18.5440134909      -10.3812704505      -62.3926783942  TIP3      12152           0.0000000000
     87971     13512  TIP3      H2             19.7689382335      -10.0065651435      -63.2418083743  TIP3      12152           0.0000000000
     87972     13513  TIP3      OH2            25.5084657596       -6.3149099161      -62.6781213681  TIP3      12153           0.0000000000
     87973     13513  TIP3      H1             24.6796952682       -5.8033711824      -62.6722262434  TIP3      12153           0.0000000000
     87974     13513  TIP3      H2             26.0428053847       -5.7983743721      -63.3037754108  TIP3      12153           0.0000000000
     87975     13514  TIP3      OH2            22.9221270748       -5.3085339514      -62.6785621372  TIP3      12154           0.0000000000
     87976     13514  TIP3      H1             22.9929524455       -4.5178589469      -63.2692240129  TIP3      12154           0.0000000000
     87977     13514  TIP3      H2             22.6813803620       -4.9049670411      -61.8352977737  TIP3      12154           0.0000000000
     87978     13515  TIP3      OH2            21.5822167899      -18.5996446298      -63.1724198488  TIP3      12155           0.0000000000
     87979     13515  TIP3      H1             21.4709594223      -17.7306181613      -62.7536410754  TIP3      12155           0.0000000000
     87980     13515  TIP3      H2             22.4567867097      -18.8172687093      -62.8424499398  TIP3      12155           0.0000000000
     87981     13516  TIP3      OH2            19.8256750261       -8.1198678155      -64.0544109550  TIP3      12156           0.0000000000
     87982     13516  TIP3      H1             20.4965067440       -7.4851826721      -63.7691542998  TIP3      12156           0.0000000000
     87983     13516  TIP3      H2             20.3316892405       -8.5991835596      -64.7410228240  TIP3      12156           0.0000000000
     87984     13517  TIP3      OH2            18.1647809199      -15.4655214991      -64.9069243768  TIP3      12157           0.0000000000
     87985     13517  TIP3      H1             18.1442454400      -14.5062964281      -64.7274634896  TIP3      12157           0.0000000000
     87986     13517  TIP3      H2             17.2784205201      -15.6613425888      -65.2172204808  TIP3      12157           0.0000000000
     87987     13518  TIP3      OH2            25.9458797910       -5.6765360957      -65.7445434098  TIP3      12158           0.0000000000
     87988     13518  TIP3      H1             25.2520230633       -6.3416673040      -65.5310456621  TIP3      12158           0.0000000000
     87989     13518  TIP3      H2             26.6573174426       -6.2650661278      -66.0391361009  TIP3      12158           0.0000000000
     87990     13519  TIP3      OH2            30.4848175506       -5.9295138280      -65.6155588529  TIP3      12159           0.0000000000
     87991     13519  TIP3      H1             30.7910206239       -6.6751743233      -65.0729797171  TIP3      12159           0.0000000000
     87992     13519  TIP3      H2             31.2766232724       -5.6974737162      -66.1280672257  TIP3      12159           0.0000000000
     87993     13520  TIP3      OH2            21.3752173280      -10.0393964000      -65.7367961459  TIP3      12160           0.0000000000
     87994     13520  TIP3      H1             21.5619804037      -10.7681776677      -65.1258521543  TIP3      12160           0.0000000000
     87995     13520  TIP3      H2             22.1326009826      -10.0989916153      -66.3493421284  TIP3      12160           0.0000000000
     87996     13521  TIP3      OH2            26.8441760679       -8.8879096942      -65.9474050608  TIP3      12161           0.0000000000
     87997     13521  TIP3      H1             26.5758748585       -8.7965040318      -65.0170821062  TIP3      12161           0.0000000000
     87998     13521  TIP3      H2             26.6272891831       -9.8406996836      -66.1008668959  TIP3      12161           0.0000000000
     87999     13522  TIP3      OH2            22.5718893650      -12.0143783611      -63.4013689143  TIP3      12162           0.0000000000
     88000     13522  TIP3      H1             22.1368356745      -12.5043139955      -62.6976803075  TIP3      12162           0.0000000000
     88001     13522  TIP3      H2             22.8686325802      -12.6812718862      -64.0508661974  TIP3      12162           0.0000000000
     88002     13523  TIP3      OH2            23.6690222192      -13.7542065605      -65.1796911408  TIP3      12163           0.0000000000
     88003     13523  TIP3      H1             23.5471854440      -13.9273108022      -66.1215365922  TIP3      12163           0.0000000000
     88004     13523  TIP3      H2             24.6465594054      -13.6893871313      -65.0635868929  TIP3      12163           0.0000000000
     88005     13524  TIP3      OH2            32.9927479216      -11.4104966906      -65.6053141531  TIP3      12164           0.0000000000
     88006     13524  TIP3      H1             32.8592607628      -11.8312165701      -66.4711963652  TIP3      12164           0.0000000000
     88007     13524  TIP3      H2             33.0973304793      -10.4654404847      -65.8649067058  TIP3      12164           0.0000000000
     88008     13525  TIP3      OH2            23.5363064905       -3.0360426627      -64.0158053063  TIP3      12165           0.0000000000
     88009     13525  TIP3      H1             24.5107020545       -2.9698545322      -64.0060001666  TIP3      12165           0.0000000000
     88010     13525  TIP3      H2             23.3544196247       -2.4562575493      -64.7737948563  TIP3      12165           0.0000000000
     88011     13526  TIP3      OH2            17.0700456233       -8.4743184077      -64.5716220636  TIP3      12166           0.0000000000
     88012     13526  TIP3      H1             18.0262984706       -8.3673763584      -64.3789948119  TIP3      12166           0.0000000000
     88013     13526  TIP3      H2             17.1184988612       -9.1358851487      -65.2929605600  TIP3      12166           0.0000000000
     88014     13527  TIP3      OH2            34.1331345258      -12.6001534730      -63.4410154761  TIP3      12167           0.0000000000
     88015     13527  TIP3      H1             33.6905768936      -12.2380094246      -64.2444806343  TIP3      12167           0.0000000000
     88016     13527  TIP3      H2             34.1606480305      -11.8580101106      -62.8345755108  TIP3      12167           0.0000000000
     88017     13528  TIP3      OH2            32.5480584609      -15.3615233075      -64.9168604212  TIP3      12168           0.0000000000
     88018     13528  TIP3      H1             32.6434241843      -14.7265419612      -65.6350047563  TIP3      12168           0.0000000000
     88019     13528  TIP3      H2             32.3996993234      -16.1884519171      -65.4214716378  TIP3      12168           0.0000000000
     88020     13529  TIP3      OH2            31.8111200855      -17.9422394103      -65.8082862377  TIP3      12169           0.0000000000
     88021     13529  TIP3      H1             32.4106285578      -18.3463231408      -65.1591348838  TIP3      12169           0.0000000000
     88022     13529  TIP3      H2             30.9538585509      -18.3419978438      -65.6040253146  TIP3      12169           0.0000000000
     88023     13530  TIP3      OH2            33.8754578002      -19.0934265540      -64.2325141008  TIP3      12170           0.0000000000
     88024     13530  TIP3      H1             34.3053652545      -19.7962846516      -64.7582846291  TIP3      12170           0.0000000000
     88025     13530  TIP3      H2             34.5761129555      -18.4230295512      -64.1800507949  TIP3      12170           0.0000000000
     88026     13531  TIP3      OH2            17.4437654007      -21.0057748631      -63.2263240772  TIP3      12171           0.0000000000
     88027     13531  TIP3      H1             17.9238115491      -20.3428661321      -63.7408761129  TIP3      12171           0.0000000000
     88028     13531  TIP3      H2             16.8517138615      -20.4474475897      -62.7235911011  TIP3      12171           0.0000000000
     88029     13532  TIP3      OH2            19.2937644202      -19.0786009252      -64.7195213293  TIP3      12172           0.0000000000
     88030     13532  TIP3      H1             19.7836865988      -19.7209404873      -65.2547852468  TIP3      12172           0.0000000000
     88031     13532  TIP3      H2             19.9227350983      -18.8007076598      -64.0290503786  TIP3      12172           0.0000000000
     88032     13533  TIP3      OH2            26.2003636443       -3.8304202537      -63.8305624508  TIP3      12173           0.0000000000
     88033     13533  TIP3      H1             27.1025764058       -3.5510318020      -64.0621113182  TIP3      12173           0.0000000000
     88034     13533  TIP3      H2             25.9995879649       -4.3318461367      -64.6559433215  TIP3      12173           0.0000000000
     88035     13534  TIP3      OH2            19.1013004300       -4.1234787675      -65.2729768781  TIP3      12174           0.0000000000
     88036     13534  TIP3      H1             18.8786422410       -3.8637295739      -64.3616687197  TIP3      12174           0.0000000000
     88037     13534  TIP3      H2             19.8836448615       -4.6948364283      -65.1294838135  TIP3      12174           0.0000000000
     88038     13535  TIP3      OH2            35.9464977603      -17.3023514031      -63.0824621679  TIP3      12175           0.0000000000
     88039     13535  TIP3      H1             36.4915029967      -16.6723419185      -63.5949464314  TIP3      12175           0.0000000000
     88040     13535  TIP3      H2             35.3099475467      -16.6747016961      -62.6930352379  TIP3      12175           0.0000000000
     88041     13536  TIP3      OH2            40.1276997609      -14.9688558838      -64.1057918984  TIP3      12176           0.0000000000
     88042     13536  TIP3      H1             39.5361406448      -15.2521796731      -64.8339787254  TIP3      12176           0.0000000000
     88043     13536  TIP3      H2             40.8980549271      -14.6884273725      -64.5855183679  TIP3      12176           0.0000000000
     88044     13537  TIP3      OH2            36.7013582650      -12.6177927730      -64.5112798817  TIP3      12177           0.0000000000
     88045     13537  TIP3      H1             37.3027174685      -12.0421974018      -64.0033620949  TIP3      12177           0.0000000000
     88046     13537  TIP3      H2             35.8227338001      -12.3826516474      -64.1716721967  TIP3      12177           0.0000000000
     88047     13538  TIP3      OH2            38.0971294297      -10.7564832495      -62.9536472423  TIP3      12178           0.0000000000
     88048     13538  TIP3      H1             37.4204125518      -10.4263871380      -62.3625340131  TIP3      12178           0.0000000000
     88049     13538  TIP3      H2             38.5957264158       -9.9769057913      -63.2235544628  TIP3      12178           0.0000000000
     88050     13539  TIP3      OH2           -41.1262371274      -18.7259684222      -63.0880569505  TIP3      12179           0.0000000000
     88051     13539  TIP3      H1            -41.1495581254      -17.7984400049      -62.8275938538  TIP3      12179           0.0000000000
     88052     13539  TIP3      H2            -40.1708790158      -18.8357604658      -62.9639877464  TIP3      12179           0.0000000000
     88053     13540  TIP3      OH2            38.6991098635       -8.1213913854      -64.0526999287  TIP3      12180           0.0000000000
     88054     13540  TIP3      H1             39.3541910855       -7.4706818054      -63.7828734705  TIP3      12180           0.0000000000
     88055     13540  TIP3      H2             39.1962604149       -8.6080627946      -64.7410541684  TIP3      12180           0.0000000000
     88056     13541  TIP3      OH2            37.0463244204      -15.4715585171      -64.8774831066  TIP3      12181           0.0000000000
     88057     13541  TIP3      H1             37.0135785434      -14.5026263578      -64.7562168411  TIP3      12181           0.0000000000
     88058     13541  TIP3      H2             36.1628714591      -15.6503648594      -65.2329378196  TIP3      12181           0.0000000000
     88059     13542  TIP3      OH2            39.9517025766      -10.0382492297      -65.5802931838  TIP3      12182           0.0000000000
     88060     13542  TIP3      H1             40.2504430999      -10.7784255553      -65.0455836372  TIP3      12182           0.0000000000
     88061     13542  TIP3      H2             40.7447909405      -10.0173890571      -66.1392082814  TIP3      12182           0.0000000000
     88062     13543  TIP3      OH2            35.9534326782       -8.4478912110      -64.5675945437  TIP3      12183           0.0000000000
     88063     13543  TIP3      H1             36.9040634101       -8.3546213980      -64.3707287861  TIP3      12183           0.0000000000
     88064     13543  TIP3      H2             35.9847573936       -9.1214932477      -65.2804441945  TIP3      12183           0.0000000000
     88065     13544  TIP3      OH2            36.2870784274      -21.0193173549      -63.2713075485  TIP3      12184           0.0000000000
     88066     13544  TIP3      H1             36.7845661722      -20.3349295358      -63.7333324284  TIP3      12184           0.0000000000
     88067     13544  TIP3      H2             35.7299830881      -20.4643115091      -62.7204587433  TIP3      12184           0.0000000000
     88068     13545  TIP3      OH2            38.1472505281      -19.0842632932      -64.7357189771  TIP3      12185           0.0000000000
     88069     13545  TIP3      H1             38.6866441493      -19.6996153691      -65.2387456607  TIP3      12185           0.0000000000
     88070     13545  TIP3      H2             38.7853482422      -18.7809878320      -64.0568547059  TIP3      12185           0.0000000000
     88071     13546  TIP3      OH2            38.0465468993       -4.1078493798      -65.2719042900  TIP3      12186           0.0000000000
     88072     13546  TIP3      H1             37.7387295960       -3.8374994909      -64.3857661565  TIP3      12186           0.0000000000
     88073     13546  TIP3      H2             38.7752768355       -4.7058774419      -65.0742667486  TIP3      12186           0.0000000000
     88074     13547  TIP3      OH2           -30.1311644158        4.9398599561      -64.5682866674  TIP3      12187           0.0000000000
     88075     13547  TIP3      H1            -29.4129298719        4.9847226569      -63.9054867277  TIP3      12187           0.0000000000
     88076     13547  TIP3      H2            -29.7757410253        4.2565602694      -65.1492122531  TIP3      12187           0.0000000000
     88077     13548  TIP3      OH2           -27.8417451243        5.8072914693      -62.9703372675  TIP3      12188           0.0000000000
     88078     13548  TIP3      H1            -27.2965491909        6.0196030072      -62.2116265819  TIP3      12188           0.0000000000
     88079     13548  TIP3      H2            -27.4319411736        6.3179288908      -63.6970738342  TIP3      12188           0.0000000000
     88080     13549  TIP3      OH2           -24.1235340246       -2.4313431321      -63.0594813738  TIP3      12189           0.0000000000
     88081     13549  TIP3      H1            -25.0623097456       -2.3384459800      -62.8534548573  TIP3      12189           0.0000000000
     88082     13549  TIP3      H2            -23.9215334373       -1.5810147896      -63.4840854135  TIP3      12189           0.0000000000
     88083     13550  TIP3      OH2           -22.9911217214       11.9284229859      -64.7852339480  TIP3      12190           0.0000000000
     88084     13550  TIP3      H1            -22.8518970806       12.8668519181      -64.5644755926  TIP3      12190           0.0000000000
     88085     13550  TIP3      H2            -22.0679230107       11.6322353001      -64.7363288703  TIP3      12190           0.0000000000
     88086     13551  TIP3      OH2           -27.5524830812       14.6977205619      -64.0496313607  TIP3      12191           0.0000000000
     88087     13551  TIP3      H1            -27.1470007331       13.9420256927      -64.5397267351  TIP3      12191           0.0000000000
     88088     13551  TIP3      H2            -27.5085635492       14.3774321689      -63.1373920749  TIP3      12191           0.0000000000
     88089     13552  TIP3      OH2           -26.3846551983        6.8551656969      -65.2075511868  TIP3      12192           0.0000000000
     88090     13552  TIP3      H1            -26.4063700964        6.6678044785      -66.1731860953  TIP3      12192           0.0000000000
     88091     13552  TIP3      H2            -25.5259932735        7.2939710632      -65.1219029601  TIP3      12192           0.0000000000
     88092     13553  TIP3      OH2           -30.8195046111        0.7570741351      -64.6316485908  TIP3      12193           0.0000000000
     88093     13553  TIP3      H1            -31.1099081468        0.7439277400      -63.7146919513  TIP3      12193           0.0000000000
     88094     13553  TIP3      H2            -31.1044447622       -0.1169925279      -64.9593413012  TIP3      12193           0.0000000000
     88095     13554  TIP3      OH2           -33.9602049556        1.1256513486      -65.5387014428  TIP3      12194           0.0000000000
     88096     13554  TIP3      H1            -34.4255320525        0.7575321277      -64.7598401904  TIP3      12194           0.0000000000
     88097     13554  TIP3      H2            -34.6756791697        1.5605273439      -66.0286012574  TIP3      12194           0.0000000000
     88098     13555  TIP3      OH2           -39.2386541948        1.8386586092      -62.8872719522  TIP3      12195           0.0000000000
     88099     13555  TIP3      H1            -38.8866372755        2.3134776261      -63.6657724797  TIP3      12195           0.0000000000
     88100     13555  TIP3      H2            -40.0696016702        2.2796484602      -62.7327885764  TIP3      12195           0.0000000000
     88101     13556  TIP3      OH2           -35.3096694442        3.8948651916      -64.0989630951  TIP3      12196           0.0000000000
     88102     13556  TIP3      H1            -35.8623123175        3.5838509432      -64.8365424781  TIP3      12196           0.0000000000
     88103     13556  TIP3      H2            -34.5046789466        4.1534647199      -64.5762137304  TIP3      12196           0.0000000000
     88104     13557  TIP3      OH2           -28.1068178993        1.3053447800      -64.0398356623  TIP3      12197           0.0000000000
     88105     13557  TIP3      H1            -29.0632779012        1.4455474388      -64.1279651079  TIP3      12197           0.0000000000
     88106     13557  TIP3      H2            -27.7904238414        2.1289881489      -63.6165003778  TIP3      12197           0.0000000000
     88107     13558  TIP3      OH2           -27.3921749526        3.2583413058      -62.3468586343  TIP3      12198           0.0000000000
     88108     13558  TIP3      H1            -26.4859168478        3.0553102314      -62.0789317486  TIP3      12198           0.0000000000
     88109     13558  TIP3      H2            -27.3053509444        4.0322817243      -62.9250157888  TIP3      12198           0.0000000000
     88110     13559  TIP3      OH2           -29.8677151478        9.9393376393      -63.1907747080  TIP3      12199           0.0000000000
     88111     13559  TIP3      H1            -30.1787942308       10.7863957009      -62.8060612085  TIP3      12199           0.0000000000
     88112     13559  TIP3      H2            -30.5657864840        9.3296360759      -62.9327756121  TIP3      12199           0.0000000000
     88113     13560  TIP3      OH2           -22.5140156355        3.3805242433      -62.5870221344  TIP3      12200           0.0000000000
     88114     13560  TIP3      H1            -23.0486944048        3.0374725337      -63.3314720128  TIP3      12200           0.0000000000
     88115     13560  TIP3      H2            -22.4076682550        4.3015973635      -62.8980571956  TIP3      12200           0.0000000000
     88116     13561  TIP3      OH2           -38.7654116562        6.2076708869      -64.4871131387  TIP3      12201           0.0000000000
     88117     13561  TIP3      H1            -38.1248368045        6.7822703725      -63.9948521192  TIP3      12201           0.0000000000
     88118     13561  TIP3      H2            -39.5996906031        6.5116222493      -64.1314848045  TIP3      12201           0.0000000000
     88119     13562  TIP3      OH2           -26.7666360843       10.2036226810      -64.3816274619  TIP3      12202           0.0000000000
     88120     13562  TIP3      H1            -26.4601768066        9.8508718791      -63.5404071168  TIP3      12202           0.0000000000
     88121     13562  TIP3      H2            -27.7296975188       10.0890681700      -64.2764528657  TIP3      12202           0.0000000000
     88122     13563  TIP3      OH2           -22.3369103677       14.6149058122      -64.1628327839  TIP3      12203           0.0000000000
     88123     13563  TIP3      H1            -21.5714911250       15.2155892870      -64.2201023424  TIP3      12203           0.0000000000
     88124     13563  TIP3      H2            -23.0072522165       15.2443820589      -63.8308326160  TIP3      12203           0.0000000000
     88125     13564  TIP3      OH2           -32.6327504463       11.3206446665      -65.8868494635  TIP3      12204           0.0000000000
     88126     13564  TIP3      H1            -32.4914986135       10.5385079818      -66.4448077349  TIP3      12204           0.0000000000
     88127     13564  TIP3      H2            -33.0546710907       10.9037989762      -65.1027640180  TIP3      12204           0.0000000000
     88128     13565  TIP3      OH2           -33.8400591905       10.8251094231      -63.4465398357  TIP3      12205           0.0000000000
     88129     13565  TIP3      H1            -33.5898476948       10.3400733584      -62.6507995320  TIP3      12205           0.0000000000
     88130     13565  TIP3      H2            -33.7270410718       11.7422350855      -63.1195341530  TIP3      12205           0.0000000000
     88131     13566  TIP3      OH2           -37.3927564981        8.1060348707      -63.0182990703  TIP3      12206           0.0000000000
     88132     13566  TIP3      H1            -37.9959032893        8.4303995115      -62.3528931627  TIP3      12206           0.0000000000
     88133     13566  TIP3      H2            -36.7935214957        8.8494867544      -63.2197144584  TIP3      12206           0.0000000000
     88134     13567  TIP3      OH2           -31.0586423622       12.5439667655      -62.6819265353  TIP3      12207           0.0000000000
     88135     13567  TIP3      H1            -31.8894748381       13.0519949763      -62.6725522122  TIP3      12207           0.0000000000
     88136     13567  TIP3      H2            -30.5298285612       13.0605854417      -63.3122556839  TIP3      12207           0.0000000000
     88137     13568  TIP3      OH2           -33.6451715559       13.5423679616      -62.6699493721  TIP3      12208           0.0000000000
     88138     13568  TIP3      H1            -33.5653133679       14.3354828199      -63.2528044686  TIP3      12208           0.0000000000
     88139     13568  TIP3      H2            -33.8905308843       13.9472455834      -61.8295162942  TIP3      12208           0.0000000000
     88140     13569  TIP3      OH2           -35.0088890411        0.2688361279      -63.1489843581  TIP3      12209           0.0000000000
     88141     13569  TIP3      H1            -35.0853777409        1.1493696223      -62.7453601862  TIP3      12209           0.0000000000
     88142     13569  TIP3      H2            -34.1177794147        0.0317764859      -62.8678471262  TIP3      12209           0.0000000000
     88143     13570  TIP3      OH2           -36.7364679317       10.7150114282      -64.0343426457  TIP3      12210           0.0000000000
     88144     13570  TIP3      H1            -36.0960794111       11.3854044409      -63.7668590554  TIP3      12210           0.0000000000
     88145     13570  TIP3      H2            -36.2310511415       10.2649629386      -64.7396956759  TIP3      12210           0.0000000000
     88146     13571  TIP3      OH2           -38.3917473631        3.4092128662      -64.9105401015  TIP3      12211           0.0000000000
     88147     13571  TIP3      H1            -38.4133887650        4.3690546916      -64.7460458419  TIP3      12211           0.0000000000
     88148     13571  TIP3      H2            -39.2524683949        3.1510730269      -65.2510309138  TIP3      12211           0.0000000000
     88149     13572  TIP3      OH2           -30.6345599422       13.1721474466      -65.7669996169  TIP3      12212           0.0000000000
     88150     13572  TIP3      H1            -31.3126780771       12.5081990460      -65.5221115427  TIP3      12212           0.0000000000
     88151     13572  TIP3      H2            -29.9118847128       12.5853885630      -66.0450420891  TIP3      12212           0.0000000000
     88152     13573  TIP3      OH2           -26.0690056149       12.9316933488      -65.5748204856  TIP3      12213           0.0000000000
     88153     13573  TIP3      H1            -25.7663511147       12.1619928103      -65.0723906830  TIP3      12213           0.0000000000
     88154     13573  TIP3      H2            -25.3109667175       13.1621790868      -66.1308208127  TIP3      12213           0.0000000000
     88155     13574  TIP3      OH2           -35.1916048033        8.8386198464      -65.7231700178  TIP3      12214           0.0000000000
     88156     13574  TIP3      H1            -35.0068089901        8.0811138641      -65.1430644067  TIP3      12214           0.0000000000
     88157     13574  TIP3      H2            -34.4492674147        8.7504625807      -66.3521777103  TIP3      12214           0.0000000000
     88158     13575  TIP3      OH2           -29.7178817395        9.9591544309      -65.9374729053  TIP3      12215           0.0000000000
     88159     13575  TIP3      H1            -30.0076796977       10.0598842029      -65.0157377140  TIP3      12215           0.0000000000
     88160     13575  TIP3      H2            -29.9516226342        9.0134672256      -66.0988266710  TIP3      12215           0.0000000000
     88161     13576  TIP3      OH2           -33.9717022798        6.8516888871      -63.3863249469  TIP3      12216           0.0000000000
     88162     13576  TIP3      H1            -34.4456055969        6.3582403897      -62.7029229323  TIP3      12216           0.0000000000
     88163     13576  TIP3      H2            -33.6891376980        6.1765735164      -64.0332720293  TIP3      12216           0.0000000000
     88164     13577  TIP3      OH2           -32.9080118744        5.0585429129      -65.1398197380  TIP3      12217           0.0000000000
     88165     13577  TIP3      H1            -33.0448455439        5.0024091488      -66.1104173520  TIP3      12217           0.0000000000
     88166     13577  TIP3      H2            -31.9335536528        5.1709556997      -65.0627159439  TIP3      12217           0.0000000000
     88167     13578  TIP3      OH2           -23.5588908967        7.4385738971      -65.6387654481  TIP3      12218           0.0000000000
     88168     13578  TIP3      H1            -23.7338308981        7.0370029130      -66.5034895268  TIP3      12218           0.0000000000
     88169     13578  TIP3      H2            -23.4681561342        8.3877797494      -65.8868749924  TIP3      12218           0.0000000000
     88170     13579  TIP3      OH2           -33.0277630804       15.8003350121      -64.0303145820  TIP3      12219           0.0000000000
     88171     13579  TIP3      H1            -32.0550534841       15.8810226082      -63.9974810004  TIP3      12219           0.0000000000
     88172     13579  TIP3      H2            -33.2138734384       16.4123305497      -64.7578171525  TIP3      12219           0.0000000000
     88173     13580  TIP3      OH2           -39.4347467206       10.3985243511      -64.5330122818  TIP3      12220           0.0000000000
     88174     13580  TIP3      H1            -38.4807294458       10.5107395493      -64.3441851518  TIP3      12220           0.0000000000
     88175     13580  TIP3      H2            -39.3777863907        9.7675402575      -65.2561658155  TIP3      12220           0.0000000000
     88176     13581  TIP3      OH2           -22.3999808049        6.2458718442      -63.4684343533  TIP3      12221           0.0000000000
     88177     13581  TIP3      H1            -22.9030367159        6.6201081327      -64.2275332904  TIP3      12221           0.0000000000
     88178     13581  TIP3      H2            -22.4351738714        6.9630548920      -62.8212917507  TIP3      12221           0.0000000000
     88179     13582  TIP3      OH2           -23.9927741129        3.5067011938      -64.9428403259  TIP3      12222           0.0000000000
     88180     13582  TIP3      H1            -23.9221557747        4.1422225274      -65.6587260771  TIP3      12222           0.0000000000
     88181     13582  TIP3      H2            -24.1815494718        2.6632414083      -65.4033946089  TIP3      12222           0.0000000000
     88182     13583  TIP3      OH2           -24.7564275548        0.9541139971      -65.7950195538  TIP3      12223           0.0000000000
     88183     13583  TIP3      H1            -24.1569845554        0.5058117999      -65.1670700040  TIP3      12223           0.0000000000
     88184     13583  TIP3      H2            -25.6039043916        0.5158115348      -65.6103738832  TIP3      12223           0.0000000000
     88185     13584  TIP3      OH2           -22.6995687737       -0.1838683303      -64.2723564635  TIP3      12224           0.0000000000
     88186     13584  TIP3      H1            -22.2487063510       -0.9432732011      -64.7008062404  TIP3      12224           0.0000000000
     88187     13584  TIP3      H2            -21.9787305136        0.4589875044      -64.1617783520  TIP3      12224           0.0000000000
     88188     13585  TIP3      OH2           -39.1163179515       -2.1617664350      -63.1866094171  TIP3      12225           0.0000000000
     88189     13585  TIP3      H1            -38.6591355229       -1.5250144360      -63.7492315645  TIP3      12225           0.0000000000
     88190     13585  TIP3      H2            -39.7571702587       -1.6353442735      -62.7158007507  TIP3      12225           0.0000000000
     88191     13586  TIP3      OH2           -37.2785071068       -0.2117691863      -64.7219304413  TIP3      12226           0.0000000000
     88192     13586  TIP3      H1            -36.7922691746       -0.8634465480      -65.2550973398  TIP3      12226           0.0000000000
     88193     13586  TIP3      H2            -36.6265839432        0.0290521605      -64.0361670946  TIP3      12226           0.0000000000
     88194     13587  TIP3      OH2           -30.3790000379       15.0358631519      -63.8515460097  TIP3      12227           0.0000000000
     88195     13587  TIP3      H1            -29.4623530815       15.2944531424      -64.0457085819  TIP3      12227           0.0000000000
     88196     13587  TIP3      H2            -30.5622255924       14.5151059132      -64.6678664661  TIP3      12227           0.0000000000
     88197     13588  TIP3      OH2           -37.3987770169       14.7617179986      -65.2317189788  TIP3      12228           0.0000000000
     88198     13588  TIP3      H1            -37.6915600697       14.9787491124      -64.3327354097  TIP3      12228           0.0000000000
     88199     13588  TIP3      H2            -36.6532156227       14.1555600937      -65.0972847419  TIP3      12228           0.0000000000
     88200     13589  TIP3      OH2           -11.2008168462        5.0104457238      -64.5940235258  TIP3      12229           0.0000000000
     88201     13589  TIP3      H1            -10.5623379748        4.9410467757      -63.8575811382  TIP3      12229           0.0000000000
     88202     13589  TIP3      H2            -10.9586407578        4.2350365771      -65.1251264427  TIP3      12229           0.0000000000
     88203     13590  TIP3      OH2            -8.9792232865        5.8152483697      -62.9856190053  TIP3      12230           0.0000000000
     88204     13590  TIP3      H1             -8.4625376688        6.0000201615      -62.1946471018  TIP3      12230           0.0000000000
     88205     13590  TIP3      H2             -8.5264232612        6.3323390587      -63.6636709038  TIP3      12230           0.0000000000
     88206     13591  TIP3      OH2            -5.2669318674       -2.4227014561      -63.0366949664  TIP3      12231           0.0000000000
     88207     13591  TIP3      H1             -6.2049433808       -2.3251044237      -62.8300897841  TIP3      12231           0.0000000000
     88208     13591  TIP3      H2             -5.0659943130       -1.5862809816      -63.4942350653  TIP3      12231           0.0000000000
     88209     13592  TIP3      OH2            -4.1258137128       11.9325110972      -64.8120880960  TIP3      12232           0.0000000000
     88210     13592  TIP3      H1             -3.9909168332       12.8617635462      -64.5484790303  TIP3      12232           0.0000000000
     88211     13592  TIP3      H2             -3.2040967465       11.6336450283      -64.7261810687  TIP3      12232           0.0000000000
     88212     13593  TIP3      OH2            -8.7005662500       14.6985066892      -64.0422525853  TIP3      12233           0.0000000000
     88213     13593  TIP3      H1             -8.2976368606       13.9452062896      -64.5299721099  TIP3      12233           0.0000000000
     88214     13593  TIP3      H2             -8.6605736298       14.3749152841      -63.1337255886  TIP3      12233           0.0000000000
     88215     13594  TIP3      OH2            -7.3989999504        6.8343787247      -65.1521734178  TIP3      12234           0.0000000000
     88216     13594  TIP3      H1             -7.2682833235        6.6135824525      -66.0864925053  TIP3      12234           0.0000000000
     88217     13594  TIP3      H2             -6.5635488915        7.3351235504      -65.0348765987  TIP3      12234           0.0000000000
     88218     13595  TIP3      OH2           -11.9430973699        0.7285167547      -64.6104749064  TIP3      12235           0.0000000000
     88219     13595  TIP3      H1            -12.2554006253        0.7282930619      -63.7038532763  TIP3      12235           0.0000000000
     88220     13595  TIP3      H2            -12.2479440364       -0.1284113192      -64.9579808649  TIP3      12235           0.0000000000
     88221     13596  TIP3      OH2           -15.1287069667        1.1317466939      -65.5174014489  TIP3      12236           0.0000000000
     88222     13596  TIP3      H1            -15.5969353311        0.7401019587      -64.7519529313  TIP3      12236           0.0000000000
     88223     13596  TIP3      H2            -15.8376989824        1.5570879953      -66.0204753364  TIP3      12236           0.0000000000
     88224     13597  TIP3      OH2           -20.6136778636        1.5526788806      -63.1204624837  TIP3      12237           0.0000000000
     88225     13597  TIP3      H1            -20.0840185827        2.2147070858      -63.6049132483  TIP3      12237           0.0000000000
     88226     13597  TIP3      H2            -21.2521551794        2.1723043133      -62.7051337467  TIP3      12237           0.0000000000
     88227     13598  TIP3      OH2           -16.4261281159        3.8899956950      -64.1051038877  TIP3      12238           0.0000000000
     88228     13598  TIP3      H1            -16.9926124409        3.5910324637      -64.8373914561  TIP3      12238           0.0000000000
     88229     13598  TIP3      H2            -15.6339247199        4.1588874417      -64.5926960236  TIP3      12238           0.0000000000
     88230     13599  TIP3      OH2            -9.2500494360        1.3175346714      -64.0476989547  TIP3      12239           0.0000000000
     88231     13599  TIP3      H1            -10.2112659648        1.4291750302      -64.1200595068  TIP3      12239           0.0000000000
     88232     13599  TIP3      H2             -8.9365849555        2.1263373331      -63.6014010296  TIP3      12239           0.0000000000
     88233     13600  TIP3      OH2            -8.5387275780        3.2631971013      -62.3620339838  TIP3      12240           0.0000000000
     88234     13600  TIP3      H1             -7.6366455161        3.0531403680      -62.0766473391  TIP3      12240           0.0000000000
     88235     13600  TIP3      H2             -8.4366778868        4.0389891867      -62.9256866721  TIP3      12240           0.0000000000
     88236     13601  TIP3      OH2           -11.0202287055        9.9275464605      -63.2171521599  TIP3      12241           0.0000000000
     88237     13601  TIP3      H1            -11.3089247667       10.7821235813      -62.8115945957  TIP3      12241           0.0000000000
     88238     13601  TIP3      H2            -11.7138621710        9.3309835953      -62.9136870806  TIP3      12241           0.0000000000
     88239     13602  TIP3      OH2            -3.6608231557        3.3762053477      -62.5834163371  TIP3      12242           0.0000000000
     88240     13602  TIP3      H1             -4.1953960691        3.0400162632      -63.3270787940  TIP3      12242           0.0000000000
     88241     13602  TIP3      H2             -3.5515220405        4.2995600211      -62.8954663396  TIP3      12242           0.0000000000
     88242     13603  TIP3      OH2           -19.8757875509        6.2081775985      -64.4884691334  TIP3      12243           0.0000000000
     88243     13603  TIP3      H1            -19.2688251780        6.7975468671      -63.9924220475  TIP3      12243           0.0000000000
     88244     13603  TIP3      H2            -20.7513955420        6.4842004973      -64.1654433150  TIP3      12243           0.0000000000
     88245     13604  TIP3      OH2            -7.9120064171       10.1536895646      -64.4026210326  TIP3      12244           0.0000000000
     88246     13604  TIP3      H1             -7.5894474235        9.8956368345      -63.5305653701  TIP3      12244           0.0000000000
     88247     13604  TIP3      H2             -8.8740036066       10.1312294047      -64.2508789103  TIP3      12244           0.0000000000
     88248     13605  TIP3      OH2            -3.4715975197       14.6156011312      -64.1682162154  TIP3      12245           0.0000000000
     88249     13605  TIP3      H1             -2.7094358177       15.2219708600      -64.2143703352  TIP3      12245           0.0000000000
     88250     13605  TIP3      H2             -4.1486782338       15.2351537763      -63.8310505795  TIP3      12245           0.0000000000
     88251     13606  TIP3      OH2           -13.7507257499       11.2870129466      -65.8669782414  TIP3      12246           0.0000000000
     88252     13606  TIP3      H1            -13.6518159851       10.5433735709      -66.4688343697  TIP3      12246           0.0000000000
     88253     13606  TIP3      H2            -14.1964869755       10.8873484907      -65.0859981892  TIP3      12246           0.0000000000
     88254     13607  TIP3      OH2           -14.9674071316       10.8108269530      -63.4434910231  TIP3      12247           0.0000000000
     88255     13607  TIP3      H1            -14.7333373818       10.3452308984      -62.6315167741  TIP3      12247           0.0000000000
     88256     13607  TIP3      H2            -14.8633340808       11.7412682764      -63.1467432699  TIP3      12247           0.0000000000
     88257     13608  TIP3      OH2           -18.5264589811        8.1131530563      -63.0044121558  TIP3      12248           0.0000000000
     88258     13608  TIP3      H1            -19.1454309603        8.4426711577      -62.3565236508  TIP3      12248           0.0000000000
     88259     13608  TIP3      H2            -17.9392482466        8.8569323016      -63.2176161947  TIP3      12248           0.0000000000
     88260     13609  TIP3      OH2           -12.1949776524       12.5446167855      -62.6928448388  TIP3      12249           0.0000000000
     88261     13609  TIP3      H1            -13.0261212368       13.0485738126      -62.6810393809  TIP3      12249           0.0000000000
     88262     13609  TIP3      H2            -11.6725058648       13.0572058539      -63.3333358041  TIP3      12249           0.0000000000
     88263     13610  TIP3      OH2           -14.8050926478       13.5484418627      -62.6548384671  TIP3      12250           0.0000000000
     88264     13610  TIP3      H1            -14.7169336502       14.3187016007      -63.2694089909  TIP3      12250           0.0000000000
     88265     13610  TIP3      H2            -15.0336810443       13.9795892871      -61.8363596628  TIP3      12250           0.0000000000
     88266     13611  TIP3      OH2           -16.1482923776        0.2671206956      -63.1500417513  TIP3      12251           0.0000000000
     88267     13611  TIP3      H1            -16.2298247694        1.1464265930      -62.7432005254  TIP3      12251           0.0000000000
     88268     13611  TIP3      H2            -15.2612392522        0.0310742549      -62.8638264710  TIP3      12251           0.0000000000
     88269     13612  TIP3      OH2           -17.8769463468       10.7142716962      -64.0381383065  TIP3      12252           0.0000000000
     88270     13612  TIP3      H1            -17.2371334935       11.3853757604      -63.7648412182  TIP3      12252           0.0000000000
     88271     13612  TIP3      H2            -17.3733986587       10.2642155455      -64.7423196018  TIP3      12252           0.0000000000
     88272     13613  TIP3      OH2           -19.5423795389        3.3944449222      -64.9225208999  TIP3      12253           0.0000000000
     88273     13613  TIP3      H1            -19.5607348245        4.3468526452      -64.7016683816  TIP3      12253           0.0000000000
     88274     13613  TIP3      H2            -20.4433197078        3.2035077421      -65.1926702723  TIP3      12253           0.0000000000
     88275     13614  TIP3      OH2           -11.7443060358       13.1687223594      -65.6537487051  TIP3      12254           0.0000000000
     88276     13614  TIP3      H1            -12.4760093511       12.5230807324      -65.5552044444  TIP3      12254           0.0000000000
     88277     13614  TIP3      H2            -11.0754378002       12.6182206233      -66.0769169854  TIP3      12254           0.0000000000
     88278     13615  TIP3      OH2            -7.2285276541       12.9302652381      -65.6108679959  TIP3      12255           0.0000000000
     88279     13615  TIP3      H1             -6.9233501811       12.1765521082      -65.0826474569  TIP3      12255           0.0000000000
     88280     13615  TIP3      H2             -6.4457536184       13.1454371261      -66.1452695105  TIP3      12255           0.0000000000
     88281     13616  TIP3      OH2           -16.3236812337        8.8557439021      -65.7130919668  TIP3      12256           0.0000000000
     88282     13616  TIP3      H1            -16.1560807160        8.0834269218      -65.1487940252  TIP3      12256           0.0000000000
     88283     13616  TIP3      H2            -15.6258125454        8.7421112325      -66.3721762257  TIP3      12256           0.0000000000
     88284     13617  TIP3      OH2           -10.8325787519        9.9275093166      -65.9535012855  TIP3      12257           0.0000000000
     88285     13617  TIP3      H1            -11.1542933024       10.1012712271      -65.0427308270  TIP3      12257           0.0000000000
     88286     13617  TIP3      H2            -11.1705611174        9.0164214759      -66.0864928363  TIP3      12257           0.0000000000
     88287     13618  TIP3      OH2           -15.1154289849        6.8507112088      -63.3768074813  TIP3      12258           0.0000000000
     88288     13618  TIP3      H1            -15.5865510726        6.3576619984      -62.6886790673  TIP3      12258           0.0000000000
     88289     13618  TIP3      H2            -14.8455745351        6.1747490808      -64.0265159150  TIP3      12258           0.0000000000
     88290     13619  TIP3      OH2           -14.0306164460        5.0854717629      -65.1676538168  TIP3      12259           0.0000000000
     88291     13619  TIP3      H1            -14.1778023367        4.9593581057      -66.1183007409  TIP3      12259           0.0000000000
     88292     13619  TIP3      H2            -13.0613738634        5.1720057507      -65.0847575234  TIP3      12259           0.0000000000
     88293     13620  TIP3      OH2            -4.7406372391        7.4480067009      -65.6364702478  TIP3      12260           0.0000000000
     88294     13620  TIP3      H1             -4.8213390950        7.0447907824      -66.5184844766  TIP3      12260           0.0000000000
     88295     13620  TIP3      H2             -4.5952284426        8.3954093433      -65.8763838562  TIP3      12260           0.0000000000
     88296     13621  TIP3      OH2           -14.1693971663       15.8276466736      -63.9973916068  TIP3      12261           0.0000000000
     88297     13621  TIP3      H1            -13.1952124089       15.8837213904      -63.9980463727  TIP3      12261           0.0000000000
     88298     13621  TIP3      H2            -14.3601771653       16.3887502919      -64.7657984065  TIP3      12261           0.0000000000
     88299     13622  TIP3      OH2           -20.6489331578       10.4009136586      -64.6126621651  TIP3      12262           0.0000000000
     88300     13622  TIP3      H1            -19.6980213871       10.4825759465      -64.3763984865  TIP3      12262           0.0000000000
     88301     13622  TIP3      H2            -20.5880032213        9.7007010203      -65.3004852835  TIP3      12262           0.0000000000
     88302     13623  TIP3      OH2            -3.5387730952        6.2443693090      -63.4636383025  TIP3      12263           0.0000000000
     88303     13623  TIP3      H1             -4.0306365672        6.6191831842      -64.2239788073  TIP3      12263           0.0000000000
     88304     13623  TIP3      H2             -3.5788034297        6.9609665417      -62.8188574838  TIP3      12263           0.0000000000
     88305     13624  TIP3      OH2            -5.1754005312        3.5207805303      -64.9377804098  TIP3      12264           0.0000000000
     88306     13624  TIP3      H1             -5.0480527226        4.1378237051      -65.6615483912  TIP3      12264           0.0000000000
     88307     13624  TIP3      H2             -5.3089384522        2.6611117267      -65.3986678667  TIP3      12264           0.0000000000
     88308     13625  TIP3      OH2            -5.9030586282        0.9299070765      -65.8084620065  TIP3      12265           0.0000000000
     88309     13625  TIP3      H1             -5.3055029697        0.5162483370      -65.1584748357  TIP3      12265           0.0000000000
     88310     13625  TIP3      H2             -6.7585961642        0.5204883528      -65.6029473068  TIP3      12265           0.0000000000
     88311     13626  TIP3      OH2            -3.8373508163       -0.2092691169      -64.2449148139  TIP3      12266           0.0000000000
     88312     13626  TIP3      H1             -3.4087765536       -0.9365355161      -64.7414461310  TIP3      12266           0.0000000000
     88313     13626  TIP3      H2             -3.1245442242        0.4482598903      -64.1764807943  TIP3      12266           0.0000000000
     88314     13627  TIP3      OH2           -20.2507249268       -2.1466765385      -63.2049792545  TIP3      12267           0.0000000000
     88315     13627  TIP3      H1            -19.7827780958       -1.5021662423      -63.7512285937  TIP3      12267           0.0000000000
     88316     13627  TIP3      H2            -20.8646886169       -1.5815242733      -62.7364472324  TIP3      12267           0.0000000000
     88317     13628  TIP3      OH2           -18.4180917571       -0.2166301806      -64.7269784751  TIP3      12268           0.0000000000
     88318     13628  TIP3      H1            -17.9251057916       -0.8691526970      -65.2521421723  TIP3      12268           0.0000000000
     88319     13628  TIP3      H2            -17.7815666118        0.0472635179      -64.0359627824  TIP3      12268           0.0000000000
     88320     13629  TIP3      OH2           -11.5095322027       15.0596581983      -63.8438025159  TIP3      12269           0.0000000000
     88321     13629  TIP3      H1            -10.5923939114       15.2946595498      -64.0514161324  TIP3      12269           0.0000000000
     88322     13629  TIP3      H2            -11.7125212156       14.5290390915      -64.6554723139  TIP3      12269           0.0000000000
     88323     13630  TIP3      OH2           -18.6055046872       14.7099428386      -65.2548894910  TIP3      12270           0.0000000000
     88324     13630  TIP3      H1            -18.8277474743       14.9874747227      -64.3563987078  TIP3      12270           0.0000000000
     88325     13630  TIP3      H2            -17.7903701800       14.1848841996      -65.1315837449  TIP3      12270           0.0000000000
     88326     13631  TIP3      OH2             7.5770845573        4.9345395831      -64.5278496296  TIP3      12271           0.0000000000
     88327     13631  TIP3      H1              8.3155385204        4.9780773954      -63.8909741794  TIP3      12271           0.0000000000
     88328     13631  TIP3      H2              7.9267425881        4.2756945127      -65.1415959236  TIP3      12271           0.0000000000
     88329     13632  TIP3      OH2             9.8677788778        5.8083420221      -62.9711754507  TIP3      12272           0.0000000000
     88330     13632  TIP3      H1             10.4148279367        6.0226559128      -62.2123418957  TIP3      12272           0.0000000000
     88331     13632  TIP3      H2             10.2788872578        6.3125207224      -63.7035469150  TIP3      12272           0.0000000000
     88332     13633  TIP3      OH2            13.5893045789       -2.4265547903      -63.0472713338  TIP3      12273           0.0000000000
     88333     13633  TIP3      H1             12.6461013959       -2.3480145861      -62.8624360046  TIP3      12273           0.0000000000
     88334     13633  TIP3      H2             13.7854834884       -1.5727684870      -63.4684120243  TIP3      12273           0.0000000000
     88335     13634  TIP3      OH2            14.7147151048       11.9349259842      -64.8166093019  TIP3      12274           0.0000000000
     88336     13634  TIP3      H1             14.8512717919       12.8638802272      -64.5543625868  TIP3      12274           0.0000000000
     88337     13634  TIP3      H2             15.6348483361       11.6345082101      -64.7212249812  TIP3      12274           0.0000000000
     88338     13635  TIP3      OH2            10.1608251470       14.6935895367      -64.0435134035  TIP3      12275           0.0000000000
     88339     13635  TIP3      H1             10.5513436917       13.9261554258      -64.5204774284  TIP3      12275           0.0000000000
     88340     13635  TIP3      H2             10.1870436726       14.3563518842      -63.1302162523  TIP3      12275           0.0000000000
     88341     13636  TIP3      OH2            11.3500393096        6.8152219738      -65.1896836098  TIP3      12276           0.0000000000
     88342     13636  TIP3      H1             11.3002799446        6.6577741415      -66.1612423036  TIP3      12276           0.0000000000
     88343     13636  TIP3      H2             12.1836338160        7.3055500176      -65.1195197457  TIP3      12276           0.0000000000
     88344     13637  TIP3      OH2             6.8811310735        0.7504597988      -64.5935922060  TIP3      12277           0.0000000000
     88345     13637  TIP3      H1              6.5862588032        0.7267175362      -63.6830492682  TIP3      12277           0.0000000000
     88346     13637  TIP3      H2              6.6188770157       -0.1136380926      -64.9625288020  TIP3      12277           0.0000000000
     88347     13638  TIP3      OH2             3.7229086847        1.1665528253      -65.5558740635  TIP3      12278           0.0000000000
     88348     13638  TIP3      H1              3.2918366270        0.7593016632      -64.7760307950  TIP3      12278           0.0000000000
     88349     13638  TIP3      H2              2.9797204571        1.5448909590      -66.0337048314  TIP3      12278           0.0000000000
     88350     13639  TIP3      OH2            -1.7447595687        1.5554104096      -63.1154696154  TIP3      12279           0.0000000000
     88351     13639  TIP3      H1             -1.2258145434        2.2164887641      -63.6110460248  TIP3      12279           0.0000000000
     88352     13639  TIP3      H2             -2.3905762965        2.1741549927      -62.7130364931  TIP3      12279           0.0000000000
     88353     13640  TIP3      OH2             2.4187278929        3.8902128205      -64.1174265592  TIP3      12280           0.0000000000
     88354     13640  TIP3      H1              1.8362315161        3.5677862530      -64.8151427776  TIP3      12280           0.0000000000
     88355     13640  TIP3      H2              3.2256172785        4.1493738790      -64.5806512561  TIP3      12280           0.0000000000
     88356     13641  TIP3      OH2             9.5991108080        1.3081080901      -64.0246746453  TIP3      12281           0.0000000000
     88357     13641  TIP3      H1              8.6464223733        1.4483712041      -64.1421953680  TIP3      12281           0.0000000000
     88358     13641  TIP3      H2              9.9189200675        2.1370959562      -63.6210929801  TIP3      12281           0.0000000000
     88359     13642  TIP3      OH2            10.3228735811        3.2675779413      -62.3372219679  TIP3      12282           0.0000000000
     88360     13642  TIP3      H1             11.2305053374        3.0565850424      -62.0796228868  TIP3      12282           0.0000000000
     88361     13642  TIP3      H2             10.4071445657        4.0301608644      -62.9297853612  TIP3      12282           0.0000000000
     88362     13643  TIP3      OH2             7.8056068720        9.9310876125      -63.2463680423  TIP3      12283           0.0000000000
     88363     13643  TIP3      H1              7.5993587345       10.7776246710      -62.7810620980  TIP3      12283           0.0000000000
     88364     13643  TIP3      H2              7.1366607164        9.3332484406      -62.9012476328  TIP3      12283           0.0000000000
     88365     13644  TIP3      OH2            15.1981958978        3.3796758081      -62.5849677480  TIP3      12284           0.0000000000
     88366     13644  TIP3      H1             14.6627909264        3.0412518887      -63.3292967370  TIP3      12284           0.0000000000
     88367     13644  TIP3      H2             15.3044256021        4.3025316019      -62.8981195832  TIP3      12284           0.0000000000
     88368     13645  TIP3      OH2            -1.0207860062        6.2103648987      -64.4785231661  TIP3      12285           0.0000000000
     88369     13645  TIP3      H1             -0.4159127127        6.8126153643      -63.9954588582  TIP3      12285           0.0000000000
     88370     13645  TIP3      H2             -1.8972326804        6.4875941963      -64.1590261893  TIP3      12285           0.0000000000
     88371     13646  TIP3      OH2            10.9590445383       10.1859190033      -64.4053151322  TIP3      12286           0.0000000000
     88372     13646  TIP3      H1             11.2426557616        9.8790128660      -63.5380557086  TIP3      12286           0.0000000000
     88373     13646  TIP3      H2              9.9901672704       10.1053846027      -64.2900089182  TIP3      12286           0.0000000000
     88374     13647  TIP3      OH2            15.3827328507       14.6169110709      -64.1698804891  TIP3      12287           0.0000000000
     88375     13647  TIP3      H1             16.1459096365       15.2222825975      -64.2137101845  TIP3      12287           0.0000000000
     88376     13647  TIP3      H2             14.7053813359       15.2358105768      -63.8293942482  TIP3      12287           0.0000000000
     88377     13648  TIP3      OH2             5.0417049658       11.2997064094      -65.9040011661  TIP3      12288           0.0000000000
     88378     13648  TIP3      H1              5.2425387407       10.5130137245      -66.4328779047  TIP3      12288           0.0000000000
     88379     13648  TIP3      H2              4.6663756286       10.8962014170      -65.0887540016  TIP3      12288           0.0000000000
     88380     13649  TIP3      OH2             3.8798203735       10.8224694157      -63.4354239975  TIP3      12289           0.0000000000
     88381     13649  TIP3      H1              4.1468381306       10.3461536221      -62.6403274590  TIP3      12289           0.0000000000
     88382     13649  TIP3      H2              4.0156014222       11.7428403750      -63.1192326867  TIP3      12289           0.0000000000
     88383     13650  TIP3      OH2             0.3334455241        8.1132891354      -63.0059168184  TIP3      12290           0.0000000000
     88384     13650  TIP3      H1             -0.2856749245        8.4469180426      -62.3593016438  TIP3      12290           0.0000000000
     88385     13650  TIP3      H2              0.9246718642        8.8514871375      -63.2315700228  TIP3      12290           0.0000000000
     88386     13651  TIP3      OH2             6.5674765845       12.5125616350      -62.7686208225  TIP3      12291           0.0000000000
     88387     13651  TIP3      H1              5.8042446884       13.0884956913      -62.6572431892  TIP3      12291           0.0000000000
     88388     13651  TIP3      H2              7.1991093205       13.0524668612      -63.2765316968  TIP3      12291           0.0000000000
     88389     13652  TIP3      OH2             4.0076699268       13.5502471980      -62.6728248523  TIP3      12292           0.0000000000
     88390     13652  TIP3      H1              4.1366554541       14.3471065653      -63.2389587865  TIP3      12292           0.0000000000
     88391     13652  TIP3      H2              3.8336073232       13.9491851083      -61.8145443411  TIP3      12292           0.0000000000
     88392     13653  TIP3      OH2             2.7179444610        0.2811661738      -63.1789711927  TIP3      12293           0.0000000000
     88393     13653  TIP3      H1              2.6248019698        1.1457035971      -62.7456271202  TIP3      12293           0.0000000000
     88394     13653  TIP3      H2              3.5923339674        0.0283776998      -62.8690548713  TIP3      12293           0.0000000000
     88395     13654  TIP3      OH2             0.9756761799       10.7333846144      -64.0472837071  TIP3      12294           0.0000000000
     88396     13654  TIP3      H1              1.6332145562       11.3740722767      -63.7527660999  TIP3      12294           0.0000000000
     88397     13654  TIP3      H2              1.4878961886       10.2599656719      -64.7291003610  TIP3      12294           0.0000000000
     88398     13655  TIP3      OH2            -0.6741624316        3.3981565669      -64.9219674175  TIP3      12295           0.0000000000
     88399     13655  TIP3      H1             -0.6992347115        4.3553479004      -64.7316479323  TIP3      12295           0.0000000000
     88400     13655  TIP3      H2             -1.5668388218        3.1995231554      -65.2182748420  TIP3      12295           0.0000000000
     88401     13656  TIP3      OH2             7.0990813701       13.1806650602      -65.7515887920  TIP3      12296           0.0000000000
     88402     13656  TIP3      H1              6.4072073628       12.5245566496      -65.5234035794  TIP3      12296           0.0000000000
     88403     13656  TIP3      H2              7.8015985750       12.5809946233      -66.0193676885  TIP3      12296           0.0000000000
     88404     13657  TIP3      OH2            11.6593134994       12.9732807265      -65.5891758302  TIP3      12297           0.0000000000
     88405     13657  TIP3      H1             11.8964996348       12.1741589444      -65.0920197980  TIP3      12297           0.0000000000
     88406     13657  TIP3      H2             12.4256546935       13.1329963534      -66.1517751696  TIP3      12297           0.0000000000
     88407     13658  TIP3      OH2             2.5094399364        8.8328911784      -65.7156147710  TIP3      12298           0.0000000000
     88408     13658  TIP3      H1              2.7041162305        8.0786786837      -65.1390164109  TIP3      12298           0.0000000000
     88409     13658  TIP3      H2              3.2651417749        8.7646061702      -66.3339228722  TIP3      12298           0.0000000000
     88410     13659  TIP3      OH2             7.9222065392        9.9661474631      -65.9371569295  TIP3      12299           0.0000000000
     88411     13659  TIP3      H1              7.7299039218       10.0527253637      -64.9840268165  TIP3      12299           0.0000000000
     88412     13659  TIP3      H2              7.7681351273        9.0098088700      -66.1060084836  TIP3      12299           0.0000000000
     88413     13660  TIP3      OH2             3.7242437492        6.8409395558      -63.4031600168  TIP3      12300           0.0000000000
     88414     13660  TIP3      H1              3.2737195888        6.3650543900      -62.6897509717  TIP3      12300           0.0000000000
     88415     13660  TIP3      H2              4.0042550637        6.1599367415      -64.0428260451  TIP3      12300           0.0000000000
     88416     13661  TIP3      OH2             4.8098061171        5.0840940495      -65.1629902897  TIP3      12301           0.0000000000
     88417     13661  TIP3      H1              4.6899762281        4.9632253904      -66.1135137102  TIP3      12301           0.0000000000
     88418     13661  TIP3      H2              5.7855505438        5.1832790052      -65.0493352200  TIP3      12301           0.0000000000
     88419     13662  TIP3      OH2            14.1637964808        7.4581729432      -65.6344299643  TIP3      12302           0.0000000000
     88420     13662  TIP3      H1             13.9786333481        7.0430366498      -66.4890819259  TIP3      12302           0.0000000000
     88421     13662  TIP3      H2             14.2108937819        8.4105038430      -65.8897251452  TIP3      12302           0.0000000000
     88422     13663  TIP3      OH2             4.6793432558       15.8214171274      -64.0132868734  TIP3      12303           0.0000000000
     88423     13663  TIP3      H1              5.6549252326       15.8781045454      -63.9961103007  TIP3      12303           0.0000000000
     88424     13663  TIP3      H2              4.5040514136       16.4182155262      -64.7548547228  TIP3      12303           0.0000000000
     88425     13664  TIP3      OH2            -1.7848722090       10.3850792853      -64.5922998786  TIP3      12304           0.0000000000
     88426     13664  TIP3      H1             -0.8314941365       10.4774817580      -64.3722339188  TIP3      12304           0.0000000000
     88427     13664  TIP3      H2             -1.7370747624        9.7132029635      -65.3076412901  TIP3      12304           0.0000000000
     88428     13665  TIP3      OH2            15.3079962707        6.2482539515      -63.4668318039  TIP3      12305           0.0000000000
     88429     13665  TIP3      H1             14.7981753851        6.6280143011      -64.2171127907  TIP3      12305           0.0000000000
     88430     13665  TIP3      H2             15.2760446549        6.9614003784      -62.8177077129  TIP3      12305           0.0000000000
     88431     13666  TIP3      OH2            13.7311935439        3.5069118348      -64.9363048188  TIP3      12306           0.0000000000
     88432     13666  TIP3      H1             13.7859885408        4.1440118545      -65.6517486424  TIP3      12306           0.0000000000
     88433     13666  TIP3      H2             13.5374630775        2.6690476828      -65.3988667130  TIP3      12306           0.0000000000
     88434     13667  TIP3      OH2            12.9565611961        0.9231823706      -65.8153829252  TIP3      12307           0.0000000000
     88435     13667  TIP3      H1             13.5520813692        0.5180116249      -65.1530715057  TIP3      12307           0.0000000000
     88436     13667  TIP3      H2             12.0971758814        0.5101402528      -65.6064499979  TIP3      12307           0.0000000000
     88437     13668  TIP3      OH2            15.0150162869       -0.2001209338      -64.2542968250  TIP3      12308           0.0000000000
     88438     13668  TIP3      H1             15.4658238642       -0.9236503205      -64.7188212281  TIP3      12308           0.0000000000
     88439     13668  TIP3      H2             15.7241647244        0.4584220468      -64.1604423008  TIP3      12308           0.0000000000
     88440     13669  TIP3      OH2            -1.4065669320       -2.1460015870      -63.2273318784  TIP3      12309           0.0000000000
     88441     13669  TIP3      H1             -0.9183679155       -1.4953307189      -63.7470665835  TIP3      12309           0.0000000000
     88442     13669  TIP3      H2             -1.9976522008       -1.5830470426      -62.7308125049  TIP3      12309           0.0000000000
     88443     13670  TIP3      OH2             0.4450669964       -0.1983494947      -64.7403528212  TIP3      12310           0.0000000000
     88444     13670  TIP3      H1              0.9281757935       -0.8816557896      -65.2409654668  TIP3      12310           0.0000000000
     88445     13670  TIP3      H2              1.0658434476        0.0375360156      -64.0251498503  TIP3      12310           0.0000000000
     88446     13671  TIP3      OH2             7.3136796673       15.0809266220      -63.8900142666  TIP3      12311           0.0000000000
     88447     13671  TIP3      H1              8.2562653155       15.2742661396      -64.0263077052  TIP3      12311           0.0000000000
     88448     13671  TIP3      H2              7.1665348141       14.5093171261      -64.6819067934  TIP3      12311           0.0000000000
     88449     13672  TIP3      OH2             0.3061540166       14.7608427161      -65.2709724830  TIP3      12312           0.0000000000
     88450     13672  TIP3      H1              0.0210188345       14.9904785788      -64.3706811152  TIP3      12312           0.0000000000
     88451     13672  TIP3      H2              1.0469970936       14.1481674760      -65.1111010770  TIP3      12312           0.0000000000
     88452     13673  TIP3      OH2            26.4447936599        4.9518658973      -64.5606702788  TIP3      12313           0.0000000000
     88453     13673  TIP3      H1             27.1556015323        4.9802824444      -63.8958487106  TIP3      12313           0.0000000000
     88454     13673  TIP3      H2             26.7875963926        4.2602941235      -65.1432788871  TIP3      12313           0.0000000000
     88455     13674  TIP3      OH2            28.7260486170        5.8039756519      -62.9631369087  TIP3      12314           0.0000000000
     88456     13674  TIP3      H1             29.2638617124        6.0156573315      -62.1969295389  TIP3      12314           0.0000000000
     88457     13674  TIP3      H2             29.1319854085        6.3194162382      -63.6846751122  TIP3      12314           0.0000000000
     88458     13675  TIP3      OH2            32.4442266024       -2.4232070457      -63.0489825232  TIP3      12315           0.0000000000
     88459     13675  TIP3      H1             31.5058029741       -2.3272974868      -62.8420847412  TIP3      12315           0.0000000000
     88460     13675  TIP3      H2             32.6481401347       -1.5796230581      -63.4909908365  TIP3      12315           0.0000000000
     88461     13676  TIP3      OH2            33.5810743941       11.9367139535      -64.8044205248  TIP3      12316           0.0000000000
     88462     13676  TIP3      H1             33.7227637272       12.8692880229      -64.5511640130  TIP3      12316           0.0000000000
     88463     13676  TIP3      H2             34.5015331084       11.6323735565      -64.7175963307  TIP3      12316           0.0000000000
     88464     13677  TIP3      OH2            29.0096390125       14.6989562985      -64.0423667655  TIP3      12317           0.0000000000
     88465     13677  TIP3      H1             29.4154256525       13.9394000239      -64.5198866508  TIP3      12317           0.0000000000
     88466     13677  TIP3      H2             29.0531275760       14.3806293030      -63.1288174680  TIP3      12317           0.0000000000
     88467     13678  TIP3      OH2            30.1923005044        6.8404316397      -65.2508158849  TIP3      12318           0.0000000000
     88468     13678  TIP3      H1             30.2043674365        6.6583356890      -66.2003212209  TIP3      12318           0.0000000000
     88469     13678  TIP3      H2             31.0372359249        7.2981102671      -65.1206216120  TIP3      12318           0.0000000000
     88470     13679  TIP3      OH2            25.7509028876        0.7554126075      -64.5990919759  TIP3      12319           0.0000000000
     88471     13679  TIP3      H1             25.4537218245        0.7306723192      -63.6885904857  TIP3      12319           0.0000000000
     88472     13679  TIP3      H2             25.4704583791       -0.1076533839      -64.9625945693  TIP3      12319           0.0000000000
     88473     13680  TIP3      OH2            22.5773410697        1.1202356907      -65.5302415843  TIP3      12320           0.0000000000
     88474     13680  TIP3      H1             22.1199494453        0.7487579846      -64.7477654021  TIP3      12320           0.0000000000
     88475     13680  TIP3      H2             21.8677842037        1.5617166036      -66.0177260757  TIP3      12320           0.0000000000
     88476     13681  TIP3      OH2            17.0939565746        1.5568537555      -63.1285005627  TIP3      12321           0.0000000000
     88477     13681  TIP3      H1             17.6284333630        2.2176522815      -63.6054721944  TIP3      12321           0.0000000000
     88478     13681  TIP3      H2             16.4588712310        2.1741764979      -62.7047733937  TIP3      12321           0.0000000000
     88479     13682  TIP3      OH2            21.2804107585        3.8891276776      -64.0922652877  TIP3      12322           0.0000000000
     88480     13682  TIP3      H1             20.7192061129        3.5807931128      -64.8253382797  TIP3      12322           0.0000000000
     88481     13682  TIP3      H2             22.0719578689        4.1522351927      -64.5831895514  TIP3      12322           0.0000000000
     88482     13683  TIP3      OH2            28.4585987212        1.3029999951      -64.0366604054  TIP3      12323           0.0000000000
     88483     13683  TIP3      H1             27.5039506798        1.4446708963      -64.1268776827  TIP3      12323           0.0000000000
     88484     13683  TIP3      H2             28.7778478425        2.1289690667      -63.6212890155  TIP3      12323           0.0000000000
     88485     13684  TIP3      OH2            29.1762825490        3.2544177421      -62.3432561427  TIP3      12324           0.0000000000
     88486     13684  TIP3      H1             30.0835359546        3.0538643197      -62.0785544122  TIP3      12324           0.0000000000
     88487     13684  TIP3      H2             29.2617442338        4.0284174664      -62.9198759248  TIP3      12324           0.0000000000
     88488     13685  TIP3      OH2            26.7001573399        9.9456066361      -63.1855387795  TIP3      12325           0.0000000000
     88489     13685  TIP3      H1             26.3794980320       10.7920836935      -62.8023231714  TIP3      12325           0.0000000000
     88490     13685  TIP3      H2             26.0017959325        9.3309244495      -62.9324810093  TIP3      12325           0.0000000000
     88491     13686  TIP3      OH2            34.0352609085        3.3890026958      -62.5617929046  TIP3      12326           0.0000000000
     88492     13686  TIP3      H1             33.5157126334        3.0405157010      -63.3131114838  TIP3      12326           0.0000000000
     88493     13686  TIP3      H2             34.1651823340        4.2984243477      -62.9014501372  TIP3      12326           0.0000000000
     88494     13687  TIP3      OH2            17.8350829963        6.2161784468      -64.4886391114  TIP3      12327           0.0000000000
     88495     13687  TIP3      H1             18.4422982930        6.7951345297      -63.9790935479  TIP3      12327           0.0000000000
     88496     13687  TIP3      H2             16.9577980847        6.4819297468      -64.1581087806  TIP3      12327           0.0000000000
     88497     13688  TIP3      OH2            29.8054017133       10.2098715370      -64.3717247667  TIP3      12328           0.0000000000
     88498     13688  TIP3      H1             30.1161278508        9.8622056982      -63.5313590543  TIP3      12328           0.0000000000
     88499     13688  TIP3      H2             28.8428625918       10.0863659613      -64.2797469990  TIP3      12328           0.0000000000
     88500     13689  TIP3      OH2            34.2313456828       14.6217141149      -64.1625339836  TIP3      12329           0.0000000000
     88501     13689  TIP3      H1             34.9982285786       15.2215574460      -64.2240720360  TIP3      12329           0.0000000000
     88502     13689  TIP3      H2             33.5585253497       15.2411737253      -63.8285107154  TIP3      12329           0.0000000000
     88503     13690  TIP3      OH2            23.9563094318       11.3150366757      -65.8805648378  TIP3      12330           0.0000000000
     88504     13690  TIP3      H1             24.0555318138       10.5458982609      -66.4629725723  TIP3      12330           0.0000000000
     88505     13690  TIP3      H2             23.5247609426       10.8939102090      -65.1026427132  TIP3      12330           0.0000000000
     88506     13691  TIP3      OH2            22.7475245574       10.8200915825      -63.4433802905  TIP3      12331           0.0000000000
     88507     13691  TIP3      H1             22.9819736176       10.3408800094      -62.6394852776  TIP3      12331           0.0000000000
     88508     13691  TIP3      H2             22.8461951315       11.7422338486      -63.1238992189  TIP3      12331           0.0000000000
     88509     13692  TIP3      OH2            19.1888725237        8.1125729240      -63.0042956122  TIP3      12332           0.0000000000
     88510     13692  TIP3      H1             18.5682967162        8.4456235391      -62.3589434994  TIP3      12332           0.0000000000
     88511     13692  TIP3      H2             19.7775299744        8.8538545976      -63.2241183053  TIP3      12332           0.0000000000
     88512     13693  TIP3      OH2            25.5077841226       12.5407079740      -62.6790248952  TIP3      12333           0.0000000000
     88513     13693  TIP3      H1             24.6792074945       13.0528317458      -62.6724431408  TIP3      12333           0.0000000000
     88514     13693  TIP3      H2             26.0431669741       13.0573995043      -63.3032259783  TIP3      12333           0.0000000000
     88515     13694  TIP3      OH2            22.9256806855       13.5506105578      -62.6853645183  TIP3      12334           0.0000000000
     88516     13694  TIP3      H1             22.9934257592       14.3426365094      -63.2728184885  TIP3      12334           0.0000000000
     88517     13694  TIP3      H2             22.6825276072       13.9498367815      -61.8394766453  TIP3      12334           0.0000000000
     88518     13695  TIP3      OH2            21.5654290210        0.2711464643      -63.1570549358  TIP3      12335           0.0000000000
     88519     13695  TIP3      H1             21.4813526783        1.1472397751      -62.7445122170  TIP3      12335           0.0000000000
     88520     13695  TIP3      H2             22.4512844058        0.0319815258      -62.8677864008  TIP3      12335           0.0000000000
     88521     13696  TIP3      OH2            19.8291467250       10.7295010552      -64.0438266998  TIP3      12336           0.0000000000
     88522     13696  TIP3      H1             20.4907335549       11.3727308982      -63.7683613450  TIP3      12336           0.0000000000
     88523     13696  TIP3      H2             20.3358657407       10.2575386077      -64.7340866351  TIP3      12336           0.0000000000
     88524     13697  TIP3      OH2            18.1703678811        3.3981896479      -64.9227196048  TIP3      12337           0.0000000000
     88525     13697  TIP3      H1             18.1528673625        4.3505289985      -64.7088405022  TIP3      12337           0.0000000000
     88526     13697  TIP3      H2             17.2688048377        3.2039436226      -65.1915488592  TIP3      12337           0.0000000000
     88527     13698  TIP3      OH2            25.9402364067       13.1737303265      -65.7615895028  TIP3      12338           0.0000000000
     88528     13698  TIP3      H1             25.2523870026       12.5126360798      -65.5186559977  TIP3      12338           0.0000000000
     88529     13698  TIP3      H2             26.6616057903       12.5840101147      -66.0320565771  TIP3      12338           0.0000000000
     88530     13699  TIP3      OH2            30.4863240935       12.9441937371      -65.5723205706  TIP3      12339           0.0000000000
     88531     13699  TIP3      H1             30.7805482215       12.1688373047      -65.0709770759  TIP3      12339           0.0000000000
     88532     13699  TIP3      H2             31.2674879780       13.1404971322      -66.1185460785  TIP3      12339           0.0000000000
     88533     13700  TIP3      OH2            21.3816421835        8.8470130066      -65.7275898062  TIP3      12340           0.0000000000
     88534     13700  TIP3      H1             21.5528360336        8.0877936819      -65.1469621406  TIP3      12340           0.0000000000
     88535     13700  TIP3      H2             22.1279525880        8.7450122703      -66.3534294504  TIP3      12340           0.0000000000
     88536     13701  TIP3      OH2            26.8377525496        9.9650468762      -65.9324504579  TIP3      12341           0.0000000000
     88537     13701  TIP3      H1             26.5529385706       10.0618357363      -65.0073171092  TIP3      12341           0.0000000000
     88538     13701  TIP3      H2             26.6223799930        9.0173693903      -66.1027646201  TIP3      12341           0.0000000000
     88539     13702  TIP3      OH2            22.5957675828        6.8513668365      -63.3842996304  TIP3      12342           0.0000000000
     88540     13702  TIP3      H1             22.1206541204        6.3599862553      -62.7008853886  TIP3      12342           0.0000000000
     88541     13702  TIP3      H2             22.8674961187        6.1731979173      -64.0293173362  TIP3      12342           0.0000000000
     88542     13703  TIP3      OH2            23.6744901032        5.0477482743      -65.1379005331  TIP3      12343           0.0000000000
     88543     13703  TIP3      H1             23.5308673008        5.0055396702      -66.1072774294  TIP3      12343           0.0000000000
     88544     13703  TIP3      H2             24.6448429666        5.1741611865      -65.0597990986  TIP3      12343           0.0000000000
     88545     13704  TIP3      OH2            33.0230452488        7.4497864584      -65.6327675351  TIP3      12344           0.0000000000
     88546     13704  TIP3      H1             32.8126026263        7.0575724791      -66.4846363603  TIP3      12344           0.0000000000
     88547     13704  TIP3      H2             33.0801792097        8.3988469199      -65.8915946956  TIP3      12344           0.0000000000
     88548     13705  TIP3      OH2            23.5338784750       15.8145320238      -64.0238868393  TIP3      12345           0.0000000000
     88549     13705  TIP3      H1             24.5062190648       15.8874278158      -63.9914861832  TIP3      12345           0.0000000000
     88550     13705  TIP3      H2             23.3490501607       16.4044461771      -64.7679185891  TIP3      12345           0.0000000000
     88551     13706  TIP3      OH2            17.0666616166       10.3832196705      -64.5825819658  TIP3      12346           0.0000000000
     88552     13706  TIP3      H1             18.0222895897       10.4798400878      -64.3782413730  TIP3      12346           0.0000000000
     88553     13706  TIP3      H2             17.1147117787        9.7194599718      -65.3042589109  TIP3      12346           0.0000000000
     88554     13707  TIP3      OH2            34.1772731711        6.2541292078      -63.4818588221  TIP3      12347           0.0000000000
     88555     13707  TIP3      H1             33.6566075729        6.6363370378      -64.2242248527  TIP3      12347           0.0000000000
     88556     13707  TIP3      H2             34.1354265719        6.9583616829      -62.8205978974  TIP3      12347           0.0000000000
     88557     13708  TIP3      OH2            32.5522550193        3.5155874805      -64.9243358767  TIP3      12348           0.0000000000
     88558     13708  TIP3      H1             32.6324202158        4.1310340578      -65.6570789042  TIP3      12348           0.0000000000
     88559     13708  TIP3      H2             32.3778388417        2.6643854951      -65.3861784398  TIP3      12348           0.0000000000
     88560     13709  TIP3      OH2            31.8083155478        0.9313014472      -65.8007758591  TIP3      12349           0.0000000000
     88561     13709  TIP3      H1             32.4017669623        0.5127992115      -65.1534474245  TIP3      12349           0.0000000000
     88562     13709  TIP3      H2             30.9530268357        0.5093246207      -65.6190075580  TIP3      12349           0.0000000000
     88563     13710  TIP3      OH2            33.8775312141       -0.2304342270      -64.2144686076  TIP3      12350           0.0000000000
     88564     13710  TIP3      H1             34.3024143354       -0.9327234503      -64.7481897153  TIP3      12350           0.0000000000
     88565     13710  TIP3      H2             34.5767808501        0.4434347967      -64.1749108867  TIP3      12350           0.0000000000
     88566     13711  TIP3      OH2            17.4407526206       -2.1465080834      -63.2229800335  TIP3      12351           0.0000000000
     88567     13711  TIP3      H1             17.9372926803       -1.5007942669      -63.7418606796  TIP3      12351           0.0000000000
     88568     13711  TIP3      H2             16.8558968256       -1.5810526990      -62.7274073214  TIP3      12351           0.0000000000
     88569     13712  TIP3      OH2            19.2929473791       -0.2185473535      -64.7258314285  TIP3      12352           0.0000000000
     88570     13712  TIP3      H1             19.7875719744       -0.8671816236      -65.2520982607  TIP3      12352           0.0000000000
     88571     13712  TIP3      H2             19.9308494587        0.0477152293      -64.0367498626  TIP3      12352           0.0000000000
     88572     13713  TIP3      OH2            26.1892614494       15.0277297988      -63.8344721819  TIP3      12353           0.0000000000
     88573     13713  TIP3      H1             27.0964221356       15.2997745016      -64.0397817844  TIP3      12353           0.0000000000
     88574     13713  TIP3      H2             25.9999526307       14.5191080007      -64.6565954589  TIP3      12353           0.0000000000
     88575     13714  TIP3      OH2            19.1299316881       14.7460836605      -65.2574024947  TIP3      12354           0.0000000000
     88576     13714  TIP3      H1             18.8704630221       14.9823310194      -64.3522913118  TIP3      12354           0.0000000000
     88577     13714  TIP3      H2             19.8965176875       14.1555113427      -65.1161050475  TIP3      12354           0.0000000000
     88578     13715  TIP3      OH2            35.9586275471        1.5614082999      -63.0834436785  TIP3      12355           0.0000000000
     88579     13715  TIP3      H1             36.4914940152        2.1991658075      -63.5882667495  TIP3      12355           0.0000000000
     88580     13715  TIP3      H2             35.3123555372        2.1814028236      -62.6951517591  TIP3      12355           0.0000000000
     88581     13716  TIP3      OH2            40.1300113690        3.9337624860      -64.1158354315  TIP3      12356           0.0000000000
     88582     13716  TIP3      H1             39.5377566770        3.5682207654      -64.7941491263  TIP3      12356           0.0000000000
     88583     13716  TIP3      H2             40.9262269878        4.1464842357      -64.5939095258  TIP3      12356           0.0000000000
     88584     13717  TIP3      OH2            36.6879015854        6.2473455129      -64.5486928975  TIP3      12357           0.0000000000
     88585     13717  TIP3      H1             37.2954712530        6.7795819858      -63.9861777869  TIP3      12357           0.0000000000
     88586     13717  TIP3      H2             35.8253276717        6.4674367073      -64.1434982336  TIP3      12357           0.0000000000
     88587     13718  TIP3      OH2            38.0990238716        8.0938983899      -62.9511461249  TIP3      12358           0.0000000000
     88588     13718  TIP3      H1             37.4176276929        8.4277347898      -62.3691667931  TIP3      12358           0.0000000000
     88589     13718  TIP3      H2             38.5933921538        8.8752399735      -63.2280682331  TIP3      12358           0.0000000000
     88590     13719  TIP3      OH2           -41.1238831577        0.1282062053      -63.0799162867  TIP3      12359           0.0000000000
     88591     13719  TIP3      H1            -41.1418545213        1.0532716402      -62.8094454608  TIP3      12359           0.0000000000
     88592     13719  TIP3      H2            -40.1676605456        0.0210249146      -62.9652553779  TIP3      12359           0.0000000000
     88593     13720  TIP3      OH2            38.7027180126       10.7168235587      -64.0494548455  TIP3      12360           0.0000000000
     88594     13720  TIP3      H1             39.3483191944       11.3801340430      -63.7835970144  TIP3      12360           0.0000000000
     88595     13720  TIP3      H2             39.2010366209       10.2504104126      -64.7495669344  TIP3      12360           0.0000000000
     88596     13721  TIP3      OH2            37.0507549462        3.4106226765      -64.9073116742  TIP3      12361           0.0000000000
     88597     13721  TIP3      H1             36.9924798581        4.3678418318      -64.7379903631  TIP3      12361           0.0000000000
     88598     13721  TIP3      H2             36.1669539113        3.1795906331      -65.2244036699  TIP3      12361           0.0000000000
     88599     13722  TIP3      OH2            39.9471742177        8.7990495289      -65.5847209460  TIP3      12362           0.0000000000
     88600     13722  TIP3      H1             40.2590275242        8.0662646448      -65.0504648316  TIP3      12362           0.0000000000
     88601     13722  TIP3      H2             40.7454283781        8.8521632963      -66.1374011354  TIP3      12362           0.0000000000
     88602     13723  TIP3      OH2            35.9564207325       10.4180423320      -64.5796813566  TIP3      12363           0.0000000000
     88603     13723  TIP3      H1             36.9063045930       10.4950423335      -64.3699340226  TIP3      12363           0.0000000000
     88604     13723  TIP3      H2             35.9854523383        9.7402964577      -65.2872929110  TIP3      12363           0.0000000000
     88605     13724  TIP3      OH2            36.2868563802       -2.1543980575      -63.2360647454  TIP3      12364           0.0000000000
     88606     13724  TIP3      H1             36.7885791522       -1.4984009598      -63.7421396395  TIP3      12364           0.0000000000
     88607     13724  TIP3      H2             35.7223670101       -1.5748438457      -62.7262718113  TIP3      12364           0.0000000000
     88608     13725  TIP3      OH2            38.1589833607       -0.2160852998      -64.7256419345  TIP3      12365           0.0000000000
     88609     13725  TIP3      H1             38.6695260588       -0.8339282580      -65.2645796809  TIP3      12365           0.0000000000
     88610     13725  TIP3      H2             38.8263278768        0.0656771202      -64.0726846092  TIP3      12365           0.0000000000
     88611     13726  TIP3      OH2            38.0428362745       14.7470567794      -65.2767541622  TIP3      12366           0.0000000000
     88612     13726  TIP3      H1             37.7319211141       15.0071014247      -64.3895067412  TIP3      12366           0.0000000000
     88613     13726  TIP3      H2             38.7750401091       14.1468241356      -65.0806124462  TIP3      12366           0.0000000000
     88614     13727  TIP3      OH2           -30.1341914245       23.8013142759      -64.5755297710  TIP3      12367           0.0000000000
     88615     13727  TIP3      H1            -29.4180454664       23.8382664741      -63.9076621223  TIP3      12367           0.0000000000
     88616     13727  TIP3      H2            -29.7768637257       23.1183048458      -65.1583575413  TIP3      12367           0.0000000000
     88617     13728  TIP3      OH2           -27.8431058226       24.6635251385      -62.9681962500  TIP3      12368           0.0000000000
     88618     13728  TIP3      H1            -27.2964280400       24.8748304514      -62.2106546605  TIP3      12368           0.0000000000
     88619     13728  TIP3      H2            -27.4283969202       25.1696054078      -63.6955721654  TIP3      12368           0.0000000000
     88620     13729  TIP3      OH2           -24.1212783501       16.4251053994      -63.0597954956  TIP3      12369           0.0000000000
     88621     13729  TIP3      H1            -25.0603444269       16.5163628195      -62.8524812903  TIP3      12369           0.0000000000
     88622     13729  TIP3      H2            -23.9214501921       17.2781845503      -63.4797632359  TIP3      12369           0.0000000000
     88623     13730  TIP3      OH2           -22.9919474531       30.7855060199      -64.7871431902  TIP3      12370           0.0000000000
     88624     13730  TIP3      H1            -22.8405304658       31.7206175669      -64.5591437149  TIP3      12370           0.0000000000
     88625     13730  TIP3      H2            -22.0665106931       30.4914682334      -64.7332238322  TIP3      12370           0.0000000000
     88626     13731  TIP3      OH2           -27.5629801167       33.5509612906      -64.0460278878  TIP3      12371           0.0000000000
     88627     13731  TIP3      H1            -27.1506523369       32.8001387031      -64.5281828046  TIP3      12371           0.0000000000
     88628     13731  TIP3      H2            -27.5090594071       33.2341971497      -63.1313400772  TIP3      12371           0.0000000000
     88629     13732  TIP3      OH2           -26.3822946647       25.6976876502      -65.1941567891  TIP3      12372           0.0000000000
     88630     13732  TIP3      H1            -26.4121706029       25.5110022012      -66.1650561055  TIP3      12372           0.0000000000
     88631     13732  TIP3      H2            -25.5290578783       26.1551423496      -65.1359819973  TIP3      12372           0.0000000000
     88632     13733  TIP3      OH2           -30.8133669446       19.5959151380      -64.6368613487  TIP3      12373           0.0000000000
     88633     13733  TIP3      H1            -31.0911775264       19.6040307339      -63.7146271073  TIP3      12373           0.0000000000
     88634     13733  TIP3      H2            -31.0970071921       18.7201044662      -64.9405553529  TIP3      12373           0.0000000000
     88635     13734  TIP3      OH2           -33.9776125448       20.0193036761      -65.5447086601  TIP3      12374           0.0000000000
     88636     13734  TIP3      H1            -34.4233060450       19.6156958992      -64.7696542841  TIP3      12374           0.0000000000
     88637     13734  TIP3      H2            -34.7085864885       20.3884317345      -66.0504297375  TIP3      12374           0.0000000000
     88638     13735  TIP3      OH2           -39.2410068835       20.6921625214      -62.9108188857  TIP3      12375           0.0000000000
     88639     13735  TIP3      H1            -38.8766508072       21.1683558669      -63.6800220292  TIP3      12375           0.0000000000
     88640     13735  TIP3      H2            -40.0692683698       21.1397008159      -62.7551184019  TIP3      12375           0.0000000000
     88641     13736  TIP3      OH2           -35.3032445919       22.7564959003      -64.1161766162  TIP3      12376           0.0000000000
     88642     13736  TIP3      H1            -35.8785864344       22.4193668199      -64.8101347297  TIP3      12376           0.0000000000
     88643     13736  TIP3      H2            -34.4900876190       23.0057862873      -64.5748080274  TIP3      12376           0.0000000000
     88644     13737  TIP3      OH2           -28.1070523618       20.1588984807      -64.0341078537  TIP3      12377           0.0000000000
     88645     13737  TIP3      H1            -29.0614714930       20.3022152655      -64.1318907692  TIP3      12377           0.0000000000
     88646     13737  TIP3      H2            -27.7887145052       20.9833705747      -63.6190563213  TIP3      12377           0.0000000000
     88647     13738  TIP3      OH2           -27.3924512296       22.1159324747      -62.3486894348  TIP3      12378           0.0000000000
     88648     13738  TIP3      H1            -26.4860736576       21.9118957086      -62.0795985136  TIP3      12378           0.0000000000
     88649     13738  TIP3      H2            -27.3050393962       22.8887044441      -62.9263091487  TIP3      12378           0.0000000000
     88650     13739  TIP3      OH2           -29.8811195993       28.7895652972      -63.1979115797  TIP3      12379           0.0000000000
     88651     13739  TIP3      H1            -30.1814399499       29.6392505049      -62.8051505282  TIP3      12379           0.0000000000
     88652     13739  TIP3      H2            -30.5759816913       28.1802594745      -62.9294986671  TIP3      12379           0.0000000000
     88653     13740  TIP3      OH2           -22.5146869603       22.2364732561      -62.5850830626  TIP3      12380           0.0000000000
     88654     13740  TIP3      H1            -23.0495710946       21.8970847890      -63.3294813581  TIP3      12380           0.0000000000
     88655     13740  TIP3      H2            -22.4079871655       23.1592911464      -62.8984061605  TIP3      12380           0.0000000000
     88656     13741  TIP3      OH2           -38.7710146577       25.0495986734      -64.4867091654  TIP3      12381           0.0000000000
     88657     13741  TIP3      H1            -38.1338380497       25.6285895266      -63.9956733630  TIP3      12381           0.0000000000
     88658     13741  TIP3      H2            -39.6101670981       25.3627096761      -64.1413625495  TIP3      12381           0.0000000000
     88659     13742  TIP3      OH2           -26.7575404613       29.0696870879      -64.3827731553  TIP3      12382           0.0000000000
     88660     13742  TIP3      H1            -26.4469666397       28.7191740820      -63.5423603406  TIP3      12382           0.0000000000
     88661     13742  TIP3      H2            -27.7177223886       28.9473177078      -64.2713952823  TIP3      12382           0.0000000000
     88662     13743  TIP3      OH2           -22.3315147295       33.4755038317      -64.1549946832  TIP3      12383           0.0000000000
     88663     13743  TIP3      H1            -21.5598827275       34.0650069188      -64.2280271532  TIP3      12383           0.0000000000
     88664     13743  TIP3      H2            -23.0048966302       34.1019027493      -63.8265301884  TIP3      12383           0.0000000000
     88665     13744  TIP3      OH2           -32.6252309538       30.1588525368      -65.8799281442  TIP3      12384           0.0000000000
     88666     13744  TIP3      H1            -32.5171977991       29.3880616956      -66.4536171302  TIP3      12384           0.0000000000
     88667     13744  TIP3      H2            -33.0478958539       29.7512426159      -65.0903852084  TIP3      12384           0.0000000000
     88668     13745  TIP3      OH2           -33.8436154096       29.6729021116      -63.4408274688  TIP3      12385           0.0000000000
     88669     13745  TIP3      H1            -33.5872478975       29.1969429593      -62.6410577263  TIP3      12385           0.0000000000
     88670     13745  TIP3      H2            -33.7261932072       30.5956674811      -63.1260439165  TIP3      12385           0.0000000000
     88671     13746  TIP3      OH2           -37.3939864544       26.9614184954      -63.0174644973  TIP3      12386           0.0000000000
     88672     13746  TIP3      H1            -37.9968551475       27.2873423740      -62.3531038986  TIP3      12386           0.0000000000
     88673     13746  TIP3      H2            -36.7941788672       27.7040324944      -63.2194933191  TIP3      12386           0.0000000000
     88674     13747  TIP3      OH2           -31.0602577229       31.3964150635      -62.6799552748  TIP3      12387           0.0000000000
     88675     13747  TIP3      H1            -31.8886603997       31.9088830000      -62.6722711722  TIP3      12387           0.0000000000
     88676     13747  TIP3      H2            -30.5249229003       31.9143614067      -63.3029629711  TIP3      12387           0.0000000000
     88677     13748  TIP3      OH2           -33.6465000404       32.4029110908      -62.6860519152  TIP3      12388           0.0000000000
     88678     13748  TIP3      H1            -33.5736234626       33.1966647618      -63.2727097430  TIP3      12388           0.0000000000
     88679     13748  TIP3      H2            -33.8855547969       32.8050523578      -61.8400931989  TIP3      12388           0.0000000000
     88680     13749  TIP3      OH2           -35.0027649168       19.1275379689      -63.1344391205  TIP3      12389           0.0000000000
     88681     13749  TIP3      H1            -35.0763664993       20.0194693647      -62.7639336081  TIP3      12389           0.0000000000
     88682     13749  TIP3      H2            -34.1089908889       18.8837636972      -62.8868067287  TIP3      12389           0.0000000000
     88683     13750  TIP3      OH2           -36.7394934583       29.5729801902      -64.0444715750  TIP3      12390           0.0000000000
     88684     13750  TIP3      H1            -36.0987973699       30.2363441090      -63.7611905528  TIP3      12390           0.0000000000
     88685     13750  TIP3      H2            -36.2217228961       29.1145222827      -64.7333485885  TIP3      12390           0.0000000000
     88686     13751  TIP3      OH2           -38.3922314007       22.2555361647      -64.9442234993  TIP3      12391           0.0000000000
     88687     13751  TIP3      H1            -38.4119779508       23.2132393658      -64.7507234375  TIP3      12391           0.0000000000
     88688     13751  TIP3      H2            -39.2728623970       22.0188985834      -65.2303899782  TIP3      12391           0.0000000000
     88689     13752  TIP3      OH2           -30.6331968174       32.0312548607      -65.7628193427  TIP3      12392           0.0000000000
     88690     13752  TIP3      H1            -31.3155646001       31.3687204386      -65.5181537191  TIP3      12392           0.0000000000
     88691     13752  TIP3      H2            -29.9079682936       31.4440687509      -66.0248895393  TIP3      12392           0.0000000000
     88692     13753  TIP3      OH2           -26.0869098550       31.7774319809      -65.6085080330  TIP3      12393           0.0000000000
     88693     13753  TIP3      H1            -25.7754181343       31.0293938748      -65.0723098496  TIP3      12393           0.0000000000
     88694     13753  TIP3      H2            -25.2947445898       31.9940018873      -66.1355380885  TIP3      12393           0.0000000000
     88695     13754  TIP3      OH2           -35.2014472984       27.6697242790      -65.7509832978  TIP3      12394           0.0000000000
     88696     13754  TIP3      H1            -35.0030070600       26.9453572365      -65.1381658274  TIP3      12394           0.0000000000
     88697     13754  TIP3      H2            -34.4389976319       27.6078933329      -66.3558925486  TIP3      12394           0.0000000000
     88698     13755  TIP3      OH2           -29.7386248472       28.8066058477      -65.9615254929  TIP3      12395           0.0000000000
     88699     13755  TIP3      H1            -29.9918171097       28.9100141404      -65.0266973930  TIP3      12395           0.0000000000
     88700     13755  TIP3      H2            -29.9559300289       27.8529366925      -66.1029208705  TIP3      12395           0.0000000000
     88701     13756  TIP3      OH2           -33.9804604718       25.6990677165      -63.3894559591  TIP3      12396           0.0000000000
     88702     13756  TIP3      H1            -34.4394076147       25.2173249930      -62.6878851378  TIP3      12396           0.0000000000
     88703     13756  TIP3      H2            -33.6960005896       25.0274364377      -64.0408757003  TIP3      12396           0.0000000000
     88704     13757  TIP3      OH2           -32.9093894977       23.9423954145      -65.1695982569  TIP3      12397           0.0000000000
     88705     13757  TIP3      H1            -33.0162796784       23.8268897716      -66.1245946369  TIP3      12397           0.0000000000
     88706     13757  TIP3      H2            -31.9301163131       24.0346296871      -65.0584989303  TIP3      12397           0.0000000000
     88707     13758  TIP3      OH2           -23.5480563158       26.3007260988      -65.6395329375  TIP3      12398           0.0000000000
     88708     13758  TIP3      H1            -23.7395093590       25.9010564394      -66.5051631881  TIP3      12398           0.0000000000
     88709     13758  TIP3      H2            -23.4722391573       27.2499366788      -65.8893780568  TIP3      12398           0.0000000000
     88710     13759  TIP3      OH2           -33.0348196714       34.6528139030      -64.0238158148  TIP3      12399           0.0000000000
     88711     13759  TIP3      H1            -32.0631692598       34.7547758502      -64.0010517998  TIP3      12399           0.0000000000
     88712     13759  TIP3      H2            -33.2232968675       35.2536308398      -64.7637322186  TIP3      12399           0.0000000000
     88713     13760  TIP3      OH2           -39.4448840239       29.2360694134      -64.5208567458  TIP3      12400           0.0000000000
     88714     13760  TIP3      H1            -38.4875505241       29.3725468214      -64.3500654942  TIP3      12400           0.0000000000
     88715     13760  TIP3      H2            -39.3739491810       28.6260422642      -65.2607990431  TIP3      12400           0.0000000000
     88716     13761  TIP3      OH2           -22.4005721895       25.1027358545      -63.4676238599  TIP3      12401           0.0000000000
     88717     13761  TIP3      H1            -22.9019108968       25.4760243733      -64.2274321829  TIP3      12401           0.0000000000
     88718     13761  TIP3      H2            -22.4345504669       25.8188174896      -62.8215856466  TIP3      12401           0.0000000000
     88719     13762  TIP3      OH2           -23.9829165611       22.3541653135      -64.9392033610  TIP3      12402           0.0000000000
     88720     13762  TIP3      H1            -23.9245927878       22.9977673549      -65.6504873686  TIP3      12402           0.0000000000
     88721     13762  TIP3      H2            -24.1823521825       21.5190469113      -65.4079581509  TIP3      12402           0.0000000000
     88722     13763  TIP3      OH2           -24.7594644322       19.7935970750      -65.8017139331  TIP3      12403           0.0000000000
     88723     13763  TIP3      H1            -24.1590833751       19.3655231444      -65.1632047858  TIP3      12403           0.0000000000
     88724     13763  TIP3      H2            -25.6096163068       19.3684231372      -65.6076809146  TIP3      12403           0.0000000000
     88725     13764  TIP3      OH2           -22.6997044501       18.6580044582      -64.2509841445  TIP3      12404           0.0000000000
     88726     13764  TIP3      H1            -22.2706638928       17.9214851721      -64.7332582995  TIP3      12404           0.0000000000
     88727     13764  TIP3      H2            -21.9789544310       19.3015822393      -64.1671483873  TIP3      12404           0.0000000000
     88728     13765  TIP3      OH2           -39.1173471013       16.6884070447      -63.2001526897  TIP3      12405           0.0000000000
     88729     13765  TIP3      H1            -38.6588730682       17.3284889674      -63.7568448463  TIP3      12405           0.0000000000
     88730     13765  TIP3      H2            -39.7318496033       17.2222590225      -62.7002919077  TIP3      12405           0.0000000000
     88731     13766  TIP3      OH2           -37.2693538249       18.6841524267      -64.7478497860  TIP3      12406           0.0000000000
     88732     13766  TIP3      H1            -36.8202223532       17.9810398223      -65.2655348702  TIP3      12406           0.0000000000
     88733     13766  TIP3      H2            -36.6372201156       18.8639692119      -64.0241511161  TIP3      12406           0.0000000000
     88734     13767  TIP3      OH2           -30.3698632011       33.8845729456      -63.8342162406  TIP3      12407           0.0000000000
     88735     13767  TIP3      H1            -29.4628934261       34.1552741828      -64.0502536708  TIP3      12407           0.0000000000
     88736     13767  TIP3      H2            -30.5688852728       33.3795639552      -64.6550831244  TIP3      12407           0.0000000000
     88737     13768  TIP3      OH2           -37.4246203685       33.5973304890      -65.2231494410  TIP3      12408           0.0000000000
     88738     13768  TIP3      H1            -37.6971127389       33.8499939424      -64.3258796889  TIP3      12408           0.0000000000
     88739     13768  TIP3      H2            -36.6525341524       33.0192573364      -65.0792922659  TIP3      12408           0.0000000000
     88740     13769  TIP3      OH2           -11.2992638489       23.8479196563      -64.3515900685  TIP3      12409           0.0000000000
     88741     13769  TIP3      H1            -10.5436553638       23.9151059419      -63.7270769084  TIP3      12409           0.0000000000
     88742     13769  TIP3      H2            -11.0663766545       23.0083886080      -64.7384879527  TIP3      12409           0.0000000000
     88743     13770  TIP3      OH2            -8.9862088991       24.6566647250      -62.9928900391  TIP3      12410           0.0000000000
     88744     13770  TIP3      H1             -8.4602705938       24.8655091892      -62.2129985194  TIP3      12410           0.0000000000
     88745     13770  TIP3      H2             -8.5469777441       25.1858638626      -63.6861479771  TIP3      12410           0.0000000000
     88746     13771  TIP3      OH2            -5.2672129449       16.4313364579      -63.0472492248  TIP3      12411           0.0000000000
     88747     13771  TIP3      H1             -6.2062247828       16.5256428187      -62.8405471761  TIP3      12411           0.0000000000
     88748     13771  TIP3      H2             -5.0663875161       17.2746920338      -63.4855788341  TIP3      12411           0.0000000000
     88749     13772  TIP3      OH2            -4.1385685489       30.7828998958      -64.7796475884  TIP3      12412           0.0000000000
     88750     13772  TIP3      H1             -3.9919102622       31.7193598263      -64.5528047005  TIP3      12412           0.0000000000
     88751     13772  TIP3      H2             -3.2114315193       30.4927842781      -64.7368131371  TIP3      12412           0.0000000000
     88752     13773  TIP3      OH2            -8.7048331119       33.5494824041      -64.0443459360  TIP3      12413           0.0000000000
     88753     13773  TIP3      H1             -8.2908428336       32.8008397451      -64.5321893081  TIP3      12413           0.0000000000
     88754     13773  TIP3      H2             -8.6533480786       33.2325639923      -63.1319660401  TIP3      12413           0.0000000000
     88755     13774  TIP3      OH2            -7.5438752344       25.6825917828      -65.2114503576  TIP3      12414           0.0000000000
     88756     13774  TIP3      H1             -7.5280034665       25.5275410945      -66.1849010871  TIP3      12414           0.0000000000
     88757     13774  TIP3      H2             -6.6923797553       26.1521247068      -65.1199845879  TIP3      12414           0.0000000000
     88758     13775  TIP3      OH2           -11.9564979610       19.6254266768      -64.6368586448  TIP3      12415           0.0000000000
     88759     13775  TIP3      H1            -12.2386108354       19.5924558906      -63.7120707840  TIP3      12415           0.0000000000
     88760     13775  TIP3      H2            -12.2213846397       18.7405921503      -64.9521702089  TIP3      12415           0.0000000000
     88761     13776  TIP3      OH2           -15.1158701833       19.9921719971      -65.5525363788  TIP3      12416           0.0000000000
     88762     13776  TIP3      H1            -15.5655877315       19.6061946439      -64.7717885909  TIP3      12416           0.0000000000
     88763     13776  TIP3      H2            -15.8402962369       20.4207551453      -66.0297895195  TIP3      12416           0.0000000000
     88764     13777  TIP3      OH2           -20.6098026937       20.4098747514      -63.1159417585  TIP3      12417           0.0000000000
     88765     13777  TIP3      H1            -20.0845370230       21.0692234006      -63.6112349111  TIP3      12417           0.0000000000
     88766     13777  TIP3      H2            -21.2528228280       21.0288656150      -62.7054999560  TIP3      12417           0.0000000000
     88767     13778  TIP3      OH2           -16.4452159580       22.7423389973      -64.0904422615  TIP3      12418           0.0000000000
     88768     13778  TIP3      H1            -17.0049809956       22.4492281122      -64.8271763624  TIP3      12418           0.0000000000
     88769     13778  TIP3      H2            -15.6549307263       23.0068023193      -64.5784442737  TIP3      12418           0.0000000000
     88770     13779  TIP3      OH2            -9.2545004435       20.1786660676      -64.0613611985  TIP3      12419           0.0000000000
     88771     13779  TIP3      H1            -10.2167521813       20.2724036995      -64.0959440048  TIP3      12419           0.0000000000
     88772     13779  TIP3      H2             -8.9268965302       20.9771871592      -63.5978909324  TIP3      12419           0.0000000000
     88773     13780  TIP3      OH2            -8.5393894300       22.1083654881      -62.3699693052  TIP3      12420           0.0000000000
     88774     13780  TIP3      H1             -7.6420955936       21.9028524785      -62.0649025580  TIP3      12420           0.0000000000
     88775     13780  TIP3      H2             -8.4190129282       22.9013875845      -62.9079395109  TIP3      12420           0.0000000000
     88776     13781  TIP3      OH2           -11.0152415469       28.7926665860      -63.1989401285  TIP3      12421           0.0000000000
     88777     13781  TIP3      H1            -11.3200148110       29.6423489754      -62.8086754817  TIP3      12421           0.0000000000
     88778     13781  TIP3      H2            -11.7156300898       28.1932058844      -62.9231137019  TIP3      12421           0.0000000000
     88779     13782  TIP3      OH2            -3.6594266252       22.2376429210      -62.5876502686  TIP3      12422           0.0000000000
     88780     13782  TIP3      H1             -4.1966658265       21.8968630465      -63.3294628738  TIP3      12422           0.0000000000
     88781     13782  TIP3      H2             -3.5515743883       23.1586816573      -62.8983314315  TIP3      12422           0.0000000000
     88782     13783  TIP3      OH2           -19.8758607969       25.0706269121      -64.4873363654  TIP3      12423           0.0000000000
     88783     13783  TIP3      H1            -19.2725886694       25.6643427933      -63.9904637462  TIP3      12423           0.0000000000
     88784     13783  TIP3      H2            -20.7533668599       25.3382363781      -64.1590547078  TIP3      12423           0.0000000000
     88785     13784  TIP3      OH2            -7.9088334582       29.0545506069      -64.3651328218  TIP3      12424           0.0000000000
     88786     13784  TIP3      H1             -7.6071005434       28.6992897043      -63.5207472235  TIP3      12424           0.0000000000
     88787     13784  TIP3      H2             -8.8734234289       28.9389758246      -64.2686988657  TIP3      12424           0.0000000000
     88788     13785  TIP3      OH2            -3.4805301640       33.4724376205      -64.1591734624  TIP3      12425           0.0000000000
     88789     13785  TIP3      H1             -2.7110598305       34.0642545061      -64.2203814426  TIP3      12425           0.0000000000
     88790     13785  TIP3      H2             -4.1570916904       34.0996935079      -63.8330565965  TIP3      12425           0.0000000000
     88791     13786  TIP3      OH2           -13.7623481201       30.1716183833      -65.8629058234  TIP3      12426           0.0000000000
     88792     13786  TIP3      H1            -13.6489768959       29.4089302926      -66.4517473802  TIP3      12426           0.0000000000
     88793     13786  TIP3      H2            -14.1936532010       29.7429668945      -65.0893643024  TIP3      12426           0.0000000000
     88794     13787  TIP3      OH2           -14.9646131066       29.6753834687      -63.4422414593  TIP3      12427           0.0000000000
     88795     13787  TIP3      H1            -14.7299359665       29.1970071838      -62.6382271041  TIP3      12427           0.0000000000
     88796     13787  TIP3      H2            -14.8660264980       30.5980432133      -63.1237074825  TIP3      12427           0.0000000000
     88797     13788  TIP3      OH2           -18.5213211342       26.9677071941      -63.0029968505  TIP3      12428           0.0000000000
     88798     13788  TIP3      H1            -19.1440093794       27.3013922173      -62.3598833659  TIP3      12428           0.0000000000
     88799     13788  TIP3      H2            -17.9353132971       27.7110775866      -63.2244751517  TIP3      12428           0.0000000000
     88800     13789  TIP3      OH2           -12.2039104577       31.3968003957      -62.6790105411  TIP3      12429           0.0000000000
     88801     13789  TIP3      H1            -13.0327058109       31.9087017713      -62.6724190675  TIP3      12429           0.0000000000
     88802     13789  TIP3      H2            -11.6691921185       31.9135887649      -63.3044081074  TIP3      12429           0.0000000000
     88803     13790  TIP3      OH2           -14.7899588853       32.4043244538      -62.6788191073  TIP3      12430           0.0000000000
     88804     13790  TIP3      H1            -14.7179016285       33.1940063756      -63.2702823182  TIP3      12430           0.0000000000
     88805     13790  TIP3      H2            -15.0301982844       32.8075765183      -61.8357288949  TIP3      12430           0.0000000000
     88806     13791  TIP3      OH2           -16.1469225964       19.1271406156      -63.1407321647  TIP3      12431           0.0000000000
     88807     13791  TIP3      H1            -16.2260928667       20.0075884715      -62.7388880816  TIP3      12431           0.0000000000
     88808     13791  TIP3      H2            -15.2573193266       18.8880164703      -62.8630759307  TIP3      12431           0.0000000000
     88809     13792  TIP3      OH2           -17.8743185903       29.5717963169      -64.0260163067  TIP3      12432           0.0000000000
     88810     13792  TIP3      H1            -17.2245942010       30.2375899254      -63.7737902864  TIP3      12432           0.0000000000
     88811     13792  TIP3      H2            -17.3861950860       29.1269077269      -64.7454500969  TIP3      12432           0.0000000000
     88812     13793  TIP3      OH2           -19.5431612355       22.2485847755      -64.9392697987  TIP3      12433           0.0000000000
     88813     13793  TIP3      H1            -19.5563298297       23.2002278693      -64.7136333872  TIP3      12433           0.0000000000
     88814     13793  TIP3      H2            -20.4510288228       22.0676071503      -65.1883777514  TIP3      12433           0.0000000000
     88815     13794  TIP3      OH2           -11.7743402102       32.0320855238      -65.7494859478  TIP3      12434           0.0000000000
     88816     13794  TIP3      H1            -12.4640675240       31.3679996436      -65.5260383401  TIP3      12434           0.0000000000
     88817     13794  TIP3      H2            -11.0552847968       31.4477189820      -66.0373035487  TIP3      12434           0.0000000000
     88818     13795  TIP3      OH2            -7.2348092120       31.7701032118      -65.5894110828  TIP3      12435           0.0000000000
     88819     13795  TIP3      H1             -6.9061457764       31.0156380750      -65.0846359706  TIP3      12435           0.0000000000
     88820     13795  TIP3      H2             -6.4635060983       32.0344524141      -66.1090945652  TIP3      12435           0.0000000000
     88821     13796  TIP3      OH2           -16.3285628926       27.7043929516      -65.7393757002  TIP3      12436           0.0000000000
     88822     13796  TIP3      H1            -16.1609895327       26.9491739830      -65.1507330975  TIP3      12436           0.0000000000
     88823     13796  TIP3      H2            -15.5800614701       27.5996568760      -66.3569537821  TIP3      12436           0.0000000000
     88824     13797  TIP3      OH2           -10.8495209284       28.7905328374      -65.9460483657  TIP3      12437           0.0000000000
     88825     13797  TIP3      H1            -11.1458093922       28.9277388757      -65.0277073489  TIP3      12437           0.0000000000
     88826     13797  TIP3      H2            -11.1163188450       27.8643745985      -66.0949958239  TIP3      12437           0.0000000000
     88827     13798  TIP3      OH2           -15.0891205327       25.6986519051      -63.3863165484  TIP3      12438           0.0000000000
     88828     13798  TIP3      H1            -15.5861583403       25.2220134852      -62.7062836437  TIP3      12438           0.0000000000
     88829     13798  TIP3      H2            -14.8630157766       25.0168693892      -64.0358374625  TIP3      12438           0.0000000000
     88830     13799  TIP3      OH2           -14.0463600920       23.8832560990      -65.1382380284  TIP3      12439           0.0000000000
     88831     13799  TIP3      H1            -14.2157606952       23.8671894156      -66.1087066231  TIP3      12439           0.0000000000
     88832     13799  TIP3      H2            -13.0979561248       24.0630257257      -65.0369001324  TIP3      12439           0.0000000000
     88833     13800  TIP3      OH2            -4.6885398735       26.2894967711      -65.6397977301  TIP3      12440           0.0000000000
     88834     13800  TIP3      H1             -4.8845360630       25.8990307564      -66.5061461021  TIP3      12440           0.0000000000
     88835     13800  TIP3      H2             -4.6194911463       27.2409212638      -65.8865807183  TIP3      12440           0.0000000000
     88836     13801  TIP3      OH2           -14.1715796973       34.6503028269      -64.0194374138  TIP3      12441           0.0000000000
     88837     13801  TIP3      H1            -13.2013415986       34.7567163833      -64.0009773363  TIP3      12441           0.0000000000
     88838     13801  TIP3      H2            -14.3698176808       35.2463655683      -64.7616111447  TIP3      12441           0.0000000000
     88839     13802  TIP3      OH2           -20.6488958335       29.2137436304      -64.5558463962  TIP3      12442           0.0000000000
     88840     13802  TIP3      H1            -19.6910824044       29.3347090650      -64.3769581943  TIP3      12442           0.0000000000
     88841     13802  TIP3      H2            -20.5972286985       28.5858494834      -65.3097153288  TIP3      12442           0.0000000000
     88842     13803  TIP3      OH2            -3.5450986374       25.1014076443      -63.4697765727  TIP3      12443           0.0000000000
     88843     13803  TIP3      H1             -4.0592896244       25.4643473829      -64.2278134946  TIP3      12443           0.0000000000
     88844     13803  TIP3      H2             -3.5803317542       25.8187013250      -62.8242626433  TIP3      12443           0.0000000000
     88845     13804  TIP3      OH2            -5.1683490375       22.3626337134      -64.9379034187  TIP3      12444           0.0000000000
     88846     13804  TIP3      H1             -5.0605764134       22.9928149530      -65.6526279414  TIP3      12444           0.0000000000
     88847     13804  TIP3      H2             -5.3175133043       21.5167891780      -65.4055361361  TIP3      12444           0.0000000000
     88848     13805  TIP3      OH2            -5.9181479726       19.7979672050      -65.8048396591  TIP3      12445           0.0000000000
     88849     13805  TIP3      H1             -5.3082855305       19.3819916520      -65.1660640054  TIP3      12445           0.0000000000
     88850     13805  TIP3      H2             -6.7548796421       19.3593288629      -65.5977471451  TIP3      12445           0.0000000000
     88851     13806  TIP3      OH2            -3.8444718942       18.6542513359      -64.2503964820  TIP3      12446           0.0000000000
     88852     13806  TIP3      H1             -3.4095449779       17.9227458066      -64.7397743410  TIP3      12446           0.0000000000
     88853     13806  TIP3      H2             -3.1268570097       19.3034091401      -64.1701600659  TIP3      12446           0.0000000000
     88854     13807  TIP3      OH2           -20.2734665324       16.7104547672      -63.2160453485  TIP3      12447           0.0000000000
     88855     13807  TIP3      H1            -19.7773426947       17.3495518121      -63.7404605798  TIP3      12447           0.0000000000
     88856     13807  TIP3      H2            -20.8607300280       17.2747388250      -62.7239377244  TIP3      12447           0.0000000000
     88857     13808  TIP3      OH2           -18.4095526150       18.6604677229      -64.7422645379  TIP3      12448           0.0000000000
     88858     13808  TIP3      H1            -17.9383569296       17.9680107098      -65.2215353656  TIP3      12448           0.0000000000
     88859     13808  TIP3      H2            -17.7880326268       18.9034870227      -64.0279317348  TIP3      12448           0.0000000000
     88860     13809  TIP3      OH2           -11.5131333004       33.8864956701      -63.8335923804  TIP3      12449           0.0000000000
     88861     13809  TIP3      H1            -10.6059244683       34.1562458258      -64.0505472638  TIP3      12449           0.0000000000
     88862     13809  TIP3      H2            -11.7123598443       33.3787704464      -64.6534528622  TIP3      12449           0.0000000000
     88863     13810  TIP3      OH2           -18.5508115958       33.6330377390      -65.2316002814  TIP3      12450           0.0000000000
     88864     13810  TIP3      H1            -18.8431473150       33.8276785249      -64.3326030530  TIP3      12450           0.0000000000
     88865     13810  TIP3      H2            -17.8176411973       33.0027767379      -65.1195359733  TIP3      12450           0.0000000000
     88866     13811  TIP3      OH2             7.5838006201       23.8012810984      -64.5720439165  TIP3      12451           0.0000000000
     88867     13811  TIP3      H1              8.2940835870       23.8392079027      -63.9046180868  TIP3      12451           0.0000000000
     88868     13811  TIP3      H2              7.9375135490       23.1124486541      -65.1480714914  TIP3      12451           0.0000000000
     88869     13812  TIP3      OH2             9.8687500073       24.6638888200      -62.9687879014  TIP3      12452           0.0000000000
     88870     13812  TIP3      H1             10.4158233937       24.8753128472      -62.2114148978  TIP3      12452           0.0000000000
     88871     13812  TIP3      H2             10.2791819802       25.1733532224      -63.6973239896  TIP3      12452           0.0000000000
     88872     13813  TIP3      OH2            13.5877170451       16.4294119787      -63.0466683931  TIP3      12453           0.0000000000
     88873     13813  TIP3      H1             12.6450115764       16.5022347227      -62.8387034694  TIP3      12453           0.0000000000
     88874     13813  TIP3      H2             13.7827518220       17.2747034435      -63.4834625482  TIP3      12453           0.0000000000
     88875     13814  TIP3      OH2            14.7215864775       30.7919307751      -64.8171907003  TIP3      12454           0.0000000000
     88876     13814  TIP3      H1             14.8532140525       31.7193872669      -64.5460001470  TIP3      12454           0.0000000000
     88877     13814  TIP3      H2             15.6402460046       30.4852701049      -64.7199440647  TIP3      12454           0.0000000000
     88878     13815  TIP3      OH2            10.1532562072       33.5522557068      -64.0463304854  TIP3      12455           0.0000000000
     88879     13815  TIP3      H1             10.5630503222       32.7961279771      -64.5340278982  TIP3      12455           0.0000000000
     88880     13815  TIP3      H2             10.2038028460       33.2329585784      -63.1353144205  TIP3      12455           0.0000000000
     88881     13816  TIP3      OH2            11.3358254852       25.6902290548      -65.1939577280  TIP3      12456           0.0000000000
     88882     13816  TIP3      H1             11.2977523376       25.5256986351      -66.1673261223  TIP3      12456           0.0000000000
     88883     13816  TIP3      H2             12.1814777014       26.1588408183      -65.1361804924  TIP3      12456           0.0000000000
     88884     13817  TIP3      OH2             6.8917664979       19.6038552701      -64.6374815314  TIP3      12457           0.0000000000
     88885     13817  TIP3      H1              6.6168200890       19.6046858311      -63.7132102200  TIP3      12457           0.0000000000
     88886     13817  TIP3      H2              6.6221620266       18.7212562255      -64.9430331649  TIP3      12457           0.0000000000
     88887     13818  TIP3      OH2             3.7447020248       20.0043315051      -65.5057953477  TIP3      12458           0.0000000000
     88888     13818  TIP3      H1              3.2649630137       19.5986497102      -64.7561983155  TIP3      12458           0.0000000000
     88889     13818  TIP3      H2              3.0373103248       20.4045810064      -66.0333696728  TIP3      12458           0.0000000000
     88890     13819  TIP3      OH2            -1.7570713326       20.4083354188      -63.1195968359  TIP3      12459           0.0000000000
     88891     13819  TIP3      H1             -1.2265264880       21.0630488819      -63.6132320511  TIP3      12459           0.0000000000
     88892     13819  TIP3      H2             -2.3976031766       21.0290168658      -62.7075601984  TIP3      12459           0.0000000000
     88893     13820  TIP3      OH2             2.4236542400       22.7468826516      -64.0904170953  TIP3      12460           0.0000000000
     88894     13820  TIP3      H1              1.8632632778       22.4371992922      -64.8240246869  TIP3      12460           0.0000000000
     88895     13820  TIP3      H2              3.2152642270       23.0078526476      -64.5820780988  TIP3      12460           0.0000000000
     88896     13821  TIP3      OH2             9.6091032343       20.1684231881      -64.0585580039  TIP3      12461           0.0000000000
     88897     13821  TIP3      H1              8.6488493246       20.2970341501      -64.1324557438  TIP3      12461           0.0000000000
     88898     13821  TIP3      H2              9.9211715542       20.9859640506      -63.6209077351  TIP3      12461           0.0000000000
     88899     13822  TIP3      OH2            10.3195973513       22.1136366735      -62.3473750331  TIP3      12462           0.0000000000
     88900     13822  TIP3      H1             11.2259919411       21.9118355266      -62.0793095328  TIP3      12462           0.0000000000
     88901     13822  TIP3      H2             10.4066105988       22.8875593233      -62.9260860221  TIP3      12462           0.0000000000
     88902     13823  TIP3      OH2             7.8474707126       28.7964666755      -63.1833789105  TIP3      12463           0.0000000000
     88903     13823  TIP3      H1              7.5319255313       29.6441829011      -62.8048138094  TIP3      12463           0.0000000000
     88904     13823  TIP3      H2              7.1451272775       28.1854963586      -62.9338590288  TIP3      12463           0.0000000000
     88905     13824  TIP3      OH2            15.1961603058       22.2376762181      -62.5845776711  TIP3      12464           0.0000000000
     88906     13824  TIP3      H1             14.6627834516       21.8965975510      -63.3299601090  TIP3      12464           0.0000000000
     88907     13824  TIP3      H2             15.3054247074       23.1573863461      -62.8983718974  TIP3      12464           0.0000000000
     88908     13825  TIP3      OH2            -1.0194788881       25.0714568916      -64.4885971460  TIP3      12465           0.0000000000
     88909     13825  TIP3      H1             -0.4121075291       25.6501044830      -63.9764559595  TIP3      12465           0.0000000000
     88910     13825  TIP3      H2             -1.8954153287       25.3378795557      -64.1570189372  TIP3      12465           0.0000000000
     88911     13826  TIP3      OH2            10.9552364414       29.0452190734      -64.3542836298  TIP3      12466           0.0000000000
     88912     13826  TIP3      H1             11.2411074482       28.6905451359      -63.5088121237  TIP3      12466           0.0000000000
     88913     13826  TIP3      H2              9.9863665266       28.9471476332      -64.2793723941  TIP3      12466           0.0000000000
     88914     13827  TIP3      OH2            15.3812934612       33.4682208087      -64.1718698209  TIP3      12467           0.0000000000
     88915     13827  TIP3      H1             16.1439204910       34.0732829333      -64.2140668887  TIP3      12467           0.0000000000
     88916     13827  TIP3      H2             14.7057924241       34.0899149368      -63.8284494603  TIP3      12467           0.0000000000
     88917     13828  TIP3      OH2             5.0731616600       30.1840961144      -65.8801861625  TIP3      12468           0.0000000000
     88918     13828  TIP3      H1              5.1981322892       29.4121453445      -66.4565690157  TIP3      12468           0.0000000000
     88919     13828  TIP3      H2              4.6645318840       29.7490520310      -65.0960758301  TIP3      12468           0.0000000000
     88920     13829  TIP3      OH2             3.8953833475       29.6755207010      -63.4428854067  TIP3      12469           0.0000000000
     88921     13829  TIP3      H1              4.1253287428       29.1965417490      -62.6382428069  TIP3      12469           0.0000000000
     88922     13829  TIP3      H2              3.9891422345       30.5989211956      -63.1240240359  TIP3      12469           0.0000000000
     88923     13830  TIP3      OH2             0.3323136692       26.9685397271      -63.0046535139  TIP3      12470           0.0000000000
     88924     13830  TIP3      H1             -0.2871437355       27.3016348313      -62.3584916792  TIP3      12470           0.0000000000
     88925     13830  TIP3      H2              0.9217512653       27.7104226324      -63.2242553036  TIP3      12470           0.0000000000
     88926     13831  TIP3      OH2             6.6486034955       31.3974008741      -62.6788628832  TIP3      12471           0.0000000000
     88927     13831  TIP3      H1              5.8190607395       31.9096412475      -62.6658679483  TIP3      12471           0.0000000000
     88928     13831  TIP3      H2              7.1864617458       31.9143934934      -63.3003082423  TIP3      12471           0.0000000000
     88929     13832  TIP3      OH2             4.0711500508       32.4062282255      -62.6798833051  TIP3      12472           0.0000000000
     88930     13832  TIP3      H1              4.1368800415       33.1932226935      -63.2751689217  TIP3      12472           0.0000000000
     88931     13832  TIP3      H2              3.8160306559       32.8162688961      -61.8460497564  TIP3      12472           0.0000000000
     88932     13833  TIP3      OH2             2.7080618313       19.1241605431      -63.1524717343  TIP3      12473           0.0000000000
     88933     13833  TIP3      H1              2.6252811561       20.0030851198      -62.7451518190  TIP3      12473           0.0000000000
     88934     13833  TIP3      H2              3.5967533137       18.8875128233      -62.8679810156  TIP3      12473           0.0000000000
     88935     13834  TIP3      OH2             0.9849669681       29.5731254589      -64.0227829506  TIP3      12474           0.0000000000
     88936     13834  TIP3      H1              1.6260261095       30.2555727390      -63.7880114870  TIP3      12474           0.0000000000
     88937     13834  TIP3      H2              1.4703731267       29.1285465705      -64.7444383196  TIP3      12474           0.0000000000
     88938     13835  TIP3      OH2            -0.6842172154       22.2522422737      -64.9248162145  TIP3      12475           0.0000000000
     88939     13835  TIP3      H1             -0.7018491454       23.2061447221      -64.7119664748  TIP3      12475           0.0000000000
     88940     13835  TIP3      H2             -1.5860470391       22.0587894717      -65.1933888524  TIP3      12475           0.0000000000
     88941     13836  TIP3      OH2             7.0826178025       32.0288072507      -65.7728023988  TIP3      12476           0.0000000000
     88942     13836  TIP3      H1              6.3970080695       31.3718537036      -65.5177233275  TIP3      12476           0.0000000000
     88943     13836  TIP3      H2              7.7982526748       31.4167046990      -65.9850624322  TIP3      12476           0.0000000000
     88944     13837  TIP3      OH2            11.6682776797       31.8032046873      -65.5607468964  TIP3      12477           0.0000000000
     88945     13837  TIP3      H1             11.9348405929       31.0030860299      -65.0898028478  TIP3      12477           0.0000000000
     88946     13837  TIP3      H2             12.4065623983       32.0236285333      -66.1291399888  TIP3      12477           0.0000000000
     88947     13838  TIP3      OH2             2.5252441260       27.7012300305      -65.7299590210  TIP3      12478           0.0000000000
     88948     13838  TIP3      H1              2.6970256661       26.9443601948      -65.1463710232  TIP3      12478           0.0000000000
     88949     13838  TIP3      H2              3.2725491835       27.6014375220      -66.3536135558  TIP3      12478           0.0000000000
     88950     13839  TIP3      OH2             7.9530129869       28.8223649242      -65.9309618155  TIP3      12479           0.0000000000
     88951     13839  TIP3      H1              7.7089235175       28.9103594811      -65.0016088659  TIP3      12479           0.0000000000
     88952     13839  TIP3      H2              7.7689476995       27.8700243935      -66.1029610053  TIP3      12479           0.0000000000
     88953     13840  TIP3      OH2             3.7393129987       25.7074039859      -63.3836965881  TIP3      12480           0.0000000000
     88954     13840  TIP3      H1              3.2642403349       25.2155394354      -62.7009072664  TIP3      12480           0.0000000000
     88955     13840  TIP3      H2              4.0116810690       25.0295687281      -64.0289387578  TIP3      12480           0.0000000000
     88956     13841  TIP3      OH2             4.8174171421       23.9074145386      -65.1356018344  TIP3      12481           0.0000000000
     88957     13841  TIP3      H1              4.6702449427       23.8574472201      -66.1051753388  TIP3      12481           0.0000000000
     88958     13841  TIP3      H2              5.7886669986       24.0274737341      -65.0632021876  TIP3      12481           0.0000000000
     88959     13842  TIP3      OH2            14.1603872983       26.3052072050      -65.6412024763  TIP3      12482           0.0000000000
     88960     13842  TIP3      H1             13.9736953676       25.8979772322      -66.5040295434  TIP3      12482           0.0000000000
     88961     13842  TIP3      H2             14.2279540171       27.2527189828      -65.9001520854  TIP3      12482           0.0000000000
     88962     13843  TIP3      OH2             4.6986324419       34.6637704750      -64.0107760340  TIP3      12483           0.0000000000
     88963     13843  TIP3      H1              5.6698371922       34.7502552068      -64.0051061484  TIP3      12483           0.0000000000
     88964     13843  TIP3      H2              4.4769673137       35.2418926930      -64.7694324430  TIP3      12483           0.0000000000
     88965     13844  TIP3      OH2            -1.7967467655       29.2529246234      -64.6020231738  TIP3      12484           0.0000000000
     88966     13844  TIP3      H1             -0.8440213229       29.3413263264      -64.3785856273  TIP3      12484           0.0000000000
     88967     13844  TIP3      H2             -1.7364133890       28.5648982655      -65.2994549589  TIP3      12484           0.0000000000
     88968     13845  TIP3      OH2            15.3171876325       25.1072506973      -63.4704429307  TIP3      12485           0.0000000000
     88969     13845  TIP3      H1             14.8099417321       25.4763233650      -64.2281541813  TIP3      12485           0.0000000000
     88970     13845  TIP3      H2             15.2766523853       25.8200556129      -62.8211377260  TIP3      12485           0.0000000000
     88971     13846  TIP3      OH2            13.7298907776       22.3536389481      -64.9356232397  TIP3      12486           0.0000000000
     88972     13846  TIP3      H1             13.7879275082       22.9964956388      -65.6487087469  TIP3      12486           0.0000000000
     88973     13846  TIP3      H2             13.5311916157       21.5178845057      -65.4073577481  TIP3      12486           0.0000000000
     88974     13847  TIP3      OH2            12.9536509034       19.7812368313      -65.8099728204  TIP3      12487           0.0000000000
     88975     13847  TIP3      H1             13.5533890225       19.3730770029      -65.1579158835  TIP3      12487           0.0000000000
     88976     13847  TIP3      H2             12.0992348312       19.3750045600      -65.5998738938  TIP3      12487           0.0000000000
     88977     13848  TIP3      OH2            15.0157046779       18.6496685394      -64.2593643633  TIP3      12488           0.0000000000
     88978     13848  TIP3      H1             15.4496854955       17.9178498033      -64.7435182604  TIP3      12488           0.0000000000
     88979     13848  TIP3      H2             15.7306262062       19.3009263185      -64.1737864694  TIP3      12488           0.0000000000
     88980     13849  TIP3      OH2            -1.4158656455       16.7083094698      -63.2215237100  TIP3      12489           0.0000000000
     88981     13849  TIP3      H1             -0.9197031319       17.3552734481      -63.7425904381  TIP3      12489           0.0000000000
     88982     13849  TIP3      H2             -2.0017001076       17.2773054667      -62.7271680174  TIP3      12489           0.0000000000
     88983     13850  TIP3      OH2             0.4333623393       18.6523405062      -64.7276614219  TIP3      12490           0.0000000000
     88984     13850  TIP3      H1              0.9210563218       17.9854529568      -65.2458860461  TIP3      12490           0.0000000000
     88985     13850  TIP3      H2              1.0726855467       18.9055826390      -64.0354768563  TIP3      12490           0.0000000000
     88986     13851  TIP3      OH2             7.3402684234       33.8816621921      -63.8427399563  TIP3      12491           0.0000000000
     88987     13851  TIP3      H1              8.2501199063       34.1538858104      -64.0495551664  TIP3      12491           0.0000000000
     88988     13851  TIP3      H2              7.1428497786       33.3821777742      -64.6682290508  TIP3      12491           0.0000000000
     88989     13852  TIP3      OH2             0.1972354221       33.4680434816      -65.2246743290  TIP3      12492           0.0000000000
     88990     13852  TIP3      H1              0.0334658383       33.8630606813      -64.3578041540  TIP3      12492           0.0000000000
     88991     13852  TIP3      H2              1.0675890951       33.0432430388      -65.1184094507  TIP3      12492           0.0000000000
     88992     13853  TIP3      OH2            26.4341957309       23.7916510505      -64.5587141084  TIP3      12493           0.0000000000
     88993     13853  TIP3      H1             27.1552916372       23.8363980908      -63.8991118258  TIP3      12493           0.0000000000
     88994     13853  TIP3      H2             26.7926538278       23.1168169395      -65.1498491836  TIP3      12493           0.0000000000
     88995     13854  TIP3      OH2            28.7230656384       24.6601782980      -62.9646743001  TIP3      12494           0.0000000000
     88996     13854  TIP3      H1             29.2708355800       24.8747336036      -62.2087545073  TIP3      12494           0.0000000000
     88997     13854  TIP3      H2             29.1232096952       25.1769693562      -63.6896775751  TIP3      12494           0.0000000000
     88998     13855  TIP3      OH2            32.4428972459       16.4331560990      -63.0511080186  TIP3      12495           0.0000000000
     88999     13855  TIP3      H1             31.5048923935       16.5217948251      -62.8386480673  TIP3      12495           0.0000000000
     89000     13855  TIP3      H2             32.6417062959       17.2728384726      -63.4985547940  TIP3      12495           0.0000000000
     89001     13856  TIP3      OH2            33.5731236953       30.7985618481      -64.7783557862  TIP3      12496           0.0000000000
     89002     13856  TIP3      H1             33.7115148667       31.7369948021      -64.5507373515  TIP3      12496           0.0000000000
     89003     13856  TIP3      H2             34.4946736384       30.5026681420      -64.7208861798  TIP3      12496           0.0000000000
     89004     13857  TIP3      OH2            29.0149258385       33.5488677947      -64.0574237929  TIP3      12497           0.0000000000
     89005     13857  TIP3      H1             29.4196724360       32.7935201544      -64.5417181334  TIP3      12497           0.0000000000
     89006     13857  TIP3      H2             29.0585632019       33.2340219037      -63.1401629784  TIP3      12497           0.0000000000
     89007     13858  TIP3      OH2            30.1772580700       25.7104524226      -65.2144492006  TIP3      12498           0.0000000000
     89008     13858  TIP3      H1             30.1440738769       25.5052603205      -66.1770050018  TIP3      12498           0.0000000000
     89009     13858  TIP3      H2             31.0269721752       26.1571136131      -65.1120823364  TIP3      12498           0.0000000000
     89010     13859  TIP3      OH2            25.7623191720       19.5961714022      -64.6303918336  TIP3      12499           0.0000000000
     89011     13859  TIP3      H1             25.4642499510       19.5913230102      -63.7168059137  TIP3      12499           0.0000000000
     89012     13859  TIP3      H2             25.4640737484       18.7292306157      -64.9578747268  TIP3      12499           0.0000000000
     89013     13860  TIP3      OH2            22.5824869657       19.9845209348      -65.5578859368  TIP3      12500           0.0000000000
     89014     13860  TIP3      H1             22.1395514707       19.6164498384      -64.7683422916  TIP3      12500           0.0000000000
     89015     13860  TIP3      H2             21.8636963767       20.4350396866      -66.0251508529  TIP3      12500           0.0000000000
     89016     13861  TIP3      OH2            17.0993790803       20.4068193677      -63.1134289774  TIP3      12501           0.0000000000
     89017     13861  TIP3      H1             17.6256651599       21.0687078905      -63.6039220418  TIP3      12501           0.0000000000
     89018     13861  TIP3      H2             16.4577196782       21.0283226365      -62.7061083218  TIP3      12501           0.0000000000
     89019     13862  TIP3      OH2            21.2781776489       22.7438684358      -64.0914296907  TIP3      12502           0.0000000000
     89020     13862  TIP3      H1             20.7141616416       22.4407140855      -64.8290407164  TIP3      12502           0.0000000000
     89021     13862  TIP3      H2             22.0683723749       23.0072584076      -64.5794229118  TIP3      12502           0.0000000000
     89022     13863  TIP3      OH2            28.4540241694       20.1574619505      -64.0245648261  TIP3      12503           0.0000000000
     89023     13863  TIP3      H1             27.4999763543       20.3016787674      -64.1303197157  TIP3      12503           0.0000000000
     89024     13863  TIP3      H2             28.7743396246       20.9867900525      -63.6166453747  TIP3      12503           0.0000000000
     89025     13864  TIP3      OH2            29.1763889114       22.1147392327      -62.3456992416  TIP3      12504           0.0000000000
     89026     13864  TIP3      H1             30.0825962792       21.9104725024      -62.0786927321  TIP3      12504           0.0000000000
     89027     13864  TIP3      H2             29.2626385708       22.8874847612      -62.9251818126  TIP3      12504           0.0000000000
     89028     13865  TIP3      OH2            26.7024864101       28.7964753121      -63.1878562259  TIP3      12505           0.0000000000
     89029     13865  TIP3      H1             26.3880369669       29.6438387824      -62.8058281115  TIP3      12505           0.0000000000
     89030     13865  TIP3      H2             26.0012412577       28.1860083990      -62.9332316491  TIP3      12505           0.0000000000
     89031     13866  TIP3      OH2            34.0466235256       22.2308436713      -62.5789780178  TIP3      12506           0.0000000000
     89032     13866  TIP3      H1             33.5140507626       21.9035263608      -63.3306183654  TIP3      12506           0.0000000000
     89033     13866  TIP3      H2             34.1510404655       23.1517199270      -62.8886413108  TIP3      12506           0.0000000000
     89034     13867  TIP3      OH2            17.8401098244       25.0745925946      -64.5063889332  TIP3      12507           0.0000000000
     89035     13867  TIP3      H1             18.4448172770       25.6513854779      -63.9923421057  TIP3      12507           0.0000000000
     89036     13867  TIP3      H2             16.9636688744       25.3375595361      -64.1703138104  TIP3      12507           0.0000000000
     89037     13868  TIP3      OH2            29.7990104147       29.0546845710      -64.3751673238  TIP3      12508           0.0000000000
     89038     13868  TIP3      H1             30.1051761168       28.7053835594      -63.5330516242  TIP3      12508           0.0000000000
     89039     13868  TIP3      H2             28.8355803802       28.9431741514      -64.2752052084  TIP3      12508           0.0000000000
     89040     13869  TIP3      OH2            34.2419240670       33.4692838792      -64.1671213355  TIP3      12509           0.0000000000
     89041     13869  TIP3      H1             35.0029001658       34.0746786467      -64.2230862780  TIP3      12509           0.0000000000
     89042     13869  TIP3      H2             33.5705630185       34.1011890148      -63.8377493485  TIP3      12509           0.0000000000
     89043     13870  TIP3      OH2            23.9425328394       30.1554408554      -65.8848852541  TIP3      12510           0.0000000000
     89044     13870  TIP3      H1             24.0656904226       29.3871436741      -66.4588873685  TIP3      12510           0.0000000000
     89045     13870  TIP3      H2             23.5201049757       29.7490565359      -65.0928358634  TIP3      12510           0.0000000000
     89046     13871  TIP3      OH2            22.7483602750       29.6760900049      -63.4430744118  TIP3      12511           0.0000000000
     89047     13871  TIP3      H1             22.9818899788       29.1967453462      -62.6392072141  TIP3      12511           0.0000000000
     89048     13871  TIP3      H2             22.8457773463       30.5984235268      -63.1235803250  TIP3      12511           0.0000000000
     89049     13872  TIP3      OH2            19.1884252238       26.9687627457      -63.0049889185  TIP3      12512           0.0000000000
     89050     13872  TIP3      H1             18.5685811886       27.3010194835      -62.3585867375  TIP3      12512           0.0000000000
     89051     13872  TIP3      H2             19.7775812485       27.7099382543      -63.2242333855  TIP3      12512           0.0000000000
     89052     13873  TIP3      OH2            25.5077531413       31.3966541275      -62.6792078937  TIP3      12513           0.0000000000
     89053     13873  TIP3      H1             24.6792786811       31.9090209019      -62.6726288696  TIP3      12513           0.0000000000
     89054     13873  TIP3      H2             26.0432142040       31.9136499941      -63.3033689353  TIP3      12513           0.0000000000
     89055     13874  TIP3      OH2            22.9253386288       32.4070668727      -62.6849926655  TIP3      12514           0.0000000000
     89056     13874  TIP3      H1             22.9943318782       33.1975785629      -63.2733028869  TIP3      12514           0.0000000000
     89057     13874  TIP3      H2             22.6827217487       32.8060010093      -61.8391288299  TIP3      12514           0.0000000000
     89058     13875  TIP3      OH2            21.5656773546       19.1241513850      -63.1499671500  TIP3      12515           0.0000000000
     89059     13875  TIP3      H1             21.4805158715       20.0030760635      -62.7442857134  TIP3      12515           0.0000000000
     89060     13875  TIP3      H2             22.4517048276       18.8856168518      -62.8643616720  TIP3      12515           0.0000000000
     89061     13876  TIP3      OH2            19.8310246079       29.5808465309      -64.0444050615  TIP3      12516           0.0000000000
     89062     13876  TIP3      H1             20.4916015818       30.2272951706      -63.7703546137  TIP3      12516           0.0000000000
     89063     13876  TIP3      H2             20.3323739828       29.1111813060      -64.7413190481  TIP3      12516           0.0000000000
     89064     13877  TIP3      OH2            18.1485170204       22.2478301683      -64.8945997121  TIP3      12517           0.0000000000
     89065     13877  TIP3      H1             18.1578751495       23.2121591163      -64.7323435436  TIP3      12517           0.0000000000
     89066     13877  TIP3      H2             17.2614375558       22.0621518737      -65.2042471333  TIP3      12517           0.0000000000
     89067     13878  TIP3      OH2            25.9491399165       32.0274053416      -65.7642463603  TIP3      12518           0.0000000000
     89068     13878  TIP3      H1             25.2587918862       31.3701767968      -65.5220629987  TIP3      12518           0.0000000000
     89069     13878  TIP3      H2             26.6679284091       31.4345895481      -66.0442216303  TIP3      12518           0.0000000000
     89070     13879  TIP3      OH2            30.4958170951       31.8034250390      -65.5668773793  TIP3      12519           0.0000000000
     89071     13879  TIP3      H1             30.7885052453       31.0232365720      -65.0743296294  TIP3      12519           0.0000000000
     89072     13879  TIP3      H2             31.2517242926       32.0279082471      -66.1203085309  TIP3      12519           0.0000000000
     89073     13880  TIP3      OH2            21.3788075371       27.7038133472      -65.7368664127  TIP3      12520           0.0000000000
     89074     13880  TIP3      H1             21.5499577980       26.9546767911      -65.1423359109  TIP3      12520           0.0000000000
     89075     13880  TIP3      H2             22.1274983065       27.6034838329      -66.3545729928  TIP3      12520           0.0000000000
     89076     13881  TIP3      OH2            26.8376711085       28.8175685979      -65.9263205941  TIP3      12521           0.0000000000
     89077     13881  TIP3      H1             26.5644475748       28.9137450701      -64.9991303079  TIP3      12521           0.0000000000
     89078     13881  TIP3      H2             26.6220423597       27.8717062533      -66.1036477534  TIP3      12521           0.0000000000
     89079     13882  TIP3      OH2            22.5905951961       25.7052778074      -63.3899710640  TIP3      12522           0.0000000000
     89080     13882  TIP3      H1             22.1231650343       25.2202999743      -62.6942592014  TIP3      12522           0.0000000000
     89081     13882  TIP3      H2             22.8612612938       25.0251919294      -64.0347778425  TIP3      12522           0.0000000000
     89082     13883  TIP3      OH2            23.6737414429       23.9617660776      -65.1757666178  TIP3      12523           0.0000000000
     89083     13883  TIP3      H1             23.5281980962       23.7930369316      -66.1177084642  TIP3      12523           0.0000000000
     89084     13883  TIP3      H2             24.6511638963       24.0177817614      -65.0687258476  TIP3      12523           0.0000000000
     89085     13884  TIP3      OH2            33.1092207787       26.2995201685      -65.6906284191  TIP3      12524           0.0000000000
     89086     13884  TIP3      H1             32.7875417320       25.8953632278      -66.5062329589  TIP3      12524           0.0000000000
     89087     13884  TIP3      H2             33.0533259096       27.2680752436      -65.8686502196  TIP3      12524           0.0000000000
     89088     13885  TIP3      OH2            23.5351808851       34.6549746203      -64.0311665423  TIP3      12525           0.0000000000
     89089     13885  TIP3      H1             24.5068643648       34.7491339639      -63.9972268729  TIP3      12525           0.0000000000
     89090     13885  TIP3      H2             23.3474866174       35.2597418327      -64.7666615971  TIP3      12525           0.0000000000
     89091     13886  TIP3      OH2            17.0591141188       29.2596995690      -64.6096126147  TIP3      12526           0.0000000000
     89092     13886  TIP3      H1             18.0107607316       29.3395501465      -64.3786046658  TIP3      12526           0.0000000000
     89093     13886  TIP3      H2             17.1206158364       28.5603165879      -65.2958403235  TIP3      12526           0.0000000000
     89094     13887  TIP3      OH2            34.2103241951       25.1210858852      -63.5078747830  TIP3      12527           0.0000000000
     89095     13887  TIP3      H1             33.6363505408       25.4783905106      -64.2166042228  TIP3      12527           0.0000000000
     89096     13887  TIP3      H2             34.1301378526       25.7990832098      -62.8187624715  TIP3      12527           0.0000000000
     89097     13888  TIP3      OH2            32.5971105367       22.3639810515      -64.9401068580  TIP3      12528           0.0000000000
     89098     13888  TIP3      H1             32.6271179847       22.9942315571      -65.6602759210  TIP3      12528           0.0000000000
     89099     13888  TIP3      H2             32.3894042322       21.5256859280      -65.4086810038  TIP3      12528           0.0000000000
     89100     13889  TIP3      OH2            31.8115945123       19.7852161271      -65.7990643493  TIP3      12529           0.0000000000
     89101     13889  TIP3      H1             32.4069228098       19.3649514589      -65.1506440410  TIP3      12529           0.0000000000
     89102     13889  TIP3      H2             30.9570275674       19.3745139113      -65.6135367461  TIP3      12529           0.0000000000
     89103     13890  TIP3      OH2            33.8556922736       18.6587949896      -64.2946512618  TIP3      12530           0.0000000000
     89104     13890  TIP3      H1             34.3139815364       17.9060474211      -64.7204986690  TIP3      12530           0.0000000000
     89105     13890  TIP3      H2             34.5721320896       19.2980929892      -64.1678404202  TIP3      12530           0.0000000000
     89106     13891  TIP3      OH2            17.4440257880       16.7076957784      -63.2235061602  TIP3      12531           0.0000000000
     89107     13891  TIP3      H1             17.9382752628       17.3546552649      -63.7446249200  TIP3      12531           0.0000000000
     89108     13891  TIP3      H2             16.8612402907       17.2825277831      -62.7271486383  TIP3      12531           0.0000000000
     89109     13892  TIP3      OH2            19.2931533632       18.6372277511      -64.7249795536  TIP3      12532           0.0000000000
     89110     13892  TIP3      H1             19.7876485000       17.9871410466      -65.2526384447  TIP3      12532           0.0000000000
     89111     13892  TIP3      H2             19.9313126592       18.9040033265      -64.0368472981  TIP3      12532           0.0000000000
     89112     13893  TIP3      OH2            26.1984706882       33.8818538267      -63.8375247140  TIP3      12533           0.0000000000
     89113     13893  TIP3      H1             27.1049420133       34.1556205566      -64.0510150347  TIP3      12533           0.0000000000
     89114     13893  TIP3      H2             26.0054345170       33.3759231249      -64.6606789040  TIP3      12533           0.0000000000
     89115     13894  TIP3      OH2            19.1251678154       33.5845649540      -65.2520885898  TIP3      12534           0.0000000000
     89116     13894  TIP3      H1             18.8699737284       33.8369567956      -64.3503510923  TIP3      12534           0.0000000000
     89117     13894  TIP3      H2             19.9096398069       33.0198941715      -65.1118061703  TIP3      12534           0.0000000000
     89118     13895  TIP3      OH2            35.9330352087       20.4031747427      -63.1133064376  TIP3      12535           0.0000000000
     89119     13895  TIP3      H1             36.4898056602       21.0568761095      -63.5787215989  TIP3      12535           0.0000000000
     89120     13895  TIP3      H2             35.3093790368       21.0346474677      -62.6945455187  TIP3      12535           0.0000000000
     89121     13896  TIP3      OH2            40.1171178707       22.7618793537      -64.0978214067  TIP3      12536           0.0000000000
     89122     13896  TIP3      H1             39.5611368907       22.4241302580      -64.8230120154  TIP3      12536           0.0000000000
     89123     13896  TIP3      H2             40.8940603846       23.0300261381      -64.5770429028  TIP3      12536           0.0000000000
     89124     13897  TIP3      OH2            36.6782642143       25.2051308892      -64.6328566086  TIP3      12537           0.0000000000
     89125     13897  TIP3      H1             37.2945129727       25.6201490442      -63.9753024829  TIP3      12537           0.0000000000
     89126     13897  TIP3      H2             35.8310213144       25.2905464213      -64.1348626635  TIP3      12537           0.0000000000
     89127     13898  TIP3      OH2            38.0657127422       26.9527382974      -62.9938711875  TIP3      12538           0.0000000000
     89128     13898  TIP3      H1             37.4347375582       27.2790369931      -62.3497663950  TIP3      12538           0.0000000000
     89129     13898  TIP3      H2             38.6037502775       27.7242354345      -63.2127429112  TIP3      12538           0.0000000000
     89130     13899  TIP3      OH2           -41.1287809003       18.9832627019      -63.0786860560  TIP3      12539           0.0000000000
     89131     13899  TIP3      H1            -41.1440954312       19.9112038582      -62.8124197292  TIP3      12539           0.0000000000
     89132     13899  TIP3      H2            -40.1727672714       18.8781774652      -62.9585631509  TIP3      12539           0.0000000000
     89133     13900  TIP3      OH2            38.6982112445       29.5747949473      -64.0594473330  TIP3      12540           0.0000000000
     89134     13900  TIP3      H1             39.3412075455       30.2354262237      -63.7798658114  TIP3      12540           0.0000000000
     89135     13900  TIP3      H2             39.2192249889       29.1135361545      -64.7385957050  TIP3      12540           0.0000000000
     89136     13901  TIP3      OH2            37.0413110613       22.2404799902      -64.9345697164  TIP3      12541           0.0000000000
     89137     13901  TIP3      H1             37.0077811744       23.1862094928      -64.7080451145  TIP3      12541           0.0000000000
     89138     13901  TIP3      H2             36.1326758462       22.0389284511      -65.1933834429  TIP3      12541           0.0000000000
     89139     13902  TIP3      OH2            39.9288003550       27.6468500805      -65.6091172350  TIP3      12542           0.0000000000
     89140     13902  TIP3      H1             40.2663721561       26.9447431247      -65.0447894122  TIP3      12542           0.0000000000
     89141     13902  TIP3      H2             40.7516121328       27.7072992734      -66.1306676036  TIP3      12542           0.0000000000
     89142     13903  TIP3      OH2            35.9482313814       29.3059013296      -64.5572218157  TIP3      12543           0.0000000000
     89143     13903  TIP3      H1             36.9016138784       29.3789794824      -64.3503554926  TIP3      12543           0.0000000000
     89144     13903  TIP3      H2             35.9738467207       28.6314150186      -65.2650644675  TIP3      12543           0.0000000000
     89145     13904  TIP3      OH2            36.2770296084       16.7009547686      -63.2571622653  TIP3      12544           0.0000000000
     89146     13904  TIP3      H1             36.7821750013       17.3630828333      -63.7428966353  TIP3      12544           0.0000000000
     89147     13904  TIP3      H2             35.7295854812       17.2623207576      -62.7061834392  TIP3      12544           0.0000000000
     89148     13905  TIP3      OH2            38.1673134354       18.6578606103      -64.7618907428  TIP3      12545           0.0000000000
     89149     13905  TIP3      H1             38.6877527921       17.9938386995      -65.2369454874  TIP3      12545           0.0000000000
     89150     13905  TIP3      H2             38.8020236319       18.9150936624      -64.0607380633  TIP3      12545           0.0000000000
     89151     13906  TIP3      OH2            38.0378422441       33.5782907527      -65.2799098211  TIP3      12546           0.0000000000
     89152     13906  TIP3      H1             37.7349401431       33.8729985528      -64.3979499713  TIP3      12546           0.0000000000
     89153     13906  TIP3      H2             38.7881416241       33.0146220705      -65.0651598486  TIP3      12546           0.0000000000
     89154     13907  TIP3      OH2           -24.1373525039       35.2772740666      -63.0331595699  TIP3      12547           0.0000000000
     89155     13907  TIP3      H1            -25.0698904929       35.4014025709      -62.8347970544  TIP3      12547           0.0000000000
     89156     13907  TIP3      H2            -23.9281755990       36.1218050724      -63.4728123151  TIP3      12547           0.0000000000
     89157     13908  TIP3      OH2           -30.7669279019       38.4417685174      -64.5772193549  TIP3      12548           0.0000000000
     89158     13908  TIP3      H1            -31.1127672977       38.4335386201      -63.6900780930  TIP3      12548           0.0000000000
     89159     13908  TIP3      H2            -31.1040809806       37.6167243072      -64.9664621600  TIP3      12548           0.0000000000
     89160     13909  TIP3      OH2           -33.9664620129       38.8662192976      -65.5227798717  TIP3      12549           0.0000000000
     89161     13909  TIP3      H1            -34.4230721596       38.4623704145      -64.7576857060  TIP3      12549           0.0000000000
     89162     13909  TIP3      H2            -34.6833578575       39.2440167963      -66.0420413019  TIP3      12549           0.0000000000
     89163     13910  TIP3      OH2           -39.2628101878       39.3327812758      -62.9718927577  TIP3      12550           0.0000000000
     89164     13910  TIP3      H1            -38.8923865089       39.9782714575      -63.5916898285  TIP3      12550           0.0000000000
     89165     13910  TIP3      H2            -39.9949959355       39.8873889088      -62.6811261412  TIP3      12550           0.0000000000
     89166     13911  TIP3      OH2           -28.0929075243       39.0645389016      -64.0033358244  TIP3      12551           0.0000000000
     89167     13911  TIP3      H1            -29.0484553784       39.1740991060      -64.1680612607  TIP3      12551           0.0000000000
     89168     13911  TIP3      H2            -27.8020503366       39.9125926514      -63.6780448726  TIP3      12551           0.0000000000
     89169     13912  TIP3      OH2           -34.9948682696       38.0036675523      -63.1430329319  TIP3      12552           0.0000000000
     89170     13912  TIP3      H1            -35.0724404657       38.8759072784      -62.7193385969  TIP3      12552           0.0000000000
     89171     13912  TIP3      H2            -34.1153563721       37.7228712127      -62.8594220461  TIP3      12552           0.0000000000
     89172     13913  TIP3      OH2           -24.7540027085       38.5728678640      -65.8425602270  TIP3      12553           0.0000000000
     89173     13913  TIP3      H1            -24.1543933383       38.2624175662      -65.1390186311  TIP3      12553           0.0000000000
     89174     13913  TIP3      H2            -25.6236768017       38.2384378209      -65.5853128596  TIP3      12553           0.0000000000
     89175     13914  TIP3      OH2           -22.7063087205       37.4914659948      -64.2660206653  TIP3      12554           0.0000000000
     89176     13914  TIP3      H1            -22.2454957275       36.7803132837      -64.7410734249  TIP3      12554           0.0000000000
     89177     13914  TIP3      H2            -22.0029851565       38.1558585799      -64.1462388639  TIP3      12554           0.0000000000
     89178     13915  TIP3      OH2           -39.1026322552       35.5657145362      -63.1942885128  TIP3      12555           0.0000000000
     89179     13915  TIP3      H1            -38.6623777842       36.2210536505      -63.7464681489  TIP3      12555           0.0000000000
     89180     13915  TIP3      H2            -39.7461647778       36.0773163156      -62.7025999263  TIP3      12555           0.0000000000
     89181     13916  TIP3      OH2           -37.2648400579       37.5491084650      -64.7706289892  TIP3      12556           0.0000000000
     89182     13916  TIP3      H1            -36.8004687685       36.8388217652      -65.2451243109  TIP3      12556           0.0000000000
     89183     13916  TIP3      H2            -36.6456154471       37.7358064945      -64.0375014633  TIP3      12556           0.0000000000
     89184     13917  TIP3      OH2            -5.2821478089       35.2709694432      -63.0539126064  TIP3      12557           0.0000000000
     89185     13917  TIP3      H1             -6.2135076724       35.3971301510      -62.8450379522  TIP3      12557           0.0000000000
     89186     13917  TIP3      H2             -5.0720241240       36.1269066199      -63.4675163657  TIP3      12557           0.0000000000
     89187     13918  TIP3      OH2           -11.9165340987       38.4387608550      -64.5939518164  TIP3      12558           0.0000000000
     89188     13918  TIP3      H1            -12.2514208348       38.4347256121      -63.6993583904  TIP3      12558           0.0000000000
     89189     13918  TIP3      H2            -12.2506865746       37.6037610607      -64.9640182143  TIP3      12558           0.0000000000
     89190     13919  TIP3      OH2           -15.1386382278       38.8713946162      -65.5340295928  TIP3      12559           0.0000000000
     89191     13919  TIP3      H1            -15.5709976981       38.4591454059      -64.7620350991  TIP3      12559           0.0000000000
     89192     13919  TIP3      H2            -15.8629453626       39.2648557039      -66.0311113107  TIP3      12559           0.0000000000
     89193     13920  TIP3      OH2           -20.6681777040       39.1592704697      -63.1406857409  TIP3      12560           0.0000000000
     89194     13920  TIP3      H1            -20.1439918522       39.8842449576      -63.5451874295  TIP3      12560           0.0000000000
     89195     13920  TIP3      H2            -21.2623506964       39.7851061556      -62.6967684803  TIP3      12560           0.0000000000
     89196     13921  TIP3      OH2            -9.2361201775       39.0617558260      -63.9996289340  TIP3      12561           0.0000000000
     89197     13921  TIP3      H1            -10.1919856032       39.1746574858      -64.1688136078  TIP3      12561           0.0000000000
     89198     13921  TIP3      H2             -8.9458597292       39.9127409036      -63.6780924352  TIP3      12561           0.0000000000
     89199     13922  TIP3      OH2           -16.1330552178       38.0026361099      -63.1384571443  TIP3      12562           0.0000000000
     89200     13922  TIP3      H1            -16.2219986863       38.8732588002      -62.7167213031  TIP3      12562           0.0000000000
     89201     13922  TIP3      H2            -15.2526525203       37.7274368609      -62.8573449614  TIP3      12562           0.0000000000
     89202     13923  TIP3      OH2            -5.9225087945       38.5911532464      -65.8454585484  TIP3      12563           0.0000000000
     89203     13923  TIP3      H1             -5.3167062129       38.2538671987      -65.1589125013  TIP3      12563           0.0000000000
     89204     13923  TIP3      H2             -6.7784494796       38.2290258837      -65.6007079260  TIP3      12563           0.0000000000
     89205     13924  TIP3      OH2            -3.8414630728       37.5165296303      -64.2797519564  TIP3      12564           0.0000000000
     89206     13924  TIP3      H1             -3.3987926467       36.7770803220      -64.7333297341  TIP3      12564           0.0000000000
     89207     13924  TIP3      H2             -3.1325043527       38.1651646035      -64.1457234420  TIP3      12564           0.0000000000
     89208     13925  TIP3      OH2           -20.2613497627       35.5771596094      -63.2246094588  TIP3      12565           0.0000000000
     89209     13925  TIP3      H1            -19.7656907604       36.2206685232      -63.7446621568  TIP3      12565           0.0000000000
     89210     13925  TIP3      H2            -20.8470852170       36.1418744814      -62.7199384679  TIP3      12565           0.0000000000
     89211     13926  TIP3      OH2           -18.3961815926       37.5028015892      -64.7586196097  TIP3      12566           0.0000000000
     89212     13926  TIP3      H1            -17.9314072220       36.8075223163      -65.2598977767  TIP3      12566           0.0000000000
     89213     13926  TIP3      H2            -17.7679653231       37.7120702553      -64.0414140206  TIP3      12566           0.0000000000
     89214     13927  TIP3      OH2            13.5779478824       35.2677839296      -63.0571850906  TIP3      12567           0.0000000000
     89215     13927  TIP3      H1             12.6487459134       35.3995232470      -62.8476091558  TIP3      12567           0.0000000000
     89216     13927  TIP3      H2             13.7894624532       36.1221783586      -63.4772170672  TIP3      12567           0.0000000000
     89217     13928  TIP3      OH2             6.9196617855       38.4517814686      -64.6041995335  TIP3      12568           0.0000000000
     89218     13928  TIP3      H1              6.5907976532       38.4486811788      -63.7100501930  TIP3      12568           0.0000000000
     89219     13928  TIP3      H2              6.5877985857       37.6089198798      -64.9640190740  TIP3      12568           0.0000000000
     89220     13929  TIP3      OH2             3.7446897322       38.9149151721      -65.4990792160  TIP3      12569           0.0000000000
     89221     13929  TIP3      H1              3.2843692034       38.4294850825      -64.7890076496  TIP3      12569           0.0000000000
     89222     13929  TIP3      H2              3.0429084464       39.2156168244      -66.0764703748  TIP3      12569           0.0000000000
     89223     13930  TIP3      OH2            -1.7985627437       39.1676497234      -63.1759154735  TIP3      12570           0.0000000000
     89224     13930  TIP3      H1             -1.2945583038       39.9273596511      -63.4959881615  TIP3      12570           0.0000000000
     89225     13930  TIP3      H2             -2.4128179915       39.7527522530      -62.6945914234  TIP3      12570           0.0000000000
     89226     13931  TIP3      OH2             9.6145946814       39.0628306664      -64.0012284197  TIP3      12571           0.0000000000
     89227     13931  TIP3      H1              8.6622708749       39.1791726327      -64.1776542749  TIP3      12571           0.0000000000
     89228     13931  TIP3      H2              9.9092661968       39.9117275814      -63.6798241027  TIP3      12571           0.0000000000
     89229     13932  TIP3      OH2             2.7093326602       38.0275131166      -63.1405310342  TIP3      12572           0.0000000000
     89230     13932  TIP3      H1              2.6564823139       38.8775562362      -62.6828130308  TIP3      12572           0.0000000000
     89231     13932  TIP3      H2              3.5872956447       37.7113171495      -62.8771330101  TIP3      12572           0.0000000000
     89232     13933  TIP3      OH2            12.9483863585       38.6255110937      -65.8133750133  TIP3      12573           0.0000000000
     89233     13933  TIP3      H1             13.5626294794       38.2521569940      -65.1545679702  TIP3      12573           0.0000000000
     89234     13933  TIP3      H2             12.0960790205       38.2245507880      -65.6031405219  TIP3      12573           0.0000000000
     89235     13934  TIP3      OH2            15.0045221118       37.4951321212      -64.2443978852  TIP3      12574           0.0000000000
     89236     13934  TIP3      H1             15.4509196975       36.7977858637      -64.7602793957  TIP3      12574           0.0000000000
     89237     13934  TIP3      H2             15.7047718314       38.1647338889      -64.1524229554  TIP3      12574           0.0000000000
     89238     13935  TIP3      OH2            -1.3991440896       35.5867687130      -63.2390465903  TIP3      12575           0.0000000000
     89239     13935  TIP3      H1             -0.9005501896       36.2238650909      -63.7586471730  TIP3      12575           0.0000000000
     89240     13935  TIP3      H2             -1.9901640229       36.1302373902      -62.7159942044  TIP3      12575           0.0000000000
     89241     13936  TIP3      OH2             0.4649446588       37.5478700194      -64.7581999387  TIP3      12576           0.0000000000
     89242     13936  TIP3      H1              0.9127065613       36.8106647179      -65.2551843863  TIP3      12576           0.0000000000
     89243     13936  TIP3      H2              1.0984025351       37.6648043751      -64.0223134515  TIP3      12576           0.0000000000
     89244     13937  TIP3      OH2            32.4377710376       35.2671419050      -63.0647153582  TIP3      12577           0.0000000000
     89245     13937  TIP3      H1             31.5072793903       35.3988758095      -62.8488535312  TIP3      12577           0.0000000000
     89246     13937  TIP3      H2             32.6491767320       36.1232427004      -63.4816412447  TIP3      12577           0.0000000000
     89247     13938  TIP3      OH2            25.8001698088       38.4366689892      -64.6030701003  TIP3      12578           0.0000000000
     89248     13938  TIP3      H1             25.4533445090       38.4460897826      -63.7134216516  TIP3      12578           0.0000000000
     89249     13938  TIP3      H2             25.4594882150       37.6034643199      -64.9651300659  TIP3      12578           0.0000000000
     89250     13939  TIP3      OH2            22.5698895913       38.8399880347      -65.5391398094  TIP3      12579           0.0000000000
     89251     13939  TIP3      H1             22.1331289579       38.4664786987      -64.7487095826  TIP3      12579           0.0000000000
     89252     13939  TIP3      H2             21.8647699387       39.2888099671      -66.0091447559  TIP3      12579           0.0000000000
     89253     13940  TIP3      OH2            17.0440419684       39.1601700548      -63.1407102970  TIP3      12580           0.0000000000
     89254     13940  TIP3      H1             17.5688713142       39.8831613971      -63.5472869726  TIP3      12580           0.0000000000
     89255     13940  TIP3      H2             16.4493514847       39.7859256535      -62.6971972681  TIP3      12580           0.0000000000
     89256     13941  TIP3      OH2            28.4638210637       39.0661876426      -63.9986521528  TIP3      12581           0.0000000000
     89257     13941  TIP3      H1             27.5139075371       39.1842589957      -64.1916691011  TIP3      12581           0.0000000000
     89258     13941  TIP3      H2             28.7685372461       39.9095935731      -63.6697594036  TIP3      12581           0.0000000000
     89259     13942  TIP3      OH2            21.5815687467       38.0133599563      -63.1712766851  TIP3      12582           0.0000000000
     89260     13942  TIP3      H1             21.4861029307       38.8696735804      -62.7207379370  TIP3      12582           0.0000000000
     89261     13942  TIP3      H2             22.4506863712       37.7249639116      -62.8632995135  TIP3      12582           0.0000000000
     89262     13943  TIP3      OH2            31.7842005794       38.6303165158      -65.8110102931  TIP3      12583           0.0000000000
     89263     13943  TIP3      H1             32.4170867232       38.2550974085      -65.1694073448  TIP3      12583           0.0000000000
     89264     13943  TIP3      H2             30.9395432527       38.2196850718      -65.5986547914  TIP3      12583           0.0000000000
     89265     13944  TIP3      OH2            33.8575399929       37.4934549391      -64.2488891025  TIP3      12584           0.0000000000
     89266     13944  TIP3      H1             34.3115504677       36.7964731411      -64.7598843436  TIP3      12584           0.0000000000
     89267     13944  TIP3      H2             34.5582122918       38.1616408381      -64.1533524020  TIP3      12584           0.0000000000
     89268     13945  TIP3      OH2            17.4534585133       35.5758862966      -63.2196585953  TIP3      12585           0.0000000000
     89269     13945  TIP3      H1             17.9420746232       36.2253588708      -63.7411705254  TIP3      12585           0.0000000000
     89270     13945  TIP3      H2             16.8575047853       36.1371896982      -62.7285810697  TIP3      12585           0.0000000000
     89271     13946  TIP3      OH2            19.3148709131       37.5021266879      -64.7468431701  TIP3      12586           0.0000000000
     89272     13946  TIP3      H1             19.7966991704       36.8316042016      -65.2608976935  TIP3      12586           0.0000000000
     89273     13946  TIP3      H2             19.9529614582       37.7309076307      -64.0420434750  TIP3      12586           0.0000000000
     89274     13947  TIP3      OH2            35.8959268483       39.1567919835      -63.1111686335  TIP3      12587           0.0000000000
     89275     13947  TIP3      H1             36.4273443688       39.8647855700      -63.5345623270  TIP3      12587           0.0000000000
     89276     13947  TIP3      H2             35.2956010586       39.7956868097      -62.7000675862  TIP3      12587           0.0000000000
     89277     13948  TIP3      OH2           -41.1689783685       37.7847454534      -63.0431967597  TIP3      12588           0.0000000000
     89278     13948  TIP3      H1            -41.1930987619       38.7191398687      -62.8013357080  TIP3      12588           0.0000000000
     89279     13948  TIP3      H2            -40.1922714191       37.7312894853      -62.9623367255  TIP3      12588           0.0000000000
     89280     13949  TIP3      OH2            36.2930341565       35.5648933433      -63.2491449255  TIP3      12589           0.0000000000
     89281     13949  TIP3      H1             36.7919528567       36.2274161026      -63.7490399514  TIP3      12589           0.0000000000
     89282     13949  TIP3      H2             35.7312658310       36.1346239297      -62.7207349273  TIP3      12589           0.0000000000
     89283     13950  TIP3      OH2            38.1768087943       37.5052237747      -64.7315478105  TIP3      12590           0.0000000000
     89284     13950  TIP3      H1             38.6583044427       36.8660310077      -65.2757361706  TIP3      12590           0.0000000000
     89285     13950  TIP3      H2             38.8365483669       37.7383938245      -64.0519504616  TIP3      12590           0.0000000000
     89286     13951  TIP3      OH2           -28.8227634590      -30.5262088029      -55.4254938832  TIP3      12591           0.0000000000
     89287     13951  TIP3      H1            -28.8319461688      -29.5475149402      -55.4692880195  TIP3      12591           0.0000000000
     89288     13951  TIP3      H2            -29.5487011089      -30.7638211387      -56.0283332717  TIP3      12591           0.0000000000
     89289     13952  TIP3      OH2           -29.9687830894      -31.2720650469      -51.9293511490  TIP3      12592           0.0000000000
     89290     13952  TIP3      H1            -29.9766176399      -31.9231799580      -51.2140198926  TIP3      12592           0.0000000000
     89291     13952  TIP3      H2            -30.3150404950      -31.7734168879      -52.6834127525  TIP3      12592           0.0000000000
     89292     13953  TIP3      OH2           -37.5997371060      -31.6315422791      -50.4181907606  TIP3      12593           0.0000000000
     89293     13953  TIP3      H1            -37.5356424566      -32.2788171470      -49.6870099873  TIP3      12593           0.0000000000
     89294     13953  TIP3      H2            -36.9033195437      -31.0092972121      -50.1591451486  TIP3      12593           0.0000000000
     89295     13954  TIP3      OH2           -26.2793302425      -28.3208298048      -53.6424914829  TIP3      12594           0.0000000000
     89296     13954  TIP3      H1            -26.6977597428      -29.0356532045      -53.1528512909  TIP3      12594           0.0000000000
     89297     13954  TIP3      H2            -26.2573721020      -27.6135345542      -52.9698156168  TIP3      12594           0.0000000000
     89298     13955  TIP3      OH2           -36.7271037314      -27.1846524159      -51.9023706095  TIP3      12595           0.0000000000
     89299     13955  TIP3      H1            -37.0025958530      -28.0650351953      -52.2024113490  TIP3      12595           0.0000000000
     89300     13955  TIP3      H2            -35.7636642681      -27.3023882270      -51.8097722667  TIP3      12595           0.0000000000
     89301     13956  TIP3      OH2           -39.7297442025      -33.2934929689      -56.9353740171  TIP3      12596           0.0000000000
     89302     13956  TIP3      H1            -40.2991108804      -32.6364102040      -56.4870198487  TIP3      12596           0.0000000000
     89303     13956  TIP3      H2            -40.4015387860      -33.9247448322      -57.1686865312  TIP3      12596           0.0000000000
     89304     13957  TIP3      OH2           -39.1919953873      -31.4198346190      -54.1919513057  TIP3      12597           0.0000000000
     89305     13957  TIP3      H1            -39.0091228992      -32.2710262573      -53.7497224252  TIP3      12597           0.0000000000
     89306     13957  TIP3      H2            -38.5369295006      -31.3263674376      -54.8933315924  TIP3      12597           0.0000000000
     89307     13958  TIP3      OH2           -29.1711393993      -23.1674939829      -53.4108326410  TIP3      12598           0.0000000000
     89308     13958  TIP3      H1            -28.5229373910      -23.8560652006      -53.6981917445  TIP3      12598           0.0000000000
     89309     13958  TIP3      H2            -29.3734576321      -23.4917109725      -52.5314694450  TIP3      12598           0.0000000000
     89310     13959  TIP3      OH2           -31.6042456776      -28.8607686193      -51.4515959564  TIP3      12599           0.0000000000
     89311     13959  TIP3      H1            -31.2600167375      -29.4900705655      -52.1074502773  TIP3      12599           0.0000000000
     89312     13959  TIP3      H2            -30.7926292372      -28.7111756743      -50.9293158821  TIP3      12599           0.0000000000
     89313     13960  TIP3      OH2           -22.9543434811      -37.2764983795      -50.7010446881  TIP3      12600           0.0000000000
     89314     13960  TIP3      H1            -22.8294640587      -36.6380157569      -49.9641793357  TIP3      12600           0.0000000000
     89315     13960  TIP3      H2            -22.4458460638      -36.8059077382      -51.3787950594  TIP3      12600           0.0000000000
     89316     13961  TIP3      OH2           -28.4288302180      -34.3919569662      -51.1393432314  TIP3      12601           0.0000000000
     89317     13961  TIP3      H1            -28.2626383219      -35.3509996803      -51.1357693656  TIP3      12601           0.0000000000
     89318     13961  TIP3      H2            -28.5288175324      -34.2553475119      -52.1007394295  TIP3      12601           0.0000000000
     89319     13962  TIP3      OH2           -35.3144654682      -36.3020944972      -53.9168942108  TIP3      12602           0.0000000000
     89320     13962  TIP3      H1            -35.1941835775      -35.4709848234      -54.4201657550  TIP3      12602           0.0000000000
     89321     13962  TIP3      H2            -35.6823268853      -36.8864204715      -54.6204681898  TIP3      12602           0.0000000000
     89322     13963  TIP3      OH2           -27.5806523035      -36.2306292742      -55.5537364346  TIP3      12603           0.0000000000
     89323     13963  TIP3      H1            -26.9248388687      -36.5518478223      -54.8954179450  TIP3      12603           0.0000000000
     89324     13963  TIP3      H2            -27.0190133098      -35.6642467953      -56.1030588844  TIP3      12603           0.0000000000
     89325     13964  TIP3      OH2           -38.4868892603      -33.8672430432      -53.2367349300  TIP3      12604           0.0000000000
     89326     13964  TIP3      H1            -37.9392325221      -34.5079266006      -52.7635619531  TIP3      12604           0.0000000000
     89327     13964  TIP3      H2            -38.5314364439      -34.2372749233      -54.1320102949  TIP3      12604           0.0000000000
     89328     13965  TIP3      OH2           -33.5285234311      -32.3474514209      -53.8764317886  TIP3      12605           0.0000000000
     89329     13965  TIP3      H1            -32.8593361694      -32.9291896584      -53.4757827875  TIP3      12605           0.0000000000
     89330     13965  TIP3      H2            -34.0457059220      -33.0043552407      -54.3815273458  TIP3      12605           0.0000000000
     89331     13966  TIP3      OH2           -22.5381618780      -35.7701595816      -48.4827342358  TIP3      12606           0.0000000000
     89332     13966  TIP3      H1            -23.2073286695      -35.0610812823      -48.5812327411  TIP3      12606           0.0000000000
     89333     13966  TIP3      H2            -22.5470056970      -35.9408606968      -47.5304612895  TIP3      12606           0.0000000000
     89334     13967  TIP3      OH2           -36.4620947175      -37.2926144090      -49.8523203723  TIP3      12607           0.0000000000
     89335     13967  TIP3      H1            -36.7925370209      -36.7619276557      -50.6207206912  TIP3      12607           0.0000000000
     89336     13967  TIP3      H2            -37.2090681360      -37.0971512395      -49.2121834662  TIP3      12607           0.0000000000
     89337     13968  TIP3      OH2           -29.1053371065      -27.9410132714      -56.3247395521  TIP3      12608           0.0000000000
     89338     13968  TIP3      H1            -29.3992756542      -28.2282289002      -57.1987690866  TIP3      12608           0.0000000000
     89339     13968  TIP3      H2            -29.4101047147      -27.0141379008      -56.2717571201  TIP3      12608           0.0000000000
     89340     13969  TIP3      OH2           -33.8791314804      -29.7746285605      -49.6320619581  TIP3      12609           0.0000000000
     89341     13969  TIP3      H1            -34.5938886720      -29.1344606370      -49.4114579617  TIP3      12609           0.0000000000
     89342     13969  TIP3      H2            -33.1883329739      -29.1613071920      -49.9285393520  TIP3      12609           0.0000000000
     89343     13970  TIP3      OH2           -25.7651403186      -36.8889553037      -53.5597188468  TIP3      12610           0.0000000000
     89344     13970  TIP3      H1            -26.0003712146      -37.6607696542      -53.0360614277  TIP3      12610           0.0000000000
     89345     13970  TIP3      H2            -25.0931082282      -36.4472463487      -53.0129331219  TIP3      12610           0.0000000000
     89346     13971  TIP3      OH2           -36.8482716904      -35.5991391053      -51.8515765541  TIP3      12611           0.0000000000
     89347     13971  TIP3      H1            -36.2485389197      -34.8704979281      -51.5535943497  TIP3      12611           0.0000000000
     89348     13971  TIP3      H2            -36.3366771494      -35.9633074844      -52.6118242874  TIP3      12611           0.0000000000
     89349     13972  TIP3      OH2           -35.4748136073      -27.7712293246      -48.8344726297  TIP3      12612           0.0000000000
     89350     13972  TIP3      H1            -35.4836966557      -26.8504523119      -49.1662007247  TIP3      12612           0.0000000000
     89351     13972  TIP3      H2            -36.3576077060      -27.8344040077      -48.4069555754  TIP3      12612           0.0000000000
     89352     13973  TIP3      OH2           -39.3689197157      -28.1255158599      -58.0288126965  TIP3      12613           0.0000000000
     89353     13973  TIP3      H1            -39.6034510250      -27.8576884076      -58.9269329917  TIP3      12613           0.0000000000
     89354     13973  TIP3      H2            -39.2947229427      -27.2938590047      -57.5227199054  TIP3      12613           0.0000000000
     89355     13974  TIP3      OH2           -25.7499306166      -26.4887121248      -51.2959157437  TIP3      12614           0.0000000000
     89356     13974  TIP3      H1            -26.7148988950      -26.3766791077      -51.1457780124  TIP3      12614           0.0000000000
     89357     13974  TIP3      H2            -25.4784787311      -25.5653340327      -51.4632046601  TIP3      12614           0.0000000000
     89358     13975  TIP3      OH2           -25.4157751580      -38.1903886022      -49.8182466471  TIP3      12615           0.0000000000
     89359     13975  TIP3      H1            -26.1576067124      -37.5791135334      -49.9705691798  TIP3      12615           0.0000000000
     89360     13975  TIP3      H2            -24.7209059814      -37.7831639295      -50.3752657669  TIP3      12615           0.0000000000
     89361     13976  TIP3      OH2           -32.4669691473      -40.0394710379      -52.6178161789  TIP3      12616           0.0000000000
     89362     13976  TIP3      H1            -32.4686805402      -41.0019070840      -52.4680692956  TIP3      12616           0.0000000000
     89363     13976  TIP3      H2            -33.2810055263      -39.7840049332      -52.1817425373  TIP3      12616           0.0000000000
     89364     13977  TIP3      OH2           -27.4896851088      -24.7014813458      -54.6823575768  TIP3      12617           0.0000000000
     89365     13977  TIP3      H1            -27.0634725393      -25.4196595273      -55.1933841253  TIP3      12617           0.0000000000
     89366     13977  TIP3      H2            -27.0597884600      -23.9108692495      -55.0715470075  TIP3      12617           0.0000000000
     89367     13978  TIP3      OH2           -26.2788763525      -26.7736998351      -56.1719999042  TIP3      12618           0.0000000000
     89368     13978  TIP3      H1            -26.5784067264      -27.4640655919      -56.7860268387  TIP3      12618           0.0000000000
     89369     13978  TIP3      H2            -26.2498286627      -27.2660145692      -55.3308310363  TIP3      12618           0.0000000000
     89370     13979  TIP3      OH2           -24.6238658204      -28.1859451631      -47.6629960372  TIP3      12619           0.0000000000
     89371     13979  TIP3      H1            -24.5350905005      -28.8075297257      -48.4148933930  TIP3      12619           0.0000000000
     89372     13979  TIP3      H2            -24.4569733852      -27.3241526784      -48.0841173875  TIP3      12619           0.0000000000
     89373     13980  TIP3      OH2           -30.1723272481      -31.2836687110      -57.9245061050  TIP3      12620           0.0000000000
     89374     13980  TIP3      H1            -30.8788152316      -30.7145591550      -58.2976728434  TIP3      12620           0.0000000000
     89375     13980  TIP3      H2            -29.4656993526      -31.1941850251      -58.5895140149  TIP3      12620           0.0000000000
     89376     13981  TIP3      OH2           -30.1081775298      -32.7668018150      -60.8297087173  TIP3      12621           0.0000000000
     89377     13981  TIP3      H1            -29.3728546236      -32.7508887543      -60.1982833600  TIP3      12621           0.0000000000
     89378     13981  TIP3      H2            -29.7901594794      -33.4016552738      -61.4779167890  TIP3      12621           0.0000000000
     89379     13982  TIP3      OH2           -22.7726926261      -31.8924622566      -49.6395037994  TIP3      12622           0.0000000000
     89380     13982  TIP3      H1            -23.4231276283      -31.1613637227      -49.5704915366  TIP3      12622           0.0000000000
     89381     13982  TIP3      H2            -22.2839789143      -31.6383126674      -50.4458955768  TIP3      12622           0.0000000000
     89382     13983  TIP3      OH2           -26.7262133851      -31.0944671437      -56.9934146311  TIP3      12623           0.0000000000
     89383     13983  TIP3      H1            -27.4600679250      -30.8308170925      -56.3817124078  TIP3      12623           0.0000000000
     89384     13983  TIP3      H2            -26.2496437730      -31.7455983501      -56.4451705674  TIP3      12623           0.0000000000
     89385     13984  TIP3      OH2           -26.8288626735      -32.9226757816      -47.8843197788  TIP3      12624           0.0000000000
     89386     13984  TIP3      H1            -26.7949224935      -32.1196930283      -47.3534256336  TIP3      12624           0.0000000000
     89387     13984  TIP3      H2            -27.4380564567      -32.6104588313      -48.5830384274  TIP3      12624           0.0000000000
     89388     13985  TIP3      OH2           -35.1040378137      -30.4097237335      -55.0725478980  TIP3      12625           0.0000000000
     89389     13985  TIP3      H1            -35.4499749508      -30.8062091131      -55.9087159348  TIP3      12625           0.0000000000
     89390     13985  TIP3      H2            -34.4977101080      -31.1087143024      -54.7396742717  TIP3      12625           0.0000000000
     89391     13986  TIP3      OH2           -33.8017077116      -27.0248232271      -52.3888457255  TIP3      12626           0.0000000000
     89392     13986  TIP3      H1            -33.8047173021      -27.5528786161      -53.1910547120  TIP3      12626           0.0000000000
     89393     13986  TIP3      H2            -33.0162405919      -27.3672593337      -51.9263830533  TIP3      12626           0.0000000000
     89394     13987  TIP3      OH2           -34.7718754858      -31.6865432641      -51.4068400378  TIP3      12627           0.0000000000
     89395     13987  TIP3      H1            -34.2264540216      -31.5694187015      -52.2107014170  TIP3      12627           0.0000000000
     89396     13987  TIP3      H2            -34.4188623187      -30.9981877623      -50.8012546556  TIP3      12627           0.0000000000
     89397     13988  TIP3      OH2           -28.3457585868      -26.1081741348      -50.6854690916  TIP3      12628           0.0000000000
     89398     13988  TIP3      H1            -28.6577282278      -25.4586551296      -50.0515721532  TIP3      12628           0.0000000000
     89399     13988  TIP3      H2            -28.6241944731      -26.9614793457      -50.2733609781  TIP3      12628           0.0000000000
     89400     13989  TIP3      OH2           -33.8804265855      -27.2954257208      -46.6372483177  TIP3      12629           0.0000000000
     89401     13989  TIP3      H1            -34.2009777388      -26.4504889331      -46.2719059280  TIP3      12629           0.0000000000
     89402     13989  TIP3      H2            -34.4773359698      -27.4167768353      -47.4066424167  TIP3      12629           0.0000000000
     89403     13990  TIP3      OH2           -27.8320496351      -31.9031977121      -59.3234280555  TIP3      12630           0.0000000000
     89404     13990  TIP3      H1            -27.3073730056      -31.6979037655      -58.5063522117  TIP3      12630           0.0000000000
     89405     13990  TIP3      H2            -27.4570470263      -31.3346435785      -60.0005936159  TIP3      12630           0.0000000000
     89406     13991  TIP3      OH2           -36.9072936813      -31.0690053352      -47.5183316284  TIP3      12631           0.0000000000
     89407     13991  TIP3      H1            -36.8446807945      -30.4058636466      -46.8340248659  TIP3      12631           0.0000000000
     89408     13991  TIP3      H2            -37.8244518199      -30.9702170369      -47.8112913174  TIP3      12631           0.0000000000
     89409     13992  TIP3      OH2           -30.1015098660      -25.1240101597      -55.8957242753  TIP3      12632           0.0000000000
     89410     13992  TIP3      H1            -29.7003876649      -24.8815670573      -55.0449718755  TIP3      12632           0.0000000000
     89411     13992  TIP3      H2            -30.7075011329      -24.3993628302      -56.0443664530  TIP3      12632           0.0000000000
     89412     13993  TIP3      OH2           -35.6360797345      -25.2769487764      -45.8127588927  TIP3      12633           0.0000000000
     89413     13993  TIP3      H1            -35.5776089293      -25.2672864817      -46.8096311040  TIP3      12633           0.0000000000
     89414     13993  TIP3      H2            -36.5911638516      -25.2974531537      -45.7244036738  TIP3      12633           0.0000000000
     89415     13994  TIP3      OH2           -24.1303774226      -40.1552398144      -59.3851079131  TIP3      12634           0.0000000000
     89416     13994  TIP3      H1            -25.0739637978      -40.0083667761      -59.1509302322  TIP3      12634           0.0000000000
     89417     13994  TIP3      H2            -23.8952563654      -39.3334222424      -59.8592007397  TIP3      12634           0.0000000000
     89418     13995  TIP3      OH2           -36.1366870700      -31.3966058910      -57.4615122767  TIP3      12635           0.0000000000
     89419     13995  TIP3      H1            -36.4192687985      -30.6129711492      -57.9764565080  TIP3      12635           0.0000000000
     89420     13995  TIP3      H2            -36.8128570588      -32.0479934415      -57.6737296953  TIP3      12635           0.0000000000
     89421     13996  TIP3      OH2           -23.0175104899      -25.8019733806      -61.0283327456  TIP3      12636           0.0000000000
     89422     13996  TIP3      H1            -22.8827638525      -24.8401519561      -60.9294627334  TIP3      12636           0.0000000000
     89423     13996  TIP3      H2            -22.0945866144      -26.0946409175      -61.1277812625  TIP3      12636           0.0000000000
     89424     13997  TIP3      OH2           -39.6244541487      -29.2078543752      -48.7368610244  TIP3      12637           0.0000000000
     89425     13997  TIP3      H1            -40.3927057999      -28.9909072260      -49.3194915115  TIP3      12637           0.0000000000
     89426     13997  TIP3      H2            -39.9972466233      -30.0013554895      -48.3206712782  TIP3      12637           0.0000000000
     89427     13998  TIP3      OH2           -40.2377456219      -26.1592957237      -51.8394136318  TIP3      12638           0.0000000000
     89428     13998  TIP3      H1            -39.2991926859      -26.4018710016      -51.7689802317  TIP3      12638           0.0000000000
     89429     13998  TIP3      H2            -40.3229983281      -25.4269603055      -51.2173441680  TIP3      12638           0.0000000000
     89430     13999  TIP3      OH2           -21.9680425467      -25.5486137032      -46.6401138311  TIP3      12639           0.0000000000
     89431     13999  TIP3      H1            -22.0322062760      -26.4468438980      -46.2923253127  TIP3      12639           0.0000000000
     89432     13999  TIP3      H2            -22.6486552877      -25.1637018323      -46.0589972281  TIP3      12639           0.0000000000
     89433     14000  TIP3      OH2           -31.0773493401      -26.0132539727      -47.2096264736  TIP3      12640           0.0000000000
     89434     14000  TIP3      H1            -31.0231910184      -25.1514640957      -46.7297429563  TIP3      12640           0.0000000000
     89435     14000  TIP3      H2            -31.9808011255      -26.3233685586      -47.0190826496  TIP3      12640           0.0000000000
     89436     14001  TIP3      OH2           -30.6361710069      -22.1699700893      -57.3033106930  TIP3      12641           0.0000000000
     89437     14001  TIP3      H1            -30.4657406449      -22.0783057525      -58.2246356994  TIP3      12641           0.0000000000
     89438     14001  TIP3      H2            -30.6086512586      -21.2101589359      -57.0640028343  TIP3      12641           0.0000000000
     89439     14002  TIP3      OH2           -37.0273705668      -23.3558303122      -55.6607765870  TIP3      12642           0.0000000000
     89440     14002  TIP3      H1            -36.8623813353      -23.7680888604      -54.7659718313  TIP3      12642           0.0000000000
     89441     14002  TIP3      H2            -37.8702214761      -23.7885975534      -55.8525838356  TIP3      12642           0.0000000000
     89442     14003  TIP3      OH2           -27.6705951897      -23.0634910988      -60.4518092518  TIP3      12643           0.0000000000
     89443     14003  TIP3      H1            -27.1476985808      -23.7883701776      -60.8778378640  TIP3      12643           0.0000000000
     89444     14003  TIP3      H2            -27.5072863293      -23.2959487217      -59.5171505420  TIP3      12643           0.0000000000
     89445     14004  TIP3      OH2           -27.9137140238      -23.1296792773      -57.6911506997  TIP3      12644           0.0000000000
     89446     14004  TIP3      H1            -28.8313594925      -23.0220302403      -57.4043522302  TIP3      12644           0.0000000000
     89447     14004  TIP3      H2            -27.6196634289      -23.8374552622      -57.0939818431  TIP3      12644           0.0000000000
     89448     14005  TIP3      OH2           -37.7999243167      -27.6242257012      -47.5644847186  TIP3      12645           0.0000000000
     89449     14005  TIP3      H1            -37.6095526909      -28.0223324259      -46.7203867333  TIP3      12645           0.0000000000
     89450     14005  TIP3      H2            -38.6334572760      -28.0452461671      -47.8940231671  TIP3      12645           0.0000000000
     89451     14006  TIP3      OH2           -35.1229280885      -39.2667565083      -51.8862728322  TIP3      12646           0.0000000000
     89452     14006  TIP3      H1            -36.0578483770      -39.3253573503      -52.2112882355  TIP3      12646           0.0000000000
     89453     14006  TIP3      H2            -35.1625458633      -38.3284948595      -51.6617819578  TIP3      12646           0.0000000000
     89454     14007  TIP3      OH2           -30.4087869413      -39.0244793019      -48.1977284768  TIP3      12647           0.0000000000
     89455     14007  TIP3      H1            -29.9213113756      -39.7034101087      -47.7225085362  TIP3      12647           0.0000000000
     89456     14007  TIP3      H2            -31.2791426489      -39.4540043267      -48.3154793292  TIP3      12647           0.0000000000
     89457     14008  TIP3      OH2           -27.3086646998      -35.7057574310      -47.4750379836  TIP3      12648           0.0000000000
     89458     14008  TIP3      H1            -27.6166213711      -35.8472254982      -46.5602152003  TIP3      12648           0.0000000000
     89459     14008  TIP3      H2            -27.2824609015      -34.7416096414      -47.6126258559  TIP3      12648           0.0000000000
     89460     14009  TIP3      OH2           -30.8025369364      -36.9628453190      -60.9405195933  TIP3      12649           0.0000000000
     89461     14009  TIP3      H1            -31.1067563287      -36.9944622728      -60.0160126086  TIP3      12649           0.0000000000
     89462     14009  TIP3      H2            -31.0772236915      -37.8388732699      -61.2258416863  TIP3      12649           0.0000000000
     89463     14010  TIP3      OH2           -35.0242969709      -34.2225052737      -50.4435407348  TIP3      12650           0.0000000000
     89464     14010  TIP3      H1            -35.7299351321      -34.1954411712      -49.7685646630  TIP3      12650           0.0000000000
     89465     14010  TIP3      H2            -35.0320186941      -33.2928880734      -50.7805449721  TIP3      12650           0.0000000000
     89466     14011  TIP3      OH2           -35.0102642968      -34.0757819211      -55.5332157439  TIP3      12651           0.0000000000
     89467     14011  TIP3      H1            -35.9563486647      -34.3178218726      -55.6843863132  TIP3      12651           0.0000000000
     89468     14011  TIP3      H2            -34.6336716200      -34.3747242417      -56.3843256252  TIP3      12651           0.0000000000
     89469     14012  TIP3      OH2           -29.5047448663      -33.5908680845      -56.7951634907  TIP3      12652           0.0000000000
     89470     14012  TIP3      H1            -29.9076874789      -32.7570392763      -57.1281770703  TIP3      12652           0.0000000000
     89471     14012  TIP3      H2            -28.8180482186      -33.7551758824      -57.4627270268  TIP3      12652           0.0000000000
     89472     14013  TIP3      OH2           -28.4674010004      -34.0980282964      -53.9373259998  TIP3      12653           0.0000000000
     89473     14013  TIP3      H1            -28.7453105594      -33.5341144056      -54.6801131631  TIP3      12653           0.0000000000
     89474     14013  TIP3      H2            -28.3693213562      -34.9465940880      -54.4095862508  TIP3      12653           0.0000000000
     89475     14014  TIP3      OH2           -37.3542490843      -33.9425618377      -48.7142874006  TIP3      12654           0.0000000000
     89476     14014  TIP3      H1            -37.2913690436      -33.5545484236      -47.8228173342  TIP3      12654           0.0000000000
     89477     14014  TIP3      H2            -37.8142223190      -34.7673870049      -48.5174353244  TIP3      12654           0.0000000000
     89478     14015  TIP3      OH2           -40.0346947167      -36.7335373939      -55.2620960949  TIP3      12655           0.0000000000
     89479     14015  TIP3      H1            -39.9068266528      -36.9418173214      -54.2984854464  TIP3      12655           0.0000000000
     89480     14015  TIP3      H2            -39.8782403128      -37.5825020720      -55.7093521753  TIP3      12655           0.0000000000
     89481     14016  TIP3      OH2           -39.2732079614      -35.9250908587      -59.2249210181  TIP3      12656           0.0000000000
     89482     14016  TIP3      H1            -38.8825624295      -35.4767350289      -59.9962378050  TIP3      12656           0.0000000000
     89483     14016  TIP3      H2            -40.0636502865      -35.3865721427      -59.1066536175  TIP3      12656           0.0000000000
     89484     14017  TIP3      OH2           -29.2358418814      -32.5159946414      -49.3318293995  TIP3      12657           0.0000000000
     89485     14017  TIP3      H1            -28.8887975149      -33.1786922830      -49.9643467905  TIP3      12657           0.0000000000
     89486     14017  TIP3      H2            -29.7421076594      -33.0651059942      -48.7064620336  TIP3      12657           0.0000000000
     89487     14018  TIP3      OH2           -32.4658544193      -36.5393194985      -54.5459683805  TIP3      12658           0.0000000000
     89488     14018  TIP3      H1            -33.3944452917      -36.5144720005      -54.2532513953  TIP3      12658           0.0000000000
     89489     14018  TIP3      H2            -31.9641411951      -36.6976808649      -53.7330553895  TIP3      12658           0.0000000000
     89490     14019  TIP3      OH2           -37.6165125727      -34.9775225499      -55.7126410781  TIP3      12659           0.0000000000
     89491     14019  TIP3      H1            -38.4978945467      -34.8255385114      -56.0898958116  TIP3      12659           0.0000000000
     89492     14019  TIP3      H2            -37.3710794470      -35.8505330388      -56.0727517257  TIP3      12659           0.0000000000
     89493     14020  TIP3      OH2           -34.0173775826      -34.9454009056      -58.0677660669  TIP3      12660           0.0000000000
     89494     14020  TIP3      H1            -33.0665293010      -34.8195500916      -57.8755671703  TIP3      12660           0.0000000000
     89495     14020  TIP3      H2            -34.2643654588      -34.2561518346      -58.7149007413  TIP3      12660           0.0000000000
     89496     14021  TIP3      OH2           -28.0571730290      -37.3633133432      -51.2908983128  TIP3      12661           0.0000000000
     89497     14021  TIP3      H1            -28.7559898578      -37.2573200274      -50.6141853036  TIP3      12661           0.0000000000
     89498     14021  TIP3      H2            -28.5618368350      -37.5669037811      -52.0910234084  TIP3      12661           0.0000000000
     89499     14022  TIP3      OH2           -35.2914283400      -33.7863017444      -60.4564299124  TIP3      12662           0.0000000000
     89500     14022  TIP3      H1            -35.8451791512      -34.0994854603      -61.1838071641  TIP3      12662           0.0000000000
     89501     14022  TIP3      H2            -34.4889474478      -33.5247584115      -60.9259787123  TIP3      12662           0.0000000000
     89502     14023  TIP3      OH2           -31.1900752989      -33.7788120387      -52.6561377449  TIP3      12663           0.0000000000
     89503     14023  TIP3      H1            -30.5918875741      -34.3141866159      -53.1901934481  TIP3      12663           0.0000000000
     89504     14023  TIP3      H2            -31.3211600772      -34.3222124730      -51.8697190377  TIP3      12663           0.0000000000
     89505     14024  TIP3      OH2           -36.1836287587      -37.6258887480      -56.2180861320  TIP3      12664           0.0000000000
     89506     14024  TIP3      H1            -36.4796754490      -38.5490260040      -56.2286271269  TIP3      12664           0.0000000000
     89507     14024  TIP3      H2            -35.3926393260      -37.6891017131      -56.7711068973  TIP3      12664           0.0000000000
     89508     14025  TIP3      OH2           -32.5720140843      -35.5146992534      -50.2104491743  TIP3      12665           0.0000000000
     89509     14025  TIP3      H1            -33.3508630296      -34.9208270569      -50.1775355481  TIP3      12665           0.0000000000
     89510     14025  TIP3      H2            -31.9742054484      -35.1081347645      -49.5425505052  TIP3      12665           0.0000000000
     89511     14026  TIP3      OH2           -31.9457156256      -29.2540352659      -58.5085651165  TIP3      12666           0.0000000000
     89512     14026  TIP3      H1            -32.7494658945      -29.6989316813      -58.8620747265  TIP3      12666           0.0000000000
     89513     14026  TIP3      H2            -32.1815849957      -29.1182746981      -57.5721816175  TIP3      12666           0.0000000000
     89514     14027  TIP3      OH2           -24.7609306260      -30.0575257382      -49.7312458568  TIP3      12667           0.0000000000
     89515     14027  TIP3      H1            -24.2079413840      -29.5492581833      -50.3530622394  TIP3      12667           0.0000000000
     89516     14027  TIP3      H2            -25.6261759553      -29.9840266384      -50.1907507653  TIP3      12667           0.0000000000
     89517     14028  TIP3      OH2           -28.0969239081      -36.4196739406      -60.3799573919  TIP3      12668           0.0000000000
     89518     14028  TIP3      H1            -29.0445930413      -36.2610957254      -60.5319042625  TIP3      12668           0.0000000000
     89519     14028  TIP3      H2            -27.7891149149      -35.5553266615      -60.0526481879  TIP3      12668           0.0000000000
     89520     14029  TIP3      OH2           -30.4586320540      -28.9451627677      -47.3504719466  TIP3      12669           0.0000000000
     89521     14029  TIP3      H1            -30.8076337996      -29.3841360101      -46.5695375339  TIP3      12669           0.0000000000
     89522     14029  TIP3      H2            -30.7094108297      -28.0220557845      -47.2199276071  TIP3      12669           0.0000000000
     89523     14030  TIP3      OH2           -27.3819249646      -34.4983668366      -58.6956367101  TIP3      12670           0.0000000000
     89524     14030  TIP3      H1            -26.4848592682      -34.6280935451      -58.3362237759  TIP3      12670           0.0000000000
     89525     14030  TIP3      H2            -27.3058234726      -33.6894320409      -59.2216179081  TIP3      12670           0.0000000000
     89526     14031  TIP3      OH2           -36.8734405370      -29.8587155505      -52.7488646013  TIP3      12671           0.0000000000
     89527     14031  TIP3      H1            -36.1754059653      -29.9129884911      -53.4254454617  TIP3      12671           0.0000000000
     89528     14031  TIP3      H2            -36.7825257535      -30.7059654950      -52.2806603470  TIP3      12671           0.0000000000
     89529     14032  TIP3      OH2           -29.8656870667      -27.7251559586      -59.4588315282  TIP3      12672           0.0000000000
     89530     14032  TIP3      H1            -30.2442546367      -26.9010338565      -59.1190096153  TIP3      12672           0.0000000000
     89531     14032  TIP3      H2            -30.5817762297      -28.3890443323      -59.3078909907  TIP3      12672           0.0000000000
     89532     14033  TIP3      OH2           -39.8674714649      -31.4684520244      -47.4925413873  TIP3      12673           0.0000000000
     89533     14033  TIP3      H1            -39.6471013785      -31.8753302323      -46.6441423376  TIP3      12673           0.0000000000
     89534     14033  TIP3      H2            -40.4951990326      -32.0796645647      -47.9064919374  TIP3      12673           0.0000000000
     89535     14034  TIP3      OH2           -28.1962915892      -26.5340474699      -47.3553606209  TIP3      12674           0.0000000000
     89536     14034  TIP3      H1            -29.1124752348      -26.3319179315      -47.5979901949  TIP3      12674           0.0000000000
     89537     14034  TIP3      H2            -28.1828489894      -26.3026511260      -46.4227115514  TIP3      12674           0.0000000000
     89538     14035  TIP3      OH2           -22.5371756444      -34.3296001997      -58.9380529283  TIP3      12675           0.0000000000
     89539     14035  TIP3      H1            -23.0158173054      -34.6878750527      -59.6994849781  TIP3      12675           0.0000000000
     89540     14035  TIP3      H2            -22.3986714870      -33.4074312349      -59.2453037096  TIP3      12675           0.0000000000
     89541     14036  TIP3      OH2           -22.5490179989      -28.6111501221      -46.1763158672  TIP3      12676           0.0000000000
     89542     14036  TIP3      H1            -23.3915855864      -28.2469474901      -46.5539710490  TIP3      12676           0.0000000000
     89543     14036  TIP3      H2            -21.9776083912      -28.5166644927      -46.9557126086  TIP3      12676           0.0000000000
     89544     14037  TIP3      OH2           -24.1839322188      -25.5212195770      -58.5627596108  TIP3      12677           0.0000000000
     89545     14037  TIP3      H1            -24.5652708625      -26.3401345295      -58.2227749653  TIP3      12677           0.0000000000
     89546     14037  TIP3      H2            -23.8974801657      -25.7251217506      -59.4753706475  TIP3      12677           0.0000000000
     89547     14038  TIP3      OH2           -26.9923554922      -30.7147311679      -51.4536813216  TIP3      12678           0.0000000000
     89548     14038  TIP3      H1            -27.9330904840      -30.9264112188      -51.5733808195  TIP3      12678           0.0000000000
     89549     14038  TIP3      H2            -26.5586047631      -31.4700570021      -51.8898189889  TIP3      12678           0.0000000000
     89550     14039  TIP3      OH2           -34.4573116522      -26.4029829608      -55.4350369913  TIP3      12679           0.0000000000
     89551     14039  TIP3      H1            -33.9828172380      -25.5657945133      -55.5180960270  TIP3      12679           0.0000000000
     89552     14039  TIP3      H2            -35.3641207528      -26.1399952770      -55.6485574736  TIP3      12679           0.0000000000
     89553     14040  TIP3      OH2           -38.7947760626      -31.5627169512      -60.7600851481  TIP3      12680           0.0000000000
     89554     14040  TIP3      H1            -38.1313029621      -30.9316307600      -60.4290372849  TIP3      12680           0.0000000000
     89555     14040  TIP3      H2            -39.6244517693      -31.1780277759      -60.4829336066  TIP3      12680           0.0000000000
     89556     14041  TIP3      OH2           -33.0496341606      -28.7407849651      -55.8415119983  TIP3      12681           0.0000000000
     89557     14041  TIP3      H1            -33.3560575196      -27.8101082921      -55.7623459605  TIP3      12681           0.0000000000
     89558     14041  TIP3      H2            -33.7880257016      -29.2105896786      -55.3972186475  TIP3      12681           0.0000000000
     89559     14042  TIP3      OH2           -32.5871958335      -24.5436640103      -49.4383294904  TIP3      12682           0.0000000000
     89560     14042  TIP3      H1            -32.1841870911      -23.7122458046      -49.7170074984  TIP3      12682           0.0000000000
     89561     14042  TIP3      H2            -31.9843064374      -24.8593342655      -48.7590201815  TIP3      12682           0.0000000000
     89562     14043  TIP3      OH2           -34.3557917373      -23.6754075627      -56.4001704770  TIP3      12683           0.0000000000
     89563     14043  TIP3      H1            -35.3148224042      -23.6148465227      -56.1580903434  TIP3      12683           0.0000000000
     89564     14043  TIP3      H2            -34.0385589024      -22.8972590783      -55.9017713989  TIP3      12683           0.0000000000
     89565     14044  TIP3      OH2           -29.0709941044      -28.5280999532      -49.8365474108  TIP3      12684           0.0000000000
     89566     14044  TIP3      H1            -29.4074852225      -28.7127954493      -48.9366530798  TIP3      12684           0.0000000000
     89567     14044  TIP3      H2            -28.4239380991      -29.2383233847      -49.9624333142  TIP3      12684           0.0000000000
     89568     14045  TIP3      OH2           -26.7983658728      -27.5121195780      -60.6934164583  TIP3      12685           0.0000000000
     89569     14045  TIP3      H1            -26.4853498781      -27.9372273821      -59.8699917511  TIP3      12685           0.0000000000
     89570     14045  TIP3      H2            -27.7550024270      -27.6363204109      -60.6202327066  TIP3      12685           0.0000000000
     89571     14046  TIP3      OH2           -26.3488092463      -23.9466827855      -47.2814625787  TIP3      12686           0.0000000000
     89572     14046  TIP3      H1            -26.9590638118      -24.4589244565      -47.8302925228  TIP3      12686           0.0000000000
     89573     14046  TIP3      H2            -26.0655675851      -23.2590903412      -47.9217327678  TIP3      12686           0.0000000000
     89574     14047  TIP3      OH2           -22.2743761850      -23.0743149134      -60.4666349354  TIP3      12687           0.0000000000
     89575     14047  TIP3      H1            -21.5784538750      -22.4397033967      -60.7116063392  TIP3      12687           0.0000000000
     89576     14047  TIP3      H2            -22.9939882383      -22.4751745518      -60.1713130848  TIP3      12687           0.0000000000
     89577     14048  TIP3      OH2           -38.2058299449      -36.7018297198      -47.9525469404  TIP3      12688           0.0000000000
     89578     14048  TIP3      H1            -39.1115730836      -36.3493219316      -47.9551890044  TIP3      12688           0.0000000000
     89579     14048  TIP3      H2            -38.3378975376      -37.5478093329      -47.4877560601  TIP3      12688           0.0000000000
     89580     14049  TIP3      OH2           -25.9619638059      -28.8503450948      -58.4912797424  TIP3      12689           0.0000000000
     89581     14049  TIP3      H1            -26.2108227295      -29.6206408551      -57.9407420235  TIP3      12689           0.0000000000
     89582     14049  TIP3      H2            -25.0193512497      -28.7621324454      -58.2695486043  TIP3      12689           0.0000000000
     89583     14050  TIP3      OH2           -38.6419105945      -24.9479499076      -49.4621218494  TIP3      12690           0.0000000000
     89584     14050  TIP3      H1            -38.2488267338      -25.8326624731      -49.5131803419  TIP3      12690           0.0000000000
     89585     14050  TIP3      H2            -38.2687596636      -24.5949094260      -48.6388537544  TIP3      12690           0.0000000000
     89586     14051  TIP3      OH2           -33.8457889494      -26.8216176746      -59.8024391810  TIP3      12691           0.0000000000
     89587     14051  TIP3      H1            -33.5993511461      -27.3970849669      -59.0598430144  TIP3      12691           0.0000000000
     89588     14051  TIP3      H2            -33.7782679018      -25.9232438856      -59.4416282939  TIP3      12691           0.0000000000
     89589     14052  TIP3      OH2           -37.3676343456      -29.5828893787      -59.3367493019  TIP3      12692           0.0000000000
     89590     14052  TIP3      H1            -38.0277249613      -29.2024438993      -58.7154322540  TIP3      12692           0.0000000000
     89591     14052  TIP3      H2            -36.7886374170      -28.8349196902      -59.5360075985  TIP3      12692           0.0000000000
     89592     14053  TIP3      OH2           -29.4701282097      -36.8359850892      -49.0266885707  TIP3      12693           0.0000000000
     89593     14053  TIP3      H1            -28.7548865475      -36.8527073713      -48.3755653038  TIP3      12693           0.0000000000
     89594     14053  TIP3      H2            -29.8460349475      -37.7332067650      -48.8704043870  TIP3      12693           0.0000000000
     89595     14054  TIP3      OH2           -28.7038878419      -37.3664893233      -57.8683199377  TIP3      12694           0.0000000000
     89596     14054  TIP3      H1            -28.5044340843      -36.8697667003      -58.6889137067  TIP3      12694           0.0000000000
     89597     14054  TIP3      H2            -28.1486479783      -36.9059729343      -57.2228759360  TIP3      12694           0.0000000000
     89598     14055  TIP3      OH2           -30.9784462399      -25.0988583382      -58.9992562373  TIP3      12695           0.0000000000
     89599     14055  TIP3      H1            -31.9218447984      -24.8674216435      -59.0835569807  TIP3      12695           0.0000000000
     89600     14055  TIP3      H2            -30.4938350185      -24.8221311424      -59.7914949261  TIP3      12695           0.0000000000
     89601     14056  TIP3      OH2           -31.5091756196      -35.6144036516      -57.0719137142  TIP3      12696           0.0000000000
     89602     14056  TIP3      H1            -30.7219652896      -35.0340087176      -57.0427231440  TIP3      12696           0.0000000000
     89603     14056  TIP3      H2            -31.7651361615      -35.7180118112      -56.1369822775  TIP3      12696           0.0000000000
     89604     14057  TIP3      OH2           -30.8708747155      -34.5340714613      -47.9476066981  TIP3      12697           0.0000000000
     89605     14057  TIP3      H1            -30.8886195136      -34.0340722899      -47.1256697324  TIP3      12697           0.0000000000
     89606     14057  TIP3      H2            -30.3442487373      -35.3351677670      -47.7986396090  TIP3      12697           0.0000000000
     89607     14058  TIP3      OH2           -30.6177256536      -38.5480422346      -56.1458477953  TIP3      12698           0.0000000000
     89608     14058  TIP3      H1            -30.9645285091      -37.8793721868      -55.5330972063  TIP3      12698           0.0000000000
     89609     14058  TIP3      H2            -29.9628036973      -37.9948664425      -56.6274910403  TIP3      12698           0.0000000000
     89610     14059  TIP3      OH2           -33.5768823622      -24.1091092512      -59.0150586352  TIP3      12699           0.0000000000
     89611     14059  TIP3      H1            -33.6677407481      -23.3099405987      -59.5827539388  TIP3      12699           0.0000000000
     89612     14059  TIP3      H2            -33.9865775221      -23.8257986220      -58.1552539298  TIP3      12699           0.0000000000
     89613     14060  TIP3      OH2           -34.9972543897      -37.4393614000      -59.4804612266  TIP3      12700           0.0000000000
     89614     14060  TIP3      H1            -35.0543189140      -36.5323408006      -59.1286971805  TIP3      12700           0.0000000000
     89615     14060  TIP3      H2            -34.0912364507      -37.6696786714      -59.1947178986  TIP3      12700           0.0000000000
     89616     14061  TIP3      OH2           -24.7760180314      -36.6465822763      -47.0068949141  TIP3      12701           0.0000000000
     89617     14061  TIP3      H1            -25.7093355306      -36.4017757535      -47.1555374595  TIP3      12701           0.0000000000
     89618     14061  TIP3      H2            -24.4762404775      -36.7416556825      -47.9236464700  TIP3      12701           0.0000000000
     89619     14062  TIP3      OH2           -26.1539214616      -32.9174097241      -53.0183473285  TIP3      12702           0.0000000000
     89620     14062  TIP3      H1            -26.9780415933      -33.3607530678      -53.2968052514  TIP3      12702           0.0000000000
     89621     14062  TIP3      H2            -25.6784380150      -33.6063744439      -52.5019563519  TIP3      12702           0.0000000000
     89622     14063  TIP3      OH2           -36.7452458477      -26.9834650917      -60.4399954174  TIP3      12703           0.0000000000
     89623     14063  TIP3      H1            -36.1025684363      -26.3528012613      -60.1072576867  TIP3      12703           0.0000000000
     89624     14063  TIP3      H2            -36.2252992282      -27.4451747764      -61.1073861749  TIP3      12703           0.0000000000
     89625     14064  TIP3      OH2           -25.0939656696      -23.6626820945      -51.3670852129  TIP3      12704           0.0000000000
     89626     14064  TIP3      H1            -25.1839831145      -22.9699061347      -52.0467941618  TIP3      12704           0.0000000000
     89627     14064  TIP3      H2            -24.1339232115      -23.5991696786      -51.1653426023  TIP3      12704           0.0000000000
     89628     14065  TIP3      OH2           -37.6294311440      -39.4206759115      -52.5787324794  TIP3      12705           0.0000000000
     89629     14065  TIP3      H1            -37.8748138797      -39.4209573166      -53.5346001023  TIP3      12705           0.0000000000
     89630     14065  TIP3      H2            -38.0445139289      -40.2724386658      -52.3313510686  TIP3      12705           0.0000000000
     89631     14066  TIP3      OH2           -38.6293508333      -25.6239306141      -56.3882301905  TIP3      12706           0.0000000000
     89632     14066  TIP3      H1            -39.4888543505      -25.1899410848      -56.4321472064  TIP3      12706           0.0000000000
     89633     14066  TIP3      H2            -38.1651286964      -25.1363104966      -57.0850309501  TIP3      12706           0.0000000000
     89634     14067  TIP3      OH2           -26.0457525707      -24.7376632747      -61.8857624890  TIP3      12707           0.0000000000
     89635     14067  TIP3      H1            -25.8003336698      -25.5681482978      -61.4341626420  TIP3      12707           0.0000000000
     89636     14067  TIP3      H2            -25.2883133666      -24.5595498425      -62.4536572039  TIP3      12707           0.0000000000
     89637     14068  TIP3      OH2           -27.1069592425      -29.3283729679      -47.5125166677  TIP3      12708           0.0000000000
     89638     14068  TIP3      H1            -26.3212744932      -28.7509676966      -47.4470726221  TIP3      12708           0.0000000000
     89639     14068  TIP3      H2            -27.8017012991      -28.6990953828      -47.2692884905  TIP3      12708           0.0000000000
     89640     14069  TIP3      OH2           -33.9455734175      -30.8120600809      -59.6601675442  TIP3      12709           0.0000000000
     89641     14069  TIP3      H1            -34.4679155782      -31.3458570711      -59.0447555003  TIP3      12709           0.0000000000
     89642     14069  TIP3      H2            -33.6652546426      -31.4881387520      -60.3213441053  TIP3      12709           0.0000000000
     89643     14070  TIP3      OH2           -34.7227414112      -33.0282970325      -47.4182847678  TIP3      12710           0.0000000000
     89644     14070  TIP3      H1            -35.2880634449      -32.2976554206      -47.1205175593  TIP3      12710           0.0000000000
     89645     14070  TIP3      H2            -34.3108806596      -32.6479001886      -48.2100186308  TIP3      12710           0.0000000000
     89646     14071  TIP3      OH2           -32.9145582314      -32.6213662932      -61.4687290963  TIP3      12711           0.0000000000
     89647     14071  TIP3      H1            -33.0103681393      -32.7647225532      -62.4201716235  TIP3      12711           0.0000000000
     89648     14071  TIP3      H2            -31.9378568693      -32.5094077984      -61.3688852613  TIP3      12711           0.0000000000
     89649     14072  TIP3      OH2           -34.3998401215      -35.6390669309      -46.3290306062  TIP3      12712           0.0000000000
     89650     14072  TIP3      H1            -34.1742673160      -36.3382034871      -46.9477799467  TIP3      12712           0.0000000000
     89651     14072  TIP3      H2            -34.3498251161      -34.8161033148      -46.8544622043  TIP3      12712           0.0000000000
     89652     14073  TIP3      OH2           -33.8870630122      -37.2705121648      -48.7668157169  TIP3      12713           0.0000000000
     89653     14073  TIP3      H1            -33.3280158337      -36.7202789759      -49.3818139397  TIP3      12713           0.0000000000
     89654     14073  TIP3      H2            -34.7940481907      -37.0639555254      -49.0685367266  TIP3      12713           0.0000000000
     89655     14074  TIP3      OH2           -32.3479499909      -31.8094002772      -48.5413694782  TIP3      12714           0.0000000000
     89656     14074  TIP3      H1            -31.5900971265      -31.9395025917      -49.1189150978  TIP3      12714           0.0000000000
     89657     14074  TIP3      H2            -32.7194137614      -30.9592566898      -48.8391439210  TIP3      12714           0.0000000000
     89658     14075  TIP3      OH2           -33.1388258978      -39.7581330601      -48.3912753343  TIP3      12715           0.0000000000
     89659     14075  TIP3      H1            -33.2441489971      -38.7835317751      -48.4131294419  TIP3      12715           0.0000000000
     89660     14075  TIP3      H2            -33.8941235437      -40.2030820664      -48.7496675374  TIP3      12715           0.0000000000
     89661     14076  TIP3      OH2           -32.9965161308      -21.8943670780      -60.4414381132  TIP3      12716           0.0000000000
     89662     14076  TIP3      H1            -32.0542723611      -21.6718107672      -60.4890080594  TIP3      12716           0.0000000000
     89663     14076  TIP3      H2            -33.3011283369      -21.2611293062      -61.1026384828  TIP3      12716           0.0000000000
     89664     14077  TIP3      OH2           -39.4692962593      -27.3472310013      -60.9424661829  TIP3      12717           0.0000000000
     89665     14077  TIP3      H1            -38.5243261577      -27.2276373946      -60.7132476499  TIP3      12717           0.0000000000
     89666     14077  TIP3      H2            -39.4010367482      -27.9504323012      -61.6811212796  TIP3      12717           0.0000000000
     89667     14078  TIP3      OH2            40.7104450002      -21.8736323714      -56.0099424594  TIP3      12718           0.0000000000
     89668     14078  TIP3      H1             39.9594536685      -22.3751999041      -56.3631593708  TIP3      12718           0.0000000000
     89669     14078  TIP3      H2             40.9696213614      -22.5054251064      -55.2961743188  TIP3      12718           0.0000000000
     89670     14079  TIP3      OH2           -39.9050261533      -23.7757934181      -54.1261468647  TIP3      12719           0.0000000000
     89671     14079  TIP3      H1            -40.2112251991      -24.6819442159      -53.9386345937  TIP3      12719           0.0000000000
     89672     14079  TIP3      H2            -39.6247890092      -23.4611637447      -53.2376022503  TIP3      12719           0.0000000000
     89673     14080  TIP3      OH2           -22.3730300832      -23.0206337582      -51.1441780762  TIP3      12720           0.0000000000
     89674     14080  TIP3      H1            -22.3469248980      -22.8546076893      -50.1861216791  TIP3      12720           0.0000000000
     89675     14080  TIP3      H2            -21.6636874105      -22.4429049252      -51.4405163432  TIP3      12720           0.0000000000
     89676     14081  TIP3      OH2           -22.7658726970      -23.4197812569      -48.2688901635  TIP3      12721           0.0000000000
     89677     14081  TIP3      H1            -23.2565247670      -24.2009978363      -48.5860590691  TIP3      12721           0.0000000000
     89678     14081  TIP3      H2            -22.2687822560      -23.8499961807      -47.5461122852  TIP3      12721           0.0000000000
     89679     14082  TIP3      OH2           -23.0203048938      -29.3902863225      -58.1118711888  TIP3      12722           0.0000000000
     89680     14082  TIP3      H1            -22.1774764161      -28.9634612654      -57.8898425859  TIP3      12722           0.0000000000
     89681     14082  TIP3      H2            -23.0465704660      -30.0828379408      -57.4152790336  TIP3      12722           0.0000000000
     89682     14083  TIP3      OH2           -22.6755301494      -31.2973364578      -56.2342102239  TIP3      12723           0.0000000000
     89683     14083  TIP3      H1            -23.4241822608      -31.7943248431      -55.8326040105  TIP3      12723           0.0000000000
     89684     14083  TIP3      H2            -22.0794887420      -31.1564660247      -55.4708041048  TIP3      12723           0.0000000000
     89685     14084  TIP3      OH2           -22.9285463550      -28.6166318231      -51.2693200436  TIP3      12724           0.0000000000
     89686     14084  TIP3      H1            -22.0977470803      -28.9793033032      -51.6153795792  TIP3      12724           0.0000000000
     89687     14084  TIP3      H2            -22.7786638295      -27.6552318978      -51.4135378025  TIP3      12724           0.0000000000
     89688     14085  TIP3      OH2           -24.3972352836      -25.6993312707      -48.9615424054  TIP3      12725           0.0000000000
     89689     14085  TIP3      H1            -25.0702881041      -25.3441852432      -48.3648518273  TIP3      12725           0.0000000000
     89690     14085  TIP3      H2            -24.9279613652      -26.1036049509      -49.6765861261  TIP3      12725           0.0000000000
     89691     14086  TIP3      OH2           -22.4009367324      -31.4701465349      -59.8371332875  TIP3      12726           0.0000000000
     89692     14086  TIP3      H1            -22.9657653223      -31.1238761464      -60.5342229353  TIP3      12726           0.0000000000
     89693     14086  TIP3      H2            -22.4479978853      -30.7596257616      -59.1677935199  TIP3      12726           0.0000000000
     89694     14087  TIP3      OH2           -24.8594160863      -32.8224802879      -55.6647849035  TIP3      12727           0.0000000000
     89695     14087  TIP3      H1            -25.0072720794      -33.7778844186      -55.6754851347  TIP3      12727           0.0000000000
     89696     14087  TIP3      H2            -25.1872972586      -32.5930648532      -54.7761594726  TIP3      12727           0.0000000000
     89697     14088  TIP3      OH2           -39.8874618800      -30.7728285681      -51.6209950288  TIP3      12728           0.0000000000
     89698     14088  TIP3      H1            -39.6694902767      -30.8063462362      -52.5724938455  TIP3      12728           0.0000000000
     89699     14088  TIP3      H2            -39.0046590380      -30.8765719890      -51.2161132694  TIP3      12728           0.0000000000
     89700     14089  TIP3      OH2           -23.9497501061      -30.8656864472      -45.9086178941  TIP3      12729           0.0000000000
     89701     14089  TIP3      H1            -23.3651929215      -31.6083240629      -45.8111534972  TIP3      12729           0.0000000000
     89702     14089  TIP3      H2            -23.3850592054      -30.0778740846      -46.0392760638  TIP3      12729           0.0000000000
     89703     14090  TIP3      OH2           -24.7931222080      -36.8094844549      -62.1790177749  TIP3      12730           0.0000000000
     89704     14090  TIP3      H1            -24.1686338633      -37.2017492861      -61.5426306085  TIP3      12730           0.0000000000
     89705     14090  TIP3      H2            -25.6396007485      -37.2257380382      -61.9913336347  TIP3      12730           0.0000000000
     89706     14091  TIP3      OH2           -25.1869155280      -35.2389162993      -57.1874140550  TIP3      12731           0.0000000000
     89707     14091  TIP3      H1            -24.8845850635      -36.1638648619      -57.0665835133  TIP3      12731           0.0000000000
     89708     14091  TIP3      H2            -24.3943795947      -34.8391829888      -57.5711779300  TIP3      12731           0.0000000000
     89709     14092  TIP3      OH2           -24.5455622643      -34.7097555278      -51.7643523797  TIP3      12732           0.0000000000
     89710     14092  TIP3      H1            -23.5922790360      -34.4504847657      -51.7676104985  TIP3      12732           0.0000000000
     89711     14092  TIP3      H2            -24.7464887920      -34.5554910707      -50.8241930559  TIP3      12732           0.0000000000
     89712     14093  TIP3      OH2           -24.4866679525      -33.9401697637      -48.9666493896  TIP3      12733           0.0000000000
     89713     14093  TIP3      H1            -25.3643522153      -33.6656089033      -48.6222614143  TIP3      12733           0.0000000000
     89714     14093  TIP3      H2            -24.0589706864      -33.0855435665      -49.1933323726  TIP3      12733           0.0000000000
     89715     14094  TIP3      OH2           -24.5344855739      -37.9739408254      -57.1546044408  TIP3      12734           0.0000000000
     89716     14094  TIP3      H1            -24.3479903209      -38.4007539547      -56.2902584120  TIP3      12734           0.0000000000
     89717     14094  TIP3      H2            -25.1598298022      -38.5966485688      -57.5832743410  TIP3      12734           0.0000000000
     89718     14095  TIP3      OH2           -39.0798895163      -37.1566489789      -52.6054101790  TIP3      12735           0.0000000000
     89719     14095  TIP3      H1            -38.6110382953      -37.9704868947      -52.3267652042  TIP3      12735           0.0000000000
     89720     14095  TIP3      H2            -38.5402262808      -36.4604326895      -52.2041347451  TIP3      12735           0.0000000000
     89721     14096  TIP3      OH2           -40.7919992378      -33.9145036255      -52.1900013074  TIP3      12736           0.0000000000
     89722     14096  TIP3      H1            -40.0311217835      -34.4413256811      -52.4918381089  TIP3      12736           0.0000000000
     89723     14096  TIP3      H2            -40.2626525600      -33.4124174889      -51.5333113147  TIP3      12736           0.0000000000
     89724     14097  TIP3      OH2           -22.6760675751      -37.9005136516      -60.5496625944  TIP3      12737           0.0000000000
     89725     14097  TIP3      H1            -22.2895002363      -38.6120471696      -61.0876771345  TIP3      12737           0.0000000000
     89726     14097  TIP3      H2            -21.9714099066      -37.2348970976      -60.5892705512  TIP3      12737           0.0000000000
     89727     14098  TIP3      OH2           -40.1560299394      -38.0467119349      -57.4666262673  TIP3      12738           0.0000000000
     89728     14098  TIP3      H1            -41.0931504694      -37.8604091755      -57.7292975214  TIP3      12738           0.0000000000
     89729     14098  TIP3      H2            -39.7528575210      -37.3945669583      -58.0763643972  TIP3      12738           0.0000000000
     89730     14099  TIP3      OH2           -25.6590161282      -22.9269266762      -55.5253675374  TIP3      12739           0.0000000000
     89731     14099  TIP3      H1            -24.9706835546      -23.2386073286      -56.1424511419  TIP3      12739           0.0000000000
     89732     14099  TIP3      H2            -25.1332130685      -22.4347019870      -54.8774055546  TIP3      12739           0.0000000000
     89733     14100  TIP3      OH2            41.0684501543      -39.0556619473      -49.0571474307  TIP3      12740           0.0000000000
     89734     14100  TIP3      H1             40.3990212512      -39.4886710247      -48.5109680225  TIP3      12740           0.0000000000
     89735     14100  TIP3      H2             40.5108381093      -38.5762187976      -49.6770465849  TIP3      12740           0.0000000000
     89736     14101  TIP3      OH2           -35.1550126311      -25.0921446673      -48.2571762163  TIP3      12741           0.0000000000
     89737     14101  TIP3      H1            -35.6620900688      -24.4480863826      -48.8157819838  TIP3      12741           0.0000000000
     89738     14101  TIP3      H2            -34.4215682820      -25.0310033910      -48.9082653327  TIP3      12741           0.0000000000
     89739     14102  TIP3      OH2           -30.9670481949      -23.6651086620      -45.8020131188  TIP3      12742           0.0000000000
     89740     14102  TIP3      H1            -30.7947873602      -23.9295904867      -44.8887096655  TIP3      12742           0.0000000000
     89741     14102  TIP3      H2            -30.1057097470      -23.3081002867      -46.0774860702  TIP3      12742           0.0000000000
     89742     14103  TIP3      OH2           -28.7208186208      -22.2877725268      -46.5707670643  TIP3      12743           0.0000000000
     89743     14103  TIP3      H1            -28.0050415999      -22.8987934769      -46.7954982302  TIP3      12743           0.0000000000
     89744     14103  TIP3      H2            -28.3221036932      -21.9466529997      -45.7478695286  TIP3      12743           0.0000000000
     89745     14104  TIP3      OH2           -23.7231212153      -39.6889445219      -47.4540856887  TIP3      12744           0.0000000000
     89746     14104  TIP3      H1            -24.5699710432      -39.3854134290      -47.8069406163  TIP3      12744           0.0000000000
     89747     14104  TIP3      H2            -23.5523810266      -40.5151534704      -47.8670365910  TIP3      12744           0.0000000000
     89748     14105  TIP3      OH2           -37.8791313870      -21.8007192272      -48.7458606413  TIP3      12745           0.0000000000
     89749     14105  TIP3      H1            -38.6043411643      -21.3106012119      -49.1520114457  TIP3      12745           0.0000000000
     89750     14105  TIP3      H2            -38.2214882899      -21.9622417406      -47.8525301189  TIP3      12745           0.0000000000
     89751     14106  TIP3      OH2           -35.3590249507      -21.8013125752      -49.4884287444  TIP3      12746           0.0000000000
     89752     14106  TIP3      H1            -36.2757803233      -22.0746830600      -49.2488492109  TIP3      12746           0.0000000000
     89753     14106  TIP3      H2            -35.4732754897      -21.6727778914      -50.4448379682  TIP3      12746           0.0000000000
     89754     14107  TIP3      OH2           -30.6469882678      -22.2788859950      -50.5219204794  TIP3      12747           0.0000000000
     89755     14107  TIP3      H1            -31.1846597237      -21.7612825981      -51.1425251371  TIP3      12747           0.0000000000
     89756     14107  TIP3      H2            -30.5854238482      -21.6686619705      -49.7615584252  TIP3      12747           0.0000000000
     89757     14108  TIP3      OH2           -28.3799340901      -23.4872714281      -49.5137270564  TIP3      12748           0.0000000000
     89758     14108  TIP3      H1            -29.2538408059      -23.2120289533      -49.8402531107  TIP3      12748           0.0000000000
     89759     14108  TIP3      H2            -27.9372492334      -22.6255001828      -49.5767963163  TIP3      12748           0.0000000000
     89760     14109  TIP3      OH2           -25.8177306672      -21.8934748202      -49.2341257589  TIP3      12749           0.0000000000
     89761     14109  TIP3      H1            -25.8882260164      -20.9398699353      -49.4726990853  TIP3      12749           0.0000000000
     89762     14109  TIP3      H2            -25.6096961386      -22.2683968766      -50.1116830769  TIP3      12749           0.0000000000
     89763     14110  TIP3      OH2           -38.4617231402      -23.1777404548      -51.8354927883  TIP3      12750           0.0000000000
     89764     14110  TIP3      H1            -38.4268711694      -23.5649976789      -50.9375103605  TIP3      12750           0.0000000000
     89765     14110  TIP3      H2            -37.5915608963      -23.4856904451      -52.1596395630  TIP3      12750           0.0000000000
     89766     14111  TIP3      OH2           -36.3378401854      -24.5103127617      -53.4716959029  TIP3      12751           0.0000000000
     89767     14111  TIP3      H1            -36.5464282697      -25.3146245503      -52.9529144171  TIP3      12751           0.0000000000
     89768     14111  TIP3      H2            -35.6684298844      -24.2551200672      -52.7689262471  TIP3      12751           0.0000000000
     89769     14112  TIP3      OH2           -33.3791750859      -23.8841145083      -52.4259463276  TIP3      12752           0.0000000000
     89770     14112  TIP3      H1            -33.5852662217      -24.8201728074      -52.6009392330  TIP3      12752           0.0000000000
     89771     14112  TIP3      H2            -33.7371823226      -23.9129558145      -51.5081675533  TIP3      12752           0.0000000000
     89772     14113  TIP3      OH2           -30.3140749556      -38.2589604958      -53.1129537857  TIP3      12753           0.0000000000
     89773     14113  TIP3      H1            -30.9325156053      -38.9627185296      -52.8603110673  TIP3      12753           0.0000000000
     89774     14113  TIP3      H2            -29.7093301193      -38.7697789470      -53.6733331844  TIP3      12753           0.0000000000
     89775     14114  TIP3      OH2           -25.3054942682      -40.2385745181      -53.4951630966  TIP3      12754           0.0000000000
     89776     14114  TIP3      H1            -24.6020722814      -39.5804920310      -53.6669073654  TIP3      12754           0.0000000000
     89777     14114  TIP3      H2            -26.1278986263      -39.7552147794      -53.3337868342  TIP3      12754           0.0000000000
     89778     14115  TIP3      OH2           -23.4184370181      -38.9484299817      -54.7912105014  TIP3      12755           0.0000000000
     89779     14115  TIP3      H1            -22.8068320333      -39.5833934411      -55.1976622880  TIP3      12755           0.0000000000
     89780     14115  TIP3      H2            -22.9185799818      -38.1075260312      -54.7148812906  TIP3      12755           0.0000000000
     89781     14116  TIP3      OH2           -38.0755620822      -39.2203446402      -55.1601292637  TIP3      12756           0.0000000000
     89782     14116  TIP3      H1            -38.7012183451      -39.6521733537      -55.7397424704  TIP3      12756           0.0000000000
     89783     14116  TIP3      H2            -37.4721257988      -40.0116747219      -55.1284362715  TIP3      12756           0.0000000000
     89784     14117  TIP3      OH2           -39.1786590482      -39.7052354447      -59.5689218724  TIP3      12757           0.0000000000
     89785     14117  TIP3      H1            -38.6343571172      -39.1173379120      -60.1101569049  TIP3      12757           0.0000000000
     89786     14117  TIP3      H2            -39.7683959235      -39.1950521822      -59.0200626197  TIP3      12757           0.0000000000
     89787     14118  TIP3      OH2           -33.4147863458      -39.7000308911      -55.4794919012  TIP3      12758           0.0000000000
     89788     14118  TIP3      H1            -32.5058101303      -39.3714931291      -55.5353231929  TIP3      12758           0.0000000000
     89789     14118  TIP3      H2            -33.4360519096      -39.9712465838      -54.5675132378  TIP3      12758           0.0000000000
     89790     14119  TIP3      OH2           -27.8739953917      -39.7060258841      -53.8747131259  TIP3      12759           0.0000000000
     89791     14119  TIP3      H1            -27.7389409050      -39.6443190485      -54.8243384790  TIP3      12759           0.0000000000
     89792     14119  TIP3      H2            -28.0629895703      -40.6553915779      -53.7626324210  TIP3      12759           0.0000000000
     89793     14120  TIP3      OH2           -26.5320182416      -39.6179468640      -58.3973012793  TIP3      12760           0.0000000000
     89794     14120  TIP3      H1            -27.2917201010      -39.0289420335      -58.3825952397  TIP3      12760           0.0000000000
     89795     14120  TIP3      H2            -26.8380327510      -40.4491572087      -57.9966750874  TIP3      12760           0.0000000000
     89796     14121  TIP3      OH2           -39.2627745936      -23.9490496778      -58.5240468704  TIP3      12761           0.0000000000
     89797     14121  TIP3      H1            -39.8672398659      -23.9479945168      -59.2714648809  TIP3      12761           0.0000000000
     89798     14121  TIP3      H2            -39.1649927122      -22.9991353266      -58.3838763353  TIP3      12761           0.0000000000
     89799     14122  TIP3      OH2           -37.3328471482      -38.0154436652      -61.0402994151  TIP3      12762           0.0000000000
     89800     14122  TIP3      H1            -36.7733360668      -38.5853790265      -61.5679411308  TIP3      12762           0.0000000000
     89801     14122  TIP3      H2            -36.6464149392      -37.6437757850      -60.4585140759  TIP3      12762           0.0000000000
     89802     14123  TIP3      OH2           -32.3193111529      -37.7259592792      -58.6202628913  TIP3      12763           0.0000000000
     89803     14123  TIP3      H1            -32.0106543600      -38.2883398582      -57.8874103285  TIP3      12763           0.0000000000
     89804     14123  TIP3      H2            -32.2377086153      -36.8587244356      -58.1664286085  TIP3      12763           0.0000000000
     89805     14124  TIP3      OH2           -30.2763158804      -22.4582472262      -60.6267846494  TIP3      12764           0.0000000000
     89806     14124  TIP3      H1            -29.2807550228      -22.4677803658      -60.5700351260  TIP3      12764           0.0000000000
     89807     14124  TIP3      H2            -30.4012447121      -23.2205399936      -61.2277107398  TIP3      12764           0.0000000000
     89808     14125  TIP3      OH2           -23.6501340075      -23.1444492526      -57.4891699332  TIP3      12765           0.0000000000
     89809     14125  TIP3      H1            -23.8529946844      -23.9245571431      -58.0645261194  TIP3      12765           0.0000000000
     89810     14125  TIP3      H2            -23.7373055547      -22.4111198996      -58.1271199896  TIP3      12765           0.0000000000
     89811     14126  TIP3      OH2           -38.0491432674      -39.5891727105      -46.1003555712  TIP3      12766           0.0000000000
     89812     14126  TIP3      H1            -38.5350180210      -40.0729980120      -45.4199085429  TIP3      12766           0.0000000000
     89813     14126  TIP3      H2            -37.2863495431      -39.3122551827      -45.6103686546  TIP3      12766           0.0000000000
     89814     14127  TIP3      OH2           -37.4163600707      -22.9981116465      -61.5798920916  TIP3      12767           0.0000000000
     89815     14127  TIP3      H1            -37.6873603534      -22.6882882671      -60.7124817227  TIP3      12767           0.0000000000
     89816     14127  TIP3      H2            -36.6407915911      -23.5255270710      -61.4190141583  TIP3      12767           0.0000000000
     89817     14128  TIP3      OH2            -9.9657622325      -30.5246500063      -55.4281956874  TIP3      12768           0.0000000000
     89818     14128  TIP3      H1             -9.9762854096      -29.5461598109      -55.4691240213  TIP3      12768           0.0000000000
     89819     14128  TIP3      H2            -10.6936375500      -30.7618571970      -56.0289946040  TIP3      12768           0.0000000000
     89820     14129  TIP3      OH2           -11.1115694750      -31.2713782187      -51.9268719602  TIP3      12769           0.0000000000
     89821     14129  TIP3      H1            -11.1209573763      -31.9233907580      -51.2153318451  TIP3      12769           0.0000000000
     89822     14129  TIP3      H2            -11.4579056247      -31.7724649883      -52.6835903219  TIP3      12769           0.0000000000
     89823     14130  TIP3      OH2           -18.7614584557      -31.5763639314      -50.3591078999  TIP3      12770           0.0000000000
     89824     14130  TIP3      H1            -18.6614672693      -32.2818886675      -49.6852952154  TIP3      12770           0.0000000000
     89825     14130  TIP3      H2            -18.0005733381      -31.0169463280      -50.1554098114  TIP3      12770           0.0000000000
     89826     14131  TIP3      OH2            -7.4221870984      -28.3208642949      -53.6424119607  TIP3      12771           0.0000000000
     89827     14131  TIP3      H1             -7.8429632472      -29.0350347801      -53.1538589656  TIP3      12771           0.0000000000
     89828     14131  TIP3      H2             -7.4020947490      -27.6133610539      -52.9701575250  TIP3      12771           0.0000000000
     89829     14132  TIP3      OH2           -17.8310500494      -27.1457326938      -51.8764300381  TIP3      12772           0.0000000000
     89830     14132  TIP3      H1            -18.1459621901      -28.0146891661      -52.1922132622  TIP3      12772           0.0000000000
     89831     14132  TIP3      H2            -16.8767698698      -27.3337729996      -51.8216790049  TIP3      12772           0.0000000000
     89832     14133  TIP3      OH2           -21.1895208508      -33.5914313130      -56.4067064987  TIP3      12773           0.0000000000
     89833     14133  TIP3      H1            -21.6215613234      -32.7155596409      -56.4378397530  TIP3      12773           0.0000000000
     89834     14133  TIP3      H2            -21.7678265305      -34.1199365887      -56.9684199524  TIP3      12773           0.0000000000
     89835     14134  TIP3      OH2           -20.4840681355      -31.3625041202      -54.2427766937  TIP3      12774           0.0000000000
     89836     14134  TIP3      H1            -20.2127097072      -32.1817931060      -53.7853407134  TIP3      12774           0.0000000000
     89837     14134  TIP3      H2            -19.7821269787      -31.2601227016      -54.9027905350  TIP3      12774           0.0000000000
     89838     14135  TIP3      OH2           -10.3047965217      -23.1651098771      -53.4070140158  TIP3      12775           0.0000000000
     89839     14135  TIP3      H1             -9.6570961067      -23.8578844594      -53.6913463155  TIP3      12775           0.0000000000
     89840     14135  TIP3      H2            -10.5159067875      -23.4938750981      -52.5330852667  TIP3      12775           0.0000000000
     89841     14136  TIP3      OH2           -12.7360126589      -28.8693576132      -51.4594468422  TIP3      12776           0.0000000000
     89842     14136  TIP3      H1            -12.3948437193      -29.4978065189      -52.1143026261  TIP3      12776           0.0000000000
     89843     14136  TIP3      H2            -11.9331613677      -28.7142322875      -50.9312484367  TIP3      12776           0.0000000000
     89844     14137  TIP3      OH2            -4.0986723497      -37.2769583283      -50.7014608896  TIP3      12777           0.0000000000
     89845     14137  TIP3      H1             -3.9759033362      -36.6400656554      -49.9638857108  TIP3      12777           0.0000000000
     89846     14137  TIP3      H2             -3.5899363483      -36.8053419124      -51.3784784775  TIP3      12777           0.0000000000
     89847     14138  TIP3      OH2            -9.5713511426      -34.3924635169      -51.1397178470  TIP3      12778           0.0000000000
     89848     14138  TIP3      H1             -9.4058395860      -35.3526526912      -51.1363934804  TIP3      12778           0.0000000000
     89849     14138  TIP3      H2             -9.6735189332      -34.2555112604      -52.1008468822  TIP3      12778           0.0000000000
     89850     14139  TIP3      OH2           -16.4510271318      -36.3045994574      -53.9262654026  TIP3      12779           0.0000000000
     89851     14139  TIP3      H1            -16.3495005794      -35.4715771779      -54.4238400351  TIP3      12779           0.0000000000
     89852     14139  TIP3      H2            -16.8473150741      -36.8970384129      -54.6037019257  TIP3      12779           0.0000000000
     89853     14140  TIP3      OH2            -8.7244003674      -36.2307016566      -55.5541617287  TIP3      12780           0.0000000000
     89854     14140  TIP3      H1             -8.0687878433      -36.5518364180      -54.8954618784  TIP3      12780           0.0000000000
     89855     14140  TIP3      H2             -8.1626164687      -35.6641519050      -56.1030526987  TIP3      12780           0.0000000000
     89856     14141  TIP3      OH2           -19.8278007764      -33.8668696739      -53.1865563942  TIP3      12781           0.0000000000
     89857     14141  TIP3      H1            -19.1695127313      -34.4380305568      -52.7369406953  TIP3      12781           0.0000000000
     89858     14141  TIP3      H2            -19.7287854130      -34.2042855901      -54.0934680281  TIP3      12781           0.0000000000
     89859     14142  TIP3      OH2           -14.6706064846      -32.3463352488      -53.8751267213  TIP3      12782           0.0000000000
     89860     14142  TIP3      H1            -14.0022011879      -32.9287024699      -53.4754023275  TIP3      12782           0.0000000000
     89861     14142  TIP3      H2            -15.1880566637      -33.0032349827      -54.3821127916  TIP3      12782           0.0000000000
     89862     14143  TIP3      OH2            -3.6768820437      -35.7638397949      -48.4825569270  TIP3      12783           0.0000000000
     89863     14143  TIP3      H1             -4.3515003525      -35.0602900659      -48.5811994169  TIP3      12783           0.0000000000
     89864     14143  TIP3      H2             -3.6903621787      -35.9404690156      -47.5314978714  TIP3      12783           0.0000000000
     89865     14144  TIP3      OH2           -17.5367307850      -37.4129999809      -49.9145735630  TIP3      12784           0.0000000000
     89866     14144  TIP3      H1            -17.8482469709      -36.8341425961      -50.6362725967  TIP3      12784           0.0000000000
     89867     14144  TIP3      H2            -18.2212273765      -37.1990406732      -49.2295813026  TIP3      12784           0.0000000000
     89868     14145  TIP3      OH2           -10.2576255621      -27.9320177315      -56.3298950600  TIP3      12785           0.0000000000
     89869     14145  TIP3      H1            -10.5506562447      -28.2122702594      -57.2089393642  TIP3      12785           0.0000000000
     89870     14145  TIP3      H2            -10.5637192132      -26.9968987218      -56.2925687468  TIP3      12785           0.0000000000
     89871     14146  TIP3      OH2           -15.0466645481      -29.7700369153      -49.6385215568  TIP3      12786           0.0000000000
     89872     14146  TIP3      H1            -15.7443655832      -29.1234680484      -49.4128208417  TIP3      12786           0.0000000000
     89873     14146  TIP3      H2            -14.3314492490      -29.1771419352      -49.9233569850  TIP3      12786           0.0000000000
     89874     14147  TIP3      OH2            -6.9056322510      -36.8901406234      -53.5641122330  TIP3      12787           0.0000000000
     89875     14147  TIP3      H1             -7.1444654787      -37.6597667564      -53.0371221475  TIP3      12787           0.0000000000
     89876     14147  TIP3      H2             -6.2372055350      -36.4472978310      -53.0134351988  TIP3      12787           0.0000000000
     89877     14148  TIP3      OH2           -17.9979526385      -35.5548536008      -51.8813670283  TIP3      12788           0.0000000000
     89878     14148  TIP3      H1            -17.3557171749      -34.8878106412      -51.5508236965  TIP3      12788           0.0000000000
     89879     14148  TIP3      H2            -17.4658055869      -35.9840005463      -52.5925608353  TIP3      12788           0.0000000000
     89880     14149  TIP3      OH2           -16.5943019337      -27.7584893342      -48.8080234599  TIP3      12789           0.0000000000
     89881     14149  TIP3      H1            -16.6383116820      -26.8434546328      -49.1522585199  TIP3      12789           0.0000000000
     89882     14149  TIP3      H2            -17.4848392550      -27.8300977378      -48.3941855827  TIP3      12789           0.0000000000
     89883     14150  TIP3      OH2           -20.5258006149      -28.1592998947      -58.0549323449  TIP3      12790           0.0000000000
     89884     14150  TIP3      H1            -20.7489195175      -27.8160797380      -58.9404458146  TIP3      12790           0.0000000000
     89885     14150  TIP3      H2            -20.4466822576      -27.3301649819      -57.5348603276  TIP3      12790           0.0000000000
     89886     14151  TIP3      OH2            -6.8952631807      -26.4882133447      -51.2938113213  TIP3      12791           0.0000000000
     89887     14151  TIP3      H1             -7.8600259987      -26.3763585433      -51.1473191059  TIP3      12791           0.0000000000
     89888     14151  TIP3      H2             -6.6229881328      -25.5653843667      -51.4631815221  TIP3      12791           0.0000000000
     89889     14152  TIP3      OH2            -6.5592301529      -38.1899647928      -49.8178325967  TIP3      12792           0.0000000000
     89890     14152  TIP3      H1             -7.3015109505      -37.5791208137      -49.9705483803  TIP3      12792           0.0000000000
     89891     14152  TIP3      H2             -5.8625890513      -37.7828169376      -50.3741138972  TIP3      12792           0.0000000000
     89892     14153  TIP3      OH2           -13.6267544064      -40.0399943492      -52.6399467354  TIP3      12793           0.0000000000
     89893     14153  TIP3      H1            -13.6422248648      -40.9898363767      -52.4424634184  TIP3      12793           0.0000000000
     89894     14153  TIP3      H2            -14.3943319724      -39.7538914760      -52.1205043850  TIP3      12793           0.0000000000
     89895     14154  TIP3      OH2            -8.6359379426      -24.7012378894      -54.6849015810  TIP3      12794           0.0000000000
     89896     14154  TIP3      H1             -8.2060666914      -25.4191499497      -55.1927150197  TIP3      12794           0.0000000000
     89897     14154  TIP3      H2             -8.2084264970      -23.9099891812      -55.0747728947  TIP3      12794           0.0000000000
     89898     14155  TIP3      OH2            -7.4232756338      -26.7735057743      -56.1735425218  TIP3      12795           0.0000000000
     89899     14155  TIP3      H1             -7.7223030953      -27.4651090341      -56.7863042513  TIP3      12795           0.0000000000
     89900     14155  TIP3      H2             -7.3949748420      -27.2653554988      -55.3319465417  TIP3      12795           0.0000000000
     89901     14156  TIP3      OH2            -5.7658461955      -28.1842601753      -47.6760916886  TIP3      12796           0.0000000000
     89902     14156  TIP3      H1             -5.6753209862      -28.8122595484      -48.4233052918  TIP3      12796           0.0000000000
     89903     14156  TIP3      H2             -5.5942821714      -27.3238852606      -48.0991053807  TIP3      12796           0.0000000000
     89904     14157  TIP3      OH2           -11.3167581828      -31.2839251403      -57.9268027523  TIP3      12797           0.0000000000
     89905     14157  TIP3      H1            -12.0222427289      -30.7139172479      -58.2974770958  TIP3      12797           0.0000000000
     89906     14157  TIP3      H2            -10.6099530107      -31.1935579109      -58.5889903178  TIP3      12797           0.0000000000
     89907     14158  TIP3      OH2           -11.2535250052      -32.7703438232      -60.8340457473  TIP3      12798           0.0000000000
     89908     14158  TIP3      H1            -10.5172071482      -32.7529281692      -60.2029250566  TIP3      12798           0.0000000000
     89909     14158  TIP3      H2            -10.9371252752      -33.3998900345      -61.4907962326  TIP3      12798           0.0000000000
     89910     14159  TIP3      OH2            -3.9203255279      -31.8947330034      -49.6355664055  TIP3      12799           0.0000000000
     89911     14159  TIP3      H1             -4.5654011390      -31.1592760039      -49.5670371661  TIP3      12799           0.0000000000
     89912     14159  TIP3      H2             -3.4472982565      -31.6493893452      -50.4510128739  TIP3      12799           0.0000000000
     89913     14160  TIP3      OH2            -7.8694957279      -31.0954525046      -56.9936690921  TIP3      12800           0.0000000000
     89914     14160  TIP3      H1             -8.6018337022      -30.8317460999      -56.3820837876  TIP3      12800           0.0000000000
     89915     14160  TIP3      H2             -7.3935820232      -31.7457399987      -56.4446941384  TIP3      12800           0.0000000000
     89916     14161  TIP3      OH2            -7.9661189541      -32.9210446120      -47.8853467707  TIP3      12801           0.0000000000
     89917     14161  TIP3      H1             -7.9379943119      -32.1201780422      -47.3515729448  TIP3      12801           0.0000000000
     89918     14161  TIP3      H2             -8.5810087484      -32.6105960980      -48.5820536801  TIP3      12801           0.0000000000
     89919     14162  TIP3      OH2           -16.2573743594      -30.4191694521      -55.0811171683  TIP3      12802           0.0000000000
     89920     14162  TIP3      H1            -16.5705379040      -30.8084920879      -55.9305921532  TIP3      12802           0.0000000000
     89921     14162  TIP3      H2            -15.6407690625      -31.1092989297      -54.7410097816  TIP3      12802           0.0000000000
     89922     14163  TIP3      OH2           -14.9275191929      -27.0306182814      -52.3936624347  TIP3      12803           0.0000000000
     89923     14163  TIP3      H1            -14.9421716398      -27.5630044452      -53.1972388901  TIP3      12803           0.0000000000
     89924     14163  TIP3      H2            -14.1476804267      -27.3924595985      -51.9352936614  TIP3      12803           0.0000000000
     89925     14164  TIP3      OH2           -15.9182327485      -31.6724039098      -51.4093667214  TIP3      12804           0.0000000000
     89926     14164  TIP3      H1            -15.3676324607      -31.5681713839      -52.2108412512  TIP3      12804           0.0000000000
     89927     14164  TIP3      H2            -15.5340744165      -31.0062739180      -50.7956994865  TIP3      12804           0.0000000000
     89928     14165  TIP3      OH2            -9.5081049855      -26.1033394065      -50.6990197495  TIP3      12805           0.0000000000
     89929     14165  TIP3      H1             -9.8055905895      -25.4573659328      -50.0539980315  TIP3      12805           0.0000000000
     89930     14165  TIP3      H2             -9.7581441417      -26.9589369363      -50.2755771819  TIP3      12805           0.0000000000
     89931     14166  TIP3      OH2           -15.0010316772      -27.2760169976      -46.6595909735  TIP3      12806           0.0000000000
     89932     14166  TIP3      H1            -15.3465911926      -26.4629486506      -46.2507136027  TIP3      12806           0.0000000000
     89933     14166  TIP3      H2            -15.6284755689      -27.4397390586      -47.4004429029  TIP3      12806           0.0000000000
     89934     14167  TIP3      OH2            -8.9751201024      -31.8966822298      -59.3291869949  TIP3      12807           0.0000000000
     89935     14167  TIP3      H1             -8.4517534571      -31.6966865321      -58.5094774555  TIP3      12807           0.0000000000
     89936     14167  TIP3      H2             -8.5972929850      -31.3300141139      -60.0045173152  TIP3      12807           0.0000000000
     89937     14168  TIP3      OH2           -18.0513743604      -31.0600942144      -47.5394165297  TIP3      12808           0.0000000000
     89938     14168  TIP3      H1            -17.9829955535      -30.4414233753      -46.8118708838  TIP3      12808           0.0000000000
     89939     14168  TIP3      H2            -18.9721594853      -30.9825763734      -47.8097085966  TIP3      12808           0.0000000000
     89940     14169  TIP3      OH2           -11.2674760174      -25.1507463024      -55.8618742256  TIP3      12809           0.0000000000
     89941     14169  TIP3      H1            -10.8423270161      -24.8489864785      -55.0504679262  TIP3      12809           0.0000000000
     89942     14169  TIP3      H2            -11.8402137516      -24.4099824754      -56.0909117085  TIP3      12809           0.0000000000
     89943     14170  TIP3      OH2           -16.7767315000      -25.2231896044      -45.9701685120  TIP3      12810           0.0000000000
     89944     14170  TIP3      H1            -16.7663188676      -25.2873919634      -46.9418576146  TIP3      12810           0.0000000000
     89945     14170  TIP3      H2            -17.7164510620      -25.3013697340      -45.7482700610  TIP3      12810           0.0000000000
     89946     14171  TIP3      OH2            -5.2731128133      -40.1536574302      -59.3888950412  TIP3      12811           0.0000000000
     89947     14171  TIP3      H1             -6.2168303475      -40.0084585605      -59.1514613816  TIP3      12811           0.0000000000
     89948     14171  TIP3      H2             -5.0390972503      -39.3317537486      -59.8605836783  TIP3      12811           0.0000000000
     89949     14172  TIP3      OH2           -17.2817342524      -31.3991301428      -57.4697437422  TIP3      12812           0.0000000000
     89950     14172  TIP3      H1            -17.5611152553      -30.6155599773      -57.9878704747  TIP3      12812           0.0000000000
     89951     14172  TIP3      H2            -17.9452257649      -32.0570006104      -57.6906266432  TIP3      12812           0.0000000000
     89952     14173  TIP3      OH2            -4.1720790471      -25.7925062758      -61.1001526177  TIP3      12813           0.0000000000
     89953     14173  TIP3      H1             -4.0248260493      -24.8453666663      -60.9085497181  TIP3      12813           0.0000000000
     89954     14173  TIP3      H2             -3.2434564183      -26.0951797498      -61.1156375112  TIP3      12813           0.0000000000
     89955     14174  TIP3      OH2           -21.1497681722      -28.9628295856      -48.6156939721  TIP3      12814           0.0000000000
     89956     14174  TIP3      H1            -21.6347918427      -29.0416066142      -49.4621470488  TIP3      12814           0.0000000000
     89957     14174  TIP3      H2            -21.1237080225      -29.9039346457      -48.3589783474  TIP3      12814           0.0000000000
     89958     14175  TIP3      OH2           -21.4287929826      -26.2306133514      -51.7785905094  TIP3      12815           0.0000000000
     89959     14175  TIP3      H1            -20.4701486955      -26.3456198976      -51.8001501969  TIP3      12815           0.0000000000
     89960     14175  TIP3      H2            -21.5115555029      -25.4184409485      -51.2648726137  TIP3      12815           0.0000000000
     89961     14176  TIP3      OH2            -3.1173935078      -25.5581536432      -46.6446088062  TIP3      12816           0.0000000000
     89962     14176  TIP3      H1             -3.1804788506      -26.4510333961      -46.2795707090  TIP3      12816           0.0000000000
     89963     14176  TIP3      H2             -3.7912875211      -25.1745849517      -46.0502962006  TIP3      12816           0.0000000000
     89964     14177  TIP3      OH2           -12.2355826285      -25.9969645083      -47.2390115359  TIP3      12817           0.0000000000
     89965     14177  TIP3      H1            -12.1671042882      -25.1518970359      -46.7322993516  TIP3      12817           0.0000000000
     89966     14177  TIP3      H2            -13.1152553664      -26.3370441240      -46.9986586793  TIP3      12817           0.0000000000
     89967     14178  TIP3      OH2           -11.8032243554      -22.2479668318      -57.4541214092  TIP3      12818           0.0000000000
     89968     14178  TIP3      H1            -11.8893697534      -22.3143371959      -58.4167740916  TIP3      12818           0.0000000000
     89969     14178  TIP3      H2            -11.7744628192      -21.2868759263      -57.2754388727  TIP3      12818           0.0000000000
     89970     14179  TIP3      OH2           -18.1550666115      -23.3674810236      -55.6132735870  TIP3      12819           0.0000000000
     89971     14179  TIP3      H1            -18.0100215335      -23.7779074519      -54.7327320794  TIP3      12819           0.0000000000
     89972     14179  TIP3      H2            -19.0048394586      -23.7734273799      -55.8535392490  TIP3      12819           0.0000000000
     89973     14180  TIP3      OH2            -8.7791086355      -23.0315968910      -60.4641158144  TIP3      12820           0.0000000000
     89974     14180  TIP3      H1             -8.3262149393      -23.7994716128      -60.8759613322  TIP3      12820           0.0000000000
     89975     14180  TIP3      H2             -8.6966479953      -23.2803121315      -59.5244608319  TIP3      12820           0.0000000000
     89976     14181  TIP3      OH2            -9.0536695610      -23.0963325268      -57.6765121338  TIP3      12821           0.0000000000
     89977     14181  TIP3      H1            -10.0091987607      -23.0305713069      -57.4835260862  TIP3      12821           0.0000000000
     89978     14181  TIP3      H2             -8.7990962383      -23.8361556608      -57.1042586466  TIP3      12821           0.0000000000
     89979     14182  TIP3      OH2           -18.9017854577      -27.6692971617      -47.5933440443  TIP3      12822           0.0000000000
     89980     14182  TIP3      H1            -18.7391435822      -28.0210378253      -46.7186395754  TIP3      12822           0.0000000000
     89981     14182  TIP3      H2            -19.7788958450      -28.0306988228      -47.8644447028  TIP3      12822           0.0000000000
     89982     14183  TIP3      OH2           -16.2329429965      -39.1972395855      -51.6710612939  TIP3      12823           0.0000000000
     89983     14183  TIP3      H1            -17.1350524396      -39.2220685143      -52.0510380249  TIP3      12823           0.0000000000
     89984     14183  TIP3      H2            -16.3208035746      -38.3618194607      -51.1775514156  TIP3      12823           0.0000000000
     89985     14184  TIP3      OH2           -11.5405605102      -39.0321612418      -48.1980268106  TIP3      12824           0.0000000000
     89986     14184  TIP3      H1            -11.0803126472      -39.7173019542      -47.7137690793  TIP3      12824           0.0000000000
     89987     14184  TIP3      H2            -12.4315361213      -39.4298384587      -48.3248447963  TIP3      12824           0.0000000000
     89988     14185  TIP3      OH2            -8.4508743386      -35.7063299295      -47.4736156767  TIP3      12825           0.0000000000
     89989     14185  TIP3      H1             -8.7604753269      -35.8488655312      -46.5594736015  TIP3      12825           0.0000000000
     89990     14185  TIP3      H2             -8.4261605427      -34.7423585106      -47.6125973748  TIP3      12825           0.0000000000
     89991     14186  TIP3      OH2           -11.9393999562      -36.9668169952      -60.9296851883  TIP3      12826           0.0000000000
     89992     14186  TIP3      H1            -12.2531458867      -36.9986054120      -60.0094074713  TIP3      12826           0.0000000000
     89993     14186  TIP3      H2            -12.2314242635      -37.8320272433      -61.2335548101  TIP3      12826           0.0000000000
     89994     14187  TIP3      OH2           -16.1474957389      -34.2154397712      -50.4367081990  TIP3      12827           0.0000000000
     89995     14187  TIP3      H1            -16.8628261489      -34.2209805414      -49.7736095224  TIP3      12827           0.0000000000
     89996     14187  TIP3      H2            -16.1838056930      -33.2950686818      -50.7820828805  TIP3      12827           0.0000000000
     89997     14188  TIP3      OH2           -16.1617918365      -34.0673817470      -55.5566893073  TIP3      12828           0.0000000000
     89998     14188  TIP3      H1            -17.0982740057      -34.3298607877      -55.6884152311  TIP3      12828           0.0000000000
     89999     14188  TIP3      H2            -15.7868842784      -34.3793172560      -56.3998555963  TIP3      12828           0.0000000000
     90000     14189  TIP3      OH2           -10.6494088338      -33.5826435483      -56.7863006175  TIP3      12829           0.0000000000
     90001     14189  TIP3      H1            -11.0534099835      -32.7551896215      -57.1269277457  TIP3      12829           0.0000000000
     90002     14189  TIP3      H2             -9.9663313162      -33.7557962569      -57.4578628433  TIP3      12829           0.0000000000
     90003     14190  TIP3      OH2            -9.6104095867      -34.0978193230      -53.9376809314  TIP3      12830           0.0000000000
     90004     14190  TIP3      H1             -9.8896541236      -33.5342651562      -54.6803519033  TIP3      12830           0.0000000000
     90005     14190  TIP3      H2             -9.5129090254      -34.9469516185      -54.4094531909  TIP3      12830           0.0000000000
     90006     14191  TIP3      OH2           -18.5223920254      -33.9191690052      -48.7180265541  TIP3      12831           0.0000000000
     90007     14191  TIP3      H1            -18.4068795744      -33.5637276047      -47.8168788813  TIP3      12831           0.0000000000
     90008     14191  TIP3      H2            -18.9143983718      -34.7857674648      -48.5362809053  TIP3      12831           0.0000000000
     90009     14192  TIP3      OH2           -21.8451010859      -36.8066286809      -54.7656592886  TIP3      12832           0.0000000000
     90010     14192  TIP3      H1            -21.1705344465      -36.8594423886      -54.0586695438  TIP3      12832           0.0000000000
     90011     14192  TIP3      H2            -21.3956639769      -37.2052200461      -55.5303669391  TIP3      12832           0.0000000000
     90012     14193  TIP3      OH2           -20.5640450721      -36.0928101821      -59.3331512752  TIP3      12833           0.0000000000
     90013     14193  TIP3      H1            -20.1125287377      -35.5330812209      -59.9854243885  TIP3      12833           0.0000000000
     90014     14193  TIP3      H2            -21.2677808488      -35.4860211864      -59.0431124715  TIP3      12833           0.0000000000
     90015     14194  TIP3      OH2           -10.3768758116      -32.5161634156      -49.3306014803  TIP3      12834           0.0000000000
     90016     14194  TIP3      H1            -10.0330790998      -33.1793745621      -49.9650811914  TIP3      12834           0.0000000000
     90017     14194  TIP3      H2            -10.8858836712      -33.0646774135      -48.7070684754  TIP3      12834           0.0000000000
     90018     14195  TIP3      OH2           -13.6079724609      -36.5277571607      -54.5459545078  TIP3      12835           0.0000000000
     90019     14195  TIP3      H1            -14.5384506920      -36.5276603501      -54.2472693966  TIP3      12835           0.0000000000
     90020     14195  TIP3      H2            -13.1253551227      -36.7040247114      -53.7216818724  TIP3      12835           0.0000000000
     90021     14196  TIP3      OH2           -18.7944538080      -34.9833646410      -55.7020251561  TIP3      12836           0.0000000000
     90022     14196  TIP3      H1            -19.6893947849      -34.8339261877      -56.0704169613  TIP3      12836           0.0000000000
     90023     14196  TIP3      H2            -18.5185972801      -35.8336475811      -56.0884101729  TIP3      12836           0.0000000000
     90024     14197  TIP3      OH2           -15.1603856234      -34.9449940578      -58.0690101246  TIP3      12837           0.0000000000
     90025     14197  TIP3      H1            -14.2100806525      -34.8194939061      -57.8733455260  TIP3      12837           0.0000000000
     90026     14197  TIP3      H2            -15.3969663268      -34.2599487541      -58.7229435031  TIP3      12837           0.0000000000
     90027     14198  TIP3      OH2            -9.2001557253      -37.3643115740      -51.2925873246  TIP3      12838           0.0000000000
     90028     14198  TIP3      H1             -9.8975051751      -37.2566831022      -50.6140198196  TIP3      12838           0.0000000000
     90029     14198  TIP3      H2             -9.7057264468      -37.5660374121      -52.0925653624  TIP3      12838           0.0000000000
     90030     14199  TIP3      OH2           -16.4560607271      -33.7899314768      -60.4524279697  TIP3      12839           0.0000000000
     90031     14199  TIP3      H1            -16.9982168346      -34.1113744222      -61.1881796590  TIP3      12839           0.0000000000
     90032     14199  TIP3      H2            -15.6422498959      -33.5286061720      -60.9142164811  TIP3      12839           0.0000000000
     90033     14200  TIP3      OH2           -12.3276604044      -33.7774668932      -52.6529747104  TIP3      12840           0.0000000000
     90034     14200  TIP3      H1            -11.7331164180      -34.3151775174      -53.1888283851  TIP3      12840           0.0000000000
     90035     14200  TIP3      H2            -12.4716291787      -34.3258915033      -51.8708781502  TIP3      12840           0.0000000000
     90036     14201  TIP3      OH2           -17.2718963246      -37.6470249159      -56.1910558292  TIP3      12841           0.0000000000
     90037     14201  TIP3      H1            -17.5982000143      -38.5560306977      -56.2408402711  TIP3      12841           0.0000000000
     90038     14201  TIP3      H2            -16.5208372010      -37.6919970772      -56.7891187176  TIP3      12841           0.0000000000
     90039     14202  TIP3      OH2           -13.6846588780      -35.4759936317      -50.2453422865  TIP3      12842           0.0000000000
     90040     14202  TIP3      H1            -14.5084699167      -34.9510665502      -50.1669700673  TIP3      12842           0.0000000000
     90041     14202  TIP3      H2            -13.1298065783      -35.1179617276      -49.5227737789  TIP3      12842           0.0000000000
     90042     14203  TIP3      OH2           -13.0912551330      -29.2536532846      -58.5085902923  TIP3      12843           0.0000000000
     90043     14203  TIP3      H1            -13.8953665630      -29.6975846434      -58.8644302706  TIP3      12843           0.0000000000
     90044     14203  TIP3      H2            -13.3262379827      -29.1170182478      -57.5724590571  TIP3      12843           0.0000000000
     90045     14204  TIP3      OH2            -5.9047075918      -30.0581902383      -49.7323725172  TIP3      12844           0.0000000000
     90046     14204  TIP3      H1             -5.3496765744      -29.5491409825      -50.3519395291  TIP3      12844           0.0000000000
     90047     14204  TIP3      H2             -6.7702086401      -29.9841024876      -50.1910759918  TIP3      12844           0.0000000000
     90048     14205  TIP3      OH2            -9.2405390657      -36.4198272455      -60.3798483663  TIP3      12845           0.0000000000
     90049     14205  TIP3      H1            -10.1886882163      -36.2617084784      -60.5316508838  TIP3      12845           0.0000000000
     90050     14205  TIP3      H2             -8.9338348517      -35.5553370311      -60.0523200351  TIP3      12845           0.0000000000
     90051     14206  TIP3      OH2           -11.6019894785      -28.9443111777      -47.3513583652  TIP3      12846           0.0000000000
     90052     14206  TIP3      H1            -11.9515904718      -29.3837523044      -46.5697577948  TIP3      12846           0.0000000000
     90053     14206  TIP3      H2            -11.8526627438      -28.0228582495      -47.2226412844  TIP3      12846           0.0000000000
     90054     14207  TIP3      OH2            -8.5264078263      -34.4971862669      -58.6951518233  TIP3      12847           0.0000000000
     90055     14207  TIP3      H1             -7.6291896576      -34.6280638945      -58.3363958493  TIP3      12847           0.0000000000
     90056     14207  TIP3      H2             -8.4484746722      -33.6898711243      -59.2234932154  TIP3      12847           0.0000000000
     90057     14208  TIP3      OH2           -17.9925516947      -29.8364630212      -52.7441613033  TIP3      12848           0.0000000000
     90058     14208  TIP3      H1            -17.3018630829      -29.9139859579      -53.4301817315  TIP3      12848           0.0000000000
     90059     14208  TIP3      H2            -17.9320994644      -30.6953716508      -52.2888913706  TIP3      12848           0.0000000000
     90060     14209  TIP3      OH2           -10.9925434156      -27.7560114001      -59.4530533872  TIP3      12849           0.0000000000
     90061     14209  TIP3      H1            -11.3758171661      -26.9081618909      -59.1490813868  TIP3      12849           0.0000000000
     90062     14209  TIP3      H2            -11.7400331160      -28.3760655989      -59.3080188688  TIP3      12849           0.0000000000
     90063     14210  TIP3      OH2           -21.0358566792      -31.4090329206      -47.4739854525  TIP3      12850           0.0000000000
     90064     14210  TIP3      H1            -20.7763895517      -31.8611984331      -46.6551704846  TIP3      12850           0.0000000000
     90065     14210  TIP3      H2            -21.6082506730      -32.0525501018      -47.9285654123  TIP3      12850           0.0000000000
     90066     14211  TIP3      OH2            -9.3405202404      -26.5333262904      -47.3553412947  TIP3      12851           0.0000000000
     90067     14211  TIP3      H1            -10.2565774327      -26.3311414042      -47.5982655497  TIP3      12851           0.0000000000
     90068     14211  TIP3      H2             -9.3261763643      -26.3045045564      -46.4219109023  TIP3      12851           0.0000000000
     90069     14212  TIP3      OH2            -3.6813189820      -34.3294271774      -58.9380777374  TIP3      12852           0.0000000000
     90070     14212  TIP3      H1             -4.1596112189      -34.6881195672      -59.6993322450  TIP3      12852           0.0000000000
     90071     14212  TIP3      H2             -3.5433960542      -33.4078878870      -59.2474461792  TIP3      12852           0.0000000000
     90072     14213  TIP3      OH2            -3.6833744260      -28.6151464985      -46.1878420896  TIP3      12853           0.0000000000
     90073     14213  TIP3      H1             -4.5382206738      -28.2472373380      -46.5339485875  TIP3      12853           0.0000000000
     90074     14213  TIP3      H2             -3.1293012952      -28.5071783554      -46.9742418109  TIP3      12853           0.0000000000
     90075     14214  TIP3      OH2            -5.3223462199      -25.5228090246      -58.5673944466  TIP3      12854           0.0000000000
     90076     14214  TIP3      H1             -5.7085946344      -26.3386322171      -58.2224681482  TIP3      12854           0.0000000000
     90077     14214  TIP3      H2             -5.0472944484      -25.7265936343      -59.4813809721  TIP3      12854           0.0000000000
     90078     14215  TIP3      OH2            -8.1344900223      -30.7136051690      -51.4567949241  TIP3      12855           0.0000000000
     90079     14215  TIP3      H1             -9.0774058079      -30.9258019519      -51.5729323743  TIP3      12855           0.0000000000
     90080     14215  TIP3      H2             -7.7047327665      -31.4711935408      -51.8908651704  TIP3      12855           0.0000000000
     90081     14216  TIP3      OH2           -15.6172228033      -26.3780320178      -55.3591532319  TIP3      12856           0.0000000000
     90082     14216  TIP3      H1            -15.1176299413      -25.5730824439      -55.5652226109  TIP3      12856           0.0000000000
     90083     14216  TIP3      H2            -16.4969625123      -26.1455206124      -55.6875103166  TIP3      12856           0.0000000000
     90084     14217  TIP3      OH2           -19.8824022322      -31.5033298766      -60.8312044510  TIP3      12857           0.0000000000
     90085     14217  TIP3      H1            -19.2588374222      -30.8958173959      -60.4039616625  TIP3      12857           0.0000000000
     90086     14217  TIP3      H2            -20.7532068933      -31.2462056025      -60.4939713564  TIP3      12857           0.0000000000
     90087     14218  TIP3      OH2           -14.2006826703      -28.7147396596      -55.8294388540  TIP3      12858           0.0000000000
     90088     14218  TIP3      H1            -14.5104226441      -27.7944167998      -55.7530212901  TIP3      12858           0.0000000000
     90089     14218  TIP3      H2            -14.9253201289      -29.2030562371      -55.3930290392  TIP3      12858           0.0000000000
     90090     14219  TIP3      OH2           -13.7520892457      -24.5232889924      -49.4518086397  TIP3      12859           0.0000000000
     90091     14219  TIP3      H1            -13.2984819136      -23.7102219636      -49.7097897127  TIP3      12859           0.0000000000
     90092     14219  TIP3      H2            -13.1389078642      -24.8688086832      -48.7808720837  TIP3      12859           0.0000000000
     90093     14220  TIP3      OH2           -15.5231020176      -23.7173557408      -56.3134220435  TIP3      12860           0.0000000000
     90094     14220  TIP3      H1            -16.4888657828      -23.5811542687      -56.1723495198  TIP3      12860           0.0000000000
     90095     14220  TIP3      H2            -15.1642824216      -22.8842141849      -55.9568947642  TIP3      12860           0.0000000000
     90096     14221  TIP3      OH2           -10.2153614727      -28.5286610694      -49.8367215813  TIP3      12861           0.0000000000
     90097     14221  TIP3      H1            -10.5517314797      -28.7127587562      -48.9367267717  TIP3      12861           0.0000000000
     90098     14221  TIP3      H2             -9.5681703511      -29.2385057874      -49.9625271389  TIP3      12861           0.0000000000
     90099     14222  TIP3      OH2            -7.9326710280      -27.5020730784      -60.7021250615  TIP3      12862           0.0000000000
     90100     14222  TIP3      H1             -7.6209471159      -27.9328827224      -59.8797897112  TIP3      12862           0.0000000000
     90101     14222  TIP3      H2             -8.8902533547      -27.6397727530      -60.6176813043  TIP3      12862           0.0000000000
     90102     14223  TIP3      OH2            -7.4929313480      -23.9466418742      -47.2817962059  TIP3      12863           0.0000000000
     90103     14223  TIP3      H1             -8.1029173276      -24.4595165167      -47.8299975347  TIP3      12863           0.0000000000
     90104     14223  TIP3      H2             -7.2091772479      -23.2589899840      -47.9217089923  TIP3      12863           0.0000000000
     90105     14224  TIP3      OH2            -3.4184246620      -23.0756639974      -60.4599159509  TIP3      12864           0.0000000000
     90106     14224  TIP3      H1             -2.7235488303      -22.4417381695      -60.7103876074  TIP3      12864           0.0000000000
     90107     14224  TIP3      H2             -4.1384589885      -22.4744503688      -60.1695365277  TIP3      12864           0.0000000000
     90108     14225  TIP3      OH2           -19.3445202754      -36.7094551662      -47.9407876930  TIP3      12865           0.0000000000
     90109     14225  TIP3      H1            -20.2508661158      -36.3658964115      -47.9748204405  TIP3      12865           0.0000000000
     90110     14225  TIP3      H2            -19.4518105596      -37.5662159607      -47.5065435886  TIP3      12865           0.0000000000
     90111     14226  TIP3      OH2            -7.1060356256      -28.8495595383      -58.4923211647  TIP3      12866           0.0000000000
     90112     14226  TIP3      H1             -7.3554036820      -29.6198546681      -57.9416984962  TIP3      12866           0.0000000000
     90113     14226  TIP3      H2             -6.1636422111      -28.7623440162      -58.2698790235  TIP3      12866           0.0000000000
     90114     14227  TIP3      OH2           -19.7176556614      -24.9091502718      -49.5104687011  TIP3      12867           0.0000000000
     90115     14227  TIP3      H1            -19.4399485367      -25.8359744830      -49.4999124527  TIP3      12867           0.0000000000
     90116     14227  TIP3      H2            -19.4845875742      -24.6080479069      -48.6194449724  TIP3      12867           0.0000000000
     90117     14228  TIP3      OH2           -15.0096775661      -26.8331019058      -59.7996676091  TIP3      12868           0.0000000000
     90118     14228  TIP3      H1            -14.7195556642      -27.3821235533      -59.0586935273  TIP3      12868           0.0000000000
     90119     14228  TIP3      H2            -14.8941023939      -25.9203677012      -59.4607519434  TIP3      12868           0.0000000000
     90120     14229  TIP3      OH2           -18.4912592256      -29.5904379945      -59.3230882034  TIP3      12869           0.0000000000
     90121     14229  TIP3      H1            -19.1506344738      -29.1834905746      -58.7229208906  TIP3      12869           0.0000000000
     90122     14229  TIP3      H2            -17.9214853805      -28.8371455138      -59.5448733371  TIP3      12869           0.0000000000
     90123     14230  TIP3      OH2           -10.5938941377      -36.8372732097      -49.0266073236  TIP3      12870           0.0000000000
     90124     14230  TIP3      H1             -9.8940566206      -36.8591194261      -48.3607436330  TIP3      12870           0.0000000000
     90125     14230  TIP3      H2            -10.9967739855      -37.7259069914      -48.8724216357  TIP3      12870           0.0000000000
     90126     14231  TIP3      OH2            -9.8456843682      -37.3676458391      -57.8692032749  TIP3      12871           0.0000000000
     90127     14231  TIP3      H1             -9.6481437488      -36.8694217300      -58.6894964105  TIP3      12871           0.0000000000
     90128     14231  TIP3      H2             -9.2925248690      -36.9056576366      -57.2230384703  TIP3      12871           0.0000000000
     90129     14232  TIP3      OH2           -12.1813758740      -25.1747405128      -59.0588198233  TIP3      12872           0.0000000000
     90130     14232  TIP3      H1            -13.0081693988      -24.6663948670      -59.0124972883  TIP3      12872           0.0000000000
     90131     14232  TIP3      H2            -11.6508188615      -24.6802542513      -59.6931385540  TIP3      12872           0.0000000000
     90132     14233  TIP3      OH2           -12.6535899069      -35.6143686750      -57.0722798800  TIP3      12873           0.0000000000
     90133     14233  TIP3      H1            -11.8665263948      -35.0340669215      -57.0422432373  TIP3      12873           0.0000000000
     90134     14233  TIP3      H2            -12.9099329566      -35.7194887824      -56.1372305863  TIP3      12873           0.0000000000
     90135     14234  TIP3      OH2           -12.0157436398      -34.5358070138      -47.9465063446  TIP3      12874           0.0000000000
     90136     14234  TIP3      H1            -12.0326700558      -34.0337874055      -47.1257460255  TIP3      12874           0.0000000000
     90137     14234  TIP3      H2            -11.4858296120      -35.3339650797      -47.7975108338  TIP3      12874           0.0000000000
     90138     14235  TIP3      OH2           -11.7632634327      -38.5474770306      -56.1444151290  TIP3      12875           0.0000000000
     90139     14235  TIP3      H1            -12.1124340907      -37.8816292001      -55.5287523282  TIP3      12875           0.0000000000
     90140     14235  TIP3      H2            -11.1078415529      -37.9942287738      -56.6256575848  TIP3      12875           0.0000000000
     90141     14236  TIP3      OH2           -14.8340728574      -24.1519687695      -59.0523198350  TIP3      12876           0.0000000000
     90142     14236  TIP3      H1            -14.6477022027      -23.3265867133      -59.5472683346  TIP3      12876           0.0000000000
     90143     14236  TIP3      H2            -15.0580294818      -23.8091361354      -58.1585043344  TIP3      12876           0.0000000000
     90144     14237  TIP3      OH2           -16.1318921400      -37.4323705841      -59.4643602994  TIP3      12877           0.0000000000
     90145     14237  TIP3      H1            -16.1950667028      -36.5292145210      -59.1074957976  TIP3      12877           0.0000000000
     90146     14237  TIP3      H2            -15.2259895601      -37.6703608066      -59.1900126778  TIP3      12877           0.0000000000
     90147     14238  TIP3      OH2            -5.9174771551      -36.6461664067      -47.0062933066  TIP3      12878           0.0000000000
     90148     14238  TIP3      H1             -6.8536892521      -36.4013492274      -47.1554668876  TIP3      12878           0.0000000000
     90149     14238  TIP3      H2             -5.6203459432      -36.7418073567      -47.9237484829  TIP3      12878           0.0000000000
     90150     14239  TIP3      OH2            -7.2978034757      -32.9173776042      -53.0183800654  TIP3      12879           0.0000000000
     90151     14239  TIP3      H1             -8.1219853565      -33.3606916964      -53.2967822386  TIP3      12879           0.0000000000
     90152     14239  TIP3      H2             -6.8224878373      -33.6065462234      -52.5020674514  TIP3      12879           0.0000000000
     90153     14240  TIP3      OH2           -17.8809747995      -26.9882253351      -60.4197258389  TIP3      12880           0.0000000000
     90154     14240  TIP3      H1            -17.2283975572      -26.3541163019      -60.0993024239  TIP3      12880           0.0000000000
     90155     14240  TIP3      H2            -17.3776589243      -27.4357728342      -61.1094332178  TIP3      12880           0.0000000000
     90156     14241  TIP3      OH2            -6.2398320935      -23.6592790006      -51.3667668198  TIP3      12881           0.0000000000
     90157     14241  TIP3      H1             -6.3264530556      -22.9696732984      -52.0475122847  TIP3      12881           0.0000000000
     90158     14241  TIP3      H2             -5.2786020675      -23.5984881388      -51.1651675901  TIP3      12881           0.0000000000
     90159     14242  TIP3      OH2           -18.7851985482      -39.4108087475      -52.5736676341  TIP3      12882           0.0000000000
     90160     14242  TIP3      H1            -19.0020851299      -39.4237579792      -53.5324807728  TIP3      12882           0.0000000000
     90161     14242  TIP3      H2            -19.1085839367      -40.2961010775      -52.3105051751  TIP3      12882           0.0000000000
     90162     14243  TIP3      OH2           -19.7896538254      -25.6135430890      -56.3982684416  TIP3      12883           0.0000000000
     90163     14243  TIP3      H1            -20.6439970249      -25.1632294056      -56.4389747971  TIP3      12883           0.0000000000
     90164     14243  TIP3      H2            -19.3109255462      -25.1476744002      -57.0981873840  TIP3      12883           0.0000000000
     90165     14244  TIP3      OH2            -7.2051496728      -24.7789638945      -61.9538056627  TIP3      12884           0.0000000000
     90166     14244  TIP3      H1             -6.9494157950      -25.5523622684      -61.4065326566  TIP3      12884           0.0000000000
     90167     14244  TIP3      H2             -6.4005671065      -24.5311768444      -62.4093922776  TIP3      12884           0.0000000000
     90168     14245  TIP3      OH2            -8.2462877765      -29.3249851556      -47.5077770432  TIP3      12885           0.0000000000
     90169     14245  TIP3      H1             -7.4614993016      -28.7458754641      -47.4363898810  TIP3      12885           0.0000000000
     90170     14245  TIP3      H2             -8.9443712746      -28.6988261683      -47.2698762504  TIP3      12885           0.0000000000
     90171     14246  TIP3      OH2           -15.0910337207      -30.8118568927      -59.6598475301  TIP3      12886           0.0000000000
     90172     14246  TIP3      H1            -15.6133100204      -31.3461313647      -59.0448786381  TIP3      12886           0.0000000000
     90173     14246  TIP3      H2            -14.8092441946      -31.4868555281      -60.3213971903  TIP3      12886           0.0000000000
     90174     14247  TIP3      OH2           -15.8806426783      -33.0304414098      -47.4147336091  TIP3      12887           0.0000000000
     90175     14247  TIP3      H1            -16.4431335926      -32.2996882793      -47.1165725194  TIP3      12887           0.0000000000
     90176     14247  TIP3      H2            -15.4592506388      -32.6489462665      -48.2027596108  TIP3      12887           0.0000000000
     90177     14248  TIP3      OH2           -14.0474314829      -32.6183282028      -61.4605656448  TIP3      12888           0.0000000000
     90178     14248  TIP3      H1            -14.1524575038      -32.7565957345      -62.4130186556  TIP3      12888           0.0000000000
     90179     14248  TIP3      H2            -13.0720396585      -32.5152169800      -61.3641501868  TIP3      12888           0.0000000000
     90180     14249  TIP3      OH2           -15.5228059527      -35.6376108668      -46.3218289276  TIP3      12889           0.0000000000
     90181     14249  TIP3      H1            -15.3401429842      -36.3459023232      -46.9566271132  TIP3      12889           0.0000000000
     90182     14249  TIP3      H2            -15.4943202505      -34.8278836962      -46.8651827249  TIP3      12889           0.0000000000
     90183     14250  TIP3      OH2           -15.0542075351      -37.2851331103      -48.7682467957  TIP3      12890           0.0000000000
     90184     14250  TIP3      H1            -14.5257997518      -36.7879223338      -49.4402067849  TIP3      12890           0.0000000000
     90185     14250  TIP3      H2            -15.9312481388      -37.3741442726      -49.2020413475  TIP3      12890           0.0000000000
     90186     14251  TIP3      OH2           -13.4881789134      -31.7981464058      -48.5363544493  TIP3      12891           0.0000000000
     90187     14251  TIP3      H1            -12.7317916812      -31.9360538964      -49.1175458268  TIP3      12891           0.0000000000
     90188     14251  TIP3      H2            -13.8690092268      -30.9573505392      -48.8419261924  TIP3      12891           0.0000000000
     90189     14252  TIP3      OH2           -14.2840948764      -39.7698552805      -48.3669907550  TIP3      12892           0.0000000000
     90190     14252  TIP3      H1            -14.4321567490      -38.8039272549      -48.4638163086  TIP3      12892           0.0000000000
     90191     14252  TIP3      H2            -15.0602687909      -40.1243004370      -48.7998107409  TIP3      12892           0.0000000000
     90192     14253  TIP3      OH2           -14.2010880112      -21.9127208150      -60.4572591841  TIP3      12893           0.0000000000
     90193     14253  TIP3      H1            -13.2352233037      -21.8094330692      -60.3265052739  TIP3      12893           0.0000000000
     90194     14253  TIP3      H2            -14.3912850652      -21.2392610047      -61.1081867886  TIP3      12893           0.0000000000
     90195     14254  TIP3      OH2           -20.6235939954      -27.3133786769      -60.9269061030  TIP3      12894           0.0000000000
     90196     14254  TIP3      H1            -19.6656507421      -27.2285951479      -60.7126902262  TIP3      12894           0.0000000000
     90197     14254  TIP3      H2            -20.6136301781      -27.9224330077      -61.6734153545  TIP3      12894           0.0000000000
     90198     14255  TIP3      OH2           -21.8795391286      -21.9440714117      -55.9515008461  TIP3      12895           0.0000000000
     90199     14255  TIP3      H1            -22.5928150351      -22.4302819500      -56.4227604723  TIP3      12895           0.0000000000
     90200     14255  TIP3      H2            -21.5930404797      -22.6030108007      -55.2925781399  TIP3      12895           0.0000000000
     90201     14256  TIP3      OH2           -21.0537057498      -23.8125068034      -54.0833609414  TIP3      12896           0.0000000000
     90202     14256  TIP3      H1            -21.4073300265      -24.6891412972      -53.8779878354  TIP3      12896           0.0000000000
     90203     14256  TIP3      H2            -20.8289409455      -23.4800726053      -53.1983938507  TIP3      12896           0.0000000000
     90204     14257  TIP3      OH2            -3.5140962306      -23.0236113480      -51.1451283758  TIP3      12897           0.0000000000
     90205     14257  TIP3      H1             -3.4971900253      -22.8573036154      -50.1860952654  TIP3      12897           0.0000000000
     90206     14257  TIP3      H2             -2.8079028227      -22.4404944339      -51.4391827835  TIP3      12897           0.0000000000
     90207     14258  TIP3      OH2            -3.9102672569      -23.4168082709      -48.2662621053  TIP3      12898           0.0000000000
     90208     14258  TIP3      H1             -4.3991770238      -24.1984627976      -48.5849161404  TIP3      12898           0.0000000000
     90209     14258  TIP3      H2             -3.4133752372      -23.8493088423      -47.5449931423  TIP3      12898           0.0000000000
     90210     14259  TIP3      OH2            -4.1644623835      -29.3897532616      -58.1118111246  TIP3      12899           0.0000000000
     90211     14259  TIP3      H1             -3.3212723408      -28.9636046509      -57.8896749806  TIP3      12899           0.0000000000
     90212     14259  TIP3      H2             -4.1906300127      -30.0830005733      -57.4159745416  TIP3      12899           0.0000000000
     90213     14260  TIP3      OH2            -3.8177506776      -31.2979491524      -56.2340232174  TIP3      12900           0.0000000000
     90214     14260  TIP3      H1             -4.5678757456      -31.7938531936      -55.8334645053  TIP3      12900           0.0000000000
     90215     14260  TIP3      H2             -3.2259900557      -31.1584376868      -55.4697176817  TIP3      12900           0.0000000000
     90216     14261  TIP3      OH2            -4.0642780920      -28.6183040865      -51.2546821785  TIP3      12901           0.0000000000
     90217     14261  TIP3      H1             -3.2464792842      -28.9820476000      -51.6290104582  TIP3      12901           0.0000000000
     90218     14261  TIP3      H2             -3.9294159464      -27.6585144300      -51.4158656433  TIP3      12901           0.0000000000
     90219     14262  TIP3      OH2            -5.5293051138      -25.6962946773      -48.9622604152  TIP3      12902           0.0000000000
     90220     14262  TIP3      H1             -6.2060745659      -25.3437809976      -48.3657796347  TIP3      12902           0.0000000000
     90221     14262  TIP3      H2             -6.0664681286      -26.1037034448      -49.6725190008  TIP3      12902           0.0000000000
     90222     14263  TIP3      OH2            -3.5447581525      -31.4696422491      -59.8356977757  TIP3      12903           0.0000000000
     90223     14263  TIP3      H1             -4.1090144797      -31.1240089065      -60.5335582630  TIP3      12903           0.0000000000
     90224     14263  TIP3      H2             -3.5920323808      -30.7584648933      -59.1671150674  TIP3      12903           0.0000000000
     90225     14264  TIP3      OH2            -5.9954405967      -32.8228382674      -55.6596803915  TIP3      12904           0.0000000000
     90226     14264  TIP3      H1             -6.1548563965      -33.7769591208      -55.6783431038  TIP3      12904           0.0000000000
     90227     14264  TIP3      H2             -6.3320332583      -32.5930786053      -54.7742293678  TIP3      12904           0.0000000000
     90228     14265  TIP3      OH2           -20.9947642678      -30.7342874839      -51.5920922596  TIP3      12905           0.0000000000
     90229     14265  TIP3      H1            -20.8135526900      -30.8148048295      -52.5550912903  TIP3      12905           0.0000000000
     90230     14265  TIP3      H2            -20.1022103485      -30.9066837612      -51.2336461973  TIP3      12905           0.0000000000
     90231     14266  TIP3      OH2            -5.0917335424      -30.8859708514      -45.9718606799  TIP3      12906           0.0000000000
     90232     14266  TIP3      H1             -4.5089274312      -31.6051153514      -45.7767073081  TIP3      12906           0.0000000000
     90233     14266  TIP3      H2             -4.5433926931      -30.0737570010      -46.0139373849  TIP3      12906           0.0000000000
     90234     14267  TIP3      OH2            -5.9368294127      -36.8198410634      -62.1956114857  TIP3      12907           0.0000000000
     90235     14267  TIP3      H1             -5.3144162550      -37.2000170059      -61.5494320432  TIP3      12907           0.0000000000
     90236     14267  TIP3      H2             -6.7881196043      -37.2184187397      -61.9852496246  TIP3      12907           0.0000000000
     90237     14268  TIP3      OH2            -6.3310056908      -35.2387253464      -57.1874385613  TIP3      12908           0.0000000000
     90238     14268  TIP3      H1             -6.0285714222      -36.1637501929      -57.0664081849  TIP3      12908           0.0000000000
     90239     14268  TIP3      H2             -5.5382709867      -34.8391742665      -57.5710541190  TIP3      12908           0.0000000000
     90240     14269  TIP3      OH2            -5.6898545945      -34.7094187150      -51.7637261751  TIP3      12909           0.0000000000
     90241     14269  TIP3      H1             -4.7363249298      -34.4509921870      -51.7675982571  TIP3      12909           0.0000000000
     90242     14269  TIP3      H2             -5.8899955294      -34.5545020321      -50.8226840400  TIP3      12909           0.0000000000
     90243     14270  TIP3      OH2            -5.6311443895      -33.9401725137      -48.9676879147  TIP3      12910           0.0000000000
     90244     14270  TIP3      H1             -6.5091045633      -33.6662792977      -48.6218087670  TIP3      12910           0.0000000000
     90245     14270  TIP3      H2             -5.2030491267      -33.0847404725      -49.1923424917  TIP3      12910           0.0000000000
     90246     14271  TIP3      OH2            -5.6782478686      -37.9741223625      -57.1541989886  TIP3      12911           0.0000000000
     90247     14271  TIP3      H1             -5.4953856445      -38.3998899747      -56.2881265302  TIP3      12911           0.0000000000
     90248     14271  TIP3      H2             -6.3029486637      -38.5967211919      -57.5839977737  TIP3      12911           0.0000000000
     90249     14272  TIP3      OH2           -20.2112115400      -37.1437591979      -52.5946754757  TIP3      12912           0.0000000000
     90250     14272  TIP3      H1            -19.7108836304      -37.9489830663      -52.3364763830  TIP3      12912           0.0000000000
     90251     14272  TIP3      H2            -19.6491126527      -36.4549592267      -52.2097824288  TIP3      12912           0.0000000000
     90252     14273  TIP3      OH2           -21.8913459663      -34.1437646135      -51.5463375527  TIP3      12913           0.0000000000
     90253     14273  TIP3      H1            -21.3321372774      -34.3892219557      -52.3101137511  TIP3      12913           0.0000000000
     90254     14273  TIP3      H2            -21.4285378975      -33.3365690482      -51.2761057485  TIP3      12913           0.0000000000
     90255     14274  TIP3      OH2            -3.8141867653      -37.8994811692      -60.5552699156  TIP3      12914           0.0000000000
     90256     14274  TIP3      H1             -3.4293019208      -38.6124259987      -61.0917463415  TIP3      12914           0.0000000000
     90257     14274  TIP3      H2             -3.1113321641      -37.2339066850      -60.5914624351  TIP3      12914           0.0000000000
     90258     14275  TIP3      OH2           -21.5153290863      -37.9395685815      -57.5027218427  TIP3      12915           0.0000000000
     90259     14275  TIP3      H1            -22.4622241269      -37.7196101998      -57.5923559789  TIP3      12915           0.0000000000
     90260     14275  TIP3      H2            -21.1126425747      -37.4017376332      -58.2085312274  TIP3      12915           0.0000000000
     90261     14276  TIP3      OH2            -6.7945657245      -22.9318746371      -55.5218641300  TIP3      12916           0.0000000000
     90262     14276  TIP3      H1             -6.1110426067      -23.2379410442      -56.1442898380  TIP3      12916           0.0000000000
     90263     14276  TIP3      H2             -6.2738264983      -22.4339659554      -54.8759858311  TIP3      12916           0.0000000000
     90264     14277  TIP3      OH2           -21.5676236047      -39.1647250707      -49.1375809598  TIP3      12917           0.0000000000
     90265     14277  TIP3      H1            -22.2477896362      -39.3915780187      -48.4961325670  TIP3      12917           0.0000000000
     90266     14277  TIP3      H2            -22.0179531495      -38.5409600759      -49.7305528048  TIP3      12917           0.0000000000
     90267     14278  TIP3      OH2           -16.4554816728      -25.0551963202      -48.7731948097  TIP3      12918           0.0000000000
     90268     14278  TIP3      H1            -16.7951942298      -24.1785125907      -49.0098130038  TIP3      12918           0.0000000000
     90269     14278  TIP3      H2            -15.5147292382      -24.9358573640      -49.0256796523  TIP3      12918           0.0000000000
     90270     14279  TIP3      OH2           -12.0983483198      -23.6658866030      -45.7915128144  TIP3      12919           0.0000000000
     90271     14279  TIP3      H1            -11.9227620840      -23.9256418558      -44.8780243706  TIP3      12919           0.0000000000
     90272     14279  TIP3      H2            -11.2388117794      -23.3038778243      -46.0699452380  TIP3      12919           0.0000000000
     90273     14280  TIP3      OH2            -9.8629197587      -22.2897099078      -46.5698790050  TIP3      12920           0.0000000000
     90274     14280  TIP3      H1             -9.1472434830      -22.8993608836      -46.7960820569  TIP3      12920           0.0000000000
     90275     14280  TIP3      H2             -9.4626726748      -21.9484766875      -45.7466830948  TIP3      12920           0.0000000000
     90276     14281  TIP3      OH2            -4.8625416202      -39.6842983060      -47.4611850248  TIP3      12921           0.0000000000
     90277     14281  TIP3      H1             -5.7140386254      -39.3859023484      -47.8070789916  TIP3      12921           0.0000000000
     90278     14281  TIP3      H2             -4.6969656432      -40.5158278919      -47.8656374118  TIP3      12921           0.0000000000
     90279     14282  TIP3      OH2           -19.0234087910      -21.7703310782      -48.7361950023  TIP3      12922           0.0000000000
     90280     14282  TIP3      H1            -19.7721493325      -21.2921469340      -49.1159532467  TIP3      12922           0.0000000000
     90281     14282  TIP3      H2            -19.3485541096      -21.9575176672      -47.8409603416  TIP3      12922           0.0000000000
     90282     14283  TIP3      OH2           -16.5547377535      -22.1923006461      -49.6731615459  TIP3      12923           0.0000000000
     90283     14283  TIP3      H1            -17.4353228507      -22.0461861625      -49.2516497210  TIP3      12923           0.0000000000
     90284     14283  TIP3      H2            -16.6224259869      -21.6186885484      -50.4577046410  TIP3      12923           0.0000000000
     90285     14284  TIP3      OH2           -11.8375397696      -22.2982210045      -50.5095094440  TIP3      12924           0.0000000000
     90286     14284  TIP3      H1            -12.3070400097      -21.7396170469      -51.1479989751  TIP3      12924           0.0000000000
     90287     14284  TIP3      H2            -11.7148201971      -21.6706954717      -49.7679470630  TIP3      12924           0.0000000000
     90288     14285  TIP3      OH2            -9.5394672771      -23.4894184238      -49.5276899372  TIP3      12925           0.0000000000
     90289     14285  TIP3      H1            -10.4117230346      -23.2075667794      -49.8430774799  TIP3      12925           0.0000000000
     90290     14285  TIP3      H2             -9.0861666748      -22.6310878078      -49.5797599459  TIP3      12925           0.0000000000
     90291     14286  TIP3      OH2            -6.9633114924      -21.8940332061      -49.2342803929  TIP3      12926           0.0000000000
     90292     14286  TIP3      H1             -7.0317360589      -20.9400235673      -49.4724491453  TIP3      12926           0.0000000000
     90293     14286  TIP3      H2             -6.7611543125      -22.2683125885      -50.1124437589  TIP3      12926           0.0000000000
     90294     14287  TIP3      OH2           -19.5643499999      -23.1365332893      -51.7956289761  TIP3      12927           0.0000000000
     90295     14287  TIP3      H1            -19.6312556864      -23.5731797850      -50.9178161588  TIP3      12927           0.0000000000
     90296     14287  TIP3      H2            -18.7509614201      -23.5158165635      -52.1877349602  TIP3      12927           0.0000000000
     90297     14288  TIP3      OH2           -17.4830085503      -24.4248718506      -53.1478525300  TIP3      12928           0.0000000000
     90298     14288  TIP3      H1            -17.6500158258      -25.3589982388      -52.9190717598  TIP3      12928           0.0000000000
     90299     14288  TIP3      H2            -16.6286004413      -24.2737960796      -52.6907813047  TIP3      12928           0.0000000000
     90300     14289  TIP3      OH2           -14.8791235811      -23.9405355868      -52.2685956614  TIP3      12929           0.0000000000
     90301     14289  TIP3      H1            -14.7229927603      -24.8616284979      -52.5348350130  TIP3      12929           0.0000000000
     90302     14289  TIP3      H2            -14.8346790835      -24.0006452337      -51.3016729937  TIP3      12929           0.0000000000
     90303     14290  TIP3      OH2           -11.4465536197      -38.2626039260      -53.1150189729  TIP3      12930           0.0000000000
     90304     14290  TIP3      H1            -12.0822180200      -38.9502488436      -52.8528751597  TIP3      12930           0.0000000000
     90305     14290  TIP3      H2            -10.8543181849      -38.7802450480      -53.6772086231  TIP3      12930           0.0000000000
     90306     14291  TIP3      OH2            -6.4492843683      -40.2383801432      -53.4951852680  TIP3      12931           0.0000000000
     90307     14291  TIP3      H1             -5.7468395894      -39.5796915794      -53.6687728297  TIP3      12931           0.0000000000
     90308     14291  TIP3      H2             -7.2719165233      -39.7553752444      -53.3338991539  TIP3      12931           0.0000000000
     90309     14292  TIP3      OH2            -4.5624223472      -38.9483748895      -54.7911338443  TIP3      12932           0.0000000000
     90310     14292  TIP3      H1             -3.9509090679      -39.5834476655      -55.1975875377  TIP3      12932           0.0000000000
     90311     14292  TIP3      H2             -4.0625442073      -38.1074285682      -54.7148398025  TIP3      12932           0.0000000000
     90312     14293  TIP3      OH2           -19.1768466696      -39.2330980724      -55.1737748734  TIP3      12933           0.0000000000
     90313     14293  TIP3      H1            -19.8403533891      -39.6185280389      -55.7535662403  TIP3      12933           0.0000000000
     90314     14293  TIP3      H2            -18.6181186635      -40.0396015925      -55.1164091360  TIP3      12933           0.0000000000
     90315     14294  TIP3      OH2           -20.3148535812      -39.7742365491      -59.5828678687  TIP3      12934           0.0000000000
     90316     14294  TIP3      H1            -19.8007523760      -39.1604305980      -60.1348134631  TIP3      12934           0.0000000000
     90317     14294  TIP3      H2            -20.9079484190      -39.2338798219      -59.0406607346  TIP3      12934           0.0000000000
     90318     14295  TIP3      OH2           -14.5533576990      -39.7082282863      -55.4968918777  TIP3      12935           0.0000000000
     90319     14295  TIP3      H1            -13.6471016814      -39.3708882404      -55.5406989566  TIP3      12935           0.0000000000
     90320     14295  TIP3      H2            -14.5826286137      -39.9638729389      -54.5725400254  TIP3      12935           0.0000000000
     90321     14296  TIP3      OH2            -9.0178792873      -39.7065128904      -53.8746869285  TIP3      12936           0.0000000000
     90322     14296  TIP3      H1             -8.8831645370      -39.6442404703      -54.8242786121  TIP3      12936           0.0000000000
     90323     14296  TIP3      H2             -9.2071759917      -40.6557683302      -53.7628396277  TIP3      12936           0.0000000000
     90324     14297  TIP3      OH2            -7.6754325585      -39.6181312471      -58.3973767761  TIP3      12937           0.0000000000
     90325     14297  TIP3      H1             -8.4351459029      -39.0287467226      -58.3829553072  TIP3      12937           0.0000000000
     90326     14297  TIP3      H2             -7.9815801476      -40.4491361345      -57.9974605935  TIP3      12937           0.0000000000
     90327     14298  TIP3      OH2           -20.3659575785      -23.9454092671      -58.5464517289  TIP3      12938           0.0000000000
     90328     14298  TIP3      H1            -21.0411118977      -23.9541765303      -59.2520401721  TIP3      12938           0.0000000000
     90329     14298  TIP3      H2            -20.3445771808      -22.9934268161      -58.3868525714  TIP3      12938           0.0000000000
     90330     14299  TIP3      OH2           -18.4621886108      -38.0548498982      -61.0093194772  TIP3      12939           0.0000000000
     90331     14299  TIP3      H1            -17.9135143874      -38.5843372617      -61.5843309583  TIP3      12939           0.0000000000
     90332     14299  TIP3      H2            -17.7874066859      -37.6269285699      -60.4503330429  TIP3      12939           0.0000000000
     90333     14300  TIP3      OH2           -13.4636573237      -37.7255463756      -58.6209299999  TIP3      12940           0.0000000000
     90334     14300  TIP3      H1            -13.1546031865      -38.2892284381      -57.8903592726  TIP3      12940           0.0000000000
     90335     14300  TIP3      H2            -13.3815748479      -36.8591518592      -58.1655057403  TIP3      12940           0.0000000000
     90336     14301  TIP3      OH2           -11.5347052746      -22.6288105983      -60.2377102344  TIP3      12941           0.0000000000
     90337     14301  TIP3      H1            -10.5890933469      -22.4254702325      -60.3765500568  TIP3      12941           0.0000000000
     90338     14301  TIP3      H2            -11.6940686925      -23.1841798864      -61.0103612800  TIP3      12941           0.0000000000
     90339     14302  TIP3      OH2            -4.7977910779      -23.1450679100      -57.4862214810  TIP3      12942           0.0000000000
     90340     14302  TIP3      H1             -4.9971505126      -23.9238473639      -58.0633863482  TIP3      12942           0.0000000000
     90341     14302  TIP3      H2             -4.8815748723      -22.4107375841      -58.1247928995  TIP3      12942           0.0000000000
     90342     14303  TIP3      OH2           -19.2020614480      -39.6689263549      -46.0741141967  TIP3      12943           0.0000000000
     90343     14303  TIP3      H1            -19.6695837172      -40.0527975213      -45.3379311718  TIP3      12943           0.0000000000
     90344     14303  TIP3      H2            -18.4451614302      -39.2615216850      -45.6572696004  TIP3      12943           0.0000000000
     90345     14304  TIP3      OH2           -18.5520773573      -22.9943474212      -61.5924155794  TIP3      12944           0.0000000000
     90346     14304  TIP3      H1            -18.8295658291      -22.6967099185      -60.7153469193  TIP3      12944           0.0000000000
     90347     14304  TIP3      H2            -17.7674154128      -23.5142540665      -61.4217743544  TIP3      12944           0.0000000000
     90348     14305  TIP3      OH2             8.8857879265      -30.5241220893      -55.4221698070  TIP3      12945           0.0000000000
     90349     14305  TIP3      H1              8.8808308538      -29.5456587755      -55.4699557056  TIP3      12945           0.0000000000
     90350     14305  TIP3      H2              8.1632146423      -30.7611810184      -56.0290972075  TIP3      12945           0.0000000000
     90351     14306  TIP3      OH2             7.7412536414      -31.2703271495      -51.9262065891  TIP3      12946           0.0000000000
     90352     14306  TIP3      H1              7.7344395333      -31.9250890541      -51.2141621919  TIP3      12946           0.0000000000
     90353     14306  TIP3      H2              7.4005757503      -31.7715345192      -52.6823579412  TIP3      12946           0.0000000000
     90354     14307  TIP3      OH2             0.0794317346      -31.5546618294      -50.3424742633  TIP3      12947           0.0000000000
     90355     14307  TIP3      H1              0.1635611614      -32.3051312599      -49.7058156943  TIP3      12947           0.0000000000
     90356     14307  TIP3      H2              0.8926410407      -31.1129207727      -50.1572542434  TIP3      12947           0.0000000000
     90357     14308  TIP3      OH2            11.4335946122      -28.3212251170      -53.6415226217  TIP3      12948           0.0000000000
     90358     14308  TIP3      H1             11.0117258461      -29.0346325436      -53.1544998792  TIP3      12948           0.0000000000
     90359     14308  TIP3      H2             11.4539911557      -27.6131424016      -52.9701509214  TIP3      12948           0.0000000000
     90360     14309  TIP3      OH2             1.0466456628      -27.2563415079      -51.7108894535  TIP3      12949           0.0000000000
     90361     14309  TIP3      H1              0.7091732230      -27.9852818479      -52.2661149866  TIP3      12949           0.0000000000
     90362     14309  TIP3      H2              2.0064660532      -27.2902631780      -51.9042349094  TIP3      12949           0.0000000000
     90363     14310  TIP3      OH2            -2.3346348512      -33.5910613163      -56.4054958394  TIP3      12950           0.0000000000
     90364     14310  TIP3      H1             -2.7662943103      -32.7159310152      -56.4418380339  TIP3      12950           0.0000000000
     90365     14310  TIP3      H2             -2.9117459579      -34.1199244655      -56.9684289325  TIP3      12950           0.0000000000
     90366     14311  TIP3      OH2            -1.6026199288      -31.3448930845      -54.2148523135  TIP3      12951           0.0000000000
     90367     14311  TIP3      H1             -1.3668723948      -32.1963363421      -53.7992312202  TIP3      12951           0.0000000000
     90368     14311  TIP3      H2             -0.9356833265      -31.2685051684      -54.9151406010  TIP3      12951           0.0000000000
     90369     14312  TIP3      OH2             8.5502361885      -23.1639010076      -53.4068092425  TIP3      12952           0.0000000000
     90370     14312  TIP3      H1              9.1986318152      -23.8566783878      -53.6914733002  TIP3      12952           0.0000000000
     90371     14312  TIP3      H2              8.3397183829      -23.4934282464      -52.5319754253  TIP3      12952           0.0000000000
     90372     14313  TIP3      OH2             6.1034409185      -28.8907923384      -51.4380170874  TIP3      12953           0.0000000000
     90373     14313  TIP3      H1              6.4659012458      -29.4875214888      -52.1154756460  TIP3      12953           0.0000000000
     90374     14313  TIP3      H2              6.9247337598      -28.7082784901      -50.9411146899  TIP3      12953           0.0000000000
     90375     14314  TIP3      OH2            14.7574827179      -37.2740280161      -50.6971631081  TIP3      12954           0.0000000000
     90376     14314  TIP3      H1             14.8853358138      -36.6347540575      -49.9639180180  TIP3      12954           0.0000000000
     90377     14314  TIP3      H2             15.2656320959      -36.8072159834      -51.3785763195  TIP3      12954           0.0000000000
     90378     14315  TIP3      OH2             9.2856238952      -34.3922135550      -51.1393934655  TIP3      12955           0.0000000000
     90379     14315  TIP3      H1              9.4498443251      -35.3526845723      -51.1364165270  TIP3      12955           0.0000000000
     90380     14315  TIP3      H2              9.1822109149      -34.2555130182      -52.1005998344  TIP3      12955           0.0000000000
     90381     14316  TIP3      OH2             2.4023347216      -36.3020865843      -53.9229046157  TIP3      12956           0.0000000000
     90382     14316  TIP3      H1              2.5062432990      -35.4718154447      -54.4229502741  TIP3      12956           0.0000000000
     90383     14316  TIP3      H2              2.0091233770      -36.8973328555      -54.6020869326  TIP3      12956           0.0000000000
     90384     14317  TIP3      OH2            10.1316342039      -36.2309918516      -55.5542916884  TIP3      12957           0.0000000000
     90385     14317  TIP3      H1             10.7872236591      -36.5518878527      -54.8954817666  TIP3      12957           0.0000000000
     90386     14317  TIP3      H2             10.6932538453      -35.6641221688      -56.1030766709  TIP3      12957           0.0000000000
     90387     14318  TIP3      OH2            -0.9721522206      -33.8664861036      -53.1872397162  TIP3      12958           0.0000000000
     90388     14318  TIP3      H1             -0.3140317494      -34.4379667139      -52.7372012123  TIP3      12958           0.0000000000
     90389     14318  TIP3      H2             -0.8722711794      -34.2052177440      -54.0936532758  TIP3      12958           0.0000000000
     90390     14319  TIP3      OH2             4.1646013063      -32.3382525328      -53.8457332490  TIP3      12959           0.0000000000
     90391     14319  TIP3      H1              4.8512791316      -32.9200077612      -53.4750982799  TIP3      12959           0.0000000000
     90392     14319  TIP3      H2              3.6682121837      -32.9935010649      -54.3777151263  TIP3      12959           0.0000000000
     90393     14320  TIP3      OH2            15.2088600249      -35.7236164582      -48.4693001832  TIP3      12960           0.0000000000
     90394     14320  TIP3      H1             14.4838033299      -35.0758163228      -48.5920424059  TIP3      12960           0.0000000000
     90395     14320  TIP3      H2             15.1549984088      -35.9517512174      -47.5310566383  TIP3      12960           0.0000000000
     90396     14321  TIP3      OH2             1.3192157457      -37.4127211096      -49.9147846249  TIP3      12961           0.0000000000
     90397     14321  TIP3      H1              1.0070907261      -36.8347029517      -50.6367130470  TIP3      12961           0.0000000000
     90398     14321  TIP3      H2              0.6342863712      -37.1985767058      -49.2296593700  TIP3      12961           0.0000000000
     90399     14322  TIP3      OH2             8.5946974786      -27.9331792746      -56.3285337303  TIP3      12962           0.0000000000
     90400     14322  TIP3      H1              8.3093796853      -28.2115782601      -57.2104523804  TIP3      12962           0.0000000000
     90401     14322  TIP3      H2              8.2932870343      -26.9966405645      -56.2934356577  TIP3      12962           0.0000000000
     90402     14323  TIP3      OH2             3.7555347470      -29.7203802288      -49.6933487087  TIP3      12963           0.0000000000
     90403     14323  TIP3      H1              3.2612957154      -29.0119010085      -49.2776814188  TIP3      12963           0.0000000000
     90404     14323  TIP3      H2              4.5693451725      -29.2256821711      -49.9282544541  TIP3      12963           0.0000000000
     90405     14324  TIP3      OH2            11.9495925507      -36.8902618164      -53.5648192475  TIP3      12964           0.0000000000
     90406     14324  TIP3      H1             11.7116138879      -37.6597392345      -53.0371504780  TIP3      12964           0.0000000000
     90407     14324  TIP3      H2             12.6195297953      -36.4481307362      -53.0159840297  TIP3      12964           0.0000000000
     90408     14325  TIP3      OH2             0.8580625615      -35.5551967537      -51.8806728200  TIP3      12965           0.0000000000
     90409     14325  TIP3      H1              1.5032259816      -34.8929212529      -51.5499344626  TIP3      12965           0.0000000000
     90410     14325  TIP3      H2              1.3899489887      -35.9847750610      -52.5926635707  TIP3      12965           0.0000000000
     90411     14326  TIP3      OH2             2.2979158408      -27.6537317701      -48.7075201641  TIP3      12966           0.0000000000
     90412     14326  TIP3      H1              2.2520094647      -26.7334173235      -49.0828501190  TIP3      12966           0.0000000000
     90413     14326  TIP3      H2              1.4104826303      -27.6858666027      -48.2546221348  TIP3      12966           0.0000000000
     90414     14327  TIP3      OH2            -1.6706906652      -28.1581540221      -58.0557208506  TIP3      12967           0.0000000000
     90415     14327  TIP3      H1             -1.8923880702      -27.8176233923      -58.9421017258  TIP3      12967           0.0000000000
     90416     14327  TIP3      H2             -1.5950855012      -27.3249459842      -57.5428678943  TIP3      12967           0.0000000000
     90417     14328  TIP3      OH2            11.9592272599      -26.4882822352      -51.2931707426  TIP3      12968           0.0000000000
     90418     14328  TIP3      H1             10.9953972732      -26.3750541763      -51.1477160097  TIP3      12968           0.0000000000
     90419     14328  TIP3      H2             12.2334359753      -25.5657701086      -51.4635379139  TIP3      12968           0.0000000000
     90420     14329  TIP3      OH2            12.2973841926      -38.1876022399      -49.8184162782  TIP3      12969           0.0000000000
     90421     14329  TIP3      H1             11.5540191628      -37.5791093347      -49.9723207180  TIP3      12969           0.0000000000
     90422     14329  TIP3      H2             12.9908633784      -37.7831800100      -50.3761679248  TIP3      12969           0.0000000000
     90423     14330  TIP3      OH2             5.2294416187      -40.0401109262      -52.6398775047  TIP3      12970           0.0000000000
     90424     14330  TIP3      H1              5.2136330218      -40.9899016038      -52.4423604342  TIP3      12970           0.0000000000
     90425     14330  TIP3      H2              4.4616683480      -39.7536103532      -52.1208083928  TIP3      12970           0.0000000000
     90426     14331  TIP3      OH2            10.2188660479      -24.6992921266      -54.6831741988  TIP3      12971           0.0000000000
     90427     14331  TIP3      H1             10.6487509176      -25.4185431225      -55.1924342975  TIP3      12971           0.0000000000
     90428     14331  TIP3      H2             10.6477838093      -23.9095794535      -55.0741090887  TIP3      12971           0.0000000000
     90429     14332  TIP3      OH2            11.4274210657      -26.7749961213      -56.1765232556  TIP3      12972           0.0000000000
     90430     14332  TIP3      H1             11.1539667795      -27.4722535931      -56.8020230670  TIP3      12972           0.0000000000
     90431     14332  TIP3      H2             11.4604135917      -27.2682170103      -55.3359358452  TIP3      12972           0.0000000000
     90432     14333  TIP3      OH2            13.1144788942      -28.1926821269      -47.6699174703  TIP3      12973           0.0000000000
     90433     14333  TIP3      H1             13.1732321810      -28.8035444056      -48.4343570001  TIP3      12973           0.0000000000
     90434     14333  TIP3      H2             13.2444381146      -27.3197795813      -48.0901603343  TIP3      12973           0.0000000000
     90435     14334  TIP3      OH2             7.5362951418      -31.2824318675      -57.9231602275  TIP3      12974           0.0000000000
     90436     14334  TIP3      H1              6.8326788939      -30.7121984518      -58.2987736556  TIP3      12974           0.0000000000
     90437     14334  TIP3      H2              8.2455884706      -31.1947372729      -58.5867189821  TIP3      12974           0.0000000000
     90438     14335  TIP3      OH2             7.6071126767      -32.7673497602      -60.8269438199  TIP3      12975           0.0000000000
     90439     14335  TIP3      H1              8.3500189106      -32.7437395529      -60.2035995986  TIP3      12975           0.0000000000
     90440     14335  TIP3      H2              7.9216468221      -33.3995476695      -61.4770925235  TIP3      12975           0.0000000000
     90441     14336  TIP3      OH2            14.9639321430      -31.8732260982      -49.6055239249  TIP3      12976           0.0000000000
     90442     14336  TIP3      H1             14.2812702963      -31.1630741929      -49.5891665695  TIP3      12976           0.0000000000
     90443     14336  TIP3      H2             15.4187218377      -31.6524320466      -50.4463751187  TIP3      12976           0.0000000000
     90444     14337  TIP3      OH2            10.9711286071      -31.1034794816      -56.9845374341  TIP3      12977           0.0000000000
     90445     14337  TIP3      H1             10.2461429123      -30.8341161834      -56.3669823914  TIP3      12977           0.0000000000
     90446     14337  TIP3      H2             11.4701802475      -31.7459655586      -56.4509460565  TIP3      12977           0.0000000000
     90447     14338  TIP3      OH2            10.8919182745      -32.9177102376      -47.8768266191  TIP3      12978           0.0000000000
     90448     14338  TIP3      H1             10.8934095533      -32.1132258087      -47.3490483005  TIP3      12978           0.0000000000
     90449     14338  TIP3      H2             10.2806531889      -32.6163523682      -48.5804290643  TIP3      12978           0.0000000000
     90450     14339  TIP3      OH2             2.5832505155      -30.4181644198      -55.0557105639  TIP3      12979           0.0000000000
     90451     14339  TIP3      H1              2.2826245361      -30.7949809821      -55.9171842113  TIP3      12979           0.0000000000
     90452     14339  TIP3      H2              3.2188625786      -31.1085754777      -54.7495488050  TIP3      12979           0.0000000000
     90453     14340  TIP3      OH2             3.8739508176      -27.0963522541      -52.3469039237  TIP3      12980           0.0000000000
     90454     14340  TIP3      H1              3.9315375961      -27.5374954457      -53.2082003044  TIP3      12980           0.0000000000
     90455     14340  TIP3      H2              4.7258932633      -27.3694499442      -51.9509675229  TIP3      12980           0.0000000000
     90456     14341  TIP3      OH2             2.9074134669      -31.6149608187      -51.4064342745  TIP3      12981           0.0000000000
     90457     14341  TIP3      H1              3.4801333254      -31.5992167482      -52.2105460137  TIP3      12981           0.0000000000
     90458     14341  TIP3      H2              3.3924032687      -31.0263698119      -50.7933409697  TIP3      12981           0.0000000000
     90459     14342  TIP3      OH2             9.3375969867      -26.1075457319      -50.7101575931  TIP3      12982           0.0000000000
     90460     14342  TIP3      H1              9.0504483358      -25.4571256834      -50.0603928378  TIP3      12982           0.0000000000
     90461     14342  TIP3      H2              9.1016632266      -26.9604110143      -50.2757599830  TIP3      12982           0.0000000000
     90462     14343  TIP3      OH2             3.8714340112      -27.2666604756      -46.6154837077  TIP3      12983           0.0000000000
     90463     14343  TIP3      H1              3.5344903592      -26.4412007264      -46.2206484823  TIP3      12983           0.0000000000
     90464     14343  TIP3      H2              3.2611714958      -27.4041713439      -47.3596421087  TIP3      12983           0.0000000000
     90465     14344  TIP3      OH2             9.8656664651      -31.8925144745      -59.3202422375  TIP3      12984           0.0000000000
     90466     14344  TIP3      H1             10.4164276814      -31.6942730327      -58.5193091513  TIP3      12984           0.0000000000
     90467     14344  TIP3      H2             10.2756466006      -31.3436240852      -60.0029734043  TIP3      12984           0.0000000000
     90468     14345  TIP3      OH2             0.8212342709      -30.9061611356      -47.6479840505  TIP3      12985           0.0000000000
     90469     14345  TIP3      H1              0.8607445266      -30.4707435410      -46.7906276814  TIP3      12985           0.0000000000
     90470     14345  TIP3      H2             -0.1351070945      -31.0250751703      -47.7669787909  TIP3      12985           0.0000000000
     90471     14346  TIP3      OH2             7.5788536204      -25.1552932994      -55.8505562544  TIP3      12986           0.0000000000
     90472     14346  TIP3      H1              8.0146190391      -24.8473545644      -55.0480040071  TIP3      12986           0.0000000000
     90473     14346  TIP3      H2              7.0168240216      -24.4097486618      -56.0906912012  TIP3      12986           0.0000000000
     90474     14347  TIP3      OH2             2.0785303513      -25.2447388482      -45.9850572417  TIP3      12987           0.0000000000
     90475     14347  TIP3      H1              2.0868161430      -25.2732550420      -46.9549223058  TIP3      12987           0.0000000000
     90476     14347  TIP3      H2              1.1405402059      -25.2969355345      -45.7428601820  TIP3      12987           0.0000000000
     90477     14348  TIP3      OH2            13.5817118330      -40.1550158125      -59.3860797928  TIP3      12988           0.0000000000
     90478     14348  TIP3      H1             12.6383436597      -40.0082110549      -59.1511023970  TIP3      12988           0.0000000000
     90479     14348  TIP3      H2             13.8171734568      -39.3328169667      -59.8597629606  TIP3      12988           0.0000000000
     90480     14349  TIP3      OH2             1.5712151789      -31.3963297389      -57.4634308694  TIP3      12989           0.0000000000
     90481     14349  TIP3      H1              1.2952474136      -30.6157125700      -57.9878585985  TIP3      12989           0.0000000000
     90482     14349  TIP3      H2              0.9115822368      -32.0566424281      -57.6897596518  TIP3      12989           0.0000000000
     90483     14350  TIP3      OH2            14.6905453910      -25.7772550654      -61.0339520142  TIP3      12990           0.0000000000
     90484     14350  TIP3      H1             14.8423185622      -24.8259157694      -60.9254647453  TIP3      12990           0.0000000000
     90485     14350  TIP3      H2             15.6018471177      -26.1099599052      -61.1281749328  TIP3      12990           0.0000000000
     90486     14351  TIP3      OH2            -2.2393699652      -28.9770914285      -48.6479924500  TIP3      12991           0.0000000000
     90487     14351  TIP3      H1             -2.7912594405      -29.0332946681      -49.4554842948  TIP3      12991           0.0000000000
     90488     14351  TIP3      H2             -2.2929520719      -29.9069573972      -48.3510088850  TIP3      12991           0.0000000000
     90489     14352  TIP3      OH2            -2.5606865368      -26.2422020006      -51.7634080962  TIP3      12992           0.0000000000
     90490     14352  TIP3      H1             -1.6050937119      -26.3240652453      -51.8048145197  TIP3      12992           0.0000000000
     90491     14352  TIP3      H2             -2.6816861931      -25.4080133971      -51.2864363412  TIP3      12992           0.0000000000
     90492     14353  TIP3      OH2            15.7404368024      -25.5405807548      -46.6402736035  TIP3      12993           0.0000000000
     90493     14353  TIP3      H1             15.6763551393      -26.4318961523      -46.2823753830  TIP3      12993           0.0000000000
     90494     14353  TIP3      H2             15.0596067741      -25.1676374313      -46.0474996777  TIP3      12993           0.0000000000
     90495     14354  TIP3      OH2             6.6299089927      -25.9932408718      -47.2391049085  TIP3      12994           0.0000000000
     90496     14354  TIP3      H1              6.6991232418      -25.1463958221      -46.7352386963  TIP3      12994           0.0000000000
     90497     14354  TIP3      H2              5.7511870438      -26.3147412273      -46.9882153406  TIP3      12994           0.0000000000
     90498     14355  TIP3      OH2             7.0519254908      -22.2469517778      -57.4480577830  TIP3      12995           0.0000000000
     90499     14355  TIP3      H1              6.9675008794      -22.3085901478      -58.4085281529  TIP3      12995           0.0000000000
     90500     14355  TIP3      H2              7.0825616920      -21.2856871993      -57.2721848432  TIP3      12995           0.0000000000
     90501     14356  TIP3      OH2             0.6998495850      -23.3690411991      -55.6118264470  TIP3      12996           0.0000000000
     90502     14356  TIP3      H1              0.8452372307      -23.7764146863      -54.7309201110  TIP3      12996           0.0000000000
     90503     14356  TIP3      H2             -0.1498146384      -23.7740378177      -55.8533240388  TIP3      12996           0.0000000000
     90504     14357  TIP3      OH2            10.0744471256      -23.0414104207      -60.4725240276  TIP3      12997           0.0000000000
     90505     14357  TIP3      H1             10.5590589210      -23.7970713149      -60.8869783194  TIP3      12997           0.0000000000
     90506     14357  TIP3      H2             10.1621065078      -23.2837947624      -59.5306792290  TIP3      12997           0.0000000000
     90507     14358  TIP3      OH2             9.8023773112      -23.0953977960      -57.6759764673  TIP3      12998           0.0000000000
     90508     14358  TIP3      H1              8.8471855320      -23.0314703299      -57.4841331296  TIP3      12998           0.0000000000
     90509     14358  TIP3      H2             10.0574016743      -23.8365932281      -57.1053502020  TIP3      12998           0.0000000000
     90510     14359  TIP3      OH2            -0.0285215505      -27.7552942585      -47.6431377342  TIP3      12999           0.0000000000
     90511     14359  TIP3      H1              0.0868896776      -27.9784278567      -46.7171594029  TIP3      12999           0.0000000000
     90512     14359  TIP3      H2             -0.9557828637      -28.0217006539      -47.8480785714  TIP3      12999           0.0000000000
     90513     14360  TIP3      OH2             2.6243327837      -39.1896391084      -51.6806667259  TIP3      13000           0.0000000000
     90514     14360  TIP3      H1              1.7191208421      -39.2222331455      -52.0506832011  TIP3      13000           0.0000000000
     90515     14360  TIP3      H2              2.5345038583      -38.3608767390      -51.1768102593  TIP3      13000           0.0000000000
     90516     14361  TIP3      OH2             7.3153413915      -39.0317582480      -48.1979930911  TIP3      13001           0.0000000000
     90517     14361  TIP3      H1              7.7754922429      -39.7173370610      -47.7139710693  TIP3      13001           0.0000000000
     90518     14361  TIP3      H2              6.4237890782      -39.4293038256      -48.3259044204  TIP3      13001           0.0000000000
     90519     14362  TIP3      OH2            10.4046144561      -35.7058755522      -47.4735273846  TIP3      13002           0.0000000000
     90520     14362  TIP3      H1             10.0897684723      -35.8502824793      -46.5615809787  TIP3      13002           0.0000000000
     90521     14362  TIP3      H2             10.4296268555      -34.7417732866      -47.6112696058  TIP3      13002           0.0000000000
     90522     14363  TIP3      OH2             6.9090530984      -36.9645973779      -60.9412304285  TIP3      13003           0.0000000000
     90523     14363  TIP3      H1              6.6052662984      -36.9953056734      -60.0163166967  TIP3      13003           0.0000000000
     90524     14363  TIP3      H2              6.6263336803      -37.8381217353      -61.2272749984  TIP3      13003           0.0000000000
     90525     14364  TIP3      OH2             2.7113449400      -34.2120481455      -50.4305599790  TIP3      13004           0.0000000000
     90526     14364  TIP3      H1              1.9906664774      -34.2365729029      -49.7744490785  TIP3      13004           0.0000000000
     90527     14364  TIP3      H2              2.6689529787      -33.3098387715      -50.7964638677  TIP3      13004           0.0000000000
     90528     14365  TIP3      OH2             2.6949776587      -34.0666634738      -55.5569797049  TIP3      13005           0.0000000000
     90529     14365  TIP3      H1              1.7576607722      -34.3290180957      -55.6876099345  TIP3      13005           0.0000000000
     90530     14365  TIP3      H2              3.0690306824      -34.3795402276      -56.4001685494  TIP3      13005           0.0000000000
     90531     14366  TIP3      OH2             8.2075204717      -33.5906934045      -56.7979828959  TIP3      13006           0.0000000000
     90532     14366  TIP3      H1              7.8045474219      -32.7560967994      -57.1299206910  TIP3      13006           0.0000000000
     90533     14366  TIP3      H2              8.8949477347      -33.7544286129      -57.4651554042  TIP3      13006           0.0000000000
     90534     14367  TIP3      OH2             9.2457951876      -34.0982789579      -53.9372902472  TIP3      13007           0.0000000000
     90535     14367  TIP3      H1              8.9669576821      -33.5344218187      -54.6796430857  TIP3      13007           0.0000000000
     90536     14367  TIP3      H2              9.3425529152      -34.9469662123      -54.4094226518  TIP3      13007           0.0000000000
     90537     14368  TIP3      OH2             0.3296979007      -33.8898117925      -48.7189265028  TIP3      13008           0.0000000000
     90538     14368  TIP3      H1              0.4466589599      -33.5801145854      -47.8039465033  TIP3      13008           0.0000000000
     90539     14368  TIP3      H2             -0.0520693811      -34.7682766504      -48.5513216129  TIP3      13008           0.0000000000
     90540     14369  TIP3      OH2            -2.9890005060      -36.8063312584      -54.7658302660  TIP3      13009           0.0000000000
     90541     14369  TIP3      H1             -2.3146489285      -36.8595925409      -54.0585913775  TIP3      13009           0.0000000000
     90542     14369  TIP3      H2             -2.5397018659      -37.2052770549      -55.5303639421  TIP3      13009           0.0000000000
     90543     14370  TIP3      OH2            -1.7078231402      -36.0929654015      -59.3332264878  TIP3      13010           0.0000000000
     90544     14370  TIP3      H1             -1.2565653183      -35.5330372138      -59.9854989633  TIP3      13010           0.0000000000
     90545     14370  TIP3      H2             -2.4116821324      -35.4862418784      -59.0433422057  TIP3      13010           0.0000000000
     90546     14371  TIP3      OH2             8.4667644579      -32.5145296093      -49.3355619686  TIP3      13011           0.0000000000
     90547     14371  TIP3      H1              8.8224711324      -33.1782268330      -49.9642514300  TIP3      13011           0.0000000000
     90548     14371  TIP3      H2              7.9704099772      -33.0666582384      -48.7063228215  TIP3      13011           0.0000000000
     90549     14372  TIP3      OH2             5.2472110827      -36.5277586890      -54.5430581627  TIP3      13012           0.0000000000
     90550     14372  TIP3      H1              4.3175765406      -36.5279700262      -54.2472500541  TIP3      13012           0.0000000000
     90551     14372  TIP3      H2              5.7306366462      -36.7041560522      -53.7217556387  TIP3      13012           0.0000000000
     90552     14373  TIP3      OH2             0.0640558728      -34.9737628181      -55.6968748258  TIP3      13013           0.0000000000
     90553     14373  TIP3      H1             -0.8314695876      -34.8323628211      -56.0685283906  TIP3      13013           0.0000000000
     90554     14373  TIP3      H2              0.3401982482      -35.8305416918      -56.0773075376  TIP3      13013           0.0000000000
     90555     14374  TIP3      OH2             3.6955364691      -34.9450539976      -58.0689163248  TIP3      13014           0.0000000000
     90556     14374  TIP3      H1              4.6459458929      -34.8206512254      -57.8735880156  TIP3      13014           0.0000000000
     90557     14374  TIP3      H2              3.4590664400      -34.2601970687      -58.7231223428  TIP3      13014           0.0000000000
     90558     14375  TIP3      OH2             9.6588782475      -37.3621933859      -51.2909918724  TIP3      13015           0.0000000000
     90559     14375  TIP3      H1              8.9592248481      -37.2566388565      -50.6139652592  TIP3      13015           0.0000000000
     90560     14375  TIP3      H2              9.1518365264      -37.5656154069      -52.0912516719  TIP3      13015           0.0000000000
     90561     14376  TIP3      OH2             2.3999250391      -33.7889480901      -60.4518366930  TIP3      13016           0.0000000000
     90562     14376  TIP3      H1              1.8581332891      -34.1119970596      -61.1871304088  TIP3      13016           0.0000000000
     90563     14376  TIP3      H2              3.2146328954      -33.5293034785      -60.9146008117  TIP3      13016           0.0000000000
     90564     14377  TIP3      OH2             6.5286037553      -33.7771016563      -52.6534324221  TIP3      13017           0.0000000000
     90565     14377  TIP3      H1              7.1229191258      -34.3150407941      -53.1891823732  TIP3      13017           0.0000000000
     90566     14377  TIP3      H2              6.3848089854      -34.3258641899      -51.8714780708  TIP3      13017           0.0000000000
     90567     14378  TIP3      OH2             1.5845918275      -37.6469568491      -56.1913989172  TIP3      13018           0.0000000000
     90568     14378  TIP3      H1              1.2578173011      -38.5559146317      -56.2405710951  TIP3      13018           0.0000000000
     90569     14378  TIP3      H2              2.3351476379      -37.6931731377      -56.7908995159  TIP3      13018           0.0000000000
     90570     14379  TIP3      OH2             5.1711577282      -35.4756089431      -50.2455052784  TIP3      13019           0.0000000000
     90571     14379  TIP3      H1              4.3477166636      -34.9502765978      -50.1662877847  TIP3      13019           0.0000000000
     90572     14379  TIP3      H2              5.7261654822      -35.1182484946      -49.5229717156  TIP3      13019           0.0000000000
     90573     14380  TIP3      OH2             5.7526543062      -29.2515855115      -58.5100719193  TIP3      13020           0.0000000000
     90574     14380  TIP3      H1              4.9534174426      -29.6998935496      -58.8653169460  TIP3      13020           0.0000000000
     90575     14380  TIP3      H2              5.5288346198      -29.1181181396      -57.5711067736  TIP3      13020           0.0000000000
     90576     14381  TIP3      OH2            12.9666322536      -30.0646736019      -49.7236213541  TIP3      13021           0.0000000000
     90577     14381  TIP3      H1             13.4982990745      -29.5455589144      -50.3598124712  TIP3      13021           0.0000000000
     90578     14381  TIP3      H2             12.0950038322      -29.9918917087      -50.1736206993  TIP3      13021           0.0000000000
     90579     14382  TIP3      OH2             9.6136720842      -36.4203413149      -60.3785326044  TIP3      13022           0.0000000000
     90580     14382  TIP3      H1              8.6665914097      -36.2620677785      -60.5318755591  TIP3      13022           0.0000000000
     90581     14382  TIP3      H2              9.9158786918      -35.5566631255      -60.0473775307  TIP3      13022           0.0000000000
     90582     14383  TIP3      OH2             7.2511928825      -28.9464549383      -47.3530552977  TIP3      13023           0.0000000000
     90583     14383  TIP3      H1              6.9077984384      -29.3831786606      -46.5672314797  TIP3      13023           0.0000000000
     90584     14383  TIP3      H2              7.0061181068      -28.0232067244      -47.2216293918  TIP3      13023           0.0000000000
     90585     14384  TIP3      OH2            10.3384359591      -34.4862156683      -58.7061255937  TIP3      13024           0.0000000000
     90586     14384  TIP3      H1             11.2353288828      -34.6118935242      -58.3455747722  TIP3      13024           0.0000000000
     90587     14384  TIP3      H2             10.4178898989      -33.6752330640      -59.2302633818  TIP3      13024           0.0000000000
     90588     14385  TIP3      OH2             0.9390339619      -29.8283048380      -52.6484248624  TIP3      13025           0.0000000000
     90589     14385  TIP3      H1              1.5263532921      -29.9156623999      -53.4339346275  TIP3      13025           0.0000000000
     90590     14385  TIP3      H2              0.9072502868      -30.7522042295      -52.3475372770  TIP3      13025           0.0000000000
     90591     14386  TIP3      OH2             7.8615611510      -27.7589681003      -59.4554192880  TIP3      13026           0.0000000000
     90592     14386  TIP3      H1              7.4819244701      -26.9071536440      -59.1493354601  TIP3      13026           0.0000000000
     90593     14386  TIP3      H2              7.1139577638      -28.3761956125      -59.3077052120  TIP3      13026           0.0000000000
     90594     14387  TIP3      OH2            -2.1450277646      -31.4142583055      -47.4922133031  TIP3      13027           0.0000000000
     90595     14387  TIP3      H1             -1.9367586616      -31.8565219905      -46.6511975938  TIP3      13027           0.0000000000
     90596     14387  TIP3      H2             -2.7560739632      -32.0392051126      -47.9226360941  TIP3      13027           0.0000000000
     90597     14388  TIP3      OH2             9.5176215413      -26.5508533838      -47.3526578115  TIP3      13028           0.0000000000
     90598     14388  TIP3      H1              8.6040625854      -26.3303386267      -47.5980997186  TIP3      13028           0.0000000000
     90599     14388  TIP3      H2              9.5320894531      -26.2973246002      -46.4254815962  TIP3      13028           0.0000000000
     90600     14389  TIP3      OH2            15.1823904898      -34.3377079281      -58.9383223682  TIP3      13029           0.0000000000
     90601     14389  TIP3      H1             14.6913076292      -34.6691825482      -59.7035474402  TIP3      13029           0.0000000000
     90602     14389  TIP3      H2             15.3071076208      -33.4024190711      -59.2382215879  TIP3      13029           0.0000000000
     90603     14390  TIP3      OH2            15.1804423569      -28.6867952996      -46.2038598146  TIP3      13030           0.0000000000
     90604     14390  TIP3      H1             14.3408024074      -28.2401922852      -46.5198207949  TIP3      13030           0.0000000000
     90605     14390  TIP3      H2             15.7345585349      -28.4833702590      -46.9788438554  TIP3      13030           0.0000000000
     90606     14391  TIP3      OH2            13.5279204496      -25.5096832356      -58.5542922608  TIP3      13031           0.0000000000
     90607     14391  TIP3      H1             13.1519926701      -26.3439231433      -58.2354090828  TIP3      13031           0.0000000000
     90608     14391  TIP3      H2             13.8060947430      -25.7163026980      -59.4717411023  TIP3      13031           0.0000000000
     90609     14392  TIP3      OH2            10.7194608302      -30.7134466033      -51.4548826250  TIP3      13032           0.0000000000
     90610     14392  TIP3      H1              9.7795932706      -30.9262102535      -51.5733047845  TIP3      13032           0.0000000000
     90611     14392  TIP3      H2             11.1539237262      -31.4694953690      -51.8899043837  TIP3      13032           0.0000000000
     90612     14393  TIP3      OH2             3.2383155969      -26.3756349424      -55.3530922889  TIP3      13033           0.0000000000
     90613     14393  TIP3      H1              3.7385848216      -25.5730730143      -55.5675527270  TIP3      13033           0.0000000000
     90614     14393  TIP3      H2              2.3603464937      -26.1462837543      -55.6893342547  TIP3      13033           0.0000000000
     90615     14394  TIP3      OH2            -1.0280393710      -31.5052753238      -60.8276853893  TIP3      13034           0.0000000000
     90616     14394  TIP3      H1             -0.4032595355      -30.8957380245      -60.4040700445  TIP3      13034           0.0000000000
     90617     14394  TIP3      H2             -1.8981665074      -31.2457612837      -60.4936202532  TIP3      13034           0.0000000000
     90618     14395  TIP3      OH2             4.6603193416      -28.7109885999      -55.8278638223  TIP3      13035           0.0000000000
     90619     14395  TIP3      H1              4.3437848714      -27.7927232816      -55.7475042276  TIP3      13035           0.0000000000
     90620     14395  TIP3      H2              3.9341894657      -29.2046242200      -55.4028885426  TIP3      13035           0.0000000000
     90621     14396  TIP3      OH2             5.1002853843      -24.5282551467      -49.4589412898  TIP3      13036           0.0000000000
     90622     14396  TIP3      H1              5.5506150299      -23.7006924184      -49.6990615846  TIP3      13036           0.0000000000
     90623     14396  TIP3      H2              5.7146598570      -24.8659250503      -48.7833789599  TIP3      13036           0.0000000000
     90624     14397  TIP3      OH2             3.3324691793      -23.7250947893      -56.3157082872  TIP3      13037           0.0000000000
     90625     14397  TIP3      H1              2.3679592297      -23.5802700336      -56.1727968550  TIP3      13037           0.0000000000
     90626     14397  TIP3      H2              3.6972457985      -22.8930699674      -55.9641951345  TIP3      13037           0.0000000000
     90627     14398  TIP3      OH2             8.6383683183      -28.5302079264      -49.8375088264  TIP3      13038           0.0000000000
     90628     14398  TIP3      H1              8.3031236360      -28.7128113955      -48.9369155042  TIP3      13038           0.0000000000
     90629     14398  TIP3      H2              9.2867691982      -29.2387598828      -49.9634891732  TIP3      13038           0.0000000000
     90630     14399  TIP3      OH2            10.9052635157      -27.4578415570      -60.6613566585  TIP3      13039           0.0000000000
     90631     14399  TIP3      H1             11.2589140800      -27.9646952235      -59.9027948164  TIP3      13039           0.0000000000
     90632     14399  TIP3      H2              9.9658989287      -27.6723903474      -60.6164102590  TIP3      13039           0.0000000000
     90633     14400  TIP3      OH2            11.3587702921      -23.9401293927      -47.2845807083  TIP3      13040           0.0000000000
     90634     14400  TIP3      H1             10.7511867471      -24.4581048860      -47.8304264959  TIP3      13040           0.0000000000
     90635     14400  TIP3      H2             11.6370831496      -23.2494600796      -47.9245435984  TIP3      13040           0.0000000000
     90636     14401  TIP3      OH2            15.4374234866      -23.0731083572      -60.4662131984  TIP3      13041           0.0000000000
     90637     14401  TIP3      H1             16.1332518928      -22.4397073818      -60.7110656360  TIP3      13041           0.0000000000
     90638     14401  TIP3      H2             14.7172713895      -22.4742815527      -60.1705401030  TIP3      13041           0.0000000000
     90639     14402  TIP3      OH2            -0.4913972345      -36.7114068547      -47.9455098016  TIP3      13042           0.0000000000
     90640     14402  TIP3      H1             -1.3950998054      -36.3643201120      -47.9739438353  TIP3      13042           0.0000000000
     90641     14402  TIP3      H2             -0.5951815601      -37.5649958164      -47.5029798813  TIP3      13042           0.0000000000
     90642     14403  TIP3      OH2            11.7303281444      -28.7929075301      -58.4089173852  TIP3      13043           0.0000000000
     90643     14403  TIP3      H1             11.5155659916      -29.6346532552      -57.9638284558  TIP3      13043           0.0000000000
     90644     14403  TIP3      H2             12.7009805228      -28.7869519146      -58.3309369502  TIP3      13043           0.0000000000
     90645     14404  TIP3      OH2            -0.8368612589      -24.9089579717      -49.5045032372  TIP3      13044           0.0000000000
     90646     14404  TIP3      H1             -0.5973098954      -25.8382731483      -49.4826791179  TIP3      13044           0.0000000000
     90647     14404  TIP3      H2             -0.6372383536      -24.5922199972      -48.6097962330  TIP3      13044           0.0000000000
     90648     14405  TIP3      OH2             3.8454917392      -26.8330336514      -59.7994096393  TIP3      13045           0.0000000000
     90649     14405  TIP3      H1              4.1367251904      -27.3821168617      -59.0588183794  TIP3      13045           0.0000000000
     90650     14405  TIP3      H2              3.9621331156      -25.9202664065      -59.4608950382  TIP3      13045           0.0000000000
     90651     14406  TIP3      OH2             0.3653111759      -29.5907866098      -59.3229166669  TIP3      13046           0.0000000000
     90652     14406  TIP3      H1             -0.2948273693      -29.1835147350      -58.7229606852  TIP3      13046           0.0000000000
     90653     14406  TIP3      H2              0.9343417186      -28.8372932457      -59.5452443683  TIP3      13046           0.0000000000
     90654     14407  TIP3      OH2             8.2620939525      -36.8370808258      -49.0264617685  TIP3      13047           0.0000000000
     90655     14407  TIP3      H1              8.9619164617      -36.8592023521      -48.3606476552  TIP3      13047           0.0000000000
     90656     14407  TIP3      H2              7.8591842909      -37.7258074104      -48.8724880566  TIP3      13047           0.0000000000
     90657     14408  TIP3      OH2             9.0109107903      -37.3668557231      -57.8686250864  TIP3      13048           0.0000000000
     90658     14408  TIP3      H1              9.2078846044      -36.8697842476      -58.6895781034  TIP3      13048           0.0000000000
     90659     14408  TIP3      H2              9.5636479630      -36.9031297529      -57.2232688771  TIP3      13048           0.0000000000
     90660     14409  TIP3      OH2             6.6736668062      -25.1713500327      -59.0535325512  TIP3      13049           0.0000000000
     90661     14409  TIP3      H1              5.8463599839      -24.6656202002      -59.0123714965  TIP3      13049           0.0000000000
     90662     14409  TIP3      H2              7.2055545705      -24.6800471257      -59.6881613580  TIP3      13049           0.0000000000
     90663     14410  TIP3      OH2             6.2026168630      -35.6140391159      -57.0720587907  TIP3      13050           0.0000000000
     90664     14410  TIP3      H1              6.9901032042      -35.0339043574      -57.0426590476  TIP3      13050           0.0000000000
     90665     14410  TIP3      H2              5.9468337842      -35.7183051437      -56.1368901737  TIP3      13050           0.0000000000
     90666     14411  TIP3      OH2             6.8407136688      -34.5343269993      -47.9465444818  TIP3      13051           0.0000000000
     90667     14411  TIP3      H1              6.8237257247      -34.0347203280      -47.1247190109  TIP3      13051           0.0000000000
     90668     14411  TIP3      H2              7.3687547956      -35.3342566053      -47.7983724251  TIP3      13051           0.0000000000
     90669     14412  TIP3      OH2             7.0926626124      -38.5474624334      -56.1445041931  TIP3      13052           0.0000000000
     90670     14412  TIP3      H1              6.7435496814      -37.8816470274      -55.5287215727  TIP3      13052           0.0000000000
     90671     14412  TIP3      H2              7.7482797251      -37.9944194959      -56.6256088948  TIP3      13052           0.0000000000
     90672     14413  TIP3      OH2             4.0218053663      -24.1522055589      -59.0521420775  TIP3      13053           0.0000000000
     90673     14413  TIP3      H1              4.2097942345      -23.3280248901      -59.5492855101  TIP3      13053           0.0000000000
     90674     14413  TIP3      H2              3.7975212588      -23.8090834619      -58.1587051357  TIP3      13053           0.0000000000
     90675     14414  TIP3      OH2             2.7221011043      -37.4321163433      -59.4676882311  TIP3      13054           0.0000000000
     90676     14414  TIP3      H1              2.6591926916      -36.5313433811      -59.1094838990  TIP3      13054           0.0000000000
     90677     14414  TIP3      H2              3.6261842765      -37.6689232342      -59.1939800367  TIP3      13054           0.0000000000
     90678     14415  TIP3      OH2            12.9487283052      -36.6090706553      -47.0049509069  TIP3      13055           0.0000000000
     90679     14415  TIP3      H1             12.0057962807      -36.3986958091      -47.1519384497  TIP3      13055           0.0000000000
     90680     14415  TIP3      H2             13.2370383481      -36.7401368742      -47.9182043679  TIP3      13055           0.0000000000
     90681     14416  TIP3      OH2            11.5584604338      -32.9172916565      -53.0176455319  TIP3      13056           0.0000000000
     90682     14416  TIP3      H1             10.7345927915      -33.3606065156      -53.2975653694  TIP3      13056           0.0000000000
     90683     14416  TIP3      H2             12.0337149034      -33.6071477559      -52.5030427650  TIP3      13056           0.0000000000
     90684     14417  TIP3      OH2             0.9707938134      -26.9849937192      -60.4265827803  TIP3      13057           0.0000000000
     90685     14417  TIP3      H1              1.6253511053      -26.3551617663      -60.0995701648  TIP3      13057           0.0000000000
     90686     14417  TIP3      H2              1.4830182647      -27.4380504386      -61.1064187517  TIP3      13057           0.0000000000
     90687     14418  TIP3      OH2            12.6201263086      -23.6665690055      -51.3680963492  TIP3      13058           0.0000000000
     90688     14418  TIP3      H1             12.5297363222      -22.9725362558      -52.0463589184  TIP3      13058           0.0000000000
     90689     14418  TIP3      H2             13.5796364984      -23.5995417186      -51.1650743790  TIP3      13058           0.0000000000
     90690     14419  TIP3      OH2             0.0707279814      -39.4106864723      -52.5736174519  TIP3      13059           0.0000000000
     90691     14419  TIP3      H1             -0.1460210866      -39.4237287268      -53.5324529443  TIP3      13059           0.0000000000
     90692     14419  TIP3      H2             -0.2525209983      -40.2961364352      -52.3105483549  TIP3      13059           0.0000000000
     90693     14420  TIP3      OH2            -0.9347855469      -25.6119241982      -56.3975658786  TIP3      13060           0.0000000000
     90694     14420  TIP3      H1             -1.7902352314      -25.1607861355      -56.4418940570  TIP3      13060           0.0000000000
     90695     14420  TIP3      H2             -0.4543979602      -25.1471859543      -57.0973204763  TIP3      13060           0.0000000000
     90696     14421  TIP3      OH2            11.6658769516      -24.7306667218      -61.8870819623  TIP3      13061           0.0000000000
     90697     14421  TIP3      H1             11.9022246604      -25.5737127465      -61.4406363329  TIP3      13061           0.0000000000
     90698     14421  TIP3      H2             12.4284497405      -24.5762848594      -62.4528066431  TIP3      13061           0.0000000000
     90699     14422  TIP3      OH2            10.6159261686      -29.3321410931      -47.4927530996  TIP3      13062           0.0000000000
     90700     14422  TIP3      H1             11.3877546070      -28.7345535786      -47.4426120316  TIP3      13062           0.0000000000
     90701     14422  TIP3      H2              9.9147723657      -28.7056675890      -47.2679145471  TIP3      13062           0.0000000000
     90702     14423  TIP3      OH2             3.7617374527      -30.8132876865      -59.6622312361  TIP3      13063           0.0000000000
     90703     14423  TIP3      H1              3.2422500540      -31.3473618530      -59.0447978380  TIP3      13063           0.0000000000
     90704     14423  TIP3      H2              4.0460273154      -31.4884053760      -60.3218241254  TIP3      13063           0.0000000000
     90705     14424  TIP3      OH2             2.9627842799      -33.0236051083      -47.4261453263  TIP3      13064           0.0000000000
     90706     14424  TIP3      H1              2.4222507521      -32.2948705327      -47.0999826330  TIP3      13064           0.0000000000
     90707     14424  TIP3      H2              3.4100419425      -32.6497282845      -48.2008294026  TIP3      13064           0.0000000000
     90708     14425  TIP3      OH2             4.8106238166      -32.6281124428      -61.4756195057  TIP3      13065           0.0000000000
     90709     14425  TIP3      H1              4.7106446383      -32.7597571846      -62.4308215525  TIP3      13065           0.0000000000
     90710     14425  TIP3      H2              5.7838964616      -32.5108305569      -61.3696216136  TIP3      13065           0.0000000000
     90711     14426  TIP3      OH2             3.3313428475      -35.6411422774      -46.3231537372  TIP3      13066           0.0000000000
     90712     14426  TIP3      H1              3.5224284982      -36.3551859095      -46.9518661974  TIP3      13066           0.0000000000
     90713     14426  TIP3      H2              3.3630147287      -34.8317160745      -46.8663704640  TIP3      13066           0.0000000000
     90714     14427  TIP3      OH2             3.8018943282      -37.2863754438      -48.7698322041  TIP3      13067           0.0000000000
     90715     14427  TIP3      H1              4.3292302813      -36.7916476057      -49.4372845111  TIP3      13067           0.0000000000
     90716     14427  TIP3      H2              2.9250535830      -37.3735964033      -49.2020631962  TIP3      13067           0.0000000000
     90717     14428  TIP3      OH2             5.3391410776      -31.8018635885      -48.5684237305  TIP3      13068           0.0000000000
     90718     14428  TIP3      H1              6.1309064284      -31.9513430088      -49.1024234162  TIP3      13068           0.0000000000
     90719     14428  TIP3      H2              5.0293056707      -30.9356065193      -48.8420822909  TIP3      13068           0.0000000000
     90720     14429  TIP3      OH2             4.5727524405      -39.7690314208      -48.3681055875  TIP3      13069           0.0000000000
     90721     14429  TIP3      H1              4.4235206661      -38.8032171196      -48.4642936211  TIP3      13069           0.0000000000
     90722     14429  TIP3      H2              3.7964305789      -40.1244428272      -48.7995609174  TIP3      13069           0.0000000000
     90723     14430  TIP3      OH2             4.6544229770      -21.9114076585      -60.4561841538  TIP3      13070           0.0000000000
     90724     14430  TIP3      H1              5.6190044748      -21.8032163829      -60.3232182402  TIP3      13070           0.0000000000
     90725     14430  TIP3      H2              4.4645124861      -21.2399064072      -61.1092883272  TIP3      13070           0.0000000000
     90726     14431  TIP3      OH2            -1.7680297858      -27.3128620859      -60.9178282872  TIP3      13071           0.0000000000
     90727     14431  TIP3      H1             -0.8085559804      -27.2270365567      -60.7120836712  TIP3      13071           0.0000000000
     90728     14431  TIP3      H2             -1.7534197906      -27.9233538907      -61.6616644857  TIP3      13071           0.0000000000
     90729     14432  TIP3      OH2            -3.0253864607      -21.9505912016      -55.9436643541  TIP3      13072           0.0000000000
     90730     14432  TIP3      H1             -3.7367319677      -22.4325154231      -56.4211026616  TIP3      13072           0.0000000000
     90731     14432  TIP3      H2             -2.7376536275      -22.6090792130      -55.2895780871  TIP3      13072           0.0000000000
     90732     14433  TIP3      OH2            -2.1928183782      -23.8134518545      -54.0801061221  TIP3      13073           0.0000000000
     90733     14433  TIP3      H1             -2.5524445073      -24.6882618755      -53.8774920062  TIP3      13073           0.0000000000
     90734     14433  TIP3      H2             -1.9622710136      -23.4803558485      -53.1977404225  TIP3      13073           0.0000000000
     90735     14434  TIP3      OH2            15.3385963681      -23.0202394245      -51.1440836346  TIP3      13074           0.0000000000
     90736     14434  TIP3      H1             15.3654573362      -22.8547553856      -50.1860775075  TIP3      13074           0.0000000000
     90737     14434  TIP3      H2             16.0482347763      -22.4430326767      -51.4409381590  TIP3      13074           0.0000000000
     90738     14435  TIP3      OH2            14.9499694864      -23.4253203994      -48.2654385369  TIP3      13075           0.0000000000
     90739     14435  TIP3      H1             14.4561250801      -24.2003564500      -48.5855566260  TIP3      13075           0.0000000000
     90740     14435  TIP3      H2             15.4486919125      -23.8617152901      -47.5443802999  TIP3      13075           0.0000000000
     90741     14436  TIP3      OH2            14.6766464650      -29.3529790065      -58.0536954736  TIP3      13076           0.0000000000
     90742     14436  TIP3      H1             15.5489511050      -28.9740286507      -57.9027406614  TIP3      13076           0.0000000000
     90743     14436  TIP3      H2             14.6706259973      -30.0988628042      -57.4234001260  TIP3      13076           0.0000000000
     90744     14437  TIP3      OH2            15.0469129176      -31.3048376666      -56.2191725769  TIP3      13077           0.0000000000
     90745     14437  TIP3      H1             14.2824375522      -31.7919144486      -55.8394712300  TIP3      13077           0.0000000000
     90746     14437  TIP3      H2             15.6335332113      -31.1608945636      -55.4523452963  TIP3      13077           0.0000000000
     90747     14438  TIP3      OH2            14.7772045400      -28.6117949243      -51.2702335037  TIP3      13078           0.0000000000
     90748     14438  TIP3      H1             15.6124925289      -28.9792670613      -51.6158332536  TIP3      13078           0.0000000000
     90749     14438  TIP3      H2             14.9333731636      -27.6546170678      -51.4136442810  TIP3      13078           0.0000000000
     90750     14439  TIP3      OH2            13.3183137430      -25.6971076199      -48.9652689610  TIP3      13079           0.0000000000
     90751     14439  TIP3      H1             12.6431904176      -25.3434302580      -48.3662987101  TIP3      13079           0.0000000000
     90752     14439  TIP3      H2             12.7843811603      -26.1030824656      -49.6774162831  TIP3      13079           0.0000000000
     90753     14440  TIP3      OH2            15.3993496363      -31.5494786329      -59.7413728071  TIP3      13080           0.0000000000
     90754     14440  TIP3      H1             14.8094429660      -31.2160440168      -60.4673203740  TIP3      13080           0.0000000000
     90755     14440  TIP3      H2             15.2678334991      -30.7751988855      -59.1663056989  TIP3      13080           0.0000000000
     90756     14441  TIP3      OH2            12.8510859507      -32.8219840179      -55.6673083985  TIP3      13081           0.0000000000
     90757     14441  TIP3      H1             12.7053062030      -33.7778239239      -55.6749580536  TIP3      13081           0.0000000000
     90758     14441  TIP3      H2             12.5254893675      -32.5923905236      -54.7773979751  TIP3      13081           0.0000000000
     90759     14442  TIP3      OH2            -2.1260577352      -30.6967919577      -51.5933642523  TIP3      13082           0.0000000000
     90760     14442  TIP3      H1             -1.9720171942      -30.8217662969      -52.5564148488  TIP3      13082           0.0000000000
     90761     14442  TIP3      H2             -1.2532355190      -30.9377927535      -51.2391576323  TIP3      13082           0.0000000000
     90762     14443  TIP3      OH2            13.7051187462      -30.8264171841      -45.9471648414  TIP3      13083           0.0000000000
     90763     14443  TIP3      H1             14.1514078383      -31.6354142084      -45.8926091854  TIP3      13083           0.0000000000
     90764     14443  TIP3      H2             14.2811660897      -30.0281330288      -46.0454307075  TIP3      13083           0.0000000000
     90765     14444  TIP3      OH2            12.9263883295      -36.8061485615      -62.1926493495  TIP3      13084           0.0000000000
     90766     14444  TIP3      H1             13.5456988481      -37.1969524876      -61.5494647342  TIP3      13084           0.0000000000
     90767     14444  TIP3      H2             12.0796436802      -37.2209128745      -62.0001715525  TIP3      13084           0.0000000000
     90768     14445  TIP3      OH2            12.5253666067      -35.2376179966      -57.1888665549  TIP3      13085           0.0000000000
     90769     14445  TIP3      H1             12.8280788475      -36.1624614625      -57.0670181797  TIP3      13085           0.0000000000
     90770     14445  TIP3      H2             13.3189667697      -34.8388343555      -57.5714177626  TIP3      13085           0.0000000000
     90771     14446  TIP3      OH2            13.1672690340      -34.7072065673      -51.7569723497  TIP3      13086           0.0000000000
     90772     14446  TIP3      H1             14.1212415727      -34.4503061547      -51.7655184483  TIP3      13086           0.0000000000
     90773     14446  TIP3      H2             12.9663956540      -34.5558488808      -50.8192893577  TIP3      13086           0.0000000000
     90774     14447  TIP3      OH2            13.2311613419      -33.9403396593      -48.9293035505  TIP3      13087           0.0000000000
     90775     14447  TIP3      H1             12.3315551651      -33.6699293589      -48.6401418913  TIP3      13087           0.0000000000
     90776     14447  TIP3      H2             13.6358110090      -33.0936888293      -49.2177867867  TIP3      13087           0.0000000000
     90777     14448  TIP3      OH2            13.1776113216      -37.9736844885      -57.1545746085  TIP3      13088           0.0000000000
     90778     14448  TIP3      H1             13.3639675925      -38.4007543652      -56.2903806057  TIP3      13088           0.0000000000
     90779     14448  TIP3      H2             12.5530802841      -38.5966922199      -57.5840606983  TIP3      13088           0.0000000000
     90780     14449  TIP3      OH2            -1.3567054539      -37.1465209263      -52.5958770892  TIP3      13089           0.0000000000
     90781     14449  TIP3      H1             -0.8552921092      -37.9503168464      -52.3367844827  TIP3      13089           0.0000000000
     90782     14449  TIP3      H2             -0.7942491431      -36.4612755924      -52.2105423352  TIP3      13089           0.0000000000
     90783     14450  TIP3      OH2            -3.0372090040      -34.1482310343      -51.5493579331  TIP3      13090           0.0000000000
     90784     14450  TIP3      H1             -2.4753649520      -34.3909532002      -52.3116697541  TIP3      13090           0.0000000000
     90785     14450  TIP3      H2             -2.5777680506      -33.3429046614      -51.2765835438  TIP3      13090           0.0000000000
     90786     14451  TIP3      OH2            15.0357108688      -37.9005659147      -60.5493394043  TIP3      13091           0.0000000000
     90787     14451  TIP3      H1             15.4230174393      -38.6112214616      -61.0885378019  TIP3      13091           0.0000000000
     90788     14451  TIP3      H2             15.7405390261      -37.2347314056      -60.5892255251  TIP3      13091           0.0000000000
     90789     14452  TIP3      OH2            -2.6592414321      -37.9397984827      -57.5025896548  TIP3      13092           0.0000000000
     90790     14452  TIP3      H1             -3.6063605530      -37.7198932560      -57.5910692680  TIP3      13092           0.0000000000
     90791     14452  TIP3      H2             -2.2570772655      -37.4014903113      -58.2083608707  TIP3      13092           0.0000000000
     90792     14453  TIP3      OH2            12.0630954941      -22.9331435441      -55.5206479291  TIP3      13093           0.0000000000
     90793     14453  TIP3      H1             12.7466528024      -23.2396775818      -56.1436109465  TIP3      13093           0.0000000000
     90794     14453  TIP3      H2             12.5770493580      -22.4295618128      -54.8711384358  TIP3      13093           0.0000000000
     90795     14454  TIP3      OH2            -2.7133677658      -39.1657583417      -49.1437001802  TIP3      13094           0.0000000000
     90796     14454  TIP3      H1             -3.3906215485      -39.3904937605      -48.4968050653  TIP3      13094           0.0000000000
     90797     14454  TIP3      H2             -3.1633573379      -38.5392418817      -49.7319441334  TIP3      13094           0.0000000000
     90798     14455  TIP3      OH2             2.4001542402      -25.0288354709      -48.8135971044  TIP3      13095           0.0000000000
     90799     14455  TIP3      H1              2.0694030945      -24.1362345060      -49.0135493026  TIP3      13095           0.0000000000
     90800     14455  TIP3      H2              3.3526326388      -24.8931086781      -49.0191473513  TIP3      13095           0.0000000000
     90801     14456  TIP3      OH2             6.7633040931      -23.7126014028      -45.7772852577  TIP3      13096           0.0000000000
     90802     14456  TIP3      H1              6.9472242027      -23.9338306353      -44.8607487691  TIP3      13096           0.0000000000
     90803     14456  TIP3      H2              7.5983185966      -23.2971403560      -46.0760755229  TIP3      13096           0.0000000000
     90804     14457  TIP3      OH2             8.9985158917      -22.3117648991      -46.5329110415  TIP3      13097           0.0000000000
     90805     14457  TIP3      H1              9.7189461056      -22.8939645633      -46.8003743264  TIP3      13097           0.0000000000
     90806     14457  TIP3      H2              9.4053381577      -21.9388605491      -45.7372187678  TIP3      13097           0.0000000000
     90807     14458  TIP3      OH2            13.9876465272      -39.6882402587      -47.4544816728  TIP3      13098           0.0000000000
     90808     14458  TIP3      H1             13.1416005017      -39.3859406163      -47.8090523340  TIP3      13098           0.0000000000
     90809     14458  TIP3      H2             14.1601932797      -40.5151964411      -47.8654539041  TIP3      13098           0.0000000000
     90810     14459  TIP3      OH2            -0.1566186925      -21.7479369256      -48.7437931405  TIP3      13099           0.0000000000
     90811     14459  TIP3      H1             -0.9264616565      -21.2955799336      -49.1124735325  TIP3      13099           0.0000000000
     90812     14459  TIP3      H2             -0.4786814783      -21.9517114458      -47.8507774656  TIP3      13099           0.0000000000
     90813     14460  TIP3      OH2             2.2850519489      -22.2025095975      -49.6853229507  TIP3      13100           0.0000000000
     90814     14460  TIP3      H1              1.4093755215      -22.0474922841      -49.2523850690  TIP3      13100           0.0000000000
     90815     14460  TIP3      H2              2.2337674240      -21.6289447394      -50.4592215006  TIP3      13100           0.0000000000
     90816     14461  TIP3      OH2             7.0210946219      -22.3177299653      -50.5569145124  TIP3      13101           0.0000000000
     90817     14461  TIP3      H1              6.5615838885      -21.7161523277      -51.1443385295  TIP3      13101           0.0000000000
     90818     14461  TIP3      H2              7.1379500750      -21.7168800633      -49.7687682388  TIP3      13101           0.0000000000
     90819     14462  TIP3      OH2             9.3256682075      -23.5033494934      -49.5507370111  TIP3      13102           0.0000000000
     90820     14462  TIP3      H1              8.4428464885      -23.1959431938      -49.8211871222  TIP3      13102           0.0000000000
     90821     14462  TIP3      H2              9.7591456353      -22.6327884649      -49.5748362940  TIP3      13102           0.0000000000
     90822     14463  TIP3      OH2            11.8984909636      -21.8893509612      -49.2332334666  TIP3      13103           0.0000000000
     90823     14463  TIP3      H1             11.8176452255      -20.9371990127      -49.4720465070  TIP3      13103           0.0000000000
     90824     14463  TIP3      H2             12.0990623758      -22.2651238970      -50.1111924108  TIP3      13103           0.0000000000
     90825     14464  TIP3      OH2            -0.6808989174      -23.1037754519      -51.7852465948  TIP3      13104           0.0000000000
     90826     14464  TIP3      H1             -0.7749862573      -23.5650729554      -50.9229081908  TIP3      13104           0.0000000000
     90827     14464  TIP3      H2              0.0998875006      -23.5322362656      -52.1904959125  TIP3      13104           0.0000000000
     90828     14465  TIP3      OH2             1.3679445144      -24.4321779542      -53.1379961111  TIP3      13105           0.0000000000
     90829     14465  TIP3      H1              1.2055279882      -25.3601936359      -52.9296678462  TIP3      13105           0.0000000000
     90830     14465  TIP3      H2              2.2319870159      -24.2758148159      -52.6988165045  TIP3      13105           0.0000000000
     90831     14466  TIP3      OH2             3.9573073800      -23.9293549236      -52.2752588392  TIP3      13106           0.0000000000
     90832     14466  TIP3      H1              4.1437223267      -24.8378248127      -52.5508802322  TIP3      13106           0.0000000000
     90833     14466  TIP3      H2              4.0340824585      -24.0003029191      -51.3100510416  TIP3      13106           0.0000000000
     90834     14467  TIP3      OH2             7.4096679626      -38.2594397479      -53.1178137297  TIP3      13107           0.0000000000
     90835     14467  TIP3      H1              6.7741571492      -38.9496274297      -52.8530283328  TIP3      13107           0.0000000000
     90836     14467  TIP3      H2              8.0017552607      -38.7801104072      -53.6772692501  TIP3      13107           0.0000000000
     90837     14468  TIP3      OH2            12.4067069159      -40.2385816404      -53.4950562449  TIP3      13108           0.0000000000
     90838     14468  TIP3      H1             13.1099899187      -39.5803504972      -53.6669232725  TIP3      13108           0.0000000000
     90839     14468  TIP3      H2             11.5841511107      -39.7553303575      -53.3339330683  TIP3      13108           0.0000000000
     90840     14469  TIP3      OH2            14.2939069307      -38.9479568231      -54.7903618877  TIP3      13109           0.0000000000
     90841     14469  TIP3      H1             14.9050066406      -39.5836981600      -55.1974631506  TIP3      13109           0.0000000000
     90842     14469  TIP3      H2             14.7938518762      -38.1070028517      -54.7150248498  TIP3      13109           0.0000000000
     90843     14470  TIP3      OH2            -0.3208971157      -39.2330978862      -55.1739678596  TIP3      13110           0.0000000000
     90844     14470  TIP3      H1             -0.9844030014      -39.6187614947      -55.7536050422  TIP3      13110           0.0000000000
     90845     14470  TIP3      H2              0.2378802436      -40.0395699832      -55.1163534329  TIP3      13110           0.0000000000
     90846     14471  TIP3      OH2            -1.4611200673      -39.7751129051      -59.5828331497  TIP3      13111           0.0000000000
     90847     14471  TIP3      H1             -0.9423586549      -39.1542385948      -60.1212498574  TIP3      13111           0.0000000000
     90848     14471  TIP3      H2             -2.0537528475      -39.2353486486      -59.0383357328  TIP3      13111           0.0000000000
     90849     14472  TIP3      OH2             4.3026730387      -39.7082183188      -55.4968580723  TIP3      13112           0.0000000000
     90850     14472  TIP3      H1              5.2089110010      -39.3708782738      -55.5406774952  TIP3      13112           0.0000000000
     90851     14472  TIP3      H2              4.2733308874      -39.9638289380      -54.5724863537  TIP3      13112           0.0000000000
     90852     14473  TIP3      OH2             9.8381006526      -39.7065298749      -53.8746512013  TIP3      13113           0.0000000000
     90853     14473  TIP3      H1              9.9728467594      -39.6442154319      -54.8242728691  TIP3      13113           0.0000000000
     90854     14473  TIP3      H2              9.6488146709      -40.6557797178      -53.7628555828  TIP3      13113           0.0000000000
     90855     14474  TIP3      OH2            11.1809649206      -39.6173015457      -58.3962144807  TIP3      13114           0.0000000000
     90856     14474  TIP3      H1             10.4212059195      -39.0284075017      -58.3830530412  TIP3      13114           0.0000000000
     90857     14474  TIP3      H2             10.8729718604      -40.4474716466      -57.9964558943  TIP3      13114           0.0000000000
     90858     14475  TIP3      OH2            -1.5128468450      -23.9467256675      -58.5568262116  TIP3      13115           0.0000000000
     90859     14475  TIP3      H1             -2.1887619572      -23.9543636515      -59.2646419063  TIP3      13115           0.0000000000
     90860     14475  TIP3      H2             -1.4913379871      -22.9953303190      -58.3886062377  TIP3      13115           0.0000000000
     90861     14476  TIP3      OH2             0.3885628895      -38.0563631374      -61.0209227467  TIP3      13116           0.0000000000
     90862     14476  TIP3      H1              0.9570254102      -38.5845188492      -61.5697337218  TIP3      13116           0.0000000000
     90863     14476  TIP3      H2              1.0557572230      -37.6254424253      -60.4532445801  TIP3      13116           0.0000000000
     90864     14477  TIP3      OH2             5.3926885145      -37.7250636203      -58.6205328156  TIP3      13117           0.0000000000
     90865     14477  TIP3      H1              5.7024455643      -38.2884258209      -57.8898784298  TIP3      13117           0.0000000000
     90866     14477  TIP3      H2              5.4743921574      -36.8584535250      -58.1654405779  TIP3      13117           0.0000000000
     90867     14478  TIP3      OH2             7.3212325841      -22.6280127120      -60.2373694054  TIP3      13118           0.0000000000
     90868     14478  TIP3      H1              8.2670975732      -22.4263175118      -60.3771040330  TIP3      13118           0.0000000000
     90869     14478  TIP3      H2              7.1611876461      -23.1842725513      -61.0093945068  TIP3      13118           0.0000000000
     90870     14479  TIP3      OH2            14.0656302523      -23.1431723190      -57.4888698490  TIP3      13119           0.0000000000
     90871     14479  TIP3      H1             13.8579880087      -23.9232936668      -58.0624825521  TIP3      13119           0.0000000000
     90872     14479  TIP3      H2             13.9739954634      -22.4104342176      -58.1267573864  TIP3      13119           0.0000000000
     90873     14480  TIP3      OH2            -0.3694183456      -39.6244043122      -46.0764819180  TIP3      13120           0.0000000000
     90874     14480  TIP3      H1             -0.7856742821      -40.0640682991      -45.3380186639  TIP3      13120           0.0000000000
     90875     14480  TIP3      H2              0.4252465774      -39.3071716370      -45.6518796411  TIP3      13120           0.0000000000
     90876     14481  TIP3      OH2             0.3298061790      -22.9693522513      -61.5889991017  TIP3      13121           0.0000000000
     90877     14481  TIP3      H1              0.0327647928      -22.6937837649      -60.7136134013  TIP3      13121           0.0000000000
     90878     14481  TIP3      H2              1.0916252100      -23.5198822163      -61.4176789226  TIP3      13121           0.0000000000
     90879     14482  TIP3      OH2            27.7467661484      -30.5230850939      -55.4266792408  TIP3      13122           0.0000000000
     90880     14482  TIP3      H1             27.7399766772      -29.5434133631      -55.4638509926  TIP3      13122           0.0000000000
     90881     14482  TIP3      H2             27.0191842688      -30.7609784610      -56.0283705289  TIP3      13122           0.0000000000
     90882     14483  TIP3      OH2            26.5995284929      -31.2678962082      -51.9261741230  TIP3      13123           0.0000000000
     90883     14483  TIP3      H1             26.5870505912      -31.9276378566      -51.2190809448  TIP3      13123           0.0000000000
     90884     14483  TIP3      H2             26.2508551540      -31.7661856590      -52.6774631103  TIP3      13123           0.0000000000
     90885     14484  TIP3      OH2            18.9273546816      -31.5632707086      -50.3264287547  TIP3      13124           0.0000000000
     90886     14484  TIP3      H1             19.0670384305      -32.2970802815      -49.6929640110  TIP3      13124           0.0000000000
     90887     14484  TIP3      H2             19.7097594134      -31.0195885742      -50.1635051099  TIP3      13124           0.0000000000
     90888     14485  TIP3      OH2            30.2916067210      -28.3039465335      -53.6574867866  TIP3      13125           0.0000000000
     90889     14485  TIP3      H1             29.8776264871      -29.0340580020      -53.1733093296  TIP3      13125           0.0000000000
     90890     14485  TIP3      H2             30.3013770813      -27.6221833834      -52.9604452462  TIP3      13125           0.0000000000
     90891     14486  TIP3      OH2            19.8806392876      -27.1494410133      -51.8675951635  TIP3      13126           0.0000000000
     90892     14486  TIP3      H1             19.5671969095      -28.0148928211      -52.1911926196  TIP3      13126           0.0000000000
     90893     14486  TIP3      H2             20.8358234211      -27.3339049704      -51.8214086563  TIP3      13126           0.0000000000
     90894     14487  TIP3      OH2            16.5228162762      -33.5921820912      -56.4048144992  TIP3      13127           0.0000000000
     90895     14487  TIP3      H1             16.0920310711      -32.7150809829      -56.4389225325  TIP3      13127           0.0000000000
     90896     14487  TIP3      H2             15.9462276299      -34.1203804647      -56.9674713145  TIP3      13127           0.0000000000
     90897     14488  TIP3      OH2            17.2297639699      -31.3615899217      -54.2422367167  TIP3      13128           0.0000000000
     90898     14488  TIP3      H1             17.5008064081      -32.1837801216      -53.7910947043  TIP3      13128           0.0000000000
     90899     14488  TIP3      H2             17.9291648793      -31.2593063850      -54.9045651144  TIP3      13128           0.0000000000
     90900     14489  TIP3      OH2            27.4222566395      -23.1641095937      -53.4037103326  TIP3      13129           0.0000000000
     90901     14489  TIP3      H1             28.0435066398      -23.8754239243      -53.6838029993  TIP3      13129           0.0000000000
     90902     14489  TIP3      H2             27.1854175328      -23.4939125479      -52.5303026117  TIP3      13129           0.0000000000
     90903     14490  TIP3      OH2            24.9741335494      -28.8645904944      -51.4595566540  TIP3      13130           0.0000000000
     90904     14490  TIP3      H1             25.3188756705      -29.4943636456      -52.1077875481  TIP3      13130           0.0000000000
     90905     14490  TIP3      H2             25.7750913467      -28.7138429988      -50.9200002200  TIP3      13130           0.0000000000
     90906     14491  TIP3      OH2            33.6344473958      -37.2856775566      -50.7052382566  TIP3      13131           0.0000000000
     90907     14491  TIP3      H1             33.7334185256      -36.6445734950      -49.9652127713  TIP3      13131           0.0000000000
     90908     14491  TIP3      H2             34.1135763182      -36.7927818969      -51.3797073083  TIP3      13131           0.0000000000
     90909     14492  TIP3      OH2            28.1309203380      -34.4033235703      -51.1464762270  TIP3      13132           0.0000000000
     90910     14492  TIP3      H1             28.3051287244      -35.3622663387      -51.1426986284  TIP3      13132           0.0000000000
     90911     14492  TIP3      H2             28.0373198103      -34.2610203760      -52.1076278394  TIP3      13132           0.0000000000
     90912     14493  TIP3      OH2            21.2609177761      -36.3045376647      -53.9262545171  TIP3      13133           0.0000000000
     90913     14493  TIP3      H1             21.3624692562      -35.4715466478      -54.4238536745  TIP3      13133           0.0000000000
     90914     14493  TIP3      H2             20.8647084441      -36.8970530325      -54.6036694776  TIP3      13133           0.0000000000
     90915     14494  TIP3      OH2            28.9875454627      -36.2332841490      -55.5540623522  TIP3      13134           0.0000000000
     90916     14494  TIP3      H1             29.6430295799      -36.5517393586      -54.8954963106  TIP3      13134           0.0000000000
     90917     14494  TIP3      H2             29.5493244769      -35.6637340984      -56.1029981513  TIP3      13134           0.0000000000
     90918     14495  TIP3      OH2            17.8842829095      -33.8668228429      -53.1862638074  TIP3      13135           0.0000000000
     90919     14495  TIP3      H1             18.5424079447      -34.4382962083      -52.7370330286  TIP3      13135           0.0000000000
     90920     14495  TIP3      H2             17.9820242644      -34.2045372169      -54.0931427942  TIP3      13135           0.0000000000
     90921     14496  TIP3      OH2            23.0416536219      -32.3461495634      -53.8762567678  TIP3      13136           0.0000000000
     90922     14496  TIP3      H1             23.7096198557      -32.9283782607      -53.4755889375  TIP3      13136           0.0000000000
     90923     14496  TIP3      H2             22.5238491159      -33.0034304001      -54.3824187017  TIP3      13136           0.0000000000
     90924     14497  TIP3      OH2            34.0357324026      -35.7642733382      -48.4843713426  TIP3      13137           0.0000000000
     90925     14497  TIP3      H1             33.3607179121      -35.0601275331      -48.5811442517  TIP3      13137           0.0000000000
     90926     14497  TIP3      H2             34.0219183218      -35.9384779156      -47.5318659675  TIP3      13137           0.0000000000
     90927     14498  TIP3      OH2            20.1740636154      -37.4101280794      -49.9115500859  TIP3      13138           0.0000000000
     90928     14498  TIP3      H1             19.8630398162      -36.8341012119      -50.6357696664  TIP3      13138           0.0000000000
     90929     14498  TIP3      H2             19.4880454112      -37.1978923919      -49.2278226096  TIP3      13138           0.0000000000
     90930     14499  TIP3      OH2            27.4559576839      -27.9275482752      -56.3334974684  TIP3      13139           0.0000000000
     90931     14499  TIP3      H1             27.1611991561      -28.2127941697      -57.2083788598  TIP3      13139           0.0000000000
     90932     14499  TIP3      H2             27.1461219617      -26.9959540800      -56.2933031451  TIP3      13139           0.0000000000
     90933     14500  TIP3      OH2            22.6606629958      -29.7712733160      -49.6424887165  TIP3      13140           0.0000000000
     90934     14500  TIP3      H1             21.9682317157      -29.1218406265      -49.4114799537  TIP3      13140           0.0000000000
     90935     14500  TIP3      H2             23.3775651898      -29.1782403946      -49.9221093818  TIP3      13140           0.0000000000
     90936     14501  TIP3      OH2            30.8066173880      -36.8910902625      -53.5652511588  TIP3      13141           0.0000000000
     90937     14501  TIP3      H1             30.5672433742      -37.6596639052      -53.0369331442  TIP3      13141           0.0000000000
     90938     14501  TIP3      H2             31.4748824300      -36.4473771409      -53.0152901153  TIP3      13141           0.0000000000
     90939     14502  TIP3      OH2            19.7150436881      -35.5541677826      -51.8808280046  TIP3      13142           0.0000000000
     90940     14502  TIP3      H1             20.3586614466      -34.8871751403      -51.5503907029  TIP3      13142           0.0000000000
     90941     14502  TIP3      H2             20.2461523654      -35.9847815011      -52.5925847363  TIP3      13142           0.0000000000
     90942     14503  TIP3      OH2            21.1183979796      -27.7596451364      -48.8185643178  TIP3      13143           0.0000000000
     90943     14503  TIP3      H1             21.0805058250      -26.8418136929      -49.1544801925  TIP3      13143           0.0000000000
     90944     14503  TIP3      H2             20.2363552070      -27.8301674273      -48.3898834280  TIP3      13143           0.0000000000
     90945     14504  TIP3      OH2            17.2168100405      -28.1510205800      -58.0490628259  TIP3      13144           0.0000000000
     90946     14504  TIP3      H1             16.9452496617      -27.8332218078      -58.9339021911  TIP3      13144           0.0000000000
     90947     14504  TIP3      H2             17.2633623357      -27.3171881872      -57.5339630786  TIP3      13144           0.0000000000
     90948     14505  TIP3      OH2            30.8023773204      -26.4875859395      -51.3504900939  TIP3      13145           0.0000000000
     90949     14505  TIP3      H1             29.8526426583      -26.3866393162      -51.1253241376  TIP3      13145           0.0000000000
     90950     14505  TIP3      H2             31.0757696073      -25.5532659155      -51.4284513784  TIP3      13145           0.0000000000
     90951     14506  TIP3      OH2            31.1661883446      -38.1876679199      -49.8226028246  TIP3      13146           0.0000000000
     90952     14506  TIP3      H1             30.4172248309      -37.5836727666      -49.9728768162  TIP3      13146           0.0000000000
     90953     14506  TIP3      H2             31.8512329207      -37.7809913346      -50.3819983920  TIP3      13146           0.0000000000
     90954     14507  TIP3      OH2            24.0853969780      -40.0400717442      -52.6399339215  TIP3      13147           0.0000000000
     90955     14507  TIP3      H1             24.0696340183      -40.9898830984      -52.4423464204  TIP3      13147           0.0000000000
     90956     14507  TIP3      H2             23.3176748293      -39.7537140765      -52.1207109903  TIP3      13147           0.0000000000
     90957     14508  TIP3      OH2            29.1473536958      -24.7040147393      -54.6368846328  TIP3      13148           0.0000000000
     90958     14508  TIP3      H1             29.4642752865      -25.4325374445      -55.2123399141  TIP3      13148           0.0000000000
     90959     14508  TIP3      H2             29.4468561614      -23.9028610052      -55.1106312103  TIP3      13148           0.0000000000
     90960     14509  TIP3      OH2            30.3127844227      -26.7641629661      -56.1569953996  TIP3      13149           0.0000000000
     90961     14509  TIP3      H1             29.9915503626      -27.4441458824      -56.7829766220  TIP3      13149           0.0000000000
     90962     14509  TIP3      H2             30.3022725048      -27.2856033299      -55.3306181349  TIP3      13149           0.0000000000
     90963     14510  TIP3      OH2            31.9696857796      -28.1846617596      -47.6684189473  TIP3      13150           0.0000000000
     90964     14510  TIP3      H1             32.0137481956      -28.8161605046      -48.4164784492  TIP3      13150           0.0000000000
     90965     14510  TIP3      H2             32.0918541935      -27.3181641535      -48.0905228014  TIP3      13150           0.0000000000
     90966     14511  TIP3      OH2            26.3952008867      -31.2835243895      -57.9236207408  TIP3      13151           0.0000000000
     90967     14511  TIP3      H1             25.6896662604      -30.7141230584      -58.2976715401  TIP3      13151           0.0000000000
     90968     14511  TIP3      H2             27.1018734927      -31.1939393722      -58.5886705225  TIP3      13151           0.0000000000
     90969     14512  TIP3      OH2            26.4599751093      -32.7663703745      -60.8307629637  TIP3      13152           0.0000000000
     90970     14512  TIP3      H1             27.1946315523      -32.7512872497      -60.1986687949  TIP3      13152           0.0000000000
     90971     14512  TIP3      H2             26.7780028151      -33.4002722974      -61.4777451011  TIP3      13152           0.0000000000
     90972     14513  TIP3      OH2            33.7932271942      -31.8918841213      -49.6293880355  TIP3      13153           0.0000000000
     90973     14513  TIP3      H1             33.1359320295      -31.1634911051      -49.5623140028  TIP3      13153           0.0000000000
     90974     14513  TIP3      H2             34.2584878209      -31.6262884206      -50.4435119498  TIP3      13153           0.0000000000
     90975     14514  TIP3      OH2            29.8424105227      -31.0949386323      -56.9935903811  TIP3      13154           0.0000000000
     90976     14514  TIP3      H1             29.1100422527      -30.8319159653      -56.3820689235  TIP3      13154           0.0000000000
     90977     14514  TIP3      H2             30.3185260640      -31.7458675721      -56.4450545211  TIP3      13154           0.0000000000
     90978     14515  TIP3      OH2            29.7348021104      -32.9425288226      -47.8840808553  TIP3      13155           0.0000000000
     90979     14515  TIP3      H1             29.7916408648      -32.1294826679      -47.3613024005  TIP3      13155           0.0000000000
     90980     14515  TIP3      H2             29.1390308763      -32.5930907248      -48.5775037547  TIP3      13155           0.0000000000
     90981     14516  TIP3      OH2            21.4538330462      -30.4196706983      -55.0807352277  TIP3      13156           0.0000000000
     90982     14516  TIP3      H1             21.1413253243      -30.8084622705      -55.9308552091  TIP3      13156           0.0000000000
     90983     14516  TIP3      H2             22.0722098467      -31.1089804184      -54.7426676988  TIP3      13156           0.0000000000
     90984     14517  TIP3      OH2            22.7847188592      -27.0305254873      -52.3938629004  TIP3      13157           0.0000000000
     90985     14517  TIP3      H1             22.7698087028      -27.5632583966      -53.1971627977  TIP3      13157           0.0000000000
     90986     14517  TIP3      H2             23.5638164280      -27.3931098246      -51.9343266098  TIP3      13157           0.0000000000
     90987     14518  TIP3      OH2            21.7927386599      -31.6719227681      -51.4083448796  TIP3      13158           0.0000000000
     90988     14518  TIP3      H1             22.3437165696      -31.5684890894      -52.2101651029  TIP3      13158           0.0000000000
     90989     14518  TIP3      H2             22.1795602727      -31.0058316861      -50.7951302860  TIP3      13158           0.0000000000
     90990     14519  TIP3      OH2            28.1924638672      -26.0971331679      -50.7094763350  TIP3      13159           0.0000000000
     90991     14519  TIP3      H1             27.9297450301      -25.4724510236      -50.0196941591  TIP3      13159           0.0000000000
     90992     14519  TIP3      H2             27.9557284981      -26.9544494490      -50.2858335072  TIP3      13159           0.0000000000
     90993     14520  TIP3      OH2            22.6855481595      -27.2825986632      -46.6486111047  TIP3      13160           0.0000000000
     90994     14520  TIP3      H1             22.3697454873      -26.4535127382      -46.2533394553  TIP3      13160           0.0000000000
     90995     14520  TIP3      H2             22.0763755720      -27.4360258001      -47.4035455478  TIP3      13160           0.0000000000
     90996     14521  TIP3      OH2            28.7352994549      -31.9039410151      -59.3254761341  TIP3      13161           0.0000000000
     90997     14521  TIP3      H1             29.2609942048      -31.7004926043      -58.5098594843  TIP3      13161           0.0000000000
     90998     14521  TIP3      H2             29.1106077105      -31.3342808272      -60.0011594269  TIP3      13161           0.0000000000
     90999     14522  TIP3      OH2            19.6274620088      -31.1006952089      -47.4955835298  TIP3      13162           0.0000000000
     91000     14522  TIP3      H1             19.7528758962      -30.4133710660      -46.8395711298  TIP3      13162           0.0000000000
     91001     14522  TIP3      H2             18.7474757957      -30.9511369620      -47.8453545283  TIP3      13162           0.0000000000
     91002     14523  TIP3      OH2            26.4464343987      -25.1471570432      -55.8691005920  TIP3      13163           0.0000000000
     91003     14523  TIP3      H1             26.8467525087      -24.8525325074      -55.0421555825  TIP3      13163           0.0000000000
     91004     14523  TIP3      H2             25.8630759556      -24.4132608225      -56.0953776982  TIP3      13163           0.0000000000
     91005     14524  TIP3      OH2            20.9364134065      -25.2225021768      -45.9704594964  TIP3      13164           0.0000000000
     91006     14524  TIP3      H1             20.9468629235      -25.2880419166      -46.9411923812  TIP3      13164           0.0000000000
     91007     14524  TIP3      H2             19.9972686705      -25.3014727736      -45.7478714776  TIP3      13164           0.0000000000
     91008     14525  TIP3      OH2            32.4354567584      -40.1557409898      -59.3852528099  TIP3      13165           0.0000000000
     91009     14525  TIP3      H1             31.4878750102      -40.0216308491      -59.1536956110  TIP3      13165           0.0000000000
     91010     14525  TIP3      H2             32.6676298114      -39.3325922910      -59.8592180496  TIP3      13165           0.0000000000
     91011     14526  TIP3      OH2            20.4287361870      -31.3981495884      -57.4667270153  TIP3      13166           0.0000000000
     91012     14526  TIP3      H1             20.1509111171      -30.6156387915      -57.9874120835  TIP3      13166           0.0000000000
     91013     14526  TIP3      H2             19.7669621007      -32.0567857779      -57.6910547995  TIP3      13166           0.0000000000
     91014     14527  TIP3      OH2            33.5508557891      -25.8005812369      -61.0320069908  TIP3      13167           0.0000000000
     91015     14527  TIP3      H1             33.6857424103      -24.8396288845      -60.9290262109  TIP3      13167           0.0000000000
     91016     14527  TIP3      H2             34.4735182457      -26.0949291826      -61.1276835269  TIP3      13167           0.0000000000
     91017     14528  TIP3      OH2            16.5643456705      -28.9642752223      -48.6066812954  TIP3      13168           0.0000000000
     91018     14528  TIP3      H1             16.0830338147      -29.0246205649      -49.4615815893  TIP3      13168           0.0000000000
     91019     14528  TIP3      H2             16.5910506143      -29.9092226020      -48.3872871707  TIP3      13168           0.0000000000
     91020     14529  TIP3      OH2            16.2839138330      -26.2295499768      -51.7826433196  TIP3      13169           0.0000000000
     91021     14529  TIP3      H1             17.2417439284      -26.3457528096      -51.8006031549  TIP3      13169           0.0000000000
     91022     14529  TIP3      H2             16.2001151557      -25.4190733565      -51.2655723760  TIP3      13169           0.0000000000
     91023     14530  TIP3      OH2            34.5909032485      -25.5542826925      -46.6582863823  TIP3      13170           0.0000000000
     91024     14530  TIP3      H1             34.5670349839      -26.4443221485      -46.2744096434  TIP3      13170           0.0000000000
     91025     14530  TIP3      H2             33.9226090727      -25.1764043664      -46.0499371841  TIP3      13170           0.0000000000
     91026     14531  TIP3      OH2            25.4126573432      -25.9766354314      -47.2778866884  TIP3      13171           0.0000000000
     91027     14531  TIP3      H1             25.5602931233      -25.1706602468      -46.7296005083  TIP3      13171           0.0000000000
     91028     14531  TIP3      H2             24.5625071687      -26.3357311948      -46.9796507283  TIP3      13171           0.0000000000
     91029     14532  TIP3      OH2            25.9056015284      -22.2422518045      -57.4564021273  TIP3      13172           0.0000000000
     91030     14532  TIP3      H1             25.8222437220      -22.3131970461      -58.4179781060  TIP3      13172           0.0000000000
     91031     14532  TIP3      H2             25.9328227011      -21.2842582907      -57.2780897784  TIP3      13172           0.0000000000
     91032     14533  TIP3      OH2            19.5573369326      -23.3693687275      -55.6205720102  TIP3      13173           0.0000000000
     91033     14533  TIP3      H1             19.6999660863      -23.7784588639      -54.7362988073  TIP3      13173           0.0000000000
     91034     14533  TIP3      H2             18.7062379867      -23.7740458700      -55.8562228531  TIP3      13173           0.0000000000
     91035     14534  TIP3      OH2            28.9335138055      -23.0365314264      -60.4666799032  TIP3      13174           0.0000000000
     91036     14534  TIP3      H1             29.4092055807      -23.7967646730      -60.8799092195  TIP3      13174           0.0000000000
     91037     14534  TIP3      H2             29.0198280738      -23.2837244565      -59.5271852432  TIP3      13174           0.0000000000
     91038     14535  TIP3      OH2            28.6707639022      -23.0876800974      -57.6521598215  TIP3      13175           0.0000000000
     91039     14535  TIP3      H1             27.7066220431      -23.0225686939      -57.4937769074  TIP3      13175           0.0000000000
     91040     14535  TIP3      H2             28.8898597971      -23.8580544892      -57.1152785141  TIP3      13175           0.0000000000
     91041     14536  TIP3      OH2            18.8114614553      -27.6838075090      -47.5938946308  TIP3      13176           0.0000000000
     91042     14536  TIP3      H1             18.9735027569      -28.0139505056      -46.7127713914  TIP3      13176           0.0000000000
     91043     14536  TIP3      H2             17.9288528819      -28.0217510227      -47.8702240814  TIP3      13176           0.0000000000
     91044     14537  TIP3      OH2            21.4807606653      -39.1949027589      -51.6745718836  TIP3      13177           0.0000000000
     91045     14537  TIP3      H1             20.5765820562      -39.2233562891      -52.0496685653  TIP3      13177           0.0000000000
     91046     14537  TIP3      H2             21.3914094888      -38.3621583893      -51.1770325852  TIP3      13177           0.0000000000
     91047     14538  TIP3      OH2            26.1713638772      -39.0318420648      -48.1980405822  TIP3      13178           0.0000000000
     91048     14538  TIP3      H1             26.6310046328      -39.7173157796      -47.7135562678  TIP3      13178           0.0000000000
     91049     14538  TIP3      H2             25.2797687038      -39.4292566943      -48.3258763660  TIP3      13178           0.0000000000
     91050     14539  TIP3      OH2            29.2642061505      -35.7204877033      -47.4763768007  TIP3      13179           0.0000000000
     91051     14539  TIP3      H1             28.9496426670      -35.8492974414      -46.5658487727  TIP3      13179           0.0000000000
     91052     14539  TIP3      H2             29.2886829555      -34.7558895147      -47.6188334139  TIP3      13179           0.0000000000
     91053     14540  TIP3      OH2            25.7660442359      -36.9645036680      -60.9399713656  TIP3      13180           0.0000000000
     91054     14540  TIP3      H1             25.4610281521      -36.9955266822      -60.0157187061  TIP3      13180           0.0000000000
     91055     14540  TIP3      H2             25.4826634370      -37.8372027684      -61.2261206081  TIP3      13180           0.0000000000
     91056     14541  TIP3      OH2            21.5639592339      -34.2164891774      -50.4355707275  TIP3      13181           0.0000000000
     91057     14541  TIP3      H1             20.8458973755      -34.2222940524      -49.7739727070  TIP3      13181           0.0000000000
     91058     14541  TIP3      H2             21.5444690527      -33.2935037819      -50.7763163016  TIP3      13181           0.0000000000
     91059     14542  TIP3      OH2            21.5499201454      -34.0675037188      -55.5568922160  TIP3      13182           0.0000000000
     91060     14542  TIP3      H1             20.6134132425      -34.3300383749      -55.6885515025  TIP3      13182           0.0000000000
     91061     14542  TIP3      H2             21.9250305356      -34.3794508630      -56.3999683892  TIP3      13182           0.0000000000
     91062     14543  TIP3      OH2            27.0636024628      -33.5898800293      -56.7974986650  TIP3      13183           0.0000000000
     91063     14543  TIP3      H1             26.6587381816      -32.7567638020      -57.1309694784  TIP3      13183           0.0000000000
     91064     14543  TIP3      H2             27.7506511464      -33.7552237545      -57.4650255354  TIP3      13183           0.0000000000
     91065     14544  TIP3      OH2            28.1021169431      -34.0976448066      -53.9383578780  TIP3      13184           0.0000000000
     91066     14544  TIP3      H1             27.8222937047      -33.5341130735      -54.6805947933  TIP3      13184           0.0000000000
     91067     14544  TIP3      H2             28.1989884487      -34.9470508595      -54.4097728817  TIP3      13184           0.0000000000
     91068     14545  TIP3      OH2            19.1560928087      -33.9045060421      -48.7122274266  TIP3      13185           0.0000000000
     91069     14545  TIP3      H1             19.3274874954      -33.5763827038      -47.8130223059  TIP3      13185           0.0000000000
     91070     14545  TIP3      H2             18.8118551878      -34.7956725621      -48.5442603439  TIP3      13185           0.0000000000
     91071     14546  TIP3      OH2            15.8669562473      -36.8065671168      -54.7656017882  TIP3      13186           0.0000000000
     91072     14546  TIP3      H1             16.5416358438      -36.8593932161      -54.0587570811  TIP3      13186           0.0000000000
     91073     14546  TIP3      H2             16.3162818824      -37.2051479241      -55.5304359135  TIP3      13186           0.0000000000
     91074     14547  TIP3      OH2            17.1484838428      -36.0957500577      -59.3312847402  TIP3      13187           0.0000000000
     91075     14547  TIP3      H1             17.6022279371      -35.5375311009      -59.9828788499  TIP3      13187           0.0000000000
     91076     14547  TIP3      H2             16.4450221789      -35.4865381996      -59.0434452348  TIP3      13187           0.0000000000
     91077     14548  TIP3      OH2            27.3042421974      -32.5264569245      -49.3596973667  TIP3      13188           0.0000000000
     91078     14548  TIP3      H1             27.6794617714      -33.1952252372      -49.9677401742  TIP3      13188           0.0000000000
     91079     14548  TIP3      H2             26.8309905712      -33.0592872966      -48.6983402541  TIP3      13188           0.0000000000
     91080     14549  TIP3      OH2            24.1037099176      -36.5276044269      -54.5463965331  TIP3      13189           0.0000000000
     91081     14549  TIP3      H1             23.1734498147      -36.5277136914      -54.2473172935  TIP3      13189           0.0000000000
     91082     14549  TIP3      H2             24.5856097772      -36.7057249194      -53.7228465084  TIP3      13189           0.0000000000
     91083     14550  TIP3      OH2            18.9172010698      -34.9831506213      -55.7022150061  TIP3      13190           0.0000000000
     91084     14550  TIP3      H1             18.0223843974      -34.8331240826      -56.0709874204  TIP3      13190           0.0000000000
     91085     14550  TIP3      H2             19.1924806538      -35.8338462805      -56.0880630381  TIP3      13190           0.0000000000
     91086     14551  TIP3      OH2            22.5516001928      -34.9447401634      -58.0688192825  TIP3      13191           0.0000000000
     91087     14551  TIP3      H1             23.5019832239      -34.8194837359      -57.8734571458  TIP3      13191           0.0000000000
     91088     14551  TIP3      H2             22.3149832870      -34.2600651161      -58.7230734570  TIP3      13191           0.0000000000
     91089     14552  TIP3      OH2            28.5118125895      -37.3652658063      -51.2923136848  TIP3      13192           0.0000000000
     91090     14552  TIP3      H1             27.8138848179      -37.2565498044      -50.6142773411  TIP3      13192           0.0000000000
     91091     14552  TIP3      H2             28.0062813658      -37.5659370114      -52.0925978902  TIP3      13192           0.0000000000
     91092     14553  TIP3      OH2            21.2542938322      -33.7902416351      -60.4527827626  TIP3      13193           0.0000000000
     91093     14553  TIP3      H1             20.7137907464      -34.1119483795      -61.1897745440  TIP3      13193           0.0000000000
     91094     14553  TIP3      H2             22.0682417644      -33.5287057916      -60.9143591665  TIP3      13193           0.0000000000
     91095     14554  TIP3      OH2            25.3843776133      -33.7771951746      -52.6533343919  TIP3      13194           0.0000000000
     91096     14554  TIP3      H1             25.9787797551      -34.3154339836      -53.1885495847  TIP3      13194           0.0000000000
     91097     14554  TIP3      H2             25.2409351486      -34.3252050510      -51.8706961290  TIP3      13194           0.0000000000
     91098     14555  TIP3      OH2            20.4400606420      -37.6469450212      -56.1909955841  TIP3      13195           0.0000000000
     91099     14555  TIP3      H1             20.1138771321      -38.5559652073      -56.2409372280  TIP3      13195           0.0000000000
     91100     14555  TIP3      H2             21.1911586162      -37.6918805341      -56.7890011160  TIP3      13195           0.0000000000
     91101     14556  TIP3      OH2            24.0270863471      -35.4765354991      -50.2449415711  TIP3      13196           0.0000000000
     91102     14556  TIP3      H1             23.2038661952      -34.9509495133      -50.1668359312  TIP3      13196           0.0000000000
     91103     14556  TIP3      H2             24.5825014205      -35.1176574748      -49.5231074098  TIP3      13196           0.0000000000
     91104     14557  TIP3      OH2            24.6202716600      -29.2536789381      -58.5079402265  TIP3      13197           0.0000000000
     91105     14557  TIP3      H1             23.8164984740      -29.6975270305      -58.8641905358  TIP3      13197           0.0000000000
     91106     14557  TIP3      H2             24.3850265557      -29.1184338668      -57.5720825699  TIP3      13197           0.0000000000
     91107     14558  TIP3      OH2            31.8424508031      -30.0713549373      -49.7628996381  TIP3      13198           0.0000000000
     91108     14558  TIP3      H1             32.3716495331      -29.5372312752      -50.3802198478  TIP3      13198           0.0000000000
     91109     14558  TIP3      H2             30.9438270728      -29.9747104340      -50.1532738167  TIP3      13198           0.0000000000
     91110     14559  TIP3      OH2            28.4712450392      -36.4193644604      -60.3813861736  TIP3      13199           0.0000000000
     91111     14559  TIP3      H1             27.5230815796      -36.2612849052      -60.5312599654  TIP3      13199           0.0000000000
     91112     14559  TIP3      H2             28.7786511025      -35.5555849471      -60.0520029298  TIP3      13199           0.0000000000
     91113     14560  TIP3      OH2            25.8231808182      -28.9997859193      -47.4766775012  TIP3      13200           0.0000000000
     91114     14560  TIP3      H1             25.8205012286      -29.3721510545      -46.5831093957  TIP3      13200           0.0000000000
     91115     14560  TIP3      H2             25.9127328629      -28.0654463017      -47.2216720264  TIP3      13200           0.0000000000
     91116     14561  TIP3      OH2            29.1816335948      -34.4948718188      -58.6968996546  TIP3      13201           0.0000000000
     91117     14561  TIP3      H1             30.0800476177      -34.6256050500      -58.3355233137  TIP3      13201           0.0000000000
     91118     14561  TIP3      H2             29.2600422750      -33.6891963408      -59.2246631878  TIP3      13201           0.0000000000
     91119     14562  TIP3      OH2            19.7227663667      -29.8352406128      -52.7411119629  TIP3      13202           0.0000000000
     91120     14562  TIP3      H1             20.4105771712      -29.9135563369      -53.4300159477  TIP3      13202           0.0000000000
     91121     14562  TIP3      H2             19.7807221656      -30.6956939077      -52.2900460639  TIP3      13202           0.0000000000
     91122     14563  TIP3      OH2            26.7184062397      -27.7576946487      -59.4546895864  TIP3      13203           0.0000000000
     91123     14563  TIP3      H1             26.3357117801      -26.9078346246      -59.1488607977  TIP3      13203           0.0000000000
     91124     14563  TIP3      H2             25.9701321262      -28.3759104829      -59.3101433000  TIP3      13203           0.0000000000
     91125     14564  TIP3      OH2            16.5784072680      -31.4110310009      -47.3849338695  TIP3      13204           0.0000000000
     91126     14564  TIP3      H1             17.1124264628      -31.9278018932      -46.7677285076  TIP3      13204           0.0000000000
     91127     14564  TIP3      H2             16.1490194023      -32.0522545174      -47.9945804562  TIP3      13204           0.0000000000
     91128     14565  TIP3      OH2            28.2315294091      -25.7624377587      -47.5615257802  TIP3      13205           0.0000000000
     91129     14565  TIP3      H1             27.4201838413      -26.2906198470      -47.6759503992  TIP3      13205           0.0000000000
     91130     14565  TIP3      H2             28.4458779613      -26.2417445702      -46.7345779236  TIP3      13205           0.0000000000
     91131     14566  TIP3      OH2            34.0332050157      -34.3328538899      -58.9429061922  TIP3      13206           0.0000000000
     91132     14566  TIP3      H1             33.5486293332      -34.6869821511      -59.7010356988  TIP3      13206           0.0000000000
     91133     14566  TIP3      H2             34.1692773288      -33.4085472488      -59.2449255229  TIP3      13206           0.0000000000
     91134     14567  TIP3      OH2            34.0504576139      -28.6173643868      -46.1938272020  TIP3      13207           0.0000000000
     91135     14567  TIP3      H1             33.1819185714      -28.2558675053      -46.5250477199  TIP3      13207           0.0000000000
     91136     14567  TIP3      H2             34.5901037168      -28.5178716618      -46.9918239665  TIP3      13207           0.0000000000
     91137     14568  TIP3      OH2            32.3936179737      -25.5218938559      -58.5416011009  TIP3      13208           0.0000000000
     91138     14568  TIP3      H1             31.9985285060      -26.3477093223      -58.2420527834  TIP3      13208           0.0000000000
     91139     14568  TIP3      H2             32.6676801012      -25.7115334772      -59.4680061031  TIP3      13208           0.0000000000
     91140     14569  TIP3      OH2            29.5657430964      -30.7007247714      -51.4557716588  TIP3      13209           0.0000000000
     91141     14569  TIP3      H1             28.6284639292      -30.9265897484      -51.5694186824  TIP3      13209           0.0000000000
     91142     14569  TIP3      H2             30.0053267279      -31.4611619082      -51.8840884642  TIP3      13209           0.0000000000
     91143     14570  TIP3      OH2            22.0932308918      -26.3797262179      -55.3582779138  TIP3      13210           0.0000000000
     91144     14570  TIP3      H1             22.5946035965      -25.5726437060      -55.5653153775  TIP3      13210           0.0000000000
     91145     14570  TIP3      H2             21.2151399927      -26.1460272962      -55.6875330359  TIP3      13210           0.0000000000
     91146     14571  TIP3      OH2            17.8512255937      -31.5135766689      -60.8279697875  TIP3      13211           0.0000000000
     91147     14571  TIP3      H1             18.4420444512      -30.8818539757      -60.3989693940  TIP3      13211           0.0000000000
     91148     14571  TIP3      H2             16.9596992315      -31.2590002172      -60.5188550498  TIP3      13211           0.0000000000
     91149     14572  TIP3      OH2            23.5116957907      -28.7162184760      -55.8298156766  TIP3      13212           0.0000000000
     91150     14572  TIP3      H1             23.2012376758      -27.7937671240      -55.7520690817  TIP3      13212           0.0000000000
     91151     14572  TIP3      H2             22.7866657476      -29.2030205843      -55.3929731656  TIP3      13212           0.0000000000
     91152     14573  TIP3      OH2            23.9650587109      -24.5306702532      -49.4414071469  TIP3      13213           0.0000000000
     91153     14573  TIP3      H1             24.4193865684      -23.7184763206      -49.7037271420  TIP3      13213           0.0000000000
     91154     14573  TIP3      H2             24.5893191300      -24.8849290053      -48.7767495377  TIP3      13213           0.0000000000
     91155     14574  TIP3      OH2            22.1976362038      -23.7205591565      -56.3045524126  TIP3      13214           0.0000000000
     91156     14574  TIP3      H1             21.2303075548      -23.5975874048      -56.1613925426  TIP3      13214           0.0000000000
     91157     14574  TIP3      H2             22.5481027119      -22.8806532251      -55.9549220513  TIP3      13214           0.0000000000
     91158     14575  TIP3      OH2            27.5038108237      -28.5277415061      -49.8254536293  TIP3      13215           0.0000000000
     91159     14575  TIP3      H1             27.1693904019      -28.6951384814      -48.9185583839  TIP3      13215           0.0000000000
     91160     14575  TIP3      H2             28.1442916700      -29.2422679470      -49.9589874671  TIP3      13215           0.0000000000
     91161     14576  TIP3      OH2            29.7662578803      -27.5089750901      -60.6891308571  TIP3      13216           0.0000000000
     91162     14576  TIP3      H1             30.0675589621      -27.9401787905      -59.8657306631  TIP3      13216           0.0000000000
     91163     14576  TIP3      H2             28.8087978568      -27.6360086988      -60.6220127728  TIP3      13216           0.0000000000
     91164     14577  TIP3      OH2            30.2726349949      -23.9299578546      -47.2973463402  TIP3      13217           0.0000000000
     91165     14577  TIP3      H1             29.5988982980      -24.4654503616      -47.7752524403  TIP3      13217           0.0000000000
     91166     14577  TIP3      H2             30.4923647159      -23.2555588241      -47.9634217194  TIP3      13217           0.0000000000
     91167     14578  TIP3      OH2            34.3013003760      -23.0788094352      -60.4557678209  TIP3      13218           0.0000000000
     91168     14578  TIP3      H1             34.9900023128      -22.4419200231      -60.7110641921  TIP3      13218           0.0000000000
     91169     14578  TIP3      H2             33.5756056690      -22.4780619965      -60.1758731020  TIP3      13218           0.0000000000
     91170     14579  TIP3      OH2            18.3791506001      -36.7205467779      -47.9523021306  TIP3      13219           0.0000000000
     91171     14579  TIP3      H1             17.4687279003      -36.3795067533      -47.9889736267  TIP3      13219           0.0000000000
     91172     14579  TIP3      H2             18.2640803118      -37.5675475729      -47.5021142774  TIP3      13219           0.0000000000
     91173     14580  TIP3      OH2            30.6056722157      -28.8499504762      -58.4911763339  TIP3      13220           0.0000000000
     91174     14580  TIP3      H1             30.3569617669      -29.6205724529      -57.9409447726  TIP3      13220           0.0000000000
     91175     14580  TIP3      H2             31.5482458562      -28.7619358622      -58.2688262496  TIP3      13220           0.0000000000
     91176     14581  TIP3      OH2            17.9938821470      -24.9096577666      -49.5101696159  TIP3      13221           0.0000000000
     91177     14581  TIP3      H1             18.2732764964      -25.8367446236      -49.5006820619  TIP3      13221           0.0000000000
     91178     14581  TIP3      H2             18.2276728061      -24.6077735845      -48.6196428243  TIP3      13221           0.0000000000
     91179     14582  TIP3      OH2            22.7026102565      -26.8327408745      -59.7998179343  TIP3      13222           0.0000000000
     91180     14582  TIP3      H1             22.9922091774      -27.3822206993      -59.0588573770  TIP3      13222           0.0000000000
     91181     14582  TIP3      H2             22.8180714165      -25.9202807185      -59.4604304091  TIP3      13222           0.0000000000
     91182     14583  TIP3      OH2            19.2184081409      -29.5903739565      -59.3244939417  TIP3      13223           0.0000000000
     91183     14583  TIP3      H1             18.5474876999      -29.1879131521      -58.7316048404  TIP3      13223           0.0000000000
     91184     14583  TIP3      H2             19.7892094290      -28.8354591918      -59.5418196089  TIP3      13223           0.0000000000
     91185     14584  TIP3      OH2            27.1182512576      -36.8373564205      -49.0265952751  TIP3      13224           0.0000000000
     91186     14584  TIP3      H1             27.8179831561      -36.8592588626      -48.3606778630  TIP3      13224           0.0000000000
     91187     14584  TIP3      H2             26.7151337981      -37.7258904433      -48.8723819522  TIP3      13224           0.0000000000
     91188     14585  TIP3      OH2            27.8663296354      -37.3676739734      -57.8694133426  TIP3      13225           0.0000000000
     91189     14585  TIP3      H1             28.0640046912      -36.8692537241      -58.6893839274  TIP3      13225           0.0000000000
     91190     14585  TIP3      H2             28.4185093648      -36.9056813160      -57.2218430825  TIP3      13225           0.0000000000
     91191     14586  TIP3      OH2            25.5303738560      -25.1742188467      -59.0591373683  TIP3      13226           0.0000000000
     91192     14586  TIP3      H1             24.7037389303      -24.6670263836      -59.0109724354  TIP3      13226           0.0000000000
     91193     14586  TIP3      H2             26.0615675999      -24.6793486943      -59.6888055567  TIP3      13226           0.0000000000
     91194     14587  TIP3      OH2            25.0585695300      -35.6142539919      -57.0721792299  TIP3      13227           0.0000000000
     91195     14587  TIP3      H1             25.8459959183      -35.0340144095      -57.0423994331  TIP3      13227           0.0000000000
     91196     14587  TIP3      H2             24.8021048649      -35.7194402605      -56.1371936339  TIP3      13227           0.0000000000
     91197     14588  TIP3      OH2            25.6958599461      -34.5364987947      -47.9444750725  TIP3      13228           0.0000000000
     91198     14588  TIP3      H1             25.6868254651      -34.0299972887      -47.1272750103  TIP3      13228           0.0000000000
     91199     14588  TIP3      H2             26.2269077331      -35.3336460870      -47.7971901268  TIP3      13228           0.0000000000
     91200     14589  TIP3      OH2            25.9487905406      -38.5474768008      -56.1444146808  TIP3      13229           0.0000000000
     91201     14589  TIP3      H1             25.5995092959      -37.8816549593      -55.5287850579  TIP3      13229           0.0000000000
     91202     14589  TIP3      H2             26.6041143301      -37.9940935156      -56.6256261285  TIP3      13229           0.0000000000
     91203     14590  TIP3      OH2            22.8793678401      -24.1512423096      -59.0532646781  TIP3      13230           0.0000000000
     91204     14590  TIP3      H1             23.0641912429      -23.3265461159      -59.5495196478  TIP3      13230           0.0000000000
     91205     14590  TIP3      H2             22.6546401986      -23.8092719362      -58.1596564911  TIP3      13230           0.0000000000
     91206     14591  TIP3      OH2            21.5841184268      -37.4306678226      -59.4589486925  TIP3      13231           0.0000000000
     91207     14591  TIP3      H1             21.5176661850      -36.5277880613      -59.1066590078  TIP3      13231           0.0000000000
     91208     14591  TIP3      H2             22.4901868475      -37.6663363253      -59.1906844512  TIP3      13231           0.0000000000
     91209     14592  TIP3      OH2            31.8044687558      -36.6355890376      -47.0046498996  TIP3      13232           0.0000000000
     91210     14592  TIP3      H1             30.8653215829      -36.4021326827      -47.1501861727  TIP3      13232           0.0000000000
     91211     14592  TIP3      H2             32.0946979255      -36.7417570509      -47.9205880460  TIP3      13232           0.0000000000
     91212     14593  TIP3      OH2            30.4128473414      -32.9176225317      -53.0169139652  TIP3      13233           0.0000000000
     91213     14593  TIP3      H1             29.5875175888      -33.3584750515      -53.2981030519  TIP3      13233           0.0000000000
     91214     14593  TIP3      H2             30.8858699782      -33.6071254520      -52.4992504257  TIP3      13233           0.0000000000
     91215     14594  TIP3      OH2            19.8326675241      -26.9896956584      -60.4187748864  TIP3      13234           0.0000000000
     91216     14594  TIP3      H1             20.4839208036      -26.3536896404      -60.1003882816  TIP3      13234           0.0000000000
     91217     14594  TIP3      H2             20.3348042103      -27.4360161559      -61.1094520143  TIP3      13234           0.0000000000
     91218     14595  TIP3      OH2            31.4952666190      -23.7189218604      -51.4537662046  TIP3      13235           0.0000000000
     91219     14595  TIP3      H1             31.3563724261      -22.9256555320      -51.9947243142  TIP3      13235           0.0000000000
     91220     14595  TIP3      H2             32.4114538499      -23.5858128430      -51.1121377695  TIP3      13235           0.0000000000
     91221     14596  TIP3      OH2            18.9267414158      -39.4105554062      -52.5736983247  TIP3      13236           0.0000000000
     91222     14596  TIP3      H1             18.7104286748      -39.4237180966      -53.5327060864  TIP3      13236           0.0000000000
     91223     14596  TIP3      H2             18.6035268024      -40.2960733496      -52.3105648906  TIP3      13236           0.0000000000
     91224     14597  TIP3      OH2            17.9222500131      -25.6123645391      -56.3976753579  TIP3      13237           0.0000000000
     91225     14597  TIP3      H1             17.0676419049      -25.1628991444      -56.4389978286  TIP3      13237           0.0000000000
     91226     14597  TIP3      H2             18.4011610165      -25.1479664803      -57.0985033453  TIP3      13237           0.0000000000
     91227     14598  TIP3      OH2            30.5077244922      -24.7404420387      -61.8968863912  TIP3      13238           0.0000000000
     91228     14598  TIP3      H1             30.7614692967      -25.5642494285      -61.4353611707  TIP3      13238           0.0000000000
     91229     14598  TIP3      H2             31.2751357887      -24.5584904323      -62.4513710908  TIP3      13238           0.0000000000
     91230     14599  TIP3      OH2            29.7528296177      -29.7612056608      -47.9450379296  TIP3      13239           0.0000000000
     91231     14599  TIP3      H1             30.2335304570      -29.0167799100      -47.5261769077  TIP3      13239           0.0000000000
     91232     14599  TIP3      H2             28.8974575320      -29.3572901012      -47.6646463448  TIP3      13239           0.0000000000
     91233     14600  TIP3      OH2            22.6189028132      -30.8126239670      -59.6615936441  TIP3      13240           0.0000000000
     91234     14600  TIP3      H1             22.0997956294      -31.3477412453      -59.0443274544  TIP3      13240           0.0000000000
     91235     14600  TIP3      H2             22.9021365618      -31.4878993561      -60.3214858503  TIP3      13240           0.0000000000
     91236     14601  TIP3      OH2            21.8412965419      -33.0356478728      -47.4249966776  TIP3      13241           0.0000000000
     91237     14601  TIP3      H1             21.2929292214      -32.2981906479      -47.1169036180  TIP3      13241           0.0000000000
     91238     14601  TIP3      H2             22.2612448311      -32.6482992959      -48.2096155114  TIP3      13241           0.0000000000
     91239     14602  TIP3      OH2            23.6683683897      -32.6259464337      -61.4700131888  TIP3      13242           0.0000000000
     91240     14602  TIP3      H1             23.5634519542      -32.7646541522      -62.4210672318  TIP3      13242           0.0000000000
     91241     14602  TIP3      H2             24.6427779924      -32.5082766640      -61.3735865849  TIP3      13242           0.0000000000
     91242     14603  TIP3      OH2            22.1926114427      -35.6417909531      -46.3207436827  TIP3      13243           0.0000000000
     91243     14603  TIP3      H1             22.3711381358      -36.3496736754      -46.9558981037  TIP3      13243           0.0000000000
     91244     14603  TIP3      H2             22.2230774640      -34.8341329725      -46.8677757361  TIP3      13243           0.0000000000
     91245     14604  TIP3      OH2            22.6573404137      -37.2862371345      -48.7677768881  TIP3      13244           0.0000000000
     91246     14604  TIP3      H1             23.1841770154      -36.7880030461      -49.4376772325  TIP3      13244           0.0000000000
     91247     14604  TIP3      H2             21.7808826292      -37.3737741199      -49.2021834554  TIP3      13244           0.0000000000
     91248     14605  TIP3      OH2            24.2108717236      -31.8092663397      -48.5485524862  TIP3      13245           0.0000000000
     91249     14605  TIP3      H1             24.9873600400      -31.9253062389      -49.1082005525  TIP3      13245           0.0000000000
     91250     14605  TIP3      H2             23.8563334502      -30.9474856184      -48.8298189949  TIP3      13245           0.0000000000
     91251     14606  TIP3      OH2            23.4287603232      -39.7690630346      -48.3681127872  TIP3      13246           0.0000000000
     91252     14606  TIP3      H1             23.2794974506      -38.8032154274      -48.4642694410  TIP3      13246           0.0000000000
     91253     14606  TIP3      H2             22.6524123936      -40.1244313889      -48.7995824058  TIP3      13246           0.0000000000
     91254     14607  TIP3      OH2            23.5134001638      -21.9301414295      -60.4950486416  TIP3      13247           0.0000000000
     91255     14607  TIP3      H1             24.4716152185      -21.8066163767      -60.3271810164  TIP3      13247           0.0000000000
     91256     14607  TIP3      H2             23.3173342732      -21.2153890549      -61.0925432904  TIP3      13247           0.0000000000
     91257     14608  TIP3      OH2            17.1002908685      -27.2780446540      -60.9334449570  TIP3      13248           0.0000000000
     91258     14608  TIP3      H1             18.0536870638      -27.2462111496      -60.7079966407  TIP3      13248           0.0000000000
     91259     14608  TIP3      H2             17.0630973293      -27.9296983821      -61.6450320636  TIP3      13248           0.0000000000
     91260     14609  TIP3      OH2            15.8381738596      -21.9430786712      -55.9525510885  TIP3      13249           0.0000000000
     91261     14609  TIP3      H1             15.1213992236      -22.4280253129      -56.4227928536  TIP3      13249           0.0000000000
     91262     14609  TIP3      H2             16.1185520141      -22.6005679510      -55.2937531771  TIP3      13249           0.0000000000
     91263     14610  TIP3      OH2            16.6588653026      -23.8121510844      -54.0829531905  TIP3      13250           0.0000000000
     91264     14610  TIP3      H1             16.3048130396      -24.6887147632      -53.8775061548  TIP3      13250           0.0000000000
     91265     14610  TIP3      H2             16.8883565060      -23.4812011137      -53.1984658542  TIP3      13250           0.0000000000
     91266     14611  TIP3      OH2            34.1224554779      -22.9448545376      -51.1824757793  TIP3      13251           0.0000000000
     91267     14611  TIP3      H1             34.2079204475      -22.8641068772      -50.2094534761  TIP3      13251           0.0000000000
     91268     14611  TIP3      H2             34.9292268478      -22.4716557400      -51.4245989195  TIP3      13251           0.0000000000
     91269     14612  TIP3      OH2            33.8112607904      -23.4240416872      -48.2641779721  TIP3      13252           0.0000000000
     91270     14612  TIP3      H1             33.3081493387      -24.2023487362      -48.5672634929  TIP3      13252           0.0000000000
     91271     14612  TIP3      H2             34.3074314194      -23.8612627097      -47.5422916696  TIP3      13252           0.0000000000
     91272     14613  TIP3      OH2            33.5517826795      -29.3896223954      -58.1129657345  TIP3      13253           0.0000000000
     91273     14613  TIP3      H1             34.3939533620      -28.9633808007      -57.8917847446  TIP3      13253           0.0000000000
     91274     14613  TIP3      H2             33.5219427179      -30.0817549814      -57.4156150866  TIP3      13253           0.0000000000
     91275     14614  TIP3      OH2            33.8904376865      -31.3025330829      -56.2384948072  TIP3      13254           0.0000000000
     91276     14614  TIP3      H1             33.1426186553      -31.7953485621      -55.8329516005  TIP3      13254           0.0000000000
     91277     14614  TIP3      H2             34.4867982980      -31.1546317532      -55.4735650332  TIP3      13254           0.0000000000
     91278     14615  TIP3      OH2            33.6247389610      -28.6051332806      -51.2886078185  TIP3      13255           0.0000000000
     91279     14615  TIP3      H1             34.4638172965      -28.9782701270      -51.6188485940  TIP3      13255           0.0000000000
     91280     14615  TIP3      H2             33.7889628566      -27.6496717267      -51.3910034554  TIP3      13255           0.0000000000
     91281     14616  TIP3      OH2            32.1761262406      -25.6704886279      -48.9996804423  TIP3      13256           0.0000000000
     91282     14616  TIP3      H1             31.5066626297      -25.3533232672      -48.3677442658  TIP3      13256           0.0000000000
     91283     14616  TIP3      H2             31.6283718736      -26.1265890767      -49.6630082439  TIP3      13256           0.0000000000
     91284     14617  TIP3      OH2            34.1683861801      -31.4737084273      -59.8425454451  TIP3      13257           0.0000000000
     91285     14617  TIP3      H1             33.6052244405      -31.1228254669      -60.5353884595  TIP3      13257           0.0000000000
     91286     14617  TIP3      H2             34.1208167339      -30.7629199927      -59.1698506088  TIP3      13257           0.0000000000
     91287     14618  TIP3      OH2            31.7088361828      -32.8225100025      -55.6646508464  TIP3      13258           0.0000000000
     91288     14618  TIP3      H1             31.5606147745      -33.7778729701      -55.6755012747  TIP3      13258           0.0000000000
     91289     14618  TIP3      H2             31.3809389269      -32.5928031255      -54.7762263927  TIP3      13258           0.0000000000
     91290     14619  TIP3      OH2            16.7201461065      -30.7385350068      -51.6026995606  TIP3      13259           0.0000000000
     91291     14619  TIP3      H1             16.9006780488      -30.8149668832      -52.5614671317  TIP3      13259           0.0000000000
     91292     14619  TIP3      H2             17.6089215163      -30.9066277253      -51.2344779880  TIP3      13259           0.0000000000
     91293     14620  TIP3      OH2            32.6320394823      -30.8840343016      -45.9795380970  TIP3      13260           0.0000000000
     91294     14620  TIP3      H1             33.2132325487      -31.6017228352      -45.7781666604  TIP3      13260           0.0000000000
     91295     14620  TIP3      H2             33.1631365972      -30.0635290416      -46.0161203132  TIP3      13260           0.0000000000
     91296     14621  TIP3      OH2            31.7920566277      -36.8258457474      -62.1936140865  TIP3      13261           0.0000000000
     91297     14621  TIP3      H1             32.4037722303      -37.2025587604      -61.5404950147  TIP3      13261           0.0000000000
     91298     14621  TIP3      H2             30.9359098329      -37.2239152651      -61.9969602988  TIP3      13261           0.0000000000
     91299     14622  TIP3      OH2            31.3806950483      -35.2389557085      -57.1880731357  TIP3      13262           0.0000000000
     91300     14622  TIP3      H1             31.6836153723      -36.1636354339      -57.0664082251  TIP3      13262           0.0000000000
     91301     14622  TIP3      H2             32.1740222226      -34.8393381964      -57.5702773744  TIP3      13262           0.0000000000
     91302     14623  TIP3      OH2            32.0227452543      -34.7112183154      -51.7608903508  TIP3      13263           0.0000000000
     91303     14623  TIP3      H1             32.9756495012      -34.4502812599      -51.7691997665  TIP3      13263           0.0000000000
     91304     14623  TIP3      H2             31.8225378940      -34.5430992988      -50.8217588148  TIP3      13263           0.0000000000
     91305     14624  TIP3      OH2            32.0794940178      -33.9406852235      -48.9651894723  TIP3      13264           0.0000000000
     91306     14624  TIP3      H1             31.2037075377      -33.6601073522      -48.6221218292  TIP3      13264           0.0000000000
     91307     14624  TIP3      H2             32.5127565652      -33.0897555182      -49.1947397811  TIP3      13264           0.0000000000
     91308     14625  TIP3      OH2            32.0340222356      -37.9731352891      -57.1551680621  TIP3      13265           0.0000000000
     91309     14625  TIP3      H1             32.2101810420      -38.4014679427      -56.2919449201  TIP3      13265           0.0000000000
     91310     14625  TIP3      H2             31.4086564300      -38.5951907467      -57.5843408583  TIP3      13265           0.0000000000
     91311     14626  TIP3      OH2            17.5005103378      -37.1438710645      -52.5945096818  TIP3      13266           0.0000000000
     91312     14626  TIP3      H1             18.0013092862      -37.9488780046      -52.3365127595  TIP3      13266           0.0000000000
     91313     14626  TIP3      H2             18.0625897079      -36.4547360903      -52.2101079848  TIP3      13266           0.0000000000
     91314     14627  TIP3      OH2            15.8193445122      -34.1405762237      -51.5465956863  TIP3      13267           0.0000000000
     91315     14627  TIP3      H1             16.3793824527      -34.3887910853      -52.3090426125  TIP3      13267           0.0000000000
     91316     14627  TIP3      H2             16.2856954816      -33.3358476564      -51.2754576345  TIP3      13267           0.0000000000
     91317     14628  TIP3      OH2            33.8978619178      -37.9043998132      -60.5472295720  TIP3      13268           0.0000000000
     91318     14628  TIP3      H1             34.2763846977      -38.6120484840      -61.0922120999  TIP3      13268           0.0000000000
     91319     14628  TIP3      H2             34.5909677847      -37.2329194591      -60.5969207427  TIP3      13268           0.0000000000
     91320     14629  TIP3      OH2            16.1971036059      -37.9399678769      -57.5031337636  TIP3      13269           0.0000000000
     91321     14629  TIP3      H1             15.2509900773      -37.7188432077      -57.5955388420  TIP3      13269           0.0000000000
     91322     14629  TIP3      H2             16.6003489877      -37.4019131222      -58.2085455054  TIP3      13269           0.0000000000
     91323     14630  TIP3      OH2            30.9119604680      -22.9635203844      -55.5358542529  TIP3      13270           0.0000000000
     91324     14630  TIP3      H1             31.5317093382      -23.1570220623      -56.2760630305  TIP3      13270           0.0000000000
     91325     14630  TIP3      H2             31.3372110917      -22.2917353907      -54.9775547111  TIP3      13270           0.0000000000
     91326     14631  TIP3      OH2            16.1484446614      -39.1589925776      -49.1383618751  TIP3      13271           0.0000000000
     91327     14631  TIP3      H1             15.4676721377      -39.3912191189      -48.4976647683  TIP3      13271           0.0000000000
     91328     14631  TIP3      H2             15.6948683299      -38.5400561265      -49.7319748605  TIP3      13271           0.0000000000
     91329     14632  TIP3      OH2            21.2564519424      -25.0559347883      -48.7737586836  TIP3      13272           0.0000000000
     91330     14632  TIP3      H1             20.9173800010      -24.1795423563      -49.0096304838  TIP3      13272           0.0000000000
     91331     14632  TIP3      H2             22.1978230212      -24.9366875718      -49.0249861665  TIP3      13272           0.0000000000
     91332     14633  TIP3      OH2            25.5983200173      -23.6221381484      -45.7722843375  TIP3      13273           0.0000000000
     91333     14633  TIP3      H1             25.8053745231      -23.9545212091      -44.8894350385  TIP3      13273           0.0000000000
     91334     14633  TIP3      H2             26.4767894837      -23.3413020506      -46.0787008617  TIP3      13273           0.0000000000
     91335     14634  TIP3      OH2            27.8550862283      -22.2715771151      -46.5772146619  TIP3      13274           0.0000000000
     91336     14634  TIP3      H1             28.5356076082      -22.9342601990      -46.7852087108  TIP3      13274           0.0000000000
     91337     14634  TIP3      H2             28.2526150626      -21.9475232989      -45.7467974032  TIP3      13274           0.0000000000
     91338     14635  TIP3      OH2            32.8457053042      -39.6884051259      -47.4568484928  TIP3      13275           0.0000000000
     91339     14635  TIP3      H1             31.9981898986      -39.3852201913      -47.8084411087  TIP3      13275           0.0000000000
     91340     14635  TIP3      H2             33.0157669152      -40.5153874236      -47.8679096590  TIP3      13275           0.0000000000
     91341     14636  TIP3      OH2            18.6894292394      -21.7707344094      -48.7365191216  TIP3      13276           0.0000000000
     91342     14636  TIP3      H1             17.9401359713      -21.2933308068      -49.1155452729  TIP3      13276           0.0000000000
     91343     14636  TIP3      H2             18.3639881985      -21.9581133401      -47.8410987983  TIP3      13276           0.0000000000
     91344     14637  TIP3      OH2            21.1574937492      -22.1897526026      -49.6733934308  TIP3      13277           0.0000000000
     91345     14637  TIP3      H1             20.2762136561      -22.0407277140      -49.2542887894  TIP3      13277           0.0000000000
     91346     14637  TIP3      H2             21.0892590045      -21.6191632046      -50.4585350725  TIP3      13277           0.0000000000
     91347     14638  TIP3      OH2            25.8668473770      -22.2945075910      -50.5103942484  TIP3      13278           0.0000000000
     91348     14638  TIP3      H1             25.4020930172      -21.7336685766      -51.1494967426  TIP3      13278           0.0000000000
     91349     14638  TIP3      H2             25.9975438655      -21.6714561544      -49.7673076866  TIP3      13278           0.0000000000
     91350     14639  TIP3      OH2            28.1857705499      -23.4532966675      -49.5842226369  TIP3      13279           0.0000000000
     91351     14639  TIP3      H1             27.2928521770      -23.1932186613      -49.8446815522  TIP3      13279           0.0000000000
     91352     14639  TIP3      H2             28.6248489312      -22.5941398543      -49.5868392750  TIP3      13279           0.0000000000
     91353     14640  TIP3      OH2            30.7681310340      -21.9096703443      -49.2410906346  TIP3      13280           0.0000000000
     91354     14640  TIP3      H1             30.6593798480      -20.9601769735      -49.4628641086  TIP3      13280           0.0000000000
     91355     14640  TIP3      H2             30.9488446811      -22.2784553736      -50.1138629765  TIP3      13280           0.0000000000
     91356     14641  TIP3      OH2            18.1481648045      -23.1366490423      -51.7958137435  TIP3      13281           0.0000000000
     91357     14641  TIP3      H1             18.0816223430      -23.5718093325      -50.9179269476  TIP3      13281           0.0000000000
     91358     14641  TIP3      H2             18.9620742822      -23.5158084105      -52.1870177199  TIP3      13281           0.0000000000
     91359     14642  TIP3      OH2            20.2278253720      -24.4251507778      -53.1483974274  TIP3      13282           0.0000000000
     91360     14642  TIP3      H1             20.0619192270      -25.3590751227      -52.9190183068  TIP3      13282           0.0000000000
     91361     14642  TIP3      H2             21.0829120055      -24.2733787366      -52.6913897246  TIP3      13282           0.0000000000
     91362     14643  TIP3      OH2            22.8155856424      -23.9360839545      -52.2739819310  TIP3      13283           0.0000000000
     91363     14643  TIP3      H1             22.9873347656      -24.8598673813      -52.5364432103  TIP3      13283           0.0000000000
     91364     14643  TIP3      H2             22.8757528746      -23.9982389255      -51.3062920330  TIP3      13283           0.0000000000
     91365     14644  TIP3      OH2            26.2657495208      -38.2595010514      -53.1178671284  TIP3      13284           0.0000000000
     91366     14644  TIP3      H1             25.6301570209      -38.9496103667      -52.8530043630  TIP3      13284           0.0000000000
     91367     14644  TIP3      H2             26.8582535304      -38.7801175537      -53.6778152460  TIP3      13284           0.0000000000
     91368     14645  TIP3      OH2            31.2634321877      -40.2373814822      -53.4975127600  TIP3      13285           0.0000000000
     91369     14645  TIP3      H1             31.9673287988      -39.5786190069      -53.6675393407  TIP3      13285           0.0000000000
     91370     14645  TIP3      H2             30.4410997291      -39.7549055605      -53.3340597708  TIP3      13285           0.0000000000
     91371     14646  TIP3      OH2            33.1612164488      -38.9574697750      -54.7738787220  TIP3      13286           0.0000000000
     91372     14646  TIP3      H1             33.7539765834      -39.5863452704      -55.2119556542  TIP3      13286           0.0000000000
     91373     14646  TIP3      H2             33.6351075080      -38.1026419735      -54.7235911297  TIP3      13286           0.0000000000
     91374     14647  TIP3      OH2            18.5353048509      -39.2335628805      -55.1706459067  TIP3      13287           0.0000000000
     91375     14647  TIP3      H1             17.8719560934      -39.6183508117      -55.7531138313  TIP3      13287           0.0000000000
     91376     14647  TIP3      H2             19.0941059656      -40.0396450129      -55.1163301653  TIP3      13287           0.0000000000
     91377     14648  TIP3      OH2            17.3977560863      -39.7746626890      -59.5820089502  TIP3      13288           0.0000000000
     91378     14648  TIP3      H1             17.9108456360      -39.1607954394      -60.1353687526  TIP3      13288           0.0000000000
     91379     14648  TIP3      H2             16.8041160810      -39.2341821853      -59.0407371100  TIP3      13288           0.0000000000
     91380     14649  TIP3      OH2            23.1600657780      -39.7103218222      -55.4957753038  TIP3      13289           0.0000000000
     91381     14649  TIP3      H1             24.0648481679      -39.3708790992      -55.5407023254  TIP3      13289           0.0000000000
     91382     14649  TIP3      H2             23.1293296228      -39.9637974035      -54.5725984301  TIP3      13289           0.0000000000
     91383     14650  TIP3      OH2            28.6962937396      -39.7118166755      -53.8771820095  TIP3      13290           0.0000000000
     91384     14650  TIP3      H1             28.8287798658      -39.6448928783      -54.8254618461  TIP3      13290           0.0000000000
     91385     14650  TIP3      H2             28.5045123326      -40.6578048152      -53.7632637021  TIP3      13290           0.0000000000
     91386     14651  TIP3      OH2            30.0374097806      -39.6167822446      -58.3953107939  TIP3      13291           0.0000000000
     91387     14651  TIP3      H1             29.2767102570      -39.0289632659      -58.3827721126  TIP3      13291           0.0000000000
     91388     14651  TIP3      H2             29.7305427200      -40.4489315982      -57.9972177760  TIP3      13291           0.0000000000
     91389     14652  TIP3      OH2            17.3463486170      -23.9463100238      -58.5512948105  TIP3      13292           0.0000000000
     91390     14652  TIP3      H1             16.6687091725      -23.9537478260      -59.2546886922  TIP3      13292           0.0000000000
     91391     14652  TIP3      H2             17.3655404295      -22.9949463165      -58.3866199242  TIP3      13292           0.0000000000
     91392     14653  TIP3      OH2            19.2507940947      -38.0554321622      -61.0108980384  TIP3      13293           0.0000000000
     91393     14653  TIP3      H1             19.7989755052      -38.5846736807      -61.5838490398  TIP3      13293           0.0000000000
     91394     14653  TIP3      H2             19.9251023711      -37.6264400335      -60.4505381468  TIP3      13293           0.0000000000
     91395     14654  TIP3      OH2            24.2500055153      -37.7250755831      -58.6211561238  TIP3      13294           0.0000000000
     91396     14654  TIP3      H1             24.5575559722      -38.2889399456      -57.8900818178  TIP3      13294           0.0000000000
     91397     14654  TIP3      H2             24.3304771641      -36.8586168408      -58.1655265577  TIP3      13294           0.0000000000
     91398     14655  TIP3      OH2            26.1776641321      -22.6262471057      -60.2400061469  TIP3      13295           0.0000000000
     91399     14655  TIP3      H1             27.1231019736      -22.4243943420      -60.3792962678  TIP3      13295           0.0000000000
     91400     14655  TIP3      H2             26.0164733739      -23.1842389325      -61.0094872223  TIP3      13295           0.0000000000
     91401     14656  TIP3      OH2            32.8760518303      -23.1509809506      -57.4476221802  TIP3      13296           0.0000000000
     91402     14656  TIP3      H1             32.7165812659      -23.9144465250      -58.0657037983  TIP3      13296           0.0000000000
     91403     14656  TIP3      H2             32.8353085793      -22.4190227595      -58.1060942988  TIP3      13296           0.0000000000
     91404     14657  TIP3      OH2            18.4851129627      -39.6262465241      -46.0743746282  TIP3      13297           0.0000000000
     91405     14657  TIP3      H1             18.0695653927      -40.0666595600      -45.3345738333  TIP3      13297           0.0000000000
     91406     14657  TIP3      H2             19.2806706465      -39.3077597424      -45.6520376054  TIP3      13297           0.0000000000
     91407     14658  TIP3      OH2            19.1798502238      -22.9832335844      -61.5998978230  TIP3      13298           0.0000000000
     91408     14658  TIP3      H1             18.8768167774      -22.6962789119      -60.7280921223  TIP3      13298           0.0000000000
     91409     14658  TIP3      H2             19.9368914510      -23.5291633667      -61.4045953891  TIP3      13298           0.0000000000
     91410     14659  TIP3      OH2            37.8086518262      -31.5847446854      -50.3639525817  TIP3      13299           0.0000000000
     91411     14659  TIP3      H1             37.9040198337      -32.2805763166      -49.6769218040  TIP3      13299           0.0000000000
     91412     14659  TIP3      H2             38.5581249422      -31.0100740966      -50.1578758259  TIP3      13299           0.0000000000
     91413     14660  TIP3      OH2            38.7127965960      -27.1799629881      -51.8216018285  TIP3      13300           0.0000000000
     91414     14660  TIP3      H1             38.4254067213      -28.0342783714      -52.1888043724  TIP3      13300           0.0000000000
     91415     14660  TIP3      H2             39.6843873469      -27.3171538830      -51.7918929463  TIP3      13300           0.0000000000
     91416     14661  TIP3      OH2            35.3889684812      -33.6083429226      -56.4248035807  TIP3      13301           0.0000000000
     91417     14661  TIP3      H1             34.9670470581      -32.7202066500      -56.4299407461  TIP3      13301           0.0000000000
     91418     14661  TIP3      H2             34.7816712089      -34.1094257031      -56.9822736008  TIP3      13301           0.0000000000
     91419     14662  TIP3      OH2            36.1119997431      -31.3307128804      -54.2497134204  TIP3      13302           0.0000000000
     91420     14662  TIP3      H1             36.3482759389      -32.1488476970      -53.7746732766  TIP3      13302           0.0000000000
     91421     14662  TIP3      H2             36.8351810876      -31.2619111774      -54.8922731039  TIP3      13302           0.0000000000
     91422     14663  TIP3      OH2            39.5735003054      -36.1536273729      -53.7631651843  TIP3      13303           0.0000000000
     91423     14663  TIP3      H1             40.1226154823      -35.4138462320      -54.1687503432  TIP3      13303           0.0000000000
     91424     14663  TIP3      H2             39.8854076395      -36.8198523669      -54.3747677743  TIP3      13303           0.0000000000
     91425     14664  TIP3      OH2            36.7485102946      -33.8825841374      -53.1894014131  TIP3      13304           0.0000000000
     91426     14664  TIP3      H1             37.4452423109      -34.3976960129      -52.7249058354  TIP3      13304           0.0000000000
     91427     14664  TIP3      H2             36.8373097027      -34.1963936266      -54.1032562403  TIP3      13304           0.0000000000
     91428     14665  TIP3      OH2            38.9747005269      -37.4470251467      -49.9204614771  TIP3      13305           0.0000000000
     91429     14665  TIP3      H1             38.6956281345      -36.8262889294      -50.6193152698  TIP3      13305           0.0000000000
     91430     14665  TIP3      H2             38.3306219721      -37.2124810337      -49.2115335480  TIP3      13305           0.0000000000
     91431     14666  TIP3      OH2            38.4927569988      -35.4729527291      -51.6427039967  TIP3      13306           0.0000000000
     91432     14666  TIP3      H1             39.1988252774      -34.8095869346      -51.4972549777  TIP3      13306           0.0000000000
     91433     14666  TIP3      H2             38.9865643420      -35.8957990521      -52.3968148855  TIP3      13306           0.0000000000
     91434     14667  TIP3      OH2            39.7855681922      -27.6737261908      -48.9258913870  TIP3      13307           0.0000000000
     91435     14667  TIP3      H1             39.8491744258      -26.7206769251      -49.1119371390  TIP3      13307           0.0000000000
     91436     14667  TIP3      H2             38.9763390433      -27.7093771581      -48.3765190458  TIP3      13307           0.0000000000
     91437     14668  TIP3      OH2            36.0719717789      -28.1469962652      -58.0551688931  TIP3      13308           0.0000000000
     91438     14668  TIP3      H1             35.8089363757      -27.8119178613      -58.9322067599  TIP3      13308           0.0000000000
     91439     14668  TIP3      H2             36.1301062612      -27.3223864664      -57.5315001572  TIP3      13308           0.0000000000
     91440     14669  TIP3      OH2            40.1155662721      -30.3893836792      -55.0719142983  TIP3      13309           0.0000000000
     91441     14669  TIP3      H1             39.9833345982      -30.7604491205      -55.9683971539  TIP3      13309           0.0000000000
     91442     14669  TIP3      H2             40.8496401947      -30.9493631587      -54.7295703068  TIP3      13309           0.0000000000
     91443     14670  TIP3      OH2            38.5073770967      -31.0796495240      -47.5057148433  TIP3      13310           0.0000000000
     91444     14670  TIP3      H1             38.5673769393      -30.3999701338      -46.8361512523  TIP3      13310           0.0000000000
     91445     14670  TIP3      H2             37.5939776617      -30.9921026625      -47.8132702493  TIP3      13310           0.0000000000
     91446     14671  TIP3      OH2            39.7608707212      -25.1507095585      -45.9756627968  TIP3      13311           0.0000000000
     91447     14671  TIP3      H1             39.8273429479      -25.3354937201      -46.9304421306  TIP3      13311           0.0000000000
     91448     14671  TIP3      H2             38.8404101912      -25.3338176900      -45.7445642701  TIP3      13311           0.0000000000
     91449     14672  TIP3      OH2            39.3017600403      -31.4075828362      -57.4452120812  TIP3      13312           0.0000000000
     91450     14672  TIP3      H1             39.0311377835      -30.6185435413      -57.9646789052  TIP3      13312           0.0000000000
     91451     14672  TIP3      H2             38.6034117101      -32.0245499836      -57.6826252786  TIP3      13312           0.0000000000
     91452     14673  TIP3      OH2            35.4256280681      -28.9661343773      -48.6282901367  TIP3      13313           0.0000000000
     91453     14673  TIP3      H1             34.9398270651      -29.0417990014      -49.4720107268  TIP3      13313           0.0000000000
     91454     14673  TIP3      H2             35.4240465634      -29.9048986498      -48.3580230021  TIP3      13313           0.0000000000
     91455     14674  TIP3      OH2            35.1570854853      -26.1852976555      -51.8166784517  TIP3      13314           0.0000000000
     91456     14674  TIP3      H1             36.1137170505      -26.3545423516      -51.7844254456  TIP3      13314           0.0000000000
     91457     14674  TIP3      H2             35.0838815627      -25.4151906615      -51.2408882400  TIP3      13314           0.0000000000
     91458     14675  TIP3      OH2            38.3839459313      -23.3613780592      -55.6256663827  TIP3      13315           0.0000000000
     91459     14675  TIP3      H1             38.5549663401      -23.7923344656      -54.7583343249  TIP3      13315           0.0000000000
     91460     14675  TIP3      H2             37.5597580832      -23.8117007993      -55.8675767828  TIP3      13315           0.0000000000
     91461     14676  TIP3      OH2            37.5895881390      -27.6349682571      -47.5549596075  TIP3      13316           0.0000000000
     91462     14676  TIP3      H1             37.8301120828      -28.0284462621      -46.7181197173  TIP3      13316           0.0000000000
     91463     14676  TIP3      H2             36.7639383017      -28.0740144724      -47.8599330813  TIP3      13316           0.0000000000
     91464     14677  TIP3      OH2            40.2987134204      -39.1765704764      -51.7600072242  TIP3      13317           0.0000000000
     91465     14677  TIP3      H1             39.3714943929      -39.2549279075      -52.0251411737  TIP3      13317           0.0000000000
     91466     14677  TIP3      H2             40.2709674854      -38.3646875623      -51.2229482882  TIP3      13317           0.0000000000
     91467     14678  TIP3      OH2            40.4017066088      -34.0564196208      -49.7383572151  TIP3      13318           0.0000000000
     91468     14678  TIP3      H1             39.4595371578      -34.2836421765      -49.6132077107  TIP3      13318           0.0000000000
     91469     14678  TIP3      H2             40.2802431172      -33.5298364009      -50.5544091666  TIP3      13318           0.0000000000
     91470     14679  TIP3      OH2            40.1098477630      -34.2137175598      -55.2814303673  TIP3      13319           0.0000000000
     91471     14679  TIP3      H1             39.2324976624      -34.3368869859      -55.6763700377  TIP3      13319           0.0000000000
     91472     14679  TIP3      H2             40.7265815930      -34.4268355452      -55.9879315434  TIP3      13319           0.0000000000
     91473     14680  TIP3      OH2            38.0292831385      -33.8935187855      -48.6636678493  TIP3      13320           0.0000000000
     91474     14680  TIP3      H1             38.1029446442      -33.5271939387      -47.7720003100  TIP3      13320           0.0000000000
     91475     14680  TIP3      H2             37.6513593095      -34.7794902497      -48.5287224850  TIP3      13320           0.0000000000
     91476     14681  TIP3      OH2            34.7261151257      -36.8035464636      -54.7667536920  TIP3      13321           0.0000000000
     91477     14681  TIP3      H1             35.3601999647      -36.8617996995      -54.0312952116  TIP3      13321           0.0000000000
     91478     14681  TIP3      H2             35.1409226852      -37.2090502814      -55.5483377936  TIP3      13321           0.0000000000
     91479     14682  TIP3      OH2            36.0533406079      -36.0683063783      -59.2893958036  TIP3      13322           0.0000000000
     91480     14682  TIP3      H1             36.4339719545      -35.5392184449      -60.0105490483  TIP3      13322           0.0000000000
     91481     14682  TIP3      H2             35.2969402698      -35.4932155663      -59.0623915721  TIP3      13322           0.0000000000
     91482     14683  TIP3      OH2            37.6380590156      -35.0942571609      -55.6206025722  TIP3      13323           0.0000000000
     91483     14683  TIP3      H1             36.8372703644      -34.7853524745      -56.1007899951  TIP3      13323           0.0000000000
     91484     14683  TIP3      H2             38.0623383798      -35.7437701183      -56.2050622230  TIP3      13323           0.0000000000
     91485     14684  TIP3      OH2            40.1501780698      -33.8495564520      -60.4537217965  TIP3      13324           0.0000000000
     91486     14684  TIP3      H1             39.5430123473      -34.0880889438      -61.1712010624  TIP3      13324           0.0000000000
     91487     14684  TIP3      H2             40.9189403541      -33.5308624195      -60.9416529714  TIP3      13324           0.0000000000
     91488     14685  TIP3      OH2            39.0506480123      -37.6747474521      -56.4060734756  TIP3      13325           0.0000000000
     91489     14685  TIP3      H1             38.9205292411      -38.6369415087      -56.3215140994  TIP3      13325           0.0000000000
     91490     14685  TIP3      H2             40.0259640696      -37.6485650520      -56.5213910326  TIP3      13325           0.0000000000
     91491     14686  TIP3      OH2            38.5690951546      -29.8677404378      -52.7614111957  TIP3      13326           0.0000000000
     91492     14686  TIP3      H1             39.2913842228      -29.9155327554      -53.4226866107  TIP3      13326           0.0000000000
     91493     14686  TIP3      H2             38.6654503847      -30.7076779240      -52.2848241406  TIP3      13326           0.0000000000
     91494     14687  TIP3      OH2            35.5297190092      -31.4103209031      -47.4769107097  TIP3      13327           0.0000000000
     91495     14687  TIP3      H1             35.7989194197      -31.8621849818      -46.6606422954  TIP3      13327           0.0000000000
     91496     14687  TIP3      H2             34.9323107588      -32.0376091307      -47.9213529123  TIP3      13327           0.0000000000
     91497     14688  TIP3      OH2            36.6890235941      -31.4875738922      -60.8635697241  TIP3      13328           0.0000000000
     91498     14688  TIP3      H1             37.3080730834      -30.9007474461      -60.4054963081  TIP3      13328           0.0000000000
     91499     14688  TIP3      H2             35.8220342669      -31.2520368752      -60.5015060956  TIP3      13328           0.0000000000
     91500     14689  TIP3      OH2            37.2308460567      -36.7074970372      -47.9261545519  TIP3      13329           0.0000000000
     91501     14689  TIP3      H1             36.3227350045      -36.3651005042      -47.9758457515  TIP3      13329           0.0000000000
     91502     14689  TIP3      H2             37.1121598469      -37.5790450480      -47.5094593370  TIP3      13329           0.0000000000
     91503     14690  TIP3      OH2            36.8622151050      -24.9035489038      -49.5154398270  TIP3      13330           0.0000000000
     91504     14690  TIP3      H1             37.1168987555      -25.8385718311      -49.4883470040  TIP3      13330           0.0000000000
     91505     14690  TIP3      H2             37.1029637629      -24.6021351927      -48.6256145633  TIP3      13330           0.0000000000
     91506     14691  TIP3      OH2            38.0782284305      -29.5852603997      -59.3290789536  TIP3      13331           0.0000000000
     91507     14691  TIP3      H1             37.4163466207      -29.1911467316      -58.7269531689  TIP3      13331           0.0000000000
     91508     14691  TIP3      H2             38.6125434352      -28.8112274338      -59.5381055322  TIP3      13331           0.0000000000
     91509     14692  TIP3      OH2           -41.2204305005      -37.5080807747      -59.6090888454  TIP3      13332           0.0000000000
     91510     14692  TIP3      H1            -41.1675078172      -36.6011174316      -59.2793196400  TIP3      13332           0.0000000000
     91511     14692  TIP3      H2            -40.2782373488      -37.7266470058      -59.4710472871  TIP3      13332           0.0000000000
     91512     14693  TIP3      OH2            38.7117720490      -27.0437675686      -60.4004588842  TIP3      13333           0.0000000000
     91513     14693  TIP3      H1             39.3068411447      -26.3419503149      -60.1137310078  TIP3      13333           0.0000000000
     91514     14693  TIP3      H2             39.2180844961      -27.4263229656      -61.1198946223  TIP3      13333           0.0000000000
     91515     14694  TIP3      OH2            37.7635838196      -39.3603482553      -52.6129821807  TIP3      13334           0.0000000000
     91516     14694  TIP3      H1             37.5704365371      -39.5075847474      -53.5519766391  TIP3      13334           0.0000000000
     91517     14694  TIP3      H2             37.5210584198      -40.2643665930      -52.2721811483  TIP3      13334           0.0000000000
     91518     14695  TIP3      OH2            36.7662256559      -25.5917819463      -56.3956312539  TIP3      13335           0.0000000000
     91519     14695  TIP3      H1             35.9226133133      -25.1416417755      -56.4948395548  TIP3      13335           0.0000000000
     91520     14695  TIP3      H2             37.2948337056      -25.1575413913      -57.0800877386  TIP3      13335           0.0000000000
     91521     14696  TIP3      OH2            35.9655412255      -27.3124471701      -60.9229833793  TIP3      13336           0.0000000000
     91522     14696  TIP3      H1             36.9167856549      -27.2351708233      -60.7034564228  TIP3      13336           0.0000000000
     91523     14696  TIP3      H2             35.9708856259      -27.9206323263      -61.6693708245  TIP3      13336           0.0000000000
     91524     14697  TIP3      OH2            34.6337859828      -21.9310993775      -55.9084441268  TIP3      13337           0.0000000000
     91525     14697  TIP3      H1             34.0086645309      -22.4324481573      -56.4760825779  TIP3      13337           0.0000000000
     91526     14697  TIP3      H2             35.0431800902      -22.6049311260      -55.3355631277  TIP3      13337           0.0000000000
     91527     14698  TIP3      OH2            35.4082506169      -23.7994622319      -54.0747843997  TIP3      13338           0.0000000000
     91528     14698  TIP3      H1             35.2492291477      -24.7290728236      -53.8629817364  TIP3      13338           0.0000000000
     91529     14698  TIP3      H2             35.7983229920      -23.4826168672      -53.2277263788  TIP3      13338           0.0000000000
     91530     14699  TIP3      OH2            35.5575701155      -30.7612482342      -51.6033971340  TIP3      13339           0.0000000000
     91531     14699  TIP3      H1             35.7747199935      -30.8199162656      -52.5587103564  TIP3      13339           0.0000000000
     91532     14699  TIP3      H2             36.4481506831      -30.9184958632      -51.2332230449  TIP3      13339           0.0000000000
     91533     14700  TIP3      OH2            36.4209304513      -37.1203313488      -52.6824392040  TIP3      13340           0.0000000000
     91534     14700  TIP3      H1             36.8464081877      -37.9374586463      -52.3079187106  TIP3      13340           0.0000000000
     91535     14700  TIP3      H2             36.8908678671      -36.4431237353      -52.1570348517  TIP3      13340           0.0000000000
     91536     14701  TIP3      OH2            34.6823392240      -34.1486899523      -51.5576694700  TIP3      13341           0.0000000000
     91537     14701  TIP3      H1             35.2627066958      -34.3700015157      -52.3115973303  TIP3      13341           0.0000000000
     91538     14701  TIP3      H2             35.1364945587      -33.3409125483      -51.2697230809  TIP3      13341           0.0000000000
     91539     14702  TIP3      OH2            35.0853834060      -37.9003806147      -57.4642686963  TIP3      13342           0.0000000000
     91540     14702  TIP3      H1             34.1292062707      -37.7347190101      -57.5994543035  TIP3      13342           0.0000000000
     91541     14702  TIP3      H2             35.4607800140      -37.4129358341      -58.2230106433  TIP3      13342           0.0000000000
     91542     14703  TIP3      OH2            35.0141773616      -39.1753194849      -49.1566568864  TIP3      13343           0.0000000000
     91543     14703  TIP3      H1             34.3370949249      -39.3916181713      -48.5037723078  TIP3      13343           0.0000000000
     91544     14703  TIP3      H2             34.5506774467      -38.5448693767      -49.7311086127  TIP3      13343           0.0000000000
     91545     14704  TIP3      OH2            40.1712786194      -25.0358023020      -48.7328773685  TIP3      13344           0.0000000000
     91546     14704  TIP3      H1             39.7922737776      -24.1767590254      -48.9962576889  TIP3      13344           0.0000000000
     91547     14704  TIP3      H2             41.1027611442      -24.9026599976      -49.0293499752  TIP3      13344           0.0000000000
     91548     14705  TIP3      OH2            37.5607623206      -21.7668542835      -48.7302455731  TIP3      13345           0.0000000000
     91549     14705  TIP3      H1             36.8000206513      -21.3064759264      -49.1199009223  TIP3      13345           0.0000000000
     91550     14705  TIP3      H2             37.2188797095      -21.9631136810      -47.8415907058  TIP3      13345           0.0000000000
     91551     14706  TIP3      OH2            39.8464557502      -22.4379116244      -49.8391169251  TIP3      13346           0.0000000000
     91552     14706  TIP3      H1             39.1087447695      -22.1124894317      -49.2717587407  TIP3      13346           0.0000000000
     91553     14706  TIP3      H2             39.9811510663      -21.6555226754      -50.4218498623  TIP3      13346           0.0000000000
     91554     14707  TIP3      OH2            36.9310355294      -23.1575865448      -51.8007038943  TIP3      13347           0.0000000000
     91555     14707  TIP3      H1             36.9505557629      -23.5579855007      -50.9012340893  TIP3      13347           0.0000000000
     91556     14707  TIP3      H2             37.7934211822      -23.4784268361      -52.1640142989  TIP3      13347           0.0000000000
     91557     14708  TIP3      OH2            39.0802250911      -24.4123120823      -53.1182672721  TIP3      13348           0.0000000000
     91558     14708  TIP3      H1             38.8992281267      -25.3519319306      -52.9144496675  TIP3      13348           0.0000000000
     91559     14708  TIP3      H2             39.9248418823      -24.2932699857      -52.6673028746  TIP3      13348           0.0000000000
     91560     14709  TIP3      OH2            37.3535410811      -39.2242238744      -55.1827199395  TIP3      13349           0.0000000000
     91561     14709  TIP3      H1             36.6995442375      -39.6646565354      -55.7513792260  TIP3      13349           0.0000000000
     91562     14709  TIP3      H2             37.9253198193      -40.0460939168      -55.0957040800  TIP3      13349           0.0000000000
     91563     14710  TIP3      OH2            36.3032517689      -39.7672268179      -59.5326521241  TIP3      13350           0.0000000000
     91564     14710  TIP3      H1             36.7396904929      -39.1632508504      -60.1541677014  TIP3      13350           0.0000000000
     91565     14710  TIP3      H2             35.6562809378      -39.2430367119      -59.0513699890  TIP3      13350           0.0000000000
     91566     14711  TIP3      OH2            36.1680516350      -23.9541973218      -58.5319115282  TIP3      13351           0.0000000000
     91567     14711  TIP3      H1             35.5342561664      -23.9539631522      -59.2762122874  TIP3      13351           0.0000000000
     91568     14711  TIP3      H2             36.2286351128      -22.9982368674      -58.3983939427  TIP3      13351           0.0000000000
     91569     14712  TIP3      OH2            38.1041221373      -38.0678995593      -61.0272943472  TIP3      13352           0.0000000000
     91570     14712  TIP3      H1             38.6713217702      -38.5819734753      -61.6069455804  TIP3      13352           0.0000000000
     91571     14712  TIP3      H2             38.7914864162      -37.6531935108      -60.4592334966  TIP3      13352           0.0000000000
     91572     14713  TIP3      OH2            37.3174454749      -39.5706092982      -46.0735147114  TIP3      13353           0.0000000000
     91573     14713  TIP3      H1             36.9735516561      -40.0903957115      -45.3524169520  TIP3      13353           0.0000000000
     91574     14713  TIP3      H2             38.1502918923      -39.3148190922      -45.6859206915  TIP3      13353           0.0000000000
     91575     14714  TIP3      OH2            38.0144402257      -22.9823909394      -61.6019330807  TIP3      13354           0.0000000000
     91576     14714  TIP3      H1             37.7421054727      -22.6826869780      -60.7220103948  TIP3      13354           0.0000000000
     91577     14714  TIP3      H2             38.8004393174      -23.5077792242      -61.4438543251  TIP3      13354           0.0000000000
     91578     14715  TIP3      OH2           -28.8204251007      -11.6610339891      -55.4080282481  TIP3      13355           0.0000000000
     91579     14715  TIP3      H1            -28.8312819121      -10.6838011818      -55.4667967467  TIP3      13355           0.0000000000
     91580     14715  TIP3      H2            -29.5399672865      -11.9015094871      -56.0176787864  TIP3      13355           0.0000000000
     91581     14716  TIP3      OH2           -30.0098858515      -12.3971418365      -51.9160889505  TIP3      13356           0.0000000000
     91582     14716  TIP3      H1            -29.9835584107      -13.0594650774      -51.2130040928  TIP3      13356           0.0000000000
     91583     14716  TIP3      H2            -30.3175655632      -12.9112152252      -52.6813011238  TIP3      13356           0.0000000000
     91584     14717  TIP3      OH2           -37.5919455256      -12.7700068049      -50.4237057376  TIP3      13357           0.0000000000
     91585     14717  TIP3      H1            -37.5463592761      -13.4315979124      -49.6979783633  TIP3      13357           0.0000000000
     91586     14717  TIP3      H2            -36.8997537766      -12.1665992542      -50.1391551573  TIP3      13357           0.0000000000
     91587     14718  TIP3      OH2           -26.2625103643       -9.4705809588      -53.6374287118  TIP3      13358           0.0000000000
     91588     14718  TIP3      H1            -26.7050064346      -10.1734736277      -53.1562373043  TIP3      13358           0.0000000000
     91589     14718  TIP3      H2            -26.2561249681       -8.7581164877      -52.9706606667  TIP3      13358           0.0000000000
     91590     14719  TIP3      OH2           -36.6867147655       -8.3460616541      -51.7891501923  TIP3      13359           0.0000000000
     91591     14719  TIP3      H1            -37.0492033512       -9.1537901528      -52.2225496475  TIP3      13359           0.0000000000
     91592     14719  TIP3      H2            -35.7570647588       -8.4042363309      -52.0120473468  TIP3      13359           0.0000000000
     91593     14720  TIP3      OH2           -39.7596283035      -14.5017738130      -56.9235034239  TIP3      13360           0.0000000000
     91594     14720  TIP3      H1            -40.2348262594      -13.7563255083      -56.4807109726  TIP3      13360           0.0000000000
     91595     14720  TIP3      H2            -40.5445194303      -14.9415948402      -57.1814618024  TIP3      13360           0.0000000000
     91596     14721  TIP3      OH2           -39.1969380101      -12.5794275855      -54.2092282699  TIP3      13361           0.0000000000
     91597     14721  TIP3      H1            -38.9899216718      -13.4041811091      -53.7281344429  TIP3      13361           0.0000000000
     91598     14721  TIP3      H2            -38.5157330563      -12.4518273879      -54.8782036910  TIP3      13361           0.0000000000
     91599     14722  TIP3      OH2           -29.1591194287       -4.3090021135      -53.4059506076  TIP3      13362           0.0000000000
     91600     14722  TIP3      H1            -28.5131301302       -5.0016450804      -53.6913269013  TIP3      13362           0.0000000000
     91601     14722  TIP3      H2            -29.3712371085       -4.6375955326      -52.5328438486  TIP3      13362           0.0000000000
     91602     14723  TIP3      OH2           -31.6258128148      -10.0215938246      -51.4349466657  TIP3      13363           0.0000000000
     91603     14723  TIP3      H1            -31.2523829818      -10.6267812856      -52.1033467582  TIP3      13363           0.0000000000
     91604     14723  TIP3      H2            -30.7942704458       -9.8559722023      -50.9400308743  TIP3      13363           0.0000000000
     91605     14724  TIP3      OH2           -22.9865922631      -18.3583067666      -50.7136656354  TIP3      13364           0.0000000000
     91606     14724  TIP3      H1            -22.8184755706      -17.7727664044      -49.9484946768  TIP3      13364           0.0000000000
     91607     14724  TIP3      H2            -22.4322646216      -17.9399271732      -51.3877021918  TIP3      13364           0.0000000000
     91608     14725  TIP3      OH2           -28.4498622313      -15.5569158639      -51.1278157189  TIP3      13365           0.0000000000
     91609     14725  TIP3      H1            -28.2586079620      -16.5097148203      -51.1381467302  TIP3      13365           0.0000000000
     91610     14725  TIP3      H2            -28.5289672562      -15.4031606340      -52.0910762973  TIP3      13365           0.0000000000
     91611     14726  TIP3      OH2           -35.3360019415      -17.4507700852      -53.9289716186  TIP3      13366           0.0000000000
     91612     14726  TIP3      H1            -35.1824723008      -16.6187798376      -54.4110692337  TIP3      13366           0.0000000000
     91613     14726  TIP3      H2            -35.6913257978      -18.0370461042      -54.6265040974  TIP3      13366           0.0000000000
     91614     14727  TIP3      OH2           -27.5659565132      -17.3536935879      -55.5257629896  TIP3      13367           0.0000000000
     91615     14727  TIP3      H1            -26.8994134339      -17.6831914443      -54.8756520003  TIP3      13367           0.0000000000
     91616     14727  TIP3      H2            -27.0174145612      -16.8051994643      -56.1105088636  TIP3      13367           0.0000000000
     91617     14728  TIP3      OH2           -38.4990283843      -15.0429655312      -53.2592622764  TIP3      13368           0.0000000000
     91618     14728  TIP3      H1            -37.9309324111      -15.6479012870      -52.7546405367  TIP3      13368           0.0000000000
     91619     14728  TIP3      H2            -38.5161559782      -15.4243055208      -54.1413760529  TIP3      13368           0.0000000000
     91620     14729  TIP3      OH2           -33.5420077925      -13.4838466921      -53.8503819293  TIP3      13369           0.0000000000
     91621     14729  TIP3      H1            -32.8561314585      -14.0762184608      -53.4901212034  TIP3      13369           0.0000000000
     91622     14729  TIP3      H2            -34.0473342957      -14.1358967982      -54.3797527900  TIP3      13369           0.0000000000
     91623     14730  TIP3      OH2           -22.5113332456      -16.8800486959      -48.4700742174  TIP3      13370           0.0000000000
     91624     14730  TIP3      H1            -23.2016213890      -16.1919671440      -48.5789557073  TIP3      13370           0.0000000000
     91625     14730  TIP3      H2            -22.5416664760      -17.0640906000      -47.5216103812  TIP3      13370           0.0000000000
     91626     14731  TIP3      OH2           -36.4042825497      -18.5245431300      -49.9068952959  TIP3      13371           0.0000000000
     91627     14731  TIP3      H1            -36.7203187465      -17.9810133185      -50.6469905398  TIP3      13371           0.0000000000
     91628     14731  TIP3      H2            -37.0941794629      -18.3426323248      -49.2261003424  TIP3      13371           0.0000000000
     91629     14732  TIP3      OH2           -29.1144131249       -9.0746362921      -56.3332777514  TIP3      13372           0.0000000000
     91630     14732  TIP3      H1            -29.4036058334       -9.3581375347      -57.2107575621  TIP3      13372           0.0000000000
     91631     14732  TIP3      H2            -29.4197931481       -8.1412426288      -56.2936742523  TIP3      13372           0.0000000000
     91632     14733  TIP3      OH2           -33.8323456516      -10.9739085221      -49.6070075142  TIP3      13373           0.0000000000
     91633     14733  TIP3      H1            -34.5156758519      -10.4279848103      -49.1633165998  TIP3      13373           0.0000000000
     91634     14733  TIP3      H2            -33.0922946571      -10.3799178746      -49.8384418817  TIP3      13373           0.0000000000
     91635     14734  TIP3      OH2           -25.7710737714      -18.0332332965      -53.5579210692  TIP3      13374           0.0000000000
     91636     14734  TIP3      H1            -25.9817042985      -18.8028933986      -53.0240488018  TIP3      13374           0.0000000000
     91637     14734  TIP3      H2            -25.0900224519      -17.5928641913      -53.0233277514  TIP3      13374           0.0000000000
     91638     14735  TIP3      OH2           -36.8672942243      -16.6804148802      -51.8632903613  TIP3      13375           0.0000000000
     91639     14735  TIP3      H1            -36.2308808527      -16.0074448693      -51.5281157083  TIP3      13375           0.0000000000
     91640     14735  TIP3      H2            -36.3219851730      -17.1177990681      -52.5657652885  TIP3      13375           0.0000000000
     91641     14736  TIP3      OH2           -35.4903306230       -8.8866613454      -48.7721846220  TIP3      13376           0.0000000000
     91642     14736  TIP3      H1            -35.5345051801       -7.9282671327      -49.0154047925  TIP3      13376           0.0000000000
     91643     14736  TIP3      H2            -36.3850878346       -8.9675681419      -48.3407880848  TIP3      13376           0.0000000000
     91644     14737  TIP3      OH2           -39.3831821841       -9.2760445665      -58.0325666259  TIP3      13377           0.0000000000
     91645     14737  TIP3      H1            -39.6037474658       -9.0069327113      -58.9318971252  TIP3      13377           0.0000000000
     91646     14737  TIP3      H2            -39.3070191134       -8.4388964611      -57.5386701998  TIP3      13377           0.0000000000
     91647     14738  TIP3      OH2           -25.7527905336       -7.6319017001      -51.2923544528  TIP3      13378           0.0000000000
     91648     14738  TIP3      H1            -26.7171153435       -7.5196832687      -51.1478153730  TIP3      13378           0.0000000000
     91649     14738  TIP3      H2            -25.4791947111       -6.7097450441      -51.4636582437  TIP3      13378           0.0000000000
     91650     14739  TIP3      OH2           -25.4343047550      -19.3152196478      -49.8400308847  TIP3      13379           0.0000000000
     91651     14739  TIP3      H1            -26.1719390422      -18.7064368462      -49.9850096386  TIP3      13379           0.0000000000
     91652     14739  TIP3      H2            -24.7265570876      -18.9246792506      -50.3899697861  TIP3      13379           0.0000000000
     91653     14740  TIP3      OH2           -32.4528130052      -21.2168763902      -52.4475188972  TIP3      13380           0.0000000000
     91654     14740  TIP3      H1            -32.5952485724      -22.1922352943      -52.4840803546  TIP3      13380           0.0000000000
     91655     14740  TIP3      H2            -33.3298161724      -20.9315770050      -52.1175028923  TIP3      13380           0.0000000000
     91656     14741  TIP3      OH2           -27.4984476935       -5.8499561533      -54.6863922853  TIP3      13381           0.0000000000
     91657     14741  TIP3      H1            -27.0619404550       -6.5639107493      -55.1929739341  TIP3      13381           0.0000000000
     91658     14741  TIP3      H2            -27.0669124637       -5.0560778188      -55.0753039433  TIP3      13381           0.0000000000
     91659     14742  TIP3      OH2           -26.2817258251       -7.9170325254      -56.1719181713  TIP3      13382           0.0000000000
     91660     14742  TIP3      H1            -26.5770013603       -8.6089970961      -56.7865399686  TIP3      13382           0.0000000000
     91661     14742  TIP3      H2            -26.2497730551       -8.4103612470      -55.3317310142  TIP3      13382           0.0000000000
     91662     14743  TIP3      OH2           -24.6228351010       -9.3295566948      -47.6796858569  TIP3      13383           0.0000000000
     91663     14743  TIP3      H1            -24.5287527961       -9.9590904512      -48.4239167347  TIP3      13383           0.0000000000
     91664     14743  TIP3      H2            -24.4438828379       -8.4699264070      -48.1038099392  TIP3      13383           0.0000000000
     91665     14744  TIP3      OH2           -30.1556440239      -12.3789543590      -57.8896181621  TIP3      13384           0.0000000000
     91666     14744  TIP3      H1            -30.8777795842      -11.8773338917      -58.3184094418  TIP3      13384           0.0000000000
     91667     14744  TIP3      H2            -29.4739151957      -12.3634449481      -58.5912692473  TIP3      13384           0.0000000000
     91668     14745  TIP3      OH2           -30.1324050263      -13.4741932656      -60.8742291201  TIP3      13385           0.0000000000
     91669     14745  TIP3      H1            -29.5113567736      -13.8396901041      -60.2189243672  TIP3      13385           0.0000000000
     91670     14745  TIP3      H2            -29.9734081886      -14.3051469406      -61.3966907729  TIP3      13385           0.0000000000
     91671     14746  TIP3      OH2           -22.7715231581      -13.0470195099      -49.6373115122  TIP3      13386           0.0000000000
     91672     14746  TIP3      H1            -23.4331034799      -12.3198394527      -49.5461484985  TIP3      13386           0.0000000000
     91673     14746  TIP3      H2            -22.3073464209      -12.7525794318      -50.4370439442  TIP3      13386           0.0000000000
     91674     14747  TIP3      OH2           -26.7167891756      -12.2364074027      -56.9877931476  TIP3      13387           0.0000000000
     91675     14747  TIP3      H1            -27.4587210610      -11.9836296111      -56.3852232427  TIP3      13387           0.0000000000
     91676     14747  TIP3      H2            -26.2431009876      -12.8876861185      -56.4394934431  TIP3      13387           0.0000000000
     91677     14748  TIP3      OH2           -26.8210468858      -14.0633477912      -47.8860999107  TIP3      13388           0.0000000000
     91678     14748  TIP3      H1            -26.7945221540      -13.2636459051      -47.3511796330  TIP3      13388           0.0000000000
     91679     14748  TIP3      H2            -27.4370820143      -13.7543792835      -48.5823116289  TIP3      13388           0.0000000000
     91680     14749  TIP3      OH2           -35.1112220447      -11.5520409323      -55.0598415963  TIP3      13389           0.0000000000
     91681     14749  TIP3      H1            -35.4504250545      -11.9443788651      -55.9039415053  TIP3      13389           0.0000000000
     91682     14749  TIP3      H2            -34.4961233844      -12.2597547983      -54.7509209653  TIP3      13389           0.0000000000
     91683     14750  TIP3      OH2           -33.8173701550       -8.2652814945      -52.3349060800  TIP3      13390           0.0000000000
     91684     14750  TIP3      H1            -33.7723732382       -8.6502533869      -53.2317023595  TIP3      13390           0.0000000000
     91685     14750  TIP3      H2            -32.9208478404       -8.4842128183      -52.0031180392  TIP3      13390           0.0000000000
     91686     14751  TIP3      OH2           -34.7957418214      -12.7646751419      -51.4266211279  TIP3      13391           0.0000000000
     91687     14751  TIP3      H1            -34.2162533603      -12.7474900874      -52.2183321976  TIP3      13391           0.0000000000
     91688     14751  TIP3      H2            -34.3582549417      -12.1863915101      -50.7806676571  TIP3      13391           0.0000000000
     91689     14752  TIP3      OH2           -28.3760376853       -7.2477810587      -50.7016124232  TIP3      13392           0.0000000000
     91690     14752  TIP3      H1            -28.6648100781       -6.5997091316      -50.0538586092  TIP3      13392           0.0000000000
     91691     14752  TIP3      H2            -28.6204119270       -8.1043757571      -50.2758895970  TIP3      13392           0.0000000000
     91692     14753  TIP3      OH2           -33.8426500629       -8.4034297033      -46.6820403416  TIP3      13393           0.0000000000
     91693     14753  TIP3      H1            -34.1925243506       -7.6143438672      -46.2272849019  TIP3      13393           0.0000000000
     91694     14753  TIP3      H2            -34.5096258725       -8.5665708045      -47.3677469245  TIP3      13393           0.0000000000
     91695     14754  TIP3      OH2           -27.8474361844      -13.0093432292      -59.3100209331  TIP3      13394           0.0000000000
     91696     14754  TIP3      H1            -27.2946542017      -12.8457253726      -58.5074270934  TIP3      13394           0.0000000000
     91697     14754  TIP3      H2            -27.4605154180      -12.4935843026      -60.0161395644  TIP3      13394           0.0000000000
     91698     14755  TIP3      OH2           -36.8827938610      -12.1621715611      -47.5622624247  TIP3      13395           0.0000000000
     91699     14755  TIP3      H1            -36.8566854000      -11.5649987549      -46.8171763399  TIP3      13395           0.0000000000
     91700     14755  TIP3      H2            -37.8271964611      -12.1281161725      -47.7942469784  TIP3      13395           0.0000000000
     91701     14756  TIP3      OH2           -30.1341047213       -6.3001269373      -55.8511281223  TIP3      13396           0.0000000000
     91702     14756  TIP3      H1            -29.6985887871       -5.9930296975      -55.0484762701  TIP3      13396           0.0000000000
     91703     14756  TIP3      H2            -30.6944456018       -5.5533629129      -56.0913585249  TIP3      13396           0.0000000000
     91704     14757  TIP3      OH2           -35.6130714862       -6.3976618087      -45.9964616040  TIP3      13397           0.0000000000
     91705     14757  TIP3      H1            -35.6351199071       -6.4268975120      -46.9622896692  TIP3      13397           0.0000000000
     91706     14757  TIP3      H2            -36.5508600428       -6.4432413305      -45.7493194972  TIP3      13397           0.0000000000
     91707     14758  TIP3      OH2           -24.1404138335      -21.3011576554      -59.4279188641  TIP3      13398           0.0000000000
     91708     14758  TIP3      H1            -25.0860055637      -21.1672130142      -59.1875300094  TIP3      13398           0.0000000000
     91709     14758  TIP3      H2            -23.9075607891      -20.4489778973      -59.8337591064  TIP3      13398           0.0000000000
     91710     14759  TIP3      OH2           -36.1372371596      -12.5442488817      -57.4503665680  TIP3      13399           0.0000000000
     91711     14759  TIP3      H1            -36.4146243224      -11.7628193057      -57.9747111874  TIP3      13399           0.0000000000
     91712     14759  TIP3      H2            -36.8080113912      -13.1903459521      -57.6832828194  TIP3      13399           0.0000000000
     91713     14760  TIP3      OH2           -23.0178888444       -6.9496553583      -61.0246256129  TIP3      13400           0.0000000000
     91714     14760  TIP3      H1            -22.8868500875       -5.9870552471      -60.9457610490  TIP3      13400           0.0000000000
     91715     14760  TIP3      H2            -22.0936169364       -7.2388461003      -61.1296214569  TIP3      13400           0.0000000000
     91716     14761  TIP3      OH2           -39.6180681590      -10.3643127606      -48.7610184471  TIP3      13401           0.0000000000
     91717     14761  TIP3      H1            -40.4052026815      -10.1379100037      -49.3150885803  TIP3      13401           0.0000000000
     91718     14761  TIP3      H2            -39.9937328158      -11.1436671223      -48.3205504800  TIP3      13401           0.0000000000
     91719     14762  TIP3      OH2           -40.2313209988       -7.3177625846      -51.8421313694  TIP3      13402           0.0000000000
     91720     14762  TIP3      H1            -39.2949639959       -7.5364555183      -51.7780169232  TIP3      13402           0.0000000000
     91721     14762  TIP3      H2            -40.3580241860       -6.5843393751      -51.2243400866  TIP3      13402           0.0000000000
     91722     14763  TIP3      OH2           -21.9749909817       -6.7055264532      -46.6443916496  TIP3      13403           0.0000000000
     91723     14763  TIP3      H1            -22.0363323016       -7.5956769863      -46.2784891736  TIP3      13403           0.0000000000
     91724     14763  TIP3      H2            -22.6482231027       -6.3190636629      -46.0485139924  TIP3      13403           0.0000000000
     91725     14764  TIP3      OH2           -31.1112687545       -7.1415459088      -47.2676998837  TIP3      13404           0.0000000000
     91726     14764  TIP3      H1            -31.0202066419       -6.3062938725      -46.7448851353  TIP3      13404           0.0000000000
     91727     14764  TIP3      H2            -31.9718813411       -7.4822857315      -46.9763707346  TIP3      13404           0.0000000000
     91728     14765  TIP3      OH2           -30.6620159078       -3.3934540408      -57.4534442658  TIP3      13405           0.0000000000
     91729     14765  TIP3      H1            -30.7452857492       -3.4587349125      -58.4163885071  TIP3      13405           0.0000000000
     91730     14765  TIP3      H2            -30.6305537006       -2.4322925747      -57.2753942520  TIP3      13405           0.0000000000
     91731     14766  TIP3      OH2           -37.0109762368       -4.5236962634      -55.6299203425  TIP3      13406           0.0000000000
     91732     14766  TIP3      H1            -36.8835823050       -4.9233134822      -54.7436382646  TIP3      13406           0.0000000000
     91733     14766  TIP3      H2            -37.8672271411       -4.9168824127      -55.8642508194  TIP3      13406           0.0000000000
     91734     14767  TIP3      OH2           -27.6367921385       -4.1822794526      -60.4611020362  TIP3      13407           0.0000000000
     91735     14767  TIP3      H1            -27.1575067577       -4.9327368935      -60.8907661232  TIP3      13407           0.0000000000
     91736     14767  TIP3      H2            -27.5474147851       -4.4341408633      -59.5236213310  TIP3      13407           0.0000000000
     91737     14768  TIP3      OH2           -27.9127226515       -4.2417969100      -57.6786711951  TIP3      13408           0.0000000000
     91738     14768  TIP3      H1            -28.8658753842       -4.1752914844      -57.4833625241  TIP3      13408           0.0000000000
     91739     14768  TIP3      H2            -27.6484163673       -4.9742379992      -57.1006578915  TIP3      13408           0.0000000000
     91740     14769  TIP3      OH2           -37.7921163663       -8.7936438109      -47.5799179512  TIP3      13409           0.0000000000
     91741     14769  TIP3      H1            -37.6357403262       -9.1598366333      -46.7088375625  TIP3      13409           0.0000000000
     91742     14769  TIP3      H2            -38.6504501319       -9.1938635614      -47.8781351025  TIP3      13409           0.0000000000
     91743     14770  TIP3      OH2           -35.0631304018      -20.2546886688      -51.7695084128  TIP3      13410           0.0000000000
     91744     14770  TIP3      H1            -35.9896132909      -20.4349801226      -52.0424161002  TIP3      13410           0.0000000000
     91745     14770  TIP3      H2            -35.2136791676      -19.5149805323      -51.1635709304  TIP3      13410           0.0000000000
     91746     14771  TIP3      OH2           -30.4513256814      -20.6272941626      -48.2876152649  TIP3      13411           0.0000000000
     91747     14771  TIP3      H1            -30.0660354303      -21.0630038679      -47.5101497242  TIP3      13411           0.0000000000
     91748     14771  TIP3      H2            -31.4250490700      -20.7849034131      -48.1553766093  TIP3      13411           0.0000000000
     91749     14772  TIP3      OH2           -27.2982799148      -16.8264654178      -47.4807878514  TIP3      13412           0.0000000000
     91750     14772  TIP3      H1            -27.6209826005      -16.9938029957      -46.5768639082  TIP3      13412           0.0000000000
     91751     14772  TIP3      H2            -27.2842673022      -15.8609899815      -47.6049421838  TIP3      13412           0.0000000000
     91752     14773  TIP3      OH2           -31.3760077327      -18.4198545480      -61.0395547700  TIP3      13413           0.0000000000
     91753     14773  TIP3      H1            -31.0869366855      -18.2046857564      -60.1183485746  TIP3      13413           0.0000000000
     91754     14773  TIP3      H2            -31.0173123247      -19.2597129127      -61.2256827021  TIP3      13413           0.0000000000
     91755     14774  TIP3      OH2           -35.0158368271      -15.3457704365      -50.4402596672  TIP3      13414           0.0000000000
     91756     14774  TIP3      H1            -35.7243280732      -15.3556893644      -49.7707534815  TIP3      13414           0.0000000000
     91757     14774  TIP3      H2            -35.0513125176      -14.4359771824      -50.7918051201  TIP3      13414           0.0000000000
     91758     14775  TIP3      OH2           -35.0196065700      -15.2104441307      -55.5367822590  TIP3      13415           0.0000000000
     91759     14775  TIP3      H1            -35.9582404993      -15.4652458297      -55.6763619775  TIP3      13415           0.0000000000
     91760     14775  TIP3      H2            -34.6296851362      -15.5150094598      -56.3825937490  TIP3      13415           0.0000000000
     91761     14776  TIP3      OH2           -29.4857983842      -14.7158516563      -56.7700044079  TIP3      13416           0.0000000000
     91762     14776  TIP3      H1            -29.9035430883      -13.9029152383      -57.1317438516  TIP3      13416           0.0000000000
     91763     14776  TIP3      H2            -28.8387795150      -14.9185586018      -57.4757981590  TIP3      13416           0.0000000000
     91764     14777  TIP3      OH2           -28.4683417824      -15.2461957993      -53.9397233617  TIP3      13417           0.0000000000
     91765     14777  TIP3      H1            -28.7451017290      -14.6782282959      -54.6796926219  TIP3      13417           0.0000000000
     91766     14777  TIP3      H2            -28.3651829726      -16.0908603281      -54.4231002816  TIP3      13417           0.0000000000
     91767     14778  TIP3      OH2           -37.3827699099      -15.0576664390      -48.7098211843  TIP3      13418           0.0000000000
     91768     14778  TIP3      H1            -37.2924028603      -14.6965517993      -47.8114118954  TIP3      13418           0.0000000000
     91769     14778  TIP3      H2            -37.7869249336      -15.9190467242      -48.5236324591  TIP3      13418           0.0000000000
     91770     14779  TIP3      OH2           -39.8947429450      -17.8926638269      -55.2557021103  TIP3      13419           0.0000000000
     91771     14779  TIP3      H1            -39.9851372823      -18.0467351203      -54.2742597855  TIP3      13419           0.0000000000
     91772     14779  TIP3      H2            -40.0136236843      -18.8053701365      -55.5898435721  TIP3      13419           0.0000000000
     91773     14780  TIP3      OH2           -39.2788751073      -16.9851917047      -59.2298854586  TIP3      13420           0.0000000000
     91774     14780  TIP3      H1            -38.8480728822      -16.6396546448      -60.0378502274  TIP3      13420           0.0000000000
     91775     14780  TIP3      H2            -40.1012630695      -16.4912923915      -59.3131139826  TIP3      13420           0.0000000000
     91776     14781  TIP3      OH2           -29.2445497440      -13.6542228884      -49.3316096033  TIP3      13421           0.0000000000
     91777     14781  TIP3      H1            -28.9015476087      -14.3150363974      -49.9663530778  TIP3      13421           0.0000000000
     91778     14781  TIP3      H2            -29.7442034211      -14.2079044278      -48.7054751228  TIP3      13421           0.0000000000
     91779     14782  TIP3      OH2           -32.4655107109      -17.6798547534      -54.5422563932  TIP3      13422           0.0000000000
     91780     14782  TIP3      H1            -33.3980482470      -17.6732009108      -54.2540090394  TIP3      13422           0.0000000000
     91781     14782  TIP3      H2            -31.9813494105      -17.8406052991      -53.7214161202  TIP3      13422           0.0000000000
     91782     14783  TIP3      OH2           -37.6074299290      -16.1141432923      -55.7263575126  TIP3      13423           0.0000000000
     91783     14783  TIP3      H1            -38.4875711305      -15.9432763730      -56.0482757310  TIP3      13423           0.0000000000
     91784     14783  TIP3      H2            -37.3455280772      -16.9996021295      -56.0586885247  TIP3      13423           0.0000000000
     91785     14784  TIP3      OH2           -34.0516984142      -16.0335285601      -58.0198334383  TIP3      13424           0.0000000000
     91786     14784  TIP3      H1            -33.0827517883      -15.9697215590      -57.8847770398  TIP3      13424           0.0000000000
     91787     14784  TIP3      H2            -34.2499382343      -15.4069332241      -58.7380996113  TIP3      13424           0.0000000000
     91788     14785  TIP3      OH2           -28.0574196605      -18.4463748519      -51.2902869719  TIP3      13425           0.0000000000
     91789     14785  TIP3      H1            -28.7514876317      -18.3819509946      -50.5997753510  TIP3      13425           0.0000000000
     91790     14785  TIP3      H2            -28.5622233187      -18.6881027525      -52.0802810266  TIP3      13425           0.0000000000
     91791     14786  TIP3      OH2           -35.2925654997      -14.9055484742      -60.4535286690  TIP3      13426           0.0000000000
     91792     14786  TIP3      H1            -35.8474780394      -15.2449789379      -61.1680592429  TIP3      13426           0.0000000000
     91793     14786  TIP3      H2            -34.4789444032      -14.6795206956      -60.9276638730  TIP3      13426           0.0000000000
     91794     14787  TIP3      OH2           -31.1899936240      -14.9252621863      -52.6558864788  TIP3      13427           0.0000000000
     91795     14787  TIP3      H1            -30.5877076764      -15.4581206772      -53.1881703903  TIP3      13427           0.0000000000
     91796     14787  TIP3      H2            -31.3265318655      -15.4700083822      -51.8685427439  TIP3      13427           0.0000000000
     91797     14788  TIP3      OH2           -36.2380748339      -18.7572459320      -56.2555266401  TIP3      13428           0.0000000000
     91798     14788  TIP3      H1            -36.4826445010      -19.7023269576      -56.2257700434  TIP3      13428           0.0000000000
     91799     14788  TIP3      H2            -35.3903518664      -18.8268236047      -56.7411837132  TIP3      13428           0.0000000000
     91800     14789  TIP3      OH2           -32.5308932497      -16.5860630194      -50.2579044512  TIP3      13429           0.0000000000
     91801     14789  TIP3      H1            -33.3655186433      -16.0884418546      -50.1683735867  TIP3      13429           0.0000000000
     91802     14789  TIP3      H2            -31.9882383297      -16.2536367331      -49.5173680742  TIP3      13429           0.0000000000
     91803     14790  TIP3      OH2           -31.9518562794      -10.3917089439      -58.5091761599  TIP3      13430           0.0000000000
     91804     14790  TIP3      H1            -32.7506922795      -10.8431576195      -58.8647278902  TIP3      13430           0.0000000000
     91805     14790  TIP3      H2            -32.1801663143      -10.2660634625      -57.5708573317  TIP3      13430           0.0000000000
     91806     14791  TIP3      OH2           -24.7466426271      -11.2192810487      -49.7447216613  TIP3      13431           0.0000000000
     91807     14791  TIP3      H1            -24.2087918655      -10.6811619244      -50.3538571181  TIP3      13431           0.0000000000
     91808     14791  TIP3      H2            -25.6182523422      -11.1330872848      -50.1876730902  TIP3      13431           0.0000000000
     91809     14792  TIP3      OH2           -27.6688679945      -17.8740169450      -60.1001951453  TIP3      13432           0.0000000000
     91810     14792  TIP3      H1            -28.6128609915      -17.8423788418      -60.4022282298  TIP3      13432           0.0000000000
     91811     14792  TIP3      H2            -27.6918641816      -16.8922443508      -60.0849739325  TIP3      13432           0.0000000000
     91812     14793  TIP3      OH2           -30.5075830782      -10.0886669019      -47.3752896942  TIP3      13433           0.0000000000
     91813     14793  TIP3      H1            -30.7852453423      -10.5275197527      -46.5628826212  TIP3      13433           0.0000000000
     91814     14793  TIP3      H2            -30.6913771737       -9.1590540831      -47.2035740511  TIP3      13433           0.0000000000
     91815     14794  TIP3      OH2           -27.3714920562      -15.6135386757      -58.6254821018  TIP3      13434           0.0000000000
     91816     14794  TIP3      H1            -26.4532506512      -15.7721168221      -58.3529237598  TIP3      13434           0.0000000000
     91817     14794  TIP3      H2            -27.3399865448      -14.8812499284      -59.2565723544  TIP3      13434           0.0000000000
     91818     14795  TIP3      OH2           -36.7614169678      -10.9434779508      -52.6736392287  TIP3      13435           0.0000000000
     91819     14795  TIP3      H1            -36.1969457477      -11.0764341468      -53.4590741760  TIP3      13435           0.0000000000
     91820     14795  TIP3      H2            -36.8087774350      -11.8515644288      -52.3090539643  TIP3      13435           0.0000000000
     91821     14796  TIP3      OH2           -29.8485106017       -8.9109435696      -59.4596013053  TIP3      13436           0.0000000000
     91822     14796  TIP3      H1            -30.2305828241       -8.0636954893      -59.1539041422  TIP3      13436           0.0000000000
     91823     14796  TIP3      H2            -30.5964801060       -9.5280256131      -59.3092225762  TIP3      13436           0.0000000000
     91824     14797  TIP3      OH2           -39.8655041157      -12.6111814958      -47.4909295072  TIP3      13437           0.0000000000
     91825     14797  TIP3      H1            -39.6493080553      -13.0196837323      -46.6432585229  TIP3      13437           0.0000000000
     91826     14797  TIP3      H2            -40.4918652988      -13.2220702818      -47.9063758218  TIP3      13437           0.0000000000
     91827     14798  TIP3      OH2           -28.1981432883       -7.6806166536      -47.3549403689  TIP3      13438           0.0000000000
     91828     14798  TIP3      H1            -29.1127283192       -7.4738825531      -47.5998978981  TIP3      13438           0.0000000000
     91829     14798  TIP3      H2            -28.1809641488       -7.4474359743      -46.4224555451  TIP3      13438           0.0000000000
     91830     14799  TIP3      OH2           -22.5120512145      -15.4931785918      -58.9405162790  TIP3      13439           0.0000000000
     91831     14799  TIP3      H1            -23.0087686642      -15.8304128703      -59.6966462243  TIP3      13439           0.0000000000
     91832     14799  TIP3      H2            -22.3927036135      -14.5591500349      -59.2299543419  TIP3      13439           0.0000000000
     91833     14800  TIP3      OH2           -22.5365123055       -9.7538794373      -46.1869690539  TIP3      13440           0.0000000000
     91834     14800  TIP3      H1            -23.3885068967       -9.3970378859      -46.5485954836  TIP3      13440           0.0000000000
     91835     14800  TIP3      H2            -21.9739994321       -9.6549048024      -46.9687160248  TIP3      13440           0.0000000000
     91836     14801  TIP3      OH2           -24.1875118027       -6.6679207404      -58.5660943445  TIP3      13441           0.0000000000
     91837     14801  TIP3      H1            -24.5643155214       -7.4881444440      -58.2248679297  TIP3      13441           0.0000000000
     91838     14801  TIP3      H2            -23.8972275778       -6.8717810200      -59.4774558042  TIP3      13441           0.0000000000
     91839     14802  TIP3      OH2           -27.0094590847      -11.8563486616      -51.4525371349  TIP3      13442           0.0000000000
     91840     14802  TIP3      H1            -27.9477059459      -12.0741429940      -51.5746322965  TIP3      13442           0.0000000000
     91841     14802  TIP3      H2            -26.5677042535      -12.6106239637      -51.8881929761  TIP3      13442           0.0000000000
     91842     14803  TIP3      OH2           -34.4916258186       -7.5054711143      -55.3022298124  TIP3      13443           0.0000000000
     91843     14803  TIP3      H1            -33.9743458829       -6.7265248351      -55.5774211341  TIP3      13443           0.0000000000
     91844     14803  TIP3      H2            -35.3481539504       -7.2909849742      -55.7048504375  TIP3      13443           0.0000000000
     91845     14804  TIP3      OH2           -38.8038026617      -12.7322378059      -60.7260978844  TIP3      13444           0.0000000000
     91846     14804  TIP3      H1            -38.1330517860      -12.0865436387      -60.4320324816  TIP3      13444           0.0000000000
     91847     14804  TIP3      H2            -39.6258873072      -12.3004143928      -60.5015745832  TIP3      13444           0.0000000000
     91848     14805  TIP3      OH2           -33.0556438521       -9.8598889787      -55.7922332502  TIP3      13445           0.0000000000
     91849     14805  TIP3      H1            -33.3698834774       -8.9394813672      -55.7636301446  TIP3      13445           0.0000000000
     91850     14805  TIP3      H2            -33.8031956662      -10.3546680604      -55.4078305170  TIP3      13445           0.0000000000
     91851     14806  TIP3      OH2           -32.6163428337       -5.6956494290      -49.4617581037  TIP3      13446           0.0000000000
     91852     14806  TIP3      H1            -32.1684673609       -4.8689406684      -49.7070679001  TIP3      13446           0.0000000000
     91853     14806  TIP3      H2            -31.9939129941       -6.0032742242      -48.7749994728  TIP3      13446           0.0000000000
     91854     14807  TIP3      OH2           -34.3807983580       -4.8627606775      -56.3140433534  TIP3      13447           0.0000000000
     91855     14807  TIP3      H1            -35.3448984455       -4.7250097229      -56.1732681642  TIP3      13447           0.0000000000
     91856     14807  TIP3      H2            -34.0206772052       -4.0282384766      -55.9570207175  TIP3      13447           0.0000000000
     91857     14808  TIP3      OH2           -29.1087145358       -9.6825327712      -49.8482181853  TIP3      13448           0.0000000000
     91858     14808  TIP3      H1            -29.3939689288       -9.8549618625      -48.9279286229  TIP3      13448           0.0000000000
     91859     14808  TIP3      H2            -28.4340072135      -10.3713687264      -49.9685800848  TIP3      13448           0.0000000000
     91860     14809  TIP3      OH2           -26.7966086676       -8.6323833489      -60.6801994226  TIP3      13449           0.0000000000
     91861     14809  TIP3      H1            -26.5065848468       -9.0944368421      -59.8699778253  TIP3      13449           0.0000000000
     91862     14809  TIP3      H2            -27.7537059471       -8.7769273123      -60.6241438314  TIP3      13449           0.0000000000
     91863     14810  TIP3      OH2           -26.3493209720       -5.0907084513      -47.2816861642  TIP3      13450           0.0000000000
     91864     14810  TIP3      H1            -26.9588728827       -5.6031837934      -47.8304092377  TIP3      13450           0.0000000000
     91865     14810  TIP3      H2            -26.0649377148       -4.4030801179      -47.9214564532  TIP3      13450           0.0000000000
     91866     14811  TIP3      OH2           -22.2761972428       -4.2172784279      -60.4662262964  TIP3      13451           0.0000000000
     91867     14811  TIP3      H1            -21.5790996636       -3.5834660646      -60.7104429837  TIP3      13451           0.0000000000
     91868     14811  TIP3      H2            -22.9958545107       -3.6170263690      -60.1702205672  TIP3      13451           0.0000000000
     91869     14812  TIP3      OH2           -38.2029235738      -17.8094315706      -47.9469443495  TIP3      13452           0.0000000000
     91870     14812  TIP3      H1            -39.1075315302      -17.4831735827      -47.9661519807  TIP3      13452           0.0000000000
     91871     14812  TIP3      H2            -38.3026600793      -18.6716808138      -47.5042162116  TIP3      13452           0.0000000000
     91872     14813  TIP3      OH2           -25.9562357486       -9.9829984831      -58.4833951310  TIP3      13453           0.0000000000
     91873     14813  TIP3      H1            -26.2092040212      -10.7606977041      -57.9429370506  TIP3      13453           0.0000000000
     91874     14813  TIP3      H2            -25.0126239300       -9.9059229915      -58.2667522948  TIP3      13453           0.0000000000
     91875     14814  TIP3      OH2           -38.5988345413       -6.0602607024      -49.4891360889  TIP3      13454           0.0000000000
     91876     14814  TIP3      H1            -38.3298021709       -6.9881409139      -49.4786906399  TIP3      13454           0.0000000000
     91877     14814  TIP3      H2            -38.3034620783       -5.7345118203      -48.6255665661  TIP3      13454           0.0000000000
     91878     14815  TIP3      OH2           -33.8757089141       -7.9789805872      -59.8002462801  TIP3      13455           0.0000000000
     91879     14815  TIP3      H1            -33.5754878217       -8.5261771676      -59.0615761021  TIP3      13455           0.0000000000
     91880     14815  TIP3      H2            -33.7508079568       -7.0659259229      -59.4637875171  TIP3      13455           0.0000000000
     91881     14816  TIP3      OH2           -37.3645497657      -10.7240345799      -59.3394098292  TIP3      13456           0.0000000000
     91882     14816  TIP3      H1            -38.0280441307      -10.3458219251      -58.7170893770  TIP3      13456           0.0000000000
     91883     14816  TIP3      H2            -36.7849447699       -9.9714750712      -59.5407881902  TIP3      13456           0.0000000000
     91884     14817  TIP3      OH2           -29.5005227423      -18.0715952212      -48.9961283603  TIP3      13457           0.0000000000
     91885     14817  TIP3      H1            -28.7590297414      -18.0329670901      -48.3762448158  TIP3      13457           0.0000000000
     91886     14817  TIP3      H2            -29.8680735604      -18.9587796185      -48.8307268228  TIP3      13457           0.0000000000
     91887     14818  TIP3      OH2           -28.7792728119      -18.4941963600      -57.8125162349  TIP3      13458           0.0000000000
     91888     14818  TIP3      H1            -28.5056763164      -18.0426261016      -58.6444865744  TIP3      13458           0.0000000000
     91889     14818  TIP3      H2            -28.1543739041      -18.0614866682      -57.2230068253  TIP3      13458           0.0000000000
     91890     14819  TIP3      OH2           -31.0383121473       -6.3201802996      -59.0580494116  TIP3      13459           0.0000000000
     91891     14819  TIP3      H1            -31.8640400062       -5.8103272690      -59.0119158500  TIP3      13459           0.0000000000
     91892     14819  TIP3      H2            -30.5063723295       -5.8238758876      -59.6883390595  TIP3      13459           0.0000000000
     91893     14820  TIP3      OH2           -31.5280428241      -16.7450582165      -57.0594345503  TIP3      13460           0.0000000000
     91894     14820  TIP3      H1            -30.7195934681      -16.1934571505      -57.0646896901  TIP3      13460           0.0000000000
     91895     14820  TIP3      H2            -31.7621069172      -16.8738908143      -56.1253718123  TIP3      13460           0.0000000000
     91896     14821  TIP3      OH2           -30.8596884128      -15.6633504697      -47.9493655897  TIP3      13461           0.0000000000
     91897     14821  TIP3      H1            -30.8906585596      -15.1771526868      -47.1204237004  TIP3      13461           0.0000000000
     91898     14821  TIP3      H2            -30.3397975852      -16.4640344608      -47.7935541845  TIP3      13461           0.0000000000
     91899     14822  TIP3      OH2           -30.6504694939      -19.6739476647      -56.1984447326  TIP3      13462           0.0000000000
     91900     14822  TIP3      H1            -30.9609073389      -19.0372904724      -55.5208566517  TIP3      13462           0.0000000000
     91901     14822  TIP3      H2            -29.9564374116      -19.1095695403      -56.6368285342  TIP3      13462           0.0000000000
     91902     14823  TIP3      OH2           -33.6895504984       -5.2966299008      -59.0528519656  TIP3      13463           0.0000000000
     91903     14823  TIP3      H1            -33.4995530928       -4.4731180728      -59.5506226131  TIP3      13463           0.0000000000
     91904     14823  TIP3      H2            -33.9144457543       -4.9520555358      -58.1594898158  TIP3      13463           0.0000000000
     91905     14824  TIP3      OH2           -34.9723050745      -18.6023758289      -59.4109507046  TIP3      13464           0.0000000000
     91906     14824  TIP3      H1            -35.0110551264      -17.6785315450      -59.1151158290  TIP3      13464           0.0000000000
     91907     14824  TIP3      H2            -34.0413020463      -18.8110512365      -59.2015770176  TIP3      13464           0.0000000000
     91908     14825  TIP3      OH2           -24.7756014068      -17.7904425548      -46.9981196921  TIP3      13465           0.0000000000
     91909     14825  TIP3      H1            -25.7079814214      -17.5506528881      -47.1555850543  TIP3      13465           0.0000000000
     91910     14825  TIP3      H2            -24.4728636089      -17.8893316165      -47.9104572220  TIP3      13465           0.0000000000
     91911     14826  TIP3      OH2           -26.1862267450      -14.0496975371      -52.9702079440  TIP3      13466           0.0000000000
     91912     14826  TIP3      H1            -26.9836951421      -14.5095101313      -53.2980459855  TIP3      13466           0.0000000000
     91913     14826  TIP3      H2            -25.6830644278      -14.7543829267      -52.5027816127  TIP3      13466           0.0000000000
     91914     14827  TIP3      OH2           -36.7405853867       -8.1176423798      -60.4346349840  TIP3      13467           0.0000000000
     91915     14827  TIP3      H1            -36.0872835718       -7.4897795637      -60.1061428206  TIP3      13467           0.0000000000
     91916     14827  TIP3      H2            -36.2282591119       -8.5848447429      -61.1046607308  TIP3      13467           0.0000000000
     91917     14828  TIP3      OH2           -25.0976052826       -4.7994414409      -51.3650015632  TIP3      13468           0.0000000000
     91918     14828  TIP3      H1            -25.1830422776       -4.1127148606      -52.0489944198  TIP3      13468           0.0000000000
     91919     14828  TIP3      H2            -24.1356364405       -4.7416642339      -51.1659218705  TIP3      13468           0.0000000000
     91920     14829  TIP3      OH2           -37.5835557824      -20.6783520213      -52.5652482724  TIP3      13469           0.0000000000
     91921     14829  TIP3      H1            -37.8081530581      -20.6886999853      -53.5154515318  TIP3      13469           0.0000000000
     91922     14829  TIP3      H2            -38.0309825968      -21.5011865838      -52.2862878695  TIP3      13469           0.0000000000
     91923     14830  TIP3      OH2           -38.6322808346       -6.7653261900      -56.3823556488  TIP3      13470           0.0000000000
     91924     14830  TIP3      H1            -39.4917240795       -6.3319090529      -56.4313521284  TIP3      13470           0.0000000000
     91925     14830  TIP3      H2            -38.1709574168       -6.2824979069      -57.0836733448  TIP3      13470           0.0000000000
     91926     14831  TIP3      OH2           -26.0493475122       -5.8813869079      -61.8859875060  TIP3      13471           0.0000000000
     91927     14831  TIP3      H1            -25.8047916380       -6.7128418433      -61.4374063779  TIP3      13471           0.0000000000
     91928     14831  TIP3      H2            -25.2867740483       -5.7036760929      -62.4448289866  TIP3      13471           0.0000000000
     91929     14832  TIP3      OH2           -27.1084013889      -10.4697677679      -47.5127581313  TIP3      13472           0.0000000000
     91930     14832  TIP3      H1            -26.3203151274       -9.8936909225      -47.4364043299  TIP3      13472           0.0000000000
     91931     14832  TIP3      H2            -27.7981164840       -9.8400225944      -47.2670711218  TIP3      13472           0.0000000000
     91932     14833  TIP3      OH2           -33.9392133677      -11.9632374856      -59.6608929452  TIP3      13473           0.0000000000
     91933     14833  TIP3      H1            -34.4703458387      -12.4911005011      -59.0464099743  TIP3      13473           0.0000000000
     91934     14833  TIP3      H2            -33.6471103295      -12.6410359511      -60.3176458606  TIP3      13473           0.0000000000
     91935     14834  TIP3      OH2           -34.7252762791      -14.1686126894      -47.4234902852  TIP3      13474           0.0000000000
     91936     14834  TIP3      H1            -35.2915864429      -13.4477208377      -47.1120846268  TIP3      13474           0.0000000000
     91937     14834  TIP3      H2            -34.3077248216      -13.7934314920      -48.2112356705  TIP3      13474           0.0000000000
     91938     14835  TIP3      OH2           -32.9164722064      -13.7375157786      -61.4713081002  TIP3      13475           0.0000000000
     91939     14835  TIP3      H1            -32.9943158806      -13.9309013775      -62.4113231718  TIP3      13475           0.0000000000
     91940     14835  TIP3      H2            -31.9346165872      -13.6466282070      -61.3680300133  TIP3      13475           0.0000000000
     91941     14836  TIP3      OH2           -34.3788174000      -16.7779797538      -46.3292216456  TIP3      13476           0.0000000000
     91942     14836  TIP3      H1            -34.2137131738      -17.4897216534      -46.9695887226  TIP3      13476           0.0000000000
     91943     14836  TIP3      H2            -34.3563046457      -15.9597213649      -46.8628745011  TIP3      13476           0.0000000000
     91944     14837  TIP3      OH2           -33.9111589583      -18.4230296466      -48.7667653365  TIP3      13477           0.0000000000
     91945     14837  TIP3      H1            -33.3938989710      -17.9430183897      -49.4485363234  TIP3      13477           0.0000000000
     91946     14837  TIP3      H2            -34.7906230553      -18.5108363847      -49.1986926128  TIP3      13477           0.0000000000
     91947     14838  TIP3      OH2           -32.3450919512      -12.9556503811      -48.5477435967  TIP3      13478           0.0000000000
     91948     14838  TIP3      H1            -31.5736549920      -13.0998195516      -49.1082600647  TIP3      13478           0.0000000000
     91949     14838  TIP3      H2            -32.6947253182      -12.1025422065      -48.8344291771  TIP3      13478           0.0000000000
     91950     14839  TIP3      OH2           -33.0653544212      -20.9190444229      -48.3589692097  TIP3      13479           0.0000000000
     91951     14839  TIP3      H1            -33.3149313985      -19.9830703686      -48.4742195784  TIP3      13479           0.0000000000
     91952     14839  TIP3      H2            -33.8400202120      -21.3219230711      -48.8142372601  TIP3      13479           0.0000000000
     91953     14840  TIP3      OH2           -33.0570851140       -3.0563855549      -60.4577316289  TIP3      13480           0.0000000000
     91954     14840  TIP3      H1            -32.0920973318       -2.9502308748      -60.3251242403  TIP3      13480           0.0000000000
     91955     14840  TIP3      H2            -33.2473634362       -2.3830057955      -61.1086432819  TIP3      13480           0.0000000000
     91956     14841  TIP3      OH2           -39.4618869982       -8.4898957204      -60.9466370930  TIP3      13481           0.0000000000
     91957     14841  TIP3      H1            -38.5179164915       -8.3647917656      -60.7100196601  TIP3      13481           0.0000000000
     91958     14841  TIP3      H2            -39.3902533455       -9.0915598334      -61.6878442193  TIP3      13481           0.0000000000
     91959     14842  TIP3      OH2            40.7146743593       -3.0389032376      -56.0095756747  TIP3      13482           0.0000000000
     91960     14842  TIP3      H1             39.9529116021       -3.5112082052      -56.3689457649  TIP3      13482           0.0000000000
     91961     14842  TIP3      H2             40.9672858508       -3.6560378227      -55.2916746057  TIP3      13482           0.0000000000
     91962     14843  TIP3      OH2           -39.8760123307       -4.9325844423      -54.1222806802  TIP3      13483           0.0000000000
     91963     14843  TIP3      H1            -40.2394679457       -5.8193740033      -53.9444990132  TIP3      13483           0.0000000000
     91964     14843  TIP3      H2            -39.6355099885       -4.5993439625      -53.2338606916  TIP3      13483           0.0000000000
     91965     14844  TIP3      OH2           -22.3737180241       -4.1556005657      -51.1475890725  TIP3      13484           0.0000000000
     91966     14844  TIP3      H1            -22.3468834341       -4.0014417990      -50.1870193398  TIP3      13484           0.0000000000
     91967     14844  TIP3      H2            -21.6607273101       -3.5793792051      -51.4393641345  TIP3      13484           0.0000000000
     91968     14845  TIP3      OH2           -22.7611707998       -4.5704144870      -48.2660000074  TIP3      13485           0.0000000000
     91969     14845  TIP3      H1            -23.2560230805       -5.3451805274      -48.5848768484  TIP3      13485           0.0000000000
     91970     14845  TIP3      H2            -22.2632364797       -5.0065216780      -47.5444976963  TIP3      13485           0.0000000000
     91971     14846  TIP3      OH2           -23.0435228121      -10.5036671763      -58.1072701554  TIP3      13486           0.0000000000
     91972     14846  TIP3      H1            -22.1660391075      -10.1316830364      -57.8968604673  TIP3      13486           0.0000000000
     91973     14846  TIP3      H2            -23.0485763771      -11.2234067264      -57.4291706789  TIP3      13486           0.0000000000
     91974     14847  TIP3      OH2           -22.7361019931      -12.4032161699      -56.2474939493  TIP3      13487           0.0000000000
     91975     14847  TIP3      H1            -23.4252745199      -12.9640060048      -55.8322020211  TIP3      13487           0.0000000000
     91976     14847  TIP3      H2            -22.0476847960      -12.3114047494      -55.5653903092  TIP3      13487           0.0000000000
     91977     14848  TIP3      OH2           -22.9502382787       -9.7478931517      -51.2836504066  TIP3      13488           0.0000000000
     91978     14848  TIP3      H1            -22.1009151756      -10.0944525448      -51.5971206256  TIP3      13488           0.0000000000
     91979     14848  TIP3      H2            -22.7975217203       -8.7858422598      -51.4058499825  TIP3      13488           0.0000000000
     91980     14849  TIP3      OH2           -24.3971431046       -6.8414978822      -48.9637738212  TIP3      13489           0.0000000000
     91981     14849  TIP3      H1            -25.0693630003       -6.4883198330      -48.3650146183  TIP3      13489           0.0000000000
     91982     14849  TIP3      H2            -24.9301445554       -7.2491721207      -49.6761307905  TIP3      13489           0.0000000000
     91983     14850  TIP3      OH2           -22.4225807673      -12.6319670975      -59.8369773136  TIP3      13490           0.0000000000
     91984     14850  TIP3      H1            -22.9505167274      -12.2426655464      -60.5315407528  TIP3      13490           0.0000000000
     91985     14850  TIP3      H2            -22.4104301290      -11.9262633061      -59.1577270170  TIP3      13490           0.0000000000
     91986     14851  TIP3      OH2           -24.8342950248      -13.9724866048      -55.6210308500  TIP3      13491           0.0000000000
     91987     14851  TIP3      H1            -25.0179469493      -14.9231468672      -55.6806461991  TIP3      13491           0.0000000000
     91988     14851  TIP3      H2            -25.2218515779      -13.7447940810      -54.7625315283  TIP3      13491           0.0000000000
     91989     14852  TIP3      OH2           -39.8829779750      -11.8955004511      -51.6255227006  TIP3      13492           0.0000000000
     91990     14852  TIP3      H1            -39.6845832643      -11.9623111713      -52.5771760825  TIP3      13492           0.0000000000
     91991     14852  TIP3      H2            -39.0109823349      -12.0378604459      -51.2152251307  TIP3      13492           0.0000000000
     91992     14853  TIP3      OH2           -23.9462845389      -12.0257259985      -45.9733295015  TIP3      13493           0.0000000000
     91993     14853  TIP3      H1            -23.3646919810      -12.7494001500      -45.7778811115  TIP3      13493           0.0000000000
     91994     14853  TIP3      H2            -23.3940490568      -11.2189505351      -46.0277811704  TIP3      13493           0.0000000000
     91995     14854  TIP3      OH2           -24.7463752713      -17.9990761312      -62.2265948058  TIP3      13494           0.0000000000
     91996     14854  TIP3      H1            -24.1871708839      -18.3620698048      -61.5243415579  TIP3      13494           0.0000000000
     91997     14854  TIP3      H2            -25.6471629493      -18.2694553804      -61.9867474406  TIP3      13494           0.0000000000
     91998     14855  TIP3      OH2           -25.1529133436      -16.3719145553      -57.1527360508  TIP3      13495           0.0000000000
     91999     14855  TIP3      H1            -24.8743558304      -17.3116228074      -57.0607501408  TIP3      13495           0.0000000000
     92000     14855  TIP3      H2            -24.3700263732      -15.9762876856      -57.5594305585  TIP3      13495           0.0000000000
     92001     14856  TIP3      OH2           -24.5436395538      -15.8197078141      -51.7717802002  TIP3      13496           0.0000000000
     92002     14856  TIP3      H1            -23.5850124534      -15.6111102868      -51.7608331959  TIP3      13496           0.0000000000
     92003     14856  TIP3      H2            -24.7456258354      -15.7034138275      -50.8269848237  TIP3      13496           0.0000000000
     92004     14857  TIP3      OH2           -24.4848219267      -15.0940244394      -48.9702806695  TIP3      13497           0.0000000000
     92005     14857  TIP3      H1            -25.3622237556      -14.8140767012      -48.6249737365  TIP3      13497           0.0000000000
     92006     14857  TIP3      H2            -24.0705826442      -14.2321337383      -49.1815208186  TIP3      13497           0.0000000000
     92007     14858  TIP3      OH2           -24.5186863666      -19.1029478298      -57.1537010846  TIP3      13498           0.0000000000
     92008     14858  TIP3      H1            -24.3111238702      -19.5334733329      -56.2959934135  TIP3      13498           0.0000000000
     92009     14858  TIP3      H2            -25.1260296941      -19.7359488902      -57.5900764199  TIP3      13498           0.0000000000
     92010     14859  TIP3      OH2           -39.0557758248      -18.2842342526      -52.6330911608  TIP3      13499           0.0000000000
     92011     14859  TIP3      H1            -38.6012884078      -19.0997004171      -52.3242825022  TIP3      13499           0.0000000000
     92012     14859  TIP3      H2            -38.5248102542      -17.6147901536      -52.1824622722  TIP3      13499           0.0000000000
     92013     14860  TIP3      OH2           -40.7802717834      -15.0399092667      -52.1958516228  TIP3      13500           0.0000000000
     92014     14860  TIP3      H1            -40.0387546268      -15.5971008627      -52.4748854997  TIP3      13500           0.0000000000
     92015     14860  TIP3      H2            -40.2550215973      -14.5588934185      -51.5281015101  TIP3      13500           0.0000000000
     92016     14861  TIP3      OH2           -22.6938112380      -19.0549844064      -60.5492996733  TIP3      13501           0.0000000000
     92017     14861  TIP3      H1            -22.2830559153      -19.7476256725      -61.0872887268  TIP3      13501           0.0000000000
     92018     14861  TIP3      H2            -21.9931817734      -18.3808871192      -60.5743328698  TIP3      13501           0.0000000000
     92019     14862  TIP3      OH2           -40.2090161186      -19.0859958071      -57.4607571772  TIP3      13502           0.0000000000
     92020     14862  TIP3      H1            -41.1631679683      -19.0630765647      -57.7361881174  TIP3      13502           0.0000000000
     92021     14862  TIP3      H2            -39.7791354473      -18.6712849686      -58.2107564415  TIP3      13502           0.0000000000
     92022     14863  TIP3      OH2           -25.6610925179       -4.0921205032      -55.5162644163  TIP3      13503           0.0000000000
     92023     14863  TIP3      H1            -24.9668397454       -4.3766546763      -56.1422208391  TIP3      13503           0.0000000000
     92024     14863  TIP3      H2            -25.1356144016       -3.5783586980      -54.8791320582  TIP3      13503           0.0000000000
     92025     14864  TIP3      OH2            41.0823224907      -20.1709815529      -49.0615982454  TIP3      13504           0.0000000000
     92026     14864  TIP3      H1             40.4081714771      -20.5838800276      -48.5116585113  TIP3      13504           0.0000000000
     92027     14864  TIP3      H2             40.5222374935      -19.6731990379      -49.6729274988  TIP3      13504           0.0000000000
     92028     14865  TIP3      OH2           -35.3147271681       -6.2120171457      -48.8149563166  TIP3      13505           0.0000000000
     92029     14865  TIP3      H1            -35.6633760920       -5.3185037862      -49.0005861834  TIP3      13505           0.0000000000
     92030     14865  TIP3      H2            -34.3636604632       -6.0416922419      -49.0039369801  TIP3      13505           0.0000000000
     92031     14866  TIP3      OH2           -30.9531112271       -4.8128804946      -45.7918004583  TIP3      13506           0.0000000000
     92032     14866  TIP3      H1            -30.7753946451       -5.0689335278      -44.8779491096  TIP3      13506           0.0000000000
     92033     14866  TIP3      H2            -30.0952469279       -4.4477338405      -46.0705165670  TIP3      13506           0.0000000000
     92034     14867  TIP3      OH2           -28.7212282804       -3.4325441374      -46.5687101699  TIP3      13507           0.0000000000
     92035     14867  TIP3      H1            -28.0054994814       -4.0417318924      -46.7957668261  TIP3      13507           0.0000000000
     92036     14867  TIP3      H2            -28.3196627423       -3.0916095735      -45.7462754177  TIP3      13507           0.0000000000
     92037     14868  TIP3      OH2           -23.6431604270      -20.8388114842      -47.5097793722  TIP3      13508           0.0000000000
     92038     14868  TIP3      H1            -24.5316486287      -20.5930030301      -47.8115019931  TIP3      13508           0.0000000000
     92039     14868  TIP3      H2            -23.5105032146      -21.7084196406      -47.9389648787  TIP3      13508           0.0000000000
     92040     14869  TIP3      OH2           -37.8696386111       -2.9279157162      -48.7433300897  TIP3      13509           0.0000000000
     92041     14869  TIP3      H1            -38.6106951786       -2.4450340913      -49.1421196388  TIP3      13509           0.0000000000
     92042     14869  TIP3      H2            -38.2205530342       -3.1018859311      -47.8523947759  TIP3      13509           0.0000000000
     92043     14870  TIP3      OH2           -35.4095545156       -3.3253065250      -49.6682004991  TIP3      13510           0.0000000000
     92044     14870  TIP3      H1            -36.2969685430       -3.1827769916      -49.2577629038  TIP3      13510           0.0000000000
     92045     14870  TIP3      H2            -35.4824308826       -2.7531899949      -50.4550573545  TIP3      13510           0.0000000000
     92046     14871  TIP3      OH2           -30.7062352087       -3.4489283893      -50.5106314487  TIP3      13511           0.0000000000
     92047     14871  TIP3      H1            -31.1597823318       -2.8802428165      -51.1485260094  TIP3      13511           0.0000000000
     92048     14871  TIP3      H2            -30.5709241869       -2.8221655215      -49.7700559636  TIP3      13511           0.0000000000
     92049     14872  TIP3      OH2           -28.3955455432       -4.6331467558      -49.5273851537  TIP3      13512           0.0000000000
     92050     14872  TIP3      H1            -29.2678286307       -4.3522052624      -49.8430837997  TIP3      13512           0.0000000000
     92051     14872  TIP3      H2            -27.9416028239       -3.7751266098      -49.5805886806  TIP3      13512           0.0000000000
     92052     14873  TIP3      OH2           -25.8182024745       -3.0368475553      -49.2345033433  TIP3      13513           0.0000000000
     92053     14873  TIP3      H1            -25.8888689663       -2.0833820845      -49.4729122739  TIP3      13513           0.0000000000
     92054     14873  TIP3      H2            -25.6107090011       -3.4113203823      -50.1115227358  TIP3      13513           0.0000000000
     92055     14874  TIP3      OH2           -38.4458553656       -4.3004575465      -51.8075905848  TIP3      13514           0.0000000000
     92056     14874  TIP3      H1            -38.4667844419       -4.6972558675      -50.9177112796  TIP3      13514           0.0000000000
     92057     14874  TIP3      H2            -37.6114452700       -4.6228287885      -52.1995665139  TIP3      13514           0.0000000000
     92058     14875  TIP3      OH2           -36.3581158544       -5.5764842522      -53.1281539705  TIP3      13515           0.0000000000
     92059     14875  TIP3      H1            -36.5198426081       -6.5101010915      -52.9320318229  TIP3      13515           0.0000000000
     92060     14875  TIP3      H2            -35.5000981502       -5.4027699389      -52.6890667917  TIP3      13515           0.0000000000
     92061     14876  TIP3      OH2           -33.7625498228       -5.0894043854      -52.2660201690  TIP3      13516           0.0000000000
     92062     14876  TIP3      H1            -33.5600140309       -5.9926406656      -52.5466877655  TIP3      13516           0.0000000000
     92063     14876  TIP3      H2            -33.6769139072       -5.1239148241      -51.3017028321  TIP3      13516           0.0000000000
     92064     14877  TIP3      OH2           -30.2849912484      -19.4356465385      -53.1513972056  TIP3      13517           0.0000000000
     92065     14877  TIP3      H1            -30.9557997054      -20.0780885352      -52.8572310049  TIP3      13517           0.0000000000
     92066     14877  TIP3      H2            -29.7270840362      -19.9751076904      -53.7200923552  TIP3      13517           0.0000000000
     92067     14878  TIP3      OH2           -25.1490705722      -21.3910737794      -53.0702708270  TIP3      13518           0.0000000000
     92068     14878  TIP3      H1            -24.5335082645      -20.7948964344      -53.5716705041  TIP3      13518           0.0000000000
     92069     14878  TIP3      H2            -26.0288840662      -21.0258202111      -53.2961464836  TIP3      13518           0.0000000000
     92070     14879  TIP3      OH2           -23.4777101028      -20.1513139224      -54.7738260401  TIP3      13519           0.0000000000
     92071     14879  TIP3      H1            -22.7926767106      -20.7192257582      -55.2029563861  TIP3      13519           0.0000000000
     92072     14879  TIP3      H2            -22.9791829108      -19.3054918673      -54.6831074546  TIP3      13519           0.0000000000
     92073     14880  TIP3      OH2           -37.9179844759      -20.8295001480      -55.2803491394  TIP3      13520           0.0000000000
     92074     14880  TIP3      H1            -38.7189551499      -21.0568862433      -55.7910073720  TIP3      13520           0.0000000000
     92075     14880  TIP3      H2            -37.4235066547      -21.6752133767      -55.3264163668  TIP3      13520           0.0000000000
     92076     14881  TIP3      OH2           -39.0675989742      -21.0575233458      -59.4789312504  TIP3      13521           0.0000000000
     92077     14881  TIP3      H1            -38.6601009520      -20.4430310010      -60.1207339800  TIP3      13521           0.0000000000
     92078     14881  TIP3      H2            -39.7591651217      -20.5540613342      -59.0475626429  TIP3      13521           0.0000000000
     92079     14882  TIP3      OH2           -33.4036814449      -20.9313296785      -55.5156997145  TIP3      13522           0.0000000000
     92080     14882  TIP3      H1            -32.5284872932      -20.5125701743      -55.5446989928  TIP3      13522           0.0000000000
     92081     14882  TIP3      H2            -33.4889294690      -21.1029110170      -54.5734527824  TIP3      13522           0.0000000000
     92082     14883  TIP3      OH2           -27.7347476155      -20.8692003914      -53.8664177476  TIP3      13523           0.0000000000
     92083     14883  TIP3      H1            -27.7712282090      -20.7549688881      -54.8225398862  TIP3      13523           0.0000000000
     92084     14883  TIP3      H2            -28.1247315523      -21.7715343403      -53.7444780192  TIP3      13523           0.0000000000
     92085     14884  TIP3      OH2           -26.4714715182      -20.8259597813      -58.2330730519  TIP3      13524           0.0000000000
     92086     14884  TIP3      H1            -27.1990827434      -20.2063520564      -58.3838939612  TIP3      13524           0.0000000000
     92087     14884  TIP3      H2            -26.8794434472      -21.6789038960      -57.9705736146  TIP3      13524           0.0000000000
     92088     14885  TIP3      OH2           -39.2475348540       -5.0839462502      -58.5114320730  TIP3      13525           0.0000000000
     92089     14885  TIP3      H1            -39.8569230136       -5.0952629348      -59.2595298376  TIP3      13525           0.0000000000
     92090     14885  TIP3      H2            -39.1699541935       -4.1324337579      -58.3942066038  TIP3      13525           0.0000000000
     92091     14886  TIP3      OH2           -37.3314896114      -19.1486199442      -60.9944062489  TIP3      13526           0.0000000000
     92092     14886  TIP3      H1            -36.8097050972      -19.6940442893      -61.5929354652  TIP3      13526           0.0000000000
     92093     14886  TIP3      H2            -36.5961176758      -18.7915637343      -60.4684188646  TIP3      13526           0.0000000000
     92094     14887  TIP3      OH2           -32.3167471876      -18.8937466025      -58.5932559894  TIP3      13527           0.0000000000
     92095     14887  TIP3      H1            -32.0074306706      -19.4110478135      -57.8494419651  TIP3      13527           0.0000000000
     92096     14887  TIP3      H2            -32.2141273996      -17.9905725468      -58.2049002306  TIP3      13527           0.0000000000
     92097     14888  TIP3      OH2           -30.3877134120       -3.7731869132      -60.2429682900  TIP3      13528           0.0000000000
     92098     14888  TIP3      H1            -29.4413935109       -3.5704685463      -60.3821830773  TIP3      13528           0.0000000000
     92099     14888  TIP3      H2            -30.5453474771       -4.3258910937      -61.0181583339  TIP3      13528           0.0000000000
     92100     14889  TIP3      OH2           -23.6553567376       -4.3000683605      -57.4919421061  TIP3      13529           0.0000000000
     92101     14889  TIP3      H1            -23.8567718722       -5.0752661269      -58.0715161915  TIP3      13529           0.0000000000
     92102     14889  TIP3      H2            -23.7377082337       -3.5602871686      -58.1241184246  TIP3      13529           0.0000000000
     92103     14890  TIP3      OH2           -38.1932139730      -20.6317913105      -46.0990245091  TIP3      13530           0.0000000000
     92104     14890  TIP3      H1            -38.5068862502      -21.2230084045      -45.4029862599  TIP3      13530           0.0000000000
     92105     14890  TIP3      H2            -37.3321296918      -20.4522393782      -45.7096359385  TIP3      13530           0.0000000000
     92106     14891  TIP3      OH2           -37.4070880025       -4.1523254200      -61.5790531358  TIP3      13531           0.0000000000
     92107     14891  TIP3      H1            -37.6854939356       -3.8331169613      -60.7148675195  TIP3      13531           0.0000000000
     92108     14891  TIP3      H2            -36.6208792512       -4.6603131911      -61.4077725992  TIP3      13531           0.0000000000
     92109     14892  TIP3      OH2            -9.9643827393      -11.6655312935      -55.4270151083  TIP3      13532           0.0000000000
     92110     14892  TIP3      H1             -9.9752909257      -10.6870082947      -55.4693963927  TIP3      13532           0.0000000000
     92111     14892  TIP3      H2            -10.6923101633      -11.9038965257      -56.0284770630  TIP3      13532           0.0000000000
     92112     14893  TIP3      OH2           -11.1111659592      -12.4169356498      -51.9259497786  TIP3      13533           0.0000000000
     92113     14893  TIP3      H1            -11.1202712705      -13.0668569192      -51.2117366903  TIP3      13533           0.0000000000
     92114     14893  TIP3      H2            -11.4575705141      -12.9176159625      -52.6826606264  TIP3      13533           0.0000000000
     92115     14894  TIP3      OH2           -18.7631583334      -12.7533260111      -50.4423120276  TIP3      13534           0.0000000000
     92116     14894  TIP3      H1            -18.6758813071      -13.4097288374      -49.7005997155  TIP3      13534           0.0000000000
     92117     14894  TIP3      H2            -18.0294862288      -12.1687229094      -50.1586333737  TIP3      13534           0.0000000000
     92118     14895  TIP3      OH2            -7.4226416663       -9.4630928838      -53.6445647053  TIP3      13535           0.0000000000
     92119     14895  TIP3      H1             -7.8417404803      -10.1765158299      -53.1567616223  TIP3      13535           0.0000000000
     92120     14895  TIP3      H2             -7.4008056015       -8.7571891568      -52.9714855007  TIP3      13535           0.0000000000
     92121     14896  TIP3      OH2           -17.8275456933       -8.2980025577      -51.8567359641  TIP3      13536           0.0000000000
     92122     14896  TIP3      H1            -18.1321721219       -9.1514978870      -52.1996240324  TIP3      13536           0.0000000000
     92123     14896  TIP3      H2            -16.8629824883       -8.4473944976      -51.8129360437  TIP3      13536           0.0000000000
     92124     14897  TIP3      OH2           -21.3619077644      -14.8520928387      -56.2590061887  TIP3      13537           0.0000000000
     92125     14897  TIP3      H1            -21.5070165297      -13.8960772337      -56.4740417209  TIP3      13537           0.0000000000
     92126     14897  TIP3      H2            -21.7766319574      -15.2673534777      -57.0183024272  TIP3      13537           0.0000000000
     92127     14898  TIP3      OH2           -20.5784021823      -12.4585648102      -54.4005961607  TIP3      13538           0.0000000000
     92128     14898  TIP3      H1            -20.4179567342      -13.4076374845      -54.3190552429  TIP3      13538           0.0000000000
     92129     14898  TIP3      H2            -19.9061999796      -12.3188515185      -55.1460455159  TIP3      13538           0.0000000000
     92130     14899  TIP3      OH2           -10.2882452749       -4.2867741603      -53.4125680785  TIP3      13539           0.0000000000
     92131     14899  TIP3      H1             -9.6741487396       -5.0103375469      -53.6903816284  TIP3      13539           0.0000000000
     92132     14899  TIP3      H2            -10.5273114474       -4.6295672677      -52.5456975628  TIP3      13539           0.0000000000
     92133     14900  TIP3      OH2           -12.7378000425      -10.0137153371      -51.4609494210  TIP3      13540           0.0000000000
     92134     14900  TIP3      H1            -12.3933222577      -10.6414362615      -52.1137981935  TIP3      13540           0.0000000000
     92135     14900  TIP3      H2            -11.9358600962       -9.8591173052      -50.9295336914  TIP3      13540           0.0000000000
     92136     14901  TIP3      OH2            -4.1291160794      -18.3566909482      -50.7134008053  TIP3      13541           0.0000000000
     92137     14901  TIP3      H1             -3.9661847127      -17.7743528177      -49.9451545347  TIP3      13541           0.0000000000
     92138     14901  TIP3      H2             -3.5774916457      -17.9254030558      -51.3796749618  TIP3      13541           0.0000000000
     92139     14902  TIP3      OH2            -9.5922605450      -15.5529827244      -51.1271642613  TIP3      13542           0.0000000000
     92140     14902  TIP3      H1             -9.4026784897      -16.5056943388      -51.1371842479  TIP3      13542           0.0000000000
     92141     14902  TIP3      H2             -9.6736940678      -15.4023737175      -52.0906963298  TIP3      13542           0.0000000000
     92142     14903  TIP3      OH2           -16.4797161457      -17.4467154170      -53.9191303354  TIP3      13543           0.0000000000
     92143     14903  TIP3      H1            -16.3471108013      -16.6234611939      -54.4310396744  TIP3      13543           0.0000000000
     92144     14903  TIP3      H2            -16.8597408662      -18.0302315178      -54.6104850601  TIP3      13543           0.0000000000
     92145     14904  TIP3      OH2            -8.7173703394      -17.3774296937      -55.5540585916  TIP3      13544           0.0000000000
     92146     14904  TIP3      H1             -8.0624692964      -17.6896362691      -54.8871136341  TIP3      13544           0.0000000000
     92147     14904  TIP3      H2             -8.1556649865      -16.8049154879      -56.0997107422  TIP3      13544           0.0000000000
     92148     14905  TIP3      OH2           -19.8208468813      -15.1109475047      -53.2022253277  TIP3      13545           0.0000000000
     92149     14905  TIP3      H1            -19.1501060795      -15.6773591490      -52.7591869536  TIP3      13545           0.0000000000
     92150     14905  TIP3      H2            -19.7213148559      -15.4116218185      -54.1297117524  TIP3      13545           0.0000000000
     92151     14906  TIP3      OH2           -14.7085309607      -13.4971275406      -53.8465616061  TIP3      13546           0.0000000000
     92152     14906  TIP3      H1            -14.0070954702      -14.0669847852      -53.4826223016  TIP3      13546           0.0000000000
     92153     14906  TIP3      H2            -15.1860110637      -14.1459380556      -54.4035233942  TIP3      13546           0.0000000000
     92154     14907  TIP3      OH2            -3.6614244867      -16.8807234816      -48.4689529036  TIP3      13547           0.0000000000
     92155     14907  TIP3      H1             -4.3523077956      -16.1917982194      -48.5767258142  TIP3      13547           0.0000000000
     92156     14907  TIP3      H2             -3.6867880943      -17.0641653225      -47.5208169742  TIP3      13547           0.0000000000
     92157     14908  TIP3      OH2           -17.5425619880      -18.5783532966      -49.9181676630  TIP3      13548           0.0000000000
     92158     14908  TIP3      H1            -17.8319538857      -17.9936585973      -50.6372453885  TIP3      13548           0.0000000000
     92159     14908  TIP3      H2            -18.2066496292      -18.3414435025      -49.2265764483  TIP3      13548           0.0000000000
     92160     14909  TIP3      OH2           -10.2576000349       -9.0738739737      -56.3306116837  TIP3      13549           0.0000000000
     92161     14909  TIP3      H1            -10.5509422589       -9.3562119457      -57.2089084021  TIP3      13549           0.0000000000
     92162     14909  TIP3      H2            -10.5656357071       -8.1395549932      -56.2930373619  TIP3      13549           0.0000000000
     92163     14910  TIP3      OH2           -15.0209981110      -10.9099546186      -49.5892921448  TIP3      13550           0.0000000000
     92164     14910  TIP3      H1            -15.7362882470      -10.2636478853      -49.4158020001  TIP3      13550           0.0000000000
     92165     14910  TIP3      H2            -14.3353545001      -10.3206241478      -49.9461348743  TIP3      13550           0.0000000000
     92166     14911  TIP3      OH2            -6.9180974655      -18.0308613092      -53.5585064457  TIP3      13551           0.0000000000
     92167     14911  TIP3      H1             -7.1258627089      -18.8026367781      -53.0261195242  TIP3      13551           0.0000000000
     92168     14911  TIP3      H2             -6.2361589700      -17.5932701860      -53.0228390351  TIP3      13551           0.0000000000
     92169     14912  TIP3      OH2           -18.0040862980      -16.6497228999      -51.8862074060  TIP3      13552           0.0000000000
     92170     14912  TIP3      H1            -17.3280087757      -16.0334477575      -51.5259781939  TIP3      13552           0.0000000000
     92171     14912  TIP3      H2            -17.4667106127      -17.1208609061      -52.5780489194  TIP3      13552           0.0000000000
     92172     14913  TIP3      OH2           -16.5707958982       -8.9009337897      -48.7686484423  TIP3      13553           0.0000000000
     92173     14913  TIP3      H1            -16.6266529023       -7.9983457411      -49.1470896743  TIP3      13553           0.0000000000
     92174     14913  TIP3      H2            -17.4846161960       -8.9700900720      -48.4019420749  TIP3      13553           0.0000000000
     92175     14914  TIP3      OH2           -20.5450230574       -9.2792576957      -58.0564185864  TIP3      13554           0.0000000000
     92176     14914  TIP3      H1            -20.7446298403       -8.9628847855      -58.9503523879  TIP3      13554           0.0000000000
     92177     14914  TIP3      H2            -20.4440513381       -8.4605568746      -57.5367105671  TIP3      13554           0.0000000000
     92178     14915  TIP3      OH2            -6.8960731574       -7.6323495840      -51.2949597363  TIP3      13555           0.0000000000
     92179     14915  TIP3      H1             -7.8604155343       -7.5201991957      -51.1477706857  TIP3      13555           0.0000000000
     92180     14915  TIP3      H2             -6.6225227841       -6.7095078196      -51.4639793302  TIP3      13555           0.0000000000
     92181     14916  TIP3      OH2            -6.5773501012      -19.3158980016      -49.8399144415  TIP3      13556           0.0000000000
     92182     14916  TIP3      H1             -7.3147313618      -18.7072098843      -49.9860016731  TIP3      13556           0.0000000000
     92183     14916  TIP3      H2             -5.8686603905      -18.9249313748      -50.3896151284  TIP3      13556           0.0000000000
     92184     14917  TIP3      OH2           -13.6052722650      -21.2234442245      -52.4365564158  TIP3      13557           0.0000000000
     92185     14917  TIP3      H1            -13.7410870045      -22.1883989988      -52.4841179003  TIP3      13557           0.0000000000
     92186     14917  TIP3      H2            -14.4764602390      -20.9195426749      -52.1075369410  TIP3      13557           0.0000000000
     92187     14918  TIP3      OH2            -8.6143560180       -5.8339151140      -54.6808390336  TIP3      13558           0.0000000000
     92188     14918  TIP3      H1             -8.2166515957       -6.5751290947      -55.1876276298  TIP3      13558           0.0000000000
     92189     14918  TIP3      H2             -8.2158322046       -5.0543909170      -55.0940200645  TIP3      13558           0.0000000000
     92190     14919  TIP3      OH2            -7.4254637370       -7.9164661391      -56.1718555430  TIP3      13559           0.0000000000
     92191     14919  TIP3      H1             -7.7215460176       -8.6085081811      -56.7860948299  TIP3      13559           0.0000000000
     92192     14919  TIP3      H2             -7.3949601034       -8.4101664833      -55.3312841302  TIP3      13559           0.0000000000
     92193     14920  TIP3      OH2            -5.7730397121       -9.3279195829      -47.6766062062  TIP3      13560           0.0000000000
     92194     14920  TIP3      H1             -5.6745662315       -9.9561931245      -48.4225915786  TIP3      13560           0.0000000000
     92195     14920  TIP3      H2             -5.5957631709       -8.4676810522      -48.0966768679  TIP3      13560           0.0000000000
     92196     14921  TIP3      OH2           -11.3130703734      -12.4250164186      -57.9260570132  TIP3      13561           0.0000000000
     92197     14921  TIP3      H1            -12.0116462367      -11.8500124137      -58.3031469188  TIP3      13561           0.0000000000
     92198     14921  TIP3      H2            -10.6071808672      -12.3385259474      -58.5887872448  TIP3      13561           0.0000000000
     92199     14922  TIP3      OH2           -11.2511592520      -13.9093772063      -60.8298969710  TIP3      13562           0.0000000000
     92200     14922  TIP3      H1            -10.5167759727      -13.8950635460      -60.1977582196  TIP3      13562           0.0000000000
     92201     14922  TIP3      H2            -10.9356770091      -14.5459511212      -61.4776329992  TIP3      13562           0.0000000000
     92202     14923  TIP3      OH2            -3.9183526738      -13.0354997628      -49.6384815531  TIP3      13563           0.0000000000
     92203     14923  TIP3      H1             -4.5689967662      -12.3046378458      -49.5664250321  TIP3      13563           0.0000000000
     92204     14923  TIP3      H2             -3.4391575195      -12.7722124036      -50.4453526504  TIP3      13563           0.0000000000
     92205     14924  TIP3      OH2            -7.8693041391      -12.2405702666      -56.9941958856  TIP3      13564           0.0000000000
     92206     14924  TIP3      H1             -8.6002128261      -11.9762454574      -56.3817027572  TIP3      13564           0.0000000000
     92207     14924  TIP3      H2             -7.3939010991      -12.8914674148      -56.4452330118  TIP3      13564           0.0000000000
     92208     14925  TIP3      OH2            -7.9708781767      -14.0650850402      -47.8863515605  TIP3      13565           0.0000000000
     92209     14925  TIP3      H1             -7.9397346425      -13.2640976770      -47.3511483195  TIP3      13565           0.0000000000
     92210     14925  TIP3      H2             -8.5820270741      -13.7523769670      -48.5819609619  TIP3      13565           0.0000000000
     92211     14926  TIP3      OH2           -16.2908535853      -11.5684909451      -55.0534696849  TIP3      13566           0.0000000000
     92212     14926  TIP3      H1            -16.5795054378      -11.9383328865      -55.9207115848  TIP3      13566           0.0000000000
     92213     14926  TIP3      H2            -15.6430334813      -12.2521168091      -54.7586578880  TIP3      13566           0.0000000000
     92214     14927  TIP3      OH2           -14.9308556266       -8.1767118033      -52.3922052721  TIP3      13567           0.0000000000
     92215     14927  TIP3      H1            -14.9411297558       -8.7061580449      -53.1980592052  TIP3      13567           0.0000000000
     92216     14927  TIP3      H2            -14.1476188548       -8.5347933426      -51.9358566566  TIP3      13567           0.0000000000
     92217     14928  TIP3      OH2           -15.9568902660      -12.7829157022      -51.4267034442  TIP3      13568           0.0000000000
     92218     14928  TIP3      H1            -15.3442967245      -12.7182459085      -52.1917689375  TIP3      13568           0.0000000000
     92219     14928  TIP3      H2            -15.5333717385      -12.1583062069      -50.7973044373  TIP3      13568           0.0000000000
     92220     14929  TIP3      OH2            -9.5066564861       -7.2516132228      -50.6963370647  TIP3      13569           0.0000000000
     92221     14929  TIP3      H1             -9.8058261603       -6.6015750945      -50.0549132546  TIP3      13569           0.0000000000
     92222     14929  TIP3      H2             -9.7646932817       -8.1061296560      -50.2743798662  TIP3      13569           0.0000000000
     92223     14930  TIP3      OH2           -15.0156329070       -8.4532106249      -46.6264373857  TIP3      13570           0.0000000000
     92224     14930  TIP3      H1            -15.3370995083       -7.6085405776      -46.2548351254  TIP3      13570           0.0000000000
     92225     14930  TIP3      H2            -15.6193692832       -8.5632334357      -47.4007303339  TIP3      13570           0.0000000000
     92226     14931  TIP3      OH2            -8.9745774193      -13.0491392346      -59.3234131827  TIP3      13571           0.0000000000
     92227     14931  TIP3      H1             -8.4513531890      -12.8417694060      -58.5057858578  TIP3      13571           0.0000000000
     92228     14931  TIP3      H2             -8.6015228727      -12.4785395643      -60.0000236254  TIP3      13571           0.0000000000
     92229     14932  TIP3      OH2           -18.0363836833      -12.1935549385      -47.5647600425  TIP3      13572           0.0000000000
     92230     14932  TIP3      H1            -17.9947668179      -11.5840822380      -46.8269009879  TIP3      13572           0.0000000000
     92231     14932  TIP3      H2            -18.9712256832      -12.1384542539      -47.7895177894  TIP3      13572           0.0000000000
     92232     14933  TIP3      OH2           -11.2742872464       -6.2986927262      -55.8525804742  TIP3      13573           0.0000000000
     92233     14933  TIP3      H1            -10.8422453669       -5.9893226721      -55.0503577241  TIP3      13573           0.0000000000
     92234     14933  TIP3      H2            -11.8394202128       -5.5542049601      -56.0898977627  TIP3      13573           0.0000000000
     92235     14934  TIP3      OH2           -16.7776193734       -6.3686333020      -45.9696354827  TIP3      13574           0.0000000000
     92236     14934  TIP3      H1            -16.7665772254       -6.4325536208      -46.9405287008  TIP3      13574           0.0000000000
     92237     14934  TIP3      H2            -17.7172603336       -6.4447906849      -45.7493006972  TIP3      13574           0.0000000000
     92238     14935  TIP3      OH2            -5.2680762895      -21.2975600457      -59.4068889663  TIP3      13575           0.0000000000
     92239     14935  TIP3      H1             -6.2221256148      -21.1703140861      -59.1783727592  TIP3      13575           0.0000000000
     92240     14935  TIP3      H2             -5.0514002520      -20.4505749967      -59.8336451879  TIP3      13575           0.0000000000
     92241     14936  TIP3      OH2           -16.8415951429      -12.5486677982      -57.7361589523  TIP3      13576           0.0000000000
     92242     14936  TIP3      H1            -17.4137825381      -11.7779238395      -57.9450131896  TIP3      13576           0.0000000000
     92243     14936  TIP3      H2            -17.6496086036      -13.1131525094      -57.6354135138  TIP3      13576           0.0000000000
     92244     14937  TIP3      OH2            -4.1616287468       -6.9476332110      -61.0307444630  TIP3      13577           0.0000000000
     92245     14937  TIP3      H1             -4.0277388549       -5.9862534532      -60.9301032690  TIP3      13577           0.0000000000
     92246     14937  TIP3      H2             -3.2382108332       -7.2396891773      -61.1285793292  TIP3      13577           0.0000000000
     92247     14938  TIP3      OH2           -21.1240466549      -10.1234245353      -48.6353051593  TIP3      13578           0.0000000000
     92248     14938  TIP3      H1            -21.6511940600      -10.1760477574      -49.4546634102  TIP3      13578           0.0000000000
     92249     14938  TIP3      H2            -21.1359654770      -11.0603740022      -48.3580025239  TIP3      13578           0.0000000000
     92250     14939  TIP3      OH2           -21.4176470149       -7.3937556979      -51.7793608738  TIP3      13579           0.0000000000
     92251     14939  TIP3      H1            -20.4587738445       -7.4699707620      -51.8018142659  TIP3      13579           0.0000000000
     92252     14939  TIP3      H2            -21.5242044361       -6.5731929535      -51.2778128384  TIP3      13579           0.0000000000
     92253     14940  TIP3      OH2            -3.1198103738       -6.6983767783      -46.6431637891  TIP3      13580           0.0000000000
     92254     14940  TIP3      H1             -3.1792235831       -7.5931346669      -46.2809183921  TIP3      13580           0.0000000000
     92255     14940  TIP3      H2             -3.7937489307       -6.3186209391      -46.0471627035  TIP3      13580           0.0000000000
     92256     14941  TIP3      OH2           -12.2310389320       -7.1648570181      -47.2036151687  TIP3      13581           0.0000000000
     92257     14941  TIP3      H1            -12.1593583550       -6.2906808557      -46.7469905486  TIP3      13581           0.0000000000
     92258     14941  TIP3      H2            -13.1428951158       -7.4392591857      -47.0187359069  TIP3      13581           0.0000000000
     92259     14942  TIP3      OH2           -11.7755367338       -3.3788559992      -57.4588180106  TIP3      13582           0.0000000000
     92260     14942  TIP3      H1            -11.8893588233       -3.4543455304      -58.4175264090  TIP3      13582           0.0000000000
     92261     14942  TIP3      H2            -11.8121520344       -2.4171625563      -57.2752571483  TIP3      13582           0.0000000000
     92262     14943  TIP3      OH2           -18.1458182378       -4.5186355250      -55.6138548411  TIP3      13583           0.0000000000
     92263     14943  TIP3      H1            -18.0172782911       -4.9084050402      -54.7214185833  TIP3      13583           0.0000000000
     92264     14943  TIP3      H2            -19.0015309633       -4.9166542855      -55.8527640814  TIP3      13583           0.0000000000
     92265     14944  TIP3      OH2            -8.7526424749       -4.1673923283      -60.4542162263  TIP3      13584           0.0000000000
     92266     14944  TIP3      H1             -8.2974260508       -4.9313185124      -60.8844919561  TIP3      13584           0.0000000000
     92267     14944  TIP3      H2             -8.7004732672       -4.4469159387      -59.5247656980  TIP3      13584           0.0000000000
     92268     14945  TIP3      OH2            -9.0402092868       -4.2141927372      -57.6414033582  TIP3      13585           0.0000000000
     92269     14945  TIP3      H1            -10.0063333200       -4.1749965681      -57.4907146108  TIP3      13585           0.0000000000
     92270     14945  TIP3      H2             -8.8167886269       -5.0037322585      -57.1234205392  TIP3      13585           0.0000000000
     92271     14946  TIP3      OH2           -18.9040709177       -8.8210555400      -47.6061496336  TIP3      13586           0.0000000000
     92272     14946  TIP3      H1            -18.7520495157       -9.1740175378      -46.7320949183  TIP3      13586           0.0000000000
     92273     14946  TIP3      H2            -19.7831159270       -9.1757082595      -47.8726722235  TIP3      13586           0.0000000000
     92274     14947  TIP3      OH2           -16.2285947444      -20.3216173429      -51.6886514334  TIP3      13587           0.0000000000
     92275     14947  TIP3      H1            -17.1374055144      -20.4439630282      -52.0398865481  TIP3      13587           0.0000000000
     92276     14947  TIP3      H2            -16.3499462999      -19.4951838746      -51.1934912628  TIP3      13587           0.0000000000
     92277     14948  TIP3      OH2           -11.5977791789      -20.6251162986      -48.2871484187  TIP3      13588           0.0000000000
     92278     14948  TIP3      H1            -11.2052118610      -21.0575611101      -47.5102165823  TIP3      13588           0.0000000000
     92279     14948  TIP3      H2            -12.5689646184      -20.7878731933      -48.1541613841  TIP3      13588           0.0000000000
     92280     14949  TIP3      OH2            -8.4486338790      -16.8244727590      -47.4797174534  TIP3      13589           0.0000000000
     92281     14949  TIP3      H1             -8.7655299471      -16.9935411644      -46.5747932444  TIP3      13589           0.0000000000
     92282     14949  TIP3      H2             -8.4280766314      -15.8595848914      -47.6038205327  TIP3      13589           0.0000000000
     92283     14950  TIP3      OH2           -11.9782139772      -18.0588338988      -60.9701061506  TIP3      13590           0.0000000000
     92284     14950  TIP3      H1            -12.2465429069      -18.1347617798      -60.0351129828  TIP3      13590           0.0000000000
     92285     14950  TIP3      H2            -12.2102175165      -18.9493370555      -61.2533188191  TIP3      13590           0.0000000000
     92286     14951  TIP3      OH2           -16.1638852991      -15.3599086716      -50.4485696659  TIP3      13591           0.0000000000
     92287     14951  TIP3      H1            -16.8635543477      -15.3619432348      -49.7682280336  TIP3      13591           0.0000000000
     92288     14951  TIP3      H2            -16.1389491483      -14.4321024883      -50.7621810103  TIP3      13591           0.0000000000
     92289     14952  TIP3      OH2           -16.1739737685      -15.2485284072      -55.5317275417  TIP3      13592           0.0000000000
     92290     14952  TIP3      H1            -17.1124994223      -15.4649517709      -55.7032229648  TIP3      13592           0.0000000000
     92291     14952  TIP3      H2            -15.7935640306      -15.5018738024      -56.3937770208  TIP3      13592           0.0000000000
     92292     14953  TIP3      OH2           -10.6514889762      -14.7374156275      -56.7923664814  TIP3      13593           0.0000000000
     92293     14953  TIP3      H1            -11.0600629153      -13.9055494742      -57.1252844118  TIP3      13593           0.0000000000
     92294     14953  TIP3      H2             -9.9635862822      -14.8994959872      -57.4600063286  TIP3      13593           0.0000000000
     92295     14954  TIP3      OH2            -9.6104158339      -15.2425403879      -53.9362992936  TIP3      13594           0.0000000000
     92296     14954  TIP3      H1             -9.8891608293      -14.6792068197      -54.6791394104  TIP3      13594           0.0000000000
     92297     14954  TIP3      H2             -9.5121602148      -16.0912893536      -54.4089146218  TIP3      13594           0.0000000000
     92298     14955  TIP3      OH2           -18.5400369828      -15.0507255225      -48.7266617388  TIP3      13595           0.0000000000
     92299     14955  TIP3      H1            -18.4064179331      -14.7122496013      -47.8186953121  TIP3      13595           0.0000000000
     92300     14955  TIP3      H2            -18.9063980535      -15.9322098906      -48.5350370829  TIP3      13595           0.0000000000
     92301     14956  TIP3      OH2           -21.8352301130      -17.9560431711      -54.7484308687  TIP3      13596           0.0000000000
     92302     14956  TIP3      H1            -21.1625501716      -18.0425796640      -54.0467586771  TIP3      13596           0.0000000000
     92303     14956  TIP3      H2            -21.3980506843      -18.3467242023      -55.5276812741  TIP3      13596           0.0000000000
     92304     14957  TIP3      OH2           -20.5851431344      -17.2548792519      -59.3912090354  TIP3      13597           0.0000000000
     92305     14957  TIP3      H1            -20.1015937922      -16.6563928228      -59.9838697805  TIP3      13597           0.0000000000
     92306     14957  TIP3      H2            -21.2669756927      -16.6322043207      -59.0653365190  TIP3      13597           0.0000000000
     92307     14958  TIP3      OH2           -10.4042687665      -13.6547467385      -49.3233367348  TIP3      13598           0.0000000000
     92308     14958  TIP3      H1            -10.0369215050      -14.3067741702      -49.9582493882  TIP3      13598           0.0000000000
     92309     14958  TIP3      H2            -10.8866036059      -14.2299624196      -48.7085117292  TIP3      13598           0.0000000000
     92310     14959  TIP3      OH2           -13.6096027902      -17.6781454989      -54.5413955019  TIP3      13599           0.0000000000
     92311     14959  TIP3      H1            -14.5431079101      -17.6731905707      -54.2540712447  TIP3      13599           0.0000000000
     92312     14959  TIP3      H2            -13.1248278075      -17.8386487856      -53.7201714054  TIP3      13599           0.0000000000
     92313     14960  TIP3      OH2           -18.8281284440      -16.1577184001      -55.6395432525  TIP3      13600           0.0000000000
     92314     14960  TIP3      H1            -19.6700742239      -15.9460426322      -56.0961338533  TIP3      13600           0.0000000000
     92315     14960  TIP3      H2            -18.5122705679      -16.9470947315      -56.1129284061  TIP3      13600           0.0000000000
     92316     14961  TIP3      OH2           -15.1492506808      -16.0821028624      -58.0729408666  TIP3      13601           0.0000000000
     92317     14961  TIP3      H1            -14.2012863651      -15.9556288126      -57.8820571399  TIP3      13601           0.0000000000
     92318     14961  TIP3      H2            -15.4082965722      -15.3888632592      -58.7142850709  TIP3      13601           0.0000000000
     92319     14962  TIP3      OH2            -9.2009950724      -18.4437818231      -51.2874207478  TIP3      13602           0.0000000000
     92320     14962  TIP3      H1             -9.8989961762      -18.3829651976      -50.6001015709  TIP3      13602           0.0000000000
     92321     14962  TIP3      H2             -9.7046988697      -18.6888578872      -52.0808798947  TIP3      13602           0.0000000000
     92322     14963  TIP3      OH2           -16.4402203181      -14.9684352138      -60.4600597296  TIP3      13603           0.0000000000
     92323     14963  TIP3      H1            -17.0086618313      -15.2458475625      -61.1904938262  TIP3      13603           0.0000000000
     92324     14963  TIP3      H2            -15.6433570628      -14.6675410911      -60.9213859975  TIP3      13603           0.0000000000
     92325     14964  TIP3      OH2           -12.3292430233      -14.9214592178      -52.6536632582  TIP3      13604           0.0000000000
     92326     14964  TIP3      H1            -11.7322791875      -15.4584825004      -53.1885451570  TIP3      13604           0.0000000000
     92327     14964  TIP3      H2            -12.4707979583      -15.4702895877      -51.8708775757  TIP3      13604           0.0000000000
     92328     14965  TIP3      OH2           -17.3121011389      -18.7817909956      -56.2038185577  TIP3      13605           0.0000000000
     92329     14965  TIP3      H1            -17.6225044105      -19.7033813922      -56.2398027563  TIP3      13605           0.0000000000
     92330     14965  TIP3      H2            -16.5326423608      -18.8358089958      -56.7709701154  TIP3      13605           0.0000000000
     92331     14966  TIP3      OH2           -13.6810667171      -16.5966696184      -50.2467223746  TIP3      13606           0.0000000000
     92332     14966  TIP3      H1            -14.5105282809      -16.0873852004      -50.1690285476  TIP3      13606           0.0000000000
     92333     14966  TIP3      H2            -13.1323217078      -16.2504236206      -49.5183858972  TIP3      13606           0.0000000000
     92334     14967  TIP3      OH2           -13.0910302162      -10.3929317492      -58.5070507712  TIP3      13607           0.0000000000
     92335     14967  TIP3      H1            -13.8928997537      -10.8443710081      -58.8657190054  TIP3      13607           0.0000000000
     92336     14967  TIP3      H2            -13.3257731768      -10.2634365180      -57.5709613960  TIP3      13607           0.0000000000
     92337     14968  TIP3      OH2            -5.9052071154      -11.2023798739      -49.7324429941  TIP3      13608           0.0000000000
     92338     14968  TIP3      H1             -5.3517267641      -10.6937205528      -50.3526761816  TIP3      13608           0.0000000000
     92339     14968  TIP3      H2             -6.7703066737      -11.1282325431      -50.1915240729  TIP3      13608           0.0000000000
     92340     14969  TIP3      OH2            -9.2461021297      -17.5706107020      -60.3616964533  TIP3      13609           0.0000000000
     92341     14969  TIP3      H1            -10.1870893056      -17.4108940576      -60.5293029247  TIP3      13609           0.0000000000
     92342     14969  TIP3      H2             -8.9382679198      -16.7006384761      -60.0470664110  TIP3      13609           0.0000000000
     92343     14970  TIP3      OH2           -11.6566565409      -10.0886627295      -47.3741375485  TIP3      13610           0.0000000000
     92344     14970  TIP3      H1            -11.8765838343      -10.4892373031      -46.5562163547  TIP3      13610           0.0000000000
     92345     14970  TIP3      H2            -11.8272127595       -9.1432276967      -47.2503438083  TIP3      13610           0.0000000000
     92346     14971  TIP3      OH2            -8.5209391649      -15.6422074451      -58.6957203865  TIP3      13611           0.0000000000
     92347     14971  TIP3      H1             -7.6223533968      -15.7760208982      -58.3350145793  TIP3      13611           0.0000000000
     92348     14971  TIP3      H2             -8.4490352125      -14.8328199773      -59.2202243176  TIP3      13611           0.0000000000
     92349     14972  TIP3      OH2           -18.0496377204      -11.0562871381      -52.7553327101  TIP3      13612           0.0000000000
     92350     14972  TIP3      H1            -17.3296119494      -11.0303922661      -53.4307285244  TIP3      13612           0.0000000000
     92351     14972  TIP3      H2            -17.8029368654      -11.8350728365      -52.2424883112  TIP3      13612           0.0000000000
     92352     14973  TIP3      OH2           -10.9925415472       -8.8994463720      -59.4533959134  TIP3      13613           0.0000000000
     92353     14973  TIP3      H1            -11.3758185220       -8.0521890127      -59.1485176639  TIP3      13613           0.0000000000
     92354     14973  TIP3      H2            -11.7397591921       -9.5199905151      -59.3080045085  TIP3      13613           0.0000000000
     92355     14974  TIP3      OH2           -21.0178275987      -12.5643942441      -47.5018349333  TIP3      13614           0.0000000000
     92356     14974  TIP3      H1            -20.7774846664      -12.9948787639      -46.6588356386  TIP3      13614           0.0000000000
     92357     14974  TIP3      H2            -21.6283389656      -13.2016428285      -47.9089153525  TIP3      13614           0.0000000000
     92358     14975  TIP3      OH2            -9.3600640396       -7.7191466447      -47.3416569061  TIP3      13615           0.0000000000
     92359     14975  TIP3      H1            -10.2535491136       -7.4544759235      -47.6040459105  TIP3      13615           0.0000000000
     92360     14975  TIP3      H2             -9.3149438243       -7.4279873660      -46.4264069189  TIP3      13615           0.0000000000
     92361     14976  TIP3      OH2            -3.6691904135      -15.4916297725      -58.9442363189  TIP3      13616           0.0000000000
     92362     14976  TIP3      H1             -4.1614302305      -15.8369639887      -59.7017309866  TIP3      13616           0.0000000000
     92363     14976  TIP3      H2             -3.5414142347      -14.5626338401      -59.2405285262  TIP3      13616           0.0000000000
     92364     14977  TIP3      OH2            -3.6788332873       -9.7588949248      -46.1957077017  TIP3      13617           0.0000000000
     92365     14977  TIP3      H1             -4.5351464631       -9.3912728238      -46.5377682342  TIP3      13617           0.0000000000
     92366     14977  TIP3      H2             -3.1199516953       -9.6583180918      -46.9821139503  TIP3      13617           0.0000000000
     92367     14978  TIP3      OH2            -5.3368798424       -6.6439432399      -58.5555459512  TIP3      13618           0.0000000000
     92368     14978  TIP3      H1             -5.7078067501       -7.4705746480      -58.2181062549  TIP3      13618           0.0000000000
     92369     14978  TIP3      H2             -5.0436388788       -6.8574574429      -59.4653371406  TIP3      13618           0.0000000000
     92370     14979  TIP3      OH2            -8.1376395777      -11.8559622872      -51.4546438977  TIP3      13619           0.0000000000
     92371     14979  TIP3      H1             -9.0798421223      -12.0689391944      -51.5730743412  TIP3      13619           0.0000000000
     92372     14979  TIP3      H2             -7.7079765941      -12.6113763896      -51.8906024157  TIP3      13619           0.0000000000
     92373     14980  TIP3      OH2           -15.6179873159       -7.5212536152      -55.3590681868  TIP3      13620           0.0000000000
     92374     14980  TIP3      H1            -15.1169674465       -6.7163465375      -55.5646394246  TIP3      13620           0.0000000000
     92375     14980  TIP3      H2            -16.4966439216       -7.2869816341      -55.6884209179  TIP3      13620           0.0000000000
     92376     14981  TIP3      OH2           -19.8998588819      -12.5930983696      -60.8996596537  TIP3      13621           0.0000000000
     92377     14981  TIP3      H1            -19.2633859484      -12.0770941339      -60.3656931067  TIP3      13621           0.0000000000
     92378     14981  TIP3      H2            -20.7358248288      -12.4123241818      -60.4472755904  TIP3      13621           0.0000000000
     92379     14982  TIP3      OH2           -14.2081505060       -9.8637008042      -55.8210509067  TIP3      13622           0.0000000000
     92380     14982  TIP3      H1            -14.5110736929       -8.9398163761      -55.7527417131  TIP3      13622           0.0000000000
     92381     14982  TIP3      H2            -14.9442715474      -10.3524422079      -55.4048012146  TIP3      13622           0.0000000000
     92382     14983  TIP3      OH2           -13.7514901632       -5.6688379076      -49.4512309293  TIP3      13623           0.0000000000
     92383     14983  TIP3      H1            -13.2973263040       -4.8552347737      -49.7102635235  TIP3      13623           0.0000000000
     92384     14983  TIP3      H2            -13.1384389297       -6.0122736033      -48.7815289148  TIP3      13623           0.0000000000
     92385     14984  TIP3      OH2           -15.5136957764       -4.8595270453      -56.3070217440  TIP3      13624           0.0000000000
     92386     14984  TIP3      H1            -16.4818145804       -4.7335563630      -56.1671736613  TIP3      13624           0.0000000000
     92387     14984  TIP3      H2            -15.1597330659       -4.0166893743      -55.9626019799  TIP3      13624           0.0000000000
     92388     14985  TIP3      OH2           -10.2260607805       -9.6772975773      -49.8324407261  TIP3      13625           0.0000000000
     92389     14985  TIP3      H1            -10.5465833484       -9.8562264357      -48.9326740039  TIP3      13625           0.0000000000
     92390     14985  TIP3      H2             -9.5725368009      -10.3813763282      -49.9602025564  TIP3      13625           0.0000000000
     92391     14986  TIP3      OH2            -7.9412249069       -8.6504713285      -60.6868719140  TIP3      13626           0.0000000000
     92392     14986  TIP3      H1             -7.6289716809       -9.0827031085      -59.8674829408  TIP3      13626           0.0000000000
     92393     14986  TIP3      H2             -8.8984228527       -8.7808647608      -60.6166917597  TIP3      13626           0.0000000000
     92394     14987  TIP3      OH2            -7.4942377399       -5.0912823016      -47.2817458366  TIP3      13627           0.0000000000
     92395     14987  TIP3      H1             -8.1025667443       -5.6023597596      -47.8318971799  TIP3      13627           0.0000000000
     92396     14987  TIP3      H2             -7.2085097488       -4.4033179542      -47.9207549620  TIP3      13627           0.0000000000
     92397     14988  TIP3      OH2            -3.4083085934       -4.2245430259      -60.4611896890  TIP3      13628           0.0000000000
     92398     14988  TIP3      H1             -2.7177155453       -3.5864296017      -60.7123217054  TIP3      13628           0.0000000000
     92399     14988  TIP3      H2             -4.1352039238       -3.6279954750      -60.1942672088  TIP3      13628           0.0000000000
     92400     14989  TIP3      OH2           -19.3355657175      -17.8146503787      -47.9423229612  TIP3      13629           0.0000000000
     92401     14989  TIP3      H1            -20.2481792914      -17.4883171716      -47.9779739685  TIP3      13629           0.0000000000
     92402     14989  TIP3      H2            -19.4319160107      -18.6687274575      -47.4884720869  TIP3      13629           0.0000000000
     92403     14990  TIP3      OH2            -7.1059354120       -9.9950733337      -58.4912714438  TIP3      13630           0.0000000000
     92404     14990  TIP3      H1             -7.3547252351      -10.7655468351      -57.9411433730  TIP3      13630           0.0000000000
     92405     14990  TIP3      H2             -6.1634812018       -9.9062702601      -58.2695057343  TIP3      13630           0.0000000000
     92406     14991  TIP3      OH2           -19.7075949076       -6.0462646827      -49.5032197421  TIP3      13631           0.0000000000
     92407     14991  TIP3      H1            -19.4310215132       -6.9728518290      -49.5010007015  TIP3      13631           0.0000000000
     92408     14991  TIP3      H2            -19.4816219538       -5.7509107745      -48.6115546545  TIP3      13631           0.0000000000
     92409     14992  TIP3      OH2           -15.0209590605       -7.9768494744      -59.7976067366  TIP3      13632           0.0000000000
     92410     14992  TIP3      H1            -14.7182889162       -8.5265528635      -59.0612450017  TIP3      13632           0.0000000000
     92411     14992  TIP3      H2            -14.8952619188       -7.0646728878      -59.4612871231  TIP3      13632           0.0000000000
     92412     14993  TIP3      OH2           -18.5134085753      -10.6949846214      -59.4175322562  TIP3      13633           0.0000000000
     92413     14993  TIP3      H1            -19.1259760890      -10.4042489848      -58.7030238734  TIP3      13633           0.0000000000
     92414     14993  TIP3      H2            -17.9073346054       -9.9560195229      -59.5179515583  TIP3      13633           0.0000000000
     92415     14994  TIP3      OH2           -10.6460410763      -18.0704877843      -48.9951209685  TIP3      13634           0.0000000000
     92416     14994  TIP3      H1             -9.9030307143      -18.0326606483      -48.3766757088  TIP3      13634           0.0000000000
     92417     14994  TIP3      H2            -11.0123296744      -18.9583538575      -48.8305192010  TIP3      13634           0.0000000000
     92418     14995  TIP3      OH2            -9.8839002772      -18.4819355597      -57.8671420184  TIP3      13635           0.0000000000
     92419     14995  TIP3      H1             -9.6401889236      -18.0294606383      -58.6997877439  TIP3      13635           0.0000000000
     92420     14995  TIP3      H2             -9.2941540090      -18.0438427082      -57.2407409915  TIP3      13635           0.0000000000
     92421     14996  TIP3      OH2           -12.1815584193       -6.3188720526      -59.0569636730  TIP3      13636           0.0000000000
     92422     14996  TIP3      H1            -13.0085433028       -5.8108981801      -59.0117850152  TIP3      13636           0.0000000000
     92423     14996  TIP3      H2            -11.6510417946       -5.8237586661      -59.6888842880  TIP3      13636           0.0000000000
     92424     14997  TIP3      OH2           -12.6309414989      -16.7663438175      -57.0685842860  TIP3      13637           0.0000000000
     92425     14997  TIP3      H1            -11.8603456184      -16.1664671907      -57.0339964626  TIP3      13637           0.0000000000
     92426     14997  TIP3      H2            -12.9114953298      -16.8733091172      -56.1413160995  TIP3      13637           0.0000000000
     92427     14998  TIP3      OH2           -12.0144386337      -15.6571891130      -47.9461065690  TIP3      13638           0.0000000000
     92428     14998  TIP3      H1            -12.0119988056      -15.1806096332      -47.1216767491  TIP3      13638           0.0000000000
     92429     14998  TIP3      H2            -11.4898245799      -16.4625626960      -47.8079532351  TIP3      13638           0.0000000000
     92430     14999  TIP3      OH2           -11.7933691240      -19.6833137226      -56.1800360599  TIP3      13639           0.0000000000
     92431     14999  TIP3      H1            -12.1137341540      -19.0338817777      -55.5302998290  TIP3      13639           0.0000000000
     92432     14999  TIP3      H2            -11.1017664288      -19.1371099912      -56.6316471288  TIP3      13639           0.0000000000
     92433     15000  TIP3      OH2           -14.8344329916       -5.2959356027      -59.0525990989  TIP3      13640           0.0000000000
     92434     15000  TIP3      H1            -14.6474077896       -4.4723408768      -59.5509337466  TIP3      13640           0.0000000000
     92435     15000  TIP3      H2            -15.0587749946       -4.9524208613      -58.1592518480  TIP3      13640           0.0000000000
     92436     15001  TIP3      OH2           -16.1220202751      -18.5896678888      -59.4337187272  TIP3      13641           0.0000000000
     92437     15001  TIP3      H1            -16.1870928172      -17.6725758830      -59.1100475437  TIP3      13641           0.0000000000
     92438     15001  TIP3      H2            -15.2105185099      -18.8218028394      -59.1838836299  TIP3      13641           0.0000000000
     92439     15002  TIP3      OH2            -5.9175931525      -17.7866446614      -46.9940791024  TIP3      13642           0.0000000000
     92440     15002  TIP3      H1             -6.8518623819      -17.5510354440      -47.1551974555  TIP3      13642           0.0000000000
     92441     15002  TIP3      H2             -5.6167091757      -17.8889309173      -47.9089963693  TIP3      13642           0.0000000000
     92442     15003  TIP3      OH2            -7.2998632480      -14.0601231129      -53.0184830698  TIP3      13643           0.0000000000
     92443     15003  TIP3      H1             -8.1228500126      -14.5048401708      -53.2976404187  TIP3      13643           0.0000000000
     92444     15003  TIP3      H2             -6.8228516908      -14.7492951904      -52.5015905298  TIP3      13643           0.0000000000
     92445     15004  TIP3      OH2           -17.8792772732       -8.0943133133      -60.4463716948  TIP3      13644           0.0000000000
     92446     15004  TIP3      H1            -17.2150701882       -7.4904481495      -60.1007170021  TIP3      13644           0.0000000000
     92447     15004  TIP3      H2            -17.3741122866       -8.5764908931      -61.1114058970  TIP3      13644           0.0000000000
     92448     15005  TIP3      OH2            -6.2356878793       -4.8106987165      -51.3795670040  TIP3      13645           0.0000000000
     92449     15005  TIP3      H1             -6.3209160801       -4.1107912435      -52.0424787110  TIP3      13645           0.0000000000
     92450     15005  TIP3      H2             -5.2787708338       -4.7518459057      -51.1531001406  TIP3      13645           0.0000000000
     92451     15006  TIP3      OH2           -18.7447076484      -20.6790925287      -52.5453889552  TIP3      13646           0.0000000000
     92452     15006  TIP3      H1            -18.9391279367      -20.6604420175      -53.5097572024  TIP3      13646           0.0000000000
     92453     15006  TIP3      H2            -19.1601512898      -21.5300260514      -52.2923205501  TIP3      13646           0.0000000000
     92454     15007  TIP3      OH2           -19.7842762600       -6.7233748262      -56.3843789607  TIP3      13647           0.0000000000
     92455     15007  TIP3      H1            -20.6498668736       -6.2963616724      -56.4442982485  TIP3      13647           0.0000000000
     92456     15007  TIP3      H2            -19.3123643593       -6.2829471001      -57.1042139145  TIP3      13647           0.0000000000
     92457     15008  TIP3      OH2            -7.1893971421       -5.8781167251      -61.8842149235  TIP3      13648           0.0000000000
     92458     15008  TIP3      H1             -6.9487067701       -6.7150237502      -61.4435614485  TIP3      13648           0.0000000000
     92459     15008  TIP3      H2             -6.4351030510       -5.7059129449      -62.4585543956  TIP3      13648           0.0000000000
     92460     15009  TIP3      OH2            -8.2658808295      -10.4713686750      -47.4955293870  TIP3      13649           0.0000000000
     92461     15009  TIP3      H1             -7.4694740576       -9.9037999176      -47.4361796158  TIP3      13649           0.0000000000
     92462     15009  TIP3      H2             -8.9422902319       -9.8212104064      -47.2738794836  TIP3      13649           0.0000000000
     92463     15010  TIP3      OH2           -15.0383709806      -11.9561500296      -59.6679727122  TIP3      13650           0.0000000000
     92464     15010  TIP3      H1            -15.6259660824      -12.4464151296      -59.0408553046  TIP3      13650           0.0000000000
     92465     15010  TIP3      H2            -14.8206988385      -12.6532800708      -60.3185432184  TIP3      13650           0.0000000000
     92466     15011  TIP3      OH2           -15.8249676422      -14.1396969812      -47.3824061935  TIP3      13651           0.0000000000
     92467     15011  TIP3      H1            -16.4680208763      -13.4529614485      -47.1384665155  TIP3      13651           0.0000000000
     92468     15011  TIP3      H2            -15.4813638319      -13.8050425266      -48.2267477411  TIP3      13651           0.0000000000
     92469     15012  TIP3      OH2           -14.0457263205      -13.7758838772      -61.4781643063  TIP3      13652           0.0000000000
     92470     15012  TIP3      H1            -14.1449228301      -13.8987542382      -62.4325085542  TIP3      13652           0.0000000000
     92471     15012  TIP3      H2            -13.0719799178      -13.6590594125      -61.3693698600  TIP3      13652           0.0000000000
     92472     15013  TIP3      OH2           -15.5046577541      -16.7575479403      -46.3197678879  TIP3      13653           0.0000000000
     92473     15013  TIP3      H1            -15.3594264707      -17.4829504119      -46.9537036178  TIP3      13653           0.0000000000
     92474     15013  TIP3      H2            -15.5107872198      -15.9624546592      -46.8786365552  TIP3      13653           0.0000000000
     92475     15014  TIP3      OH2           -15.0554701539      -18.4193977233      -48.7648265461  TIP3      13654           0.0000000000
     92476     15014  TIP3      H1            -14.5372179833      -17.9373453929      -49.4467984990  TIP3      13654           0.0000000000
     92477     15014  TIP3      H2            -15.9329906042      -18.5055700927      -49.2009397621  TIP3      13654           0.0000000000
     92478     15015  TIP3      OH2           -13.4456620688      -12.8905507071      -48.4756940543  TIP3      13655           0.0000000000
     92479     15015  TIP3      H1            -12.7521421288      -13.1006691696      -49.1197598951  TIP3      13655           0.0000000000
     92480     15015  TIP3      H2            -13.8784944206      -12.1114004491      -48.8751205975  TIP3      13655           0.0000000000
     92481     15016  TIP3      OH2           -14.2321985302      -20.9424772932      -48.3822606900  TIP3      13656           0.0000000000
     92482     15016  TIP3      H1            -14.4436554832      -19.9870277634      -48.4625346877  TIP3      13656           0.0000000000
     92483     15016  TIP3      H2            -14.9993969568      -21.3252929555      -48.8408654498  TIP3      13656           0.0000000000
     92484     15017  TIP3      OH2           -14.2013499293       -3.0541196090      -60.4587254474  TIP3      13657           0.0000000000
     92485     15017  TIP3      H1            -13.2358082045       -2.9514129673      -60.3249289265  TIP3      13657           0.0000000000
     92486     15017  TIP3      H2            -14.3896097833       -2.3720806034      -61.1027915221  TIP3      13657           0.0000000000
     92487     15018  TIP3      OH2           -20.6095323441       -8.4230984339      -60.9395193113  TIP3      13658           0.0000000000
     92488     15018  TIP3      H1            -19.6578040084       -8.3837745614      -60.6991303175  TIP3      13658           0.0000000000
     92489     15018  TIP3      H2            -20.6045404136       -9.0745550040      -61.6494476207  TIP3      13658           0.0000000000
     92490     15019  TIP3      OH2           -21.8739143932       -3.0868223505      -55.9359594633  TIP3      13659           0.0000000000
     92491     15019  TIP3      H1            -22.5843799634       -3.5619320961      -56.4160947242  TIP3      13659           0.0000000000
     92492     15019  TIP3      H2            -21.5915644334       -3.7552461896      -55.2897497705  TIP3      13659           0.0000000000
     92493     15020  TIP3      OH2           -21.0554457804       -4.9642185426      -54.0857371679  TIP3      13660           0.0000000000
     92494     15020  TIP3      H1            -21.4085153504       -5.8414773343      -53.8821692958  TIP3      13660           0.0000000000
     92495     15020  TIP3      H2            -20.8307530469       -4.6316396241      -53.1999263440  TIP3      13660           0.0000000000
     92496     15021  TIP3      OH2            -3.5182035060       -4.1628494645      -51.1439320850  TIP3      13661           0.0000000000
     92497     15021  TIP3      H1             -3.4901523960       -3.9990929448      -50.1856981822  TIP3      13661           0.0000000000
     92498     15021  TIP3      H2             -2.8072200518       -3.5873450287      -51.4410709793  TIP3      13661           0.0000000000
     92499     15022  TIP3      OH2            -3.9101190782       -4.5655347997      -48.2700402517  TIP3      13662           0.0000000000
     92500     15022  TIP3      H1             -4.4000156184       -5.3449097792      -48.5859679989  TIP3      13662           0.0000000000
     92501     15022  TIP3      H2             -3.4133130157       -4.9943107318      -47.5458722632  TIP3      13662           0.0000000000
     92502     15023  TIP3      OH2            -4.1640753070      -10.5344998862      -58.1121660780  TIP3      13663           0.0000000000
     92503     15023  TIP3      H1             -3.3213641952      -10.1076310813      -57.8899118722  TIP3      13663           0.0000000000
     92504     15023  TIP3      H2             -4.1906268603      -11.2268500213      -57.4154048841  TIP3      13663           0.0000000000
     92505     15024  TIP3      OH2            -3.8200612677      -12.4421260137      -56.2347830967  TIP3      13664           0.0000000000
     92506     15024  TIP3      H1             -4.5690024033      -12.9382601167      -55.8325147581  TIP3      13664           0.0000000000
     92507     15024  TIP3      H2             -3.2243277548      -12.3002222815      -55.4714944771  TIP3      13664           0.0000000000
     92508     15025  TIP3      OH2            -4.0769073073       -9.7564249999      -51.2681139576  TIP3      13665           0.0000000000
     92509     15025  TIP3      H1             -3.2429638269      -10.1227317867      -51.6145771254  TIP3      13665           0.0000000000
     92510     15025  TIP3      H2             -3.9228260132       -8.7988134495      -51.4135780562  TIP3      13665           0.0000000000
     92511     15026  TIP3      OH2            -5.5380170157       -6.8333113649      -48.9702236152  TIP3      13666           0.0000000000
     92512     15026  TIP3      H1             -6.2124316894       -6.4888999896      -48.3663321308  TIP3      13666           0.0000000000
     92513     15026  TIP3      H2             -6.0731375485       -7.2484143918      -49.6785308950  TIP3      13666           0.0000000000
     92514     15027  TIP3      OH2            -3.5485602181      -12.6183836291      -59.8432618827  TIP3      13667           0.0000000000
     92515     15027  TIP3      H1             -4.1113142794      -12.2670257474      -60.5369164086  TIP3      13667           0.0000000000
     92516     15027  TIP3      H2             -3.5911335073      -11.9073516156      -59.1699983818  TIP3      13667           0.0000000000
     92517     15028  TIP3      OH2            -6.0028828130      -13.9665861783      -55.6643299364  TIP3      13668           0.0000000000
     92518     15028  TIP3      H1             -6.1483759794      -14.9219849077      -55.6758710087  TIP3      13668           0.0000000000
     92519     15028  TIP3      H2             -6.3305076944      -13.7399144433      -54.7750154993  TIP3      13668           0.0000000000
     92520     15029  TIP3      OH2           -21.0668578060      -11.7272442264      -51.4243307289  TIP3      13669           0.0000000000
     92521     15029  TIP3      H1            -21.0124878581      -11.6685496180      -52.4008490265  TIP3      13669           0.0000000000
     92522     15029  TIP3      H2            -20.1646555267      -11.8889398479      -51.0712140190  TIP3      13669           0.0000000000
     92523     15030  TIP3      OH2            -5.1002178991      -12.0224560387      -45.9723571128  TIP3      13670           0.0000000000
     92524     15030  TIP3      H1             -4.5134155656      -12.7435095808      -45.7799088196  TIP3      13670           0.0000000000
     92525     15030  TIP3      H2             -4.5437329271      -11.2155217202      -46.0154326391  TIP3      13670           0.0000000000
     92526     15031  TIP3      OH2            -5.9051581015      -17.9818786874      -62.2110892137  TIP3      13671           0.0000000000
     92527     15031  TIP3      H1             -5.3172716896      -18.3614109594      -61.5345423524  TIP3      13671           0.0000000000
     92528     15031  TIP3      H2             -6.7865463588      -18.3064061037      -61.9888270293  TIP3      13671           0.0000000000
     92529     15032  TIP3      OH2            -6.3288702867      -16.3798726505      -57.1850830495  TIP3      13672           0.0000000000
     92530     15032  TIP3      H1             -6.0278520479      -17.3098875175      -57.0618743012  TIP3      13672           0.0000000000
     92531     15032  TIP3      H2             -5.5364983063      -15.9826694489      -57.5707207507  TIP3      13672           0.0000000000
     92532     15033  TIP3      OH2            -5.6960698843      -15.8332182408      -51.7660371005  TIP3      13673           0.0000000000
     92533     15033  TIP3      H1             -4.7359318724      -15.6025645533      -51.7665152862  TIP3      13673           0.0000000000
     92534     15033  TIP3      H2             -5.8889573645      -15.7004577081      -50.8217827045  TIP3      13673           0.0000000000
     92535     15034  TIP3      OH2            -5.6246147882      -15.0945863036      -48.9625436494  TIP3      13674           0.0000000000
     92536     15034  TIP3      H1             -6.5045737395      -14.8131466507      -48.6229369914  TIP3      13674           0.0000000000
     92537     15034  TIP3      H2             -5.2015440490      -14.2369920040      -49.1928600646  TIP3      13674           0.0000000000
     92538     15035  TIP3      OH2            -5.6616971645      -19.1007588897      -57.1512769052  TIP3      13675           0.0000000000
     92539     15035  TIP3      H1             -5.4527308746      -19.5334729571      -56.2942569809  TIP3      13675           0.0000000000
     92540     15035  TIP3      H2             -6.2694557126      -19.7366054192      -57.5861193191  TIP3      13675           0.0000000000
     92541     15036  TIP3      OH2           -20.1830602562      -18.2705308200      -52.5825266158  TIP3      13676           0.0000000000
     92542     15036  TIP3      H1            -19.7268343949      -19.1018139989      -52.3347505962  TIP3      13676           0.0000000000
     92543     15036  TIP3      H2            -19.6152052412      -17.6032481005      -52.1880215550  TIP3      13676           0.0000000000
     92544     15037  TIP3      OH2           -21.9026653405      -15.2802453980      -51.5884648256  TIP3      13677           0.0000000000
     92545     15037  TIP3      H1            -21.3295322395      -15.5642165128      -52.3265362765  TIP3      13677           0.0000000000
     92546     15037  TIP3      H2            -21.4548482237      -14.5105868401      -51.2297925443  TIP3      13677           0.0000000000
     92547     15038  TIP3      OH2            -3.8401042105      -19.0452414738      -60.5707365394  TIP3      13678           0.0000000000
     92548     15038  TIP3      H1             -3.4167878361      -19.7479710247      -61.0833823118  TIP3      13678           0.0000000000
     92549     15038  TIP3      H2             -3.1315959702      -18.3811033611      -60.5742723582  TIP3      13678           0.0000000000
     92550     15039  TIP3      OH2           -21.5459309435      -19.0239385792      -57.4941695567  TIP3      13679           0.0000000000
     92551     15039  TIP3      H1            -22.4899749215      -18.8417841671      -57.6219376061  TIP3      13679           0.0000000000
     92552     15039  TIP3      H2            -21.1231170045      -18.5311679159      -58.2171464298  TIP3      13679           0.0000000000
     92553     15040  TIP3      OH2            -6.7655045962       -3.9588511817      -55.5700541149  TIP3      13680           0.0000000000
     92554     15040  TIP3      H1             -6.1174926337       -4.4437605778      -56.1264375851  TIP3      13680           0.0000000000
     92555     15040  TIP3      H2             -6.2319546490       -3.6968008937      -54.7989900139  TIP3      13680           0.0000000000
     92556     15041  TIP3      OH2           -21.5771398729      -20.3405278874      -49.1990109957  TIP3      13681           0.0000000000
     92557     15041  TIP3      H1            -22.2371226567      -20.5593573049      -48.5028660049  TIP3      13681           0.0000000000
     92558     15041  TIP3      H2            -22.0598028075      -19.6778734768      -49.7270212018  TIP3      13681           0.0000000000
     92559     15042  TIP3      OH2           -16.4549950054       -6.1986785573      -48.7741987800  TIP3      13682           0.0000000000
     92560     15042  TIP3      H1            -16.7948281561       -5.3213095008      -49.0101358501  TIP3      13682           0.0000000000
     92561     15042  TIP3      H2            -15.5146790486       -6.0787607600      -49.0260901172  TIP3      13682           0.0000000000
     92562     15043  TIP3      OH2           -12.0981432230       -4.8112785500      -45.7940157579  TIP3      13683           0.0000000000
     92563     15043  TIP3      H1            -11.9244245537       -5.0696061331      -44.8790634012  TIP3      13683           0.0000000000
     92564     15043  TIP3      H2            -11.2388271100       -4.4469003023      -46.0691631046  TIP3      13683           0.0000000000
     92565     15044  TIP3      OH2            -9.8662535281       -3.4329885423      -46.5686723905  TIP3      13684           0.0000000000
     92566     15044  TIP3      H1             -9.1498556757       -4.0411511658      -46.7950502059  TIP3      13684           0.0000000000
     92567     15044  TIP3      H2             -9.4664232071       -3.0906990128      -45.7473660829  TIP3      13684           0.0000000000
     92568     15045  TIP3      OH2            -4.7803352768      -20.8416444855      -47.5135096381  TIP3      13685           0.0000000000
     92569     15045  TIP3      H1             -5.6700397045      -20.5949368073      -47.8100118044  TIP3      13685           0.0000000000
     92570     15045  TIP3      H2             -4.6535089777      -21.7122677136      -47.9416336332  TIP3      13685           0.0000000000
     92571     15046  TIP3      OH2           -19.0257336371       -2.9284247898      -48.7346760657  TIP3      13686           0.0000000000
     92572     15046  TIP3      H1            -19.7672261609       -2.4363053645      -49.1186879346  TIP3      13686           0.0000000000
     92573     15046  TIP3      H2            -19.3550057786       -3.0955032948      -47.8400105235  TIP3      13686           0.0000000000
     92574     15047  TIP3      OH2           -16.5475752755       -3.3479143107      -49.6609678390  TIP3      13687           0.0000000000
     92575     15047  TIP3      H1            -17.4317454406       -3.1815558979      -49.2539487543  TIP3      13687           0.0000000000
     92576     15047  TIP3      H2            -16.6116822695       -2.7713434606      -50.4493151815  TIP3      13687           0.0000000000
     92577     15048  TIP3      OH2           -11.8404712370       -3.4443743769      -50.5012084656  TIP3      13688           0.0000000000
     92578     15048  TIP3      H1            -12.3048021903       -2.8852433129      -51.1453740263  TIP3      13688           0.0000000000
     92579     15048  TIP3      H2            -11.7127704994       -2.8144342889      -49.7624741177  TIP3      13688           0.0000000000
     92580     15049  TIP3      OH2            -9.5410019194       -4.6344543290      -49.5253730322  TIP3      13689           0.0000000000
     92581     15049  TIP3      H1            -10.4119051876       -4.3517690747      -49.8437769875  TIP3      13689           0.0000000000
     92582     15049  TIP3      H2             -9.0892905574       -3.7747762949      -49.5726438823  TIP3      13689           0.0000000000
     92583     15050  TIP3      OH2            -6.9636079040       -3.0383554571      -49.2347791929  TIP3      13690           0.0000000000
     92584     15050  TIP3      H1             -7.0321688767       -2.0841130552      -49.4719046074  TIP3      13690           0.0000000000
     92585     15050  TIP3      H2             -6.7547282386       -3.4114571744      -50.1112201490  TIP3      13690           0.0000000000
     92586     15051  TIP3      OH2           -19.5836010507       -4.2983256530      -51.7944194695  TIP3      13691           0.0000000000
     92587     15051  TIP3      H1            -19.6287531013       -4.7250473087      -50.9118751519  TIP3      13691           0.0000000000
     92588     15051  TIP3      H2            -18.7533582416       -4.6513164528      -52.1845486350  TIP3      13691           0.0000000000
     92589     15052  TIP3      OH2           -17.4801917627       -5.5677588944      -53.1474325895  TIP3      13692           0.0000000000
     92590     15052  TIP3      H1            -17.6481474034       -6.4992398064      -52.9230547697  TIP3      13692           0.0000000000
     92591     15052  TIP3      H2            -16.6241750816       -5.4233913625      -52.6921403756  TIP3      13692           0.0000000000
     92592     15053  TIP3      OH2           -14.8774469653       -5.0827053890      -52.2641301727  TIP3      13693           0.0000000000
     92593     15053  TIP3      H1            -14.7136811849       -5.9989673381      -52.5376643171  TIP3      13693           0.0000000000
     92594     15053  TIP3      H2            -14.8460482538       -5.1559736013      -51.2966764818  TIP3      13693           0.0000000000
     92595     15054  TIP3      OH2           -11.4249440456      -19.4341357200      -53.1321959873  TIP3      13694           0.0000000000
     92596     15054  TIP3      H1            -12.1013389806      -20.0758857197      -52.8565319825  TIP3      13694           0.0000000000
     92597     15054  TIP3      H2            -10.8729907063      -19.9654007355      -53.7184912228  TIP3      13694           0.0000000000
     92598     15055  TIP3      OH2            -6.2902912381      -21.3851292521      -53.0611963361  TIP3      13695           0.0000000000
     92599     15055  TIP3      H1             -5.6783386154      -20.7956277526      -53.5727533384  TIP3      13695           0.0000000000
     92600     15055  TIP3      H2             -7.1728013581      -21.0277618435      -53.2962959454  TIP3      13695           0.0000000000
     92601     15056  TIP3      OH2            -4.6233252697      -20.1419874510      -54.7779643618  TIP3      13696           0.0000000000
     92602     15056  TIP3      H1             -3.9393599392      -20.7165444535      -55.2006859574  TIP3      13696           0.0000000000
     92603     15056  TIP3      H2             -4.1180277882      -19.3027805560      -54.6825324357  TIP3      13696           0.0000000000
     92604     15057  TIP3      OH2           -19.0593485953      -20.8127729151      -55.2748369110  TIP3      13697           0.0000000000
     92605     15057  TIP3      H1            -19.8508574262      -21.0091713386      -55.8135219450  TIP3      13697           0.0000000000
     92606     15057  TIP3      H2            -18.5912860814      -21.6668278329      -55.3416111182  TIP3      13697           0.0000000000
     92607     15058  TIP3      OH2           -20.3139815891      -21.0395443173      -59.5718478507  TIP3      13698           0.0000000000
     92608     15058  TIP3      H1            -19.8037360841      -20.4039668418      -60.1095999308  TIP3      13698           0.0000000000
     92609     15058  TIP3      H2            -20.8615700634      -20.4720286721      -59.0078161305  TIP3      13698           0.0000000000
     92610     15059  TIP3      OH2           -14.5775810049      -20.8852210394      -55.4987466377  TIP3      13699           0.0000000000
     92611     15059  TIP3      H1            -13.6784307239      -20.5227195069      -55.5689501095  TIP3      13699           0.0000000000
     92612     15059  TIP3      H2            -14.6187177478      -21.0961137528      -54.5660618383  TIP3      13699           0.0000000000
     92613     15060  TIP3      OH2            -8.8758539075      -20.8645018096      -53.8697405941  TIP3      13700           0.0000000000
     92614     15060  TIP3      H1             -8.9178970672      -20.7551037824      -54.8263319673  TIP3      13700           0.0000000000
     92615     15060  TIP3      H2             -9.2491302674      -21.7716723865      -53.7472685909  TIP3      13700           0.0000000000
     92616     15061  TIP3      OH2            -7.5977896471      -20.8349349115      -58.2143228312  TIP3      13701           0.0000000000
     92617     15061  TIP3      H1             -8.3433574009      -20.2374719730      -58.3693860585  TIP3      13701           0.0000000000
     92618     15061  TIP3      H2             -8.0341493441      -21.6862876790      -57.9770878463  TIP3      13701           0.0000000000
     92619     15062  TIP3      OH2           -20.3721112054       -5.0925733004      -58.5501654267  TIP3      13702           0.0000000000
     92620     15062  TIP3      H1            -21.0453113048       -5.0962506193      -59.2559561996  TIP3      13702           0.0000000000
     92621     15062  TIP3      H2            -20.3458385023       -4.1376055209      -58.3893588779  TIP3      13702           0.0000000000
     92622     15063  TIP3      OH2           -18.4623206731      -19.1894593617      -61.0201392252  TIP3      13703           0.0000000000
     92623     15063  TIP3      H1            -17.9119144285      -19.7281044408      -61.5850885656  TIP3      13703           0.0000000000
     92624     15063  TIP3      H2            -17.7836075252      -18.7736523995      -60.4558780128  TIP3      13703           0.0000000000
     92625     15064  TIP3      OH2           -13.4084593683      -18.8619582612      -58.6487777095  TIP3      13704           0.0000000000
     92626     15064  TIP3      H1            -13.1702330313      -19.4396838695      -57.9040700671  TIP3      13704           0.0000000000
     92627     15064  TIP3      H2            -13.3701614818      -17.9998284381      -58.1730112013  TIP3      13704           0.0000000000
     92628     15065  TIP3      OH2           -11.5337446084       -3.7763777405      -60.2404495933  TIP3      13705           0.0000000000
     92629     15065  TIP3      H1            -10.5902705231       -3.5666569340      -60.3785345642  TIP3      13705           0.0000000000
     92630     15065  TIP3      H2            -11.6936558144       -4.3300381391      -61.0147631324  TIP3      13705           0.0000000000
     92631     15066  TIP3      OH2            -4.8450844888       -4.2639413881      -57.4756808773  TIP3      13706           0.0000000000
     92632     15066  TIP3      H1             -4.9911201771       -5.0660382267      -58.0449138275  TIP3      13706           0.0000000000
     92633     15066  TIP3      H2             -4.8542586416       -3.5689921147      -58.1597121832  TIP3      13706           0.0000000000
     92634     15067  TIP3      OH2           -19.3639534486      -20.6376364472      -46.0585755503  TIP3      13707           0.0000000000
     92635     15067  TIP3      H1            -19.6454341945      -21.2211110156      -45.3469609048  TIP3      13707           0.0000000000
     92636     15067  TIP3      H2            -18.4807350168      -20.4619010363      -45.7188474637  TIP3      13707           0.0000000000
     92637     15068  TIP3      OH2           -18.5540568539       -4.1354655255      -61.5884096143  TIP3      13708           0.0000000000
     92638     15068  TIP3      H1            -18.8232051233       -3.8294031681      -60.7096559661  TIP3      13708           0.0000000000
     92639     15068  TIP3      H2            -17.7695874982       -4.6573834374      -61.4214589697  TIP3      13708           0.0000000000
     92640     15069  TIP3      OH2             8.8889515508      -11.6688600189      -55.4257707397  TIP3      13709           0.0000000000
     92641     15069  TIP3      H1              8.8802750877      -10.6897246167      -55.4686781583  TIP3      13709           0.0000000000
     92642     15069  TIP3      H2              8.1628827736      -11.9059122264      -56.0287675250  TIP3      13709           0.0000000000
     92643     15070  TIP3      OH2             7.7454502004      -12.4135479627      -51.9300359503  TIP3      13710           0.0000000000
     92644     15070  TIP3      H1              7.7332871323      -13.0639355640      -51.2178189904  TIP3      13710           0.0000000000
     92645     15070  TIP3      H2              7.4020885735      -12.9134153516      -52.6831494545  TIP3      13710           0.0000000000
     92646     15071  TIP3      OH2             0.0975072267      -12.7248279656      -50.3621452658  TIP3      13711           0.0000000000
     92647     15071  TIP3      H1              0.1923553045      -13.4204456116      -49.6827113027  TIP3      13711           0.0000000000
     92648     15071  TIP3      H2              0.8548032728      -12.1605138320      -50.1554001602  TIP3      13711           0.0000000000
     92649     15072  TIP3      OH2            11.4334392813       -9.4651259354      -53.6427987784  TIP3      13712           0.0000000000
     92650     15072  TIP3      H1             11.0157078345      -10.1807348977      -53.1534829419  TIP3      13712           0.0000000000
     92651     15072  TIP3      H2             11.4544076372       -8.7573774495      -52.9713142689  TIP3      13712           0.0000000000
     92652     15073  TIP3      OH2             1.0249465316       -8.2903716164      -51.8767783036  TIP3      13713           0.0000000000
     92653     15073  TIP3      H1              0.7097141878       -9.1587663065      -52.1922894238  TIP3      13713           0.0000000000
     92654     15073  TIP3      H2              1.9793623977       -8.4777125561      -51.8216676219  TIP3      13713           0.0000000000
     92655     15074  TIP3      OH2            -2.3309931521      -14.7330467598      -56.4109040788  TIP3      13714           0.0000000000
     92656     15074  TIP3      H1             -2.7696347670      -13.8608891585      -56.4370581520  TIP3      13714           0.0000000000
     92657     15074  TIP3      H2             -2.9126907778      -15.2646516811      -56.9678013298  TIP3      13714           0.0000000000
     92658     15075  TIP3      OH2            -1.6270989493      -12.5107181035      -54.2414003048  TIP3      13715           0.0000000000
     92659     15075  TIP3      H1             -1.3560507012      -13.3297584432      -53.7845265551  TIP3      13715           0.0000000000
     92660     15075  TIP3      H2             -0.9263265173      -12.4034796070      -54.9023714218  TIP3      13715           0.0000000000
     92661     15076  TIP3      OH2             8.5515858383       -4.3088573997      -53.4069002446  TIP3      13716           0.0000000000
     92662     15076  TIP3      H1              9.1987704285       -5.0020072116      -53.6913562898  TIP3      13716           0.0000000000
     92663     15076  TIP3      H2              8.3398535842       -4.6378981066      -52.5331700346  TIP3      13716           0.0000000000
     92664     15077  TIP3      OH2             6.1198615180      -10.0141640808      -51.4590535849  TIP3      13717           0.0000000000
     92665     15077  TIP3      H1              6.4614417071      -10.6412129013      -52.1148155836  TIP3      13717           0.0000000000
     92666     15077  TIP3      H2              6.9226309798       -9.8577441870      -50.9312664955  TIP3      13717           0.0000000000
     92667     15078  TIP3      OH2            14.7378661818      -18.3623921681      -50.7222324366  TIP3      13718           0.0000000000
     92668     15078  TIP3      H1             14.8935451355      -17.7852082323      -49.9498429272  TIP3      13718           0.0000000000
     92669     15078  TIP3      H2             15.2877811775      -17.9264626844      -51.3845683782  TIP3      13718           0.0000000000
     92670     15079  TIP3      OH2             9.3075175992      -15.5403447482      -51.1190416763  TIP3      13719           0.0000000000
     92671     15079  TIP3      H1              9.4356489681      -16.5073468807      -51.1244156999  TIP3      13719           0.0000000000
     92672     15079  TIP3      H2              9.1775053453      -15.4117196719      -52.0783619942  TIP3      13719           0.0000000000
     92673     15080  TIP3      OH2             2.5325207893      -17.4054134878      -54.1651724765  TIP3      13720           0.0000000000
     92674     15080  TIP3      H1              2.4752699016      -16.5005556368      -54.5599306723  TIP3      13720           0.0000000000
     92675     15080  TIP3      H2              1.9996311787      -17.9351735324      -54.8191087661  TIP3      13720           0.0000000000
     92676     15081  TIP3      OH2            10.1372224462      -17.3757937659      -55.5535402475  TIP3      13721           0.0000000000
     92677     15081  TIP3      H1             10.7921636244      -17.6899161761      -54.8872498667  TIP3      13721           0.0000000000
     92678     15081  TIP3      H2             10.6998189746      -16.8056556036      -56.1006425275  TIP3      13721           0.0000000000
     92679     15082  TIP3      OH2            -0.9772244827      -15.0377759949      -53.1911366416  TIP3      13722           0.0000000000
     92680     15082  TIP3      H1             -0.3177805627      -15.5802060017      -52.7372972479  TIP3      13722           0.0000000000
     92681     15082  TIP3      H2             -0.8848550205      -15.3421916160      -54.1104791569  TIP3      13722           0.0000000000
     92682     15083  TIP3      OH2             4.1664117582      -13.4994394805      -53.8621946339  TIP3      13723           0.0000000000
     92683     15083  TIP3      H1              4.8665622180      -14.0613028722      -53.4841366503  TIP3      13723           0.0000000000
     92684     15083  TIP3      H2              3.6754222691      -14.1429626778      -54.4017896406  TIP3      13723           0.0000000000
     92685     15084  TIP3      OH2            15.1843167801      -16.8892402381      -48.4710586389  TIP3      13724           0.0000000000
     92686     15084  TIP3      H1             14.5019761748      -16.1929359652      -48.5835957456  TIP3      13724           0.0000000000
     92687     15084  TIP3      H2             15.1892204966      -17.0669638316      -47.5230636847  TIP3      13724           0.0000000000
     92688     15085  TIP3      OH2             1.2517472999      -18.6022899202      -49.9970900700  TIP3      13725           0.0000000000
     92689     15085  TIP3      H1              0.9493193040      -17.9059797992      -50.5941191873  TIP3      13725           0.0000000000
     92690     15085  TIP3      H2              0.6858741932      -18.3671344273      -49.2106305697  TIP3      13725           0.0000000000
     92691     15086  TIP3      OH2             8.5985522101       -9.0760906791      -56.3300282991  TIP3      13726           0.0000000000
     92692     15086  TIP3      H1              8.3052616698       -9.3563329442      -57.2089246682  TIP3      13726           0.0000000000
     92693     15086  TIP3      H2              8.2920573294       -8.1411090505      -56.2922776572  TIP3      13726           0.0000000000
     92694     15087  TIP3      OH2             3.8053929720      -10.9124495964      -49.6406595010  TIP3      13727           0.0000000000
     92695     15087  TIP3      H1              3.1115309590      -10.2616269965      -49.4119262262  TIP3      13727           0.0000000000
     92696     15087  TIP3      H2              4.5237477247      -10.3216127600      -49.9228606091  TIP3      13727           0.0000000000
     92697     15088  TIP3      OH2            11.9444239448      -18.0350569676      -53.5609540745  TIP3      13728           0.0000000000
     92698     15088  TIP3      H1             11.7154261420      -18.7957683145      -53.0199908597  TIP3      13728           0.0000000000
     92699     15088  TIP3      H2             12.6061331923      -17.5928376923      -53.0041423820  TIP3      13728           0.0000000000
     92700     15089  TIP3      OH2             0.9083875216      -16.7322119209      -51.8533525403  TIP3      13729           0.0000000000
     92701     15089  TIP3      H1              1.4539957720      -15.9642724667      -51.5273098145  TIP3      13729           0.0000000000
     92702     15089  TIP3      H2              1.2845813692      -16.9073652253      -52.7287578506  TIP3      13729           0.0000000000
     92703     15090  TIP3      OH2             2.2617891535       -8.9033338333      -48.8089305771  TIP3      13730           0.0000000000
     92704     15090  TIP3      H1              2.2196983613       -7.9889334458      -49.1524080418  TIP3      13730           0.0000000000
     92705     15090  TIP3      H2              1.3713003742       -8.9733278032      -48.3944545521  TIP3      13730           0.0000000000
     92706     15091  TIP3      OH2            -1.6701052270       -9.3032753693      -58.0549108132  TIP3      13731           0.0000000000
     92707     15091  TIP3      H1             -1.8927484591       -8.9602891898      -58.9405885299  TIP3      13731           0.0000000000
     92708     15091  TIP3      H2             -1.5904835419       -8.4744720507      -57.5348187399  TIP3      13731           0.0000000000
     92709     15092  TIP3      OH2            11.9598076677       -7.6319921698      -51.2935612690  TIP3      13732           0.0000000000
     92710     15092  TIP3      H1             10.9951951458       -7.5194343891      -51.1479392025  TIP3      13732           0.0000000000
     92711     15092  TIP3      H2             12.2337468594       -6.7098498789      -51.4634208457  TIP3      13732           0.0000000000
     92712     15093  TIP3      OH2            12.2664601771      -19.2849638817      -49.8213223475  TIP3      13733           0.0000000000
     92713     15093  TIP3      H1             11.5031858554      -18.7120048070      -49.9936971055  TIP3      13733           0.0000000000
     92714     15093  TIP3      H2             12.9694263618      -18.9294246651      -50.4049574596  TIP3      13733           0.0000000000
     92715     15094  TIP3      OH2             5.2192051504      -21.2217831367      -52.4901409547  TIP3      13734           0.0000000000
     92716     15094  TIP3      H1              5.1444515448      -22.1957332702      -52.4698125811  TIP3      13734           0.0000000000
     92717     15094  TIP3      H2              4.3779833867      -20.9534692125      -52.0833396043  TIP3      13734           0.0000000000
     92718     15095  TIP3      OH2            10.2201025698       -5.8447748763      -54.6853007188  TIP3      13735           0.0000000000
     92719     15095  TIP3      H1             10.6498487561       -6.5631974532      -55.1926594531  TIP3      13735           0.0000000000
     92720     15095  TIP3      H2             10.6463524316       -5.0537738407      -55.0767397410  TIP3      13735           0.0000000000
     92721     15096  TIP3      OH2            11.4319946318       -7.9174140198      -56.1727431091  TIP3      13736           0.0000000000
     92722     15096  TIP3      H1             11.1338351364       -8.6088076731      -56.7861668183  TIP3      13736           0.0000000000
     92723     15096  TIP3      H2             11.4609068826       -8.4098335907      -55.3314610518  TIP3      13736           0.0000000000
     92724     15097  TIP3      OH2            13.0859919068       -9.3270952500      -47.6760173886  TIP3      13737           0.0000000000
     92725     15097  TIP3      H1             13.1836245824       -9.9567765555      -48.4211188483  TIP3      13737           0.0000000000
     92726     15097  TIP3      H2             13.2563435067       -8.4630763454      -48.0949191008  TIP3      13737           0.0000000000
     92727     15098  TIP3      OH2             7.5381136342      -12.4268880773      -57.9261206931  TIP3      13738           0.0000000000
     92728     15098  TIP3      H1              6.8328730832      -11.8571410542      -58.2975237412  TIP3      13738           0.0000000000
     92729     15098  TIP3      H2              8.2459876214      -12.3368251023      -58.5893843227  TIP3      13738           0.0000000000
     92730     15099  TIP3      OH2             7.6050211777      -13.9102124492      -60.8293782515  TIP3      13739           0.0000000000
     92731     15099  TIP3      H1              8.3397481065      -13.8950331761      -60.1973466400  TIP3      13739           0.0000000000
     92732     15099  TIP3      H2              7.9213182766      -14.5445349328      -61.4767436567  TIP3      13739           0.0000000000
     92733     15100  TIP3      OH2            14.9196579691      -13.0466624877      -49.6317278474  TIP3      13740           0.0000000000
     92734     15100  TIP3      H1             14.2934283121      -12.2929881514      -49.5754627311  TIP3      13740           0.0000000000
     92735     15100  TIP3      H2             15.4231829546      -12.7959518718      -50.4320028241  TIP3      13740           0.0000000000
     92736     15101  TIP3      OH2            10.9862054978      -12.2402659231      -56.9939323439  TIP3      13741           0.0000000000
     92737     15101  TIP3      H1             10.2544386164      -11.9760877131      -56.3821060369  TIP3      13741           0.0000000000
     92738     15101  TIP3      H2             11.4622189072      -12.8910472123      -56.4451803923  TIP3      13741           0.0000000000
     92739     15102  TIP3      OH2            10.8564795639      -14.0573939978      -47.8358769582  TIP3      13742           0.0000000000
     92740     15102  TIP3      H1             10.9187742260      -13.1911097275      -47.4102315275  TIP3      13742           0.0000000000
     92741     15102  TIP3      H2             10.2872768384      -13.7594349740      -48.5931699166  TIP3      13742           0.0000000000
     92742     15103  TIP3      OH2             2.6081893539      -11.5414768129      -55.0886831996  TIP3      13743           0.0000000000
     92743     15103  TIP3      H1              2.2848410951      -11.9444604515      -55.9298142901  TIP3      13743           0.0000000000
     92744     15103  TIP3      H2              3.2089585624      -12.2429649424      -54.7393615378  TIP3      13743           0.0000000000
     92745     15104  TIP3      OH2             3.9281772323       -8.1750072227      -52.3934191017  TIP3      13744           0.0000000000
     92746     15104  TIP3      H1              3.9139687436       -8.7067896814      -53.1974360360  TIP3      13744           0.0000000000
     92747     15104  TIP3      H2              4.7084201019       -8.5363338682      -51.9353232521  TIP3      13744           0.0000000000
     92748     15105  TIP3      OH2             2.9591431135      -12.8541482178      -51.3981431345  TIP3      13745           0.0000000000
     92749     15105  TIP3      H1              3.4893539197      -12.7076870356      -52.2086541187  TIP3      13745           0.0000000000
     92750     15105  TIP3      H2              3.3133709911      -12.1596684947      -50.7988803455  TIP3      13745           0.0000000000
     92751     15106  TIP3      OH2             9.3496272972       -7.2469019345      -50.6989035127  TIP3      13746           0.0000000000
     92752     15106  TIP3      H1              9.0491680657       -6.6001686784      -50.0544830262  TIP3      13746           0.0000000000
     92753     15106  TIP3      H2              9.0962533715       -8.1015866806      -50.2770470555  TIP3      13746           0.0000000000
     92754     15107  TIP3      OH2             3.8518993236       -8.4213736765      -46.6623558328  TIP3      13747           0.0000000000
     92755     15107  TIP3      H1              3.5097225325       -7.6062375510      -46.2517593336  TIP3      13747           0.0000000000
     92756     15107  TIP3      H2              3.2261627995       -8.5838222503      -47.4013999016  TIP3      13747           0.0000000000
     92757     15108  TIP3      OH2             9.8810816385      -13.0481338666      -59.3239469718  TIP3      13748           0.0000000000
     92758     15108  TIP3      H1             10.4040197380      -12.8415893586      -58.5060781818  TIP3      13748           0.0000000000
     92759     15108  TIP3      H2             10.2543936418      -12.4779082692      -60.0005767105  TIP3      13748           0.0000000000
     92760     15109  TIP3      OH2             0.8029228961      -12.2042218434      -47.5401233166  TIP3      13749           0.0000000000
     92761     15109  TIP3      H1              0.8730247391      -11.5854869335      -46.8124378389  TIP3      13749           0.0000000000
     92762     15109  TIP3      H2             -0.1192251481      -12.1232598487      -47.8104557926  TIP3      13749           0.0000000000
     92763     15110  TIP3      OH2             7.5801464187       -6.2991309244      -55.8521505042  TIP3      13750           0.0000000000
     92764     15110  TIP3      H1              8.0141557255       -5.9917203733      -55.0483731941  TIP3      13750           0.0000000000
     92765     15110  TIP3      H2              7.0169142637       -5.5540189746      -56.0910687477  TIP3      13750           0.0000000000
     92766     15111  TIP3      OH2             2.0784476185       -6.3657280826      -45.9693051332  TIP3      13751           0.0000000000
     92767     15111  TIP3      H1              2.0896038003       -6.4314140887      -46.9408812658  TIP3      13751           0.0000000000
     92768     15111  TIP3      H2              1.1385520286       -6.4456441183      -45.7482353096  TIP3      13751           0.0000000000
     92769     15112  TIP3      OH2            13.5760804543      -21.3037266396      -59.4207216285  TIP3      13752           0.0000000000
     92770     15112  TIP3      H1             12.6226701352      -21.1838678550      -59.1825649136  TIP3      13752           0.0000000000
     92771     15112  TIP3      H2             13.7994550246      -20.4520741074      -59.8337981969  TIP3      13752           0.0000000000
     92772     15113  TIP3      OH2             1.5715522837      -12.5243710349      -57.4804176042  TIP3      13753           0.0000000000
     92773     15113  TIP3      H1              1.2867179051      -11.7456029542      -58.0004662504  TIP3      13753           0.0000000000
     92774     15113  TIP3      H2              0.9139711817      -13.1925961177      -57.6923792188  TIP3      13753           0.0000000000
     92775     15114  TIP3      OH2            14.6905020277       -6.9504028257      -61.0459298703  TIP3      13754           0.0000000000
     92776     15114  TIP3      H1             14.8260044777       -5.9891134781      -60.9294659090  TIP3      13754           0.0000000000
     92777     15114  TIP3      H2             15.6162669862       -7.2388715260      -61.1273197703  TIP3      13754           0.0000000000
     92778     15115  TIP3      OH2            -2.2908620233      -10.1169064591      -48.6207800151  TIP3      13755           0.0000000000
     92779     15115  TIP3      H1             -2.7772158214      -10.1859510393      -49.4652952284  TIP3      13755           0.0000000000
     92780     15115  TIP3      H2             -2.2717237362      -11.0575161268      -48.3609485695  TIP3      13755           0.0000000000
     92781     15116  TIP3      OH2            -2.5715079570       -7.3774046984      -51.7780701001  TIP3      13756           0.0000000000
     92782     15116  TIP3      H1             -1.6135066172       -7.4900118772      -51.8000671958  TIP3      13756           0.0000000000
     92783     15116  TIP3      H2             -2.6560727227       -6.5638496940      -51.2659200494  TIP3      13756           0.0000000000
     92784     15117  TIP3      OH2            15.7356703878       -6.7044576455      -46.6436611807  TIP3      13757           0.0000000000
     92785     15117  TIP3      H1             15.6760813173       -7.5952236897      -46.2794152706  TIP3      13757           0.0000000000
     92786     15117  TIP3      H2             15.0618475991       -6.3217321416      -46.0469911966  TIP3      13757           0.0000000000
     92787     15118  TIP3      OH2             6.6204185321       -7.1409795829      -47.2392396831  TIP3      13758           0.0000000000
     92788     15118  TIP3      H1              6.6888600068       -6.2958885761      -46.7323058388  TIP3      13758           0.0000000000
     92789     15118  TIP3      H2              5.7408599197       -7.4810541564      -46.9986282099  TIP3      13758           0.0000000000
     92790     15119  TIP3      OH2             7.0528441046       -3.3919704239      -57.4543547308  TIP3      13759           0.0000000000
     92791     15119  TIP3      H1              6.9666796292       -3.4584239468      -58.4169394826  TIP3      13759           0.0000000000
     92792     15119  TIP3      H2              7.0816172282       -2.4309706144      -57.2755738813  TIP3      13759           0.0000000000
     92793     15120  TIP3      OH2             0.6995662933       -4.5105229252      -55.6156365642  TIP3      13760           0.0000000000
     92794     15120  TIP3      H1              0.8466300748       -4.9216483665      -54.7325677251  TIP3      13760           0.0000000000
     92795     15120  TIP3      H2             -0.1481122349       -4.9189334633      -55.8542724730  TIP3      13760           0.0000000000
     92796     15121  TIP3      OH2            10.0749118589       -4.1874908072      -60.4637395994  TIP3      13761           0.0000000000
     92797     15121  TIP3      H1             10.5560531746       -4.9370443562      -60.8930511350  TIP3      13761           0.0000000000
     92798     15121  TIP3      H2             10.1646360364       -4.4340781658      -59.5250073843  TIP3      13761           0.0000000000
     92799     15122  TIP3      OH2             9.8024388205       -4.2394676982      -57.6750446436  TIP3      13762           0.0000000000
     92800     15122  TIP3      H1              8.8466610065       -4.1746438319      -57.4837693575  TIP3      13762           0.0000000000
     92801     15122  TIP3      H2             10.0570797071       -4.9805675333      -57.1046919268  TIP3      13762           0.0000000000
     92802     15123  TIP3      OH2            -0.0467203939       -8.8137123089      -47.5946579771  TIP3      13763           0.0000000000
     92803     15123  TIP3      H1              0.1197442290       -9.1633870161      -46.7184171459  TIP3      13763           0.0000000000
     92804     15123  TIP3      H2             -0.9224043271       -9.1744002457      -47.8627466993  TIP3      13763           0.0000000000
     92805     15124  TIP3      OH2             2.6221395421      -20.3493757950      -51.7201213153  TIP3      13764           0.0000000000
     92806     15124  TIP3      H1              1.6874694726      -20.5380372693      -51.9921828284  TIP3      13764           0.0000000000
     92807     15124  TIP3      H2              2.5204327953      -19.7017460041      -50.9934428278  TIP3      13764           0.0000000000
     92808     15125  TIP3      OH2             7.3132370770      -21.1149455040      -48.2799141116  TIP3      13765           0.0000000000
     92809     15125  TIP3      H1              7.6738257773      -21.0665533266      -47.3905966294  TIP3      13765           0.0000000000
     92810     15125  TIP3      H2              6.3948909073      -20.7527285039      -48.1625480585  TIP3      13765           0.0000000000
     92811     15126  TIP3      OH2            10.5337671630      -16.8527431587      -47.4266073582  TIP3      13766           0.0000000000
     92812     15126  TIP3      H1              9.9652769116      -17.1318483148      -46.6821865126  TIP3      13766           0.0000000000
     92813     15126  TIP3      H2             10.2631441871      -16.0029556612      -47.8101219748  TIP3      13766           0.0000000000
     92814     15127  TIP3      OH2             6.8770406968      -18.0587169246      -60.9698996647  TIP3      13767           0.0000000000
     92815     15127  TIP3      H1              6.6098129200      -18.1344331988      -60.0347073415  TIP3      13767           0.0000000000
     92816     15127  TIP3      H2              6.6458885654      -18.9497287000      -61.2527298051  TIP3      13767           0.0000000000
     92817     15128  TIP3      OH2             2.6397933796      -15.3792003637      -50.4925542627  TIP3      13768           0.0000000000
     92818     15128  TIP3      H1              2.0159209080      -15.3483919261      -49.7430286025  TIP3      13768           0.0000000000
     92819     15128  TIP3      H2              2.6943063237      -14.4326341353      -50.7653645458  TIP3      13768           0.0000000000
     92820     15129  TIP3      OH2             2.6637794114      -15.1935799323      -55.5808746101  TIP3      13769           0.0000000000
     92821     15129  TIP3      H1              1.7364240305      -15.4579643663      -55.7337714383  TIP3      13769           0.0000000000
     92822     15129  TIP3      H2              3.0737511286      -15.5050278047      -56.4123356986  TIP3      13769           0.0000000000
     92823     15130  TIP3      OH2             8.2100475192      -14.7287487306      -56.7963913056  TIP3      13770           0.0000000000
     92824     15130  TIP3      H1              7.8046291337      -13.8993742220      -57.1299712161  TIP3      13770           0.0000000000
     92825     15130  TIP3      H2              8.8949073465      -14.8983263087      -57.4632644136  TIP3      13770           0.0000000000
     92826     15131  TIP3      OH2             9.2370308756      -15.2424854752      -53.9355078606  TIP3      13771           0.0000000000
     92827     15131  TIP3      H1              8.9671088267      -14.6789261427      -54.6815969313  TIP3      13771           0.0000000000
     92828     15131  TIP3      H2              9.3468296640      -16.0907637802      -54.4074539490  TIP3      13771           0.0000000000
     92829     15132  TIP3      OH2             0.3499116951      -15.0899722932      -48.7335499887  TIP3      13772           0.0000000000
     92830     15132  TIP3      H1              0.4518448308      -14.7117611973      -47.8373581881  TIP3      13772           0.0000000000
     92831     15132  TIP3      H2             -0.0678208007      -15.9395809495      -48.5267931950  TIP3      13772           0.0000000000
     92832     15133  TIP3      OH2            -2.9840151569      -17.9800117022      -54.7528450724  TIP3      13773           0.0000000000
     92833     15133  TIP3      H1             -2.3081220261      -18.0267465918      -54.0532660571  TIP3      13773           0.0000000000
     92834     15133  TIP3      H2             -2.5508845828      -18.3651579878      -55.5387941898  TIP3      13773           0.0000000000
     92835     15134  TIP3      OH2            -1.7058090868      -17.2347408460      -59.3514510955  TIP3      13774           0.0000000000
     92836     15134  TIP3      H1             -1.2491343015      -16.6721591251      -59.9941063886  TIP3      13774           0.0000000000
     92837     15134  TIP3      H2             -2.4107347477      -16.6221588528      -59.0641567485  TIP3      13774           0.0000000000
     92838     15135  TIP3      OH2             8.5322739329      -13.6572607830      -49.3034901195  TIP3      13775           0.0000000000
     92839     15135  TIP3      H1              8.8006074076      -14.3208345703      -49.9746015489  TIP3      13775           0.0000000000
     92840     15135  TIP3      H2              7.9465220871      -14.2024485683      -48.7283106184  TIP3      13775           0.0000000000
     92841     15136  TIP3      OH2             5.2806957408      -17.7128564315      -54.5278951898  TIP3      13776           0.0000000000
     92842     15136  TIP3      H1              4.3395186883      -17.6454350506      -54.2973824951  TIP3      13776           0.0000000000
     92843     15136  TIP3      H2              5.7568655266      -17.8415104772      -53.6962175904  TIP3      13776           0.0000000000
     92844     15137  TIP3      OH2             0.0559912258      -16.1561304689      -55.6551025367  TIP3      13777           0.0000000000
     92845     15137  TIP3      H1             -0.8144794028      -15.9623627209      -56.0722914733  TIP3      13777           0.0000000000
     92846     15137  TIP3      H2              0.3400210901      -16.9665357281      -56.1093378631  TIP3      13777           0.0000000000
     92847     15138  TIP3      OH2             3.6837578871      -16.0559919600      -58.0444987483  TIP3      13778           0.0000000000
     92848     15138  TIP3      H1              4.6429425993      -15.9645374630      -57.8753672738  TIP3      13778           0.0000000000
     92849     15138  TIP3      H2              3.4611387377      -15.3998545550      -58.7293889306  TIP3      13778           0.0000000000
     92850     15139  TIP3      OH2             9.7062542795      -18.4760592470      -51.4728341648  TIP3      13779           0.0000000000
     92851     15139  TIP3      H1              9.0949842087      -18.4078619903      -50.6872870950  TIP3      13779           0.0000000000
     92852     15139  TIP3      H2              9.0902662315      -18.7098149552      -52.1608592049  TIP3      13779           0.0000000000
     92853     15140  TIP3      OH2             2.3990467373      -14.9352677690      -60.4538724288  TIP3      13780           0.0000000000
     92854     15140  TIP3      H1              1.8585316963      -15.2557399731      -61.1915677228  TIP3      13780           0.0000000000
     92855     15140  TIP3      H2              3.2137641023      -14.6725607261      -60.9142855834  TIP3      13780           0.0000000000
     92856     15141  TIP3      OH2             6.5026017795      -14.9358893231      -52.6705164637  TIP3      13781           0.0000000000
     92857     15141  TIP3      H1              7.1360016099      -15.4592543023      -53.1755856800  TIP3      13781           0.0000000000
     92858     15141  TIP3      H2              6.3968419570      -15.4586369999      -51.8574229098  TIP3      13781           0.0000000000
     92859     15142  TIP3      OH2             1.5472031480      -18.8042129176      -56.1751245574  TIP3      13782           0.0000000000
     92860     15142  TIP3      H1              1.2314243623      -19.7221820141      -56.2694197009  TIP3      13782           0.0000000000
     92861     15142  TIP3      H2              2.3100367149      -18.8301625363      -56.7754633476  TIP3      13782           0.0000000000
     92862     15143  TIP3      OH2             5.1490102062      -16.4232828185      -50.3906002002  TIP3      13783           0.0000000000
     92863     15143  TIP3      H1              4.3044604503      -16.0376994297      -50.1098399531  TIP3      13783           0.0000000000
     92864     15143  TIP3      H2              5.7014960278      -16.3567815819      -49.5750045720  TIP3      13783           0.0000000000
     92865     15144  TIP3      OH2             5.7646365292      -10.3988488036      -58.5073706172  TIP3      13784           0.0000000000
     92866     15144  TIP3      H1              4.9596780423      -10.8404440571      -58.8641247169  TIP3      13784           0.0000000000
     92867     15144  TIP3      H2              5.5287263289      -10.2618941862      -57.5718188616  TIP3      13784           0.0000000000
     92868     15145  TIP3      OH2            12.9437190288      -11.2209642226      -49.7220862563  TIP3      13785           0.0000000000
     92869     15145  TIP3      H1             13.4984425706      -10.7044441241      -50.3387617636  TIP3      13785           0.0000000000
     92870     15145  TIP3      H2             12.0829932807      -11.1323056813      -50.1872148186  TIP3      13785           0.0000000000
     92871     15146  TIP3      OH2             9.6093221616      -17.5706801000      -60.3608921133  TIP3      13786           0.0000000000
     92872     15146  TIP3      H1              8.6686767563      -17.4104047071      -60.5296142863  TIP3      13786           0.0000000000
     92873     15146  TIP3      H2              9.9169298273      -16.6999537476      -60.0472707143  TIP3      13786           0.0000000000
     92874     15147  TIP3      OH2             7.2539814859      -10.0867717145      -47.3520055518  TIP3      13787           0.0000000000
     92875     15147  TIP3      H1              6.9054000650      -10.5289204263      -46.5709267831  TIP3      13787           0.0000000000
     92876     15147  TIP3      H2              7.0026397171       -9.1659851198      -47.2218815896  TIP3      13787           0.0000000000
     92877     15148  TIP3      OH2            10.3344321167      -15.6401626163      -58.6942196360  TIP3      13788           0.0000000000
     92878     15148  TIP3      H1             11.2329401908      -15.7754341625      -58.3340802036  TIP3      13788           0.0000000000
     92879     15148  TIP3      H2             10.4063186398      -14.8320710116      -59.2209609070  TIP3      13788           0.0000000000
     92880     15149  TIP3      OH2             0.8635079561      -10.9928086972      -52.7479393619  TIP3      13789           0.0000000000
     92881     15149  TIP3      H1              1.5575570089      -11.0570381103      -53.4319375379  TIP3      13789           0.0000000000
     92882     15149  TIP3      H2              0.9291155944      -11.8465304197      -52.2875950063  TIP3      13789           0.0000000000
     92883     15150  TIP3      OH2             7.8630657200       -8.9012347148      -59.4538719635  TIP3      13790           0.0000000000
     92884     15150  TIP3      H1              7.4795527332       -8.0520386273      -59.1491911137  TIP3      13790           0.0000000000
     92885     15150  TIP3      H2              7.1158346642       -9.5201103146      -59.3078733730  TIP3      13790           0.0000000000
     92886     15151  TIP3      OH2            -2.1777368351      -12.5559124555      -47.4760352833  TIP3      13791           0.0000000000
     92887     15151  TIP3      H1             -1.9218407134      -13.0051436282      -46.6545084852  TIP3      13791           0.0000000000
     92888     15151  TIP3      H2             -2.7545552630      -13.1972565244      -47.9283578515  TIP3      13791           0.0000000000
     92889     15152  TIP3      OH2             9.5157541954       -7.6797615985      -47.3548961601  TIP3      13792           0.0000000000
     92890     15152  TIP3      H1              8.6001025118       -7.4752722105      -47.5985646803  TIP3      13792           0.0000000000
     92891     15152  TIP3      H2              9.5293990283       -7.4461542698      -46.4221497751  TIP3      13792           0.0000000000
     92892     15153  TIP3      OH2            15.2136993664      -15.4864006724      -58.9547711711  TIP3      13793           0.0000000000
     92893     15153  TIP3      H1             14.7018145796      -15.8367851170      -59.6966367182  TIP3      13793           0.0000000000
     92894     15153  TIP3      H2             15.2963772452      -14.5538286699      -59.2414727120  TIP3      13793           0.0000000000
     92895     15154  TIP3      OH2            15.1770601001       -9.7637860158      -46.1966244634  TIP3      13794           0.0000000000
     92896     15154  TIP3      H1             14.3219306486       -9.3913647136      -46.5374843994  TIP3      13794           0.0000000000
     92897     15154  TIP3      H2             15.7382584263       -9.6552148877      -46.9801437563  TIP3      13794           0.0000000000
     92898     15155  TIP3      OH2            13.5293735968       -6.6641118490      -58.5628380983  TIP3      13795           0.0000000000
     92899     15155  TIP3      H1             13.1466930673       -7.4824018821      -58.2226823288  TIP3      13795           0.0000000000
     92900     15155  TIP3      H2             13.8136009626       -6.8686240991      -59.4749474779  TIP3      13795           0.0000000000
     92901     15156  TIP3      OH2            10.7214787472      -11.8573437670      -51.4566746095  TIP3      13796           0.0000000000
     92902     15156  TIP3      H1              9.7789456409      -12.0703664797      -51.5724860122  TIP3      13796           0.0000000000
     92903     15156  TIP3      H2             11.1531524943      -12.6141990077      -51.8902648198  TIP3      13796           0.0000000000
     92904     15157  TIP3      OH2             3.2387855384       -7.5218728161      -55.3589243283  TIP3      13797           0.0000000000
     92905     15157  TIP3      H1              3.7384854234       -6.7170931662      -55.5652544755  TIP3      13797           0.0000000000
     92906     15157  TIP3      H2              2.3591894163       -7.2897071663      -55.6876975238  TIP3      13797           0.0000000000
     92907     15158  TIP3      OH2            -1.0279228634      -12.6488958221      -60.8275292774  TIP3      13798           0.0000000000
     92908     15158  TIP3      H1             -0.4032684403      -12.0394503903      -60.4037745108  TIP3      13798           0.0000000000
     92909     15158  TIP3      H2             -1.8981517679      -12.3897510636      -60.4937129041  TIP3      13798           0.0000000000
     92910     15159  TIP3      OH2             4.6572272489       -9.8600459884      -55.8306636181  TIP3      13799           0.0000000000
     92911     15159  TIP3      H1              4.3463835258       -8.9369749284      -55.7539591340  TIP3      13799           0.0000000000
     92912     15159  TIP3      H2              3.9305002981      -10.3467713841      -55.3941956948  TIP3      13799           0.0000000000
     92913     15160  TIP3      OH2             5.1039973657       -5.6672614834      -49.4518445935  TIP3      13800           0.0000000000
     92914     15160  TIP3      H1              5.5577390567       -4.8542361043      -49.7096980440  TIP3      13800           0.0000000000
     92915     15160  TIP3      H2              5.7170687559       -6.0128246662      -48.7808041040  TIP3      13800           0.0000000000
     92916     15161  TIP3      OH2             3.3328854042       -4.8613879091      -56.3132661928  TIP3      13801           0.0000000000
     92917     15161  TIP3      H1              2.3672785026       -4.7251436497      -56.1724354959  TIP3      13801           0.0000000000
     92918     15161  TIP3      H2              3.6917408538       -4.0282140786      -55.9568335352  TIP3      13801           0.0000000000
     92919     15162  TIP3      OH2             8.6443430155       -9.6724700583      -49.8325544402  TIP3      13802           0.0000000000
     92920     15162  TIP3      H1              8.3011676126       -9.8670235961      -48.9365685395  TIP3      13802           0.0000000000
     92921     15162  TIP3      H2              9.2859986716      -10.3868757847      -49.9621833870  TIP3      13802           0.0000000000
     92922     15163  TIP3      OH2            10.9109833909       -8.6544075405      -60.6898432093  TIP3      13803           0.0000000000
     92923     15163  TIP3      H1             11.2116939486       -9.0836345613      -59.8654380339  TIP3      13803           0.0000000000
     92924     15163  TIP3      H2              9.9535340275       -8.7789930111      -60.6199778276  TIP3      13803           0.0000000000
     92925     15164  TIP3      OH2            11.3643285323       -5.0908400575      -47.2823184397  TIP3      13804           0.0000000000
     92926     15164  TIP3      H1             10.7528842880       -5.6034259156      -47.8294714563  TIP3      13804           0.0000000000
     92927     15164  TIP3      H2             11.6457064237       -4.4027597314      -47.9225426415  TIP3      13804           0.0000000000
     92928     15165  TIP3      OH2            15.4413670467       -4.2200879080      -60.4730531429  TIP3      13805           0.0000000000
     92929     15165  TIP3      H1             16.1357350442       -3.5824451217      -60.7115266875  TIP3      13805           0.0000000000
     92930     15165  TIP3      H2             14.7207537508       -3.6216112676      -60.1726960196  TIP3      13805           0.0000000000
     92931     15166  TIP3      OH2            -0.4940091194      -17.8192073636      -47.9744848940  TIP3      13806           0.0000000000
     92932     15166  TIP3      H1             -1.4018709292      -17.4811557424      -47.9639602958  TIP3      13806           0.0000000000
     92933     15166  TIP3      H2             -0.5813432173      -18.6552087765      -47.4785509278  TIP3      13806           0.0000000000
     92934     15167  TIP3      OH2            11.7498011014       -9.9951876574      -58.4912280716  TIP3      13807           0.0000000000
     92935     15167  TIP3      H1             11.5007954753      -10.7648716290      -57.9400824670  TIP3      13807           0.0000000000
     92936     15167  TIP3      H2             12.6923577204       -9.9061718818      -58.2696212622  TIP3      13807           0.0000000000
     92937     15168  TIP3      OH2            -0.8612172754       -6.0527946554      -49.5107665462  TIP3      13808           0.0000000000
     92938     15168  TIP3      H1             -0.5838539594       -6.9790629016      -49.4989579806  TIP3      13808           0.0000000000
     92939     15168  TIP3      H2             -0.6290148606       -5.7521857229      -48.6193358801  TIP3      13808           0.0000000000
     92940     15169  TIP3      OH2             3.8461689890       -7.9771765694      -59.7995607944  TIP3      13809           0.0000000000
     92941     15169  TIP3      H1              4.1363981190       -8.5260332988      -59.0585459952  TIP3      13809           0.0000000000
     92942     15169  TIP3      H2              3.9620155514       -7.0643830714      -59.4608907895  TIP3      13809           0.0000000000
     92943     15170  TIP3      OH2             0.3640516774      -10.7337427059      -59.3243812845  TIP3      13810           0.0000000000
     92944     15170  TIP3      H1             -0.2947617912      -10.3274719932      -58.7231843394  TIP3      13810           0.0000000000
     92945     15170  TIP3      H2              0.9346099834       -9.9806770859      -59.5449497927  TIP3      13810           0.0000000000
     92946     15171  TIP3      OH2             9.0016302321      -18.1216344479      -49.0895241822  TIP3      13811           0.0000000000
     92947     15171  TIP3      H1              9.0330520071      -17.9519417147      -48.1589401549  TIP3      13811           0.0000000000
     92948     15171  TIP3      H2              8.1732454052      -18.6748828629      -49.0630547422  TIP3      13811           0.0000000000
     92949     15172  TIP3      OH2             8.9694330932      -18.4801603214      -57.8658311513  TIP3      13812           0.0000000000
     92950     15172  TIP3      H1              9.2148326635      -18.0300993124      -58.6973862576  TIP3      13812           0.0000000000
     92951     15172  TIP3      H2              9.5620192821      -18.0444870613      -57.2405148343  TIP3      13812           0.0000000000
     92952     15173  TIP3      OH2             6.6742622990       -6.3192356627      -59.0574134030  TIP3      13813           0.0000000000
     92953     15173  TIP3      H1              5.8477131348       -5.8106805725      -59.0119797707  TIP3      13813           0.0000000000
     92954     15173  TIP3      H2              7.2056043274       -5.8236399996      -59.6887305694  TIP3      13813           0.0000000000
     92955     15174  TIP3      OH2             6.2070036029      -16.7377718245      -57.0803986086  TIP3      13814           0.0000000000
     92956     15174  TIP3      H1              6.9957872999      -16.1650295525      -57.0412330840  TIP3      13814           0.0000000000
     92957     15174  TIP3      H2              5.9583092283      -16.8629758164      -56.1496682461  TIP3      13814           0.0000000000
     92958     15175  TIP3      OH2             7.0453277309      -15.5076584686      -47.9358105002  TIP3      13815           0.0000000000
     92959     15175  TIP3      H1              6.7672050845      -15.1768774773      -47.0774211690  TIP3      13815           0.0000000000
     92960     15175  TIP3      H2              7.2238612863      -16.4684711372      -47.8245677801  TIP3      13815           0.0000000000
     92961     15176  TIP3      OH2             7.0641343940      -19.6820994979      -56.1751661817  TIP3      13816           0.0000000000
     92962     15176  TIP3      H1              6.7516512813      -19.0328386582      -55.5205005188  TIP3      13816           0.0000000000
     92963     15176  TIP3      H2              7.7472755693      -19.1315604929      -56.6309340140  TIP3      13816           0.0000000000
     92964     15177  TIP3      OH2             4.0215416046       -5.2960129655      -59.0521314609  TIP3      13817           0.0000000000
     92965     15177  TIP3      H1              4.2090440264       -4.4711874016      -59.5477100330  TIP3      13817           0.0000000000
     92966     15177  TIP3      H2              3.7979719233       -4.9528609226      -58.1583404279  TIP3      13817           0.0000000000
     92967     15178  TIP3      OH2             2.7334770063      -18.5884244612      -59.4324239927  TIP3      13818           0.0000000000
     92968     15178  TIP3      H1              2.6665045355      -17.6728135977      -59.1068346559  TIP3      13818           0.0000000000
     92969     15178  TIP3      H2              3.6451792688      -18.8213417300      -59.1836794872  TIP3      13818           0.0000000000
     92970     15179  TIP3      OH2            12.9314726548      -17.7393856516      -46.9947580321  TIP3      13819           0.0000000000
     92971     15179  TIP3      H1             11.9813246593      -17.6223778985      -47.1991317553  TIP3      13819           0.0000000000
     92972     15179  TIP3      H2             13.2576046981      -17.9141928754      -47.8952347948  TIP3      13819           0.0000000000
     92973     15180  TIP3      OH2            11.5531837450      -14.0674954820      -53.0133805826  TIP3      13820           0.0000000000
     92974     15180  TIP3      H1             10.7298678222      -14.5117522356      -53.2837536536  TIP3      13820           0.0000000000
     92975     15180  TIP3      H2             12.0132790684      -14.7578724288      -52.4821373294  TIP3      13820           0.0000000000
     92976     15181  TIP3      OH2             0.9730186151       -8.1328521925      -60.4195247143  TIP3      13821           0.0000000000
     92977     15181  TIP3      H1              1.6195554449       -7.4918175402      -60.1007199643  TIP3      13821           0.0000000000
     92978     15181  TIP3      H2              1.4785444888       -8.5780534345      -61.1082619204  TIP3      13821           0.0000000000
     92979     15182  TIP3      OH2            12.6207313530       -4.8001051211      -51.3625473132  TIP3      13822           0.0000000000
     92980     15182  TIP3      H1             12.5184377480       -4.1194749380      -52.0500702384  TIP3      13822           0.0000000000
     92981     15182  TIP3      H2             13.5789661034       -4.7486266633      -51.1675705580  TIP3      13822           0.0000000000
     92982     15183  TIP3      OH2             0.1373706186      -20.6637514251      -52.5578943392  TIP3      13823           0.0000000000
     92983     15183  TIP3      H1             -0.1013670069      -20.6762321986      -53.5161002859  TIP3      13823           0.0000000000
     92984     15183  TIP3      H2             -0.2946144023      -21.5116235088      -52.2884349987  TIP3      13823           0.0000000000
     92985     15184  TIP3      OH2            -0.9318546092       -6.7568116448      -56.3973018243  TIP3      13824           0.0000000000
     92986     15184  TIP3      H1             -1.7878937194       -6.3114713980      -56.4423976708  TIP3      13824           0.0000000000
     92987     15184  TIP3      H2             -0.4542322811       -6.2922923895      -57.0986784233  TIP3      13824           0.0000000000
     92988     15185  TIP3      OH2            11.6598371671       -5.8835089175      -61.9002566563  TIP3      13825           0.0000000000
     92989     15185  TIP3      H1             11.9068866720       -6.7081099037      -61.4402108138  TIP3      13825           0.0000000000
     92990     15185  TIP3      H2             12.4213067637       -5.7013256441      -62.4592871964  TIP3      13825           0.0000000000
     92991     15186  TIP3      OH2            10.6171648791      -10.4880079564      -47.4740845792  TIP3      13826           0.0000000000
     92992     15186  TIP3      H1             11.3905451533       -9.8853589240      -47.4430175650  TIP3      13826           0.0000000000
     92993     15186  TIP3      H2              9.9150576405       -9.8449025017      -47.2767850019  TIP3      13826           0.0000000000
     92994     15187  TIP3      OH2             3.7637154453      -11.9569584564      -59.6609162905  TIP3      13827           0.0000000000
     92995     15187  TIP3      H1              3.2420675648      -12.4903449600      -59.0441433345  TIP3      13827           0.0000000000
     92996     15187  TIP3      H2              4.0462382965      -12.6322239412      -60.3210908346  TIP3      13827           0.0000000000
     92997     15188  TIP3      OH2             2.9608136698      -14.1591805661      -47.4072375898  TIP3      13828           0.0000000000
     92998     15188  TIP3      H1              2.4094207174      -13.4179065736      -47.1144232606  TIP3      13828           0.0000000000
     92999     15188  TIP3      H2              3.4024360349      -13.8019785936      -48.1976419776  TIP3      13828           0.0000000000
     93000     15189  TIP3      OH2             4.8104097029      -13.7709031334      -61.4698477364  TIP3      13829           0.0000000000
     93001     15189  TIP3      H1              4.7031925933      -13.9024873493      -62.4235233251  TIP3      13829           0.0000000000
     93002     15189  TIP3      H2              5.7848798295      -13.6564039646      -61.3719809298  TIP3      13829           0.0000000000
     93003     15190  TIP3      OH2             3.3547110376      -16.7870665108      -46.3236986174  TIP3      13830           0.0000000000
     93004     15190  TIP3      H1              3.5368582948      -17.4967417845      -46.9628957547  TIP3      13830           0.0000000000
     93005     15190  TIP3      H2              3.3559704562      -15.9759458006      -46.8660249067  TIP3      13830           0.0000000000
     93006     15191  TIP3      OH2             3.5176782294      -18.3366085188      -48.7574913318  TIP3      13831           0.0000000000
     93007     15191  TIP3      H1              4.2897993357      -18.0353614465      -49.3195581029  TIP3      13831           0.0000000000
     93008     15191  TIP3      H2              2.7656959379      -18.5126191420      -49.3175522413  TIP3      13831           0.0000000000
     93009     15192  TIP3      OH2             5.3700735825      -12.9340502137      -48.5299575336  TIP3      13832           0.0000000000
     93010     15192  TIP3      H1              6.1152104861      -13.0919190686      -49.1190036755  TIP3      13832           0.0000000000
     93011     15192  TIP3      H2              4.9916927674      -12.0970048764      -48.8457681909  TIP3      13832           0.0000000000
     93012     15193  TIP3      OH2             4.5798147764      -20.9799522561      -48.3658434947  TIP3      13833           0.0000000000
     93013     15193  TIP3      H1              4.4927061967      -20.0038538488      -48.4455931182  TIP3      13833           0.0000000000
     93014     15193  TIP3      H2              3.8219482508      -21.3287418680      -48.8492843704  TIP3      13833           0.0000000000
     93015     15194  TIP3      OH2             4.6548659504       -3.0560192217      -60.4574536108  TIP3      13834           0.0000000000
     93016     15194  TIP3      H1              5.6200771086       -2.9504208197      -60.3251901807  TIP3      13834           0.0000000000
     93017     15194  TIP3      H2              4.4646870980       -2.3830974095      -61.1087318889  TIP3      13834           0.0000000000
     93018     15195  TIP3      OH2            -1.7677587133       -8.4569966739      -60.9292445553  TIP3      13835           0.0000000000
     93019     15195  TIP3      H1             -0.8100491001       -8.3729581948      -60.7135105592  TIP3      13835           0.0000000000
     93020     15195  TIP3      H2             -1.7575785572       -9.0676926217      -61.6735906008  TIP3      13835           0.0000000000
     93021     15196  TIP3      OH2            -3.0621607398       -3.0841790591      -55.9343530052  TIP3      13836           0.0000000000
     93022     15196  TIP3      H1             -3.7167708804       -3.6096054764      -56.4372967362  TIP3      13836           0.0000000000
     93023     15196  TIP3      H2             -2.7166440671       -3.7427918333      -55.3033942608  TIP3      13836           0.0000000000
     93024     15197  TIP3      OH2            -2.2324734872       -4.9355736916      -54.0884299954  TIP3      13837           0.0000000000
     93025     15197  TIP3      H1             -2.5520732499       -5.8263407302      -53.8843352159  TIP3      13837           0.0000000000
     93026     15197  TIP3      H2             -1.9762740187       -4.6201332543      -53.2050339604  TIP3      13837           0.0000000000
     93027     15198  TIP3      OH2            15.3506026669       -4.1819803476      -51.1314109146  TIP3      13838           0.0000000000
     93028     15198  TIP3      H1             15.3371006527       -4.0167079649      -50.1715996811  TIP3      13838           0.0000000000
     93029     15198  TIP3      H2             15.9954718902       -3.5839904974      -51.4757787795  TIP3      13838           0.0000000000
     93030     15199  TIP3      OH2            14.9863782362       -4.5668959196      -48.2884565017  TIP3      13839           0.0000000000
     93031     15199  TIP3      H1             14.4492940029       -5.3355136295      -48.5733253740  TIP3      13839           0.0000000000
     93032     15199  TIP3      H2             15.4347750949       -5.0081893918      -47.5344364035  TIP3      13839           0.0000000000
     93033     15200  TIP3      OH2            14.6874240220      -10.5345435413      -58.1122051412  TIP3      13840           0.0000000000
     93034     15200  TIP3      H1             15.5212435631      -10.0945542675      -57.8862105585  TIP3      13840           0.0000000000
     93035     15200  TIP3      H2             14.6672738857      -11.2269785867      -57.4152320459  TIP3      13840           0.0000000000
     93036     15201  TIP3      OH2            15.0363376247      -12.4425614099      -56.2327163364  TIP3      13841           0.0000000000
     93037     15201  TIP3      H1             14.2866512069      -12.9370714269      -55.8310943576  TIP3      13841           0.0000000000
     93038     15201  TIP3      H2             15.6329853279      -12.2997839455      -55.4702818157  TIP3      13841           0.0000000000
     93039     15202  TIP3      OH2            14.7834639174       -9.7572662662      -51.2691154181  TIP3      13842           0.0000000000
     93040     15202  TIP3      H1             15.6151067358      -10.1221044122      -51.6166175193  TIP3      13842           0.0000000000
     93041     15202  TIP3      H2             14.9339443246       -8.7977661358      -51.4144177307  TIP3      13842           0.0000000000
     93042     15203  TIP3      OH2            13.3214728533       -6.8474699696      -48.9565635053  TIP3      13843           0.0000000000
     93043     15203  TIP3      H1             12.6445099429       -6.4881445057      -48.3649961718  TIP3      13843           0.0000000000
     93044     15203  TIP3      H2             12.7839052157       -7.2489972426      -49.6716585897  TIP3      13843           0.0000000000
     93045     15204  TIP3      OH2            15.3565689018      -12.5862737832      -59.8655964939  TIP3      13844           0.0000000000
     93046     15204  TIP3      H1             14.7347268111      -12.2742326841      -60.5295647980  TIP3      13844           0.0000000000
     93047     15204  TIP3      H2             15.2457338937      -11.9063414963      -59.1668467880  TIP3      13844           0.0000000000
     93048     15205  TIP3      OH2            12.8540226199      -13.9670902039      -55.6648013270  TIP3      13845           0.0000000000
     93049     15205  TIP3      H1             12.7070015461      -14.9221507403      -55.6753555959  TIP3      13845           0.0000000000
     93050     15205  TIP3      H2             12.5261901930      -13.7400804540      -54.7753699895  TIP3      13845           0.0000000000
     93051     15206  TIP3      OH2            -2.1410272006      -11.8768981766      -51.5911784982  TIP3      13846           0.0000000000
     93052     15206  TIP3      H1             -1.9597124672      -11.9558156565      -52.5556930847  TIP3      13846           0.0000000000
     93053     15206  TIP3      H2             -1.2455638161      -12.0505401889      -51.2337348800  TIP3      13846           0.0000000000
     93054     15207  TIP3      OH2            13.7705600538      -12.0413885922      -45.9861903459  TIP3      13847           0.0000000000
     93055     15207  TIP3      H1             14.3768683470      -12.7355662096      -45.7751499947  TIP3      13847           0.0000000000
     93056     15207  TIP3      H2             14.3004532000      -11.2157902546      -46.0148385269  TIP3      13847           0.0000000000
     93057     15208  TIP3      OH2            12.9511197019      -17.9750682732      -62.2093113476  TIP3      13848           0.0000000000
     93058     15208  TIP3      H1             13.5386814196      -18.3626746351      -61.5355817864  TIP3      13848           0.0000000000
     93059     15208  TIP3      H2             12.0697692061      -18.3072480823      -61.9888165012  TIP3      13848           0.0000000000
     93060     15209  TIP3      OH2            12.5261151398      -16.3832907938      -57.1837176707  TIP3      13849           0.0000000000
     93061     15209  TIP3      H1             12.8209713835      -17.3158674746      -57.0556253192  TIP3      13849           0.0000000000
     93062     15209  TIP3      H2             13.3191089758      -15.9870092490      -57.5691088554  TIP3      13849           0.0000000000
     93063     15210  TIP3      OH2            13.1731930896      -15.8186256542      -51.7821720268  TIP3      13850           0.0000000000
     93064     15210  TIP3      H1             14.1311849353      -15.5991809859      -51.7758875228  TIP3      13850           0.0000000000
     93065     15210  TIP3      H2             12.9815187597      -15.6991523967      -50.8396230706  TIP3      13850           0.0000000000
     93066     15211  TIP3      OH2            13.2392426212      -15.0862669889      -48.9069139324  TIP3      13851           0.0000000000
     93067     15211  TIP3      H1             12.3455491253      -14.7778540872      -48.6783122519  TIP3      13851           0.0000000000
     93068     15211  TIP3      H2             13.6731722387      -14.2499350608      -49.2123007539  TIP3      13851           0.0000000000
     93069     15212  TIP3      OH2            13.1916311572      -19.1010127432      -57.1518624458  TIP3      13852           0.0000000000
     93070     15212  TIP3      H1             13.4019299229      -19.5331918177      -56.2946514565  TIP3      13852           0.0000000000
     93071     15212  TIP3      H2             12.5847575985      -19.7379935528      -57.5865110703  TIP3      13852           0.0000000000
     93072     15213  TIP3      OH2            -1.2741731450      -18.2856398446      -52.6311928410  TIP3      13853           0.0000000000
     93073     15213  TIP3      H1             -0.8964364808      -19.1238781012      -52.2995537614  TIP3      13853           0.0000000000
     93074     15213  TIP3      H2             -0.8232623575      -17.5856321157      -52.1528880339  TIP3      13853           0.0000000000
     93075     15214  TIP3      OH2            -3.0412754443      -15.2935885121      -51.5507482702  TIP3      13854           0.0000000000
     93076     15214  TIP3      H1             -2.4888025320      -15.5274862282      -52.3217969146  TIP3      13854           0.0000000000
     93077     15214  TIP3      H2             -2.5811782231      -14.4848574453      -51.2803637022  TIP3      13854           0.0000000000
     93078     15215  TIP3      OH2            15.0145473802      -19.0460858118      -60.5667764827  TIP3      13855           0.0000000000
     93079     15215  TIP3      H1             15.4370379953      -19.7476570487      -61.0880644391  TIP3      13855           0.0000000000
     93080     15215  TIP3      H2             15.7245300562      -18.3819056817      -60.5773358866  TIP3      13855           0.0000000000
     93081     15216  TIP3      OH2            -2.6776629282      -19.0197382362      -57.4882742898  TIP3      13856           0.0000000000
     93082     15216  TIP3      H1             -3.6246443204      -18.8488735235      -57.6074363335  TIP3      13856           0.0000000000
     93083     15216  TIP3      H2             -2.2631724439      -18.5279328363      -58.2168233613  TIP3      13856           0.0000000000
     93084     15217  TIP3      OH2            12.0631457561       -4.0745805713      -55.5206187718  TIP3      13857           0.0000000000
     93085     15217  TIP3      H1             12.7450192917       -4.3826018532      -56.1440151179  TIP3      13857           0.0000000000
     93086     15217  TIP3      H2             12.5852795959       -3.5763103215      -54.8749157096  TIP3      13857           0.0000000000
     93087     15218  TIP3      OH2            -2.7205378041      -20.3433651595      -49.2000682164  TIP3      13858           0.0000000000
     93088     15218  TIP3      H1             -3.3812853106      -20.5588460073      -48.5027941820  TIP3      13858           0.0000000000
     93089     15218  TIP3      H2             -3.1973259742      -19.6768764615      -49.7290787308  TIP3      13858           0.0000000000
     93090     15219  TIP3      OH2             2.4006816830       -6.1992290205      -48.7731526451  TIP3      13859           0.0000000000
     93091     15219  TIP3      H1              2.0607867951       -5.3225627580      -49.0097954498  TIP3      13859           0.0000000000
     93092     15219  TIP3      H2              3.3413771346       -6.0797561443      -49.0257000781  TIP3      13859           0.0000000000
     93093     15220  TIP3      OH2             6.7560142030       -4.8108787421      -45.7944028341  TIP3      13860           0.0000000000
     93094     15220  TIP3      H1              6.9318321627       -5.0689776742      -44.8789091727  TIP3      13860           0.0000000000
     93095     15220  TIP3      H2              7.6164789301       -4.4471274030      -46.0687900185  TIP3      13860           0.0000000000
     93096     15221  TIP3      OH2             8.9922794826       -3.4322161002      -46.5696284340  TIP3      13861           0.0000000000
     93097     15221  TIP3      H1              9.7074029329       -4.0423603114      -46.7956847262  TIP3      13861           0.0000000000
     93098     15221  TIP3      H2              9.3922916257       -3.0913632818      -45.7461856529  TIP3      13861           0.0000000000
     93099     15222  TIP3      OH2            14.0753044931      -20.8500066403      -47.5094591110  TIP3      13862           0.0000000000
     93100     15222  TIP3      H1             13.1859236790      -20.6136276048      -47.8207433757  TIP3      13862           0.0000000000
     93101     15222  TIP3      H2             14.2076989858      -21.7182233376      -47.9390073614  TIP3      13862           0.0000000000
     93102     15223  TIP3      OH2            -0.1662536926       -2.9161444035      -48.7367054815  TIP3      13863           0.0000000000
     93103     15223  TIP3      H1             -0.9156831115       -2.4361578948      -49.1159229153  TIP3      13863           0.0000000000
     93104     15223  TIP3      H2             -0.4923890992       -3.1014775289      -47.8409800359  TIP3      13863           0.0000000000
     93105     15224  TIP3      OH2             2.3008688331       -3.3354863973      -49.6736515888  TIP3      13864           0.0000000000
     93106     15224  TIP3      H1              1.4200929748       -3.1845598638      -49.2542264858  TIP3      13864           0.0000000000
     93107     15224  TIP3      H2              2.2334686866       -2.7624907659      -50.4574360086  TIP3      13864           0.0000000000
     93108     15225  TIP3      OH2             7.0183792352       -3.4415148350      -50.5090883973  TIP3      13865           0.0000000000
     93109     15225  TIP3      H1              6.5489700301       -2.8835575964      -51.1480316112  TIP3      13865           0.0000000000
     93110     15225  TIP3      H2              7.1403969309       -2.8149279874      -49.7666903979  TIP3      13865           0.0000000000
     93111     15226  TIP3      OH2             9.3167952051       -4.6331754696      -49.5276463044  TIP3      13866           0.0000000000
     93112     15226  TIP3      H1              8.4443513204       -4.3516510124      -49.8428604379  TIP3      13866           0.0000000000
     93113     15226  TIP3      H2              9.7698170451       -3.7746114990      -49.5807177034  TIP3      13866           0.0000000000
     93114     15227  TIP3      OH2            11.8911119613       -3.0368322761      -49.2313997839  TIP3      13867           0.0000000000
     93115     15227  TIP3      H1             11.8250464017       -2.0834251482      -49.4727519198  TIP3      13867           0.0000000000
     93116     15227  TIP3      H2             12.0792304029       -3.4156487592      -50.1106589801  TIP3      13867           0.0000000000
     93117     15228  TIP3      OH2            -0.7098379865       -4.2820008879      -51.7973049345  TIP3      13868           0.0000000000
     93118     15228  TIP3      H1             -0.7756231141       -4.7165370017      -50.9183463856  TIP3      13868           0.0000000000
     93119     15228  TIP3      H2              0.1053062269       -4.6595506614      -52.1871534682  TIP3      13868           0.0000000000
     93120     15229  TIP3      OH2             1.3727292386       -5.5689225449      -53.1482037332  TIP3      13869           0.0000000000
     93121     15229  TIP3      H1              1.2062381686       -6.5030833765      -52.9190187075  TIP3      13869           0.0000000000
     93122     15229  TIP3      H2              2.2271430171       -5.4176479729      -52.6909746569  TIP3      13869           0.0000000000
     93123     15230  TIP3      OH2             3.9748740012       -5.0807735025      -52.2673031111  TIP3      13870           0.0000000000
     93124     15230  TIP3      H1              4.1339044016       -6.0050666133      -52.5350725753  TIP3      13870           0.0000000000
     93125     15230  TIP3      H2              4.0213367577       -5.1446273400      -51.3014501123  TIP3      13870           0.0000000000
     93126     15231  TIP3      OH2             7.3882360784      -19.4320737569      -53.1703600374  TIP3      13871           0.0000000000
     93127     15231  TIP3      H1              6.7666759644      -20.0934039020      -52.8316596593  TIP3      13871           0.0000000000
     93128     15231  TIP3      H2              7.9745633078      -19.9666131656      -53.7119274042  TIP3      13871           0.0000000000
     93129     15232  TIP3      OH2            12.5635288299      -21.3800538728      -53.0651388719  TIP3      13872           0.0000000000
     93130     15232  TIP3      H1             13.1771802949      -20.7927441314      -53.5741147305  TIP3      13872           0.0000000000
     93131     15232  TIP3      H2             11.6803333696      -21.0206282360      -53.2903472941  TIP3      13872           0.0000000000
     93132     15233  TIP3      OH2            14.2424968704      -20.1485599426      -54.7895718698  TIP3      13873           0.0000000000
     93133     15233  TIP3      H1             14.9222009178      -20.7261880261      -55.2125244505  TIP3      13873           0.0000000000
     93134     15233  TIP3      H2             14.7419975546      -19.3060551116      -54.6859531888  TIP3      13873           0.0000000000
     93135     15234  TIP3      OH2            -0.2031805633      -20.8123255186      -55.2761601332  TIP3      13874           0.0000000000
     93136     15234  TIP3      H1             -0.9952120640      -21.0055363859      -55.8137589822  TIP3      13874           0.0000000000
     93137     15234  TIP3      H2              0.2551931347      -21.6740545549      -55.3517938115  TIP3      13874           0.0000000000
     93138     15235  TIP3      OH2            -1.4592398186      -21.0395867739      -59.5728759152  TIP3      13875           0.0000000000
     93139     15235  TIP3      H1             -0.9462762412      -20.4034067846      -60.1075832943  TIP3      13875           0.0000000000
     93140     15235  TIP3      H2             -2.0041822769      -20.4727190713      -59.0058913453  TIP3      13875           0.0000000000
     93141     15236  TIP3      OH2             4.2550768612      -20.8370419412      -55.4758369177  TIP3      13876           0.0000000000
     93142     15236  TIP3      H1              5.1779632820      -20.5407221560      -55.5802443275  TIP3      13876           0.0000000000
     93143     15236  TIP3      H2              4.2555630933      -21.1282919009      -54.5667836050  TIP3      13876           0.0000000000
     93144     15237  TIP3      OH2             9.9739421305      -20.8572303074      -53.8655261584  TIP3      13877           0.0000000000
     93145     15237  TIP3      H1              9.9362632639      -20.7594638606      -54.8243376919  TIP3      13877           0.0000000000
     93146     15237  TIP3      H2              9.5800800397      -21.7518619913      -53.7213810304  TIP3      13877           0.0000000000
     93147     15238  TIP3      OH2            11.2576682394      -20.8348245545      -58.2133162512  TIP3      13878           0.0000000000
     93148     15238  TIP3      H1             10.5124063847      -20.2375800737      -58.3696331487  TIP3      13878           0.0000000000
     93149     15238  TIP3      H2             10.8216986329      -21.6866448293      -57.9772859027  TIP3      13878           0.0000000000
     93150     15239  TIP3      OH2            -1.5131902756       -5.0885606902      -58.5486365182  TIP3      13879           0.0000000000
     93151     15239  TIP3      H1             -2.1952028615       -5.0954268939      -59.2485449087  TIP3      13879           0.0000000000
     93152     15239  TIP3      H2             -1.4965132107       -4.1376471384      -58.3846680375  TIP3      13879           0.0000000000
     93153     15240  TIP3      OH2             0.3907736564      -19.1873039532      -61.0083129554  TIP3      13880           0.0000000000
     93154     15240  TIP3      H1              0.9397763385      -19.7256201103      -61.5779812810  TIP3      13880           0.0000000000
     93155     15240  TIP3      H2              1.0753931513      -18.7712997669      -60.4525861384  TIP3      13880           0.0000000000
     93156     15241  TIP3      OH2             5.4492462599      -18.8617717279      -58.6488593170  TIP3      13881           0.0000000000
     93157     15241  TIP3      H1              5.6851439798      -19.4401102013      -57.9036319014  TIP3      13881           0.0000000000
     93158     15241  TIP3      H2              5.4859391926      -18.0014516933      -58.1706418746  TIP3      13881           0.0000000000
     93159     15242  TIP3      OH2             7.3242253137       -3.7730231063      -60.2429206221  TIP3      13882           0.0000000000
     93160     15242  TIP3      H1              8.2702974899       -3.5702526334      -60.3830262687  TIP3      13882           0.0000000000
     93161     15242  TIP3      H2              7.1667571138       -4.3256826350      -61.0181150886  TIP3      13882           0.0000000000
     93162     15243  TIP3      OH2            14.0632039495       -4.2872670917      -57.4867972517  TIP3      13883           0.0000000000
     93163     15243  TIP3      H1             13.8587011715       -5.0672113443      -58.0616759519  TIP3      13883           0.0000000000
     93164     15243  TIP3      H2             13.9737172633       -3.5549805808      -58.1257898203  TIP3      13883           0.0000000000
     93165     15244  TIP3      OH2            -0.5041244642      -20.6335574315      -46.0659346277  TIP3      13884           0.0000000000
     93166     15244  TIP3      H1             -0.7883322112      -21.2185770571      -45.3545586065  TIP3      13884           0.0000000000
     93167     15244  TIP3      H2              0.3755923450      -20.4587845161      -45.7173785388  TIP3      13884           0.0000000000
     93168     15245  TIP3      OH2             0.3038424883       -4.1380137662      -61.5904208997  TIP3      13885           0.0000000000
     93169     15245  TIP3      H1              0.0241827581       -3.8403261537      -60.7167099572  TIP3      13885           0.0000000000
     93170     15245  TIP3      H2              1.0867725360       -4.6592211125      -61.4222312789  TIP3      13885           0.0000000000
     93171     15246  TIP3      OH2            27.7776134072      -11.6622618504      -55.4573500339  TIP3      13886           0.0000000000
     93172     15246  TIP3      H1             27.7250287485      -10.6839548354      -55.4540193223  TIP3      13886           0.0000000000
     93173     15246  TIP3      H2             27.0107539002      -11.9044988227      -56.0061463069  TIP3      13886           0.0000000000
     93174     15247  TIP3      OH2            26.6132487554      -12.4149517415      -51.9314678671  TIP3      13887           0.0000000000
     93175     15247  TIP3      H1             26.6074075220      -13.0638252639      -51.2167428750  TIP3      13887           0.0000000000
     93176     15247  TIP3      H2             26.2537018300      -12.9162957154      -52.6820228689  TIP3      13887           0.0000000000
     93177     15248  TIP3      OH2            19.0226072757      -12.7662902546      -50.4024828719  TIP3      13888           0.0000000000
     93178     15248  TIP3      H1             18.9823121010      -13.4022242137      -49.6625124767  TIP3      13888           0.0000000000
     93179     15248  TIP3      H2             19.6605880663      -12.0878360463      -50.1562056342  TIP3      13888           0.0000000000
     93180     15249  TIP3      OH2            30.2869838788       -9.4646027483      -53.6406863696  TIP3      13889           0.0000000000
     93181     15249  TIP3      H1             29.8757980873      -10.1801629342      -53.1459768343  TIP3      13889           0.0000000000
     93182     15249  TIP3      H2             30.3111468753       -8.7564044947      -52.9696374030  TIP3      13889           0.0000000000
     93183     15250  TIP3      OH2            19.8775582662       -8.2798640080      -51.8789369807  TIP3      13890           0.0000000000
     93184     15250  TIP3      H1             19.5617680468       -9.1432424138      -52.2055422690  TIP3      13890           0.0000000000
     93185     15250  TIP3      H2             20.8337444125       -8.4611143107      -51.8308980685  TIP3      13890           0.0000000000
     93186     15251  TIP3      OH2            16.5500579584      -14.7218665107      -56.4542498818  TIP3      13891           0.0000000000
     93187     15251  TIP3      H1             16.0689700378      -13.8684610845      -56.4262204731  TIP3      13891           0.0000000000
     93188     15251  TIP3      H2             15.9327822833      -15.2764084525      -56.9530685918  TIP3      13891           0.0000000000
     93189     15252  TIP3      OH2            17.2148563597      -12.5050304676      -54.2301569828  TIP3      13892           0.0000000000
     93190     15252  TIP3      H1             17.4933742414      -13.3252056936      -53.7848182946  TIP3      13892           0.0000000000
     93191     15252  TIP3      H2             17.9198300186      -12.3950093237      -54.8825021808  TIP3      13892           0.0000000000
     93192     15253  TIP3      OH2            27.4091542218       -4.3103005049      -53.4072860229  TIP3      13893           0.0000000000
     93193     15253  TIP3      H1             28.0551767290       -5.0024479740      -53.6914169072  TIP3      13893           0.0000000000
     93194     15253  TIP3      H2             27.1962553571       -4.6374292656      -52.5336257531  TIP3      13893           0.0000000000
     93195     15254  TIP3      OH2            24.9522431074      -10.0481946932      -51.4389996934  TIP3      13894           0.0000000000
     93196     15254  TIP3      H1             25.3215958006      -10.6337640855      -52.1187233988  TIP3      13894           0.0000000000
     93197     15254  TIP3      H2             25.7651048892       -9.8625615632      -50.9284104148  TIP3      13894           0.0000000000
     93198     15255  TIP3      OH2            33.5416616049      -18.2811666602      -50.7956102047  TIP3      13895           0.0000000000
     93199     15255  TIP3      H1             33.7296911584      -17.8226068303      -49.9334950604  TIP3      13895           0.0000000000
     93200     15255  TIP3      H2             34.2893413338      -17.9298460194      -51.2915278425  TIP3      13895           0.0000000000
     93201     15256  TIP3      OH2            28.1645261452      -15.5516252443      -51.1354291238  TIP3      13896           0.0000000000
     93202     15256  TIP3      H1             28.2909471809      -16.5135168628      -51.1347720729  TIP3      13896           0.0000000000
     93203     15256  TIP3      H2             28.0184119722      -15.4000120157      -52.0903926775  TIP3      13896           0.0000000000
     93204     15257  TIP3      OH2            21.2491517248      -17.4502440134      -53.9272350763  TIP3      13897           0.0000000000
     93205     15257  TIP3      H1             21.3628153627      -16.6188877824      -54.4161245690  TIP3      13897           0.0000000000
     93206     15257  TIP3      H2             20.8587494161      -18.0315995942      -54.6149342157  TIP3      13897           0.0000000000
     93207     15258  TIP3      OH2            28.9966142573      -17.3704402379      -55.5505249133  TIP3      13898           0.0000000000
     93208     15258  TIP3      H1             29.6462805846      -17.6936377457      -54.8975304456  TIP3      13898           0.0000000000
     93209     15258  TIP3      H2             29.5405126315      -16.7940625407      -56.1128447286  TIP3      13898           0.0000000000
     93210     15259  TIP3      OH2            17.9057463713      -15.0271532303      -53.1761887290  TIP3      13899           0.0000000000
     93211     15259  TIP3      H1             18.5470611045      -15.6156615388      -52.7411137555  TIP3      13899           0.0000000000
     93212     15259  TIP3      H2             17.9854699687      -15.3438938325      -54.0910814488  TIP3      13899           0.0000000000
     93213     15260  TIP3      OH2            23.0210738823      -13.4967229776      -53.8418166957  TIP3      13900           0.0000000000
     93214     15260  TIP3      H1             23.7256347248      -14.0707546524      -53.4903784889  TIP3      13900           0.0000000000
     93215     15260  TIP3      H2             22.5352705054      -14.1468630094      -54.3879476432  TIP3      13900           0.0000000000
     93216     15261  TIP3      OH2            34.0321892426      -16.9060705974      -48.4922861473  TIP3      13901           0.0000000000
     93217     15261  TIP3      H1             33.3727451104      -16.1845983189      -48.5665854319  TIP3      13901           0.0000000000
     93218     15261  TIP3      H2             34.0402038982      -17.0625696310      -47.5325147485  TIP3      13901           0.0000000000
     93219     15262  TIP3      OH2            20.1837532199      -18.5463555087      -49.9090020321  TIP3      13902           0.0000000000
     93220     15262  TIP3      H1             19.8620324502      -17.9953197708      -50.6446247719  TIP3      13902           0.0000000000
     93221     15262  TIP3      H2             19.4943067310      -18.3600858074      -49.2271658468  TIP3      13902           0.0000000000
     93222     15263  TIP3      OH2            27.4836019128       -9.0727860004      -56.3556570478  TIP3      13903           0.0000000000
     93223     15263  TIP3      H1             27.1370586127       -9.3550964479      -57.2071644003  TIP3      13903           0.0000000000
     93224     15263  TIP3      H2             27.1541884051       -8.1484536380      -56.2892414205  TIP3      13903           0.0000000000
     93225     15264  TIP3      OH2            22.6317718402      -10.9341079254      -49.6314817883  TIP3      13904           0.0000000000
     93226     15264  TIP3      H1             21.9721436989      -10.2441428762      -49.4100094514  TIP3      13904           0.0000000000
     93227     15264  TIP3      H2             23.3654320093      -10.3478479183      -49.9204926267  TIP3      13904           0.0000000000
     93228     15265  TIP3      OH2            30.8360423512      -18.0794863717      -53.5719648206  TIP3      13905           0.0000000000
     93229     15265  TIP3      H1             30.4744668276      -18.8035409065      -53.0376120267  TIP3      13905           0.0000000000
     93230     15265  TIP3      H2             31.1707625530      -17.4883422582      -52.8964772300  TIP3      13905           0.0000000000
     93231     15266  TIP3      OH2            19.7343011918      -16.6947337682      -51.8507646041  TIP3      13906           0.0000000000
     93232     15266  TIP3      H1             20.3710706382      -16.0183131617      -51.5647463919  TIP3      13906           0.0000000000
     93233     15266  TIP3      H2             20.2401888681      -17.1235648384      -52.5908135664  TIP3      13906           0.0000000000
     93234     15267  TIP3      OH2            21.1149717887       -8.9179668140      -48.8243308514  TIP3      13907           0.0000000000
     93235     15267  TIP3      H1             21.0846964539       -7.9934147819      -49.1524652771  TIP3      13907           0.0000000000
     93236     15267  TIP3      H2             20.2293420867       -8.9567143282      -48.3915863501  TIP3      13907           0.0000000000
     93237     15268  TIP3      OH2            17.2147501278       -9.3091726146      -58.0682948522  TIP3      13908           0.0000000000
     93238     15268  TIP3      H1             16.9492256459       -8.9493306598      -58.9367436640  TIP3      13908           0.0000000000
     93239     15268  TIP3      H2             17.2596910245       -8.4831059637      -57.5326555672  TIP3      13908           0.0000000000
     93240     15269  TIP3      OH2            30.8163913688       -7.6322023241      -51.2932715649  TIP3      13909           0.0000000000
     93241     15269  TIP3      H1             29.8523526631       -7.5200782229      -51.1471823932  TIP3      13909           0.0000000000
     93242     15269  TIP3      H2             31.0897165655       -6.7095419597      -51.4612916501  TIP3      13909           0.0000000000
     93243     15270  TIP3      OH2            31.1071165390      -19.3216732666      -49.8633372418  TIP3      13910           0.0000000000
     93244     15270  TIP3      H1             30.3727174201      -18.6996432650      -49.9563676625  TIP3      13910           0.0000000000
     93245     15270  TIP3      H2             31.8354377981      -18.9144919548      -50.3591941614  TIP3      13910           0.0000000000
     93246     15271  TIP3      OH2            24.1068683610      -21.2237224687      -52.4366426457  TIP3      13911           0.0000000000
     93247     15271  TIP3      H1             23.9719763370      -22.1888190732      -52.4835523014  TIP3      13911           0.0000000000
     93248     15271  TIP3      H2             23.2353659956      -20.9193677133      -52.1083650807  TIP3      13911           0.0000000000
     93249     15272  TIP3      OH2            29.0770111246       -5.8521986872      -54.6905354225  TIP3      13912           0.0000000000
     93250     15272  TIP3      H1             29.5098236246       -6.5661360944      -55.1967925755  TIP3      13912           0.0000000000
     93251     15272  TIP3      H2             29.5031638240       -5.0568422881      -55.0747265787  TIP3      13912           0.0000000000
     93252     15273  TIP3      OH2            30.3198942581       -7.9329434193      -56.1858705589  TIP3      13913           0.0000000000
     93253     15273  TIP3      H1             29.9623918037       -8.6102407764      -56.7713577217  TIP3      13913           0.0000000000
     93254     15273  TIP3      H2             30.3118714342       -8.3977861015      -55.3256639084  TIP3      13913           0.0000000000
     93255     15274  TIP3      OH2            31.9294545264       -9.3335925717      -47.6770578950  TIP3      13914           0.0000000000
     93256     15274  TIP3      H1             32.0368396008       -9.9610053729      -48.4225737088  TIP3      13914           0.0000000000
     93257     15274  TIP3      H2             32.1075873911       -8.4754450333      -48.0972896291  TIP3      13914           0.0000000000
     93258     15275  TIP3      OH2            26.4133610457      -12.4197540277      -57.9256137701  TIP3      13915           0.0000000000
     93259     15275  TIP3      H1             25.6966883557      -11.8552890290      -58.2835017333  TIP3      13915           0.0000000000
     93260     15275  TIP3      H2             27.0926497434      -12.3395586267      -58.6043143215  TIP3      13915           0.0000000000
     93261     15276  TIP3      OH2            26.4801620475      -13.8852102214      -60.8444663965  TIP3      13916           0.0000000000
     93262     15276  TIP3      H1             27.1847664844      -13.9230914713      -60.1873416375  TIP3      13916           0.0000000000
     93263     15276  TIP3      H2             26.7588197274      -14.5565415143      -61.4769132065  TIP3      13916           0.0000000000
     93264     15277  TIP3      OH2            33.7870922019      -13.0597548594      -49.6550504548  TIP3      13917           0.0000000000
     93265     15277  TIP3      H1             33.1467656284      -12.3171703511      -49.5655445409  TIP3      13917           0.0000000000
     93266     15277  TIP3      H2             34.2830747233      -12.7598756581      -50.4410444317  TIP3      13917           0.0000000000
     93267     15278  TIP3      OH2            29.8601841483      -12.2235937751      -57.0189853560  TIP3      13918           0.0000000000
     93268     15278  TIP3      H1             29.1211111865      -11.9771506224      -56.3947159897  TIP3      13918           0.0000000000
     93269     15278  TIP3      H2             30.3128391040      -12.8800069789      -56.4496417946  TIP3      13918           0.0000000000
     93270     15279  TIP3      OH2            29.7413836009      -14.0650132520      -47.8848342337  TIP3      13919           0.0000000000
     93271     15279  TIP3      H1             29.7741820837      -13.2634384086      -47.3511675379  TIP3      13919           0.0000000000
     93272     15279  TIP3      H2             29.1333705156      -13.7530913920      -48.5837219186  TIP3      13919           0.0000000000
     93273     15280  TIP3      OH2            21.4624889106      -11.5652734369      -55.0802342043  TIP3      13920           0.0000000000
     93274     15280  TIP3      H1             21.1442840587      -11.9609734100      -55.9112064438  TIP3      13920           0.0000000000
     93275     15280  TIP3      H2             22.0856120328      -12.2461077607      -54.7360885197  TIP3      13920           0.0000000000
     93276     15281  TIP3      OH2            22.7793486999       -8.1716565176      -52.3901436762  TIP3      13921           0.0000000000
     93277     15281  TIP3      H1             22.7655888741       -8.7042448854      -53.1941513701  TIP3      13921           0.0000000000
     93278     15281  TIP3      H2             23.5617875164       -8.5351607611      -51.9345401085  TIP3      13921           0.0000000000
     93279     15282  TIP3      OH2            21.8263857035      -12.8479974030      -51.3318760798  TIP3      13922           0.0000000000
     93280     15282  TIP3      H1             22.3078385840      -12.7350460031      -52.1929939939  TIP3      13922           0.0000000000
     93281     15282  TIP3      H2             22.2073473202      -12.0849231571      -50.8377092530  TIP3      13922           0.0000000000
     93282     15283  TIP3      OH2            28.1915028875       -7.2423009712      -50.7057107497  TIP3      13923           0.0000000000
     93283     15283  TIP3      H1             27.9056117959       -6.5996561080      -50.0520801976  TIP3      13923           0.0000000000
     93284     15283  TIP3      H2             27.9625173528       -8.1007051691      -50.2767168837  TIP3      13923           0.0000000000
     93285     15284  TIP3      OH2            22.7020004662       -8.4389022950      -46.6591457848  TIP3      13924           0.0000000000
     93286     15284  TIP3      H1             22.3767835079       -7.6159430984      -46.2493018857  TIP3      13924           0.0000000000
     93287     15284  TIP3      H2             22.0789094005       -8.5678438750      -47.4045758461  TIP3      13924           0.0000000000
     93288     15285  TIP3      OH2            28.7666145316      -13.0597256947      -59.3330794953  TIP3      13925           0.0000000000
     93289     15285  TIP3      H1             29.2354514670      -12.8509890294      -58.4809093768  TIP3      13925           0.0000000000
     93290     15285  TIP3      H2             29.0409490111      -12.4724133336      -60.0247842561  TIP3      13925           0.0000000000
     93291     15286  TIP3      OH2            19.6929192403      -12.2205071850      -47.5895117141  TIP3      13926           0.0000000000
     93292     15286  TIP3      H1             19.7373513981      -11.6124035973      -46.8324431775  TIP3      13926           0.0000000000
     93293     15286  TIP3      H2             18.7427546545      -12.1358055348      -47.7917305627  TIP3      13926           0.0000000000
     93294     15287  TIP3      OH2            26.4356450339       -6.3009153522      -55.8518345706  TIP3      13927           0.0000000000
     93295     15287  TIP3      H1             26.8707205032       -5.9911821223      -55.0487937544  TIP3      13927           0.0000000000
     93296     15287  TIP3      H2             25.8726171349       -5.5543217616      -56.0905738360  TIP3      13927           0.0000000000
     93297     15288  TIP3      OH2            20.9345867697       -6.3656738561      -45.9724404812  TIP3      13928           0.0000000000
     93298     15288  TIP3      H1             20.9421700884       -6.4287408047      -46.9445341317  TIP3      13928           0.0000000000
     93299     15288  TIP3      H2             19.9955840230       -6.4461360459      -45.7475383900  TIP3      13928           0.0000000000
     93300     15289  TIP3      OH2            32.4363659161      -21.3137294957      -59.3931533095  TIP3      13929           0.0000000000
     93301     15289  TIP3      H1             31.4758691608      -21.1797501308      -59.2096731735  TIP3      13929           0.0000000000
     93302     15289  TIP3      H2             32.6617548981      -20.4708282692      -59.8277968669  TIP3      13929           0.0000000000
     93303     15290  TIP3      OH2            20.4655397761      -12.5646349189      -57.5577069886  TIP3      13930           0.0000000000
     93304     15290  TIP3      H1             20.1274901872      -11.6948514030      -57.8729346675  TIP3      13930           0.0000000000
     93305     15290  TIP3      H2             19.6969153395      -13.1494283207      -57.5038595161  TIP3      13930           0.0000000000
     93306     15291  TIP3      OH2            33.5431177891       -6.9756617304      -61.0281006449  TIP3      13931           0.0000000000
     93307     15291  TIP3      H1             33.6688630593       -6.0083293888      -60.9299943906  TIP3      13931           0.0000000000
     93308     15291  TIP3      H2             34.4778914533       -7.2304670190      -61.1331437856  TIP3      13931           0.0000000000
     93309     15292  TIP3      OH2            16.5827010502      -10.1100354488      -48.6335939709  TIP3      13932           0.0000000000
     93310     15292  TIP3      H1             16.0791857417      -10.1848314827      -49.4695759503  TIP3      13932           0.0000000000
     93311     15292  TIP3      H2             16.5665505702      -11.0467060228      -48.3571609645  TIP3      13932           0.0000000000
     93312     15293  TIP3      OH2            16.2868148340       -7.3742430870      -51.7753276907  TIP3      13933           0.0000000000
     93313     15293  TIP3      H1             17.2389810581       -7.5238822093      -51.7931446180  TIP3      13933           0.0000000000
     93314     15293  TIP3      H2             16.1971913596       -6.5699089887      -51.2561001518  TIP3      13933           0.0000000000
     93315     15294  TIP3      OH2            34.5912806126       -6.6662456831      -46.6358754382  TIP3      13934           0.0000000000
     93316     15294  TIP3      H1             34.5713080553       -7.5851023741      -46.3060862400  TIP3      13934           0.0000000000
     93317     15294  TIP3      H2             33.8978652858       -6.3638211032      -46.0157452864  TIP3      13934           0.0000000000
     93318     15295  TIP3      OH2            25.4762343137       -7.1403358656      -47.2393126344  TIP3      13935           0.0000000000
     93319     15295  TIP3      H1             25.5455998571       -6.2954290312      -46.7321143458  TIP3      13935           0.0000000000
     93320     15295  TIP3      H2             24.5973464499       -7.4792078618      -46.9974238390  TIP3      13935           0.0000000000
     93321     15296  TIP3      OH2            25.9098855077       -3.3935850791      -57.4539491455  TIP3      13936           0.0000000000
     93322     15296  TIP3      H1             25.8226978792       -3.4588320322      -58.4165788944  TIP3      13936           0.0000000000
     93323     15296  TIP3      H2             25.9374105161       -2.4324656996      -57.2751072557  TIP3      13936           0.0000000000
     93324     15297  TIP3      OH2            19.5423870201       -4.4930726826      -55.6021459767  TIP3      13937           0.0000000000
     93325     15297  TIP3      H1             19.7063162914       -4.9434799599      -54.7458337602  TIP3      13937           0.0000000000
     93326     15297  TIP3      H2             18.7147322849       -4.9273386358      -55.8725807375  TIP3      13937           0.0000000000
     93327     15298  TIP3      OH2            28.9319633464       -4.1862579955      -60.4751756320  TIP3      13938           0.0000000000
     93328     15298  TIP3      H1             29.4129262180       -4.9376045284      -60.8908493218  TIP3      13938           0.0000000000
     93329     15298  TIP3      H2             29.0182281049       -4.4269643381      -59.5310602748  TIP3      13938           0.0000000000
     93330     15299  TIP3      OH2            28.6568965580       -4.2381351657      -57.6783545383  TIP3      13939           0.0000000000
     93331     15299  TIP3      H1             27.7017797552       -4.1733488456      -57.4843613213  TIP3      13939           0.0000000000
     93332     15299  TIP3      H2             28.9126586654       -4.9721959157      -57.1009777639  TIP3      13939           0.0000000000
     93333     15300  TIP3      OH2            18.8180833971       -8.8454476972      -47.6106404047  TIP3      13940           0.0000000000
     93334     15300  TIP3      H1             18.9547999212       -9.1414900866      -46.7122402267  TIP3      13940           0.0000000000
     93335     15300  TIP3      H2             17.9181285603       -9.1581851618      -47.8589090667  TIP3      13940           0.0000000000
     93336     15301  TIP3      OH2            21.4811650764      -20.3141983280      -51.6950677216  TIP3      13941           0.0000000000
     93337     15301  TIP3      H1             20.5719777392      -20.4426750924      -52.0415126583  TIP3      13941           0.0000000000
     93338     15301  TIP3      H2             21.3613629697      -19.4910453791      -51.1946389326  TIP3      13941           0.0000000000
     93339     15302  TIP3      OH2            26.1060631695      -20.5973959931      -48.2811275234  TIP3      13942           0.0000000000
     93340     15302  TIP3      H1             26.5081972552      -21.0533139743      -47.5196727991  TIP3      13942           0.0000000000
     93341     15302  TIP3      H2             25.1418570185      -20.7953216429      -48.1550074155  TIP3      13942           0.0000000000
     93342     15303  TIP3      OH2            29.2707881841      -16.8265340838      -47.4881119068  TIP3      13943           0.0000000000
     93343     15303  TIP3      H1             28.9504537336      -16.9968527823      -46.5826378094  TIP3      13943           0.0000000000
     93344     15303  TIP3      H2             29.2839356829      -15.8598986994      -47.6012203911  TIP3      13943           0.0000000000
     93345     15304  TIP3      OH2            25.7314840680      -18.0578024763      -60.9694308470  TIP3      13944           0.0000000000
     93346     15304  TIP3      H1             25.4697562288      -18.1318951375      -60.0317846858  TIP3      13944           0.0000000000
     93347     15304  TIP3      H2             25.5049837054      -18.9507765873      -61.2522198791  TIP3      13944           0.0000000000
     93348     15305  TIP3      OH2            21.5950206729      -15.3344252978      -50.3939174765  TIP3      13945           0.0000000000
     93349     15305  TIP3      H1             20.7783457969      -15.4780635293      -49.8661799798  TIP3      13945           0.0000000000
     93350     15305  TIP3      H2             21.5046515796      -14.5005113316      -50.9187522618  TIP3      13945           0.0000000000
     93351     15306  TIP3      OH2            21.5328955450      -15.1834200559      -55.5860033398  TIP3      13946           0.0000000000
     93352     15306  TIP3      H1             20.6083078059      -15.5027285266      -55.6735192209  TIP3      13946           0.0000000000
     93353     15306  TIP3      H2             21.9425633264      -15.5560437242      -56.3917319285  TIP3      13946           0.0000000000
     93354     15307  TIP3      OH2            27.0339981682      -14.7376383436      -56.7851424900  TIP3      13947           0.0000000000
     93355     15307  TIP3      H1             26.6435682179      -13.9018454723      -57.1181932892  TIP3      13947           0.0000000000
     93356     15307  TIP3      H2             27.7269388277      -14.9121456532      -57.4437014595  TIP3      13947           0.0000000000
     93357     15308  TIP3      OH2            28.1346317126      -15.2500303540      -53.9358496337  TIP3      13948           0.0000000000
     93358     15308  TIP3      H1             27.8299771038      -14.6814791905      -54.6667165601  TIP3      13948           0.0000000000
     93359     15308  TIP3      H2             28.1825560060      -16.0951704927      -54.4195466268  TIP3      13948           0.0000000000
     93360     15309  TIP3      OH2            19.2826642623      -15.0505147665      -48.6872906723  TIP3      13949           0.0000000000
     93361     15309  TIP3      H1             19.2323050742      -14.7281540855      -47.7677631287  TIP3      13949           0.0000000000
     93362     15309  TIP3      H2             18.8104029671      -15.9064887273      -48.5649852464  TIP3      13949           0.0000000000
     93363     15310  TIP3      OH2            15.8679079958      -17.9808386277      -54.7551323629  TIP3      13950           0.0000000000
     93364     15310  TIP3      H1             16.5463564817      -18.0237295938      -54.0516554061  TIP3      13950           0.0000000000
     93365     15310  TIP3      H2             16.3166321866      -18.3645049256      -55.5320305711  TIP3      13950           0.0000000000
     93366     15311  TIP3      OH2            17.1724046968      -17.2224860231      -59.3498211204  TIP3      13951           0.0000000000
     93367     15311  TIP3      H1             17.5885362457      -16.6694932687      -60.0213660764  TIP3      13951           0.0000000000
     93368     15311  TIP3      H2             16.4374523834      -16.6373286740      -59.0651812812  TIP3      13951           0.0000000000
     93369     15312  TIP3      OH2            27.3201748307      -13.6585099732      -49.3372532801  TIP3      13952           0.0000000000
     93370     15312  TIP3      H1             27.6766634576      -14.3187048672      -49.9661130250  TIP3      13952           0.0000000000
     93371     15312  TIP3      H2             26.8475354870      -14.2175557821      -48.6982345567  TIP3      13952           0.0000000000
     93372     15313  TIP3      OH2            24.1009268266      -17.6780875780      -54.5396985777  TIP3      13953           0.0000000000
     93373     15313  TIP3      H1             23.1673358325      -17.6752429498      -54.2515410026  TIP3      13953           0.0000000000
     93374     15313  TIP3      H2             24.5860416514      -17.8399158580      -53.7188317977  TIP3      13953           0.0000000000
     93375     15314  TIP3      OH2            18.9350979046      -16.1014914957      -55.7349226088  TIP3      13954           0.0000000000
     93376     15314  TIP3      H1             18.0137881186      -15.9922961366      -56.0556131287  TIP3      13954           0.0000000000
     93377     15314  TIP3      H2             19.1883185946      -16.9865214561      -56.0595763996  TIP3      13954           0.0000000000
     93378     15315  TIP3      OH2            22.5351948784      -16.0331570289      -58.0463880796  TIP3      13955           0.0000000000
     93379     15315  TIP3      H1             23.5004286738      -15.9864940714      -57.8682019065  TIP3      13955           0.0000000000
     93380     15315  TIP3      H2             22.3562973796      -15.4054369306      -58.7528078975  TIP3      13955           0.0000000000
     93381     15316  TIP3      OH2            28.5189363186      -18.4512169656      -51.2989543688  TIP3      13956           0.0000000000
     93382     15316  TIP3      H1             27.8244370787      -18.3879155743      -50.6027508744  TIP3      13956           0.0000000000
     93383     15316  TIP3      H2             27.9904263797      -18.6956587886      -52.0749205241  TIP3      13956           0.0000000000
     93384     15317  TIP3      OH2            21.2353165971      -14.8818918355      -60.4860604719  TIP3      13957           0.0000000000
     93385     15317  TIP3      H1             20.7426573805      -15.3256341192      -61.2020607796  TIP3      13957           0.0000000000
     93386     15317  TIP3      H2             22.0939135478      -14.7246819946      -60.9349306187  TIP3      13957           0.0000000000
     93387     15318  TIP3      OH2            25.3729224981      -14.9189377397      -52.6414219424  TIP3      13958           0.0000000000
     93388     15318  TIP3      H1             25.9701025631      -15.4460639576      -53.1869661975  TIP3      13958           0.0000000000
     93389     15318  TIP3      H2             25.2543442820      -15.4823931614      -51.8683038537  TIP3      13958           0.0000000000
     93390     15319  TIP3      OH2            20.3991072439      -18.7870438691      -56.2009703019  TIP3      13959           0.0000000000
     93391     15319  TIP3      H1             20.0937370331      -19.7109834307      -56.2473736793  TIP3      13959           0.0000000000
     93392     15319  TIP3      H2             21.1778608178      -18.8348584299      -56.7708965315  TIP3      13959           0.0000000000
     93393     15320  TIP3      OH2            24.0355184123      -16.5868335042      -50.2577135557  TIP3      13960           0.0000000000
     93394     15320  TIP3      H1             23.2045374890      -16.0948967576      -50.1674494548  TIP3      13960           0.0000000000
     93395     15320  TIP3      H2             24.5946970636      -16.2671646871      -49.5209937791  TIP3      13960           0.0000000000
     93396     15321  TIP3      OH2            24.6156174395      -10.4110939713      -58.5090521695  TIP3      13961           0.0000000000
     93397     15321  TIP3      H1             23.8093675952      -10.8287536583      -58.8615439078  TIP3      13961           0.0000000000
     93398     15321  TIP3      H2             24.3965364338      -10.2507263923      -57.5707353343  TIP3      13961           0.0000000000
     93399     15322  TIP3      OH2            31.8077594547      -11.2042296685      -49.7331316890  TIP3      13962           0.0000000000
     93400     15322  TIP3      H1             32.3600900046      -10.6944458325      -50.3540118957  TIP3      13962           0.0000000000
     93401     15322  TIP3      H2             30.9418465919      -11.1279214733      -50.1903284495  TIP3      13962           0.0000000000
     93402     15323  TIP3      OH2            28.4647010267      -17.5771244395      -60.3613165767  TIP3      13963           0.0000000000
     93403     15323  TIP3      H1             27.5248644316      -17.4131066623      -60.5299395417  TIP3      13963           0.0000000000
     93404     15323  TIP3      H2             28.7727255369      -16.7090687146      -60.0483134372  TIP3      13963           0.0000000000
     93405     15324  TIP3      OH2            26.1061277969      -10.0936767892      -47.3511132149  TIP3      13964           0.0000000000
     93406     15324  TIP3      H1             25.7698169751      -10.5250734909      -46.5601893460  TIP3      13964           0.0000000000
     93407     15324  TIP3      H2             25.8450767295       -9.1743085091      -47.2265254310  TIP3      13964           0.0000000000
     93408     15325  TIP3      OH2            29.1918146206      -15.6376545988      -58.6929023864  TIP3      13965           0.0000000000
     93409     15325  TIP3      H1             30.0874466058      -15.7906634429      -58.3286788608  TIP3      13965           0.0000000000
     93410     15325  TIP3      H2             29.2597812946      -14.8437074506      -59.2312790446  TIP3      13965           0.0000000000
     93411     15326  TIP3      OH2            19.7326598447      -10.9702667090      -52.7377135147  TIP3      13966           0.0000000000
     93412     15326  TIP3      H1             20.3975075445      -11.0419787040      -53.4525093948  TIP3      13966           0.0000000000
     93413     15326  TIP3      H2             19.7595625269      -11.8448602197      -52.3283743240  TIP3      13966           0.0000000000
     93414     15327  TIP3      OH2            26.7334572517       -8.9092655151      -59.4390499243  TIP3      13967           0.0000000000
     93415     15327  TIP3      H1             26.3365796736       -8.0554541984      -59.1567195959  TIP3      13967           0.0000000000
     93416     15327  TIP3      H2             25.9682124294       -9.5131898450      -59.3095616938  TIP3      13967           0.0000000000
     93417     15328  TIP3      OH2            16.7272509526      -12.5714041405      -47.5015525295  TIP3      13968           0.0000000000
     93418     15328  TIP3      H1             16.9089041249      -12.9980834807      -46.6457980331  TIP3      13968           0.0000000000
     93419     15328  TIP3      H2             16.0911527937      -13.1747664366      -47.9279383337  TIP3      13968           0.0000000000
     93420     15329  TIP3      OH2            28.3723339981       -7.6747463952      -47.3557358849  TIP3      13969           0.0000000000
     93421     15329  TIP3      H1             27.4553243341       -7.4758361825      -47.5982124695  TIP3      13969           0.0000000000
     93422     15329  TIP3      H2             28.3858055109       -7.4497804278      -46.4214927112  TIP3      13969           0.0000000000
     93423     15330  TIP3      OH2            34.0195549157      -15.4834706520      -58.9388767292  TIP3      13970           0.0000000000
     93424     15330  TIP3      H1             33.5627418578      -15.8536457095      -59.7064196654  TIP3      13970           0.0000000000
     93425     15330  TIP3      H2             34.1883437861      -14.5693728740      -59.2485289235  TIP3      13970           0.0000000000
     93426     15331  TIP3      OH2            34.0314376561       -9.7579238800      -46.1949213575  TIP3      13971           0.0000000000
     93427     15331  TIP3      H1             33.1758204832       -9.3901261714      -46.5373904024  TIP3      13971           0.0000000000
     93428     15331  TIP3      H2             34.5851560571       -9.6677551595      -46.9860760339  TIP3      13971           0.0000000000
     93429     15332  TIP3      OH2            32.3692565601       -6.6726385668      -58.5710790607  TIP3      13972           0.0000000000
     93430     15332  TIP3      H1             32.0053609514       -7.4825528847      -58.2120252087  TIP3      13972           0.0000000000
     93431     15332  TIP3      H2             32.6797036979       -6.8609160105      -59.4790883817  TIP3      13972           0.0000000000
     93432     15333  TIP3      OH2            29.5683815064      -11.8557585066      -51.4555287000  TIP3      13973           0.0000000000
     93433     15333  TIP3      H1             28.6279503014      -12.0690341620      -51.5735025142  TIP3      13973           0.0000000000
     93434     15333  TIP3      H2             30.0027254341      -12.6080388577      -51.8935109574  TIP3      13973           0.0000000000
     93435     15334  TIP3      OH2            22.0936882715       -7.5201785917      -55.3562726334  TIP3      13974           0.0000000000
     93436     15334  TIP3      H1             22.5946224622       -6.7170276378      -55.5661237005  TIP3      13974           0.0000000000
     93437     15334  TIP3      H2             21.2151763749       -7.2906775480      -55.6890434853  TIP3      13974           0.0000000000
     93438     15335  TIP3      OH2            17.8974887747      -12.6973086094      -60.7102286143  TIP3      13975           0.0000000000
     93439     15335  TIP3      H1             18.3900475098      -11.9205690220      -60.4336731251  TIP3      13975           0.0000000000
     93440     15335  TIP3      H2             16.9663091908      -12.4237194581      -60.5402196260  TIP3      13975           0.0000000000
     93441     15336  TIP3      OH2            23.5081915174       -9.8512705353      -55.8335341046  TIP3      13976           0.0000000000
     93442     15336  TIP3      H1             23.2032385220       -8.9274487842      -55.7651060980  TIP3      13976           0.0000000000
     93443     15336  TIP3      H2             22.7935039707      -10.3326272994      -55.3739548033  TIP3      13976           0.0000000000
     93444     15337  TIP3      OH2            23.9497210004       -5.6587461428      -49.4465230227  TIP3      13977           0.0000000000
     93445     15337  TIP3      H1             24.4147563908       -4.8532629146      -49.7089913041  TIP3      13977           0.0000000000
     93446     15337  TIP3      H2             24.5696794511       -6.0125685197      -48.7833391747  TIP3      13977           0.0000000000
     93447     15338  TIP3      OH2            22.1850353909       -4.8623224656      -56.3121991920  TIP3      13978           0.0000000000
     93448     15338  TIP3      H1             21.2230602954       -4.7236760124      -56.1724390302  TIP3      13978           0.0000000000
     93449     15338  TIP3      H2             22.5479573314       -4.0282859555      -55.9569390912  TIP3      13978           0.0000000000
     93450     15339  TIP3      OH2            27.4940008396       -9.6734063921      -49.8378492529  TIP3      13979           0.0000000000
     93451     15339  TIP3      H1             27.1603687133       -9.8565276315      -48.9369080953  TIP3      13979           0.0000000000
     93452     15339  TIP3      H2             28.1434524542      -10.3815045342      -49.9629341267  TIP3      13979           0.0000000000
     93453     15340  TIP3      OH2            29.7815475288       -8.7827962198      -60.7070533718  TIP3      13980           0.0000000000
     93454     15340  TIP3      H1             30.0343993445       -9.0047431496      -59.8003686822  TIP3      13980           0.0000000000
     93455     15340  TIP3      H2             28.8101491825       -8.7416422609      -60.6302249538  TIP3      13980           0.0000000000
     93456     15341  TIP3      OH2            30.2752806781       -5.0848407628      -47.3025325768  TIP3      13981           0.0000000000
     93457     15341  TIP3      H1             29.6161185585       -5.5977443792      -47.8037041262  TIP3      13981           0.0000000000
     93458     15341  TIP3      H2             30.4781193491       -4.3907833389      -47.9592402440  TIP3      13981           0.0000000000
     93459     15342  TIP3      OH2            34.2986341293       -4.2245326723      -60.4608028958  TIP3      13982           0.0000000000
     93460     15342  TIP3      H1             34.9896517115       -3.5852960131      -60.7098222562  TIP3      13982           0.0000000000
     93461     15342  TIP3      H2             33.5765759904       -3.6228084364      -60.1715506106  TIP3      13982           0.0000000000
     93462     15343  TIP3      OH2            18.3726556070      -17.7821364239      -47.9369580123  TIP3      13983           0.0000000000
     93463     15343  TIP3      H1             17.4462946595      -17.4978361237      -47.9748578132  TIP3      13983           0.0000000000
     93464     15343  TIP3      H2             18.2941510647      -18.6482277209      -47.4961513446  TIP3      13983           0.0000000000
     93465     15344  TIP3      OH2            30.6370444741      -10.0296462585      -58.4909245025  TIP3      13984           0.0000000000
     93466     15344  TIP3      H1             30.3292980506      -10.6921411246      -57.8276138374  TIP3      13984           0.0000000000
     93467     15344  TIP3      H2             31.5401085423       -9.8338325614      -58.1657529479  TIP3      13984           0.0000000000
     93468     15345  TIP3      OH2            18.0181791111       -6.0217442601      -49.5150823967  TIP3      13985           0.0000000000
     93469     15345  TIP3      H1             18.2586621038       -6.9669841216      -49.5090349105  TIP3      13985           0.0000000000
     93470     15345  TIP3      H2             18.2239367345       -5.7745634880      -48.6000834754  TIP3      13985           0.0000000000
     93471     15346  TIP3      OH2            22.6923008564       -7.9960773703      -59.7926328304  TIP3      13986           0.0000000000
     93472     15346  TIP3      H1             23.0072179648       -8.5158084858      -59.0479128799  TIP3      13986           0.0000000000
     93473     15346  TIP3      H2             22.8105735847       -7.0755579067      -59.4735609036  TIP3      13986           0.0000000000
     93474     15347  TIP3      OH2            19.2472530399      -10.7680416976      -59.3109422166  TIP3      13987           0.0000000000
     93475     15347  TIP3      H1             18.5643623758      -10.3363527435      -58.7387818019  TIP3      13987           0.0000000000
     93476     15347  TIP3      H2             19.7724252131       -9.9757420658      -59.5517950459  TIP3      13987           0.0000000000
     93477     15348  TIP3      OH2            27.0706993529      -18.0707763924      -48.9988343764  TIP3      13988           0.0000000000
     93478     15348  TIP3      H1             27.8014699107      -18.0321992982      -48.3657475560  TIP3      13988           0.0000000000
     93479     15348  TIP3      H2             26.6986100063      -18.9566448489      -48.8301207279  TIP3      13988           0.0000000000
     93480     15349  TIP3      OH2            27.8282726364      -18.4839133791      -57.8654946219  TIP3      13989           0.0000000000
     93481     15349  TIP3      H1             28.0716850495      -18.0310026385      -58.6988254857  TIP3      13989           0.0000000000
     93482     15349  TIP3      H2             28.4208456575      -18.0505110862      -57.2415190110  TIP3      13989           0.0000000000
     93483     15350  TIP3      OH2            25.5297753592       -6.3216902916      -59.0596665319  TIP3      13990           0.0000000000
     93484     15350  TIP3      H1             24.7045503119       -5.8108293865      -59.0112062235  TIP3      13990           0.0000000000
     93485     15350  TIP3      H2             26.0616709006       -5.8232231827      -59.6881874724  TIP3      13990           0.0000000000
     93486     15351  TIP3      OH2            25.0524405822      -16.7391119912      -57.0753568783  TIP3      13991           0.0000000000
     93487     15351  TIP3      H1             25.8446536151      -16.1664558871      -57.0352968354  TIP3      13991           0.0000000000
     93488     15351  TIP3      H2             24.7978677210      -16.8754971050      -56.1430361809  TIP3      13991           0.0000000000
     93489     15352  TIP3      OH2            25.6758678860      -15.6634635723      -47.9416160863  TIP3      13992           0.0000000000
     93490     15352  TIP3      H1             25.6989658592      -15.1767432420      -47.1150639989  TIP3      13992           0.0000000000
     93491     15352  TIP3      H2             26.2253321239      -16.4540671196      -47.8049922194  TIP3      13992           0.0000000000
     93492     15353  TIP3      OH2            25.9200994492      -19.6837708462      -56.1786774549  TIP3      13993           0.0000000000
     93493     15353  TIP3      H1             25.5970436202      -19.0333004034      -55.5291862702  TIP3      13993           0.0000000000
     93494     15353  TIP3      H2             26.6063347284      -19.1345984303      -56.6330351547  TIP3      13993           0.0000000000
     93495     15354  TIP3      OH2            22.8765635101       -5.2977308361      -59.0529210999  TIP3      13994           0.0000000000
     93496     15354  TIP3      H1             23.0684201991       -4.4744539019      -59.5502289119  TIP3      13994           0.0000000000
     93497     15354  TIP3      H2             22.6535767949       -4.9527866183      -58.1590318230  TIP3      13994           0.0000000000
     93498     15355  TIP3      OH2            21.6071965393      -18.5777209618      -59.4713247000  TIP3      13995           0.0000000000
     93499     15355  TIP3      H1             21.5256661825      -17.6852215241      -59.0957904235  TIP3      13995           0.0000000000
     93500     15355  TIP3      H2             22.4984320986      -18.8259833601      -59.1790527759  TIP3      13995           0.0000000000
     93501     15356  TIP3      OH2            31.8029844316      -17.7701759421      -46.9900680427  TIP3      13996           0.0000000000
     93502     15356  TIP3      H1             30.8638975411      -17.5500933425      -47.1531540406  TIP3      13996           0.0000000000
     93503     15356  TIP3      H2             32.1010757118      -17.8878928042      -47.8977218561  TIP3      13996           0.0000000000
     93504     15357  TIP3      OH2            30.4352836938      -14.0825332834      -53.0337886354  TIP3      13997           0.0000000000
     93505     15357  TIP3      H1             29.5800973338      -14.4896000681      -53.2865244417  TIP3      13997           0.0000000000
     93506     15357  TIP3      H2             30.8734340695      -14.7472158595      -52.4780486644  TIP3      13997           0.0000000000
     93507     15358  TIP3      OH2            19.8406652950       -8.1709292214      -60.3956362384  TIP3      13998           0.0000000000
     93508     15358  TIP3      H1             20.4579512825       -7.4832453271      -60.1077798241  TIP3      13998           0.0000000000
     93509     15358  TIP3      H2             20.3349893935       -8.5585602237      -61.1238613101  TIP3      13998           0.0000000000
     93510     15359  TIP3      OH2            31.4765559410       -4.7966662078      -51.3471380333  TIP3      13999           0.0000000000
     93511     15359  TIP3      H1             31.3841983147       -4.1199000665      -52.0430818095  TIP3      13999           0.0000000000
     93512     15359  TIP3      H2             32.4424082581       -4.7473070747      -51.1848986047  TIP3      13999           0.0000000000
     93513     15360  TIP3      OH2            18.9682484236      -20.6802012546      -52.5445744467  TIP3      14000           0.0000000000
     93514     15360  TIP3      H1             18.7740229889      -20.6620057126      -53.5093758898  TIP3      14000           0.0000000000
     93515     15360  TIP3      H2             18.5518211326      -21.5306371865      -52.2924840350  TIP3      14000           0.0000000000
     93516     15361  TIP3      OH2            17.9230466537       -6.7546042724      -56.3966888147  TIP3      14001           0.0000000000
     93517     15361  TIP3      H1             17.0678793735       -6.3067441856      -56.4381886928  TIP3      14001           0.0000000000
     93518     15361  TIP3      H2             18.3993866513       -6.2955199548      -57.1026251868  TIP3      14001           0.0000000000
     93519     15362  TIP3      OH2            30.5171641983       -5.9012553904      -61.8903653567  TIP3      14002           0.0000000000
     93520     15362  TIP3      H1             30.7822584153       -6.7099411637      -61.4283313755  TIP3      14002           0.0000000000
     93521     15362  TIP3      H2             31.2769379984       -5.7059832582      -62.4507592413  TIP3      14002           0.0000000000
     93522     15363  TIP3      OH2            29.4550449474      -10.4737206400      -47.5083278638  TIP3      14003           0.0000000000
     93523     15363  TIP3      H1             30.2449477959       -9.8962573864      -47.4374566279  TIP3      14003           0.0000000000
     93524     15363  TIP3      H2             28.7639587125       -9.8413500071      -47.2687528332  TIP3      14003           0.0000000000
     93525     15364  TIP3      OH2            22.5127533505      -11.9882262348      -59.7116976714  TIP3      14004           0.0000000000
     93526     15364  TIP3      H1             22.2348918654      -12.5114550918      -58.9634590837  TIP3      14004           0.0000000000
     93527     15364  TIP3      H2             22.9594201633      -12.6289152887      -60.3202457435  TIP3      14004           0.0000000000
     93528     15365  TIP3      OH2            21.8991978646      -14.2071205329      -47.1610436640  TIP3      14005           0.0000000000
     93529     15365  TIP3      H1             21.3344502668      -13.4661017062      -46.8824953349  TIP3      14005           0.0000000000
     93530     15365  TIP3      H2             22.5752031845      -13.8392048878      -47.7661483175  TIP3      14005           0.0000000000
     93531     15366  TIP3      OH2            23.6503028211      -13.7595670915      -61.4535222183  TIP3      14006           0.0000000000
     93532     15366  TIP3      H1             23.5767900127      -13.8962888420      -62.4101548607  TIP3      14006           0.0000000000
     93533     15366  TIP3      H2             24.6294982822      -13.6559719338      -61.3526079937  TIP3      14006           0.0000000000
     93534     15367  TIP3      OH2            22.1691064814      -16.7971052045      -46.3310789340  TIP3      14007           0.0000000000
     93535     15367  TIP3      H1             22.3634497188      -17.5091948636      -46.9616958160  TIP3      14007           0.0000000000
     93536     15367  TIP3      H2             22.2198217186      -15.9718583140      -46.8407621834  TIP3      14007           0.0000000000
     93537     15368  TIP3      OH2            22.6470907473      -18.3889846796      -48.7593950920  TIP3      14008           0.0000000000
     93538     15368  TIP3      H1             23.1850935058      -17.9575263728      -49.4574991708  TIP3      14008           0.0000000000
     93539     15368  TIP3      H2             21.7817929710      -18.5268145719      -49.2061483688  TIP3      14008           0.0000000000
     93540     15369  TIP3      OH2            24.1180666307      -12.9839130630      -48.6133226710  TIP3      14009           0.0000000000
     93541     15369  TIP3      H1             24.9715757412      -13.0922992477      -49.0710337673  TIP3      14009           0.0000000000
     93542     15369  TIP3      H2             23.9054109898      -12.0599491357      -48.8263897588  TIP3      14009           0.0000000000
     93543     15370  TIP3      OH2            23.4728344399      -20.9342804295      -48.3838459413  TIP3      14010           0.0000000000
     93544     15370  TIP3      H1             23.2646970175      -19.9815200536      -48.4647841431  TIP3      14010           0.0000000000
     93545     15370  TIP3      H2             22.7106794797      -21.3252788441      -48.8413083223  TIP3      14010           0.0000000000
     93546     15371  TIP3      OH2            23.5107101005       -3.0560964766      -60.4559703917  TIP3      14011           0.0000000000
     93547     15371  TIP3      H1             24.4762562112       -2.9512596243      -60.3252133859  TIP3      14011           0.0000000000
     93548     15371  TIP3      H2             23.3205439704       -2.3844854575      -61.1089817121  TIP3      14011           0.0000000000
     93549     15372  TIP3      OH2            17.0980751767       -8.4881394093      -60.9055143154  TIP3      14012           0.0000000000
     93550     15372  TIP3      H1             18.0545722707       -8.3578627238      -60.7199009042  TIP3      14012           0.0000000000
     93551     15372  TIP3      H2             17.0941427624       -9.0493957681      -61.6863928211  TIP3      14012           0.0000000000
     93552     15373  TIP3      OH2            15.8358204683       -3.0810271895      -55.9394759222  TIP3      14013           0.0000000000
     93553     15373  TIP3      H1             15.1248155469       -3.5610732832      -56.4192206354  TIP3      14013           0.0000000000
     93554     15373  TIP3      H2             16.1172992898       -3.7603249160      -55.3061564070  TIP3      14013           0.0000000000
     93555     15374  TIP3      OH2            16.6562722790       -4.9554672220      -54.0855269050  TIP3      14014           0.0000000000
     93556     15374  TIP3      H1             16.3003285595       -5.8396611578      -53.9064073736  TIP3      14014           0.0000000000
     93557     15374  TIP3      H2             16.8943147259       -4.6650904947      -53.1969173265  TIP3      14014           0.0000000000
     93558     15375  TIP3      OH2            34.1592308775       -4.1476919486      -51.1466217498  TIP3      14015           0.0000000000
     93559     15375  TIP3      H1             34.2263347976       -4.0045458210      -50.1937002614  TIP3      14015           0.0000000000
     93560     15375  TIP3      H2             34.8958162432       -3.6050205688      -51.4620230708  TIP3      14015           0.0000000000
     93561     15376  TIP3      OH2            33.8177711634       -4.6738356147      -48.3183922169  TIP3      14016           0.0000000000
     93562     15376  TIP3      H1             33.2737461287       -5.4255889294      -48.6657245360  TIP3      14016           0.0000000000
     93563     15376  TIP3      H2             34.3174580170       -5.2099483865      -47.6679239118  TIP3      14016           0.0000000000
     93564     15377  TIP3      OH2            33.5274504168      -10.5544668940      -58.1350150671  TIP3      14017           0.0000000000
     93565     15377  TIP3      H1             34.3677463099      -10.1029011912      -57.9063799732  TIP3      14017           0.0000000000
     93566     15377  TIP3      H2             33.5377967584      -11.2193899785      -57.4023652380  TIP3      14017           0.0000000000
     93567     15378  TIP3      OH2            33.8829805087      -12.4209980864      -56.2444380006  TIP3      14018           0.0000000000
     93568     15378  TIP3      H1             33.1499094529      -12.9292287565      -55.8295825145  TIP3      14018           0.0000000000
     93569     15378  TIP3      H2             34.4912674505      -12.3024989416      -55.4814738567  TIP3      14018           0.0000000000
     93570     15379  TIP3      OH2            33.6364361861       -9.7541248746      -51.2626443486  TIP3      14019           0.0000000000
     93571     15379  TIP3      H1             34.4685230146      -10.1210121473      -51.6138171460  TIP3      14019           0.0000000000
     93572     15379  TIP3      H2             33.7902174722       -8.7967381177      -51.4137323013  TIP3      14019           0.0000000000
     93573     15380  TIP3      OH2            32.1692944506       -6.8299172015      -48.9578080043  TIP3      14020           0.0000000000
     93574     15380  TIP3      H1             31.4745932035       -6.5077839662      -48.3655223445  TIP3      14020           0.0000000000
     93575     15380  TIP3      H2             31.6510457450       -7.2546158614      -49.6753996345  TIP3      14020           0.0000000000
     93576     15381  TIP3      OH2            34.0772576215      -12.6336409524      -59.8033633303  TIP3      14021           0.0000000000
     93577     15381  TIP3      H1             33.6893680143      -12.2440736988      -60.5815354005  TIP3      14021           0.0000000000
     93578     15381  TIP3      H2             34.1750116506      -11.8909383361      -59.1640361067  TIP3      14021           0.0000000000
     93579     15382  TIP3      OH2            31.7156320003      -13.9672219560      -55.6648524072  TIP3      14022           0.0000000000
     93580     15382  TIP3      H1             31.5462317978      -14.9179109223      -55.6868781337  TIP3      14022           0.0000000000
     93581     15382  TIP3      H2             31.3799528007      -13.7320400861      -54.7771436755  TIP3      14022           0.0000000000
     93582     15383  TIP3      OH2            16.7212670415      -11.9024370534      -51.5825055414  TIP3      14023           0.0000000000
     93583     15383  TIP3      H1             16.8858900520      -11.9581577618      -52.5526395896  TIP3      14023           0.0000000000
     93584     15383  TIP3      H2             17.6197574963      -12.0456499730      -51.2435074041  TIP3      14023           0.0000000000
     93585     15384  TIP3      OH2            32.6176173618      -12.0238171351      -45.9762530115  TIP3      14024           0.0000000000
     93586     15384  TIP3      H1             33.2008526824      -12.7457822596      -45.7793627355  TIP3      14024           0.0000000000
     93587     15384  TIP3      H2             33.1705048353      -11.2149116891      -46.0151649377  TIP3      14024           0.0000000000
     93588     15385  TIP3      OH2            31.7973907361      -17.9839256772      -62.2069363382  TIP3      14025           0.0000000000
     93589     15385  TIP3      H1             32.3921475698      -18.3642836232      -61.5341927102  TIP3      14025           0.0000000000
     93590     15385  TIP3      H2             30.9196628844      -18.3105201441      -61.9834287461  TIP3      14025           0.0000000000
     93591     15386  TIP3      OH2            31.4008359450      -16.3610150121      -57.1554612872  TIP3      14026           0.0000000000
     93592     15386  TIP3      H1             31.6707660890      -17.3045790009      -57.0943690332  TIP3      14026           0.0000000000
     93593     15386  TIP3      H2             32.1811397778      -15.9886921816      -57.5871337325  TIP3      14026           0.0000000000
     93594     15387  TIP3      OH2            32.0680135605      -15.9221274306      -51.7769679380  TIP3      14027           0.0000000000
     93595     15387  TIP3      H1             32.9763664914      -15.5234546583      -51.7270490368  TIP3      14027           0.0000000000
     93596     15387  TIP3      H2             31.8054869194      -15.6887137259      -50.8539768085  TIP3      14027           0.0000000000
     93597     15388  TIP3      OH2            32.0692913557      -15.0990925264      -49.0177261488  TIP3      14028           0.0000000000
     93598     15388  TIP3      H1             31.2123245112      -14.8174445800      -48.6146011904  TIP3      14028           0.0000000000
     93599     15388  TIP3      H2             32.5089774108      -14.2321051351      -49.1763805122  TIP3      14028           0.0000000000
     93600     15389  TIP3      OH2            32.0360031213      -19.0960677623      -57.1295331867  TIP3      14029           0.0000000000
     93601     15389  TIP3      H1             32.2503217533      -19.5596598100      -56.3042204092  TIP3      14029           0.0000000000
     93602     15389  TIP3      H2             31.4396972890      -19.7187965206      -57.6083625319  TIP3      14029           0.0000000000
     93603     15390  TIP3      OH2            17.5273993354      -18.2924884825      -52.5867327152  TIP3      14030           0.0000000000
     93604     15390  TIP3      H1             17.9921232196      -19.1160668659      -52.3274856546  TIP3      14030           0.0000000000
     93605     15390  TIP3      H2             18.0739053516      -17.6028218641      -52.1954175008  TIP3      14030           0.0000000000
     93606     15391  TIP3      OH2            15.8155825406      -15.2996999438      -51.5552094168  TIP3      14031           0.0000000000
     93607     15391  TIP3      H1             16.3828369918      -15.5351271367      -52.3131187821  TIP3      14031           0.0000000000
     93608     15391  TIP3      H2             16.2564902241      -14.4775832763      -51.2908911371  TIP3      14031           0.0000000000
     93609     15392  TIP3      OH2            33.8720889027      -19.0508142818      -60.5504160586  TIP3      14032           0.0000000000
     93610     15392  TIP3      H1             34.2896250325      -19.7465050707      -61.0870939285  TIP3      14032           0.0000000000
     93611     15392  TIP3      H2             34.5727871340      -18.3806809085      -60.5844405342  TIP3      14032           0.0000000000
     93612     15393  TIP3      OH2            16.1814068023      -19.0198841348      -57.4885360150  TIP3      14033           0.0000000000
     93613     15393  TIP3      H1             15.2349847824      -18.8488430062      -57.6045281814  TIP3      14033           0.0000000000
     93614     15393  TIP3      H2             16.5955448136      -18.5266537870      -58.2161658594  TIP3      14033           0.0000000000
     93615     15394  TIP3      OH2            30.9193592634       -4.0727914179      -55.5252626572  TIP3      14034           0.0000000000
     93616     15394  TIP3      H1             31.6034928434       -4.3819682147      -56.1459509232  TIP3      14034           0.0000000000
     93617     15394  TIP3      H2             31.4393534212       -3.5764996607      -54.8763034444  TIP3      14034           0.0000000000
     93618     15395  TIP3      OH2            16.1344101698      -20.3321316141      -49.1926040443  TIP3      14035           0.0000000000
     93619     15395  TIP3      H1             15.4730911802      -20.5591279312      -48.5013760084  TIP3      14035           0.0000000000
     93620     15395  TIP3      H2             15.6492709593      -19.6739452472      -49.7242958818  TIP3      14035           0.0000000000
     93621     15396  TIP3      OH2            21.2504367595       -6.1986847945      -48.7818826944  TIP3      14036           0.0000000000
     93622     15396  TIP3      H1             20.9294445485       -5.3158855072      -49.0075842691  TIP3      14036           0.0000000000
     93623     15396  TIP3      H2             22.1980880298       -6.0899093806      -49.0222423088  TIP3      14036           0.0000000000
     93624     15397  TIP3      OH2            25.6124397914       -4.8121437365      -45.7907567941  TIP3      14037           0.0000000000
     93625     15397  TIP3      H1             25.7882655126       -5.0704535669      -44.8774746793  TIP3      14037           0.0000000000
     93626     15397  TIP3      H2             26.4716118179       -4.4476647036      -46.0702225023  TIP3      14037           0.0000000000
     93627     15398  TIP3      OH2            27.8271917161       -3.4429650448      -46.5601966443  TIP3      14038           0.0000000000
     93628     15398  TIP3      H1             28.5536714537       -4.0302329050      -46.7970741597  TIP3      14038           0.0000000000
     93629     15398  TIP3      H2             28.2300590957       -3.0924547308      -45.7421615973  TIP3      14038           0.0000000000
     93630     15399  TIP3      OH2            32.9310491582      -20.8395172748      -47.5132037941  TIP3      14039           0.0000000000
     93631     15399  TIP3      H1             32.0353655317      -20.5986704157      -47.8029710889  TIP3      14039           0.0000000000
     93632     15399  TIP3      H2             33.0564060261      -21.7087948258      -47.9383943787  TIP3      14039           0.0000000000
     93633     15400  TIP3      OH2            18.6431012292       -2.9403867454      -48.7857163072  TIP3      14040           0.0000000000
     93634     15400  TIP3      H1             17.8823537902       -2.3834949901      -48.9541800949  TIP3      14040           0.0000000000
     93635     15400  TIP3      H2             18.4320100085       -3.1305273597      -47.8436674672  TIP3      14040           0.0000000000
     93636     15401  TIP3      OH2            21.1305197769       -3.3585824380      -49.6927958670  TIP3      14041           0.0000000000
     93637     15401  TIP3      H1             20.2911429294       -3.1790014873      -49.2257455961  TIP3      14041           0.0000000000
     93638     15401  TIP3      H2             21.1286169939       -2.7470770695      -50.4517892652  TIP3      14041           0.0000000000
     93639     15402  TIP3      OH2            25.8743820096       -3.4428468317      -50.5103958017  TIP3      14042           0.0000000000
     93640     15402  TIP3      H1             25.4141485463       -2.8765380361      -51.1478750044  TIP3      14042           0.0000000000
     93641     15402  TIP3      H2             25.9968826503       -2.8167465616      -49.7661415165  TIP3      14042           0.0000000000
     93642     15403  TIP3      OH2            28.1720152920       -4.6321180994      -49.5236722905  TIP3      14043           0.0000000000
     93643     15403  TIP3      H1             27.3002260997       -4.3526933480      -49.8431359454  TIP3      14043           0.0000000000
     93644     15403  TIP3      H2             28.6238840556       -3.7741862608      -49.5827728167  TIP3      14043           0.0000000000
     93645     15404  TIP3      OH2            30.7877048445       -3.0567725499      -49.2350088186  TIP3      14044           0.0000000000
     93646     15404  TIP3      H1             30.6618285965       -2.0960046290      -49.4760054968  TIP3      14044           0.0000000000
     93647     15404  TIP3      H2             30.9403521382       -3.4012416878      -50.1348259136  TIP3      14044           0.0000000000
     93648     15405  TIP3      OH2            18.1576625030       -4.3732643499      -51.7835704028  TIP3      14045           0.0000000000
     93649     15405  TIP3      H1             18.1147045780       -4.8945418174      -50.9408592054  TIP3      14045           0.0000000000
     93650     15405  TIP3      H2             18.9722586350       -4.7417056120      -52.2160311785  TIP3      14045           0.0000000000
     93651     15406  TIP3      OH2            20.2126462707       -5.5474521812      -53.1128663816  TIP3      14046           0.0000000000
     93652     15406  TIP3      H1             20.0626216979       -6.4973340322      -52.9278426635  TIP3      14046           0.0000000000
     93653     15406  TIP3      H2             21.1005059983       -5.4325378116      -52.7036919670  TIP3      14046           0.0000000000
     93654     15407  TIP3      OH2            22.7951932969       -5.0868712644      -52.2641566825  TIP3      14047           0.0000000000
     93655     15407  TIP3      H1             22.9865243292       -6.0011356883      -52.5382041034  TIP3      14047           0.0000000000
     93656     15407  TIP3      H2             22.8936870657       -5.1493913917      -51.3020707169  TIP3      14047           0.0000000000
     93657     15408  TIP3      OH2            26.2921323365      -19.4374757639      -53.1269614867  TIP3      14048           0.0000000000
     93658     15408  TIP3      H1             25.6097380296      -20.0761811898      -52.8566481118  TIP3      14048           0.0000000000
     93659     15408  TIP3      H2             26.8350238101      -19.9666747180      -53.7205018916  TIP3      14048           0.0000000000
     93660     15409  TIP3      OH2            31.4369887373      -21.4330131560      -53.1343246043  TIP3      14049           0.0000000000
     93661     15409  TIP3      H1             32.0327287111      -20.7831836402      -53.5799304265  TIP3      14049           0.0000000000
     93662     15409  TIP3      H2             30.5381559776      -21.0431924098      -53.2818027491  TIP3      14049           0.0000000000
     93663     15410  TIP3      OH2            33.1192438943      -20.1485914774      -54.7484077005  TIP3      14050           0.0000000000
     93664     15410  TIP3      H1             33.7702194895      -20.7276890492      -55.2263946758  TIP3      14050           0.0000000000
     93665     15410  TIP3      H2             33.6330974838      -19.3200471439      -54.7535993010  TIP3      14050           0.0000000000
     93666     15411  TIP3      OH2            18.6527299606      -20.8131166731      -55.2750031954  TIP3      14051           0.0000000000
     93667     15411  TIP3      H1             17.8605957057      -21.0088839312      -55.8130784240  TIP3      14051           0.0000000000
     93668     15411  TIP3      H2             19.1203227603      -21.6673223311      -55.3432117142  TIP3      14051           0.0000000000
     93669     15412  TIP3      OH2            17.3978472810      -21.0403774133      -59.5712369571  TIP3      14052           0.0000000000
     93670     15412  TIP3      H1             17.9090256570      -20.4054587682      -60.1089382803  TIP3      14052           0.0000000000
     93671     15412  TIP3      H2             16.8520150696      -20.4727843659      -59.0058840855  TIP3      14052           0.0000000000
     93672     15413  TIP3      OH2            23.1343112120      -20.8841101868      -55.4997776129  TIP3      14053           0.0000000000
     93673     15413  TIP3      H1             24.0341330783      -20.5227422652      -55.5694905417  TIP3      14053           0.0000000000
     93674     15413  TIP3      H2             23.0921940035      -21.0987585413      -54.5682865420  TIP3      14053           0.0000000000
     93675     15414  TIP3      OH2            28.9143162545      -20.8853770307      -53.8869073572  TIP3      14054           0.0000000000
     93676     15414  TIP3      H1             28.7580055091      -20.7477556578      -54.8302451766  TIP3      14054           0.0000000000
     93677     15414  TIP3      H2             28.4534480022      -21.7516423094      -53.7437598727  TIP3      14054           0.0000000000
     93678     15415  TIP3      OH2            30.1217991077      -20.8426492848      -58.1873386449  TIP3      14055           0.0000000000
     93679     15415  TIP3      H1             29.3840867607      -20.2403548281      -58.3655774805  TIP3      14055           0.0000000000
     93680     15415  TIP3      H2             29.6626492611      -21.6881240169      -57.9945995316  TIP3      14055           0.0000000000
     93681     15416  TIP3      OH2            17.3508002456       -5.0987588624      -58.5575387338  TIP3      14056           0.0000000000
     93682     15416  TIP3      H1             16.6680123718       -5.0983142454      -59.2562367198  TIP3      14056           0.0000000000
     93683     15416  TIP3      H2             17.3660496375       -4.1455362565      -58.3866696740  TIP3      14056           0.0000000000
     93684     15417  TIP3      OH2            19.2447273826      -19.1912192485      -61.0183631081  TIP3      14057           0.0000000000
     93685     15417  TIP3      H1             19.7991591985      -19.7299180212      -61.5852695646  TIP3      14057           0.0000000000
     93686     15417  TIP3      H2             19.9170794201      -18.7874223786      -60.4420577536  TIP3      14057           0.0000000000
     93687     15418  TIP3      OH2            24.3019704397      -18.8628488033      -58.6476970440  TIP3      14058           0.0000000000
     93688     15418  TIP3      H1             24.5453874659      -19.4435735415      -57.9072371037  TIP3      14058           0.0000000000
     93689     15418  TIP3      H2             24.3457736522      -18.0037055542      -58.1700843446  TIP3      14058           0.0000000000
     93690     15419  TIP3      OH2            26.1770316593       -3.7724117120      -60.2372780164  TIP3      14059           0.0000000000
     93691     15419  TIP3      H1             27.1226812907       -3.5695579989      -60.3768378017  TIP3      14059           0.0000000000
     93692     15419  TIP3      H2             26.0169119975       -4.3277384112      -61.0098001795  TIP3      14059           0.0000000000
     93693     15420  TIP3      OH2            32.9146893442       -4.2921381525      -57.4878918183  TIP3      14060           0.0000000000
     93694     15420  TIP3      H1             32.7138164754       -5.0683833198      -58.0654403581  TIP3      14060           0.0000000000
     93695     15420  TIP3      H2             32.8302096450       -3.5562682525      -58.1251379990  TIP3      14060           0.0000000000
     93696     15421  TIP3      OH2            18.3482560225      -20.6374492443      -46.0590639801  TIP3      14061           0.0000000000
     93697     15421  TIP3      H1             18.0667734912      -21.2209806262      -45.3474245682  TIP3      14061           0.0000000000
     93698     15421  TIP3      H2             19.2308083032      -20.4593311923      -45.7184925291  TIP3      14061           0.0000000000
     93699     15422  TIP3      OH2            19.1587092995       -4.1410229258      -61.5829612100  TIP3      14062           0.0000000000
     93700     15422  TIP3      H1             18.8804361220       -3.8392467058      -60.7099363342  TIP3      14062           0.0000000000
     93701     15422  TIP3      H2             19.9464980918       -4.6568220097      -61.4177016328  TIP3      14062           0.0000000000
     93702     15423  TIP3      OH2            37.8081245965      -12.7283528595      -50.3652816066  TIP3      14063           0.0000000000
     93703     15423  TIP3      H1             37.8992597034      -13.4250559720      -49.6781225401  TIP3      14063           0.0000000000
     93704     15423  TIP3      H2             38.5580076328      -12.1545034135      -50.1572660962  TIP3      14063           0.0000000000
     93705     15424  TIP3      OH2            38.7211516079       -8.3251864906      -51.8217401244  TIP3      14064           0.0000000000
     93706     15424  TIP3      H1             38.4210835120       -9.1778368691      -52.1886298245  TIP3      14064           0.0000000000
     93707     15424  TIP3      H2             39.6896660778       -8.4655909268      -51.7928502005  TIP3      14064           0.0000000000
     93708     15425  TIP3      OH2            35.3585688235      -14.7516140182      -56.3976576742  TIP3      14065           0.0000000000
     93709     15425  TIP3      H1             34.9736386167      -13.8507809771      -56.4386549422  TIP3      14065           0.0000000000
     93710     15425  TIP3      H2             34.7912224078      -15.2488135627      -56.9965509288  TIP3      14065           0.0000000000
     93711     15426  TIP3      OH2            36.1269299336      -12.4925773541      -54.2471399788  TIP3      14066           0.0000000000
     93712     15426  TIP3      H1             36.3754949125      -13.3038342191      -53.7716827766  TIP3      14066           0.0000000000
     93713     15426  TIP3      H2             36.8412493482      -12.4160033678      -54.8962656914  TIP3      14066           0.0000000000
     93714     15427  TIP3      OH2            39.6837202211      -17.3411495377      -53.6988991135  TIP3      14067           0.0000000000
     93715     15427  TIP3      H1             40.1188563844      -16.5958115826      -54.1880570354  TIP3      14067           0.0000000000
     93716     15427  TIP3      H2             39.6624206867      -17.9952921210      -54.3869600387  TIP3      14067           0.0000000000
     93717     15428  TIP3      OH2            36.7255773079      -15.0804661889      -53.1889363376  TIP3      14068           0.0000000000
     93718     15428  TIP3      H1             37.4628400796      -15.5566566823      -52.7453903233  TIP3      14068           0.0000000000
     93719     15428  TIP3      H2             36.8421322849      -15.3606437723      -54.1075391963  TIP3      14068           0.0000000000
     93720     15429  TIP3      OH2            38.9947705967      -18.5892452266      -49.8936118380  TIP3      14069           0.0000000000
     93721     15429  TIP3      H1             38.7196885981      -17.9928485462      -50.6246060604  TIP3      14069           0.0000000000
     93722     15429  TIP3      H2             38.3263675610      -18.3341233369      -49.2228185619  TIP3      14069           0.0000000000
     93723     15430  TIP3      OH2            38.4864969461      -16.6056733859      -51.6432114236  TIP3      14070           0.0000000000
     93724     15430  TIP3      H1             39.2101481608      -15.9612903045      -51.5167131227  TIP3      14070           0.0000000000
     93725     15430  TIP3      H2             38.9471305875      -17.0326224811      -52.4262285151  TIP3      14070           0.0000000000
     93726     15431  TIP3      OH2            39.7898709224       -8.8167730013      -48.9191549667  TIP3      14071           0.0000000000
     93727     15431  TIP3      H1             39.8509409860       -7.8675932821      -49.1133886244  TIP3      14071           0.0000000000
     93728     15431  TIP3      H2             38.9777635306       -8.8562490376      -48.3770223113  TIP3      14071           0.0000000000
     93729     15432  TIP3      OH2            36.0329733484       -9.2976537299      -58.0562854366  TIP3      14072           0.0000000000
     93730     15432  TIP3      H1             35.8305299913       -8.9424165160      -58.9397727974  TIP3      14072           0.0000000000
     93731     15432  TIP3      H2             36.1038160891       -8.4718968209      -57.5251470299  TIP3      14072           0.0000000000
     93732     15433  TIP3      OH2            40.1080144785      -11.5447565502      -55.0725726086  TIP3      14073           0.0000000000
     93733     15433  TIP3      H1             39.9810546073      -11.8937725902      -55.9747294358  TIP3      14073           0.0000000000
     93734     15433  TIP3      H2             40.8518054646      -12.0856247353      -54.7250505219  TIP3      14073           0.0000000000
     93735     15434  TIP3      OH2            38.5078912001      -12.2232026147      -47.5055310189  TIP3      14074           0.0000000000
     93736     15434  TIP3      H1             38.5671122849      -11.5439417138      -46.8358762349  TIP3      14074           0.0000000000
     93737     15434  TIP3      H2             37.5974226676      -12.1395609964      -47.8152698626  TIP3      14074           0.0000000000
     93738     15435  TIP3      OH2            39.7639198254       -6.2915280026      -45.9765892904  TIP3      14075           0.0000000000
     93739     15435  TIP3      H1             39.8136393983       -6.4753232232      -46.9306919403  TIP3      14075           0.0000000000
     93740     15435  TIP3      H2             38.8531037403       -6.4906589154      -45.7333583258  TIP3      14075           0.0000000000
     93741     15436  TIP3      OH2            39.3033212510      -12.5724703951      -57.4593642330  TIP3      14076           0.0000000000
     93742     15436  TIP3      H1             39.0362777962      -11.7595161006      -57.9531721132  TIP3      14076           0.0000000000
     93743     15436  TIP3      H2             38.5710567676      -13.1500155329      -57.6840368940  TIP3      14076           0.0000000000
     93744     15437  TIP3      OH2            35.3931352914      -10.1195264592      -48.6222551494  TIP3      14077           0.0000000000
     93745     15437  TIP3      H1             34.9350649201      -10.1924421587      -49.4790773676  TIP3      14077           0.0000000000
     93746     15437  TIP3      H2             35.4341827285      -11.0587096775      -48.3636429609  TIP3      14077           0.0000000000
     93747     15438  TIP3      OH2            35.1685974277       -7.3769923285      -51.7915859225  TIP3      14078           0.0000000000
     93748     15438  TIP3      H1             36.1275750019       -7.4848808166      -51.7972230170  TIP3      14078           0.0000000000
     93749     15438  TIP3      H2             35.0745956227       -6.5647100002      -51.2785447152  TIP3      14078           0.0000000000
     93750     15439  TIP3      OH2            38.3786777589       -4.5095852718      -55.6256400049  TIP3      14079           0.0000000000
     93751     15439  TIP3      H1             38.5570735296       -4.9278999167      -54.7536316291  TIP3      14079           0.0000000000
     93752     15439  TIP3      H2             37.5476586575       -4.9567378006      -55.8537540026  TIP3      14079           0.0000000000
     93753     15440  TIP3      OH2            37.5931075231       -8.7881332617      -47.5594271447  TIP3      14080           0.0000000000
     93754     15440  TIP3      H1             37.8460379696       -9.1695821169      -46.7196457624  TIP3      14080           0.0000000000
     93755     15440  TIP3      H2             36.7615346518       -9.2201962993      -47.8552000118  TIP3      14080           0.0000000000
     93756     15441  TIP3      OH2            40.2880079411      -20.3277837823      -51.6718823335  TIP3      14081           0.0000000000
     93757     15441  TIP3      H1             39.4020008074      -20.4105013532      -52.0794669547  TIP3      14081           0.0000000000
     93758     15441  TIP3      H2             40.2239540182      -19.4428357798      -51.2793963943  TIP3      14081           0.0000000000
     93759     15442  TIP3      OH2            40.3821181016      -15.2056954167      -49.7555544044  TIP3      14082           0.0000000000
     93760     15442  TIP3      H1             39.4464675315      -15.4377636134      -49.6252939205  TIP3      14082           0.0000000000
     93761     15442  TIP3      H2             40.2690645938      -14.6795498751      -50.5703424581  TIP3      14082           0.0000000000
     93762     15443  TIP3      OH2            40.1123667043      -15.4331349082      -55.2637069941  TIP3      14083           0.0000000000
     93763     15443  TIP3      H1             39.1961353469      -15.5102736282      -55.6235898977  TIP3      14083           0.0000000000
     93764     15443  TIP3      H2             40.7116652822      -15.4186591654      -55.9844007937  TIP3      14083           0.0000000000
     93765     15444  TIP3      OH2            38.0158850811      -15.0315220287      -48.6646789261  TIP3      14084           0.0000000000
     93766     15444  TIP3      H1             38.1035606776      -14.6702827796      -47.7709126268  TIP3      14084           0.0000000000
     93767     15444  TIP3      H2             37.6587409259      -15.9257558419      -48.5267124168  TIP3      14084           0.0000000000
     93768     15445  TIP3      OH2            34.6919193130      -18.0039629653      -54.6995903136  TIP3      14085           0.0000000000
     93769     15445  TIP3      H1             35.4538823714      -18.0208194765      -54.0743937317  TIP3      14085           0.0000000000
     93770     15445  TIP3      H2             35.1460667602      -18.3235843138      -55.5174724117  TIP3      14085           0.0000000000
     93771     15446  TIP3      OH2            36.0627305949      -17.2086516084      -59.3208731053  TIP3      14086           0.0000000000
     93772     15446  TIP3      H1             36.4414990638      -16.6701836057      -60.0246586473  TIP3      14086           0.0000000000
     93773     15446  TIP3      H2             35.3180000836      -16.6278221924      -59.0673129213  TIP3      14086           0.0000000000
     93774     15447  TIP3      OH2            37.6980785784      -16.1548484103      -55.7095363462  TIP3      14087           0.0000000000
     93775     15447  TIP3      H1             36.8180976260      -15.9863209822      -56.0900985945  TIP3      14087           0.0000000000
     93776     15447  TIP3      H2             37.9999660394      -17.0249247860      -56.0240876601  TIP3      14087           0.0000000000
     93777     15448  TIP3      OH2            40.1647523360      -15.0428985912      -60.4395444232  TIP3      14088           0.0000000000
     93778     15448  TIP3      H1             39.5379559910      -15.2151316170      -61.1688929839  TIP3      14088           0.0000000000
     93779     15448  TIP3      H2             40.9019287701      -14.6710464850      -60.9451028711  TIP3      14088           0.0000000000
     93780     15449  TIP3      OH2            39.0338921604      -18.7801776835      -56.2987060718  TIP3      14089           0.0000000000
     93781     15449  TIP3      H1             38.7893508480      -19.7250336229      -56.1585771183  TIP3      14089           0.0000000000
     93782     15449  TIP3      H2             39.9794002527      -18.8813187731      -56.4605077936  TIP3      14089           0.0000000000
     93783     15450  TIP3      OH2            38.5700926727      -11.0040529421      -52.7620106264  TIP3      14090           0.0000000000
     93784     15450  TIP3      H1             39.2936282586      -11.0615007095      -53.4232601389  TIP3      14090           0.0000000000
     93785     15450  TIP3      H2             38.6498649197      -11.8486497215      -52.2874953179  TIP3      14090           0.0000000000
     93786     15451  TIP3      OH2            35.5320185062      -12.5490142018      -47.4757247376  TIP3      14091           0.0000000000
     93787     15451  TIP3      H1             35.8016683950      -13.0041269330      -46.6604293661  TIP3      14091           0.0000000000
     93788     15451  TIP3      H2             34.9491547858      -13.1925445920      -47.9227777885  TIP3      14091           0.0000000000
     93789     15452  TIP3      OH2            36.6703676975      -12.6343485553      -60.8379828267  TIP3      14092           0.0000000000
     93790     15452  TIP3      H1             37.3045763425      -12.0415973958      -60.4027593582  TIP3      14092           0.0000000000
     93791     15452  TIP3      H2             35.8165848390      -12.3805752058      -60.4966355763  TIP3      14092           0.0000000000
     93792     15453  TIP3      OH2            37.2324662440      -17.8024191936      -47.9168933367  TIP3      14093           0.0000000000
     93793     15453  TIP3      H1             36.3151221338      -17.4874924206      -47.9804374058  TIP3      14093           0.0000000000
     93794     15453  TIP3      H2             37.1236419680      -18.6713734573      -47.4868507523  TIP3      14093           0.0000000000
     93795     15454  TIP3      OH2            36.8375580043       -6.0295196733      -49.4883415373  TIP3      14094           0.0000000000
     93796     15454  TIP3      H1             37.1104692963       -6.9637444779      -49.5043231488  TIP3      14094           0.0000000000
     93797     15454  TIP3      H2             37.1367673903       -5.7545433579      -48.6140571283  TIP3      14094           0.0000000000
     93798     15455  TIP3      OH2            38.0788822236      -10.7347798201      -59.3286981231  TIP3      14095           0.0000000000
     93799     15455  TIP3      H1             37.4149470625      -10.3346562854      -58.7286854028  TIP3      14095           0.0000000000
     93800     15455  TIP3      H2             38.6113467015       -9.9567559626      -59.5385374385  TIP3      14095           0.0000000000
     93801     15456  TIP3      OH2           -41.1951289027      -18.6218375657      -59.6490804411  TIP3      14096           0.0000000000
     93802     15456  TIP3      H1            -41.1925216286      -17.7271293420      -59.3076177648  TIP3      14096           0.0000000000
     93803     15456  TIP3      H2            -40.2721363292      -18.8932530282      -59.5117854616  TIP3      14096           0.0000000000
     93804     15457  TIP3      OH2            38.7079537730       -8.1888236336      -60.3984522619  TIP3      14097           0.0000000000
     93805     15457  TIP3      H1             39.3055222440       -7.4876264992      -60.1151276356  TIP3      14097           0.0000000000
     93806     15457  TIP3      H2             39.2133042427       -8.5682144875      -61.1197598436  TIP3      14097           0.0000000000
     93807     15458  TIP3      OH2            37.7974703798      -20.6623497346      -52.5587692385  TIP3      14098           0.0000000000
     93808     15458  TIP3      H1             37.6318467612      -20.6606211571      -53.5253307094  TIP3      14098           0.0000000000
     93809     15458  TIP3      H2             37.4412820124      -21.5322713417      -52.2745021305  TIP3      14098           0.0000000000
     93810     15459  TIP3      OH2            36.7739785291       -6.7548839073      -56.4154455336  TIP3      14099           0.0000000000
     93811     15459  TIP3      H1             35.9236021604       -6.2931229022      -56.4579339401  TIP3      14099           0.0000000000
     93812     15459  TIP3      H2             37.2841321906       -6.2831960047      -57.0836211466  TIP3      14099           0.0000000000
     93813     15460  TIP3      OH2            35.9515657950       -8.4863504248      -60.9006071676  TIP3      14100           0.0000000000
     93814     15460  TIP3      H1             36.9060336573       -8.3728106780      -60.7078433717  TIP3      14100           0.0000000000
     93815     15460  TIP3      H2             35.9847302245       -9.0526904719      -61.6807997439  TIP3      14100           0.0000000000
     93816     15461  TIP3      OH2            34.7036463860       -3.0887470280      -55.9626558262  TIP3      14101           0.0000000000
     93817     15461  TIP3      H1             33.9742892697       -3.5704003170      -56.4186308251  TIP3      14101           0.0000000000
     93818     15461  TIP3      H2             34.9871667916       -3.7442405275      -55.2983642487  TIP3      14101           0.0000000000
     93819     15462  TIP3      OH2            35.5335486107       -4.9583130395      -54.0861690637  TIP3      14102           0.0000000000
     93820     15462  TIP3      H1             35.1749722187       -5.8334930985      -53.8777741473  TIP3      14102           0.0000000000
     93821     15462  TIP3      H2             35.7641681420       -4.6235531389      -53.2040297018  TIP3      14102           0.0000000000
     93822     15463  TIP3      OH2            35.5583898121      -11.9035340973      -51.6013436658  TIP3      14103           0.0000000000
     93823     15463  TIP3      H1             35.7724133027      -11.9622860351      -52.5585810305  TIP3      14103           0.0000000000
     93824     15463  TIP3      H2             36.4502257613      -12.0628443575      -51.2336099229  TIP3      14103           0.0000000000
     93825     15464  TIP3      OH2            36.3644984142      -18.2925644739      -52.5544312245  TIP3      14104           0.0000000000
     93826     15464  TIP3      H1             36.9031545983      -19.1044354117      -52.3843653167  TIP3      14104           0.0000000000
     93827     15464  TIP3      H2             36.9609113841      -17.6044378440      -52.2080758814  TIP3      14104           0.0000000000
     93828     15465  TIP3      OH2            34.6666351025      -15.2923824729      -51.5873972426  TIP3      14105           0.0000000000
     93829     15465  TIP3      H1             35.3091040600      -15.5000889308      -52.3012259303  TIP3      14105           0.0000000000
     93830     15465  TIP3      H2             35.1294012933      -14.4958802684      -51.2654006938  TIP3      14105           0.0000000000
     93831     15466  TIP3      OH2            35.0387429724      -18.9897411722      -57.4622245675  TIP3      14106           0.0000000000
     93832     15466  TIP3      H1             34.0961359949      -18.8538516652      -57.6449328494  TIP3      14106           0.0000000000
     93833     15466  TIP3      H2             35.4707907188      -18.5428212352      -58.2134954977  TIP3      14106           0.0000000000
     93834     15467  TIP3      OH2            35.0081307786      -20.3380062563      -49.1918098913  TIP3      14107           0.0000000000
     93835     15467  TIP3      H1             34.3609473429      -20.5774672641      -48.4935302515  TIP3      14107           0.0000000000
     93836     15467  TIP3      H2             34.5131043916      -19.6860333246      -49.7082142022  TIP3      14107           0.0000000000
     93837     15468  TIP3      OH2            40.1675550005       -6.1745652739      -48.7245080077  TIP3      14108           0.0000000000
     93838     15468  TIP3      H1             39.7844178547       -5.3181017734      -48.9955418986  TIP3      14108           0.0000000000
     93839     15468  TIP3      H2             41.0883417576       -6.0472754840      -49.0245557606  TIP3      14108           0.0000000000
     93840     15469  TIP3      OH2            37.5575424532       -2.9245336833      -48.7363110163  TIP3      14109           0.0000000000
     93841     15469  TIP3      H1             36.8207622720       -2.4415567308      -49.1403488756  TIP3      14109           0.0000000000
     93842     15469  TIP3      H2             37.2371870228       -3.1007830641      -47.8404770991  TIP3      14109           0.0000000000
     93843     15470  TIP3      OH2            39.8577808380       -3.5806599966      -49.8442922478  TIP3      14110           0.0000000000
     93844     15470  TIP3      H1             39.1243625161       -3.2535028302      -49.2782257604  TIP3      14110           0.0000000000
     93845     15470  TIP3      H2             39.9809984031       -2.7988288878      -50.4284077241  TIP3      14110           0.0000000000
     93846     15471  TIP3      OH2            36.9523602202       -4.2786133619      -51.7689010173  TIP3      14111           0.0000000000
     93847     15471  TIP3      H1             36.9555924287       -4.7333447289      -50.9054106177  TIP3      14111           0.0000000000
     93848     15471  TIP3      H2             37.7806395511       -4.6243741822      -52.1758727995  TIP3      14111           0.0000000000
     93849     15472  TIP3      OH2            39.0787075049       -5.5553331781      -53.1140904258  TIP3      14112           0.0000000000
     93850     15472  TIP3      H1             38.9017393674       -6.4964787703      -52.9154784846  TIP3      14112           0.0000000000
     93851     15472  TIP3      H2             39.9291841452       -5.4380479349      -52.6682097988  TIP3      14112           0.0000000000
     93852     15473  TIP3      OH2            37.4754232497      -20.8091708220      -55.2622226994  TIP3      14113           0.0000000000
     93853     15473  TIP3      H1             36.7210327578      -21.0194099857      -55.8354009503  TIP3      14113           0.0000000000
     93854     15473  TIP3      H2             37.9779865349      -21.6464883326      -55.3071917964  TIP3      14113           0.0000000000
     93855     15474  TIP3      OH2            36.2307060445      -21.0380790830      -59.5767335640  TIP3      14114           0.0000000000
     93856     15474  TIP3      H1             36.7686941722      -20.4096568346      -60.0964191486  TIP3      14114           0.0000000000
     93857     15474  TIP3      H2             35.6954714308      -20.4630475805      -59.0084910338  TIP3      14114           0.0000000000
     93858     15475  TIP3      OH2            36.1905048873       -5.0928236488      -58.5570080083  TIP3      14115           0.0000000000
     93859     15475  TIP3      H1             35.5183419179       -5.0974779972      -59.2606230366  TIP3      14115           0.0000000000
     93860     15475  TIP3      H2             36.2020198240       -4.1458200290      -58.3773185087  TIP3      14115           0.0000000000
     93861     15476  TIP3      OH2            38.0995100914      -19.1842751890      -61.0058169255  TIP3      14116           0.0000000000
     93862     15476  TIP3      H1             38.6312363554      -19.6804750492      -61.6375386298  TIP3      14116           0.0000000000
     93863     15476  TIP3      H2             38.8106000377      -18.8071137304      -60.4519802473  TIP3      14116           0.0000000000
     93864     15477  TIP3      OH2            37.2422769733      -20.6354872990      -46.0752777737  TIP3      14117           0.0000000000
     93865     15477  TIP3      H1             36.9338431840      -21.2086335199      -45.3662392803  TIP3      14117           0.0000000000
     93866     15477  TIP3      H2             38.0961458068      -20.4422433385      -45.6899299716  TIP3      14117           0.0000000000
     93867     15478  TIP3      OH2            38.0125144732       -4.1301060925      -61.6022372283  TIP3      14118           0.0000000000
     93868     15478  TIP3      H1             37.7410623458       -3.8267564544      -60.7214835297  TIP3      14118           0.0000000000
     93869     15478  TIP3      H2             38.8020419299       -4.6493328974      -61.4398676416  TIP3      14118           0.0000000000
     93870     15479  TIP3      OH2           -28.8204391813        7.1897028732      -55.4269371621  TIP3      14119           0.0000000000
     93871     15479  TIP3      H1            -28.8324368589        8.1683781168      -55.4692899106  TIP3      14119           0.0000000000
     93872     15479  TIP3      H2            -29.5479083238        6.9508559871      -56.0275631736  TIP3      14119           0.0000000000
     93873     15480  TIP3      OH2           -29.9664814519        6.4413481730      -51.9299322674  TIP3      14120           0.0000000000
     93874     15480  TIP3      H1            -29.9704320568        5.7895835306      -51.2189200640  TIP3      14120           0.0000000000
     93875     15480  TIP3      H2            -30.3137995432        5.9416182062      -52.6885964323  TIP3      14120           0.0000000000
     93876     15481  TIP3      OH2           -37.5868717287        6.0813171308      -50.4321779173  TIP3      14121           0.0000000000
     93877     15481  TIP3      H1            -37.5459385346        5.4404430155      -49.6939888983  TIP3      14121           0.0000000000
     93878     15481  TIP3      H2            -36.9038711234        6.7099502720      -50.1604122626  TIP3      14121           0.0000000000
     93879     15482  TIP3      OH2           -26.2781561038        9.3923182863      -53.6429702409  TIP3      14122           0.0000000000
     93880     15482  TIP3      H1            -26.6991546639        8.6807018393      -53.1556123475  TIP3      14122           0.0000000000
     93881     15482  TIP3      H2            -26.2577694935       10.0986968514      -52.9698617796  TIP3      14122           0.0000000000
     93882     15483  TIP3      OH2           -36.6995047868       10.5657237735      -51.8914059875  TIP3      14123           0.0000000000
     93883     15483  TIP3      H1            -37.0143501198        9.6864362350      -52.1880611577  TIP3      14123           0.0000000000
     93884     15483  TIP3      H2            -35.7472474815       10.3710477015      -51.8267257621  TIP3      14123           0.0000000000
     93885     15484  TIP3      OH2           -39.7356922285        4.4314575576      -56.9484063062  TIP3      14124           0.0000000000
     93886     15484  TIP3      H1            -40.3107751695        5.0655990988      -56.4789062890  TIP3      14124           0.0000000000
     93887     15484  TIP3      H2            -40.3972943848        3.7788610880      -57.1526505287  TIP3      14124           0.0000000000
     93888     15485  TIP3      OH2           -39.1584307351        6.3082244524      -54.1801195427  TIP3      14125           0.0000000000
     93889     15485  TIP3      H1            -39.0040310848        5.4407769396      -53.7526796570  TIP3      14125           0.0000000000
     93890     15485  TIP3      H2            -38.5210837020        6.3823646503      -54.8988434744  TIP3      14125           0.0000000000
     93891     15486  TIP3      OH2           -29.1619147214       14.5459119817      -53.4062767495  TIP3      14126           0.0000000000
     93892     15486  TIP3      H1            -28.5133782453       13.8542369420      -53.6912956856  TIP3      14126           0.0000000000
     93893     15486  TIP3      H2            -29.3710215770       14.2160052941      -52.5320740099  TIP3      14126           0.0000000000
     93894     15487  TIP3      OH2           -31.5951254187        8.8433724522      -51.4616912717  TIP3      14127           0.0000000000
     93895     15487  TIP3      H1            -31.2513066580        8.2143270891      -52.1141452512  TIP3      14127           0.0000000000
     93896     15487  TIP3      H2            -30.7901364271        8.9976226747      -50.9311227123  TIP3      14127           0.0000000000
     93897     15488  TIP3      OH2           -23.0107217109        0.5189746243      -50.7168323542  TIP3      14128           0.0000000000
     93898     15488  TIP3      H1            -22.8123313776        1.0891228286      -49.9503086914  TIP3      14128           0.0000000000
     93899     15488  TIP3      H2            -22.4103038830        0.9065521476      -51.3747378603  TIP3      14128           0.0000000000
     93900     15489  TIP3      OH2           -28.4486530055        3.3009187275      -51.1267395106  TIP3      14129           0.0000000000
     93901     15489  TIP3      H1            -28.2521698984        2.3495359396      -51.1392055229  TIP3      14129           0.0000000000
     93902     15489  TIP3      H2            -28.5290662061        3.4530668800      -52.0906824086  TIP3      14129           0.0000000000
     93903     15490  TIP3      OH2           -35.3147916338        1.3995236062      -53.9290048749  TIP3      14130           0.0000000000
     93904     15490  TIP3      H1            -35.1990286129        2.2360010751      -54.4145645850  TIP3      14130           0.0000000000
     93905     15490  TIP3      H2            -35.7045508747        0.8264383749      -54.6244111853  TIP3      14130           0.0000000000
     93906     15491  TIP3      OH2           -27.5745416868        1.4799131631      -55.5545669606  TIP3      14131           0.0000000000
     93907     15491  TIP3      H1            -26.9208584815        1.1655752751      -54.8866499377  TIP3      14131           0.0000000000
     93908     15491  TIP3      H2            -27.0111833475        2.0502238077      -56.1002658158  TIP3      14131           0.0000000000
     93909     15492  TIP3      OH2           -38.4862403737        3.8226660675      -53.2530499481  TIP3      14132           0.0000000000
     93910     15492  TIP3      H1            -37.9352564171        3.1937883995      -52.7657750468  TIP3      14132           0.0000000000
     93911     15492  TIP3      H2            -38.5423879994        3.4352791525      -54.1369815229  TIP3      14132           0.0000000000
     93912     15493  TIP3      OH2           -33.5257317927        5.3667044897      -53.8760577542  TIP3      14133           0.0000000000
     93913     15493  TIP3      H1            -32.8585567955        4.7835404881      -53.4751106637  TIP3      14133           0.0000000000
     93914     15493  TIP3      H2            -34.0443664259        4.7094902462      -54.3817231838  TIP3      14133           0.0000000000
     93915     15494  TIP3      OH2           -22.5024642512        1.9821258160      -48.4643941646  TIP3      14134           0.0000000000
     93916     15494  TIP3      H1            -23.2016585778        2.6575555932      -48.5876230954  TIP3      14134           0.0000000000
     93917     15494  TIP3      H2            -22.5436201441        1.7924946888      -47.5187457694  TIP3      14134           0.0000000000
     93918     15495  TIP3      OH2           -36.3900322679        0.3122567809      -49.8933568363  TIP3      14135           0.0000000000
     93919     15495  TIP3      H1            -36.7081586827        0.8598076318      -50.6378421601  TIP3      14135           0.0000000000
     93920     15495  TIP3      H2            -37.1020541962        0.4946191496      -49.2338671644  TIP3      14135           0.0000000000
     93921     15496  TIP3      OH2           -29.1145361377        9.7802939969      -56.3322546611  TIP3      14136           0.0000000000
     93922     15496  TIP3      H1            -29.4064780956        9.4992716306      -57.2090136394  TIP3      14136           0.0000000000
     93923     15496  TIP3      H2            -29.4194344209       10.7139231702      -56.2920488223  TIP3      14136           0.0000000000
     93924     15497  TIP3      OH2           -33.8727050915        7.9371874423      -49.6095019528  TIP3      14137           0.0000000000
     93925     15497  TIP3      H1            -34.5891214033        8.5830546840      -49.4155674343  TIP3      14137           0.0000000000
     93926     15497  TIP3      H2            -33.1836721603        8.5409443949      -49.9337753374  TIP3      14137           0.0000000000
     93927     15498  TIP3      OH2           -25.8015716627        0.8316668658      -53.5482256431  TIP3      14138           0.0000000000
     93928     15498  TIP3      H1            -25.9678799571        0.0484348970      -53.0211942953  TIP3      14138           0.0000000000
     93929     15498  TIP3      H2            -25.0794160006        1.2540019625      -53.0473162485  TIP3      14138           0.0000000000
     93930     15499  TIP3      OH2           -36.8546314875        2.1387573237      -51.8511643353  TIP3      14139           0.0000000000
     93931     15499  TIP3      H1            -36.2385941729        2.8428919541      -51.5464168317  TIP3      14139           0.0000000000
     93932     15499  TIP3      H2            -36.3242202922        1.7315523181      -52.5818621819  TIP3      14139           0.0000000000
     93933     15500  TIP3      OH2           -35.4674688173        9.9417646098      -48.8236918051  TIP3      14140           0.0000000000
     93934     15500  TIP3      H1            -35.4859687769       10.8630441477      -49.1524665324  TIP3      14140           0.0000000000
     93935     15500  TIP3      H2            -36.3572256246        9.8756245702      -48.4116957121  TIP3      14140           0.0000000000
     93936     15501  TIP3      OH2           -39.3597628750        9.5842995507      -58.0343239847  TIP3      14141           0.0000000000
     93937     15501  TIP3      H1            -39.6031902192        9.8505860188      -58.9297152892  TIP3      14141           0.0000000000
     93938     15501  TIP3      H2            -39.3022600166       10.4170537292      -57.5315490102  TIP3      14141           0.0000000000
     93939     15502  TIP3      OH2           -25.7529166681       11.2240147396      -51.2943247121  TIP3      14142           0.0000000000
     93940     15502  TIP3      H1            -26.7171486634       11.3371967674      -51.1481993093  TIP3      14142           0.0000000000
     93941     15502  TIP3      H2            -25.4785796730       12.1464534537      -51.4632398282  TIP3      14142           0.0000000000
     93942     15503  TIP3      OH2           -25.4440859712       -0.4517793608      -49.8434766100  TIP3      14143           0.0000000000
     93943     15503  TIP3      H1            -26.1736945250        0.1584767357      -49.9950201689  TIP3      14143           0.0000000000
     93944     15503  TIP3      H2            -24.7235176735       -0.0672090078      -50.3888257870  TIP3      14143           0.0000000000
     93945     15504  TIP3      OH2           -32.4613611801       -2.3756707038      -52.4411149565  TIP3      14144           0.0000000000
     93946     15504  TIP3      H1            -32.5942827669       -3.3394051292      -52.4838914392  TIP3      14144           0.0000000000
     93947     15504  TIP3      H2            -33.3323741164       -2.0674414529      -52.1090174044  TIP3      14144           0.0000000000
     93948     15505  TIP3      OH2           -27.4911253970       13.0111468690      -54.6847740587  TIP3      14145           0.0000000000
     93949     15505  TIP3      H1            -27.0622691612       12.2927101702      -55.1928446790  TIP3      14145           0.0000000000
     93950     15505  TIP3      H2            -27.0647248313       13.8025017998      -55.0749013967  TIP3      14145           0.0000000000
     93951     15506  TIP3      OH2           -26.2801642129       10.9387139397      -56.1726823515  TIP3      14146           0.0000000000
     93952     15506  TIP3      H1            -26.5779701662       10.2471351127      -56.7861803520  TIP3      14146           0.0000000000
     93953     15506  TIP3      H2            -26.2509917913       10.4460366762      -55.3315648639  TIP3      14146           0.0000000000
     93954     15507  TIP3      OH2           -24.6263466640        9.5277102463      -47.6765853150  TIP3      14147           0.0000000000
     93955     15507  TIP3      H1            -24.5305442134        8.8989308524      -48.4222797786  TIP3      14147           0.0000000000
     93956     15507  TIP3      H2            -24.4478606344       10.3864412131      -48.1001796257  TIP3      14147           0.0000000000
     93957     15508  TIP3      OH2           -30.1740251489        6.4275347338      -57.9285621892  TIP3      14148           0.0000000000
     93958     15508  TIP3      H1            -30.8792132952        6.9991700633      -58.2983147991  TIP3      14148           0.0000000000
     93959     15508  TIP3      H2            -29.4661044786        6.5191689210      -58.5892009477  TIP3      14148           0.0000000000
     93960     15509  TIP3      OH2           -30.1074353419        4.9458505236      -60.8286695443  TIP3      14149           0.0000000000
     93961     15509  TIP3      H1            -29.3720950865        4.9610610308      -60.1971389092  TIP3      14149           0.0000000000
     93962     15509  TIP3      H2            -29.7911757313        4.3118280006      -61.4763642609  TIP3      14149           0.0000000000
     93963     15510  TIP3      OH2           -22.7705609302        5.8403401428      -49.6122306778  TIP3      14150           0.0000000000
     93964     15510  TIP3      H1            -23.4297401466        6.5640810744      -49.5712803176  TIP3      14150           0.0000000000
     93965     15510  TIP3      H2            -22.2948728347        6.0504306685      -50.4424644336  TIP3      14150           0.0000000000
     93966     15511  TIP3      OH2           -26.7258140219        6.6154198876      -56.9947903606  TIP3      14151           0.0000000000
     93967     15511  TIP3      H1            -27.4559062776        6.8796797070      -56.3813434944  TIP3      14151           0.0000000000
     93968     15511  TIP3      H2            -26.2485852810        5.9656236156      -56.4459393353  TIP3      14151           0.0000000000
     93969     15512  TIP3      OH2           -26.8260994922        4.7910364355      -47.8853931272  TIP3      14152           0.0000000000
     93970     15512  TIP3      H1            -26.7924431516        5.5923182210      -47.3506297112  TIP3      14152           0.0000000000
     93971     15512  TIP3      H2            -27.4357321162        5.1048760647      -48.5833531856  TIP3      14152           0.0000000000
     93972     15513  TIP3      OH2           -35.1071010339        7.2976425222      -55.0672254006  TIP3      14153           0.0000000000
     93973     15513  TIP3      H1            -35.4495714965        6.9055649985      -55.9068458804  TIP3      14153           0.0000000000
     93974     15513  TIP3      H2            -34.4956394531        6.6006751694      -54.7388101284  TIP3      14153           0.0000000000
     93975     15514  TIP3      OH2           -33.7942560689       10.6814092732      -52.3882355459  TIP3      14154           0.0000000000
     93976     15514  TIP3      H1            -33.8007677509       10.1528574911      -53.1954507728  TIP3      14154           0.0000000000
     93977     15514  TIP3      H2            -33.0081212763       10.3243170129      -51.9351773540  TIP3      14154           0.0000000000
     93978     15515  TIP3      OH2           -34.7564364678        6.0125998021      -51.3850588213  TIP3      14155           0.0000000000
     93979     15515  TIP3      H1            -34.2305180274        6.1370165982      -52.2022991874  TIP3      14155           0.0000000000
     93980     15515  TIP3      H2            -34.4195793979        6.7283249341      -50.8077825761  TIP3      14155           0.0000000000
     93981     15516  TIP3      OH2           -28.3693523500       11.6086371750      -50.7007891871  TIP3      14156           0.0000000000
     93982     15516  TIP3      H1            -28.6618218987       12.2555257329      -50.0528905417  TIP3      14156           0.0000000000
     93983     15516  TIP3      H2            -28.6195894581       10.7524698297      -50.2765817491  TIP3      14156           0.0000000000
     93984     15517  TIP3      OH2           -33.8618080074       10.4420824500      -46.6593933743  TIP3      14157           0.0000000000
     93985     15517  TIP3      H1            -34.1970353771       11.2575474749      -46.2490601075  TIP3      14157           0.0000000000
     93986     15517  TIP3      H2            -34.4830990877       10.2810286032      -47.3989653113  TIP3      14157           0.0000000000
     93987     15518  TIP3      OH2           -27.8315255925        5.8081479838      -59.3237684146  TIP3      14158           0.0000000000
     93988     15518  TIP3      H1            -27.3076702974        6.0141374689      -58.5062327118  TIP3      14158           0.0000000000
     93989     15518  TIP3      H2            -27.4572338413        6.3778429758      -60.0003239576  TIP3      14158           0.0000000000
     93990     15519  TIP3      OH2           -36.9043148205        6.6429729525      -47.5056806282  TIP3      14159           0.0000000000
     93991     15519  TIP3      H1            -36.8627834778        7.3249004943      -46.8374400130  TIP3      14159           0.0000000000
     93992     15519  TIP3      H2            -37.8209634727        6.7468681272      -47.8164518842  TIP3      14159           0.0000000000
     93993     15520  TIP3      OH2           -30.1321416392       12.5567710072      -55.8518902759  TIP3      14160           0.0000000000
     93994     15520  TIP3      H1            -29.6974500101       12.8635432284      -55.0482849136  TIP3      14160           0.0000000000
     93995     15520  TIP3      H2            -30.6954143940       13.3018294022      -56.0905016378  TIP3      14160           0.0000000000
     93996     15521  TIP3      OH2           -35.6312988031       12.5247333478      -45.9691294662  TIP3      14161           0.0000000000
     93997     15521  TIP3      H1            -35.6245054482       12.4281932341      -46.9383006498  TIP3      14161           0.0000000000
     93998     15521  TIP3      H2            -36.5612073993       12.3820326316      -45.7525732989  TIP3      14161           0.0000000000
     93999     15522  TIP3      OH2           -24.1395548761       -2.4566662226      -59.4392642527  TIP3      14162           0.0000000000
     94000     15522  TIP3      H1            -25.0812717382       -2.3115995916      -59.1783062486  TIP3      14162           0.0000000000
     94001     15522  TIP3      H2            -23.9017368769       -1.5894573173      -59.8144958643  TIP3      14162           0.0000000000
     94002     15523  TIP3      OH2           -36.1372275248        6.3159466383      -57.4617120640  TIP3      14163           0.0000000000
     94003     15523  TIP3      H1            -36.4202136781        7.0991012649      -57.9768165841  TIP3      14163           0.0000000000
     94004     15523  TIP3      H2            -36.8129526344        5.6634544331      -57.6735506591  TIP3      14163           0.0000000000
     94005     15524  TIP3      OH2           -23.0176229933       11.9095109122      -61.0301860304  TIP3      14164           0.0000000000
     94006     15524  TIP3      H1            -22.8834402103       12.8711153505      -60.9306489263  TIP3      14164           0.0000000000
     94007     15524  TIP3      H2            -22.0945294060       11.6164904523      -61.1286097650  TIP3      14164           0.0000000000
     94008     15525  TIP3      OH2           -39.6309366580        8.4978589504      -48.7424271609  TIP3      14165           0.0000000000
     94009     15525  TIP3      H1            -40.4010916536        8.7149380810      -49.3218404257  TIP3      14165           0.0000000000
     94010     15525  TIP3      H2            -39.9979044946        7.7081115963      -48.3198223776  TIP3      14165           0.0000000000
     94011     15526  TIP3      OH2           -40.2457154653       11.5455610242      -51.8463765263  TIP3      14166           0.0000000000
     94012     15526  TIP3      H1            -39.3125376460       11.2998585464      -51.7686431106  TIP3      14166           0.0000000000
     94013     15526  TIP3      H2            -40.3602598208       12.2736220485      -51.2225190356  TIP3      14166           0.0000000000
     94014     15527  TIP3      OH2           -21.9755497767       12.1581049923      -46.6428589717  TIP3      14167           0.0000000000
     94015     15527  TIP3      H1            -22.0354269507       11.2630627061      -46.2811672999  TIP3      14167           0.0000000000
     94016     15527  TIP3      H2            -22.6498372043       12.5376325840      -46.0472085377  TIP3      14167           0.0000000000
     94017     15528  TIP3      OH2           -31.0910075099       11.7150539905      -47.2387199900  TIP3      14168           0.0000000000
     94018     15528  TIP3      H1            -31.0230873459       12.5602530367      -46.7323822906  TIP3      14168           0.0000000000
     94019     15528  TIP3      H2            -31.9709441391       11.3763630876      -46.9980634310  TIP3      14168           0.0000000000
     94020     15529  TIP3      OH2           -30.6558787329       15.4596111025      -57.4542950323  TIP3      14169           0.0000000000
     94021     15529  TIP3      H1            -30.7415521487       15.3957396942      -58.4174254056  TIP3      14169           0.0000000000
     94022     15529  TIP3      H2            -30.6179743677       16.4190481238      -57.2753698928  TIP3      14169           0.0000000000
     94023     15530  TIP3      OH2           -37.0130574002       14.3347361555      -55.6285959231  TIP3      14170           0.0000000000
     94024     15530  TIP3      H1            -36.8846391548       13.9333564277      -54.7436097903  TIP3      14170           0.0000000000
     94025     15530  TIP3      H2            -37.8669826072       13.9379680596      -55.8651226874  TIP3      14170           0.0000000000
     94026     15531  TIP3      OH2           -27.6371185747       14.6701752528      -60.4729442987  TIP3      14171           0.0000000000
     94027     15531  TIP3      H1            -27.1537267045       13.9144633897      -60.8876034833  TIP3      14171           0.0000000000
     94028     15531  TIP3      H2            -27.5498102156       14.4288586695      -59.5307151273  TIP3      14171           0.0000000000
     94029     15532  TIP3      OH2           -27.9099307004       14.6161277480      -57.6765949243  TIP3      14172           0.0000000000
     94030     15532  TIP3      H1            -28.8653558602       14.6806569940      -57.4838487750  TIP3      14172           0.0000000000
     94031     15532  TIP3      H2            -27.6546241592       13.8760468278      -57.1050300737  TIP3      14172           0.0000000000
     94032     15533  TIP3      OH2           -37.7964596469       10.0858012419      -47.5696020545  TIP3      14173           0.0000000000
     94033     15533  TIP3      H1            -37.6156184217        9.6860245285      -46.7211241966  TIP3      14173           0.0000000000
     94034     15533  TIP3      H2            -38.6345538028        9.6631482840      -47.8894763452  TIP3      14173           0.0000000000
     94035     15534  TIP3      OH2           -35.0724402761       -1.4558395760      -51.6890739403  TIP3      14174           0.0000000000
     94036     15534  TIP3      H1            -35.9841895835       -1.5776563743      -52.0417937159  TIP3      14174           0.0000000000
     94037     15534  TIP3      H2            -35.2015171450       -0.6326855810      -51.1942247166  TIP3      14174           0.0000000000
     94038     15535  TIP3      OH2           -30.4515603142       -1.7735571677      -48.2908522159  TIP3      14175           0.0000000000
     94039     15535  TIP3      H1            -30.0609125314       -2.1995786501      -47.5096574957  TIP3      14175           0.0000000000
     94040     15535  TIP3      H2            -31.4221967088       -1.9342107910      -48.1536044024  TIP3      14175           0.0000000000
     94041     15536  TIP3      OH2           -27.2932043128        2.0272161634      -47.4858790606  TIP3      14176           0.0000000000
     94042     15536  TIP3      H1            -27.6009849922        1.8572296917      -46.5768719057  TIP3      14176           0.0000000000
     94043     15536  TIP3      H2            -27.2667743669        2.9926264294      -47.6047165995  TIP3      14176           0.0000000000
     94044     15537  TIP3      OH2           -30.8351482260        0.7972781798      -60.9700057067  TIP3      14177           0.0000000000
     94045     15537  TIP3      H1            -31.1023282725        0.7214405073      -60.0348155106  TIP3      14177           0.0000000000
     94046     15537  TIP3      H2            -31.0659443211       -0.0937757811      -61.2527037097  TIP3      14177           0.0000000000
     94047     15538  TIP3      OH2           -34.9942648841        3.5126676789      -50.4054895760  TIP3      14178           0.0000000000
     94048     15538  TIP3      H1            -35.7565289414        3.4945606903      -49.7953946578  TIP3      14178           0.0000000000
     94049     15538  TIP3      H2            -35.0602456885        4.4072432163      -50.8176563048  TIP3      14178           0.0000000000
     94050     15539  TIP3      OH2           -35.0154570469        3.6417443957      -55.5375476332  TIP3      14179           0.0000000000
     94051     15539  TIP3      H1            -35.9575010434        3.3820851512      -55.6790207751  TIP3      14179           0.0000000000
     94052     15539  TIP3      H2            -34.6415059654        3.3361884227      -56.3868950783  TIP3      14179           0.0000000000
     94053     15540  TIP3      OH2           -29.5048875503        4.1170786396      -56.7923973831  TIP3      14180           0.0000000000
     94054     15540  TIP3      H1            -29.9083870992        4.9498110791      -57.1263890218  TIP3      14180           0.0000000000
     94055     15540  TIP3      H2            -28.8181064756        3.9551660206      -57.4602754559  TIP3      14180           0.0000000000
     94056     15541  TIP3      OH2           -28.4672362294        3.6132048953      -53.9360797513  TIP3      14181           0.0000000000
     94057     15541  TIP3      H1            -28.7452687843        4.1767887553      -54.6790346787  TIP3      14181           0.0000000000
     94058     15541  TIP3      H2            -28.3687246950        2.7649527460      -54.4088023164  TIP3      14181           0.0000000000
     94059     15542  TIP3      OH2           -37.3382526621        3.7791567584      -48.6999007824  TIP3      14182           0.0000000000
     94060     15542  TIP3      H1            -37.3278833475        4.1693159286      -47.8109420809  TIP3      14182           0.0000000000
     94061     15542  TIP3      H2            -37.8041044315        2.9424297223      -48.5342000360  TIP3      14182           0.0000000000
     94062     15543  TIP3      OH2           -39.9028966561        0.9782011971      -55.2616453379  TIP3      14183           0.0000000000
     94063     15543  TIP3      H1            -39.9964313569        0.7842097315      -54.2931348963  TIP3      14183           0.0000000000
     94064     15543  TIP3      H2            -39.9958192220        0.1033241935      -55.6799626473  TIP3      14183           0.0000000000
     94065     15544  TIP3      OH2           -39.2630534602        1.8218348176      -59.2085006139  TIP3      14184           0.0000000000
     94066     15544  TIP3      H1            -38.8872225530        2.2425078482      -59.9985073326  TIP3      14184           0.0000000000
     94067     15544  TIP3      H2            -40.0712587670        2.3333586695      -59.1139045756  TIP3      14184           0.0000000000
     94068     15545  TIP3      OH2           -29.2567033728        5.1922367562      -49.3339216441  TIP3      14185           0.0000000000
     94069     15545  TIP3      H1            -28.8802944287        4.5466417221      -49.9721517550  TIP3      14185           0.0000000000
     94070     15545  TIP3      H2            -29.7225435387        4.6353800929      -48.7045896656  TIP3      14185           0.0000000000
     94071     15546  TIP3      OH2           -32.4669296950        1.1759353994      -54.5354710426  TIP3      14186           0.0000000000
     94072     15546  TIP3      H1            -33.4013095738        1.1825083232      -54.2489992440  TIP3      14186           0.0000000000
     94073     15546  TIP3      H2            -31.9812994748        1.0168844012      -53.7142736912  TIP3      14186           0.0000000000
     94074     15547  TIP3      OH2           -37.6235887306        2.7474902240      -55.7302053395  TIP3      14187           0.0000000000
     94075     15547  TIP3      H1            -38.5208034406        2.8665915151      -56.0852505138  TIP3      14187           0.0000000000
     94076     15547  TIP3      H2            -37.3908955449        1.8619413240      -56.0758035527  TIP3      14187           0.0000000000
     94077     15548  TIP3      OH2           -34.0239287179        2.7958034879      -58.0534960108  TIP3      14188           0.0000000000
     94078     15548  TIP3      H1            -33.0674357099        2.8974246289      -57.8799728817  TIP3      14188           0.0000000000
     94079     15548  TIP3      H2            -34.2634397044        3.4624378261      -58.7226764315  TIP3      14188           0.0000000000
     94080     15549  TIP3      OH2           -28.0636141217        0.4123245748      -51.2779403874  TIP3      14189           0.0000000000
     94081     15549  TIP3      H1            -28.7631468668        0.4739685176      -50.5973979708  TIP3      14189           0.0000000000
     94082     15549  TIP3      H2            -28.5595315845        0.1679770080      -52.0777972555  TIP3      14189           0.0000000000
     94083     15550  TIP3      OH2           -35.2945474640        3.9242951511      -60.4573147736  TIP3      14190           0.0000000000
     94084     15550  TIP3      H1            -35.8458478643        3.6087489851      -61.1837091443  TIP3      14190           0.0000000000
     94085     15550  TIP3      H2            -34.4889873375        4.1866932513      -60.9260734683  TIP3      14190           0.0000000000
     94086     15551  TIP3      OH2           -31.1903957814        3.9318746259      -52.6625642938  TIP3      14191           0.0000000000
     94087     15551  TIP3      H1            -30.5892363603        3.3990486862      -53.1937012787  TIP3      14191           0.0000000000
     94088     15551  TIP3      H2            -31.3221349657        3.3809224625      -51.8827126218  TIP3      14191           0.0000000000
     94089     15552  TIP3      OH2           -36.2123404006        0.0886985305      -56.2267639425  TIP3      14192           0.0000000000
     94090     15552  TIP3      H1            -36.4989705455       -0.8428884617      -56.2354950823  TIP3      14192           0.0000000000
     94091     15552  TIP3      H2            -35.3972407204        0.0260769453      -56.7513983624  TIP3      14192           0.0000000000
     94092     15553  TIP3      OH2           -32.5411052431        2.2518053463      -50.2407822732  TIP3      14193           0.0000000000
     94093     15553  TIP3      H1            -33.3713698821        2.7698588984      -50.1957700533  TIP3      14193           0.0000000000
     94094     15553  TIP3      H2            -31.9741079048        2.6069164712      -49.5357897821  TIP3      14193           0.0000000000
     94095     15554  TIP3      OH2           -31.9490413366        8.4586940838      -58.5078590496  TIP3      14194           0.0000000000
     94096     15554  TIP3      H1            -32.7505204097        8.0155969510      -58.8633817106  TIP3      14194           0.0000000000
     94097     15554  TIP3      H2            -32.1826766142        8.5952636994      -57.5721249355  TIP3      14194           0.0000000000
     94098     15555  TIP3      OH2           -24.7612282692        7.6535952307      -49.7339077382  TIP3      14195           0.0000000000
     94099     15555  TIP3      H1            -24.2075883372        8.1634035204      -50.3536183853  TIP3      14195           0.0000000000
     94100     15555  TIP3      H2            -25.6267954936        7.7281533274      -50.1922510149  TIP3      14195           0.0000000000
     94101     15556  TIP3      OH2           -28.1023098876        1.2851556945      -60.3612886469  TIP3      14196           0.0000000000
     94102     15556  TIP3      H1            -29.0429182781        1.4449205495      -60.5295119914  TIP3      14196           0.0000000000
     94103     15556  TIP3      H2            -27.7956314524        2.1557807832      -60.0459553361  TIP3      14196           0.0000000000
     94104     15557  TIP3      OH2           -30.4821298859        8.7448412145      -47.3555636549  TIP3      14197           0.0000000000
     94105     15557  TIP3      H1            -30.7993725541        8.3426081701      -46.5478344077  TIP3      14197           0.0000000000
     94106     15557  TIP3      H2            -30.7043865414        9.6779769745      -47.2303060832  TIP3      14197           0.0000000000
     94107     15558  TIP3      OH2           -27.3763104330        3.2125555347      -58.6953732011  TIP3      14198           0.0000000000
     94108     15558  TIP3      H1            -26.4778575009        3.0797557321      -58.3348573408  TIP3      14198           0.0000000000
     94109     15558  TIP3      H2            -27.3036944449        4.0229383713      -59.2197889047  TIP3      14198           0.0000000000
     94110     15559  TIP3      OH2           -36.8377943419        7.8887395039      -52.7265305531  TIP3      14199           0.0000000000
     94111     15559  TIP3      H1            -36.1723080602        7.8029348565      -53.4293185527  TIP3      14199           0.0000000000
     94112     15559  TIP3      H2            -36.7904168754        7.0215091964      -52.2857791718  TIP3      14199           0.0000000000
     94113     15560  TIP3      OH2           -29.8490137450        9.9550404863      -59.4540567763  TIP3      14200           0.0000000000
     94114     15560  TIP3      H1            -30.2311817707       10.8053184900      -59.1506805279  TIP3      14200           0.0000000000
     94115     15560  TIP3      H2            -30.5963367547        9.3360366366      -59.3077666919  TIP3      14200           0.0000000000
     94116     15561  TIP3      OH2           -39.8705141062        6.2458518654      -47.4982339754  TIP3      14201           0.0000000000
     94117     15561  TIP3      H1            -39.6613200561        5.8394996346      -46.6511718068  TIP3      14201           0.0000000000
     94118     15561  TIP3      H2            -40.4956391865        5.6323958028      -47.9111971111  TIP3      14201           0.0000000000
     94119     15562  TIP3      OH2           -28.1973498113       11.1770344116      -47.3550146544  TIP3      14202           0.0000000000
     94120     15562  TIP3      H1            -29.1131490347       11.3812452136      -47.5985167587  TIP3      14202           0.0000000000
     94121     15562  TIP3      H2            -28.1819503864       11.4079148066      -46.4220106150  TIP3      14202           0.0000000000
     94122     15563  TIP3      OH2           -22.5298186678        3.3649590225      -58.9548680584  TIP3      14203           0.0000000000
     94123     15563  TIP3      H1            -23.0203867821        3.0182470029      -59.7090521707  TIP3      14203           0.0000000000
     94124     15563  TIP3      H2            -22.3957712505        4.2952567568      -59.2402393451  TIP3      14203           0.0000000000
     94125     15564  TIP3      OH2           -22.5355166737        9.0992628472      -46.1912554665  TIP3      14204           0.0000000000
     94126     15564  TIP3      H1            -23.3908339718        9.4647243160      -46.5377318800  TIP3      14204           0.0000000000
     94127     15564  TIP3      H2            -21.9763496361        9.1971506627      -46.9814304819  TIP3      14204           0.0000000000
     94128     15565  TIP3      OH2           -24.1833824990       12.1899334980      -58.5637097522  TIP3      14205           0.0000000000
     94129     15565  TIP3      H1            -24.5653784975       11.3713471087      -58.2234627233  TIP3      14205           0.0000000000
     94130     15565  TIP3      H2            -23.8980311344       11.9860263138      -59.4766848022  TIP3      14205           0.0000000000
     94131     15566  TIP3      OH2           -26.9968877521        7.0032395532      -51.4529719855  TIP3      14206           0.0000000000
     94132     15566  TIP3      H1            -27.9334468044        6.7939309609      -51.5815909792  TIP3      14206           0.0000000000
     94133     15566  TIP3      H2            -26.5638445088        6.2458404668      -51.8894886437  TIP3      14206           0.0000000000
     94134     15567  TIP3      OH2           -34.4736869967       11.3339767932      -55.3583388296  TIP3      14207           0.0000000000
     94135     15567  TIP3      H1            -33.9739237483       12.1382996509      -55.5657048409  TIP3      14207           0.0000000000
     94136     15567  TIP3      H2            -35.3534014914       11.5660116219      -55.6875199748  TIP3      14207           0.0000000000
     94137     15568  TIP3      OH2           -38.7963890050        6.1451238106      -60.7589115830  TIP3      14208           0.0000000000
     94138     15568  TIP3      H1            -38.1315095793        6.7795688528      -60.4285131993  TIP3      14208           0.0000000000
     94139     15568  TIP3      H2            -39.6239017099        6.5348818747      -60.4830744447  TIP3      14208           0.0000000000
     94140     15569  TIP3      OH2           -33.0630689474        8.9932180535      -55.8291797373  TIP3      14209           0.0000000000
     94141     15569  TIP3      H1            -33.3658577142        9.9205975071      -55.7608260118  TIP3      14209           0.0000000000
     94142     15569  TIP3      H2            -33.7938841127        8.5081304724      -55.3930618393  TIP3      14209           0.0000000000
     94143     15570  TIP3      OH2           -32.6159902358       13.1874851829      -49.4512864169  TIP3      14210           0.0000000000
     94144     15570  TIP3      H1            -32.1586376526       14.0011809112      -49.7108824969  TIP3      14210           0.0000000000
     94145     15570  TIP3      H2            -31.9979486775       12.8421662198      -48.7821162657  TIP3      14210           0.0000000000
     94146     15571  TIP3      OH2           -34.3794147165       13.9840129513      -56.3137140735  TIP3      14211           0.0000000000
     94147     15571  TIP3      H1            -35.3448762186       14.1241882907      -56.1704333940  TIP3      14211           0.0000000000
     94148     15571  TIP3      H2            -34.0161242768       14.8063807874      -55.9463233872  TIP3      14211           0.0000000000
     94149     15572  TIP3      OH2           -29.0673299596        9.1863736313      -49.8383313623  TIP3      14212           0.0000000000
     94150     15572  TIP3      H1            -29.4034918993        9.0041256185      -48.9394204951  TIP3      14212           0.0000000000
     94151     15572  TIP3      H2            -28.4223715559        8.4749015636      -49.9643391555  TIP3      14212           0.0000000000
     94152     15573  TIP3      OH2           -26.7987371183       10.2028905959      -60.6911362109  TIP3      14213           0.0000000000
     94153     15573  TIP3      H1            -26.4856076319        9.7745888297      -59.8701905075  TIP3      14213           0.0000000000
     94154     15573  TIP3      H2            -27.7560647639       10.0755486518      -60.6168611538  TIP3      14213           0.0000000000
     94155     15574  TIP3      OH2           -26.3492092228       13.7655254403      -47.2816300437  TIP3      14214           0.0000000000
     94156     15574  TIP3      H1            -26.9588347224       13.2526170540      -47.8300929283  TIP3      14214           0.0000000000
     94157     15574  TIP3      H2            -26.0650606725       14.4529028128      -47.9216512707  TIP3      14214           0.0000000000
     94158     15575  TIP3      OH2           -22.2818536629       14.6389385647      -60.4640281636  TIP3      14215           0.0000000000
     94159     15575  TIP3      H1            -21.5978079827       15.2759207115      -60.7270501061  TIP3      14215           0.0000000000
     94160     15575  TIP3      H2            -23.0010909501       15.2381694520      -60.1686577881  TIP3      14215           0.0000000000
     94161     15576  TIP3      OH2           -38.1878348600        1.0579483263      -47.9366198201  TIP3      14216           0.0000000000
     94162     15576  TIP3      H1            -39.0967321664        1.3831741395      -47.9644741554  TIP3      14216           0.0000000000
     94163     15576  TIP3      H2            -38.2957905867        0.1926644672      -47.5043790571  TIP3      14216           0.0000000000
     94164     15577  TIP3      OH2           -25.9600302759        8.8618282247      -58.4915402404  TIP3      14217           0.0000000000
     94165     15577  TIP3      H1            -26.2110905312        8.0911957919      -57.9407893514  TIP3      14217           0.0000000000
     94166     15577  TIP3      H2            -25.0202324563        8.9496185220      -58.2697548858  TIP3      14217           0.0000000000
     94167     15578  TIP3      OH2           -38.5976877932       12.7946151801      -49.4879012975  TIP3      14218           0.0000000000
     94168     15578  TIP3      H1            -38.2957195980       11.8704037630      -49.4932014007  TIP3      14218           0.0000000000
     94169     15578  TIP3      H2            -38.2927180304       13.1135389499      -48.6270502193  TIP3      14218           0.0000000000
     94170     15579  TIP3      OH2           -33.8748019798       10.8776715981      -59.8007498438  TIP3      14219           0.0000000000
     94171     15579  TIP3      H1            -33.5766152599       10.3299936449      -59.0612125756  TIP3      14219           0.0000000000
     94172     15579  TIP3      H2            -33.7511127113       11.7899982672      -59.4627513049  TIP3      14219           0.0000000000
     94173     15580  TIP3      OH2           -37.3675902667        8.1277267356      -59.3373374885  TIP3      14220           0.0000000000
     94174     15580  TIP3      H1            -38.0283759866        8.5103842697      -58.7144721107  TIP3      14220           0.0000000000
     94175     15580  TIP3      H2            -36.7882687215        8.8777369883      -59.5354333907  TIP3      14220           0.0000000000
     94176     15581  TIP3      OH2           -29.5390153653        0.8101182626      -48.9517038038  TIP3      14221           0.0000000000
     94177     15581  TIP3      H1            -28.7425473394        0.8118424367      -48.3976485388  TIP3      14221           0.0000000000
     94178     15581  TIP3      H2            -29.8549023806       -0.1083612169      -48.8423790102  TIP3      14221           0.0000000000
     94179     15582  TIP3      OH2           -28.7408537901        0.3747694338      -57.8672040584  TIP3      14222           0.0000000000
     94180     15582  TIP3      H1            -28.4960221031        0.8262670867      -58.7000062637  TIP3      14222           0.0000000000
     94181     15582  TIP3      H2            -28.1470418304        0.8120280555      -57.2447649063  TIP3      14222           0.0000000000
     94182     15583  TIP3      OH2           -31.0384710040       12.5403003254      -59.0547011165  TIP3      14223           0.0000000000
     94183     15583  TIP3      H1            -31.8656216392       13.0464743764      -59.0120567866  TIP3      14223           0.0000000000
     94184     15583  TIP3      H2            -30.5061601336       13.0319735676      -59.6880761059  TIP3      14223           0.0000000000
     94185     15584  TIP3      OH2           -31.5089862095        2.1136813818      -57.0720733604  TIP3      14224           0.0000000000
     94186     15584  TIP3      H1            -30.7186091435        2.6895198981      -57.0350602514  TIP3      14224           0.0000000000
     94187     15584  TIP3      H2            -31.7691814673        1.9843161675      -56.1418865418  TIP3      14224           0.0000000000
     94188     15585  TIP3      OH2           -31.0167262388        3.1296537868      -47.8249852784  TIP3      14225           0.0000000000
     94189     15585  TIP3      H1            -30.7256225006        3.7298539101      -47.1418153509  TIP3      14225           0.0000000000
     94190     15585  TIP3      H2            -30.3406706929        2.4157524234      -47.8465127090  TIP3      14225           0.0000000000
     94191     15586  TIP3      OH2           -30.6475175920       -0.8280333543      -56.1797992682  TIP3      14226           0.0000000000
     94192     15586  TIP3      H1            -30.9692191688       -0.1774521322      -55.5292454841  TIP3      14226           0.0000000000
     94193     15586  TIP3      H2            -29.9573647051       -0.2817769605      -56.6318264735  TIP3      14226           0.0000000000
     94194     15587  TIP3      OH2           -33.6872665410       13.5647634698      -59.0540899405  TIP3      14227           0.0000000000
     94195     15587  TIP3      H1            -33.5024051548       14.3905985656      -59.5479800926  TIP3      14227           0.0000000000
     94196     15587  TIP3      H2            -33.9170847983       13.9068010940      -58.1604382252  TIP3      14227           0.0000000000
     94197     15588  TIP3      OH2           -34.9769924937        0.2643234120      -59.4323164759  TIP3      14228           0.0000000000
     94198     15588  TIP3      H1            -35.0397416509        1.1824826930      -59.1089291191  TIP3      14228           0.0000000000
     94199     15588  TIP3      H2            -34.0657201843        0.0325903752      -59.1840162624  TIP3      14228           0.0000000000
     94200     15589  TIP3      OH2           -24.7725147146        1.0669777369      -46.9965685733  TIP3      14229           0.0000000000
     94201     15589  TIP3      H1            -25.7066693121        1.3047807671      -47.1543505341  TIP3      14229           0.0000000000
     94202     15589  TIP3      H2            -24.4734699934        0.9675903516      -47.9090338206  TIP3      14229           0.0000000000
     94203     15590  TIP3      OH2           -26.1642642673        4.7920912464      -53.0140307497  TIP3      14230           0.0000000000
     94204     15590  TIP3      H1            -26.9815563047        4.3459922317      -53.2978314594  TIP3      14230           0.0000000000
     94205     15590  TIP3      H2            -25.6815611545        4.1021884431      -52.4999423174  TIP3      14230           0.0000000000
     94206     15591  TIP3      OH2           -36.7417934939       10.7375426104      -60.4353661136  TIP3      14231           0.0000000000
     94207     15591  TIP3      H1            -36.0879889620       11.3639868616      -60.1055357103  TIP3      14231           0.0000000000
     94208     15591  TIP3      H2            -36.2289139388       10.2706840334      -61.1051361307  TIP3      14231           0.0000000000
     94209     15592  TIP3      OH2           -25.0935072482       14.0483448682      -51.3677233019  TIP3      14232           0.0000000000
     94210     15592  TIP3      H1            -25.1822497004       14.7414994359      -52.0469536541  TIP3      14232           0.0000000000
     94211     15592  TIP3      H2            -24.1337482307       14.1128008842      -51.1651026714  TIP3      14232           0.0000000000
     94212     15593  TIP3      OH2           -37.5592777998       -1.8488830277      -52.5717899432  TIP3      14233           0.0000000000
     94213     15593  TIP3      H1            -37.8205457759       -1.8120695421      -53.5167635649  TIP3      14233           0.0000000000
     94214     15593  TIP3      H2            -38.0526815812       -2.6425404398      -52.2897803562  TIP3      14233           0.0000000000
     94215     15594  TIP3      OH2           -38.6326083902       12.0913471950      -56.3825574934  TIP3      14234           0.0000000000
     94216     15594  TIP3      H1            -39.4926900659       12.5239888968      -56.4314099624  TIP3      14234           0.0000000000
     94217     15594  TIP3      H2            -38.1706704861       12.5736457443      -57.0839702958  TIP3      14234           0.0000000000
     94218     15595  TIP3      OH2           -26.0544909518       12.9689588004      -61.8971886106  TIP3      14235           0.0000000000
     94219     15595  TIP3      H1            -25.8029852013       12.1460423134      -61.4353519009  TIP3      14235           0.0000000000
     94220     15595  TIP3      H2            -25.2901597562       13.1547226734      -62.4526322428  TIP3      14235           0.0000000000
     94221     15596  TIP3      OH2           -27.1096740094        8.3796596099      -47.5063838307  TIP3      14236           0.0000000000
     94222     15596  TIP3      H1            -26.3231306048        8.9584747792      -47.4374870924  TIP3      14236           0.0000000000
     94223     15596  TIP3      H2            -27.8027362407        9.0126398173      -47.2701846618  TIP3      14236           0.0000000000
     94224     15597  TIP3      OH2           -33.9480440346        6.9000919340      -59.6615380582  TIP3      14237           0.0000000000
     94225     15597  TIP3      H1            -34.4700427487        6.3656511151      -59.0441556768  TIP3      14237           0.0000000000
     94226     15597  TIP3      H2            -33.6653549860        6.2236291982      -60.3212288026  TIP3      14237           0.0000000000
     94227     15598  TIP3      OH2           -34.7811768555        4.7547190737      -47.4402048086  TIP3      14238           0.0000000000
     94228     15598  TIP3      H1            -35.3732169531        5.4839601837      -47.1547734853  TIP3      14238           0.0000000000
     94229     15598  TIP3      H2            -34.4173005712        5.1384793629      -48.2653327247  TIP3      14238           0.0000000000
     94230     15599  TIP3      OH2           -32.9152719688        5.0907419609      -61.4706986001  TIP3      14239           0.0000000000
     94231     15599  TIP3      H1            -33.0108588833        4.9533745030      -62.4245389286  TIP3      14239           0.0000000000
     94232     15599  TIP3      H2            -31.9383773474        5.1992507210      -61.3688332258  TIP3      14239           0.0000000000
     94233     15600  TIP3      OH2           -34.4046795860        1.9937251013      -46.3341140539  TIP3      14240           0.0000000000
     94234     15600  TIP3      H1            -34.2565741034        1.2490135266      -46.9535469087  TIP3      14240           0.0000000000
     94235     15600  TIP3      H2            -34.6335951998        2.7222118703      -46.9292907825  TIP3      14240           0.0000000000
     94236     15601  TIP3      OH2           -33.9170858547        0.5073552111      -48.7351168387  TIP3      14241           0.0000000000
     94237     15601  TIP3      H1            -33.3914193117        0.8893869694      -49.4757612876  TIP3      14241           0.0000000000
     94238     15601  TIP3      H2            -34.7788618850        0.3428589203      -49.1906973364  TIP3      14241           0.0000000000
     94239     15602  TIP3      OH2           -32.3530200195        5.8838116253      -48.5034258215  TIP3      14242           0.0000000000
     94240     15602  TIP3      H1            -31.6033739624        5.7801479658      -49.1108961632  TIP3      14242           0.0000000000
     94241     15602  TIP3      H2            -32.7186394022        6.7378057172      -48.8268145824  TIP3      14242           0.0000000000
     94242     15603  TIP3      OH2           -33.0949639970       -2.0765804809      -48.3836926301  TIP3      14243           0.0000000000
     94243     15603  TIP3      H1            -33.3046616907       -1.1332459348      -48.4765590521  TIP3      14243           0.0000000000
     94244     15603  TIP3      H2            -33.8563923552       -2.4730848491      -48.8408384837  TIP3      14243           0.0000000000
     94245     15604  TIP3      OH2           -33.0638711366       15.8395869983      -60.4273473479  TIP3      14244           0.0000000000
     94246     15604  TIP3      H1            -32.0882469911       15.8923509329      -60.3368807045  TIP3      14244           0.0000000000
     94247     15604  TIP3      H2            -33.2379254241       16.4555818623      -61.1370434160  TIP3      14244           0.0000000000
     94248     15605  TIP3      OH2           -39.4622287869       10.3664036026      -60.9471827404  TIP3      14245           0.0000000000
     94249     15605  TIP3      H1            -38.5181257216       10.4908497917      -60.7100292839  TIP3      14245           0.0000000000
     94250     15605  TIP3      H2            -39.3902637831        9.7635785808      -61.6873558358  TIP3      14245           0.0000000000
     94251     15606  TIP3      OH2            40.7166076015       15.8232225997      -56.0129170760  TIP3      14246           0.0000000000
     94252     15606  TIP3      H1             39.9538322910       15.3469269523      -56.3682274215  TIP3      14246           0.0000000000
     94253     15606  TIP3      H2             40.9672184040       15.2029481775      -55.2941147544  TIP3      14246           0.0000000000
     94254     15607  TIP3      OH2           -39.8773456406       13.9249988843      -54.1221379047  TIP3      14247           0.0000000000
     94255     15607  TIP3      H1            -40.2384301947       13.0367220550      -53.9447202994  TIP3      14247           0.0000000000
     94256     15607  TIP3      H2            -39.6349619438       14.2557728823      -53.2337676324  TIP3      14247           0.0000000000
     94257     15608  TIP3      OH2           -22.3729959822       14.6918029282      -51.1447931460  TIP3      14248           0.0000000000
     94258     15608  TIP3      H1            -22.3474685365       14.8575208795      -50.1865830708  TIP3      14248           0.0000000000
     94259     15608  TIP3      H2            -21.6637406684       15.2698167423      -51.4403078596  TIP3      14248           0.0000000000
     94260     15609  TIP3      OH2           -22.7662480606       14.2910057877      -48.2694740959  TIP3      14249           0.0000000000
     94261     15609  TIP3      H1            -23.2559083685       13.5117189299      -48.5855703679  TIP3      14249           0.0000000000
     94262     15609  TIP3      H2            -22.2691995716       13.8616501513      -47.5458678999  TIP3      14249           0.0000000000
     94263     15610  TIP3      OH2           -23.0203726841        8.3223297489      -58.1139907755  TIP3      14250           0.0000000000
     94264     15610  TIP3      H1            -22.1774814769        8.7479829930      -57.8902690249  TIP3      14250           0.0000000000
     94265     15610  TIP3      H2            -23.0465434458        7.6299378407      -57.4150602361  TIP3      14250           0.0000000000
     94266     15611  TIP3      OH2           -22.6888805484        6.4347602129      -56.2318534920  TIP3      14251           0.0000000000
     94267     15611  TIP3      H1            -23.4130369237        5.9063693517      -55.8271612685  TIP3      14251           0.0000000000
     94268     15611  TIP3      H2            -22.0679992576        6.5414118126      -55.4762343292  TIP3      14251           0.0000000000
     94269     15612  TIP3      OH2           -22.9362781170        9.1004208830      -51.2683827596  TIP3      14252           0.0000000000
     94270     15612  TIP3      H1            -22.0992323610        8.7397447313      -51.6126636951  TIP3      14252           0.0000000000
     94271     15612  TIP3      H2            -22.7812089954       10.0571048448      -51.4076768636  TIP3      14252           0.0000000000
     94272     15613  TIP3      OH2           -24.3965567289       12.0150718077      -48.9628055301  TIP3      14253           0.0000000000
     94273     15613  TIP3      H1            -25.0696989333       12.3675196076      -48.3646045543  TIP3      14253           0.0000000000
     94274     15613  TIP3      H2            -24.9281757922       11.6081187527      -49.6759679524  TIP3      14253           0.0000000000
     94275     15614  TIP3      OH2           -22.4050686561        6.2370759680      -59.8441050913  TIP3      14254           0.0000000000
     94276     15614  TIP3      H1            -22.9676895255        6.5893195847      -60.5374270923  TIP3      14254           0.0000000000
     94277     15614  TIP3      H2            -22.4472138680        6.9480862929      -59.1711391526  TIP3      14254           0.0000000000
     94278     15615  TIP3      OH2           -24.8597430777        4.8911063402      -55.6637549674  TIP3      14255           0.0000000000
     94279     15615  TIP3      H1            -25.0044310500        3.9336977370      -55.6781565798  TIP3      14255           0.0000000000
     94280     15615  TIP3      H2            -25.1828725989        5.1089141624      -54.7720171662  TIP3      14255           0.0000000000
     94281     15616  TIP3      OH2           -39.8614899804        6.9466236254      -51.6109434348  TIP3      14256           0.0000000000
     94282     15616  TIP3      H1            -39.6660339558        6.9038908281      -52.5683165290  TIP3      14256           0.0000000000
     94283     15616  TIP3      H2            -38.9797713433        6.8282265144      -51.2126760091  TIP3      14256           0.0000000000
     94284     15617  TIP3      OH2           -23.9492259545        6.8305769873      -45.9704570828  TIP3      14257           0.0000000000
     94285     15617  TIP3      H1            -23.3639027774        6.1095154984      -45.7769057599  TIP3      14257           0.0000000000
     94286     15617  TIP3      H2            -23.3982703619        7.6384755415      -46.0157584274  TIP3      14257           0.0000000000
     94287     15618  TIP3      OH2           -24.7611807432        0.8822877329      -62.1972879983  TIP3      14258           0.0000000000
     94288     15618  TIP3      H1            -24.1695967206        0.4927623507      -61.5283000701  TIP3      14258           0.0000000000
     94289     15618  TIP3      H2            -25.6393789891        0.5413712327      -61.9849514124  TIP3      14258           0.0000000000
     94290     15619  TIP3      OH2           -25.1843931254        2.4750601443      -57.1938986253  TIP3      14259           0.0000000000
     94291     15619  TIP3      H1            -24.8716796975        1.5509015722      -57.0468772939  TIP3      14259           0.0000000000
     94292     15619  TIP3      H2            -24.3759209154        2.8719701991      -57.5490516952  TIP3      14259           0.0000000000
     94293     15620  TIP3      OH2           -24.5769135051        3.0270683665      -51.7613259237  TIP3      14260           0.0000000000
     94294     15620  TIP3      H1            -23.6055910304        3.2412041515      -51.7754369541  TIP3      14260           0.0000000000
     94295     15620  TIP3      H2            -24.7388324078        3.1487094910      -50.8128209797  TIP3      14260           0.0000000000
     94296     15621  TIP3      OH2           -24.4811882664        3.7595833569      -48.9633570389  TIP3      14261           0.0000000000
     94297     15621  TIP3      H1            -25.3594454368        4.0448160286      -48.6233265748  TIP3      14261           0.0000000000
     94298     15621  TIP3      H2            -24.0568552496        4.6156230045      -49.1971571101  TIP3      14261           0.0000000000
     94299     15622  TIP3      OH2           -24.5194740229       -0.2406826073      -57.1476630899  TIP3      14262           0.0000000000
     94300     15622  TIP3      H1            -24.2942391289       -0.6661984902      -56.2880993338  TIP3      14262           0.0000000000
     94301     15622  TIP3      H2            -25.1238455847       -0.8831181640      -57.5802624265  TIP3      14262           0.0000000000
     94302     15623  TIP3      OH2           -39.0551369827        0.5544632164      -52.5991463368  TIP3      14263           0.0000000000
     94303     15623  TIP3      H1            -38.5830213610       -0.2527404092      -52.3177528761  TIP3      14263           0.0000000000
     94304     15623  TIP3      H2            -38.5265200303        1.2524712082      -52.1990529068  TIP3      14263           0.0000000000
     94305     15624  TIP3      OH2           -40.7639665858        3.8110067722      -52.1718175654  TIP3      14264           0.0000000000
     94306     15624  TIP3      H1            -40.0331234843        3.2589638616      -52.4899046862  TIP3      14264           0.0000000000
     94307     15624  TIP3      H2            -40.2346359787        4.2988058047      -51.5148962972  TIP3      14264           0.0000000000
     94308     15625  TIP3      OH2           -22.6994380396       -0.1883293098      -60.5707893913  TIP3      14265           0.0000000000
     94309     15625  TIP3      H1            -22.2736586429       -0.8922205908      -61.0855490586  TIP3      14265           0.0000000000
     94310     15625  TIP3      H2            -21.9829093002        0.4713253373      -60.5662454907  TIP3      14265           0.0000000000
     94311     15626  TIP3      OH2           -40.2063560531       -0.2765185918      -57.4805169575  TIP3      14266           0.0000000000
     94312     15626  TIP3      H1            -41.1485411119       -0.1181669326      -57.7087060593  TIP3      14266           0.0000000000
     94313     15626  TIP3      H2            -39.7853784385        0.3441853306      -58.0871068711  TIP3      14266           0.0000000000
     94314     15627  TIP3      OH2           -25.6599900475       14.7968094069      -55.5310647059  TIP3      14267           0.0000000000
     94315     15627  TIP3      H1            -24.9739439405       14.4749934249      -56.1433098200  TIP3      14267           0.0000000000
     94316     15627  TIP3      H2            -25.1338934565       15.2787227763      -54.8768085717  TIP3      14267           0.0000000000
     94317     15628  TIP3      OH2            41.0776272858       -1.3111911863      -49.0607790284  TIP3      14268           0.0000000000
     94318     15628  TIP3      H1             40.4003282226       -1.7201545509      -48.5119251203  TIP3      14268           0.0000000000
     94319     15628  TIP3      H2             40.5155751830       -0.8103561014      -49.6723046453  TIP3      14268           0.0000000000
     94320     15629  TIP3      OH2           -35.3219797924       12.6670661547      -48.7653555965  TIP3      14269           0.0000000000
     94321     15629  TIP3      H1            -35.6611770978       13.5385447082      -49.0191521089  TIP3      14269           0.0000000000
     94322     15629  TIP3      H2            -34.3785173923       12.7772510298      -49.0199903340  TIP3      14269           0.0000000000
     94323     15630  TIP3      OH2           -30.9552328448       14.0476034057      -45.7900321533  TIP3      14270           0.0000000000
     94324     15630  TIP3      H1            -30.7774963912       13.7859694044      -44.8778509732  TIP3      14270           0.0000000000
     94325     15630  TIP3      H2            -30.0952800309       14.4081101709      -46.0700431632  TIP3      14270           0.0000000000
     94326     15631  TIP3      OH2           -28.7197000029       15.4250058644      -46.5688005188  TIP3      14271           0.0000000000
     94327     15631  TIP3      H1            -28.0053431654       14.8141783828      -46.7954817892  TIP3      14271           0.0000000000
     94328     15631  TIP3      H2            -28.3202042674       15.7643393982      -45.7461758958  TIP3      14271           0.0000000000
     94329     15632  TIP3      OH2           -23.6458586851       -1.9901630804      -47.5056709835  TIP3      14272           0.0000000000
     94330     15632  TIP3      H1            -24.5323670402       -1.7376636195      -47.8114301272  TIP3      14272           0.0000000000
     94331     15632  TIP3      H2            -23.5036423975       -2.8452340245      -47.9490319745  TIP3      14272           0.0000000000
     94332     15633  TIP3      OH2           -37.8608386264       15.9464651797      -48.7225782468  TIP3      14273           0.0000000000
     94333     15633  TIP3      H1            -38.6045255190       16.4112262695      -49.1386386029  TIP3      14273           0.0000000000
     94334     15633  TIP3      H2            -38.2365967706       15.7442200502      -47.8530607748  TIP3      14273           0.0000000000
     94335     15634  TIP3      OH2           -35.4117185125       15.5223761555      -49.6701171866  TIP3      14274           0.0000000000
     94336     15634  TIP3      H1            -36.2961097156       15.6708562951      -49.2546686682  TIP3      14274           0.0000000000
     94337     15634  TIP3      H2            -35.4810673785       16.0929333456      -50.4574791784  TIP3      14274           0.0000000000
     94338     15635  TIP3      OH2           -30.6938271044       15.4134875000      -50.5102558532  TIP3      14275           0.0000000000
     94339     15635  TIP3      H1            -31.1629775680       15.9730879873      -51.1478593469  TIP3      14275           0.0000000000
     94340     15635  TIP3      H2            -30.5696197881       16.0415843530      -49.7694556760  TIP3      14275           0.0000000000
     94341     15636  TIP3      OH2           -28.3956022265       14.2225584936      -49.5274527448  TIP3      14276           0.0000000000
     94342     15636  TIP3      H1            -29.2677615659       14.5043371731      -49.8431563840  TIP3      14276           0.0000000000
     94343     15636  TIP3      H2            -27.9425871298       15.0810756597      -49.5788401757  TIP3      14276           0.0000000000
     94344     15637  TIP3      OH2           -25.8189018275       15.8181866472      -49.2342721179  TIP3      14277           0.0000000000
     94345     15637  TIP3      H1            -25.8880179265       16.7720729425      -49.4725807916  TIP3      14277           0.0000000000
     94346     15637  TIP3      H2            -25.6093558744       15.4438052032      -50.1116410707  TIP3      14277           0.0000000000
     94347     15638  TIP3      OH2           -38.4377265508       14.5495761600      -51.8075549479  TIP3      14278           0.0000000000
     94348     15638  TIP3      H1            -38.4526360081       14.1380928205      -50.9219995527  TIP3      14278           0.0000000000
     94349     15638  TIP3      H2            -37.6042447558       14.2152807642      -52.1973991286  TIP3      14278           0.0000000000
     94350     15639  TIP3      OH2           -36.3589864170       13.2862000062      -53.1349146100  TIP3      14279           0.0000000000
     94351     15639  TIP3      H1            -36.5123876550       12.3446273082      -52.9256585151  TIP3      14279           0.0000000000
     94352     15639  TIP3      H2            -35.5013560751       13.4399927344      -52.6882905397  TIP3      14279           0.0000000000
     94353     15640  TIP3      OH2           -33.7471119998       13.7731105402      -52.2684548886  TIP3      14280           0.0000000000
     94354     15640  TIP3      H1            -33.5803764570       12.8497024738      -52.5349000340  TIP3      14280           0.0000000000
     94355     15640  TIP3      H2            -33.6894959229       13.7111787292      -51.3026447068  TIP3      14280           0.0000000000
     94356     15641  TIP3      OH2           -30.2804523806       -0.5789846501      -53.1310604704  TIP3      14281           0.0000000000
     94357     15641  TIP3      H1            -30.9576002486       -1.2204507386      -52.8574222218  TIP3      14281           0.0000000000
     94358     15641  TIP3      H2            -29.7287558648       -1.1098336983      -53.7177322013  TIP3      14281           0.0000000000
     94359     15642  TIP3      OH2           -25.1579961555       -2.5273712115      -53.0634761875  TIP3      14282           0.0000000000
     94360     15642  TIP3      H1            -24.5367950885       -1.9371583140      -53.5681853136  TIP3      14282           0.0000000000
     94361     15642  TIP3      H2            -26.0356648497       -2.1683380778      -53.3008570730  TIP3      14282           0.0000000000
     94362     15643  TIP3      OH2           -23.5301985330       -1.3580344263      -54.7840303153  TIP3      14283           0.0000000000
     94363     15643  TIP3      H1            -22.7885829584       -1.8638304960      -55.1933621912  TIP3      14283           0.0000000000
     94364     15643  TIP3      H2            -23.0242197451       -0.5011097573      -54.6801907648  TIP3      14283           0.0000000000
     94365     15644  TIP3      OH2           -37.9193573454       -1.9696241640      -55.2876847437  TIP3      14284           0.0000000000
     94366     15644  TIP3      H1            -38.7287637841       -2.1748315104      -55.7958955190  TIP3      14284           0.0000000000
     94367     15644  TIP3      H2            -37.4331594634       -2.8132415160      -55.3480244045  TIP3      14284           0.0000000000
     94368     15645  TIP3      OH2           -39.0972681730       -2.2126645595      -59.5039214960  TIP3      14285           0.0000000000
     94369     15645  TIP3      H1            -38.6681315914       -1.5772225024      -60.1103726820  TIP3      14285           0.0000000000
     94370     15645  TIP3      H2            -39.7449416085       -1.6789093308      -59.0315287016  TIP3      14285           0.0000000000
     94371     15646  TIP3      OH2           -33.4344472990       -2.0276662424      -55.5009417896  TIP3      14286           0.0000000000
     94372     15646  TIP3      H1            -32.5345581225       -1.6669247155      -55.5674580145  TIP3      14286           0.0000000000
     94373     15646  TIP3      H2            -33.4752016704       -2.2459405841      -54.5701590923  TIP3      14286           0.0000000000
     94374     15647  TIP3      OH2           -27.7329586039       -2.0080968713      -53.8696583991  TIP3      14287           0.0000000000
     94375     15647  TIP3      H1            -27.7738279136       -1.8994491100      -54.8262875396  TIP3      14287           0.0000000000
     94376     15647  TIP3      H2            -28.1061754269       -2.9152777629      -53.7465263860  TIP3      14287           0.0000000000
     94377     15648  TIP3      OH2           -26.4478644947       -1.9717761478      -58.2138551391  TIP3      14288           0.0000000000
     94378     15648  TIP3      H1            -27.1995228250       -1.3822662488      -58.3697546190  TIP3      14288           0.0000000000
     94379     15648  TIP3      H2            -26.8743025168       -2.8249449604      -57.9783575668  TIP3      14288           0.0000000000
     94380     15649  TIP3      OH2           -39.2494632919       13.7697476782      -58.5127310543  TIP3      14289           0.0000000000
     94381     15649  TIP3      H1            -39.8569564709       13.7600115785      -59.2596499736  TIP3      14289           0.0000000000
     94382     15649  TIP3      H2            -39.1682711028       14.7210001524      -58.3936325453  TIP3      14289           0.0000000000
     94383     15650  TIP3      OH2           -37.3292002949       -0.2954733265      -61.0188907984  TIP3      14290           0.0000000000
     94384     15650  TIP3      H1            -36.7993262073       -0.8652985498      -61.5847371231  TIP3      14290           0.0000000000
     94385     15650  TIP3      H2            -36.6203874908        0.0699114843      -60.4635857452  TIP3      14290           0.0000000000
     94386     15651  TIP3      OH2           -32.2641724477       -0.0051328521      -58.6490018501  TIP3      14291           0.0000000000
     94387     15651  TIP3      H1            -32.0286184739       -0.5854175753      -57.9055961448  TIP3      14291           0.0000000000
     94388     15651  TIP3      H2            -32.2249948280        0.8555031436      -58.1715951772  TIP3      14291           0.0000000000
     94389     15652  TIP3      OH2           -30.3937817332       15.0899572658      -60.2434748717  TIP3      14292           0.0000000000
     94390     15652  TIP3      H1            -29.4452689193       15.2851039909      -60.3765104452  TIP3      14292           0.0000000000
     94391     15652  TIP3      H2            -30.5501971560       14.5257309902      -61.0095039300  TIP3      14292           0.0000000000
     94392     15653  TIP3      OH2           -23.6506518091       14.5669805537      -57.4876264121  TIP3      14293           0.0000000000
     94393     15653  TIP3      H1            -23.8542629899       13.7885556131      -58.0648435041  TIP3      14293           0.0000000000
     94394     15653  TIP3      H2            -23.7387243315       15.3008187443      -58.1253301883  TIP3      14293           0.0000000000
     94395     15654  TIP3      OH2           -38.1906229570       -1.7650357248      -46.0891429383  TIP3      14294           0.0000000000
     94396     15654  TIP3      H1            -38.5130518683       -2.3507910108      -45.3920887687  TIP3      14294           0.0000000000
     94397     15654  TIP3      H2            -37.3278337061       -1.5959929381      -45.7081611862  TIP3      14294           0.0000000000
     94398     15655  TIP3      OH2           -37.4085933003       14.7033252795      -61.5792676357  TIP3      14295           0.0000000000
     94399     15655  TIP3      H1            -37.6807228528       15.0249513070      -60.7142907541  TIP3      14295           0.0000000000
     94400     15655  TIP3      H2            -36.6212431206       14.1966839544      -61.4083636903  TIP3      14295           0.0000000000
     94401     15656  TIP3      OH2            -9.9620705639        7.1951942636      -55.4259722546  TIP3      14296           0.0000000000
     94402     15656  TIP3      H1             -9.9758402039        8.1744792155      -55.4676870510  TIP3      14296           0.0000000000
     94403     15656  TIP3      H2            -10.6885566700        6.9523968417      -56.0264092100  TIP3      14296           0.0000000000
     94404     15657  TIP3      OH2           -11.0981096699        6.4419729307      -51.9284845776  TIP3      14297           0.0000000000
     94405     15657  TIP3      H1            -11.1208619934        5.7889585087      -51.2170066962  TIP3      14297           0.0000000000
     94406     15657  TIP3      H2            -11.4605393054        5.9459306396      -52.6801034614  TIP3      14297           0.0000000000
     94407     15658  TIP3      OH2           -18.7713352620        6.1569594355      -50.3282487577  TIP3      14298           0.0000000000
     94408     15658  TIP3      H1            -18.6555845665        5.4300342137      -49.6834610640  TIP3      14298           0.0000000000
     94409     15658  TIP3      H2            -17.9886187625        6.6968260573      -50.1564810237  TIP3      14298           0.0000000000
     94410     15659  TIP3      OH2            -7.4217070420        9.3927227356      -53.6434444693  TIP3      14299           0.0000000000
     94411     15659  TIP3      H1             -7.8420522095        8.6808549145      -53.1547868168  TIP3      14299           0.0000000000
     94412     15659  TIP3      H2             -7.4016055002       10.0988806636      -52.9701285894  TIP3      14299           0.0000000000
     94413     15660  TIP3      OH2           -17.8345712231       10.5567566658      -51.8788343315  TIP3      14300           0.0000000000
     94414     15660  TIP3      H1            -18.1464852778        9.6826368825      -52.1921018821  TIP3      14300           0.0000000000
     94415     15660  TIP3      H2            -16.8813655038       10.3680500505      -51.8111901177  TIP3      14300           0.0000000000
     94416     15661  TIP3      OH2           -21.1777117751        4.1231050613      -56.4164370243  TIP3      14301           0.0000000000
     94417     15661  TIP3      H1            -21.6161358120        4.9897292479      -56.4163341595  TIP3      14301           0.0000000000
     94418     15661  TIP3      H2            -21.7650338488        3.5879319094      -56.9586804822  TIP3      14301           0.0000000000
     94419     15662  TIP3      OH2           -20.5451602093        6.4282067241      -54.3060453424  TIP3      14302           0.0000000000
     94420     15662  TIP3      H1            -20.2332863586        5.6345095632      -53.8050864819  TIP3      14302           0.0000000000
     94421     15662  TIP3      H2            -19.7868213046        6.4739477641      -54.9059001868  TIP3      14302           0.0000000000
     94422     15663  TIP3      OH2           -10.3259696992       14.5370139322      -53.4193473586  TIP3      14303           0.0000000000
     94423     15663  TIP3      H1             -9.6595861359       13.8568270262      -53.6921191310  TIP3      14303           0.0000000000
     94424     15663  TIP3      H2            -10.5178586584       14.2214470891      -52.5360906818  TIP3      14303           0.0000000000
     94425     15664  TIP3      OH2           -12.7383525201        8.8430156294      -51.4616729158  TIP3      14304           0.0000000000
     94426     15664  TIP3      H1            -12.3946145267        8.2141914959      -52.1136857838  TIP3      14304           0.0000000000
     94427     15664  TIP3      H2            -11.9332872767        8.9976359109      -50.9313041237  TIP3      14304           0.0000000000
     94428     15665  TIP3      OH2            -4.1269056206        0.5030929924      -50.7140919398  TIP3      14305           0.0000000000
     94429     15665  TIP3      H1             -3.9580327901        1.0832794266      -49.9447420714  TIP3      14305           0.0000000000
     94430     15665  TIP3      H2             -3.5659549960        0.9293428010      -51.3777504997  TIP3      14305           0.0000000000
     94431     15666  TIP3      OH2            -9.5891307994        3.2974400247      -51.1284111187  TIP3      14306           0.0000000000
     94432     15666  TIP3      H1             -9.3966359138        2.3456957316      -51.1383126964  TIP3      14306           0.0000000000
     94433     15666  TIP3      H2             -9.6755842494        3.4520729625      -52.0909119324  TIP3      14306           0.0000000000
     94434     15667  TIP3      OH2           -16.6581000609        1.3379244801      -53.6231158710  TIP3      14307           0.0000000000
     94435     15667  TIP3      H1            -16.3476309822        2.0882558543      -54.1612996009  TIP3      14307           0.0000000000
     94436     15667  TIP3      H2            -16.8239704435        0.7941715605      -54.4135333614  TIP3      14307           0.0000000000
     94437     15668  TIP3      OH2            -8.6844903745        1.4179872379      -55.5875340846  TIP3      14308           0.0000000000
     94438     15668  TIP3      H1             -8.0613926612        1.2075856229      -54.8596141555  TIP3      14308           0.0000000000
     94439     15668  TIP3      H2             -8.1747315748        2.0773784679      -56.0907953227  TIP3      14308           0.0000000000
     94440     15669  TIP3      OH2           -19.1340935202        4.5695305716      -53.2526927763  TIP3      14309           0.0000000000
     94441     15669  TIP3      H1            -19.1133553260        3.7243748925      -52.7488044602  TIP3      14309           0.0000000000
     94442     15669  TIP3      H2            -19.6157194575        3.9954784161      -53.9258417533  TIP3      14309           0.0000000000
     94443     15670  TIP3      OH2           -14.6668792814        5.3705643808      -53.8600572964  TIP3      14310           0.0000000000
     94444     15670  TIP3      H1            -14.0087246825        4.7659157855      -53.4830711560  TIP3      14310           0.0000000000
     94445     15670  TIP3      H2            -15.2053286862        4.7332628522      -54.3872841609  TIP3      14310           0.0000000000
     94446     15671  TIP3      OH2            -3.6543052321        1.9760870392      -48.4674635302  TIP3      14311           0.0000000000
     94447     15671  TIP3      H1             -4.3447476628        2.6635634592      -48.5792525548  TIP3      14311           0.0000000000
     94448     15671  TIP3      H2             -3.6891239819        1.7968903454      -47.5173602853  TIP3      14311           0.0000000000
     94449     15672  TIP3      OH2           -17.5332408035        0.2766189474      -49.9000134582  TIP3      14312           0.0000000000
     94450     15672  TIP3      H1            -17.8287352033        0.8641585662      -50.6317012239  TIP3      14312           0.0000000000
     94451     15672  TIP3      H2            -18.2208796029        0.5205025818      -49.2403494704  TIP3      14312           0.0000000000
     94452     15673  TIP3      OH2           -10.2614220957        9.7880686656      -56.3332295831  TIP3      14313           0.0000000000
     94453     15673  TIP3      H1            -10.5516013854        9.5012802733      -57.2089069532  TIP3      14313           0.0000000000
     94454     15673  TIP3      H2            -10.5629834427       10.7190365168      -56.2937944710  TIP3      14313           0.0000000000
     94455     15674  TIP3      OH2           -15.0479648326        7.9432594216      -49.6385852104  TIP3      14314           0.0000000000
     94456     15674  TIP3      H1            -15.7444417757        8.5917907573      -49.4121073833  TIP3      14314           0.0000000000
     94457     15674  TIP3      H2            -14.3310072495        8.5345641241      -49.9219302098  TIP3      14314           0.0000000000
     94458     15675  TIP3      OH2            -6.8759222759        0.7712889311      -53.5943406555  TIP3      14315           0.0000000000
     94459     15675  TIP3      H1             -7.1514154777        0.0816046721      -52.9845639793  TIP3      14315           0.0000000000
     94460     15675  TIP3      H2             -6.2596864973        1.2771677163      -53.0265262370  TIP3      14315           0.0000000000
     94461     15676  TIP3      OH2           -17.9662048555        2.1866501480      -51.6681485587  TIP3      14316           0.0000000000
     94462     15676  TIP3      H1            -17.3137336842        2.8920195502      -51.5299472137  TIP3      14316           0.0000000000
     94463     15676  TIP3      H2            -17.5849257556        1.7855071174      -52.5024111484  TIP3      14316           0.0000000000
     94464     15677  TIP3      OH2           -16.5908929502        9.9572383340      -48.8091041121  TIP3      14317           0.0000000000
     94465     15677  TIP3      H1            -16.6362824091       10.8713732849      -49.1529464968  TIP3      14317           0.0000000000
     94466     15677  TIP3      H2            -17.4818164671        9.8826999012      -48.3953508554  TIP3      14317           0.0000000000
     94467     15678  TIP3      OH2           -20.5284534187        9.5456351484      -58.0570452270  TIP3      14318           0.0000000000
     94468     15678  TIP3      H1            -20.7488272754        9.8951311471      -58.9410814881  TIP3      14318           0.0000000000
     94469     15678  TIP3      H2            -20.4643529373       10.3674512022      -57.5281019359  TIP3      14318           0.0000000000
     94470     15679  TIP3      OH2            -6.8959035479       11.2235239031      -51.2945415942  TIP3      14319           0.0000000000
     94471     15679  TIP3      H1             -7.8603135635       11.3357705599      -51.1474076269  TIP3      14319           0.0000000000
     94472     15679  TIP3      H2             -6.6226593189       12.1464769227      -51.4632575869  TIP3      14319           0.0000000000
     94473     15680  TIP3      OH2            -6.5782736007       -0.4605161994      -49.8406916865  TIP3      14320           0.0000000000
     94474     15680  TIP3      H1             -7.3152419397        0.1494471356      -49.9839523916  TIP3      14320           0.0000000000
     94475     15680  TIP3      H2             -5.8643969460       -0.0605473442      -50.3754700765  TIP3      14320           0.0000000000
     94476     15681  TIP3      OH2           -13.6073964907       -2.3722280361      -52.4348881320  TIP3      14321           0.0000000000
     94477     15681  TIP3      H1            -13.7473571563       -3.3379914802      -52.4795579290  TIP3      14321           0.0000000000
     94478     15681  TIP3      H2            -14.4805218918       -2.0559605727      -52.1218974887  TIP3      14321           0.0000000000
     94479     15682  TIP3      OH2            -8.6359763307       13.0115985270      -54.6843025195  TIP3      14322           0.0000000000
     94480     15682  TIP3      H1             -8.2065240428       12.2930718170      -55.1920316361  TIP3      14322           0.0000000000
     94481     15682  TIP3      H2             -8.2072246114       13.8022142636      -55.0736760443  TIP3      14322           0.0000000000
     94482     15683  TIP3      OH2            -7.4239421031       10.9385627292      -56.1728020322  TIP3      14323           0.0000000000
     94483     15683  TIP3      H1             -7.7221821018       10.2472328342      -56.7862413172  TIP3      14323           0.0000000000
     94484     15683  TIP3      H2             -7.3951257811       10.4462352749      -55.3314671571  TIP3      14323           0.0000000000
     94485     15684  TIP3      OH2            -5.7715102973        9.5280286825      -47.6785117913  TIP3      14324           0.0000000000
     94486     15684  TIP3      H1             -5.6752265590        8.9009289494      -48.4271620304  TIP3      14324           0.0000000000
     94487     15684  TIP3      H2             -5.5957523062       10.3892206040      -48.0975249126  TIP3      14324           0.0000000000
     94488     15685  TIP3      OH2           -11.3011816122        6.4301776854      -57.9291160252  TIP3      14325           0.0000000000
     94489     15685  TIP3      H1            -12.0164220966        6.9943227351      -58.2942707333  TIP3      14325           0.0000000000
     94490     15685  TIP3      H2            -10.6035804068        6.5261795679      -58.5963552407  TIP3      14325           0.0000000000
     94491     15686  TIP3      OH2           -11.2526081175        4.9496949689      -60.8291287363  TIP3      14326           0.0000000000
     94492     15686  TIP3      H1            -10.5202242442        4.9631178201      -60.1965287035  TIP3      14326           0.0000000000
     94493     15686  TIP3      H2            -10.9431957590        4.2963999394      -61.4600926712  TIP3      14326           0.0000000000
     94494     15687  TIP3      OH2            -3.9168626374        5.8186430499      -49.6399850146  TIP3      14327           0.0000000000
     94495     15687  TIP3      H1             -4.5669756373        6.5510753906      -49.5678521827  TIP3      14327           0.0000000000
     94496     15687  TIP3      H2             -3.4297836261        6.0751298514      -50.4460625696  TIP3      14327           0.0000000000
     94497     15688  TIP3      OH2            -7.8731880940        6.6093021809      -56.9953191361  TIP3      14328           0.0000000000
     94498     15688  TIP3      H1             -8.6038145190        6.8800813912      -56.3824190862  TIP3      14328           0.0000000000
     94499     15688  TIP3      H2             -7.3942517188        5.9629277086      -56.4433633673  TIP3      14328           0.0000000000
     94500     15689  TIP3      OH2            -7.9682827896        4.7917023645      -47.8843240180  TIP3      14329           0.0000000000
     94501     15689  TIP3      H1             -7.9380723603        5.5919013480      -47.3476322998  TIP3      14329           0.0000000000
     94502     15689  TIP3      H2             -8.5816685998        5.1030423498      -48.5822854825  TIP3      14329           0.0000000000
     94503     15690  TIP3      OH2           -16.2500795700        7.2879651260      -55.0797753987  TIP3      14330           0.0000000000
     94504     15690  TIP3      H1            -16.5696246277        6.9005792716      -55.9316998802  TIP3      14330           0.0000000000
     94505     15690  TIP3      H2            -15.6523934139        6.5801309758      -54.7470995906  TIP3      14330           0.0000000000
     94506     15691  TIP3      OH2           -14.9265997161       10.6853410338      -52.3963924697  TIP3      14331           0.0000000000
     94507     15691  TIP3      H1            -14.9427926628       10.1476446495      -53.1962053088  TIP3      14331           0.0000000000
     94508     15691  TIP3      H2            -14.1486513795       10.3206393524      -51.9344563169  TIP3      14331           0.0000000000
     94509     15692  TIP3      OH2           -15.9118721576        6.0407772056      -51.4048470953  TIP3      14332           0.0000000000
     94510     15692  TIP3      H1            -15.3653801932        6.1562058776      -52.2075402589  TIP3      14332           0.0000000000
     94511     15692  TIP3      H2            -15.5313356512        6.7093029239      -50.7916776325  TIP3      14332           0.0000000000
     94512     15693  TIP3      OH2            -9.5066607030       11.6083103526      -50.6989018156  TIP3      14333           0.0000000000
     94513     15693  TIP3      H1             -9.8057368308       12.2548963988      -50.0538393734  TIP3      14333           0.0000000000
     94514     15693  TIP3      H2             -9.7587336247       10.7535295714      -50.2763976085  TIP3      14333           0.0000000000
     94515     15694  TIP3      OH2           -15.0051188885       10.4313256056      -46.6642290573  TIP3      14334           0.0000000000
     94516     15694  TIP3      H1            -15.3467296127       11.2454474194      -46.2523464784  TIP3      14334           0.0000000000
     94517     15694  TIP3      H2            -15.6314617993       10.2716675853      -47.4035951750  TIP3      14334           0.0000000000
     94518     15695  TIP3      OH2            -8.9725071927        5.8033618429      -59.3259922013  TIP3      14335           0.0000000000
     94519     15695  TIP3      H1             -8.4527757143        6.0136342879      -58.5061555077  TIP3      14335           0.0000000000
     94520     15695  TIP3      H2             -8.6008125221        6.3783435643      -59.9998034427  TIP3      14335           0.0000000000
     94521     15696  TIP3      OH2           -18.0520541733        6.6508262584      -47.5386520903  TIP3      14336           0.0000000000
     94522     15696  TIP3      H1            -17.9852147621        7.2730047752      -46.8143926884  TIP3      14336           0.0000000000
     94523     15696  TIP3      H2            -18.9722891568        6.7300198998      -47.8214462118  TIP3      14336           0.0000000000
     94524     15697  TIP3      OH2           -11.2721307489       12.5530468824      -55.8477393437  TIP3      14337           0.0000000000
     94525     15697  TIP3      H1            -10.8376856269       12.8617309756      -55.0452511452  TIP3      14337           0.0000000000
     94526     15697  TIP3      H2            -11.8223739192       13.3047945151      -56.0842229518  TIP3      14337           0.0000000000
     94527     15698  TIP3      OH2           -16.7765423758       12.4883209534      -45.9699395729  TIP3      14338           0.0000000000
     94528     15698  TIP3      H1            -16.7659909567       12.4248974707      -46.9416844793  TIP3      14338           0.0000000000
     94529     15698  TIP3      H2            -17.7165045299       12.4104009129      -45.7484971831  TIP3      14338           0.0000000000
     94530     15699  TIP3      OH2            -5.2845487919       -2.4213526810      -59.3719829051  TIP3      14339           0.0000000000
     94531     15699  TIP3      H1             -6.2502675207       -2.3211860612      -59.2442993070  TIP3      14339           0.0000000000
     94532     15699  TIP3      H2             -5.0447251293       -1.6098157018      -59.8620040816  TIP3      14339           0.0000000000
     94533     15700  TIP3      OH2           -17.2883238000        6.3469054269      -57.4771093836  TIP3      14340           0.0000000000
     94534     15700  TIP3      H1            -17.5877160804        7.1122334167      -57.9953787486  TIP3      14340           0.0000000000
     94535     15700  TIP3      H2            -17.9243423540        5.6544685628      -57.6857841547  TIP3      14340           0.0000000000
     94536     15701  TIP3      OH2            -4.1674862739       11.9063634688      -61.0457636499  TIP3      14341           0.0000000000
     94537     15701  TIP3      H1             -4.0290848747       12.8675149186      -60.9278588643  TIP3      14341           0.0000000000
     94538     15701  TIP3      H2             -3.2415450392       11.6162224008      -61.1286647667  TIP3      14341           0.0000000000
     94539     15702  TIP3      OH2           -21.1488686959        8.7473750877      -48.6144756763  TIP3      14342           0.0000000000
     94540     15702  TIP3      H1            -21.6316746237        8.6706710882      -49.4625146247  TIP3      14342           0.0000000000
     94541     15702  TIP3      H2            -21.1264493945        7.8031594112      -48.3606207404  TIP3      14342           0.0000000000
     94542     15703  TIP3      OH2           -21.4288986794       11.4822064663      -51.7798619031  TIP3      14343           0.0000000000
     94543     15703  TIP3      H1            -20.4704127993       11.3651232662      -51.8003536850  TIP3      14343           0.0000000000
     94544     15703  TIP3      H2            -21.5115568701       12.2931474425      -51.2646633895  TIP3      14343           0.0000000000
     94545     15704  TIP3      OH2            -3.1185096184       12.1568460829      -46.6416255322  TIP3      14344           0.0000000000
     94546     15704  TIP3      H1             -3.1799642034       11.2615562091      -46.2806445711  TIP3      14344           0.0000000000
     94547     15704  TIP3      H2             -3.7936625447       12.5372808842      -46.0473606870  TIP3      14344           0.0000000000
     94548     15705  TIP3      OH2           -12.2355377189       11.7148853625      -47.2388815398  TIP3      14345           0.0000000000
     94549     15705  TIP3      H1            -12.1671572430       12.5601819724      -46.7324904985  TIP3      14345           0.0000000000
     94550     15705  TIP3      H2            -13.1152688995       11.3749693644      -46.9987747864  TIP3      14345           0.0000000000
     94551     15706  TIP3      OH2           -11.8417472972       15.4662327669      -57.4613129140  TIP3      14346           0.0000000000
     94552     15706  TIP3      H1            -11.8542899415       15.4092410757      -58.4262089330  TIP3      14346           0.0000000000
     94553     15706  TIP3      H2            -11.7542737021       16.4262614012      -57.2735275978  TIP3      14346           0.0000000000
     94554     15707  TIP3      OH2           -18.1290917840       14.3226182942      -55.6444517308  TIP3      14347           0.0000000000
     94555     15707  TIP3      H1            -18.0138839315       13.9491959358      -54.7361195559  TIP3      14347           0.0000000000
     94556     15707  TIP3      H2            -19.0130248872       13.9456509759      -55.8326327945  TIP3      14347           0.0000000000
     94557     15708  TIP3      OH2            -8.7880775529       14.6648447865      -60.4763457885  TIP3      14348           0.0000000000
     94558     15708  TIP3      H1             -8.3078809577       13.9137241410      -60.8987730200  TIP3      14348           0.0000000000
     94559     15708  TIP3      H2             -8.6917865961       14.4273317702      -59.5324193603  TIP3      14348           0.0000000000
     94560     15709  TIP3      OH2            -9.0524080347       14.6195947518      -57.6719385989  TIP3      14349           0.0000000000
     94561     15709  TIP3      H1            -10.0046975724       14.6809438156      -57.4822976298  TIP3      14349           0.0000000000
     94562     15709  TIP3      H2             -8.7961926029       13.8754376038      -57.1045266444  TIP3      14349           0.0000000000
     94563     15710  TIP3      OH2           -18.8996560101       10.0414615615      -47.5942914488  TIP3      14350           0.0000000000
     94564     15710  TIP3      H1            -18.7385665334        9.6921941832      -46.7182546472  TIP3      14350           0.0000000000
     94565     15710  TIP3      H2            -19.7782605723        9.6816825259      -47.8636639767  TIP3      14350           0.0000000000
     94566     15711  TIP3      OH2           -16.2022330090       -1.4933442020      -51.6375769139  TIP3      14351           0.0000000000
     94567     15711  TIP3      H1            -17.0965850297       -1.5992091425      -52.0448586639  TIP3      14351           0.0000000000
     94568     15711  TIP3      H2            -16.3419736906       -0.6316612803      -51.2145480202  TIP3      14351           0.0000000000
     94569     15712  TIP3      OH2           -11.5963476007       -1.7688186368      -48.2862451131  TIP3      14352           0.0000000000
     94570     15712  TIP3      H1            -11.2047739450       -2.2016277842      -47.5096829578  TIP3      14352           0.0000000000
     94571     15712  TIP3      H2            -12.5666144541       -1.9298004776      -48.1500698430  TIP3      14352           0.0000000000
     94572     15713  TIP3      OH2            -8.4421218512        2.0278806650      -47.4841637313  TIP3      14353           0.0000000000
     94573     15713  TIP3      H1             -8.7645243769        1.8614859358      -46.5785303916  TIP3      14353           0.0000000000
     94574     15713  TIP3      H2             -8.4278624351        2.9941121779      -47.6053846990  TIP3      14353           0.0000000000
     94575     15714  TIP3      OH2           -11.9723371862        0.7950640981      -60.9650701992  TIP3      14354           0.0000000000
     94576     15714  TIP3      H1            -12.2646934182        0.7264228836      -60.0279471650  TIP3      14354           0.0000000000
     94577     15714  TIP3      H2            -12.2117806617       -0.0932398792      -61.2476617693  TIP3      14354           0.0000000000
     94578     15715  TIP3      OH2           -16.1022656674        3.5330662084      -50.3949039405  TIP3      14355           0.0000000000
     94579     15715  TIP3      H1            -16.8797564894        3.4794650788      -49.8003859090  TIP3      14355           0.0000000000
     94580     15715  TIP3      H2            -16.1909029506        4.4298137306      -50.7875040385  TIP3      14355           0.0000000000
     94581     15716  TIP3      OH2           -16.2821619161        4.0253437874      -55.6662697254  TIP3      14356           0.0000000000
     94582     15716  TIP3      H1            -17.0932422015        3.4662927411      -55.6335079089  TIP3      14356           0.0000000000
     94583     15716  TIP3      H2            -15.8039744100        3.4003085992      -56.2479761938  TIP3      14356           0.0000000000
     94584     15717  TIP3      OH2           -10.6120282360        4.1303618532      -56.7775701525  TIP3      14357           0.0000000000
     94585     15717  TIP3      H1            -11.0553044773        4.9363174749      -57.1247502464  TIP3      14357           0.0000000000
     94586     15717  TIP3      H2             -9.9495088557        3.9464351536      -57.4641201069  TIP3      14357           0.0000000000
     94587     15718  TIP3      OH2            -9.6069576898        3.6214754888      -53.9381392271  TIP3      14358           0.0000000000
     94588     15718  TIP3      H1             -9.8905840354        4.1821538519      -54.6810357768  TIP3      14358           0.0000000000
     94589     15718  TIP3      H2             -9.5324310433        2.7734052593      -54.4041260184  TIP3      14358           0.0000000000
     94590     15719  TIP3      OH2           -18.5241918645        3.8156566146      -48.6876871749  TIP3      14359           0.0000000000
     94591     15719  TIP3      H1            -18.4147914784        4.1437138868      -47.7801329427  TIP3      14359           0.0000000000
     94592     15719  TIP3      H2            -18.9059441016        2.9283041234      -48.5688396400  TIP3      14359           0.0000000000
     94593     15720  TIP3      OH2           -22.0330881774        0.6063997385      -54.9398256810  TIP3      14360           0.0000000000
     94594     15720  TIP3      H1            -21.4151946174        0.8703444306      -54.2047050746  TIP3      14360           0.0000000000
     94595     15720  TIP3      H2            -21.3599098072        0.4740765400      -55.6122917819  TIP3      14360           0.0000000000
     94596     15721  TIP3      OH2           -20.5783440650        1.6175721025      -59.3808752399  TIP3      14361           0.0000000000
     94597     15721  TIP3      H1            -20.1026633890        2.1874656964      -59.9989199313  TIP3      14361           0.0000000000
     94598     15721  TIP3      H2            -21.2549404687        2.2431972946      -59.0542019957  TIP3      14361           0.0000000000
     94599     15722  TIP3      OH2           -10.3746404485        5.1964459101      -49.3292817245  TIP3      14362           0.0000000000
     94600     15722  TIP3      H1            -10.0324074744        4.5337305436      -49.9639556606  TIP3      14362           0.0000000000
     94601     15722  TIP3      H2            -10.8867336686        4.6477721495      -48.7076690045  TIP3      14362           0.0000000000
     94602     15723  TIP3      OH2           -13.2912929623        1.1150979678      -54.3622432221  TIP3      14363           0.0000000000
     94603     15723  TIP3      H1            -14.2926178336        1.1656371427      -54.3863128272  TIP3      14363           0.0000000000
     94604     15723  TIP3      H2            -13.0681850625        1.0064763998      -53.4528623166  TIP3      14363           0.0000000000
     94605     15724  TIP3      OH2           -18.7130134778        2.8013039852      -55.8597661387  TIP3      14364           0.0000000000
     94606     15724  TIP3      H1            -19.6780473014        2.8565141115      -56.0160125091  TIP3      14364           0.0000000000
     94607     15724  TIP3      H2            -18.4856190550        1.8838822485      -56.0810713142  TIP3      14364           0.0000000000
     94608     15725  TIP3      OH2           -15.0118122911        2.7998354467      -58.5117420597  TIP3      14365           0.0000000000
     94609     15725  TIP3      H1            -14.2754616812        2.9344168439      -57.8774877834  TIP3      14365           0.0000000000
     94610     15725  TIP3      H2            -15.3909335652        3.6390109914      -58.7783404819  TIP3      14365           0.0000000000
     94611     15726  TIP3      OH2            -9.1934691465        0.4047745375      -51.3100987405  TIP3      14366           0.0000000000
     94612     15726  TIP3      H1             -9.8863289279        0.4683567030      -50.6156128854  TIP3      14366           0.0000000000
     94613     15726  TIP3      H2             -9.7280611467        0.1703561945      -52.0819540035  TIP3      14366           0.0000000000
     94614     15727  TIP3      OH2           -16.4958128107        3.9923055045      -60.4845235761  TIP3      14367           0.0000000000
     94615     15727  TIP3      H1            -16.9961219228        3.5788350950      -61.1947427338  TIP3      14367           0.0000000000
     94616     15727  TIP3      H2            -15.6379290190        4.1592672202      -60.9044655220  TIP3      14367           0.0000000000
     94617     15728  TIP3      OH2           -12.3107170283        3.9471179601      -52.6284671241  TIP3      14368           0.0000000000
     94618     15728  TIP3      H1            -11.7536386442        3.3913778875      -53.1877835777  TIP3      14368           0.0000000000
     94619     15728  TIP3      H2            -12.4812447817        3.3744425287      -51.8703945894  TIP3      14368           0.0000000000
     94620     15729  TIP3      OH2           -17.7206835155       -0.1958036236      -56.5274328046  TIP3      14369           0.0000000000
     94621     15729  TIP3      H1            -17.6347344412       -1.0891984089      -56.2067497664  TIP3      14369           0.0000000000
     94622     15729  TIP3      H2            -16.7667768857        0.0641412747      -56.6450752888  TIP3      14369           0.0000000000
     94623     15730  TIP3      OH2           -13.6843371615        2.2600093412      -50.2568395111  TIP3      14370           0.0000000000
     94624     15730  TIP3      H1            -14.5206204788        2.7676922698      -50.1771784812  TIP3      14370           0.0000000000
     94625     15730  TIP3      H2            -13.1392629663        2.6054694650      -49.5202415689  TIP3      14370           0.0000000000
     94626     15731  TIP3      OH2           -13.0930134214        8.4655198032      -58.5067884130  TIP3      14371           0.0000000000
     94627     15731  TIP3      H1            -13.8914053226        8.0077779742      -58.8653326941  TIP3      14371           0.0000000000
     94628     15731  TIP3      H2            -13.3294060861        8.5720749514      -57.5669226627  TIP3      14371           0.0000000000
     94629     15732  TIP3      OH2            -5.9047397831        7.6529378093      -49.7332323831  TIP3      14372           0.0000000000
     94630     15732  TIP3      H1             -5.3516004218        8.1630806653      -50.3528594283  TIP3      14372           0.0000000000
     94631     15732  TIP3      H2             -6.7704546509        7.7280973491      -50.1908883570  TIP3      14372           0.0000000000
     94632     15733  TIP3      OH2            -9.2405503729        1.2730549658      -60.3406795896  TIP3      14373           0.0000000000
     94633     15733  TIP3      H1            -10.1785688282        1.4380748648      -60.5268556703  TIP3      14373           0.0000000000
     94634     15733  TIP3      H2             -8.9330400110        2.1490117622      -60.0421690717  TIP3      14373           0.0000000000
     94635     15734  TIP3      OH2           -11.6022946272        8.7682342307      -47.3513154470  TIP3      14374           0.0000000000
     94636     15734  TIP3      H1            -11.9515738126        8.3281675277      -46.5698107058  TIP3      14374           0.0000000000
     94637     15734  TIP3      H2            -11.8525610020        9.6898889386      -47.2226303980  TIP3      14374           0.0000000000
     94638     15735  TIP3      OH2            -8.5140435722        3.2006208816      -58.6878854000  TIP3      14375           0.0000000000
     94639     15735  TIP3      H1             -7.6123147715        3.0938344416      -58.3370032532  TIP3      14375           0.0000000000
     94640     15735  TIP3      H2             -8.4548510620        4.0123726253      -59.2142618910  TIP3      14375           0.0000000000
     94641     15736  TIP3      OH2           -17.9860958893        7.8647338501      -52.7309824250  TIP3      14376           0.0000000000
     94642     15736  TIP3      H1            -17.3072640573        7.7921140663      -53.4303383714  TIP3      14376           0.0000000000
     94643     15736  TIP3      H2            -17.9526436873        6.9756128891      -52.3236067893  TIP3      14376           0.0000000000
     94644     15737  TIP3      OH2           -10.9948689430        9.9569243251      -59.4551742462  TIP3      14377           0.0000000000
     94645     15737  TIP3      H1            -11.3756283098       10.8050003839      -59.1469268392  TIP3      14377           0.0000000000
     94646     15737  TIP3      H2            -11.7425753701        9.3368798031      -59.3081490396  TIP3      14377           0.0000000000
     94647     15738  TIP3      OH2           -21.0356808640        6.3004692702      -47.4736654621  TIP3      14378           0.0000000000
     94648     15738  TIP3      H1            -20.7778222518        5.8499225960      -46.6535383845  TIP3      14378           0.0000000000
     94649     15738  TIP3      H2            -21.6108676259        5.6623069919      -47.9284223442  TIP3      14378           0.0000000000
     94650     15739  TIP3      OH2            -9.3405467787       11.1789029549      -47.3549316192  TIP3      14379           0.0000000000
     94651     15739  TIP3      H1            -10.2565351108       11.3808031392      -47.5984329425  TIP3      14379           0.0000000000
     94652     15739  TIP3      H2             -9.3266638593       11.4078915853      -46.4217244632  TIP3      14379           0.0000000000
     94653     15740  TIP3      OH2            -3.6677939032        3.3697809010      -58.9452635672  TIP3      14380           0.0000000000
     94654     15740  TIP3      H1             -4.1608400474        3.0199882398      -59.7007239004  TIP3      14380           0.0000000000
     94655     15740  TIP3      H2             -3.5371796164        4.2994325071      -59.2455627918  TIP3      14380           0.0000000000
     94656     15741  TIP3      OH2            -3.6785660091        9.1031048180      -46.2017513962  TIP3      14381           0.0000000000
     94657     15741  TIP3      H1             -4.5363778192        9.4654148648      -46.5422852296  TIP3      14381           0.0000000000
     94658     15741  TIP3      H2             -3.1196331192        9.1972148554      -46.9875428889  TIP3      14381           0.0000000000
     94659     15742  TIP3      OH2            -5.3300779439       12.1901296988      -58.5666987718  TIP3      14382           0.0000000000
     94660     15742  TIP3      H1             -5.7082121761       11.3707190121      -58.2243922738  TIP3      14382           0.0000000000
     94661     15742  TIP3      H2             -5.0420005402       11.9847533506      -59.4776247109  TIP3      14382           0.0000000000
     94662     15743  TIP3      OH2            -8.1360975788        7.0000563052      -51.4579008031  TIP3      14383           0.0000000000
     94663     15743  TIP3      H1             -9.0786818523        6.7853063671      -51.5736423008  TIP3      14383           0.0000000000
     94664     15743  TIP3      H2             -7.7029836679        6.2429338345      -51.8894929392  TIP3      14383           0.0000000000
     94665     15744  TIP3      OH2           -15.6266444917       11.3275973722      -55.3748807008  TIP3      14384           0.0000000000
     94666     15744  TIP3      H1            -15.1070227287       12.1235101430      -55.5409701077  TIP3      14384           0.0000000000
     94667     15744  TIP3      H2            -16.5158533453       11.5543980198      -55.6691441610  TIP3      14384           0.0000000000
     94668     15745  TIP3      OH2           -19.8845818196        6.2063024407      -60.8278946420  TIP3      14385           0.0000000000
     94669     15745  TIP3      H1            -19.2598600177        6.8167031122      -60.4044504968  TIP3      14385           0.0000000000
     94670     15745  TIP3      H2            -20.7542318767        6.4660757867      -60.4937501542  TIP3      14385           0.0000000000
     94671     15746  TIP3      OH2           -14.1932637558        8.9878104948      -55.8245619700  TIP3      14386           0.0000000000
     94672     15746  TIP3      H1            -14.5033850350        9.9084866189      -55.7452084978  TIP3      14386           0.0000000000
     94673     15746  TIP3      H2            -14.9240317044        8.5038398395      -55.3900815988  TIP3      14386           0.0000000000
     94674     15747  TIP3      OH2           -13.7526893321       13.1886240730      -49.4513351907  TIP3      14387           0.0000000000
     94675     15747  TIP3      H1            -13.2984602934       14.0012155949      -49.7097406444  TIP3      14387           0.0000000000
     94676     15747  TIP3      H2            -13.1389405416       12.8431500358      -48.7809970331  TIP3      14387           0.0000000000
     94677     15748  TIP3      OH2           -15.5625032804       14.0690914163      -56.4191829590  TIP3      14388           0.0000000000
     94678     15748  TIP3      H1            -16.4748495623       14.0868095402      -56.0370587687  TIP3      14388           0.0000000000
     94679     15748  TIP3      H2            -15.1383552323       14.8004304049      -55.9124671707  TIP3      14388           0.0000000000
     94680     15749  TIP3      OH2           -10.2159037804        9.1833094878      -49.8370826041  TIP3      14389           0.0000000000
     94681     15749  TIP3      H1            -10.5513275883        8.9993162402      -48.9367126424  TIP3      14389           0.0000000000
     94682     15749  TIP3      H2             -9.5680352224        8.4737707258      -49.9623533447  TIP3      14389           0.0000000000
     94683     15750  TIP3      OH2            -7.9437169351       10.2044324692      -60.6921522117  TIP3      14390           0.0000000000
     94684     15750  TIP3      H1             -7.6306330688        9.7750291898      -59.8710738519  TIP3      14390           0.0000000000
     94685     15750  TIP3      H2             -8.9011729692       10.0730024384      -60.6220755440  TIP3      14390           0.0000000000
     94686     15751  TIP3      OH2            -7.4931698415       13.7654524875      -47.2817071427  TIP3      14391           0.0000000000
     94687     15751  TIP3      H1             -8.1029254726       13.2525339938      -47.8300894373  TIP3      14391           0.0000000000
     94688     15751  TIP3      H2             -7.2090850797       14.4529113177      -47.9217244564  TIP3      14391           0.0000000000
     94689     15752  TIP3      OH2            -3.4183446053       14.6372592841      -60.4662460880  TIP3      14392           0.0000000000
     94690     15752  TIP3      H1             -2.7225766037       15.2722115793      -60.7111774619  TIP3      14392           0.0000000000
     94691     15752  TIP3      H2             -4.1380985950       15.2368343312      -60.1707969193  TIP3      14392           0.0000000000
     94692     15753  TIP3      OH2           -19.3306062101        1.0502431325      -47.9273523039  TIP3      14393           0.0000000000
     94693     15753  TIP3      H1            -20.2487186508        1.3650933052      -47.9842236288  TIP3      14393           0.0000000000
     94694     15753  TIP3      H2            -19.4310512290        0.1879916492      -47.4915585799  TIP3      14393           0.0000000000
     94695     15754  TIP3      OH2            -7.1071708145        8.8612372761      -58.4915956327  TIP3      14394           0.0000000000
     94696     15754  TIP3      H1             -7.3558552403        8.0911631244      -57.9409260813  TIP3      14394           0.0000000000
     94697     15754  TIP3      H2             -6.1643940467        8.9496878503      -58.2699141555  TIP3      14394           0.0000000000
     94698     15755  TIP3      OH2           -19.7170678489       12.8029883169      -49.5108988179  TIP3      14395           0.0000000000
     94699     15755  TIP3      H1            -19.4403249545       11.8757204615      -49.4996453961  TIP3      14395           0.0000000000
     94700     15755  TIP3      H2            -19.4851570789       13.1038083495      -48.6192201951  TIP3      14395           0.0000000000
     94701     15756  TIP3      OH2           -15.0452066587       10.8810121541      -59.7838565888  TIP3      14396           0.0000000000
     94702     15756  TIP3      H1            -14.7058937681       10.3070920644      -59.0804032009  TIP3      14396           0.0000000000
     94703     15756  TIP3      H2            -14.8491343602       11.7776235854      -59.4650895452  TIP3      14396           0.0000000000
     94704     15757  TIP3      OH2           -18.5096886814        8.1321990004      -59.3515670971  TIP3      14397           0.0000000000
     94705     15757  TIP3      H1            -19.1504307879        8.5291574657      -58.7253942879  TIP3      14397           0.0000000000
     94706     15757  TIP3      H2            -17.9211535164        8.8766589537      -59.5503250397  TIP3      14397           0.0000000000
     94707     15758  TIP3      OH2           -10.6400840414        0.7823015622      -48.9967476702  TIP3      14398           0.0000000000
     94708     15758  TIP3      H1             -9.9102716175        0.8239665889      -48.3660649603  TIP3      14398           0.0000000000
     94709     15758  TIP3      H2            -11.0123807995       -0.1025368842      -48.8309399249  TIP3      14398           0.0000000000
     94710     15759  TIP3      OH2            -9.8157011196        0.3345644982      -57.8698808746  TIP3      14399           0.0000000000
     94711     15759  TIP3      H1             -9.6593405451        0.8300297208      -58.7023211567  TIP3      14399           0.0000000000
     94712     15759  TIP3      H2             -9.3079602119        0.8645579764      -57.2441478126  TIP3      14399           0.0000000000
     94713     15760  TIP3      OH2           -12.1776621422       12.5384678387      -59.0540836477  TIP3      14400           0.0000000000
     94714     15760  TIP3      H1            -12.9946802130       13.0462020241      -59.0264939122  TIP3      14400           0.0000000000
     94715     15760  TIP3      H2            -11.6327708642       13.0165978529      -59.6934860036  TIP3      14400           0.0000000000
     94716     15761  TIP3      OH2           -12.5792180381        2.0996512827      -57.0909413151  TIP3      14401           0.0000000000
     94717     15761  TIP3      H1            -11.8368012745        2.7106226644      -57.0138268342  TIP3      14401           0.0000000000
     94718     15761  TIP3      H2            -12.9569165196        1.9762862423      -56.1925485533  TIP3      14401           0.0000000000
     94719     15762  TIP3      OH2           -12.0014422075        3.1905748765      -47.9470427025  TIP3      14402           0.0000000000
     94720     15762  TIP3      H1            -12.0395191631        3.6870994294      -47.1246404002  TIP3      14402           0.0000000000
     94721     15762  TIP3      H2            -11.4762136016        2.3965963496      -47.7762353103  TIP3      14402           0.0000000000
     94722     15763  TIP3      OH2           -11.7382789390       -0.8391762424      -56.1278319673  TIP3      14403           0.0000000000
     94723     15763  TIP3      H1            -12.1628035906       -0.1651512735      -55.5584670632  TIP3      14403           0.0000000000
     94724     15763  TIP3      H2            -11.1350823930       -0.2530878443      -56.6432122176  TIP3      14403           0.0000000000
     94725     15764  TIP3      OH2           -14.7898832513       13.5389559875      -59.0748965563  TIP3      14404           0.0000000000
     94726     15764  TIP3      H1            -14.5179857939       14.3396926404      -59.5915610482  TIP3      14404           0.0000000000
     94727     15764  TIP3      H2            -14.7794323302       13.8205027669      -58.1380524007  TIP3      14404           0.0000000000
     94728     15765  TIP3      OH2           -16.0949288931        0.2703726027      -59.4844248028  TIP3      14405           0.0000000000
     94729     15765  TIP3      H1            -16.1846010751        1.1589518937      -59.0721451726  TIP3      14405           0.0000000000
     94730     15765  TIP3      H2            -15.2164862087        0.0437000180      -59.1385753711  TIP3      14405           0.0000000000
     94731     15766  TIP3      OH2            -5.9167378245        1.0574865542      -47.0132447558  TIP3      14406           0.0000000000
     94732     15766  TIP3      H1             -6.8494954192        1.3059152197      -47.1546335894  TIP3      14406           0.0000000000
     94733     15766  TIP3      H2             -5.6201870306        0.9659467776      -47.9300723594  TIP3      14406           0.0000000000
     94734     15767  TIP3      OH2            -7.2958224293        4.7972160247      -53.0181612388  TIP3      14407           0.0000000000
     94735     15767  TIP3      H1             -8.1182826496        4.3545504907      -53.2973855887  TIP3      14407           0.0000000000
     94736     15767  TIP3      H2             -6.8204948939        4.1076131773      -52.5009868064  TIP3      14407           0.0000000000
     94737     15768  TIP3      OH2           -17.8806029608       10.7363703096      -60.4339252894  TIP3      14408           0.0000000000
     94738     15768  TIP3      H1            -17.2019101582       11.3319042111      -60.1117171691  TIP3      14408           0.0000000000
     94739     15768  TIP3      H2            -17.3902767557       10.2581144063      -61.1135531127  TIP3      14408           0.0000000000
     94740     15769  TIP3      OH2            -6.2362520855       14.0455454097      -51.3695048622  TIP3      14409           0.0000000000
     94741     15769  TIP3      H1             -6.3285952150       14.7433446891      -52.0441847685  TIP3      14409           0.0000000000
     94742     15769  TIP3      H2             -5.2767954467       14.1127297330      -51.1652549246  TIP3      14409           0.0000000000
     94743     15770  TIP3      OH2           -18.5753378090       -1.9907252129      -52.5950845479  TIP3      14410           0.0000000000
     94744     15770  TIP3      H1            -18.9285325872       -1.8133643691      -53.4993552759  TIP3      14410           0.0000000000
     94745     15770  TIP3      H2            -19.1923602235       -2.6821568462      -52.2888686316  TIP3      14410           0.0000000000
     94746     15771  TIP3      OH2           -19.7817905387       12.1201235352      -56.3887191218  TIP3      14411           0.0000000000
     94747     15771  TIP3      H1            -20.6522571949       12.5373933399      -56.4330153256  TIP3      14411           0.0000000000
     94748     15771  TIP3      H2            -19.3329517031       12.5634361239      -57.1117113741  TIP3      14411           0.0000000000
     94749     15772  TIP3      OH2            -7.1904646628       12.9705678855      -61.8903321437  TIP3      14412           0.0000000000
     94750     15772  TIP3      H1             -6.9430893791       12.1441261278      -61.4321408319  TIP3      14412           0.0000000000
     94751     15772  TIP3      H2             -6.4295908099       13.1522556198      -62.4521599607  TIP3      14412           0.0000000000
     94752     15773  TIP3      OH2            -8.2450607344        8.3904867334      -47.5146098638  TIP3      14413           0.0000000000
     94753     15773  TIP3      H1             -7.4574799240        8.9618372356      -47.4246958094  TIP3      14413           0.0000000000
     94754     15773  TIP3      H2             -8.9448288271        9.0143360028      -47.2701338938  TIP3      14413           0.0000000000
     94755     15774  TIP3      OH2           -15.0880685202        6.8927072772      -59.6482788437  TIP3      14414           0.0000000000
     94756     15774  TIP3      H1            -15.6139838445        6.3516390490      -59.0402837067  TIP3      14414           0.0000000000
     94757     15774  TIP3      H2            -14.8117514420        6.2244011948      -60.3192001044  TIP3      14414           0.0000000000
     94758     15775  TIP3      OH2           -15.8680731884        4.6817378044      -47.4147737330  TIP3      14415           0.0000000000
     94759     15775  TIP3      H1            -16.4395148469        5.4086149904      -47.1191953693  TIP3      14415           0.0000000000
     94760     15775  TIP3      H2            -15.4566421446        5.0623426642      -48.2076280599  TIP3      14415           0.0000000000
     94761     15776  TIP3      OH2           -14.0462552411        5.0875976622      -61.4701338934  TIP3      14416           0.0000000000
     94762     15776  TIP3      H1            -14.1478777529        4.9517572545      -62.4226599896  TIP3      14416           0.0000000000
     94763     15776  TIP3      H2            -13.0733479212        5.1970775701      -61.3644085017  TIP3      14416           0.0000000000
     94764     15777  TIP3      OH2           -15.5020085807        2.0758368541      -46.3152842487  TIP3      14417           0.0000000000
     94765     15777  TIP3      H1            -15.3579202139        1.3676468515      -46.9602030988  TIP3      14417           0.0000000000
     94766     15777  TIP3      H2            -15.5025134027        2.8924086181      -46.8553166807  TIP3      14417           0.0000000000
     94767     15778  TIP3      OH2           -15.0577452669        0.4276061904      -48.7765251220  TIP3      14418           0.0000000000
     94768     15778  TIP3      H1            -14.5404761135        0.9267951338      -49.4479690450  TIP3      14418           0.0000000000
     94769     15778  TIP3      H2            -15.9396277413        0.3526761997      -49.2085437761  TIP3      14418           0.0000000000
     94770     15779  TIP3      OH2           -13.4859638985        5.9151601575      -48.5351524013  TIP3      14419           0.0000000000
     94771     15779  TIP3      H1            -12.7314237971        5.7746068524      -49.1178957836  TIP3      14419           0.0000000000
     94772     15779  TIP3      H2            -13.8688189643        6.7540800180      -48.8425007638  TIP3      14419           0.0000000000
     94773     15780  TIP3      OH2           -14.2347971706       -2.0815585013      -48.3809892216  TIP3      14420           0.0000000000
     94774     15780  TIP3      H1            -14.4518254086       -1.1297977699      -48.4726190288  TIP3      14420           0.0000000000
     94775     15780  TIP3      H2            -14.9950149311       -2.4755505078      -48.8384347880  TIP3      14420           0.0000000000
     94776     15781  TIP3      OH2           -14.2275215110       15.8086740774      -60.4319951674  TIP3      14421           0.0000000000
     94777     15781  TIP3      H1            -13.2480591631       15.8967792156      -60.3357552004  TIP3      14421           0.0000000000
     94778     15781  TIP3      H2            -14.3807108092       16.4659078350      -61.1205860498  TIP3      14421           0.0000000000
     94779     15782  TIP3      OH2           -20.6347912795       10.3912732701      -60.9234007578  TIP3      14422           0.0000000000
     94780     15782  TIP3      H1            -19.6793156688       10.4645686894      -60.7134679983  TIP3      14422           0.0000000000
     94781     15782  TIP3      H2            -20.6137842440        9.7892471600      -61.6715196679  TIP3      14422           0.0000000000
     94782     15783  TIP3      OH2           -21.8608073319       15.7613288974      -55.9622269491  TIP3      14423           0.0000000000
     94783     15783  TIP3      H1            -22.5899443076       15.2865046736      -56.4211270880  TIP3      14423           0.0000000000
     94784     15783  TIP3      H2            -21.6093545594       15.1112819274      -55.2817121619  TIP3      14423           0.0000000000
     94785     15784  TIP3      OH2           -21.0528097948       13.8998150004      -54.0825949118  TIP3      14424           0.0000000000
     94786     15784  TIP3      H1            -21.4070275942       13.0229789632      -53.8782254673  TIP3      14424           0.0000000000
     94787     15784  TIP3      H2            -20.8296765168       14.2316555453      -53.1973486728  TIP3      14424           0.0000000000
     94788     15785  TIP3      OH2            -3.5171960210       14.6918826611      -51.1447352955  TIP3      14425           0.0000000000
     94789     15785  TIP3      H1             -3.4909017186       14.8574705219      -50.1865706078  TIP3      14425           0.0000000000
     94790     15785  TIP3      H2             -2.8075817742       15.2695548029      -51.4406799296  TIP3      14425           0.0000000000
     94791     15786  TIP3      OH2            -3.9098008132       14.2923382854      -48.2687534946  TIP3      14426           0.0000000000
     94792     15786  TIP3      H1             -4.4004003531       13.5108672461      -48.5858763198  TIP3      14426           0.0000000000
     94793     15786  TIP3      H2             -3.4132444991       13.8615302928      -47.5458690503  TIP3      14426           0.0000000000
     94794     15787  TIP3      OH2            -4.1633023131        8.3221615695      -58.1126680348  TIP3      14427           0.0000000000
     94795     15787  TIP3      H1             -3.3205829823        8.7513745695      -57.8918201023  TIP3      14427           0.0000000000
     94796     15787  TIP3      H2             -4.1891890106        7.6301659599      -57.4154404706  TIP3      14427           0.0000000000
     94797     15788  TIP3      OH2            -3.8192473148        6.4135530186      -56.2349806469  TIP3      14428           0.0000000000
     94798     15788  TIP3      H1             -4.5687651050        5.9183750647      -55.8323967110  TIP3      14428           0.0000000000
     94799     15788  TIP3      H2             -3.2236258707        6.5556176109      -55.4715185530  TIP3      14428           0.0000000000
     94800     15789  TIP3      OH2            -4.0768083973        9.0976059505      -51.2698066154  TIP3      14429           0.0000000000
     94801     15789  TIP3      H1             -3.2429319830        8.7332321629      -51.6145637899  TIP3      14429           0.0000000000
     94802     15789  TIP3      H2             -3.9226281177       10.0575280190      -51.4136585516  TIP3      14429           0.0000000000
     94803     15790  TIP3      OH2            -5.5408059087       12.0198425894      -48.9645887288  TIP3      14430           0.0000000000
     94804     15790  TIP3      H1             -6.2141288126       12.3671488675      -48.3643448304  TIP3      14430           0.0000000000
     94805     15790  TIP3      H2             -6.0718338161       11.6082332861      -49.6760047189  TIP3      14430           0.0000000000
     94806     15791  TIP3      OH2            -3.5501295173        6.2362059090      -59.8453468600  TIP3      14431           0.0000000000
     94807     15791  TIP3      H1             -4.1123747540        6.5892698651      -60.5386376607  TIP3      14431           0.0000000000
     94808     15791  TIP3      H2             -3.5911253412        6.9470117440      -59.1723345114  TIP3      14431           0.0000000000
     94809     15792  TIP3      OH2            -6.0027488199        4.8985874390      -55.6629705878  TIP3      14432           0.0000000000
     94810     15792  TIP3      H1             -6.1492553744        3.9450436002      -55.6746814487  TIP3      14432           0.0000000000
     94811     15792  TIP3      H2             -6.3308375550        5.1222594001      -54.7735015058  TIP3      14432           0.0000000000
     94812     15793  TIP3      OH2           -20.9927859936        7.0183458340      -51.5988509964  TIP3      14433           0.0000000000
     94813     15793  TIP3      H1            -20.8144131906        6.8747316360      -52.5517958149  TIP3      14433           0.0000000000
     94814     15793  TIP3      H2            -20.1127443967        6.7821787613      -51.2428503244  TIP3      14433           0.0000000000
     94815     15794  TIP3      OH2            -5.0988977091        6.8190375379      -46.0128623645  TIP3      14434           0.0000000000
     94816     15794  TIP3      H1             -4.5225329838        6.1084829479      -45.7632855856  TIP3      14434           0.0000000000
     94817     15794  TIP3      H2             -4.5511086245        7.6340168475      -46.0039103031  TIP3      14434           0.0000000000
     94818     15795  TIP3      OH2            -5.9050365648        0.8744575407      -62.2032307847  TIP3      14435           0.0000000000
     94819     15795  TIP3      H1             -5.3163011562        0.4919507292      -61.5305147945  TIP3      14435           0.0000000000
     94820     15795  TIP3      H2             -6.7872840818        0.5487445549      -61.9864468584  TIP3      14435           0.0000000000
     94821     15796  TIP3      OH2            -6.3261560277        2.4790660064      -57.1726749058  TIP3      14436           0.0000000000
     94822     15796  TIP3      H1             -6.0067885666        1.5574191401      -57.0839032090  TIP3      14436           0.0000000000
     94823     15796  TIP3      H2             -5.5455269473        2.8948695439      -57.5693824439  TIP3      14436           0.0000000000
     94824     15797  TIP3      OH2            -5.6969524465        3.0229352208      -51.7667585679  TIP3      14437           0.0000000000
     94825     15797  TIP3      H1             -4.7359488348        3.2518156521      -51.7688707591  TIP3      14437           0.0000000000
     94826     15797  TIP3      H2             -5.8826254227        3.1599914033      -50.8217978779  TIP3      14437           0.0000000000
     94827     15798  TIP3      OH2            -5.6267916057        3.7613680489      -48.9659535872  TIP3      14438           0.0000000000
     94828     15798  TIP3      H1             -6.5052799008        4.0438725971      -48.6225831151  TIP3      14438           0.0000000000
     94829     15798  TIP3      H2             -5.2021399421        4.6194479923      -49.1924474562  TIP3      14438           0.0000000000
     94830     15799  TIP3      OH2            -5.6405460646       -0.1421902379      -57.2398264593  TIP3      14439           0.0000000000
     94831     15799  TIP3      H1             -5.2610520886       -0.5203089261      -56.4193852916  TIP3      14439           0.0000000000
     94832     15799  TIP3      H2             -6.1988591709       -0.8009496789      -57.7106728057  TIP3      14439           0.0000000000
     94833     15800  TIP3      OH2           -20.2135436747       -0.0907547261      -52.0140642089  TIP3      14440           0.0000000000
     94834     15800  TIP3      H1            -19.4143731646       -0.5445640854      -52.2890717727  TIP3      14440           0.0000000000
     94835     15800  TIP3      H2            -19.9476295526        0.8354488793      -52.2570738581  TIP3      14440           0.0000000000
     94836     15801  TIP3      OH2           -21.9979083064        3.7101829748      -51.4412296508  TIP3      14441           0.0000000000
     94837     15801  TIP3      H1            -21.4841271980        3.2888943817      -52.1804005454  TIP3      14441           0.0000000000
     94838     15801  TIP3      H2            -21.3946155602        4.4315872048      -51.2502978111  TIP3      14441           0.0000000000
     94839     15802  TIP3      OH2            -3.8473896496       -0.2022196041      -60.5452633793  TIP3      14442           0.0000000000
     94840     15802  TIP3      H1             -3.4243933905       -0.8912530600      -61.0795353797  TIP3      14442           0.0000000000
     94841     15802  TIP3      H2             -3.1445328182        0.4706269862      -60.5700391318  TIP3      14442           0.0000000000
     94842     15803  TIP3      OH2           -21.5384082570       -0.2311187662      -57.5574234590  TIP3      14443           0.0000000000
     94843     15803  TIP3      H1            -22.4737669144        0.0270126277      -57.5740543137  TIP3      14443           0.0000000000
     94844     15803  TIP3      H2            -21.1182570689        0.3425040413      -58.2162818565  TIP3      14443           0.0000000000
     94845     15804  TIP3      OH2            -6.7933028927       14.7785135535      -55.5216515724  TIP3      14444           0.0000000000
     94846     15804  TIP3      H1             -6.1100351210       14.4736306245      -56.1447283565  TIP3      14444           0.0000000000
     94847     15804  TIP3      H2             -6.2737507537       15.2782242374      -54.8756679845  TIP3      14444           0.0000000000
     94848     15805  TIP3      OH2           -21.5859338780       -1.4928563948      -49.1885378919  TIP3      14445           0.0000000000
     94849     15805  TIP3      H1            -22.2552850440       -1.6969499268      -48.5022254827  TIP3      14445           0.0000000000
     94850     15805  TIP3      H2            -22.0292190623       -0.8174977552      -49.7468283749  TIP3      14445           0.0000000000
     94851     15806  TIP3      OH2           -16.4561436818       12.6591961019      -48.7743498529  TIP3      14446           0.0000000000
     94852     15806  TIP3      H1            -16.7924489746       13.5392208211      -49.0088722573  TIP3      14446           0.0000000000
     94853     15806  TIP3      H2            -15.5145883949       12.7761715398      -49.0254848148  TIP3      14446           0.0000000000
     94854     15807  TIP3      OH2           -12.0982571708       14.0459900607      -45.7922021965  TIP3      14447           0.0000000000
     94855     15807  TIP3      H1            -11.9221869048       13.7785047439      -44.8813776391  TIP3      14447           0.0000000000
     94856     15807  TIP3      H2            -11.2381433582       14.4086342443      -46.0678827682  TIP3      14447           0.0000000000
     94857     15808  TIP3      OH2            -9.8650327732       15.4228544242      -46.5686620472  TIP3      14448           0.0000000000
     94858     15808  TIP3      H1             -9.1489708278       14.8130982749      -46.7952283340  TIP3      14448           0.0000000000
     94859     15808  TIP3      H2             -9.4631677089       15.7646817831      -45.7466091970  TIP3      14448           0.0000000000
     94860     15809  TIP3      OH2            -4.7842253038       -1.9847352715      -47.5123840141  TIP3      14449           0.0000000000
     94861     15809  TIP3      H1             -5.6759428614       -1.7318582128      -47.7984169058  TIP3      14449           0.0000000000
     94862     15809  TIP3      H2             -4.6560193527       -2.8533563516      -47.9397854166  TIP3      14449           0.0000000000
     94863     15810  TIP3      OH2           -19.0237033445       15.9410640711      -48.7363640692  TIP3      14450           0.0000000000
     94864     15810  TIP3      H1            -19.7718391425       16.4202421823      -49.1159392969  TIP3      14450           0.0000000000
     94865     15810  TIP3      H2            -19.3485281826       15.7546350676      -47.8408537554  TIP3      14450           0.0000000000
     94866     15811  TIP3      OH2           -16.5559590302       15.5187162069      -49.6733884088  TIP3      14451           0.0000000000
     94867     15811  TIP3      H1            -17.4358327639       15.6713419261      -49.2532712656  TIP3      14451           0.0000000000
     94868     15811  TIP3      H2            -16.6214863847       16.0983164301      -50.4516717896  TIP3      14451           0.0000000000
     94869     15812  TIP3      OH2           -11.8349753337       15.4059537849      -50.5094643895  TIP3      14452           0.0000000000
     94870     15812  TIP3      H1            -12.3058769465       15.9635097363      -51.1476553850  TIP3      14452           0.0000000000
     94871     15812  TIP3      H2            -11.7144669734       16.0349320943      -49.7687547445  TIP3      14452           0.0000000000
     94872     15813  TIP3      OH2            -9.5389697758       14.2223926598      -49.5272632966  TIP3      14453           0.0000000000
     94873     15813  TIP3      H1            -10.4113408204       14.5041145859      -49.8431919012  TIP3      14453           0.0000000000
     94874     15813  TIP3      H2             -9.0860355284       15.0812226414      -49.5802673248  TIP3      14453           0.0000000000
     94875     15814  TIP3      OH2            -6.9626248841       15.8177601435      -49.2342133368  TIP3      14454           0.0000000000
     94876     15814  TIP3      H1             -7.0323159723       16.7717654481      -49.4723390720  TIP3      14454           0.0000000000
     94877     15814  TIP3      H2             -6.7544964294       15.4449065444      -50.1112799639  TIP3      14454           0.0000000000
     94878     15815  TIP3      OH2           -19.5635182715       14.5737731648      -51.7966884328  TIP3      14455           0.0000000000
     94879     15815  TIP3      H1            -19.6309859507       14.1391062365      -50.9178345754  TIP3      14455           0.0000000000
     94880     15815  TIP3      H2            -18.7504088616       14.1967694282      -52.1872865093  TIP3      14455           0.0000000000
     94881     15816  TIP3      OH2           -17.4636882013       13.2808609865      -53.1836587016  TIP3      14456           0.0000000000
     94882     15816  TIP3      H1            -17.6553115834       12.3617190097      -52.9098677993  TIP3      14456           0.0000000000
     94883     15816  TIP3      H2            -16.6371038447       13.4379732861      -52.6763098506  TIP3      14456           0.0000000000
     94884     15817  TIP3      OH2           -14.8816035410       13.7723851746      -52.2683473713  TIP3      14457           0.0000000000
     94885     15817  TIP3      H1            -14.7229232236       12.8475120437      -52.5340088971  TIP3      14457           0.0000000000
     94886     15817  TIP3      H2            -14.8334403534       13.7113565079      -51.3023275857  TIP3      14457           0.0000000000
     94887     15818  TIP3      OH2           -11.3459766885       -0.6043379120      -53.0802068918  TIP3      14458           0.0000000000
     94888     15818  TIP3      H1            -12.1002732128       -1.1868409209      -52.8782894956  TIP3      14458           0.0000000000
     94889     15818  TIP3      H2            -10.9001716935       -1.1076947674      -53.7570595490  TIP3      14458           0.0000000000
     94890     15819  TIP3      OH2            -6.2898258425       -2.5707871393      -53.1434022279  TIP3      14459           0.0000000000
     94891     15819  TIP3      H1             -5.6548447380       -1.9121687391      -53.5087546543  TIP3      14459           0.0000000000
     94892     15819  TIP3      H2             -7.1817184865       -2.1686426974      -53.2489762030  TIP3      14459           0.0000000000
     94893     15820  TIP3      OH2            -4.6536362006       -1.2564658004      -54.8652581417  TIP3      14460           0.0000000000
     94894     15820  TIP3      H1             -3.9104582064       -1.8532646954      -55.1728410427  TIP3      14460           0.0000000000
     94895     15820  TIP3      H2             -4.1042891576       -0.4520049486      -54.6542231848  TIP3      14460           0.0000000000
     94896     15821  TIP3      OH2           -19.1083419371       -2.0258413808      -55.2204913350  TIP3      14461           0.0000000000
     94897     15821  TIP3      H1            -19.8578115617       -2.1401893514      -55.8282930797  TIP3      14461           0.0000000000
     94898     15821  TIP3      H2            -18.5898382776       -2.8319121939      -55.3496675403  TIP3      14461           0.0000000000
     94899     15822  TIP3      OH2           -20.3184756752       -2.1842764492      -59.5780187094  TIP3      14462           0.0000000000
     94900     15822  TIP3      H1            -19.8012020517       -1.5444025450      -60.1038638810  TIP3      14462           0.0000000000
     94901     15822  TIP3      H2            -20.8572543623       -1.6160013231      -59.0022911825  TIP3      14462           0.0000000000
     94902     15823  TIP3      OH2           -14.5498802533       -2.1073358092      -55.5004789319  TIP3      14463           0.0000000000
     94903     15823  TIP3      H1            -13.6936385890       -1.6513256432      -55.5703641936  TIP3      14463           0.0000000000
     94904     15823  TIP3      H2            -14.6299713741       -2.2107877818      -54.5587426958  TIP3      14463           0.0000000000
     94905     15824  TIP3      OH2            -8.7894696570       -2.0357461493      -53.9197849284  TIP3      14464           0.0000000000
     94906     15824  TIP3      H1             -9.0222843679       -1.9015517193      -54.8358271323  TIP3      14464           0.0000000000
     94907     15824  TIP3      H2             -9.2713544812       -2.8873930843      -53.7283439504  TIP3      14464           0.0000000000
     94908     15825  TIP3      OH2            -7.6080487277       -1.9528598763      -58.0645937366  TIP3      14465           0.0000000000
     94909     15825  TIP3      H1             -8.3310703890       -1.3912975606      -58.4123209124  TIP3      14465           0.0000000000
     94910     15825  TIP3      H2             -8.0445013745       -2.8396190724      -58.0308068681  TIP3      14465           0.0000000000
     94911     15826  TIP3      OH2           -20.3096901944       13.7897534670      -58.5754291099  TIP3      14466           0.0000000000
     94912     15826  TIP3      H1            -21.0379506304       13.7432200025      -59.2355245866  TIP3      14466           0.0000000000
     94913     15826  TIP3      H2            -20.3950129844       14.7297902526      -58.3757327246  TIP3      14466           0.0000000000
     94914     15827  TIP3      OH2           -18.4624195855       -0.3300937257      -61.0089382819  TIP3      14467           0.0000000000
     94915     15827  TIP3      H1            -17.9121286303       -0.8667674575      -61.5789658059  TIP3      14467           0.0000000000
     94916     15827  TIP3      H2            -17.7822200754        0.0821050540      -60.4307500185  TIP3      14467           0.0000000000
     94917     15828  TIP3      OH2           -13.3689974808       -0.0105098930      -58.6511197585  TIP3      14468           0.0000000000
     94918     15828  TIP3      H1            -13.2003928412       -0.5703295736      -57.8799400758  TIP3      14468           0.0000000000
     94919     15828  TIP3      H2            -13.4222322378        0.8497348309      -58.1632223585  TIP3      14468           0.0000000000
     94920     15829  TIP3      OH2           -11.5589313357       15.0789324576      -60.2402028698  TIP3      14469           0.0000000000
     94921     15829  TIP3      H1            -10.6097744250       15.2879494471      -60.3643109806  TIP3      14469           0.0000000000
     94922     15829  TIP3      H2            -11.6786225752       14.5242453668      -61.0212367076  TIP3      14469           0.0000000000
     94923     15830  TIP3      OH2            -4.7948073692       14.5663802149      -57.4883275094  TIP3      14470           0.0000000000
     94924     15830  TIP3      H1             -4.9976223387       13.7878387318      -58.0653592175  TIP3      14470           0.0000000000
     94925     15830  TIP3      H2             -4.8819079393       15.3005731742      -58.1259368692  TIP3      14470           0.0000000000
     94926     15831  TIP3      OH2           -19.3641320695       -1.7828269058      -46.0598105884  TIP3      14471           0.0000000000
     94927     15831  TIP3      H1            -19.6451408945       -2.3650474877      -45.3465899049  TIP3      14471           0.0000000000
     94928     15831  TIP3      H2            -18.4807632648       -1.6053736627      -45.7205331134  TIP3      14471           0.0000000000
     94929     15832  TIP3      OH2           -18.5220260856       14.7495717656      -61.5979233162  TIP3      14472           0.0000000000
     94930     15832  TIP3      H1            -18.8645013996       15.0236227939      -60.7375984893  TIP3      14472           0.0000000000
     94931     15832  TIP3      H2            -17.7805869909       14.1708674504      -61.4424694320  TIP3      14472           0.0000000000
     94932     15833  TIP3      OH2             8.8917721678        7.1887216412      -55.4270470979  TIP3      14473           0.0000000000
     94933     15833  TIP3      H1              8.8778858360        8.1669569338      -55.4682273249  TIP3      14473           0.0000000000
     94934     15833  TIP3      H2              8.1634775298        6.9578024834      -56.0291687435  TIP3      14473           0.0000000000
     94935     15834  TIP3      OH2             7.7442318229        6.4408361582      -51.9289092012  TIP3      14474           0.0000000000
     94936     15834  TIP3      H1              7.7354870283        5.7876141039      -51.2156520070  TIP3      14474           0.0000000000
     94937     15834  TIP3      H2              7.3986804441        5.9402103535      -52.6832725936  TIP3      14474           0.0000000000
     94938     15835  TIP3      OH2             0.0950605356        6.1351916402      -50.3597112003  TIP3      14475           0.0000000000
     94939     15835  TIP3      H1              0.1941362740        5.4302066689      -49.6851921458  TIP3      14475           0.0000000000
     94940     15835  TIP3      H2              0.8552627789        6.6951905650      -50.1549674160  TIP3      14475           0.0000000000
     94941     15836  TIP3      OH2            11.4334926453        9.3901579532      -53.6412183667  TIP3      14476           0.0000000000
     94942     15836  TIP3      H1             11.0117433994        8.6785073672      -53.1541852006  TIP3      14476           0.0000000000
     94943     15836  TIP3      H2             11.4539688884       10.0984450152      -52.9697628091  TIP3      14476           0.0000000000
     94944     15837  TIP3      OH2             1.0249326657       10.5663402896      -51.8764099530  TIP3      14477           0.0000000000
     94945     15837  TIP3      H1              0.7100782191        9.6973202686      -52.1921776653  TIP3      14477           0.0000000000
     94946     15837  TIP3      H2              1.9790875422       10.3778153984      -51.8211226149  TIP3      14477           0.0000000000
     94947     15838  TIP3      OH2            -2.3362440160        4.1162956931      -56.4078258300  TIP3      14478           0.0000000000
     94948     15838  TIP3      H1             -2.7800886666        4.9846316051      -56.4394201235  TIP3      14478           0.0000000000
     94949     15838  TIP3      H2             -2.9105753574        3.5845310501      -56.9697786319  TIP3      14478           0.0000000000
     94950     15839  TIP3      OH2            -1.6273814349        6.3472586366      -54.2415961025  TIP3      14479           0.0000000000
     94951     15839  TIP3      H1             -1.3563154315        5.5286263431      -53.7852662770  TIP3      14479           0.0000000000
     94952     15839  TIP3      H2             -0.9263456865        6.4517424837      -54.9026437469  TIP3      14479           0.0000000000
     94953     15840  TIP3      OH2             8.5522546006       14.5468308396      -53.4060776706  TIP3      14480           0.0000000000
     94954     15840  TIP3      H1              9.1985792409       13.8546826099      -53.6912593785  TIP3      14480           0.0000000000
     94955     15840  TIP3      H2              8.3397702927       14.2180402919      -52.5332278589  TIP3      14480           0.0000000000
     94956     15841  TIP3      OH2             6.1198087662        8.8423558849      -51.4591413940  TIP3      14481           0.0000000000
     94957     15841  TIP3      H1              6.4614963507        8.2145382850      -52.1138772073  TIP3      14481           0.0000000000
     94958     15841  TIP3      H2              6.9228212922        8.9977195417      -50.9313187020  TIP3      14481           0.0000000000
     94959     15842  TIP3      OH2            14.7945970972        0.4646342797      -50.7053511137  TIP3      14482           0.0000000000
     94960     15842  TIP3      H1             14.8796198584        1.0870574673      -49.9536870228  TIP3      14482           0.0000000000
     94961     15842  TIP3      H2             15.2639986856        0.9643946824      -51.3891345022  TIP3      14482           0.0000000000
     94962     15843  TIP3      OH2             9.2652831486        3.3032051101      -51.1287590666  TIP3      14483           0.0000000000
     94963     15843  TIP3      H1              9.4508747227        2.3503089776      -51.1375230534  TIP3      14483           0.0000000000
     94964     15843  TIP3      H2              9.1821235101        3.4533438628      -52.0919786800  TIP3      14483           0.0000000000
     94965     15844  TIP3      OH2             2.3993853445        1.4012359127      -53.9251013608  TIP3      14484           0.0000000000
     94966     15844  TIP3      H1              2.5061569406        2.2366514394      -54.4156229641  TIP3      14484           0.0000000000
     94967     15844  TIP3      H2              2.0013700831        0.8251365677      -54.6138742050  TIP3      14484           0.0000000000
     94968     15845  TIP3      OH2            10.1385967752        1.4782861610      -55.5545845282  TIP3      14485           0.0000000000
     94969     15845  TIP3      H1             10.7931534517        1.1664933226      -54.8870215816  TIP3      14485           0.0000000000
     94970     15845  TIP3      H2             10.7003611859        2.0513744600      -56.0995429953  TIP3      14485           0.0000000000
     94971     15846  TIP3      OH2            -0.9722219286        3.8077250317      -53.1919175408  TIP3      14486           0.0000000000
     94972     15846  TIP3      H1             -0.3021697191        3.2615526319      -52.7383061289  TIP3      14486           0.0000000000
     94973     15846  TIP3      H2             -0.8688147709        3.4962703605      -54.1035794840  TIP3      14486           0.0000000000
     94974     15847  TIP3      OH2             4.1857587275        5.3665433992      -53.8764918832  TIP3      14487           0.0000000000
     94975     15847  TIP3      H1              4.8532431690        4.7835790841      -53.4757482912  TIP3      14487           0.0000000000
     94976     15847  TIP3      H2              3.6693085088        4.7105642242      -54.3852532718  TIP3      14487           0.0000000000
     94977     15848  TIP3      OH2            15.2000615757        1.9631658121      -48.4770898732  TIP3      14488           0.0000000000
     94978     15848  TIP3      H1             14.5176407892        2.6577348640      -48.5839896503  TIP3      14488           0.0000000000
     94979     15848  TIP3      H2             15.1694621269        1.7941886320      -47.5243257142  TIP3      14488           0.0000000000
     94980     15849  TIP3      OH2             1.3107275685        0.2796642540      -49.9187022310  TIP3      14489           0.0000000000
     94981     15849  TIP3      H1              1.0220636391        0.8763662140      -50.6373661443  TIP3      14489           0.0000000000
     94982     15849  TIP3      H2              0.6496862202        0.5151844777      -49.2265690999  TIP3      14489           0.0000000000
     94983     15850  TIP3      OH2             8.5704914850        9.7784225073      -56.3186761522  TIP3      14490           0.0000000000
     94984     15850  TIP3      H1              8.3222512496        9.5152374916      -57.2195454940  TIP3      14490           0.0000000000
     94985     15850  TIP3      H2              8.2939498899       10.7162381071      -56.2993744167  TIP3      14490           0.0000000000
     94986     15851  TIP3      OH2             3.8081066421        7.9433063211      -49.6383238077  TIP3      14491           0.0000000000
     94987     15851  TIP3      H1              3.1116103585        8.5922748510      -49.4124702077  TIP3      14491           0.0000000000
     94988     15851  TIP3      H2              4.5245513578        8.5346339431      -49.9233779173  TIP3      14491           0.0000000000
     94989     15852  TIP3      OH2            11.9360680709        0.8265285914      -53.5576698282  TIP3      14492           0.0000000000
     94990     15852  TIP3      H1             11.7305610718        0.0532487341      -53.0262346793  TIP3      14492           0.0000000000
     94991     15852  TIP3      H2             12.6206020529        1.2620420605      -53.0237473379  TIP3      14492           0.0000000000
     94992     15853  TIP3      OH2             0.8698404182        2.1569748653      -51.8570235420  TIP3      14493           0.0000000000
     94993     15853  TIP3      H1              1.5036264441        2.8404493974      -51.5389499469  TIP3      14493           0.0000000000
     94994     15853  TIP3      H2              1.3909468833        1.7399180967      -52.5881034186  TIP3      14493           0.0000000000
     94995     15854  TIP3      OH2             2.2628545499        9.9540546554      -48.8078746269  TIP3      14494           0.0000000000
     94996     15854  TIP3      H1              2.2202617505       10.8688292745      -49.1529387297  TIP3      14494           0.0000000000
     94997     15854  TIP3      H2              1.3716435622        9.8829235101      -48.3949111261  TIP3      14494           0.0000000000
     94998     15855  TIP3      OH2            -1.6701180849        9.5528195042      -58.0548687046  TIP3      14495           0.0000000000
     94999     15855  TIP3      H1             -1.8926500459        9.8959063564      -58.9406136526  TIP3      14495           0.0000000000
     95000     15855  TIP3      H2             -1.5906154886       10.3818301008      -57.5348359680  TIP3      14495           0.0000000000
     95001     15856  TIP3      OH2            11.9601016042       11.2236162472      -51.2942282629  TIP3      14496           0.0000000000
     95002     15856  TIP3      H1             10.9956062478       11.3358320418      -51.1475137403  TIP3      14496           0.0000000000
     95003     15856  TIP3      H2             12.2332607388       12.1463990529      -51.4633712947  TIP3      14496           0.0000000000
     95004     15857  TIP3      OH2            12.2650073495       -0.4512213849      -49.8384955004  TIP3      14497           0.0000000000
     95005     15857  TIP3      H1             11.5268150005        0.1559539310      -49.9845072230  TIP3      14497           0.0000000000
     95006     15857  TIP3      H2             12.9634348937       -0.0588924432      -50.3920158603  TIP3      14497           0.0000000000
     95007     15858  TIP3      OH2             5.2506887960       -2.3674808507      -52.4364308506  TIP3      14498           0.0000000000
     95008     15858  TIP3      H1              5.1148274601       -3.3323906827      -52.4841321584  TIP3      14498           0.0000000000
     95009     15858  TIP3      H2              4.3794584768       -2.0632639589      -52.1076479767  TIP3      14498           0.0000000000
     95010     15859  TIP3      OH2            10.2177211395       13.0121690321      -54.6864804070  TIP3      14499           0.0000000000
     95011     15859  TIP3      H1             10.6459161761       12.2957129910      -55.1965673007  TIP3      14499           0.0000000000
     95012     15859  TIP3      H2             10.6480444307       13.8039700294      -55.0731463623  TIP3      14499           0.0000000000
     95013     15860  TIP3      OH2            11.4425660088       10.9361577772      -56.1549424308  TIP3      14500           0.0000000000
     95014     15860  TIP3      H1             11.1347085787       10.2634133716      -56.7930755490  TIP3      14500           0.0000000000
     95015     15860  TIP3      H2             11.4586023671       10.4299412448      -55.3235579263  TIP3      14500           0.0000000000
     95016     15861  TIP3      OH2            13.0870075747        9.5281948881      -47.6761565156  TIP3      14501           0.0000000000
     95017     15861  TIP3      H1             13.1794314688        8.9014113890      -48.4244216055  TIP3      14501           0.0000000000
     95018     15861  TIP3      H2             13.2602848915       10.3891844391      -48.0968945147  TIP3      14501           0.0000000000
     95019     15862  TIP3      OH2             7.5394086893        6.4256499556      -57.9261899109  TIP3      14502           0.0000000000
     95020     15862  TIP3      H1              6.8346220531        7.0010824997      -58.2966020018  TIP3      14502           0.0000000000
     95021     15862  TIP3      H2              8.2469890150        6.5251524881      -58.5889076255  TIP3      14502           0.0000000000
     95022     15863  TIP3      OH2             7.5878782747        4.9228876421      -60.8193458633  TIP3      14503           0.0000000000
     95023     15863  TIP3      H1              8.3351941453        4.9573443349      -60.2015292901  TIP3      14503           0.0000000000
     95024     15863  TIP3      H2              7.9231752358        4.3167639613      -61.4815641441  TIP3      14503           0.0000000000
     95025     15864  TIP3      OH2            14.9452886317        5.8184891327      -49.6307148928  TIP3      14504           0.0000000000
     95026     15864  TIP3      H1             14.2900071055        6.5476517790      -49.5656630507  TIP3      14504           0.0000000000
     95027     15864  TIP3      H2             15.4203785828        6.0779346090      -50.4422633616  TIP3      14504           0.0000000000
     95028     15865  TIP3      OH2            10.9812633541        6.6146406588      -56.9981892667  TIP3      14505           0.0000000000
     95029     15865  TIP3      H1             10.2532825994        6.8799648098      -56.3821009970  TIP3      14505           0.0000000000
     95030     15865  TIP3      H2             11.4646496755        5.9702991097      -56.4526118778  TIP3      14505           0.0000000000
     95031     15866  TIP3      OH2            10.8878584008        4.7912388425      -47.8855360955  TIP3      14506           0.0000000000
     95032     15866  TIP3      H1             10.9180176547        5.5918657959      -47.3517185848  TIP3      14506           0.0000000000
     95033     15866  TIP3      H2             10.2740525485        5.1025418285      -48.5827917686  TIP3      14506           0.0000000000
     95034     15867  TIP3      OH2             2.6015391805        7.2942431053      -55.0808573257  TIP3      14507           0.0000000000
     95035     15867  TIP3      H1              2.2857229085        6.9039210300      -55.9301141511  TIP3      14507           0.0000000000
     95036     15867  TIP3      H2              3.2156429833        6.6025745093      -54.7409149641  TIP3      14507           0.0000000000
     95037     15868  TIP3      OH2             3.9283270972       10.6804072225      -52.3942104468  TIP3      14508           0.0000000000
     95038     15868  TIP3      H1              3.9166746881       10.1493784826      -53.1989018437  TIP3      14508           0.0000000000
     95039     15868  TIP3      H2              4.7083083023       10.3198053997      -51.9351416030  TIP3      14508           0.0000000000
     95040     15869  TIP3      OH2             2.9374048942        6.0396733761      -51.4095947737  TIP3      14509           0.0000000000
     95041     15869  TIP3      H1              3.4882864724        6.1436322458      -52.2108637410  TIP3      14509           0.0000000000
     95042     15869  TIP3      H2              3.3220179485        6.7055902853      -50.7958000915  TIP3      14509           0.0000000000
     95043     15870  TIP3      OH2             9.3495443170       11.6078718639      -50.6985032286  TIP3      14510           0.0000000000
     95044     15870  TIP3      H1              9.0502718569       12.2548003841      -50.0538238289  TIP3      14510           0.0000000000
     95045     15870  TIP3      H2              9.0978804876       10.7531859215      -50.2755474729  TIP3      14510           0.0000000000
     95046     15871  TIP3      OH2             3.8551602464       10.4355948259      -46.6597801030  TIP3      14511           0.0000000000
     95047     15871  TIP3      H1              3.5087109825       11.2470454479      -46.2507628787  TIP3      14511           0.0000000000
     95048     15871  TIP3      H2              3.2274287390       10.2720521852      -47.4005411747  TIP3      14511           0.0000000000
     95049     15872  TIP3      OH2             9.8852374682        5.8108825439      -59.3313501468  TIP3      14512           0.0000000000
     95050     15872  TIP3      H1             10.4032122406        6.0161542231      -58.5095324703  TIP3      14512           0.0000000000
     95051     15872  TIP3      H2             10.2459869364        6.4056267326      -59.9978091303  TIP3      14512           0.0000000000
     95052     15873  TIP3      OH2             0.8054027474        6.6529612568      -47.5376430227  TIP3      14513           0.0000000000
     95053     15873  TIP3      H1              0.8693446386        7.2674521747      -46.8049050171  TIP3      14513           0.0000000000
     95054     15873  TIP3      H2             -0.1162623054        6.7268478302      -47.8092145867  TIP3      14513           0.0000000000
     95055     15874  TIP3      OH2             7.5603751501       12.5528493986      -55.8191970008  TIP3      14514           0.0000000000
     95056     15874  TIP3      H1              8.0155111481       12.8727576327      -55.0354804856  TIP3      14514           0.0000000000
     95057     15874  TIP3      H2              7.0282406820       13.3034910651      -56.1063845665  TIP3      14514           0.0000000000
     95058     15875  TIP3      OH2             2.0793971191       12.4882964589      -45.9700205554  TIP3      14515           0.0000000000
     95059     15875  TIP3      H1              2.0897580598       12.4244218443      -46.9417275323  TIP3      14515           0.0000000000
     95060     15875  TIP3      H2              1.1395184227       12.4104697677      -45.7482730772  TIP3      14515           0.0000000000
     95061     15876  TIP3      OH2            13.5782363499       -2.4471278871      -59.4259250362  TIP3      14516           0.0000000000
     95062     15876  TIP3      H1             12.6311988917       -2.3122357137      -59.1866745191  TIP3      14516           0.0000000000
     95063     15876  TIP3      H2             13.8043674557       -1.5951641619      -59.8356627034  TIP3      14516           0.0000000000
     95064     15877  TIP3      OH2             1.5729178073        6.3136730755      -57.4677634093  TIP3      14517           0.0000000000
     95065     15877  TIP3      H1              1.2948729133        7.0964920673      -57.9877860433  TIP3      14517           0.0000000000
     95066     15877  TIP3      H2              0.9109566859        5.6548784038      -57.6906908437  TIP3      14517           0.0000000000
     95067     15878  TIP3      OH2            14.7150852135       11.8988282023      -61.0398686914  TIP3      14518           0.0000000000
     95068     15878  TIP3      H1             14.8134089448       12.8647697550      -60.9307696452  TIP3      14518           0.0000000000
     95069     15878  TIP3      H2             15.6411555935       11.6215311072      -61.1262657047  TIP3      14518           0.0000000000
     95070     15879  TIP3      OH2            -2.2900150050        8.7385407872      -48.6215666710  TIP3      14519           0.0000000000
     95071     15879  TIP3      H1             -2.7772138558        8.6697549283      -49.4655583085  TIP3      14519           0.0000000000
     95072     15879  TIP3      H2             -2.2720041042        7.7977963739      -48.3609875400  TIP3      14519           0.0000000000
     95073     15880  TIP3      OH2            -2.5717244355       11.4800942673      -51.7801526258  TIP3      14520           0.0000000000
     95074     15880  TIP3      H1             -1.6141283752       11.3661987018      -51.8004640666  TIP3      14520           0.0000000000
     95075     15880  TIP3      H2             -2.6558287390       12.2928589656      -51.2654542133  TIP3      14520           0.0000000000
     95076     15881  TIP3      OH2            15.7364341031       12.1577181174      -46.6428749753  TIP3      14521           0.0000000000
     95077     15881  TIP3      H1             15.6763020610       11.2629609609      -46.2809564526  TIP3      14521           0.0000000000
     95078     15881  TIP3      H2             15.0623616040       12.5377740351      -46.0473239026  TIP3      14521           0.0000000000
     95079     15882  TIP3      OH2             6.6204195953       11.7150134468      -47.2390575386  TIP3      14522           0.0000000000
     95080     15882  TIP3      H1              6.6888857112       12.5601161954      -46.7322767362  TIP3      14522           0.0000000000
     95081     15882  TIP3      H2              5.7407447289       11.3749860455      -46.9986443542  TIP3      14522           0.0000000000
     95082     15883  TIP3      OH2             7.0397513916       15.4713570175      -57.4448715003  TIP3      14523           0.0000000000
     95083     15883  TIP3      H1              6.9818703852       15.3856625249      -58.4112319706  TIP3      14523           0.0000000000
     95084     15883  TIP3      H2              7.0809617948       16.4340136326      -57.2781632513  TIP3      14523           0.0000000000
     95085     15884  TIP3      OH2             0.7001535491       14.3452321700      -55.6124279194  TIP3      14524           0.0000000000
     95086     15884  TIP3      H1              0.8457155126       13.9344018680      -54.7321179079  TIP3      14524           0.0000000000
     95087     15884  TIP3      H2             -0.1489784844       13.9384388971      -55.8533784839  TIP3      14524           0.0000000000
     95088     15885  TIP3      OH2            10.1548829334       14.7645872859      -60.4530631522  TIP3      14525           0.0000000000
     95089     15885  TIP3      H1             10.4548663279       13.9141571038      -60.8811950115  TIP3      14525           0.0000000000
     95090     15885  TIP3      H2             10.1377335582       14.4060581687      -59.5481150718  TIP3      14525           0.0000000000
     95091     15886  TIP3      OH2             9.8087361445       14.6480943393      -57.6357254807  TIP3      14526           0.0000000000
     95092     15886  TIP3      H1              8.8437711861       14.6764026217      -57.4944688449  TIP3      14526           0.0000000000
     95093     15886  TIP3      H2             10.0517561898       13.8566301154      -57.1350094294  TIP3      14526           0.0000000000
     95094     15887  TIP3      OH2            -0.0443899831       10.0418519940      -47.5936778794  TIP3      14527           0.0000000000
     95095     15887  TIP3      H1              0.1192477181        9.6922058141      -46.7184856885  TIP3      14527           0.0000000000
     95096     15887  TIP3      H2             -0.9225812392        9.6812915164      -47.8617751548  TIP3      14527           0.0000000000
     95097     15888  TIP3      OH2             2.6268161795       -1.4618375878      -51.6935829483  TIP3      14528           0.0000000000
     95098     15888  TIP3      H1              1.7172474671       -1.5871732771      -52.0400406882  TIP3      14528           0.0000000000
     95099     15888  TIP3      H2              2.5054009061       -0.6381738999      -51.1934619988  TIP3      14528           0.0000000000
     95100     15889  TIP3      OH2             7.2581777027       -1.7694023211      -48.2872344419  TIP3      14529           0.0000000000
     95101     15889  TIP3      H1              7.6507456494       -2.2014625286      -47.5101798274  TIP3      14529           0.0000000000
     95102     15889  TIP3      H2              6.2868098995       -1.9315759077      -48.1541155900  TIP3      14529           0.0000000000
     95103     15890  TIP3      OH2            10.4140819424        2.0292339190      -47.4807985977  TIP3      14530           0.0000000000
     95104     15890  TIP3      H1             10.0910591057        1.8619807693      -46.5770059421  TIP3      14530           0.0000000000
     95105     15890  TIP3      H2             10.4278329903        2.9947961954      -47.6047069302  TIP3      14530           0.0000000000
     95106     15891  TIP3      OH2             6.8766876014        0.7970367493      -60.9701583855  TIP3      14531           0.0000000000
     95107     15891  TIP3      H1              6.6099600135        0.7212951065      -60.0349286269  TIP3      14531           0.0000000000
     95108     15891  TIP3      H2              6.6463020842       -0.0937496542      -61.2531706214  TIP3      14531           0.0000000000
     95109     15892  TIP3      OH2             2.7087388138        3.4983515510      -50.4326561126  TIP3      14532           0.0000000000
     95110     15892  TIP3      H1              1.9882123075        3.4887162680      -49.7726388637  TIP3      14532           0.0000000000
     95111     15892  TIP3      H2              2.6722586837        4.4178234717      -50.7807773942  TIP3      14532           0.0000000000
     95112     15893  TIP3      OH2             2.6876557357        3.6314752305      -55.5524863848  TIP3      14533           0.0000000000
     95113     15893  TIP3      H1              1.7532803048        3.3724215920      -55.6884183325  TIP3      14533           0.0000000000
     95114     15893  TIP3      H2              3.0684403621        3.3342423956      -56.4005676891  TIP3      14533           0.0000000000
     95115     15894  TIP3      OH2             8.2070085933        4.1200140906      -56.7869477965  TIP3      14534           0.0000000000
     95116     15894  TIP3      H1              7.8025647527        4.9507040201      -57.1254667246  TIP3      14534           0.0000000000
     95117     15894  TIP3      H2              8.8909729570        3.9551525497      -57.4567493605  TIP3      14534           0.0000000000
     95118     15895  TIP3      OH2             9.2455624858        3.6133042221      -53.9361915537  TIP3      14535           0.0000000000
     95119     15895  TIP3      H1              8.9666000722        4.1768961571      -54.6790508971  TIP3      14535           0.0000000000
     95120     15895  TIP3      H2              9.3438893615        2.7648217217      -54.4090574087  TIP3      14535           0.0000000000
     95121     15896  TIP3      OH2             0.3326268211        3.7899269585      -48.7181170775  TIP3      14536           0.0000000000
     95122     15896  TIP3      H1              0.4473364689        4.1467925180      -47.8173404581  TIP3      14536           0.0000000000
     95123     15896  TIP3      H2             -0.0558203818        2.9199437266      -48.5344577136  TIP3      14536           0.0000000000
     95124     15897  TIP3      OH2            -3.0098484296        0.8243501345      -54.7501428133  TIP3      14537           0.0000000000
     95125     15897  TIP3      H1             -2.3167947101        0.8458516345      -54.0553520743  TIP3      14537           0.0000000000
     95126     15897  TIP3      H2             -2.5171756774        0.5103066716      -55.5320826173  TIP3      14537           0.0000000000
     95127     15898  TIP3      OH2            -1.7047834211        1.6250162984      -59.3565970543  TIP3      14538           0.0000000000
     95128     15898  TIP3      H1             -1.2497995617        2.1892511018      -59.9972055900  TIP3      14538           0.0000000000
     95129     15898  TIP3      H2             -2.4110090080        2.2329867980      -59.0634330985  TIP3      14538           0.0000000000
     95130     15899  TIP3      OH2             8.4800519476        5.1965576472      -49.3300537656  TIP3      14539           0.0000000000
     95131     15899  TIP3      H1              8.8226975946        4.5327430452      -49.9643474840  TIP3      14539           0.0000000000
     95132     15899  TIP3      H2              7.9693465461        4.6477576191      -48.7072549498  TIP3      14539           0.0000000000
     95133     15900  TIP3      OH2             5.2475321571        1.1777927247      -54.5458388193  TIP3      14540           0.0000000000
     95134     15900  TIP3      H1              4.3130815762        1.1821345371      -54.2546398535  TIP3      14540           0.0000000000
     95135     15900  TIP3      H2              5.7305247027        1.0165136964      -53.7214017638  TIP3      14540           0.0000000000
     95136     15901  TIP3      OH2             0.0573614212        2.7323041895      -55.6957236969  TIP3      14541           0.0000000000
     95137     15901  TIP3      H1             -0.8331883438        2.8818961572      -56.0740997290  TIP3      14541           0.0000000000
     95138     15901  TIP3      H2              0.3452699666        1.8903935504      -56.0880911013  TIP3      14541           0.0000000000
     95139     15902  TIP3      OH2             3.6884544127        2.7972201463      -58.0544182708  TIP3      14542           0.0000000000
     95140     15902  TIP3      H1              4.6450602483        2.8949310955      -57.8782216860  TIP3      14542           0.0000000000
     95141     15902  TIP3      H2              3.4603698559        3.4584249042      -58.7318971563  TIP3      14542           0.0000000000
     95142     15903  TIP3      OH2             9.6521274183        0.4095623399      -51.2920976930  TIP3      14543           0.0000000000
     95143     15903  TIP3      H1              8.9532300890        0.4714506792      -50.6045914436  TIP3      14543           0.0000000000
     95144     15903  TIP3      H2              9.1501237406        0.1660776200      -52.0845087203  TIP3      14543           0.0000000000
     95145     15904  TIP3      OH2             2.4024913331        3.9237551286      -60.4460015701  TIP3      14544           0.0000000000
     95146     15904  TIP3      H1              1.8542179051        3.5988530534      -61.1747496500  TIP3      14544           0.0000000000
     95147     15904  TIP3      H2              3.2143125114        4.1821285578      -60.9148403786  TIP3      14544           0.0000000000
     95148     15905  TIP3      OH2             6.5284604270        3.9341531297      -52.6537514096  TIP3      14545           0.0000000000
     95149     15905  TIP3      H1              7.1265393495        3.3984427489      -53.1884719241  TIP3      14545           0.0000000000
     95150     15905  TIP3      H2              6.3848253777        3.3860234643      -51.8706417226  TIP3      14545           0.0000000000
     95151     15906  TIP3      OH2             1.5419157597        0.0762432774      -56.2020820530  TIP3      14546           0.0000000000
     95152     15906  TIP3      H1              1.2314958603       -0.8453977414      -56.2377457517  TIP3      14546           0.0000000000
     95153     15906  TIP3      H2              2.3222398388        0.0202093344      -56.7699019083  TIP3      14546           0.0000000000
     95154     15907  TIP3      OH2             5.1743805012        2.2598634183      -50.2522016234  TIP3      14547           0.0000000000
     95155     15907  TIP3      H1              4.3457352021        2.7695858564      -50.1686587472  TIP3      14547           0.0000000000
     95156     15907  TIP3      H2              5.7224078052        2.6048934291      -49.5195033409  TIP3      14547           0.0000000000
     95157     15908  TIP3      OH2             5.7407953128        8.4306354482      -58.4950983909  TIP3      14548           0.0000000000
     95158     15908  TIP3      H1              4.9365162624        8.0016046112      -58.8557764233  TIP3      14548           0.0000000000
     95159     15908  TIP3      H2              5.5197267240        8.5879010132      -57.5598434078  TIP3      14548           0.0000000000
     95160     15909  TIP3      OH2            12.9515818550        7.6525262397      -49.7329793660  TIP3      14549           0.0000000000
     95161     15909  TIP3      H1             13.5043504339        8.1632164839      -50.3527333275  TIP3      14549           0.0000000000
     95162     15909  TIP3      H2             12.0858269560        7.7279582586      -50.1908897544  TIP3      14549           0.0000000000
     95163     15910  TIP3      OH2             9.6076763628        1.2848588726      -60.3516082844  TIP3      14550           0.0000000000
     95164     15910  TIP3      H1              8.6688345466        1.4461109707      -60.5294813692  TIP3      14550           0.0000000000
     95165     15910  TIP3      H2              9.9163706952        2.1578575347      -60.0458121597  TIP3      14550           0.0000000000
     95166     15911  TIP3      OH2             7.2538492702        8.7681644160      -47.3513018762  TIP3      14551           0.0000000000
     95167     15911  TIP3      H1              6.9044461599        8.3282230633      -46.5697703841  TIP3      14551           0.0000000000
     95168     15911  TIP3      H2              7.0034535949        9.6898504463      -47.2226534565  TIP3      14551           0.0000000000
     95169     15912  TIP3      OH2            10.3355873697        3.2207604189      -58.6982432103  TIP3      14552           0.0000000000
     95170     15912  TIP3      H1             11.2328959052        3.0812949555      -58.3360409693  TIP3      14552           0.0000000000
     95171     15912  TIP3      H2             10.4089670219        4.0337804887      -59.2208437885  TIP3      14552           0.0000000000
     95172     15913  TIP3      OH2             0.8638597091        7.8763137047      -52.7441854948  TIP3      14553           0.0000000000
     95173     15913  TIP3      H1              1.5542130403        7.7980559703      -53.4303855511  TIP3      14553           0.0000000000
     95174     15913  TIP3      H2              0.9248223288        7.0179592125      -52.2881703913  TIP3      14553           0.0000000000
     95175     15914  TIP3      OH2             7.8433391878        9.8480523383      -59.3255462005  TIP3      14554           0.0000000000
     95176     15914  TIP3      H1              7.5339939701       10.7761635488      -59.2109931303  TIP3      14554           0.0000000000
     95177     15914  TIP3      H2              7.0375848706        9.3174398582      -59.2904969710  TIP3      14554           0.0000000000
     95178     15915  TIP3      OH2            -2.1780304381        6.2983872056      -47.4786029201  TIP3      14555           0.0000000000
     95179     15915  TIP3      H1             -1.9224681614        5.8529311430      -46.6536223790  TIP3      14555           0.0000000000
     95180     15915  TIP3      H2             -2.7552034877        5.6587531992      -47.9277667359  TIP3      14555           0.0000000000
     95181     15916  TIP3      OH2             9.5154675912       11.1786729454      -47.3553362484  TIP3      14556           0.0000000000
     95182     15916  TIP3      H1              8.5994167665       11.3808755696      -47.5982750986  TIP3      14556           0.0000000000
     95183     15916  TIP3      H2              9.5298223151       11.4074874514      -46.4219023146  TIP3      14556           0.0000000000
     95184     15917  TIP3      OH2            15.1870164436        3.3637529789      -58.9459755989  TIP3      14557           0.0000000000
     95185     15917  TIP3      H1             14.6943997118        3.0188514053      -59.7019433620  TIP3      14557           0.0000000000
     95186     15917  TIP3      H2             15.3147500552        4.2934592759      -59.2403666075  TIP3      14557           0.0000000000
     95187     15918  TIP3      OH2            15.1780617767        9.0966039475      -46.1955096614  TIP3      14558           0.0000000000
     95188     15918  TIP3      H1             14.3214915291        9.4645452948      -46.5374930841  TIP3      14558           0.0000000000
     95189     15918  TIP3      H2             15.7357771180        9.1979262259      -46.9825085421  TIP3      14558           0.0000000000
     95190     15919  TIP3      OH2            13.5764103597       12.1748802112      -58.5406251844  TIP3      14559           0.0000000000
     95191     15919  TIP3      H1             13.1217788771       11.3799585360      -58.2359030543  TIP3      14559           0.0000000000
     95192     15919  TIP3      H2             13.7876048591       11.9969421346      -59.4781960685  TIP3      14559           0.0000000000
     95193     15920  TIP3      OH2            10.7187195157        6.9971249712      -51.4536595402  TIP3      14560           0.0000000000
     95194     15920  TIP3      H1              9.7779265958        6.7855631130      -51.5734528810  TIP3      14560           0.0000000000
     95195     15920  TIP3      H2             11.1529454704        6.2421290273      -51.8899807917  TIP3      14560           0.0000000000
     95196     15921  TIP3      OH2             3.2337792426       11.3299963377      -55.3558921110  TIP3      14561           0.0000000000
     95197     15921  TIP3      H1              3.7373597241       12.1354521862      -55.5639696977  TIP3      14561           0.0000000000
     95198     15921  TIP3      H2              2.3576147638       11.5662534259      -55.6880638502  TIP3      14561           0.0000000000
     95199     15922  TIP3      OH2            -1.0278506158        6.2066594309      -60.8267111376  TIP3      14562           0.0000000000
     95200     15922  TIP3      H1             -0.4032303067        6.8166442802      -60.4039398868  TIP3      14562           0.0000000000
     95201     15922  TIP3      H2             -1.8982294632        6.4662152483      -60.4939452518  TIP3      14562           0.0000000000
     95202     15923  TIP3      OH2             4.6550612115        8.9946182060      -55.8307429268  TIP3      14563           0.0000000000
     95203     15923  TIP3      H1              4.3459879656        9.9176676260      -55.7528469750  TIP3      14563           0.0000000000
     95204     15923  TIP3      H2              3.9301457597        8.5089616655      -55.3926393200  TIP3      14563           0.0000000000
     95205     15924  TIP3      OH2             5.1038966115       13.1886969499      -49.4517894999  TIP3      14564           0.0000000000
     95206     15924  TIP3      H1              5.5574214792       14.0018675495      -49.7095639292  TIP3      14564           0.0000000000
     95207     15924  TIP3      H2              5.7170751506       12.8431724791      -48.7808385379  TIP3      14564           0.0000000000
     95208     15925  TIP3      OH2             3.3262649759       13.9977564427      -56.3085723423  TIP3      14565           0.0000000000
     95209     15925  TIP3      H1              2.3633050129       14.1337033327      -56.1707595085  TIP3      14565           0.0000000000
     95210     15925  TIP3      H2              3.6905206597       14.8313236126      -55.9552749859  TIP3      14565           0.0000000000
     95211     15926  TIP3      OH2             8.6406296866        9.1833815854      -49.8367318708  TIP3      14566           0.0000000000
     95212     15926  TIP3      H1              8.3042878495        8.9992345706      -48.9367263524  TIP3      14566           0.0000000000
     95213     15926  TIP3      H2              9.2878450779        8.4735397074      -49.9625505340  TIP3      14566           0.0000000000
     95214     15927  TIP3      OH2            11.1005198248        9.6655771455      -60.7730020407  TIP3      14567           0.0000000000
     95215     15927  TIP3      H1             11.2821863632        9.7330374805      -59.8174698585  TIP3      14567           0.0000000000
     95216     15927  TIP3      H2             10.2017422310       10.0814724828      -60.7534753442  TIP3      14567           0.0000000000
     95217     15928  TIP3      OH2            11.3627586850       13.7655169154      -47.2816084849  TIP3      14568           0.0000000000
     95218     15928  TIP3      H1             10.7531158210       13.2525035633      -47.8300511491  TIP3      14568           0.0000000000
     95219     15928  TIP3      H2             11.6469200548       14.4528858993      -47.9216781129  TIP3      14568           0.0000000000
     95220     15929  TIP3      OH2            15.4378885869       14.6391641986      -60.4676418822  TIP3      14569           0.0000000000
     95221     15929  TIP3      H1             16.1334929709       15.2737558923      -60.7116452146  TIP3      14569           0.0000000000
     95222     15929  TIP3      H2             14.7164347890       15.2368153223      -60.1720705509  TIP3      14569           0.0000000000
     95223     15930  TIP3      OH2            -0.4783689672        1.0398232222      -47.9446215294  TIP3      14570           0.0000000000
     95224     15930  TIP3      H1             -1.3931391776        1.3682377936      -47.9776654673  TIP3      14570           0.0000000000
     95225     15930  TIP3      H2             -0.5765076943        0.1878465001      -47.4898773985  TIP3      14570           0.0000000000
     95226     15931  TIP3      OH2            11.7589802284        8.8919781121      -58.3805057174  TIP3      14571           0.0000000000
     95227     15931  TIP3      H1             11.5046396482        8.0707363057      -57.9240837188  TIP3      14571           0.0000000000
     95228     15931  TIP3      H2             12.7162516754        8.9370168456      -58.2576628825  TIP3      14571           0.0000000000
     95229     15932  TIP3      OH2            -0.8624733705       12.8032356624      -49.5101178810  TIP3      14572           0.0000000000
     95230     15932  TIP3      H1             -0.5840625653       11.8765453979      -49.5000231340  TIP3      14572           0.0000000000
     95231     15932  TIP3      H2             -0.6289359239       13.1040806519      -48.6190320744  TIP3      14572           0.0000000000
     95232     15933  TIP3      OH2             3.8060400169       10.8736374522      -59.7874309566  TIP3      14573           0.0000000000
     95233     15933  TIP3      H1              4.1577504843       10.3320373434      -59.0700513353  TIP3      14573           0.0000000000
     95234     15933  TIP3      H2              3.9786952895       11.7862759585      -59.4729039194  TIP3      14573           0.0000000000
     95235     15934  TIP3      OH2             0.3651677820        8.1214190942      -59.3235160482  TIP3      14574           0.0000000000
     95236     15934  TIP3      H1             -0.2946732141        8.5285274510      -58.7230189101  TIP3      14574           0.0000000000
     95237     15934  TIP3      H2              0.9347429632        8.8750993126      -59.5447899040  TIP3      14574           0.0000000000
     95238     15935  TIP3      OH2             8.2113201418        0.7842970821      -48.9963119144  TIP3      14575           0.0000000000
     95239     15935  TIP3      H1              8.9529905000        0.8233777817      -48.3766416628  TIP3      14575           0.0000000000
     95240     15935  TIP3      H2              7.8437079023       -0.1026188286      -48.8304236063  TIP3      14575           0.0000000000
     95241     15936  TIP3      OH2             8.9715012518        0.3751435816      -57.8660695170  TIP3      14576           0.0000000000
     95242     15936  TIP3      H1              9.2157594135        0.8262215061      -58.7000939026  TIP3      14576           0.0000000000
     95243     15936  TIP3      H2              9.5614306337        0.8147725878      -57.2409649898  TIP3      14576           0.0000000000
     95244     15937  TIP3      OH2             6.6543808666       12.5644607973      -58.9988382128  TIP3      14577           0.0000000000
     95245     15937  TIP3      H1              5.8386634632       13.0720748232      -59.0345225699  TIP3      14577           0.0000000000
     95246     15937  TIP3      H2              7.2364837852       12.9523510793      -59.6844150153  TIP3      14577           0.0000000000
     95247     15938  TIP3      OH2             6.2026457131        2.1139727323      -57.0724442598  TIP3      14578           0.0000000000
     95248     15938  TIP3      H1              6.9929402879        2.6895140078      -57.0353553151  TIP3      14578           0.0000000000
     95249     15938  TIP3      H2              5.9429690008        1.9844407242      -56.1418615629  TIP3      14578           0.0000000000
     95250     15939  TIP3      OH2             6.8510170345        3.1930208238      -47.9510449633  TIP3      14579           0.0000000000
     95251     15939  TIP3      H1              6.8187762594        3.6840122756      -47.1247745704  TIP3      14579           0.0000000000
     95252     15939  TIP3      H2              7.3719280395        2.3933905893      -47.7922203942  TIP3      14579           0.0000000000
     95253     15940  TIP3      OH2             7.0623134906       -0.8261941455      -56.1790096721  TIP3      14580           0.0000000000
     95254     15940  TIP3      H1              6.7423908329       -0.1767048806      -55.5289561141  TIP3      14580           0.0000000000
     95255     15940  TIP3      H2              7.7547297574       -0.2818095766      -56.6314533116  TIP3      14580           0.0000000000
     95256     15941  TIP3      OH2             3.9908169044       13.5644432508      -59.0536718918  TIP3      14581           0.0000000000
     95257     15941  TIP3      H1              4.2077123935       14.3825216440      -59.5472622798  TIP3      14581           0.0000000000
     95258     15941  TIP3      H2              3.7944085626       13.9075157224      -58.1547661787  TIP3      14581           0.0000000000
     95259     15942  TIP3      OH2             2.7352241490        0.2664433048      -59.4362331599  TIP3      14582           0.0000000000
     95260     15942  TIP3      H1              2.6655140768        1.1814496857      -59.1082899947  TIP3      14582           0.0000000000
     95261     15942  TIP3      H2              3.6460898580        0.0344402072      -59.1843116539  TIP3      14582           0.0000000000
     95262     15943  TIP3      OH2            12.9423624370        1.0717404379      -46.9925567673  TIP3      14583           0.0000000000
     95263     15943  TIP3      H1             12.0049600837        1.3052799205      -47.1544713398  TIP3      14583           0.0000000000
     95264     15943  TIP3      H2             13.2397104409        0.9665852955      -47.9084009003  TIP3      14583           0.0000000000
     95265     15944  TIP3      OH2            11.5558832569        4.7942347897      -53.0183768139  TIP3      14584           0.0000000000
     95266     15944  TIP3      H1             10.7308635227        4.3489050448      -53.2927320282  TIP3      14584           0.0000000000
     95267     15944  TIP3      H2             12.0344431797        4.1063834968      -52.5019507791  TIP3      14584           0.0000000000
     95268     15945  TIP3      OH2             0.9729337407       10.7254827443      -60.4204017530  TIP3      14585           0.0000000000
     95269     15945  TIP3      H1              1.6291697471       11.3572029226      -60.0983298617  TIP3      14585           0.0000000000
     95270     15945  TIP3      H2              1.4776908993       10.2777410865      -61.1090618242  TIP3      14585           0.0000000000
     95271     15946  TIP3      OH2            12.6183765180       14.0485438640      -51.3674358581  TIP3      14586           0.0000000000
     95272     15946  TIP3      H1             12.5298267459       14.7413037315      -52.0471862923  TIP3      14586           0.0000000000
     95273     15946  TIP3      H2             13.5782457768       14.1128337577      -51.1651586321  TIP3      14586           0.0000000000
     95274     15947  TIP3      OH2             0.1127856216       -1.8247394753      -52.5450420576  TIP3      14587           0.0000000000
     95275     15947  TIP3      H1             -0.0828745992       -1.8043450671      -53.5089377097  TIP3      14587           0.0000000000
     95276     15947  TIP3      H2             -0.3043282055       -2.6743141453      -52.2918012060  TIP3      14587           0.0000000000
     95277     15948  TIP3      OH2            -0.9389930150       12.1013614871      -56.3943341788  TIP3      14588           0.0000000000
     95278     15948  TIP3      H1             -1.7925737391       12.5525667320      -56.4402828661  TIP3      14588           0.0000000000
     95279     15948  TIP3      H2             -0.4564218523       12.5627158335      -57.0959485175  TIP3      14588           0.0000000000
     95280     15949  TIP3      OH2            11.8615470036       13.1247314537      -61.8958773482  TIP3      14589           0.0000000000
     95281     15949  TIP3      H1             11.8495043403       12.2253177437      -61.4935760916  TIP3      14589           0.0000000000
     95282     15949  TIP3      H2             12.5495529352       13.1075272472      -62.5482651917  TIP3      14589           0.0000000000
     95283     15950  TIP3      OH2            10.6094609490        8.3867224878      -47.5076608109  TIP3      14590           0.0000000000
     95284     15950  TIP3      H1             11.3946468780        8.9656614970      -47.4365604862  TIP3      14590           0.0000000000
     95285     15950  TIP3      H2              9.9112048853        9.0131389602      -47.2705091795  TIP3      14590           0.0000000000
     95286     15951  TIP3      OH2             3.7620994821        6.8983596660      -59.6666599733  TIP3      14591           0.0000000000
     95287     15951  TIP3      H1              3.2435455857        6.3659796274      -59.0452288617  TIP3      14591           0.0000000000
     95288     15951  TIP3      H2              4.0474483708        6.2212353537      -60.3214610111  TIP3      14591           0.0000000000
     95289     15952  TIP3      OH2             2.9847673877        4.6805245616      -47.4193307336  TIP3      14592           0.0000000000
     95290     15952  TIP3      H1              2.4181536961        5.4091719366      -47.1180289877  TIP3      14592           0.0000000000
     95291     15952  TIP3      H2              3.3998982078        5.0652531390      -48.2081178432  TIP3      14592           0.0000000000
     95292     15953  TIP3      OH2             4.8116865391        5.0871109295      -61.4652476996  TIP3      14593           0.0000000000
     95293     15953  TIP3      H1              4.7115580422        4.9618234209      -62.4172919296  TIP3      14593           0.0000000000
     95294     15953  TIP3      H2              5.7863347237        5.1985202650      -61.3667767932  TIP3      14593           0.0000000000
     95295     15954  TIP3      OH2             3.3335718236        2.0790389588      -46.3276680357  TIP3      14594           0.0000000000
     95296     15954  TIP3      H1              3.4987597242        1.3675118496      -46.9679641111  TIP3      14594           0.0000000000
     95297     15954  TIP3      H2              3.3547246818        2.8966382381      -46.8622890964  TIP3      14594           0.0000000000
     95298     15955  TIP3      OH2             3.7998814735        0.4284962904      -48.7669157206  TIP3      14595           0.0000000000
     95299     15955  TIP3      H1              4.3175481790        0.9200880432      -49.4464356894  TIP3      14595           0.0000000000
     95300     15955  TIP3      H2              2.9217841148        0.3516019080      -49.2017504102  TIP3      14595           0.0000000000
     95301     15956  TIP3      OH2             5.3676385668        5.9134521633      -48.5436712979  TIP3      14596           0.0000000000
     95302     15956  TIP3      H1              6.1269768195        5.7759821509      -49.1194917536  TIP3      14596           0.0000000000
     95303     15956  TIP3      H2              4.9880233878        6.7560858222      -48.8435659502  TIP3      14596           0.0000000000
     95304     15957  TIP3      OH2             4.6216122730       -2.0837005483      -48.3834481770  TIP3      14597           0.0000000000
     95305     15957  TIP3      H1              4.4096364996       -1.1301780778      -48.4663723394  TIP3      14597           0.0000000000
     95306     15957  TIP3      H2              3.8569546370       -2.4700158331      -48.8405811414  TIP3      14597           0.0000000000
     95307     15958  TIP3      OH2             4.6559093296       15.7977922262      -60.4582103472  TIP3      14598           0.0000000000
     95308     15958  TIP3      H1              5.6300766264       15.8885456245      -60.3316841658  TIP3      14598           0.0000000000
     95309     15958  TIP3      H2              4.4684361662       16.4730913650      -61.1067983350  TIP3      14598           0.0000000000
     95310     15959  TIP3      OH2            -1.7668576338       10.3951313216      -60.9250370853  TIP3      14599           0.0000000000
     95311     15959  TIP3      H1             -0.8093924652       10.4851631913      -60.7107736261  TIP3      14599           0.0000000000
     95312     15959  TIP3      H2             -1.7414527865        9.7912208673      -61.6741874119  TIP3      14599           0.0000000000
     95313     15960  TIP3      OH2            -3.0208363474       15.7674687530      -55.9537041199  TIP3      14600           0.0000000000
     95314     15960  TIP3      H1             -3.7368276558       15.2831925800      -56.4210290041  TIP3      14600           0.0000000000
     95315     15960  TIP3      H2             -2.7377434253       15.1095151136      -55.2932295383  TIP3      14600           0.0000000000
     95316     15961  TIP3      OH2            -2.1979311917       13.8995207708      -54.0833105432  TIP3      14601           0.0000000000
     95317     15961  TIP3      H1             -2.5512918980       13.0227529430      -53.8779539551  TIP3      14601           0.0000000000
     95318     15961  TIP3      H2             -1.9730057335       14.2319598430      -53.1983925276  TIP3      14601           0.0000000000
     95319     15962  TIP3      OH2            15.3387000593       14.6922702339      -51.1447739705  TIP3      14602           0.0000000000
     95320     15962  TIP3      H1             15.3653809462       14.8572055058      -50.1864997142  TIP3      14602           0.0000000000
     95321     15962  TIP3      H2             16.0489157088       15.2693413412      -51.4406460723  TIP3      14602           0.0000000000
     95322     15963  TIP3      OH2            14.9459354905       14.2902864456      -48.2701678833  TIP3      14603           0.0000000000
     95323     15963  TIP3      H1             14.4558847896       13.5110134949      -48.5857544886  TIP3      14603           0.0000000000
     95324     15963  TIP3      H2             15.4428827475       13.8617173424      -47.5460090239  TIP3      14603           0.0000000000
     95325     15964  TIP3      OH2            14.6926000530        8.3221837838      -58.1119305824  TIP3      14604           0.0000000000
     95326     15964  TIP3      H1             15.5355298521        8.7484140324      -57.8896432511  TIP3      14604           0.0000000000
     95327     15964  TIP3      H2             14.6647934975        7.6292749577      -57.4158966425  TIP3      14604           0.0000000000
     95328     15965  TIP3      OH2            15.0363595450        6.4138393729      -56.2349775759  TIP3      14605           0.0000000000
     95329     15965  TIP3      H1             14.2873171448        5.9181165582      -55.8323772627  TIP3      14605           0.0000000000
     95330     15965  TIP3      H2             15.6319405632        6.5558369293      -55.4713139773  TIP3      14605           0.0000000000
     95331     15966  TIP3      OH2            14.7791389106        9.0997023536      -51.2684005556  TIP3      14606           0.0000000000
     95332     15966  TIP3      H1             15.6130797424        8.7331893911      -51.6146776923  TIP3      14606           0.0000000000
     95333     15966  TIP3      H2             14.9332213617       10.0572074644      -51.4136326761  TIP3      14606           0.0000000000
     95334     15967  TIP3      OH2            13.3184229075       12.0144155315      -48.9613309729  TIP3      14607           0.0000000000
     95335     15967  TIP3      H1             12.6421289510       12.3677062679      -48.3646788656  TIP3      14607           0.0000000000
     95336     15967  TIP3      H2             12.7846622757       11.6085255845      -49.6762696207  TIP3      14607           0.0000000000
     95337     15968  TIP3      OH2            15.3119106790        6.2419928690      -59.8370570598  TIP3      14608           0.0000000000
     95338     15968  TIP3      H1             14.7446769927        6.5874619483      -60.5333124840  TIP3      14608           0.0000000000
     95339     15968  TIP3      H2             15.2627063660        6.9527274615      -59.1682296095  TIP3      14608           0.0000000000
     95340     15969  TIP3      OH2            12.8534741589        4.8896420193      -55.6647341307  TIP3      14609           0.0000000000
     95341     15969  TIP3      H1             12.7060674184        3.9342195608      -55.6758564123  TIP3      14609           0.0000000000
     95342     15969  TIP3      H2             12.5249824391        5.1175672099      -54.7758476343  TIP3      14609           0.0000000000
     95343     15970  TIP3      OH2            -2.1413742309        6.9784999120      -51.5915400878  TIP3      14610           0.0000000000
     95344     15970  TIP3      H1             -1.9578553397        6.8975404358      -52.5544958606  TIP3      14610           0.0000000000
     95345     15970  TIP3      H2             -1.2460637747        6.8055888647      -51.2331926677  TIP3      14610           0.0000000000
     95346     15971  TIP3      OH2            13.7614280814        6.8313827685      -45.9712451253  TIP3      14611           0.0000000000
     95347     15971  TIP3      H1             14.3449122176        6.1086009545      -45.7829270304  TIP3      14611           0.0000000000
     95348     15971  TIP3      H2             14.3125640254        7.6388107955      -46.0165145698  TIP3      14611           0.0000000000
     95349     15972  TIP3      OH2            12.9541847778        0.8734945652      -62.2139044626  TIP3      14612           0.0000000000
     95350     15972  TIP3      H1             13.5408134280        0.4947206959      -61.5343297162  TIP3      14612           0.0000000000
     95351     15972  TIP3      H2             12.0725198322        0.5523136430      -61.9818380517  TIP3      14612           0.0000000000
     95352     15973  TIP3      OH2            12.5272043980        2.4761701685      -57.1849595571  TIP3      14613           0.0000000000
     95353     15973  TIP3      H1             12.8278778542        1.5462006443      -57.0620536616  TIP3      14613           0.0000000000
     95354     15973  TIP3      H2             13.3193648286        2.8735307056      -57.5709622391  TIP3      14613           0.0000000000
     95355     15974  TIP3      OH2            13.1627150793        3.0187383935      -51.7663513617  TIP3      14614           0.0000000000
     95356     15974  TIP3      H1             14.1216689498        3.2542146560      -51.7675060262  TIP3      14614           0.0000000000
     95357     15974  TIP3      H2             12.9702375117        3.1563280771      -50.8234530076  TIP3      14614           0.0000000000
     95358     15975  TIP3      OH2            13.2305405507        3.7601656926      -48.9663190986  TIP3      14615           0.0000000000
     95359     15975  TIP3      H1             12.3518122077        4.0428148936      -48.6230336573  TIP3      14615           0.0000000000
     95360     15975  TIP3      H2             13.6549523273        4.6182017286      -49.1924713512  TIP3      14615           0.0000000000
     95361     15976  TIP3      OH2            13.1932220914       -0.2463493549      -57.1503210000  TIP3      14616           0.0000000000
     95362     15976  TIP3      H1             13.4009131207       -0.6781252217      -56.2946641067  TIP3      14616           0.0000000000
     95363     15976  TIP3      H2             12.5847304296       -0.8811946798      -57.5867707560  TIP3      14616           0.0000000000
     95364     15977  TIP3      OH2            -1.3271776218        0.5683147750      -52.5835892114  TIP3      14617           0.0000000000
     95365     15977  TIP3      H1             -0.8617024684       -0.2561366922      -52.3278933014  TIP3      14617           0.0000000000
     95366     15977  TIP3      H2             -0.7754566005        1.2609594656      -52.1927931778  TIP3      14617           0.0000000000
     95367     15978  TIP3      OH2            -3.0390141064        3.5621363431      -51.5536670693  TIP3      14618           0.0000000000
     95368     15978  TIP3      H1             -2.4736066974        3.3202936940      -52.3144649826  TIP3      14618           0.0000000000
     95369     15978  TIP3      H2             -2.5809016043        4.3709934048      -51.2802508027  TIP3      14618           0.0000000000
     95370     15979  TIP3      OH2            15.0132825175       -0.1904515881      -60.5612283690  TIP3      14619           0.0000000000
     95371     15979  TIP3      H1             15.4364741840       -0.8909610291      -61.0813705108  TIP3      14619           0.0000000000
     95372     15979  TIP3      H2             15.7231635800        0.4744475362      -60.5736476339  TIP3      14619           0.0000000000
     95373     15980  TIP3      OH2            -2.6855675131       -0.1618117392      -57.4920053401  TIP3      14620           0.0000000000
     95374     15980  TIP3      H1             -3.6130633941        0.0449261646      -57.6503559931  TIP3      14620           0.0000000000
     95375     15980  TIP3      H2             -2.2405633501        0.3229315563      -58.2089239332  TIP3      14620           0.0000000000
     95376     15981  TIP3      OH2            12.0607478005       14.7781035172      -55.5217616958  TIP3      14621           0.0000000000
     95377     15981  TIP3      H1             12.7423832070       14.4739050325      -56.1522107279  TIP3      14621           0.0000000000
     95378     15981  TIP3      H2             12.5826010037       15.2779584634      -54.8768535634  TIP3      14621           0.0000000000
     95379     15982  TIP3      OH2            -2.7213992617       -1.4848480775      -49.1991095884  TIP3      14622           0.0000000000
     95380     15982  TIP3      H1             -3.3814486084       -1.7038266068      -48.5028091764  TIP3      14622           0.0000000000
     95381     15982  TIP3      H2             -3.2027208109       -0.8216624929      -49.7272242888  TIP3      14622           0.0000000000
     95382     15983  TIP3      OH2             2.4006396122       12.6568388590      -48.7732949246  TIP3      14623           0.0000000000
     95383     15983  TIP3      H1              2.0608184762       13.5334834266      -49.0098118651  TIP3      14623           0.0000000000
     95384     15983  TIP3      H2              3.3413970253       12.7762564990      -49.0256840460  TIP3      14623           0.0000000000
     95385     15984  TIP3      OH2             6.7579013927       14.0455421652      -45.7917455062  TIP3      14624           0.0000000000
     95386     15984  TIP3      H1              6.9330749011       13.7865606464      -44.8779981664  TIP3      14624           0.0000000000
     95387     15984  TIP3      H2              7.6172638426       14.4082487925      -46.0698466530  TIP3      14624           0.0000000000
     95388     15985  TIP3      OH2             8.9924030294       15.4252458889      -46.5689504287  TIP3      14625           0.0000000000
     95389     15985  TIP3      H1              9.7065510274       14.8142611121      -46.7957015755  TIP3      14625           0.0000000000
     95390     15985  TIP3      H2              9.3921106945       15.7646567417      -45.7464050911  TIP3      14625           0.0000000000
     95391     15986  TIP3      OH2            14.0892715874       -1.9708764183      -47.5389132595  TIP3      14626           0.0000000000
     95392     15986  TIP3      H1             13.1789780208       -1.7366004232      -47.7911308364  TIP3      14626           0.0000000000
     95393     15986  TIP3      H2             14.1797278186       -2.8623126274      -47.9263826093  TIP3      14626           0.0000000000
     95394     15987  TIP3      OH2            -0.1672584108       15.9417003975      -48.7361403119  TIP3      14627           0.0000000000
     95395     15987  TIP3      H1             -0.9159907702       16.4200239419      -49.1160840003  TIP3      14627           0.0000000000
     95396     15987  TIP3      H2             -0.4926739636       15.7545157891      -47.8409835169  TIP3      14627           0.0000000000
     95397     15988  TIP3      OH2             2.3009467963       15.5209094271      -49.6742760090  TIP3      14628           0.0000000000
     95398     15988  TIP3      H1              1.4201529308       15.6715842124      -49.2544915177  TIP3      14628           0.0000000000
     95399     15988  TIP3      H2              2.2349838930       16.0936032295      -50.4594426805  TIP3      14628           0.0000000000
     95400     15989  TIP3      OH2             7.0177295558       15.4162253653      -50.5087963389  TIP3      14629           0.0000000000
     95401     15989  TIP3      H1              6.5493040583       15.9718581063      -51.1477315865  TIP3      14629           0.0000000000
     95402     15989  TIP3      H2              7.1400770354       16.0403653870      -49.7665386522  TIP3      14629           0.0000000000
     95403     15990  TIP3      OH2             9.3165166444       14.2226446278      -49.5276032874  TIP3      14630           0.0000000000
     95404     15990  TIP3      H1              8.4442538446       14.5044437023      -49.8431113650  TIP3      14630           0.0000000000
     95405     15990  TIP3      H2              9.7698790257       15.0809353634      -49.5800593369  TIP3      14630           0.0000000000
     95406     15991  TIP3      OH2            11.8929643697       15.8181831592      -49.2343101549  TIP3      14631           0.0000000000
     95407     15991  TIP3      H1             11.8240081302       16.7720675486      -49.4726104221  TIP3      14631           0.0000000000
     95408     15991  TIP3      H2             12.1002358764       15.4445040496      -50.1114781625  TIP3      14631           0.0000000000
     95409     15992  TIP3      OH2            -0.7084806987       14.5749690239      -51.7953721180  TIP3      14632           0.0000000000
     95410     15992  TIP3      H1             -0.7751455112       14.1383291040      -50.9175462925  TIP3      14632           0.0000000000
     95411     15992  TIP3      H2              0.1050410801       14.1962083156      -52.1876766445  TIP3      14632           0.0000000000
     95412     15993  TIP3      OH2             1.3729783981       13.2871738085      -53.1477261552  TIP3      14633           0.0000000000
     95413     15993  TIP3      H1              1.2060064434       12.3529802023      -52.9191001594  TIP3      14633           0.0000000000
     95414     15993  TIP3      H2              2.2274438079       13.4381826252      -52.6908222370  TIP3      14633           0.0000000000
     95415     15994  TIP3      OH2             3.9748901825       13.7742212315      -52.2675843073  TIP3      14634           0.0000000000
     95416     15994  TIP3      H1              4.1354535636       12.8498360919      -52.5367595107  TIP3      14634           0.0000000000
     95417     15994  TIP3      H2              4.0214841372       13.7109926254      -51.3016146722  TIP3      14634           0.0000000000
     95418     15995  TIP3      OH2             7.4315012120       -0.5793123963      -53.1308126565  TIP3      14635           0.0000000000
     95419     15995  TIP3      H1              6.7540958524       -1.2206871404      -52.8563638514  TIP3      14635           0.0000000000
     95420     15995  TIP3      H2              7.9827365429       -1.1097012812      -53.7183605618  TIP3      14635           0.0000000000
     95421     15996  TIP3      OH2            12.5849033653       -2.5209987524      -53.0509858577  TIP3      14636           0.0000000000
     95422     15996  TIP3      H1             13.1772138013       -1.9358759178      -53.5843351379  TIP3      14636           0.0000000000
     95423     15996  TIP3      H2             11.6938910445       -2.1785585942      -53.2884028664  TIP3      14636           0.0000000000
     95424     15997  TIP3      OH2            14.2500499804       -1.3025008643      -54.7445504432  TIP3      14637           0.0000000000
     95425     15997  TIP3      H1             14.9088848778       -1.8616972398      -55.2237943642  TIP3      14637           0.0000000000
     95426     15997  TIP3      H2             14.7295465465       -0.4427974337      -54.7001977424  TIP3      14637           0.0000000000
     95427     15998  TIP3      OH2            -0.1959551251       -1.9566059960      -55.2770100209  TIP3      14638           0.0000000000
     95428     15998  TIP3      H1             -0.9788571683       -2.1521090322      -55.8187845972  TIP3      14638           0.0000000000
     95429     15998  TIP3      H2              0.2693926925       -2.8109913126      -55.3387905514  TIP3      14638           0.0000000000
     95430     15999  TIP3      OH2            -1.4516686906       -2.1860047007      -59.5764024156  TIP3      14639           0.0000000000
     95431     15999  TIP3      H1             -0.9422863056       -1.5506744307      -60.1138244805  TIP3      14639           0.0000000000
     95432     15999  TIP3      H2             -1.9906345583       -1.6128310856      -59.0142461202  TIP3      14639           0.0000000000
     95433     16000  TIP3      OH2             4.2784436201       -2.0290997979      -55.4988842855  TIP3      14640           0.0000000000
     95434     16000  TIP3      H1              5.1779584429       -1.6666019850      -55.5693210951  TIP3      14640           0.0000000000
     95435     16000  TIP3      H2              4.2372600487       -2.2406590012      -54.5659124717  TIP3      14640           0.0000000000
     95436     16001  TIP3      OH2             9.9828382274       -2.0099624131      -53.8695836472  TIP3      14641           0.0000000000
     95437     16001  TIP3      H1              9.9378156258       -1.8991008712      -54.8258627689  TIP3      14641           0.0000000000
     95438     16001  TIP3      H2              9.6055303048       -2.9154794876      -53.7476218317  TIP3      14641           0.0000000000
     95439     16002  TIP3      OH2            11.2585637908       -1.9784718352      -58.2128930119  TIP3      14642           0.0000000000
     95440     16002  TIP3      H1             10.5127306722       -1.3817550965      -58.3697790506  TIP3      14642           0.0000000000
     95441     16002  TIP3      H2             10.8219878407       -2.8304969963      -57.9778068725  TIP3      14642           0.0000000000
     95442     16003  TIP3      OH2            -1.5102220250       13.7666743293      -58.5501908293  TIP3      14643           0.0000000000
     95443     16003  TIP3      H1             -2.1870049777       13.7588932463      -59.2544140823  TIP3      14643           0.0000000000
     95444     16003  TIP3      H2             -1.4910686187       14.7179279651      -58.3855033153  TIP3      14643           0.0000000000
     95445     16004  TIP3      OH2             0.3928893756       -0.3345367802      -61.0181771849  TIP3      14644           0.0000000000
     95446     16004  TIP3      H1              0.9444226221       -0.8722466064      -61.5833190795  TIP3      14644           0.0000000000
     95447     16004  TIP3      H2              1.0716735144        0.0829738693      -60.4549986744  TIP3      14644           0.0000000000
     95448     16005  TIP3      OH2             5.4485330270       -0.0078725009      -58.6454791685  TIP3      14645           0.0000000000
     95449     16005  TIP3      H1              5.6851684316       -0.5862793593      -57.8995930677  TIP3      14645           0.0000000000
     95450     16005  TIP3      H2              5.4871493590        0.8547224463      -58.1712786841  TIP3      14645           0.0000000000
     95451     16006  TIP3      OH2             7.2981977633       15.1478553368      -60.2700675745  TIP3      14646           0.0000000000
     95452     16006  TIP3      H1              8.2634066900       15.2732810912      -60.3708475791  TIP3      14646           0.0000000000
     95453     16006  TIP3      H2              7.1747370186       14.5071072310      -60.9825930832  TIP3      14646           0.0000000000
     95454     16007  TIP3      OH2            14.0537588100       14.5649051275      -57.4893696873  TIP3      14647           0.0000000000
     95455     16007  TIP3      H1             13.8457033582       13.7871195647      -58.0684101435  TIP3      14647           0.0000000000
     95456     16007  TIP3      H2             13.9743853466       15.3009864356      -58.1262773598  TIP3      14647           0.0000000000
     95457     16008  TIP3      OH2            -0.5083131385       -1.7821741630      -46.0591503844  TIP3      14648           0.0000000000
     95458     16008  TIP3      H1             -0.7892577378       -2.3652531803      -45.3470012454  TIP3      14648           0.0000000000
     95459     16008  TIP3      H2              0.3741371754       -1.6032148011      -45.7186135434  TIP3      14648           0.0000000000
     95460     16009  TIP3      OH2             0.3028659872       14.7173503715      -61.5925863155  TIP3      14649           0.0000000000
     95461     16009  TIP3      H1              0.0243647968       15.0156518493      -60.7161607542  TIP3      14649           0.0000000000
     95462     16009  TIP3      H2              1.0887085017       14.1982959730      -61.4219173323  TIP3      14649           0.0000000000
     95463     16010  TIP3      OH2            27.7484680834        7.1911252779      -55.4258853049  TIP3      14650           0.0000000000
     95464     16010  TIP3      H1             27.7350630484        8.1696428226      -55.4682412543  TIP3      14650           0.0000000000
     95465     16010  TIP3      H2             27.0216444958        6.9512032096      -56.0271885510  TIP3      14650           0.0000000000
     95466     16011  TIP3      OH2            26.6024996533        6.4365514380      -51.9279427553  TIP3      14651           0.0000000000
     95467     16011  TIP3      H1             26.6096508796        5.7776123740      -51.2147863947  TIP3      14651           0.0000000000
     95468     16011  TIP3      H2             26.2541207439        5.9373958029      -52.6819543791  TIP3      14651           0.0000000000
     95469     16012  TIP3      OH2            18.9537273060        6.1261542022      -50.3611235448  TIP3      14652           0.0000000000
     95470     16012  TIP3      H1             19.0511648950        5.4277115185      -49.6830120176  TIP3      14652           0.0000000000
     95471     16012  TIP3      H2             19.7103689597        6.6933851652      -50.1566984658  TIP3      14652           0.0000000000
     95472     16013  TIP3      OH2            30.2159287903        9.4258991369      -53.6621941326  TIP3      14653           0.0000000000
     95473     16013  TIP3      H1             29.9192044672        8.6655077392      -53.1519726694  TIP3      14653           0.0000000000
     95474     16013  TIP3      H2             30.3280700441       10.0907849614      -52.9617326424  TIP3      14653           0.0000000000
     95475     16014  TIP3      OH2            19.8806980041       10.5655668272      -51.8754186361  TIP3      14654           0.0000000000
     95476     16014  TIP3      H1             19.5661615543        9.6968528767      -52.1921963482  TIP3      14654           0.0000000000
     95477     16014  TIP3      H2             20.8352174099       10.3782436193      -51.8215171086  TIP3      14654           0.0000000000
     95478     16015  TIP3      OH2            16.5191815225        4.1221982385      -56.4078958327  TIP3      14655           0.0000000000
     95479     16015  TIP3      H1             16.0843460373        4.9968772225      -56.4406438067  TIP3      14655           0.0000000000
     95480     16015  TIP3      H2             15.9446438570        3.5887022668      -56.9690983047  TIP3      14655           0.0000000000
     95481     16016  TIP3      OH2            17.2283648124        6.3487056911      -54.2425616234  TIP3      14656           0.0000000000
     95482     16016  TIP3      H1             17.4992932979        5.5307411995      -53.7848667810  TIP3      14656           0.0000000000
     95483     16016  TIP3      H2             17.9298759970        6.4521954154      -54.9031375551  TIP3      14656           0.0000000000
     95484     16017  TIP3      OH2            27.4061360866       14.5437119539      -53.3948856417  TIP3      14657           0.0000000000
     95485     16017  TIP3      H1             28.0510601712       13.8538417313      -53.6939479530  TIP3      14657           0.0000000000
     95486     16017  TIP3      H2             27.2054681574       14.2214901670      -52.5132785165  TIP3      14657           0.0000000000
     95487     16018  TIP3      OH2            24.9727997009        8.8433702595      -51.4625323522  TIP3      14658           0.0000000000
     95488     16018  TIP3      H1             25.3172487809        8.2137351215      -52.1140931092  TIP3      14658           0.0000000000
     95489     16018  TIP3      H2             25.7781172350        8.9974145035      -50.9317774496  TIP3      14658           0.0000000000
     95490     16019  TIP3      OH2            33.6246658947        0.4643193098      -50.6756684101  TIP3      14659           0.0000000000
     95491     16019  TIP3      H1             33.6953040808        1.1275096640      -49.9616462240  TIP3      14659           0.0000000000
     95492     16019  TIP3      H2             34.1253313988        0.9222133818      -51.3641631704  TIP3      14659           0.0000000000
     95493     16020  TIP3      OH2            28.0514848188        3.3125538414      -51.1518418610  TIP3      14660           0.0000000000
     95494     16020  TIP3      H1             28.3498468533        2.3801502162      -51.0830818181  TIP3      14660           0.0000000000
     95495     16020  TIP3      H2             28.0531083886        3.4322594212      -52.1096094169  TIP3      14660           0.0000000000
     95496     16021  TIP3      OH2            21.2374873770        1.3917694151      -53.9176273520  TIP3      14661           0.0000000000
     95497     16021  TIP3      H1             21.3670209322        2.2301555359      -54.4036315201  TIP3      14661           0.0000000000
     95498     16021  TIP3      H2             20.8656628639        0.8298861216      -54.6304264910  TIP3      14661           0.0000000000
     95499     16022  TIP3      OH2            28.9967351447        1.4782771953      -55.5483862940  TIP3      14662           0.0000000000
     95500     16022  TIP3      H1             29.6517109225        1.1718377862      -54.8757272586  TIP3      14662           0.0000000000
     95501     16022  TIP3      H2             29.5566990587        2.0506339805      -56.0972335316  TIP3      14662           0.0000000000
     95502     16023  TIP3      OH2            17.8817319125        3.8161665155      -53.1885946448  TIP3      14663           0.0000000000
     95503     16023  TIP3      H1             18.5543561858        3.2718226780      -52.7386620231  TIP3      14663           0.0000000000
     95504     16023  TIP3      H2             17.9851775924        3.4995093957      -54.1001764091  TIP3      14663           0.0000000000
     95505     16024  TIP3      OH2            23.0416044869        5.3657285386      -53.8763759002  TIP3      14664           0.0000000000
     95506     16024  TIP3      H1             23.7099777607        4.7836497052      -53.4751385089  TIP3      14664           0.0000000000
     95507     16024  TIP3      H2             22.5249178465        4.7082896376      -54.3824377735  TIP3      14664           0.0000000000
     95508     16025  TIP3      OH2            34.0701148262        1.9461819307      -48.4557300827  TIP3      14665           0.0000000000
     95509     16025  TIP3      H1             33.3809981204        2.6499133692      -48.5953413066  TIP3      14665           0.0000000000
     95510     16025  TIP3      H2             34.0025089033        1.8208031158      -47.5064532247  TIP3      14665           0.0000000000
     95511     16026  TIP3      OH2            20.1069818825        0.2451996105      -49.9233318387  TIP3      14666           0.0000000000
     95512     16026  TIP3      H1             19.8981432288        0.9001708808      -50.6215957358  TIP3      14666           0.0000000000
     95513     16026  TIP3      H2             19.5076224584        0.5489587232      -49.2039766400  TIP3      14666           0.0000000000
     95514     16027  TIP3      OH2            27.4516103250        9.7807201665      -56.3329509645  TIP3      14667           0.0000000000
     95515     16027  TIP3      H1             27.1610245766        9.4999971448      -57.2097631728  TIP3      14667           0.0000000000
     95516     16027  TIP3      H2             27.1489042771       10.7151511070      -56.2920799090  TIP3      14667           0.0000000000
     95517     16028  TIP3      OH2            22.6624888207        7.9439878403      -49.6384907948  TIP3      14668           0.0000000000
     95518     16028  TIP3      H1             21.9672799888        8.5942891902      -49.4126229624  TIP3      14668           0.0000000000
     95519     16028  TIP3      H2             23.3798765480        8.5338387446      -49.9236958679  TIP3      14668           0.0000000000
     95520     16029  TIP3      OH2            30.8142656574        0.8113979384      -53.5880531635  TIP3      14669           0.0000000000
     95521     16029  TIP3      H1             30.5739306358        0.0718717882      -53.0175393750  TIP3      14669           0.0000000000
     95522     16029  TIP3      H2             31.4514854139        1.2762374862      -53.0151752598  TIP3      14669           0.0000000000
     95523     16030  TIP3      OH2            19.7361833374        2.1241974245      -51.8413650344  TIP3      14670           0.0000000000
     95524     16030  TIP3      H1             20.3507211789        2.8412034251      -51.5459367318  TIP3      14670           0.0000000000
     95525     16030  TIP3      H2             20.2520653852        1.7521104522      -52.5983694777  TIP3      14670           0.0000000000
     95526     16031  TIP3      OH2            21.1180869853        9.9563318436      -48.8170490600  TIP3      14671           0.0000000000
     95527     16031  TIP3      H1             21.0744754813       10.8726999269      -49.1546877975  TIP3      14671           0.0000000000
     95528     16031  TIP3      H2             20.2299880563        9.8829801445      -48.3968634379  TIP3      14671           0.0000000000
     95529     16032  TIP3      OH2            17.1872328570        9.5525300471      -58.0551802283  TIP3      14672           0.0000000000
     95530     16032  TIP3      H1             16.9628099859        9.8962467844      -58.9402691793  TIP3      14672           0.0000000000
     95531     16032  TIP3      H2             17.2646039143       10.3817485750      -57.5349017528  TIP3      14672           0.0000000000
     95532     16033  TIP3      OH2            30.8036452387       11.2350872945      -51.2843244531  TIP3      14673           0.0000000000
     95533     16033  TIP3      H1             29.8399120974       11.3481466781      -51.1439731091  TIP3      14673           0.0000000000
     95534     16033  TIP3      H2             31.0921428074       12.1489472427      -51.4625651820  TIP3      14673           0.0000000000
     95535     16034  TIP3      OH2            31.1348901579       -0.5647342453      -49.9121145492  TIP3      14674           0.0000000000
     95536     16034  TIP3      H1             30.4522083281        0.1508133673      -49.9140909690  TIP3      14674           0.0000000000
     95537     16034  TIP3      H2             31.8210776094       -0.0472545356      -50.3759375319  TIP3      14674           0.0000000000
     95538     16035  TIP3      OH2            24.1177137882       -2.3687746202      -52.4420589506  TIP3      14675           0.0000000000
     95539     16035  TIP3      H1             23.9782656890       -3.3332262538      -52.4838129911  TIP3      14675           0.0000000000
     95540     16035  TIP3      H2             23.2540462503       -2.0603843551      -52.1078311691  TIP3      14675           0.0000000000
     95541     16036  TIP3      OH2            29.0757767611       13.0129573730      -54.6845867351  TIP3      14676           0.0000000000
     95542     16036  TIP3      H1             29.5036056819       12.2920708860      -55.1921438237  TIP3      14676           0.0000000000
     95543     16036  TIP3      H2             29.5042444672       13.8023598281      -55.0752149197  TIP3      14676           0.0000000000
     95544     16037  TIP3      OH2            30.2658582928       10.9487811527      -56.1740874297  TIP3      14677           0.0000000000
     95545     16037  TIP3      H1             30.0012441995       10.2389613683      -56.7801021600  TIP3      14677           0.0000000000
     95546     16037  TIP3      H2             30.3307309382       10.4454981891      -55.3354076747  TIP3      14677           0.0000000000
     95547     16038  TIP3      OH2            31.9132403366        9.4989018737      -47.7155254647  TIP3      14678           0.0000000000
     95548     16038  TIP3      H1             32.0533914647        8.8913763376      -48.4713591907  TIP3      14678           0.0000000000
     95549     16038  TIP3      H2             32.1133129836       10.3843501711      -48.0801050832  TIP3      14678           0.0000000000
     95550     16039  TIP3      OH2            26.3929904734        6.4268991427      -57.9247021334  TIP3      14679           0.0000000000
     95551     16039  TIP3      H1             25.6903168969        6.9978755653      -58.2951002167  TIP3      14679           0.0000000000
     95552     16039  TIP3      H2             27.1010463507        6.5189937605      -58.5876713614  TIP3      14679           0.0000000000
     95553     16040  TIP3      OH2            26.4605781956        4.9457380493      -60.8284253133  TIP3      14680           0.0000000000
     95554     16040  TIP3      H1             27.1961799680        4.9610433489      -60.1969859096  TIP3      14680           0.0000000000
     95555     16040  TIP3      H2             26.7768728967        4.3116071655      -61.4762591792  TIP3      14680           0.0000000000
     95556     16041  TIP3      OH2            33.8789969647        5.9221240258      -49.6217556031  TIP3      14681           0.0000000000
     95557     16041  TIP3      H1             33.1475590517        6.5693617542      -49.6001046689  TIP3      14681           0.0000000000
     95558     16041  TIP3      H2             34.2677584468        6.1051864089      -50.5013603840  TIP3      14681           0.0000000000
     95559     16042  TIP3      OH2            29.8205541971        6.5907387888      -57.0093688395  TIP3      14682           0.0000000000
     95560     16042  TIP3      H1             29.1261873235        6.8817435839      -56.3687152280  TIP3      14682           0.0000000000
     95561     16042  TIP3      H2             30.3366582068        5.9812844214      -56.4392065111  TIP3      14682           0.0000000000
     95562     16043  TIP3      OH2            29.7342037799        4.8690665816      -47.8236865782  TIP3      14683           0.0000000000
     95563     16043  TIP3      H1             29.7458521116        5.6784248946      -47.3365021558  TIP3      14683           0.0000000000
     95564     16043  TIP3      H2             29.1447192912        5.0879059833      -48.5686292466  TIP3      14683           0.0000000000
     95565     16044  TIP3      OH2            21.4578745546        7.2944664147      -55.0808727079  TIP3      14684           0.0000000000
     95566     16044  TIP3      H1             21.1416804148        6.9039501555      -55.9299253738  TIP3      14684           0.0000000000
     95567     16044  TIP3      H2             22.0717325634        6.6026338014      -54.7408573743  TIP3      14684           0.0000000000
     95568     16045  TIP3      OH2            22.7846011089       10.6771948036      -52.3941467216  TIP3      14685           0.0000000000
     95569     16045  TIP3      H1             22.7702155690       10.1478377935      -53.1983688119  TIP3      14685           0.0000000000
     95570     16045  TIP3      H2             23.5657577352       10.3206635889      -51.9341310071  TIP3      14685           0.0000000000
     95571     16046  TIP3      OH2            21.7937681922        6.0396927876      -51.4097901948  TIP3      14686           0.0000000000
     95572     16046  TIP3      H1             22.3462657566        6.1429965909      -52.2099379023  TIP3      14686           0.0000000000
     95573     16046  TIP3      H2             22.1781113601        6.7053749229      -50.7955517412  TIP3      14686           0.0000000000
     95574     16047  TIP3      OH2            28.2022223183       11.6035577831      -50.7015532825  TIP3      14687           0.0000000000
     95575     16047  TIP3      H1             27.9155155839       12.2481178016      -50.0520856754  TIP3      14687           0.0000000000
     95576     16047  TIP3      H2             27.9622571643       10.7484194815      -50.2737206015  TIP3      14687           0.0000000000
     95577     16048  TIP3      OH2            22.7111124682       10.4417765735      -46.6570281043  TIP3      14688           0.0000000000
     95578     16048  TIP3      H1             22.3669169706       11.2561255683      -46.2581983773  TIP3      14688           0.0000000000
     95579     16048  TIP3      H2             22.0852823816       10.2723711075      -47.3993500117  TIP3      14688           0.0000000000
     95580     16049  TIP3      OH2            28.7355263249        5.8065584450      -59.3278715147  TIP3      14689           0.0000000000
     95581     16049  TIP3      H1             29.2568968898        6.0122900300      -58.5065493762  TIP3      14689           0.0000000000
     95582     16049  TIP3      H2             29.1112307357        6.3786844367      -60.0006184028  TIP3      14689           0.0000000000
     95583     16050  TIP3      OH2            19.6612887458        6.6490253218      -47.5360596135  TIP3      14690           0.0000000000
     95584     16050  TIP3      H1             19.7308084386        7.2733164955      -46.8137757109  TIP3      14690           0.0000000000
     95585     16050  TIP3      H2             18.7417383984        6.7294110536      -47.8106758884  TIP3      14690           0.0000000000
     95586     16051  TIP3      OH2            26.4361842180       12.5580597554      -55.8510798604  TIP3      14691           0.0000000000
     95587     16051  TIP3      H1             26.8674848864       12.8639282055      -55.0449820250  TIP3      14691           0.0000000000
     95588     16051  TIP3      H2             25.8721192775       13.3023045694      -56.0901045160  TIP3      14691           0.0000000000
     95589     16052  TIP3      OH2            20.9362048997       12.4902065808      -45.9697578221  TIP3      14692           0.0000000000
     95590     16052  TIP3      H1             20.9443858779       12.4198968489      -46.9412455337  TIP3      14692           0.0000000000
     95591     16052  TIP3      H2             19.9965168247       12.4125049723      -45.7469660574  TIP3      14692           0.0000000000
     95592     16053  TIP3      OH2            32.4344124944       -2.4499941076      -59.4218109481  TIP3      14693           0.0000000000
     95593     16053  TIP3      H1             31.4812511799       -2.3229629963      -59.1935998100  TIP3      14693           0.0000000000
     95594     16053  TIP3      H2             32.6588540151       -1.5973099118      -59.8341391759  TIP3      14693           0.0000000000
     95595     16054  TIP3      OH2            20.4280908067        6.3141290229      -57.4665860863  TIP3      14694           0.0000000000
     95596     16054  TIP3      H1             20.1508160696        7.0964175229      -57.9877769565  TIP3      14694           0.0000000000
     95597     16054  TIP3      H2             19.7668758486        5.6549734866      -57.6906547984  TIP3      14694           0.0000000000
     95598     16055  TIP3      OH2            33.5518063718       11.9101252348      -61.0295951192  TIP3      14695           0.0000000000
     95599     16055  TIP3      H1             33.6854964808       12.8722923341      -60.9297009383  TIP3      14695           0.0000000000
     95600     16055  TIP3      H2             34.4746214402       11.6174978160      -61.1279859821  TIP3      14695           0.0000000000
     95601     16056  TIP3      OH2            16.5649332636        8.7405249961      -48.6204232893  TIP3      14696           0.0000000000
     95602     16056  TIP3      H1             16.0778043290        8.6697976472      -49.4661073496  TIP3      14696           0.0000000000
     95603     16056  TIP3      H2             16.5837210820        7.7975349642      -48.3620932158  TIP3      14696           0.0000000000
     95604     16057  TIP3      OH2            16.2839415385       11.4813462716      -51.7813499887  TIP3      14697           0.0000000000
     95605     16057  TIP3      H1             17.2418650193       11.3661766144      -51.8004615143  TIP3      14697           0.0000000000
     95606     16057  TIP3      H2             16.2001868290       12.2926835765      -51.2655636671  TIP3      14697           0.0000000000
     95607     16058  TIP3      OH2            34.6101825354       12.1612481167      -46.6739455200  TIP3      14698           0.0000000000
     95608     16058  TIP3      H1             34.5414428609       11.2858041085      -46.2420154627  TIP3      14698           0.0000000000
     95609     16058  TIP3      H2             33.9297349472       12.5433577782      -46.0695513444  TIP3      14698           0.0000000000
     95610     16059  TIP3      OH2            25.4785693639       11.7177136008      -47.2430100181  TIP3      14699           0.0000000000
     95611     16059  TIP3      H1             25.5496162023       12.5599904404      -46.7320311001  TIP3      14699           0.0000000000
     95612     16059  TIP3      H2             24.6048185205       11.3801706030      -46.9878962828  TIP3      14699           0.0000000000
     95613     16060  TIP3      OH2            25.9092478776       15.4638581348      -57.4540830038  TIP3      14700           0.0000000000
     95614     16060  TIP3      H1             25.8225818954       15.3973816899      -58.4167175864  TIP3      14700           0.0000000000
     95615     16060  TIP3      H2             25.9374605211       16.4247523659      -57.2754731474  TIP3      14700           0.0000000000
     95616     16061  TIP3      OH2            19.5570039010       14.3440967067      -55.6133020649  TIP3      14701           0.0000000000
     95617     16061  TIP3      H1             19.7020287420       13.9341551355      -54.7325504952  TIP3      14701           0.0000000000
     95618     16061  TIP3      H2             18.7071154267       13.9384043344      -55.8535202804  TIP3      14701           0.0000000000
     95619     16062  TIP3      OH2            28.9330518089       14.6765399611      -60.4686498472  TIP3      14702           0.0000000000
     95620     16062  TIP3      H1             29.4118560865       13.9194796938      -60.8851763571  TIP3      14702           0.0000000000
     95621     16062  TIP3      H2             29.0178985539       14.4288334155      -59.5277949101  TIP3      14702           0.0000000000
     95622     16063  TIP3      OH2            28.6582791642       14.6162130759      -57.6759185223  TIP3      14703           0.0000000000
     95623     16063  TIP3      H1             27.7027285125       14.6812068145      -57.4837827997  TIP3      14703           0.0000000000
     95624     16063  TIP3      H2             28.9130846010       13.8753920115      -57.1048300363  TIP3      14703           0.0000000000
     95625     16064  TIP3      OH2            18.8109090903       10.0342652959      -47.5963610504  TIP3      14704           0.0000000000
     95626     16064  TIP3      H1             18.9726073217        9.6913942410      -46.7165828844  TIP3      14704           0.0000000000
     95627     16064  TIP3      H2             17.9320681695        9.6800528473      -47.8627477078  TIP3      14704           0.0000000000
     95628     16065  TIP3      OH2            21.4634984760       -1.4903938179      -51.6436229894  TIP3      14705           0.0000000000
     95629     16065  TIP3      H1             20.6030457584       -1.5516958206      -52.0905187557  TIP3      14705           0.0000000000
     95630     16065  TIP3      H2             21.3913129366       -0.6256602098      -51.2060766575  TIP3      14705           0.0000000000
     95631     16066  TIP3      OH2            26.1037652271       -1.8010254054      -48.2934325864  TIP3      14706           0.0000000000
     95632     16066  TIP3      H1             26.4999565935       -2.2020570715      -47.5031844907  TIP3      14706           0.0000000000
     95633     16066  TIP3      H2             25.1304971427       -1.9376315753      -48.1494675389  TIP3      14706           0.0000000000
     95634     16067  TIP3      OH2            28.4853076905        1.9961563297      -46.9952200376  TIP3      14707           0.0000000000
     95635     16067  TIP3      H1             28.9227969338        1.8695466565      -46.1428894137  TIP3      14707           0.0000000000
     95636     16067  TIP3      H2             29.1434364838        2.5328223256      -47.5040304014  TIP3      14707           0.0000000000
     95637     16068  TIP3      OH2            25.7327282300        0.7973112382      -60.9700684989  TIP3      14708           0.0000000000
     95638     16068  TIP3      H1             25.4658109072        0.7213914020      -60.0348640822  TIP3      14708           0.0000000000
     95639     16068  TIP3      H2             25.5020471018       -0.0938475693      -61.2526242158  TIP3      14708           0.0000000000
     95640     16069  TIP3      OH2            21.5648543400        3.4972331358      -50.4343384593  TIP3      14709           0.0000000000
     95641     16069  TIP3      H1             20.8442249167        3.4911899902      -49.7739816214  TIP3      14709           0.0000000000
     95642     16069  TIP3      H2             21.5444565977        4.4199460860      -50.7751161531  TIP3      14709           0.0000000000
     95643     16070  TIP3      OH2            21.5440847867        3.6290186737      -55.5510444772  TIP3      14710           0.0000000000
     95644     16070  TIP3      H1             20.6095572997        3.3718898627      -55.6887596102  TIP3      14710           0.0000000000
     95645     16070  TIP3      H2             21.9245091967        3.3346852734      -56.4003740465  TIP3      14710           0.0000000000
     95646     16071  TIP3      OH2            27.0620490759        4.1169772458      -56.7929069177  TIP3      14711           0.0000000000
     95647     16071  TIP3      H1             26.6607425374        4.9506685427      -57.1261768110  TIP3      14711           0.0000000000
     95648     16071  TIP3      H2             27.7503046753        3.9562501439      -57.4594569612  TIP3      14711           0.0000000000
     95649     16072  TIP3      OH2            28.0840507904        3.6243191725      -53.9553232643  TIP3      14712           0.0000000000
     95650     16072  TIP3      H1             27.8197318045        4.1802470354      -54.7034806010  TIP3      14712           0.0000000000
     95651     16072  TIP3      H2             28.2037391345        2.7649970421      -54.4009014060  TIP3      14712           0.0000000000
     95652     16073  TIP3      OH2            19.1924734318        3.7936856557      -48.7166724644  TIP3      14713           0.0000000000
     95653     16073  TIP3      H1             19.3060425127        4.1498936916      -47.8167106645  TIP3      14713           0.0000000000
     95654     16073  TIP3      H2             18.7990252684        2.9291162285      -48.5324155733  TIP3      14713           0.0000000000
     95655     16074  TIP3      OH2            15.8623086213        0.8512525637      -54.7462390338  TIP3      14714           0.0000000000
     95656     16074  TIP3      H1             16.5528725712        0.8494739234      -54.0593363652  TIP3      14714           0.0000000000
     95657     16074  TIP3      H2             16.3120726128        0.5018680953      -55.5369443655  TIP3      14714           0.0000000000
     95658     16075  TIP3      OH2            17.1420696150        1.6211889419      -59.3633483628  TIP3      14715           0.0000000000
     95659     16075  TIP3      H1             17.6097753060        2.1847180235      -59.9963428314  TIP3      14715           0.0000000000
     95660     16075  TIP3      H2             16.4481337073        2.2440969159      -59.0741956888  TIP3      14715           0.0000000000
     95661     16076  TIP3      OH2            27.2686733446        5.2047172102      -49.3658455806  TIP3      14716           0.0000000000
     95662     16076  TIP3      H1             27.6943823882        4.5307177500      -49.9449423937  TIP3      14716           0.0000000000
     95663     16076  TIP3      H2             26.8540115421        4.6340901123      -48.6976437232  TIP3      14716           0.0000000000
     95664     16077  TIP3      OH2            24.1032101211        1.1773466482      -54.5464302091  TIP3      14717           0.0000000000
     95665     16077  TIP3      H1             23.1713208026        1.1807289268      -54.2546567155  TIP3      14717           0.0000000000
     95666     16077  TIP3      H2             24.5882048566        1.0195902148      -53.7219744258  TIP3      14717           0.0000000000
     95667     16078  TIP3      OH2            18.9128076450        2.7333640173      -55.6955229334  TIP3      14718           0.0000000000
     95668     16078  TIP3      H1             18.0220538230        2.8817194120      -56.0730776688  TIP3      14718           0.0000000000
     95669     16078  TIP3      H2             19.1982699917        1.8946847021      -56.0942259633  TIP3      14718           0.0000000000
     95670     16079  TIP3      OH2            22.5444301260        2.7973105482      -58.0544249486  TIP3      14719           0.0000000000
     95671     16079  TIP3      H1             23.5010509846        2.8948552246      -57.8781428137  TIP3      14719           0.0000000000
     95672     16079  TIP3      H2             22.3162909383        3.4583583416      -58.7319026372  TIP3      14719           0.0000000000
     95673     16080  TIP3      OH2            28.4922285414        0.3579151120      -51.3121967430  TIP3      14720           0.0000000000
     95674     16080  TIP3      H1             27.8388963751        0.4939202717      -50.5922732339  TIP3      14720           0.0000000000
     95675     16080  TIP3      H2             27.9698898973        0.1779334277      -52.0902418816  TIP3      14720           0.0000000000
     95676     16081  TIP3      OH2            21.2561252972        3.9218172067      -60.4521438607  TIP3      14721           0.0000000000
     95677     16081  TIP3      H1             20.7141793132        3.6003591025      -61.1882126225  TIP3      14721           0.0000000000
     95678     16081  TIP3      H2             22.0706453605        4.1830906371      -60.9143998798  TIP3      14721           0.0000000000
     95679     16082  TIP3      OH2            25.3807951660        3.9283850864      -52.6537484393  TIP3      14722           0.0000000000
     95680     16082  TIP3      H1             25.9916045117        3.3999091094      -53.1817718204  TIP3      14722           0.0000000000
     95681     16082  TIP3      H2             25.2626978321        3.3859034209      -51.8617449985  TIP3      14722           0.0000000000
     95682     16083  TIP3      OH2            20.4017830568        0.0740498604      -56.2049238080  TIP3      14723           0.0000000000
     95683     16083  TIP3      H1             20.1000476442       -0.8469128404      -56.2688939139  TIP3      14723           0.0000000000
     95684     16083  TIP3      H2             21.1823847446        0.0285695326      -56.7722184716  TIP3      14723           0.0000000000
     95685     16084  TIP3      OH2            24.0293531756        2.2590639592      -50.2554775530  TIP3      14724           0.0000000000
     95686     16084  TIP3      H1             23.2021369452        2.7712145734      -50.1656279434  TIP3      14724           0.0000000000
     95687     16084  TIP3      H2             24.5914241814        2.5991460920      -49.5277681691  TIP3      14724           0.0000000000
     95688     16085  TIP3      OH2            24.6217278627        8.4583852107      -58.5083303545  TIP3      14725           0.0000000000
     95689     16085  TIP3      H1             23.8167357158        8.0163574238      -58.8643719766  TIP3      14725           0.0000000000
     95690     16085  TIP3      H2             24.3872760242        8.5940803396      -57.5717654549  TIP3      14725           0.0000000000
     95691     16086  TIP3      OH2            31.8063803168        7.6944391834      -49.7328418262  TIP3      14726           0.0000000000
     95692     16086  TIP3      H1             32.3760971658        8.1527635854      -50.3821662071  TIP3      14726           0.0000000000
     95693     16086  TIP3      H2             30.9533974671        7.7046269929      -50.2136360878  TIP3      14726           0.0000000000
     95694     16087  TIP3      OH2            28.4657468599        1.2850877161      -60.3604445596  TIP3      14727           0.0000000000
     95695     16087  TIP3      H1             27.5251485887        1.4461285244      -60.5294079254  TIP3      14727           0.0000000000
     95696     16087  TIP3      H2             28.7765684739        2.1563804157      -60.0494797073  TIP3      14727           0.0000000000
     95697     16088  TIP3      OH2            26.1075970047        8.7652511364      -47.3521167985  TIP3      14728           0.0000000000
     95698     16088  TIP3      H1             25.7609442007        8.3285800854      -46.5690675172  TIP3      14728           0.0000000000
     95699     16088  TIP3      H2             25.8620507473        9.6896114774      -47.2233242506  TIP3      14728           0.0000000000
     95700     16089  TIP3      OH2            29.1928403273        3.2149478866      -58.6987899563  TIP3      14729           0.0000000000
     95701     16089  TIP3      H1             30.0889437049        3.0801859581      -58.3323048504  TIP3      14729           0.0000000000
     95702     16089  TIP3      H2             29.2708829443        4.0303110538      -59.2130542539  TIP3      14729           0.0000000000
     95703     16090  TIP3      OH2            19.7196406360        7.8767226074      -52.7445090502  TIP3      14730           0.0000000000
     95704     16090  TIP3      H1             20.4104438002        7.7982910416      -53.4302169241  TIP3      14730           0.0000000000
     95705     16090  TIP3      H2             19.7816284713        7.0196648049      -52.2878903358  TIP3      14730           0.0000000000
     95706     16091  TIP3      OH2            26.7197268888        9.9551284910      -59.4542202020  TIP3      14731           0.0000000000
     95707     16091  TIP3      H1             26.3362944862       10.8039655731      -59.1488440951  TIP3      14731           0.0000000000
     95708     16091  TIP3      H2             25.9732247686        9.3359556303      -59.3059509742  TIP3      14731           0.0000000000
     95709     16092  TIP3      OH2            16.6777092964        6.2994883435      -47.4736110048  TIP3      14732           0.0000000000
     95710     16092  TIP3      H1             16.9317272063        5.8483382401      -46.6537920040  TIP3      14732           0.0000000000
     95711     16092  TIP3      H2             16.1018493808        5.6610532773      -47.9285575818  TIP3      14732           0.0000000000
     95712     16093  TIP3      OH2            28.3451969918       11.1297775177      -47.3516917382  TIP3      14733           0.0000000000
     95713     16093  TIP3      H1             27.4505702940       11.3995399235      -47.5898577252  TIP3      14733           0.0000000000
     95714     16093  TIP3      H2             28.4135505264       11.4344038445      -46.4370573423  TIP3      14733           0.0000000000
     95715     16094  TIP3      OH2            34.0408548596        3.3630848948      -58.9470707293  TIP3      14734           0.0000000000
     95716     16094  TIP3      H1             33.5485553343        3.0198556169      -59.7050111834  TIP3      14734           0.0000000000
     95717     16094  TIP3      H2             34.1720292939        4.2916521509      -59.2378600606  TIP3      14734           0.0000000000
     95718     16095  TIP3      OH2            34.0238747355        9.0850375672      -46.2095721904  TIP3      14735           0.0000000000
     95719     16095  TIP3      H1             33.1794756426        9.4909288008      -46.5273295263  TIP3      14735           0.0000000000
     95720     16095  TIP3      H2             34.5870019397        9.1886381536      -46.9916529540  TIP3      14735           0.0000000000
     95721     16096  TIP3      OH2            32.3772023542       12.1853052033      -58.5644948229  TIP3      14736           0.0000000000
     95722     16096  TIP3      H1             32.0009290003       11.3678671132      -58.2246613562  TIP3      14736           0.0000000000
     95723     16096  TIP3      H2             32.6700726966       11.9854401474      -59.4766456347  TIP3      14736           0.0000000000
     95724     16097  TIP3      OH2            29.5672409705        7.0128266795      -51.4596246663  TIP3      14737           0.0000000000
     95725     16097  TIP3      H1             28.6368205429        6.7659361051      -51.5701026591  TIP3      14737           0.0000000000
     95726     16097  TIP3      H2             30.0231510363        6.2552318773      -51.8801746229  TIP3      14737           0.0000000000
     95727     16098  TIP3      OH2            22.0947072364       11.3340377113      -55.3591439124  TIP3      14738           0.0000000000
     95728     16098  TIP3      H1             22.5944260541       12.1389630567      -55.5651475960  TIP3      14738           0.0000000000
     95729     16098  TIP3      H2             21.2150297085       11.5664937651      -55.6875164080  TIP3      14738           0.0000000000
     95730     16099  TIP3      OH2            17.8282388714        6.2069661376      -60.8276030296  TIP3      14739           0.0000000000
     95731     16099  TIP3      H1             18.4527728428        6.8165649679      -60.4038604039  TIP3      14739           0.0000000000
     95732     16099  TIP3      H2             16.9579979387        6.4663385412      -60.4935752214  TIP3      14739           0.0000000000
     95733     16100  TIP3      OH2            23.5095023517        8.9977533163      -55.8299741773  TIP3      14740           0.0000000000
     95734     16100  TIP3      H1             23.2007927211        9.9184788196      -55.7526750983  TIP3      14740           0.0000000000
     95735     16100  TIP3      H2             22.7855757018        8.5089360981      -55.3924706345  TIP3      14740           0.0000000000
     95736     16101  TIP3      OH2            23.9606342393       13.1958628758      -49.4515797785  TIP3      14741           0.0000000000
     95737     16101  TIP3      H1             24.4043191684       14.0218777808      -49.6966958570  TIP3      14741           0.0000000000
     95738     16101  TIP3      H2             24.5732351416       12.8446450347      -48.7830824200  TIP3      14741           0.0000000000
     95739     16102  TIP3      OH2            22.1908875512       13.9943912302      -56.3111159432  TIP3      14742           0.0000000000
     95740     16102  TIP3      H1             21.2247420689       14.1305920857      -56.1725279056  TIP3      14742           0.0000000000
     95741     16102  TIP3      H2             22.5482237677       14.8288480408      -55.9563691574  TIP3      14742           0.0000000000
     95742     16103  TIP3      OH2            27.4932384149        9.1821874543      -49.8378780729  TIP3      14743           0.0000000000
     95743     16103  TIP3      H1             27.1618026216        9.0005486256      -48.9357307528  TIP3      14743           0.0000000000
     95744     16103  TIP3      H2             28.1462682540        8.4782248751      -49.9596614907  TIP3      14743           0.0000000000
     95745     16104  TIP3      OH2            29.7670574899       10.2010188556      -60.6887252605  TIP3      14744           0.0000000000
     95746     16104  TIP3      H1             30.0678001205        9.7718416793      -59.8647163271  TIP3      14744           0.0000000000
     95747     16104  TIP3      H2             28.8093964380       10.0770469357      -60.6196915551  TIP3      14744           0.0000000000
     95748     16105  TIP3      OH2            30.2388437009       13.5476912978      -47.6538698684  TIP3      14745           0.0000000000
     95749     16105  TIP3      H1             29.4249481367       13.2469084239      -48.0458003095  TIP3      14745           0.0000000000
     95750     16105  TIP3      H2             30.4315623536       14.4363321600      -48.0238213288  TIP3      14745           0.0000000000
     95751     16106  TIP3      OH2            34.2971060606       14.6349999366      -60.4689491073  TIP3      14746           0.0000000000
     95752     16106  TIP3      H1             34.9908442231       15.2724686137      -60.7104280885  TIP3      14746           0.0000000000
     95753     16106  TIP3      H2             33.5762859728       15.2343031108      -60.1720611474  TIP3      14746           0.0000000000
     95754     16107  TIP3      OH2            18.3578091259        1.0126473867      -47.9816116027  TIP3      14747           0.0000000000
     95755     16107  TIP3      H1             17.4628482300        1.3876863429      -47.9575751413  TIP3      14747           0.0000000000
     95756     16107  TIP3      H2             18.2756863567        0.1998698280      -47.4587437701  TIP3      14747           0.0000000000
     95757     16108  TIP3      OH2            30.6105916889        8.8574951842      -58.4843060154  TIP3      14748           0.0000000000
     95758     16108  TIP3      H1             30.3656786879        8.0886659480      -57.9261274529  TIP3      14748           0.0000000000
     95759     16108  TIP3      H2             31.5538952147        8.9432573924      -58.2524956396  TIP3      14748           0.0000000000
     95760     16109  TIP3      OH2            17.9939466594       12.8026418969      -49.5101611722  TIP3      14749           0.0000000000
     95761     16109  TIP3      H1             18.2726597839       11.8762693560      -49.5000057570  TIP3      14749           0.0000000000
     95762     16109  TIP3      H2             18.2276512119       13.1045850013      -48.6194010197  TIP3      14749           0.0000000000
     95763     16110  TIP3      OH2            22.7021463241       10.8788982896      -59.7996305099  TIP3      14750           0.0000000000
     95764     16110  TIP3      H1             22.9924641470       10.3299897496      -59.0586506045  TIP3      14750           0.0000000000
     95765     16110  TIP3      H2             22.8178776208       11.7916317329      -59.4607160711  TIP3      14750           0.0000000000
     95766     16111  TIP3      OH2            19.2212327022        8.1212801845      -59.3233159488  TIP3      14751           0.0000000000
     95767     16111  TIP3      H1             18.5610909203        8.5285312297      -58.7231207723  TIP3      14751           0.0000000000
     95768     16111  TIP3      H2             19.7904856213        8.8749239955      -59.5449287615  TIP3      14751           0.0000000000
     95769     16112  TIP3      OH2            27.0571134851        0.7720720699      -49.0239495539  TIP3      14752           0.0000000000
     95770     16112  TIP3      H1             27.7869390363        0.8835653493      -48.3783464315  TIP3      14752           0.0000000000
     95771     16112  TIP3      H2             26.7212490981       -0.1102413781      -48.8152259084  TIP3      14752           0.0000000000
     95772     16113  TIP3      OH2            27.8290847406        0.3768600077      -57.8654743259  TIP3      14753           0.0000000000
     95773     16113  TIP3      H1             28.0721577066        0.8270043413      -58.6997542896  TIP3      14753           0.0000000000
     95774     16113  TIP3      H2             28.4185998862        0.8184128203      -57.2413276161  TIP3      14753           0.0000000000
     95775     16114  TIP3      OH2            25.5298223157       12.5364757411      -59.0576448077  TIP3      14754           0.0000000000
     95776     16114  TIP3      H1             24.7036581340       13.0454249682      -59.0117075526  TIP3      14754           0.0000000000
     95777     16114  TIP3      H2             26.0616611925       13.0322234553      -59.6883488665  TIP3      14754           0.0000000000
     95778     16115  TIP3      OH2            25.0593882178        2.1145788862      -57.0726437179  TIP3      14755           0.0000000000
     95779     16115  TIP3      H1             25.8504330935        2.6896782188      -57.0345083705  TIP3      14755           0.0000000000
     95780     16115  TIP3      H2             24.7988562265        1.9834561273      -56.1423510063  TIP3      14755           0.0000000000
     95781     16116  TIP3      OH2            25.6453441437        3.1673883058      -47.9300274242  TIP3      14756           0.0000000000
     95782     16116  TIP3      H1             25.7080337720        3.6862289887      -47.1283780463  TIP3      14756           0.0000000000
     95783     16116  TIP3      H2             26.2568434494        2.4166442108      -47.8088232749  TIP3      14756           0.0000000000
     95784     16117  TIP3      OH2            25.9185544612       -0.8281763231      -56.1844963602  TIP3      14757           0.0000000000
     95785     16117  TIP3      H1             25.5991108391       -0.1813089176      -55.5318401676  TIP3      14757           0.0000000000
     95786     16117  TIP3      H2             26.6118856883       -0.2814881610      -56.6325500961  TIP3      14757           0.0000000000
     95787     16118  TIP3      OH2            22.8751737165       13.5595446814      -59.0502965724  TIP3      14758           0.0000000000
     95788     16118  TIP3      H1             23.0643973441       14.3833199731      -59.5471141961  TIP3      14758           0.0000000000
     95789     16118  TIP3      H2             22.6533723828       13.9037335497      -58.1564176268  TIP3      14758           0.0000000000
     95790     16119  TIP3      OH2            21.5891589544        0.2664616616      -59.4320325016  TIP3      14759           0.0000000000
     95791     16119  TIP3      H1             21.5223349582        1.1830932589      -59.1076326411  TIP3      14759           0.0000000000
     95792     16119  TIP3      H2             22.5001774619        0.0309178814      -59.1836142732  TIP3      14759           0.0000000000
     95793     16120  TIP3      OH2            31.8192935566        0.9855347291      -46.9520692864  TIP3      14760           0.0000000000
     95794     16120  TIP3      H1             30.9122470398        1.2882569796      -47.1415215166  TIP3      14760           0.0000000000
     95795     16120  TIP3      H2             32.0871936149        1.0070272108      -47.8855188190  TIP3      14760           0.0000000000
     95796     16121  TIP3      OH2            30.3977261729        4.7902042176      -53.0378150721  TIP3      14761           0.0000000000
     95797     16121  TIP3      H1             29.5790064449        4.3350213560      -53.2788687687  TIP3      14761           0.0000000000
     95798     16121  TIP3      H2             30.8779641303        4.1250897129      -52.4917336599  TIP3      14761           0.0000000000
     95799     16122  TIP3      OH2            19.8311275721       10.7237205689      -60.4195055890  TIP3      14762           0.0000000000
     95800     16122  TIP3      H1             20.4829252469       11.3584947181      -60.0992253621  TIP3      14762           0.0000000000
     95801     16122  TIP3      H2             20.3343649632       10.2763870918      -61.1093332985  TIP3      14762           0.0000000000
     95802     16123  TIP3      OH2            31.4709489533       14.0497948816      -51.3718342417  TIP3      14763           0.0000000000
     95803     16123  TIP3      H1             31.3850169867       14.7436426910      -52.0474401359  TIP3      14763           0.0000000000
     95804     16123  TIP3      H2             32.4324517809       14.1127485757      -51.1643809917  TIP3      14763           0.0000000000
     95805     16124  TIP3      OH2            18.9836641504       -1.8090350196      -52.6420706825  TIP3      14764           0.0000000000
     95806     16124  TIP3      H1             18.8251536895       -1.7236017951      -53.6216072076  TIP3      14764           0.0000000000
     95807     16124  TIP3      H2             18.7173287972       -2.7355608404      -52.5656661426  TIP3      14764           0.0000000000
     95808     16125  TIP3      OH2            17.9221316323       12.0993811607      -56.3981072000  TIP3      14765           0.0000000000
     95809     16125  TIP3      H1             17.0663468798       12.5498190904      -56.4406500742  TIP3      14765           0.0000000000
     95810     16125  TIP3      H2             18.4010212587       12.5642428919      -57.0985292213  TIP3      14765           0.0000000000
     95811     16126  TIP3      OH2            30.5157167213       12.9698739290      -61.8925248813  TIP3      14766           0.0000000000
     95812     16126  TIP3      H1             30.7646838966       12.1434447110      -61.4328107305  TIP3      14766           0.0000000000
     95813     16126  TIP3      H2             31.2826682851       13.1500456628      -62.4464759025  TIP3      14766           0.0000000000
     95814     16127  TIP3      OH2            29.4568999699        8.3854675624      -47.5094157941  TIP3      14767           0.0000000000
     95815     16127  TIP3      H1             30.2461251620        8.9625752212      -47.4400046768  TIP3      14767           0.0000000000
     95816     16127  TIP3      H2             28.7643467956        9.0183848859      -47.2708895903  TIP3      14767           0.0000000000
     95817     16128  TIP3      OH2            22.6171778839        6.8996770056      -59.6643660245  TIP3      14768           0.0000000000
     95818     16128  TIP3      H1             22.0990527308        6.3658544554      -59.0453156124  TIP3      14768           0.0000000000
     95819     16128  TIP3      H2             22.9027544457        6.2232148348      -60.3221499317  TIP3      14768           0.0000000000
     95820     16129  TIP3      OH2            21.8382214349        4.6817600271      -47.4184982835  TIP3      14769           0.0000000000
     95821     16129  TIP3      H1             21.2756866800        5.4143353167      -47.1193959735  TIP3      14769           0.0000000000
     95822     16129  TIP3      H2             22.2572028007        5.0645240226      -48.2066674456  TIP3      14769           0.0000000000
     95823     16130  TIP3      OH2            23.6639458622        5.0840546049      -61.4724190820  TIP3      14770           0.0000000000
     95824     16130  TIP3      H1             23.5664068327        4.9551226388      -62.4296445245  TIP3      14770           0.0000000000
     95825     16130  TIP3      H2             24.6372529875        5.1971346444      -61.3603152501  TIP3      14770           0.0000000000
     95826     16131  TIP3      OH2            22.1654680345        2.0855481342      -46.3179613126  TIP3      14771           0.0000000000
     95827     16131  TIP3      H1             22.3517496802        1.3714482151      -46.9476400012  TIP3      14771           0.0000000000
     95828     16131  TIP3      H2             22.2122251008        2.8945763889      -46.8644476921  TIP3      14771           0.0000000000
     95829     16132  TIP3      OH2            22.6468079431        0.4178943473      -48.7720401349  TIP3      14772           0.0000000000
     95830     16132  TIP3      H1             23.1788477661        0.9178115251      -49.4380711711  TIP3      14772           0.0000000000
     95831     16132  TIP3      H2             21.7761863150        0.3605319566      -49.2060029149  TIP3      14772           0.0000000000
     95832     16133  TIP3      OH2            24.2175554014        5.9162131066      -48.5343766291  TIP3      14773           0.0000000000
     95833     16133  TIP3      H1             24.9807727454        5.7695568246      -49.1073776213  TIP3      14773           0.0000000000
     95834     16133  TIP3      H2             23.8522989906        6.7604888400      -48.8425259762  TIP3      14773           0.0000000000
     95835     16134  TIP3      OH2            23.4862211649       -2.0818974233      -48.3737858979  TIP3      14774           0.0000000000
     95836     16134  TIP3      H1             23.2688407942       -1.1277123721      -48.4620841525  TIP3      14774           0.0000000000
     95837     16134  TIP3      H2             22.7316954546       -2.4750896465      -48.8356985261  TIP3      14774           0.0000000000
     95838     16135  TIP3      OH2            23.5106771071       15.7995465505      -60.4589428963  TIP3      14775           0.0000000000
     95839     16135  TIP3      H1             24.4747677158       15.9092759324      -60.3235825475  TIP3      14775           0.0000000000
     95840     16135  TIP3      H2             23.3200551533       16.4733737883      -61.1093051016  TIP3      14775           0.0000000000
     95841     16136  TIP3      OH2            17.0958181090       10.3932037809      -60.9252328376  TIP3      14776           0.0000000000
     95842     16136  TIP3      H1             18.0508558092       10.4826141478      -60.7127796913  TIP3      14776           0.0000000000
     95843     16136  TIP3      H2             17.0994499023        9.7879198768      -61.6731170271  TIP3      14776           0.0000000000
     95844     16137  TIP3      OH2            15.8325694406       15.7668336820      -55.9514322323  TIP3      14777           0.0000000000
     95845     16137  TIP3      H1             15.1184297683       15.2820544441      -56.4221522277  TIP3      14777           0.0000000000
     95846     16137  TIP3      H2             16.1179185952       15.1105940215      -55.2941543393  TIP3      14777           0.0000000000
     95847     16138  TIP3      OH2            16.6596430161       13.9004843961      -54.0818916425  TIP3      14778           0.0000000000
     95848     16138  TIP3      H1             16.3046798920       13.0230909441      -53.8781770421  TIP3      14778           0.0000000000
     95849     16138  TIP3      H2             16.8833921613       14.2320100787      -53.1977492190  TIP3      14778           0.0000000000
     95850     16139  TIP3      OH2            34.1550795372       14.7175425841      -51.1510200800  TIP3      14779           0.0000000000
     95851     16139  TIP3      H1             34.2060528855       14.8469546824      -50.1831518267  TIP3      14779           0.0000000000
     95852     16139  TIP3      H2             34.8988196254       15.2604262121      -51.4370187371  TIP3      14779           0.0000000000
     95853     16140  TIP3      OH2            33.8540363976       14.2860086197      -48.3168262285  TIP3      14780           0.0000000000
     95854     16140  TIP3      H1             33.2881641814       13.5281489101      -48.5595752210  TIP3      14780           0.0000000000
     95855     16140  TIP3      H2             34.2671853747       13.8671523341      -47.5348287957  TIP3      14780           0.0000000000
     95856     16141  TIP3      OH2            33.5591548632        8.3181890275      -58.1281654227  TIP3      14781           0.0000000000
     95857     16141  TIP3      H1             34.3911197585        8.7449145162      -57.8733275097  TIP3      14781           0.0000000000
     95858     16141  TIP3      H2             33.5186085204        7.6382133995      -57.4107505943  TIP3      14781           0.0000000000
     95859     16142  TIP3      OH2            33.9193328802        6.3460336803      -56.3205343609  TIP3      14782           0.0000000000
     95860     16142  TIP3      H1             33.1568289401        5.9626410038      -55.8256626896  TIP3      14782           0.0000000000
     95861     16142  TIP3      H2             34.4235814734        6.5945099702      -55.4952115900  TIP3      14782           0.0000000000
     95862     16143  TIP3      OH2            33.6909011068        9.1732746113      -51.1174742466  TIP3      14783           0.0000000000
     95863     16143  TIP3      H1             34.3740178309        8.6935084264      -51.6428822733  TIP3      14783           0.0000000000
     95864     16143  TIP3      H2             33.8091391720       10.0813136384      -51.4426341752  TIP3      14783           0.0000000000
     95865     16144  TIP3      OH2            32.1850203392       12.0029206756      -48.9764787081  TIP3      14784           0.0000000000
     95866     16144  TIP3      H1             31.5265102303       12.3863819586      -48.3505065379  TIP3      14784           0.0000000000
     95867     16144  TIP3      H2             31.6173684496       11.6107696777      -49.6633903675  TIP3      14784           0.0000000000
     95868     16145  TIP3      OH2            34.1708057062        6.2426029609      -59.8352035369  TIP3      14785           0.0000000000
     95869     16145  TIP3      H1             33.6063610459        6.5920736941      -60.5282722252  TIP3      14785           0.0000000000
     95870     16145  TIP3      H2             34.1150902789        6.9438547256      -59.1465982347  TIP3      14785           0.0000000000
     95871     16146  TIP3      OH2            31.6714926631        4.8843332573      -55.6786494015  TIP3      14786           0.0000000000
     95872     16146  TIP3      H1             31.5696325332        3.9303219864      -55.6478784370  TIP3      14786           0.0000000000
     95873     16146  TIP3      H2             31.4368521166        5.1444602730      -54.7660676362  TIP3      14786           0.0000000000
     95874     16147  TIP3      OH2            16.7158247029        6.9760706392      -51.5923167940  TIP3      14787           0.0000000000
     95875     16147  TIP3      H1             16.8978329492        6.8974174688      -52.5552396620  TIP3      14787           0.0000000000
     95876     16147  TIP3      H2             17.6082794106        6.8056084010      -51.2335781985  TIP3      14787           0.0000000000
     95877     16148  TIP3      OH2            32.6171516463        6.8159412827      -46.0012761523  TIP3      14788           0.0000000000
     95878     16148  TIP3      H1             33.2143038806        6.1226313455      -45.7666251781  TIP3      14788           0.0000000000
     95879     16148  TIP3      H2             33.1558097706        7.6452764185      -45.9972683048  TIP3      14788           0.0000000000
     95880     16149  TIP3      OH2            31.8072940163        0.8883333832      -62.2147343378  TIP3      14789           0.0000000000
     95881     16149  TIP3      H1             32.3940970909        0.4944535340      -61.5410524229  TIP3      14789           0.0000000000
     95882     16149  TIP3      H2             30.9290433358        0.5528596285      -61.9932245915  TIP3      14789           0.0000000000
     95883     16150  TIP3      OH2            31.3829537924        2.4742448611      -57.1868447397  TIP3      14790           0.0000000000
     95884     16150  TIP3      H1             31.6843478248        1.5448837874      -57.0620117950  TIP3      14790           0.0000000000
     95885     16150  TIP3      H2             32.1750458044        2.8738158765      -57.5706702492  TIP3      14790           0.0000000000
     95886     16151  TIP3      OH2            32.0385554365        3.0130706464      -51.7848183293  TIP3      14791           0.0000000000
     95887     16151  TIP3      H1             32.9853202782        3.2844220001      -51.7676560874  TIP3      14791           0.0000000000
     95888     16151  TIP3      H2             31.7963562152        3.1274453709      -50.8424097985  TIP3      14791           0.0000000000
     95889     16152  TIP3      OH2            32.4090753880        3.9794512201      -48.7628802132  TIP3      14792           0.0000000000
     95890     16152  TIP3      H1             31.4134053270        3.9580082315      -48.7160839299  TIP3      14792           0.0000000000
     95891     16152  TIP3      H2             32.5729956614        4.8159704139      -49.2504715888  TIP3      14792           0.0000000000
     95892     16153  TIP3      OH2            32.0449814953       -0.2438124481      -57.1526521965  TIP3      14793           0.0000000000
     95893     16153  TIP3      H1             32.2582374587       -0.6758953826      -56.2962104749  TIP3      14793           0.0000000000
     95894     16153  TIP3      H2             31.4397039485       -0.8824801912      -57.5871008965  TIP3      14793           0.0000000000
     95895     16154  TIP3      OH2            17.5204798871        0.5515484698      -52.5457874729  TIP3      14794           0.0000000000
     95896     16154  TIP3      H1             18.0526656890       -0.2317078920      -52.3634790681  TIP3      14794           0.0000000000
     95897     16154  TIP3      H2             18.0707335484        1.2763189104      -52.2133529378  TIP3      14794           0.0000000000
     95898     16155  TIP3      OH2            15.8149298219        3.5607229689      -51.5556625994  TIP3      14795           0.0000000000
     95899     16155  TIP3      H1             16.3820109911        3.3192870358      -52.3133108310  TIP3      14795           0.0000000000
     95900     16155  TIP3      H2             16.2765589056        4.3701341677      -51.2812867134  TIP3      14795           0.0000000000
     95901     16156  TIP3      OH2            33.8672596592       -0.1913486231      -60.5663753274  TIP3      14796           0.0000000000
     95902     16156  TIP3      H1             34.2922472438       -0.8923626200      -61.0873192973  TIP3      14796           0.0000000000
     95903     16156  TIP3      H2             34.5741641040        0.4742843103      -60.5798600363  TIP3      14796           0.0000000000
     95904     16157  TIP3      OH2            16.1817270880       -0.1628266943      -57.4880159202  TIP3      14797           0.0000000000
     95905     16157  TIP3      H1             15.2356297275        0.0075825544      -57.6063739662  TIP3      14797           0.0000000000
     95906     16157  TIP3      H2             16.5934893641        0.3285546247      -58.2181650105  TIP3      14797           0.0000000000
     95907     16158  TIP3      OH2            30.9194003556       14.7835303799      -55.5251129943  TIP3      14798           0.0000000000
     95908     16158  TIP3      H1             31.6033310484       14.4736581235      -56.1455528477  TIP3      14798           0.0000000000
     95909     16158  TIP3      H2             31.4380712104       15.2780082395      -54.8741387441  TIP3      14798           0.0000000000
     95910     16159  TIP3      OH2            16.1559775465       -1.5117517394      -49.2458624166  TIP3      14799           0.0000000000
     95911     16159  TIP3      H1             15.5069258041       -1.7068031710      -48.5193495308  TIP3      14799           0.0000000000
     95912     16159  TIP3      H2             15.6405190432       -0.8015845115      -49.7104963427  TIP3      14799           0.0000000000
     95913     16160  TIP3      OH2            21.2589678465       12.6651442894      -48.7656595958  TIP3      14800           0.0000000000
     95914     16160  TIP3      H1             20.9216794990       13.5423054280      -49.0120010685  TIP3      14800           0.0000000000
     95915     16160  TIP3      H2             22.1982292856       12.7772767711      -49.0266223629  TIP3      14800           0.0000000000
     95916     16161  TIP3      OH2            25.6207318888       14.0065996093      -45.7992666895  TIP3      14801           0.0000000000
     95917     16161  TIP3      H1             25.8094959245       13.7997319406      -44.8772382825  TIP3      14801           0.0000000000
     95918     16161  TIP3      H2             26.4643517565       14.4179976843      -46.0684863214  TIP3      14801           0.0000000000
     95919     16162  TIP3      OH2            27.8817286439       15.4205522806      -46.5904610488  TIP3      14802           0.0000000000
     95920     16162  TIP3      H1             28.6060841738       14.8012397537      -46.7677330465  TIP3      14802           0.0000000000
     95921     16162  TIP3      H2             28.2423176378       15.7567777342      -45.7482388985  TIP3      14802           0.0000000000
     95922     16163  TIP3      OH2            32.8430450591       -1.9114092100      -47.5893353528  TIP3      14803           0.0000000000
     95923     16163  TIP3      H1             31.9400649979       -1.6157494111      -47.8495786382  TIP3      14803           0.0000000000
     95924     16163  TIP3      H2             32.8921503410       -2.7144502321      -48.1300114497  TIP3      14803           0.0000000000
     95925     16164  TIP3      OH2            18.6760018289       15.9239479520      -48.7393432136  TIP3      14804           0.0000000000
     95926     16164  TIP3      H1             17.9367524219       16.4196790908      -49.1181241780  TIP3      14804           0.0000000000
     95927     16164  TIP3      H2             18.3560181410       15.7530495885      -47.8398106064  TIP3      14804           0.0000000000
     95928     16165  TIP3      OH2            21.1287498008       15.4790761613      -49.7046061747  TIP3      14805           0.0000000000
     95929     16165  TIP3      H1             20.2824446859       15.6849629342      -49.2441081033  TIP3      14805           0.0000000000
     95930     16165  TIP3      H2             21.1010721521       16.1145919123      -50.4438207273  TIP3      14805           0.0000000000
     95931     16166  TIP3      OH2            25.8907293802       15.4269895902      -50.5284693480  TIP3      14806           0.0000000000
     95932     16166  TIP3      H1             25.3852203200       15.9851574877      -51.1361465024  TIP3      14806           0.0000000000
     95933     16166  TIP3      H2             25.9803352542       16.0380865799      -49.7632019336  TIP3      14806           0.0000000000
     95934     16167  TIP3      OH2            28.1600073016       14.2150429045      -49.5623543735  TIP3      14807           0.0000000000
     95935     16167  TIP3      H1             27.2854510004       14.5208361561      -49.8545783830  TIP3      14807           0.0000000000
     95936     16167  TIP3      H2             28.6309644390       15.0672346164      -49.5651879244  TIP3      14807           0.0000000000
     95937     16168  TIP3      OH2            30.7337593440       15.8314734969      -49.2525119004  TIP3      14808           0.0000000000
     95938     16168  TIP3      H1             30.6887171739       16.7842858513      -49.4882749480  TIP3      14808           0.0000000000
     95939     16168  TIP3      H2             30.9652375467       15.4348873574      -50.1106561839  TIP3      14808           0.0000000000
     95940     16169  TIP3      OH2            18.1462681275       14.5740124752      -51.7961378122  TIP3      14809           0.0000000000
     95941     16169  TIP3      H1             18.0812642861       14.1393307094      -50.9171265111  TIP3      14809           0.0000000000
     95942     16169  TIP3      H2             18.9611798098       14.1967999104      -52.1870404487  TIP3      14809           0.0000000000
     95943     16170  TIP3      OH2            20.2293298743       13.2869607828      -53.1484434918  TIP3      14810           0.0000000000
     95944     16170  TIP3      H1             20.0620784913       12.3532036507      -52.9186622861  TIP3      14810           0.0000000000
     95945     16170  TIP3      H2             21.0832054387       13.4389552499      -52.6902074660  TIP3      14810           0.0000000000
     95946     16171  TIP3      OH2            22.8268038995       13.7736027747      -52.2704338895  TIP3      14811           0.0000000000
     95947     16171  TIP3      H1             22.9893125292       12.8507497739      -52.5315555777  TIP3      14811           0.0000000000
     95948     16171  TIP3      H2             22.8761808103       13.7261306325      -51.2992760344  TIP3      14811           0.0000000000
     95949     16172  TIP3      OH2            26.2842738772       -0.5774547841      -53.1350607769  TIP3      14812           0.0000000000
     95950     16172  TIP3      H1             25.6111402016       -1.2211623622      -52.8558189703  TIP3      14812           0.0000000000
     95951     16172  TIP3      H2             26.8399713001       -1.1098096031      -53.7169535131  TIP3      14812           0.0000000000
     95952     16173  TIP3      OH2            31.4210856575       -2.5281448198      -53.0696193403  TIP3      14813           0.0000000000
     95953     16173  TIP3      H1             32.0363081396       -1.9350839670      -53.5733386746  TIP3      14813           0.0000000000
     95954     16173  TIP3      H2             30.5391704667       -2.1613017308      -53.2926603558  TIP3      14813           0.0000000000
     95955     16174  TIP3      OH2            33.1047412609       -1.2860692358      -54.7878244307  TIP3      14814           0.0000000000
     95956     16174  TIP3      H1             33.7862541807       -1.8588661126      -55.2045978978  TIP3      14814           0.0000000000
     95957     16174  TIP3      H2             33.5993100311       -0.4433285400      -54.6838372062  TIP3      14814           0.0000000000
     95958     16175  TIP3      OH2            18.6326195959       -1.9697953894      -55.2679989267  TIP3      14815           0.0000000000
     95959     16175  TIP3      H1             17.8585365328       -2.1477131107      -55.8362590421  TIP3      14815           0.0000000000
     95960     16175  TIP3      H2             19.1224324508       -2.8116195170      -55.3707741362  TIP3      14815           0.0000000000
     95961     16176  TIP3      OH2            17.3972981559       -2.1838835133      -59.5720083642  TIP3      14816           0.0000000000
     95962     16176  TIP3      H1             17.9089849788       -1.5486482738      -60.1091503606  TIP3      14816           0.0000000000
     95963     16176  TIP3      H2             16.8522823458       -1.6158956782      -59.0047562280  TIP3      14816           0.0000000000
     95964     16177  TIP3      OH2            23.1338958867       -2.0288772545      -55.4994498218  TIP3      14817           0.0000000000
     95965     16177  TIP3      H1             24.0338259679       -1.6668839521      -55.5697234893  TIP3      14817           0.0000000000
     95966     16177  TIP3      H2             23.0913015845       -2.2426301965      -54.5673587197  TIP3      14817           0.0000000000
     95967     16178  TIP3      OH2            28.8345252112       -2.0067537324      -53.8702452794  TIP3      14818           0.0000000000
     95968     16178  TIP3      H1             28.7947982138       -1.8986915042      -54.8266316174  TIP3      14818           0.0000000000
     95969     16178  TIP3      H2             28.4602970065       -2.9123503573      -53.7474478401  TIP3      14818           0.0000000000
     95970     16179  TIP3      OH2            30.1136845557       -1.9795377003      -58.2142892274  TIP3      14819           0.0000000000
     95971     16179  TIP3      H1             29.3686728048       -1.3814812378      -58.3691741723  TIP3      14819           0.0000000000
     95972     16179  TIP3      H2             29.6774518666       -2.8308762649      -57.9765021753  TIP3      14819           0.0000000000
     95973     16180  TIP3      OH2            17.3465390441       13.7670861440      -58.5517067769  TIP3      14820           0.0000000000
     95974     16180  TIP3      H1             16.6677745869       13.7583204787      -59.2543783405  TIP3      14820           0.0000000000
     95975     16180  TIP3      H2             17.3657874550       14.7180311233      -58.3864715386  TIP3      14820           0.0000000000
     95976     16181  TIP3      OH2            19.2479525008       -0.3384013613      -61.0101047850  TIP3      14821           0.0000000000
     95977     16181  TIP3      H1             19.7996703298       -0.8716704856      -61.5822433937  TIP3      14821           0.0000000000
     95978     16181  TIP3      H2             19.9295993401        0.0830143559      -60.4553160673  TIP3      14821           0.0000000000
     95979     16182  TIP3      OH2            24.3040250724       -0.0058671656      -58.6481607191  TIP3      14822           0.0000000000
     95980     16182  TIP3      H1             24.5428581290       -0.5857407516      -57.9051770877  TIP3      14822           0.0000000000
     95981     16182  TIP3      H2             24.3430072464        0.8550306993      -58.1712619815  TIP3      14822           0.0000000000
     95982     16183  TIP3      OH2            26.1772232665       15.0825803259      -60.2390405380  TIP3      14823           0.0000000000
     95983     16183  TIP3      H1             27.1229937982       15.2858211107      -60.3771887002  TIP3      14823           0.0000000000
     95984     16183  TIP3      H2             26.0177464144       14.5266485696      -61.0112630029  TIP3      14823           0.0000000000
     95985     16184  TIP3      OH2            32.9150247470       14.5667922465      -57.4862357032  TIP3      14824           0.0000000000
     95986     16184  TIP3      H1             32.7144835405       13.7884097884      -58.0639632606  TIP3      14824           0.0000000000
     95987     16184  TIP3      H2             32.8301778720       15.3006012203      -58.1251498432  TIP3      14824           0.0000000000
     95988     16185  TIP3      OH2            18.3564758121       -1.7867216248      -46.0812412021  TIP3      14825           0.0000000000
     95989     16185  TIP3      H1             18.0684800381       -2.3502435908      -45.3490368193  TIP3      14825           0.0000000000
     95990     16185  TIP3      H2             19.2360183060       -1.6174661999      -45.7242229330  TIP3      14825           0.0000000000
     95991     16186  TIP3      OH2            19.1592030804       14.7177916192      -61.5931412334  TIP3      14826           0.0000000000
     95992     16186  TIP3      H1             18.8800141780       15.0156880043      -60.7165586232  TIP3      14826           0.0000000000
     95993     16186  TIP3      H2             19.9426609874       14.1967547258      -61.4223649253  TIP3      14826           0.0000000000
     95994     16187  TIP3      OH2            37.8534054327        6.0966633397      -50.3641375004  TIP3      14827           0.0000000000
     95995     16187  TIP3      H1             37.8978318361        5.4198243028      -49.6563827375  TIP3      14827           0.0000000000
     95996     16187  TIP3      H2             38.5692971199        6.7048874253      -50.1400558797  TIP3      14827           0.0000000000
     95997     16188  TIP3      OH2            38.7145029070       10.5294606505      -51.8254289393  TIP3      14828           0.0000000000
     95998     16188  TIP3      H1             38.4128035938        9.6732409074      -52.1888954187  TIP3      14828           0.0000000000
     95999     16188  TIP3      H2             39.6846852580       10.3880297860      -51.7952021740  TIP3      14828           0.0000000000
     96000     16189  TIP3      OH2            35.4154784017        4.1096549331      -56.4594726375  TIP3      14829           0.0000000000
     96001     16189  TIP3      H1             34.9681116997        4.9925507935      -56.4037642208  TIP3      14829           0.0000000000
     96002     16189  TIP3      H2             34.7741516235        3.5998118370      -56.9627236029  TIP3      14829           0.0000000000
     96003     16190  TIP3      OH2            36.3055551507        6.3311210239      -54.3349097798  TIP3      14830           0.0000000000
     96004     16190  TIP3      H1             36.4280712638        5.5235764422      -53.8081878593  TIP3      14830           0.0000000000
     96005     16190  TIP3      H2             37.0086210394        6.3691897694      -54.9751628060  TIP3      14830           0.0000000000
     96006     16191  TIP3      OH2            39.6903005571        1.5160994775      -53.7020744518  TIP3      14831           0.0000000000
     96007     16191  TIP3      H1             40.1341180882        2.2435261904      -54.2121508992  TIP3      14831           0.0000000000
     96008     16191  TIP3      H2             39.6816366283        0.8675695760      -54.4012471010  TIP3      14831           0.0000000000
     96009     16192  TIP3      OH2            36.7619735346        3.7893451304      -53.1915891997  TIP3      14832           0.0000000000
     96010     16192  TIP3      H1             37.4572058805        3.2732532353      -52.7416270646  TIP3      14832           0.0000000000
     96011     16192  TIP3      H2             36.8363067394        3.4907744659      -54.1099905431  TIP3      14832           0.0000000000
     96012     16193  TIP3      OH2            38.9943542759        0.2645340934      -49.8926846314  TIP3      14833           0.0000000000
     96013     16193  TIP3      H1             38.7234852867        0.8623538114      -50.6247988362  TIP3      14833           0.0000000000
     96014     16193  TIP3      H2             38.3250430437        0.5218618922      -49.2232364283  TIP3      14833           0.0000000000
     96015     16194  TIP3      OH2            38.5011451198        2.2457671753      -51.6368955633  TIP3      14834           0.0000000000
     96016     16194  TIP3      H1             39.2169737319        2.8985544956      -51.5195877782  TIP3      14834           0.0000000000
     96017     16194  TIP3      H2             38.9456022150        1.8310500170      -52.4352386430  TIP3      14834           0.0000000000
     96018     16195  TIP3      OH2            39.7974010269       10.0421688906      -48.9319191753  TIP3      14835           0.0000000000
     96019     16195  TIP3      H1             39.8474396346       10.9952432964      -49.1129649716  TIP3      14835           0.0000000000
     96020     16195  TIP3      H2             38.9828926408       10.0006347075      -48.3829537876  TIP3      14835           0.0000000000
     96021     16196  TIP3      OH2            36.0847087267        9.5785711748      -58.0714965904  TIP3      14836           0.0000000000
     96022     16196  TIP3      H1             35.8070428851        9.9142012864      -58.9423877466  TIP3      14836           0.0000000000
     96023     16196  TIP3      H2             36.1042728426       10.3875602047      -57.5159675116  TIP3      14836           0.0000000000
     96024     16197  TIP3      OH2            40.1210920996        7.3175276763      -55.0691835356  TIP3      14837           0.0000000000
     96025     16197  TIP3      H1             39.9849857709        6.9501258803      -55.9671170013  TIP3      14837           0.0000000000
     96026     16197  TIP3      H2             40.8556150119        6.7603053603      -54.7276607508  TIP3      14837           0.0000000000
     96027     16198  TIP3      OH2            38.5041684614        6.6302826129      -47.5040738446  TIP3      14838           0.0000000000
     96028     16198  TIP3      H1             38.5665562678        7.3138268159      -46.8386817956  TIP3      14838           0.0000000000
     96029     16198  TIP3      H2             37.5924192333        6.7126139492      -47.8160940946  TIP3      14838           0.0000000000
     96030     16199  TIP3      OH2            39.7539571401       12.5632612591      -45.9724191698  TIP3      14839           0.0000000000
     96031     16199  TIP3      H1             39.8172136638       12.3753774110      -46.9252305675  TIP3      14839           0.0000000000
     96032     16199  TIP3      H2             38.8338214387       12.3768556439      -45.7423382185  TIP3      14839           0.0000000000
     96033     16200  TIP3      OH2            39.2966178689        6.3023410769      -57.4460964818  TIP3      14840           0.0000000000
     96034     16200  TIP3      H1             39.0281888015        7.0909769718      -57.9666229945  TIP3      14840           0.0000000000
     96035     16200  TIP3      H2             38.5903909750        5.6903312055      -57.6759761796  TIP3      14840           0.0000000000
     96036     16201  TIP3      OH2            35.4059256716        8.7498954723      -48.6112817699  TIP3      14841           0.0000000000
     96037     16201  TIP3      H1             34.9488627358        8.6741316503      -49.4797753899  TIP3      14841           0.0000000000
     96038     16201  TIP3      H2             35.4320980185        7.8016470081      -48.3850450909  TIP3      14841           0.0000000000
     96039     16202  TIP3      OH2            35.1673760596       11.5038441287      -51.7743433944  TIP3      14842           0.0000000000
     96040     16202  TIP3      H1             36.1214967890       11.3570012901      -51.7943955764  TIP3      14842           0.0000000000
     96041     16202  TIP3      H2             35.0796295411       12.3023036924      -51.2489591469  TIP3      14842           0.0000000000
     96042     16203  TIP3      OH2            38.3838603322       14.3460849713      -55.6264956441  TIP3      14843           0.0000000000
     96043     16203  TIP3      H1             38.5537861832       13.9215877643      -54.7589564123  TIP3      14843           0.0000000000
     96044     16203  TIP3      H2             37.5494233975       13.9018475947      -55.8560245952  TIP3      14843           0.0000000000
     96045     16204  TIP3      OH2            37.6226542912       10.0623657104      -47.5920520211  TIP3      14844           0.0000000000
     96046     16204  TIP3      H1             37.8313169193        9.6992496271      -46.7359933494  TIP3      14844           0.0000000000
     96047     16204  TIP3      H2             36.7579549004        9.6617118160      -47.8369309165  TIP3      14844           0.0000000000
     96048     16205  TIP3      OH2            40.2935663496       -1.4702293835      -51.6744985327  TIP3      14845           0.0000000000
     96049     16205  TIP3      H1             39.4028644289       -1.5636211008      -52.0750471641  TIP3      14845           0.0000000000
     96050     16205  TIP3      H2             40.2251345537       -0.5869960180      -51.2807798413  TIP3      14845           0.0000000000
     96051     16206  TIP3      OH2            40.3966957943        3.6532625614      -49.7383333809  TIP3      14846           0.0000000000
     96052     16206  TIP3      H1             39.4557807697        3.4170998976      -49.6252177341  TIP3      14846           0.0000000000
     96053     16206  TIP3      H2             40.2777889809        4.1706320937      -50.5618737810  TIP3      14846           0.0000000000
     96054     16207  TIP3      OH2            40.1132818616        3.4712817369      -55.2843074071  TIP3      14847           0.0000000000
     96055     16207  TIP3      H1             39.2210731198        3.3106184323      -55.6564171159  TIP3      14847           0.0000000000
     96056     16207  TIP3      H2             40.7177659177        3.2615655443      -55.9955431963  TIP3      14847           0.0000000000
     96057     16208  TIP3      OH2            38.0306952589        3.8147242526      -48.6609247943  TIP3      14848           0.0000000000
     96058     16208  TIP3      H1             38.0818634430        4.1874302899      -47.7712792195  TIP3      14848           0.0000000000
     96059     16208  TIP3      H2             37.6520642832        2.9278756632      -48.5276951480  TIP3      14848           0.0000000000
     96060     16209  TIP3      OH2            34.7265074102        0.8736404199      -54.7511182713  TIP3      14849           0.0000000000
     96061     16209  TIP3      H1             35.4083789048        0.8384346382      -54.0514326181  TIP3      14849           0.0000000000
     96062     16209  TIP3      H2             35.1847689613        0.5058926127      -55.5297502213  TIP3      14849           0.0000000000
     96063     16210  TIP3      OH2            36.0468834416        1.6280493034      -59.3341503677  TIP3      14850           0.0000000000
     96064     16210  TIP3      H1             36.4580304714        2.1841005759      -60.0067221291  TIP3      14850           0.0000000000
     96065     16210  TIP3      H2             35.3129933779        2.2214957222      -59.0650967547  TIP3      14850           0.0000000000
     96066     16211  TIP3      OH2            37.7022780627        2.7137459655      -55.6825090893  TIP3      14851           0.0000000000
     96067     16211  TIP3      H1             36.8232418680        2.8725070905      -56.0734250727  TIP3      14851           0.0000000000
     96068     16211  TIP3      H2             38.0276901649        1.8559485337      -56.0264563623  TIP3      14851           0.0000000000
     96069     16212  TIP3      OH2            40.1476599076        3.8727902799      -60.4497792496  TIP3      14852           0.0000000000
     96070     16212  TIP3      H1             39.5436907415        3.6211881327      -61.1659239892  TIP3      14852           0.0000000000
     96071     16212  TIP3      H2             40.9219091622        4.1727014696      -60.9350052690  TIP3      14852           0.0000000000
     96072     16213  TIP3      OH2            39.0191882961        0.0644294728      -56.2882031811  TIP3      14853           0.0000000000
     96073     16213  TIP3      H1             38.8307619414       -0.8886918752      -56.1670950999  TIP3      14853           0.0000000000
     96074     16213  TIP3      H2             39.9763179150        0.0523024359      -56.4625202733  TIP3      14853           0.0000000000
     96075     16214  TIP3      OH2            38.6035160955        7.8783330091      -52.7426471874  TIP3      14854           0.0000000000
     96076     16214  TIP3      H1             39.2848288372        7.7884260214      -53.4356703295  TIP3      14854           0.0000000000
     96077     16214  TIP3      H2             38.6251282215        7.0101935767      -52.3029273891  TIP3      14854           0.0000000000
     96078     16215  TIP3      OH2            35.5536479535        6.2914423487      -47.4866167109  TIP3      14855           0.0000000000
     96079     16215  TIP3      H1             35.7830322459        5.8605438929      -46.6494199828  TIP3      14855           0.0000000000
     96080     16215  TIP3      H2             34.9435287422        5.6751541302      -47.9417958310  TIP3      14855           0.0000000000
     96081     16216  TIP3      OH2            36.6850780804        6.2270742551      -60.8617537833  TIP3      14856           0.0000000000
     96082     16216  TIP3      H1             37.3070906136        6.8118752926      -60.4047038784  TIP3      14856           0.0000000000
     96083     16216  TIP3      H2             35.8193679048        6.4611042073      -60.4983230492  TIP3      14856           0.0000000000
     96084     16217  TIP3      OH2            37.2268676659        1.0416579174      -47.9211399833  TIP3      14857           0.0000000000
     96085     16217  TIP3      H1             36.3179273274        1.3841703165      -47.9822854028  TIP3      14857           0.0000000000
     96086     16217  TIP3      H2             37.1171352806        0.1824796003      -47.4810868187  TIP3      14857           0.0000000000
     96087     16218  TIP3      OH2            36.8713350270       12.8126809388      -49.5157164395  TIP3      14858           0.0000000000
     96088     16218  TIP3      H1             37.1168088693       11.8757660812      -49.4827470462  TIP3      14858           0.0000000000
     96089     16218  TIP3      H2             37.1000933730       13.1097911509      -48.6241036813  TIP3      14858           0.0000000000
     96090     16219  TIP3      OH2            38.0816690376        8.1229789790      -59.3289347773  TIP3      14859           0.0000000000
     96091     16219  TIP3      H1             37.4189120464        8.5184914565      -58.7276866044  TIP3      14859           0.0000000000
     96092     16219  TIP3      H2             38.6115065513        8.8998419648      -59.5387936837  TIP3      14859           0.0000000000
     96093     16220  TIP3      OH2           -41.1937744593        0.2449902228      -59.6689096890  TIP3      14860           0.0000000000
     96094     16220  TIP3      H1            -41.1676614426        1.1131743416      -59.2447285133  TIP3      14860           0.0000000000
     96095     16220  TIP3      H2            -40.2781927608       -0.0174663524      -59.4559858640  TIP3      14860           0.0000000000
     96096     16221  TIP3      OH2            38.7118208042       10.6689758694      -60.3985177894  TIP3      14861           0.0000000000
     96097     16221  TIP3      H1             39.3072532254       11.3698572725      -60.1151862317  TIP3      14861           0.0000000000
     96098     16221  TIP3      H2             39.2136547593       10.2881124808      -61.1207152835  TIP3      14861           0.0000000000
     96099     16222  TIP3      OH2            37.8276314739       -1.8304010484      -52.5640510988  TIP3      14862           0.0000000000
     96100     16222  TIP3      H1             37.6183900202       -1.7894361391      -53.5212169280  TIP3      14862           0.0000000000
     96101     16222  TIP3      H2             37.4072339844       -2.6711903623      -52.2810942126  TIP3      14862           0.0000000000
     96102     16223  TIP3      OH2            36.7736805394       12.1029323470      -56.4151008233  TIP3      14863           0.0000000000
     96103     16223  TIP3      H1             35.9255152846       12.5671311664      -56.4655123206  TIP3      14863           0.0000000000
     96104     16223  TIP3      H2             37.2859984907       12.5710449122      -57.0840200424  TIP3      14863           0.0000000000
     96105     16224  TIP3      OH2            35.9675509504       10.4023665462      -60.9316592911  TIP3      14864           0.0000000000
     96106     16224  TIP3      H1             36.9193253438       10.4778750533      -60.7118424217  TIP3      14864           0.0000000000
     96107     16224  TIP3      H2             35.9724946372        9.7887321119      -61.6735238635  TIP3      14864           0.0000000000
     96108     16225  TIP3      OH2            34.6947018875       15.7772125764      -55.9593455768  TIP3      14865           0.0000000000
     96109     16225  TIP3      H1             33.9736311197       15.2881384469      -56.4203964064  TIP3      14865           0.0000000000
     96110     16225  TIP3      H2             34.9860327633       15.1188276410      -55.3018817909  TIP3      14865           0.0000000000
     96111     16226  TIP3      OH2            35.5314845767       13.8958694874      -54.0886507143  TIP3      14866           0.0000000000
     96112     16226  TIP3      H1             35.1766655794       13.0195583020      -53.8787556399  TIP3      14866           0.0000000000
     96113     16226  TIP3      H2             35.7636943994       14.2296738074      -53.2057202408  TIP3      14866           0.0000000000
     96114     16227  TIP3      OH2            35.6440869717        6.9475054674      -51.4488711370  TIP3      14867           0.0000000000
     96115     16227  TIP3      H1             35.6732773151        6.8981534095      -52.4358810324  TIP3      14867           0.0000000000
     96116     16227  TIP3      H2             36.5715876474        6.7636824427      -51.2190005150  TIP3      14867           0.0000000000
     96117     16228  TIP3      OH2            36.3904228011        0.5526531050      -52.5759730273  TIP3      14868           0.0000000000
     96118     16228  TIP3      H1             36.9028339755       -0.2557172537      -52.3644700262  TIP3      14868           0.0000000000
     96119     16228  TIP3      H2             36.9431678778        1.2537031200      -52.1972224161  TIP3      14868           0.0000000000
     96120     16229  TIP3      OH2            34.7035979130        3.5407431196      -51.5368555986  TIP3      14869           0.0000000000
     96121     16229  TIP3      H1             35.2571776098        3.3470827520      -52.3204444172  TIP3      14869           0.0000000000
     96122     16229  TIP3      H2             35.1134739972        4.3832475381      -51.2901658797  TIP3      14869           0.0000000000
     96123     16230  TIP3      OH2            35.0436180264       -0.1649405629      -57.4884071284  TIP3      14870           0.0000000000
     96124     16230  TIP3      H1             34.0965453614        0.0089956930      -57.6133152848  TIP3      14870           0.0000000000
     96125     16230  TIP3      H2             35.4630755722        0.3278118315      -58.2133198298  TIP3      14870           0.0000000000
     96126     16231  TIP3      OH2            34.9915808722       -1.5083090815      -49.1765917852  TIP3      14871           0.0000000000
     96127     16231  TIP3      H1             34.2732603720       -1.6299982830      -48.5408923274  TIP3      14871           0.0000000000
     96128     16231  TIP3      H2             34.5541563487       -0.8210758961      -49.7365148156  TIP3      14871           0.0000000000
     96129     16232  TIP3      OH2            40.1785040835       12.6844891277      -48.7379107458  TIP3      14872           0.0000000000
     96130     16232  TIP3      H1             39.7875785516       13.5402401022      -48.9995821048  TIP3      14872           0.0000000000
     96131     16232  TIP3      H2             41.0985437033       12.8149787559      -49.0316332491  TIP3      14872           0.0000000000
     96132     16233  TIP3      OH2            37.5643373938       15.9448730125      -48.7298140653  TIP3      14873           0.0000000000
     96133     16233  TIP3      H1             36.8044343543       16.4044840594      -49.1214383122  TIP3      14873           0.0000000000
     96134     16233  TIP3      H2             37.2112342395       15.7458537819      -47.8441190753  TIP3      14873           0.0000000000
     96135     16234  TIP3      OH2            39.8518266080       15.2745868794      -49.8365280413  TIP3      14874           0.0000000000
     96136     16234  TIP3      H1             39.1097563119       15.5953241178      -49.2723194715  TIP3      14874           0.0000000000
     96137     16234  TIP3      H2             39.9774477126       16.0549218160      -50.4242592964  TIP3      14874           0.0000000000
     96138     16235  TIP3      OH2            36.9560734446       14.5725715563      -51.7820563912  TIP3      14875           0.0000000000
     96139     16235  TIP3      H1             36.9322530600       14.1299197740      -50.9062131213  TIP3      14875           0.0000000000
     96140     16235  TIP3      H2             37.7892537976       14.2220170891      -52.1724282783  TIP3      14875           0.0000000000
     96141     16236  TIP3      OH2            39.0776672885       13.3003584885      -53.1152247304  TIP3      14876           0.0000000000
     96142     16236  TIP3      H1             38.9001990727       12.3597434812      -52.9138822810  TIP3      14876           0.0000000000
     96143     16236  TIP3      H2             39.9271477204       13.4176439725      -52.6675204640  TIP3      14876           0.0000000000
     96144     16237  TIP3      OH2            37.4864122132       -1.9548188922      -55.2665203600  TIP3      14877           0.0000000000
     96145     16237  TIP3      H1             36.7020933877       -2.1672574404      -55.8074905422  TIP3      14877           0.0000000000
     96146     16237  TIP3      H2             37.9701249867       -2.8015825405      -55.3074598638  TIP3      14877           0.0000000000
     96147     16238  TIP3      OH2            36.2240883228       -2.1895960465      -59.5811395428  TIP3      14878           0.0000000000
     96148     16238  TIP3      H1             36.7663739470       -1.5596102037      -60.0957815498  TIP3      14878           0.0000000000
     96149     16238  TIP3      H2             35.6968585975       -1.6086710492      -59.0063829640  TIP3      14878           0.0000000000
     96150     16239  TIP3      OH2            36.1934139715       13.7601128836      -58.5526658507  TIP3      14879           0.0000000000
     96151     16239  TIP3      H1             35.5189878361       13.7575088538      -59.2607255381  TIP3      14879           0.0000000000
     96152     16239  TIP3      H2             36.2021410713       14.7104809812      -58.3778735221  TIP3      14879           0.0000000000
     96153     16240  TIP3      OH2            38.0945562693       -0.3374993737      -61.0068201881  TIP3      14880           0.0000000000
     96154     16240  TIP3      H1             38.6435362119       -0.8210275127      -61.6319889471  TIP3      14880           0.0000000000
     96155     16240  TIP3      H2             38.8004869057        0.0558083393      -60.4465867186  TIP3      14880           0.0000000000
     96156     16241  TIP3      OH2            37.2144574332       -1.8057375532      -46.0728297523  TIP3      14881           0.0000000000
     96157     16241  TIP3      H1             36.9631155978       -2.3474189831      -45.3207906923  TIP3      14881           0.0000000000
     96158     16241  TIP3      H2             38.0798641853       -1.5686295005      -45.7171898325  TIP3      14881           0.0000000000
     96159     16242  TIP3      OH2            38.0134081350       14.7282541561      -61.6021462921  TIP3      14882           0.0000000000
     96160     16242  TIP3      H1             37.7417014306       15.0279526759      -60.7204384736  TIP3      14882           0.0000000000
     96161     16242  TIP3      H2             38.8010578848       14.2055440453      -61.4406490182  TIP3      14882           0.0000000000
     96162     16243  TIP3      OH2           -28.8234038492       26.0413860701      -55.4259833318  TIP3      14883           0.0000000000
     96163     16243  TIP3      H1            -28.8319221688       27.0210686162      -55.4682733314  TIP3      14883           0.0000000000
     96164     16243  TIP3      H2            -29.5472167411       25.8060054771      -56.0303124310  TIP3      14883           0.0000000000
     96165     16244  TIP3      OH2           -29.9677039755       25.2962888374      -51.9266890393  TIP3      14884           0.0000000000
     96166     16244  TIP3      H1            -29.9762989815       24.6440922884      -51.2151954013  TIP3      14884           0.0000000000
     96167     16244  TIP3      H2            -30.3142225879       24.7958306550      -52.6835125251  TIP3      14884           0.0000000000
     96168     16245  TIP3      OH2           -37.5938226411       24.9496924762      -50.4278828838  TIP3      14885           0.0000000000
     96169     16245  TIP3      H1            -37.5432226274       24.2886700253      -49.6998744900  TIP3      14885           0.0000000000
     96170     16245  TIP3      H2            -36.8908004343       25.5487082199      -50.1369221980  TIP3      14885           0.0000000000
     96171     16246  TIP3      OH2           -26.2782341592       28.2478412801      -53.6429613082  TIP3      14886           0.0000000000
     96172     16246  TIP3      H1            -26.6982645281       27.5356114715      -53.1543766774  TIP3      14886           0.0000000000
     96173     16246  TIP3      H2            -26.2576710009       28.9546764647      -52.9702164491  TIP3      14886           0.0000000000
     96174     16247  TIP3      OH2           -36.6120714149       29.4942093735      -51.7315608127  TIP3      14887           0.0000000000
     96175     16247  TIP3      H1            -36.9858552963       28.5958221748      -51.7410158654  TIP3      14887           0.0000000000
     96176     16247  TIP3      H2            -35.6480973616       29.2942442034      -51.7029813527  TIP3      14887           0.0000000000
     96177     16248  TIP3      OH2           -39.7164421739       23.2722575577      -56.9435617922  TIP3      14888           0.0000000000
     96178     16248  TIP3      H1            -40.2980928045       23.9133213555      -56.4868995664  TIP3      14888           0.0000000000
     96179     16248  TIP3      H2            -40.3880368933       22.6307928255      -57.1552934280  TIP3      14888           0.0000000000
     96180     16249  TIP3      OH2           -39.1242029324       25.1869309097      -54.1539954228  TIP3      14889           0.0000000000
     96181     16249  TIP3      H1            -39.0413643213       24.2810294255      -53.7733660219  TIP3      14889           0.0000000000
     96182     16249  TIP3      H2            -38.5561223726       25.1979571981      -54.9307466093  TIP3      14889           0.0000000000
     96183     16250  TIP3      OH2           -29.1566539866       33.4069726682      -53.4101202338  TIP3      14890           0.0000000000
     96184     16250  TIP3      H1            -28.5123668952       32.7106618884      -53.6918112220  TIP3      14890           0.0000000000
     96185     16250  TIP3      H2            -29.3705626124       33.0753554494      -52.5347117233  TIP3      14890           0.0000000000
     96186     16251  TIP3      OH2           -31.5962019441       27.7018202531      -51.4626007431  TIP3      14891           0.0000000000
     96187     16251  TIP3      H1            -31.2549528765       27.0709683606      -52.1138639086  TIP3      14891           0.0000000000
     96188     16251  TIP3      H2            -30.7954133437       27.8553826833      -50.9332388378  TIP3      14891           0.0000000000
     96189     16252  TIP3      OH2           -22.9833310343       19.3576552931      -50.7147726914  TIP3      14892           0.0000000000
     96190     16252  TIP3      H1            -22.8186945848       19.9398174028      -49.9463505427  TIP3      14892           0.0000000000
     96191     16252  TIP3      H2            -22.4247184774       19.7849494237      -51.3792581415  TIP3      14892           0.0000000000
     96192     16253  TIP3      OH2           -28.4471480528       22.1574316061      -51.1286369209  TIP3      14893           0.0000000000
     96193     16253  TIP3      H1            -28.2558970429       21.2053493055      -51.1379234558  TIP3      14893           0.0000000000
     96194     16253  TIP3      H2            -28.5301866864       22.3090171582      -52.0916413058  TIP3      14893           0.0000000000
     96195     16254  TIP3      OH2           -35.2912903023       20.2567934632      -53.9439922908  TIP3      14894           0.0000000000
     96196     16254  TIP3      H1            -35.2243889389       21.1304438187      -54.3782313833  TIP3      14894           0.0000000000
     96197     16254  TIP3      H2            -35.7373208985       19.6878480573      -54.5979448805  TIP3      14894           0.0000000000
     96198     16255  TIP3      OH2           -27.5665674241       20.3322834252      -55.5579886628  TIP3      14895           0.0000000000
     96199     16255  TIP3      H1            -26.9149665338       20.0224910697      -54.8869465265  TIP3      14895           0.0000000000
     96200     16255  TIP3      H2            -27.0072897799       20.9088446222      -56.1006183606  TIP3      14895           0.0000000000
     96201     16256  TIP3      OH2           -38.4963664061       22.6749730039      -53.2414829338  TIP3      14896           0.0000000000
     96202     16256  TIP3      H1            -37.9322092593       22.0491432285      -52.7638723845  TIP3      14896           0.0000000000
     96203     16256  TIP3      H2            -38.5606979765       22.2989665482      -54.1259490283  TIP3      14896           0.0000000000
     96204     16257  TIP3      OH2           -33.5477306966       24.2270647990      -53.8861058846  TIP3      14897           0.0000000000
     96205     16257  TIP3      H1            -32.8681795833       23.6629909202      -53.4716292442  TIP3      14897           0.0000000000
     96206     16257  TIP3      H2            -34.0505802914       23.5550828768      -54.3764015699  TIP3      14897           0.0000000000
     96207     16258  TIP3      OH2           -22.5108497968       20.8316178613      -48.4697792789  TIP3      14898           0.0000000000
     96208     16258  TIP3      H1            -23.2012752215       21.5195702612      -48.5791414811  TIP3      14898           0.0000000000
     96209     16258  TIP3      H2            -22.5419434810       20.6479133201      -47.5213547033  TIP3      14898           0.0000000000
     96210     16259  TIP3      OH2           -36.4126211572       19.1445657224      -49.9108404225  TIP3      14899           0.0000000000
     96211     16259  TIP3      H1            -36.7156167474       19.7161449444      -50.6449998112  TIP3      14899           0.0000000000
     96212     16259  TIP3      H2            -37.0898107809       19.3524598374      -49.2224066138  TIP3      14899           0.0000000000
     96213     16260  TIP3      OH2           -29.1163400074       28.6427925066      -56.3330590409  TIP3      14900           0.0000000000
     96214     16260  TIP3      H1            -29.4032301814       28.3573820775      -57.2105430125  TIP3      14900           0.0000000000
     96215     16260  TIP3      H2            -29.4209717775       29.5740420896      -56.2936089230  TIP3      14900           0.0000000000
     96216     16261  TIP3      OH2           -33.9017637365       26.8021390363      -49.6700804891  TIP3      14901           0.0000000000
     96217     16261  TIP3      H1            -34.5859107429       27.4455067232      -49.3951476226  TIP3      14901           0.0000000000
     96218     16261  TIP3      H2            -33.1708625359       27.3925146084      -49.9156353809  TIP3      14901           0.0000000000
     96219     16262  TIP3      OH2           -25.7744942240       19.6813932747      -53.5581386501  TIP3      14902           0.0000000000
     96220     16262  TIP3      H1            -25.9815877695       18.9093928621      -53.0258209585  TIP3      14902           0.0000000000
     96221     16262  TIP3      H2            -25.0916801984       20.1184116750      -53.0229872020  TIP3      14902           0.0000000000
     96222     16263  TIP3      OH2           -36.8580406889       20.9995424917      -51.8452962361  TIP3      14903           0.0000000000
     96223     16263  TIP3      H1            -36.2312795954       21.6957443191      -51.5325604419  TIP3      14903           0.0000000000
     96224     16263  TIP3      H2            -36.3240293511       20.5853439340      -52.5621812502  TIP3      14903           0.0000000000
     96225     16264  TIP3      OH2           -35.4750537694       28.8052096086      -48.8539195715  TIP3      14904           0.0000000000
     96226     16264  TIP3      H1            -35.4810865381       29.7414007075      -49.1316164248  TIP3      14904           0.0000000000
     96227     16264  TIP3      H2            -36.3444297987       28.7379515442      -48.3955430202  TIP3      14904           0.0000000000
     96228     16265  TIP3      OH2           -39.3601824153       28.4465433540      -58.0179025059  TIP3      14905           0.0000000000
     96229     16265  TIP3      H1            -39.6049843551       28.6891346182      -58.9250370915  TIP3      14905           0.0000000000
     96230     16265  TIP3      H2            -39.3180876623       29.2965706264      -57.5536734274  TIP3      14905           0.0000000000
     96231     16266  TIP3      OH2           -25.7530535777       30.0797158882      -51.2937236884  TIP3      14906           0.0000000000
     96232     16266  TIP3      H1            -26.7170872174       30.1923244130      -51.1476167030  TIP3      14906           0.0000000000
     96233     16266  TIP3      H2            -25.4788255348       31.0023418414      -51.4633304982  TIP3      14906           0.0000000000
     96234     16267  TIP3      OH2           -25.4337253494       18.3967595373      -49.8399240415  TIP3      14907           0.0000000000
     96235     16267  TIP3      H1            -26.1714153775       19.0055499150      -49.9850282548  TIP3      14907           0.0000000000
     96236     16267  TIP3      H2            -24.7265092479       18.7874780285      -50.3904488449  TIP3      14907           0.0000000000
     96237     16268  TIP3      OH2           -32.4604127127       16.4875635635      -52.4383613869  TIP3      14908           0.0000000000
     96238     16268  TIP3      H1            -32.5920233376       15.5217978167      -52.4808240111  TIP3      14908           0.0000000000
     96239     16268  TIP3      H2            -33.3320137033       16.7924057585      -52.1085334897  TIP3      14908           0.0000000000
     96240     16269  TIP3      OH2           -27.4931289325       31.8660293458      -54.6852088446  TIP3      14909           0.0000000000
     96241     16269  TIP3      H1            -27.0620878597       31.1487507317      -55.1925996762  TIP3      14909           0.0000000000
     96242     16269  TIP3      H2            -27.0641236561       32.6577255526      -55.0742391987  TIP3      14909           0.0000000000
     96243     16270  TIP3      OH2           -26.2798876503       29.7946680701      -56.1728655127  TIP3      14910           0.0000000000
     96244     16270  TIP3      H1            -26.5781598528       29.1032337544      -56.7861070767  TIP3      14910           0.0000000000
     96245     16270  TIP3      H2            -26.2514754733       29.3029274067      -55.3312439459  TIP3      14910           0.0000000000
     96246     16271  TIP3      OH2           -24.6251497791       28.3843577775      -47.6759753256  TIP3      14911           0.0000000000
     96247     16271  TIP3      H1            -24.5308861797       27.7563297712      -48.4228229243  TIP3      14911           0.0000000000
     96248     16271  TIP3      H2            -24.4515436113       29.2451078893      -48.0970382658  TIP3      14911           0.0000000000
     96249     16272  TIP3      OH2           -30.1722007405       25.2857637881      -57.9265502795  TIP3      14912           0.0000000000
     96250     16272  TIP3      H1            -30.8731757854       25.8586897483      -58.3001841062  TIP3      14912           0.0000000000
     96251     16272  TIP3      H2            -29.4653477486       25.3744066243      -58.5886464016  TIP3      14912           0.0000000000
     96252     16273  TIP3      OH2           -30.1092472544       23.8010350740      -60.8310613507  TIP3      14913           0.0000000000
     96253     16273  TIP3      H1            -29.3762852073       23.8187185107      -60.1982219774  TIP3      14913           0.0000000000
     96254     16273  TIP3      H2            -29.7900013223       23.1676708098      -61.4776306033  TIP3      14913           0.0000000000
     96255     16274  TIP3      OH2           -22.7724191052       24.6748108310      -49.6396536883  TIP3      14914           0.0000000000
     96256     16274  TIP3      H1            -23.4227639504       25.4072089019      -49.5689745476  TIP3      14914           0.0000000000
     96257     16274  TIP3      H2            -22.2840728740       24.9295672570      -50.4458244112  TIP3      14914           0.0000000000
     96258     16275  TIP3      OH2           -26.7245951139       25.4710493383      -56.9946870357  TIP3      14915           0.0000000000
     96259     16275  TIP3      H1            -27.4544360570       25.7351704038      -56.3813481995  TIP3      14915           0.0000000000
     96260     16275  TIP3      H2            -26.2492377009       24.8207571863      -56.4451443290  TIP3      14915           0.0000000000
     96261     16276  TIP3      OH2           -26.8257431853       23.6468982686      -47.8851266576  TIP3      14916           0.0000000000
     96262     16276  TIP3      H1            -26.7939732658       24.4478541220      -47.3517680696  TIP3      14916           0.0000000000
     96263     16276  TIP3      H2            -27.4380665537       23.9588453553      -48.5829574405  TIP3      14916           0.0000000000
     96264     16277  TIP3      OH2           -35.1379868522       26.1753932742      -55.0499258562  TIP3      14917           0.0000000000
     96265     16277  TIP3      H1            -35.4415600717       25.7732588802      -55.9049566996  TIP3      14917           0.0000000000
     96266     16277  TIP3      H2            -34.5012692723       25.4737989855      -54.7458189207  TIP3      14917           0.0000000000
     96267     16278  TIP3      OH2           -33.8319208933       29.5010580150      -52.3881915728  TIP3      14918           0.0000000000
     96268     16278  TIP3      H1            -33.7450419605       29.0051320322      -53.2110460509  TIP3      14918           0.0000000000
     96269     16278  TIP3      H2            -33.0148776245       29.2029090896      -51.9327814170  TIP3      14918           0.0000000000
     96270     16279  TIP3      OH2           -34.7959431545       24.9247721595      -51.4312414901  TIP3      14919           0.0000000000
     96271     16279  TIP3      H1            -34.2016444015       24.9824477104      -52.2034315543  TIP3      14919           0.0000000000
     96272     16279  TIP3      H2            -34.3995333543       25.5564027157      -50.7920283094  TIP3      14919           0.0000000000
     96273     16280  TIP3      OH2           -28.3763084862       30.4673672199      -50.7040203214  TIP3      14920           0.0000000000
     96274     16280  TIP3      H1            -28.6619249399       31.1119394294      -50.0522697584  TIP3      14920           0.0000000000
     96275     16280  TIP3      H2            -28.6144845301       29.6104587212      -50.2761730999  TIP3      14920           0.0000000000
     96276     16281  TIP3      OH2           -33.8642721623       29.2969261237      -46.6668980451  TIP3      14921           0.0000000000
     96277     16281  TIP3      H1            -34.2080706065       30.1113589783      -46.2632768431  TIP3      14921           0.0000000000
     96278     16281  TIP3      H2            -34.4849771866       29.1335608535      -47.4036377911  TIP3      14921           0.0000000000
     96279     16282  TIP3      OH2           -27.8382139544       24.6626482624      -59.3217166232  TIP3      14922           0.0000000000
     96280     16282  TIP3      H1            -27.3099844924       24.8686226061      -58.5066126511  TIP3      14922           0.0000000000
     96281     16282  TIP3      H2            -27.4602369494       25.2308578979      -59.9988982336  TIP3      14922           0.0000000000
     96282     16283  TIP3      OH2           -36.9076968330       25.4980679460      -47.5189605200  TIP3      14923           0.0000000000
     96283     16283  TIP3      H1            -36.8462732776       26.1625700042      -46.8370326477  TIP3      14923           0.0000000000
     96284     16283  TIP3      H2            -37.8245520524       25.5988826437      -47.8140696567  TIP3      14923           0.0000000000
     96285     16284  TIP3      OH2           -30.1334166811       31.4129806901      -55.8516020809  TIP3      14924           0.0000000000
     96286     16284  TIP3      H1            -29.6975915481       31.7212686268      -55.0490490745  TIP3      14924           0.0000000000
     96287     16284  TIP3      H2            -30.6959657893       32.1584003526      -56.0907496900  TIP3      14924           0.0000000000
     96288     16285  TIP3      OH2           -35.6160527717       31.3377414987      -45.9780457382  TIP3      14925           0.0000000000
     96289     16285  TIP3      H1            -35.6272204742       31.2837236137      -46.9449740291  TIP3      14925           0.0000000000
     96290     16285  TIP3      H2            -36.5549153937       31.2677711385      -45.7465157184  TIP3      14925           0.0000000000
     96291     16286  TIP3      OH2           -24.1349905000       16.4093104274      -59.4265717551  TIP3      14926           0.0000000000
     96292     16286  TIP3      H1            -25.0821224328       16.5457414866      -59.1845291331  TIP3      14926           0.0000000000
     96293     16286  TIP3      H2            -23.9094762157       17.2617913908      -59.8352396240  TIP3      14926           0.0000000000
     96294     16287  TIP3      OH2           -36.1455035383       25.1712455817      -57.4373636591  TIP3      14927           0.0000000000
     96295     16287  TIP3      H1            -36.4066373543       25.9390283929      -57.9903349634  TIP3      14927           0.0000000000
     96296     16287  TIP3      H2            -36.8269826387       24.5322833078      -57.6749097624  TIP3      14927           0.0000000000
     96297     16288  TIP3      OH2           -23.0226126096       30.7645084191      -61.0351274924  TIP3      14928           0.0000000000
     96298     16288  TIP3      H1            -22.8859023985       31.7256949199      -60.9301471956  TIP3      14928           0.0000000000
     96299     16288  TIP3      H2            -22.0976545187       30.4774644476      -61.1308666640  TIP3      14928           0.0000000000
     96300     16289  TIP3      OH2           -39.6213124856       27.3486423516      -48.7720257620  TIP3      14929           0.0000000000
     96301     16289  TIP3      H1            -40.4121190851       27.5749729134      -49.3149817366  TIP3      14929           0.0000000000
     96302     16289  TIP3      H2            -39.9899868749       26.5702453096      -48.3249757107  TIP3      14929           0.0000000000
     96303     16290  TIP3      OH2           -40.2173912370       30.3955025708      -51.8567211607  TIP3      14930           0.0000000000
     96304     16290  TIP3      H1            -39.2884209145       30.1978937344      -51.7372217320  TIP3      14930           0.0000000000
     96305     16290  TIP3      H2            -40.3768213329       31.1211545107      -51.2283142166  TIP3      14930           0.0000000000
     96306     16291  TIP3      OH2           -21.9751098922       31.0139956338      -46.6423090155  TIP3      14931           0.0000000000
     96307     16291  TIP3      H1            -22.0352347259       30.1185231154      -46.2814817771  TIP3      14931           0.0000000000
     96308     16291  TIP3      H2            -22.6503406575       31.3925993095      -46.0472219020  TIP3      14931           0.0000000000
     96309     16292  TIP3      OH2           -31.0931966713       30.5716390217      -47.2389105150  TIP3      14932           0.0000000000
     96310     16292  TIP3      H1            -31.0218605116       31.4166880809      -46.7323314895  TIP3      14932           0.0000000000
     96311     16292  TIP3      H2            -31.9779612558       30.2408402375      -47.0045770442  TIP3      14932           0.0000000000
     96312     16293  TIP3      OH2           -30.6770463309       34.3201372469      -57.4534314141  TIP3      14933           0.0000000000
     96313     16293  TIP3      H1            -30.7453681462       34.2563371222      -58.4177573557  TIP3      14933           0.0000000000
     96314     16293  TIP3      H2            -30.6291161076       35.2825186804      -57.2776512078  TIP3      14933           0.0000000000
     96315     16294  TIP3      OH2           -37.0050188597       33.1758553407      -55.6343469512  TIP3      14934           0.0000000000
     96316     16294  TIP3      H1            -36.8855469346       32.8046605952      -54.7370432249  TIP3      14934           0.0000000000
     96317     16294  TIP3      H2            -37.8735718094       32.8120829731      -55.8676456013  TIP3      14934           0.0000000000
     96318     16295  TIP3      OH2           -27.6338722970       33.5316969892      -60.4691792343  TIP3      14935           0.0000000000
     96319     16295  TIP3      H1            -27.1552132581       32.7742224118      -60.8856547087  TIP3      14935           0.0000000000
     96320     16295  TIP3      H2            -27.5497306160       33.2847025085      -59.5280456141  TIP3      14935           0.0000000000
     96321     16296  TIP3      OH2           -27.9083848398       33.4756543943      -57.6757506432  TIP3      14936           0.0000000000
     96322     16296  TIP3      H1            -28.8638022180       33.5375492458      -57.4842503150  TIP3      14936           0.0000000000
     96323     16296  TIP3      H2            -27.6540851194       32.7332293327      -57.1059170560  TIP3      14936           0.0000000000
     96324     16297  TIP3      OH2           -37.7968368091       28.9364569560      -47.5753075613  TIP3      14937           0.0000000000
     96325     16297  TIP3      H1            -37.6120316938       28.5448145088      -46.7247262178  TIP3      14937           0.0000000000
     96326     16297  TIP3      H2            -38.6417536976       28.5172166718      -47.8792335543  TIP3      14937           0.0000000000
     96327     16298  TIP3      OH2           -35.0721049618       17.4005325644      -51.6939908681  TIP3      14938           0.0000000000
     96328     16298  TIP3      H1            -35.9852997138       17.2786805612      -52.0416073817  TIP3      14938           0.0000000000
     96329     16298  TIP3      H2            -35.1986876018       18.2217122282      -51.1932745286  TIP3      14938           0.0000000000
     96330     16299  TIP3      OH2           -30.4540893959       17.0865286634      -48.2872028464  TIP3      14939           0.0000000000
     96331     16299  TIP3      H1            -30.0616792313       16.6538136667      -47.5103006244  TIP3      14939           0.0000000000
     96332     16299  TIP3      H2            -31.4254290265       16.9247645652      -48.1544588288  TIP3      14939           0.0000000000
     96333     16300  TIP3      OH2           -27.2983641177       20.8852003034      -47.4808247144  TIP3      14940           0.0000000000
     96334     16300  TIP3      H1            -27.6209465091       20.7180656253      -46.5767989279  TIP3      14940           0.0000000000
     96335     16300  TIP3      H2            -27.2840660129       21.8508162840      -47.6047426935  TIP3      14940           0.0000000000
     96336     16301  TIP3      OH2           -30.8696209894       19.6594104059      -60.9671712779  TIP3      14941           0.0000000000
     96337     16301  TIP3      H1            -31.0774778426       19.5659824785      -60.0290583989  TIP3      14941           0.0000000000
     96338     16301  TIP3      H2            -31.0466880140       18.7590822073      -61.2648839291  TIP3      14941           0.0000000000
     96339     16302  TIP3      OH2           -35.0171894825       22.3569789404      -50.4448291502  TIP3      14942           0.0000000000
     96340     16302  TIP3      H1            -35.7230644114       22.3520185668      -49.7719751830  TIP3      14942           0.0000000000
     96341     16302  TIP3      H2            -35.0455374601       23.2775804605      -50.7859431791  TIP3      14942           0.0000000000
     96342     16303  TIP3      OH2           -35.0218753168       22.4414114665      -55.5148628518  TIP3      14943           0.0000000000
     96343     16303  TIP3      H1            -35.9808252478       22.2680047063      -55.6681338821  TIP3      14943           0.0000000000
     96344     16303  TIP3      H2            -34.6239670494       22.2888058206      -56.3881265693  TIP3      14943           0.0000000000
     96345     16304  TIP3      OH2           -29.5064911987       22.9709617861      -56.7959178280  TIP3      14944           0.0000000000
     96346     16304  TIP3      H1            -29.9111444438       23.8050557514      -57.1269882051  TIP3      14944           0.0000000000
     96347     16304  TIP3      H2            -28.8175038881       22.8134222203      -57.4619243553  TIP3      14944           0.0000000000
     96348     16305  TIP3      OH2           -28.4771970581       22.4682378304      -53.9398752332  TIP3      14945           0.0000000000
     96349     16305  TIP3      H1            -28.7469023941       23.0343435530      -54.6845444631  TIP3      14945           0.0000000000
     96350     16305  TIP3      H2            -28.3696333816       21.6209135739      -54.4119440269  TIP3      14945           0.0000000000
     96351     16306  TIP3      OH2           -37.3809076608       22.6538227010      -48.7099631496  TIP3      14946           0.0000000000
     96352     16306  TIP3      H1            -37.2927262075       23.0181513436      -47.8119528287  TIP3      14946           0.0000000000
     96353     16306  TIP3      H2            -37.7877847300       21.7939988890      -48.5233333732  TIP3      14946           0.0000000000
     96354     16307  TIP3      OH2           -39.8816195171       19.8343886513      -55.2569907568  TIP3      14947           0.0000000000
     96355     16307  TIP3      H1            -39.9939111289       19.6401657412      -54.2918226574  TIP3      14947           0.0000000000
     96356     16307  TIP3      H2            -40.0196591665       18.9609346801      -55.6688086714  TIP3      14947           0.0000000000
     96357     16308  TIP3      OH2           -39.2441923569       20.6830558754      -59.2024070451  TIP3      14948           0.0000000000
     96358     16308  TIP3      H1            -38.9076751324       21.1008990404      -60.0135475922  TIP3      14948           0.0000000000
     96359     16308  TIP3      H2            -40.0678914707       21.1754445623      -59.1143570680  TIP3      14948           0.0000000000
     96360     16309  TIP3      OH2           -29.2417499141       24.0534943001      -49.3354322097  TIP3      14949           0.0000000000
     96361     16309  TIP3      H1            -28.8896888809       23.3881522651      -49.9642608549  TIP3      14949           0.0000000000
     96362     16309  TIP3      H2            -29.7427372109       23.5034391877      -48.7067888781  TIP3      14949           0.0000000000
     96363     16310  TIP3      OH2           -32.5030314400       20.0248927438      -54.5613360472  TIP3      14950           0.0000000000
     96364     16310  TIP3      H1            -33.4174860704       20.0447205660      -54.2052488564  TIP3      14950           0.0000000000
     96365     16310  TIP3      H2            -31.9791665719       19.8790860151      -53.7512956718  TIP3      14950           0.0000000000
     96366     16311  TIP3      OH2           -37.5941642605       21.5980973844      -55.7792982878  TIP3      14951           0.0000000000
     96367     16311  TIP3      H1            -38.5204785885       21.7316077107      -56.0627450375  TIP3      14951           0.0000000000
     96368     16311  TIP3      H2            -37.4245224300       20.6841290935      -56.0561115382  TIP3      14951           0.0000000000
     96369     16312  TIP3      OH2           -33.9229124459       21.9837757263      -57.9720361648  TIP3      14952           0.0000000000
     96370     16312  TIP3      H1            -32.9390032837       21.9054526180      -57.9324858849  TIP3      14952           0.0000000000
     96371     16312  TIP3      H2            -34.1653743919       22.4484342085      -58.8045176914  TIP3      14952           0.0000000000
     96372     16313  TIP3      OH2           -28.0572174181       19.2658579216      -51.2918293412  TIP3      14953           0.0000000000
     96373     16313  TIP3      H1            -28.7502252089       19.3297841798      -50.5999082800  TIP3      14953           0.0000000000
     96374     16313  TIP3      H2            -28.5631450778       19.0225352970      -52.0818520570  TIP3      14953           0.0000000000
     96375     16314  TIP3      OH2           -35.2576278603       22.7059260764      -60.4325027418  TIP3      14954           0.0000000000
     96376     16314  TIP3      H1            -35.8555298342       22.4931683517      -61.1668664897  TIP3      14954           0.0000000000
     96377     16314  TIP3      H2            -34.4989627586       23.0554716741      -60.9310786634  TIP3      14954           0.0000000000
     96378     16315  TIP3      OH2           -31.1918608270       22.7887932765      -52.6539442617  TIP3      14955           0.0000000000
     96379     16315  TIP3      H1            -30.5926988919       22.2549365921      -53.1886682039  TIP3      14955           0.0000000000
     96380     16315  TIP3      H2            -31.3279398104       22.2411693428      -51.8692444603  TIP3      14955           0.0000000000
     96381     16316  TIP3      OH2           -36.2150679701       18.9385134304      -56.2881301376  TIP3      14956           0.0000000000
     96382     16316  TIP3      H1            -36.5676951817       18.0269141809      -56.1783654178  TIP3      14956           0.0000000000
     96383     16316  TIP3      H2            -35.3723420136       18.6747455174      -56.6519496813  TIP3      14956           0.0000000000
     96384     16317  TIP3      OH2           -32.5355681277       21.1144762335      -50.2446922000  TIP3      14957           0.0000000000
     96385     16317  TIP3      H1            -33.3652001114       21.6243663186      -50.1679388691  TIP3      14957           0.0000000000
     96386     16317  TIP3      H2            -31.9876759972       21.4619924241      -49.5163544778  TIP3      14957           0.0000000000
     96387     16318  TIP3      OH2           -31.9505063135       27.3342167685      -58.5141471484  TIP3      14958           0.0000000000
     96388     16318  TIP3      H1            -32.7479871579       26.8735476225      -58.8676021085  TIP3      14958           0.0000000000
     96389     16318  TIP3      H2            -32.1823295750       27.4376506821      -57.5736901207  TIP3      14958           0.0000000000
     96390     16319  TIP3      OH2           -24.7608379615       26.5092109389      -49.7327315714  TIP3      14959           0.0000000000
     96391     16319  TIP3      H1            -24.2076827177       27.0191387459      -50.3527898512  TIP3      14959           0.0000000000
     96392     16319  TIP3      H2            -25.6262754049       26.5839633714      -50.1910343210  TIP3      14959           0.0000000000
     96393     16320  TIP3      OH2           -28.1052457033       20.1409409334      -60.3605896852  TIP3      14960           0.0000000000
     96394     16320  TIP3      H1            -29.0430983616       20.3058483507      -60.5305938247  TIP3      14960           0.0000000000
     96395     16320  TIP3      H2            -27.7938221389       21.0107083497      -60.0473920810  TIP3      14960           0.0000000000
     96396     16321  TIP3      OH2           -30.4595834088       27.6244777991      -47.3519031307  TIP3      14961           0.0000000000
     96397     16321  TIP3      H1            -30.8069859998       27.1843930895      -46.5695854106  TIP3      14961           0.0000000000
     96398     16321  TIP3      H2            -30.7085348799       28.5464407295      -47.2222406693  TIP3      14961           0.0000000000
     96399     16322  TIP3      OH2           -27.3753756775       22.0692893798      -58.6972829702  TIP3      14962           0.0000000000
     96400     16322  TIP3      H1            -26.4785610003       21.9347279667      -58.3342374148  TIP3      14962           0.0000000000
     96401     16322  TIP3      H2            -27.2971118212       22.8793229504      -59.2223988767  TIP3      14962           0.0000000000
     96402     16323  TIP3      OH2           -36.8209555197       26.6640555128      -52.7263934688  TIP3      14963           0.0000000000
     96403     16323  TIP3      H1            -36.1264491769       26.5173713289      -53.3951854911  TIP3      14963           0.0000000000
     96404     16323  TIP3      H2            -36.7733257211       25.7960615387      -52.2525855725  TIP3      14963           0.0000000000
     96405     16324  TIP3      OH2           -29.8478464343       28.8107891402      -59.4541836890  TIP3      14964           0.0000000000
     96406     16324  TIP3      H1            -30.2314629226       29.6610194505      -59.1499641641  TIP3      14964           0.0000000000
     96407     16324  TIP3      H2            -30.5963188768       28.1929180538      -59.3081323009  TIP3      14964           0.0000000000
     96408     16325  TIP3      OH2           -39.8682531919       25.1032534702      -47.4951665937  TIP3      14965           0.0000000000
     96409     16325  TIP3      H1            -39.6473793354       24.6869480338      -46.6535532082  TIP3      14965           0.0000000000
     96410     16325  TIP3      H2            -40.4897206787       24.4879671436      -47.9105304901  TIP3      14965           0.0000000000
     96411     16326  TIP3      OH2           -28.1965902553       30.0345875220      -47.3552950645  TIP3      14966           0.0000000000
     96412     16326  TIP3      H1            -29.1125810182       30.2369232162      -47.5984531494  TIP3      14966           0.0000000000
     96413     16326  TIP3      H2            -28.1827760209       30.2635062929      -46.4218402784  TIP3      14966           0.0000000000
     96414     16327  TIP3      OH2           -22.5256766361       22.2208112797      -58.9438587154  TIP3      14967           0.0000000000
     96415     16327  TIP3      H1            -23.0171886029       21.8750471194      -59.7017116598  TIP3      14967           0.0000000000
     96416     16327  TIP3      H2            -22.3973095812       23.1495019591      -59.2405547325  TIP3      14967           0.0000000000
     96417     16328  TIP3      OH2           -22.5325721149       27.9528366564      -46.1969868898  TIP3      14968           0.0000000000
     96418     16328  TIP3      H1            -23.3893634916       28.3206766627      -46.5386747024  TIP3      14968           0.0000000000
     96419     16328  TIP3      H2            -21.9766013009       28.0371405777      -46.9883632850  TIP3      14968           0.0000000000
     96420     16329  TIP3      OH2           -24.1870045291       31.0449671844      -58.5664077629  TIP3      14969           0.0000000000
     96421     16329  TIP3      H1            -24.5651447656       30.2252650354      -58.2244317178  TIP3      14969           0.0000000000
     96422     16329  TIP3      H2            -23.8979435460       30.8401996113      -59.4779620916  TIP3      14969           0.0000000000
     96423     16330  TIP3      OH2           -26.9910114143       25.8541752525      -51.4556205842  TIP3      14970           0.0000000000
     96424     16330  TIP3      H1            -27.9345202244       25.6414356993      -51.5735824675  TIP3      14970           0.0000000000
     96425     16330  TIP3      H2            -26.5591339174       25.0984064168      -51.8898777243  TIP3      14970           0.0000000000
     96426     16331  TIP3      OH2           -34.5289769455       30.1979450000      -55.3060512001  TIP3      14971           0.0000000000
     96427     16331  TIP3      H1            -33.9674317910       30.9615510669      -55.5565003100  TIP3      14971           0.0000000000
     96428     16331  TIP3      H2            -35.3472787168       30.4600174447      -55.7397855991  TIP3      14971           0.0000000000
     96429     16332  TIP3      OH2           -38.7963280611       25.0011633766      -60.7591499632  TIP3      14972           0.0000000000
     96430     16332  TIP3      H1            -38.1322537617       25.6358256354      -60.4306880482  TIP3      14972           0.0000000000
     96431     16332  TIP3      H2            -39.6243506535       25.3898546127      -60.4828823216  TIP3      14972           0.0000000000
     96432     16333  TIP3      OH2           -33.0716683079       27.8477595111      -55.8228486288  TIP3      14973           0.0000000000
     96433     16333  TIP3      H1            -33.3560195208       28.7749341107      -55.7513747380  TIP3      14973           0.0000000000
     96434     16333  TIP3      H2            -33.7899956393       27.3468508460      -55.3963855525  TIP3      14973           0.0000000000
     96435     16334  TIP3      OH2           -32.6183168974       32.0368080448      -49.4582179984  TIP3      14974           0.0000000000
     96436     16334  TIP3      H1            -32.1653172416       32.8493630632      -49.7154798367  TIP3      14974           0.0000000000
     96437     16334  TIP3      H2            -32.0075585828       31.6891116269      -48.7880398979  TIP3      14974           0.0000000000
     96438     16335  TIP3      OH2           -34.3853275343       32.8268290341      -56.2906903065  TIP3      14975           0.0000000000
     96439     16335  TIP3      H1            -35.3496656604       32.9871328035      -56.1719988480  TIP3      14975           0.0000000000
     96440     16335  TIP3      H2            -34.0226361243       33.6689361378      -55.9580467934  TIP3      14975           0.0000000000
     96441     16336  TIP3      OH2           -29.0700938803       28.0403204340      -49.8362155243  TIP3      14976           0.0000000000
     96442     16336  TIP3      H1            -29.4075428687       27.8552676255      -48.9369376940  TIP3      14976           0.0000000000
     96443     16336  TIP3      H2            -28.4241619698       27.3295454062      -49.9627967603  TIP3      14976           0.0000000000
     96444     16337  TIP3      OH2           -26.7992538601       29.0591540233      -60.6916932557  TIP3      14977           0.0000000000
     96445     16337  TIP3      H1            -26.4864817241       28.6307841163      -59.8703087369  TIP3      14977           0.0000000000
     96446     16337  TIP3      H2            -27.7571663071       28.9303573712      -60.6213884630  TIP3      14977           0.0000000000
     96447     16338  TIP3      OH2           -26.3488726134       32.6213992128      -47.2820340505  TIP3      14978           0.0000000000
     96448     16338  TIP3      H1            -26.9586142863       32.1082330684      -47.8295161151  TIP3      14978           0.0000000000
     96449     16338  TIP3      H2            -26.0657282973       33.3090727474      -47.9219250117  TIP3      14978           0.0000000000
     96450     16339  TIP3      OH2           -22.2791928595       33.4955979641      -60.4729146075  TIP3      14979           0.0000000000
     96451     16339  TIP3      H1            -21.5781370362       34.1239479710      -60.7147273193  TIP3      14979           0.0000000000
     96452     16339  TIP3      H2            -22.9945158325       34.0963367621      -60.1715954769  TIP3      14979           0.0000000000
     96453     16340  TIP3      OH2           -38.1977170977       19.9057151189      -47.9234904570  TIP3      14980           0.0000000000
     96454     16340  TIP3      H1            -39.1039452951       20.2370292936      -47.9633709092  TIP3      14980           0.0000000000
     96455     16340  TIP3      H2            -38.3167929041       19.0321876126      -47.5217046315  TIP3      14980           0.0000000000
     96456     16341  TIP3      OH2           -25.9630082234       27.7175929638      -58.4915095744  TIP3      14981           0.0000000000
     96457     16341  TIP3      H1            -26.2104549590       26.9471514371      -57.9408852094  TIP3      14981           0.0000000000
     96458     16341  TIP3      H2            -25.0203058294       27.8057957631      -58.2698317588  TIP3      14981           0.0000000000
     96459     16342  TIP3      OH2           -38.6049879491       31.6349456226      -49.5058411454  TIP3      14982           0.0000000000
     96460     16342  TIP3      H1            -38.2991746122       30.7208698012      -49.4683451733  TIP3      14982           0.0000000000
     96461     16342  TIP3      H2            -38.3003049016       31.9781449887      -48.6482315139  TIP3      14982           0.0000000000
     96462     16343  TIP3      OH2           -33.8778306186       29.7335963044      -59.7994255623  TIP3      14983           0.0000000000
     96463     16343  TIP3      H1            -33.5759727223       29.1856692922      -59.0614493964  TIP3      14983           0.0000000000
     96464     16343  TIP3      H2            -33.7510649873       30.6462211206      -59.4630220497  TIP3      14983           0.0000000000
     96465     16344  TIP3      OH2           -37.3613031024       26.9845206361      -59.3230945142  TIP3      14984           0.0000000000
     96466     16344  TIP3      H1            -38.0420399018       27.3686807117      -58.7289238018  TIP3      14984           0.0000000000
     96467     16344  TIP3      H2            -36.7940823356       27.7390809095      -59.5422980515  TIP3      14984           0.0000000000
     96468     16345  TIP3      OH2           -29.5001064052       19.6402686881      -48.9964740645  TIP3      14985           0.0000000000
     96469     16345  TIP3      H1            -28.7590198955       19.6793275733      -48.3761514969  TIP3      14985           0.0000000000
     96470     16345  TIP3      H2            -29.8683342748       18.7535216484      -48.8305533723  TIP3      14985           0.0000000000
     96471     16346  TIP3      OH2           -28.7323823265       19.2257091558      -57.8737587180  TIP3      14986           0.0000000000
     96472     16346  TIP3      H1            -28.4912720493       19.6845427042      -58.7029295789  TIP3      14986           0.0000000000
     96473     16346  TIP3      H2            -28.1473543556       19.6673350818      -57.2443611371  TIP3      14986           0.0000000000
     96474     16347  TIP3      OH2           -31.0381125539       31.3922947839      -59.0572868288  TIP3      14987           0.0000000000
     96475     16347  TIP3      H1            -31.8642324264       31.9014742573      -59.0121896075  TIP3      14987           0.0000000000
     96476     16347  TIP3      H2            -30.5065575976       31.8880500659      -59.6884138740  TIP3      14987           0.0000000000
     96477     16348  TIP3      OH2           -31.5390708659       20.9680432246      -57.0734851348  TIP3      14988           0.0000000000
     96478     16348  TIP3      H1            -30.7301466008       21.5311516056      -57.0531099368  TIP3      14988           0.0000000000
     96479     16348  TIP3      H2            -31.7353150815       20.8516873524      -56.1249599139  TIP3      14988           0.0000000000
     96480     16349  TIP3      OH2           -30.8622309715       22.0488118246      -47.9505114997  TIP3      14989           0.0000000000
     96481     16349  TIP3      H1            -30.8928016777       22.5403574965      -47.1246313234  TIP3      14989           0.0000000000
     96482     16349  TIP3      H2            -30.3399254286       21.2498894064      -47.7924776736  TIP3      14989           0.0000000000
     96483     16350  TIP3      OH2           -30.6697886753       18.0407543315      -56.2111407626  TIP3      14990           0.0000000000
     96484     16350  TIP3      H1            -30.9421422267       18.6642855709      -55.5147292213  TIP3      14990           0.0000000000
     96485     16350  TIP3      H2            -29.9395845978       18.5657660851      -56.6260867598  TIP3      14990           0.0000000000
     96486     16351  TIP3      OH2           -33.6894709632       32.4157414836      -59.0524189422  TIP3      14991           0.0000000000
     96487     16351  TIP3      H1            -33.4996816463       33.2386849470      -59.5512847144  TIP3      14991           0.0000000000
     96488     16351  TIP3      H2            -33.9137461991       32.7596086227      -58.1599660747  TIP3      14991           0.0000000000
     96489     16352  TIP3      OH2           -34.9825434733       19.0245458653      -59.5242389235  TIP3      14992           0.0000000000
     96490     16352  TIP3      H1            -35.0902607681       19.9817986745      -59.4367791089  TIP3      14992           0.0000000000
     96491     16352  TIP3      H2            -34.0423726130       18.8212948353      -59.3112450472  TIP3      14992           0.0000000000
     96492     16353  TIP3      OH2           -24.7751204880       19.9234157517      -46.9955156482  TIP3      14993           0.0000000000
     96493     16353  TIP3      H1            -25.7076881027       20.1613687046      -47.1549683609  TIP3      14993           0.0000000000
     96494     16353  TIP3      H2            -24.4725801831       19.8236333790      -47.9084104569  TIP3      14993           0.0000000000
     96495     16354  TIP3      OH2           -26.1561224205       23.6512778506      -53.0190620707  TIP3      14994           0.0000000000
     96496     16354  TIP3      H1            -26.9784353563       23.2059650848      -53.2971821322  TIP3      14994           0.0000000000
     96497     16354  TIP3      H2            -25.6780162649       22.9627752559      -52.5021419923  TIP3      14994           0.0000000000
     96498     16355  TIP3      OH2           -36.7418158041       29.5912763224      -60.4404595108  TIP3      14995           0.0000000000
     96499     16355  TIP3      H1            -36.0919825859       30.2187974593      -60.1018022510  TIP3      14995           0.0000000000
     96500     16355  TIP3      H2            -36.2248009810       29.1254445862      -61.1079988455  TIP3      14995           0.0000000000
     96501     16356  TIP3      OH2           -25.0919981084       32.9019351976      -51.3691627270  TIP3      14996           0.0000000000
     96502     16356  TIP3      H1            -25.1843225572       33.5981977328      -52.0453923916  TIP3      14996           0.0000000000
     96503     16356  TIP3      H2            -24.1323694730       32.9685603942      -51.1655822299  TIP3      14996           0.0000000000
     96504     16357  TIP3      OH2           -37.5612618167       17.0121796782      -52.5716211805  TIP3      14997           0.0000000000
     96505     16357  TIP3      H1            -37.8256396797       17.0381551893      -53.5120700623  TIP3      14997           0.0000000000
     96506     16357  TIP3      H2            -38.0491330250       16.2147183374      -52.2882949978  TIP3      14997           0.0000000000
     96507     16358  TIP3      OH2           -38.6204247468       30.9409926187      -56.3588052911  TIP3      14998           0.0000000000
     96508     16358  TIP3      H1            -39.4855016549       31.3741516939      -56.4365331660  TIP3      14998           0.0000000000
     96509     16358  TIP3      H2            -38.1755396313       31.4232575294      -57.0787015437  TIP3      14998           0.0000000000
     96510     16359  TIP3      OH2           -26.0501972583       31.8262092581      -61.8939636009  TIP3      14999           0.0000000000
     96511     16359  TIP3      H1            -25.8017605342       31.0010306815      -61.4343599354  TIP3      14999           0.0000000000
     96512     16359  TIP3      H2            -25.2874202161       32.0083355977      -62.4531170078  TIP3      14999           0.0000000000
     96513     16360  TIP3      OH2           -27.1020648982       27.2425142248      -47.5077310842  TIP3      15000           0.0000000000
     96514     16360  TIP3      H1            -26.3169786313       27.8215550820      -47.4366145238  TIP3      15000           0.0000000000
     96515     16360  TIP3      H2            -27.8001359313       27.8693668878      -47.2712415822  TIP3      15000           0.0000000000
     96516     16361  TIP3      OH2           -33.9477483603       25.7679165832      -59.6698623312  TIP3      15001           0.0000000000
     96517     16361  TIP3      H1            -34.4647232353       25.2376421469      -59.0463881322  TIP3      15001           0.0000000000
     96518     16361  TIP3      H2            -33.6601477372       25.0946390616      -60.3295783948  TIP3      15001           0.0000000000
     96519     16362  TIP3      OH2           -34.7337044314       23.5369961941      -47.4142514028  TIP3      15002           0.0000000000
     96520     16362  TIP3      H1            -35.2939139111       24.2721088881      -47.1200045417  TIP3      15002           0.0000000000
     96521     16362  TIP3      H2            -34.3153695839       23.9183854325      -48.2039669534  TIP3      15002           0.0000000000
     96522     16363  TIP3      OH2           -32.9208705079       23.9273115312      -61.4469832688  TIP3      15003           0.0000000000
     96523     16363  TIP3      H1            -33.0029350113       23.8081841159      -62.4036244880  TIP3      15003           0.0000000000
     96524     16363  TIP3      H2            -31.9446729815       24.0517727110      -61.3458706306  TIP3      15003           0.0000000000
     96525     16364  TIP3      OH2           -34.4054660949       20.9109552664      -46.3222546950  TIP3      15004           0.0000000000
     96526     16364  TIP3      H1            -34.1964298658       20.2273874650      -46.9796445063  TIP3      15004           0.0000000000
     96527     16364  TIP3      H2            -34.3610294614       21.7404376988      -46.8425019378  TIP3      15004           0.0000000000
     96528     16365  TIP3      OH2           -33.9090136574       19.2877478892      -48.7719093779  TIP3      15005           0.0000000000
     96529     16365  TIP3      H1            -33.3891652756       19.7752050336      -49.4561363434  TIP3      15005           0.0000000000
     96530     16365  TIP3      H2            -34.7893616355       19.2094800979      -49.2027857952  TIP3      15005           0.0000000000
     96531     16366  TIP3      OH2           -32.3451144161       24.7696310660      -48.5373211259  TIP3      15006           0.0000000000
     96532     16366  TIP3      H1            -31.5879057103       24.6304629528      -49.1172420806  TIP3      15006           0.0000000000
     96533     16366  TIP3      H2            -32.7218821689       25.6101983804      -48.8427629138  TIP3      15006           0.0000000000
     96534     16367  TIP3      OH2           -33.0929174179       16.7744274193      -48.3825499016  TIP3      15007           0.0000000000
     96535     16367  TIP3      H1            -33.3042135250       17.7275898320      -48.4678218483  TIP3      15007           0.0000000000
     96536     16367  TIP3      H2            -33.8563458945       16.3855339337      -48.8400275396  TIP3      15007           0.0000000000
     96537     16368  TIP3      OH2           -33.0576644012       34.6583433930      -60.4557199681  TIP3      15008           0.0000000000
     96538     16368  TIP3      H1            -32.0911561395       34.7583763555      -60.3268103747  TIP3      15008           0.0000000000
     96539     16368  TIP3      H2            -33.2482587375       35.3401124189      -61.0988791763  TIP3      15008           0.0000000000
     96540     16369  TIP3      OH2           -39.4623988948       29.2206610564      -60.9456572526  TIP3      15009           0.0000000000
     96541     16369  TIP3      H1            -38.5180015754       29.3474215209      -60.7103638852  TIP3      15009           0.0000000000
     96542     16369  TIP3      H2            -39.3898074237       28.6201880792      -61.6877903582  TIP3      15009           0.0000000000
     96543     16370  TIP3      OH2            40.7121773442       34.6682991169      -55.9993249022  TIP3      15010           0.0000000000
     96544     16370  TIP3      H1             39.9515441174       34.1972693887      -56.3648810188  TIP3      15010           0.0000000000
     96545     16370  TIP3      H2             40.9691195196       34.0459926448      -55.2882588371  TIP3      15010           0.0000000000
     96546     16371  TIP3      OH2           -39.8414892140       32.7540053834      -54.1218626253  TIP3      15011           0.0000000000
     96547     16371  TIP3      H1            -40.2692422165       31.9018960075      -53.9359651050  TIP3      15011           0.0000000000
     96548     16371  TIP3      H2            -39.6509578053       33.1261198081      -53.2344692078  TIP3      15011           0.0000000000
     96549     16372  TIP3      OH2           -22.3737688180       33.5485269523      -51.1445875577  TIP3      15012           0.0000000000
     96550     16372  TIP3      H1            -22.3463092431       33.7131718338      -50.1864224047  TIP3      15012           0.0000000000
     96551     16372  TIP3      H2            -21.6633094788       34.1251241229      -51.4406963075  TIP3      15012           0.0000000000
     96552     16373  TIP3      OH2           -22.7608376621       33.1461551853      -48.2596765332  TIP3      15013           0.0000000000
     96553     16373  TIP3      H1            -23.2557506425       32.3675916284      -48.5851106243  TIP3      15013           0.0000000000
     96554     16373  TIP3      H2            -22.2629430294       32.7043186857      -47.5440756626  TIP3      15013           0.0000000000
     96555     16374  TIP3      OH2           -23.0201766730       27.1774090610      -58.1121560795  TIP3      15014           0.0000000000
     96556     16374  TIP3      H1            -22.1774919639       27.6045116148      -57.8899274423  TIP3      15014           0.0000000000
     96557     16374  TIP3      H2            -23.0465643726       26.4851497883      -57.4152986347  TIP3      15014           0.0000000000
     96558     16375  TIP3      OH2           -22.6758388179       25.2703992142      -56.2345166868  TIP3      15015           0.0000000000
     96559     16375  TIP3      H1            -23.4245189444       24.7737227048      -55.8325378624  TIP3      15015           0.0000000000
     96560     16375  TIP3      H2            -22.0798583976       25.4115747226      -55.4711688949  TIP3      15015           0.0000000000
     96561     16376  TIP3      OH2           -22.9325875760       27.9542757065      -51.2687225817  TIP3      15016           0.0000000000
     96562     16376  TIP3      H1            -22.0992981609       27.5894304692      -51.6144138326  TIP3      15016           0.0000000000
     96563     16376  TIP3      H2            -22.7786316445       28.9140277033      -51.4137892225  TIP3      15016           0.0000000000
     96564     16377  TIP3      OH2           -24.3912155204       30.8726477064      -48.9642977724  TIP3      15017           0.0000000000
     96565     16377  TIP3      H1            -25.0674138691       31.2232926001      -48.3656161425  TIP3      15017           0.0000000000
     96566     16377  TIP3      H2            -24.9264760369       30.4645033447      -49.6756874154  TIP3      15017           0.0000000000
     96567     16378  TIP3      OH2           -22.4043466123       25.0960618266      -59.8412816695  TIP3      15018           0.0000000000
     96568     16378  TIP3      H1            -22.9626098370       25.4497705635      -60.5410585016  TIP3      15018           0.0000000000
     96569     16378  TIP3      H2            -22.4475882744       25.8054503390      -59.1703283387  TIP3      15018           0.0000000000
     96570     16379  TIP3      OH2           -24.8592049550       23.7447495545      -55.6645766128  TIP3      15019           0.0000000000
     96571     16379  TIP3      H1            -25.0088602235       22.7896383595      -55.6771153499  TIP3      15019           0.0000000000
     96572     16379  TIP3      H2            -25.1859941765       23.9720954035      -54.7751133701  TIP3      15019           0.0000000000
     96573     16380  TIP3      OH2           -39.8849802318       25.8393201380      -51.6342073070  TIP3      15020           0.0000000000
     96574     16380  TIP3      H1            -39.6793571360       25.7220026814      -52.5786430028  TIP3      15020           0.0000000000
     96575     16380  TIP3      H2            -39.0227684544       25.6614761630      -51.2066206107  TIP3      15020           0.0000000000
     96576     16381  TIP3      OH2           -23.9481598198       25.6880816676      -45.9729788741  TIP3      15021           0.0000000000
     96577     16381  TIP3      H1            -23.3649209174       24.9655336683      -45.7787821140  TIP3      15021           0.0000000000
     96578     16381  TIP3      H2            -23.3968761335       26.4960130629      -46.0151062646  TIP3      15021           0.0000000000
     96579     16382  TIP3      OH2           -24.7615564075       19.7313796940      -62.2110877438  TIP3      15022           0.0000000000
     96580     16382  TIP3      H1            -24.1730229793       19.3508518613      -61.5337524995  TIP3      15022           0.0000000000
     96581     16382  TIP3      H2            -25.6428999122       19.4033082714      -61.9881261925  TIP3      15022           0.0000000000
     96582     16383  TIP3      OH2           -25.1848185127       21.3322345103      -57.1851142575  TIP3      15023           0.0000000000
     96583     16383  TIP3      H1            -24.8839515972       20.4021248403      -57.0619246454  TIP3      15023           0.0000000000
     96584     16383  TIP3      H2            -24.3923330410       21.7293213594      -57.5707555296  TIP3      15023           0.0000000000
     96585     16384  TIP3      OH2           -24.5510369142       21.8797692302      -51.7675831136  TIP3      15024           0.0000000000
     96586     16384  TIP3      H1            -23.5905840622       22.1086913179      -51.7677389077  TIP3      15024           0.0000000000
     96587     16384  TIP3      H2            -24.7401727540       22.0114430955      -50.8232454295  TIP3      15024           0.0000000000
     96588     16385  TIP3      OH2           -24.4825084405       22.6174297820      -48.9644041816  TIP3      15025           0.0000000000
     96589     16385  TIP3      H1            -25.3613458803       22.9000358930      -48.6228455064  TIP3      15025           0.0000000000
     96590     16385  TIP3      H2            -24.0583547667       23.4751067496      -49.1926688021  TIP3      15025           0.0000000000
     96591     16386  TIP3      OH2           -24.5182051065       18.6101061104      -57.1526345608  TIP3      15026           0.0000000000
     96592     16386  TIP3      H1            -24.3092478328       18.1789230832      -56.2948197225  TIP3      15026           0.0000000000
     96593     16386  TIP3      H2            -25.1270956069       17.9744944130      -57.5863422225  TIP3      15026           0.0000000000
     96594     16387  TIP3      OH2           -39.0591473714       19.4091263721      -52.5993556269  TIP3      15027           0.0000000000
     96595     16387  TIP3      H1            -38.5850896781       18.6031674516      -52.3178550298  TIP3      15027           0.0000000000
     96596     16387  TIP3      H2            -38.5295787015       20.1040639285      -52.1974679005  TIP3      15027           0.0000000000
     96597     16388  TIP3      OH2           -40.7804501768       22.6807582172      -52.1696731706  TIP3      15028           0.0000000000
     96598     16388  TIP3      H1            -40.0537110112       22.1202870595      -52.4898512281  TIP3      15028           0.0000000000
     96599     16388  TIP3      H2            -40.2386861114       23.1570089360      -51.5146665810  TIP3      15028           0.0000000000
     96600     16389  TIP3      OH2           -22.6989345252       18.6650546051      -60.5645646434  TIP3      15029           0.0000000000
     96601     16389  TIP3      H1            -22.2785780360       17.9640583658      -61.0859678909  TIP3      15029           0.0000000000
     96602     16389  TIP3      H2            -21.9884942094       19.3302065241      -60.5743165020  TIP3      15029           0.0000000000
     96603     16390  TIP3      OH2           -40.1916016942       18.5916509822      -57.4800770501  TIP3      15030           0.0000000000
     96604     16390  TIP3      H1            -41.1383255514       18.7342049291      -57.7020711654  TIP3      15030           0.0000000000
     96605     16390  TIP3      H2            -39.7980381220       19.2072300091      -58.1033273769  TIP3      15030           0.0000000000
     96606     16391  TIP3      OH2           -25.6545197960       33.6225490355      -55.5159115375  TIP3      15031           0.0000000000
     96607     16391  TIP3      H1            -24.9690528887       33.3215121850      -56.1406561113  TIP3      15031           0.0000000000
     96608     16391  TIP3      H2            -25.1325385488       34.1328058826      -54.8774046803  TIP3      15031           0.0000000000
     96609     16392  TIP3      OH2            41.0753752912       17.5430056558      -49.0605559636  TIP3      15032           0.0000000000
     96610     16392  TIP3      H1             40.4023731807       17.1314740312      -48.5118762241  TIP3      15032           0.0000000000
     96611     16392  TIP3      H2             40.5094369389       18.0448607569      -49.6723070056  TIP3      15032           0.0000000000
     96612     16393  TIP3      OH2           -35.3261874770       31.5096184031      -48.7961680365  TIP3      15033           0.0000000000
     96613     16393  TIP3      H1            -35.6621065525       32.3919714351      -49.0204113719  TIP3      15033           0.0000000000
     96614     16393  TIP3      H2            -34.3797483298       31.6348561131      -49.0274439333  TIP3      15033           0.0000000000
     96615     16394  TIP3      OH2           -30.9541098454       32.9012217053      -45.7910443910  TIP3      15034           0.0000000000
     96616     16394  TIP3      H1            -30.7764531548       32.6429976885      -44.8778278802  TIP3      15034           0.0000000000
     96617     16394  TIP3      H2            -30.0951990074       33.2643846677      -46.0703063271  TIP3      15034           0.0000000000
     96618     16395  TIP3      OH2           -28.7206528808       34.2796500386      -46.5687805590  TIP3      15035           0.0000000000
     96619     16395  TIP3      H1            -28.0055002930       33.6707542945      -46.7976403001  TIP3      15035           0.0000000000
     96620     16395  TIP3      H2            -28.3188610633       34.6180283803      -45.7458264747  TIP3      15035           0.0000000000
     96621     16396  TIP3      OH2           -23.6429941796       16.8739088718      -47.5103857918  TIP3      15036           0.0000000000
     96622     16396  TIP3      H1            -24.5316732404       17.1190057430      -47.8116037077  TIP3      15036           0.0000000000
     96623     16396  TIP3      H2            -23.5107662559       16.0037774832      -47.9387736424  TIP3      15036           0.0000000000
     96624     16397  TIP3      OH2           -37.8920088134       34.7196519213      -48.7483929834  TIP3      15037           0.0000000000
     96625     16397  TIP3      H1            -38.5939784400       35.2835467676      -49.1288627599  TIP3      15037           0.0000000000
     96626     16397  TIP3      H2            -38.2295208836       34.6308591659      -47.8392477970  TIP3      15037           0.0000000000
     96627     16398  TIP3      OH2           -35.4040527913       34.3629674182      -49.6639828436  TIP3      15038           0.0000000000
     96628     16398  TIP3      H1            -36.2909067631       34.5265418076      -49.2594592916  TIP3      15038           0.0000000000
     96629     16398  TIP3      H2            -35.4706899545       34.9353532164      -50.4541964275  TIP3      15038           0.0000000000
     96630     16399  TIP3      OH2           -30.6971845880       34.2662103156      -50.5024328646  TIP3      15039           0.0000000000
     96631     16399  TIP3      H1            -31.1524456895       34.8273858618      -51.1478483599  TIP3      15039           0.0000000000
     96632     16399  TIP3      H2            -30.5681507759       34.9093887463      -49.7696109212  TIP3      15039           0.0000000000
     96633     16400  TIP3      OH2           -28.3951863579       33.0782552667      -49.5275529826  TIP3      15040           0.0000000000
     96634     16400  TIP3      H1            -29.2676909113       33.3603881956      -49.8423828523  TIP3      15040           0.0000000000
     96635     16400  TIP3      H2            -27.9415786388       33.9368149198      -49.5801999310  TIP3      15040           0.0000000000
     96636     16401  TIP3      OH2           -25.8284889056       34.6767729599      -49.2390246107  TIP3      15041           0.0000000000
     96637     16401  TIP3      H1            -25.8918188965       35.6320892564      -49.4748750399  TIP3      15041           0.0000000000
     96638     16401  TIP3      H2            -25.6093194415       34.3001268001      -50.1134266037  TIP3      15041           0.0000000000
     96639     16402  TIP3      OH2           -38.4483333626       33.3751938351      -51.8160180672  TIP3      15042           0.0000000000
     96640     16402  TIP3      H1            -38.4553114403       33.0161024383      -50.9075961446  TIP3      15042           0.0000000000
     96641     16402  TIP3      H2            -37.5930285136       33.0927769600      -52.1864389380  TIP3      15042           0.0000000000
     96642     16403  TIP3      OH2           -36.3586776250       32.1207183501      -53.1490390270  TIP3      15043           0.0000000000
     96643     16403  TIP3      H1            -36.4966441440       31.2128447526      -52.8715097225  TIP3      15043           0.0000000000
     96644     16403  TIP3      H2            -35.5078108966       32.3253131692      -52.6945016039  TIP3      15043           0.0000000000
     96645     16404  TIP3      OH2           -33.7778166988       32.6174015059      -52.2651240675  TIP3      15044           0.0000000000
     96646     16404  TIP3      H1            -33.5450427396       31.7156207617      -52.5308572947  TIP3      15044           0.0000000000
     96647     16404  TIP3      H2            -33.6785793979       32.5804838044      -51.3007701211  TIP3      15044           0.0000000000
     96648     16405  TIP3      OH2           -30.2801087739       18.2763681793      -53.1331690604  TIP3      15045           0.0000000000
     96649     16405  TIP3      H1            -30.9535078786       17.6338499560      -52.8504803142  TIP3      15045           0.0000000000
     96650     16405  TIP3      H2            -29.7273644241       17.7438032885      -53.7161943399  TIP3      15045           0.0000000000
     96651     16406  TIP3      OH2           -25.1463963948       16.3289605127      -53.0641925201  TIP3      15046           0.0000000000
     96652     16406  TIP3      H1            -24.5324210670       16.9194572057      -53.5734698099  TIP3      15046           0.0000000000
     96653     16406  TIP3      H2            -26.0294342064       16.6865112407      -53.2973415927  TIP3      15046           0.0000000000
     96654     16407  TIP3      OH2           -23.4775161013       17.5675861636      -54.7803976412  TIP3      15047           0.0000000000
     96655     16407  TIP3      H1            -22.7927820177       16.9960051332      -55.2026740551  TIP3      15047           0.0000000000
     96656     16407  TIP3      H2            -22.9745747489       18.4088417214      -54.6829278108  TIP3      15047           0.0000000000
     96657     16408  TIP3      OH2           -37.8922926576       16.9029515726      -55.3150423428  TIP3      15048           0.0000000000
     96658     16408  TIP3      H1            -38.7265166860       16.6832413297      -55.7851441191  TIP3      15048           0.0000000000
     96659     16408  TIP3      H2            -37.4402612861       16.0363138675      -55.3407557889  TIP3      15048           0.0000000000
     96660     16409  TIP3      OH2           -39.0702420886       16.6556043955      -59.4751442574  TIP3      15049           0.0000000000
     96661     16409  TIP3      H1            -38.6802425115       17.2799460051      -60.1206538612  TIP3      15049           0.0000000000
     96662     16409  TIP3      H2            -39.7611999599       17.1670871995      -59.0399479585  TIP3      15049           0.0000000000
     96663     16410  TIP3      OH2           -33.4521040936       16.8975924676      -55.5036140690  TIP3      15050           0.0000000000
     96664     16410  TIP3      H1            -32.5166029928       17.1613237610      -55.5642148350  TIP3      15050           0.0000000000
     96665     16410  TIP3      H2            -33.4790236065       16.6065423079      -54.5865171740  TIP3      15050           0.0000000000
     96666     16411  TIP3      OH2           -27.7341086930       16.8478086969      -53.8699153894  TIP3      15051           0.0000000000
     96667     16411  TIP3      H1            -27.7721023545       16.9559965935      -54.8265817241  TIP3      15051           0.0000000000
     96668     16411  TIP3      H2            -28.1054906895       15.9397552029      -53.7490853339  TIP3      15051           0.0000000000
     96669     16412  TIP3      OH2           -26.4532291923       16.8774599835      -58.2134898159  TIP3      15052           0.0000000000
     96670     16412  TIP3      H1            -27.1986612418       17.4744306586      -58.3696431008  TIP3      15052           0.0000000000
     96671     16412  TIP3      H2            -26.8895107839       16.0256042706      -57.9779034016  TIP3      15052           0.0000000000
     96672     16413  TIP3      OH2           -39.2493599806       32.6270528889      -58.5098156227  TIP3      15053           0.0000000000
     96673     16413  TIP3      H1            -39.8557908524       32.6156832795      -59.2586419405  TIP3      15053           0.0000000000
     96674     16413  TIP3      H2            -39.1697381851       33.5808661796      -58.3962907052  TIP3      15053           0.0000000000
     96675     16414  TIP3      OH2           -37.3311683611       18.5647966753      -61.0393234649  TIP3      15054           0.0000000000
     96676     16414  TIP3      H1            -36.8202580975       17.9769121997      -61.6067884533  TIP3      15054           0.0000000000
     96677     16414  TIP3      H2            -36.6169335225       18.9068091843      -60.4870821294  TIP3      15054           0.0000000000
     96678     16415  TIP3      OH2           -32.4098688291       18.8823417797      -58.5747482671  TIP3      15055           0.0000000000
     96679     16415  TIP3      H1            -31.9996324277       18.2645244398      -57.9332402832  TIP3      15055           0.0000000000
     96680     16415  TIP3      H2            -32.1190948100       19.7253610811      -58.1554952403  TIP3      15055           0.0000000000
     96681     16416  TIP3      OH2           -30.3899146093       33.9340986169      -60.2435395743  TIP3      15056           0.0000000000
     96682     16416  TIP3      H1            -29.4444893344       34.1431953346      -60.3778323579  TIP3      15056           0.0000000000
     96683     16416  TIP3      H2            -30.5472566773       33.3829663959      -61.0183507818  TIP3      15056           0.0000000000
     96684     16417  TIP3      OH2           -23.6514569417       33.4233967597      -57.4865862100  TIP3      15057           0.0000000000
     96685     16417  TIP3      H1            -23.8547681808       32.6451422580      -58.0627257531  TIP3      15057           0.0000000000
     96686     16417  TIP3      H2            -23.7371128943       34.1560758014      -58.1259979383  TIP3      15057           0.0000000000
     96687     16418  TIP3      OH2           -38.2121636728       17.0868748426      -46.0992204469  TIP3      15058           0.0000000000
     96688     16418  TIP3      H1            -38.5262172122       16.4643694078      -45.4367269389  TIP3      15058           0.0000000000
     96689     16418  TIP3      H2            -37.3255378775       17.2502165584      -45.7654310446  TIP3      15058           0.0000000000
     96690     16419  TIP3      OH2           -37.4089424126       33.5627577185      -61.5771705612  TIP3      15059           0.0000000000
     96691     16419  TIP3      H1            -37.6891049153       33.8930316481      -60.7158209887  TIP3      15059           0.0000000000
     96692     16419  TIP3      H2            -36.6229536655       33.0529599243      -61.4055415741  TIP3      15059           0.0000000000
     96693     16420  TIP3      OH2            -9.9465975876       26.0552820401      -55.4545664839  TIP3      15060           0.0000000000
     96694     16420  TIP3      H1             -9.9791943434       27.0325136635      -55.4749050050  TIP3      15060           0.0000000000
     96695     16420  TIP3      H2            -10.6946434053       25.8091701664      -56.0260693666  TIP3      15060           0.0000000000
     96696     16421  TIP3      OH2           -11.0053364025       25.4879424711      -52.0440110667  TIP3      15061           0.0000000000
     96697     16421  TIP3      H1            -11.0936681681       24.8653150464      -51.2842338996  TIP3      15061           0.0000000000
     96698     16421  TIP3      H2            -11.4285729566       24.8969035548      -52.6791215044  TIP3      15061           0.0000000000
     96699     16422  TIP3      OH2           -18.7623063803       24.9917208460      -50.3586091603  TIP3      15062           0.0000000000
     96700     16422  TIP3      H1            -18.6622846119       24.2856190478      -49.6845976137  TIP3      15062           0.0000000000
     96701     16422  TIP3      H2            -18.0006437258       25.5509400766      -50.1563868700  TIP3      15062           0.0000000000
     96702     16423  TIP3      OH2            -7.4216204601       28.2469235935      -53.6414489507  TIP3      15063           0.0000000000
     96703     16423  TIP3      H1             -7.8411043056       27.5324722242      -53.1504547905  TIP3      15063           0.0000000000
     96704     16423  TIP3      H2             -7.4023160254       28.9547628749      -52.9697386375  TIP3      15063           0.0000000000
     96705     16424  TIP3      OH2           -17.8311781019       29.4224243498      -51.8765622692  TIP3      15064           0.0000000000
     96706     16424  TIP3      H1            -18.1457153763       28.5531300036      -52.1920908903  TIP3      15064           0.0000000000
     96707     16424  TIP3      H2            -16.8768242190       29.2340098794      -51.8216197520  TIP3      15064           0.0000000000
     96708     16425  TIP3      OH2           -21.1909717051       22.9783373431      -56.4082167174  TIP3      15065           0.0000000000
     96709     16425  TIP3      H1            -21.6272311749       23.8520457618      -56.4390498671  TIP3      15065           0.0000000000
     96710     16425  TIP3      H2            -21.7662175307       22.4440826470      -56.9679229116  TIP3      15065           0.0000000000
     96711     16426  TIP3      OH2           -20.4835319725       25.2032087250      -54.2417111274  TIP3      15066           0.0000000000
     96712     16426  TIP3      H1            -20.2122034022       24.3845502027      -53.7852641243  TIP3      15066           0.0000000000
     96713     16426  TIP3      H2            -19.7821192616       25.3077333469      -54.9023559157  TIP3      15066           0.0000000000
     96714     16427  TIP3      OH2           -10.3016761953       33.4064768301      -53.4107722143  TIP3      15067           0.0000000000
     96715     16427  TIP3      H1             -9.6565384296       32.7108227631      -53.6917129510  TIP3      15067           0.0000000000
     96716     16427  TIP3      H2            -10.5152501329       33.0752513045      -52.5349590885  TIP3      15067           0.0000000000
     96717     16428  TIP3      OH2           -12.7345602828       27.7310522303      -51.4799666988  TIP3      15068           0.0000000000
     96718     16428  TIP3      H1            -12.3951292843       27.0584807120      -52.0950040845  TIP3      15068           0.0000000000
     96719     16428  TIP3      H2            -11.9390428350       27.8485043377      -50.9268776685  TIP3      15068           0.0000000000
     96720     16429  TIP3      OH2            -4.1011250808       19.3412222605      -50.7101337147  TIP3      15069           0.0000000000
     96721     16429  TIP3      H1             -3.9736446692       19.9463912838      -49.9534742003  TIP3      15069           0.0000000000
     96722     16429  TIP3      H2             -3.5665744638       19.7856578138      -51.3819189553  TIP3      15069           0.0000000000
     96723     16430  TIP3      OH2            -9.2175765846       22.1164365528      -51.1958053762  TIP3      15070           0.0000000000
     96724     16430  TIP3      H1             -9.4084868362       21.1671331904      -51.1406081513  TIP3      15070           0.0000000000
     96725     16430  TIP3      H2             -9.6766281322       22.3053640281      -52.0327900002  TIP3      15070           0.0000000000
     96726     16431  TIP3      OH2           -16.4611361382       20.2593392338      -53.9224816245  TIP3      15071           0.0000000000
     96727     16431  TIP3      H1            -16.3458496403       21.0909658232      -54.4157999019  TIP3      15071           0.0000000000
     96728     16431  TIP3      H2            -16.8508187244       19.6809415983      -54.6142980112  TIP3      15071           0.0000000000
     96729     16432  TIP3      OH2            -8.7142023581       20.3258373178      -55.5603762103  TIP3      15072           0.0000000000
     96730     16432  TIP3      H1             -8.0616685084       20.0219157923      -54.8872495827  TIP3      15072           0.0000000000
     96731     16432  TIP3      H2             -8.1557255741       20.9070682398      -56.0996829554  TIP3      15072           0.0000000000
     96732     16433  TIP3      OH2           -19.8282366329       22.6642663896      -53.1918653669  TIP3      15073           0.0000000000
     96733     16433  TIP3      H1            -19.1580546011       22.1179119222      -52.7380912686  TIP3      15073           0.0000000000
     96734     16433  TIP3      H2            -19.7256369498       22.3517070190      -54.1032815121  TIP3      15073           0.0000000000
     96735     16434  TIP3      OH2           -14.6808890166       24.2292535434      -53.8783700851  TIP3      15074           0.0000000000
     96736     16434  TIP3      H1            -14.0031559670       23.6346437443      -53.4910723563  TIP3      15074           0.0000000000
     96737     16434  TIP3      H2            -15.1828467056       23.5554080676      -54.3725879758  TIP3      15074           0.0000000000
     96738     16435  TIP3      OH2            -3.6560491222       20.8318453896      -48.4702326068  TIP3      15075           0.0000000000
     96739     16435  TIP3      H1             -4.3462294701       21.5204965579      -48.5791553897  TIP3      15075           0.0000000000
     96740     16435  TIP3      H2             -3.6837790932       20.6469402569      -47.5215110167  TIP3      15075           0.0000000000
     96741     16436  TIP3      OH2           -17.5505229078       19.1338146368      -49.9238448180  TIP3      15076           0.0000000000
     96742     16436  TIP3      H1            -17.8343212102       19.7346877909      -50.6373991255  TIP3      15076           0.0000000000
     96743     16436  TIP3      H2            -18.2063627401       19.3717282052      -49.2260366054  TIP3      15076           0.0000000000
     96744     16437  TIP3      OH2           -10.2560689842       28.6455078590      -56.3286176998  TIP3      15077           0.0000000000
     96745     16437  TIP3      H1            -10.5545089436       28.3470283123      -57.1964057548  TIP3      15077           0.0000000000
     96746     16437  TIP3      H2            -10.5689201831       29.5726325330      -56.2856576666  TIP3      15077           0.0000000000
     96747     16438  TIP3      OH2           -15.0439321978       26.7950339229      -49.6513312555  TIP3      15078           0.0000000000
     96748     16438  TIP3      H1            -15.7383431069       27.4412705105      -49.4141452006  TIP3      15078           0.0000000000
     96749     16438  TIP3      H2            -14.3228435937       27.3871865524      -49.9176701335  TIP3      15078           0.0000000000
     96750     16439  TIP3      OH2            -6.9109375925       19.6768768164      -53.5675569564  TIP3      15079           0.0000000000
     96751     16439  TIP3      H1             -7.1262171137       18.9124597350      -53.0266082926  TIP3      15079           0.0000000000
     96752     16439  TIP3      H2             -6.2449668264       20.1261884561      -53.0199775491  TIP3      15079           0.0000000000
     96753     16440  TIP3      OH2           -17.9849444761       21.0171282630      -51.8598974639  TIP3      15080           0.0000000000
     96754     16440  TIP3      H1            -17.3419540660       21.6943881525      -51.5346151555  TIP3      15080           0.0000000000
     96755     16440  TIP3      H2            -17.4602464246       20.5978335986      -52.5878184752  TIP3      15080           0.0000000000
     96756     16441  TIP3      OH2           -16.5924267534       28.8084489504      -48.8078995880  TIP3      15081           0.0000000000
     96757     16441  TIP3      H1            -16.6365404456       29.7223243004      -49.1527201294  TIP3      15081           0.0000000000
     96758     16441  TIP3      H2            -17.4838880190       28.7367417249      -48.3949516704  TIP3      15081           0.0000000000
     96759     16442  TIP3      OH2           -20.5258905501       28.4087029826      -58.0548833937  TIP3      15082           0.0000000000
     96760     16442  TIP3      H1            -20.7487454530       28.7518514521      -58.9406725121  TIP3      15082           0.0000000000
     96761     16442  TIP3      H2            -20.4466475988       29.2378621829      -57.5349091866  TIP3      15082           0.0000000000
     96762     16443  TIP3      OH2            -6.8957249027       30.0789589249      -51.2943255041  TIP3      15083           0.0000000000
     96763     16443  TIP3      H1             -7.8599660381       30.1904449414      -51.1463754918  TIP3      15083           0.0000000000
     96764     16443  TIP3      H2             -6.6214315222       31.0018558648      -51.4596147225  TIP3      15083           0.0000000000
     96765     16444  TIP3      OH2            -6.5725454047       18.3948415529      -49.8391999412  TIP3      15084           0.0000000000
     96766     16444  TIP3      H1             -7.3095309250       19.0025096343      -49.9855948275  TIP3      15084           0.0000000000
     96767     16444  TIP3      H2             -5.8687406949       18.7867555000      -50.3913690762  TIP3      15084           0.0000000000
     96768     16445  TIP3      OH2           -13.6045542823       16.4828423129      -52.4338492041  TIP3      15085           0.0000000000
     96769     16445  TIP3      H1            -13.7467846536       15.5232409610      -52.4782328016  TIP3      15085           0.0000000000
     96770     16445  TIP3      H2            -14.4712460642       16.8049709015      -52.1096070413  TIP3      15085           0.0000000000
     96771     16446  TIP3      OH2            -8.6371455897       31.8659848947      -54.6851432143  TIP3      15086           0.0000000000
     96772     16446  TIP3      H1             -8.2060951751       31.1487364218      -55.1926901791  TIP3      15086           0.0000000000
     96773     16446  TIP3      H2             -8.2081540824       32.6576795181      -55.0742512999  TIP3      15086           0.0000000000
     96774     16447  TIP3      OH2            -7.4235725683       29.7946669919      -56.1727867310  TIP3      15087           0.0000000000
     96775     16447  TIP3      H1             -7.7223369634       29.1033246655      -56.7860365952  TIP3      15087           0.0000000000
     96776     16447  TIP3      H2             -7.3954818082       29.3027669930      -55.3312932172  TIP3      15087           0.0000000000
     96777     16448  TIP3      OH2            -5.7715333335       28.3777402845      -47.6878003153  TIP3      15088           0.0000000000
     96778     16448  TIP3      H1             -5.6854163004       27.7454993500      -48.4280242563  TIP3      15088           0.0000000000
     96779     16448  TIP3      H2             -5.5982413529       29.2468980577      -48.0861368235  TIP3      15088           0.0000000000
     96780     16449  TIP3      OH2           -11.3162382392       25.2818059298      -57.9289956609  TIP3      15089           0.0000000000
     96781     16449  TIP3      H1            -12.0214260529       25.8560931241      -58.2936258122  TIP3      15089           0.0000000000
     96782     16449  TIP3      H2            -10.6088977667       25.3774981112      -58.5892789345  TIP3      15089           0.0000000000
     96783     16450  TIP3      OH2           -11.2413519093       23.8132528813      -60.8589410458  TIP3      15090           0.0000000000
     96784     16450  TIP3      H1            -10.5248918163       23.8188383325      -60.2040251550  TIP3      15090           0.0000000000
     96785     16450  TIP3      H2            -10.9317880274       23.1448904497      -61.4692314645  TIP3      15090           0.0000000000
     96786     16451  TIP3      OH2            -3.9155612140       24.6736093208      -49.6394111570  TIP3      15091           0.0000000000
     96787     16451  TIP3      H1             -4.5794066615       25.3960897590      -49.5727602174  TIP3      15091           0.0000000000
     96788     16451  TIP3      H2             -3.4299266278       24.9315369470      -50.4456675828  TIP3      15091           0.0000000000
     96789     16452  TIP3      OH2            -7.8597801156       25.4698254943      -57.0091622335  TIP3      15092           0.0000000000
     96790     16452  TIP3      H1             -8.5914552058       25.7349453244      -56.3919260991  TIP3      15092           0.0000000000
     96791     16452  TIP3      H2             -7.3852974626       24.8245216098      -56.4523029056  TIP3      15092           0.0000000000
     96792     16453  TIP3      OH2            -7.8657724374       23.6486918903      -47.8475499831  TIP3      15093           0.0000000000
     96793     16453  TIP3      H1             -7.9469204747       24.4548453452      -47.3409976891  TIP3      15093           0.0000000000
     96794     16453  TIP3      H2             -8.5585049154       23.9053169094      -48.5247835604  TIP3      15093           0.0000000000
     96795     16454  TIP3      OH2           -16.2438388799       26.1446503669      -55.0735135866  TIP3      15094           0.0000000000
     96796     16454  TIP3      H1            -16.5567459818       25.7476573420      -55.9205032878  TIP3      15094           0.0000000000
     96797     16454  TIP3      H2            -15.6310218337       25.4530877450      -54.7271188194  TIP3      15094           0.0000000000
     96798     16455  TIP3      OH2           -14.9295964786       29.5390507125      -52.3918889705  TIP3      15095           0.0000000000
     96799     16455  TIP3      H1            -14.9468472223       29.0108975029      -53.1984119595  TIP3      15095           0.0000000000
     96800     16455  TIP3      H2            -14.1469951432       29.1760930374      -51.9372393802  TIP3      15095           0.0000000000
     96801     16456  TIP3      OH2           -15.9281464848       24.9096184289      -51.4095981238  TIP3      15096           0.0000000000
     96802     16456  TIP3      H1            -15.3637358156       24.9808476208      -52.2062246780  TIP3      15096           0.0000000000
     96803     16456  TIP3      H2            -15.5096761896       25.5485461826      -50.7914706115  TIP3      15096           0.0000000000
     96804     16457  TIP3      OH2            -9.5109365670       30.4614763180      -50.6971202818  TIP3      15097           0.0000000000
     96805     16457  TIP3      H1             -9.7959892282       31.1001699365      -50.0365301381  TIP3      15097           0.0000000000
     96806     16457  TIP3      H2             -9.7540922456       29.6039146585      -50.2728619816  TIP3      15097           0.0000000000
     96807     16458  TIP3      OH2           -15.0037586990       29.2941108609      -46.6611511952  TIP3      15098           0.0000000000
     96808     16458  TIP3      H1            -15.3462366049       30.1058828737      -46.2509656525  TIP3      15098           0.0000000000
     96809     16458  TIP3      H2            -15.6288303093       29.1281796887      -47.4004030188  TIP3      15098           0.0000000000
     96810     16459  TIP3      OH2            -8.9732955122       24.6695060375      -59.3288346551  TIP3      15099           0.0000000000
     96811     16459  TIP3      H1             -8.4525692836       24.8697911421      -58.5067860925  TIP3      15099           0.0000000000
     96812     16459  TIP3      H2             -8.5940661427       25.2430549739      -59.9967152456  TIP3      15099           0.0000000000
     96813     16460  TIP3      OH2           -18.0503076980       25.5076008538      -47.5392879826  TIP3      15100           0.0000000000
     96814     16460  TIP3      H1            -17.9825434848       26.1269811968      -46.8122517309  TIP3      15100           0.0000000000
     96815     16460  TIP3      H2            -18.9715216435       25.5849653334      -47.8094169249  TIP3      15100           0.0000000000
     96816     16461  TIP3      OH2           -11.2767323938       31.4138063844      -55.8550419228  TIP3      15101           0.0000000000
     96817     16461  TIP3      H1            -10.8423738857       31.7210703258      -55.0496362167  TIP3      15101           0.0000000000
     96818     16461  TIP3      H2            -11.8406706784       32.1583224848      -56.0908194201  TIP3      15101           0.0000000000
     96819     16462  TIP3      OH2           -16.7787610461       31.3484262982      -45.9695247349  TIP3      15102           0.0000000000
     96820     16462  TIP3      H1            -16.7667677445       31.2813778022      -46.9411422554  TIP3      15102           0.0000000000
     96821     16462  TIP3      H2            -17.7180390458       31.2662328839      -45.7479368889  TIP3      15102           0.0000000000
     96822     16463  TIP3      OH2            -5.2765432255       16.4088173555      -59.4225880741  TIP3      15103           0.0000000000
     96823     16463  TIP3      H1             -6.2245420441       16.5440375016      -59.1839025350  TIP3      15103           0.0000000000
     96824     16463  TIP3      H2             -5.0525091833       17.2609495785      -59.8354662311  TIP3      15103           0.0000000000
     96825     16464  TIP3      OH2           -17.2817914279       25.1690379311      -57.4689134266  TIP3      15104           0.0000000000
     96826     16464  TIP3      H1            -17.5610485345       25.9524734764      -57.9872773836  TIP3      15104           0.0000000000
     96827     16464  TIP3      H2            -17.9451013549       24.5110820796      -57.6903764064  TIP3      15104           0.0000000000
     96828     16465  TIP3      OH2            -4.1619331013       30.7669713376      -61.0291757427  TIP3      15105           0.0000000000
     96829     16465  TIP3      H1             -4.0283031594       31.7286247486      -60.9292474901  TIP3      15105           0.0000000000
     96830     16465  TIP3      H2             -3.2392499473       30.4768920368      -61.1322771120  TIP3      15105           0.0000000000
     96831     16466  TIP3      OH2           -21.1483930197       27.5943841243      -48.6208152311  TIP3      15106           0.0000000000
     96832     16466  TIP3      H1            -21.6341177968       27.5252423292      -49.4657263526  TIP3      15106           0.0000000000
     96833     16466  TIP3      H2            -21.1274147501       26.6535093565      -48.3616367145  TIP3      15106           0.0000000000
     96834     16467  TIP3      OH2           -21.4290306521       30.3393529491      -51.7830341619  TIP3      15107           0.0000000000
     96835     16467  TIP3      H1            -20.4706135795       30.2225348852      -51.8002933427  TIP3      15107           0.0000000000
     96836     16467  TIP3      H2            -21.5122336539       31.1489617695      -51.2654156074  TIP3      15107           0.0000000000
     96837     16468  TIP3      OH2            -3.1077293897       31.0086672840      -46.6747232043  TIP3      15108           0.0000000000
     96838     16468  TIP3      H1             -3.1844225814       30.1266823075      -46.2772723516  TIP3      15108           0.0000000000
     96839     16468  TIP3      H2             -3.7789375296       31.3818328845      -46.0540389916  TIP3      15108           0.0000000000
     96840     16469  TIP3      OH2           -12.2279730467       30.5653540797      -47.2276873881  TIP3      15109           0.0000000000
     96841     16469  TIP3      H1            -12.1708251466       31.4202322840      -46.7360150068  TIP3      15109           0.0000000000
     96842     16469  TIP3      H2            -13.1121976348       30.2298163722      -46.9985885306  TIP3      15109           0.0000000000
     96843     16470  TIP3      OH2           -11.8164660428       34.3244331477      -57.4566880676  TIP3      15110           0.0000000000
     96844     16470  TIP3      H1            -11.8893355745       34.2561357427      -58.4201670184  TIP3      15110           0.0000000000
     96845     16470  TIP3      H2            -11.7730877827       35.2850857215      -57.2787120564  TIP3      15110           0.0000000000
     96846     16471  TIP3      OH2           -18.1539050920       33.1985615400      -55.6091501202  TIP3      15111           0.0000000000
     96847     16471  TIP3      H1            -18.0101406168       32.7888174980      -54.7280140163  TIP3      15111           0.0000000000
     96848     16471  TIP3      H2            -19.0041796474       32.7950109127      -55.8526528292  TIP3      15111           0.0000000000
     96849     16472  TIP3      OH2            -8.7780160632       33.5321783724      -60.4687552845  TIP3      15112           0.0000000000
     96850     16472  TIP3      H1             -8.2992677232       32.7746630728      -60.8853946793  TIP3      15112           0.0000000000
     96851     16472  TIP3      H2             -8.6937570642       33.2846898199      -59.5277536511  TIP3      15112           0.0000000000
     96852     16473  TIP3      OH2            -9.0522991277       33.4757148404      -57.6756538931  TIP3      15113           0.0000000000
     96853     16473  TIP3      H1            -10.0078565730       33.5375667338      -57.4843407918  TIP3      15113           0.0000000000
     96854     16473  TIP3      H2             -8.7981427182       32.7331569276      -57.1059617597  TIP3      15113           0.0000000000
     96855     16474  TIP3      OH2           -18.9017051384       28.8762125319      -47.5944090275  TIP3      15114           0.0000000000
     96856     16474  TIP3      H1            -18.7431703722       28.5419407852      -46.7123263736  TIP3      15114           0.0000000000
     96857     16474  TIP3      H2            -19.7839812248       28.5314760915      -47.8605089172  TIP3      15114           0.0000000000
     96858     16475  TIP3      OH2           -16.2274469391       17.3960229384      -51.6942540941  TIP3      15115           0.0000000000
     96859     16475  TIP3      H1            -17.1383125357       17.2719005012      -52.0377599286  TIP3      15115           0.0000000000
     96860     16475  TIP3      H2            -16.3376422017       18.2267429155      -51.2009272692  TIP3      15115           0.0000000000
     96861     16476  TIP3      OH2           -11.5969157764       17.0838832047      -48.2888877347  TIP3      15116           0.0000000000
     96862     16476  TIP3      H1            -11.2056557869       16.6550734581      -47.5097586944  TIP3      15116           0.0000000000
     96863     16476  TIP3      H2            -12.5689654748       16.9272035087      -48.1522979969  TIP3      15116           0.0000000000
     96864     16477  TIP3      OH2            -8.4301551631       20.8752183102      -47.4716061522  TIP3      15117           0.0000000000
     96865     16477  TIP3      H1             -8.7839353782       20.7271620191      -46.5793193721  TIP3      15117           0.0000000000
     96866     16477  TIP3      H2             -8.4527416117       21.8386427240      -47.6327286892  TIP3      15117           0.0000000000
     96867     16478  TIP3      OH2           -11.9790584083       19.6497260259      -60.9690432917  TIP3      15118           0.0000000000
     96868     16478  TIP3      H1            -12.2468623685       19.5766194945      -60.0338621959  TIP3      15118           0.0000000000
     96869     16478  TIP3      H2            -12.2123444463       18.7581833344      -61.2489708787  TIP3      15118           0.0000000000
     96870     16479  TIP3      OH2           -16.1822081052       22.3485669401      -50.4535283538  TIP3      15119           0.0000000000
     96871     16479  TIP3      H1            -16.8632756911       22.3561352127      -49.7593001403  TIP3      15119           0.0000000000
     96872     16479  TIP3      H2            -16.1613526217       23.2747538212      -50.7766877184  TIP3      15119           0.0000000000
     96873     16480  TIP3      OH2           -16.1768453859       22.4897713117      -55.5580947298  TIP3      15120           0.0000000000
     96874     16480  TIP3      H1            -17.1103669233       22.2285068790      -55.6957286269  TIP3      15120           0.0000000000
     96875     16480  TIP3      H2            -15.7861515023       22.1876383464      -56.3982251114  TIP3      15120           0.0000000000
     96876     16481  TIP3      OH2           -10.6440378977       22.9733462192      -56.7935018842  TIP3      15121           0.0000000000
     96877     16481  TIP3      H1            -11.0521729684       23.8031673480      -57.1264305738  TIP3      15121           0.0000000000
     96878     16481  TIP3      H2             -9.9612297616       22.8107178130      -57.4667547172  TIP3      15121           0.0000000000
     96879     16482  TIP3      OH2            -9.5968305319       22.4799726295      -53.9527677573  TIP3      15122           0.0000000000
     96880     16482  TIP3      H1             -9.9053170007       23.0351548354      -54.6829981489  TIP3      15122           0.0000000000
     96881     16482  TIP3      H2             -9.5130590090       21.6227019554      -54.4094612249  TIP3      15122           0.0000000000
     96882     16483  TIP3      OH2           -18.5247284399       22.6470159852      -48.7172539412  TIP3      15123           0.0000000000
     96883     16483  TIP3      H1            -18.4097933882       23.0021194862      -47.8158206711  TIP3      15123           0.0000000000
     96884     16483  TIP3      H2            -18.9113961922       21.7759167851      -48.5344951909  TIP3      15123           0.0000000000
     96885     16484  TIP3      OH2           -21.8457501926       19.7272366932      -54.7540398628  TIP3      15124           0.0000000000
     96886     16484  TIP3      H1            -21.1650664629       19.6906316235      -54.0521942214  TIP3      15124           0.0000000000
     96887     16484  TIP3      H2            -21.3946919888       19.3492133562      -55.5321984108  TIP3      15124           0.0000000000
     96888     16485  TIP3      OH2           -20.5712579399       20.4749950805      -59.3635283497  TIP3      15125           0.0000000000
     96889     16485  TIP3      H1            -20.1050580581       21.0419713719      -59.9944720270  TIP3      15125           0.0000000000
     96890     16485  TIP3      H2            -21.2672875147       21.0911613833      -59.0639085813  TIP3      15125           0.0000000000
     96891     16486  TIP3      OH2           -10.0478684160       24.0751833722      -49.0181121829  TIP3      15126           0.0000000000
     96892     16486  TIP3      H1            -10.0616412677       23.5845164246      -49.8717435463  TIP3      15126           0.0000000000
     96893     16486  TIP3      H2            -10.8582370227       23.6294163750      -48.7035588261  TIP3      15126           0.0000000000
     96894     16487  TIP3      OH2           -13.6236714675       19.9192779922      -54.5583094187  TIP3      15127           0.0000000000
     96895     16487  TIP3      H1            -14.5332311987       20.0638962983      -54.2389485404  TIP3      15127           0.0000000000
     96896     16487  TIP3      H2            -13.1206775010       19.9364126891      -53.7259950603  TIP3      15127           0.0000000000
     96897     16488  TIP3      OH2           -18.7973765470       21.5874332395      -55.6976848152  TIP3      15128           0.0000000000
     96898     16488  TIP3      H1            -19.6897249551       21.7361535879      -56.0728698729  TIP3      15128           0.0000000000
     96899     16488  TIP3      H2            -18.5077462977       20.7452487022      -56.0907682719  TIP3      15128           0.0000000000
     96900     16489  TIP3      OH2           -15.1744842592       21.6412048514      -58.0859904837  TIP3      15129           0.0000000000
     96901     16489  TIP3      H1            -14.2226616448       21.7475012547      -57.8849554187  TIP3      15129           0.0000000000
     96902     16489  TIP3      H2            -15.4001713213       22.3218253629      -58.7419607889  TIP3      15129           0.0000000000
     96903     16490  TIP3      OH2            -9.2031142804       19.2172917607      -51.2837126832  TIP3      15130           0.0000000000
     96904     16490  TIP3      H1             -9.9050741405       19.3427498865      -50.6071894411  TIP3      15130           0.0000000000
     96905     16490  TIP3      H2             -9.7188313295       19.0482273727      -52.0844146255  TIP3      15130           0.0000000000
     96906     16491  TIP3      OH2           -16.4574766681       22.7787203481      -60.4549530327  TIP3      15131           0.0000000000
     96907     16491  TIP3      H1            -16.9974140176       22.4562886476      -61.1919703778  TIP3      15131           0.0000000000
     96908     16491  TIP3      H2            -15.6421704601       23.0388046259      -60.9140509164  TIP3      15131           0.0000000000
     96909     16492  TIP3      OH2           -12.6515854637       22.2640912284      -53.2857682295  TIP3      15132           0.0000000000
     96910     16492  TIP3      H1            -11.6955469542       22.2596764916      -53.3172509138  TIP3      15132           0.0000000000
     96911     16492  TIP3      H2            -12.6740542147       22.3074492661      -52.2846711813  TIP3      15132           0.0000000000
     96912     16493  TIP3      OH2           -17.3127764737       18.9362406872      -56.2034969822  TIP3      15133           0.0000000000
     96913     16493  TIP3      H1            -17.6433438063       18.0253269054      -56.2206100821  TIP3      15133           0.0000000000
     96914     16493  TIP3      H2            -16.5340453422       18.8851878056      -56.7739388316  TIP3      15133           0.0000000000
     96915     16494  TIP3      OH2           -13.8161081921       20.9444475054      -50.1062498611  TIP3      15134           0.0000000000
     96916     16494  TIP3      H1            -14.4878876974       21.6407687821      -50.1940547536  TIP3      15134           0.0000000000
     96917     16494  TIP3      H2            -13.1208525589       21.4709559531      -49.6272345452  TIP3      15134           0.0000000000
     96918     16495  TIP3      OH2           -13.0914334038       27.3146655409      -58.5087708690  TIP3      15135           0.0000000000
     96919     16495  TIP3      H1            -13.8959029960       26.8723624151      -58.8652540284  TIP3      15135           0.0000000000
     96920     16495  TIP3      H2            -13.3265468025       27.4509703175      -57.5727576045  TIP3      15135           0.0000000000
     96921     16496  TIP3      OH2            -5.8944357287       26.4902073877      -49.7559277721  TIP3      15136           0.0000000000
     96922     16496  TIP3      H1             -5.3477565809       27.0230091733      -50.3600907499  TIP3      15136           0.0000000000
     96923     16496  TIP3      H2             -6.7673758236       26.5817533188      -50.1949373328  TIP3      15136           0.0000000000
     96924     16497  TIP3      OH2            -9.2460396784       20.1427793742      -60.3645603243  TIP3      15137           0.0000000000
     96925     16497  TIP3      H1            -10.1839275498       20.3067882537      -60.5434967015  TIP3      15137           0.0000000000
     96926     16497  TIP3      H2             -8.9394552928       21.0113761836      -60.0437047604  TIP3      15137           0.0000000000
     96927     16498  TIP3      OH2           -11.5955698505       27.6489057132      -47.3412625301  TIP3      15138           0.0000000000
     96928     16498  TIP3      H1            -11.9535862132       27.1757314256      -46.5825257361  TIP3      15138           0.0000000000
     96929     16498  TIP3      H2            -11.8579777316       28.5651419924      -47.2043216044  TIP3      15138           0.0000000000
     96930     16499  TIP3      OH2            -8.5227562865       22.0701937029      -58.7040228605  TIP3      15139           0.0000000000
     96931     16499  TIP3      H1             -7.6244256756       21.9389398559      -58.3349764731  TIP3      15139           0.0000000000
     96932     16499  TIP3      H2             -8.4521411109       22.8787771975      -59.2301506163  TIP3      15139           0.0000000000
     96933     16500  TIP3      OH2           -17.9937674228       26.7322836245      -52.7453651984  TIP3      15140           0.0000000000
     96934     16500  TIP3      H1            -17.3017301874       26.6538547622      -53.4298646730  TIP3      15140           0.0000000000
     96935     16500  TIP3      H2            -17.9302093887       25.8746876171      -52.2877146776  TIP3      15140           0.0000000000
     96936     16501  TIP3      OH2           -10.9932823001       28.8124899480      -59.4540989395  TIP3      15141           0.0000000000
     96937     16501  TIP3      H1            -11.3759832424       29.6614228640      -59.1491718153  TIP3      15141           0.0000000000
     96938     16501  TIP3      H2            -11.7400677672       28.1919685686      -59.3078624557  TIP3      15141           0.0000000000
     96939     16502  TIP3      OH2           -21.0359261699       25.1556826592      -47.4761177370  TIP3      15142           0.0000000000
     96940     16502  TIP3      H1            -20.7773613027       24.7068169622      -46.6543795429  TIP3      15142           0.0000000000
     96941     16502  TIP3      H2            -21.6099277051       24.5150490629      -47.9280662609  TIP3      15142           0.0000000000
     96942     16503  TIP3      OH2            -9.3482448361       30.0705398613      -47.3881861272  TIP3      15143           0.0000000000
     96943     16503  TIP3      H1            -10.2771833292       30.2412095090      -47.5930738628  TIP3      15143           0.0000000000
     96944     16503  TIP3      H2             -9.3044846656       30.2255949169      -46.4309104967  TIP3      15143           0.0000000000
     96945     16504  TIP3      OH2            -3.6700383059       22.2206402049      -58.9437413218  TIP3      15144           0.0000000000
     96946     16504  TIP3      H1             -4.1611383336       21.8749235532      -59.7017929021  TIP3      15144           0.0000000000
     96947     16504  TIP3      H2             -3.5412738483       23.1493728037      -59.2404731734  TIP3      15144           0.0000000000
     96948     16505  TIP3      OH2            -3.6620403821       27.9347009085      -46.2089321447  TIP3      15145           0.0000000000
     96949     16505  TIP3      H1             -4.5304796623       28.3185509195      -46.5096204676  TIP3      15145           0.0000000000
     96950     16505  TIP3      H2             -3.1242876853       28.0633855170      -47.0001218422  TIP3      15145           0.0000000000
     96951     16506  TIP3      OH2            -5.3311237769       31.0454831831      -58.5666724539  TIP3      15146           0.0000000000
     96952     16506  TIP3      H1             -5.7077433631       30.2259656914      -58.2252942624  TIP3      15146           0.0000000000
     96953     16506  TIP3      H2             -5.0416538165       30.8404388348      -59.4780984171  TIP3      15146           0.0000000000
     96954     16507  TIP3      OH2            -8.1317583251       25.8616661505      -51.4745180102  TIP3      15147           0.0000000000
     96955     16507  TIP3      H1             -9.0769633433       25.6459394856      -51.5763960262  TIP3      15147           0.0000000000
     96956     16507  TIP3      H2             -7.7129042617       25.0853879901      -51.8801056489  TIP3      15147           0.0000000000
     96957     16508  TIP3      OH2           -15.6209935037       30.1869589555      -55.3566021960  TIP3      15148           0.0000000000
     96958     16508  TIP3      H1            -15.1181245640       30.9927578720      -55.5646634016  TIP3      15148           0.0000000000
     96959     16508  TIP3      H2            -16.4979200414       30.4219793798      -55.6877875346  TIP3      15148           0.0000000000
     96960     16509  TIP3      OH2           -19.8838996069       25.0627466549      -60.8271678907  TIP3      15149           0.0000000000
     96961     16509  TIP3      H1            -19.2592985784       25.6726461559      -60.4039805186  TIP3      15149           0.0000000000
     96962     16509  TIP3      H2            -20.7541209282       25.3223832419      -60.4938677870  TIP3      15149           0.0000000000
     96963     16510  TIP3      OH2           -14.2031911533       27.8536306946      -55.8304963991  TIP3      15150           0.0000000000
     96964     16510  TIP3      H1            -14.5121537655       28.7739205293      -55.7498609917  TIP3      15150           0.0000000000
     96965     16510  TIP3      H2            -14.9268397117       27.3631302944      -55.3941148416  TIP3      15150           0.0000000000
     96966     16511  TIP3      OH2           -13.7508162817       32.0425691563      -49.4518432012  TIP3      15151           0.0000000000
     96967     16511  TIP3      H1            -13.2962410429       32.8558454476      -49.7099883596  TIP3      15151           0.0000000000
     96968     16511  TIP3      H2            -13.1375133779       31.6990343446      -48.7807704656  TIP3      15151           0.0000000000
     96969     16512  TIP3      OH2           -15.5223753655       32.8486027191      -56.3129889802  TIP3      15152           0.0000000000
     96970     16512  TIP3      H1            -16.4885960545       32.9718373713      -56.1610867591  TIP3      15152           0.0000000000
     96971     16512  TIP3      H2            -15.1669480709       33.6827787612      -55.9566267007  TIP3      15152           0.0000000000
     96972     16513  TIP3      OH2           -10.1969856506       28.0647517613      -49.8222643949  TIP3      15153           0.0000000000
     96973     16513  TIP3      H1            -10.5572111446       27.8416101818      -48.9409358169  TIP3      15153           0.0000000000
     96974     16513  TIP3      H2             -9.5715467487       27.3354233439      -49.9601208447  TIP3      15153           0.0000000000
     96975     16514  TIP3      OH2            -7.9431445673       29.0582909319      -60.6916078613  TIP3      15154           0.0000000000
     96976     16514  TIP3      H1             -7.6300576600       28.6307883648      -59.8699483809  TIP3      15154           0.0000000000
     96977     16514  TIP3      H2             -8.9009831203       28.9310180504      -60.6195236673  TIP3      15154           0.0000000000
     96978     16515  TIP3      OH2            -7.4913293051       32.6337298908      -47.2824500908  TIP3      15155           0.0000000000
     96979     16515  TIP3      H1             -8.1012607337       32.1143083261      -47.8235172546  TIP3      15155           0.0000000000
     96980     16515  TIP3      H2             -7.2109387266       33.3148790203      -47.9318885440  TIP3      15155           0.0000000000
     96981     16516  TIP3      OH2            -3.4278655038       33.4949690189      -60.4557876289  TIP3      15156           0.0000000000
     96982     16516  TIP3      H1             -2.7266369066       34.1190924762      -60.7122828620  TIP3      15156           0.0000000000
     96983     16516  TIP3      H2             -4.1430965330       34.0995984350      -60.1684597356  TIP3      15156           0.0000000000
     96984     16517  TIP3      OH2           -19.3343446614       19.8960281186      -47.9434011661  TIP3      15157           0.0000000000
     96985     16517  TIP3      H1            -20.2488517839       20.2241863298      -47.9778320152  TIP3      15157           0.0000000000
     96986     16517  TIP3      H2            -19.4323639224       19.0434495830      -47.4898101789  TIP3      15157           0.0000000000
     96987     16518  TIP3      OH2            -7.1058153673       27.7174593693      -58.4917400948  TIP3      15158           0.0000000000
     96988     16518  TIP3      H1             -7.3549208579       26.9470374339      -57.9408173808  TIP3      15158           0.0000000000
     96989     16518  TIP3      H2             -6.1634697849       27.8056281016      -58.2694996521  TIP3      15158           0.0000000000
     96990     16519  TIP3      OH2           -19.7210123800       31.6608933620      -49.5057601790  TIP3      15159           0.0000000000
     96991     16519  TIP3      H1            -19.4418872508       30.7367310108      -49.5003349982  TIP3      15159           0.0000000000
     96992     16519  TIP3      H2            -19.4844266563       31.9624692368      -48.6173395797  TIP3      15159           0.0000000000
     96993     16520  TIP3      OH2           -15.0097917765       29.7348612689      -59.7996950596  TIP3      15160           0.0000000000
     96994     16520  TIP3      H1            -14.7195212275       29.1861959298      -59.0585701926  TIP3      15160           0.0000000000
     96995     16520  TIP3      H2            -14.8945077677       30.6477898370      -59.4611641641  TIP3      15160           0.0000000000
     96996     16521  TIP3      OH2           -18.4909635074       26.9773410163      -59.3233349225  TIP3      15161           0.0000000000
     96997     16521  TIP3      H1            -19.1504739094       27.3840691644      -58.7232312620  TIP3      15161           0.0000000000
     96998     16521  TIP3      H2            -17.9215430910       27.7309104094      -59.5450805965  TIP3      15161           0.0000000000
     96999     16522  TIP3      OH2           -10.6250042786       19.6255312374      -48.9975933163  TIP3      15162           0.0000000000
     97000     16522  TIP3      H1             -9.9081317322       19.6858878681      -48.3539898622  TIP3      15162           0.0000000000
     97001     16522  TIP3      H2            -11.0184166349       18.7538568614      -48.8264233053  TIP3      15162           0.0000000000
     97002     16523  TIP3      OH2            -9.8854510860       19.2319394387      -57.8645117483  TIP3      15163           0.0000000000
     97003     16523  TIP3      H1             -9.6379689591       19.6833751234      -58.6970314063  TIP3      15163           0.0000000000
     97004     16523  TIP3      H2             -9.3102391204       19.6795788554      -57.2281599529  TIP3      15163           0.0000000000
     97005     16524  TIP3      OH2           -12.1818673861       31.3924196443      -59.0574866707  TIP3      15164           0.0000000000
     97006     16524  TIP3      H1            -13.0083269784       31.9011755869      -59.0119836692  TIP3      15164           0.0000000000
     97007     16524  TIP3      H2            -11.6505689634       31.8883347933      -59.6886357785  TIP3      15164           0.0000000000
     97008     16525  TIP3      OH2           -12.6534583464       20.9632942229      -57.0751494981  TIP3      15165           0.0000000000
     97009     16525  TIP3      H1            -11.8659372883       21.5436817411      -57.0355991088  TIP3      15165           0.0000000000
     97010     16525  TIP3      H2            -12.9089178216       20.8508792578      -56.1387082494  TIP3      15165           0.0000000000
     97011     16526  TIP3      OH2           -12.1081793427       21.9797755936      -47.8306176197  TIP3      15166           0.0000000000
     97012     16526  TIP3      H1            -11.9935811572       22.5588189723      -47.0827560706  TIP3      15166           0.0000000000
     97013     16526  TIP3      H2            -11.4586271479       21.2678150041      -47.8116023739  TIP3      15166           0.0000000000
     97014     16527  TIP3      OH2           -11.7858423109       18.0337410651      -56.1652238070  TIP3      15167           0.0000000000
     97015     16527  TIP3      H1            -12.1191123403       18.6880132844      -55.5234903319  TIP3      15167           0.0000000000
     97016     16527  TIP3      H2            -11.1024496253       18.5745865375      -56.6331874320  TIP3      15167           0.0000000000
     97017     16528  TIP3      OH2           -14.8340992013       32.4160220317      -59.0524156012  TIP3      15168           0.0000000000
     97018     16528  TIP3      H1            -14.6468266792       33.2406359629      -59.5484559594  TIP3      15168           0.0000000000
     97019     16528  TIP3      H2            -15.0580728260       32.7589676975      -58.1587470627  TIP3      15168           0.0000000000
     97020     16529  TIP3      OH2           -16.1238742748       19.1220833506      -59.4321523159  TIP3      15169           0.0000000000
     97021     16529  TIP3      H1            -16.1932239279       20.0427487761      -59.1139940156  TIP3      15169           0.0000000000
     97022     16529  TIP3      H2            -15.2038721008       18.9110567083      -59.1895013849  TIP3      15169           0.0000000000
     97023     16530  TIP3      OH2            -5.9160534856       19.9220336726      -46.9951823979  TIP3      15170           0.0000000000
     97024     16530  TIP3      H1             -6.8500392473       20.1645207067      -47.1534607896  TIP3      15170           0.0000000000
     97025     16530  TIP3      H2             -5.6170575659       19.8241388207      -47.9084668336  TIP3      15170           0.0000000000
     97026     16531  TIP3      OH2            -7.2792247433       23.6453257162      -53.0480605926  TIP3      15171           0.0000000000
     97027     16531  TIP3      H1             -8.1288798013       23.2170743836      -53.2734981985  TIP3      15171           0.0000000000
     97028     16531  TIP3      H2             -6.8540704243       22.9652477556      -52.4796576249  TIP3      15171           0.0000000000
     97029     16532  TIP3      OH2           -17.8817958329       29.5799461315      -60.4193571737  TIP3      15172           0.0000000000
     97030     16532  TIP3      H1            -17.2319786216       30.2169925945      -60.0995636546  TIP3      15172           0.0000000000
     97031     16532  TIP3      H2            -17.3769973391       29.1335755585      -61.1089401888  TIP3      15172           0.0000000000
     97032     16533  TIP3      OH2            -6.2362517698       32.9015981043      -51.3718323913  TIP3      15173           0.0000000000
     97033     16533  TIP3      H1             -6.3277744534       33.5984575161      -52.0469356397  TIP3      15173           0.0000000000
     97034     16533  TIP3      H2             -5.2772154331       32.9682926790      -51.1658611961  TIP3      15173           0.0000000000
     97035     16534  TIP3      OH2           -18.7423097751       17.0303219414      -52.5431168255  TIP3      15174           0.0000000000
     97036     16534  TIP3      H1            -18.9445608261       17.0589844780      -53.5028048495  TIP3      15174           0.0000000000
     97037     16534  TIP3      H2            -19.1609326318       16.1809325649      -52.2923755254  TIP3      15174           0.0000000000
     97038     16535  TIP3      OH2           -19.7897518005       30.9545541999      -56.3984412478  TIP3      15175           0.0000000000
     97039     16535  TIP3      H1            -20.6449430253       31.4058393041      -56.4396025671  TIP3      15175           0.0000000000
     97040     16535  TIP3      H2            -19.3108992082       31.4203710261      -57.0982494545  TIP3      15175           0.0000000000
     97041     16536  TIP3      OH2            -7.1916754197       31.8281425175      -61.8884625821  TIP3      15176           0.0000000000
     97042     16536  TIP3      H1             -6.9443988522       30.9996213509      -61.4342205981  TIP3      15176           0.0000000000
     97043     16536  TIP3      H2             -6.4323183912       32.0096193788      -62.4520349558  TIP3      15176           0.0000000000
     97044     16537  TIP3      OH2            -8.2536385856       27.2443499009      -47.5472170720  TIP3      15177           0.0000000000
     97045     16537  TIP3      H1             -7.4650251725       27.8105556091      -47.4126280784  TIP3      15177           0.0000000000
     97046     16537  TIP3      H2             -8.9355874604       27.8649489395      -47.2500752410  TIP3      15177           0.0000000000
     97047     16538  TIP3      OH2           -15.0911159571       25.7543811814      -59.6666445965  TIP3      15178           0.0000000000
     97048     16538  TIP3      H1            -15.6132762459       25.2229630956      -59.0482167277  TIP3      15178           0.0000000000
     97049     16538  TIP3      H2            -14.8085193572       25.0781201427      -60.3235364217  TIP3      15178           0.0000000000
     97050     16539  TIP3      OH2           -15.8861538827       23.5352694422      -47.4081538310  TIP3      15179           0.0000000000
     97051     16539  TIP3      H1            -16.4375887769       24.2749327192      -47.1217071840  TIP3      15179           0.0000000000
     97052     16539  TIP3      H2            -15.4538224057       23.9080222581      -48.1924942933  TIP3      15179           0.0000000000
     97053     16540  TIP3      OH2           -14.0443682414       23.9346314049      -61.4715443291  TIP3      15180           0.0000000000
     97054     16540  TIP3      H1            -14.1581744838       23.8155188068      -62.4236233594  TIP3      15180           0.0000000000
     97055     16540  TIP3      H2            -13.0749448420       24.0605699223      -61.3533212116  TIP3      15180           0.0000000000
     97056     16541  TIP3      OH2           -15.5216923902       20.9401733721      -46.3329108477  TIP3      15181           0.0000000000
     97057     16541  TIP3      H1            -15.3441974063       20.2311600604      -46.9755010322  TIP3      15181           0.0000000000
     97058     16541  TIP3      H2            -15.4810007279       21.7539958923      -46.8799110136  TIP3      15181           0.0000000000
     97059     16542  TIP3      OH2           -15.0877175490       19.2170788977      -48.7565789570  TIP3      15182           0.0000000000
     97060     16542  TIP3      H1            -14.5568528266       19.7606705321      -49.4104721284  TIP3      15182           0.0000000000
     97061     16542  TIP3      H2            -15.9479664768       19.2147081922      -49.2126372842  TIP3      15182           0.0000000000
     97062     16543  TIP3      OH2           -13.4684306262       24.8292874421      -48.4636644011  TIP3      15183           0.0000000000
     97063     16543  TIP3      H1            -12.7947742711       24.5572392960      -49.1305332551  TIP3      15183           0.0000000000
     97064     16543  TIP3      H2            -13.8638668130       25.6173862563      -48.8564036110  TIP3      15183           0.0000000000
     97065     16544  TIP3      OH2           -14.2321890319       16.7683639519      -48.3831577048  TIP3      15184           0.0000000000
     97066     16544  TIP3      H1            -14.4439288906       17.7264438650      -48.4710619153  TIP3      15184           0.0000000000
     97067     16544  TIP3      H2            -14.9993566344       16.3878421388      -48.8404132990  TIP3      15184           0.0000000000
     97068     16545  TIP3      OH2           -14.2017955315       34.6583856628      -60.4566638965  TIP3      15185           0.0000000000
     97069     16545  TIP3      H1            -13.2354921856       34.7589987163      -60.3267953949  TIP3      15185           0.0000000000
     97070     16545  TIP3      H2            -14.3925478408       35.3404625203      -61.0993885395  TIP3      15185           0.0000000000
     97071     16546  TIP3      OH2           -20.6237443243       29.2551987620      -60.9213788333  TIP3      15186           0.0000000000
     97072     16546  TIP3      H1            -19.6646934653       29.3395715616      -60.7121078282  TIP3      15186           0.0000000000
     97073     16546  TIP3      H2            -20.6150741268       28.6483830007      -61.6693939393  TIP3      15186           0.0000000000
     97074     16547  TIP3      OH2           -21.8641984977       34.6232611984      -55.9599636472  TIP3      15187           0.0000000000
     97075     16547  TIP3      H1            -22.5873468064       34.1416273681      -56.4234155627  TIP3      15187           0.0000000000
     97076     16547  TIP3      H2            -21.5923957832       33.9670407215      -55.2928339426  TIP3      15187           0.0000000000
     97077     16548  TIP3      OH2           -21.0535818041       32.7554436008      -54.0831931723  TIP3      15188           0.0000000000
     97078     16548  TIP3      H1            -21.4073769554       31.8787068464      -53.8782317413  TIP3      15188           0.0000000000
     97079     16548  TIP3      H2            -20.8291194175       33.0875892212      -53.1982183779  TIP3      15188           0.0000000000
     97080     16549  TIP3      OH2            -3.5178421085       33.5488927552      -51.1442389724  TIP3      15189           0.0000000000
     97081     16549  TIP3      H1             -3.4901322771       33.7129225100      -50.1860725339  TIP3      15189           0.0000000000
     97082     16549  TIP3      H2             -2.8072061433       34.1251672217      -51.4406978555  TIP3      15189           0.0000000000
     97083     16550  TIP3      OH2            -3.9125958395       33.1481945772      -48.2524955970  TIP3      15190           0.0000000000
     97084     16550  TIP3      H1             -4.4073021553       32.3730397217      -48.5687689000  TIP3      15190           0.0000000000
     97085     16550  TIP3      H2             -3.4058338071       32.7061472706      -47.5405427435  TIP3      15190           0.0000000000
     97086     16551  TIP3      OH2            -4.1641005244       27.1771782995      -58.1122337200  TIP3      15191           0.0000000000
     97087     16551  TIP3      H1             -3.3215089344       27.6043807184      -57.8899324744  TIP3      15191           0.0000000000
     97088     16551  TIP3      H2             -4.1905881717       26.4850363133      -57.4153982042  TIP3      15191           0.0000000000
     97089     16552  TIP3      OH2            -3.8193720811       25.2698608466      -56.2343759780  TIP3      15192           0.0000000000
     97090     16552  TIP3      H1             -4.5688603251       24.7737792808      -55.8326830630  TIP3      15192           0.0000000000
     97091     16552  TIP3      H2             -3.2239424292       25.4116554526      -55.4711015181  TIP3      15192           0.0000000000
     97092     16553  TIP3      OH2            -4.0763865528       27.9615117927      -51.2635976393  TIP3      15193           0.0000000000
     97093     16553  TIP3      H1             -3.2443467946       27.5907451311      -51.6138064854  TIP3      15193           0.0000000000
     97094     16553  TIP3      H2             -3.9212251910       28.9174220289      -51.4134870019  TIP3      15193           0.0000000000
     97095     16554  TIP3      OH2            -5.5328356505       30.8796782317      -48.9658014963  TIP3      15194           0.0000000000
     97096     16554  TIP3      H1             -6.2075699322       31.2085447009      -48.3502328837  TIP3      15194           0.0000000000
     97097     16554  TIP3      H2             -6.0717194085       30.4650840741      -49.6719777695  TIP3      15194           0.0000000000
     97098     16555  TIP3      OH2            -3.5484738910       25.0939876211      -59.8424419836  TIP3      15195           0.0000000000
     97099     16555  TIP3      H1             -4.1118231649       25.4453253429      -60.5380126051  TIP3      15195           0.0000000000
     97100     16555  TIP3      H2             -3.5912896950       25.8034375396      -59.1718585891  TIP3      15195           0.0000000000
     97101     16556  TIP3      OH2            -6.0015211474       23.7455429518      -55.6676393665  TIP3      15196           0.0000000000
     97102     16556  TIP3      H1             -6.1511334159       22.7904038629      -55.6752022224  TIP3      15196           0.0000000000
     97103     16556  TIP3      H2             -6.3264075123       23.9702530068      -54.7760998485  TIP3      15196           0.0000000000
     97104     16557  TIP3      OH2           -20.9971653730       25.8349155826      -51.5915476695  TIP3      15197           0.0000000000
     97105     16557  TIP3      H1            -20.8131872209       25.7532423532      -52.5548686157  TIP3      15197           0.0000000000
     97106     16557  TIP3      H2            -20.1017411055       25.6615082039      -51.2332194593  TIP3      15197           0.0000000000
     97107     16558  TIP3      OH2            -5.0846271328       25.6657165456      -46.0324408727  TIP3      15198           0.0000000000
     97108     16558  TIP3      H1             -4.5085108926       24.9707140728      -45.7498643734  TIP3      15198           0.0000000000
     97109     16558  TIP3      H2             -4.5685427632       26.5007266825      -45.9846281857  TIP3      15198           0.0000000000
     97110     16559  TIP3      OH2            -5.9024167915       19.7281516960      -62.2135935949  TIP3      15199           0.0000000000
     97111     16559  TIP3      H1             -5.3159182841       19.3501936632      -61.5332067249  TIP3      15199           0.0000000000
     97112     16559  TIP3      H2             -6.7852471540       19.4055816281      -61.9892654763  TIP3      15199           0.0000000000
     97113     16560  TIP3      OH2            -6.3292681886       21.3320827697      -57.1861661078  TIP3      15200           0.0000000000
     97114     16560  TIP3      H1             -6.0281111808       20.4021977873      -57.0617511192  TIP3      15200           0.0000000000
     97115     16560  TIP3      H2             -5.5363637425       21.7295215253      -57.5704426846  TIP3      15200           0.0000000000
     97116     16561  TIP3      OH2            -5.6921029877       21.8741085770      -51.7667043326  TIP3      15201           0.0000000000
     97117     16561  TIP3      H1             -4.7353315198       22.1110769813      -51.7680881016  TIP3      15201           0.0000000000
     97118     16561  TIP3      H2             -5.8892480996       22.0150904851      -50.8248358414  TIP3      15201           0.0000000000
     97119     16562  TIP3      OH2            -5.6276785489       22.6163153951      -48.9661170871  TIP3      15202           0.0000000000
     97120     16562  TIP3      H1             -6.5161728821       22.9011779420      -48.6342588493  TIP3      15202           0.0000000000
     97121     16562  TIP3      H2             -5.2064414306       23.4758572164      -49.1909941231  TIP3      15202           0.0000000000
     97122     16563  TIP3      OH2            -5.6635248369       18.6102404144      -57.1529855385  TIP3      15203           0.0000000000
     97123     16563  TIP3      H1             -5.4533165082       18.1787475168      -56.2955061858  TIP3      15203           0.0000000000
     97124     16563  TIP3      H2             -6.2711936660       17.9736609133      -57.5871103942  TIP3      15203           0.0000000000
     97125     16564  TIP3      OH2           -20.1837092024       19.4221599020      -52.5829184010  TIP3      15204           0.0000000000
     97126     16564  TIP3      H1            -19.7167560652       18.5996826004      -52.3259245014  TIP3      15204           0.0000000000
     97127     16564  TIP3      H2            -19.6335385806       20.1164020443      -52.1939081836  TIP3      15204           0.0000000000
     97128     16565  TIP3      OH2           -21.8947886331       22.4180214958      -51.5535532092  TIP3      15205           0.0000000000
     97129     16565  TIP3      H1            -21.3295111092       22.1759327656      -52.3145383785  TIP3      15205           0.0000000000
     97130     16565  TIP3      H2            -21.4361062179       23.2268742804      -51.2812294396  TIP3      15205           0.0000000000
     97131     16566  TIP3      OH2            -3.8425318442       18.6654028460      -60.5669273340  TIP3      15206           0.0000000000
     97132     16566  TIP3      H1             -3.4189206383       17.9644427539      -61.0879533985  TIP3      15206           0.0000000000
     97133     16566  TIP3      H2             -3.1320133511       19.3299577990      -60.5746216369  TIP3      15206           0.0000000000
     97134     16567  TIP3      OH2           -21.5313134783       18.6926970885      -57.4870939975  TIP3      15207           0.0000000000
     97135     16567  TIP3      H1            -22.4764937896       18.8645441419      -57.6067397455  TIP3      15207           0.0000000000
     97136     16567  TIP3      H2            -21.1167413217       19.1828350678      -58.2167492089  TIP3      15207           0.0000000000
     97137     16568  TIP3      OH2            -6.7985345521       33.6225359923      -55.5158714476  TIP3      15208           0.0000000000
     97138     16568  TIP3      H1             -6.1130466641       33.3215188134      -56.1406458873  TIP3      15208           0.0000000000
     97139     16568  TIP3      H2             -6.2765469677       34.1328383505      -54.8774065820  TIP3      15208           0.0000000000
     97140     16569  TIP3      OH2           -21.5772275720       17.3706507397      -49.1983034975  TIP3      15209           0.0000000000
     97141     16569  TIP3      H1            -22.2375701444       17.1522324845      -48.5023001711  TIP3      15209           0.0000000000
     97142     16569  TIP3      H2            -22.0587423057       18.0336877993      -49.7268998419  TIP3      15209           0.0000000000
     97143     16570  TIP3      OH2           -16.4557953822       31.5131773337      -48.7724733348  TIP3      15210           0.0000000000
     97144     16570  TIP3      H1            -16.7951376148       32.3903628200      -49.0096262467  TIP3      15210           0.0000000000
     97145     16570  TIP3      H2            -15.5152482591       31.6323339396      -49.0256301540  TIP3      15210           0.0000000000
     97146     16571  TIP3      OH2           -12.1038791428       32.9031665258      -45.7980534798  TIP3      15211           0.0000000000
     97147     16571  TIP3      H1            -11.9236977346       32.6403097009      -44.8829948556  TIP3      15211           0.0000000000
     97148     16571  TIP3      H2            -11.2402537106       33.2611980209      -46.0718316639  TIP3      15211           0.0000000000
     97149     16572  TIP3      OH2            -9.8688156054       34.2837788646      -46.5795141655  TIP3      15212           0.0000000000
     97150     16572  TIP3      H1             -9.1467696049       33.6744404609      -46.7851936640  TIP3      15212           0.0000000000
     97151     16572  TIP3      H2             -9.4699293889       34.6148975579      -45.7444406229  TIP3      15212           0.0000000000
     97152     16573  TIP3      OH2            -4.7870981249       16.8735588272      -47.5092624102  TIP3      15213           0.0000000000
     97153     16573  TIP3      H1             -5.6753744096       17.1192415208      -47.8115132865  TIP3      15213           0.0000000000
     97154     16573  TIP3      H2             -4.6546143523       16.0041260209      -47.9387761007  TIP3      15213           0.0000000000
     97155     16574  TIP3      OH2           -19.0283972651       34.7641081401      -48.7326263041  TIP3      15214           0.0000000000
     97156     16574  TIP3      H1            -19.7555488943       35.2780773380      -49.1162618100  TIP3      15214           0.0000000000
     97157     16574  TIP3      H2            -19.3593647251       34.6154823423      -47.8358210353  TIP3      15214           0.0000000000
     97158     16575  TIP3      OH2           -16.5559237116       34.3610737380      -49.6743471134  TIP3      15215           0.0000000000
     97159     16575  TIP3      H1            -17.4339503280       34.5325535419      -49.2565307717  TIP3      15215           0.0000000000
     97160     16575  TIP3      H2            -16.6136973204       34.9440253824      -50.4549167853  TIP3      15215           0.0000000000
     97161     16576  TIP3      OH2           -11.8339264010       34.2712687934      -50.5001908757  TIP3      15216           0.0000000000
     97162     16576  TIP3      H1            -12.2989743184       34.8209507568      -51.1477091597  TIP3      15216           0.0000000000
     97163     16576  TIP3      H2            -11.7127398770       34.9124353489      -49.7673994322  TIP3      15216           0.0000000000
     97164     16577  TIP3      OH2            -9.5406352056       33.0744760294      -49.5289748961  TIP3      15217           0.0000000000
     97165     16577  TIP3      H1            -10.4121034134       33.3604874436      -49.8423988784  TIP3      15217           0.0000000000
     97166     16577  TIP3      H2             -9.0851966267       33.9302393212      -49.5802290409  TIP3      15217           0.0000000000
     97167     16578  TIP3      OH2            -6.9841931290       34.6739327287      -49.2581768917  TIP3      15218           0.0000000000
     97168     16578  TIP3      H1             -7.0364103152       35.6327224914      -49.4833870454  TIP3      15218           0.0000000000
     97169     16578  TIP3      H2             -6.7507287464       34.2952201396      -50.1257019899  TIP3      15218           0.0000000000
     97170     16579  TIP3      OH2           -19.5645717067       33.4315673107      -51.7957518863  TIP3      15219           0.0000000000
     97171     16579  TIP3      H1            -19.6308207837       32.9949513040      -50.9176260752  TIP3      15219           0.0000000000
     97172     16579  TIP3      H2            -18.7506913333       33.0535457372      -52.1868324179  TIP3      15219           0.0000000000
     97173     16580  TIP3      OH2           -17.4827815280       32.1430503465      -53.1479981968  TIP3      15220           0.0000000000
     97174     16580  TIP3      H1            -17.6501443505       31.2090242212      -52.9189457695  TIP3      15220           0.0000000000
     97175     16580  TIP3      H2            -16.6286676135       32.2941491197      -52.6904639158  TIP3      15220           0.0000000000
     97176     16581  TIP3      OH2           -14.8804405849       32.6261641026      -52.2656934121  TIP3      15221           0.0000000000
     97177     16581  TIP3      H1            -14.7228331243       31.7060108980      -52.5348051519  TIP3      15221           0.0000000000
     97178     16581  TIP3      H2            -14.8464546003       32.5610579191      -51.2976626225  TIP3      15221           0.0000000000
     97179     16582  TIP3      OH2           -11.4115187012       18.2630364938      -53.1387673338  TIP3      15222           0.0000000000
     97180     16582  TIP3      H1            -12.1055247335       17.6459264558      -52.8566543056  TIP3      15222           0.0000000000
     97181     16582  TIP3      H2            -10.8740608068       17.7275124210      -53.7297009945  TIP3      15222           0.0000000000
     97182     16583  TIP3      OH2            -6.2902097107       16.3313059684      -53.0657964159  TIP3      15223           0.0000000000
     97183     16583  TIP3      H1             -5.6764552012       16.9193377791      -53.5739201221  TIP3      15223           0.0000000000
     97184     16583  TIP3      H2             -7.1737159903       16.6855362575      -53.2977943921  TIP3      15223           0.0000000000
     97185     16584  TIP3      OH2            -4.6188112360       17.5676200844      -54.7834272608  TIP3      15224           0.0000000000
     97186     16584  TIP3      H1             -3.9322440593       16.9945717595      -55.2038347903  TIP3      15224           0.0000000000
     97187     16584  TIP3      H2             -4.1166744364       18.4086819002      -54.6835874662  TIP3      15224           0.0000000000
     97188     16585  TIP3      OH2           -19.0434758538       16.8974395051      -55.2969912007  TIP3      15225           0.0000000000
     97189     16585  TIP3      H1            -19.8652476186       16.7103622359      -55.7958863990  TIP3      15225           0.0000000000
     97190     16585  TIP3      H2            -18.6035876694       16.0347223593      -55.3197563337  TIP3      15225           0.0000000000
     97191     16586  TIP3      OH2           -20.2653911061       16.6649649398      -59.5360001351  TIP3      15226           0.0000000000
     97192     16586  TIP3      H1            -19.8152864801       17.3129005723      -60.1186443478  TIP3      15226           0.0000000000
     97193     16586  TIP3      H2            -20.8678240193       17.2300626235      -59.0196119374  TIP3      15226           0.0000000000
     97194     16587  TIP3      OH2           -14.5706036100       16.7812343500      -55.5117418615  TIP3      15227           0.0000000000
     97195     16587  TIP3      H1            -13.6920762198       17.2148412037      -55.5583025398  TIP3      15227           0.0000000000
     97196     16587  TIP3      H2            -14.6175776305       16.6336813214      -54.5642843847  TIP3      15227           0.0000000000
     97197     16588  TIP3      OH2            -8.8709822448       16.8355822106      -53.8759223497  TIP3      15228           0.0000000000
     97198     16588  TIP3      H1             -8.9189199904       16.9551519659      -54.8297440375  TIP3      15228           0.0000000000
     97199     16588  TIP3      H2             -9.2648503932       15.9413780429      -53.7515200905  TIP3      15228           0.0000000000
     97200     16589  TIP3      OH2            -7.5976500900       16.8774056864      -58.2142151395  TIP3      15229           0.0000000000
     97201     16589  TIP3      H1             -8.3428870586       17.4750979924      -58.3693154115  TIP3      15229           0.0000000000
     97202     16589  TIP3      H2             -8.0332145491       16.0256981989      -57.9768524854  TIP3      15229           0.0000000000
     97203     16590  TIP3      OH2           -20.3661520418       32.6231426713      -58.5486543614  TIP3      15230           0.0000000000
     97204     16590  TIP3      H1            -21.0420592938       32.6142988521      -59.2533391310  TIP3      15230           0.0000000000
     97205     16590  TIP3      H2            -20.3463099734       33.5750631485      -58.3872254107  TIP3      15230           0.0000000000
     97206     16591  TIP3      OH2           -18.4633737283       18.4941588527      -60.9876120563  TIP3      15231           0.0000000000
     97207     16591  TIP3      H1            -17.9165617886       18.0187382912      -61.6109878064  TIP3      15231           0.0000000000
     97208     16591  TIP3      H2            -17.7835490719       18.9606113974      -60.4650100042  TIP3      15231           0.0000000000
     97209     16592  TIP3      OH2           -13.4392949039       18.8390676474      -58.6335950243  TIP3      15232           0.0000000000
     97210     16592  TIP3      H1            -13.1509527504       18.2778297212      -57.8965913319  TIP3      15232           0.0000000000
     97211     16592  TIP3      H2            -13.3738325024       19.7057127340      -58.1646937853  TIP3      15232           0.0000000000
     97212     16593  TIP3      OH2           -11.5342053033       33.9344176339      -60.2431404213  TIP3      15233           0.0000000000
     97213     16593  TIP3      H1            -10.5885598073       34.1430424183      -60.3780840183  TIP3      15233           0.0000000000
     97214     16593  TIP3      H2            -11.6919261654       33.3816877997      -61.0187745725  TIP3      15233           0.0000000000
     97215     16594  TIP3      OH2            -4.7958209087       33.4233536066      -57.4864094541  TIP3      15234           0.0000000000
     97216     16594  TIP3      H1             -4.9984733360       32.6453517008      -58.0632301831  TIP3      15234           0.0000000000
     97217     16594  TIP3      H2             -4.8808601793       34.1559253353      -58.1260076771  TIP3      15234           0.0000000000
     97218     16595  TIP3      OH2           -19.3640944980       17.0737531171      -46.0587879572  TIP3      15235           0.0000000000
     97219     16595  TIP3      H1            -19.6453251877       16.4907895701      -45.3465107510  TIP3      15235           0.0000000000
     97220     16595  TIP3      H2            -18.4809737343       17.2515124984      -45.7187591973  TIP3      15235           0.0000000000
     97221     16596  TIP3      OH2           -18.5516000419       33.5776537731      -61.5852982511  TIP3      15236           0.0000000000
     97222     16596  TIP3      H1            -18.8290350854       33.8722452999      -60.7083417996  TIP3      15236           0.0000000000
     97223     16596  TIP3      H2            -17.7684737389       33.0531203105      -61.4258629362  TIP3      15236           0.0000000000
     97224     16597  TIP3      OH2             8.8916982440       26.0463602177      -55.4272883281  TIP3      15237           0.0000000000
     97225     16597  TIP3      H1              8.8796371615       27.0247928637      -55.4685832645  TIP3      15237           0.0000000000
     97226     16597  TIP3      H2              8.1636490526       25.8084544803      -56.0275158340  TIP3      15237           0.0000000000
     97227     16598  TIP3      OH2             7.7449126533       25.2966146536      -51.9267236460  TIP3      15238           0.0000000000
     97228     16598  TIP3      H1              7.7354331527       24.6440846544      -51.2157349175  TIP3      15238           0.0000000000
     97229     16598  TIP3      H2              7.3985132243       24.7956578609      -52.6833388919  TIP3      15238           0.0000000000
     97230     16599  TIP3      OH2             0.0953340660       24.9909223215      -50.3599696830  TIP3      15239           0.0000000000
     97231     16599  TIP3      H1              0.1940461640       24.2864181977      -49.6850087877  TIP3      15239           0.0000000000
     97232     16599  TIP3      H2              0.8551365673       25.5512611113      -50.1550479777  TIP3      15239           0.0000000000
     97233     16600  TIP3      OH2            11.4337576159       28.2479145050      -53.6430144114  TIP3      15240           0.0000000000
     97234     16600  TIP3      H1             11.0138040086       27.5355433610      -53.1545764497  TIP3      15240           0.0000000000
     97235     16600  TIP3      H2             11.4543554516       28.9546533606      -52.9701495531  TIP3      15240           0.0000000000
     97236     16601  TIP3      OH2             1.0248550642       29.4219239998      -51.8754009454  TIP3      15241           0.0000000000
     97237     16601  TIP3      H1              0.7100641401       28.5531202003      -52.1920511745  TIP3      15241           0.0000000000
     97238     16601  TIP3      H2              1.9792221646       29.2340086729      -51.8215544919  TIP3      15241           0.0000000000
     97239     16602  TIP3      OH2            -2.3260823312       22.9794210658      -56.4185753037  TIP3      15242           0.0000000000
     97240     16602  TIP3      H1             -2.7645607179       23.8525548639      -56.4379501471  TIP3      15242           0.0000000000
     97241     16602  TIP3      H2             -2.9154171586       22.4455397005      -56.9651658601  TIP3      15242           0.0000000000
     97242     16603  TIP3      OH2            -1.6171393163       25.2072423340      -54.2415237952  TIP3      15243           0.0000000000
     97243     16603  TIP3      H1             -1.3551556330       24.3848536092      -53.7858255103  TIP3      15243           0.0000000000
     97244     16603  TIP3      H2             -0.9218690922       25.3072403019      -54.9055372274  TIP3      15243           0.0000000000
     97245     16604  TIP3      OH2             8.5544249381       33.4065551916      -53.4107774123  TIP3      15244           0.0000000000
     97246     16604  TIP3      H1              9.1994336235       32.7107938411      -53.6917732142  TIP3      15244           0.0000000000
     97247     16604  TIP3      H2              8.3406680789       33.0754318093      -52.5350635467  TIP3      15244           0.0000000000
     97248     16605  TIP3      OH2             6.1199405774       27.6985508414      -51.4593830096  TIP3      15245           0.0000000000
     97249     16605  TIP3      H1              6.4615535325       27.0703230050      -52.1137181742  TIP3      15245           0.0000000000
     97250     16605  TIP3      H2              6.9228395753       27.8537903439      -50.9312666759  TIP3      15245           0.0000000000
     97251     16606  TIP3      OH2            14.7277383154       19.3574430132      -50.7155115285  TIP3      15246           0.0000000000
     97252     16606  TIP3      H1             14.8940913744       19.9382137914      -49.9472666787  TIP3      15246           0.0000000000
     97253     16606  TIP3      H2             15.2870446149       19.7844014115      -51.3796924461  TIP3      15246           0.0000000000
     97254     16607  TIP3      OH2             9.2647692607       22.1571933151      -51.1283017502  TIP3      15247           0.0000000000
     97255     16607  TIP3      H1              9.4566907612       21.2052671435      -51.1380395006  TIP3      15247           0.0000000000
     97256     16607  TIP3      H2              9.1821956740       22.3090855742      -52.0914380584  TIP3      15247           0.0000000000
     97257     16608  TIP3      OH2             2.4009007436       20.2565197681      -53.9249394385  TIP3      15248           0.0000000000
     97258     16608  TIP3      H1              2.5060139875       21.0923012072      -54.4152559242  TIP3      15248           0.0000000000
     97259     16608  TIP3      H2              2.0013984052       19.6813490157      -54.6136602162  TIP3      15248           0.0000000000
     97260     16609  TIP3      OH2            10.1384173522       20.3347153761      -55.5540127375  TIP3      15249           0.0000000000
     97261     16609  TIP3      H1             10.7935302329       20.0222297835      -54.8872801100  TIP3      15249           0.0000000000
     97262     16609  TIP3      H2             10.7004719125       20.9069080453      -56.0996883983  TIP3      15249           0.0000000000
     97263     16610  TIP3      OH2            -0.9718551687       22.6648333552      -53.1913630497  TIP3      15250           0.0000000000
     97264     16610  TIP3      H1             -0.3024063049       22.1173333800      -52.7385061130  TIP3      15250           0.0000000000
     97265     16610  TIP3      H2             -0.8714644226       22.3512342663      -54.1027102656  TIP3      15250           0.0000000000
     97266     16611  TIP3      OH2             4.1854692812       24.2218993601      -53.8765691110  TIP3      15251           0.0000000000
     97267     16611  TIP3      H1              4.8534991880       23.6397292781      -53.4756663208  TIP3      15251           0.0000000000
     97268     16611  TIP3      H2              3.6685799994       23.5643468244      -54.3824191425  TIP3      15251           0.0000000000
     97269     16612  TIP3      OH2            15.2009767637       20.8322004745      -48.4693315097  TIP3      15252           0.0000000000
     97270     16612  TIP3      H1             14.5104715977       21.5198206551      -48.5792528495  TIP3      15252           0.0000000000
     97271     16612  TIP3      H2             15.1676234309       20.6504834544      -47.5206669124  TIP3      15252           0.0000000000
     97272     16613  TIP3      OH2             1.3100706339       19.1346575041      -49.9213567131  TIP3      15253           0.0000000000
     97273     16613  TIP3      H1              1.0219701702       19.7324146747      -50.6373564253  TIP3      15253           0.0000000000
     97274     16613  TIP3      H2              0.6496152252       19.3711076658      -49.2266399185  TIP3      15253           0.0000000000
     97275     16614  TIP3      OH2             8.5963375706       28.6445723018      -56.3329526773  TIP3      15254           0.0000000000
     97276     16614  TIP3      H1              8.3051711018       28.3571078699      -57.2083956382  TIP3      15254           0.0000000000
     97277     16614  TIP3      H2              8.2902111744       29.5752870799      -56.2931584516  TIP3      15254           0.0000000000
     97278     16615  TIP3      OH2             3.8082222162       26.8012581971      -49.6390144278  TIP3      15255           0.0000000000
     97279     16615  TIP3      H1              3.1114897034       27.4486178749      -49.4123838689  TIP3      15255           0.0000000000
     97280     16615  TIP3      H2              4.5247458908       27.3909538892      -49.9234112188  TIP3      15255           0.0000000000
     97281     16616  TIP3      OH2            11.9377333533       19.6814693747      -53.5582143286  TIP3      15256           0.0000000000
     97282     16616  TIP3      H1             11.7302761214       18.9094238879      -53.0260352995  TIP3      15256           0.0000000000
     97283     16616  TIP3      H2             12.6203233776       20.1184968145      -53.0227428863  TIP3      15256           0.0000000000
     97284     16617  TIP3      OH2             0.8698269005       21.0127904356      -51.8567968029  TIP3      15257           0.0000000000
     97285     16617  TIP3      H1              1.5031225454       21.6968520309      -51.5389516463  TIP3      15257           0.0000000000
     97286     16617  TIP3      H2              1.3911216225       20.5960617433      -52.5882969823  TIP3      15257           0.0000000000
     97287     16618  TIP3      OH2             2.2626807924       28.8099628688      -48.8099278895  TIP3      15258           0.0000000000
     97288     16618  TIP3      H1              2.2231558811       29.7252649652      -49.1538893978  TIP3      15258           0.0000000000
     97289     16618  TIP3      H2              1.3717376526       28.7382695796      -48.3952594367  TIP3      15258           0.0000000000
     97290     16619  TIP3      OH2            -1.6698299788       28.4087444954      -58.0548507317  TIP3      15259           0.0000000000
     97291     16619  TIP3      H1             -1.8928667632       28.7519044762      -58.9405254783  TIP3      15259           0.0000000000
     97292     16619  TIP3      H2             -1.5906516917       29.2378865635      -57.5348720445  TIP3      15259           0.0000000000
     97293     16620  TIP3      OH2            11.9603198822       30.0795068102      -51.2942641789  TIP3      15260           0.0000000000
     97294     16620  TIP3      H1             10.9957259798       30.1918705848      -51.1474905476  TIP3      15260           0.0000000000
     97295     16620  TIP3      H2             12.2332963773       31.0024412879      -51.4633158007  TIP3      15260           0.0000000000
     97296     16621  TIP3      OH2            12.2783095268       18.3968191411      -49.8398250686  TIP3      15261           0.0000000000
     97297     16621  TIP3      H1             11.5405822714       19.0055441233      -49.9850364671  TIP3      15261           0.0000000000
     97298     16621  TIP3      H2             12.9854520631       18.7874910376      -50.3905084882  TIP3      15261           0.0000000000
     97299     16622  TIP3      OH2             5.2507772255       16.4885683469      -52.4361339777  TIP3      15262           0.0000000000
     97300     16622  TIP3      H1              5.1148931614       15.5236250514      -52.4843237807  TIP3      15262           0.0000000000
     97301     16622  TIP3      H2              4.3794211674       16.7927293433      -52.1076502451  TIP3      15262           0.0000000000
     97302     16623  TIP3      OH2            10.2188729036       31.8660269019      -54.6851265032  TIP3      15263           0.0000000000
     97303     16623  TIP3      H1             10.6499020822       31.1487547687      -55.1925974804  TIP3      15263           0.0000000000
     97304     16623  TIP3      H2             10.6475811044       32.6578974881      -55.0748993881  TIP3      15263           0.0000000000
     97305     16624  TIP3      OH2            11.4321644042       29.7946617996      -56.1728596306  TIP3      15264           0.0000000000
     97306     16624  TIP3      H1             11.1338052672       29.1032177998      -56.7860808852  TIP3      15264           0.0000000000
     97307     16624  TIP3      H2             11.4605175414       29.3029062368      -55.3312361146  TIP3      15264           0.0000000000
     97308     16625  TIP3      OH2            13.0869157432       28.3842151285      -47.6761592431  TIP3      15265           0.0000000000
     97309     16625  TIP3      H1             13.1814374663       27.7564738260      -48.4234717062  TIP3      15265           0.0000000000
     97310     16625  TIP3      H2             13.2604230014       29.2451560907      -48.0969580316  TIP3      15265           0.0000000000
     97311     16626  TIP3      OH2             7.5389887890       25.2841872657      -57.9266951393  TIP3      15266           0.0000000000
     97312     16626  TIP3      H1              6.8340795996       25.8560588918      -58.2982529752  TIP3      15266           0.0000000000
     97313     16626  TIP3      H2              8.2457591915       25.3751343018      -58.5888963417  TIP3      15266           0.0000000000
     97314     16627  TIP3      OH2             7.6050867241       23.8018058832      -60.8286596537  TIP3      15267           0.0000000000
     97315     16627  TIP3      H1              8.3402672971       23.8172550008      -60.1971489495  TIP3      15267           0.0000000000
     97316     16627  TIP3      H2              7.9211552748       23.1679143520      -61.4764767795  TIP3      15267           0.0000000000
     97317     16628  TIP3      OH2            14.9391119954       24.6750628624      -49.6393505702  TIP3      15268           0.0000000000
     97318     16628  TIP3      H1             14.2887671407       25.4071966334      -49.5684021551  TIP3      15268           0.0000000000
     97319     16628  TIP3      H2             15.4249830728       24.9316910426      -50.4458376424  TIP3      15268           0.0000000000
     97320     16629  TIP3      OH2            10.9858610896       25.4714867040      -56.9941228214  TIP3      15269           0.0000000000
     97321     16629  TIP3      H1             10.2544401143       25.7362028119      -56.3819548343  TIP3      15269           0.0000000000
     97322     16629  TIP3      H2             11.4622968649       24.8208669703      -56.4454249520  TIP3      15269           0.0000000000
     97323     16630  TIP3      OH2            10.8852088996       23.6466396593      -47.8855834655  TIP3      15270           0.0000000000
     97324     16630  TIP3      H1             10.9180219995       24.4480507052      -47.3516064238  TIP3      15270           0.0000000000
     97325     16630  TIP3      H2             10.2741369765       23.9585774851      -48.5826281441  TIP3      15270           0.0000000000
     97326     16631  TIP3      OH2             2.5980687943       26.1486134738      -55.0810135873  TIP3      15271           0.0000000000
     97327     16631  TIP3      H1              2.2853630232       25.7593602024      -55.9307973811  TIP3      15271           0.0000000000
     97328     16631  TIP3      H2              3.2151957810       25.4588289409      -54.7411416702  TIP3      15271           0.0000000000
     97329     16632  TIP3      OH2             3.9285451605       29.5379870915      -52.3935125138  TIP3      15272           0.0000000000
     97330     16632  TIP3      H1              3.9136886069       29.0054392074      -53.1969705166  TIP3      15272           0.0000000000
     97331     16632  TIP3      H2              4.7082824925       29.1758303278      -51.9352109997  TIP3      15272           0.0000000000
     97332     16633  TIP3      OH2             2.9374797896       24.8956576542      -51.4095496116  TIP3      15273           0.0000000000
     97333     16633  TIP3      H1              3.4882065444       24.9996291139      -52.2109173441  TIP3      15273           0.0000000000
     97334     16633  TIP3      H2              3.3219353550       25.5616237949      -50.7958068068  TIP3      15273           0.0000000000
     97335     16634  TIP3      OH2             9.3488434809       30.4641474248      -50.6985465206  TIP3      15274           0.0000000000
     97336     16634  TIP3      H1              9.0504900638       31.1104767372      -50.0542716796  TIP3      15274           0.0000000000
     97337     16634  TIP3      H2              9.0978002307       29.6087358765      -50.2752944657  TIP3      15274           0.0000000000
     97338     16635  TIP3      OH2             3.8543554043       29.2922964084      -46.6605431793  TIP3      15275           0.0000000000
     97339     16635  TIP3      H1              3.5085584912       30.1037415337      -46.2505735585  TIP3      15275           0.0000000000
     97340     16635  TIP3      H2              3.2268425646       29.1279367606      -47.4009584942  TIP3      15275           0.0000000000
     97341     16636  TIP3      OH2             9.8813575954       24.6707272901      -59.3292005896  TIP3      15276           0.0000000000
     97342     16636  TIP3      H1             10.4041398027       24.8712114875      -58.5090737876  TIP3      15276           0.0000000000
     97343     16636  TIP3      H2             10.2584514986       25.2380982346      -60.0042351546  TIP3      15276           0.0000000000
     97344     16637  TIP3      OH2             0.8056181572       25.5066657638      -47.5389606269  TIP3      15277           0.0000000000
     97345     16637  TIP3      H1              0.8728375955       26.1284113047      -46.8140923977  TIP3      15277           0.0000000000
     97346     16637  TIP3      H2             -0.1176170201       25.5827837705      -47.8095878353  TIP3      15277           0.0000000000
     97347     16638  TIP3      OH2             7.5798054373       31.4135248635      -55.8521658929  TIP3      15278           0.0000000000
     97348     16638  TIP3      H1              8.0141063913       31.7215332640      -55.0486744359  TIP3      15278           0.0000000000
     97349     16638  TIP3      H2              7.0156075817       32.1578974612      -56.0905210399  TIP3      15278           0.0000000000
     97350     16639  TIP3      OH2             2.0790685738       31.3450256262      -45.9701341658  TIP3      15279           0.0000000000
     97351     16639  TIP3      H1              2.0902121051       31.2809656291      -46.9419215773  TIP3      15279           0.0000000000
     97352     16639  TIP3      H2              1.1391513545       31.2668405921      -45.7490849764  TIP3      15279           0.0000000000
     97353     16640  TIP3      OH2            13.5758728397       16.4054105760      -59.4167972846  TIP3      15280           0.0000000000
     97354     16640  TIP3      H1             12.6161796862       16.5091969997      -59.1937737883  TIP3      15280           0.0000000000
     97355     16640  TIP3      H2             13.7956605709       17.2584790163      -59.8328507250  TIP3      15280           0.0000000000
     97356     16641  TIP3      OH2             1.5729872655       25.1697264245      -57.4679302851  TIP3      15281           0.0000000000
     97357     16641  TIP3      H1              1.2947903929       25.9524078991      -57.9878474970  TIP3      15281           0.0000000000
     97358     16641  TIP3      H2              0.9109332573       24.5108943731      -57.6906086410  TIP3      15281           0.0000000000
     97359     16642  TIP3      OH2            14.6938335543       30.7666150900      -61.0301695489  TIP3      15282           0.0000000000
     97360     16642  TIP3      H1             14.8276068982       31.7282533892      -60.9290322598  TIP3      15282           0.0000000000
     97361     16642  TIP3      H2             15.6172798042       30.4771631140      -61.1294803970  TIP3      15282           0.0000000000
     97362     16643  TIP3      OH2            -2.2890083026       27.5943121771      -48.6251406188  TIP3      15283           0.0000000000
     97363     16643  TIP3      H1             -2.7807850461       27.5228670931      -49.4660571473  TIP3      15283           0.0000000000
     97364     16643  TIP3      H2             -2.2711282772       26.6546001700      -48.3611699803  TIP3      15283           0.0000000000
     97365     16644  TIP3      OH2            -2.5749100378       30.3410758207      -51.7816697149  TIP3      15284           0.0000000000
     97366     16644  TIP3      H1             -1.6166293445       30.2228350781      -51.7999432239  TIP3      15284           0.0000000000
     97367     16644  TIP3      H2             -2.6565493296       31.1507024827      -51.2639123805  TIP3      15284           0.0000000000
     97368     16645  TIP3      OH2            15.7367963137       31.0138806025      -46.6424883947  TIP3      15285           0.0000000000
     97369     16645  TIP3      H1             15.6763951893       30.1185563101      -46.2812952929  TIP3      15285           0.0000000000
     97370     16645  TIP3      H2             15.0629841749       31.3940179747      -46.0466553336  TIP3      15285           0.0000000000
     97371     16646  TIP3      OH2             6.6204595679       30.5709468349      -47.2389690389  TIP3      15286           0.0000000000
     97372     16646  TIP3      H1              6.6889667398       31.4161442450      -46.7323187124  TIP3      15286           0.0000000000
     97373     16646  TIP3      H2              5.7408064608       30.2309446730      -46.9986321348  TIP3      15286           0.0000000000
     97374     16647  TIP3      OH2             7.0387987982       34.3228177260      -57.4556141559  TIP3      15287           0.0000000000
     97375     16647  TIP3      H1              6.9666034884       34.2561252212      -58.4198831301  TIP3      15287           0.0000000000
     97376     16647  TIP3      H2              7.0829150260       35.2853850511      -57.2786058962  TIP3      15287           0.0000000000
     97377     16648  TIP3      OH2             0.7021103589       33.1984171798      -55.6103689239  TIP3      15288           0.0000000000
     97378     16648  TIP3      H1              0.8462229314       32.7883153155      -54.7295628159  TIP3      15288           0.0000000000
     97379     16648  TIP3      H2             -0.1484669173       32.7950608440      -55.8529730396  TIP3      15288           0.0000000000
     97380     16649  TIP3      OH2            10.0770888978       33.5298801741      -60.4702803551  TIP3      15289           0.0000000000
     97381     16649  TIP3      H1             10.5576635670       32.7731376326      -60.8865738167  TIP3      15289           0.0000000000
     97382     16649  TIP3      H2             10.1621474333       33.2845219964      -59.5288675305  TIP3      15289           0.0000000000
     97383     16650  TIP3      OH2             9.8036736087       33.4756576005      -57.6757990272  TIP3      15290           0.0000000000
     97384     16650  TIP3      H1              8.8481299328       33.5376364669      -57.4843383058  TIP3      15290           0.0000000000
     97385     16650  TIP3      H2             10.0578730600       32.7332305820      -57.1059335275  TIP3      15290           0.0000000000
     97386     16651  TIP3      OH2            -0.0450717537       28.8741887125      -47.5949029052  TIP3      15291           0.0000000000
     97387     16651  TIP3      H1              0.1120261552       28.5426977240      -46.7114525703  TIP3      15291           0.0000000000
     97388     16651  TIP3      H2             -0.9284645162       28.5313247522      -47.8601163066  TIP3      15291           0.0000000000
     97389     16652  TIP3      OH2             2.6268111508       17.3940447597      -51.6935875528  TIP3      15292           0.0000000000
     97390     16652  TIP3      H1              1.7173179558       17.2687210794      -52.0401943750  TIP3      15292           0.0000000000
     97391     16652  TIP3      H2              2.5050756939       18.2178627729      -51.1938503604  TIP3      15292           0.0000000000
     97392     16653  TIP3      OH2             7.2581916057       17.0867117735      -48.2871917845  TIP3      15293           0.0000000000
     97393     16653  TIP3      H1              7.6507010097       16.6544116932      -47.5101463646  TIP3      15293           0.0000000000
     97394     16653  TIP3      H2              6.2868297709       16.9244176373      -48.1541408717  TIP3      15293           0.0000000000
     97395     16654  TIP3      OH2            10.4136424346       20.8852032143      -47.4808092898  TIP3      15294           0.0000000000
     97396     16654  TIP3      H1             10.0910351939       20.7180877827      -46.5767918182  TIP3      15294           0.0000000000
     97397     16654  TIP3      H2             10.4279074508       21.8508164768      -47.6047658028  TIP3      15294           0.0000000000
     97398     16655  TIP3      OH2             6.8768834638       19.6525562324      -60.9705447513  TIP3      15295           0.0000000000
     97399     16655  TIP3      H1              6.6127536455       19.5725735338      -60.0352845825  TIP3      15295           0.0000000000
     97400     16655  TIP3      H2              6.6483300128       18.7611903077      -61.2509350688  TIP3      15295           0.0000000000
     97401     16656  TIP3      OH2             2.7087430367       22.3544476981      -50.4327008750  TIP3      15296           0.0000000000
     97402     16656  TIP3      H1              1.9882354141       22.3448289540      -49.7726747388  TIP3      15296           0.0000000000
     97403     16656  TIP3      H2              2.6721252422       23.2737428222      -50.7812171405  TIP3      15296           0.0000000000
     97404     16657  TIP3      OH2             2.6876926078       22.4871788182      -55.5523958855  TIP3      15297           0.0000000000
     97405     16657  TIP3      H1              1.7534819444       22.2276186836      -55.6887867375  TIP3      15297           0.0000000000
     97406     16657  TIP3      H2              3.0685922663       22.1903763639      -56.4005427715  TIP3      15297           0.0000000000
     97407     16658  TIP3      OH2             8.2072931093       22.9733260198      -56.7924281079  TIP3      15298           0.0000000000
     97408     16658  TIP3      H1              7.8041971299       23.8060935914      -57.1261489188  TIP3      15298           0.0000000000
     97409     16658  TIP3      H2              8.8938770658       22.8112388922      -57.4605509438  TIP3      15298           0.0000000000
     97410     16659  TIP3      OH2             9.2457058675       22.4693637756      -53.9362992663  TIP3      15299           0.0000000000
     97411     16659  TIP3      H1              8.9666782736       23.0328903132      -54.6790413439  TIP3      15299           0.0000000000
     97412     16659  TIP3      H2              9.3431586216       21.6210142408      -54.4090563804  TIP3      15299           0.0000000000
     97413     16660  TIP3      OH2             0.3326352158       22.6458073960      -48.7182412777  TIP3      15300           0.0000000000
     97414     16660  TIP3      H1              0.4469165798       23.0029848031      -47.8175058316  TIP3      15300           0.0000000000
     97415     16660  TIP3      H2             -0.0563776734       21.7761085630      -48.5346995067  TIP3      15300           0.0000000000
     97416     16661  TIP3      OH2            -2.9893171501       19.7284980700      -54.7543136098  TIP3      15301           0.0000000000
     97417     16661  TIP3      H1             -2.3090817335       19.6899460212      -54.0520731956  TIP3      15301           0.0000000000
     97418     16661  TIP3      H2             -2.5387492782       19.3484861775      -55.5317212104  TIP3      15301           0.0000000000
     97419     16662  TIP3      OH2            -1.7144176677       20.4748428918      -59.3623547854  TIP3      15302           0.0000000000
     97420     16662  TIP3      H1             -1.2492620113       21.0414093036      -59.9948442938  TIP3      15302           0.0000000000
     97421     16662  TIP3      H2             -2.4112420141       21.0908546749      -59.0639457272  TIP3      15302           0.0000000000
     97422     16663  TIP3      OH2             8.4799975014       24.0525453578      -49.3301658085  TIP3      15303           0.0000000000
     97423     16663  TIP3      H1              8.8226849992       23.3887281933      -49.9643417237  TIP3      15303           0.0000000000
     97424     16663  TIP3      H2              7.9693607388       23.5037625399      -48.7072305045  TIP3      15303           0.0000000000
     97425     16664  TIP3      OH2             5.2475945796       20.0340930166      -54.5458079707  TIP3      15304           0.0000000000
     97426     16664  TIP3      H1              4.3130733038       20.0380781869      -54.2546702405  TIP3      15304           0.0000000000
     97427     16664  TIP3      H2              5.7305351634       19.8723768424      -53.7214630160  TIP3      15304           0.0000000000
     97428     16665  TIP3      OH2             0.0582819724       21.5888186791      -55.6962925541  TIP3      15305           0.0000000000
     97429     16665  TIP3      H1             -0.8335039607       21.7368502629      -56.0728509853  TIP3      15305           0.0000000000
     97430     16665  TIP3      H2              0.3446145658       20.7461034062      -56.0877637129  TIP3      15305           0.0000000000
     97431     16666  TIP3      OH2             3.6884377226       21.6533452323      -58.0545927086  TIP3      15306           0.0000000000
     97432     16666  TIP3      H1              4.6450134443       21.7508539019      -57.8780832120  TIP3      15306           0.0000000000
     97433     16666  TIP3      H2              3.4603301090       22.3144401335      -58.7319404364  TIP3      15306           0.0000000000
     97434     16667  TIP3      OH2             9.6551094065       19.2653778653      -51.2930338336  TIP3      15307           0.0000000000
     97435     16667  TIP3      H1              8.9615682995       19.3287717669      -50.6018927484  TIP3      15307           0.0000000000
     97436     16667  TIP3      H2              9.1494363025       19.0222497260      -52.0834312848  TIP3      15307           0.0000000000
     97437     16668  TIP3      OH2             2.4002723972       22.7780913098      -60.4520321279  TIP3      15308           0.0000000000
     97438     16668  TIP3      H1              1.8581072904       22.4562996653      -61.1878784001  TIP3      15308           0.0000000000
     97439     16668  TIP3      H2              3.2144901659       23.0391488179      -60.9140508803  TIP3      15308           0.0000000000
     97440     16669  TIP3      OH2             6.5284386361       22.7901244155      -52.6536063974  TIP3      15309           0.0000000000
     97441     16669  TIP3      H1              7.1256551530       22.2538416695      -53.1880768841  TIP3      15309           0.0000000000
     97442     16669  TIP3      H2              6.3846866516       22.2420649349      -51.8704535639  TIP3      15309           0.0000000000
     97443     16670  TIP3      OH2             1.5424505878       18.9318401297      -56.2013724849  TIP3      15310           0.0000000000
     97444     16670  TIP3      H1              1.2310170768       18.0106317820      -56.2381546665  TIP3      15310           0.0000000000
     97445     16670  TIP3      H2              2.3221350555       18.8762120324      -56.7701920161  TIP3      15310           0.0000000000
     97446     16671  TIP3      OH2             5.1752884993       21.1145819551      -50.2526200574  TIP3      15311           0.0000000000
     97447     16671  TIP3      H1              4.3451029347       21.6257764992      -50.1684919994  TIP3      15311           0.0000000000
     97448     16671  TIP3      H2              5.7223921718       21.4610629842      -49.5193145766  TIP3      15311           0.0000000000
     97449     16672  TIP3      OH2             5.7627966287       27.3137120160      -58.5082242097  TIP3      15312           0.0000000000
     97450     16672  TIP3      H1              4.9607804520       26.8722900448      -58.8645780001  TIP3      15312           0.0000000000
     97451     16672  TIP3      H2              5.5297409444       27.4506748565      -57.5722049024  TIP3      15312           0.0000000000
     97452     16673  TIP3      OH2            12.9511641496       26.5092500213      -49.7327149351  TIP3      15313           0.0000000000
     97453     16673  TIP3      H1             13.5043091037       27.0191387361      -50.3528287237  TIP3      15313           0.0000000000
     97454     16673  TIP3      H2             12.0857462082       26.5839651801      -50.1910274406  TIP3      15313           0.0000000000
     97455     16674  TIP3      OH2             9.6094819915       20.1421941231      -60.3617235965  TIP3      15314           0.0000000000
     97456     16674  TIP3      H1              8.6684662515       20.3014845413      -60.5292128670  TIP3      15314           0.0000000000
     97457     16674  TIP3      H2              9.9170784627       21.0118807919      -60.0468274194  TIP3      15314           0.0000000000
     97458     16675  TIP3      OH2             7.2539301788       27.6240570083      -47.3513852787  TIP3      15315           0.0000000000
     97459     16675  TIP3      H1              6.9044261822       27.1843029344      -46.5697891185  TIP3      15315           0.0000000000
     97460     16675  TIP3      H2              7.0039549009       28.5458516097      -47.2227983535  TIP3      15315           0.0000000000
     97461     16676  TIP3      OH2            10.3331070582       22.0743896147      -58.6935922896  TIP3      15316           0.0000000000
     97462     16676  TIP3      H1             11.2322973290       21.9364036112      -58.3355533720  TIP3      15316           0.0000000000
     97463     16676  TIP3      H2             10.4078997182       22.8810329598      -59.2216663096  TIP3      15316           0.0000000000
     97464     16677  TIP3      OH2             0.8640482022       26.7324818909      -52.7441296956  TIP3      15317           0.0000000000
     97465     16677  TIP3      H1              1.5543554692       26.6541174253      -53.4303132670  TIP3      15317           0.0000000000
     97466     16677  TIP3      H2              0.9247246677       25.8740103418      -52.2881847908  TIP3      15317           0.0000000000
     97467     16678  TIP3      OH2             7.8632954804       28.8108613540      -59.4538922487  TIP3      15318           0.0000000000
     97468     16678  TIP3      H1              7.4810510421       29.6612232396      -59.1504566689  TIP3      15318           0.0000000000
     97469     16678  TIP3      H2              7.1157763579       28.1921100056      -59.3077913790  TIP3      15318           0.0000000000
     97470     16679  TIP3      OH2            -2.1562709744       25.1538481597      -47.4815752940  TIP3      15319           0.0000000000
     97471     16679  TIP3      H1             -1.9202979004       24.7082941545      -46.6521779040  TIP3      15319           0.0000000000
     97472     16679  TIP3      H2             -2.7505544463       24.5227543449      -47.9255151075  TIP3      15319           0.0000000000
     97473     16680  TIP3      OH2             9.5154813269       30.0344741900      -47.3552547917  TIP3      15320           0.0000000000
     97474     16680  TIP3      H1              8.5995013180       30.2369782370      -47.5983071857  TIP3      15320           0.0000000000
     97475     16680  TIP3      H2              9.5297889365       30.2635719459      -46.4218909672  TIP3      15320           0.0000000000
     97476     16681  TIP3      OH2            15.1863630485       22.2204250959      -58.9439945942  TIP3      15321           0.0000000000
     97477     16681  TIP3      H1             14.6947002054       21.8749078302      -59.7018285362  TIP3      15321           0.0000000000
     97478     16681  TIP3      H2             15.3147627386       23.1492735536      -59.2404079346  TIP3      15321           0.0000000000
     97479     16682  TIP3      OH2            15.1793357905       27.9528156559      -46.1967527983  TIP3      15322           0.0000000000
     97480     16682  TIP3      H1             14.3226824762       28.3206846488      -46.5387095260  TIP3      15322           0.0000000000
     97481     16682  TIP3      H2             15.7357116598       28.0373345316      -46.9877355069  TIP3      15322           0.0000000000
     97482     16683  TIP3      OH2            13.5247407406       31.0450373497      -58.5662698886  TIP3      15323           0.0000000000
     97483     16683  TIP3      H1             13.1470394496       30.2252207587      -58.2245189900  TIP3      15323           0.0000000000
     97484     16683  TIP3      H2             13.8141541673       30.8403044934      -59.4778304066  TIP3      15323           0.0000000000
     97485     16684  TIP3      OH2            10.7209564951       25.8541917489      -51.4556194038  TIP3      15324           0.0000000000
     97486     16684  TIP3      H1              9.7774973894       25.6414142427      -51.5735582405  TIP3      15324           0.0000000000
     97487     16684  TIP3      H2             11.1528563674       25.0983918649      -51.8898998915  TIP3      15324           0.0000000000
     97488     16685  TIP3      OH2             3.2370219240       30.1889595455      -55.3578617633  TIP3      15325           0.0000000000
     97489     16685  TIP3      H1              3.7378471326       30.9928214248      -55.5646690535  TIP3      15325           0.0000000000
     97490     16685  TIP3      H2              2.3581188164       30.4219712535      -55.6877097129  TIP3      15325           0.0000000000
     97491     16686  TIP3      OH2            -1.0279300338       25.0630313361      -60.8274912109  TIP3      15326           0.0000000000
     97492     16686  TIP3      H1             -0.4032327767       25.6725965740      -60.4038034216  TIP3      15326           0.0000000000
     97493     16686  TIP3      H2             -1.8981985930       25.3222068153      -60.4937856192  TIP3      15326           0.0000000000
     97494     16687  TIP3      OH2             4.6557401157       27.8515137294      -55.8302941702  TIP3      15327           0.0000000000
     97495     16687  TIP3      H1              4.3453077748       28.7741838651      -55.7528206910  TIP3      15327           0.0000000000
     97496     16687  TIP3      H2              3.9306070064       27.3651456729      -55.3929306739  TIP3      15327           0.0000000000
     97497     16688  TIP3      OH2             5.1066724495       32.0427487518      -49.4533674469  TIP3      15328           0.0000000000
     97498     16688  TIP3      H1              5.5585067601       32.8580000955      -49.7104584381  TIP3      15328           0.0000000000
     97499     16688  TIP3      H2              5.7183627872       31.6990153140      -48.7801305518  TIP3      15328           0.0000000000
     97500     16689  TIP3      OH2             3.3336462907       32.8485670475      -56.3130030896  TIP3      15329           0.0000000000
     97501     16689  TIP3      H1              2.3674121822       32.9718627251      -56.1611555995  TIP3      15329           0.0000000000
     97502     16689  TIP3      H2              3.6890637377       33.6827695071      -55.9566782376  TIP3      15329           0.0000000000
     97503     16690  TIP3      OH2             8.6405406317       28.0392761163      -49.8367165233  TIP3      15330           0.0000000000
     97504     16690  TIP3      H1              8.3042891143       27.8552101336      -48.9366953007  TIP3      15330           0.0000000000
     97505     16690  TIP3      H2              9.2878594693       27.3295321983      -49.9625556652  TIP3      15330           0.0000000000
     97506     16691  TIP3      OH2            10.9131704254       29.0585134513      -60.6917755439  TIP3      15331           0.0000000000
     97507     16691  TIP3      H1             11.2262062047       28.6308362684      -59.8703283721  TIP3      15331           0.0000000000
     97508     16691  TIP3      H2              9.9555055721       28.9313969954      -60.6178285651  TIP3      15331           0.0000000000
     97509     16692  TIP3      OH2            11.3631343537       32.6214944529      -47.2819053222  TIP3      15332           0.0000000000
     97510     16692  TIP3      H1             10.7537544730       32.1078591676      -47.8293306333  TIP3      15332           0.0000000000
     97511     16692  TIP3      H2             11.6462666915       33.3090379644      -47.9219647513  TIP3      15332           0.0000000000
     97512     16693  TIP3      OH2            15.4340129864       33.4937410243      -60.4617088922  TIP3      15333           0.0000000000
     97513     16693  TIP3      H1             16.1320790915       34.1217969826      -60.7132137799  TIP3      15333           0.0000000000
     97514     16693  TIP3      H2             14.7165314703       34.0965412361      -60.1696848075  TIP3      15333           0.0000000000
     97515     16694  TIP3      OH2            -0.4807264605       19.8972102275      -47.9429353469  TIP3      15334           0.0000000000
     97516     16694  TIP3      H1             -1.3931783848       20.2240599183      -47.9780396329  TIP3      15334           0.0000000000
     97517     16694  TIP3      H2             -0.5765193746       19.0437728492      -47.4900168635  TIP3      15334           0.0000000000
     97518     16695  TIP3      OH2            11.7519886273       27.7177162552      -58.4916251356  TIP3      15335           0.0000000000
     97519     16695  TIP3      H1             11.5007229997       26.9472051631      -57.9408341894  TIP3      15335           0.0000000000
     97520     16695  TIP3      H2             12.6916772572       27.8058200682      -58.2697723928  TIP3      15335           0.0000000000
     97521     16696  TIP3      OH2            -0.8695498796       31.6641107098      -49.5060710815  TIP3      15336           0.0000000000
     97522     16696  TIP3      H1             -0.5881458088       30.7361002959      -49.4995269356  TIP3      15336           0.0000000000
     97523     16696  TIP3      H2             -0.6296668465       31.9625057762      -48.6169425386  TIP3      15336           0.0000000000
     97524     16697  TIP3      OH2             3.8459470705       29.7348604133      -59.7993774068  TIP3      15337           0.0000000000
     97525     16697  TIP3      H1              4.1365542333       29.1860032356      -59.0585970268  TIP3      15337           0.0000000000
     97526     16697  TIP3      H2              3.9621151671       30.6477387065      -59.4610287494  TIP3      15337           0.0000000000
     97527     16698  TIP3      OH2             0.3639497985       26.9772407699      -59.3243935782  TIP3      15338           0.0000000000
     97528     16698  TIP3      H1             -0.2945678213       27.3840460978      -58.7232758569  TIP3      15338           0.0000000000
     97529     16698  TIP3      H2              0.9342979886       27.7304692542      -59.5450549973  TIP3      15338           0.0000000000
     97530     16699  TIP3      OH2             8.2117822593       19.6401839365      -48.9966135333  TIP3      15339           0.0000000000
     97531     16699  TIP3      H1              8.9529566663       19.6793553117      -48.3763625321  TIP3      15339           0.0000000000
     97532     16699  TIP3      H2              7.8436752515       18.7534377697      -48.8305265940  TIP3      15339           0.0000000000
     97533     16700  TIP3      OH2             8.9700355060       19.2319884437      -57.8668739119  TIP3      15340           0.0000000000
     97534     16700  TIP3      H1              9.2163658228       19.6821879374      -58.6999061778  TIP3      15340           0.0000000000
     97535     16700  TIP3      H2              9.5624442743       19.6671810825      -57.2407941390  TIP3      15340           0.0000000000
     97536     16701  TIP3      OH2             6.6742483033       31.3925997218      -59.0574028663  TIP3      15341           0.0000000000
     97537     16701  TIP3      H1              5.8476630415       31.9012873232      -59.0127621890  TIP3      15341           0.0000000000
     97538     16701  TIP3      H2              7.2055692931       31.8882778174      -59.6887524022  TIP3      15341           0.0000000000
     97539     16702  TIP3      OH2             6.2025369710       20.9700241303      -57.0725998912  TIP3      15342           0.0000000000
     97540     16702  TIP3      H1              6.9928304621       21.5457327281      -57.0352096625  TIP3      15342           0.0000000000
     97541     16702  TIP3      H2              5.9427057307       20.8397412905      -56.1420732218  TIP3      15342           0.0000000000
     97542     16703  TIP3      OH2             6.8506234209       22.0489804253      -47.9508849963  TIP3      15343           0.0000000000
     97543     16703  TIP3      H1              6.8187639567       22.5401732763      -47.1246997205  TIP3      15343           0.0000000000
     97544     16703  TIP3      H2              7.3718615926       21.2495566502      -47.7922746485  TIP3      15343           0.0000000000
     97545     16704  TIP3      OH2             7.0653442238       18.0275210376      -56.1826447217  TIP3      15344           0.0000000000
     97546     16704  TIP3      H1              6.7415265444       18.6762089898      -55.5316576360  TIP3      15344           0.0000000000
     97547     16704  TIP3      H2              7.7563645441       18.5755167007      -56.6311728311  TIP3      15344           0.0000000000
     97548     16705  TIP3      OH2             4.0226389444       32.4163869511      -59.0528857139  TIP3      15345           0.0000000000
     97549     16705  TIP3      H1              4.2097066591       33.2409676039      -59.5492069408  TIP3      15345           0.0000000000
     97550     16705  TIP3      H2              3.7980987798       32.7589027706      -58.1592437306  TIP3      15345           0.0000000000
     97551     16706  TIP3      OH2             2.7337145752       19.1230055803      -59.4325199450  TIP3      15346           0.0000000000
     97552     16706  TIP3      H1              2.6657816043       20.0391466663      -59.1073795766  TIP3      15346           0.0000000000
     97553     16706  TIP3      H2              3.6457486115       18.8908245449      -59.1847399030  TIP3      15346           0.0000000000
     97554     16707  TIP3      OH2            12.9369219890       19.9235679453      -46.9956327854  TIP3      15347           0.0000000000
     97555     16707  TIP3      H1             12.0042741333       20.1613953312      -47.1550256200  TIP3      15347           0.0000000000
     97556     16707  TIP3      H2             13.2389146924       19.8231800024      -47.9082771345  TIP3      15347           0.0000000000
     97557     16708  TIP3      OH2            11.5567237103       23.6517044040      -53.0186031714  TIP3      15348           0.0000000000
     97558     16708  TIP3      H1             10.7343155364       23.2058178589      -53.2971118625  TIP3      15348           0.0000000000
     97559     16708  TIP3      H2             12.0342602832       22.9627658292      -52.5019908410  TIP3      15348           0.0000000000
     97560     16709  TIP3      OH2             0.9747691656       29.5794084344      -60.4197493730  TIP3      15349           0.0000000000
     97561     16709  TIP3      H1              1.6268084188       30.2141292859      -60.0995707937  TIP3      15349           0.0000000000
     97562     16709  TIP3      H2              1.4782986143       29.1325930785      -61.1101409830  TIP3      15349           0.0000000000
     97563     16710  TIP3      OH2            12.6200192941       32.9019809102      -51.3691896257  TIP3      15350           0.0000000000
     97564     16710  TIP3      H1             12.5280483901       33.5977365798      -52.0455193932  TIP3      15350           0.0000000000
     97565     16710  TIP3      H2             13.5796338736       32.9685482328      -51.1655574279  TIP3      15350           0.0000000000
     97566     16711  TIP3      OH2             0.1133056254       17.0311249215      -52.5454358662  TIP3      15351           0.0000000000
     97567     16711  TIP3      H1             -0.0832092504       17.0514846696      -53.5091513834  TIP3      15351           0.0000000000
     97568     16711  TIP3      H2             -0.3043891450       16.1817857543      -52.2920084381  TIP3      15351           0.0000000000
     97569     16712  TIP3      OH2            -0.9337916581       30.9545311354      -56.3982953275  TIP3      15352           0.0000000000
     97570     16712  TIP3      H1             -1.7887187436       31.4061390853      -56.4402764820  TIP3      15352           0.0000000000
     97571     16712  TIP3      H2             -0.4548120667       31.4209528616      -57.0976304828  TIP3      15352           0.0000000000
     97572     16713  TIP3      OH2            11.6555915909       31.8295431712      -61.8959628374  TIP3      15353           0.0000000000
     97573     16713  TIP3      H1             11.9045437536       30.9994039980      -61.4446583240  TIP3      15353           0.0000000000
     97574     16713  TIP3      H2             12.4190655354       32.0109127655      -62.4549785721  TIP3      15353           0.0000000000
     97575     16714  TIP3      OH2            10.6094706592       27.2427091886      -47.5076541228  TIP3      15354           0.0000000000
     97576     16714  TIP3      H1             11.3946555139       27.8216808895      -47.4365608179  TIP3      15354           0.0000000000
     97577     16714  TIP3      H2              9.9112157906       27.8691288883      -47.2704760230  TIP3      15354           0.0000000000
     97578     16715  TIP3      OH2             3.7599403902       25.7557858124      -59.6651640753  TIP3      15355           0.0000000000
     97579     16715  TIP3      H1              3.2429631627       25.2217191168      -59.0451467915  TIP3      15355           0.0000000000
     97580     16715  TIP3      H2              4.0469307624       25.0793558503      -60.3218190510  TIP3      15355           0.0000000000
     97581     16716  TIP3      OH2             2.9846942535       23.5364394129      -47.4194869657  TIP3      15356           0.0000000000
     97582     16716  TIP3      H1              2.4181019198       24.2651212688      -47.1180436353  TIP3      15356           0.0000000000
     97583     16716  TIP3      H2              3.3998951937       23.9212822871      -48.2080925218  TIP3      15356           0.0000000000
     97584     16717  TIP3      OH2             4.8108552341       23.9408389989      -61.4691267520  TIP3      15357           0.0000000000
     97585     16717  TIP3      H1              4.7031233189       23.8062870718      -62.4223027667  TIP3      15357           0.0000000000
     97586     16717  TIP3      H2              5.7852698475       24.0560386741      -61.3727430993  TIP3      15357           0.0000000000
     97587     16718  TIP3      OH2             3.3338369696       20.9349925328      -46.3274198789  TIP3      15358           0.0000000000
     97588     16718  TIP3      H1              3.4986821502       20.2235240462      -46.9680037974  TIP3      15358           0.0000000000
     97589     16718  TIP3      H2              3.3552594111       21.7528436215      -46.8620156154  TIP3      15358           0.0000000000
     97590     16719  TIP3      OH2             3.7999319252       19.2845080891      -48.7669325914  TIP3      15359           0.0000000000
     97591     16719  TIP3      H1              4.3175161685       19.7760702466      -49.4464470506  TIP3      15359           0.0000000000
     97592     16719  TIP3      H2              2.9217744403       19.2075912251      -49.2017498768  TIP3      15359           0.0000000000
     97593     16720  TIP3      OH2             5.3683534693       24.7699105346      -48.5370338124  TIP3      15360           0.0000000000
     97594     16720  TIP3      H1              6.1252505277       24.6313594694      -49.1173989916  TIP3      15360           0.0000000000
     97595     16720  TIP3      H2              4.9878426872       25.6107653940      -48.8422183804  TIP3      15360           0.0000000000
     97596     16721  TIP3      OH2             4.6216255877       16.7723072312      -48.3834508158  TIP3      15361           0.0000000000
     97597     16721  TIP3      H1              4.4096171291       17.7258154319      -48.4663826816  TIP3      15361           0.0000000000
     97598     16721  TIP3      H2              3.8569462053       16.3859869510      -48.8405735032  TIP3      15361           0.0000000000
     97599     16722  TIP3      OH2             4.6508250376       34.6621370651      -60.4596353204  TIP3      15362           0.0000000000
     97600     16722  TIP3      H1              5.6171946992       34.7634730813      -60.3277091327  TIP3      15362           0.0000000000
     97601     16722  TIP3      H2              4.4585524315       35.3343151998      -61.1149429915  TIP3      15362           0.0000000000
     97602     16723  TIP3      OH2            -1.7688260582       29.2501877939      -60.9226881527  TIP3      15363           0.0000000000
     97603     16723  TIP3      H1             -0.8099585411       29.3392423976      -60.7127375520  TIP3      15363           0.0000000000
     97604     16723  TIP3      H2             -1.7582918185       28.6452759755      -61.6714707593  TIP3      15363           0.0000000000
     97605     16724  TIP3      OH2            -3.0081921654       34.6234535547      -55.9601341939  TIP3      15364           0.0000000000
     97606     16724  TIP3      H1             -3.7313390279       34.1417585512      -56.4235562663  TIP3      15364           0.0000000000
     97607     16724  TIP3      H2             -2.7363843550       33.9673042077      -55.2929853640  TIP3      15364           0.0000000000
     97608     16725  TIP3      OH2            -2.1974885884       32.7555663166      -54.0834395880  TIP3      15365           0.0000000000
     97609     16725  TIP3      H1             -2.5511257286       31.8786311748      -53.8790075039  TIP3      15365           0.0000000000
     97610     16725  TIP3      H2             -1.9732118034       33.0874062590      -53.1982839712  TIP3      15365           0.0000000000
     97611     16726  TIP3      OH2            15.3382365496       33.5485189910      -51.1445038278  TIP3      15366           0.0000000000
     97612     16726  TIP3      H1             15.3658324274       33.7132249199      -50.1863205360  TIP3      15366           0.0000000000
     97613     16726  TIP3      H2             16.0486875462       34.1251291239      -51.4406657104  TIP3      15366           0.0000000000
     97614     16727  TIP3      OH2            14.9486929747       33.1430142742      -48.2634535182  TIP3      15367           0.0000000000
     97615     16727  TIP3      H1             14.4563229705       32.3674753458      -48.5851462400  TIP3      15367           0.0000000000
     97616     16727  TIP3      H2             15.4490346549       32.7051227650      -47.5445011979  TIP3      15367           0.0000000000
     97617     16728  TIP3      OH2            14.6918010277       27.1773940425      -58.1120977446  TIP3      15368           0.0000000000
     97618     16728  TIP3      H1             15.5345009831       27.6045078604      -57.8899142540  TIP3      15368           0.0000000000
     97619     16728  TIP3      H2             14.6654527517       26.4851524140      -57.4152438949  TIP3      15368           0.0000000000
     97620     16729  TIP3      OH2            15.0366541323       25.2702682599      -56.2343347655  TIP3      15369           0.0000000000
     97621     16729  TIP3      H1             14.2876775755       24.7738758685      -55.8324956775  TIP3      15369           0.0000000000
     97622     16729  TIP3      H2             15.6323614214       25.4116105918      -55.4707951408  TIP3      15369           0.0000000000
     97623     16730  TIP3      OH2            14.7791869852       27.9557175382      -51.2685188766  TIP3      15370           0.0000000000
     97624     16730  TIP3      H1             15.6131316962       27.5890790835      -51.6146662203  TIP3      15370           0.0000000000
     97625     16730  TIP3      H2             14.9330755015       28.9131600460      -51.4137202479  TIP3      15370           0.0000000000
     97626     16731  TIP3      OH2            13.3219065750       30.8718663445      -48.9634806450  TIP3      15371           0.0000000000
     97627     16731  TIP3      H1             12.6451734160       31.2231797606      -48.3657777571  TIP3      15371           0.0000000000
     97628     16731  TIP3      H2             12.7855638391       30.4644713919      -49.6750242935  TIP3      15371           0.0000000000
     97629     16732  TIP3      OH2            15.3081748970       25.0944696808      -59.8417781978  TIP3      15372           0.0000000000
     97630     16732  TIP3      H1             14.7454171280       25.4447588797      -60.5359465927  TIP3      15372           0.0000000000
     97631     16732  TIP3      H2             15.2644342464       25.8061843032      -59.1696382891  TIP3      15372           0.0000000000
     97632     16733  TIP3      OH2            12.8530869726       23.7453950221      -55.6646129120  TIP3      15373           0.0000000000
     97633     16733  TIP3      H1             12.7064966783       22.7898461054      -55.6762066178  TIP3      15373           0.0000000000
     97634     16733  TIP3      H2             12.5259015937       23.9721278654      -54.7751248792  TIP3      15373           0.0000000000
     97635     16734  TIP3      OH2            -2.1367208139       25.8304998111      -51.5985902334  TIP3      15374           0.0000000000
     97636     16734  TIP3      H1             -1.9555871516       25.7528384487      -52.5581620073  TIP3      15374           0.0000000000
     97637     16734  TIP3      H2             -1.2438958950       25.6610996350      -51.2334979993  TIP3      15374           0.0000000000
     97638     16735  TIP3      OH2            13.7637800471       25.6880589939      -45.9729582754  TIP3      15375           0.0000000000
     97639     16735  TIP3      H1             14.3471203548       24.9655716617      -45.7787774602  TIP3      15375           0.0000000000
     97640     16735  TIP3      H2             14.3149165850       26.4961050136      -46.0155361582  TIP3      15375           0.0000000000
     97641     16736  TIP3      OH2            12.9563350401       19.7405216558      -62.2118654845  TIP3      15376           0.0000000000
     97642     16736  TIP3      H1             13.5411865983       19.3526916655      -61.5357853810  TIP3      15376           0.0000000000
     97643     16736  TIP3      H2             12.0755954378       19.4067249019      -61.9914479665  TIP3      15376           0.0000000000
     97644     16737  TIP3      OH2            12.5269134405       21.3324585476      -57.1853971379  TIP3      15377           0.0000000000
     97645     16737  TIP3      H1             12.8280050509       20.4021175080      -57.0617635568  TIP3      15377           0.0000000000
     97646     16737  TIP3      H2             13.3196424282       21.7292753424      -57.5706658300  TIP3      15377           0.0000000000
     97647     16738  TIP3      OH2            13.1611482626       21.8796439467      -51.7674920750  TIP3      15378           0.0000000000
     97648     16738  TIP3      H1             14.1215612369       22.1087451035      -51.7675000596  TIP3      15378           0.0000000000
     97649     16738  TIP3      H2             12.9715939282       22.0114902008      -50.8232110951  TIP3      15378           0.0000000000
     97650     16739  TIP3      OH2            13.2288852759       22.6176914257      -48.9652843648  TIP3      15379           0.0000000000
     97651     16739  TIP3      H1             12.3502857577       22.9003832355      -48.6228232835  TIP3      15379           0.0000000000
     97652     16739  TIP3      H2             13.6534941003       23.4754156527      -49.1927593462  TIP3      15379           0.0000000000
     97653     16740  TIP3      OH2            13.1984020457       18.6188396832      -57.1459201379  TIP3      15380           0.0000000000
     97654     16740  TIP3      H1             13.4038272610       18.1793336580      -56.2926520091  TIP3      15380           0.0000000000
     97655     16740  TIP3      H2             12.5892621237       17.9802697629      -57.5838955799  TIP3      15380           0.0000000000
     97656     16741  TIP3      OH2            -1.3274924337       19.4227991266      -52.5832995918  TIP3      15381           0.0000000000
     97657     16741  TIP3      H1             -0.8614336475       18.5992326548      -52.3269291267  TIP3      15381           0.0000000000
     97658     16741  TIP3      H2             -0.7772920683       20.1160271576      -52.1932862219  TIP3      15381           0.0000000000
     97659     16742  TIP3      OH2            -3.0385934914       22.4163887453      -51.5537990575  TIP3      15382           0.0000000000
     97660     16742  TIP3      H1             -2.4735240049       22.1755973446      -52.3153151896  TIP3      15382           0.0000000000
     97661     16742  TIP3      H2             -2.5809345709       23.2258541437      -51.2814977634  TIP3      15382           0.0000000000
     97662     16743  TIP3      OH2            15.0134288551       18.6652753299      -60.5663636458  TIP3      15383           0.0000000000
     97663     16743  TIP3      H1             15.4369431995       17.9644654823      -61.0876088816  TIP3      15383           0.0000000000
     97664     16743  TIP3      H2             15.7236800435       19.3299755181      -60.5749743193  TIP3      15383           0.0000000000
     97665     16744  TIP3      OH2            -2.6740683541       18.6923212353      -57.4881196675  TIP3      15384           0.0000000000
     97666     16744  TIP3      H1             -3.6201606377       18.8636369405      -57.6061630971  TIP3      15384           0.0000000000
     97667     16744  TIP3      H2             -2.2619017496       19.1843022386      -58.2177023909  TIP3      15384           0.0000000000
     97668     16745  TIP3      OH2            12.0574772220       33.6225148117      -55.5158760474  TIP3      15385           0.0000000000
     97669     16745  TIP3      H1             12.7429383657       33.3215332459      -56.1406927899  TIP3      15385           0.0000000000
     97670     16745  TIP3      H2             12.5794647135       34.1328162978      -54.8774158510  TIP3      15385           0.0000000000
     97671     16746  TIP3      OH2            -2.7203208134       17.3678269529      -49.1986437252  TIP3      15386           0.0000000000
     97672     16746  TIP3      H1             -3.3809848590       17.1518107159      -48.5027611108  TIP3      15386           0.0000000000
     97673     16746  TIP3      H2             -3.2010247574       18.0336848271      -49.7264196832  TIP3      15386           0.0000000000
     97674     16747  TIP3      OH2             2.4036421788       31.5146450465      -48.7762842469  TIP3      15387           0.0000000000
     97675     16747  TIP3      H1              2.0613109779       32.3911641370      -49.0102239779  TIP3      15387           0.0000000000
     97676     16747  TIP3      H2              3.3436356904       31.6334827820      -49.0266806108  TIP3      15387           0.0000000000
     97677     16748  TIP3      OH2             6.7573911723       32.9014523985      -45.7914639041  TIP3      15388           0.0000000000
     97678     16748  TIP3      H1              6.9333913535       32.6424149115      -44.8781806696  TIP3      15388           0.0000000000
     97679     16748  TIP3      H2              7.6168904820       33.2640855645      -46.0701574004  TIP3      15388           0.0000000000
     97680     16749  TIP3      OH2             8.9895035394       34.2771041942      -46.5691934869  TIP3      15389           0.0000000000
     97681     16749  TIP3      H1              9.7070022761       33.6704871665      -46.7976286272  TIP3      15389           0.0000000000
     97682     16749  TIP3      H2              9.3915181895       34.6187600129      -45.7466532135  TIP3      15389           0.0000000000
     97683     16750  TIP3      OH2            14.0686089255       16.8724074162      -47.5092570799  TIP3      15390           0.0000000000
     97684     16750  TIP3      H1             13.1806888136       17.1186868743      -47.8115757176  TIP3      15390           0.0000000000
     97685     16750  TIP3      H2             14.2013845948       16.0030752751      -47.9391160533  TIP3      15390           0.0000000000
     97686     16751  TIP3      OH2            -0.1728340715       34.7638880980      -48.7350135022  TIP3      15391           0.0000000000
     97687     16751  TIP3      H1             -0.9000474408       35.2797586481      -49.1145201445  TIP3      15391           0.0000000000
     97688     16751  TIP3      H2             -0.5016672180       34.6182578775      -47.8353823780  TIP3      15391           0.0000000000
     97689     16752  TIP3      OH2             2.3003105567       34.3614877377      -49.6743246263  TIP3      15392           0.0000000000
     97690     16752  TIP3      H1              1.4219497066       34.5326508973      -49.2564293107  TIP3      15392           0.0000000000
     97691     16752  TIP3      H2              2.2423662601       34.9439361552      -50.4552955322  TIP3      15392           0.0000000000
     97692     16753  TIP3      OH2             7.0224750891       34.2711098654      -50.5009794736  TIP3      15393           0.0000000000
     97693     16753  TIP3      H1              6.5561145235       34.8211372336      -51.1484067449  TIP3      15393           0.0000000000
     97694     16753  TIP3      H2              7.1441588231       34.9130391128      -49.7690685127  TIP3      15393           0.0000000000
     97695     16754  TIP3      OH2             9.3167972671       33.0780734827      -49.5275409861  TIP3      15394           0.0000000000
     97696     16754  TIP3      H1              8.4443236929       33.3605608394      -49.8426011410  TIP3      15394           0.0000000000
     97697     16754  TIP3      H2              9.7704344263       33.9367110710      -49.5802055573  TIP3      15394           0.0000000000
     97698     16755  TIP3      OH2            11.8832369571       34.6765788376      -49.2390418230  TIP3      15395           0.0000000000
     97699     16755  TIP3      H1             11.8202050965       35.6320076606      -49.4748861672  TIP3      15395           0.0000000000
     97700     16755  TIP3      H2             12.1027060838       34.3001171733      -50.1134478288  TIP3      15395           0.0000000000
     97701     16756  TIP3      OH2            -0.7086636344       33.4312999848      -51.7953542684  TIP3      15396           0.0000000000
     97702     16756  TIP3      H1             -0.7754690844       32.9935571699      -50.9180537765  TIP3      15396           0.0000000000
     97703     16756  TIP3      H2              0.1049751739       33.0525299616      -52.1873266140  TIP3      15396           0.0000000000
     97704     16757  TIP3      OH2             1.3733167337       32.1430469000      -53.1480752128  TIP3      15397           0.0000000000
     97705     16757  TIP3      H1              1.2058714246       31.2090648311      -52.9189849658  TIP3      15397           0.0000000000
     97706     16757  TIP3      H2              2.2273390435       32.2941399822      -52.6904376113  TIP3      15397           0.0000000000
     97707     16758  TIP3      OH2             3.9767826321       32.6281659416      -52.2636597379  TIP3      15398           0.0000000000
     97708     16758  TIP3      H1              4.1333357619       31.7056410517      -52.5350899041  TIP3      15398           0.0000000000
     97709     16758  TIP3      H2              4.0095718797       32.5581332044      -51.2969420293  TIP3      15398           0.0000000000
     97710     16759  TIP3      OH2             7.4315559966       18.2770442986      -53.1310896325  TIP3      15399           0.0000000000
     97711     16759  TIP3      H1              6.7542642402       17.6356512960      -52.8563835760  TIP3      15399           0.0000000000
     97712     16759  TIP3      H2              7.9830358049       17.7462218633      -53.7182391405  TIP3      15399           0.0000000000
     97713     16760  TIP3      OH2            12.5652743081       16.3314195680      -53.0653782091  TIP3      15400           0.0000000000
     97714     16760  TIP3      H1             13.1796179429       16.9192400028      -53.5736581241  TIP3      15400           0.0000000000
     97715     16760  TIP3      H2             11.6825641435       16.6863937170      -53.2979660912  TIP3      15400           0.0000000000
     97716     16761  TIP3      OH2            14.2333516167       17.5669645194      -54.7800978059  TIP3      15401           0.0000000000
     97717     16761  TIP3      H1             14.9149676772       16.9912088916      -55.2054632196  TIP3      15401           0.0000000000
     97718     16761  TIP3      H2             14.7384451475       18.4070083235      -54.6837539805  TIP3      15401           0.0000000000
     97719     16762  TIP3      OH2            -0.2030449879       16.8995740136      -55.2753854481  TIP3      15402           0.0000000000
     97720     16762  TIP3      H1             -0.9952243716       16.7029877523      -55.8130809550  TIP3      15402           0.0000000000
     97721     16762  TIP3      H2              0.2651094803       16.0453383013      -55.3424700702  TIP3      15402           0.0000000000
     97722     16763  TIP3      OH2            -1.4585478870       16.6723385990      -59.5722233384  TIP3      15403           0.0000000000
     97723     16763  TIP3      H1             -0.9469298117       17.3074351098      -60.1091212557  TIP3      15403           0.0000000000
     97724     16763  TIP3      H2             -2.0042419407       17.2393927179      -59.0061639490  TIP3      15403           0.0000000000
     97725     16764  TIP3      OH2             4.2772302333       16.8266429547      -55.4990356071  TIP3      15404           0.0000000000
     97726     16764  TIP3      H1              5.1803091233       17.1779605395      -55.5742691317  TIP3      15404           0.0000000000
     97727     16764  TIP3      H2              4.2378945477       16.6154329935      -54.5659111238  TIP3      15404           0.0000000000
     97728     16765  TIP3      OH2             9.9796837955       16.8469986056      -53.8703318022  TIP3      15405           0.0000000000
     97729     16765  TIP3      H1              9.9387085299       16.9569077070      -54.8269709596  TIP3      15405           0.0000000000
     97730     16765  TIP3      H2              9.6074801265       15.9389784242      -53.7517444008  TIP3      15405           0.0000000000
     97731     16766  TIP3      OH2            11.2624636828       16.8946106976      -58.1878097527  TIP3      15406           0.0000000000
     97732     16766  TIP3      H1             10.5130834528       17.4777399517      -58.3707132408  TIP3      15406           0.0000000000
     97733     16766  TIP3      H2             10.8276294459       16.0251164926      -57.9984187029  TIP3      15406           0.0000000000
     97734     16767  TIP3      OH2            -1.5096236455       32.6230324869      -58.5483312025  TIP3      15407           0.0000000000
     97735     16767  TIP3      H1             -2.1861579389       32.6142511762      -59.2527477458  TIP3      15407           0.0000000000
     97736     16767  TIP3      H2             -1.4904639392       33.5748708022      -58.3866182678  TIP3      15407           0.0000000000
     97737     16768  TIP3      OH2             0.3930564147       18.5226769895      -61.0202486649  TIP3      15408           0.0000000000
     97738     16768  TIP3      H1              0.9446948647       17.9833113154      -61.5842309395  TIP3      15408           0.0000000000
     97739     16768  TIP3      H2              1.0725331246       18.9382765564      -60.4566083837  TIP3      15408           0.0000000000
     97740     16769  TIP3      OH2             5.4480840967       18.8505459625      -58.6481713729  TIP3      15409           0.0000000000
     97741     16769  TIP3      H1              5.6874801031       18.2698885296      -57.9060490235  TIP3      15409           0.0000000000
     97742     16769  TIP3      H2              5.4869785195       19.7111824370      -58.1709681900  TIP3      15409           0.0000000000
     97743     16770  TIP3      OH2             7.3217420346       33.9344526612      -60.2429956461  TIP3      15410           0.0000000000
     97744     16770  TIP3      H1              8.2676326081       34.1429871620      -60.3773984304  TIP3      15410           0.0000000000
     97745     16770  TIP3      H2              7.1638981490       33.3824695913      -61.0189608649  TIP3      15410           0.0000000000
     97746     16771  TIP3      OH2            14.0603484947       33.4234587810      -57.4863156803  TIP3      15411           0.0000000000
     97747     16771  TIP3      H1             13.8572700649       32.6449700980      -58.0622672435  TIP3      15411           0.0000000000
     97748     16771  TIP3      H2             13.9750338056       34.1560196423      -58.1259567908  TIP3      15411           0.0000000000
     97749     16772  TIP3      OH2            -0.5075522613       17.0732976411      -46.0586892309  TIP3      15412           0.0000000000
     97750     16772  TIP3      H1             -0.7892348566       16.4905961496      -45.3463131038  TIP3      15412           0.0000000000
     97751     16772  TIP3      H2              0.3750565747       17.2512169912      -45.7178887146  TIP3      15412           0.0000000000
     97752     16773  TIP3      OH2             0.3054902415       33.5791229211      -61.5902211437  TIP3      15413           0.0000000000
     97753     16773  TIP3      H1              0.0312366056       33.8767410512      -60.7144364049  TIP3      15413           0.0000000000
     97754     16773  TIP3      H2              1.0877020810       33.0535553349      -61.4291580487  TIP3      15413           0.0000000000
     97755     16774  TIP3      OH2            27.7451732233       26.0478471218      -55.4206277108  TIP3      15414           0.0000000000
     97756     16774  TIP3      H1             27.7358959901       27.0259709189      -55.4688345570  TIP3      15414           0.0000000000
     97757     16774  TIP3      H2             27.0214549201       25.8086390270      -56.0256572057  TIP3      15414           0.0000000000
     97758     16775  TIP3      OH2            26.6015266535       25.2970862313      -51.9249328166  TIP3      15415           0.0000000000
     97759     16775  TIP3      H1             26.5922267442       24.6443102467      -51.2123521431  TIP3      15415           0.0000000000
     97760     16775  TIP3      H2             26.2547330326       24.7951513716      -52.6816100858  TIP3      15415           0.0000000000
     97761     16776  TIP3      OH2            18.9525255446       24.9867243312      -50.3594241363  TIP3      15416           0.0000000000
     97762     16776  TIP3      H1             19.0504039670       24.2855353758      -49.6842018187  TIP3      15416           0.0000000000
     97763     16776  TIP3      H2             19.7109540909       25.5512065376      -50.1552378659  TIP3      15416           0.0000000000
     97764     16777  TIP3      OH2            30.2915567947       28.2483833257      -53.6479648331  TIP3      15417           0.0000000000
     97765     16777  TIP3      H1             29.8695885902       27.5376189159      -53.1607143162  TIP3      15417           0.0000000000
     97766     16777  TIP3      H2             30.3119194666       28.9561388816      -52.9770690518  TIP3      15417           0.0000000000
     97767     16778  TIP3      OH2            19.8809662972       29.4223984897      -51.8765794139  TIP3      15418           0.0000000000
     97768     16778  TIP3      H1             19.5659619381       28.5533353651      -52.1921787019  TIP3      15418           0.0000000000
     97769     16778  TIP3      H2             20.8352071154       29.2341940317      -51.8214827947  TIP3      15418           0.0000000000
     97770     16779  TIP3      OH2            16.5232226238       22.9763857207      -56.4067755725  TIP3      15419           0.0000000000
     97771     16779  TIP3      H1             16.0897462561       23.8513906077      -56.4376340088  TIP3      15419           0.0000000000
     97772     16779  TIP3      H2             15.9462866442       22.4445152575      -56.9672769137  TIP3      15419           0.0000000000
     97773     16780  TIP3      OH2            17.2287821495       25.2033820298      -54.2413424708  TIP3      15420           0.0000000000
     97774     16780  TIP3      H1             17.4996817265       24.3842372732      -53.7848405645  TIP3      15420           0.0000000000
     97775     16780  TIP3      H2             17.9297318178       25.3074756752      -54.9025715296  TIP3      15420           0.0000000000
     97776     16781  TIP3      OH2            27.4100779825       33.4060242979      -53.4098734248  TIP3      15421           0.0000000000
     97777     16781  TIP3      H1             28.0551811803       32.7108981789      -53.6917983711  TIP3      15421           0.0000000000
     97778     16781  TIP3      H2             27.1960084570       33.0751779957      -52.5344430465  TIP3      15421           0.0000000000
     97779     16782  TIP3      OH2            24.9789030467       27.6926661833      -51.4397953562  TIP3      15422           0.0000000000
     97780     16782  TIP3      H1             25.3117275947       27.0742882894      -52.1102644409  TIP3      15422           0.0000000000
     97781     16782  TIP3      H2             25.7891511793       27.8577622122      -50.9424694035  TIP3      15422           0.0000000000
     97782     16783  TIP3      OH2            33.5820085586       19.3579348047      -50.7159294607  TIP3      15423           0.0000000000
     97783     16783  TIP3      H1             33.7426087921       19.9386424968      -49.9461266611  TIP3      15423           0.0000000000
     97784     16783  TIP3      H2             34.1438588307       19.7843350297      -51.3781566656  TIP3      15423           0.0000000000
     97785     16784  TIP3      OH2            28.1193704784       22.1578022900      -51.1277223445  TIP3      15424           0.0000000000
     97786     16784  TIP3      H1             28.3121666937       21.2054843755      -51.1364108556  TIP3      15424           0.0000000000
     97787     16784  TIP3      H2             28.0377011380       22.3088904979      -52.0907454806  TIP3      15424           0.0000000000
     97788     16785  TIP3      OH2            21.2573253772       20.2566179806      -53.9153826154  TIP3      15425           0.0000000000
     97789     16785  TIP3      H1             21.3653249738       21.0915252275      -54.4032296497  TIP3      15425           0.0000000000
     97790     16785  TIP3      H2             20.8605753489       19.6775415474      -54.6002854929  TIP3      15425           0.0000000000
     97791     16786  TIP3      OH2            28.9944330839       20.3346289342      -55.5536716433  TIP3      15426           0.0000000000
     97792     16786  TIP3      H1             29.6497322790       20.0220707322      -54.8872459687  TIP3      15426           0.0000000000
     97793     16786  TIP3      H2             29.5562818832       20.9077424277      -56.0985367002  TIP3      15426           0.0000000000
     97794     16787  TIP3      OH2            17.8803223063       22.6696353678      -53.1938064534  TIP3      15427           0.0000000000
     97795     16787  TIP3      H1             18.5513852304       22.1193144011      -52.7393000454  TIP3      15427           0.0000000000
     97796     16787  TIP3      H2             17.9857864368       22.3519223636      -54.1037715667  TIP3      15427           0.0000000000
     97797     16788  TIP3      OH2            23.0414372203       24.2221474491      -53.8767070686  TIP3      15428           0.0000000000
     97798     16788  TIP3      H1             23.7094602739       23.6400350064      -53.4755578706  TIP3      15428           0.0000000000
     97799     16788  TIP3      H2             22.5246059848       23.5643577684      -54.3820814959  TIP3      15428           0.0000000000
     97800     16789  TIP3      OH2            34.0609255943       20.8343586418      -48.4703999155  TIP3      15429           0.0000000000
     97801     16789  TIP3      H1             33.3686324779       21.5183268273      -48.5807884353  TIP3      15429           0.0000000000
     97802     16789  TIP3      H2             34.0232896590       20.6496509943      -47.5217784610  TIP3      15429           0.0000000000
     97803     16790  TIP3      OH2            20.0992840692       19.1128370155      -49.9470541417  TIP3      15430           0.0000000000
     97804     16790  TIP3      H1             19.8678983354       19.7514718726      -50.6391656226  TIP3      15430           0.0000000000
     97805     16790  TIP3      H2             19.5031314860       19.3796848962      -49.2140889320  TIP3      15430           0.0000000000
     97806     16791  TIP3      OH2            27.4538220979       28.6425208163      -56.3277613039  TIP3      15431           0.0000000000
     97807     16791  TIP3      H1             27.1622971647       28.3570055399      -57.2057384220  TIP3      15431           0.0000000000
     97808     16791  TIP3      H2             27.1469347585       29.5744733233      -56.2922381690  TIP3      15431           0.0000000000
     97809     16792  TIP3      OH2            22.6605102320       26.7936154865      -49.6394288688  TIP3      15432           0.0000000000
     97810     16792  TIP3      H1             21.9651468618       27.4417493084      -49.4111467103  TIP3      15432           0.0000000000
     97811     16792  TIP3      H2             23.3680256883       27.3875735401      -49.9377167121  TIP3      15432           0.0000000000
     97812     16793  TIP3      OH2            30.8007792932       19.6788356352      -53.5660643634  TIP3      15433           0.0000000000
     97813     16793  TIP3      H1             30.5861122921       18.9114251083      -53.0284978496  TIP3      15433           0.0000000000
     97814     16793  TIP3      H2             31.4758970472       20.1188751012      -53.0233173314  TIP3      15433           0.0000000000
     97815     16794  TIP3      OH2            19.7140324165       21.0271184251      -51.8758212128  TIP3      15434           0.0000000000
     97816     16794  TIP3      H1             20.3577315677       21.6964964197      -51.5420633946  TIP3      15434           0.0000000000
     97817     16794  TIP3      H2             20.2458660595       20.5954218407      -52.5895153253  TIP3      15434           0.0000000000
     97818     16795  TIP3      OH2            21.1161374365       28.8103267885      -48.8071979401  TIP3      15435           0.0000000000
     97819     16795  TIP3      H1             21.0748009479       29.7249268429      -49.1527076295  TIP3      15435           0.0000000000
     97820     16795  TIP3      H2             20.2221579264       28.7390659357      -48.3982255283  TIP3      15435           0.0000000000
     97821     16796  TIP3      OH2            17.1861651564       28.4086976874      -58.0548799691  TIP3      15436           0.0000000000
     97822     16796  TIP3      H1             16.9630920158       28.7519481485      -58.9404552171  TIP3      15436           0.0000000000
     97823     16796  TIP3      H2             17.2653539817       29.2378602082      -57.5348857439  TIP3      15436           0.0000000000
     97824     16797  TIP3      OH2            30.8147870505       30.0784049338      -51.2787436509  TIP3      15437           0.0000000000
     97825     16797  TIP3      H1             29.8484934817       30.1979007811      -51.1606792982  TIP3      15437           0.0000000000
     97826     16797  TIP3      H2             31.0870973997       30.9977721816      -51.4648310933  TIP3      15437           0.0000000000
     97827     16798  TIP3      OH2            31.1334642133       18.4020736554      -49.8370283384  TIP3      15438           0.0000000000
     97828     16798  TIP3      H1             30.3944244336       19.0076215444      -49.9868176274  TIP3      15438           0.0000000000
     97829     16798  TIP3      H2             31.8413747529       18.7882766484      -50.3901495659  TIP3      15438           0.0000000000
     97830     16799  TIP3      OH2            24.1054224752       16.4907190194      -52.4381792743  TIP3      15439           0.0000000000
     97831     16799  TIP3      H1             23.9693671410       15.5257017237      -52.4815790028  TIP3      15439           0.0000000000
     97832     16799  TIP3      H2             23.2398232672       16.7956944948      -52.0944906432  TIP3      15439           0.0000000000
     97833     16800  TIP3      OH2            29.0754108572       31.8660700644      -54.6845576601  TIP3      15440           0.0000000000
     97834     16800  TIP3      H1             29.5058113999       31.1488431992      -55.1928855229  TIP3      15440           0.0000000000
     97835     16800  TIP3      H2             29.5037769831       32.6577040531      -55.0743743865  TIP3      15440           0.0000000000
     97836     16801  TIP3      OH2            30.2879472267       29.7948715791      -56.1729332608  TIP3      15441           0.0000000000
     97837     16801  TIP3      H1             29.9899316430       29.1033058658      -56.7861304761  TIP3      15441           0.0000000000
     97838     16801  TIP3      H2             30.3166296785       29.3028301564      -55.3314883521  TIP3      15441           0.0000000000
     97839     16802  TIP3      OH2            31.8923128983       28.3912840603      -47.6814932006  TIP3      15442           0.0000000000
     97840     16802  TIP3      H1             32.0584155629       27.7619506427      -48.4210347048  TIP3      15442           0.0000000000
     97841     16802  TIP3      H2             32.1402551228       29.2451249579      -48.0924375108  TIP3      15442           0.0000000000
     97842     16803  TIP3      OH2            26.3950085486       25.2846037614      -57.9264053193  TIP3      15443           0.0000000000
     97843     16803  TIP3      H1             25.6892950581       25.8546184116      -58.2977982694  TIP3      15443           0.0000000000
     97844     16803  TIP3      H2             27.1016472987       25.3748893311      -58.5887626766  TIP3      15443           0.0000000000
     97845     16804  TIP3      OH2            26.4611961761       23.8020955739      -60.8277932719  TIP3      15444           0.0000000000
     97846     16804  TIP3      H1             27.1966473565       23.8169397246      -60.1966349064  TIP3      15444           0.0000000000
     97847     16804  TIP3      H2             26.7770248672       23.1683083600      -61.4759603379  TIP3      15444           0.0000000000
     97848     16805  TIP3      OH2            33.7993613138       24.6788175126      -49.6308831295  TIP3      15445           0.0000000000
     97849     16805  TIP3      H1             33.1428751139       25.4063271820      -49.5662916110  TIP3      15445           0.0000000000
     97850     16805  TIP3      H2             34.2710077854       24.9326127716      -50.4476864561  TIP3      15445           0.0000000000
     97851     16806  TIP3      OH2            29.8416293227       25.4718033177      -56.9935941947  TIP3      15446           0.0000000000
     97852     16806  TIP3      H1             29.1103503286       25.7362217159      -56.3818012826  TIP3      15446           0.0000000000
     97853     16806  TIP3      H2             30.3179356137       24.8205899879      -56.4453029715  TIP3      15446           0.0000000000
     97854     16807  TIP3      OH2            29.7436793150       23.6518662306      -47.8821123701  TIP3      15447           0.0000000000
     97855     16807  TIP3      H1             29.7789566522       24.4473238123      -47.3530286575  TIP3      15447           0.0000000000
     97856     16807  TIP3      H2             29.1335359506       23.9457404166      -48.5904309797  TIP3      15447           0.0000000000
     97857     16808  TIP3      OH2            21.4552135994       26.1492621802      -55.0810901141  TIP3      15448           0.0000000000
     97858     16808  TIP3      H1             21.1415937149       25.7596665117      -55.9304054996  TIP3      15448           0.0000000000
     97859     16808  TIP3      H2             22.0712864263       25.4585629276      -54.7410585754  TIP3      15448           0.0000000000
     97860     16809  TIP3      OH2            22.7861729377       29.5366465415      -52.3899272495  TIP3      15449           0.0000000000
     97861     16809  TIP3      H1             22.7696604030       29.0062556951      -53.1959465627  TIP3      15449           0.0000000000
     97862     16809  TIP3      H2             23.5654763350       29.1755080088      -51.9338424008  TIP3      15449           0.0000000000
     97863     16810  TIP3      OH2            21.7936142834       24.8915727838      -51.4081478813  TIP3      15450           0.0000000000
     97864     16810  TIP3      H1             22.3432370407       24.9996413330      -52.2106012897  TIP3      15450           0.0000000000
     97865     16810  TIP3      H2             22.1671414201       25.5678745215      -50.7996563493  TIP3      15450           0.0000000000
     97866     16811  TIP3      OH2            28.2072076947       30.4650630468      -50.6927533108  TIP3      15451           0.0000000000
     97867     16811  TIP3      H1             27.9042934847       31.1262164628      -50.0662841175  TIP3      15451           0.0000000000
     97868     16811  TIP3      H2             27.9512243381       29.6079848151      -50.2804803091  TIP3      15451           0.0000000000
     97869     16812  TIP3      OH2            22.7284895287       29.3008591252      -46.6791984960  TIP3      15452           0.0000000000
     97870     16812  TIP3      H1             22.3605888719       30.0980602471      -46.2525550933  TIP3      15452           0.0000000000
     97871     16812  TIP3      H2             22.0743944957       29.1254618788      -47.3989500696  TIP3      15452           0.0000000000
     97872     16813  TIP3      OH2            28.7371438666       24.6671903507      -59.3261601237  TIP3      15453           0.0000000000
     97873     16813  TIP3      H1             29.2602766731       24.8703347291      -58.5069932010  TIP3      15453           0.0000000000
     97874     16813  TIP3      H2             29.1118005665       25.2352739004      -60.0017254051  TIP3      15453           0.0000000000
     97875     16814  TIP3      OH2            19.6655951720       25.5078775497      -47.5396757359  TIP3      15454           0.0000000000
     97876     16814  TIP3      H1             19.7283042366       26.1265500875      -46.8116749174  TIP3      15454           0.0000000000
     97877     16814  TIP3      H2             18.7415048247       25.5712393303      -47.8062682616  TIP3      15454           0.0000000000
     97878     16815  TIP3      OH2            26.4357996431       31.4135043254      -55.8521268342  TIP3      15455           0.0000000000
     97879     16815  TIP3      H1             26.8700108343       31.7216045385      -55.0487113420  TIP3      15455           0.0000000000
     97880     16815  TIP3      H2             25.8716070052       32.1578547152      -56.0905228019  TIP3      15455           0.0000000000
     97881     16816  TIP3      OH2            20.9341956036       31.3437316051      -45.9705358091  TIP3      15456           0.0000000000
     97882     16816  TIP3      H1             20.9442924174       31.2826747062      -46.9426587672  TIP3      15456           0.0000000000
     97883     16816  TIP3      H2             19.9942021452       31.2677135425      -45.7487124699  TIP3      15456           0.0000000000
     97884     16817  TIP3      OH2            32.4329691886       16.4049151493      -59.4205732235  TIP3      15457           0.0000000000
     97885     16817  TIP3      H1             31.4799764192       16.5275344770      -59.1823696886  TIP3      15457           0.0000000000
     97886     16817  TIP3      H2             32.6558544873       17.2584161878      -59.8327976310  TIP3      15457           0.0000000000
     97887     16818  TIP3      OH2            20.4294807956       25.1694983370      -57.4686712070  TIP3      15458           0.0000000000
     97888     16818  TIP3      H1             20.1507647482       25.9524788539      -57.9878794299  TIP3      15458           0.0000000000
     97889     16818  TIP3      H2             19.7670077745       24.5108488940      -57.6905987491  TIP3      15458           0.0000000000
     97890     16819  TIP3      OH2            33.5498705748       30.7621293707      -61.0362549044  TIP3      15459           0.0000000000
     97891     16819  TIP3      H1             33.6824774872       31.7244228698      -60.9304234445  TIP3      15459           0.0000000000
     97892     16819  TIP3      H2             34.4742124728       30.4765134502      -61.1310346857  TIP3      15459           0.0000000000
     97893     16820  TIP3      OH2            16.5641680240       27.5964365705      -48.6198414989  TIP3      15460           0.0000000000
     97894     16820  TIP3      H1             16.0777520877       27.5251095030      -49.4658815674  TIP3      15460           0.0000000000
     97895     16820  TIP3      H2             16.5847073605       26.6532377675      -48.3615659056  TIP3      15460           0.0000000000
     97896     16821  TIP3      OH2            16.2829563996       30.3392909550      -51.7829434764  TIP3      15461           0.0000000000
     97897     16821  TIP3      H1             17.2413845090       30.2225657801      -51.8003139398  TIP3      15461           0.0000000000
     97898     16821  TIP3      H2             16.1997413180       31.1489702371      -51.2654549823  TIP3      15461           0.0000000000
     97899     16822  TIP3      OH2            34.6258781355       31.0052803837      -46.6177837118  TIP3      15462           0.0000000000
     97900     16822  TIP3      H1             34.5001303620       30.1088448418      -46.2956710357  TIP3      15462           0.0000000000
     97901     16822  TIP3      H2             33.9246206689       31.3997490116      -46.0597867557  TIP3      15462           0.0000000000
     97902     16823  TIP3      OH2            25.5263770981       30.5060621961      -47.1512777719  TIP3      15463           0.0000000000
     97903     16823  TIP3      H1             25.5480490380       31.4136070142      -46.7493035935  TIP3      15463           0.0000000000
     97904     16823  TIP3      H2             24.5841468634       30.2636511354      -47.0271277073  TIP3      15463           0.0000000000
     97905     16824  TIP3      OH2            25.8955599707       34.3244008365      -57.4566834286  TIP3      15464           0.0000000000
     97906     16824  TIP3      H1             25.8226942945       34.2561482054      -58.4201853921  TIP3      15464           0.0000000000
     97907     16824  TIP3      H2             25.9388951107       35.2850902409      -57.2787034253  TIP3      15464           0.0000000000
     97908     16825  TIP3      OH2            19.5580272067       33.1982385066      -55.6147080989  TIP3      15465           0.0000000000
     97909     16825  TIP3      H1             19.7022105465       32.7888355915      -54.7306217595  TIP3      15465           0.0000000000
     97910     16825  TIP3      H2             18.7072280555       32.7949881693      -55.8532742490  TIP3      15465           0.0000000000
     97911     16826  TIP3      OH2            28.9319490522       33.5249958814      -60.4740815581  TIP3      15466           0.0000000000
     97912     16826  TIP3      H1             29.4147033738       32.7710154649      -60.8871508885  TIP3      15466           0.0000000000
     97913     16826  TIP3      H2             29.0182510054       33.2844079218      -59.5302494191  TIP3      15466           0.0000000000
     97914     16827  TIP3      OH2            28.6594724676       33.4755802050      -57.6759594370  TIP3      15467           0.0000000000
     97915     16827  TIP3      H1             27.7039950374       33.5375182408      -57.4842841390  TIP3      15467           0.0000000000
     97916     16827  TIP3      H2             28.9139017711       32.7332535198      -57.1060035846  TIP3      15467           0.0000000000
     97917     16828  TIP3      OH2            18.8119713279       28.8749390568      -47.5863954884  TIP3      15468           0.0000000000
     97918     16828  TIP3      H1             18.9684407379       28.5397912404      -46.7073650254  TIP3      15468           0.0000000000
     97919     16828  TIP3      H2             17.9294714301       28.5316292115      -47.8591478127  TIP3      15468           0.0000000000
     97920     16829  TIP3      OH2            21.4779001854       17.3960290726      -51.7270546353  TIP3      15469           0.0000000000
     97921     16829  TIP3      H1             20.5587456470       17.2750071862      -52.0436570128  TIP3      15469           0.0000000000
     97922     16829  TIP3      H2             21.3801915556       18.1946650909      -51.1786849388  TIP3      15469           0.0000000000
     97923     16830  TIP3      OH2            26.1299807196       17.0606989517      -48.3029493289  TIP3      15470           0.0000000000
     97924     16830  TIP3      H1             26.4926770471       16.6733728922      -47.4899566246  TIP3      15470           0.0000000000
     97925     16830  TIP3      H2             25.1477582058       16.9762317291      -48.1356103323  TIP3      15470           0.0000000000
     97926     16831  TIP3      OH2            29.2661597630       20.8832825047      -47.4762697484  TIP3      15471           0.0000000000
     97927     16831  TIP3      H1             28.9245894068       20.7121286730      -46.5793075029  TIP3      15471           0.0000000000
     97928     16831  TIP3      H2             29.2817549097       21.8492275018      -47.6022999757  TIP3      15471           0.0000000000
     97929     16832  TIP3      OH2            25.7325672783       19.6535767504      -60.9700631634  TIP3      15472           0.0000000000
     97930     16832  TIP3      H1             25.4657318362       19.5772966563      -60.0348345007  TIP3      15472           0.0000000000
     97931     16832  TIP3      H2             25.5022993459       18.7625897698      -61.2534039912  TIP3      15472           0.0000000000
     97932     16833  TIP3      OH2            21.5531606909       22.3607057424      -50.4540272642  TIP3      15473           0.0000000000
     97933     16833  TIP3      H1             20.8583264486       22.3374048058      -49.7657135259  TIP3      15473           0.0000000000
     97934     16833  TIP3      H2             21.5194654291       23.2868513174      -50.7832585922  TIP3      15473           0.0000000000
     97935     16834  TIP3      OH2            21.5417480422       22.4917142142      -55.5596420305  TIP3      15474           0.0000000000
     97936     16834  TIP3      H1             20.6078837672       22.2271509372      -55.6889685183  TIP3      15474           0.0000000000
     97937     16834  TIP3      H2             21.9245460310       22.1895392438      -56.4022161594  TIP3      15474           0.0000000000
     97938     16835  TIP3      OH2            27.0636416692       22.9740809621      -56.7927873627  TIP3      15475           0.0000000000
     97939     16835  TIP3      H1             26.6598247083       23.8067847935      -57.1268398185  TIP3      15475           0.0000000000
     97940     16835  TIP3      H2             27.7501869441       22.8116689809      -57.4608541252  TIP3      15475           0.0000000000
     97941     16836  TIP3      OH2            28.1024389113       22.4696725655      -53.9366881980  TIP3      15476           0.0000000000
     97942     16836  TIP3      H1             27.8225624853       23.0328181729      -54.6793094125  TIP3      15476           0.0000000000
     97943     16836  TIP3      H2             28.1989449530       21.6209073512      -54.4088533693  TIP3      15476           0.0000000000
     97944     16837  TIP3      OH2            19.1886650069       22.6453057496      -48.7178720874  TIP3      15477           0.0000000000
     97945     16837  TIP3      H1             19.3032744710       23.0017756638      -47.8167891714  TIP3      15477           0.0000000000
     97946     16837  TIP3      H2             18.8022290147       21.7745234858      -48.5331142972  TIP3      15477           0.0000000000
     97947     16838  TIP3      OH2            15.8664456210       19.7276245463      -54.7540386285  TIP3      15478           0.0000000000
     97948     16838  TIP3      H1             16.5470524202       19.6900145968      -54.0520480206  TIP3      15478           0.0000000000
     97949     16838  TIP3      H2             16.3171668431       19.3486563036      -55.5318229513  TIP3      15478           0.0000000000
     97950     16839  TIP3      OH2            17.1510370414       20.4819317319      -59.3583272461  TIP3      15479           0.0000000000
     97951     16839  TIP3      H1             17.6090833752       21.0451173582      -59.9973982757  TIP3      15479           0.0000000000
     97952     16839  TIP3      H2             16.4466199542       21.0919677019      -59.0651683775  TIP3      15479           0.0000000000
     97953     16840  TIP3      OH2            27.3502050270       24.0726346414      -49.3162729815  TIP3      15480           0.0000000000
     97954     16840  TIP3      H1             27.6775009951       23.4069679342      -49.9588820599  TIP3      15480           0.0000000000
     97955     16840  TIP3      H2             26.8331862970       23.5069304275      -48.7121567119  TIP3      15480           0.0000000000
     97956     16841  TIP3      OH2            24.1052757359       20.0347206300      -54.5501358880  TIP3      15481           0.0000000000
     97957     16841  TIP3      H1             23.1727570659       20.0371222131      -54.2571755298  TIP3      15481           0.0000000000
     97958     16841  TIP3      H2             24.5863587921       19.8742049289      -53.7242582408  TIP3      15481           0.0000000000
     97959     16842  TIP3      OH2            18.9152255675       21.5883830123      -55.6959076858  TIP3      15482           0.0000000000
     97960     16842  TIP3      H1             18.0233454976       21.7349446488      -56.0729898935  TIP3      15482           0.0000000000
     97961     16842  TIP3      H2             19.2020845875       20.7427239533      -56.0810354211  TIP3      15482           0.0000000000
     97962     16843  TIP3      OH2            22.5445710979       21.6531581436      -58.0548089096  TIP3      15483           0.0000000000
     97963     16843  TIP3      H1             23.5010410988       21.7508712070      -57.8780569060  TIP3      15483           0.0000000000
     97964     16843  TIP3      H2             22.3162991685       22.3144240243      -58.7318561346  TIP3      15483           0.0000000000
     97965     16844  TIP3      OH2            28.5109553795       19.2636454895      -51.2952363836  TIP3      15484           0.0000000000
     97966     16844  TIP3      H1             27.8149887817       19.3230405760      -50.6010274579  TIP3      15484           0.0000000000
     97967     16844  TIP3      H2             28.0044382377       19.0212129222      -52.0842253799  TIP3      15484           0.0000000000
     97968     16845  TIP3      OH2            21.2552386226       22.7770332869      -60.4545303027  TIP3      15485           0.0000000000
     97969     16845  TIP3      H1             20.7141752713       22.4562805439      -61.1917035557  TIP3      15485           0.0000000000
     97970     16845  TIP3      H2             22.0708786447       23.0393698762      -60.9135595839  TIP3      15485           0.0000000000
     97971     16846  TIP3      OH2            25.3849319679       22.7895388524      -52.6506826429  TIP3      15486           0.0000000000
     97972     16846  TIP3      H1             25.9817691666       22.2538820016      -53.1869964840  TIP3      15486           0.0000000000
     97973     16846  TIP3      H2             25.2362176519       22.2372377647      -51.8688351490  TIP3      15486           0.0000000000
     97974     16847  TIP3      OH2            20.3985079722       18.9319927125      -56.2009399607  TIP3      15487           0.0000000000
     97975     16847  TIP3      H1             20.0869218566       18.0107172967      -56.2381042744  TIP3      15487           0.0000000000
     97976     16847  TIP3      H2             21.1779837567       18.8764573490      -56.7699138118  TIP3      15487           0.0000000000
     97977     16848  TIP3      OH2            24.0648674366       21.1579014794      -50.2874359408  TIP3      15488           0.0000000000
     97978     16848  TIP3      H1             23.2067737823       21.6093229727      -50.1553490538  TIP3      15488           0.0000000000
     97979     16848  TIP3      H2             24.5763905956       21.4336234699      -49.5073305339  TIP3      15488           0.0000000000
     97980     16849  TIP3      OH2            24.6205221243       27.3143756809      -58.5081739817  TIP3      15489           0.0000000000
     97981     16849  TIP3      H1             23.8159739451       26.8718505766      -58.8646465482  TIP3      15489           0.0000000000
     97982     16849  TIP3      H2             24.3855126527       27.4504276938      -57.5722748486  TIP3      15489           0.0000000000
     97983     16850  TIP3      OH2            31.7961702304       26.5140198410      -49.7310956588  TIP3      15490           0.0000000000
     97984     16850  TIP3      H1             32.3579176270       27.0175466442      -50.3481214591  TIP3      15490           0.0000000000
     97985     16850  TIP3      H2             30.9455639027       26.5735307223      -50.2156208204  TIP3      15490           0.0000000000
     97986     16851  TIP3      OH2            28.4651092826       20.1411854732      -60.3604251472  TIP3      15491           0.0000000000
     97987     16851  TIP3      H1             27.5246024344       20.3017146992      -60.5297217039  TIP3      15491           0.0000000000
     97988     16851  TIP3      H2             28.7735937812       21.0113162348      -60.0462383121  TIP3      15491           0.0000000000
     97989     16852  TIP3      OH2            26.0786034762       27.6183192259      -47.3284894266  TIP3      15492           0.0000000000
     97990     16852  TIP3      H1             25.6448078847       27.1343633288      -46.6068144003  TIP3      15492           0.0000000000
     97991     16852  TIP3      H2             25.6827912449       28.5075008114      -47.2921019560  TIP3      15492           0.0000000000
     97992     16853  TIP3      OH2            29.1897939480       22.0722802180      -58.6940301360  TIP3      15493           0.0000000000
     97993     16853  TIP3      H1             30.0890179470       21.9364891188      -58.3352149929  TIP3      15493           0.0000000000
     97994     16853  TIP3      H2             29.2620487304       22.8796945792      -59.2215105369  TIP3      15493           0.0000000000
     97995     16854  TIP3      OH2            19.7195727879       26.7322580265      -52.7444686272  TIP3      15494           0.0000000000
     97996     16854  TIP3      H1             20.4101446306       26.6540327269      -53.4304631710  TIP3      15494           0.0000000000
     97997     16854  TIP3      H2             19.7803711972       25.8739041822      -52.2884316583  TIP3      15494           0.0000000000
     97998     16855  TIP3      OH2            26.7193881299       28.8107913192      -59.4539518831  TIP3      15495           0.0000000000
     97999     16855  TIP3      H1             26.3372754015       29.6613924470      -59.1507296884  TIP3      15495           0.0000000000
     98000     16855  TIP3      H2             25.9718058380       28.1921864319      -59.3077522530  TIP3      15495           0.0000000000
     98001     16856  TIP3      OH2            16.6781507719       25.1559438115      -47.4760579649  TIP3      15496           0.0000000000
     98002     16856  TIP3      H1             16.9340044915       24.7071619400      -46.6542748740  TIP3      15496           0.0000000000
     98003     16856  TIP3      H2             16.1015916508       24.5145725678      -47.9283967202  TIP3      15496           0.0000000000
     98004     16857  TIP3      OH2            28.3752157992       30.1117601965      -47.3728115945  TIP3      15497           0.0000000000
     98005     16857  TIP3      H1             27.4709417083       30.3581850589      -47.6527070884  TIP3      15497           0.0000000000
     98006     16857  TIP3      H2             28.4214007894       30.4432566236      -46.4665131543  TIP3      15497           0.0000000000
     98007     16858  TIP3      OH2            34.0418444706       22.2212311414      -58.9460423992  TIP3      15498           0.0000000000
     98008     16858  TIP3      H1             33.5489092313       21.8752040556      -59.7030821103  TIP3      15498           0.0000000000
     98009     16858  TIP3      H2             34.1712591746       23.1485831288      -59.2395567008  TIP3      15498           0.0000000000
     98010     16859  TIP3      OH2            34.0508233275       27.9653384623      -46.1975103528  TIP3      15499           0.0000000000
     98011     16859  TIP3      H1             33.1889708683       28.3207203417      -46.5350293831  TIP3      15499           0.0000000000
     98012     16859  TIP3      H2             34.5773298987       28.0281963838      -47.0109016408  TIP3      15499           0.0000000000
     98013     16860  TIP3      OH2            32.3786050036       31.0423170339      -58.5659682656  TIP3      15500           0.0000000000
     98014     16860  TIP3      H1             32.0026880763       30.2248023544      -58.2244743718  TIP3      15500           0.0000000000
     98015     16860  TIP3      H2             32.6701126488       30.8403269872      -59.4778474338  TIP3      15500           0.0000000000
     98016     16861  TIP3      OH2            29.5631916977       25.8621437673      -51.4288068805  TIP3      15501           0.0000000000
     98017     16861  TIP3      H1             28.6295190138       25.6412312127      -51.5863613014  TIP3      15501           0.0000000000
     98018     16861  TIP3      H2             30.0056228190       25.1164293201      -51.8774735600  TIP3      15501           0.0000000000
     98019     16862  TIP3      OH2            22.0911429355       30.1870437878      -55.3565668426  TIP3      15502           0.0000000000
     98020     16862  TIP3      H1             22.5938595919       30.9928456090      -55.5648518685  TIP3      15502           0.0000000000
     98021     16862  TIP3      H2             21.2141717873       30.4218857311      -55.6877485662  TIP3      15502           0.0000000000
     98022     16863  TIP3      OH2            17.8280799248       25.0633993068      -60.8276367930  TIP3      15503           0.0000000000
     98023     16863  TIP3      H1             18.4527669764       25.6725340266      -60.4036235487  TIP3      15503           0.0000000000
     98024     16863  TIP3      H2             16.9578311252       25.3221426718      -60.4935935716  TIP3      15503           0.0000000000
     98025     16864  TIP3      OH2            23.5119700684       27.8519743317      -55.8299725435  TIP3      15504           0.0000000000
     98026     16864  TIP3      H1             23.2011717435       28.7745500933      -55.7550025328  TIP3      15504           0.0000000000
     98027     16864  TIP3      H2             22.7865660291       27.3654738065      -55.3931217679  TIP3      15504           0.0000000000
     98028     16865  TIP3      OH2            23.9586667658       32.0460256097      -49.4594554847  TIP3      15505           0.0000000000
     98029     16865  TIP3      H1             24.4113161925       32.8621543268      -49.7158669591  TIP3      15505           0.0000000000
     98030     16865  TIP3      H2             24.5650597660       31.7148546522      -48.7833634864  TIP3      15505           0.0000000000
     98031     16866  TIP3      OH2            22.1896787389       32.8485098231      -56.3128389910  TIP3      15506           0.0000000000
     98032     16866  TIP3      H1             21.2233987387       32.9718868782      -56.1612342054  TIP3      15506           0.0000000000
     98033     16866  TIP3      H2             22.5450850620       33.6828065673      -55.9567044404  TIP3      15506           0.0000000000
     98034     16867  TIP3      OH2            27.5646077810       28.0776844695      -49.7746094305  TIP3      15507           0.0000000000
     98035     16867  TIP3      H1             27.1020780091       27.7919360680      -48.9749573390  TIP3      15507           0.0000000000
     98036     16867  TIP3      H2             28.1309675532       27.3211083412      -50.0066761933  TIP3      15507           0.0000000000
     98037     16868  TIP3      OH2            29.7663364595       29.0576947807      -60.6897527460  TIP3      15508           0.0000000000
     98038     16868  TIP3      H1             30.0676316724       28.6284528725      -59.8654958485  TIP3      15508           0.0000000000
     98039     16868  TIP3      H2             28.8090539720       28.9329876198      -60.6197520548  TIP3      15508           0.0000000000
     98040     16869  TIP3      OH2            30.2245828157       32.6133837282      -47.2824721699  TIP3      15509           0.0000000000
     98041     16869  TIP3      H1             29.6137834921       32.1252576513      -47.8470037020  TIP3      15509           0.0000000000
     98042     16869  TIP3      H2             30.5109799662       33.3157983016      -47.9104097890  TIP3      15509           0.0000000000
     98043     16870  TIP3      OH2            34.2962691345       33.4879164199      -60.4629870570  TIP3      15510           0.0000000000
     98044     16870  TIP3      H1             34.9898224467       34.1218938681      -60.7131036115  TIP3      15510           0.0000000000
     98045     16870  TIP3      H2             33.5762825852       34.0919912324      -60.1718978812  TIP3      15510           0.0000000000
     98046     16871  TIP3      OH2            18.3612267874       19.9012040723      -47.9554045585  TIP3      15511           0.0000000000
     98047     16871  TIP3      H1             17.4451586455       20.2205126373      -47.9759657618  TIP3      15511           0.0000000000
     98048     16871  TIP3      H2             18.2949139765       19.0504703423      -47.4893270236  TIP3      15511           0.0000000000
     98049     16872  TIP3      OH2            30.6058567732       27.7172955693      -58.4913686639  TIP3      15512           0.0000000000
     98050     16872  TIP3      H1             30.3568806553       26.9472147711      -57.9407674730  TIP3      15512           0.0000000000
     98051     16872  TIP3      H2             31.5483024996       27.8059847004      -58.2696852222  TIP3      15512           0.0000000000
     98052     16873  TIP3      OH2            17.9878596125       31.6629669797      -49.5059295617  TIP3      15513           0.0000000000
     98053     16873  TIP3      H1             18.2704317830       30.7356121248      -49.4999474509  TIP3      15513           0.0000000000
     98054     16873  TIP3      H2             18.2277131339       31.9626093031      -48.6172063895  TIP3      15513           0.0000000000
     98055     16874  TIP3      OH2            22.7020011317       29.7348329966      -59.7995591268  TIP3      15514           0.0000000000
     98056     16874  TIP3      H1             22.9925302742       29.1859961073      -59.0586241398  TIP3      15514           0.0000000000
     98057     16874  TIP3      H2             22.8180597238       30.6476599358      -59.4609119060  TIP3      15514           0.0000000000
     98058     16875  TIP3      OH2            19.2210634912       26.9773734162      -59.3231898587  TIP3      15515           0.0000000000
     98059     16875  TIP3      H1             18.5613163687       27.3841523311      -58.7233361993  TIP3      15515           0.0000000000
     98060     16875  TIP3      H2             19.7905158263       27.7309215099      -59.5448332741  TIP3      15515           0.0000000000
     98061     16876  TIP3      OH2            27.0964072321       19.6283799809      -49.0234775599  TIP3      15516           0.0000000000
     98062     16876  TIP3      H1             27.7831792063       19.6763038516      -48.3467515394  TIP3      15516           0.0000000000
     98063     16876  TIP3      H2             26.6711271352       18.7721850357      -48.8182690430  TIP3      15516           0.0000000000
     98064     16877  TIP3      OH2            27.8271025433       19.2307224109      -57.8671384082  TIP3      15517           0.0000000000
     98065     16877  TIP3      H1             28.0718534035       19.6822611558      -58.6999903807  TIP3      15517           0.0000000000
     98066     16877  TIP3      H2             28.4210299213       19.6679780002      -57.2447207378  TIP3      15517           0.0000000000
     98067     16878  TIP3      OH2            25.5302273263       31.3924267232      -59.0573752865  TIP3      15518           0.0000000000
     98068     16878  TIP3      H1             24.7037038320       31.9011594710      -59.0121276904  TIP3      15518           0.0000000000
     98069     16878  TIP3      H2             26.0614887613       31.8882762054      -59.6886464421  TIP3      15518           0.0000000000
     98070     16879  TIP3      OH2            25.0584772353       20.9701773983      -57.0727640702  TIP3      15519           0.0000000000
     98071     16879  TIP3      H1             25.8488519457       21.5456582642      -57.0352662307  TIP3      15519           0.0000000000
     98072     16879  TIP3      H2             24.7987295058       20.8396818031      -56.1420707072  TIP3      15519           0.0000000000
     98073     16880  TIP3      OH2            25.7691725223       22.0929682451      -47.9702008840  TIP3      15520           0.0000000000
     98074     16880  TIP3      H1             25.6529468985       22.5183387710      -47.1167444533  TIP3      15520           0.0000000000
     98075     16880  TIP3      H2             26.1857131093       21.2343900993      -47.7857467707  TIP3      15520           0.0000000000
     98076     16881  TIP3      OH2            25.9185364895       18.0323544752      -56.1724947178  TIP3      15521           0.0000000000
     98077     16881  TIP3      H1             25.5987802133       18.6825375427      -55.5200339143  TIP3      15521           0.0000000000
     98078     16881  TIP3      H2             26.6095679082       18.5753554760      -56.6292685628  TIP3      15521           0.0000000000
     98079     16882  TIP3      OH2            22.8782646628       32.4161068636      -59.0527008603  TIP3      15522           0.0000000000
     98080     16882  TIP3      H1             23.0652675574       33.2408305809      -59.5486534162  TIP3      15522           0.0000000000
     98081     16882  TIP3      H2             22.6540348789       32.7589179213      -58.1590322566  TIP3      15522           0.0000000000
     98082     16883  TIP3      OH2            21.5905870436       19.1226509657      -59.4343050212  TIP3      15523           0.0000000000
     98083     16883  TIP3      H1             21.5213524460       20.0382233332      -59.1079796476  TIP3      15523           0.0000000000
     98084     16883  TIP3      H2             22.5018846855       18.8909985386      -59.1840273139  TIP3      15523           0.0000000000
     98085     16884  TIP3      OH2            31.8031843461       19.9627964395      -47.0044548690  TIP3      15524           0.0000000000
     98086     16884  TIP3      H1             30.8622940272       20.1647739618      -47.1582501550  TIP3      15524           0.0000000000
     98087     16884  TIP3      H2             32.0963347141       19.8252797830      -47.9148834909  TIP3      15524           0.0000000000
     98088     16885  TIP3      OH2            30.4105908221       23.6537647914      -53.0160027117  TIP3      15525           0.0000000000
     98089     16885  TIP3      H1             29.5899960292       23.2064539297      -53.2974719205  TIP3      15525           0.0000000000
     98090     16885  TIP3      H2             30.8866952433       22.9638864688      -52.4991678338  TIP3      15525           0.0000000000
     98091     16886  TIP3      OH2            19.8306808063       29.5794652128      -60.4200286116  TIP3      15526           0.0000000000
     98092     16886  TIP3      H1             20.4820004592       30.2147646238      -60.0993134123  TIP3      15526           0.0000000000
     98093     16886  TIP3      H2             20.3348726777       29.1325073966      -61.1093906042  TIP3      15526           0.0000000000
     98094     16887  TIP3      OH2            31.4784576593       32.8989723893      -51.3634081813  TIP3      15527           0.0000000000
     98095     16887  TIP3      H1             31.3843588413       33.5954160185      -52.0427801083  TIP3      15527           0.0000000000
     98096     16887  TIP3      H2             32.4381125051       32.9695116636      -51.1655626240  TIP3      15527           0.0000000000
     98097     16888  TIP3      OH2            18.9589074263       17.0316311341      -52.5494921317  TIP3      15528           0.0000000000
     98098     16888  TIP3      H1             18.7701799379       17.0496018390      -53.5129798962  TIP3      15528           0.0000000000
     98099     16888  TIP3      H2             18.5498887919       16.1793726894      -52.2930900809  TIP3      15528           0.0000000000
     98100     16889  TIP3      OH2            17.9221537102       30.9546887134      -56.3986499421  TIP3      15529           0.0000000000
     98101     16889  TIP3      H1             17.0669401122       31.4058942325      -56.4396348826  TIP3      15529           0.0000000000
     98102     16889  TIP3      H2             18.4012124100       31.4204298547      -57.0983646981  TIP3      15529           0.0000000000
     98103     16890  TIP3      OH2            30.5199763374       31.8301059514      -61.8859887648  TIP3      15530           0.0000000000
     98104     16890  TIP3      H1             30.7678777115       30.9995178007      -61.4339046837  TIP3      15530           0.0000000000
     98105     16890  TIP3      H2             31.2788360602       32.0101321182      -62.4523529664  TIP3      15530           0.0000000000
     98106     16891  TIP3      OH2            29.5181252753       27.2142537510      -47.4834250125  TIP3      15531           0.0000000000
     98107     16891  TIP3      H1             30.3347051678       27.7696065996      -47.4655111287  TIP3      15531           0.0000000000
     98108     16891  TIP3      H2             28.8712701811       27.8886343680      -47.5402834683  TIP3      15531           0.0000000000
     98109     16892  TIP3      OH2            22.6192947374       25.7556900106      -59.6612241007  TIP3      15532           0.0000000000
     98110     16892  TIP3      H1             22.0986636693       25.2215200166      -59.0444980451  TIP3      15532           0.0000000000
     98111     16892  TIP3      H2             22.9030207511       25.0802385935      -60.3207700567  TIP3      15532           0.0000000000
     98112     16893  TIP3      OH2            21.8419805901       23.5720445490      -47.4268266856  TIP3      15533           0.0000000000
     98113     16893  TIP3      H1             21.2632811114       24.2884876059      -47.1234058185  TIP3      15533           0.0000000000
     98114     16893  TIP3      H2             22.2558111227       23.9297244779      -48.2201159678  TIP3      15533           0.0000000000
     98115     16894  TIP3      OH2            23.6684627821       23.9422504307      -61.4662718397  TIP3      15534           0.0000000000
     98116     16894  TIP3      H1             23.5597595530       23.8071406159      -62.4174360423  TIP3      15534           0.0000000000
     98117     16894  TIP3      H2             24.6432693284       24.0561525113      -61.3713405109  TIP3      15534           0.0000000000
     98118     16895  TIP3      OH2            21.9619198436       21.0974128146      -46.3580840761  TIP3      15535           0.0000000000
     98119     16895  TIP3      H1             22.3660306982       20.2997620873      -46.7713022278  TIP3      15535           0.0000000000
     98120     16895  TIP3      H2             22.2304386863       21.8360295193      -46.9266633564  TIP3      15535           0.0000000000
     98121     16896  TIP3      OH2            22.5946514265       19.2316985934      -49.0615294712  TIP3      15536           0.0000000000
     98122     16896  TIP3      H1             23.1497411058       19.8466809079      -49.5810352595  TIP3      15536           0.0000000000
     98123     16896  TIP3      H2             21.6716093515       19.2783993350      -49.3726395767  TIP3      15536           0.0000000000
     98124     16897  TIP3      OH2            24.2602464066       24.8004465090      -48.5028141338  TIP3      15537           0.0000000000
     98125     16897  TIP3      H1             24.9632314070       24.6127059240      -49.1342652117  TIP3      15537           0.0000000000
     98126     16897  TIP3      H2             23.8296635318       25.6012519021      -48.8524893520  TIP3      15537           0.0000000000
     98127     16898  TIP3      OH2            23.5159087496       16.6782250335      -48.5925785411  TIP3      15538           0.0000000000
     98128     16898  TIP3      H1             23.3252225243       17.6326510031      -48.3725558857  TIP3      15538           0.0000000000
     98129     16898  TIP3      H2             22.6417364013       16.3876534963      -48.8666597374  TIP3      15538           0.0000000000
     98130     16899  TIP3      OH2            23.5100180469       34.6585533365      -60.4574657832  TIP3      15539           0.0000000000
     98131     16899  TIP3      H1             24.4755719093       34.7619951536      -60.3252132093  TIP3      15539           0.0000000000
     98132     16899  TIP3      H2             23.3194877456       35.3408607476      -61.0997195125  TIP3      15539           0.0000000000
     98133     16900  TIP3      OH2            17.0883850523       29.2552363848      -60.9239379583  TIP3      15540           0.0000000000
     98134     16900  TIP3      H1             18.0468792180       29.3398558533      -60.7119474122  TIP3      15540           0.0000000000
     98135     16900  TIP3      H2             17.0975398616       28.6466204237      -61.6695467267  TIP3      15540           0.0000000000
     98136     16901  TIP3      OH2            15.8477319998       34.6232149228      -55.9599728882  TIP3      15541           0.0000000000
     98137     16901  TIP3      H1             15.1249813923       34.1419907932      -56.4230702801  TIP3      15541           0.0000000000
     98138     16901  TIP3      H2             16.1195781618       33.9670355355      -55.2928254262  TIP3      15541           0.0000000000
     98139     16902  TIP3      OH2            16.6584555500       32.7554222411      -54.0832024557  TIP3      15542           0.0000000000
     98140     16902  TIP3      H1             16.3046063822       31.8787045772      -53.8782203373  TIP3      15542           0.0000000000
     98141     16902  TIP3      H2             16.8828683311       33.0876043346      -53.1982223196  TIP3      15542           0.0000000000
     98142     16903  TIP3      OH2            34.1599243830       33.5576394056      -51.1487179038  TIP3      15543           0.0000000000
     98143     16903  TIP3      H1             34.2169873299       33.7091005760      -50.1893763984  TIP3      15543           0.0000000000
     98144     16903  TIP3      H2             34.8947362010       34.1113131757      -51.4424079620  TIP3      15543           0.0000000000
     98145     16904  TIP3      OH2            33.8082419466       33.1438539321      -48.2536733991  TIP3      15544           0.0000000000
     98146     16904  TIP3      H1             33.3140442997       32.3706719527      -48.5836282532  TIP3      15544           0.0000000000
     98147     16904  TIP3      H2             34.3096649828       32.7042398447      -47.5404432878  TIP3      15544           0.0000000000
     98148     16905  TIP3      OH2            33.5518327706       27.1787166486      -58.1125031452  TIP3      15545           0.0000000000
     98149     16905  TIP3      H1             34.3943645283       27.6042598284      -57.8921223232  TIP3      15545           0.0000000000
     98150     16905  TIP3      H2             33.5220074272       26.4863127945      -57.4153566259  TIP3      15545           0.0000000000
     98151     16906  TIP3      OH2            33.8924523602       25.2707047684      -56.2342138389  TIP3      15546           0.0000000000
     98152     16906  TIP3      H1             33.1436630958       24.7735611986      -55.8325541449  TIP3      15546           0.0000000000
     98153     16906  TIP3      H2             34.4884713317       25.4133035651      -55.4715893900  TIP3      15546           0.0000000000
     98154     16907  TIP3      OH2            33.6364294740       27.9565033170      -51.2659552842  TIP3      15547           0.0000000000
     98155     16907  TIP3      H1             34.4676446407       27.5895143867      -51.6169597073  TIP3      15547           0.0000000000
     98156     16907  TIP3      H2             33.7886516935       28.9137920113      -51.4132170261  TIP3      15547           0.0000000000
     98157     16908  TIP3      OH2            32.1705286396       30.8659328829      -48.9617247547  TIP3      15548           0.0000000000
     98158     16908  TIP3      H1             31.4995554972       31.2405841832      -48.3761332745  TIP3      15548           0.0000000000
     98159     16908  TIP3      H2             31.6434861773       30.4712597934      -49.6898678871  TIP3      15548           0.0000000000
     98160     16909  TIP3      OH2            34.1695448496       25.0966506828      -59.8392250541  TIP3      15549           0.0000000000
     98161     16909  TIP3      H1             33.6058930307       25.4470004051      -60.5320352752  TIP3      15549           0.0000000000
     98162     16909  TIP3      H2             34.1153802943       25.8044075274      -59.1609705208  TIP3      15549           0.0000000000
     98163     16910  TIP3      OH2            31.7091032865       23.7453585324      -55.6643577452  TIP3      15550           0.0000000000
     98164     16910  TIP3      H1             31.5623352117       22.7898138984      -55.6763597445  TIP3      15550           0.0000000000
     98165     16910  TIP3      H2             31.3816799302       23.9719438902      -54.7750080954  TIP3      15550           0.0000000000
     98166     16911  TIP3      OH2            16.7147124438       25.8345756126      -51.5915188439  TIP3      15551           0.0000000000
     98167     16911  TIP3      H1             16.8985829721       25.7529688409      -52.5549176257  TIP3      15551           0.0000000000
     98168     16911  TIP3      H2             17.6098613798       25.6613965378      -51.2332769338  TIP3      15551           0.0000000000
     98169     16912  TIP3      OH2            32.6003364532       25.7025760773      -45.9400629601  TIP3      15552           0.0000000000
     98170     16912  TIP3      H1             33.1747513258       24.9612409182      -45.7944203096  TIP3      15552           0.0000000000
     98171     16912  TIP3      H2             33.1782240244       26.4890262936      -46.0217021300  TIP3      15552           0.0000000000
     98172     16913  TIP3      OH2            31.8038568091       19.7616892685      -62.1859593120  TIP3      15553           0.0000000000
     98173     16913  TIP3      H1             32.3958123914       19.3473567985      -61.5301437978  TIP3      15553           0.0000000000
     98174     16913  TIP3      H2             30.9287738345       19.3983634038      -61.9967055734  TIP3      15553           0.0000000000
     98175     16914  TIP3      OH2            31.3833340931       21.3326348519      -57.1847577525  TIP3      15554           0.0000000000
     98176     16914  TIP3      H1             31.6835201865       20.4021226485      -57.0620009181  TIP3      15554           0.0000000000
     98177     16914  TIP3      H2             32.1757086757       21.7293364831      -57.5708406336  TIP3      15554           0.0000000000
     98178     16915  TIP3      OH2            32.0168674625       21.8789123589      -51.7679554877  TIP3      15555           0.0000000000
     98179     16915  TIP3      H1             32.9772785898       22.1089456602      -51.7677027591  TIP3      15555           0.0000000000
     98180     16915  TIP3      H2             31.8271268597       22.0107686382      -50.8242551094  TIP3      15555           0.0000000000
     98181     16916  TIP3      OH2            32.0797613649       22.6131648543      -48.9709651272  TIP3      15556           0.0000000000
     98182     16916  TIP3      H1             31.2058282434       22.9034674900      -48.6229168024  TIP3      15556           0.0000000000
     98183     16916  TIP3      H2             32.5122803747       23.4665885434      -49.1950273806  TIP3      15556           0.0000000000
     98184     16917  TIP3      OH2            32.0446524699       18.6123582463      -57.1522904726  TIP3      15557           0.0000000000
     98185     16917  TIP3      H1             32.2582242645       18.1799182574      -56.2962203440  TIP3      15557           0.0000000000
     98186     16917  TIP3      H2             31.4397393575       17.9737193138      -57.5873083885  TIP3      15557           0.0000000000
     98187     16918  TIP3      OH2            17.5273109652       19.4231539656      -52.5834054027  TIP3      15558           0.0000000000
     98188     16918  TIP3      H1             17.9914575297       18.5979642935      -52.3284775567  TIP3      15558           0.0000000000
     98189     16918  TIP3      H2             18.0796742970       20.1150488644      -52.1934463716  TIP3      15558           0.0000000000
     98190     16919  TIP3      OH2            15.8168006062       22.4160982798      -51.5547449566  TIP3      15559           0.0000000000
     98191     16919  TIP3      H1             16.3822487419       22.1759118337      -52.3143031535  TIP3      15559           0.0000000000
     98192     16919  TIP3      H2             16.2765426992       23.2267274267      -51.2804813403  TIP3      15559           0.0000000000
     98193     16920  TIP3      OH2            33.8686422097       18.6632760738      -60.5679501026  TIP3      15560           0.0000000000
     98194     16920  TIP3      H1             34.2930680732       17.9627215289      -61.0884173990  TIP3      15560           0.0000000000
     98195     16920  TIP3      H2             34.5736606167       19.3306428375      -60.5798492800  TIP3      15560           0.0000000000
     98196     16921  TIP3      OH2            16.1819715274       18.6923513938      -57.4886780634  TIP3      15561           0.0000000000
     98197     16921  TIP3      H1             15.2358475482       18.8638759198      -57.6067846957  TIP3      15561           0.0000000000
     98198     16921  TIP3      H2             16.5944873325       19.1845656514      -58.2175344111  TIP3      15561           0.0000000000
     98199     16922  TIP3      OH2            30.9170549200       33.6245786285      -55.5177360630  TIP3      15562           0.0000000000
     98200     16922  TIP3      H1             31.6007363433       33.3213648402      -56.1414810239  TIP3      15562           0.0000000000
     98201     16922  TIP3      H2             31.4353660346       34.1324130151      -54.8762667358  TIP3      15562           0.0000000000
     98202     16923  TIP3      OH2            16.1351828402       17.3719979639      -49.1982117615  TIP3      15563           0.0000000000
     98203     16923  TIP3      H1             15.4746474567       17.1518201910      -48.5032362041  TIP3      15563           0.0000000000
     98204     16923  TIP3      H2             15.6537025738       18.0348829584      -49.7266656618  TIP3      15563           0.0000000000
     98205     16924  TIP3      OH2            21.2566069378       31.5128218136      -48.7725790048  TIP3      15564           0.0000000000
     98206     16924  TIP3      H1             20.9166986335       32.3899282480      -49.0096263313  TIP3      15564           0.0000000000
     98207     16924  TIP3      H2             22.1965135769       31.6320095040      -49.0265432817  TIP3      15564           0.0000000000
     98208     16925  TIP3      OH2            25.6344326005       32.8493318574      -45.8082754583  TIP3      15565           0.0000000000
     98209     16925  TIP3      H1             25.7806189492       32.6618760325      -44.8716101179  TIP3      15565           0.0000000000
     98210     16925  TIP3      H2             26.4707820527       33.2783246163      -46.0668125766  TIP3      15565           0.0000000000
     98211     16926  TIP3      OH2            27.8420788734       34.2652827804      -46.5631579208  TIP3      15566           0.0000000000
     98212     16926  TIP3      H1             28.5758862985       33.6849538628      -46.8029121375  TIP3      15566           0.0000000000
     98213     16926  TIP3      H2             28.2448395803       34.6147063148      -45.7468342422  TIP3      15566           0.0000000000
     98214     16927  TIP3      OH2            32.9524872007       16.9074499908      -47.5624379531  TIP3      15567           0.0000000000
     98215     16927  TIP3      H1             32.0268922002       17.0953120650      -47.7797081530  TIP3      15567           0.0000000000
     98216     16927  TIP3      H2             33.0421055223       15.9934302332      -47.8959610797  TIP3      15567           0.0000000000
     98217     16928  TIP3      OH2            18.6834605990       34.7629640966      -48.7352536770  TIP3      15568           0.0000000000
     98218     16928  TIP3      H1             17.9563866881       35.2795010270      -49.1143274593  TIP3      15568           0.0000000000
     98219     16928  TIP3      H2             18.3547296360       34.6178560854      -47.8353804119  TIP3      15568           0.0000000000
     98220     16929  TIP3      OH2            21.1603694589       34.3557196814      -49.6710492089  TIP3      15569           0.0000000000
     98221     16929  TIP3      H1             20.2810835601       34.5301730752      -49.2553509311  TIP3      15569           0.0000000000
     98222     16929  TIP3      H2             21.1013921435       34.9397926774      -50.4519229609  TIP3      15569           0.0000000000
     98223     16930  TIP3      OH2            25.8786960388       34.2720126346      -50.5014235299  TIP3      15570           0.0000000000
     98224     16930  TIP3      H1             25.4106795179       34.8217668408      -51.1488241551  TIP3      15570           0.0000000000
     98225     16930  TIP3      H2             25.9991470992       34.9125240708      -49.7676492201  TIP3      15570           0.0000000000
     98226     16931  TIP3      OH2            28.1619994015       33.0540443671      -49.5037615915  TIP3      15571           0.0000000000
     98227     16931  TIP3      H1             27.3019060160       33.3537675109      -49.8402922960  TIP3      15571           0.0000000000
     98228     16931  TIP3      H2             28.6272511146       33.9068028122      -49.5769082739  TIP3      15571           0.0000000000
     98229     16932  TIP3      OH2            30.7399004027       34.6747268064      -49.2400957475  TIP3      15572           0.0000000000
     98230     16932  TIP3      H1             30.6763307374       35.6328919816      -49.4741045137  TIP3      15572           0.0000000000
     98231     16932  TIP3      H2             30.9613285658       34.3061853643      -50.1157684235  TIP3      15572           0.0000000000
     98232     16933  TIP3      OH2            18.1474042331       33.4316300047      -51.7956745136  TIP3      15573           0.0000000000
     98233     16933  TIP3      H1             18.0818757933       32.9954396735      -50.9176220681  TIP3      15573           0.0000000000
     98234     16933  TIP3      H2             18.9607421100       33.0524665470      -52.1876672861  TIP3      15573           0.0000000000
     98235     16934  TIP3      OH2            20.2296571225       32.1430610859      -53.1482091240  TIP3      15574           0.0000000000
     98236     16934  TIP3      H1             20.0617611429       31.2091171715      -52.9189866417  TIP3      15574           0.0000000000
     98237     16934  TIP3      H2             21.0831379695       32.2942277022      -52.6900936701  TIP3      15574           0.0000000000
     98238     16935  TIP3      OH2            22.8363140838       32.6301669310      -52.2659512363  TIP3      15575           0.0000000000
     98239     16935  TIP3      H1             22.9813717241       31.7086899234      -52.5483281121  TIP3      15575           0.0000000000
     98240     16935  TIP3      H2             22.8663696167       32.5570917743      -51.2992184209  TIP3      15575           0.0000000000
     98241     16936  TIP3      OH2            26.2879394199       18.2767758047      -53.1311697938  TIP3      15576           0.0000000000
     98242     16936  TIP3      H1             25.6104213808       17.6351898615      -52.8553175433  TIP3      15576           0.0000000000
     98243     16936  TIP3      H2             26.8392286453       17.7449530901      -53.7175250517  TIP3      15576           0.0000000000
     98244     16937  TIP3      OH2            31.4214115067       16.3296766212      -53.0658478001  TIP3      15577           0.0000000000
     98245     16937  TIP3      H1             32.0361378494       16.9186372534      -53.5714838253  TIP3      15577           0.0000000000
     98246     16937  TIP3      H2             30.5400278918       16.6861579163      -53.2986567846  TIP3      15577           0.0000000000
     98247     16938  TIP3      OH2            33.0962184167       17.5729587890      -54.7814365103  TIP3      15578           0.0000000000
     98248     16938  TIP3      H1             33.7776134323       16.9972920684      -55.2024703215  TIP3      15578           0.0000000000
     98249     16938  TIP3      H2             33.5976785760       18.4125400124      -54.6833852313  TIP3      15578           0.0000000000
     98250     16939  TIP3      OH2            18.6528487724       16.8980618468      -55.2879883659  TIP3      15579           0.0000000000
     98251     16939  TIP3      H1             17.8578090782       16.7005470415      -55.8152541380  TIP3      15579           0.0000000000
     98252     16939  TIP3      H2             19.1197290031       16.0437651079      -55.3418055032  TIP3      15579           0.0000000000
     98253     16940  TIP3      OH2            17.4006796259       16.6755234622      -59.5722113462  TIP3      15580           0.0000000000
     98254     16940  TIP3      H1             17.9107215542       17.3105188393      -60.1107500631  TIP3      15580           0.0000000000
     98255     16940  TIP3      H2             16.8522145216       17.2402203336      -59.0064921401  TIP3      15580           0.0000000000
     98256     16941  TIP3      OH2            23.1342822457       16.8270461213      -55.5020306796  TIP3      15581           0.0000000000
     98257     16941  TIP3      H1             24.0334775604       17.1895291543      -55.5674461976  TIP3      15581           0.0000000000
     98258     16941  TIP3      H2             23.0924305352       16.6091347761      -54.5712249250  TIP3      15581           0.0000000000
     98259     16942  TIP3      OH2            28.8359858420       16.8466301042      -53.8700273041  TIP3      15582           0.0000000000
     98260     16942  TIP3      H1             28.7945404120       16.9567019821      -54.8262949280  TIP3      15582           0.0000000000
     98261     16942  TIP3      H2             28.4633523339       15.9390765668      -53.7488757089  TIP3      15582           0.0000000000
     98262     16943  TIP3      OH2            30.1140367530       16.8772175286      -58.2139394880  TIP3      15583           0.0000000000
     98263     16943  TIP3      H1             29.3686528571       17.4745999854      -58.3694810967  TIP3      15583           0.0000000000
     98264     16943  TIP3      H2             29.6777267763       16.0255886308      -57.9781359080  TIP3      15583           0.0000000000
     98265     16944  TIP3      OH2            17.3464737360       32.6230551983      -58.5520751821  TIP3      15584           0.0000000000
     98266     16944  TIP3      H1             16.6681046545       32.6153603769      -59.2550573083  TIP3      15584           0.0000000000
     98267     16944  TIP3      H2             17.3651693959       33.5745310248      -58.3874338543  TIP3      15584           0.0000000000
     98268     16945  TIP3      OH2            19.2486043184       18.5221625708      -61.0192822789  TIP3      15585           0.0000000000
     98269     16945  TIP3      H1             19.7999062422       17.9850384359      -61.5856267458  TIP3      15585           0.0000000000
     98270     16945  TIP3      H2             19.9279430270       18.9384575405      -60.4560033582  TIP3      15585           0.0000000000
     98271     16946  TIP3      OH2            24.3043914411       18.8501646109      -58.6483160243  TIP3      15586           0.0000000000
     98272     16946  TIP3      H1             24.5432767360       18.2704489283      -57.9054290086  TIP3      15586           0.0000000000
     98273     16946  TIP3      H2             24.3428788416       19.7111023337      -58.1712639984  TIP3      15586           0.0000000000
     98274     16947  TIP3      OH2            26.1778277922       33.9348189927      -60.2428013371  TIP3      15587           0.0000000000
     98275     16947  TIP3      H1             27.1235166640       34.1430398368      -60.3779799426  TIP3      15587           0.0000000000
     98276     16947  TIP3      H2             26.0205009880       33.3819844808      -61.0182642243  TIP3      15587           0.0000000000
     98277     16948  TIP3      OH2            32.9161991964       33.4233464581      -57.4865733102  TIP3      15588           0.0000000000
     98278     16948  TIP3      H1             32.7136470051       32.6456547150      -58.0638284158  TIP3      15588           0.0000000000
     98279     16948  TIP3      H2             32.8310293067       34.1560310684      -58.1261902280  TIP3      15588           0.0000000000
     98280     16949  TIP3      OH2            18.3347651811       17.0650764293      -46.0675755989  TIP3      15589           0.0000000000
     98281     16949  TIP3      H1             18.0861501467       16.4911161809      -45.3397321133  TIP3      15589           0.0000000000
     98282     16949  TIP3      H2             19.2290738284       17.2628341531      -45.7478009610  TIP3      15589           0.0000000000
     98283     16950  TIP3      OH2            19.1606565784       33.5743715032      -61.5895271735  TIP3      15590           0.0000000000
     98284     16950  TIP3      H1             18.8798542162       33.8720322506      -60.7161917528  TIP3      15590           0.0000000000
     98285     16950  TIP3      H2             19.9442624922       33.0535129363      -61.4210802289  TIP3      15590           0.0000000000
     98286     16951  TIP3      OH2            37.8071660004       24.9851587454      -50.3623424890  TIP3      15591           0.0000000000
     98287     16951  TIP3      H1             37.9003815906       24.2852949088      -49.6775568905  TIP3      15591           0.0000000000
     98288     16951  TIP3      H2             38.5615812308       25.5563227370      -50.1631116902  TIP3      15591           0.0000000000
     98289     16952  TIP3      OH2            38.7310511188       29.3953990805      -51.8249835746  TIP3      15592           0.0000000000
     98290     16952  TIP3      H1             38.4317262361       28.5410646141      -52.1870522962  TIP3      15592           0.0000000000
     98291     16952  TIP3      H2             39.6915616407       29.2436444528      -51.7833712613  TIP3      15592           0.0000000000
     98292     16953  TIP3      OH2            35.3825568340       22.9760259938      -56.4246709783  TIP3      15593           0.0000000000
     98293     16953  TIP3      H1             34.9548631721       23.8575798475      -56.4388947311  TIP3      15593           0.0000000000
     98294     16953  TIP3      H2             34.7910533836       22.4466630245      -56.9710300369  TIP3      15593           0.0000000000
     98295     16954  TIP3      OH2            36.1234905717       25.2176408795      -54.2438343116  TIP3      15594           0.0000000000
     98296     16954  TIP3      H1             36.3497824710       24.3903552704      -53.7808753541  TIP3      15594           0.0000000000
     98297     16954  TIP3      H2             36.8397078527       25.2912834457      -54.8930143127  TIP3      15594           0.0000000000
     98298     16955  TIP3      OH2            39.6762322226       20.3867396205      -53.7139288956  TIP3      15595           0.0000000000
     98299     16955  TIP3      H1             40.1323691384       21.1061611166      -54.2206451434  TIP3      15595           0.0000000000
     98300     16955  TIP3      H2             39.6782835674       19.7239529637      -54.4002124679  TIP3      15595           0.0000000000
     98301     16956  TIP3      OH2            36.7592555138       22.6673587084      -53.1997647154  TIP3      15596           0.0000000000
     98302     16956  TIP3      H1             37.4459665848       22.1390191988      -52.7407831335  TIP3      15596           0.0000000000
     98303     16956  TIP3      H2             36.8452194814       22.3344484476      -54.1070263831  TIP3      15596           0.0000000000
     98304     16957  TIP3      OH2            38.9925729838       19.1223105259      -49.8912098441  TIP3      15597           0.0000000000
     98305     16957  TIP3      H1             38.7208277962       19.7190858170      -50.6239165686  TIP3      15597           0.0000000000
     98306     16957  TIP3      H2             38.3261625553       19.3778809944      -49.2223784791  TIP3      15597           0.0000000000
     98307     16958  TIP3      OH2            38.5014496479       21.1079929421      -51.6384746617  TIP3      15598           0.0000000000
     98308     16958  TIP3      H1             39.2219213908       21.7575062705      -51.5206154248  TIP3      15598           0.0000000000
     98309     16958  TIP3      H2             38.9459200834       20.6867614132      -52.4343859839  TIP3      15598           0.0000000000
     98310     16959  TIP3      OH2            39.7920473971       28.8965987538      -48.9242335952  TIP3      15599           0.0000000000
     98311     16959  TIP3      H1             39.8505241367       29.8480325150      -49.1165962819  TIP3      15599           0.0000000000
     98312     16959  TIP3      H2             38.9735266310       28.8620958778      -48.3921531539  TIP3      15599           0.0000000000
     98313     16960  TIP3      OH2            36.0768451186       28.4271927076      -58.0509016976  TIP3      15600           0.0000000000
     98314     16960  TIP3      H1             35.8109810761       28.7569558189      -58.9299076200  TIP3      15600           0.0000000000
     98315     16960  TIP3      H2             36.1164921951       29.2542502870      -57.5243198480  TIP3      15600           0.0000000000
     98316     16961  TIP3      OH2            40.1572139586       26.1940601631      -55.0763825155  TIP3      15601           0.0000000000
     98317     16961  TIP3      H1             39.9706226104       25.8063839367      -55.9607720240  TIP3      15601           0.0000000000
     98318     16961  TIP3      H2             40.8481148515       25.5953493964      -54.7309547002  TIP3      15601           0.0000000000
     98319     16962  TIP3      OH2            38.5015284198       25.4736131307      -47.4813108831  TIP3      15602           0.0000000000
     98320     16962  TIP3      H1             38.5725729631       26.1847484995      -46.8555795276  TIP3      15602           0.0000000000
     98321     16962  TIP3      H2             37.6042444005       25.5668168478      -47.8333812744  TIP3      15602           0.0000000000
     98322     16963  TIP3      OH2            39.7477170661       31.3681360257      -45.9623011454  TIP3      15603           0.0000000000
     98323     16963  TIP3      H1             39.8278386994       31.2513431751      -46.9286214106  TIP3      15603           0.0000000000
     98324     16963  TIP3      H2             38.8149737158       31.2614851955      -45.7654615111  TIP3      15603           0.0000000000
     98325     16964  TIP3      OH2            39.2934396896       25.1588040049      -57.4420522673  TIP3      15604           0.0000000000
     98326     16964  TIP3      H1             39.0342750341       25.9474562993      -57.9654599542  TIP3      15604           0.0000000000
     98327     16964  TIP3      H2             38.5957670691       24.5456618979      -57.6845332729  TIP3      15604           0.0000000000
     98328     16965  TIP3      OH2            35.4010413473       27.5952180649      -48.6020327486  TIP3      15605           0.0000000000
     98329     16965  TIP3      H1             34.9429544108       27.5304571216      -49.4624611961  TIP3      15605           0.0000000000
     98330     16965  TIP3      H2             35.4337380658       26.6472563953      -48.3734769767  TIP3      15605           0.0000000000
     98331     16966  TIP3      OH2            35.1666170042       30.3430398586      -51.7764687283  TIP3      15606           0.0000000000
     98332     16966  TIP3      H1             36.1261810331       30.2310239766      -51.7956413959  TIP3      15606           0.0000000000
     98333     16966  TIP3      H2             35.0707864001       31.1556547863      -51.2624697830  TIP3      15606           0.0000000000
     98334     16967  TIP3      OH2            38.3797379304       33.2020291151      -55.6314000080  TIP3      15607           0.0000000000
     98335     16967  TIP3      H1             38.5578220513       32.7862701960      -54.7607372861  TIP3      15607           0.0000000000
     98336     16967  TIP3      H2             37.5448565185       32.7588869672      -55.8526648086  TIP3      15607           0.0000000000
     98337     16968  TIP3      OH2            37.5750316064       28.9432948617      -47.5481079276  TIP3      15608           0.0000000000
     98338     16968  TIP3      H1             37.8581845416       28.5270760197      -46.7459523532  TIP3      15608           0.0000000000
     98339     16968  TIP3      H2             36.7623464020       28.4898049479      -47.8729054652  TIP3      15608           0.0000000000
     98340     16969  TIP3      OH2            40.2941488715       17.3864496455      -51.6773503028  TIP3      15609           0.0000000000
     98341     16969  TIP3      H1             39.4023128008       17.2922620692      -52.0748334789  TIP3      15609           0.0000000000
     98342     16969  TIP3      H2             40.2251495628       18.2680993474      -51.2799210402  TIP3      15609           0.0000000000
     98343     16970  TIP3      OH2            40.3886492602       22.5133777179      -49.7335285386  TIP3      15610           0.0000000000
     98344     16970  TIP3      H1             39.4507003081       22.2721274138      -49.6268034048  TIP3      15610           0.0000000000
     98345     16970  TIP3      H2             40.2784029771       23.0270275212      -50.5603736366  TIP3      15610           0.0000000000
     98346     16971  TIP3      OH2            40.1152495809       22.3345036685      -55.2882006950  TIP3      15611           0.0000000000
     98347     16971  TIP3      H1             39.2226658231       22.1661270928      -55.6572608542  TIP3      15611           0.0000000000
     98348     16971  TIP3      H2             40.7192291613       22.1172468076      -55.9980607226  TIP3      15611           0.0000000000
     98349     16972  TIP3      OH2            38.0142116790       22.6839755622      -48.6638262906  TIP3      15612           0.0000000000
     98350     16972  TIP3      H1             38.1038444290       23.0417726544      -47.7702216428  TIP3      15612           0.0000000000
     98351     16972  TIP3      H2             37.6580478551       21.7859813074      -48.5269017136  TIP3      15612           0.0000000000
     98352     16973  TIP3      OH2            34.7268359942       19.7280290957      -54.7512984992  TIP3      15613           0.0000000000
     98353     16973  TIP3      H1             35.4078487012       19.6928379684      -54.0511862770  TIP3      15613           0.0000000000
     98354     16973  TIP3      H2             35.1851256010       19.3615261449      -55.5302227987  TIP3      15613           0.0000000000
     98355     16974  TIP3      OH2            36.0432910966       20.4919630110      -59.3245138697  TIP3      15614           0.0000000000
     98356     16974  TIP3      H1             36.4583156422       21.0392161536      -60.0019248804  TIP3      15614           0.0000000000
     98357     16974  TIP3      H2             35.3070465569       21.0826273484      -59.0642122231  TIP3      15614           0.0000000000
     98358     16975  TIP3      OH2            37.7045822205       21.5642729075      -55.6900078543  TIP3      15615           0.0000000000
     98359     16975  TIP3      H1             36.8279658601       21.7136793406      -56.0815899227  TIP3      15615           0.0000000000
     98360     16975  TIP3      H2             38.0268076585       20.7060722535      -56.0242532598  TIP3      15615           0.0000000000
     98361     16976  TIP3      OH2            40.1527222291       22.7253768542      -60.4561913218  TIP3      15616           0.0000000000
     98362     16976  TIP3      H1             39.5542105466       22.4754598745      -61.1789407943  TIP3      15616           0.0000000000
     98363     16976  TIP3      H2             40.9340774562       23.0296644734      -60.9300019608  TIP3      15616           0.0000000000
     98364     16977  TIP3      OH2            39.0248312760       18.9173430920      -56.2899960645  TIP3      15617           0.0000000000
     98365     16977  TIP3      H1             38.8350541272       17.9638138621      -56.1712861554  TIP3      15617           0.0000000000
     98366     16977  TIP3      H2             39.9805047817       18.9073563572      -56.4655762090  TIP3      15617           0.0000000000
     98367     16978  TIP3      OH2            38.5676131491       26.7183984289      -52.7506127173  TIP3      15618           0.0000000000
     98368     16978  TIP3      H1             39.2786636017       26.6483337966      -53.4237454686  TIP3      15618           0.0000000000
     98369     16978  TIP3      H2             38.6534837475       25.8677879846      -52.2841455977  TIP3      15618           0.0000000000
     98370     16979  TIP3      OH2            35.5312807715       25.1644718517      -47.4566230626  TIP3      15619           0.0000000000
     98371     16979  TIP3      H1             35.8034486188       24.6812293775      -46.6642504863  TIP3      15619           0.0000000000
     98372     16979  TIP3      H2             34.9535701974       24.5332095029      -47.9226154272  TIP3      15619           0.0000000000
     98373     16980  TIP3      OH2            36.6886075799       25.0852542360      -60.8702873445  TIP3      15620           0.0000000000
     98374     16980  TIP3      H1             37.3068997252       25.6683825284      -60.4042260398  TIP3      15620           0.0000000000
     98375     16980  TIP3      H2             35.8226962813       25.3168203553      -60.5012098569  TIP3      15620           0.0000000000
     98376     16981  TIP3      OH2            37.2328385924       19.9104660968      -47.9161534369  TIP3      15621           0.0000000000
     98377     16981  TIP3      H1             36.3143361153       20.2242760929      -47.9809150436  TIP3      15621           0.0000000000
     98378     16981  TIP3      H2             37.1224721661       19.0406334038      -47.4885288351  TIP3      15621           0.0000000000
     98379     16982  TIP3      OH2            36.8562792419       31.6666251778      -49.5122423087  TIP3      15622           0.0000000000
     98380     16982  TIP3      H1             37.1175006680       30.7345854715      -49.4897941613  TIP3      15622           0.0000000000
     98381     16982  TIP3      H2             37.1050787269       31.9703950238      -48.6252409696  TIP3      15622           0.0000000000
     98382     16983  TIP3      OH2            38.0833988067       26.9781971376      -59.3276812476  TIP3      15623           0.0000000000
     98383     16983  TIP3      H1             37.4224518191       27.3728878363      -58.7207979199  TIP3      15623           0.0000000000
     98384     16983  TIP3      H2             38.6140860351       27.7591193738      -59.5315481015  TIP3      15623           0.0000000000
     98385     16984  TIP3      OH2           -41.1972945675       19.1067316782      -59.6674225499  TIP3      15624           0.0000000000
     98386     16984  TIP3      H1            -41.1671116750       19.9731088777      -59.2412552736  TIP3      15624           0.0000000000
     98387     16984  TIP3      H2            -40.2877327540       18.8307089505      -59.4585511620  TIP3      15624           0.0000000000
     98388     16985  TIP3      OH2            38.7130362085       29.5241931292      -60.3981951859  TIP3      15625           0.0000000000
     98389     16985  TIP3      H1             39.3074239004       30.2268713137      -60.1151599539  TIP3      15625           0.0000000000
     98390     16985  TIP3      H2             39.2151560364       29.1457017061      -61.1208194745  TIP3      15625           0.0000000000
     98391     16986  TIP3      OH2            37.8264694359       17.0263002336      -52.5647882469  TIP3      15626           0.0000000000
     98392     16986  TIP3      H1             37.6153968990       17.0665308748      -53.5218008793  TIP3      15626           0.0000000000
     98393     16986  TIP3      H2             37.4081939287       16.1840903557      -52.2822445751  TIP3      15626           0.0000000000
     98394     16987  TIP3      OH2            36.7735042801       30.9573250905      -56.4146097468  TIP3      15627           0.0000000000
     98395     16987  TIP3      H1             35.9232947271       31.4189291028      -56.4576160610  TIP3      15627           0.0000000000
     98396     16987  TIP3      H2             37.2835130654       31.4287882504      -57.0832776513  TIP3      15627           0.0000000000
     98397     16988  TIP3      OH2            35.9662630772       29.2526613179      -60.9103934157  TIP3      15628           0.0000000000
     98398     16988  TIP3      H1             36.9195604183       29.3381041622      -60.7066586167  TIP3      15628           0.0000000000
     98399     16988  TIP3      H2             35.9705086012       28.6531228865      -61.6682602182  TIP3      15628           0.0000000000
     98400     16989  TIP3      OH2            34.7043917903       34.6205693708      -55.9572956427  TIP3      15629           0.0000000000
     98401     16989  TIP3      H1             33.9776861595       34.1407404799      -56.4205875725  TIP3      15629           0.0000000000
     98402     16989  TIP3      H2             34.9876137115       33.9659450659      -55.2967012563  TIP3      15629           0.0000000000
     98403     16990  TIP3      OH2            35.5323673493       32.7535472355      -54.0902753510  TIP3      15630           0.0000000000
     98404     16990  TIP3      H1             35.1718627264       31.8787938677      -53.8836223285  TIP3      15630           0.0000000000
     98405     16990  TIP3      H2             35.7560243658       33.0895409187      -53.2067611802  TIP3      15630           0.0000000000
     98406     16991  TIP3      OH2            35.5542860534       25.8098317608      -51.6011745084  TIP3      15631           0.0000000000
     98407     16991  TIP3      H1             35.7724885155       25.7498687022      -52.5580007902  TIP3      15631           0.0000000000
     98408     16991  TIP3      H2             36.4487028847       25.6494366385      -51.2336989751  TIP3      15631           0.0000000000
     98409     16992  TIP3      OH2            36.3800893998       19.4082982244      -52.5644607349  TIP3      15632           0.0000000000
     98410     16992  TIP3      H1             36.9037103403       18.6015722152      -52.3683144039  TIP3      15632           0.0000000000
     98411     16992  TIP3      H2             36.9423196908       20.1116555436      -52.1995763232  TIP3      15632           0.0000000000
     98412     16993  TIP3      OH2            34.6746485365       22.4300318451      -51.5634395680  TIP3      15633           0.0000000000
     98413     16993  TIP3      H1             35.2629755402       22.1788050513      -52.3071263124  TIP3      15633           0.0000000000
     98414     16993  TIP3      H2             35.1462054554       23.2241043878      -51.2814774119  TIP3      15633           0.0000000000
     98415     16994  TIP3      OH2            35.0444787649       18.6917647088      -57.4883393896  TIP3      15634           0.0000000000
     98416     16994  TIP3      H1             34.0969995470       18.8635438188      -57.6109719449  TIP3      15634           0.0000000000
     98417     16994  TIP3      H2             35.4629390778       19.1845895276      -58.2138110538  TIP3      15634           0.0000000000
     98418     16995  TIP3      OH2            35.0068147379       17.3747584984      -49.1915051619  TIP3      15635           0.0000000000
     98419     16995  TIP3      H1             34.3359548757       17.1401715281      -48.5037985983  TIP3      15635           0.0000000000
     98420     16995  TIP3      H2             34.5127516990       18.0302155825      -49.7212368656  TIP3      15635           0.0000000000
     98421     16996  TIP3      OH2            40.1625952357       31.5386400040      -48.7189527777  TIP3      15636           0.0000000000
     98422     16996  TIP3      H1             39.7852779907       32.3950546646      -49.0023628273  TIP3      15636           0.0000000000
     98423     16996  TIP3      H2             41.0836724686       31.6617455324      -49.0239073281  TIP3      15636           0.0000000000
     98424     16997  TIP3      OH2            37.5428949371       34.7239058548      -48.7371932616  TIP3      15637           0.0000000000
     98425     16997  TIP3      H1             36.8214981038       35.2562649435      -49.1204670047  TIP3      15637           0.0000000000
     98426     16997  TIP3      H2             37.2054285740       34.6084784144      -47.8341026707  TIP3      15637           0.0000000000
     98427     16998  TIP3      OH2            39.8308930899       34.1285599360      -49.8545716280  TIP3      15638           0.0000000000
     98428     16998  TIP3      H1             39.1185475263       34.4841958141      -49.2728355174  TIP3      15638           0.0000000000
     98429     16998  TIP3      H2             39.9873208125       34.9222855632      -50.4134111101  TIP3      15638           0.0000000000
     98430     16999  TIP3      OH2            36.9545922706       33.4292416082      -51.7846175681  TIP3      15639           0.0000000000
     98431     16999  TIP3      H1             36.9450900921       33.0040135549      -50.9008547446  TIP3      15639           0.0000000000
     98432     16999  TIP3      H2             37.7910007564       33.0844036057      -52.1706125750  TIP3      15639           0.0000000000
     98433     17000  TIP3      OH2            39.0783325771       32.1598575576      -53.1223058356  TIP3      15640           0.0000000000
     98434     17000  TIP3      H1             38.8928081709       31.2217926115      -52.9131305254  TIP3      15640           0.0000000000
     98435     17000  TIP3      H2             39.9158176652       32.2872118638      -52.6578151493  TIP3      15640           0.0000000000
     98436     17001  TIP3      OH2            37.4886650694       16.9030311593      -55.2751701093  TIP3      15641           0.0000000000
     98437     17001  TIP3      H1             36.7025146017       16.6868340143      -55.8117876480  TIP3      15641           0.0000000000
     98438     17001  TIP3      H2             37.9694780322       16.0545842025      -55.3078021890  TIP3      15641           0.0000000000
     98439     17002  TIP3      OH2            36.2265106128       16.6683359803      -59.5802522356  TIP3      15642           0.0000000000
     98440     17002  TIP3      H1             36.7628449792       17.3000034689      -60.0967144209  TIP3      15642           0.0000000000
     98441     17002  TIP3      H2             35.6961447858       17.2468995150      -59.0058746415  TIP3      15642           0.0000000000
     98442     17003  TIP3      OH2            36.1924952581       32.6181509766      -58.5560047846  TIP3      15643           0.0000000000
     98443     17003  TIP3      H1             35.5185667320       32.6139022290      -59.2607433193  TIP3      15643           0.0000000000
     98444     17003  TIP3      H2             36.2046324773       33.5658109802      -58.3798464552  TIP3      15643           0.0000000000
     98445     17004  TIP3      OH2            38.0921883751       18.5277577367      -61.0177772187  TIP3      15644           0.0000000000
     98446     17004  TIP3      H1             38.6432849281       18.0282995931      -61.6255619454  TIP3      15644           0.0000000000
     98447     17004  TIP3      H2             38.7961715569       18.9144205368      -60.4493136823  TIP3      15644           0.0000000000
     98448     17005  TIP3      OH2            37.2274199824       17.0766833985      -46.0707871359  TIP3      15645           0.0000000000
     98449     17005  TIP3      H1             36.9199607265       16.5004371318      -45.3634742977  TIP3      15645           0.0000000000
     98450     17005  TIP3      H2             38.0916114395       17.2659938541      -45.6968043431  TIP3      15645           0.0000000000
     98451     17006  TIP3      OH2            38.0130141848       33.5832519665      -61.6024456741  TIP3      15646           0.0000000000
     98452     17006  TIP3      H1             37.7410278919       33.8850394991      -60.7211475195  TIP3      15646           0.0000000000
     98453     17006  TIP3      H2             38.8012630650       33.0615807706      -61.4412034897  TIP3      15646           0.0000000000
     98454     17007  TIP3      OH2           -22.9035240528       38.1462466342      -50.6918622009  TIP3      15647           0.0000000000
     98455     17007  TIP3      H1            -22.8116386977       38.7979787300      -49.9644727733  TIP3      15647           0.0000000000
     98456     17007  TIP3      H2            -22.4677851553       38.6411034551      -51.3948978371  TIP3      15647           0.0000000000
     98457     17008  TIP3      OH2           -35.2901927797       39.1399679637      -53.8934840848  TIP3      15648           0.0000000000
     98458     17008  TIP3      H1            -35.1989127630       39.9246274615      -54.4435260734  TIP3      15648           0.0000000000
     98459     17008  TIP3      H2            -35.7023418195       38.5549747285      -54.5732018902  TIP3      15648           0.0000000000
     98460     17009  TIP3      OH2           -27.5907824199       39.2093155007      -55.5684508566  TIP3      15649           0.0000000000
     98461     17009  TIP3      H1            -26.9410556583       38.9072218756      -54.8858978846  TIP3      15649           0.0000000000
     98462     17009  TIP3      H2            -26.9673940205       39.7599528827      -56.0706094077  TIP3      15649           0.0000000000
     98463     17010  TIP3      OH2           -22.4923498716       39.6110485126      -48.5020045010  TIP3      15650           0.0000000000
     98464     17010  TIP3      H1            -23.1601322334       40.2658749712      -48.6832734292  TIP3      15650           0.0000000000
     98465     17010  TIP3      H2            -22.5081774736       39.4975102658      -47.5337301912  TIP3      15650           0.0000000000
     98466     17011  TIP3      OH2           -36.3706997462       37.9935514729      -49.9134624175  TIP3      15651           0.0000000000
     98467     17011  TIP3      H1            -36.7465460711       38.5528913880      -50.6216167092  TIP3      15651           0.0000000000
     98468     17011  TIP3      H2            -37.0639935780       38.1962399857      -49.2202185063  TIP3      15651           0.0000000000
     98469     17012  TIP3      OH2           -25.7810339371       38.4972713595      -53.5761736494  TIP3      15652           0.0000000000
     98470     17012  TIP3      H1            -25.9998750557       37.7584860795      -53.0126717319  TIP3      15652           0.0000000000
     98471     17012  TIP3      H2            -25.1521475368       38.9997489508      -53.0308985883  TIP3      15652           0.0000000000
     98472     17013  TIP3      OH2           -36.7833224721       39.7612078405      -51.7502802306  TIP3      15653           0.0000000000
     98473     17013  TIP3      H1            -36.2845932189       40.5631667645      -51.5769313511  TIP3      15653           0.0000000000
     98474     17013  TIP3      H2            -36.3439959122       39.4539640241      -52.5828960929  TIP3      15653           0.0000000000
     98475     17014  TIP3      OH2           -25.4288471869       37.2767623732      -49.8325940970  TIP3      15654           0.0000000000
     98476     17014  TIP3      H1            -26.1821769864       37.8524587202      -50.0107702730  TIP3      15654           0.0000000000
     98477     17014  TIP3      H2            -24.7263233052       37.6544941654      -50.3977321005  TIP3      15654           0.0000000000
     98478     17015  TIP3      OH2           -32.4611861475       35.3465042706      -52.4375016019  TIP3      15655           0.0000000000
     98479     17015  TIP3      H1            -32.5939421939       34.3877177538      -52.4811184487  TIP3      15655           0.0000000000
     98480     17015  TIP3      H2            -33.3301067685       35.6583226573      -52.1086001937  TIP3      15655           0.0000000000
     98481     17016  TIP3      OH2           -24.1340679316       35.2588453760      -59.4245288066  TIP3      15656           0.0000000000
     98482     17016  TIP3      H1            -25.0768078321       35.4118304987      -59.1848211240  TIP3      15656           0.0000000000
     98483     17016  TIP3      H2            -23.9122724489       36.1112318976      -59.8395707929  TIP3      15656           0.0000000000
     98484     17017  TIP3      OH2           -35.0753672437       36.2462378913      -51.6953837928  TIP3      15657           0.0000000000
     98485     17017  TIP3      H1            -35.9908622050       36.1179407010      -52.0390905891  TIP3      15657           0.0000000000
     98486     17017  TIP3      H2            -35.2033626154       37.0698110670      -51.2003025607  TIP3      15657           0.0000000000
     98487     17018  TIP3      OH2           -30.4537974234       35.9516018432      -48.2813648551  TIP3      15658           0.0000000000
     98488     17018  TIP3      H1            -30.0632434203       35.5127589920      -47.5070709514  TIP3      15658           0.0000000000
     98489     17018  TIP3      H2            -31.4261627323       35.7828440339      -48.1537931148  TIP3      15658           0.0000000000
     98490     17019  TIP3      OH2           -27.2960848080       39.7440651970      -47.4516949173  TIP3      15659           0.0000000000
     98491     17019  TIP3      H1            -27.6091173947       39.5931412406      -46.5497915255  TIP3      15659           0.0000000000
     98492     17019  TIP3      H2            -27.3741877257       40.6856775578      -47.6124610976  TIP3      15659           0.0000000000
     98493     17020  TIP3      OH2           -30.8061503602       38.5007769967      -60.9532546713  TIP3      15660           0.0000000000
     98494     17020  TIP3      H1            -31.1083469009       38.4416252301      -60.0277302474  TIP3      15660           0.0000000000
     98495     17020  TIP3      H2            -31.0577183997       37.6234162476      -61.2569330889  TIP3      15660           0.0000000000
     98496     17021  TIP3      OH2           -39.9746383759       38.6956406620      -55.2369311035  TIP3      15661           0.0000000000
     98497     17021  TIP3      H1            -39.9735397853       38.4437969854      -54.2786578873  TIP3      15661           0.0000000000
     98498     17021  TIP3      H2            -39.9809695696       37.8439405237      -55.6982451435  TIP3      15661           0.0000000000
     98499     17022  TIP3      OH2           -39.2697595389       39.3270570376      -59.2550478151  TIP3      15662           0.0000000000
     98500     17022  TIP3      H1            -38.8607848253       39.9137254111      -59.9322156177  TIP3      15662           0.0000000000
     98501     17022  TIP3      H2            -39.9948438331       39.9450221040      -59.0739515534  TIP3      15662           0.0000000000
     98502     17023  TIP3      OH2           -32.4774508669       38.9014843984      -54.5390855606  TIP3      15663           0.0000000000
     98503     17023  TIP3      H1            -33.4129042223       38.8839280819      -54.2609996875  TIP3      15663           0.0000000000
     98504     17023  TIP3      H2            -31.9645697721       38.7419602744      -53.7311467132  TIP3      15663           0.0000000000
     98505     17024  TIP3      OH2           -37.6508169515       39.9260093707      -55.7707499269  TIP3      15664           0.0000000000
     98506     17024  TIP3      H1            -38.4712237193       40.2240727459      -56.1874101820  TIP3      15664           0.0000000000
     98507     17024  TIP3      H2            -37.3126008038       39.2198163811      -56.3451793479  TIP3      15664           0.0000000000
     98508     17025  TIP3      OH2           -33.9910911399      -41.0114834201      -58.1767211639  TIP3      15665           0.0000000000
     98509     17025  TIP3      H1            -33.0936957124      -40.8240170335      -57.8325592008  TIP3      15665           0.0000000000
     98510     17025  TIP3      H2            -34.2113645465      -40.2414521483      -58.7030207447  TIP3      15665           0.0000000000
     98511     17026  TIP3      OH2           -28.0419501069       38.0583779350      -51.2705710812  TIP3      15666           0.0000000000
     98512     17026  TIP3      H1            -28.7525299647       38.2072134329      -50.6206750867  TIP3      15666           0.0000000000
     98513     17026  TIP3      H2            -28.5514921514       37.9041119069      -52.0815035536  TIP3      15666           0.0000000000
     98514     17027  TIP3      OH2           -36.1705002033       37.7758030931      -56.2188856364  TIP3      15667           0.0000000000
     98515     17027  TIP3      H1            -36.4814037019       36.8552064657      -56.2466299608  TIP3      15667           0.0000000000
     98516     17027  TIP3      H2            -35.3767499226       37.7363425369      -56.7662639731  TIP3      15667           0.0000000000
     98517     17028  TIP3      OH2           -32.5206364853       39.9261768408      -50.3011366400  TIP3      15668           0.0000000000
     98518     17028  TIP3      H1            -33.3067747738       40.4211087036      -50.1415048302  TIP3      15668           0.0000000000
     98519     17028  TIP3      H2            -31.9906444110       40.2222294708      -49.5320934290  TIP3      15668           0.0000000000
     98520     17029  TIP3      OH2           -28.1013581582       39.0433985114      -60.3201655347  TIP3      15669           0.0000000000
     98521     17029  TIP3      H1            -29.0407975702       39.1795785578      -60.5239610174  TIP3      15669           0.0000000000
     98522     17029  TIP3      H2            -27.7748680752       39.9159048082      -60.0958543951  TIP3      15669           0.0000000000
     98523     17030  TIP3      OH2           -38.1060681167       38.6866022656      -48.0256893163  TIP3      15670           0.0000000000
     98524     17030  TIP3      H1            -38.9992716208       39.1080194068      -47.9398807276  TIP3      15670           0.0000000000
     98525     17030  TIP3      H2            -38.3380211631       37.9107239302      -47.4881381310  TIP3      15670           0.0000000000
     98526     17031  TIP3      OH2           -29.4904261506       38.5595627162      -49.0030892627  TIP3      15671           0.0000000000
     98527     17031  TIP3      H1            -28.7743591072       38.5422607957      -48.3555890825  TIP3      15671           0.0000000000
     98528     17031  TIP3      H2            -29.8830271052       37.6729018927      -48.8526285668  TIP3      15671           0.0000000000
     98529     17032  TIP3      OH2           -28.7446774545       38.1005828971      -57.8719772558  TIP3      15672           0.0000000000
     98530     17032  TIP3      H1            -28.4696047751       38.5296050809      -58.7067966442  TIP3      15672           0.0000000000
     98531     17032  TIP3      H2            -28.1521797624       38.5102505961      -57.2193814360  TIP3      15672           0.0000000000
     98532     17033  TIP3      OH2           -31.4809826853       39.8567961123      -57.0866422177  TIP3      15673           0.0000000000
     98533     17033  TIP3      H1            -30.6893800819       40.4080481315      -57.0075790074  TIP3      15673           0.0000000000
     98534     17033  TIP3      H2            -31.7771180162       39.7184480980      -56.1599439010  TIP3      15673           0.0000000000
     98535     17034  TIP3      OH2           -31.1465876399      -41.2469250481      -47.4315229521  TIP3      15674           0.0000000000
     98536     17034  TIP3      H1            -31.0485094882      -40.3290848469      -47.1268788671  TIP3      15674           0.0000000000
     98537     17034  TIP3      H2            -30.2934294059      -41.4721711891      -47.8360006402  TIP3      15674           0.0000000000
     98538     17035  TIP3      OH2           -30.6203320841       36.9081106822      -56.1417678416  TIP3      15675           0.0000000000
     98539     17035  TIP3      H1            -30.9637016651       37.5612250254      -55.4970036067  TIP3      15675           0.0000000000
     98540     17035  TIP3      H2            -29.9589193380       37.4483006451      -56.6407729632  TIP3      15675           0.0000000000
     98541     17036  TIP3      OH2           -34.9517053214       38.0059993035      -59.5012308122  TIP3      15676           0.0000000000
     98542     17036  TIP3      H1            -35.0243800062       38.8894322636      -59.0898085450  TIP3      15676           0.0000000000
     98543     17036  TIP3      H2            -34.0704411123       37.7292832997      -59.1900452445  TIP3      15676           0.0000000000
     98544     17037  TIP3      OH2           -24.7614264933       38.7600257267      -47.0626641038  TIP3      15677           0.0000000000
     98545     17037  TIP3      H1            -25.7034506052       38.9946941267      -47.1461881311  TIP3      15677           0.0000000000
     98546     17037  TIP3      H2            -24.4606292265       38.6546219547      -47.9673479197  TIP3      15677           0.0000000000
     98547     17038  TIP3      OH2           -37.5567833017       35.8635668474      -52.5753094685  TIP3      15678           0.0000000000
     98548     17038  TIP3      H1            -37.8179174697       35.9009619991      -53.5201563539  TIP3      15678           0.0000000000
     98549     17038  TIP3      H2            -38.0548553139       35.0780208321      -52.2937285373  TIP3      15678           0.0000000000
     98550     17039  TIP3      OH2           -34.3872262345       39.8050057257      -46.2919539093  TIP3      15679           0.0000000000
     98551     17039  TIP3      H1            -34.1918637684       39.0757774952      -46.9117490735  TIP3      15679           0.0000000000
     98552     17039  TIP3      H2            -34.2835258721       40.5887123763      -46.8272627233  TIP3      15679           0.0000000000
     98553     17040  TIP3      OH2           -33.9395949183       38.1896106216      -48.7521837417  TIP3      15680           0.0000000000
     98554     17040  TIP3      H1            -33.3681365564       38.5775614341      -49.4403876422  TIP3      15680           0.0000000000
     98555     17040  TIP3      H2            -34.8118731098       38.0725474670      -49.1955312570  TIP3      15680           0.0000000000
     98556     17041  TIP3      OH2           -33.0727240438       35.6379083891      -48.3935472080  TIP3      15681           0.0000000000
     98557     17041  TIP3      H1            -33.3003949345       36.5854305399      -48.4524573504  TIP3      15681           0.0000000000
     98558     17041  TIP3      H2            -33.8437660582       35.2495974100      -48.8371678024  TIP3      15681           0.0000000000
     98559     17042  TIP3      OH2           -24.8100031851       38.5561621863      -62.2024241340  TIP3      15682           0.0000000000
     98560     17042  TIP3      H1            -24.1666699724       38.2471612208      -61.5364137027  TIP3      15682           0.0000000000
     98561     17042  TIP3      H2            -25.6671235374       38.2155599962      -61.9472032160  TIP3      15682           0.0000000000
     98562     17043  TIP3      OH2           -25.1172838003       40.0841888934      -57.0326776633  TIP3      15683           0.0000000000
     98563     17043  TIP3      H1            -24.8062871728       39.1581829565      -57.0697032847  TIP3      15683           0.0000000000
     98564     17043  TIP3      H2            -24.4377584326       40.5430442327      -57.5638730572  TIP3      15683           0.0000000000
     98565     17044  TIP3      OH2           -24.1923451400      -41.0006826892      -51.1646061676  TIP3      15684           0.0000000000
     98566     17044  TIP3      H1            -23.6803606611      -40.4343561412      -51.7585467961  TIP3      15684           0.0000000000
     98567     17044  TIP3      H2            -24.8258761918      -40.4046301356      -50.7761480677  TIP3      15684           0.0000000000
     98568     17045  TIP3      OH2           -24.5098128255       37.4695503126      -57.1497653290  TIP3      15685           0.0000000000
     98569     17045  TIP3      H1            -24.3117688568       37.0198602667      -56.3009011986  TIP3      15685           0.0000000000
     98570     17045  TIP3      H2            -25.1363801388       36.8528926199      -57.5799650796  TIP3      15685           0.0000000000
     98571     17046  TIP3      OH2           -39.0445986571       38.2670023411      -52.6337057951  TIP3      15686           0.0000000000
     98572     17046  TIP3      H1            -38.5706189152       37.4692972229      -52.3272276546  TIP3      15686           0.0000000000
     98573     17046  TIP3      H2            -38.5769878136       38.9640289276      -52.1711822426  TIP3      15686           0.0000000000
     98574     17047  TIP3      OH2           -22.7018121543       37.5075807010      -60.5726449357  TIP3      15687           0.0000000000
     98575     17047  TIP3      H1            -22.2676301669       36.8389126534      -61.1156592502  TIP3      15687           0.0000000000
     98576     17047  TIP3      H2            -21.9969292077       38.1813681872      -60.5444174458  TIP3      15687           0.0000000000
     98577     17048  TIP3      OH2           -40.2118459728       37.4146880107      -57.4918354935  TIP3      15688           0.0000000000
     98578     17048  TIP3      H1            -41.1521691963       37.6005781155      -57.7252311799  TIP3      15688           0.0000000000
     98579     17048  TIP3      H2            -39.7721576022       38.0457764694      -58.0856932582  TIP3      15688           0.0000000000
     98580     17049  TIP3      OH2            41.0769273345       36.3404370543      -49.0912245095  TIP3      15689           0.0000000000
     98581     17049  TIP3      H1             40.4119953592       36.0272477334      -48.4758889220  TIP3      15689           0.0000000000
     98582     17049  TIP3      H2             40.5184513096       36.9304137115      -49.6279379290  TIP3      15689           0.0000000000
     98583     17050  TIP3      OH2           -23.6396548299       35.7508746258      -47.5212640776  TIP3      15690           0.0000000000
     98584     17050  TIP3      H1            -24.5304004859       35.9886446845      -47.8222992508  TIP3      15690           0.0000000000
     98585     17050  TIP3      H2            -23.5085109470       34.8720096113      -47.9324095194  TIP3      15690           0.0000000000
     98586     17051  TIP3      OH2           -30.3202703613       37.1544467357      -53.1553676525  TIP3      15691           0.0000000000
     98587     17051  TIP3      H1            -30.9528141570       36.4776269677      -52.8538593187  TIP3      15691           0.0000000000
     98588     17051  TIP3      H2            -29.7328162518       36.6280032109      -53.7152905455  TIP3      15691           0.0000000000
     98589     17052  TIP3      OH2           -25.1542585173       35.1947047440      -53.0651409696  TIP3      15692           0.0000000000
     98590     17052  TIP3      H1            -24.5341833864       35.7873432382      -53.5662145214  TIP3      15692           0.0000000000
     98591     17052  TIP3      H2            -26.0259879875       35.5799258859      -53.2955333020  TIP3      15692           0.0000000000
     98592     17053  TIP3      OH2           -23.4841918842       36.3781065052      -54.7863117219  TIP3      15693           0.0000000000
     98593     17053  TIP3      H1            -22.7671079015       35.8556673432      -55.2179301117  TIP3      15693           0.0000000000
     98594     17053  TIP3      H2            -23.0120036867       37.2344447893      -54.6632409862  TIP3      15693           0.0000000000
     98595     17054  TIP3      OH2           -37.9128260616       35.7268040641      -55.3036306683  TIP3      15694           0.0000000000
     98596     17054  TIP3      H1            -38.7317845208       35.5375917962      -55.8000384879  TIP3      15694           0.0000000000
     98597     17054  TIP3      H2            -37.4328036501       34.8822149343      -55.3519108317  TIP3      15694           0.0000000000
     98598     17055  TIP3      OH2           -39.1060779279       35.5106175771      -59.5164601627  TIP3      15695           0.0000000000
     98599     17055  TIP3      H1            -38.6659126490       36.1681260833      -60.0932205751  TIP3      15695           0.0000000000
     98600     17055  TIP3      H2            -39.7370758683       36.0461512986      -59.0184826746  TIP3      15695           0.0000000000
     98601     17056  TIP3      OH2           -33.4219815120       35.7176587380      -55.4931824513  TIP3      15696           0.0000000000
     98602     17056  TIP3      H1            -32.5114073783       36.0517894070      -55.5662955103  TIP3      15696           0.0000000000
     98603     17056  TIP3      H2            -33.4711245458       35.4694726169      -54.5704280706  TIP3      15696           0.0000000000
     98604     17057  TIP3      OH2           -27.7395612951       35.7198954550      -53.8709011860  TIP3      15697           0.0000000000
     98605     17057  TIP3      H1            -27.7721709608       35.8180631873      -54.8269151505  TIP3      15697           0.0000000000
     98606     17057  TIP3      H2            -28.1066202183       34.8115827731      -53.7437588719  TIP3      15697           0.0000000000
     98607     17058  TIP3      OH2           -26.4535837449       35.7837644262      -58.2115459814  TIP3      15698           0.0000000000
     98608     17058  TIP3      H1            -27.2027585419       36.3732372268      -58.3703848225  TIP3      15698           0.0000000000
     98609     17058  TIP3      H2            -26.8686018508       34.9214620438      -57.9833194686  TIP3      15698           0.0000000000
     98610     17059  TIP3      OH2           -37.3256398278       37.4317082793      -61.0298323955  TIP3      15699           0.0000000000
     98611     17059  TIP3      H1            -36.8035706501       36.8500210171      -61.5891452590  TIP3      15699           0.0000000000
     98612     17059  TIP3      H2            -36.6300481335       37.7862175072      -60.4469551884  TIP3      15699           0.0000000000
     98613     17060  TIP3      OH2           -32.2589932106       37.7137511928      -58.6476463533  TIP3      15700           0.0000000000
     98614     17060  TIP3      H1            -32.0227161809       37.1269630889      -57.9109043441  TIP3      15700           0.0000000000
     98615     17060  TIP3      H2            -32.2473316457       38.5738664182      -58.1639070616  TIP3      15700           0.0000000000
     98616     17061  TIP3      OH2           -38.1752080517       35.9087274455      -46.0857888672  TIP3      15701           0.0000000000
     98617     17061  TIP3      H1            -38.5239860630       35.3669370769      -45.3731603442  TIP3      15701           0.0000000000
     98618     17061  TIP3      H2            -37.3324048206       36.1353376763      -45.6975821771  TIP3      15701           0.0000000000
     98619     17062  TIP3      OH2            -4.0480692959       38.1465792653      -50.6916028494  TIP3      15702           0.0000000000
     98620     17062  TIP3      H1             -3.9545352597       38.7969545675      -49.9632565520  TIP3      15702           0.0000000000
     98621     17062  TIP3      H2             -3.6116565022       38.6411247438      -51.3945657703  TIP3      15702           0.0000000000
     98622     17063  TIP3      OH2           -16.4227342231       39.1348135542      -53.9071031179  TIP3      15703           0.0000000000
     98623     17063  TIP3      H1            -16.3462785571       39.9362535690      -54.4295401169  TIP3      15703           0.0000000000
     98624     17063  TIP3      H2            -16.8463705378       38.5506306707      -54.5796620081  TIP3      15703           0.0000000000
     98625     17064  TIP3      OH2            -8.7346831376       39.2092566382      -55.5686018350  TIP3      15704           0.0000000000
     98626     17064  TIP3      H1             -8.0850993235       38.9072104820      -54.8858538838  TIP3      15704           0.0000000000
     98627     17064  TIP3      H2             -8.1112409654       39.7599476678      -56.0705896552  TIP3      15704           0.0000000000
     98628     17065  TIP3      OH2            -3.6416150285       39.5985610497      -48.4937228074  TIP3      15705           0.0000000000
     98629     17065  TIP3      H1             -4.2984584755       40.2634120538      -48.6760065295  TIP3      15705           0.0000000000
     98630     17065  TIP3      H2             -3.6604789670       39.4841394589      -47.5226006043  TIP3      15705           0.0000000000
     98631     17066  TIP3      OH2           -17.5477395642       37.9565868538      -49.9086562221  TIP3      15706           0.0000000000
     98632     17066  TIP3      H1            -17.8410960913       38.5664544130      -50.6182140237  TIP3      15706           0.0000000000
     98633     17066  TIP3      H2            -18.1968557451       38.2382799390      -49.2166443158  TIP3      15706           0.0000000000
     98634     17067  TIP3      OH2            -6.9249549042       38.4974390912      -53.5763636138  TIP3      15707           0.0000000000
     98635     17067  TIP3      H1             -7.1438553513       37.7582813375      -53.0122166908  TIP3      15707           0.0000000000
     98636     17067  TIP3      H2             -6.2962871111       38.9998728190      -53.0308460305  TIP3      15707           0.0000000000
     98637     17068  TIP3      OH2           -17.9019810745       39.7575751485      -51.7689032844  TIP3      15708           0.0000000000
     98638     17068  TIP3      H1            -17.4057775325       40.5663350278      -51.5519223133  TIP3      15708           0.0000000000
     98639     17068  TIP3      H2            -17.4383247596       39.4556898336      -52.5862425830  TIP3      15708           0.0000000000
     98640     17069  TIP3      OH2            -6.5747058094       37.2744611327      -49.8387928167  TIP3      15709           0.0000000000
     98641     17069  TIP3      H1             -7.3266215602       37.8539696428      -50.0121187489  TIP3      15709           0.0000000000
     98642     17069  TIP3      H2             -5.8660131010       37.6558295483      -50.3954139337  TIP3      15709           0.0000000000
     98643     17070  TIP3      OH2           -13.6042634591       35.3538910861      -52.4360988148  TIP3      15710           0.0000000000
     98644     17070  TIP3      H1            -13.7454095792       34.3912449700      -52.4790573885  TIP3      15710           0.0000000000
     98645     17070  TIP3      H2            -14.4728501513       35.6665910508      -52.1084478267  TIP3      15710           0.0000000000
     98646     17071  TIP3      OH2            -5.2803736927       35.2587399680      -59.4249608188  TIP3      15711           0.0000000000
     98647     17071  TIP3      H1             -6.2220901641       35.4091600793      -59.1782741211  TIP3      15711           0.0000000000
     98648     17071  TIP3      H2             -5.0572695560       36.1116814526      -59.8388385402  TIP3      15711           0.0000000000
     98649     17072  TIP3      OH2           -16.2293131322       36.2505780660      -51.6932204139  TIP3      15712           0.0000000000
     98650     17072  TIP3      H1            -17.1435164738       36.1189874590      -52.0327412681  TIP3      15712           0.0000000000
     98651     17072  TIP3      H2            -16.3522824061       37.0812557718      -51.2031418479  TIP3      15712           0.0000000000
     98652     17073  TIP3      OH2           -11.6002797358       35.9510118281      -48.2818519186  TIP3      15713           0.0000000000
     98653     17073  TIP3      H1            -11.2069355844       35.5128944310      -47.5080156432  TIP3      15713           0.0000000000
     98654     17073  TIP3      H2            -12.5719513996       35.7827463901      -48.1524058240  TIP3      15713           0.0000000000
     98655     17074  TIP3      OH2            -8.4395671441       39.7431149071      -47.4506903295  TIP3      15714           0.0000000000
     98656     17074  TIP3      H1             -8.7510417491       39.5917410970      -46.5468210033  TIP3      15714           0.0000000000
     98657     17074  TIP3      H2             -8.5193814027       40.6848369264      -47.6114388190  TIP3      15714           0.0000000000
     98658     17075  TIP3      OH2           -11.9499400743       38.5006540731      -60.9534868397  TIP3      15715           0.0000000000
     98659     17075  TIP3      H1            -12.2524042197       38.4409833855      -60.0279314813  TIP3      15715           0.0000000000
     98660     17075  TIP3      H2            -12.2018871924       37.6233368253      -61.2568536796  TIP3      15715           0.0000000000
     98661     17076  TIP3      OH2           -21.8455008543       38.5960449335      -54.7390271635  TIP3      15716           0.0000000000
     98662     17076  TIP3      H1            -21.1728411957       38.5255528280      -54.0309368527  TIP3      15716           0.0000000000
     98663     17076  TIP3      H2            -21.3888635857       38.2374088386      -55.5255945977  TIP3      15716           0.0000000000
     98664     17077  TIP3      OH2           -20.6593946673       39.1815498999      -59.4074455927  TIP3      15717           0.0000000000
     98665     17077  TIP3      H1            -20.1184197340       39.8410593737      -59.9028054112  TIP3      15717           0.0000000000
     98666     17077  TIP3      H2            -21.2628307619       39.8553048318      -59.0588501408  TIP3      15717           0.0000000000
     98667     17078  TIP3      OH2           -13.6164112094       38.8877338117      -54.5451698459  TIP3      15718           0.0000000000
     98668     17078  TIP3      H1            -14.5530079880       38.8821773765      -54.2666441620  TIP3      15718           0.0000000000
     98669     17078  TIP3      H2            -13.1072083023       38.7395974144      -53.7327547637  TIP3      15718           0.0000000000
     98670     17079  TIP3      OH2           -18.9146641372       39.8353508560      -55.7217418919  TIP3      15719           0.0000000000
     98671     17079  TIP3      H1            -19.6029294041       40.2705382069      -56.2324424937  TIP3      15719           0.0000000000
     98672     17079  TIP3      H2            -18.4214213171       39.2675326524      -56.3466525085  TIP3      15719           0.0000000000
     98673     17080  TIP3      OH2           -15.1414524435      -41.0107230830      -58.1781693427  TIP3      15720           0.0000000000
     98674     17080  TIP3      H1            -14.2435721957      -40.8186927683      -57.8416010285  TIP3      15720           0.0000000000
     98675     17080  TIP3      H2            -15.3631359947      -40.2425193157      -58.7055929738  TIP3      15720           0.0000000000
     98676     17081  TIP3      OH2            -9.1859551761       38.0591897986      -51.2708667569  TIP3      15721           0.0000000000
     98677     17081  TIP3      H1             -9.8969356925       38.2073154935      -50.6203439072  TIP3      15721           0.0000000000
     98678     17081  TIP3      H2             -9.6957948128       37.9036749827      -52.0815223268  TIP3      15721           0.0000000000
     98679     17082  TIP3      OH2           -17.2826139959       37.7679426123      -56.1998438808  TIP3      15722           0.0000000000
     98680     17082  TIP3      H1            -17.6113590876       36.8544237104      -56.2453585733  TIP3      15722           0.0000000000
     98681     17082  TIP3      H2            -16.5178825022       37.7336586263      -56.7792955493  TIP3      15722           0.0000000000
     98682     17083  TIP3      OH2           -13.6740258235       39.9183945292      -50.2974528435  TIP3      15723           0.0000000000
     98683     17083  TIP3      H1            -14.4519846592       40.4579448021      -50.1597775051  TIP3      15723           0.0000000000
     98684     17083  TIP3      H2            -13.1577111704       40.2443789262      -49.5317991204  TIP3      15723           0.0000000000
     98685     17084  TIP3      OH2            -9.2453074751       39.0433652497      -60.3202738253  TIP3      15724           0.0000000000
     98686     17084  TIP3      H1            -10.1847390368       39.1797616526      -60.5237626179  TIP3      15724           0.0000000000
     98687     17084  TIP3      H2             -8.9188732750       39.9158083060      -60.0956873788  TIP3      15724           0.0000000000
     98688     17085  TIP3      OH2           -19.3506861900       38.7335316359      -47.9082439687  TIP3      15725           0.0000000000
     98689     17085  TIP3      H1            -20.2524531332       39.0742447104      -48.0089738812  TIP3      15725           0.0000000000
     98690     17085  TIP3      H2            -19.5052719726       37.8783318625      -47.4801554547  TIP3      15725           0.0000000000
     98691     17086  TIP3      OH2           -10.6337218828       38.5594349689      -49.0052400967  TIP3      15726           0.0000000000
     98692     17086  TIP3      H1             -9.9198453662       38.5432313413      -48.3548639954  TIP3      15726           0.0000000000
     98693     17086  TIP3      H2            -11.0275175685       37.6735213680      -48.8524558224  TIP3      15726           0.0000000000
     98694     17087  TIP3      OH2            -9.8887888868       38.1007819255      -57.8719749100  TIP3      15727           0.0000000000
     98695     17087  TIP3      H1             -9.6136490730       38.5295821209      -58.7068207699  TIP3      15727           0.0000000000
     98696     17087  TIP3      H2             -9.2961576844       38.5101911632      -57.2193624423  TIP3      15727           0.0000000000
     98697     17088  TIP3      OH2           -12.6213517188       39.8576367648      -57.0934618803  TIP3      15728           0.0000000000
     98698     17088  TIP3      H1            -11.8316108178       40.4094117977      -57.0096944885  TIP3      15728           0.0000000000
     98699     17088  TIP3      H2            -12.9119612490       39.7173692047      -56.1675552026  TIP3      15728           0.0000000000
     98700     17089  TIP3      OH2           -12.2656197073      -41.2607516123      -47.3921278862  TIP3      15729           0.0000000000
     98701     17089  TIP3      H1            -12.2124425824      -40.3220805613      -47.1449593186  TIP3      15729           0.0000000000
     98702     17089  TIP3      H2            -11.4354483375      -41.4597049422      -47.8488354812  TIP3      15729           0.0000000000
     98703     17090  TIP3      OH2           -11.7612018586       36.9044392673      -56.1438427003  TIP3      15730           0.0000000000
     98704     17090  TIP3      H1            -12.1071754703       37.5571341101      -55.5016670476  TIP3      15730           0.0000000000
     98705     17090  TIP3      H2            -11.1018591777       37.4466229724      -56.6429902923  TIP3      15730           0.0000000000
     98706     17091  TIP3      OH2           -16.0937693524       38.0106249672      -59.5035712604  TIP3      15731           0.0000000000
     98707     17091  TIP3      H1            -16.1686333449       38.8892721570      -59.0833845491  TIP3      15731           0.0000000000
     98708     17091  TIP3      H2            -15.2132731448       37.7301214011      -59.1909546539  TIP3      15731           0.0000000000
     98709     17092  TIP3      OH2            -5.9043811542       38.7633274486      -47.0612244032  TIP3      15732           0.0000000000
     98710     17092  TIP3      H1             -6.8485793690       38.9947752320      -47.1472980971  TIP3      15732           0.0000000000
     98711     17092  TIP3      H2             -5.5996264733       38.6544726238      -47.9624529948  TIP3      15732           0.0000000000
     98712     17093  TIP3      OH2           -18.7374478980       35.8905432624      -52.5508063997  TIP3      15733           0.0000000000
     98713     17093  TIP3      H1            -18.9372402507       35.9121128170      -53.5126495376  TIP3      15733           0.0000000000
     98714     17093  TIP3      H2            -19.1610330864       35.0465504783      -52.3020493560  TIP3      15733           0.0000000000
     98715     17094  TIP3      OH2           -15.5571220593       39.8070114029      -46.2540638376  TIP3      15734           0.0000000000
     98716     17094  TIP3      H1            -15.3366793872       39.0943411735      -46.8969328105  TIP3      15734           0.0000000000
     98717     17094  TIP3      H2            -15.4327059831       40.5799812950      -46.8293687280  TIP3      15734           0.0000000000
     98718     17095  TIP3      OH2           -15.0766032001       38.1602135797      -48.7606354582  TIP3      15735           0.0000000000
     98719     17095  TIP3      H1            -14.5189306698       38.6078376457      -49.4272594971  TIP3      15735           0.0000000000
     98720     17095  TIP3      H2            -15.9547022651       38.0872520423      -49.1969935072  TIP3      15735           0.0000000000
     98721     17096  TIP3      OH2           -14.2289083075       35.6406214137      -48.3848610943  TIP3      15736           0.0000000000
     98722     17096  TIP3      H1            -14.4469832242       36.5914514067      -48.4532468583  TIP3      15736           0.0000000000
     98723     17096  TIP3      H2            -14.9960584718       35.2578882743      -48.8404033788  TIP3      15736           0.0000000000
     98724     17097  TIP3      OH2            -5.9539891583       38.5541364591      -62.2025504857  TIP3      15737           0.0000000000
     98725     17097  TIP3      H1             -5.3125778064       38.2458656138      -61.5334783737  TIP3      15737           0.0000000000
     98726     17097  TIP3      H2             -6.8120866262       38.2172862941      -61.9468021905  TIP3      15737           0.0000000000
     98727     17098  TIP3      OH2            -6.2612092368       40.0841998647      -57.0327898154  TIP3      15738           0.0000000000
     98728     17098  TIP3      H1             -5.9502921830       39.1581480386      -57.0696932471  TIP3      15738           0.0000000000
     98729     17098  TIP3      H2             -5.5817093976       40.5430222599      -57.5638335504  TIP3      15738           0.0000000000
     98730     17099  TIP3      OH2            -5.3372097976      -40.9997659716      -51.1643955003  TIP3      15739           0.0000000000
     98731     17099  TIP3      H1             -4.8243866856      -40.4340045067      -51.7586162440  TIP3      15739           0.0000000000
     98732     17099  TIP3      H2             -5.9721419563      -40.4038591530      -50.7753284753  TIP3      15739           0.0000000000
     98733     17100  TIP3      OH2            -5.6538173327       37.4696342013      -57.1497358011  TIP3      15740           0.0000000000
     98734     17100  TIP3      H1             -5.4557635857       37.0198677743      -56.3009019488  TIP3      15740           0.0000000000
     98735     17100  TIP3      H2             -6.2803700319       36.8529355618      -57.5799293282  TIP3      15740           0.0000000000
     98736     17101  TIP3      OH2           -20.1679592905       38.2862799595      -52.5937195101  TIP3      15741           0.0000000000
     98737     17101  TIP3      H1            -19.7057210290       37.4614666225      -52.3389041713  TIP3      15741           0.0000000000
     98738     17101  TIP3      H2            -19.6320037647       38.9715013198      -52.1736274998  TIP3      15741           0.0000000000
     98739     17102  TIP3      OH2            -3.8435028074       37.5081462203      -60.5764228886  TIP3      15742           0.0000000000
     98740     17102  TIP3      H1             -3.4116647230       36.8384673585      -61.1159201543  TIP3      15742           0.0000000000
     98741     17102  TIP3      H2             -3.1404244240       38.1814645695      -60.5437658940  TIP3      15742           0.0000000000
     98742     17103  TIP3      OH2           -21.5258288460       37.4888452444      -57.5082243402  TIP3      15743           0.0000000000
     98743     17103  TIP3      H1            -22.4643265025       37.7096900929      -57.6183733482  TIP3      15743           0.0000000000
     98744     17103  TIP3      H2            -21.1030348356       38.0256709632      -58.1976904577  TIP3      15743           0.0000000000
     98745     17104  TIP3      OH2           -21.5817952237       36.2579031116      -49.1886611001  TIP3      15744           0.0000000000
     98746     17104  TIP3      H1            -22.2496092808       36.0429844885      -48.5029446867  TIP3      15744           0.0000000000
     98747     17104  TIP3      H2            -22.0680192668       36.9105520434      -49.7304996678  TIP3      15744           0.0000000000
     98748     17105  TIP3      OH2            -4.7828358880       35.7535717595      -47.5173537226  TIP3      15745           0.0000000000
     98749     17105  TIP3      H1             -5.6748334347       35.9884403957      -47.8204334502  TIP3      15745           0.0000000000
     98750     17105  TIP3      H2             -4.6514323931       34.8739993177      -47.9274012900  TIP3      15745           0.0000000000
     98751     17106  TIP3      OH2           -11.4532293459       37.1562353624      -53.1523985604  TIP3      15746           0.0000000000
     98752     17106  TIP3      H1            -12.0935390322       36.4851725015      -52.8543309428  TIP3      15746           0.0000000000
     98753     17106  TIP3      H2            -10.8744412916       36.6277835488      -53.7163857520  TIP3      15746           0.0000000000
     98754     17107  TIP3      OH2            -6.2983265859       35.1956365219      -53.0665779161  TIP3      15747           0.0000000000
     98755     17107  TIP3      H1             -5.6778762178       35.7884819665      -53.5670170460  TIP3      15747           0.0000000000
     98756     17107  TIP3      H2             -7.1705904440       35.5806626929      -53.2959019569  TIP3      15747           0.0000000000
     98757     17108  TIP3      OH2            -4.6276971276       36.3791129720      -54.7865882777  TIP3      15748           0.0000000000
     98758     17108  TIP3      H1             -3.9110065328       35.8554747936      -55.2171309571  TIP3      15748           0.0000000000
     98759     17108  TIP3      H2             -4.1546822953       37.2358618333      -54.6663197927  TIP3      15748           0.0000000000
     98760     17109  TIP3      OH2           -19.0572241112       35.7515615786      -55.3014219902  TIP3      15749           0.0000000000
     98761     17109  TIP3      H1            -19.8625423594       35.5546186872      -55.8129849862  TIP3      15749           0.0000000000
     98762     17109  TIP3      H2            -18.5945792694       34.8945862719      -55.3452342211  TIP3      15749           0.0000000000
     98763     17110  TIP3      OH2           -20.3131987279       35.5336963754      -59.5893994333  TIP3      15750           0.0000000000
     98764     17110  TIP3      H1            -19.7978621314       36.1899760825      -60.0994893824  TIP3      15750           0.0000000000
     98765     17110  TIP3      H2            -20.8533426714       36.0958160747      -59.0064211959  TIP3      15750           0.0000000000
     98766     17111  TIP3      OH2           -14.5723755440       35.7171633469      -55.4914653924  TIP3      15751           0.0000000000
     98767     17111  TIP3      H1            -13.6609732528       36.0428393651      -55.5639813902  TIP3      15751           0.0000000000
     98768     17111  TIP3      H2            -14.6177626794       35.4719871782      -54.5682485377  TIP3      15751           0.0000000000
     98769     17112  TIP3      OH2            -8.8832842482       35.7196871913      -53.8710929357  TIP3      15752           0.0000000000
     98770     17112  TIP3      H1             -8.9162405850       35.8180659247      -54.8270358417  TIP3      15752           0.0000000000
     98771     17112  TIP3      H2             -9.2505705945       34.8115876523      -53.7436975859  TIP3      15752           0.0000000000
     98772     17113  TIP3      OH2            -7.5975551206       35.7837458090      -58.2115371817  TIP3      15753           0.0000000000
     98773     17113  TIP3      H1             -8.3467882509       36.3732084595      -58.3703945639  TIP3      15753           0.0000000000
     98774     17113  TIP3      H2             -8.0126598900       34.9214491676      -57.9833034649  TIP3      15753           0.0000000000
     98775     17114  TIP3      OH2           -18.4686053247       37.4195641265      -61.0319687191  TIP3      15754           0.0000000000
     98776     17114  TIP3      H1            -17.9316530572       36.8502939249      -61.5837846226  TIP3      15754           0.0000000000
     98777     17114  TIP3      H2            -17.7817934423       37.7885696269      -60.4415674614  TIP3      15754           0.0000000000
     98778     17115  TIP3      OH2           -13.4032515820       37.7159703101      -58.6486066831  TIP3      15755           0.0000000000
     98779     17115  TIP3      H1            -13.1645429757       37.1275329403      -57.9148909181  TIP3      15755           0.0000000000
     98780     17115  TIP3      H2            -13.3910825941       38.5752084386      -58.1615925523  TIP3      15755           0.0000000000
     98781     17116  TIP3      OH2           -19.3569737415       35.9724796845      -46.0063356381  TIP3      15756           0.0000000000
     98782     17116  TIP3      H1            -19.6436207667       35.3244146863      -45.3511673487  TIP3      15756           0.0000000000
     98783     17116  TIP3      H2            -18.4492828079       36.0720435747      -45.7219193436  TIP3      15756           0.0000000000
     98784     17117  TIP3      OH2            14.8080191643       38.1462330879      -50.6917546020  TIP3      15757           0.0000000000
     98785     17117  TIP3      H1             14.9015503439       38.7971962008      -49.9637012150  TIP3      15757           0.0000000000
     98786     17117  TIP3      H2             15.2443703209       38.6410365994      -51.3945664251  TIP3      15757           0.0000000000
     98787     17118  TIP3      OH2             2.4333646991       39.1347518416      -53.9071239033  TIP3      15758           0.0000000000
     98788     17118  TIP3      H1              2.5097131407       39.9362695817      -54.4295276739  TIP3      15758           0.0000000000
     98789     17118  TIP3      H2              2.0096254620       38.5506424136      -54.5796770451  TIP3      15758           0.0000000000
     98790     17119  TIP3      OH2            10.1212718580       39.2095549171      -55.5685232484  TIP3      15759           0.0000000000
     98791     17119  TIP3      H1             10.7708758319       38.9072284049      -54.8859101309  TIP3      15759           0.0000000000
     98792     17119  TIP3      H2             10.7448277346       39.7599982993      -56.0706395978  TIP3      15759           0.0000000000
     98793     17120  TIP3      OH2            15.2188647989       39.6094761792      -48.5050786590  TIP3      15760           0.0000000000
     98794     17120  TIP3      H1             14.5531957772       40.2658879687      -48.6777946999  TIP3      15760           0.0000000000
     98795     17120  TIP3      H2             15.2032691633       39.4901838500      -47.5349368306  TIP3      15760           0.0000000000
     98796     17121  TIP3      OH2             1.3103606051       37.9578787546      -49.9090485082  TIP3      15761           0.0000000000
     98797     17121  TIP3      H1              1.0144766519       38.5661958808      -50.6187118018  TIP3      15761           0.0000000000
     98798     17121  TIP3      H2              0.6577329905       38.2379416488      -49.2179662560  TIP3      15761           0.0000000000
     98799     17122  TIP3      OH2            11.9310445921       38.4974224877      -53.5763167900  TIP3      15762           0.0000000000
     98800     17122  TIP3      H1             11.7121639496       37.7582808520      -53.0122177065  TIP3      15762           0.0000000000
     98801     17122  TIP3      H2             12.5597541326       38.9999151942      -53.0308694799  TIP3      15762           0.0000000000
     98802     17123  TIP3      OH2             0.9528767095       39.7577898731      -51.7705599514  TIP3      15763           0.0000000000
     98803     17123  TIP3      H1              1.4500352098       40.5652552554      -51.5521780158  TIP3      15763           0.0000000000
     98804     17123  TIP3      H2              1.4178480629       39.4561129291      -52.5869613158  TIP3      15763           0.0000000000
     98805     17124  TIP3      OH2            12.2841402809       37.2768067586      -49.8325868431  TIP3      15764           0.0000000000
     98806     17124  TIP3      H1             11.5304688482       37.8525630300      -50.0111225568  TIP3      15764           0.0000000000
     98807     17124  TIP3      H2             12.9913311615       37.6551644832      -50.3935611675  TIP3      15764           0.0000000000
     98808     17125  TIP3      OH2             5.2517414910       35.3538786193      -52.4360685647  TIP3      15765           0.0000000000
     98809     17125  TIP3      H1              5.1105778064       34.3912088900      -52.4790584749  TIP3      15765           0.0000000000
     98810     17125  TIP3      H2              4.3831500675       35.6665875083      -52.1084502165  TIP3      15765           0.0000000000
     98811     17126  TIP3      OH2            13.5778233593       35.2593573104      -59.4260893643  TIP3      15766           0.0000000000
     98812     17126  TIP3      H1             12.6358282445       35.4130728996      -59.1884842793  TIP3      15766           0.0000000000
     98813     17126  TIP3      H2             13.8013611346       36.1120932511      -59.8396983615  TIP3      15766           0.0000000000
     98814     17127  TIP3      OH2             2.6268182663       36.2506103433      -51.6931931954  TIP3      15767           0.0000000000
     98815     17127  TIP3      H1              1.7125289460       36.1190354960      -52.0326803627  TIP3      15767           0.0000000000
     98816     17127  TIP3      H2              2.5036382502       37.0812718261      -51.2031067633  TIP3      15767           0.0000000000
     98817     17128  TIP3      OH2             7.2561981617       35.9502368053      -48.2820752312  TIP3      15768           0.0000000000
     98818     17128  TIP3      H1              7.6485717018       35.5138912833      -47.5071319426  TIP3      15768           0.0000000000
     98819     17128  TIP3      H2              6.2842314049       35.7829290511      -48.1525354070  TIP3      15768           0.0000000000
     98820     17129  TIP3      OH2            10.4169417186       39.7440744593      -47.4515640484  TIP3      15769           0.0000000000
     98821     17129  TIP3      H1             10.1020766786       39.5918862155      -46.5503502441  TIP3      15769           0.0000000000
     98822     17129  TIP3      H2             10.3367122481       40.6855305747      -47.6122676617  TIP3      15769           0.0000000000
     98823     17130  TIP3      OH2             6.9054084832       38.5004397044      -60.9531718224  TIP3      15770           0.0000000000
     98824     17130  TIP3      H1              6.6032959417       38.4419280887      -60.0275905528  TIP3      15770           0.0000000000
     98825     17130  TIP3      H2              6.6537659484       37.6231747762      -61.2570875123  TIP3      15770           0.0000000000
     98826     17131  TIP3      OH2            -2.9894764482       38.5960888026      -54.7391237345  TIP3      15771           0.0000000000
     98827     17131  TIP3      H1             -2.3168389384       38.5255512710      -54.0309799402  TIP3      15771           0.0000000000
     98828     17131  TIP3      H2             -2.5327876721       38.2374089256      -55.5256079929  TIP3      15771           0.0000000000
     98829     17132  TIP3      OH2            -1.8068010652       39.1804000974      -59.4029327875  TIP3      15772           0.0000000000
     98830     17132  TIP3      H1             -1.2617258598       39.8434172117      -59.8853881130  TIP3      15772           0.0000000000
     98831     17132  TIP3      H2             -2.4105150806       39.8542195977      -59.0564271748  TIP3      15772           0.0000000000
     98832     17133  TIP3      OH2             5.2395966796       38.8876876416      -54.5451712945  TIP3      15773           0.0000000000
     98833     17133  TIP3      H1              4.3029900234       38.8822071233      -54.2666614617  TIP3      15773           0.0000000000
     98834     17133  TIP3      H2              5.7487921649       38.7396252057      -53.7327536161  TIP3      15773           0.0000000000
     98835     17134  TIP3      OH2            -0.0587246309       39.8352475818      -55.7217216486  TIP3      15774           0.0000000000
     98836     17134  TIP3      H1             -0.7469331164       40.2705343648      -56.2323878490  TIP3      15774           0.0000000000
     98837     17134  TIP3      H2              0.4346511875       39.2675892936      -56.3466481090  TIP3      15774           0.0000000000
     98838     17135  TIP3      OH2             3.7152669739      -41.0105849846      -58.1772561940  TIP3      15775           0.0000000000
     98839     17135  TIP3      H1              4.6134687641      -40.8193716767      -57.8399391423  TIP3      15775           0.0000000000
     98840     17135  TIP3      H2              3.4935891138      -40.2426475761      -58.7054286505  TIP3      15775           0.0000000000
     98841     17136  TIP3      OH2             9.6689877552       38.0562250415      -51.2716560547  TIP3      15776           0.0000000000
     98842     17136  TIP3      H1              8.9593090004       38.2072476302      -50.6204839679  TIP3      15776           0.0000000000
     98843     17136  TIP3      H2              9.1602281958       37.9037589997      -52.0815567364  TIP3      15776           0.0000000000
     98844     17137  TIP3      OH2             1.5732827064       37.7679276216      -56.2000319651  TIP3      15777           0.0000000000
     98845     17137  TIP3      H1              1.2447098369       36.8543726593      -56.2452182236  TIP3      15777           0.0000000000
     98846     17137  TIP3      H2              2.3382277588       37.7337027140      -56.7792391987  TIP3      15777           0.0000000000
     98847     17138  TIP3      OH2             5.1815147155       39.9182479769      -50.2980034300  TIP3      15778           0.0000000000
     98848     17138  TIP3      H1              4.4038941097       40.4578173422      -50.1595592895  TIP3      15778           0.0000000000
     98849     17138  TIP3      H2              5.6979470805       40.2446660501      -49.5325613090  TIP3      15778           0.0000000000
     98850     17139  TIP3      OH2             9.6105036983       39.0432035131      -60.3203244597  TIP3      15779           0.0000000000
     98851     17139  TIP3      H1              8.6710482961       39.1794033400      -60.5238906096  TIP3      15779           0.0000000000
     98852     17139  TIP3      H2              9.9369091522       39.9155567522      -60.0953425525  TIP3      15779           0.0000000000
     98853     17140  TIP3      OH2            -0.4997563245       38.7240799328      -47.9425515750  TIP3      15780           0.0000000000
     98854     17140  TIP3      H1             -1.3997707302       39.0776213113      -47.9946380150  TIP3      15780           0.0000000000
     98855     17140  TIP3      H2             -0.6377832593       37.8932830291      -47.4653560886  TIP3      15780           0.0000000000
     98856     17141  TIP3      OH2             8.2224526074       38.5593491555      -49.0052479286  TIP3      15781           0.0000000000
     98857     17141  TIP3      H1              8.9363300194       38.5429386906      -48.3549915043  TIP3      15781           0.0000000000
     98858     17141  TIP3      H2              7.8284587801       37.6735576000      -48.8524357710  TIP3      15781           0.0000000000
     98859     17142  TIP3      OH2             8.9671635775       38.1008153836      -57.8719684337  TIP3      15782           0.0000000000
     98860     17142  TIP3      H1              9.2423287887       38.5295238093      -58.7068512944  TIP3      15782           0.0000000000
     98861     17142  TIP3      H2              9.5598576817       38.5101701701      -57.2193656885  TIP3      15782           0.0000000000
     98862     17143  TIP3      OH2             6.2346310581       39.8575845718      -57.0934714885  TIP3      15783           0.0000000000
     98863     17143  TIP3      H1              7.0243588488       40.4093719728      -57.0096781125  TIP3      15783           0.0000000000
     98864     17143  TIP3      H2              5.9440371909       39.7173622349      -56.1675403485  TIP3      15783           0.0000000000
     98865     17144  TIP3      OH2             6.5919520724      -41.2606037520      -47.3939763579  TIP3      15784           0.0000000000
     98866     17144  TIP3      H1              6.6435840718      -40.3220095720      -47.1456009907  TIP3      15784           0.0000000000
     98867     17144  TIP3      H2              7.4223063307      -41.4596429064      -47.8501717340  TIP3      15784           0.0000000000
     98868     17145  TIP3      OH2             7.0948529908       36.9045250549      -56.1438772803  TIP3      15785           0.0000000000
     98869     17145  TIP3      H1              6.7488266431       37.5571137376      -55.5016531238  TIP3      15785           0.0000000000
     98870     17145  TIP3      H2              7.7541262837       37.4468883118      -56.6429500664  TIP3      15785           0.0000000000
     98871     17146  TIP3      OH2             2.7606568006       38.0094404800      -59.5019623009  TIP3      15786           0.0000000000
     98872     17146  TIP3      H1              2.6881865497       38.8891663843      -59.0830376592  TIP3      15786           0.0000000000
     98873     17146  TIP3      H2              3.6427686225       37.7292340332      -59.1933209150  TIP3      15786           0.0000000000
     98874     17147  TIP3      OH2            12.9515267727       38.7601088486      -47.0616099323  TIP3      15787           0.0000000000
     98875     17147  TIP3      H1             12.0079021382       38.9947847647      -47.1468096080  TIP3      15787           0.0000000000
     98876     17147  TIP3      H2             13.2567728106       38.6555525165      -47.9622313295  TIP3      15787           0.0000000000
     98877     17148  TIP3      OH2             0.1189844276       35.8910621604      -52.5507626365  TIP3      15788           0.0000000000
     98878     17148  TIP3      H1             -0.0813011266       35.9116389114      -53.5125412858  TIP3      15788           0.0000000000
     98879     17148  TIP3      H2             -0.3060955793       35.0484752795      -52.3000110222  TIP3      15788           0.0000000000
     98880     17149  TIP3      OH2             3.3366338129       39.8032378609      -46.2750862595  TIP3      15789           0.0000000000
     98881     17149  TIP3      H1              3.5166596764       39.0852669334      -46.9112858998  TIP3      15789           0.0000000000
     98882     17149  TIP3      H2              3.4159066696       40.5878561987      -46.8324785408  TIP3      15789           0.0000000000
     98883     17150  TIP3      OH2             3.7790818841       38.1597637073      -48.7607309515  TIP3      15790           0.0000000000
     98884     17150  TIP3      H1              4.3372000197       38.6077965374      -49.4270541946  TIP3      15790           0.0000000000
     98885     17150  TIP3      H2              2.9011572407       38.0858439025      -49.1981115229  TIP3      15790           0.0000000000
     98886     17151  TIP3      OH2             4.6257610578       35.6416284466      -48.3848901552  TIP3      15791           0.0000000000
     98887     17151  TIP3      H1              4.4099592502       36.5907534737      -48.4532983507  TIP3      15791           0.0000000000
     98888     17151  TIP3      H2              3.8603474917       35.2576864727      -48.8401121752  TIP3      15791           0.0000000000
     98889     17152  TIP3      OH2            12.9028804304       38.5507893285      -62.2046255373  TIP3      15792           0.0000000000
     98890     17152  TIP3      H1             13.5458749967       38.2474025450      -61.5358499171  TIP3      15792           0.0000000000
     98891     17152  TIP3      H2             12.0445546526       38.2170132311      -61.9465934618  TIP3      15792           0.0000000000
     98892     17153  TIP3      OH2            12.5946029312       40.0840319326      -57.0325654782  TIP3      15793           0.0000000000
     98893     17153  TIP3      H1             12.9057316746       39.1581245311      -57.0696741518  TIP3      15793           0.0000000000
     98894     17153  TIP3      H2             13.2735380483       40.5428888171      -57.5643938459  TIP3      15793           0.0000000000
     98895     17154  TIP3      OH2            13.5194787036      -41.0007629516      -51.1644421494  TIP3      15794           0.0000000000
     98896     17154  TIP3      H1             14.0313889754      -40.4342851006      -51.7586334762  TIP3      15794           0.0000000000
     98897     17154  TIP3      H2             12.8817982359      -40.4073107944      -50.7772660431  TIP3      15794           0.0000000000
     98898     17155  TIP3      OH2            13.2021057507       37.4696248696      -57.1497314856  TIP3      15795           0.0000000000
     98899     17155  TIP3      H1             13.4002531685       37.0198501150      -56.3009348166  TIP3      15795           0.0000000000
     98900     17155  TIP3      H2             12.5756601734       36.8528056506      -57.5799169016  TIP3      15795           0.0000000000
     98901     17156  TIP3      OH2            -1.3119044194       38.2862927272      -52.5940794919  TIP3      15796           0.0000000000
     98902     17156  TIP3      H1             -0.8498624924       37.4615073817      -52.3387958596  TIP3      15796           0.0000000000
     98903     17156  TIP3      H2             -0.7761378341       38.9714115036      -52.1734079441  TIP3      15796           0.0000000000
     98904     17157  TIP3      OH2            15.0109494360       37.5055560645      -60.5720323154  TIP3      15797           0.0000000000
     98905     17157  TIP3      H1             15.4476544417       36.8401201639      -61.1183561095  TIP3      15797           0.0000000000
     98906     17157  TIP3      H2             15.7143760627       38.1811910063      -60.5444271823  TIP3      15797           0.0000000000
     98907     17158  TIP3      OH2            -2.6699931733       37.4880533573      -57.5078863148  TIP3      15798           0.0000000000
     98908     17158  TIP3      H1             -3.6095883924       37.7084395165      -57.6134672078  TIP3      15798           0.0000000000
     98909     17158  TIP3      H2             -2.2475740460       38.0257827279      -58.1973805503  TIP3      15798           0.0000000000
     98910     17159  TIP3      OH2            -2.7255681833       36.2574307079      -49.1910929145  TIP3      15799           0.0000000000
     98911     17159  TIP3      H1             -3.3918551616       36.0423333628      -48.5055217301  TIP3      15799           0.0000000000
     98912     17159  TIP3      H2             -3.2117500346       36.9113851185      -49.7307674957  TIP3      15799           0.0000000000
     98913     17160  TIP3      OH2            14.0749326837       35.7481745568      -47.5225901620  TIP3      15800           0.0000000000
     98914     17160  TIP3      H1             13.1823191239       35.9882569167      -47.8224179431  TIP3      15800           0.0000000000
     98915     17160  TIP3      H2             14.2042104780       34.8711261562      -47.9328926175  TIP3      15800           0.0000000000
     98916     17161  TIP3      OH2             7.4027859541       37.1562320101      -53.1523943868  TIP3      15801           0.0000000000
     98917     17161  TIP3      H1              6.7624761001       36.4851717245      -52.8543266358  TIP3      15801           0.0000000000
     98918     17161  TIP3      H2              7.9815608844       36.6277707843      -53.7163908843  TIP3      15801           0.0000000000
     98919     17162  TIP3      OH2            12.5577596675       35.1946718564      -53.0651712779  TIP3      15802           0.0000000000
     98920     17162  TIP3      H1             13.1778020001       35.7873623651      -53.5662136856  TIP3      15802           0.0000000000
     98921     17162  TIP3      H2             11.6860033318       35.5799361956      -53.2955119963  TIP3      15802           0.0000000000
     98922     17163  TIP3      OH2            14.2278950264       36.3780701241      -54.7863701050  TIP3      15803           0.0000000000
     98923     17163  TIP3      H1             14.9448514114       35.8564795865      -55.2183768015  TIP3      15803           0.0000000000
     98924     17163  TIP3      H2             14.6999832600       37.2344659858      -54.6632248763  TIP3      15803           0.0000000000
     98925     17164  TIP3      OH2            -0.2011654677       35.7514235957      -55.3014182822  TIP3      15804           0.0000000000
     98926     17164  TIP3      H1             -1.0066311094       35.5544222303      -55.8127460735  TIP3      15804           0.0000000000
     98927     17164  TIP3      H2              0.2611964354       34.8947755884      -55.3449891382  TIP3      15804           0.0000000000
     98928     17165  TIP3      OH2            -1.4568833027       35.5342593766      -59.5903707318  TIP3      15805           0.0000000000
     98929     17165  TIP3      H1             -0.9432913775       36.1913809898      -60.0991153707  TIP3      15805           0.0000000000
     98930     17165  TIP3      H2             -1.9972759489       36.0948803335      -59.0057443235  TIP3      15805           0.0000000000
     98931     17166  TIP3      OH2             4.2834748453       35.7170550582      -55.4913066843  TIP3      15806           0.0000000000
     98932     17166  TIP3      H1              5.1948379901       36.0428246614      -55.5633861047  TIP3      15806           0.0000000000
     98933     17166  TIP3      H2              4.2380782133       35.4719151386      -54.5681395104  TIP3      15806           0.0000000000
     98934     17167  TIP3      OH2             9.9728325355       35.7196466685      -53.8709985420  TIP3      15807           0.0000000000
     98935     17167  TIP3      H1              9.9397819933       35.8180757164      -54.8269601082  TIP3      15807           0.0000000000
     98936     17167  TIP3      H2              9.6054114070       34.8115820232      -53.7437542523  TIP3      15807           0.0000000000
     98937     17168  TIP3      OH2            11.2584464436       35.7838097577      -58.2118566246  TIP3      15808           0.0000000000
     98938     17168  TIP3      H1             10.5091477375       36.3732053817      -58.3703399420  TIP3      15808           0.0000000000
     98939     17168  TIP3      H2             10.8435173434       34.9215032405      -57.9833131807  TIP3      15808           0.0000000000
     98940     17169  TIP3      OH2             0.3881034614       37.4511252253      -61.0422665080  TIP3      15809           0.0000000000
     98941     17169  TIP3      H1              0.9181572540       36.8392226271      -61.5585234175  TIP3      15809           0.0000000000
     98942     17169  TIP3      H2              1.0705842523       37.7883337058      -60.4271595255  TIP3      15809           0.0000000000
     98943     17170  TIP3      OH2             5.4525352065       37.7151903884      -58.6484933943  TIP3      15810           0.0000000000
     98944     17170  TIP3      H1              5.6936032037       37.1271850053      -57.9152380347  TIP3      15810           0.0000000000
     98945     17170  TIP3      H2              5.4645979719       38.5743024516      -58.1613931411  TIP3      15810           0.0000000000
     98946     17171  TIP3      OH2            -0.5060930656       35.9302906346      -46.0425580164  TIP3      15811           0.0000000000
     98947     17171  TIP3      H1             -0.7851748547       35.3382489813      -45.3376441041  TIP3      15811           0.0000000000
     98948     17171  TIP3      H2              0.3793391244       36.1121219728      -45.7197236142  TIP3      15811           0.0000000000
     98949     17172  TIP3      OH2            33.6607246766       38.1461802762      -50.6915438111  TIP3      15812           0.0000000000
     98950     17172  TIP3      H1             33.7510126880       38.7955622206      -49.9616720257  TIP3      15812           0.0000000000
     98951     17172  TIP3      H2             34.0998628376       38.6442703516      -51.3903293095  TIP3      15812           0.0000000000
     98952     17173  TIP3      OH2            21.2893636621       39.1347697766      -53.9071482373  TIP3      15813           0.0000000000
     98953     17173  TIP3      H1             21.3657249806       39.9362772047      -54.4295299495  TIP3      15813           0.0000000000
     98954     17173  TIP3      H2             20.8656235132       38.5506330256      -54.5796811212  TIP3      15813           0.0000000000
     98955     17174  TIP3      OH2            28.9772949998       39.2116967058      -55.5687584881  TIP3      15814           0.0000000000
     98956     17174  TIP3      H1             29.6269556848       38.9071201649      -54.8858272861  TIP3      15814           0.0000000000
     98957     17174  TIP3      H2             29.6006635966       39.7597154369      -56.0704947190  TIP3      15814           0.0000000000
     98958     17175  TIP3      OH2            34.0824809353       39.6082575629      -48.5025067667  TIP3      15815           0.0000000000
     98959     17175  TIP3      H1             33.4212489994       40.2675708974      -48.6891194094  TIP3      15815           0.0000000000
     98960     17175  TIP3      H2             34.0547895623       39.5024623360      -47.5320036297  TIP3      15815           0.0000000000
     98961     17176  TIP3      OH2            20.1664792325       37.9576919649      -49.9089365409  TIP3      15816           0.0000000000
     98962     17176  TIP3      H1             19.8711655282       38.5657231399      -50.6190823860  TIP3      15816           0.0000000000
     98963     17176  TIP3      H2             19.5136999259       38.2379730170      -49.2180092287  TIP3      15816           0.0000000000
     98964     17177  TIP3      OH2            30.7869443150       38.4975952753      -53.5761412442  TIP3      15817           0.0000000000
     98965     17177  TIP3      H1             30.5681811163       37.7587476927      -53.0125938750  TIP3      15817           0.0000000000
     98966     17177  TIP3      H2             31.4160902149       38.9997963186      -53.0307988468  TIP3      15817           0.0000000000
     98967     17178  TIP3      OH2            19.8090053214       39.7579924404      -51.7704871731  TIP3      15818           0.0000000000
     98968     17178  TIP3      H1             20.3059451350       40.5657919613      -51.5522393320  TIP3      15818           0.0000000000
     98969     17178  TIP3      H2             20.2738969152       39.4562003280      -52.5868966783  TIP3      15818           0.0000000000
     98970     17179  TIP3      OH2            31.1428941961       37.2771775022      -49.8311068149  TIP3      15819           0.0000000000
     98971     17179  TIP3      H1             30.3892720304       37.8533199090      -50.0118402831  TIP3      15819           0.0000000000
     98972     17179  TIP3      H2             31.8553694612       37.6561418008      -50.3860629278  TIP3      15819           0.0000000000
     98973     17180  TIP3      OH2            24.1077852362       35.3538918858      -52.4360561102  TIP3      15820           0.0000000000
     98974     17180  TIP3      H1             23.9665142387       34.3911206691      -52.4789857763  TIP3      15820           0.0000000000
     98975     17180  TIP3      H2             23.2392151902       35.6666078857      -52.1084788672  TIP3      15820           0.0000000000
     98976     17181  TIP3      OH2            32.4348527468       35.2573393158      -59.4260707057  TIP3      15821           0.0000000000
     98977     17181  TIP3      H1             31.4918391061       35.4124204349      -59.1890716506  TIP3      15821           0.0000000000
     98978     17181  TIP3      H2             32.6574277077       36.1101929791      -59.8396088484  TIP3      15821           0.0000000000
     98979     17182  TIP3      OH2            21.4828401911       36.2512035347      -51.6928828830  TIP3      15822           0.0000000000
     98980     17182  TIP3      H1             20.5686505183       36.1192936098      -52.0325074315  TIP3      15822           0.0000000000
     98981     17182  TIP3      H2             21.3593113586       37.0819436981      -51.2029259592  TIP3      15822           0.0000000000
     98982     17183  TIP3      OH2            26.1121726577       35.9502111103      -48.2824210564  TIP3      15823           0.0000000000
     98983     17183  TIP3      H1             26.5034194914       35.5136696463      -47.5072546054  TIP3      15823           0.0000000000
     98984     17183  TIP3      H2             25.1385611280       35.7901912279      -48.1530284319  TIP3      15823           0.0000000000
     98985     17184  TIP3      OH2            29.2726273395       39.7439835114      -47.4515996395  TIP3      15824           0.0000000000
     98986     17184  TIP3      H1             28.9580759759       39.5925150320      -46.5501572993  TIP3      15824           0.0000000000
     98987     17184  TIP3      H2             29.1928532295       40.6853996899      -47.6124215825  TIP3      15824           0.0000000000
     98988     17185  TIP3      OH2            25.7680394769       38.4983568847      -60.9425313862  TIP3      15825           0.0000000000
     98989     17185  TIP3      H1             25.4569258663       38.4373222501      -60.0210790611  TIP3      15825           0.0000000000
     98990     17185  TIP3      H2             25.5076184365       37.6290079804      -61.2633347371  TIP3      15825           0.0000000000
     98991     17186  TIP3      OH2            15.8664775744       38.5960281382      -54.7390436462  TIP3      15826           0.0000000000
     98992     17186  TIP3      H1             16.5391584135       38.5255756203      -54.0309512040  TIP3      15826           0.0000000000
     98993     17186  TIP3      H2             16.3231404851       38.2374076810      -55.5255970418  TIP3      15826           0.0000000000
     98994     17187  TIP3      OH2            17.0541164842       39.1808975074      -59.4092363036  TIP3      15827           0.0000000000
     98995     17187  TIP3      H1             17.5935558028       39.8415405075      -59.9046858743  TIP3      15827           0.0000000000
     98996     17187  TIP3      H2             16.4504216455       39.8540246973      -59.0594522407  TIP3      15827           0.0000000000
     98997     17188  TIP3      OH2            24.0955947879       38.8876580732      -54.5451809555  TIP3      15828           0.0000000000
     98998     17188  TIP3      H1             23.1589900853       38.8822064696      -54.2666486819  TIP3      15828           0.0000000000
     98999     17188  TIP3      H2             24.6047853453       38.7396297436      -53.7327576920  TIP3      15828           0.0000000000
     99000     17189  TIP3      OH2            18.7973198896       39.8354382274      -55.7217551314  TIP3      15829           0.0000000000
     99001     17189  TIP3      H1             18.1090578847       40.2705776559      -56.2324775400  TIP3      15829           0.0000000000
     99002     17189  TIP3      H2             19.2905669595       39.2675775786      -56.3466328855  TIP3      15829           0.0000000000
     99003     17190  TIP3      OH2            22.5705507138      -41.0108615056      -58.1783578438  TIP3      15830           0.0000000000
     99004     17190  TIP3      H1             23.4683646157      -40.8187747651      -57.8416192015  TIP3      15830           0.0000000000
     99005     17190  TIP3      H2             22.3488238452      -40.2423828392      -58.7055035100  TIP3      15830           0.0000000000
     99006     17191  TIP3      OH2            28.5274693843       38.0601937190      -51.2725682799  TIP3      15831           0.0000000000
     99007     17191  TIP3      H1             27.8165949425       38.2074908734      -50.6220720330  TIP3      15831           0.0000000000
     99008     17191  TIP3      H2             28.0176759277       37.9039337523      -52.0811044618  TIP3      15831           0.0000000000
     99009     17192  TIP3      OH2            20.4293565050       37.7679452386      -56.1998640971  TIP3      15832           0.0000000000
     99010     17192  TIP3      H1             20.1006395117       36.8544174425      -56.2453576608  TIP3      15832           0.0000000000
     99011     17192  TIP3      H2             21.1941223161       37.7336468767      -56.7792609167  TIP3      15832           0.0000000000
     99012     17193  TIP3      OH2            24.0375674283       39.9182531330      -50.2980198291  TIP3      15833           0.0000000000
     99013     17193  TIP3      H1             23.2598873459       40.4578203774      -50.1595921564  TIP3      15833           0.0000000000
     99014     17193  TIP3      H2             24.5539351943       40.2447140969      -49.5325541260  TIP3      15833           0.0000000000
     99015     17194  TIP3      OH2            28.4673111149       39.0437113519      -60.3205865071  TIP3      15834           0.0000000000
     99016     17194  TIP3      H1             27.5272930934       39.1794370069      -60.5233983608  TIP3      15834           0.0000000000
     99017     17194  TIP3      H2             28.7930130465       39.9160185924      -60.0953602939  TIP3      15834           0.0000000000
     99018     17195  TIP3      OH2            18.3543376817       38.7199435238      -47.9425750373  TIP3      15835           0.0000000000
     99019     17195  TIP3      H1             17.4557500387       39.0765489176      -47.9945009077  TIP3      15835           0.0000000000
     99020     17195  TIP3      H2             18.2147302706       37.8911928802      -47.4614513994  TIP3      15835           0.0000000000
     99021     17196  TIP3      OH2            27.0785903225       38.5592999731      -49.0054611494  TIP3      15836           0.0000000000
     99022     17196  TIP3      H1             27.7923319587       38.5430127138      -48.3550328494  TIP3      15836           0.0000000000
     99023     17196  TIP3      H2             26.6845354849       37.6736067910      -48.8526482493  TIP3      15836           0.0000000000
     99024     17197  TIP3      OH2            27.8232403781       38.1007519677      -57.8719095214  TIP3      15837           0.0000000000
     99025     17197  TIP3      H1             28.0981042700       38.5294904089      -58.7068994144  TIP3      15837           0.0000000000
     99026     17197  TIP3      H2             28.4159630911       38.5102097094      -57.2193804334  TIP3      15837           0.0000000000
     99027     17198  TIP3      OH2            25.0905894254       39.8575629246      -57.0934577743  TIP3      15838           0.0000000000
     99028     17198  TIP3      H1             25.8803690247       40.4093059101      -57.0097398899  TIP3      15838           0.0000000000
     99029     17198  TIP3      H2             24.8000509776       39.7173523975      -56.1675389811  TIP3      15838           0.0000000000
     99030     17199  TIP3      OH2            25.4488774088      -41.2604215902      -47.3951109176  TIP3      15839           0.0000000000
     99031     17199  TIP3      H1             25.4995742641      -40.3220212615      -47.1456282207  TIP3      15839           0.0000000000
     99032     17199  TIP3      H2             26.2784360338      -41.4602111118      -47.8506620240  TIP3      15839           0.0000000000
     99033     17200  TIP3      OH2            25.9501417659       36.9037946921      -56.1443929466  TIP3      15840           0.0000000000
     99034     17200  TIP3      H1             25.6048994601       37.5566348950      -55.5019904668  TIP3      15840           0.0000000000
     99035     17200  TIP3      H2             26.6098851179       37.4460744834      -56.6429085317  TIP3      15840           0.0000000000
     99036     17201  TIP3      OH2            21.6187897757       38.0112229757      -59.5050318832  TIP3      15841           0.0000000000
     99037     17201  TIP3      H1             21.5433134967       38.8892206429      -59.0832856691  TIP3      15841           0.0000000000
     99038     17201  TIP3      H2             22.4984028188       37.7304925766      -59.1901684525  TIP3      15841           0.0000000000
     99039     17202  TIP3      OH2            31.8001296957       38.7464299625      -47.0620166953  TIP3      15842           0.0000000000
     99040     17202  TIP3      H1             30.8613151894       38.9948265377      -47.1470795316  TIP3      15842           0.0000000000
     99041     17202  TIP3      H2             32.1077018927       38.6552439768      -47.9648635651  TIP3      15842           0.0000000000
     99042     17203  TIP3      OH2            18.9750299616       35.8909093255      -52.5508039009  TIP3      15843           0.0000000000
     99043     17203  TIP3      H1             18.7747174276       35.9117205618      -53.5125717154  TIP3      15843           0.0000000000
     99044     17203  TIP3      H2             18.5501678316       35.0481066806      -52.3003413896  TIP3      15843           0.0000000000
     99045     17204  TIP3      OH2            22.1936611390       39.8030791101      -46.2755003580  TIP3      15844           0.0000000000
     99046     17204  TIP3      H1             22.3728977419       39.0854469560      -46.9122197717  TIP3      15844           0.0000000000
     99047     17204  TIP3      H2             22.2717910813       40.5870816537      -46.8317692590  TIP3      15844           0.0000000000
     99048     17205  TIP3      OH2            22.6350744838       38.1600587199      -48.7606570359  TIP3      15845           0.0000000000
     99049     17205  TIP3      H1             23.1931885443       38.6079217100      -49.4271175713  TIP3      15845           0.0000000000
     99050     17205  TIP3      H2             21.7571713065       38.0859569940      -49.1980845970  TIP3      15845           0.0000000000
     99051     17206  TIP3      OH2            23.4818658953       35.6417269413      -48.3847391395  TIP3      15846           0.0000000000
     99052     17206  TIP3      H1             23.2656716671       36.5907731685      -48.4536308152  TIP3      15846           0.0000000000
     99053     17206  TIP3      H2             22.7163916981       35.2577191728      -48.8400452944  TIP3      15846           0.0000000000
     99054     17207  TIP3      OH2            31.7566079278       38.5564674745      -62.2049333294  TIP3      15847           0.0000000000
     99055     17207  TIP3      H1             32.4003996550       38.2468049672      -61.5365155285  TIP3      15847           0.0000000000
     99056     17207  TIP3      H2             30.8969388821       38.2197363956      -61.9488725867  TIP3      15847           0.0000000000
     99057     17208  TIP3      OH2            31.4514213338       40.0851012236      -57.0327438559  TIP3      15848           0.0000000000
     99058     17208  TIP3      H1             31.7607653098       39.1582735147      -57.0693329109  TIP3      15848           0.0000000000
     99059     17208  TIP3      H2             32.1325649903       40.5437772254      -57.5629884366  TIP3      15848           0.0000000000
     99060     17209  TIP3      OH2            32.3739605622      -41.0004192698      -51.1639116091  TIP3      15849           0.0000000000
     99061     17209  TIP3      H1             32.8869482338      -40.4322167645      -51.7567890455  TIP3      15849           0.0000000000
     99062     17209  TIP3      H2             31.7309955472      -40.4126406986      -50.7737690920  TIP3      15849           0.0000000000
     99063     17210  TIP3      OH2            32.0472340483       37.4718457405      -57.1505589781  TIP3      15850           0.0000000000
     99064     17210  TIP3      H1             32.2546503209       37.0206692165      -56.3028329839  TIP3      15850           0.0000000000
     99065     17210  TIP3      H2             31.4280413733       36.8504421296      -57.5812830441  TIP3      15850           0.0000000000
     99066     17211  TIP3      OH2            17.5440940831       38.2863001533      -52.5940600711  TIP3      15851           0.0000000000
     99067     17211  TIP3      H1             18.0059052439       37.4612845952      -52.3390921734  TIP3      15851           0.0000000000
     99068     17211  TIP3      H2             18.0798334774       38.9713476402      -52.1733336040  TIP3      15851           0.0000000000
     99069     17212  TIP3      OH2            33.8665230041       37.5065276853      -60.5670097121  TIP3      15852           0.0000000000
     99070     17212  TIP3      H1             34.3018810348       36.8409283421      -61.1162376989  TIP3      15852           0.0000000000
     99071     17212  TIP3      H2             34.5660486857       38.1828552389      -60.5484742839  TIP3      15852           0.0000000000
     99072     17213  TIP3      OH2            16.1862058126       37.4890707125      -57.5081961744  TIP3      15853           0.0000000000
     99073     17213  TIP3      H1             15.2476568113       37.7096211425      -57.6184033236  TIP3      15853           0.0000000000
     99074     17213  TIP3      H2             16.6090250917       38.0255724678      -58.1977262556  TIP3      15853           0.0000000000
     99075     17214  TIP3      OH2            16.1294411220       36.2571488890      -49.1897140015  TIP3      15854           0.0000000000
     99076     17214  TIP3      H1             15.4628673495       36.0428614102      -48.5026802331  TIP3      15854           0.0000000000
     99077     17214  TIP3      H2             15.6446112915       36.9109196697      -49.7300100502  TIP3      15854           0.0000000000
     99078     17215  TIP3      OH2            32.9333934369       35.7469483066      -47.5234031714  TIP3      15855           0.0000000000
     99079     17215  TIP3      H1             32.0406794286       35.9883793592      -47.8218332017  TIP3      15855           0.0000000000
     99080     17215  TIP3      H2             33.0595310499       34.8705952123      -47.9340686166  TIP3      15855           0.0000000000
     99081     17216  TIP3      OH2            26.2575167117       37.1582870348      -53.1532902982  TIP3      15856           0.0000000000
     99082     17216  TIP3      H1             25.6184165428       36.4851337116      -52.8543220389  TIP3      15856           0.0000000000
     99083     17216  TIP3      H2             26.8375556115       36.6277299332      -53.7164882739  TIP3      15856           0.0000000000
     99084     17217  TIP3      OH2            31.4145724149       35.1917344284      -53.0633855265  TIP3      15857           0.0000000000
     99085     17217  TIP3      H1             32.0345303116       35.7847189487      -53.5630533148  TIP3      15857           0.0000000000
     99086     17217  TIP3      H2             30.5436001069       35.5779591537      -53.2940344441  TIP3      15857           0.0000000000
     99087     17218  TIP3      OH2            33.0925313939       36.3820941361      -54.7878014598  TIP3      15858           0.0000000000
     99088     17218  TIP3      H1             33.8032441334       35.8529563967      -55.2185918715  TIP3      15858           0.0000000000
     99089     17218  TIP3      H2             33.5622582439       37.2377834179      -54.6620990382  TIP3      15858           0.0000000000
     99090     17219  TIP3      OH2            18.6547720143       35.7515213784      -55.3013498076  TIP3      15859           0.0000000000
     99091     17219  TIP3      H1             17.8494816142       35.5546309031      -55.8129714868  TIP3      15859           0.0000000000
     99092     17219  TIP3      H2             19.1174379401       34.8946373368      -55.3453098498  TIP3      15859           0.0000000000
     99093     17220  TIP3      OH2            17.3988104692       35.5337802730      -59.5893544354  TIP3      15860           0.0000000000
     99094     17220  TIP3      H1             17.9138602913       36.1900115231      -60.0996189631  TIP3      15860           0.0000000000
     99095     17220  TIP3      H2             16.8586242744       36.0958216047      -59.0063879396  TIP3      15860           0.0000000000
     99096     17221  TIP3      OH2            23.1393928893       35.7170074897      -55.4912642164  TIP3      15861           0.0000000000
     99097     17221  TIP3      H1             24.0507641793       36.0428136578      -55.5630219968  TIP3      15861           0.0000000000
     99098     17221  TIP3      H2             23.0939843630       35.4718663952      -54.5681033423  TIP3      15861           0.0000000000
     99099     17222  TIP3      OH2            28.8292780166       35.7197626099      -53.8727408236  TIP3      15862           0.0000000000
     99100     17222  TIP3      H1             28.7963861037       35.8206259287      -54.8303376522  TIP3      15862           0.0000000000
     99101     17222  TIP3      H2             28.4613808340       34.8118874618      -53.7442126957  TIP3      15862           0.0000000000
     99102     17223  TIP3      OH2            30.1136296928       35.7820119410      -58.2140402872  TIP3      15863           0.0000000000
     99103     17223  TIP3      H1             29.3654103521       36.3735147268      -58.3703194225  TIP3      15863           0.0000000000
     99104     17223  TIP3      H2             29.6961331668       34.9210890335      -57.9842086549  TIP3      15863           0.0000000000
     99105     17224  TIP3      OH2            19.2443091110       37.4204931388      -61.0327020788  TIP3      15864           0.0000000000
     99106     17224  TIP3      H1             19.7795707896       36.8491550265      -61.5835828920  TIP3      15864           0.0000000000
     99107     17224  TIP3      H2             19.9303850293       37.7884276864      -60.4410291131  TIP3      15864           0.0000000000
     99108     17225  TIP3      OH2            24.3076005525       37.7154248563      -58.6486696315  TIP3      15865           0.0000000000
     99109     17225  TIP3      H1             24.5481497282       37.1267622348      -57.9158255289  TIP3      15865           0.0000000000
     99110     17225  TIP3      H2             24.3207159502       38.5743306984      -58.1611976762  TIP3      15865           0.0000000000
     99111     17226  TIP3      OH2            18.3499814685       35.9281317771      -46.0425083241  TIP3      15866           0.0000000000
     99112     17226  TIP3      H1             18.0685142867       35.3400369747      -45.3352369939  TIP3      15866           0.0000000000
     99113     17226  TIP3      H2             19.2351769299       36.1134263775      -45.7169581008  TIP3      15866           0.0000000000
     99114     17227  TIP3      OH2            39.6098602226       39.3794317204      -53.7793961293  TIP3      15867           0.0000000000
     99115     17227  TIP3      H1             40.2541132376       39.9204494112      -54.2594641948  TIP3      15867           0.0000000000
     99116     17227  TIP3      H2             39.6711848318       38.6160591168      -54.3654197077  TIP3      15867           0.0000000000
     99117     17228  TIP3      OH2            38.9546902783       37.8993755881      -49.9248806341  TIP3      15868           0.0000000000
     99118     17228  TIP3      H1             38.7272560576       38.5933582515      -50.5798341266  TIP3      15868           0.0000000000
     99119     17228  TIP3      H2             38.3971756235       38.2592880363      -49.1942666192  TIP3      15868           0.0000000000
     99120     17229  TIP3      OH2            38.5078028772       39.8555385291      -51.6062027271  TIP3      15869           0.0000000000
     99121     17229  TIP3      H1             39.1725275290       40.5449144391      -51.4284194742  TIP3      15869           0.0000000000
     99122     17229  TIP3      H2             38.9771443996       39.4736013110      -52.4000727845  TIP3      15869           0.0000000000
     99123     17230  TIP3      OH2            40.2974163327       36.2324480054      -51.7042929237  TIP3      15870           0.0000000000
     99124     17230  TIP3      H1             39.3921575082       36.1396690043      -52.0721771411  TIP3      15870           0.0000000000
     99125     17230  TIP3      H2             40.2270746296       37.0948792594      -51.2596666825  TIP3      15870           0.0000000000
     99126     17231  TIP3      OH2            34.7219764586       38.5953102804      -54.7355975588  TIP3      15871           0.0000000000
     99127     17231  TIP3      H1             35.3946845264       38.5197324631      -54.0286753628  TIP3      15871           0.0000000000
     99128     17231  TIP3      H2             35.1690572177       38.2317079924      -55.5239735753  TIP3      15871           0.0000000000
     99129     17232  TIP3      OH2            35.9285061392       39.1881118847      -59.3947528999  TIP3      15872           0.0000000000
     99130     17232  TIP3      H1             36.4475740076       39.8519167819      -59.9010065775  TIP3      15872           0.0000000000
     99131     17232  TIP3      H2             35.3057788227       39.8505318723      -59.0579152243  TIP3      15872           0.0000000000
     99132     17233  TIP3      OH2            37.7095645191       39.9239368966      -55.7907314177  TIP3      15873           0.0000000000
     99133     17233  TIP3      H1             36.9256516925       40.2166044205      -56.2643101511  TIP3      15873           0.0000000000
     99134     17233  TIP3      H2             38.1125525937       39.1976056145      -56.3064737142  TIP3      15873           0.0000000000
     99135     17234  TIP3      OH2            39.0414245040       37.7535736557      -56.3193200125  TIP3      15874           0.0000000000
     99136     17234  TIP3      H1             38.8622026618       36.8066674573      -56.1720103334  TIP3      15874           0.0000000000
     99137     17234  TIP3      H2             39.9982546682       37.7512057814      -56.4836925624  TIP3      15874           0.0000000000
     99138     17235  TIP3      OH2            37.1817980081       38.7257237866      -47.9706923159  TIP3      15875           0.0000000000
     99139     17235  TIP3      H1             36.2941794984       39.0869996325      -47.9900454078  TIP3      15875           0.0000000000
     99140     17235  TIP3      H2             37.0853657110       37.9093668059      -47.4596528079  TIP3      15875           0.0000000000
     99141     17236  TIP3      OH2           -41.2448245353       37.9168430110      -59.6684074738  TIP3      15876           0.0000000000
     99142     17236  TIP3      H1            -41.1886594752       38.7883239114      -59.2568824262  TIP3      15876           0.0000000000
     99143     17236  TIP3      H2            -40.3046652746       37.6952220252      -59.4992695353  TIP3      15876           0.0000000000
     99144     17237  TIP3      OH2            37.8315244318       35.8826454277      -52.5692542455  TIP3      15877           0.0000000000
     99145     17237  TIP3      H1             37.6197561151       35.9252013908      -53.5249768293  TIP3      15877           0.0000000000
     99146     17237  TIP3      H2             37.4071966768       35.0459708069      -52.2833011549  TIP3      15877           0.0000000000
     99147     17238  TIP3      OH2            36.4002248254       38.2646288147      -52.5825594042  TIP3      15878           0.0000000000
     99148     17238  TIP3      H1             36.9009696951       37.4529187994      -52.3676083176  TIP3      15878           0.0000000000
     99149     17238  TIP3      H2             36.9486540516       38.9512489949      -52.1764955305  TIP3      15878           0.0000000000
     99150     17239  TIP3      OH2            35.0497753657       37.4920464873      -57.5027071267  TIP3      15879           0.0000000000
     99151     17239  TIP3      H1             34.1099661518       37.7057845162      -57.6199532575  TIP3      15879           0.0000000000
     99152     17239  TIP3      H2             35.4780142059       38.0254204759      -58.1966720317  TIP3      15879           0.0000000000
     99153     17240  TIP3      OH2            35.0004637263       36.2565445585      -49.1880774515  TIP3      15880           0.0000000000
     99154     17240  TIP3      H1             34.3332026156       36.0379072384      -48.5046465250  TIP3      15880           0.0000000000
     99155     17240  TIP3      H2             34.5086734778       36.9069752371      -49.7275727067  TIP3      15880           0.0000000000
     99156     17241  TIP3      OH2            37.4956987793       35.7506348322      -55.3069724948  TIP3      15881           0.0000000000
     99157     17241  TIP3      H1             36.6933082831       35.5375072401      -55.8141868808  TIP3      15881           0.0000000000
     99158     17241  TIP3      H2             37.9681603734       34.9011772180      -55.3080490703  TIP3      15881           0.0000000000
     99159     17242  TIP3      OH2            36.2249199991       35.5317147956      -59.5941511771  TIP3      15882           0.0000000000
     99160     17242  TIP3      H1             36.7710274073       36.1783875841      -60.0844527063  TIP3      15882           0.0000000000
     99161     17242  TIP3      H2             35.7043486769       36.1050775543      -59.0044034184  TIP3      15882           0.0000000000
     99162     17243  TIP3      OH2            38.0855592956       37.4228928393      -61.0371041293  TIP3      15883           0.0000000000
     99163     17243  TIP3      H1             38.6229908359       36.8968687953      -61.6441056983  TIP3      15883           0.0000000000
     99164     17243  TIP3      H2             38.8006446052       37.7634014064      -60.4415104737  TIP3      15883           0.0000000000
     99165     17244  TIP3      OH2            37.2277360285       35.9028863378      -46.0821779583  TIP3      15884           0.0000000000
     99166     17244  TIP3      H1             36.9429575358       35.3484731355      -45.3578203487  TIP3      15884           0.0000000000
     99167     17244  TIP3      H2             38.0872540951       36.1535169029      -45.7264850050  TIP3      15884           0.0000000000
     99168     17245  TIP3      OH2           -28.8324654988      -30.5299539811      -35.6996011333  TIP3      15885           0.0000000000
     99169     17245  TIP3      H1            -28.8321215480      -29.5511226331      -35.7379308568  TIP3      15885           0.0000000000
     99170     17245  TIP3      H2            -29.5444592185      -30.7559745820      -36.3208142109  TIP3      15885           0.0000000000
     99171     17246  TIP3      OH2           -29.9902607382      -31.2460306362      -32.1920831233  TIP3      15886           0.0000000000
     99172     17246  TIP3      H1            -29.9540101204      -31.9017477934      -31.4799193172  TIP3      15886           0.0000000000
     99173     17246  TIP3      H2            -30.2678624122      -31.7671868770      -32.9581821220  TIP3      15886           0.0000000000
     99174     17247  TIP3      OH2           -37.5720807113      -31.6645881841      -30.7147013731  TIP3      15887           0.0000000000
     99175     17247  TIP3      H1            -37.5459548899      -32.2759059821      -29.9482667120  TIP3      15887           0.0000000000
     99176     17247  TIP3      H2            -36.9327673429      -30.9990661947      -30.4126022870  TIP3      15887           0.0000000000
     99177     17248  TIP3      OH2           -26.2786856462      -28.3209177195      -33.9193805258  TIP3      15888           0.0000000000
     99178     17248  TIP3      H1            -26.6996769120      -29.0354796010      -33.4323153878  TIP3      15888           0.0000000000
     99179     17248  TIP3      H2            -26.2570574712      -27.6129428125      -33.2488663209  TIP3      15888           0.0000000000
     99180     17249  TIP3      OH2           -36.6994795892      -27.1473918196      -32.1646154667  TIP3      15889           0.0000000000
     99181     17249  TIP3      H1            -37.0141751142      -28.0254674122      -32.4625507902  TIP3      15889           0.0000000000
     99182     17249  TIP3      H2            -35.7469169885      -27.3413125906      -32.1012648270  TIP3      15889           0.0000000000
     99183     17250  TIP3      OH2           -39.7375258290      -33.2867549141      -37.2248203267  TIP3      15890           0.0000000000
     99184     17250  TIP3      H1            -40.3114874408      -32.6586787702      -36.7429546451  TIP3      15890           0.0000000000
     99185     17250  TIP3      H2            -40.4013402846      -33.9365312471      -37.4397346662  TIP3      15890           0.0000000000
     99186     17251  TIP3      OH2           -39.1851951823      -31.4156052048      -34.4605114005  TIP3      15891           0.0000000000
     99187     17251  TIP3      H1            -39.0049474386      -32.2710853112      -34.0232815633  TIP3      15891           0.0000000000
     99188     17251  TIP3      H2            -38.5362543791      -31.3280026532      -35.1690472777  TIP3      15891           0.0000000000
     99189     17252  TIP3      OH2           -29.1553236478      -23.1640717952      -33.6787454887  TIP3      15892           0.0000000000
     99190     17252  TIP3      H1            -28.5125049117      -23.8584641386      -33.9657300813  TIP3      15892           0.0000000000
     99191     17252  TIP3      H2            -29.3722140990      -23.4939782702      -32.8073937872  TIP3      15892           0.0000000000
     99192     17253  TIP3      OH2           -31.6015177864      -28.8922346876      -31.7320909648  TIP3      15893           0.0000000000
     99193     17253  TIP3      H1            -31.2366807979      -29.4886707427      -32.3984664326  TIP3      15893           0.0000000000
     99194     17253  TIP3      H2            -30.7962322270      -28.7161406476      -31.2146830682  TIP3      15893           0.0000000000
     99195     17254  TIP3      OH2           -22.9533031160      -37.2682981217      -30.9825850939  TIP3      15894           0.0000000000
     99196     17254  TIP3      H1            -22.8339168117      -36.6292881473      -30.2512538097  TIP3      15894           0.0000000000
     99197     17254  TIP3      H2            -22.4520250881      -36.8136766909      -31.6798409166  TIP3      15894           0.0000000000
     99198     17255  TIP3      OH2           -28.4252727415      -34.3921761609      -31.4260348549  TIP3      15895           0.0000000000
     99199     17255  TIP3      H1            -28.2448361257      -35.3522167591      -31.4102297837  TIP3      15895           0.0000000000
     99200     17255  TIP3      H2            -28.5080078181      -34.2536544042      -32.3858653190  TIP3      15895           0.0000000000
     99201     17256  TIP3      OH2           -35.2561757434      -36.2971044123      -34.2101672702  TIP3      15896           0.0000000000
     99202     17256  TIP3      H1            -35.2538895823      -35.4785840968      -34.7372732472  TIP3      15896           0.0000000000
     99203     17256  TIP3      H2            -35.7042843895      -36.9043234063      -34.8574337911  TIP3      15896           0.0000000000
     99204     17257  TIP3      OH2           -27.5718210612      -36.2319277139      -35.8315726416  TIP3      15897           0.0000000000
     99205     17257  TIP3      H1            -26.9208062793      -36.5514518520      -35.1686339133  TIP3      15897           0.0000000000
     99206     17257  TIP3      H2            -27.0136878858      -35.6623093741      -36.3774393017  TIP3      15897           0.0000000000
     99207     17258  TIP3      OH2           -38.4664184652      -33.8640849960      -33.5098083583  TIP3      15898           0.0000000000
     99208     17258  TIP3      H1            -37.9474378355      -34.5204187776      -33.0291424900  TIP3      15898           0.0000000000
     99209     17258  TIP3      H2            -38.5663770361      -34.2572853866      -34.3928577283  TIP3      15898           0.0000000000
     99210     17259  TIP3      OH2           -33.6003172703      -32.3317517963      -34.1411440260  TIP3      15899           0.0000000000
     99211     17259  TIP3      H1            -32.7962411888      -32.7359127944      -33.8322556747  TIP3      15899           0.0000000000
     99212     17259  TIP3      H2            -34.0741721453      -32.9756707483      -34.7151599598  TIP3      15899           0.0000000000
     99213     17260  TIP3      OH2           -22.5034777290      -35.7688710316      -28.7088756490  TIP3      15900           0.0000000000
     99214     17260  TIP3      H1            -23.2386482725      -35.1177490123      -28.8566096805  TIP3      15900           0.0000000000
     99215     17260  TIP3      H2            -22.6347339994      -36.0400331476      -27.7789108248  TIP3      15900           0.0000000000
     99216     17261  TIP3      OH2           -36.3674041938      -37.3728706751      -30.1715305773  TIP3      15901           0.0000000000
     99217     17261  TIP3      H1            -36.7254849315      -36.8591836841      -30.9197735405  TIP3      15901           0.0000000000
     99218     17261  TIP3      H2            -37.0827593102      -37.2011676033      -29.4982896209  TIP3      15901           0.0000000000
     99219     17262  TIP3      OH2           -29.1058187034      -27.9302212154      -36.6110215553  TIP3      15902           0.0000000000
     99220     17262  TIP3      H1            -29.3770419458      -28.2111921291      -37.4989379564  TIP3      15902           0.0000000000
     99221     17262  TIP3      H2            -29.4210751900      -26.9975502818      -36.5621628059  TIP3      15902           0.0000000000
     99222     17263  TIP3      OH2           -33.8782920583      -29.7828912537      -29.9412040664  TIP3      15903           0.0000000000
     99223     17263  TIP3      H1            -34.5873612355      -29.1453174504      -29.7092548503  TIP3      15903           0.0000000000
     99224     17263  TIP3      H2            -33.1788031227      -29.1681857493      -30.1974052989  TIP3      15903           0.0000000000
     99225     17264  TIP3      OH2           -25.7590337383      -36.8878258548      -33.8346231788  TIP3      15904           0.0000000000
     99226     17264  TIP3      H1            -26.0013160756      -37.6598341528      -33.3125932470  TIP3      15904           0.0000000000
     99227     17264  TIP3      H2            -25.0962759143      -36.4482200388      -33.2731141202  TIP3      15904           0.0000000000
     99228     17265  TIP3      OH2           -36.8457242661      -35.5630938430      -32.1522658928  TIP3      15905           0.0000000000
     99229     17265  TIP3      H1            -36.2316276995      -34.8822235394      -31.8035549896  TIP3      15905           0.0000000000
     99230     17265  TIP3      H2            -36.3323048497      -35.9986134727      -32.8632023769  TIP3      15905           0.0000000000
     99231     17266  TIP3      OH2           -35.4668236824      -27.7777154626      -29.1130355163  TIP3      15906           0.0000000000
     99232     17266  TIP3      H1            -35.4890778579      -26.8592280208      -29.4402573673  TIP3      15906           0.0000000000
     99233     17266  TIP3      H2            -36.3475479846      -27.8517666175      -28.6713060648  TIP3      15906           0.0000000000
     99234     17267  TIP3      OH2           -39.3783542822      -28.1330077627      -38.3048628464  TIP3      15907           0.0000000000
     99235     17267  TIP3      H1            -39.5909801397      -27.8594193223      -39.2106436622  TIP3      15907           0.0000000000
     99236     17267  TIP3      H2            -39.3026521424      -27.2965193661      -37.8128996040  TIP3      15907           0.0000000000
     99237     17268  TIP3      OH2           -25.7497808949      -26.4849096444      -31.5500107762  TIP3      15908           0.0000000000
     99238     17268  TIP3      H1            -26.7173825826      -26.3775895815      -31.4281571247  TIP3      15908           0.0000000000
     99239     17268  TIP3      H2            -25.4813829251      -25.5674825290      -31.7482247847  TIP3      15908           0.0000000000
     99240     17269  TIP3      OH2           -25.4174247085      -38.2153118163      -30.1357475594  TIP3      15909           0.0000000000
     99241     17269  TIP3      H1            -26.1447621265      -37.5800198092      -30.2388958353  TIP3      15909           0.0000000000
     99242     17269  TIP3      H2            -24.7226058407      -37.7949149403      -30.6747074649  TIP3      15909           0.0000000000
     99243     17270  TIP3      OH2           -32.4834570194      -40.0279043432      -32.9084885802  TIP3      15910           0.0000000000
     99244     17270  TIP3      H1            -32.4918551194      -40.9824305322      -32.7309216366  TIP3      15910           0.0000000000
     99245     17270  TIP3      H2            -33.2757935045      -39.7744496553      -32.4100755401  TIP3      15910           0.0000000000
     99246     17271  TIP3      OH2           -27.4899867211      -24.7010016780      -34.9602821568  TIP3      15911           0.0000000000
     99247     17271  TIP3      H1            -27.0613506714      -25.4182376537      -35.4681370343  TIP3      15911           0.0000000000
     99248     17271  TIP3      H2            -27.0673883042      -23.9092096311      -35.3540600821  TIP3      15911           0.0000000000
     99249     17272  TIP3      OH2           -26.2629144721      -26.7834182506      -36.4668593392  TIP3      15912           0.0000000000
     99250     17272  TIP3      H1            -26.5930469329      -27.4801797418      -37.0471754543  TIP3      15912           0.0000000000
     99251     17272  TIP3      H2            -26.2449803265      -27.2556772362      -35.6123404662  TIP3      15912           0.0000000000
     99252     17273  TIP3      OH2           -24.6646359565      -28.1769141146      -27.9477130450  TIP3      15913           0.0000000000
     99253     17273  TIP3      H1            -24.5187128294      -28.8347288402      -28.6640374764  TIP3      15913           0.0000000000
     99254     17273  TIP3      H2            -24.4626544458      -27.3319072593      -28.3889382104  TIP3      15913           0.0000000000
     99255     17274  TIP3      OH2           -30.1654323739      -31.2977689253      -38.1895004534  TIP3      15914           0.0000000000
     99256     17274  TIP3      H1            -30.8627034435      -30.7232345784      -38.5481246262  TIP3      15914           0.0000000000
     99257     17274  TIP3      H2            -29.4580987080      -31.2020239952      -38.8526007511  TIP3      15914           0.0000000000
     99258     17275  TIP3      OH2           -30.0949840246      -32.7452586552      -41.1297842444  TIP3      15915           0.0000000000
     99259     17275  TIP3      H1            -29.3732381690      -32.7479466126      -40.4761377672  TIP3      15915           0.0000000000
     99260     17275  TIP3      H2            -29.8055525696      -33.4406591099      -41.7248092917  TIP3      15915           0.0000000000
     99261     17276  TIP3      OH2           -22.7541493421      -31.8759767297      -29.8839833630  TIP3      15916           0.0000000000
     99262     17276  TIP3      H1            -23.4239694533      -31.1558974423      -29.8602871624  TIP3      15916           0.0000000000
     99263     17276  TIP3      H2            -22.2930099644      -31.6344619376      -30.7132821718  TIP3      15916           0.0000000000
     99264     17277  TIP3      OH2           -26.7192700941      -31.0404270681      -37.2488814945  TIP3      15917           0.0000000000
     99265     17277  TIP3      H1            -27.4771788645      -30.8425037369      -36.6482297040  TIP3      15917           0.0000000000
     99266     17277  TIP3      H2            -26.2447081564      -31.7375645620      -36.7620972632  TIP3      15917           0.0000000000
     99267     17278  TIP3      OH2           -26.7729657755      -32.9156438318      -28.1561840585  TIP3      15918           0.0000000000
     99268     17278  TIP3      H1            -26.7741220977      -32.1132569463      -27.5993503920  TIP3      15918           0.0000000000
     99269     17278  TIP3      H2            -27.4168872174      -32.6136156944      -28.8261286583  TIP3      15918           0.0000000000
     99270     17279  TIP3      OH2           -35.1075073359      -30.4079022822      -35.3429246430  TIP3      15919           0.0000000000
     99271     17279  TIP3      H1            -35.4566334994      -30.7934845736      -36.1828187691  TIP3      15919           0.0000000000
     99272     17279  TIP3      H2            -34.4959327712      -31.1021755976      -35.0238361594  TIP3      15919           0.0000000000
     99273     17280  TIP3      OH2           -33.7966513298      -27.0386926412      -32.6629214283  TIP3      15920           0.0000000000
     99274     17280  TIP3      H1            -33.7982302081      -27.5612009717      -33.4733871583  TIP3      15920           0.0000000000
     99275     17280  TIP3      H2            -33.0082690170      -27.3890922659      -32.2088496687  TIP3      15920           0.0000000000
     99276     17281  TIP3      OH2           -34.7217052105      -31.7292262436      -31.6831616809  TIP3      15921           0.0000000000
     99277     17281  TIP3      H1            -34.2359015793      -31.5066141123      -32.4957941284  TIP3      15921           0.0000000000
     99278     17281  TIP3      H2            -34.4460804611      -31.0025735574      -31.0769673619  TIP3      15921           0.0000000000
     99279     17282  TIP3      OH2           -28.3712867797      -26.1008957576      -30.9833274949  TIP3      15922           0.0000000000
     99280     17282  TIP3      H1            -28.6505632577      -25.4669704067      -30.3163584890  TIP3      15922           0.0000000000
     99281     17282  TIP3      H2            -28.6211527867      -26.9568968466      -30.5576695355  TIP3      15922           0.0000000000
     99282     17283  TIP3      OH2           -33.8272387012      -27.2437989626      -26.9912021500  TIP3      15923           0.0000000000
     99283     17283  TIP3      H1            -34.2313137368      -26.4993743822      -26.5010463013  TIP3      15923           0.0000000000
     99284     17283  TIP3      H2            -34.5115944832      -27.4383126908      -27.6742856432  TIP3      15923           0.0000000000
     99285     17284  TIP3      OH2           -27.8433029338      -31.8857937697      -39.5869685371  TIP3      15924           0.0000000000
     99286     17284  TIP3      H1            -27.2938912524      -31.7113722331      -38.7828106639  TIP3      15924           0.0000000000
     99287     17284  TIP3      H2            -27.4307523301      -31.3741733508      -40.3048973678  TIP3      15924           0.0000000000
     99288     17285  TIP3      OH2           -36.8911354126      -31.0724708364      -27.8256372972  TIP3      15925           0.0000000000
     99289     17285  TIP3      H1            -36.8442662369      -30.3943061476      -27.1232414594  TIP3      15925           0.0000000000
     99290     17285  TIP3      H2            -37.8227407111      -30.9668822050      -28.0714773617  TIP3      15925           0.0000000000
     99291     17286  TIP3      OH2           -30.1298346716      -25.1554268236      -36.1291994702  TIP3      15926           0.0000000000
     99292     17286  TIP3      H1            -29.6965801894      -24.8481259766      -35.3226214268  TIP3      15926           0.0000000000
     99293     17286  TIP3      H2            -30.6902273951      -24.4065506447      -36.3627125060  TIP3      15926           0.0000000000
     99294     17287  TIP3      OH2           -35.6120408548      -25.2259726326      -26.2565734192  TIP3      15927           0.0000000000
     99295     17287  TIP3      H1            -35.6596570254      -25.3274183979      -27.2188364757  TIP3      15927           0.0000000000
     99296     17287  TIP3      H2            -36.5446721516      -25.3284738002      -25.9881457818  TIP3      15927           0.0000000000
     99297     17288  TIP3      OH2           -24.1298951957      -40.1460863046      -39.6644589178  TIP3      15928           0.0000000000
     99298     17288  TIP3      H1            -25.0737871707      -40.0182404886      -39.4223947447  TIP3      15928           0.0000000000
     99299     17288  TIP3      H2            -23.9082432887      -39.3244924187      -40.1398982764  TIP3      15928           0.0000000000
     99300     17289  TIP3      OH2           -36.1271302813      -31.3909235253      -37.7134595823  TIP3      15929           0.0000000000
     99301     17289  TIP3      H1            -36.4171738640      -30.6137974184      -38.2362456434  TIP3      15929           0.0000000000
     99302     17289  TIP3      H2            -36.7958807881      -32.0468809632      -37.9488082450  TIP3      15929           0.0000000000
     99303     17290  TIP3      OH2           -23.0425516182      -25.8321340317      -41.2697792818  TIP3      15930           0.0000000000
     99304     17290  TIP3      H1            -22.8959716274      -24.8627566653      -41.2190826838  TIP3      15930           0.0000000000
     99305     17290  TIP3      H2            -22.1089079221      -26.0815759013      -41.4329423592  TIP3      15930           0.0000000000
     99306     17291  TIP3      OH2           -39.6238824889      -29.2069308764      -29.0404774048  TIP3      15931           0.0000000000
     99307     17291  TIP3      H1            -40.3977211104      -28.9956363451      -29.6063878274  TIP3      15931           0.0000000000
     99308     17291  TIP3      H2            -39.9936478626      -29.9905082404      -28.6024403177  TIP3      15931           0.0000000000
     99309     17292  TIP3      OH2           -40.2445765389      -26.1688411193      -32.1222472254  TIP3      15932           0.0000000000
     99310     17292  TIP3      H1            -39.3110651406      -26.4114875987      -32.0413993199  TIP3      15932           0.0000000000
     99311     17292  TIP3      H2            -40.3610672937      -25.4355143799      -31.5062611210  TIP3      15932           0.0000000000
     99312     17293  TIP3      OH2           -22.0630188499      -25.5338871397      -26.4194811525  TIP3      15933           0.0000000000
     99313     17293  TIP3      H1            -22.1603625346      -26.4943273240      -26.3879571708  TIP3      15933           0.0000000000
     99314     17293  TIP3      H2            -22.9116217978      -25.2779602994      -25.9850767092  TIP3      15933           0.0000000000
     99315     17294  TIP3      OH2           -31.0884753415      -25.9875741042      -27.5206126818  TIP3      15934           0.0000000000
     99316     17294  TIP3      H1            -31.0248606070      -25.1506052488      -27.0014112808  TIP3      15934           0.0000000000
     99317     17294  TIP3      H2            -31.9524361615      -26.3413666100      -27.2446427237  TIP3      15934           0.0000000000
     99318     17295  TIP3      OH2           -30.6621843495      -22.2392400864      -37.7177488567  TIP3      15935           0.0000000000
     99319     17295  TIP3      H1            -30.7499831295      -22.3157675621      -38.6806626566  TIP3      15935           0.0000000000
     99320     17295  TIP3      H2            -30.6298941144      -21.2809121846      -37.5596938647  TIP3      15935           0.0000000000
     99321     17296  TIP3      OH2           -37.0162552054      -23.3769034501      -35.9050663246  TIP3      15936           0.0000000000
     99322     17296  TIP3      H1            -36.8792074986      -23.7819749342      -35.0236588341  TIP3      15936           0.0000000000
     99323     17296  TIP3      H2            -37.8679259662      -23.7736216782      -36.1386818583  TIP3      15936           0.0000000000
     99324     17297  TIP3      OH2           -27.6439117423      -23.0444773875      -40.7536924771  TIP3      15937           0.0000000000
     99325     17297  TIP3      H1            -27.1402864415      -23.7808806073      -41.1666873542  TIP3      15937           0.0000000000
     99326     17297  TIP3      H2            -27.5610113522      -23.2870925669      -39.8121229404  TIP3      15937           0.0000000000
     99327     17298  TIP3      OH2           -27.9106411275      -23.0939985757      -37.9522022557  TIP3      15938           0.0000000000
     99328     17298  TIP3      H1            -28.8661603064      -23.0270038812      -37.7615170008  TIP3      15938           0.0000000000
     99329     17298  TIP3      H2            -27.6602225775      -23.8353016403      -37.3830925029  TIP3      15938           0.0000000000
     99330     17299  TIP3      OH2           -24.8363861448      -34.0729877916      -25.9342536008  TIP3      15939           0.0000000000
     99331     17299  TIP3      H1            -25.3826697227      -33.5903023159      -26.5704910089  TIP3      15939           0.0000000000
     99332     17299  TIP3      H2            -24.9469482847      -34.9890407317      -26.2159395610  TIP3      15939           0.0000000000
     99333     17300  TIP3      OH2           -37.8199146956      -27.5902788649      -27.8722191854  TIP3      15940           0.0000000000
     99334     17300  TIP3      H1            -37.5903720320      -28.0150663744      -27.0164523282  TIP3      15940           0.0000000000
     99335     17300  TIP3      H2            -38.6465517506      -28.0661729328      -28.1281755503  TIP3      15940           0.0000000000
     99336     17301  TIP3      OH2           -35.0800535171      -39.1813970304      -31.9372761587  TIP3      15941           0.0000000000
     99337     17301  TIP3      H1            -35.9939178722      -39.2404341377      -32.3087231439  TIP3      15941           0.0000000000
     99338     17301  TIP3      H2            -35.1976238899      -38.3621998047      -31.4310712028  TIP3      15941           0.0000000000
     99339     17302  TIP3      OH2           -30.4027007839      -39.0057253184      -28.4744463034  TIP3      15942           0.0000000000
     99340     17302  TIP3      H1            -29.9235455538      -39.6960139441      -28.0077403006  TIP3      15942           0.0000000000
     99341     17302  TIP3      H2            -31.2727025286      -39.4326153684      -28.6136429496  TIP3      15942           0.0000000000
     99342     17303  TIP3      OH2           -27.1782720516      -35.7126444565      -27.7128334354  TIP3      15943           0.0000000000
     99343     17303  TIP3      H1            -27.7106854512      -35.8673820727      -26.8933308911  TIP3      15943           0.0000000000
     99344     17303  TIP3      H2            -27.3038491077      -34.7681813961      -27.9038759966  TIP3      15943           0.0000000000
     99345     17304  TIP3      OH2           -26.4123982654      -30.7607772933      -41.9064229157  TIP3      15944           0.0000000000
     99346     17304  TIP3      H1            -26.4020602979      -31.0904834904      -42.8258005225  TIP3      15944           0.0000000000
     99347     17304  TIP3      H2            -25.4964668612      -30.5332424945      -41.7430580523  TIP3      15944           0.0000000000
     99348     17305  TIP3      OH2           -30.7757235947      -36.9790592693      -41.2045543558  TIP3      15945           0.0000000000
     99349     17305  TIP3      H1            -31.1280980334      -36.9918733808      -40.2998252032  TIP3      15945           0.0000000000
     99350     17305  TIP3      H2            -31.0972401928      -37.8324674016      -41.5095774105  TIP3      15945           0.0000000000
     99351     17306  TIP3      OH2           -34.9948145629      -34.2127085506      -30.7410887992  TIP3      15946           0.0000000000
     99352     17306  TIP3      H1            -35.7051928802      -34.2363893520      -30.0648471376  TIP3      15946           0.0000000000
     99353     17306  TIP3      H2            -35.0570872726      -33.2709117250      -31.0353716523  TIP3      15946           0.0000000000
     99354     17307  TIP3      OH2           -34.9925612725      -34.0857665380      -35.8022774436  TIP3      15947           0.0000000000
     99355     17307  TIP3      H1            -35.9486565059      -34.3083840827      -35.9604664637  TIP3      15947           0.0000000000
     99356     17307  TIP3      H2            -34.6516584398      -34.3716482227      -36.6796766433  TIP3      15947           0.0000000000
     99357     17308  TIP3      OH2           -29.5204485822      -33.5798467672      -37.0524107803  TIP3      15948           0.0000000000
     99358     17308  TIP3      H1            -29.9028458736      -32.7508431417      -37.4201229206  TIP3      15948           0.0000000000
     99359     17308  TIP3      H2            -28.8267628160      -33.7539190096      -37.7164266837  TIP3      15948           0.0000000000
     99360     17309  TIP3      OH2           -30.4177802778      -33.3625929673      -25.5743837547  TIP3      15949           0.0000000000
     99361     17309  TIP3      H1            -30.9521567760      -34.1546336747      -25.3205867607  TIP3      15949           0.0000000000
     99362     17309  TIP3      H2            -29.5773579290      -33.5104669951      -25.0995338060  TIP3      15949           0.0000000000
     99363     17310  TIP3      OH2           -28.5022886523      -34.1096985086      -34.2204553907  TIP3      15950           0.0000000000
     99364     17310  TIP3      H1            -28.7146470867      -33.5289284188      -34.9711169381  TIP3      15950           0.0000000000
     99365     17310  TIP3      H2            -28.3414595408      -34.9478648665      -34.6967281963  TIP3      15950           0.0000000000
     99366     17311  TIP3      OH2           -37.3586610711      -33.9352637101      -28.9851000320  TIP3      15951           0.0000000000
     99367     17311  TIP3      H1            -37.3203117074      -33.5127777830      -28.1104987360  TIP3      15951           0.0000000000
     99368     17311  TIP3      H2            -37.8198359884      -34.7651049414      -28.7885436523  TIP3      15951           0.0000000000
     99369     17312  TIP3      OH2           -33.9631917066      -36.6106564699      -42.1878832801  TIP3      15952           0.0000000000
     99370     17312  TIP3      H1            -34.4135833205      -36.9871590590      -41.4132465626  TIP3      15952           0.0000000000
     99371     17312  TIP3      H2            -34.6606957505      -36.1439217883      -42.6680996471  TIP3      15952           0.0000000000
     99372     17313  TIP3      OH2           -39.9447838441      -36.6961013825      -35.5476683507  TIP3      15953           0.0000000000
     99373     17313  TIP3      H1            -39.9869978462      -36.9172028362      -34.5771843707  TIP3      15953           0.0000000000
     99374     17313  TIP3      H2            -39.9615168888      -37.5748865328      -35.9608471381  TIP3      15953           0.0000000000
     99375     17314  TIP3      OH2           -39.2649007614      -35.9582723094      -39.5033686628  TIP3      15954           0.0000000000
     99376     17314  TIP3      H1            -38.8666734141      -35.4540927960      -40.2542402831  TIP3      15954           0.0000000000
     99377     17314  TIP3      H2            -40.0481046800      -35.4164287148      -39.3716671423  TIP3      15954           0.0000000000
     99378     17315  TIP3      OH2           -29.2991465621      -32.5151947610      -29.6679148047  TIP3      15955           0.0000000000
     99379     17315  TIP3      H1            -28.8879701669      -33.1933807421      -30.2393994231  TIP3      15955           0.0000000000
     99380     17315  TIP3      H2            -29.7167468404      -33.0416237793      -28.9657565066  TIP3      15955           0.0000000000
     99381     17316  TIP3      OH2           -32.4807734520      -36.3725988141      -34.7360729471  TIP3      15956           0.0000000000
     99382     17316  TIP3      H1            -33.4202495150      -36.6080208427      -34.5523876843  TIP3      15956           0.0000000000
     99383     17316  TIP3      H2            -31.9679181496      -36.8010046516      -34.0215295595  TIP3      15956           0.0000000000
     99384     17317  TIP3      OH2           -37.6003500553      -34.9678993051      -35.9793136869  TIP3      15957           0.0000000000
     99385     17317  TIP3      H1            -38.4947189835      -34.8255685568      -36.3364226663  TIP3      15957           0.0000000000
     99386     17317  TIP3      H2            -37.3844545538      -35.8394438342      -36.3609093955  TIP3      15957           0.0000000000
     99387     17318  TIP3      OH2           -34.0183054663      -34.9312935279      -38.2945691433  TIP3      15958           0.0000000000
     99388     17318  TIP3      H1            -33.0531354473      -34.8337856211      -38.1884059230  TIP3      15958           0.0000000000
     99389     17318  TIP3      H2            -34.2666253635      -34.2850201351      -38.9865218354  TIP3      15958           0.0000000000
     99390     17319  TIP3      OH2           -28.0589799897      -37.3395366238      -31.5871085279  TIP3      15959           0.0000000000
     99391     17319  TIP3      H1            -28.7372268285      -37.2689213599      -30.8826486545  TIP3      15959           0.0000000000
     99392     17319  TIP3      H2            -28.5621980116      -37.5819598374      -32.3730431495  TIP3      15959           0.0000000000
     99393     17320  TIP3      OH2           -35.2845650224      -33.7482541948      -40.7052686029  TIP3      15960           0.0000000000
     99394     17320  TIP3      H1            -35.8481724227      -34.1000601810      -41.4096997127  TIP3      15960           0.0000000000
     99395     17320  TIP3      H2            -34.4890274671      -33.5294991050      -41.2109703548  TIP3      15960           0.0000000000
     99396     17321  TIP3      OH2           -24.8590915218      -21.6304370963      -25.2363372845  TIP3      15961           0.0000000000
     99397     17321  TIP3      H1            -24.5809508802      -21.2789091467      -26.1017443673  TIP3      15961           0.0000000000
     99398     17321  TIP3      H2            -24.1123416384      -21.3734243961      -24.6713094220  TIP3      15961           0.0000000000
     99399     17322  TIP3      OH2           -37.0506644698      -29.2076994240      -25.7296371211  TIP3      15962           0.0000000000
     99400     17322  TIP3      H1            -36.4119320789      -28.9349868542      -25.0602791875  TIP3      15962           0.0000000000
     99401     17322  TIP3      H2            -37.8731143338      -29.0960484637      -25.1941793050  TIP3      15962           0.0000000000
     99402     17323  TIP3      OH2           -30.9678028861      -33.7591273943      -32.8358854356  TIP3      15963           0.0000000000
     99403     17323  TIP3      H1            -30.4459145495      -34.3176051435      -33.4405184962  TIP3      15963           0.0000000000
     99404     17323  TIP3      H2            -31.0962287885      -34.3131606497      -32.0497256094  TIP3      15963           0.0000000000
     99405     17324  TIP3      OH2           -36.1613319824      -37.6157054751      -36.4825982933  TIP3      15964           0.0000000000
     99406     17324  TIP3      H1            -36.4811837978      -38.5328799748      -36.4901615113  TIP3      15964           0.0000000000
     99407     17324  TIP3      H2            -35.3934489892      -37.6982244113      -37.0609562688  TIP3      15964           0.0000000000
     99408     17325  TIP3      OH2           -32.5339540104      -35.3893541893      -30.5848638388  TIP3      15965           0.0000000000
     99409     17325  TIP3      H1            -33.3857221365      -34.9630624664      -30.3505228075  TIP3      15965           0.0000000000
     99410     17325  TIP3      H2            -31.9856942080      -35.1389455841      -29.7996238937  TIP3      15965           0.0000000000
     99411     17326  TIP3      OH2           -31.9511957347      -29.2188009721      -38.8315791146  TIP3      15966           0.0000000000
     99412     17326  TIP3      H1            -32.7521062665      -29.6988371330      -39.1443215384  TIP3      15966           0.0000000000
     99413     17326  TIP3      H2            -32.1666056544      -29.1084236085      -37.8836373140  TIP3      15966           0.0000000000
     99414     17327  TIP3      OH2           -24.7725424036      -30.0306451875      -30.0165606422  TIP3      15967           0.0000000000
     99415     17327  TIP3      H1            -24.2082455720      -29.5446187434      -30.6435881656  TIP3      15967           0.0000000000
     99416     17327  TIP3      H2            -25.6329150709      -29.9752267163      -30.4801128881  TIP3      15967           0.0000000000
     99417     17328  TIP3      OH2           -28.1084306269      -36.4209280894      -40.6368384587  TIP3      15968           0.0000000000
     99418     17328  TIP3      H1            -29.0551514185      -36.2687581986      -40.8092908247  TIP3      15968           0.0000000000
     99419     17328  TIP3      H2            -27.7908185820      -35.5539435601      -40.3300425605  TIP3      15968           0.0000000000
     99420     17329  TIP3      OH2           -30.4759355338      -28.9561090265      -27.6002288974  TIP3      15969           0.0000000000
     99421     17329  TIP3      H1            -30.8108163190      -29.3822482066      -26.8008201419  TIP3      15969           0.0000000000
     99422     17329  TIP3      H2            -30.7144049842      -28.0321104341      -27.4750740363  TIP3      15969           0.0000000000
     99423     17330  TIP3      OH2           -27.3908571964      -34.4897065069      -38.9680296729  TIP3      15970           0.0000000000
     99424     17330  TIP3      H1            -26.4986060153      -34.6274495797      -38.5963617766  TIP3      15970           0.0000000000
     99425     17330  TIP3      H2            -27.2961985739      -33.6813268340      -39.4939612660  TIP3      15970           0.0000000000
     99426     17331  TIP3      OH2           -36.8597542345      -29.8230682589      -33.0040914790  TIP3      15971           0.0000000000
     99427     17331  TIP3      H1            -36.1866447962      -29.8959803333      -33.7036398657  TIP3      15971           0.0000000000
     99428     17331  TIP3      H2            -36.7919257737      -30.6863653508      -32.5584378742  TIP3      15971           0.0000000000
     99429     17332  TIP3      OH2           -29.8532970283      -27.7630465137      -39.7648455170  TIP3      15972           0.0000000000
     99430     17332  TIP3      H1            -30.2090744591      -26.9149033836      -39.4106428962  TIP3      15972           0.0000000000
     99431     17332  TIP3      H2            -30.5975954428      -28.3700336599      -39.5536980189  TIP3      15972           0.0000000000
     99432     17333  TIP3      OH2           -39.8654023351      -31.4726785403      -27.7474829828  TIP3      15973           0.0000000000
     99433     17333  TIP3      H1            -39.6468828167      -31.8947304685      -26.9050000617  TIP3      15973           0.0000000000
     99434     17333  TIP3      H2            -40.4963177407      -32.0649929572      -28.1730283794  TIP3      15973           0.0000000000
     99435     17334  TIP3      OH2           -32.8435113350      -31.8507145109      -25.5747312636  TIP3      15974           0.0000000000
     99436     17334  TIP3      H1            -33.1614534040      -32.1701446149      -26.4351733318  TIP3      15974           0.0000000000
     99437     17334  TIP3      H2            -31.9306549749      -32.1940847414      -25.5632722439  TIP3      15974           0.0000000000
     99438     17335  TIP3      OH2           -28.1618591137      -26.5357470348      -27.6223770790  TIP3      15975           0.0000000000
     99439     17335  TIP3      H1            -29.0862815835      -26.3544952378      -27.8597403428  TIP3      15975           0.0000000000
     99440     17335  TIP3      H2            -28.1922171825      -26.2459756980      -26.6895716630  TIP3      15975           0.0000000000
     99441     17336  TIP3      OH2           -22.4958193907      -34.3457466533      -39.2237844728  TIP3      15976           0.0000000000
     99442     17336  TIP3      H1            -23.0620037377      -34.6496569430      -39.9610152267  TIP3      15976           0.0000000000
     99443     17336  TIP3      H2            -22.4201934729      -33.4076812366      -39.5031038512  TIP3      15976           0.0000000000
     99444     17337  TIP3      OH2           -22.5097185186      -28.4917000391      -26.4205667494  TIP3      15977           0.0000000000
     99445     17337  TIP3      H1            -23.3992490548      -28.2820590326      -26.7965873737  TIP3      15977           0.0000000000
     99446     17337  TIP3      H2            -21.9531957160      -28.5177960727      -27.2232560645  TIP3      15977           0.0000000000
     99447     17338  TIP3      OH2           -24.2275595766      -25.5275476572      -38.8395695260  TIP3      15978           0.0000000000
     99448     17338  TIP3      H1            -24.5591226306      -26.3550452772      -38.4763832223  TIP3      15978           0.0000000000
     99449     17338  TIP3      H2            -23.8755660461      -25.7050937318      -39.7318037328  TIP3      15978           0.0000000000
     99450     17339  TIP3      OH2           -26.9962329691      -30.7089775110      -31.7310189915  TIP3      15979           0.0000000000
     99451     17339  TIP3      H1            -27.9354514522      -30.9190613908      -31.8396718269  TIP3      15979           0.0000000000
     99452     17339  TIP3      H2            -26.5674097939      -31.4690159287      -32.1643598190  TIP3      15979           0.0000000000
     99453     17340  TIP3      OH2           -34.4735059860      -26.3803021414      -35.6309976021  TIP3      15980           0.0000000000
     99454     17340  TIP3      H1            -33.9735859060      -25.5727537218      -35.8394019553  TIP3      15980           0.0000000000
     99455     17340  TIP3      H2            -35.3517803666      -26.1440415806      -35.9562543810  TIP3      15980           0.0000000000
     99456     17341  TIP3      OH2           -38.7902002985      -31.5854474737      -41.0365585806  TIP3      15981           0.0000000000
     99457     17341  TIP3      H1            -38.1278099183      -30.9329656063      -40.7205251796  TIP3      15981           0.0000000000
     99458     17341  TIP3      H2            -39.6065623213      -31.1828581748      -40.7395657482  TIP3      15981           0.0000000000
     99459     17342  TIP3      OH2           -33.0666704081      -28.7102008508      -36.1207343185  TIP3      15982           0.0000000000
     99460     17342  TIP3      H1            -33.3599780418      -27.7842605816      -36.0252290661  TIP3      15982           0.0000000000
     99461     17342  TIP3      H2            -33.8084326171      -29.1768593571      -35.6879722260  TIP3      15982           0.0000000000
     99462     17343  TIP3      OH2           -32.6157205863      -24.5286986771      -29.7065400233  TIP3      15983           0.0000000000
     99463     17343  TIP3      H1            -32.1547609476      -23.7238902377      -29.9917899282  TIP3      15983           0.0000000000
     99464     17343  TIP3      H2            -31.9897506435      -24.8739345852      -29.0434112227  TIP3      15983           0.0000000000
     99465     17344  TIP3      OH2           -34.3829874753      -23.7227594100      -36.5707226170  TIP3      15984           0.0000000000
     99466     17344  TIP3      H1            -35.3479246201      -23.5782481836      -36.4536722346  TIP3      15984           0.0000000000
     99467     17344  TIP3      H2            -34.0210212178      -22.8803048093      -36.2380395055  TIP3      15984           0.0000000000
     99468     17345  TIP3      OH2           -29.0709668043      -28.5225082070      -30.0833355679  TIP3      15985           0.0000000000
     99469     17345  TIP3      H1            -29.4112446855      -28.7196602448      -29.1858624930  TIP3      15985           0.0000000000
     99470     17345  TIP3      H2            -28.4411000495      -29.2405794489      -30.2527716395  TIP3      15985           0.0000000000
     99471     17346  TIP3      OH2           -26.8267316489      -27.5040807122      -40.9422813237  TIP3      15986           0.0000000000
     99472     17346  TIP3      H1            -26.5843750647      -27.9017714559      -40.0793936719  TIP3      15986           0.0000000000
     99473     17346  TIP3      H2            -27.7955969509      -27.6149801220      -40.8859226679  TIP3      15986           0.0000000000
     99474     17347  TIP3      OH2           -26.2694885543      -23.9468713803      -27.5938424978  TIP3      15987           0.0000000000
     99475     17347  TIP3      H1            -26.9562353592      -24.4438402877      -28.0780430753  TIP3      15987           0.0000000000
     99476     17347  TIP3      H2            -26.0827715750      -23.2482510846      -28.2555169828  TIP3      15987           0.0000000000
     99477     17348  TIP3      OH2           -22.2878397003      -23.0703308819      -40.7816709632  TIP3      15988           0.0000000000
     99478     17348  TIP3      H1            -21.5652752139      -22.4466710035      -40.9541799256  TIP3      15988           0.0000000000
     99479     17348  TIP3      H2            -22.9946306591      -22.4734034655      -40.4519835205  TIP3      15988           0.0000000000
     99480     17349  TIP3      OH2           -38.2328272929      -36.7259515981      -28.2256494703  TIP3      15989           0.0000000000
     99481     17349  TIP3      H1            -39.1270226672      -36.3576851787      -28.1970550968  TIP3      15989           0.0000000000
     99482     17349  TIP3      H2            -38.3424769285      -37.5831961421      -27.7681094666  TIP3      15989           0.0000000000
     99483     17350  TIP3      OH2           -25.9294680855      -28.8677231357      -38.8222785344  TIP3      15990           0.0000000000
     99484     17350  TIP3      H1            -26.2225584079      -29.5994130716      -38.2227125396  TIP3      15990           0.0000000000
     99485     17350  TIP3      H2            -25.0161302810      -28.7745932342      -38.5020744527  TIP3      15990           0.0000000000
     99486     17351  TIP3      OH2           -38.6017045897      -24.9228865437      -29.7658639759  TIP3      15991           0.0000000000
     99487     17351  TIP3      H1            -38.2823188758      -25.8451453883      -29.7760593296  TIP3      15991           0.0000000000
     99488     17351  TIP3      H2            -38.2974966933      -24.6153213350      -28.9039641081  TIP3      15991           0.0000000000
     99489     17352  TIP3      OH2           -32.6157292615      -26.4223676756      -42.5272782126  TIP3      15992           0.0000000000
     99490     17352  TIP3      H1            -32.4825882689      -27.1841657878      -43.0889297171  TIP3      15992           0.0000000000
     99491     17352  TIP3      H2            -33.0556251249      -26.7869577245      -41.7289162362  TIP3      15992           0.0000000000
     99492     17353  TIP3      OH2           -33.8375177364      -26.8553886749      -40.0636631625  TIP3      15993           0.0000000000
     99493     17353  TIP3      H1            -33.5901356632      -27.3697049375      -39.2864506637  TIP3      15993           0.0000000000
     99494     17353  TIP3      H2            -33.7871881778      -25.9229657905      -39.7522217300  TIP3      15993           0.0000000000
     99495     17354  TIP3      OH2           -37.3493128274      -29.5989268702      -39.6060794670  TIP3      15994           0.0000000000
     99496     17354  TIP3      H1            -38.0244933691      -29.2111110126      -39.0062775024  TIP3      15994           0.0000000000
     99497     17354  TIP3      H2            -36.8010125463      -28.8302569959      -39.8324860775  TIP3      15994           0.0000000000
     99498     17355  TIP3      OH2           -29.4397410323      -36.8199970552      -29.2901484158  TIP3      15995           0.0000000000
     99499     17355  TIP3      H1            -28.7575955873      -36.8331742756      -28.6055411341  TIP3      15995           0.0000000000
     99500     17355  TIP3      H2            -29.8354691540      -37.7090270330      -29.1185130717  TIP3      15995           0.0000000000
     99501     17356  TIP3      OH2           -28.7051213504      -37.3662855722      -38.1419550381  TIP3      15996           0.0000000000
     99502     17356  TIP3      H1            -28.4990929709      -36.8683153201      -38.9625565158  TIP3      15996           0.0000000000
     99503     17356  TIP3      H2            -28.1485543389      -36.9113526349      -37.4954475048  TIP3      15996           0.0000000000
     99504     17357  TIP3      OH2           -31.0402581448      -25.1925301931      -39.3730751104  TIP3      15997           0.0000000000
     99505     17357  TIP3      H1            -31.8581110631      -24.6682135503      -39.2679136318  TIP3      15997           0.0000000000
     99506     17357  TIP3      H2            -30.5183575794      -24.6510182975      -39.9800588804  TIP3      15997           0.0000000000
     99507     17358  TIP3      OH2           -31.5134005713      -35.6017790050      -37.3280990632  TIP3      15998           0.0000000000
     99508     17358  TIP3      H1            -30.7123856335      -35.0363945854      -37.3240783854  TIP3      15998           0.0000000000
     99509     17358  TIP3      H2            -31.7431197229      -35.7240328246      -36.3960123760  TIP3      15998           0.0000000000
     99510     17359  TIP3      OH2           -30.9569931077      -34.6016962808      -28.1780785118  TIP3      15999           0.0000000000
     99511     17359  TIP3      H1            -30.8819402169      -34.0326301690      -27.3865607876  TIP3      15999           0.0000000000
     99512     17359  TIP3      H2            -30.3043381082      -35.3014014796      -28.0300044962  TIP3      15999           0.0000000000
     99513     17360  TIP3      OH2           -30.6307542595      -38.5359777919      -36.4146496912  TIP3      16000           0.0000000000
     99514     17360  TIP3      H1            -30.9548112306      -37.8751344630      -35.7914183837  TIP3      16000           0.0000000000
     99515     17360  TIP3      H2            -29.9633087891      -37.9995210950      -36.9012294625  TIP3      16000           0.0000000000
     99516     17361  TIP3      OH2           -33.6668040977      -24.1550228673      -39.3047936418  TIP3      16001           0.0000000000
     99517     17361  TIP3      H1            -33.5171015225      -23.3376285043      -39.8331132761  TIP3      16001           0.0000000000
     99518     17361  TIP3      H2            -33.9199052941      -23.7944185034      -38.4316854371  TIP3      16001           0.0000000000
     99519     17362  TIP3      OH2           -35.0054340320      -37.4299933617      -39.7397842410  TIP3      16002           0.0000000000
     99520     17362  TIP3      H1            -35.0434146587      -36.5255051288      -39.3830816360  TIP3      16002           0.0000000000
     99521     17362  TIP3      H2            -34.0951995472      -37.6683192533      -39.4728784457  TIP3      16002           0.0000000000
     99522     17363  TIP3      OH2           -24.7545039687      -36.6877396602      -27.3233597926  TIP3      16003           0.0000000000
     99523     17363  TIP3      H1            -25.6981477671      -36.4061089210      -27.4157936207  TIP3      16003           0.0000000000
     99524     17363  TIP3      H2            -24.4955985884      -36.7444709131      -28.2538477243  TIP3      16003           0.0000000000
     99525     17364  TIP3      OH2           -26.1505552891      -32.9200920484      -33.2943217481  TIP3      16004           0.0000000000
     99526     17364  TIP3      H1            -26.9772476568      -33.3575157279      -33.5709740267  TIP3      16004           0.0000000000
     99527     17364  TIP3      H2            -25.6774281530      -33.6070618290      -32.7743557976  TIP3      16004           0.0000000000
     99528     17365  TIP3      OH2           -36.7342054821      -27.0027980485      -40.6904322169  TIP3      16005           0.0000000000
     99529     17365  TIP3      H1            -36.1027122167      -26.3409333921      -40.3961608848  TIP3      16005           0.0000000000
     99530     17365  TIP3      H2            -36.2341992438      -27.4598697698      -41.3935294305  TIP3      16005           0.0000000000
     99531     17366  TIP3      OH2           -38.4253891034      -34.3347219873      -41.5315453145  TIP3      16006           0.0000000000
     99532     17366  TIP3      H1            -38.3923151860      -33.3643244316      -41.4010869513  TIP3      16006           0.0000000000
     99533     17366  TIP3      H2            -39.2707993861      -34.5446756892      -41.9234696873  TIP3      16006           0.0000000000
     99534     17367  TIP3      OH2           -25.0916528977      -23.6598340226      -31.6216455123  TIP3      16007           0.0000000000
     99535     17367  TIP3      H1            -25.1837024401      -22.9784039124      -32.3138992389  TIP3      16007           0.0000000000
     99536     17367  TIP3      H2            -24.1270971864      -23.6047914758      -31.4458580447  TIP3      16007           0.0000000000
     99537     17368  TIP3      OH2           -37.6200983311      -39.4197528045      -32.8614476060  TIP3      16008           0.0000000000
     99538     17368  TIP3      H1            -37.8622583387      -39.4272854200      -33.8134601765  TIP3      16008           0.0000000000
     99539     17368  TIP3      H2            -38.0189320271      -40.2697728017      -32.5870888535  TIP3      16008           0.0000000000
     99540     17369  TIP3      OH2           -38.6243751780      -25.6242721152      -36.6647490335  TIP3      16009           0.0000000000
     99541     17369  TIP3      H1            -39.4876929579      -25.1916397325      -36.7054318288  TIP3      16009           0.0000000000
     99542     17369  TIP3      H2            -38.1686045676      -25.1355916232      -37.3622486405  TIP3      16009           0.0000000000
     99543     17370  TIP3      OH2           -39.4139076633      -22.9513744741      -25.3341123626  TIP3      16010           0.0000000000
     99544     17370  TIP3      H1            -38.7795550997      -23.2400238252      -24.6621105123  TIP3      16010           0.0000000000
     99545     17370  TIP3      H2            -39.8560672073      -23.7812596425      -25.5856933183  TIP3      16010           0.0000000000
     99546     17371  TIP3      OH2           -34.8196384312      -24.0917701469      -23.7634241964  TIP3      16011           0.0000000000
     99547     17371  TIP3      H1            -33.9898182289      -24.5252144974      -23.5070370425  TIP3      16011           0.0000000000
     99548     17371  TIP3      H2            -34.8217500026      -24.3129964445      -24.7199055075  TIP3      16011           0.0000000000
     99549     17372  TIP3      OH2           -30.6555150454      -24.5373625279      -42.3918950416  TIP3      16012           0.0000000000
     99550     17372  TIP3      H1            -31.3573663739      -25.1864766684      -42.1730905882  TIP3      16012           0.0000000000
     99551     17372  TIP3      H2            -29.9184389222      -25.1131656813      -42.6173261280  TIP3      16012           0.0000000000
     99552     17373  TIP3      OH2           -28.2261012956      -25.6680874260      -25.0252312624  TIP3      16013           0.0000000000
     99553     17373  TIP3      H1            -28.5610213726      -26.5518146393      -24.7658714083  TIP3      16013           0.0000000000
     99554     17373  TIP3      H2            -27.4641777861      -25.5437789299      -24.4305652448  TIP3      16013           0.0000000000
     99555     17374  TIP3      OH2           -26.0665529097      -24.7695136069      -42.1923424000  TIP3      16014           0.0000000000
     99556     17374  TIP3      H1            -25.7913388311      -25.5385421610      -41.6823688072  TIP3      16014           0.0000000000
     99557     17374  TIP3      H2            -25.2886069751      -24.5587450416      -42.7173030907  TIP3      16014           0.0000000000
     99558     17375  TIP3      OH2           -39.3041216399      -29.1965405055      -24.6075886713  TIP3      16015           0.0000000000
     99559     17375  TIP3      H1            -39.2619240912      -30.1670211112      -24.7802049612  TIP3      16015           0.0000000000
     99560     17375  TIP3      H2            -40.0756061629      -28.9044472064      -25.1212581803  TIP3      16015           0.0000000000
     99561     17376  TIP3      OH2           -35.1642151561      -28.8590837681      -42.3329368244  TIP3      16016           0.0000000000
     99562     17376  TIP3      H1            -35.0328534121      -29.6228631818      -41.7575201441  TIP3      16016           0.0000000000
     99563     17376  TIP3      H2            -34.4941393427      -28.9924526683      -43.0062035044  TIP3      16016           0.0000000000
     99564     17377  TIP3      OH2           -32.8167537665      -29.2127347791      -24.9843951106  TIP3      16017           0.0000000000
     99565     17377  TIP3      H1            -33.1387936087      -28.8882825572      -25.8505338304  TIP3      16017           0.0000000000
     99566     17377  TIP3      H2            -32.7300976694      -30.1866487074      -25.1303066100  TIP3      16017           0.0000000000
     99567     17378  TIP3      OH2           -29.7532789080      -27.7867133715      -42.5686075116  TIP3      16018           0.0000000000
     99568     17378  TIP3      H1            -30.0485615247      -27.6260684118      -41.6493784825  TIP3      16018           0.0000000000
     99569     17378  TIP3      H2            -29.9922871846      -28.7135904918      -42.7029471609  TIP3      16018           0.0000000000
     99570     17379  TIP3      OH2           -27.1160749830      -29.3383089171      -27.6214147296  TIP3      16019           0.0000000000
     99571     17379  TIP3      H1            -26.3327791009      -28.7509417315      -27.6823768662  TIP3      16019           0.0000000000
     99572     17379  TIP3      H2            -27.8164774748      -28.6749381948      -27.5778461467  TIP3      16019           0.0000000000
     99573     17380  TIP3      OH2           -38.6664536067      -31.9787253563      -25.0276114840  TIP3      16020           0.0000000000
     99574     17380  TIP3      H1            -38.1754218076      -32.8135978053      -25.1123842081  TIP3      16020           0.0000000000
     99575     17380  TIP3      H2            -38.8120833942      -31.9534137343      -24.0686815189  TIP3      16020           0.0000000000
     99576     17381  TIP3      OH2           -33.9573388786      -30.8242272415      -39.9448684814  TIP3      16021           0.0000000000
     99577     17381  TIP3      H1            -34.4766243968      -31.3624551141      -39.3251286898  TIP3      16021           0.0000000000
     99578     17381  TIP3      H2            -33.6697593864      -31.5085020209      -40.6024534531  TIP3      16021           0.0000000000
     99579     17382  TIP3      OH2           -34.7171780043      -33.0239271034      -27.6682975359  TIP3      16022           0.0000000000
     99580     17382  TIP3      H1            -35.3094084012      -32.3044328231      -27.3829512309  TIP3      16022           0.0000000000
     99581     17382  TIP3      H2            -34.3150998374      -32.6360054842      -28.4616475120  TIP3      16022           0.0000000000
     99582     17383  TIP3      OH2           -32.8978378994      -32.5326473100      -41.7481079533  TIP3      16023           0.0000000000
     99583     17383  TIP3      H1            -33.0302743314      -32.7811423905      -42.6795827163  TIP3      16023           0.0000000000
     99584     17383  TIP3      H2            -31.9212086842      -32.5511754166      -41.6454318032  TIP3      16023           0.0000000000
     99585     17384  TIP3      OH2           -29.6183336558      -30.4206156032      -24.2229416710  TIP3      16024           0.0000000000
     99586     17384  TIP3      H1            -28.6762411948      -30.4722782469      -24.4576440605  TIP3      16024           0.0000000000
     99587     17384  TIP3      H2            -29.7762986412      -31.2456245890      -23.7725675525  TIP3      16024           0.0000000000
     99588     17385  TIP3      OH2           -23.6803813308      -30.1853579501      -42.3159068107  TIP3      16025           0.0000000000
     99589     17385  TIP3      H1            -23.7393604050      -30.7075564611      -43.1354518236  TIP3      16025           0.0000000000
     99590     17385  TIP3      H2            -23.2937999966      -29.3563789117      -42.6313196553  TIP3      16025           0.0000000000
     99591     17386  TIP3      OH2           -34.2783631784      -35.6475727015      -26.6015060764  TIP3      16026           0.0000000000
     99592     17386  TIP3      H1            -34.1776154135      -36.3565081509      -27.2500766125  TIP3      16026           0.0000000000
     99593     17386  TIP3      H2            -34.3467447917      -34.8409329690      -27.1485143803  TIP3      16026           0.0000000000
     99594     17387  TIP3      OH2           -33.8879891182      -37.2595566017      -29.0672790437  TIP3      16027           0.0000000000
     99595     17387  TIP3      H1            -33.3779993214      -36.7916348778      -29.7621189509  TIP3      16027           0.0000000000
     99596     17387  TIP3      H2            -34.7928922618      -37.3616834149      -29.4493877189  TIP3      16027           0.0000000000
     99597     17388  TIP3      OH2           -32.3868781071      -31.8082249946      -28.8440363286  TIP3      16028           0.0000000000
     99598     17388  TIP3      H1            -31.5856642036      -31.9244645634      -29.3588470508  TIP3      16028           0.0000000000
     99599     17388  TIP3      H2            -32.7120422563      -30.9326154975      -29.1116512511  TIP3      16028           0.0000000000
     99600     17389  TIP3      OH2           -28.0043190396      -33.9954816304      -23.8235289919  TIP3      16029           0.0000000000
     99601     17389  TIP3      H1            -27.7684583794      -34.9347351393      -23.9157211314  TIP3      16029           0.0000000000
     99602     17389  TIP3      H2            -27.1272277538      -33.5693305778      -23.8298322333  TIP3      16029           0.0000000000
     99603     17390  TIP3      OH2           -26.6473550637      -31.2316560208      -25.7156485877  TIP3      16030           0.0000000000
     99604     17390  TIP3      H1            -26.8674343884      -30.4752386574      -26.2921107611  TIP3      16030           0.0000000000
     99605     17390  TIP3      H2            -25.6783740871      -31.2371313686      -25.8406455084  TIP3      16030           0.0000000000
     99606     17391  TIP3      OH2           -35.8572518636      -34.3949214387      -24.6884219309  TIP3      16031           0.0000000000
     99607     17391  TIP3      H1            -36.6244424887      -34.9738588458      -24.8563451345  TIP3      16031           0.0000000000
     99608     17391  TIP3      H2            -35.2008280872      -34.7776296880      -25.3004803369  TIP3      16031           0.0000000000
     99609     17392  TIP3      OH2           -33.2140234036      -39.7916571249      -28.6576114431  TIP3      16032           0.0000000000
     99610     17392  TIP3      H1            -33.2897416680      -38.8138042897      -28.7675623062  TIP3      16032           0.0000000000
     99611     17392  TIP3      H2            -33.9554241443      -40.1123907569      -29.1645241591  TIP3      16032           0.0000000000
     99612     17393  TIP3      OH2           -31.8233045000      -35.5108073698      -25.0446516971  TIP3      16033           0.0000000000
     99613     17393  TIP3      H1            -32.1366142789      -35.7458115505      -24.1545180729  TIP3      16033           0.0000000000
     99614     17393  TIP3      H2            -32.6324275097      -35.6768120237      -25.5653810065  TIP3      16033           0.0000000000
     99615     17394  TIP3      OH2           -29.1260214984      -36.3695533646      -25.9696913289  TIP3      16034           0.0000000000
     99616     17394  TIP3      H1            -30.0916663528      -36.3234751687      -25.8297523857  TIP3      16034           0.0000000000
     99617     17394  TIP3      H2            -28.8312886455      -36.9688832731      -25.2536970129  TIP3      16034           0.0000000000
     99618     17395  TIP3      OH2           -27.6135785378      -37.7091440713      -24.0528299929  TIP3      16035           0.0000000000
     99619     17395  TIP3      H1            -27.5904832600      -38.6855458571      -24.0304062764  TIP3      16035           0.0000000000
     99620     17395  TIP3      H2            -27.7484869589      -37.4244480526      -23.1168602995  TIP3      16035           0.0000000000
     99621     17396  TIP3      OH2           -37.6855314291      -36.4726151045      -24.9484052099  TIP3      16036           0.0000000000
     99622     17396  TIP3      H1            -37.4903745349      -37.2247608479      -25.5304932057  TIP3      16036           0.0000000000
     99623     17396  TIP3      H2            -37.8042827493      -36.9316503490      -24.0863255581  TIP3      16036           0.0000000000
     99624     17397  TIP3      OH2           -32.8376675556      -40.0277415672      -26.1085232938  TIP3      16037           0.0000000000
     99625     17397  TIP3      H1            -32.2102453069      -40.7810358038      -26.0529619631  TIP3      16037           0.0000000000
     99626     17397  TIP3      H2            -33.0434031330      -40.1267739769      -27.0615686416  TIP3      16037           0.0000000000
     99627     17398  TIP3      OH2           -32.5128820948      -38.8254900113      -23.8175404048  TIP3      16038           0.0000000000
     99628     17398  TIP3      H1            -32.6713518181      -39.2989564157      -24.6666724486  TIP3      16038           0.0000000000
     99629     17398  TIP3      H2            -33.1019660459      -38.0548163676      -23.9385601613  TIP3      16038           0.0000000000
     99630     17399  TIP3      OH2           -33.0527712729      -21.8653553889      -40.6631377057  TIP3      16039           0.0000000000
     99631     17399  TIP3      H1            -32.0785654066      -21.8245822132      -40.6205197460  TIP3      16039           0.0000000000
     99632     17399  TIP3      H2            -33.2358848096      -21.2817463882      -41.3965751905  TIP3      16039           0.0000000000
     99633     17400  TIP3      OH2           -39.3975954035      -27.2963759201      -41.1483064757  TIP3      16040           0.0000000000
     99634     17400  TIP3      H1            -38.4411373588      -27.2143885644      -40.9784539330  TIP3      16040           0.0000000000
     99635     17400  TIP3      H2            -39.4164747190      -27.8849719231      -41.9144439517  TIP3      16040           0.0000000000
     99636     17401  TIP3      OH2            40.7138996558      -21.8979450895      -36.2771051017  TIP3      16041           0.0000000000
     99637     17401  TIP3      H1             39.9519836394      -22.3697558618      -36.6411867852  TIP3      16041           0.0000000000
     99638     17401  TIP3      H2             40.9672962827      -22.5167460080      -35.5623135643  TIP3      16041           0.0000000000
     99639     17402  TIP3      OH2           -39.8789846076      -23.7908729350      -34.3942970119  TIP3      16042           0.0000000000
     99640     17402  TIP3      H1            -40.2396564112      -24.6791568035      -34.2126325050  TIP3      16042           0.0000000000
     99641     17402  TIP3      H2            -39.6346848443      -23.4559594814      -33.5076743228  TIP3      16042           0.0000000000
     99642     17403  TIP3      OH2           -22.3721965827      -23.0136630588      -31.4224687539  TIP3      16043           0.0000000000
     99643     17403  TIP3      H1            -22.3409799517      -22.8549814188      -30.4624751291  TIP3      16043           0.0000000000
     99644     17403  TIP3      H2            -21.6666847716      -22.4342491249      -31.7285963221  TIP3      16043           0.0000000000
     99645     17404  TIP3      OH2           -22.8032701135      -23.4170464755      -28.4792258859  TIP3      16044           0.0000000000
     99646     17404  TIP3      H1            -23.2703102153      -24.1887954197      -28.8601018446  TIP3      16044           0.0000000000
     99647     17404  TIP3      H2            -22.2987873450      -23.8658451761      -27.7809956006  TIP3      16044           0.0000000000
     99648     17405  TIP3      OH2           -24.3252058208      -27.6588186749      -23.8167606028  TIP3      16045           0.0000000000
     99649     17405  TIP3      H1            -25.2216393316      -27.7726366574      -23.4325249194  TIP3      16045           0.0000000000
     99650     17405  TIP3      H2            -24.0002182118      -26.8783022656      -23.3765234342  TIP3      16045           0.0000000000
     99651     17406  TIP3      OH2           -23.0374323764      -29.3762578824      -38.4047738303  TIP3      16046           0.0000000000
     99652     17406  TIP3      H1            -22.1765510911      -28.9736805218      -38.1822699667  TIP3      16046           0.0000000000
     99653     17406  TIP3      H2            -23.0535522138      -30.0819806942      -37.7130609897  TIP3      16046           0.0000000000
     99654     17407  TIP3      OH2           -22.6760371947      -31.2883998535      -36.4953292172  TIP3      16047           0.0000000000
     99655     17407  TIP3      H1            -23.4242003345      -31.8015706839      -36.1109833039  TIP3      16047           0.0000000000
     99656     17407  TIP3      H2            -22.0785995185      -31.1601384233      -35.7277125286  TIP3      16047           0.0000000000
     99657     17408  TIP3      OH2           -22.9175780219      -28.5937473755      -31.5046704715  TIP3      16048           0.0000000000
     99658     17408  TIP3      H1            -22.1012566262      -28.9691701394      -31.8817702576  TIP3      16048           0.0000000000
     99659     17408  TIP3      H2            -22.7749606447      -27.6407699536      -31.6767312234  TIP3      16048           0.0000000000
     99660     17409  TIP3      OH2           -24.3627711071      -25.6907151348      -29.2384652168  TIP3      16049           0.0000000000
     99661     17409  TIP3      H1            -25.0535156327      -25.3508386016      -28.6462252727  TIP3      16049           0.0000000000
     99662     17409  TIP3      H2            -24.9114636187      -26.0968113399      -29.9432968411  TIP3      16049           0.0000000000
     99663     17410  TIP3      OH2           -22.3712460074      -31.4458255620      -40.1353119564  TIP3      16050           0.0000000000
     99664     17410  TIP3      H1            -22.9470972213      -31.1094731903      -40.8398549443  TIP3      16050           0.0000000000
     99665     17410  TIP3      H2            -22.4578737408      -30.7694470727      -39.4348089423  TIP3      16050           0.0000000000
     99666     17411  TIP3      OH2           -24.0534047512      -34.2340320061      -41.5457511868  TIP3      16051           0.0000000000
     99667     17411  TIP3      H1            -23.9266093549      -33.6023223153      -42.2544280502  TIP3      16051           0.0000000000
     99668     17411  TIP3      H2            -24.1919312381      -35.0629477404      -42.0502175672  TIP3      16051           0.0000000000
     99669     17412  TIP3      OH2           -24.8570528852      -32.8198706559      -35.9269138922  TIP3      16052           0.0000000000
     99670     17412  TIP3      H1            -25.0051698884      -33.7758077076      -35.9600201037  TIP3      16052           0.0000000000
     99671     17412  TIP3      H2            -25.1899107583      -32.5958752236      -35.0408410426  TIP3      16052           0.0000000000
     99672     17413  TIP3      OH2           -39.9001104179      -30.7907039878      -31.8892584194  TIP3      16053           0.0000000000
     99673     17413  TIP3      H1            -39.6799501556      -30.8100420370      -32.8403518684  TIP3      16053           0.0000000000
     99674     17413  TIP3      H2            -39.0113536458      -30.8770536748      -31.4931387684  TIP3      16053           0.0000000000
     99675     17414  TIP3      OH2           -24.0035151830      -30.8542085719      -26.2889931397  TIP3      16054           0.0000000000
     99676     17414  TIP3      H1            -23.4022516633      -31.5902409643      -26.0570870922  TIP3      16054           0.0000000000
     99677     17414  TIP3      H2            -23.4185905193      -30.0706242138      -26.2284545077  TIP3      16054           0.0000000000
     99678     17415  TIP3      OH2           -22.4586487861      -32.9883337791      -25.8275434614  TIP3      16055           0.0000000000
     99679     17415  TIP3      H1            -23.3833229782      -33.3273961500      -25.7027027183  TIP3      16055           0.0000000000
     99680     17415  TIP3      H2            -21.9490288023      -33.7581992200      -25.5453726262  TIP3      16055           0.0000000000
     99681     17416  TIP3      OH2           -24.8022740352      -36.7322216626      -42.3931104308  TIP3      16056           0.0000000000
     99682     17416  TIP3      H1            -24.1692457657      -37.2070676417      -41.8178426026  TIP3      16056           0.0000000000
     99683     17416  TIP3      H2            -25.6311523698      -37.2187757226      -42.2835526746  TIP3      16056           0.0000000000
     99684     17417  TIP3      OH2           -25.1925665697      -35.2435285669      -37.4488986436  TIP3      16057           0.0000000000
     99685     17417  TIP3      H1            -24.8906957881      -36.1710825780      -37.3373863020  TIP3      16057           0.0000000000
     99686     17417  TIP3      H2            -24.4030990850      -34.8443072836      -37.8382830360  TIP3      16057           0.0000000000
     99687     17418  TIP3      OH2           -24.5351458948      -34.7111152148      -32.0147399702  TIP3      16058           0.0000000000
     99688     17418  TIP3      H1            -23.5898508623      -34.4457986047      -32.0443072983  TIP3      16058           0.0000000000
     99689     17418  TIP3      H2            -24.7567701811      -34.5417502853      -31.0847404963  TIP3      16058           0.0000000000
     99690     17419  TIP3      OH2           -24.4770342524      -33.9524015201      -29.2244424862  TIP3      16059           0.0000000000
     99691     17419  TIP3      H1            -25.3685856703      -33.6798427068      -28.9030655159  TIP3      16059           0.0000000000
     99692     17419  TIP3      H2            -24.0831053383      -33.0861734162      -29.4806991017  TIP3      16059           0.0000000000
     99693     17420  TIP3      OH2           -40.1160952711      -35.5909131170      -25.8807584198  TIP3      16060           0.0000000000
     99694     17420  TIP3      H1            -39.2136595591      -35.6901122548      -25.5344691626  TIP3      16060           0.0000000000
     99695     17420  TIP3      H2            -40.6227438000      -36.2553958501      -25.4008684227  TIP3      16060           0.0000000000
     99696     17421  TIP3      OH2           -22.1871024389      -39.9696650393      -23.8407521392  TIP3      16061           0.0000000000
     99697     17421  TIP3      H1            -21.8965956433      -40.5653029611      -24.5424866379  TIP3      16061           0.0000000000
     99698     17421  TIP3      H2            -22.1327488181      -39.1035449673      -24.2803919075  TIP3      16061           0.0000000000
     99699     17422  TIP3      OH2           -24.5345065542      -37.9753495317      -37.4223524502  TIP3      16062           0.0000000000
     99700     17422  TIP3      H1            -24.3499699636      -38.4076624787      -36.5611869087  TIP3      16062           0.0000000000
     99701     17422  TIP3      H2            -25.1604549539      -38.5935458118      -37.8593797441  TIP3      16062           0.0000000000
     99702     17423  TIP3      OH2           -39.0954815736      -37.1608920948      -32.8633313139  TIP3      16063           0.0000000000
     99703     17423  TIP3      H1            -38.6067228610      -37.9679414725      -32.5981730172  TIP3      16063           0.0000000000
     99704     17423  TIP3      H2            -38.5426366125      -36.4696923027      -32.4767628464  TIP3      16063           0.0000000000
     99705     17424  TIP3      OH2           -40.7725301000      -33.9092196588      -32.4496186734  TIP3      16064           0.0000000000
     99706     17424  TIP3      H1            -40.0342088185      -34.4529362488      -32.7811857079  TIP3      16064           0.0000000000
     99707     17424  TIP3      H2            -40.2223936058      -33.4122311385      -31.8112116049  TIP3      16064           0.0000000000
     99708     17425  TIP3      OH2           -22.6694937999      -37.7700501622      -25.6556797113  TIP3      16065           0.0000000000
     99709     17425  TIP3      H1            -23.6285300419      -37.6060068359      -25.5668607493  TIP3      16065           0.0000000000
     99710     17425  TIP3      H2            -22.6641033285      -38.4688903509      -26.3273925083  TIP3      16065           0.0000000000
     99711     17426  TIP3      OH2           -22.6869470607      -37.8880585582      -40.8763781069  TIP3      16066           0.0000000000
     99712     17426  TIP3      H1            -22.2878610285      -38.6239029346      -41.3593223764  TIP3      16066           0.0000000000
     99713     17426  TIP3      H2            -21.9662752600      -37.2416435784      -40.8346670249  TIP3      16066           0.0000000000
     99714     17427  TIP3      OH2           -40.2127320248      -38.0637074140      -37.7432800707  TIP3      16067           0.0000000000
     99715     17427  TIP3      H1            -41.1480091672      -37.8293935802      -37.9715847807  TIP3      16067           0.0000000000
     99716     17427  TIP3      H2            -39.7880473920      -37.4010226358      -38.3275425781  TIP3      16067           0.0000000000
     99717     17428  TIP3      OH2           -25.6476644128      -22.9264934999      -35.8054627852  TIP3      16068           0.0000000000
     99718     17428  TIP3      H1            -24.9595226685      -23.2405302314      -36.4228019717  TIP3      16068           0.0000000000
     99719     17428  TIP3      H2            -25.1292134227      -22.4347680083      -35.1511957758  TIP3      16068           0.0000000000
     99720     17429  TIP3      OH2            41.0384077540      -39.0838860915      -29.3063486281  TIP3      16069           0.0000000000
     99721     17429  TIP3      H1             40.3486952807      -39.4464952878      -28.7605308507  TIP3      16069           0.0000000000
     99722     17429  TIP3      H2             40.5323723801      -38.5804292714      -29.9563584061  TIP3      16069           0.0000000000
     99723     17430  TIP3      OH2           -38.2452396896      -25.9556036275      -25.2867856087  TIP3      16070           0.0000000000
     99724     17430  TIP3      H1            -39.0923691599      -25.8270424210      -25.7249910589  TIP3      16070           0.0000000000
     99725     17430  TIP3      H2            -38.5100945776      -26.1371711881      -24.3763717893  TIP3      16070           0.0000000000
     99726     17431  TIP3      OH2           -35.3056613520      -25.0259758570      -29.0221299311  TIP3      16071           0.0000000000
     99727     17431  TIP3      H1            -35.6613388791      -24.1654318482      -29.2868506100  TIP3      16071           0.0000000000
     99728     17431  TIP3      H2            -34.3748833519      -24.9279527518      -29.3205199989  TIP3      16071           0.0000000000
     99729     17432  TIP3      OH2           -30.9687374963      -23.6182096264      -26.1119460858  TIP3      16072           0.0000000000
     99730     17432  TIP3      H1            -30.8236971811      -23.9226319664      -25.1787109486  TIP3      16072           0.0000000000
     99731     17432  TIP3      H2            -30.0768264632      -23.2930034245      -26.3510981063  TIP3      16072           0.0000000000
     99732     17433  TIP3      OH2           -28.6763967234      -22.3062878352      -26.8142083767  TIP3      16073           0.0000000000
     99733     17433  TIP3      H1            -27.9575750306      -22.9176534199      -27.0332830796  TIP3      16073           0.0000000000
     99734     17433  TIP3      H2            -28.3217548765      -21.9044405283      -25.9914883375  TIP3      16073           0.0000000000
     99735     17434  TIP3      OH2           -23.7008718157      -39.6299907711      -27.7316334504  TIP3      16074           0.0000000000
     99736     17434  TIP3      H1            -24.5757970238      -39.3803083499      -28.0647021206  TIP3      16074           0.0000000000
     99737     17434  TIP3      H2            -23.5431945530      -40.4890289934      -28.0908113236  TIP3      16074           0.0000000000
     99738     17435  TIP3      OH2           -37.8813438660      -21.7856535784      -28.9989987627  TIP3      16075           0.0000000000
     99739     17435  TIP3      H1            -38.6184147822      -21.2973975886      -29.4099053423  TIP3      16075           0.0000000000
     99740     17435  TIP3      H2            -38.2299119987      -21.9658249739      -28.1146360134  TIP3      16075           0.0000000000
     99741     17436  TIP3      OH2           -35.4038250195      -22.2032814571      -29.9392790731  TIP3      16076           0.0000000000
     99742     17436  TIP3      H1            -36.3013642115      -22.0624869706      -29.5527443198  TIP3      16076           0.0000000000
     99743     17436  TIP3      H2            -35.4671898024      -21.6187708396      -30.7197636200  TIP3      16076           0.0000000000
     99744     17437  TIP3      OH2           -30.6997028789      -22.2875866141      -30.7759087193  TIP3      16077           0.0000000000
     99745     17437  TIP3      H1            -31.1624892832      -21.7353904382      -31.4235832375  TIP3      16077           0.0000000000
     99746     17437  TIP3      H2            -30.5638963358      -21.6578691341      -30.0353641133  TIP3      16077           0.0000000000
     99747     17438  TIP3      OH2           -28.4060219433      -23.4814134148      -29.7539491037  TIP3      16078           0.0000000000
     99748     17438  TIP3      H1            -29.2657988685      -23.2106796878      -30.1141571577  TIP3      16078           0.0000000000
     99749     17438  TIP3      H2            -27.9294500553      -22.6381498735      -29.8444138816  TIP3      16078           0.0000000000
     99750     17439  TIP3      OH2           -25.8158937190      -21.9036053011      -29.5222443786  TIP3      16079           0.0000000000
     99751     17439  TIP3      H1            -25.8895155761      -20.9468733189      -29.7507915541  TIP3      16079           0.0000000000
     99752     17439  TIP3      H2            -25.6113746458      -22.2809148470      -30.4006775761  TIP3      16079           0.0000000000
     99753     17440  TIP3      OH2           -38.4348860052      -23.1607003327      -32.0899125253  TIP3      16080           0.0000000000
     99754     17440  TIP3      H1            -38.4544423942      -23.5866833821      -31.2140092449  TIP3      16080           0.0000000000
     99755     17440  TIP3      H2            -37.6015011963      -23.4954024058      -32.4778897534  TIP3      16080           0.0000000000
     99756     17441  TIP3      OH2           -36.3612213445      -24.4262414831      -33.4094186563  TIP3      16081           0.0000000000
     99757     17441  TIP3      H1            -36.5123284623      -25.3675337115      -33.2000716868  TIP3      16081           0.0000000000
     99758     17441  TIP3      H2            -35.5007166049      -24.2718065574      -32.9630287830  TIP3      16081           0.0000000000
     99759     17442  TIP3      OH2           -33.7456631474      -23.9398523449      -32.5450802092  TIP3      16082           0.0000000000
     99760     17442  TIP3      H1            -33.5794269682      -24.8620829593      -32.8103217493  TIP3      16082           0.0000000000
     99761     17442  TIP3      H2            -33.6950681144      -23.9984579429      -31.5806576390  TIP3      16082           0.0000000000
     99762     17443  TIP3      OH2           -30.3283756271      -38.2542282133      -33.4115524243  TIP3      16083           0.0000000000
     99763     17443  TIP3      H1            -30.9261620986      -38.9655237163      -33.1214477136  TIP3      16083           0.0000000000
     99764     17443  TIP3      H2            -29.7035058563      -38.7791969114      -33.9421356196  TIP3      16083           0.0000000000
     99765     17444  TIP3      OH2           -25.3041270128      -40.2384166291      -33.7692924016  TIP3      16084           0.0000000000
     99766     17444  TIP3      H1            -24.6027052848      -39.5788821183      -33.9439527540  TIP3      16084           0.0000000000
     99767     17444  TIP3      H2            -26.1260915591      -39.7548150497      -33.6071509308  TIP3      16084           0.0000000000
     99768     17445  TIP3      OH2           -23.4127186609      -38.9437768287      -35.0583308589  TIP3      16085           0.0000000000
     99769     17445  TIP3      H1            -22.8084591047      -39.5815795788      -35.4701887911  TIP3      16085           0.0000000000
     99770     17445  TIP3      H2            -22.9144468686      -38.1019706968      -34.9866865060  TIP3      16085           0.0000000000
     99771     17446  TIP3      OH2           -38.0582164888      -39.2164458391      -35.4426383848  TIP3      16086           0.0000000000
     99772     17446  TIP3      H1            -38.7057412495      -39.6401956870      -36.0045081636  TIP3      16086           0.0000000000
     99773     17446  TIP3      H2            -37.4694491073      -40.0141152846      -35.3922642118  TIP3      16086           0.0000000000
     99774     17447  TIP3      OH2           -39.1687983015      -39.7098460806      -39.8989510874  TIP3      16087           0.0000000000
     99775     17447  TIP3      H1            -38.6286421486      -39.0952132699      -40.4092040073  TIP3      16087           0.0000000000
     99776     17447  TIP3      H2            -39.7338981650      -39.2122415603      -39.2996928993  TIP3      16087           0.0000000000
     99777     17448  TIP3      OH2           -33.4124109938      -39.6828962305      -35.7591056207  TIP3      16088           0.0000000000
     99778     17448  TIP3      H1            -32.4924923557      -39.3967148349      -35.8247059121  TIP3      16088           0.0000000000
     99779     17448  TIP3      H2            -33.4376945057      -39.9807019938      -34.8507350136  TIP3      16088           0.0000000000
     99780     17449  TIP3      OH2           -27.8773753040      -39.7073321394      -34.1504183866  TIP3      16089           0.0000000000
     99781     17449  TIP3      H1            -27.7381659954      -39.6445361284      -35.0991482490  TIP3      16089           0.0000000000
     99782     17449  TIP3      H2            -28.0629192085      -40.6582513510      -34.0380385102  TIP3      16089           0.0000000000
     99783     17450  TIP3      OH2           -26.5292221727      -39.6175837426      -38.6692152393  TIP3      16090           0.0000000000
     99784     17450  TIP3      H1            -27.2889415137      -39.0303322631      -38.6594803777  TIP3      16090           0.0000000000
     99785     17450  TIP3      H2            -26.8412709813      -40.4464674193      -38.2705577693  TIP3      16090           0.0000000000
     99786     17451  TIP3      OH2           -39.2479746216      -23.9474136436      -38.7900723603  TIP3      16091           0.0000000000
     99787     17451  TIP3      H1            -39.8590101232      -23.9657283376      -39.5395103027  TIP3      16091           0.0000000000
     99788     17451  TIP3      H2            -39.1715339285      -22.9914423777      -38.6752529658  TIP3      16091           0.0000000000
     99789     17452  TIP3      OH2           -37.3334633112      -38.0167447971      -41.3174042001  TIP3      16092           0.0000000000
     99790     17452  TIP3      H1            -36.7865113921      -38.5938305468      -41.8637783047  TIP3      16092           0.0000000000
     99791     17452  TIP3      H2            -36.6509336196      -37.6487996582      -40.7272173088  TIP3      16092           0.0000000000
     99792     17453  TIP3      OH2           -32.3348503834      -37.7275348004      -38.9002255448  TIP3      16093           0.0000000000
     99793     17453  TIP3      H1            -32.0164925426      -38.2877031679      -38.1729022996  TIP3      16093           0.0000000000
     99794     17453  TIP3      H2            -32.2299624440      -36.8601522509      -38.4586507658  TIP3      16093           0.0000000000
     99795     17454  TIP3      OH2           -30.3735592622      -22.6119648318      -40.5137096999  TIP3      16094           0.0000000000
     99796     17454  TIP3      H1            -29.4282993739      -22.4403537812      -40.6715480120  TIP3      16094           0.0000000000
     99797     17454  TIP3      H2            -30.5619295584      -23.1879552367      -41.2872632425  TIP3      16094           0.0000000000
     99798     17455  TIP3      OH2           -23.6465016956      -23.1406208927      -37.7604206199  TIP3      16095           0.0000000000
     99799     17455  TIP3      H1            -23.8530105268      -23.9153869083      -38.3343194415  TIP3      16095           0.0000000000
     99800     17455  TIP3      H2            -23.7394443537      -22.4081104038      -38.3986075609  TIP3      16095           0.0000000000
     99801     17456  TIP3      OH2           -38.0620231463      -39.1304980023      -26.0549375638  TIP3      16096           0.0000000000
     99802     17456  TIP3      H1            -38.4017362598      -39.9472414725      -25.6649480952  TIP3      16096           0.0000000000
     99803     17456  TIP3      H2            -37.1331919016      -39.1537424418      -25.7453327075  TIP3      16096           0.0000000000
     99804     17457  TIP3      OH2           -35.9884726379      -39.7530279276      -24.4620712582  TIP3      16097           0.0000000000
     99805     17457  TIP3      H1            -35.1185652285      -40.0852302153      -24.7065899412  TIP3      16097           0.0000000000
     99806     17457  TIP3      H2            -36.4082496509      -40.5602393537      -24.1198490758  TIP3      16097           0.0000000000
     99807     17458  TIP3      OH2           -37.3936561246      -22.9720109893      -41.8626695687  TIP3      16098           0.0000000000
     99808     17458  TIP3      H1            -37.6891226283      -22.7004691195      -40.9915153917  TIP3      16098           0.0000000000
     99809     17458  TIP3      H2            -36.6555900288      -23.5531028172      -41.6830374070  TIP3      16098           0.0000000000
     99810     17459  TIP3      OH2           -27.5736022985      -40.4371143178      -24.2783490129  TIP3      16099           0.0000000000
     99811     17459  TIP3      H1            -27.4498043993      -40.9497185004      -23.4960399964  TIP3      16099           0.0000000000
     99812     17459  TIP3      H2            -26.7079871446      -40.4763818087      -24.7104134755  TIP3      16099           0.0000000000
     99813     17460  TIP3      OH2           -24.4131319063      -24.4204062121      -25.6561858998  TIP3      16100           0.0000000000
     99814     17460  TIP3      H1            -25.2135335324      -24.5486101352      -26.2072400209  TIP3      16100           0.0000000000
     99815     17460  TIP3      H2            -24.5167292564      -23.4694512085      -25.4591958693  TIP3      16100           0.0000000000
     99816     17461  TIP3      OH2            -9.9708062113      -30.5281844572      -35.7025253609  TIP3      16101           0.0000000000
     99817     17461  TIP3      H1             -9.9768490247      -29.5485703918      -35.7429482299  TIP3      16101           0.0000000000
     99818     17461  TIP3      H2            -10.6965514998      -30.7628961573      -36.3056152816  TIP3      16101           0.0000000000
     99819     17462  TIP3      OH2           -11.1141733571      -31.2694016104      -32.1982423776  TIP3      16102           0.0000000000
     99820     17462  TIP3      H1            -11.1258981372      -31.9209527024      -31.4854778733  TIP3      16102           0.0000000000
     99821     17462  TIP3      H2            -11.4545253547      -31.7731040109      -32.9562381401  TIP3      16102           0.0000000000
     99822     17463  TIP3      OH2           -18.7680870584      -31.5968071519      -30.6305843979  TIP3      16103           0.0000000000
     99823     17463  TIP3      H1            -18.6479992257      -32.2782755011      -29.9437257279  TIP3      16103           0.0000000000
     99824     17463  TIP3      H2            -18.0111838183      -31.0182005593      -30.4468643678  TIP3      16103           0.0000000000
     99825     17464  TIP3      OH2            -7.4218144391      -28.3223237517      -33.9181906591  TIP3      16104           0.0000000000
     99826     17464  TIP3      H1             -7.8392088383      -29.0384852701      -33.4290922813  TIP3      16104           0.0000000000
     99827     17464  TIP3      H2             -7.4014398936      -27.6127254932      -33.2494933413  TIP3      16104           0.0000000000
     99828     17465  TIP3      OH2           -17.8314059889      -27.1489034035      -32.1423146509  TIP3      16105           0.0000000000
     99829     17465  TIP3      H1            -18.1446589153      -28.0151641168      -32.4656582915  TIP3      16105           0.0000000000
     99830     17465  TIP3      H2            -16.8759509591      -27.3334942100      -32.0955981854  TIP3      16105           0.0000000000
     99831     17466  TIP3      OH2           -21.1917078745      -33.5862589381      -36.6578577546  TIP3      16106           0.0000000000
     99832     17466  TIP3      H1            -21.6316570120      -32.7169933656      -36.7243054287  TIP3      16106           0.0000000000
     99833     17466  TIP3      H2            -21.7540716921      -34.1316802953      -37.2241229569  TIP3      16106           0.0000000000
     99834     17467  TIP3      OH2           -20.4831278016      -31.3631508226      -34.5145561198  TIP3      16107           0.0000000000
     99835     17467  TIP3      H1            -20.2122187689      -32.1813895433      -34.0553319005  TIP3      16107           0.0000000000
     99836     17467  TIP3      H2            -19.7825525708      -31.2607935897      -35.1767466422  TIP3      16107           0.0000000000
     99837     17468  TIP3      OH2           -10.2990124198      -23.1636275462      -33.6783262469  TIP3      16108           0.0000000000
     99838     17468  TIP3      H1             -9.6567747083      -23.8584723408      -33.9659614764  TIP3      16108           0.0000000000
     99839     17468  TIP3      H2            -10.5168288836      -23.4943136354      -32.8075873302  TIP3      16108           0.0000000000
     99840     17469  TIP3      OH2           -12.7349701165      -28.8686802864      -31.7361136011  TIP3      16109           0.0000000000
     99841     17469  TIP3      H1            -12.3964518240      -29.4992958011      -32.3898608373  TIP3      16109           0.0000000000
     99842     17469  TIP3      H2            -11.9297475476      -28.7127190026      -31.2133588012  TIP3      16109           0.0000000000
     99843     17470  TIP3      OH2            -4.1087393329      -37.2709203508      -30.9952702109  TIP3      16110           0.0000000000
     99844     17470  TIP3      H1             -3.9698637956      -36.6424455398      -30.2442006879  TIP3      16110           0.0000000000
     99845     17470  TIP3      H2             -3.5913093011      -36.8012312357      -31.6664922072  TIP3      16110           0.0000000000
     99846     17471  TIP3      OH2            -9.5505577567      -34.3851175004      -31.4297156859  TIP3      16111           0.0000000000
     99847     17471  TIP3      H1             -9.4079398268      -35.3501192462      -31.4153466881  TIP3      16111           0.0000000000
     99848     17471  TIP3      H2             -9.6714499760      -34.2558297850      -32.3888544293  TIP3      16111           0.0000000000
     99849     17472  TIP3      OH2           -16.4500125866      -36.3060479227      -34.1984368930  TIP3      16112           0.0000000000
     99850     17472  TIP3      H1            -16.3488880742      -35.4731366590      -34.6968498500  TIP3      16112           0.0000000000
     99851     17472  TIP3      H2            -16.8467581435      -36.8962270783      -34.8768291406  TIP3      16112           0.0000000000
     99852     17473  TIP3      OH2            -8.7235669088      -36.2359038054      -35.8300675912  TIP3      16113           0.0000000000
     99853     17473  TIP3      H1             -8.0682577527      -36.5523834630      -35.1688838446  TIP3      16113           0.0000000000
     99854     17473  TIP3      H2             -8.1656491731      -35.6614042384      -36.3746412843  TIP3      16113           0.0000000000
     99855     17474  TIP3      OH2           -19.8368657281      -33.8762771380      -33.4393339864  TIP3      16114           0.0000000000
     99856     17474  TIP3      H1            -19.1569617180      -34.4414959691      -33.0205294133  TIP3      16114           0.0000000000
     99857     17474  TIP3      H2            -19.7398739281      -34.1957612783      -34.3541929773  TIP3      16114           0.0000000000
     99858     17475  TIP3      OH2           -14.6707179195      -32.3471583871      -34.1518600785  TIP3      16115           0.0000000000
     99859     17475  TIP3      H1            -14.0020475373      -32.9276621201      -33.7503710637  TIP3      16115           0.0000000000
     99860     17475  TIP3      H2            -15.1900782152      -33.0083556131      -34.6513863686  TIP3      16115           0.0000000000
     99861     17476  TIP3      OH2            -3.7017448867      -35.8321179352      -28.7419397639  TIP3      16116           0.0000000000
     99862     17476  TIP3      H1             -4.3106677604      -35.0680004184      -28.8331975546  TIP3      16116           0.0000000000
     99863     17476  TIP3      H2             -3.6606042790      -35.9237762251      -27.7811077585  TIP3      16116           0.0000000000
     99864     17477  TIP3      OH2           -17.5404867275      -37.3790587332      -30.1440953957  TIP3      16117           0.0000000000
     99865     17477  TIP3      H1            -17.8381096538      -36.8515662057      -30.9127642066  TIP3      16117           0.0000000000
     99866     17477  TIP3      H2            -18.2429815221      -37.1988949206      -29.4779131948  TIP3      16117           0.0000000000
     99867     17478  TIP3      OH2           -10.2559344468      -27.9315466402      -36.6177570231  TIP3      16118           0.0000000000
     99868     17478  TIP3      H1            -10.5358531161      -28.2169596794      -37.4985024086  TIP3      16118           0.0000000000
     99869     17478  TIP3      H2            -10.5654484010      -26.9972127236      -36.5643736474  TIP3      16118           0.0000000000
     99870     17479  TIP3      OH2           -15.0332522984      -29.7727734027      -29.9306049453  TIP3      16119           0.0000000000
     99871     17479  TIP3      H1            -15.7371675731      -29.1290052448      -29.6982746575  TIP3      16119           0.0000000000
     99872     17479  TIP3      H2            -14.3250238862      -29.1709281819      -30.2090682724  TIP3      16119           0.0000000000
     99873     17480  TIP3      OH2            -6.9011254628      -36.8894781945      -33.8361304707  TIP3      16120           0.0000000000
     99874     17480  TIP3      H1             -7.1461818488      -37.6590648098      -33.3117408627  TIP3      16120           0.0000000000
     99875     17480  TIP3      H2             -6.2419228457      -36.4468729404      -33.2722610743  TIP3      16120           0.0000000000
     99876     17481  TIP3      OH2           -17.9963345742      -35.5537086539      -32.1364006508  TIP3      16121           0.0000000000
     99877     17481  TIP3      H1            -17.3449878264      -34.8842673768      -31.8326323426  TIP3      16121           0.0000000000
     99878     17481  TIP3      H2            -17.4721385240      -35.9805510479      -32.8580761766  TIP3      16121           0.0000000000
     99879     17482  TIP3      OH2           -16.5935726834      -27.7787127706      -29.1075419688  TIP3      16122           0.0000000000
     99880     17482  TIP3      H1            -16.6235254878      -26.8555607003      -29.4203219618  TIP3      16122           0.0000000000
     99881     17482  TIP3      H2            -17.4678297803      -27.8414847571      -28.6496742798  TIP3      16122           0.0000000000
     99882     17483  TIP3      OH2           -20.5563582069      -28.1554290425      -38.3152310683  TIP3      16123           0.0000000000
     99883     17483  TIP3      H1            -20.7174747116      -27.8217493412      -39.2178886336  TIP3      16123           0.0000000000
     99884     17483  TIP3      H2            -20.4423228408      -27.3230983814      -37.8090828701  TIP3      16123           0.0000000000
     99885     17484  TIP3      OH2            -6.8944399226      -26.4839313342      -31.5494085111  TIP3      16124           0.0000000000
     99886     17484  TIP3      H1             -7.8626869765      -26.3755119885      -31.4294165626  TIP3      16124           0.0000000000
     99887     17484  TIP3      H2             -6.6256751502      -25.5675336012      -31.7493120438  TIP3      16124           0.0000000000
     99888     17485  TIP3      OH2            -6.5574217332      -38.2156728291      -30.1377448874  TIP3      16125           0.0000000000
     99889     17485  TIP3      H1             -7.2859598533      -37.5807058448      -30.2398724772  TIP3      16125           0.0000000000
     99890     17485  TIP3      H2             -5.8519688435      -37.7848368232      -30.6578324439  TIP3      16125           0.0000000000
     99891     17486  TIP3      OH2           -13.6220476215      -40.0437631314      -32.9088941168  TIP3      16126           0.0000000000
     99892     17486  TIP3      H1            -13.6430011623      -40.9942276458      -32.7213563394  TIP3      16126           0.0000000000
     99893     17486  TIP3      H2            -14.4009070836      -39.7552612392      -32.4063102760  TIP3      16126           0.0000000000
     99894     17487  TIP3      OH2            -8.6352769493      -24.7004457454      -34.9593341534  TIP3      16127           0.0000000000
     99895     17487  TIP3      H1             -8.2062871722      -25.4191013689      -35.4674600929  TIP3      16127           0.0000000000
     99896     17487  TIP3      H2             -8.2111970394      -23.9096080558      -35.3540044012  TIP3      16127           0.0000000000
     99897     17488  TIP3      OH2            -7.4265352444      -26.7738253853      -36.4453003103  TIP3      16128           0.0000000000
     99898     17488  TIP3      H1             -7.7140744151      -27.4701095979      -37.0595494369  TIP3      16128           0.0000000000
     99899     17488  TIP3      H2             -7.3921101996      -27.2658252489      -35.6044379096  TIP3      16128           0.0000000000
     99900     17489  TIP3      OH2            -5.8025319805      -28.1808504946      -27.9514166481  TIP3      16129           0.0000000000
     99901     17489  TIP3      H1             -5.6587656989      -28.8311205682      -28.6736789308  TIP3      16129           0.0000000000
     99902     17489  TIP3      H2             -5.6046617956      -27.3336645366      -28.3884437825  TIP3      16129           0.0000000000
     99903     17490  TIP3      OH2           -11.3131676803      -31.2970719776      -38.1868550844  TIP3      16130           0.0000000000
     99904     17490  TIP3      H1            -12.0072837682      -30.7228998726      -38.5496503763  TIP3      16130           0.0000000000
     99905     17490  TIP3      H2            -10.6031749398      -31.2032011770      -38.8495653792  TIP3      16130           0.0000000000
     99906     17491  TIP3      OH2           -11.2393953905      -32.7448923487      -41.1296935021  TIP3      16131           0.0000000000
     99907     17491  TIP3      H1            -10.5167739226      -32.7456299787      -40.4762343519  TIP3      16131           0.0000000000
     99908     17491  TIP3      H2            -10.9491448882      -33.4406307562      -41.7245203883  TIP3      16131           0.0000000000
     99909     17492  TIP3      OH2            -3.9211124474      -31.8685696572      -29.9034347461  TIP3      16132           0.0000000000
     99910     17492  TIP3      H1             -4.5807550399      -31.1476015198      -29.8623824439  TIP3      16132           0.0000000000
     99911     17492  TIP3      H2             -3.4298674066      -31.6368146493      -30.7123325125  TIP3      16132           0.0000000000
     99912     17493  TIP3      OH2            -7.8574906396      -31.0624761283      -37.2486602433  TIP3      16133           0.0000000000
     99913     17493  TIP3      H1             -8.6134958095      -30.8334187185      -36.6560874030  TIP3      16133           0.0000000000
     99914     17493  TIP3      H2             -7.3950154575      -31.7543515130      -36.7424203773  TIP3      16133           0.0000000000
     99915     17494  TIP3      OH2            -7.9386045566      -32.9117318672      -28.1457328528  TIP3      16134           0.0000000000
     99916     17494  TIP3      H1             -7.9291515602      -32.0940862459      -27.6201872195  TIP3      16134           0.0000000000
     99917     17494  TIP3      H2             -8.5680520767      -32.6196168331      -28.8358061830  TIP3      16134           0.0000000000
     99918     17495  TIP3      OH2           -16.2512249649      -30.4182837504      -35.3478485919  TIP3      16135           0.0000000000
     99919     17495  TIP3      H1            -16.5733673358      -30.8095721200      -36.1956716702  TIP3      16135           0.0000000000
     99920     17495  TIP3      H2            -15.6384964409      -31.1101656010      -35.0132133957  TIP3      16135           0.0000000000
     99921     17496  TIP3      OH2           -14.9301734619      -27.0318230116      -32.6667596745  TIP3      16136           0.0000000000
     99922     17496  TIP3      H1            -14.9406299261      -27.5615158180      -33.4727725335  TIP3      16136           0.0000000000
     99923     17496  TIP3      H2            -14.1479062066      -27.3893962379      -32.2079110606  TIP3      16136           0.0000000000
     99924     17497  TIP3      OH2           -15.9200767032      -31.6739879954      -31.6877639865  TIP3      16137           0.0000000000
     99925     17497  TIP3      H1            -15.3684483488      -31.5690613929      -32.4878780390  TIP3      16137           0.0000000000
     99926     17497  TIP3      H2            -15.5349937067      -31.0074364899      -31.0761408692  TIP3      16137           0.0000000000
     99927     17498  TIP3      OH2            -9.5068297173      -26.1028154829      -30.9816542062  TIP3      16138           0.0000000000
     99928     17498  TIP3      H1             -9.7986409190      -25.4664418242      -30.3246752638  TIP3      16138           0.0000000000
     99929     17498  TIP3      H2             -9.7632781489      -26.9560339801      -30.5576388583  TIP3      16138           0.0000000000
     99930     17499  TIP3      OH2           -14.9633918027      -27.2253209854      -26.9941169186  TIP3      16139           0.0000000000
     99931     17499  TIP3      H1            -15.3726463079      -26.4977713176      -26.4828969359  TIP3      16139           0.0000000000
     99932     17499  TIP3      H2            -15.6569070288      -27.4423068492      -27.6574953569  TIP3      16139           0.0000000000
     99933     17500  TIP3      OH2            -8.9875888536      -31.8937656872      -39.5838716982  TIP3      16140           0.0000000000
     99934     17500  TIP3      H1             -8.4307043625      -31.7068398179      -38.7868442774  TIP3      16140           0.0000000000
     99935     17500  TIP3      H2             -8.5713277661      -31.3727374577      -40.3032197521  TIP3      16140           0.0000000000
     99936     17501  TIP3      OH2           -18.0543908500      -31.1128796114      -27.8058951693  TIP3      16141           0.0000000000
     99937     17501  TIP3      H1            -17.9729017201      -30.4104513122      -27.1284835486  TIP3      16141           0.0000000000
     99938     17501  TIP3      H2            -18.9759900456      -30.9683824676      -28.0678729749  TIP3      16141           0.0000000000
     99939     17502  TIP3      OH2           -11.2751167262      -25.1546529846      -36.1264688916  TIP3      16142           0.0000000000
     99940     17502  TIP3      H1            -10.8405762404      -24.8490521739      -35.3223604569  TIP3      16142           0.0000000000
     99941     17502  TIP3      H2            -11.8343825184      -24.4061368231      -36.3623941551  TIP3      16142           0.0000000000
     99942     17503  TIP3      OH2           -16.7448369862      -25.1998440805      -26.2707992837  TIP3      16143           0.0000000000
     99943     17503  TIP3      H1            -16.8009595521      -25.2977231708      -27.2345349815  TIP3      16143           0.0000000000
     99944     17503  TIP3      H2            -17.6558652715      -25.3562472872      -25.9625623152  TIP3      16143           0.0000000000
     99945     17504  TIP3      OH2            -5.2541446450      -40.1258138115      -39.6245024241  TIP3      16144           0.0000000000
     99946     17504  TIP3      H1             -6.2173683366      -40.0018705691      -39.4454316176  TIP3      16144           0.0000000000
     99947     17504  TIP3      H2             -5.0524819106      -39.3259757574      -40.1508755431  TIP3      16144           0.0000000000
     99948     17505  TIP3      OH2           -17.2947642845      -31.3894787011      -37.7153501284  TIP3      16145           0.0000000000
     99949     17505  TIP3      H1            -17.5667118153      -30.6160583492      -38.2537174085  TIP3      16145           0.0000000000
     99950     17505  TIP3      H2            -17.9340345529      -32.0594561609      -37.9676847968  TIP3      16145           0.0000000000
     99951     17506  TIP3      OH2            -4.1722581636      -25.7953083564      -41.2583297875  TIP3      16146           0.0000000000
     99952     17506  TIP3      H1             -4.0256925394      -24.8363182011      -41.2182593900  TIP3      16146           0.0000000000
     99953     17506  TIP3      H2             -3.2596680392      -26.0925847258      -41.4336508626  TIP3      16146           0.0000000000
     99954     17507  TIP3      OH2           -21.1779054320      -28.9653442326      -28.8506163289  TIP3      16147           0.0000000000
     99955     17507  TIP3      H1            -21.6489007092      -29.0393195173      -29.7015902497  TIP3      16147           0.0000000000
     99956     17507  TIP3      H2            -21.1159875080      -29.9080522194      -28.6244074264  TIP3      16147           0.0000000000
     99957     17508  TIP3      OH2           -21.4310553422      -26.2288754390      -32.0632904189  TIP3      16148           0.0000000000
     99958     17508  TIP3      H1            -20.4732108725      -26.3492473379      -32.0794660986  TIP3      16148           0.0000000000
     99959     17508  TIP3      H2            -21.5146199909      -25.4156779750      -31.5501144931  TIP3      16148           0.0000000000
     99960     17509  TIP3      OH2            -3.1993684896      -25.5281672710      -26.3942033059  TIP3      16149           0.0000000000
     99961     17509  TIP3      H1             -3.3104466897      -26.4880186492      -26.3936361883  TIP3      16149           0.0000000000
     99962     17509  TIP3      H2             -4.0545935324      -25.2733949197      -25.9773106361  TIP3      16149           0.0000000000
     99963     17510  TIP3      OH2           -12.2311560768      -25.9594938246      -27.5391427686  TIP3      16150           0.0000000000
     99964     17510  TIP3      H1            -12.1890156934      -25.1592471958      -26.9679003216  TIP3      16150           0.0000000000
     99965     17510  TIP3      H2            -13.0819862957      -26.3501014545      -27.2653460118  TIP3      16150           0.0000000000
     99966     17511  TIP3      OH2           -11.8087248418      -22.2383953295      -37.7181102811  TIP3      16151           0.0000000000
     99967     17511  TIP3      H1            -11.8940724676      -22.3153523855      -38.6811704120  TIP3      16151           0.0000000000
     99968     17511  TIP3      H2            -11.7737866767      -21.2802814951      -37.5600787790  TIP3      16151           0.0000000000
     99969     17512  TIP3      OH2           -18.1570413124      -23.3652657982      -35.8921189849  TIP3      16152           0.0000000000
     99970     17512  TIP3      H1            -18.0077434760      -23.7786752147      -35.0106423718  TIP3      16152           0.0000000000
     99971     17512  TIP3      H2            -19.0054713115      -23.7735087865      -36.1285615561  TIP3      16152           0.0000000000
     99972     17513  TIP3      OH2            -8.7870329170      -23.0555758511      -40.7592362517  TIP3      16153           0.0000000000
     99973     17513  TIP3      H1             -8.2815804995      -23.7918069655      -41.1728437570  TIP3      16153           0.0000000000
     99974     17513  TIP3      H2             -8.7006585645      -23.2956858659      -39.8162676302  TIP3      16153           0.0000000000
     99975     17514  TIP3      OH2            -9.0536484575      -23.0957450461      -37.9509189756  TIP3      16154           0.0000000000
     99976     17514  TIP3      H1            -10.0093213003      -23.0279050627      -37.7611671147  TIP3      16154           0.0000000000
     99977     17514  TIP3      H2             -8.8039420686      -23.8409686981      -37.3851670569  TIP3      16154           0.0000000000
     99978     17515  TIP3      OH2            -6.0435368525      -34.0525598926      -25.9249286623  TIP3      16155           0.0000000000
     99979     17515  TIP3      H1             -6.5286499218      -33.6054345185      -26.6322829622  TIP3      16155           0.0000000000
     99980     17515  TIP3      H2             -6.0577632765      -34.9800280446      -26.2069868330  TIP3      16155           0.0000000000
     99981     17516  TIP3      OH2           -18.9057069535      -27.6712707635      -27.8912373737  TIP3      16156           0.0000000000
     99982     17516  TIP3      H1            -18.6832120540      -28.0111542218      -26.9953102353  TIP3      16156           0.0000000000
     99983     17516  TIP3      H2            -19.7790771452      -28.0602513851      -28.1151435967  TIP3      16156           0.0000000000
     99984     17517  TIP3      OH2           -16.2327407677      -39.1943145903      -31.9218173977  TIP3      16157           0.0000000000
     99985     17517  TIP3      H1            -17.1295097776      -39.2270531484      -32.3180980687  TIP3      16157           0.0000000000
     99986     17517  TIP3      H2            -16.3278255008      -38.3535196186      -31.4450572965  TIP3      16157           0.0000000000
     99987     17518  TIP3      OH2           -11.5430476566      -39.0128046701      -28.4827432328  TIP3      16158           0.0000000000
     99988     17518  TIP3      H1            -11.0692433154      -39.6928596669      -27.9973704813  TIP3      16158           0.0000000000
     99989     17518  TIP3      H2            -12.4168816857      -39.4348893641      -28.6137695758  TIP3      16158           0.0000000000
     99990     17519  TIP3      OH2            -8.3037541905      -35.6922826886      -27.7087667891  TIP3      16159           0.0000000000
     99991     17519  TIP3      H1             -8.8471456781      -35.8723737967      -26.9039107512  TIP3      16159           0.0000000000
     99992     17519  TIP3      H2             -8.4720379335      -34.7610372467      -27.9247602791  TIP3      16159           0.0000000000
     99993     17520  TIP3      OH2            -7.5363529110      -30.8727717676      -41.8902123517  TIP3      16160           0.0000000000
     99994     17520  TIP3      H1             -7.5207405335      -31.0470304339      -42.8438244209  TIP3      16160           0.0000000000
     99995     17520  TIP3      H2             -6.6979627088      -30.4105530938      -41.7385436974  TIP3      16160           0.0000000000
     99996     17521  TIP3      OH2           -11.9201148676      -36.9814259028      -41.2037661684  TIP3      16161           0.0000000000
     99997     17521  TIP3      H1            -12.2721799803      -36.9943342318      -40.2991906169  TIP3      16161           0.0000000000
     99998     17521  TIP3      H2            -12.2402074070      -37.8362937597      -41.5087059076  TIP3      16161           0.0000000000
     99999     17522  TIP3      OH2           -16.1358622946      -34.2069389855      -30.6928829480  TIP3      16162           0.0000000000
    100000     17522  TIP3      H1            -16.8653918868      -34.2151540896      -30.0533580282  TIP3      16162           0.0000000000
    100001     17522  TIP3      H2            -16.1616673924      -33.2972317426      -31.0675677947  TIP3      16162           0.0000000000
    100002     17523  TIP3      OH2           -16.1610884485      -34.0688919781      -35.8331895661  TIP3      16163           0.0000000000
    100003     17523  TIP3      H1            -17.0985437338      -34.3293811953      -35.9622860500  TIP3      16163           0.0000000000
    100004     17523  TIP3      H2            -15.7843126153      -34.3799084207      -36.6782304080  TIP3      16163           0.0000000000
    100005     17524  TIP3      OH2           -10.6453843784      -33.5820245840      -37.0614166125  TIP3      16164           0.0000000000
    100006     17524  TIP3      H1            -11.0521437712      -32.7566813135      -37.4079082706  TIP3      16164           0.0000000000
    100007     17524  TIP3      H2             -9.9607359884      -33.7477948480      -37.7340443962  TIP3      16164           0.0000000000
    100008     17525  TIP3      OH2           -11.5810606564      -33.3738606667      -25.6042681958  TIP3      16165           0.0000000000
    100009     17525  TIP3      H1            -12.1154905810      -34.1559909733      -25.3183521469  TIP3      16165           0.0000000000
    100010     17525  TIP3      H2            -10.7453541979      -33.5060980205      -25.1303577265  TIP3      16165           0.0000000000
    100011     17526  TIP3      OH2            -9.6127697518      -34.0960318919      -34.2159710426  TIP3      16166           0.0000000000
    100012     17526  TIP3      H1             -9.8906061082      -33.5328123031      -34.9574049861  TIP3      16166           0.0000000000
    100013     17526  TIP3      H2             -9.5140136366      -34.9463445071      -34.6845879948  TIP3      16166           0.0000000000
    100014     17527  TIP3      OH2           -18.6187579759      -33.9164614209      -28.9841279817  TIP3      16167           0.0000000000
    100015     17527  TIP3      H1            -18.3510656540      -33.5422902936      -28.1196050235  TIP3      16167           0.0000000000
    100016     17527  TIP3      H2            -18.8384087006      -34.8394188357      -28.8160422856  TIP3      16167           0.0000000000
    100017     17528  TIP3      OH2           -15.1391757884      -36.6361026475      -42.2041222735  TIP3      16168           0.0000000000
    100018     17528  TIP3      H1            -15.5690015310      -36.9694608975      -41.3967263778  TIP3      16168           0.0000000000
    100019     17528  TIP3      H2            -15.8173256262      -36.1137564414      -42.6558292125  TIP3      16168           0.0000000000
    100020     17529  TIP3      OH2           -21.8455481976      -36.8037982844      -35.0428636281  TIP3      16169           0.0000000000
    100021     17529  TIP3      H1            -21.1750485169      -36.8558348120      -34.3329885725  TIP3      16169           0.0000000000
    100022     17529  TIP3      H2            -21.3949464826      -37.2063050805      -35.8044664387  TIP3      16169           0.0000000000
    100023     17530  TIP3      OH2           -20.5550435519      -36.1150951595      -39.6033811037  TIP3      16170           0.0000000000
    100024     17530  TIP3      H1            -20.0715062024      -35.5301014312      -40.2288603973  TIP3      16170           0.0000000000
    100025     17530  TIP3      H2            -21.2545868731      -35.4941887000      -39.3147529376  TIP3      16170           0.0000000000
    100026     17531  TIP3      OH2           -10.4133146096      -32.5090332202      -29.6528928203  TIP3      16171           0.0000000000
    100027     17531  TIP3      H1            -10.0343595851      -33.1921505520      -30.2423566931  TIP3      16171           0.0000000000
    100028     17531  TIP3      H2            -10.8742362220      -33.0407528490      -28.9801067771  TIP3      16171           0.0000000000
    100029     17532  TIP3      OH2           -13.6065169387      -36.5278845339      -34.8223886947  TIP3      16172           0.0000000000
    100030     17532  TIP3      H1            -14.5360991877      -36.5258332227      -34.5212910645  TIP3      16172           0.0000000000
    100031     17532  TIP3      H2            -13.1254907503      -36.7066970959      -33.9976479608  TIP3      16172           0.0000000000
    100032     17533  TIP3      OH2           -18.7966773711      -34.9866636341      -35.9570031223  TIP3      16173           0.0000000000
    100033     17533  TIP3      H1            -19.6840820790      -34.8323918673      -36.3413757738  TIP3      16173           0.0000000000
    100034     17533  TIP3      H2            -18.5181637198      -35.8309665300      -36.3548123433  TIP3      16173           0.0000000000
    100035     17534  TIP3      OH2           -15.1577833737      -34.9504527599      -38.3250344499  TIP3      16174           0.0000000000
    100036     17534  TIP3      H1            -14.2024498554      -34.8335533699      -38.1611267354  TIP3      16174           0.0000000000
    100037     17534  TIP3      H2            -15.3951140957      -34.2773125167      -38.9946376054  TIP3      16174           0.0000000000
    100038     17535  TIP3      OH2            -9.2016762346      -37.3638349684      -31.5824745818  TIP3      16175           0.0000000000
    100039     17535  TIP3      H1             -9.8882115606      -37.2609265135      -30.8898217680  TIP3      16175           0.0000000000
    100040     17535  TIP3      H2             -9.7205616494      -37.5662337059      -32.3713217779  TIP3      16175           0.0000000000
    100041     17536  TIP3      OH2           -16.4394863004      -33.7533636907      -40.7017132008  TIP3      16176           0.0000000000
    100042     17536  TIP3      H1            -16.9994077757      -34.1091043174      -41.4137488793  TIP3      16176           0.0000000000
    100043     17536  TIP3      H2            -15.6389039148      -33.5349380554      -41.2038490149  TIP3      16176           0.0000000000
    100044     17537  TIP3      OH2            -6.0102482937      -21.6330694450      -25.2043769007  TIP3      16177           0.0000000000
    100045     17537  TIP3      H1             -5.7388702828      -21.2967787097      -26.0865494564  TIP3      16177           0.0000000000
    100046     17537  TIP3      H2             -5.2445048136      -21.3416104660      -24.6869392637  TIP3      16177           0.0000000000
    100047     17538  TIP3      OH2           -18.2897385334      -29.1936409289      -25.6673114642  TIP3      16178           0.0000000000
    100048     17538  TIP3      H1            -17.5940221490      -28.9174326472      -25.0602053225  TIP3      16178           0.0000000000
    100049     17538  TIP3      H2            -19.0846416662      -29.0738194257      -25.0963412482  TIP3      16178           0.0000000000
    100050     17539  TIP3      OH2           -12.3294989417      -33.7780629763      -32.9273477373  TIP3      16179           0.0000000000
    100051     17539  TIP3      H1            -11.7364198271      -34.3158082850      -33.4646528531  TIP3      16179           0.0000000000
    100052     17539  TIP3      H2            -12.4718967387      -34.3260183612      -32.1453055516  TIP3      16179           0.0000000000
    100053     17540  TIP3      OH2           -17.2748221946      -37.6425920082      -36.4834179420  TIP3      16180           0.0000000000
    100054     17540  TIP3      H1            -17.5996632930      -38.5539590993      -36.5110221000  TIP3      16180           0.0000000000
    100055     17540  TIP3      H2            -16.5145353405      -37.6980886044      -37.0665124825  TIP3      16180           0.0000000000
    100056     17541  TIP3      OH2           -13.6943272517      -35.4805747611      -30.4988351310  TIP3      16181           0.0000000000
    100057     17541  TIP3      H1            -14.5118681524      -34.9456774997      -30.4205590824  TIP3      16181           0.0000000000
    100058     17541  TIP3      H2            -13.1294814425      -35.1083635492      -29.7926159397  TIP3      16181           0.0000000000
    100059     17542  TIP3      OH2           -13.0973184345      -29.2168788590      -38.8338106756  TIP3      16182           0.0000000000
    100060     17542  TIP3      H1            -13.8980524245      -29.6984362555      -39.1451828971  TIP3      16182           0.0000000000
    100061     17542  TIP3      H2            -13.3113567006      -29.1088470309      -37.8847086026  TIP3      16182           0.0000000000
    100062     17543  TIP3      OH2            -5.9189743033      -30.0272496907      -30.0142363091  TIP3      16183           0.0000000000
    100063     17543  TIP3      H1             -5.3509927107      -29.5453831094      -30.6428821880  TIP3      16183           0.0000000000
    100064     17543  TIP3      H2             -6.7770463598      -29.9756509976      -30.4824067270  TIP3      16183           0.0000000000
    100065     17544  TIP3      OH2            -9.2565517438      -36.4328034152      -40.6315344081  TIP3      16184           0.0000000000
    100066     17544  TIP3      H1            -10.2006455060      -36.2717205794      -40.8094632647  TIP3      16184           0.0000000000
    100067     17544  TIP3      H2             -8.9356402849      -35.5609392347      -40.3324015355  TIP3      16184           0.0000000000
    100068     17545  TIP3      OH2           -11.6027882353      -28.9647057887      -27.5750901581  TIP3      16185           0.0000000000
    100069     17545  TIP3      H1            -11.9585809374      -29.3832391338      -26.7786473613  TIP3      16185           0.0000000000
    100070     17545  TIP3      H2            -11.8748336201      -28.0473072714      -27.4608541060  TIP3      16185           0.0000000000
    100071     17546  TIP3      OH2            -8.5333787900      -34.4950006852      -38.9711129985  TIP3      16186           0.0000000000
    100072     17546  TIP3      H1             -7.6425727725      -34.6265025004      -38.5957581652  TIP3      16186           0.0000000000
    100073     17546  TIP3      H2             -8.4413005088      -33.6819300376      -39.4928380797  TIP3      16186           0.0000000000
    100074     17547  TIP3      OH2           -17.9893574190      -29.8348569224      -33.0146088970  TIP3      16187           0.0000000000
    100075     17547  TIP3      H1            -17.3019630238      -29.9137671552      -33.7043275730  TIP3      16187           0.0000000000
    100076     17547  TIP3      H2            -17.9308416686      -30.6958700312      -32.5633019964  TIP3      16187           0.0000000000
    100077     17548  TIP3      OH2           -11.0110855566      -27.7527505013      -39.7613880153  TIP3      16188           0.0000000000
    100078     17548  TIP3      H1            -11.3577424457      -26.9054739888      -39.4039792119  TIP3      16188           0.0000000000
    100079     17548  TIP3      H2            -11.7499680146      -28.3700609600      -39.5493714605  TIP3      16188           0.0000000000
    100080     17549  TIP3      OH2           -20.9502299711      -31.5026917912      -27.8015816948  TIP3      16189           0.0000000000
    100081     17549  TIP3      H1            -20.8471800907      -31.8141686487      -26.8756318488  TIP3      16189           0.0000000000
    100082     17549  TIP3      H2            -21.7003274135      -31.9894037487      -28.1788614309  TIP3      16189           0.0000000000
    100083     17550  TIP3      OH2           -14.0008767490      -31.8930726568      -25.5928392503  TIP3      16190           0.0000000000
    100084     17550  TIP3      H1            -14.2957963166      -32.1719797034      -26.4665055518  TIP3      16190           0.0000000000
    100085     17550  TIP3      H2            -13.0652689268      -32.1687557077      -25.5857632449  TIP3      16190           0.0000000000
    100086     17551  TIP3      OH2            -9.3067333575      -26.5378885464      -27.6172112630  TIP3      16191           0.0000000000
    100087     17551  TIP3      H1            -10.2261629558      -26.3515708434      -27.8707953669  TIP3      16191           0.0000000000
    100088     17551  TIP3      H2             -9.3393984491      -26.2404360656      -26.6959026941  TIP3      16191           0.0000000000
    100089     17552  TIP3      OH2            -3.6404808521      -34.3463437773      -39.2222451581  TIP3      16192           0.0000000000
    100090     17552  TIP3      H1             -4.2051777178      -34.6493432161      -39.9618685436  TIP3      16192           0.0000000000
    100091     17552  TIP3      H2             -3.5645660581      -33.4084403874      -39.5026223132  TIP3      16192           0.0000000000
    100092     17553  TIP3      OH2            -3.6474468419      -28.4889137126      -26.4216107651  TIP3      16193           0.0000000000
    100093     17553  TIP3      H1             -4.5314956084      -28.2778866560      -26.8114861339  TIP3      16193           0.0000000000
    100094     17553  TIP3      H2             -3.0931334003      -28.5406463676      -27.2283763051  TIP3      16193           0.0000000000
    100095     17554  TIP3      OH2            -5.3377570929      -25.5260320517      -38.8271921861  TIP3      16194           0.0000000000
    100096     17554  TIP3      H1             -5.7115623611      -26.3552452068      -38.5046908725  TIP3      16194           0.0000000000
    100097     17554  TIP3      H2             -5.0423692643      -25.7167382804      -39.7442882665  TIP3      16194           0.0000000000
    100098     17555  TIP3      OH2            -8.1366803190      -30.7083918602      -31.7339108161  TIP3      16195           0.0000000000
    100099     17555  TIP3      H1             -9.0770156517      -30.9179442920      -31.8413850371  TIP3      16195           0.0000000000
    100100     17555  TIP3      H2             -7.7074427058      -31.4716958645      -32.1647234033  TIP3      16195           0.0000000000
    100101     17556  TIP3      OH2           -15.6189993294      -26.3804935213      -35.6317492881  TIP3      16196           0.0000000000
    100102     17556  TIP3      H1            -15.1180177167      -25.5730595979      -35.8392968450  TIP3      16196           0.0000000000
    100103     17556  TIP3      H2            -16.4966441026      -26.1458633587      -35.9616062383  TIP3      16196           0.0000000000
    100104     17557  TIP3      OH2           -19.8771015185      -31.5316934250      -41.1245527470  TIP3      16197           0.0000000000
    100105     17557  TIP3      H1            -19.2622267644      -30.9060467983      -40.7022163924  TIP3      16197           0.0000000000
    100106     17557  TIP3      H2            -20.7278766602      -31.2480448684      -40.7509477294  TIP3      16197           0.0000000000
    100107     17558  TIP3      OH2           -14.2018698256      -28.7108775159      -36.1186561558  TIP3      16198           0.0000000000
    100108     17558  TIP3      H1            -14.5109907360      -27.7914600156      -36.0216076628  TIP3      16198           0.0000000000
    100109     17558  TIP3      H2            -14.9210230531      -29.2017760826      -35.6718754047  TIP3      16198           0.0000000000
    100110     17559  TIP3      OH2           -13.7460919081      -24.5329227870      -29.7211087611  TIP3      16199           0.0000000000
    100111     17559  TIP3      H1            -13.2973389388      -23.7160117499      -29.9860829247  TIP3      16199           0.0000000000
    100112     17559  TIP3      H2            -13.1373045293      -24.8709908898      -29.0391818230  TIP3      16199           0.0000000000
    100113     17560  TIP3      OH2           -15.5268857542      -23.7230880649      -36.5710967609  TIP3      16200           0.0000000000
    100114     17560  TIP3      H1            -16.4912701405      -23.5783739895      -36.4536530639  TIP3      16200           0.0000000000
    100115     17560  TIP3      H2            -15.1645516799      -22.8808904916      -36.2384562512  TIP3      16200           0.0000000000
    100116     17561  TIP3      OH2           -10.2233344255      -28.5274579102      -30.0832063338  TIP3      16201           0.0000000000
    100117     17561  TIP3      H1            -10.5557359105      -28.7222982286      -29.1828656962  TIP3      16201           0.0000000000
    100118     17561  TIP3      H2             -9.5857769645      -29.2392094311      -30.2529105281  TIP3      16201           0.0000000000
    100119     17562  TIP3      OH2            -7.9342763855      -27.4829054661      -40.9791482231  TIP3      16202           0.0000000000
    100120     17562  TIP3      H1             -7.6018291755      -27.9358210914      -40.1819988721  TIP3      16202           0.0000000000
    100121     17562  TIP3      H2             -8.8846322748      -27.6469181830      -40.8921100763  TIP3      16202           0.0000000000
    100122     17563  TIP3      OH2            -7.4225553777      -23.9339887218      -27.5768307033  TIP3      16203           0.0000000000
    100123     17563  TIP3      H1             -8.0962977038      -24.4457899965      -28.0665019172  TIP3      16203           0.0000000000
    100124     17563  TIP3      H2             -7.2237595955      -23.2519739187      -28.2541928658  TIP3      16203           0.0000000000
    100125     17564  TIP3      OH2            -3.4339407327      -23.0676006911      -40.7769827990  TIP3      16204           0.0000000000
    100126     17564  TIP3      H1             -2.7096850516      -22.4439268938      -40.9530711760  TIP3      16204           0.0000000000
    100127     17564  TIP3      H2             -4.1421079490      -22.4715027889      -40.4530445503  TIP3      16204           0.0000000000
    100128     17565  TIP3      OH2           -19.3676620376      -36.7038456734      -28.1640582510  TIP3      16205           0.0000000000
    100129     17565  TIP3      H1            -20.2933807721      -36.4740633052      -28.2662223764  TIP3      16205           0.0000000000
    100130     17565  TIP3      H2            -19.4480522753      -37.5885634727      -27.7571814419  TIP3      16205           0.0000000000
    100131     17566  TIP3      OH2            -7.1130094045      -28.8308692741      -38.7463741665  TIP3      16206           0.0000000000
    100132     17566  TIP3      H1             -7.3550814346      -29.6179576033      -38.2143112306  TIP3      16206           0.0000000000
    100133     17566  TIP3      H2             -6.1598920829      -28.7770374422      -38.5587799123  TIP3      16206           0.0000000000
    100134     17567  TIP3      OH2           -19.7352948294      -24.9054857377      -29.7732182417  TIP3      16207           0.0000000000
    100135     17567  TIP3      H1            -19.4401130646      -25.8292836574      -29.7723310336  TIP3      16207           0.0000000000
    100136     17567  TIP3      H2            -19.4664063919      -24.6209049341      -28.8909116622  TIP3      16207           0.0000000000
    100137     17568  TIP3      OH2           -13.7656996879      -26.4199314320      -42.5306911261  TIP3      16208           0.0000000000
    100138     17568  TIP3      H1            -13.6220523570      -27.1839400173      -43.0872838789  TIP3      16208           0.0000000000
    100139     17568  TIP3      H2            -14.2006695235      -26.7873954281      -41.7310174424  TIP3      16208           0.0000000000
    100140     17569  TIP3      OH2           -14.9838605384      -26.8552304692      -40.0617343363  TIP3      16209           0.0000000000
    100141     17569  TIP3      H1            -14.7341026270      -27.3723178752      -39.2874395620  TIP3      16209           0.0000000000
    100142     17569  TIP3      H2            -14.9098806612      -25.9240065317      -39.7500211824  TIP3      16209           0.0000000000
    100143     17570  TIP3      OH2           -18.4752451099      -29.5993050924      -39.5946317247  TIP3      16210           0.0000000000
    100144     17570  TIP3      H1            -19.1546444408      -29.1987709172      -39.0143142136  TIP3      16210           0.0000000000
    100145     17570  TIP3      H2            -17.9401303629      -28.8287527666      -39.8471638841  TIP3      16210           0.0000000000
    100146     17571  TIP3      OH2           -10.5693231652      -36.8264321828      -29.2719507994  TIP3      16211           0.0000000000
    100147     17571  TIP3      H1             -9.8895869680      -36.8420402175      -28.5908883645  TIP3      16211           0.0000000000
    100148     17571  TIP3      H2            -10.9776483802      -37.7126967474      -29.1049629823  TIP3      16211           0.0000000000
    100149     17572  TIP3      OH2            -9.8455666740      -37.3675339977      -38.1432583830  TIP3      16212           0.0000000000
    100150     17572  TIP3      H1             -9.6432599656      -36.8674858974      -38.9636860110  TIP3      16212           0.0000000000
    100151     17572  TIP3      H2             -9.2927013572      -36.9104435779      -37.4952449820  TIP3      16212           0.0000000000
    100152     17573  TIP3      OH2           -12.1843126053      -25.1912501637      -39.3720398481  TIP3      16213           0.0000000000
    100153     17573  TIP3      H1            -13.0024720410      -24.6675610550      -39.2681365418  TIP3      16213           0.0000000000
    100154     17573  TIP3      H2            -11.6626134085      -24.6510108277      -39.9804289691  TIP3      16213           0.0000000000
    100155     17574  TIP3      OH2           -12.6456829127      -35.6148853040      -37.3338518596  TIP3      16214           0.0000000000
    100156     17574  TIP3      H1            -11.8616992719      -35.0300396475      -37.3065706032  TIP3      16214           0.0000000000
    100157     17574  TIP3      H2            -12.9021357902      -35.7119502776      -36.3981658250  TIP3      16214           0.0000000000
    100158     17575  TIP3      OH2           -12.0951554511      -34.5894666601      -28.1511158089  TIP3      16215           0.0000000000
    100159     17575  TIP3      H1            -12.0046899773      -34.0171207820      -27.3668671174  TIP3      16215           0.0000000000
    100160     17575  TIP3      H2            -11.4415122900      -35.2998810962      -28.0608003620  TIP3      16215           0.0000000000
    100161     17576  TIP3      OH2           -11.7630933011      -38.5478279631      -36.4192372100  TIP3      16216           0.0000000000
    100162     17576  TIP3      H1            -12.1117804683      -37.8813300338      -35.8042359922  TIP3      16216           0.0000000000
    100163     17576  TIP3      H2            -11.1061564943      -37.9985372512      -36.9037945272  TIP3      16216           0.0000000000
    100164     17577  TIP3      OH2           -14.8094542118      -24.1546839799      -39.3037561723  TIP3      16217           0.0000000000
    100165     17577  TIP3      H1            -14.6647833607      -23.3353775986      -39.8300501659  TIP3      16217           0.0000000000
    100166     17577  TIP3      H2            -15.0643406775      -23.7951322097      -38.4309448188  TIP3      16217           0.0000000000
    100167     17578  TIP3      OH2           -16.1432457402      -37.4262473031      -39.7638102068  TIP3      16218           0.0000000000
    100168     17578  TIP3      H1            -16.1993232050      -36.5307323924      -39.3896949211  TIP3      16218           0.0000000000
    100169     17578  TIP3      H2            -15.2382097941      -37.6543617259      -39.4631510006  TIP3      16218           0.0000000000
    100170     17579  TIP3      OH2            -5.9223877380      -36.7022717409      -27.3096741994  TIP3      16219           0.0000000000
    100171     17579  TIP3      H1             -6.8470897096      -36.3858262736      -27.4353620805  TIP3      16219           0.0000000000
    100172     17579  TIP3      H2             -5.6138821664      -36.7184128613      -28.2334529840  TIP3      16219           0.0000000000
    100173     17580  TIP3      OH2            -7.2969801079      -32.9178428655      -33.2931432120  TIP3      16220           0.0000000000
    100174     17580  TIP3      H1             -8.1225301646      -33.3595303548      -33.5705040011  TIP3      16220           0.0000000000
    100175     17580  TIP3      H2             -6.8220171493      -33.6064084602      -32.7756386082  TIP3      16220           0.0000000000
    100176     17581  TIP3      OH2           -17.8805791235      -27.0106018113      -40.6797082976  TIP3      16221           0.0000000000
    100177     17581  TIP3      H1            -17.2401109901      -26.3517450019      -40.3917792000  TIP3      16221           0.0000000000
    100178     17581  TIP3      H2            -17.3836799509      -27.4560398014      -41.3936794545  TIP3      16221           0.0000000000
    100179     17582  TIP3      OH2           -19.5255001429      -34.3301410740      -41.5119554614  TIP3      16222           0.0000000000
    100180     17582  TIP3      H1            -19.5397479563      -33.3613210251      -41.3896178084  TIP3      16222           0.0000000000
    100181     17582  TIP3      H2            -20.3931565816      -34.5212421839      -41.8781347850  TIP3      16222           0.0000000000
    100182     17583  TIP3      OH2            -6.2414546734      -23.6468273660      -31.6161626199  TIP3      16223           0.0000000000
    100183     17583  TIP3      H1             -6.3282627853      -22.9728179441      -32.3163261704  TIP3      16223           0.0000000000
    100184     17583  TIP3      H2             -5.2750944439      -23.6042635535      -31.4472916320  TIP3      16223           0.0000000000
    100185     17584  TIP3      OH2           -18.7852923731      -39.4071031975      -32.8491276687  TIP3      16224           0.0000000000
    100186     17584  TIP3      H1            -19.0006447608      -39.4235575618      -33.8080765419  TIP3      16224           0.0000000000
    100187     17584  TIP3      H2            -19.1075518097      -40.2938315941      -32.5857182316  TIP3      16224           0.0000000000
    100188     17585  TIP3      OH2           -19.7824804393      -25.6162231539      -36.6803330385  TIP3      16225           0.0000000000
    100189     17585  TIP3      H1            -20.6400877809      -25.1664063280      -36.7130527387  TIP3      16225           0.0000000000
    100190     17585  TIP3      H2            -19.3079201895      -25.1449881679      -37.3757389810  TIP3      16225           0.0000000000
    100191     17586  TIP3      OH2           -20.5634102678      -22.9781519137      -25.3912872520  TIP3      16226           0.0000000000
    100192     17586  TIP3      H1            -19.9474677603      -23.1903216294      -24.6628854434  TIP3      16226           0.0000000000
    100193     17586  TIP3      H2            -21.0070844289      -23.8226940347      -25.5730471486  TIP3      16226           0.0000000000
    100194     17587  TIP3      OH2           -11.7902996707      -24.5417612434      -42.3903206032  TIP3      16227           0.0000000000
    100195     17587  TIP3      H1            -12.4972709132      -25.1864325103      -42.1740955519  TIP3      16227           0.0000000000
    100196     17587  TIP3      H2            -11.0544341078      -25.1216052702      -42.6105951544  TIP3      16227           0.0000000000
    100197     17588  TIP3      OH2            -9.4030922836      -25.6516904937      -25.0315227111  TIP3      16228           0.0000000000
    100198     17588  TIP3      H1             -9.7393909603      -26.5406922869      -24.7883728854  TIP3      16228           0.0000000000
    100199     17588  TIP3      H2             -8.6064420227      -25.5480047209      -24.4855615666  TIP3      16228           0.0000000000
    100200     17589  TIP3      OH2            -7.1987639573      -24.7565580212      -42.1711099229  TIP3      16229           0.0000000000
    100201     17589  TIP3      H1             -6.9463400067      -25.5770521517      -41.7098526166  TIP3      16229           0.0000000000
    100202     17589  TIP3      H2             -6.4275544775      -24.5824988517      -42.7154883364  TIP3      16229           0.0000000000
    100203     17590  TIP3      OH2           -20.6392450702      -29.1880576633      -24.4315561720  TIP3      16230           0.0000000000
    100204     17590  TIP3      H1            -20.4954278944      -30.1010014171      -24.7085112241  TIP3      16230           0.0000000000
    100205     17590  TIP3      H2            -21.4105281616      -28.9336659840      -24.9604634659  TIP3      16230           0.0000000000
    100206     17591  TIP3      OH2           -16.2899254154      -28.8507456965      -42.3329822788  TIP3      16231           0.0000000000
    100207     17591  TIP3      H1            -16.1838877424      -29.6259775707      -41.7627206057  TIP3      16231           0.0000000000
    100208     17591  TIP3      H2            -15.6356596462      -28.9943119226      -43.0203191222  TIP3      16231           0.0000000000
    100209     17592  TIP3      OH2           -13.8410228452      -29.2280861613      -25.0551645356  TIP3      16232           0.0000000000
    100210     17592  TIP3      H1            -14.3074131229      -28.8806289200      -25.8301891164  TIP3      16232           0.0000000000
    100211     17592  TIP3      H2            -13.9161374760      -30.2014328853      -25.1153040962  TIP3      16232           0.0000000000
    100212     17593  TIP3      OH2           -10.9587319451      -27.7690042624      -42.5803689341  TIP3      16233           0.0000000000
    100213     17593  TIP3      H1            -11.1716647424      -27.6285694441      -41.6400299349  TIP3      16233           0.0000000000
    100214     17593  TIP3      H2            -11.1107947029      -28.7171837609      -42.6925064267  TIP3      16233           0.0000000000
    100215     17594  TIP3      OH2            -8.2559549576      -29.3345432563      -27.5719227306  TIP3      16234           0.0000000000
    100216     17594  TIP3      H1             -7.4725011590      -28.7561700268      -27.7017385519  TIP3      16234           0.0000000000
    100217     17594  TIP3      H2             -8.9661681942      -28.6767780748      -27.5903341490  TIP3      16234           0.0000000000
    100218     17595  TIP3      OH2           -19.8332940765      -32.0113273211      -25.0452254769  TIP3      16235           0.0000000000
    100219     17595  TIP3      H1            -19.2968242594      -32.8125768585      -25.0705076650  TIP3      16235           0.0000000000
    100220     17595  TIP3      H2            -19.9966216670      -31.9327233338      -24.0897993147  TIP3      16235           0.0000000000
    100221     17596  TIP3      OH2           -15.1054029491      -30.8274003293      -39.9460209687  TIP3      16236           0.0000000000
    100222     17596  TIP3      H1            -15.6189823939      -31.3565175044      -39.3160810795  TIP3      16236           0.0000000000
    100223     17596  TIP3      H2            -14.8151591852      -31.5110052945      -40.6009938742  TIP3      16236           0.0000000000
    100224     17597  TIP3      OH2           -15.8960450614      -33.0321371284      -27.6789907471  TIP3      16237           0.0000000000
    100225     17597  TIP3      H1            -16.4274152297      -32.2780683028      -27.3735234134  TIP3      16237           0.0000000000
    100226     17597  TIP3      H2            -15.4412710925      -32.6441717435      -28.4502088176  TIP3      16237           0.0000000000
    100227     17598  TIP3      OH2           -14.0343496822      -32.5367487912      -41.7502187439  TIP3      16238           0.0000000000
    100228     17598  TIP3      H1            -14.1705301278      -32.7807966224      -42.6803206320  TIP3      16238           0.0000000000
    100229     17598  TIP3      H2            -13.0587327809      -32.5516359134      -41.6463965281  TIP3      16238           0.0000000000
    100230     17599  TIP3      OH2           -10.7518955441      -30.4177628881      -24.2243125322  TIP3      16239           0.0000000000
    100231     17599  TIP3      H1             -9.8254086961      -30.4979451492      -24.4660390014  TIP3      16239           0.0000000000
    100232     17599  TIP3      H2            -10.9698491785      -31.2301222362      -23.7483836087  TIP3      16239           0.0000000000
    100233     17600  TIP3      OH2            -4.7024740027      -30.2581888871      -42.3067217756  TIP3      16240           0.0000000000
    100234     17600  TIP3      H1             -4.9332373689      -30.6655071124      -43.1441983076  TIP3      16240           0.0000000000
    100235     17600  TIP3      H2             -4.6067860523      -29.3218853648      -42.5341148078  TIP3      16240           0.0000000000
    100236     17601  TIP3      OH2           -15.4539267100      -35.6544621850      -26.5844227417  TIP3      16241           0.0000000000
    100237     17601  TIP3      H1            -15.3267686306      -36.3548880141      -27.2436102670  TIP3      16241           0.0000000000
    100238     17601  TIP3      H2            -15.4636766878      -34.8451142494      -27.1314561132  TIP3      16241           0.0000000000
    100239     17602  TIP3      OH2           -15.0394943528      -37.2683184968      -29.0555476066  TIP3      16242           0.0000000000
    100240     17602  TIP3      H1            -14.5236288356      -36.7866608825      -29.7518752249  TIP3      16242           0.0000000000
    100241     17602  TIP3      H2            -15.9336427356      -37.3568458905      -29.4590844829  TIP3      16242           0.0000000000
    100242     17603  TIP3      OH2           -13.5065397162      -31.7868084917      -28.8020036303  TIP3      16243           0.0000000000
    100243     17603  TIP3      H1            -12.7471434939      -31.9398242633      -29.3788467504  TIP3      16243           0.0000000000
    100244     17603  TIP3      H2            -13.8637527873      -30.9419260972      -29.1259595037  TIP3      16243           0.0000000000
    100245     17604  TIP3      OH2            -9.1211822173      -34.0197473907      -23.8636640287  TIP3      16244           0.0000000000
    100246     17604  TIP3      H1             -8.8809136186      -34.9618906460      -23.9052445019  TIP3      16244           0.0000000000
    100247     17604  TIP3      H2             -8.2487609942      -33.5909777697      -23.8120033499  TIP3      16244           0.0000000000
    100248     17605  TIP3      OH2            -7.7713281716      -31.2240572391      -25.6782432493  TIP3      16245           0.0000000000
    100249     17605  TIP3      H1             -8.0177831787      -30.5109290661      -26.3113867219  TIP3      16245           0.0000000000
    100250     17605  TIP3      H2             -6.8122630540      -31.2685683571      -25.8773097077  TIP3      16245           0.0000000000
    100251     17606  TIP3      OH2           -17.0116063588      -34.3738376827      -24.6835635147  TIP3      16246           0.0000000000
    100252     17606  TIP3      H1            -17.7588702324      -34.9831456058      -24.8247999639  TIP3      16246           0.0000000000
    100253     17606  TIP3      H2            -16.3305716038      -34.7545857682      -25.2704076560  TIP3      16246           0.0000000000
    100254     17607  TIP3      OH2           -14.3528896293      -39.7910259934      -28.6635631208  TIP3      16247           0.0000000000
    100255     17607  TIP3      H1            -14.4318966106      -38.8137815981      -28.7647651972  TIP3      16247           0.0000000000
    100256     17607  TIP3      H2            -15.1016757471      -40.1112970338      -29.1647497051  TIP3      16247           0.0000000000
    100257     17608  TIP3      OH2           -12.9656628554      -35.5250854340      -25.0501824756  TIP3      16248           0.0000000000
    100258     17608  TIP3      H1            -13.2958274133      -35.7175490312      -24.1518285473  TIP3      16248           0.0000000000
    100259     17608  TIP3      H2            -13.7786211169      -35.6867209712      -25.5610746684  TIP3      16248           0.0000000000
    100260     17609  TIP3      OH2           -10.2756498096      -36.3332436153      -25.9261477205  TIP3      16249           0.0000000000
    100261     17609  TIP3      H1            -11.2438773406      -36.3232104538      -25.8189310737  TIP3      16249           0.0000000000
    100262     17609  TIP3      H2             -9.9931932752      -36.9915078976      -25.2617601144  TIP3      16249           0.0000000000
    100263     17610  TIP3      OH2            -8.6924976330      -37.7229523136      -24.0547809384  TIP3      16250           0.0000000000
    100264     17610  TIP3      H1             -8.7308464203      -38.7021367608      -23.9922354298  TIP3      16250           0.0000000000
    100265     17610  TIP3      H2             -8.9138775952      -37.4434368023      -23.1313364429  TIP3      16250           0.0000000000
    100266     17611  TIP3      OH2           -18.8919261390      -36.4704649274      -24.9557384508  TIP3      16251           0.0000000000
    100267     17611  TIP3      H1            -18.6417347928      -37.2259225961      -25.5175888843  TIP3      16251           0.0000000000
    100268     17611  TIP3      H2            -18.9687700334      -36.9142245304      -24.0821613019  TIP3      16251           0.0000000000
    100269     17612  TIP3      OH2           -13.9830125571      -40.0375220365      -26.1302818567  TIP3      16252           0.0000000000
    100270     17612  TIP3      H1            -13.3569029638      -40.7918812915      -26.0517537116  TIP3      16252           0.0000000000
    100271     17612  TIP3      H2            -14.1799216812      -40.1333902814      -27.0793633200  TIP3      16252           0.0000000000
    100272     17613  TIP3      OH2           -13.6569147530      -38.8351441607      -23.8800964052  TIP3      16253           0.0000000000
    100273     17613  TIP3      H1            -13.8336074163      -39.3048634743      -24.7201489503  TIP3      16253           0.0000000000
    100274     17613  TIP3      H2            -14.2548824904      -38.0671667228      -23.9021958324  TIP3      16253           0.0000000000
    100275     17614  TIP3      OH2           -14.1968233634      -21.8647310849      -40.6627734203  TIP3      16254           0.0000000000
    100276     17614  TIP3      H1            -13.2225131458      -21.8247791291      -40.6206417796  TIP3      16254           0.0000000000
    100277     17614  TIP3      H2            -14.3812287444      -21.2816309157      -41.3971021323  TIP3      16254           0.0000000000
    100278     17615  TIP3      OH2           -20.6201644363      -27.3263344621      -41.1908067420  TIP3      16255           0.0000000000
    100279     17615  TIP3      H1            -19.6645229586      -27.2150511104      -40.9637387783  TIP3      16255           0.0000000000
    100280     17615  TIP3      H2            -20.5242884010      -27.9221216576      -41.9417326794  TIP3      16255           0.0000000000
    100281     17616  TIP3      OH2           -21.8725565447      -21.9378485418      -36.2305441390  TIP3      16256           0.0000000000
    100282     17616  TIP3      H1            -22.5895719423      -22.4258767039      -36.6984113016  TIP3      16256           0.0000000000
    100283     17616  TIP3      H2            -21.5930708364      -22.5972327313      -35.5690976405  TIP3      16256           0.0000000000
    100284     17617  TIP3      OH2           -21.0540273172      -23.8108470809      -34.3605770425  TIP3      16257           0.0000000000
    100285     17617  TIP3      H1            -21.4036727438      -24.6912822860      -34.1632877691  TIP3      16257           0.0000000000
    100286     17617  TIP3      H2            -20.8291817281      -23.4825159551      -33.4736469702  TIP3      16257           0.0000000000
    100287     17618  TIP3      OH2            -3.5165818730      -23.0139237139      -31.4249942197  TIP3      16258           0.0000000000
    100288     17618  TIP3      H1             -3.4869790766      -22.8517210724      -30.4659901180  TIP3      16258           0.0000000000
    100289     17618  TIP3      H2             -2.8106188322      -22.4341189287      -31.7290610512  TIP3      16258           0.0000000000
    100290     17619  TIP3      OH2            -3.9250307764      -23.4248998918      -28.4832727314  TIP3      16259           0.0000000000
    100291     17619  TIP3      H1             -4.4158402837      -24.1852589879      -28.8540865709  TIP3      16259           0.0000000000
    100292     17619  TIP3      H2             -3.4465490003      -23.8738847878      -27.7639451838  TIP3      16259           0.0000000000
    100293     17620  TIP3      OH2            -5.4784970624      -27.6897181365      -23.8116378922  TIP3      16260           0.0000000000
    100294     17620  TIP3      H1             -6.3533762880      -27.7559354728      -23.4338739622  TIP3      16260           0.0000000000
    100295     17620  TIP3      H2             -5.0979270796      -26.8958371052      -23.3866964070  TIP3      16260           0.0000000000
    100296     17621  TIP3      OH2            -4.1790160628      -29.3768786091      -38.3824480716  TIP3      16261           0.0000000000
    100297     17621  TIP3      H1             -3.3184081478      -28.9736543205      -38.1886513575  TIP3      16261           0.0000000000
    100298     17621  TIP3      H2             -4.1952304107      -30.0916856228      -37.7089653871  TIP3      16261           0.0000000000
    100299     17622  TIP3      OH2            -3.8188818978      -31.2923781746      -36.4906663859  TIP3      16262           0.0000000000
    100300     17622  TIP3      H1             -4.5690791061      -31.8022964098      -36.1090232804  TIP3      16262           0.0000000000
    100301     17622  TIP3      H2             -3.2226996148      -31.1603689168      -35.7261604149  TIP3      16262           0.0000000000
    100302     17623  TIP3      OH2            -4.0641927042      -28.5970856275      -31.5109359738  TIP3      16263           0.0000000000
    100303     17623  TIP3      H1             -3.2446284895      -28.9719340002      -31.8838058436  TIP3      16263           0.0000000000
    100304     17623  TIP3      H2             -3.9191148576      -27.6439628391      -31.6790815060  TIP3      16263           0.0000000000
    100305     17624  TIP3      OH2            -5.5093052366      -25.6851539894      -29.2370199061  TIP3      16264           0.0000000000
    100306     17624  TIP3      H1             -6.1998077458      -25.3474840512      -28.6427758579  TIP3      16264           0.0000000000
    100307     17624  TIP3      H2             -6.0560335560      -26.0955651692      -29.9416119829  TIP3      16264           0.0000000000
    100308     17625  TIP3      OH2            -3.5205759790      -31.4573537140      -40.1210189738  TIP3      16265           0.0000000000
    100309     17625  TIP3      H1             -4.0935066960      -31.1080298340      -40.8341283443  TIP3      16265           0.0000000000
    100310     17625  TIP3      H2             -3.6137113196      -30.7597195023      -39.4457940948  TIP3      16265           0.0000000000
    100311     17626  TIP3      OH2            -5.1835302787      -34.2552411994      -41.5448309156  TIP3      16266           0.0000000000
    100312     17626  TIP3      H1             -5.0795536565      -33.5936180766      -42.2360766020  TIP3      16266           0.0000000000
    100313     17626  TIP3      H2             -5.3390180209      -35.0679038103      -42.0656681902  TIP3      16266           0.0000000000
    100314     17627  TIP3      OH2            -6.0008673444      -32.8180818985      -35.9242507045  TIP3      16267           0.0000000000
    100315     17627  TIP3      H1             -6.1484165356      -33.7740663914      -35.9612411097  TIP3      16267           0.0000000000
    100316     17627  TIP3      H2             -6.3357283227      -32.5975384304      -35.0353228420  TIP3      16267           0.0000000000
    100317     17628  TIP3      OH2           -20.9995880732      -30.7706876771      -31.8530995330  TIP3      16268           0.0000000000
    100318     17628  TIP3      H1            -20.8201905393      -30.8211045954      -32.8186987461  TIP3      16268           0.0000000000
    100319     17628  TIP3      H2            -20.0920524157      -30.8924264015      -31.5171142572  TIP3      16268           0.0000000000
    100320     17629  TIP3      OH2            -5.1545438015      -30.8508812514      -26.2199321502  TIP3      16269           0.0000000000
    100321     17629  TIP3      H1             -4.5436844663      -31.6073358034      -26.0839688080  TIP3      16269           0.0000000000
    100322     17629  TIP3      H2             -4.5457197442      -30.0850606494      -26.2587096765  TIP3      16269           0.0000000000
    100323     17630  TIP3      OH2            -3.6411426158      -32.9673371680      -25.6164518801  TIP3      16270           0.0000000000
    100324     17630  TIP3      H1             -4.5257479922      -33.3746843072      -25.7422226770  TIP3      16270           0.0000000000
    100325     17630  TIP3      H2             -3.0654279605      -33.7505840713      -25.6696906400  TIP3      16270           0.0000000000
    100326     17631  TIP3      OH2            -5.9454958924      -36.7373709006      -42.3930359966  TIP3      16271           0.0000000000
    100327     17631  TIP3      H1             -5.3144507005      -37.2136512819      -41.8177642516  TIP3      16271           0.0000000000
    100328     17631  TIP3      H2             -6.7763467525      -37.2200211899      -42.2831661683  TIP3      16271           0.0000000000
    100329     17632  TIP3      OH2            -6.3358091600      -35.2434643478      -37.4500068087  TIP3      16272           0.0000000000
    100330     17632  TIP3      H1             -6.0300917549      -36.1688529074      -37.3396969449  TIP3      16272           0.0000000000
    100331     17632  TIP3      H2             -5.5483413741      -34.8405166819      -37.8405952044  TIP3      16272           0.0000000000
    100332     17633  TIP3      OH2            -5.6873734478      -34.7043565170      -32.0242918161  TIP3      16273           0.0000000000
    100333     17633  TIP3      H1             -4.7347859937      -34.4504794308      -32.0366890408  TIP3      16273           0.0000000000
    100334     17633  TIP3      H2             -5.8885135202      -34.5478933436      -31.0852008239  TIP3      16273           0.0000000000
    100335     17634  TIP3      OH2            -5.6385076902      -33.9572542776      -29.2597226057  TIP3      16274           0.0000000000
    100336     17634  TIP3      H1             -6.5113270400      -33.6773133892      -28.9110829375  TIP3      16274           0.0000000000
    100337     17634  TIP3      H2             -5.1967218066      -33.0966953852      -29.4632734920  TIP3      16274           0.0000000000
    100338     17635  TIP3      OH2           -21.3214597866      -35.4643995961      -25.8191922578  TIP3      16275           0.0000000000
    100339     17635  TIP3      H1            -20.4338307160      -35.6952933495      -25.4569679794  TIP3      16275           0.0000000000
    100340     17635  TIP3      H2            -21.8347015276      -36.2214752001      -25.4189948966  TIP3      16275           0.0000000000
    100341     17636  TIP3      OH2            -3.2703564684      -39.9026004178      -23.8484797319  TIP3      16276           0.0000000000
    100342     17636  TIP3      H1             -3.0560611611      -40.5606266324      -24.5380835877  TIP3      16276           0.0000000000
    100343     17636  TIP3      H2             -3.2711994291      -39.0854049709      -24.3783291963  TIP3      16276           0.0000000000
    100344     17637  TIP3      OH2            -5.6524127295      -37.9929137944      -37.4326360341  TIP3      16277           0.0000000000
    100345     17637  TIP3      H1             -5.5050243632      -38.3987251909      -36.5539130848  TIP3      16277           0.0000000000
    100346     17637  TIP3      H2             -6.3112906561      -38.5800392048      -37.8622820406  TIP3      16277           0.0000000000
    100347     17638  TIP3      OH2           -20.2234646782      -37.1375858811      -32.8396027239  TIP3      16278           0.0000000000
    100348     17638  TIP3      H1            -19.7136130176      -37.9449516656      -32.6075228281  TIP3      16278           0.0000000000
    100349     17638  TIP3      H2            -19.6329462898      -36.4524075729      -32.4999200869  TIP3      16278           0.0000000000
    100350     17639  TIP3      OH2           -21.8636142521      -34.1641371045      -31.7752082493  TIP3      16279           0.0000000000
    100351     17639  TIP3      H1            -21.3453718740      -34.3925114463      -32.5808829619  TIP3      16279           0.0000000000
    100352     17639  TIP3      H2            -21.4366456297      -33.3159268541      -31.5716269869  TIP3      16279           0.0000000000
    100353     17640  TIP3      OH2            -3.8177818212      -37.8269071457      -25.5782635313  TIP3      16280           0.0000000000
    100354     17640  TIP3      H1             -4.7659978111      -37.5813431234      -25.5865775372  TIP3      16280           0.0000000000
    100355     17640  TIP3      H2             -3.8003381729      -38.4424058981      -26.3250636040  TIP3      16280           0.0000000000
    100356     17641  TIP3      OH2            -3.8200868591      -37.9113173600      -40.8603441299  TIP3      16281           0.0000000000
    100357     17641  TIP3      H1             -3.4224968562      -38.6221713534      -41.3797149760  TIP3      16281           0.0000000000
    100358     17641  TIP3      H2             -3.1136099628      -37.2463115838      -40.8311948220  TIP3      16281           0.0000000000
    100359     17642  TIP3      OH2           -21.5169718801      -37.9561332233      -37.7796483315  TIP3      16282           0.0000000000
    100360     17642  TIP3      H1            -22.4562950186      -37.7081216014      -37.8718490995  TIP3      16282           0.0000000000
    100361     17642  TIP3      H2            -21.1035086306      -37.4053179283      -38.4667900290  TIP3      16282           0.0000000000
    100362     17643  TIP3      OH2            -6.7910821882      -22.9349221307      -35.8048373962  TIP3      16283           0.0000000000
    100363     17643  TIP3      H1             -6.1073915549      -23.2412598852      -36.4232861738  TIP3      16283           0.0000000000
    100364     17643  TIP3      H2             -6.2743882620      -22.4359275265      -35.1564946573  TIP3      16283           0.0000000000
    100365     17644  TIP3      OH2           -21.5453881979      -39.1366987385      -29.4046370550  TIP3      16284           0.0000000000
    100366     17644  TIP3      H1            -22.2173253970      -39.4149168957      -28.7683133912  TIP3      16284           0.0000000000
    100367     17644  TIP3      H2            -22.0254473321      -38.5673233737      -30.0319224166  TIP3      16284           0.0000000000
    100368     17645  TIP3      OH2           -19.3547340935      -26.0336423546      -25.2651171157  TIP3      16285           0.0000000000
    100369     17645  TIP3      H1            -20.1883932727      -25.8206844360      -25.7103742687  TIP3      16285           0.0000000000
    100370     17645  TIP3      H2            -19.6193933894      -26.1079032273      -24.3466813901  TIP3      16285           0.0000000000
    100371     17646  TIP3      OH2           -16.4590907243      -25.0299652782      -29.0363292398  TIP3      16286           0.0000000000
    100372     17646  TIP3      H1            -16.7823001070      -24.1562720058      -29.2973704133  TIP3      16286           0.0000000000
    100373     17646  TIP3      H2            -15.5194444622      -24.9393071957      -29.3093193705  TIP3      16286           0.0000000000
    100374     17647  TIP3      OH2           -12.0949163263      -23.5858667749      -26.1287769068  TIP3      16287           0.0000000000
    100375     17647  TIP3      H1            -11.9634553342      -23.9285681419      -25.2131442079  TIP3      16287           0.0000000000
    100376     17647  TIP3      H2            -11.1954264413      -23.2945419497      -26.3687147515  TIP3      16287           0.0000000000
    100377     17648  TIP3      OH2            -9.8257577654      -22.3581894653      -26.7630098645  TIP3      16288           0.0000000000
    100378     17648  TIP3      H1             -9.0988250478      -22.9243072377      -27.0679349114  TIP3      16288           0.0000000000
    100379     17648  TIP3      H2             -9.4120708944      -21.8885389269      -26.0401811760  TIP3      16288           0.0000000000
    100380     17649  TIP3      OH2            -4.8617956863      -39.6539135137      -27.7030922682  TIP3      16289           0.0000000000
    100381     17649  TIP3      H1             -5.7190209088      -39.3789436595      -28.0632724067  TIP3      16289           0.0000000000
    100382     17649  TIP3      H2             -4.6930227594      -40.4924335799      -28.1008307826  TIP3      16289           0.0000000000
    100383     17650  TIP3      OH2           -19.0234412934      -21.7764651110      -29.0235343008  TIP3      16290           0.0000000000
    100384     17650  TIP3      H1            -19.7570541166      -21.2853801088      -29.4214326449  TIP3      16290           0.0000000000
    100385     17650  TIP3      H2            -19.3399392624      -21.9759499116      -28.1304578179  TIP3      16290           0.0000000000
    100386     17651  TIP3      OH2           -16.5493643327      -22.2052868155      -29.9536599203  TIP3      16291           0.0000000000
    100387     17651  TIP3      H1            -17.4352642255      -22.0597781866      -29.5446573295  TIP3      16291           0.0000000000
    100388     17651  TIP3      H2            -16.6109939703      -21.6131140292      -30.7248222571  TIP3      16291           0.0000000000
    100389     17652  TIP3      OH2           -11.8420872668      -22.2976991790      -30.7742115456  TIP3      16292           0.0000000000
    100390     17652  TIP3      H1            -12.3051513207      -21.7404325390      -31.4217034128  TIP3      16292           0.0000000000
    100391     17652  TIP3      H2            -11.7094233526      -21.6641829816      -30.0381441652  TIP3      16292           0.0000000000
    100392     17653  TIP3      OH2            -9.5534876288      -23.4751890571      -29.7331806897  TIP3      16293           0.0000000000
    100393     17653  TIP3      H1            -10.4087229507      -23.2123839226      -30.1113146192  TIP3      16293           0.0000000000
    100394     17653  TIP3      H2             -9.0721814695      -22.6386723896      -29.8515238286  TIP3      16293           0.0000000000
    100395     17654  TIP3      OH2            -6.9737535207      -21.9041488673      -29.5153071844  TIP3      16294           0.0000000000
    100396     17654  TIP3      H1             -7.0283878711      -20.9487757927      -29.7573302529  TIP3      16294           0.0000000000
    100397     17654  TIP3      H2             -6.7582799826      -22.2841860531      -30.3900824702  TIP3      16294           0.0000000000
    100398     17655  TIP3      OH2           -19.5615853169      -23.1371517434      -32.0741915432  TIP3      16295           0.0000000000
    100399     17655  TIP3      H1            -19.6354498747      -23.5956702946      -31.2125089558  TIP3      16295           0.0000000000
    100400     17655  TIP3      H2            -18.7479051914      -23.5121174284      -32.4665008465  TIP3      16295           0.0000000000
    100401     17656  TIP3      OH2           -17.4834327970      -24.4249625897      -33.4222305141  TIP3      16296           0.0000000000
    100402     17656  TIP3      H1            -17.6499850621      -25.3590464104      -33.1936538734  TIP3      16296           0.0000000000
    100403     17656  TIP3      H2            -16.6279256661      -24.2743234669      -32.9669348983  TIP3      16296           0.0000000000
    100404     17657  TIP3      OH2           -14.8799911185      -23.9423232093      -32.5478570696  TIP3      16297           0.0000000000
    100405     17657  TIP3      H1            -14.7226476656      -24.8639580630      -32.8111331643  TIP3      16297           0.0000000000
    100406     17657  TIP3      H2            -14.8372245918      -23.9995486905      -31.5812950626  TIP3      16297           0.0000000000
    100407     17658  TIP3      OH2           -11.4485161964      -38.2606963089      -33.3898926457  TIP3      16298           0.0000000000
    100408     17658  TIP3      H1            -12.0820776134      -38.9498181106      -33.1264386751  TIP3      16298           0.0000000000
    100409     17658  TIP3      H2            -10.8560974299      -38.7806953828      -33.9503076767  TIP3      16298           0.0000000000
    100410     17659  TIP3      OH2            -6.4453090494      -40.2465309390      -33.7852750817  TIP3      16299           0.0000000000
    100411     17659  TIP3      H1             -5.7522341321      -39.5718870821      -33.9223665638  TIP3      16299           0.0000000000
    100412     17659  TIP3      H2             -7.2676583623      -39.7659578653      -33.5988040007  TIP3      16299           0.0000000000
    100413     17660  TIP3      OH2            -4.5376468259      -38.9604925084      -35.0736158336  TIP3      16300           0.0000000000
    100414     17660  TIP3      H1             -3.9110507988      -39.5633035618      -35.4766649943  TIP3      16300           0.0000000000
    100415     17660  TIP3      H2             -4.0723632302      -38.1000652428      -34.9772475577  TIP3      16300           0.0000000000
    100416     17661  TIP3      OH2           -19.1767974472      -39.2287062466      -35.4517961948  TIP3      16301           0.0000000000
    100417     17661  TIP3      H1            -19.8415009573      -39.6173848369      -36.0276422575  TIP3      16301           0.0000000000
    100418     17661  TIP3      H2            -18.6205758064      -40.0385549455      -35.3958475843  TIP3      16301           0.0000000000
    100419     17662  TIP3      OH2           -20.2858453684      -39.7739137906      -39.9128981720  TIP3      16302           0.0000000000
    100420     17662  TIP3      H1            -19.7991285551      -39.1069359801      -40.4079957953  TIP3      16302           0.0000000000
    100421     17662  TIP3      H2            -20.8817381225      -39.2667135746      -39.3226485956  TIP3      16302           0.0000000000
    100422     17663  TIP3      OH2           -14.5530878591      -39.7098872749      -35.7712386036  TIP3      16303           0.0000000000
    100423     17663  TIP3      H1            -13.6479236371      -39.3703972435      -35.8159868197  TIP3      16303           0.0000000000
    100424     17663  TIP3      H2            -14.5835924921      -39.9645534624      -34.8487394610  TIP3      16303           0.0000000000
    100425     17664  TIP3      OH2            -9.0165549621      -39.7089409281      -34.1488539027  TIP3      16304           0.0000000000
    100426     17664  TIP3      H1             -8.8814874849      -39.6441757385      -35.0983474790  TIP3      16304           0.0000000000
    100427     17664  TIP3      H2             -9.2084445374      -40.6566513872      -34.0367763877  TIP3      16304           0.0000000000
    100428     17665  TIP3      OH2            -7.6635251051      -39.6332615454      -38.6534331056  TIP3      16305           0.0000000000
    100429     17665  TIP3      H1             -8.4156151676      -39.0320523050      -38.6579839716  TIP3      16305           0.0000000000
    100430     17665  TIP3      H2             -8.0132378606      -40.4567734739      -38.2832505506  TIP3      16305           0.0000000000
    100431     17666  TIP3      OH2           -20.3670235864      -23.9572116747      -38.8381523413  TIP3      16306           0.0000000000
    100432     17666  TIP3      H1            -21.0447905637      -23.9606713191      -39.5427840772  TIP3      16306           0.0000000000
    100433     17666  TIP3      H2            -20.3477789414      -23.0061991191      -38.6603893239  TIP3      16306           0.0000000000
    100434     17667  TIP3      OH2           -18.4686180685      -38.0629768536      -41.2998823089  TIP3      16307           0.0000000000
    100435     17667  TIP3      H1            -17.8863537133      -38.5552551885      -41.8642585320  TIP3      16307           0.0000000000
    100436     17667  TIP3      H2            -17.8306764938      -37.6100213865      -40.7073967438  TIP3      16307           0.0000000000
    100437     17668  TIP3      OH2           -13.4835105322      -37.7276039331      -38.8899608523  TIP3      16308           0.0000000000
    100438     17668  TIP3      H1            -13.1499637180      -38.2976670867      -38.1758004780  TIP3      16308           0.0000000000
    100439     17668  TIP3      H2            -13.3757770539      -36.8600522425      -38.4405493885  TIP3      16308           0.0000000000
    100440     17669  TIP3      OH2           -11.5178080995      -22.6117774471      -40.5143933554  TIP3      16309           0.0000000000
    100441     17669  TIP3      H1            -10.5717295036      -22.4413028856      -40.6717388127  TIP3      16309           0.0000000000
    100442     17669  TIP3      H2            -11.7053684410      -23.1883597095      -41.2877821958  TIP3      16309           0.0000000000
    100443     17670  TIP3      OH2            -4.7943515427      -23.1450605847      -37.7641872624  TIP3      16310           0.0000000000
    100444     17670  TIP3      H1             -4.9981126525      -23.9237483474      -38.3408356087  TIP3      16310           0.0000000000
    100445     17670  TIP3      H2             -4.8826948700      -22.4100928853      -38.4003655892  TIP3      16310           0.0000000000
    100446     17671  TIP3      OH2           -19.1459756600      -39.1014779727      -26.1426394123  TIP3      16311           0.0000000000
    100447     17671  TIP3      H1            -19.5424845590      -39.8645684767      -25.7046552746  TIP3      16311           0.0000000000
    100448     17671  TIP3      H2            -18.2509561394      -39.1774095331      -25.7654682010  TIP3      16311           0.0000000000
    100449     17672  TIP3      OH2           -17.1427453504      -39.7673279956      -24.4971159046  TIP3      16312           0.0000000000
    100450     17672  TIP3      H1            -16.2459680144      -40.0703264797      -24.7170937690  TIP3      16312           0.0000000000
    100451     17672  TIP3      H2            -17.5123397265      -40.5602818635      -24.0807432330  TIP3      16312           0.0000000000
    100452     17673  TIP3      OH2           -18.5390318893      -22.9595952792      -41.8689883849  TIP3      16313           0.0000000000
    100453     17673  TIP3      H1            -18.8356603374      -22.7074872421      -40.9903014495  TIP3      16313           0.0000000000
    100454     17673  TIP3      H2            -17.8042370554      -23.5542437883      -41.6966089906  TIP3      16313           0.0000000000
    100455     17674  TIP3      OH2            -8.7133922624      -40.4074235823      -24.3104247322  TIP3      16314           0.0000000000
    100456     17674  TIP3      H1             -8.6610764450      -40.9508202195      -23.5151666391  TIP3      16314           0.0000000000
    100457     17674  TIP3      H2             -7.8319786114      -40.5042467764      -24.6939775264  TIP3      16314           0.0000000000
    100458     17675  TIP3      OH2            -5.5747244774      -24.3990222470      -25.6144043316  TIP3      16315           0.0000000000
    100459     17675  TIP3      H1             -6.3326008553      -24.5411938944      -26.2265600484  TIP3      16315           0.0000000000
    100460     17675  TIP3      H2             -5.6510472835      -23.4350030239      -25.4904080555  TIP3      16315           0.0000000000
    100461     17676  TIP3      OH2             8.8862000186      -30.5262185069      -35.7027209478  TIP3      16316           0.0000000000
    100462     17676  TIP3      H1              8.8846313314      -29.5450882898      -35.7350926697  TIP3      16316           0.0000000000
    100463     17676  TIP3      H2              8.1582719861      -30.7559928308      -36.3048958436  TIP3      16316           0.0000000000
    100464     17677  TIP3      OH2             7.7413210565      -31.2692319411      -32.1973268613  TIP3      16317           0.0000000000
    100465     17677  TIP3      H1              7.7299373375      -31.9222032590      -31.4857667673  TIP3      16317           0.0000000000
    100466     17677  TIP3      H2              7.4017308437      -31.7724849671      -32.9562774526  TIP3      16317           0.0000000000
    100467     17678  TIP3      OH2             0.0978183979      -31.5960123366      -30.6461121964  TIP3      16318           0.0000000000
    100468     17678  TIP3      H1              0.1819267257      -32.2816156471      -29.9501009607  TIP3      16318           0.0000000000
    100469     17678  TIP3      H2              0.8468745196      -31.0237260548      -30.4274158910  TIP3      16318           0.0000000000
    100470     17679  TIP3      OH2            11.4065637004      -28.3041861819      -33.9194006191  TIP3      16319           0.0000000000
    100471     17679  TIP3      H1             11.0329520222      -29.0551649001      -33.4399779434  TIP3      16319           0.0000000000
    100472     17679  TIP3      H2             11.4741611233      -27.6346680108      -33.2238866136  TIP3      16319           0.0000000000
    100473     17680  TIP3      OH2             1.0252011403      -27.1488152026      -32.1414901332  TIP3      16320           0.0000000000
    100474     17680  TIP3      H1              0.7112060343      -28.0148720557      -32.4654277091  TIP3      16320           0.0000000000
    100475     17680  TIP3      H2              1.9803995218      -27.3338552763      -32.0964247930  TIP3      16320           0.0000000000
    100476     17681  TIP3      OH2            -2.3357941906      -33.5866301255      -36.6580570221  TIP3      16321           0.0000000000
    100477     17681  TIP3      H1             -2.7747122476      -32.7167873366      -36.7229166954  TIP3      16321           0.0000000000
    100478     17681  TIP3      H2             -2.9008393292      -34.1249079040      -37.2274534051  TIP3      16321           0.0000000000
    100479     17682  TIP3      OH2            -1.6273330556      -31.3612930305      -34.5160326359  TIP3      16322           0.0000000000
    100480     17682  TIP3      H1             -1.3575475057      -32.1818563061      -34.0619261131  TIP3      16322           0.0000000000
    100481     17682  TIP3      H2             -0.9264107452      -31.2602536230      -35.1773876562  TIP3      16322           0.0000000000
    100482     17683  TIP3      OH2             8.6005457439      -23.1464915411      -33.6413772233  TIP3      16323           0.0000000000
    100483     17683  TIP3      H1              9.1258116828      -23.8674002489      -34.0478124966  TIP3      16323           0.0000000000
    100484     17683  TIP3      H2              8.2468081259      -23.4921615588      -32.8179448693  TIP3      16323           0.0000000000
    100485     17684  TIP3      OH2             6.1158601957      -28.8722093052      -31.7377120326  TIP3      16324           0.0000000000
    100486     17684  TIP3      H1              6.4585259012      -29.4993432204      -32.3923980558  TIP3      16324           0.0000000000
    100487     17684  TIP3      H2              6.9136255728      -28.7308755875      -31.2040354176  TIP3      16324           0.0000000000
    100488     17685  TIP3      OH2            14.7474092265      -37.2708910801      -30.9945848785  TIP3      16325           0.0000000000
    100489     17685  TIP3      H1             14.8872860554      -36.6417033593      -30.2455573880  TIP3      16325           0.0000000000
    100490     17685  TIP3      H2             15.2640534334      -36.8024726523      -31.6671372232  TIP3      16325           0.0000000000
    100491     17686  TIP3      OH2             9.3059233775      -34.3855148540      -31.4301010065  TIP3      16326           0.0000000000
    100492     17686  TIP3      H1              9.4483626755      -35.3503575390      -31.4153262458  TIP3      16326           0.0000000000
    100493     17686  TIP3      H2              9.1845019802      -34.2558930084      -32.3890157945  TIP3      16326           0.0000000000
    100494     17687  TIP3      OH2             2.4084746466      -36.3038153879      -34.2004843351  TIP3      16327           0.0000000000
    100495     17687  TIP3      H1              2.5068149921      -35.4724958117      -34.6975100398  TIP3      16327           0.0000000000
    100496     17687  TIP3      H2              2.0088819432      -36.8955810246      -34.8779422357  TIP3      16327           0.0000000000
    100497     17688  TIP3      OH2            10.1316072827      -36.2306879783      -35.8280752063  TIP3      16328           0.0000000000
    100498     17688  TIP3      H1             10.7872621594      -36.5518618454      -35.1696362110  TIP3      16328           0.0000000000
    100499     17688  TIP3      H2             10.6935283358      -35.6642943167      -36.3768923081  TIP3      16328           0.0000000000
    100500     17689  TIP3      OH2            -0.9733064001      -33.8686082504      -33.4572771959  TIP3      16329           0.0000000000
    100501     17689  TIP3      H1             -0.3120714201      -34.4387494477      -33.0112451107  TIP3      16329           0.0000000000
    100502     17689  TIP3      H2             -0.8764956688      -34.2044466888      -34.3653029393  TIP3      16329           0.0000000000
    100503     17690  TIP3      OH2             4.1855481333      -32.3470739661      -34.1523936078  TIP3      16330           0.0000000000
    100504     17690  TIP3      H1              4.8537504241      -32.9277194231      -33.7504293279  TIP3      16330           0.0000000000
    100505     17690  TIP3      H2              3.6657359002      -33.0083940761      -34.6510580823  TIP3      16330           0.0000000000
    100506     17691  TIP3      OH2            15.1544765799      -35.8316260683      -28.7426843439  TIP3      16331           0.0000000000
    100507     17691  TIP3      H1             14.5386984447      -35.0716838085      -28.8376420887  TIP3      16331           0.0000000000
    100508     17691  TIP3      H2             15.1952816207      -35.9304906923      -27.7829847236  TIP3      16331           0.0000000000
    100509     17692  TIP3      OH2             1.3215404998      -37.3953178296      -30.1483572031  TIP3      16332           0.0000000000
    100510     17692  TIP3      H1              1.0153491532      -36.8458476976      -30.9003631562  TIP3      16332           0.0000000000
    100511     17692  TIP3      H2              0.6189482245      -37.1926935873      -29.4756306764  TIP3      16332           0.0000000000
    100512     17693  TIP3      OH2             8.6102919643      -27.9199768316      -36.6049420847  TIP3      16333           0.0000000000
    100513     17693  TIP3      H1              8.3297798870      -28.2219016872      -37.4820016605  TIP3      16333           0.0000000000
    100514     17693  TIP3      H2              8.2779833344      -26.9969544591      -36.5765796138  TIP3      16333           0.0000000000
    100515     17694  TIP3      OH2             3.8209925410      -29.7725217623      -29.9166466056  TIP3      16334           0.0000000000
    100516     17694  TIP3      H1              3.1152629698      -29.1258562173      -29.7039840516  TIP3      16334           0.0000000000
    100517     17694  TIP3      H2              4.5278599751      -29.1743522621      -30.2057354078  TIP3      16334           0.0000000000
    100518     17695  TIP3      OH2            11.9535469624      -36.8894204613      -33.8356398293  TIP3      16335           0.0000000000
    100519     17695  TIP3      H1             11.7101714746      -37.6598081302      -33.3117659030  TIP3      16335           0.0000000000
    100520     17695  TIP3      H2             12.6175443773      -36.4504310235      -33.2753377661  TIP3      16335           0.0000000000
    100521     17696  TIP3      OH2             0.8626275030      -35.5544143207      -32.1526438490  TIP3      16336           0.0000000000
    100522     17696  TIP3      H1              1.5022510541      -34.8861356977      -31.8227454199  TIP3      16336           0.0000000000
    100523     17696  TIP3      H2              1.3925012155      -35.9833562636      -32.8660355498  TIP3      16336           0.0000000000
    100524     17697  TIP3      OH2             2.2696734283      -27.7695159399      -29.0984973004  TIP3      16337           0.0000000000
    100525     17697  TIP3      H1              2.2242182697      -26.8574038397      -29.4405116087  TIP3      16337           0.0000000000
    100526     17697  TIP3      H2              1.3862504675      -27.8463053542      -28.6566357346  TIP3      16337           0.0000000000
    100527     17698  TIP3      OH2            -1.6682447598      -28.1523167977      -38.3088620561  TIP3      16338           0.0000000000
    100528     17698  TIP3      H1             -1.8811313099      -27.8302378323      -39.2096368228  TIP3      16338           0.0000000000
    100529     17698  TIP3      H2             -1.5825736827      -27.3154159272      -37.8058212914  TIP3      16338           0.0000000000
    100530     17699  TIP3      OH2            11.9352676816      -26.4798487581      -31.6347411074  TIP3      16339           0.0000000000
    100531     17699  TIP3      H1             10.9960568391      -26.4214071100      -31.3620051820  TIP3      16339           0.0000000000
    100532     17699  TIP3      H2             12.3018257949      -25.5793251850      -31.6929793005  TIP3      16339           0.0000000000
    100533     17700  TIP3      OH2            12.2991425877      -38.2150187698      -30.1370864426  TIP3      16340           0.0000000000
    100534     17700  TIP3      H1             11.5700605702      -37.5809153507      -30.2401178718  TIP3      16340           0.0000000000
    100535     17700  TIP3      H2             13.0047605371      -37.7850444271      -30.6577310152  TIP3      16340           0.0000000000
    100536     17701  TIP3      OH2             5.2353570105      -40.0423098058      -32.9070969732  TIP3      16341           0.0000000000
    100537     17701  TIP3      H1              5.2111589955      -40.9926054960      -32.7230562965  TIP3      16341           0.0000000000
    100538     17701  TIP3      H2              4.4573094446      -39.7536226192      -32.4031858753  TIP3      16341           0.0000000000
    100539     17702  TIP3      OH2            10.2898558618      -24.6993819618      -34.8623047269  TIP3      16342           0.0000000000
    100540     17702  TIP3      H1             10.6216624622      -25.4138242895      -35.4705716758  TIP3      16342           0.0000000000
    100541     17702  TIP3      H2             10.6309982707      -23.9208549119      -35.3737107562  TIP3      16342           0.0000000000
    100542     17703  TIP3      OH2            11.4012859835      -26.7605425276      -36.4239932497  TIP3      16343           0.0000000000
    100543     17703  TIP3      H1             11.1529078129      -27.4551455325      -37.0651241545  TIP3      16343           0.0000000000
    100544     17703  TIP3      H2             11.4743001863      -27.2913732326      -35.6118589760  TIP3      16343           0.0000000000
    100545     17704  TIP3      OH2            13.0494397524      -28.1840611898      -27.9460991070  TIP3      16344           0.0000000000
    100546     17704  TIP3      H1             13.1961308482      -28.8342170320      -28.6702657267  TIP3      16344           0.0000000000
    100547     17704  TIP3      H2             13.2656883767      -27.3414552600      -28.3749194877  TIP3      16344           0.0000000000
    100548     17705  TIP3      OH2             7.5428269836      -31.2967029258      -38.1867629884  TIP3      16345           0.0000000000
    100549     17705  TIP3      H1              6.8485738300      -30.7229780943      -38.5499329397  TIP3      16345           0.0000000000
    100550     17705  TIP3      H2              8.2527759016      -31.2034828480      -38.8495529592  TIP3      16345           0.0000000000
    100551     17706  TIP3      OH2             7.6178170495      -32.7433421917      -41.1306596493  TIP3      16346           0.0000000000
    100552     17706  TIP3      H1              8.3386571385      -32.7463308323      -40.4755681049  TIP3      16346           0.0000000000
    100553     17706  TIP3      H2              7.9066993337      -33.4407533733      -41.7242217660  TIP3      16346           0.0000000000
    100554     17707  TIP3      OH2            14.9335014639      -31.8697695533      -29.9056984616  TIP3      16347           0.0000000000
    100555     17707  TIP3      H1             14.2740277479      -31.1496377761      -29.8636608416  TIP3      16347           0.0000000000
    100556     17707  TIP3      H2             15.4261032394      -31.6361262610      -30.7126363251  TIP3      16347           0.0000000000
    100557     17708  TIP3      OH2            10.9989493506      -31.0621312198      -37.2485556014  TIP3      16348           0.0000000000
    100558     17708  TIP3      H1             10.2423827050      -30.8334732743      -36.6562948412  TIP3      16348           0.0000000000
    100559     17708  TIP3      H2             11.4607210732      -31.7546219750      -36.7425333904  TIP3      16348           0.0000000000
    100560     17709  TIP3      OH2            10.9179029600      -32.9139705685      -28.1435800435  TIP3      16349           0.0000000000
    100561     17709  TIP3      H1             10.9199177361      -32.0988084736      -27.6112492201  TIP3      16349           0.0000000000
    100562     17709  TIP3      H2             10.2891054750      -32.6186655252      -28.8344891719  TIP3      16349           0.0000000000
    100563     17710  TIP3      OH2             2.6049303371      -30.4166181402      -35.3501737415  TIP3      16350           0.0000000000
    100564     17710  TIP3      H1              2.2826505746      -30.8094659751      -36.1956845889  TIP3      16350           0.0000000000
    100565     17710  TIP3      H2              3.2175066808      -31.1103826348      -35.0131232199  TIP3      16350           0.0000000000
    100566     17711  TIP3      OH2             3.9276553968      -27.0311351483      -32.6680005888  TIP3      16351           0.0000000000
    100567     17711  TIP3      H1              3.9150408289      -27.5625887340      -33.4734051008  TIP3      16351           0.0000000000
    100568     17711  TIP3      H2              4.7093499419      -27.3904744916      -32.2087691984  TIP3      16351           0.0000000000
    100569     17712  TIP3      OH2             2.9340936026      -31.6743636180      -31.6894976774  TIP3      16352           0.0000000000
    100570     17712  TIP3      H1              3.4881341898      -31.5689240234      -32.4877298687  TIP3      16352           0.0000000000
    100571     17712  TIP3      H2              3.3140703264      -31.0098580854      -31.0756980979  TIP3      16352           0.0000000000
    100572     17713  TIP3      OH2             9.3763116683      -26.0547142788      -30.9949664345  TIP3      16353           0.0000000000
    100573     17713  TIP3      H1              9.0321492956      -25.4907265578      -30.2862854763  TIP3      16353           0.0000000000
    100574     17713  TIP3      H2              9.1157725721      -26.9356642066      -30.5949813990  TIP3      16353           0.0000000000
    100575     17714  TIP3      OH2             3.8862967389      -27.2420613731      -26.9925061557  TIP3      16354           0.0000000000
    100576     17714  TIP3      H1              3.4810611256      -26.5002533807      -26.4996235804  TIP3      16354           0.0000000000
    100577     17714  TIP3      H2              3.2057470764      -27.4405345165      -27.6808413824  TIP3      16354           0.0000000000
    100578     17715  TIP3      OH2             9.8680667700      -31.8936075882      -39.5843277961  TIP3      16355           0.0000000000
    100579     17715  TIP3      H1             10.4252016609      -31.7082702844      -38.7879961636  TIP3      16355           0.0000000000
    100580     17715  TIP3      H2             10.2849284747      -31.3735259143      -40.3032127144  TIP3      16355           0.0000000000
    100581     17716  TIP3      OH2             0.8210257614      -31.0873770988      -27.8017667000  TIP3      16356           0.0000000000
    100582     17716  TIP3      H1              0.8636317661      -30.4060216085      -27.1015214544  TIP3      16356           0.0000000000
    100583     17716  TIP3      H2             -0.1060788189      -30.9806953058      -28.0628689849  TIP3      16356           0.0000000000
    100584     17717  TIP3      OH2             7.6027463790      -25.1461877170      -36.1252147125  TIP3      16357           0.0000000000
    100585     17717  TIP3      H1              8.0019420584      -24.8401658134      -35.3142136949  TIP3      16357           0.0000000000
    100586     17717  TIP3      H2              7.0134523498      -24.4205492838      -36.3786401682  TIP3      16357           0.0000000000
    100587     17718  TIP3      OH2             2.1250617003      -25.2029563032      -26.2518989832  TIP3      16358           0.0000000000
    100588     17718  TIP3      H1              2.0672121051      -25.3115220557      -27.2148811134  TIP3      16358           0.0000000000
    100589     17718  TIP3      H2              1.1999993868      -25.3447081175      -25.9687930469  TIP3      16358           0.0000000000
    100590     17719  TIP3      OH2            13.5822728977      -40.1444004974      -39.6662645265  TIP3      16359           0.0000000000
    100591     17719  TIP3      H1             12.6382069799      -40.0164041553      -39.4223421862  TIP3      16359           0.0000000000
    100592     17719  TIP3      H2             13.8039002325      -39.3238944702      -40.1407963766  TIP3      16359           0.0000000000
    100593     17720  TIP3      OH2             1.5623371447      -31.3901063736      -37.7167794818  TIP3      16360           0.0000000000
    100594     17720  TIP3      H1              1.2892914869      -30.6158953605      -38.2536556519  TIP3      16360           0.0000000000
    100595     17720  TIP3      H2              0.9220653066      -32.0594906749      -37.9681633651  TIP3      16360           0.0000000000
    100596     17721  TIP3      OH2            14.6824005254      -25.7944960824      -41.2584033640  TIP3      16361           0.0000000000
    100597     17721  TIP3      H1             14.8295225267      -24.8359570140      -41.2173872120  TIP3      16361           0.0000000000
    100598     17721  TIP3      H2             15.5958160123      -26.0895268722      -41.4311017339  TIP3      16361           0.0000000000
    100599     17722  TIP3      OH2            -2.3322483137      -28.9642027681      -28.8494065114  TIP3      16362           0.0000000000
    100600     17722  TIP3      H1             -2.7843493925      -29.0507802920      -29.7078812727  TIP3      16362           0.0000000000
    100601     17722  TIP3      H2             -2.2610043829      -29.9099338056      -28.6163080462  TIP3      16362           0.0000000000
    100602     17723  TIP3      OH2            -2.5738737288      -26.2318663127      -32.0596638891  TIP3      16363           0.0000000000
    100603     17723  TIP3      H1             -1.6154913236      -26.3474812924      -32.0771030228  TIP3      16363           0.0000000000
    100604     17723  TIP3      H2             -2.6584939090      -25.4164570389      -31.5508067245  TIP3      16363           0.0000000000
    100605     17724  TIP3      OH2            15.6887537805      -25.5381118001      -26.3124853381  TIP3      16364           0.0000000000
    100606     17724  TIP3      H1             15.5306068545      -26.4880849577      -26.4211177733  TIP3      16364           0.0000000000
    100607     17724  TIP3      H2             14.7922361388      -25.2834871653      -25.9886278044  TIP3      16364           0.0000000000
    100608     17725  TIP3      OH2             6.6179511711      -25.9880759287      -27.5191929072  TIP3      16365           0.0000000000
    100609     17725  TIP3      H1              6.6858464794      -25.1518177609      -27.0002233619  TIP3      16365           0.0000000000
    100610     17725  TIP3      H2              5.7501628362      -26.3440136575      -27.2482871180  TIP3      16365           0.0000000000
    100611     17726  TIP3      OH2             7.0461300038      -22.2384258867      -37.7178031549  TIP3      16366           0.0000000000
    100612     17726  TIP3      H1              6.9613041433      -22.3143830937      -38.6816197526  TIP3      16366           0.0000000000
    100613     17726  TIP3      H2              7.0829605775      -21.2783078764      -37.5599230018  TIP3      16366           0.0000000000
    100614     17727  TIP3      OH2             0.7005633973      -23.3676024466      -35.8938331968  TIP3      16367           0.0000000000
    100615     17727  TIP3      H1              0.8475753860      -23.7815451390      -35.0121410550  TIP3      16367           0.0000000000
    100616     17727  TIP3      H2             -0.1494174810      -23.7731866955      -36.1290568967  TIP3      16367           0.0000000000
    100617     17728  TIP3      OH2            10.0689721433      -23.0555267159      -40.7580846602  TIP3      16368           0.0000000000
    100618     17728  TIP3      H1             10.5738262431      -23.7914715339      -41.1736186224  TIP3      16368           0.0000000000
    100619     17728  TIP3      H2             10.1568892162      -23.2966460328      -39.8169029749  TIP3      16368           0.0000000000
    100620     17729  TIP3      OH2             9.8066295802      -23.0823452374      -37.9247353708  TIP3      16369           0.0000000000
    100621     17729  TIP3      H1              8.8427307146      -23.0262624552      -37.7783365370  TIP3      16369           0.0000000000
    100622     17729  TIP3      H2             10.0468515039      -23.8559854981      -37.4024816664  TIP3      16369           0.0000000000
    100623     17730  TIP3      OH2            12.8342249407      -34.0591339583      -25.9162476681  TIP3      16370           0.0000000000
    100624     17730  TIP3      H1             12.3298174570      -33.5994785455      -26.6033409097  TIP3      16370           0.0000000000
    100625     17730  TIP3      H2             12.7947023109      -34.9833844432      -26.2096092184  TIP3      16370           0.0000000000
    100626     17731  TIP3      OH2            -0.0546878183      -27.6519975664      -27.9052885502  TIP3      16371           0.0000000000
    100627     17731  TIP3      H1              0.1706207321      -28.0185840446      -27.0205367889  TIP3      16371           0.0000000000
    100628     17731  TIP3      H2             -0.9214619207      -28.0537105829      -28.1182602724  TIP3      16371           0.0000000000
    100629     17732  TIP3      OH2             2.6259913230      -39.1989902720      -31.9265422329  TIP3      16372           0.0000000000
    100630     17732  TIP3      H1              1.7267382241      -39.2278385640      -32.3178328150  TIP3      16372           0.0000000000
    100631     17732  TIP3      H2              2.5298617834      -38.3575132822      -31.4454961883  TIP3      16372           0.0000000000
    100632     17733  TIP3      OH2             7.3085960480      -39.0074316386      -28.4596236926  TIP3      16373           0.0000000000
    100633     17733  TIP3      H1              7.7875522059      -39.7090847554      -28.0145124391  TIP3      16373           0.0000000000
    100634     17733  TIP3      H2              6.4364472691      -39.4260951839      -28.6238176943  TIP3      16373           0.0000000000
    100635     17734  TIP3      OH2            10.5503594559      -35.6961353158      -27.6944696397  TIP3      16374           0.0000000000
    100636     17734  TIP3      H1              9.9978585144      -35.8587699528      -26.8934335876  TIP3      16374           0.0000000000
    100637     17734  TIP3      H2             10.3840888483      -34.7659623096      -27.9187923946  TIP3      16374           0.0000000000
    100638     17735  TIP3      OH2            11.3387158131      -30.8974732496      -41.8922733731  TIP3      16375           0.0000000000
    100639     17735  TIP3      H1             11.3219402212      -31.0403411013      -42.8479661624  TIP3      16375           0.0000000000
    100640     17735  TIP3      H2             12.1480389017      -30.3962541845      -41.7327332560  TIP3      16375           0.0000000000
    100641     17736  TIP3      OH2             6.9353248652      -36.9790095620      -41.2046061663  TIP3      16376           0.0000000000
    100642     17736  TIP3      H1              6.5837259030      -36.9915664884      -40.2993086143  TIP3      16376           0.0000000000
    100643     17736  TIP3      H2              6.6147114463      -37.8328266697      -41.5090490682  TIP3      16376           0.0000000000
    100644     17737  TIP3      OH2             2.7337474234      -34.2072298402      -30.6941459862  TIP3      16377           0.0000000000
    100645     17737  TIP3      H1              1.9958361359      -34.2195369300      -30.0570158076  TIP3      16377           0.0000000000
    100646     17737  TIP3      H2              2.6842300533      -33.2961523960      -31.0637785409  TIP3      16377           0.0000000000
    100647     17738  TIP3      OH2             2.6940387828      -34.0772580211      -35.8310176650  TIP3      16378           0.0000000000
    100648     17738  TIP3      H1              1.7584459667      -34.3280162070      -35.9619546421  TIP3      16378           0.0000000000
    100649     17738  TIP3      H2              3.0698593159      -34.3805853777      -36.6789164133  TIP3      16378           0.0000000000
    100650     17739  TIP3      OH2             8.2105151170      -33.5820160538      -37.0615187588  TIP3      16379           0.0000000000
    100651     17739  TIP3      H1              7.8038948651      -32.7565961434      -37.4078635100  TIP3      16379           0.0000000000
    100652     17739  TIP3      H2              8.8953552811      -33.7478254380      -37.7339264127  TIP3      16379           0.0000000000
    100653     17740  TIP3      OH2             7.2745178963      -33.3830060764      -25.6058800888  TIP3      16380           0.0000000000
    100654     17740  TIP3      H1              6.7504135877      -34.1617801184      -25.2959174638  TIP3      16380           0.0000000000
    100655     17740  TIP3      H2              8.0953841184      -33.4983902709      -25.0876817016  TIP3      16380           0.0000000000
    100656     17741  TIP3      OH2             9.2430133608      -34.0958353731      -34.2158112669  TIP3      16381           0.0000000000
    100657     17741  TIP3      H1              8.9653547404      -33.5328826355      -34.9574559240  TIP3      16381           0.0000000000
    100658     17741  TIP3      H2              9.3423644018      -34.9462241711      -34.6847175430  TIP3      16381           0.0000000000
    100659     17742  TIP3      OH2             0.3525875363      -33.9459228288      -29.0071373805  TIP3      16382           0.0000000000
    100660     17742  TIP3      H1              0.4283026402      -33.5400767611      -28.1256271226  TIP3      16382           0.0000000000
    100661     17742  TIP3      H2             -0.0932145225      -34.7808225081      -28.8010899243  TIP3      16382           0.0000000000
    100662     17743  TIP3      OH2             3.7305079506      -36.6027452177      -42.1775417180  TIP3      16383           0.0000000000
    100663     17743  TIP3      H1              3.2803191475      -36.9880028389      -41.4093987680  TIP3      16383           0.0000000000
    100664     17743  TIP3      H2              3.0395297797      -36.1369728185      -42.6656917908  TIP3      16383           0.0000000000
    100665     17744  TIP3      OH2            -2.9912041973      -36.8075805989      -35.0404827020  TIP3      16384           0.0000000000
    100666     17744  TIP3      H1             -2.3203299542      -36.8555759151      -34.3312830599  TIP3      16384           0.0000000000
    100667     17744  TIP3      H2             -2.5323425307      -37.1888922901      -35.8039188353  TIP3      16384           0.0000000000
    100668     17745  TIP3      OH2            -1.6985211774      -36.1139249216      -39.6037020995  TIP3      16385           0.0000000000
    100669     17745  TIP3      H1             -1.2156409622      -35.5311030064      -40.2282431921  TIP3      16385           0.0000000000
    100670     17745  TIP3      H2             -2.3992303295      -35.4937809902      -39.3153697455  TIP3      16385           0.0000000000
    100671     17746  TIP3      OH2             8.4420090580      -32.5089194837      -29.6546002860  TIP3      16386           0.0000000000
    100672     17746  TIP3      H1              8.8220305984      -33.1925813364      -30.2424009939  TIP3      16386           0.0000000000
    100673     17746  TIP3      H2              7.9822394220      -33.0397848545      -28.9802681932  TIP3      16386           0.0000000000
    100674     17747  TIP3      OH2             5.2502920295      -36.5275149335      -34.8226409331  TIP3      16387           0.0000000000
    100675     17747  TIP3      H1              4.3198252049      -36.5279429219      -34.5241223211  TIP3      16387           0.0000000000
    100676     17747  TIP3      H2              5.7301760174      -36.7059715357      -33.9980140906  TIP3      16387           0.0000000000
    100677     17748  TIP3      OH2             0.0589083026      -34.9867793815      -35.9578267380  TIP3      16388           0.0000000000
    100678     17748  TIP3      H1             -0.8281334884      -34.8318928719      -36.3420099193  TIP3      16388           0.0000000000
    100679     17748  TIP3      H2              0.3384193475      -35.8307735144      -36.3555236640  TIP3      16388           0.0000000000
    100680     17749  TIP3      OH2             3.6984051543      -34.9498385042      -38.3243276102  TIP3      16389           0.0000000000
    100681     17749  TIP3      H1              4.6536624977      -34.8315714507      -38.1612790350  TIP3      16389           0.0000000000
    100682     17749  TIP3      H2              3.4610354012      -34.2786186969      -38.9946739752  TIP3      16389           0.0000000000
    100683     17750  TIP3      OH2             9.6551666441      -37.3641156422      -31.5830699125  TIP3      16390           0.0000000000
    100684     17750  TIP3      H1              8.9676248163      -37.2603542721      -30.8909123299  TIP3      16390           0.0000000000
    100685     17750  TIP3      H2              9.1431270293      -37.5689111357      -32.3762070103  TIP3      16390           0.0000000000
    100686     17751  TIP3      OH2             2.4161857527      -33.7518683110      -40.7010499990  TIP3      16391           0.0000000000
    100687     17751  TIP3      H1              1.8567363259      -34.1104778825      -41.4116016429  TIP3      16391           0.0000000000
    100688     17751  TIP3      H2              3.2171133240      -33.5359325305      -41.2036996431  TIP3      16391           0.0000000000
    100689     17752  TIP3      OH2            12.8667304842      -21.6783573225      -25.2596540609  TIP3      16392           0.0000000000
    100690     17752  TIP3      H1             13.1248708175      -21.2597701975      -26.1032806036  TIP3      16392           0.0000000000
    100691     17752  TIP3      H2             13.5617788112      -21.3263737130      -24.6740767936  TIP3      16392           0.0000000000
    100692     17753  TIP3      OH2             0.5349407733      -29.1892334457      -25.6999416775  TIP3      16393           0.0000000000
    100693     17753  TIP3      H1              1.2392334701      -28.9407110606      -25.0696012859  TIP3      16393           0.0000000000
    100694     17753  TIP3      H2             -0.2380220687      -29.0937349831      -25.0973387086  TIP3      16393           0.0000000000
    100695     17754  TIP3      OH2             6.5287470389      -33.7776343578      -32.9277765979  TIP3      16394           0.0000000000
    100696     17754  TIP3      H1              7.1243775350      -34.3138923791      -33.4640057827  TIP3      16394           0.0000000000
    100697     17754  TIP3      H2              6.3847541676      -34.3260095133      -32.1461393499  TIP3      16394           0.0000000000
    100698     17755  TIP3      OH2             1.5710632504      -37.6403677658      -36.4817245690  TIP3      16395           0.0000000000
    100699     17755  TIP3      H1              1.2446560344      -38.5534653416      -36.5045608779  TIP3      16395           0.0000000000
    100700     17755  TIP3      H2              2.3371762684      -37.6949923516      -37.0612121056  TIP3      16395           0.0000000000
    100701     17756  TIP3      OH2             5.1623065166      -35.4816601035      -30.4992408159  TIP3      16396           0.0000000000
    100702     17756  TIP3      H1              4.3447303394      -34.9458629189      -30.4211865556  TIP3      16396           0.0000000000
    100703     17756  TIP3      H2              5.7267125921      -35.1087453418      -29.7920236116  TIP3      16396           0.0000000000
    100704     17757  TIP3      OH2             5.7586348181      -29.2167304250      -38.8338178482  TIP3      16397           0.0000000000
    100705     17757  TIP3      H1              4.9579690023      -29.6984590799      -39.1451600743  TIP3      16397           0.0000000000
    100706     17757  TIP3      H2              5.5439839842      -29.1079963721      -37.8850657682  TIP3      16397           0.0000000000
    100707     17758  TIP3      OH2            12.9372831946      -30.0262611148      -30.0138926448  TIP3      16398           0.0000000000
    100708     17758  TIP3      H1             13.5063396082      -29.5488328415      -30.6434066438  TIP3      16398           0.0000000000
    100709     17758  TIP3      H2             12.0785221926      -29.9761375751      -30.4815280794  TIP3      16398           0.0000000000
    100710     17759  TIP3      OH2             9.5993724309      -36.4326122888      -40.6310523712  TIP3      16399           0.0000000000
    100711     17759  TIP3      H1              8.6554719165      -36.2712713228      -40.8093502958  TIP3      16399           0.0000000000
    100712     17759  TIP3      H2              9.9205687089      -35.5609904251      -40.3320533432  TIP3      16399           0.0000000000
    100713     17760  TIP3      OH2             7.2438526764      -28.9722195954      -27.5918435217  TIP3      16400           0.0000000000
    100714     17760  TIP3      H1              6.9071460140      -29.3878158193      -26.7899242410  TIP3      16400           0.0000000000
    100715     17760  TIP3      H2              7.0000387838      -28.0467257000      -27.4764676661  TIP3      16400           0.0000000000
    100716     17761  TIP3      OH2            10.3224421844      -34.4936725369      -38.9709484003  TIP3      16401           0.0000000000
    100717     17761  TIP3      H1             11.2138094328      -34.6273533365      -38.5957102918  TIP3      16401           0.0000000000
    100718     17761  TIP3      H2             10.4150953656      -33.6820739505      -39.4925595284  TIP3      16401           0.0000000000
    100719     17762  TIP3      OH2             0.8671845638      -29.8346096202      -33.0152431336  TIP3      16402           0.0000000000
    100720     17762  TIP3      H1              1.5538178606      -29.9144494134      -33.7053134484  TIP3      16402           0.0000000000
    100721     17762  TIP3      H2              0.9244810182      -30.6957410457      -32.5633464209  TIP3      16402           0.0000000000
    100722     17763  TIP3      OH2             7.8447965814      -27.7529284870      -39.7615569819  TIP3      16403           0.0000000000
    100723     17763  TIP3      H1              7.4975665656      -26.9060151703      -39.4043073425  TIP3      16403           0.0000000000
    100724     17763  TIP3      H2              7.1059865590      -28.3701737080      -39.5495226305  TIP3      16403           0.0000000000
    100725     17764  TIP3      OH2            -2.1442330744      -31.4307280460      -27.7562526092  TIP3      16404           0.0000000000
    100726     17764  TIP3      H1             -1.9699778409      -31.8679186059      -26.9003128703  TIP3      16404           0.0000000000
    100727     17764  TIP3      H2             -2.7647593358      -32.0448794714      -28.1900480721  TIP3      16404           0.0000000000
    100728     17765  TIP3      OH2             4.8668088232      -31.8724360206      -25.5772288463  TIP3      16405           0.0000000000
    100729     17765  TIP3      H1              4.5534042069      -32.1708328304      -26.4452320836  TIP3      16405           0.0000000000
    100730     17765  TIP3      H2              5.7930285388      -32.1887787485      -25.5658747203  TIP3      16405           0.0000000000
    100731     17766  TIP3      OH2             9.5544243305      -26.5017181978      -27.6523714586  TIP3      16406           0.0000000000
    100732     17766  TIP3      H1              8.6122426653      -26.3674412882      -27.8446677096  TIP3      16406           0.0000000000
    100733     17766  TIP3      H2              9.5268364295      -26.2431114437      -26.7083221617  TIP3      16406           0.0000000000
    100734     17767  TIP3      OH2            15.2154566515      -34.3454923791      -39.2214341190  TIP3      16407           0.0000000000
    100735     17767  TIP3      H1             14.6524027140      -34.6488853376      -39.9628215782  TIP3      16407           0.0000000000
    100736     17767  TIP3      H2             15.2916776485      -33.4087504982      -39.5045222759  TIP3      16407           0.0000000000
    100737     17768  TIP3      OH2            15.2048525956      -28.4924017392      -26.4220131455  TIP3      16408           0.0000000000
    100738     17768  TIP3      H1             14.3131852432      -28.2844408017      -26.7853491975  TIP3      16408           0.0000000000
    100739     17768  TIP3      H2             15.7448786519      -28.5452117488      -27.2385458811  TIP3      16408           0.0000000000
    100740     17769  TIP3      OH2            13.5167248087      -25.5240074337      -38.8265641680  TIP3      16409           0.0000000000
    100741     17769  TIP3      H1             13.1461219713      -26.3542062623      -38.5044232006  TIP3      16409           0.0000000000
    100742     17769  TIP3      H2             13.8153387398      -25.7124209298      -39.7413532455  TIP3      16409           0.0000000000
    100743     17770  TIP3      OH2            10.7223297081      -30.7111209311      -31.7316135454  TIP3      16410           0.0000000000
    100744     17770  TIP3      H1              9.7793418437      -30.9217624367      -31.8452695957  TIP3      16410           0.0000000000
    100745     17770  TIP3      H2             11.1502752825      -31.4721663305      -32.1639278112  TIP3      16410           0.0000000000
    100746     17771  TIP3      OH2             3.2374844846      -26.3796321869      -35.6335297064  TIP3      16411           0.0000000000
    100747     17771  TIP3      H1              3.7326475222      -25.5727645385      -35.8418603841  TIP3      16411           0.0000000000
    100748     17771  TIP3      H2              2.3579581077      -26.1471780220      -35.9613013661  TIP3      16411           0.0000000000
    100749     17772  TIP3      OH2            -1.0285770362      -31.5283292913      -41.1216172534  TIP3      16412           0.0000000000
    100750     17772  TIP3      H1             -0.4091688938      -30.9054831432      -40.7015387224  TIP3      16412           0.0000000000
    100751     17772  TIP3      H2             -1.8834988091      -31.2352775273      -40.7578585170  TIP3      16412           0.0000000000
    100752     17773  TIP3      OH2             4.6546686605      -28.7126636322      -36.1203032027  TIP3      16413           0.0000000000
    100753     17773  TIP3      H1              4.3447820295      -27.7911635875      -36.0213590395  TIP3      16413           0.0000000000
    100754     17773  TIP3      H2              3.9351363429      -29.2018701112      -35.6725291700  TIP3      16413           0.0000000000
    100755     17774  TIP3      OH2             5.1038214276      -24.5352818123      -29.7088017595  TIP3      16414           0.0000000000
    100756     17774  TIP3      H1              5.5426249304      -23.7143210905      -29.9774730007  TIP3      16414           0.0000000000
    100757     17774  TIP3      H2              5.7017768236      -24.8686837869      -29.0160681818  TIP3      16414           0.0000000000
    100758     17775  TIP3      OH2             3.3446234530      -23.7247701937      -36.5556649549  TIP3      16415           0.0000000000
    100759     17775  TIP3      H1              2.3764974528      -23.5823645596      -36.4540386595  TIP3      16415           0.0000000000
    100760     17775  TIP3      H2              3.6915837714      -22.8724191695      -36.2375492018  TIP3      16415           0.0000000000
    100761     17776  TIP3      OH2             8.6669750222      -28.4891577623      -30.0891137266  TIP3      16416           0.0000000000
    100762     17776  TIP3      H1              8.2977459017      -28.7145805775      -29.2022535541  TIP3      16416           0.0000000000
    100763     17776  TIP3      H2              9.2585639785      -29.2446580095      -30.2540014061  TIP3      16416           0.0000000000
    100764     17777  TIP3      OH2            10.9199749700      -27.4833489051      -40.9805612142  TIP3      16417           0.0000000000
    100765     17777  TIP3      H1             11.2537037240      -27.9350379495      -40.1810223273  TIP3      16417           0.0000000000
    100766     17777  TIP3      H2              9.9711608794      -27.6460635891      -40.8918703143  TIP3      16417           0.0000000000
    100767     17778  TIP3      OH2            11.4467911766      -23.9479999868      -27.5920710796  TIP3      16418           0.0000000000
    100768     17778  TIP3      H1             10.7482545305      -24.4468232533      -28.0502945484  TIP3      16418           0.0000000000
    100769     17778  TIP3      H2             11.6308634076      -23.2381301375      -28.2406400279  TIP3      16418           0.0000000000
    100770     17779  TIP3      OH2            15.4188758253      -23.0679156282      -40.7694693642  TIP3      16419           0.0000000000
    100771     17779  TIP3      H1             16.1430604256      -22.4457938820      -40.9515208773  TIP3      16419           0.0000000000
    100772     17779  TIP3      H2             14.7094768125      -22.4693431570      -40.4524537428  TIP3      16419           0.0000000000
    100773     17780  TIP3      OH2            -0.4961933194      -36.7408024616      -28.2073964003  TIP3      16420           0.0000000000
    100774     17780  TIP3      H1             -1.3950068591      -36.3667433152      -28.2218049222  TIP3      16420           0.0000000000
    100775     17780  TIP3      H2             -0.6277452628      -37.5845234547      -27.7439499041  TIP3      16420           0.0000000000
    100776     17781  TIP3      OH2            11.7438796432      -28.8308092218      -38.7456288282  TIP3      16421           0.0000000000
    100777     17781  TIP3      H1             11.5011459282      -29.6190827142      -38.2147304234  TIP3      16421           0.0000000000
    100778     17781  TIP3      H2             12.6986544831      -28.7816343762      -38.5624472116  TIP3      16421           0.0000000000
    100779     17782  TIP3      OH2            -0.8819299813      -24.9078263915      -29.7776038926  TIP3      16422           0.0000000000
    100780     17782  TIP3      H1             -0.5835653187      -25.8313869356      -29.7721149999  TIP3      16422           0.0000000000
    100781     17782  TIP3      H2             -0.6178994248      -24.6192112263      -28.8949926700  TIP3      16422           0.0000000000
    100782     17783  TIP3      OH2             5.0917153634      -26.4188365984      -42.5311569762  TIP3      16423           0.0000000000
    100783     17783  TIP3      H1              5.2337909720      -27.1833433606      -43.0877246199  TIP3      16423           0.0000000000
    100784     17783  TIP3      H2              4.6548448553      -26.7863103428      -41.7327809562  TIP3      16423           0.0000000000
    100785     17784  TIP3      OH2             3.8784125234      -26.8541857854      -40.0619721026  TIP3      16424           0.0000000000
    100786     17784  TIP3      H1              4.1221549150      -27.3719038381      -39.2860811741  TIP3      16424           0.0000000000
    100787     17784  TIP3      H2              3.9455304127      -25.9227746443      -39.7485624121  TIP3      16424           0.0000000000
    100788     17785  TIP3      OH2             0.3820147616      -29.6012789507      -39.5951594469  TIP3      16425           0.0000000000
    100789     17785  TIP3      H1             -0.2981129720      -29.1974184178      -39.0136558053  TIP3      16425           0.0000000000
    100790     17785  TIP3      H2              0.9161346647      -28.8279521581      -39.8468040600  TIP3      16425           0.0000000000
    100791     17786  TIP3      OH2             8.2848402505      -36.8233817637      -29.2802155561  TIP3      16426           0.0000000000
    100792     17786  TIP3      H1              8.9639035865      -36.8390357654      -28.5981077469  TIP3      16426           0.0000000000
    100793     17786  TIP3      H2              7.8744622081      -37.7080558202      -29.1230447504  TIP3      16426           0.0000000000
    100794     17787  TIP3      OH2             9.0084402762      -37.3669664165      -38.1421655989  TIP3      16427           0.0000000000
    100795     17787  TIP3      H1              9.2126404160      -36.8687806255      -38.9633342096  TIP3      16427           0.0000000000
    100796     17787  TIP3      H2              9.5635109524      -36.9109933177      -37.4955185984  TIP3      16427           0.0000000000
    100797     17788  TIP3      OH2             6.6727203568      -25.1903749895      -39.3698692869  TIP3      16428           0.0000000000
    100798     17788  TIP3      H1              5.8536605037      -24.6677127582      -39.2683765305  TIP3      16428           0.0000000000
    100799     17788  TIP3      H2              7.1926940187      -24.6515875374      -39.9816566386  TIP3      16428           0.0000000000
    100800     17789  TIP3      OH2             6.2107009153      -35.6149477275      -37.3337574946  TIP3      16429           0.0000000000
    100801     17789  TIP3      H1              6.9942574393      -35.0295386096      -37.3063758312  TIP3      16429           0.0000000000
    100802     17789  TIP3      H2              5.9538161905      -35.7119622570      -36.3981458644  TIP3      16429           0.0000000000
    100803     17790  TIP3      OH2             6.7521732169      -34.6052092443      -28.1661892498  TIP3      16430           0.0000000000
    100804     17790  TIP3      H1              6.8394899881      -34.0348872672      -27.3734434833  TIP3      16430           0.0000000000
    100805     17790  TIP3      H2              7.4109007300      -35.3049568147      -28.0463161702  TIP3      16430           0.0000000000
    100806     17791  TIP3      OH2             7.0933650068      -38.5479145902      -36.4188177728  TIP3      16431           0.0000000000
    100807     17791  TIP3      H1              6.7436554106      -37.8818297111      -35.8042400722  TIP3      16431           0.0000000000
    100808     17791  TIP3      H2              7.7483608811      -37.9944345082      -36.9004511826  TIP3      16431           0.0000000000
    100809     17792  TIP3      OH2             4.0457275352      -24.1547057265      -39.3035409706  TIP3      16432           0.0000000000
    100810     17792  TIP3      H1              4.1924393807      -23.3361531286      -39.8310782809  TIP3      16432           0.0000000000
    100811     17792  TIP3      H2              3.7926182818      -23.7945716779      -38.4308089769  TIP3      16432           0.0000000000
    100812     17793  TIP3      OH2             2.6994787076      -37.4372378432      -39.7316974342  TIP3      16433           0.0000000000
    100813     17793  TIP3      H1              2.6619431759      -36.5289609573      -39.3844179811  TIP3      16433           0.0000000000
    100814     17793  TIP3      H2              3.6146024540      -37.6678995391      -39.4727406259  TIP3      16433           0.0000000000
    100815     17794  TIP3      OH2            12.9293640225      -36.7184143110      -27.3059964524  TIP3      16434           0.0000000000
    100816     17794  TIP3      H1             12.0106932858      -36.3837234968      -27.4379618983  TIP3      16434           0.0000000000
    100817     17794  TIP3      H2             13.2401095362      -36.7288676598      -28.2277175226  TIP3      16434           0.0000000000
    100818     17795  TIP3      OH2            11.5592453887      -32.9176284772      -33.2932363569  TIP3      16435           0.0000000000
    100819     17795  TIP3      H1             10.7337696546      -33.3597532130      -33.5704092027  TIP3      16435           0.0000000000
    100820     17795  TIP3      H2             12.0339187867      -33.6063734756      -32.7756877799  TIP3      16435           0.0000000000
    100821     17796  TIP3      OH2             0.9775723144      -27.0117757012      -40.6795477102  TIP3      16436           0.0000000000
    100822     17796  TIP3      H1              1.6164106524      -26.3517133143      -40.3918406242  TIP3      16436           0.0000000000
    100823     17796  TIP3      H2              1.4731444930      -27.4558876120      -41.3953442918  TIP3      16436           0.0000000000
    100824     17797  TIP3      OH2            -0.6701478632      -34.3300693068      -41.5119840422  TIP3      16437           0.0000000000
    100825     17797  TIP3      H1             -0.6840759979      -33.3613157602      -41.3895366393  TIP3      16437           0.0000000000
    100826     17797  TIP3      H2             -1.5385947879      -34.5179600555      -41.8784166399  TIP3      16437           0.0000000000
    100827     17798  TIP3      OH2            12.5750849776      -23.6770919698      -31.6976080458  TIP3      16438           0.0000000000
    100828     17798  TIP3      H1             12.5837040971      -22.9143053309      -32.3127837259  TIP3      16438           0.0000000000
    100829     17798  TIP3      H2             13.5367240450      -23.6232280569      -31.4335753798  TIP3      16438           0.0000000000
    100830     17799  TIP3      OH2             0.0831021083      -39.4012250130      -32.8390169137  TIP3      16439           0.0000000000
    100831     17799  TIP3      H1             -0.1337411756      -39.4155095111      -33.7971557987  TIP3      16439           0.0000000000
    100832     17799  TIP3      H2             -0.2439432073      -40.2850021861      -32.5697896559  TIP3      16439           0.0000000000
    100833     17800  TIP3      OH2            -0.9257619411      -25.6158770210      -36.6794719944  TIP3      16440           0.0000000000
    100834     17800  TIP3      H1             -1.7832763087      -25.1690498529      -36.7142838111  TIP3      16440           0.0000000000
    100835     17800  TIP3      H2             -0.4521878719      -25.1453668106      -37.3760438331  TIP3      16440           0.0000000000
    100836     17801  TIP3      OH2            -1.7141559646      -22.9662189072      -25.3767292955  TIP3      16441           0.0000000000
    100837     17801  TIP3      H1             -1.0973460605      -23.1826901353      -24.6528084591  TIP3      16441           0.0000000000
    100838     17801  TIP3      H2             -2.1305138762      -23.8232073979      -25.5735866418  TIP3      16441           0.0000000000
    100839     17802  TIP3      OH2             2.9232509757      -24.0431979683      -23.8015243647  TIP3      16442           0.0000000000
    100840     17802  TIP3      H1              3.6789035528      -24.5341273351      -23.4404310975  TIP3      16442           0.0000000000
    100841     17802  TIP3      H2              2.9115129550      -24.3329171906      -24.7313273566  TIP3      16442           0.0000000000
    100842     17803  TIP3      OH2             7.0761625480      -24.5370262852      -42.3680367296  TIP3      16443           0.0000000000
    100843     17803  TIP3      H1              6.3617587046      -25.1820160720      -42.1738613024  TIP3      16443           0.0000000000
    100844     17803  TIP3      H2              7.8028497414      -25.1201927703      -42.6107816162  TIP3      16443           0.0000000000
    100845     17804  TIP3      OH2             9.4776700104      -25.6729641284      -25.0453235916  TIP3      16444           0.0000000000
    100846     17804  TIP3      H1              9.1525639166      -26.5508164516      -24.7552472063  TIP3      16444           0.0000000000
    100847     17804  TIP3      H2             10.2382292889      -25.5450191178      -24.4441371823  TIP3      16444           0.0000000000
    100848     17805  TIP3      OH2            11.6513154044      -24.7558472986      -42.1682149141  TIP3      16445           0.0000000000
    100849     17805  TIP3      H1             11.9117185734      -25.5764550512      -41.7110547825  TIP3      16445           0.0000000000
    100850     17805  TIP3      H2             12.4184975154      -24.5624989302      -42.7104227085  TIP3      16445           0.0000000000
    100851     17806  TIP3      OH2            -1.8199003576      -29.2042709652      -24.4173945563  TIP3      16446           0.0000000000
    100852     17806  TIP3      H1             -1.6438462112      -30.1047822229      -24.7276152288  TIP3      16446           0.0000000000
    100853     17806  TIP3      H2             -2.5516106461      -28.9155174435      -24.9781634247  TIP3      16446           0.0000000000
    100854     17807  TIP3      OH2             2.5582527632      -28.8519431896      -42.3447756462  TIP3      16447           0.0000000000
    100855     17807  TIP3      H1              2.6712684729      -29.6220871492      -41.7653811548  TIP3      16447           0.0000000000
    100856     17807  TIP3      H2              3.2217111991      -28.9935374934      -43.0225870706  TIP3      16447           0.0000000000
    100857     17808  TIP3      OH2             4.9288826613      -29.2057511656      -25.0056287195  TIP3      16448           0.0000000000
    100858     17808  TIP3      H1              4.5699089012      -28.8905580265      -25.8553114601  TIP3      16448           0.0000000000
    100859     17808  TIP3      H2              4.9681315577      -30.1826758424      -25.1062882122  TIP3      16448           0.0000000000
    100860     17809  TIP3      OH2             7.8985483116      -27.7665069052      -42.5803796413  TIP3      16449           0.0000000000
    100861     17809  TIP3      H1              7.6842409778      -27.6284878539      -41.6399713047  TIP3      16449           0.0000000000
    100862     17809  TIP3      H2              7.7427497297      -28.7122292478      -42.6969983806  TIP3      16449           0.0000000000
    100863     17810  TIP3      OH2            10.6006533492      -29.3385375595      -27.6153001254  TIP3      16450           0.0000000000
    100864     17810  TIP3      H1             11.3856986762      -28.7538196782      -27.6846508108  TIP3      16450           0.0000000000
    100865     17810  TIP3      H2              9.8951619970      -28.6789502907      -27.5788642574  TIP3      16450           0.0000000000
    100866     17811  TIP3      OH2            -0.8967854059      -31.9747201619      -25.0052552044  TIP3      16451           0.0000000000
    100867     17811  TIP3      H1             -0.4816608065      -32.8372318851      -25.1096643628  TIP3      16451           0.0000000000
    100868     17811  TIP3      H2             -1.1683586771      -31.9848929421      -24.0854663203  TIP3      16451           0.0000000000
    100869     17812  TIP3      OH2             3.7504452330      -30.8271304702      -39.9444509370  TIP3      16452           0.0000000000
    100870     17812  TIP3      H1              3.2366947602      -31.3639616014      -39.3206443869  TIP3      16452           0.0000000000
    100871     17812  TIP3      H2              4.0414287930      -31.5103269961      -40.6015274585  TIP3      16452           0.0000000000
    100872     17813  TIP3      OH2             3.0050680310      -33.0184216583      -27.6557691946  TIP3      16453           0.0000000000
    100873     17813  TIP3      H1              2.4061023556      -32.2998849221      -27.3951707747  TIP3      16453           0.0000000000
    100874     17813  TIP3      H2              3.3976808815      -32.6523121027      -28.4663620794  TIP3      16453           0.0000000000
    100875     17814  TIP3      OH2             4.8221682992      -32.5349431510      -41.7458265079  TIP3      16454           0.0000000000
    100876     17814  TIP3      H1              4.6818709289      -32.7842136089      -42.6723984533  TIP3      16454           0.0000000000
    100877     17814  TIP3      H2              5.7978210684      -32.5518295297      -41.6462058739  TIP3      16454           0.0000000000
    100878     17815  TIP3      OH2             8.0708158556      -30.4459243010      -24.3382720130  TIP3      16455           0.0000000000
    100879     17815  TIP3      H1              9.0338749683      -30.4811285775      -24.4206451882  TIP3      16455           0.0000000000
    100880     17815  TIP3      H2              7.9102380385      -31.1955094126      -23.7513458594  TIP3      16455           0.0000000000
    100881     17816  TIP3      OH2            14.2252605855      -30.2753028709      -42.3458416640  TIP3      16456           0.0000000000
    100882     17816  TIP3      H1             13.8432112048      -30.6447139615      -43.1334430278  TIP3      16456           0.0000000000
    100883     17816  TIP3      H2             14.2300829511      -29.3152560852      -42.5089420512  TIP3      16456           0.0000000000
    100884     17817  TIP3      OH2             3.4230629487      -35.6466161961      -26.5983486447  TIP3      16457           0.0000000000
    100885     17817  TIP3      H1              3.5373680273      -36.3535370042      -27.2461230978  TIP3      16457           0.0000000000
    100886     17817  TIP3      H2              3.3705671262      -34.8399791052      -27.1474676041  TIP3      16457           0.0000000000
    100887     17818  TIP3      OH2             3.8169791413      -37.2722648025      -29.0541013852  TIP3      16458           0.0000000000
    100888     17818  TIP3      H1              4.3318809040      -36.7867928461      -29.7502236006  TIP3      16458           0.0000000000
    100889     17818  TIP3      H2              2.9225955752      -37.3565581363      -29.4595241509  TIP3      16458           0.0000000000
    100890     17819  TIP3      OH2             5.3537424676      -31.7758875925      -28.8024940447  TIP3      16459           0.0000000000
    100891     17819  TIP3      H1              6.1064497297      -31.9399528594      -29.3759993142  TIP3      16459           0.0000000000
    100892     17819  TIP3      H2              4.9911830754      -30.9404686961      -29.1351793396  TIP3      16459           0.0000000000
    100893     17820  TIP3      OH2             9.7258421504      -34.0347180787      -23.9013183435  TIP3      16460           0.0000000000
    100894     17820  TIP3      H1              9.9761662812      -34.9632964926      -23.9069268421  TIP3      16460           0.0000000000
    100895     17820  TIP3      H2             10.5721112845      -33.5769696001      -23.7912053272  TIP3      16460           0.0000000000
    100896     17821  TIP3      OH2            11.0734941450      -31.2372713684      -25.7230245611  TIP3      16461           0.0000000000
    100897     17821  TIP3      H1             10.8428610278      -30.4836769372      -26.2984384592  TIP3      16461           0.0000000000
    100898     17821  TIP3      H2             12.0395586468      -31.2477751367      -25.8664386798  TIP3      16461           0.0000000000
    100899     17822  TIP3      OH2             1.8678609978      -34.4017373530      -24.6846100718  TIP3      16462           0.0000000000
    100900     17822  TIP3      H1              1.0937541636      -34.9885102973      -24.8204046102  TIP3      16462           0.0000000000
    100901     17822  TIP3      H2              2.5188385937      -34.7855631002      -25.3045145798  TIP3      16462           0.0000000000
    100902     17823  TIP3      OH2             4.5103473036      -39.7897000925      -28.6682403461  TIP3      16463           0.0000000000
    100903     17823  TIP3      H1              4.4190959786      -38.8110997724      -28.7690477418  TIP3      16463           0.0000000000
    100904     17823  TIP3      H2              3.7551803389      -40.1145319726      -29.1527716209  TIP3      16463           0.0000000000
    100905     17824  TIP3      OH2             5.8788487272      -35.5092076582      -25.0687074755  TIP3      16464           0.0000000000
    100906     17824  TIP3      H1              5.5942173694      -35.7251504297      -24.1575818917  TIP3      16464           0.0000000000
    100907     17824  TIP3      H2              5.0634645605      -35.6924540452      -25.5684257364  TIP3      16464           0.0000000000
    100908     17825  TIP3      OH2             8.5834267750      -36.3424543208      -25.9441065586  TIP3      16465           0.0000000000
    100909     17825  TIP3      H1              7.6154540274      -36.3098250519      -25.8261506949  TIP3      16465           0.0000000000
    100910     17825  TIP3      H2              8.8580102753      -36.9804623036      -25.2655711784  TIP3      16465           0.0000000000
    100911     17826  TIP3      OH2            10.1297146581      -37.7239813622      -24.0550228915  TIP3      16466           0.0000000000
    100912     17826  TIP3      H1             10.1261785501      -38.6781833652      -24.0325298425  TIP3      16466           0.0000000000
    100913     17826  TIP3      H2              9.8844718620      -37.3829235476      -23.1519959970  TIP3      16466           0.0000000000
    100914     17827  TIP3      OH2            -0.0328765686      -36.4656927245      -24.9472595259  TIP3      16467           0.0000000000
    100915     17827  TIP3      H1              0.2105272804      -37.2167158432      -25.5180800224  TIP3      16467           0.0000000000
    100916     17827  TIP3      H2             -0.1089243437      -36.9211148892      -24.0761467971  TIP3      16467           0.0000000000
    100917     17828  TIP3      OH2             4.8929990398      -40.0300549457      -26.1030024509  TIP3      16468           0.0000000000
    100918     17828  TIP3      H1              5.5230140000      -40.7851290954      -26.0623729169  TIP3      16468           0.0000000000
    100919     17828  TIP3      H2              4.6692963663      -40.1272777997      -27.0493555394  TIP3      16468           0.0000000000
    100920     17829  TIP3      OH2             5.1843056280      -38.8252168367      -23.8017133460  TIP3      16469           0.0000000000
    100921     17829  TIP3      H1              5.0224998677      -39.2810268888      -24.6633501613  TIP3      16469           0.0000000000
    100922     17829  TIP3      H2              4.6126751729      -38.0409748773      -23.9056004563  TIP3      16469           0.0000000000
    100923     17830  TIP3      OH2             4.6586896836      -21.8660103543      -40.6630335929  TIP3      16470           0.0000000000
    100924     17830  TIP3      H1              5.6328154413      -21.8245985781      -40.6198079736  TIP3      16470           0.0000000000
    100925     17830  TIP3      H2              4.4746960840      -21.2818614275      -41.3965989042  TIP3      16470           0.0000000000
    100926     17831  TIP3      OH2            -1.7564419576      -27.3121397075      -41.1852687429  TIP3      16471           0.0000000000
    100927     17831  TIP3      H1             -0.8009227067      -27.2250403867      -40.9675226027  TIP3      16471           0.0000000000
    100928     17831  TIP3      H2             -1.7075170633      -27.9220474341      -41.9311176823  TIP3      16471           0.0000000000
    100929     17832  TIP3      OH2            -3.0258100198      -21.9413453237      -36.2276192419  TIP3      16472           0.0000000000
    100930     17832  TIP3      H1             -3.7353978336      -22.4311370993      -36.7004488899  TIP3      16472           0.0000000000
    100931     17832  TIP3      H2             -2.7387822033      -22.5994590933      -35.5691415519  TIP3      16472           0.0000000000
    100932     17833  TIP3      OH2            -2.1974989069      -23.8116846006      -34.3598574802  TIP3      16473           0.0000000000
    100933     17833  TIP3      H1             -2.5486938182      -24.6906634416      -34.1597081875  TIP3      16473           0.0000000000
    100934     17833  TIP3      H2             -1.9733031390      -23.4815968989      -33.4734666148  TIP3      16473           0.0000000000
    100935     17834  TIP3      OH2            15.3098186052      -23.0019852810      -31.4237954996  TIP3      16474           0.0000000000
    100936     17834  TIP3      H1             15.3822261389      -22.8506000368      -30.4641714290  TIP3      16474           0.0000000000
    100937     17834  TIP3      H2             16.0420393118      -22.4472254877      -31.7294791974  TIP3      16474           0.0000000000
    100938     17835  TIP3      OH2            14.9247993829      -23.4190214175      -28.4729752748  TIP3      16475           0.0000000000
    100939     17835  TIP3      H1             14.4558777548      -24.1923983856      -28.8485626696  TIP3      16475           0.0000000000
    100940     17835  TIP3      H2             15.4195773545      -23.8636542028      -27.7706167104  TIP3      16475           0.0000000000
    100941     17836  TIP3      OH2            13.3707506583      -27.7148092253      -23.7900396467  TIP3      16476           0.0000000000
    100942     17836  TIP3      H1             12.4643789333      -27.7637323096      -23.4185890372  TIP3      16476           0.0000000000
    100943     17836  TIP3      H2             13.6909531326      -26.8937757493      -23.3970997010  TIP3      16476           0.0000000000
    100944     17837  TIP3      OH2            14.6762961614      -29.3777817824      -38.3828550489  TIP3      16477           0.0000000000
    100945     17837  TIP3      H1             15.5371978328      -28.9738951404      -38.1895582224  TIP3      16477           0.0000000000
    100946     17837  TIP3      H2             14.6612164928      -30.0917745407      -37.7086160177  TIP3      16477           0.0000000000
    100947     17838  TIP3      OH2            15.0370815700      -31.2933912919      -36.4918534228  TIP3      16478           0.0000000000
    100948     17838  TIP3      H1             14.2868509441      -31.8027502585      -36.1094219514  TIP3      16478           0.0000000000
    100949     17838  TIP3      H2             15.6330747530      -31.1600682230      -35.7273472251  TIP3      16478           0.0000000000
    100950     17839  TIP3      OH2            14.7945472923      -28.5964316207      -31.5055880986  TIP3      16479           0.0000000000
    100951     17839  TIP3      H1             15.6067129044      -28.9781178907      -31.8871154529  TIP3      16479           0.0000000000
    100952     17839  TIP3      H2             14.9595272905      -27.6467907004      -31.6755934647  TIP3      16479           0.0000000000
    100953     17840  TIP3      OH2            13.3397199616      -25.6688604411      -29.2559836005  TIP3      16480           0.0000000000
    100954     17840  TIP3      H1             12.6676336050      -25.3617953831      -28.6233070738  TIP3      16480           0.0000000000
    100955     17840  TIP3      H2             12.8030291768      -26.1225204283      -29.9249997841  TIP3      16480           0.0000000000
    100956     17841  TIP3      OH2            15.3498745860      -31.4506304276      -40.1433592723  TIP3      16481           0.0000000000
    100957     17841  TIP3      H1             14.7544872422      -31.0909154775      -40.8312868837  TIP3      16481           0.0000000000
    100958     17841  TIP3      H2             15.2483644896      -30.7680999484      -39.4506858765  TIP3      16481           0.0000000000
    100959     17842  TIP3      OH2            13.6950395010      -34.2531314686      -41.5445810000  TIP3      16482           0.0000000000
    100960     17842  TIP3      H1             13.7564763955      -33.5939300073      -42.2350507875  TIP3      16482           0.0000000000
    100961     17842  TIP3      H2             13.5095179541      -35.0757036276      -42.0470263239  TIP3      16482           0.0000000000
    100962     17843  TIP3      OH2            12.8553259361      -32.8180786339      -35.9244987391  TIP3      16483           0.0000000000
    100963     17843  TIP3      H1             12.7077607274      -33.7742500911      -35.9614166079  TIP3      16483           0.0000000000
    100964     17843  TIP3      H2             12.5199096199      -32.5978667367      -35.0358146374  TIP3      16483           0.0000000000
    100965     17844  TIP3      OH2            -2.1397169417      -30.7327693683      -31.8650137054  TIP3      16484           0.0000000000
    100966     17844  TIP3      H1             -1.9584298974      -30.8153445020      -32.8270438495  TIP3      16484           0.0000000000
    100967     17844  TIP3      H2             -1.2472069913      -30.9073756947      -31.5091268437  TIP3      16484           0.0000000000
    100968     17845  TIP3      OH2            13.7019221132      -30.8552774000      -26.2677569345  TIP3      16485           0.0000000000
    100969     17845  TIP3      H1             14.3170699878      -31.6047250326      -26.1123216391  TIP3      16485           0.0000000000
    100970     17845  TIP3      H2             14.3002252975      -30.0824670150      -26.2417891709  TIP3      16485           0.0000000000
    100971     17846  TIP3      OH2            15.2148911802      -32.9650384423      -25.5921578378  TIP3      16486           0.0000000000
    100972     17846  TIP3      H1             14.3344070660      -33.3705346340      -25.7445296424  TIP3      16486           0.0000000000
    100973     17846  TIP3      H2             15.7871368396      -33.7448243673      -25.6713076194  TIP3      16486           0.0000000000
    100974     17847  TIP3      OH2            12.9069885433      -36.7317382830      -42.3934083545  TIP3      16487           0.0000000000
    100975     17847  TIP3      H1             13.5424455120      -37.2066557581      -41.8198887384  TIP3      16487           0.0000000000
    100976     17847  TIP3      H2             12.0798596798      -37.2209188757      -42.2829596279  TIP3      16487           0.0000000000
    100977     17848  TIP3      OH2            12.5194627411      -35.2431362410      -37.4496623964  TIP3      16488           0.0000000000
    100978     17848  TIP3      H1             12.8212732598      -36.1710972802      -37.3369131810  TIP3      16488           0.0000000000
    100979     17848  TIP3      H2             13.3056632531      -34.8393742300      -37.8438317614  TIP3      16488           0.0000000000
    100980     17849  TIP3      OH2            13.1698819264      -34.7036100534      -32.0249258745  TIP3      16489           0.0000000000
    100981     17849  TIP3      H1             14.1221745954      -34.4499845642      -32.0368613698  TIP3      16489           0.0000000000
    100982     17849  TIP3      H2             12.9688543319      -34.5477857380      -31.0860470051  TIP3      16489           0.0000000000
    100983     17850  TIP3      OH2            13.2191967409      -33.9555909333      -29.2537108187  TIP3      16490           0.0000000000
    100984     17850  TIP3      H1             12.3438138447      -33.6755832437      -28.9122006118  TIP3      16490           0.0000000000
    100985     17850  TIP3      H2             13.6592883332      -33.0959020174      -29.4629684631  TIP3      16490           0.0000000000
    100986     17851  TIP3      OH2            -2.5086665444      -35.4215870755      -25.6970135634  TIP3      16491           0.0000000000
    100987     17851  TIP3      H1             -1.5795465781      -35.6781794843      -25.5162902658  TIP3      16491           0.0000000000
    100988     17851  TIP3      H2             -2.9770385778      -36.2448712324      -25.4318922237  TIP3      16491           0.0000000000
    100989     17852  TIP3      OH2            15.5820281987      -39.8980680862      -23.8088460303  TIP3      16492           0.0000000000
    100990     17852  TIP3      H1             15.7885949186      -40.5622686913      -24.5069531159  TIP3      16492           0.0000000000
    100991     17852  TIP3      H2             15.5587242604      -39.1110023450      -24.3886911269  TIP3      16492           0.0000000000
    100992     17853  TIP3      OH2            13.1770242987      -37.9770580739      -37.4223332413  TIP3      16493           0.0000000000
    100993     17853  TIP3      H1             13.3621098638      -38.4075881546      -36.5610841276  TIP3      16493           0.0000000000
    100994     17853  TIP3      H2             12.5523752322      -38.5934568424      -37.8597231495  TIP3      16493           0.0000000000
    100995     17854  TIP3      OH2            -1.3535047467      -37.1455531185      -32.8731859881  TIP3      16494           0.0000000000
    100996     17854  TIP3      H1             -0.8548690337      -37.9492779886      -32.6102133516  TIP3      16494           0.0000000000
    100997     17854  TIP3      H2             -0.7936589752      -36.4551789640      -32.4847029069  TIP3      16494           0.0000000000
    100998     17855  TIP3      OH2            -3.0386801399      -34.1448534891      -31.8223005918  TIP3      16495           0.0000000000
    100999     17855  TIP3      H1             -2.4768388246      -34.3899484560      -32.5852972852  TIP3      16495           0.0000000000
    101000     17855  TIP3      H2             -2.5767525328      -33.3373139714      -31.5538167833  TIP3      16495           0.0000000000
    101001     17856  TIP3      OH2            15.0345952364      -37.8346751306      -25.5549005938  TIP3      16496           0.0000000000
    101002     17856  TIP3      H1             14.0924482675      -37.5751738416      -25.6040945393  TIP3      16496           0.0000000000
    101003     17856  TIP3      H2             15.0673602685      -38.4186035591      -26.3335781462  TIP3      16496           0.0000000000
    101004     17857  TIP3      OH2            15.0293760284      -37.8921480585      -40.8799613058  TIP3      16497           0.0000000000
    101005     17857  TIP3      H1             15.4349952721      -38.6272548460      -41.3617903760  TIP3      16497           0.0000000000
    101006     17857  TIP3      H2             15.7460223655      -37.2413138144      -40.8346466225  TIP3      16497           0.0000000000
    101007     17858  TIP3      OH2            -2.6676317191      -37.9931973108      -37.7995517960  TIP3      16498           0.0000000000
    101008     17858  TIP3      H1             -3.5979880081      -37.7022336937      -37.8676997825  TIP3      16498           0.0000000000
    101009     17858  TIP3      H2             -2.2464585774      -37.3987797250      -38.4544100522  TIP3      16498           0.0000000000
    101010     17859  TIP3      OH2            12.0675188317      -22.9539689212      -35.7798555892  TIP3      16499           0.0000000000
    101011     17859  TIP3      H1             12.7397577002      -23.2299185914      -36.4342599612  TIP3      16499           0.0000000000
    101012     17859  TIP3      H2             12.5970663613      -22.4087271887      -35.1778739989  TIP3      16499           0.0000000000
    101013     17860  TIP3      OH2            -2.7077995884      -39.1855592559      -29.4352476180  TIP3      16500           0.0000000000
    101014     17860  TIP3      H1             -3.3587040658      -39.3912369468      -28.7554765515  TIP3      16500           0.0000000000
    101015     17860  TIP3      H2             -3.1571287082      -38.5485044464      -30.0149966440  TIP3      16500           0.0000000000
    101016     17861  TIP3      OH2            -0.4874050117      -26.0075495250      -25.2741248064  TIP3      16501           0.0000000000
    101017     17861  TIP3      H1             -1.3298873500      -25.8144506746      -25.7147743777  TIP3      16501           0.0000000000
    101018     17861  TIP3      H2             -0.7383835990      -26.1146077134      -24.3493379798  TIP3      16501           0.0000000000
    101019     17862  TIP3      OH2             2.4107860105      -25.0258580368      -29.0163741058  TIP3      16502           0.0000000000
    101020     17862  TIP3      H1              2.0744223937      -24.1603812857      -29.2851776264  TIP3      16502           0.0000000000
    101021     17862  TIP3      H2              3.3373586067      -24.9364570814      -29.3200273651  TIP3      16502           0.0000000000
    101022     17863  TIP3      OH2             6.7423604506      -23.5991576751      -26.1104676502  TIP3      16503           0.0000000000
    101023     17863  TIP3      H1              6.8893412640      -23.9398823833      -25.1901560069  TIP3      16503           0.0000000000
    101024     17863  TIP3      H2              7.6394055219      -23.2978896613      -26.3551760472  TIP3      16503           0.0000000000
    101025     17864  TIP3      OH2             9.0284460539      -22.3205947678      -26.8040710117  TIP3      16504           0.0000000000
    101026     17864  TIP3      H1              9.7511026561      -22.9284215484      -27.0162264707  TIP3      16504           0.0000000000
    101027     17864  TIP3      H2              9.3959276646      -21.9036680818      -25.9950958444  TIP3      16504           0.0000000000
    101028     17865  TIP3      OH2            13.9937248252      -39.6514177703      -27.7013331394  TIP3      16505           0.0000000000
    101029     17865  TIP3      H1             13.1365847433      -39.3789989126      -28.0630108874  TIP3      16505           0.0000000000
    101030     17865  TIP3      H2             14.1698977580      -40.4830499981      -28.1018963290  TIP3      16505           0.0000000000
    101031     17866  TIP3      OH2            -0.1631930408      -21.7731681599      -29.0117707862  TIP3      16506           0.0000000000
    101032     17866  TIP3      H1             -0.8976852264      -21.2896118509      -29.4150348670  TIP3      16506           0.0000000000
    101033     17866  TIP3      H2             -0.4736975013      -21.9750155434      -28.1172855255  TIP3      16506           0.0000000000
    101034     17867  TIP3      OH2             2.3072040227      -22.2092435588      -29.9475000290  TIP3      16507           0.0000000000
    101035     17867  TIP3      H1              1.4153364797      -22.0633672786      -29.5499940204  TIP3      16507           0.0000000000
    101036     17867  TIP3      H2              2.2496363859      -21.6177747687      -30.7204562254  TIP3      16507           0.0000000000
    101037     17868  TIP3      OH2             7.0520959633      -22.2881202501      -30.7987063860  TIP3      16508           0.0000000000
    101038     17868  TIP3      H1              6.5342994353      -21.7383238822      -31.4131509873  TIP3      16508           0.0000000000
    101039     17868  TIP3      H2              7.1364907651      -21.6664722174      -30.0402852554  TIP3      16508           0.0000000000
    101040     17869  TIP3      OH2             9.3446524181      -23.4953710576      -29.8903317460  TIP3      16509           0.0000000000
    101041     17869  TIP3      H1              8.4343718468      -23.1965984947      -30.0736482429  TIP3      16509           0.0000000000
    101042     17869  TIP3      H2              9.7699259024      -22.6233813851      -29.7999062781  TIP3      16509           0.0000000000
    101043     17870  TIP3      OH2            11.8599034144      -21.9204556026      -29.5409809364  TIP3      16510           0.0000000000
    101044     17870  TIP3      H1             11.8307223556      -20.9474008383      -29.7346470619  TIP3      16510           0.0000000000
    101045     17870  TIP3      H2             12.1286918270      -22.2544530045      -30.4067913342  TIP3      16510           0.0000000000
    101046     17871  TIP3      OH2            -0.7092396683      -23.1299067291      -32.0737090151  TIP3      16511           0.0000000000
    101047     17871  TIP3      H1             -0.7835347211      -23.5990255301      -31.2147688395  TIP3      16511           0.0000000000
    101048     17871  TIP3      H2              0.1049696991      -23.5109398283      -32.4661619275  TIP3      16511           0.0000000000
    101049     17872  TIP3      OH2             1.3723851747      -24.4248146994      -33.4217253417  TIP3      16512           0.0000000000
    101050     17872  TIP3      H1              1.2060851554      -25.3590829180      -33.1937327621  TIP3      16512           0.0000000000
    101051     17872  TIP3      H2              2.2277923858      -24.2740183240      -32.9664117060  TIP3      16512           0.0000000000
    101052     17873  TIP3      OH2             3.9797154603      -23.9404455688      -32.5458072099  TIP3      16513           0.0000000000
    101053     17873  TIP3      H1              4.1333669251      -24.8652908551      -32.8106104263  TIP3      16513           0.0000000000
    101054     17873  TIP3      H2              4.0195461785      -24.0004214358      -31.5811760780  TIP3      16513           0.0000000000
    101055     17874  TIP3      OH2             7.4086304837      -38.2612206408      -33.3908384192  TIP3      16514           0.0000000000
    101056     17874  TIP3      H1              6.7744876101      -38.9499906457      -33.1272184332  TIP3      16514           0.0000000000
    101057     17874  TIP3      H2              8.0025637532      -38.7794684565      -33.9518651615  TIP3      16514           0.0000000000
    101058     17875  TIP3      OH2            12.4076242284      -40.2386803357      -33.7696451010  TIP3      16515           0.0000000000
    101059     17875  TIP3      H1             13.1085806632      -39.5791599631      -33.9443281515  TIP3      16515           0.0000000000
    101060     17875  TIP3      H2             11.5854357067      -39.7549597559      -33.6070660602  TIP3      16515           0.0000000000
    101061     17876  TIP3      OH2            14.2982625832      -38.9489142730      -35.0656767653  TIP3      16516           0.0000000000
    101062     17876  TIP3      H1             14.9049668447      -39.5839142232      -35.4716372918  TIP3      16516           0.0000000000
    101063     17876  TIP3      H2             14.7953140632      -38.1051203348      -34.9869170191  TIP3      16516           0.0000000000
    101064     17877  TIP3      OH2            -0.3046355733      -39.2649148630      -35.4618870123  TIP3      16517           0.0000000000
    101065     17877  TIP3      H1             -0.9844163059      -39.6159999813      -36.0355897386  TIP3      16517           0.0000000000
    101066     17877  TIP3      H2              0.2528232763      -40.0645275269      -35.3916098554  TIP3      16517           0.0000000000
    101067     17878  TIP3      OH2            -1.4408919695      -39.7721180564      -39.8697984559  TIP3      16518           0.0000000000
    101068     17878  TIP3      H1             -0.9340061900      -39.1515819173      -40.4168642346  TIP3      16518           0.0000000000
    101069     17878  TIP3      H2             -2.0254853051      -39.2132832240      -39.3310540223  TIP3      16518           0.0000000000
    101070     17879  TIP3      OH2             4.3003813782      -39.7055383961      -35.7695532818  TIP3      16519           0.0000000000
    101071     17879  TIP3      H1              5.2080162678      -39.3711611743      -35.8162079500  TIP3      16519           0.0000000000
    101072     17879  TIP3      H2              4.2737145054      -39.9643717696      -34.8470142263  TIP3      16519           0.0000000000
    101073     17880  TIP3      OH2             9.8391814544      -39.7074510096      -34.1494670630  TIP3      16520           0.0000000000
    101074     17880  TIP3      H1              9.9729890330      -39.6444252476      -35.0990916469  TIP3      16520           0.0000000000
    101075     17880  TIP3      H2              9.6489256505      -40.6565383703      -34.0373831164  TIP3      16520           0.0000000000
    101076     17881  TIP3      OH2            11.1816240571      -39.6167634664      -38.6693015033  TIP3      16521           0.0000000000
    101077     17881  TIP3      H1             10.4209094145      -39.0289357842      -38.6576111144  TIP3      16521           0.0000000000
    101078     17881  TIP3      H2             10.8708805764      -40.4466227163      -38.2698376188  TIP3      16521           0.0000000000
    101079     17882  TIP3      OH2            -1.5105997336      -23.9551489542      -38.8382172853  TIP3      16522           0.0000000000
    101080     17882  TIP3      H1             -2.1889876123      -23.9613510086      -39.5421707482  TIP3      16522           0.0000000000
    101081     17882  TIP3      H2             -1.4910031934      -23.0067003375      -38.6616133221  TIP3      16522           0.0000000000
    101082     17883  TIP3      OH2             0.3841125653      -38.0414097947      -41.3062723219  TIP3      16523           0.0000000000
    101083     17883  TIP3      H1              0.9472095727      -38.5896216347      -41.8572063843  TIP3      16523           0.0000000000
    101084     17883  TIP3      H2              1.0414383237      -37.6293108702      -40.7116794204  TIP3      16523           0.0000000000
    101085     17884  TIP3      OH2             5.3737781051      -37.7239551856      -38.8940209102  TIP3      16524           0.0000000000
    101086     17884  TIP3      H1              5.6979432723      -38.2902649693      -38.1738735640  TIP3      16524           0.0000000000
    101087     17884  TIP3      H2              5.4795288081      -36.8598233445      -38.4416286476  TIP3      16524           0.0000000000
    101088     17885  TIP3      OH2             7.3389840078      -22.6148439652      -40.5105155507  TIP3      16525           0.0000000000
    101089     17885  TIP3      H1              8.2812906547      -22.4374528811      -40.6781769313  TIP3      16525           0.0000000000
    101090     17885  TIP3      H2              7.1499360056      -23.1894012008      -41.2865088186  TIP3      16525           0.0000000000
    101091     17886  TIP3      OH2            14.0629467069      -23.1436260870      -37.7651611129  TIP3      16526           0.0000000000
    101092     17886  TIP3      H1             13.8545104728      -23.9221095685      -38.3381732242  TIP3      16526           0.0000000000
    101093     17886  TIP3      H2             13.9747303308      -22.4091478029      -38.4013795764  TIP3      16526           0.0000000000
    101094     17887  TIP3      OH2            -0.3144605994      -39.1018770652      -26.0840329736  TIP3      16527           0.0000000000
    101095     17887  TIP3      H1             -0.6788746123      -39.9062243565      -25.7004209178  TIP3      16527           0.0000000000
    101096     17887  TIP3      H2              0.6009144113      -39.1575495044      -25.7559968336  TIP3      16527           0.0000000000
    101097     17888  TIP3      OH2             1.7441638251      -39.7620333878      -24.4866434584  TIP3      16528           0.0000000000
    101098     17888  TIP3      H1              2.6126180282      -40.0795974399      -24.7570178959  TIP3      16528           0.0000000000
    101099     17888  TIP3      H2              1.3440317849      -40.5600026124      -24.1246463540  TIP3      16528           0.0000000000
    101100     17889  TIP3      OH2             0.3144019575      -22.9620810932      -41.8695045158  TIP3      16529           0.0000000000
    101101     17889  TIP3      H1              0.0191856049      -22.7074592869      -40.9910183256  TIP3      16529           0.0000000000
    101102     17889  TIP3      H2              1.0514663041      -23.5533615536      -41.6965430089  TIP3      16529           0.0000000000
    101103     17890  TIP3      OH2            13.3157332508      -24.4018173393      -25.6401540687  TIP3      16530           0.0000000000
    101104     17890  TIP3      H1             12.5121797052      -24.5560208223      -26.1917998238  TIP3      16530           0.0000000000
    101105     17890  TIP3      H2             13.1808240786      -23.4474222603      -25.4677515649  TIP3      16530           0.0000000000
    101106     17891  TIP3      OH2            27.7395652103      -30.5292402569      -35.7040781107  TIP3      16531           0.0000000000
    101107     17891  TIP3      H1             27.7359265551      -29.5475059283      -35.7419371564  TIP3      16531           0.0000000000
    101108     17891  TIP3      H2             27.0154404261      -30.7618789111      -36.3060344971  TIP3      16531           0.0000000000
    101109     17892  TIP3      OH2            26.5996886447      -31.2678155752      -32.1956004119  TIP3      16532           0.0000000000
    101110     17892  TIP3      H1             26.5840949600      -31.9202092929      -31.4835878840  TIP3      16532           0.0000000000
    101111     17892  TIP3      H2             26.2497593487      -31.7632886778      -32.9529092311  TIP3      16532           0.0000000000
    101112     17893  TIP3      OH2            18.9547233044      -31.5968952859      -30.6471855720  TIP3      16533           0.0000000000
    101113     17893  TIP3      H1             19.0379332557      -32.2828165634      -29.9520820153  TIP3      16533           0.0000000000
    101114     17893  TIP3      H2             19.7025586136      -31.0235267341      -30.4261804853  TIP3      16533           0.0000000000
    101115     17894  TIP3      OH2            30.2904254269      -28.3215418339      -33.9189817922  TIP3      16534           0.0000000000
    101116     17894  TIP3      H1             29.8701139006      -29.0365584080      -33.4312748048  TIP3      16534           0.0000000000
    101117     17894  TIP3      H2             30.3109442463      -27.6123408531      -33.2497350141  TIP3      16534           0.0000000000
    101118     17895  TIP3      OH2            19.8816973302      -27.1498221898      -32.1389441708  TIP3      16535           0.0000000000
    101119     17895  TIP3      H1             19.5666615048      -28.0145444886      -32.4661994521  TIP3      16535           0.0000000000
    101120     17895  TIP3      H2             20.8369608405      -27.3341449609      -32.0986199307  TIP3      16535           0.0000000000
    101121     17896  TIP3      OH2            16.5213677452      -33.5868851580      -36.6589222521  TIP3      16536           0.0000000000
    101122     17896  TIP3      H1             16.0809875284      -32.7175406883      -36.7226891931  TIP3      16536           0.0000000000
    101123     17896  TIP3      H2             15.9565122411      -34.1304397090      -37.2242123059  TIP3      16536           0.0000000000
    101124     17897  TIP3      OH2            17.2284143539      -31.3613837629      -34.5151299613  TIP3      16537           0.0000000000
    101125     17897  TIP3      H1             17.4983480466      -32.1819084372      -34.0631029502  TIP3      16537           0.0000000000
    101126     17897  TIP3      H2             17.9292206415      -31.2600213865      -35.1769143946  TIP3      16537           0.0000000000
    101127     17898  TIP3      OH2            27.4127783444      -23.1637737159      -33.6784629555  TIP3      16538           0.0000000000
    101128     17898  TIP3      H1             28.0554290291      -23.8582778509      -33.9659960973  TIP3      16538           0.0000000000
    101129     17898  TIP3      H2             27.1953815306      -23.4940550749      -32.8075168914  TIP3      16538           0.0000000000
    101130     17899  TIP3      OH2            24.9714634669      -28.8643265714      -31.7318074283  TIP3      16539           0.0000000000
    101131     17899  TIP3      H1             25.3123937240      -29.4953603764      -32.3878736809  TIP3      16539           0.0000000000
    101132     17899  TIP3      H2             25.7802218805      -28.7119080500      -31.2129566488  TIP3      16539           0.0000000000
    101133     17900  TIP3      OH2            33.5837415951      -37.2587368947      -31.0319905161  TIP3      16540           0.0000000000
    101134     17900  TIP3      H1             33.7186654380      -36.6764035570      -30.2380249542  TIP3      16540           0.0000000000
    101135     17900  TIP3      H2             34.1454196875      -36.7935565890      -31.6567482795  TIP3      16540           0.0000000000
    101136     17901  TIP3      OH2            28.1936529066      -34.4072749861      -31.4449541266  TIP3      16541           0.0000000000
    101137     17901  TIP3      H1             28.3022356673      -35.3724617881      -31.4111668345  TIP3      16541           0.0000000000
    101138     17901  TIP3      H2             28.0256917159      -34.2499781310      -32.3895115716  TIP3      16541           0.0000000000
    101139     17902  TIP3      OH2            21.2678073637      -36.3071479975      -34.2018234080  TIP3      16542           0.0000000000
    101140     17902  TIP3      H1             21.3613889020      -35.4719595277      -34.6974764126  TIP3      16542           0.0000000000
    101141     17902  TIP3      H2             20.8644149139      -36.8961328274      -34.8773513565  TIP3      16542           0.0000000000
    101142     17903  TIP3      OH2            29.0558923606      -36.3681099034      -35.8632106381  TIP3      16543           0.0000000000
    101143     17903  TIP3      H1             29.6485735388      -36.4495860309      -35.0960775859  TIP3      16543           0.0000000000
    101144     17903  TIP3      H2             29.4852475442      -35.6444891892      -36.3720297399  TIP3      16543           0.0000000000
    101145     17904  TIP3      OH2            17.8836473968      -33.8749478557      -33.4602748696  TIP3      16544           0.0000000000
    101146     17904  TIP3      H1             18.5458364625      -34.4416878199      -33.0124365937  TIP3      16544           0.0000000000
    101147     17904  TIP3      H2             17.9798438340      -34.2080627676      -34.3684319825  TIP3      16544           0.0000000000
    101148     17905  TIP3      OH2            23.0411621067      -32.3474490870      -34.1503268741  TIP3      16545           0.0000000000
    101149     17905  TIP3      H1             23.7098457169      -32.9290456121      -33.7504650165  TIP3      16545           0.0000000000
    101150     17905  TIP3      H2             22.5180924149      -33.0061962850      -34.6501009053  TIP3      16545           0.0000000000
    101151     17906  TIP3      OH2            34.0429356341      -35.8023679378      -28.7471550792  TIP3      16546           0.0000000000
    101152     17906  TIP3      H1             33.3814450967      -35.0810928602      -28.8500509299  TIP3      16546           0.0000000000
    101153     17906  TIP3      H2             34.0392597155      -35.9397542862      -27.7828587679  TIP3      16546           0.0000000000
    101154     17907  TIP3      OH2            20.1749861020      -37.3935569699      -30.1511408805  TIP3      16547           0.0000000000
    101155     17907  TIP3      H1             19.8702375725      -36.8452085638      -30.9009032126  TIP3      16547           0.0000000000
    101156     17907  TIP3      H2             19.4747554301      -37.1930444728      -29.4762368594  TIP3      16547           0.0000000000
    101157     17908  TIP3      OH2            27.4555980449      -27.9335171757      -36.6165442766  TIP3      16548           0.0000000000
    101158     17908  TIP3      H1             27.1766644123      -28.2168329972      -37.4985203997  TIP3      16548           0.0000000000
    101159     17908  TIP3      H2             27.1473562781      -26.9985610164      -36.5642911839  TIP3      16548           0.0000000000
    101160     17909  TIP3      OH2            22.6858924039      -29.7626429409      -29.8846297219  TIP3      16549           0.0000000000
    101161     17909  TIP3      H1             21.9679853122      -29.1205165873      -29.7200482667  TIP3      16549           0.0000000000
    101162     17909  TIP3      H2             23.3861477727      -29.1799278869      -30.2163758085  TIP3      16549           0.0000000000
    101163     17910  TIP3      OH2            30.6660402442      -36.8537528562      -33.6554896381  TIP3      16550           0.0000000000
    101164     17910  TIP3      H1             30.4950288535      -37.6503509068      -33.1261392558  TIP3      16550           0.0000000000
    101165     17910  TIP3      H2             31.2959918706      -36.3781967848      -33.0685872551  TIP3      16550           0.0000000000
    101166     17911  TIP3      OH2            19.7187805130      -35.5561952420      -32.1538702917  TIP3      16551           0.0000000000
    101167     17911  TIP3      H1             20.3573358008      -34.8870191587      -31.8248008163  TIP3      16551           0.0000000000
    101168     17911  TIP3      H2             20.2498299794      -35.9839530434      -32.8667318702  TIP3      16551           0.0000000000
    101169     17912  TIP3      OH2            21.1281377561      -27.7554942452      -29.0645726246  TIP3      16552           0.0000000000
    101170     17912  TIP3      H1             21.0708752767      -26.8653108529      -29.4592761258  TIP3      16552           0.0000000000
    101171     17912  TIP3      H2             20.2198344863      -27.8480955579      -28.6855086922  TIP3      16552           0.0000000000
    101172     17913  TIP3      OH2            17.1872079886      -28.1525477405      -38.3086151792  TIP3      16553           0.0000000000
    101173     17913  TIP3      H1             16.9753717514      -27.8304452722      -39.2099662347  TIP3      16553           0.0000000000
    101174     17913  TIP3      H2             17.2734430560      -27.3153764753      -37.8060432928  TIP3      16553           0.0000000000
    101175     17914  TIP3      OH2            30.8186063762      -26.4856226667      -31.5513192131  TIP3      16554           0.0000000000
    101176     17914  TIP3      H1             29.8509502697      -26.3778981364      -31.4263358344  TIP3      16554           0.0000000000
    101177     17914  TIP3      H2             31.0863212329      -25.5674926308      -31.7480248744  TIP3      16554           0.0000000000
    101178     17915  TIP3      OH2            31.1534245273      -38.2229614438      -30.1742742128  TIP3      16555           0.0000000000
    101179     17915  TIP3      H1             30.4327224336      -37.5726653566      -30.2006729311  TIP3      16555           0.0000000000
    101180     17915  TIP3      H2             31.8759939804      -37.7590171733      -30.6275666226  TIP3      16555           0.0000000000
    101181     17916  TIP3      OH2            24.1055894162      -40.0379412333      -32.9121479391  TIP3      16556           0.0000000000
    101182     17916  TIP3      H1             24.0636562014      -40.9901814066      -32.7191282071  TIP3      16556           0.0000000000
    101183     17916  TIP3      H2             23.3211153668      -39.7552960569      -32.4060187207  TIP3      16556           0.0000000000
    101184     17917  TIP3      OH2            29.0766858991      -24.7003310859      -34.9595196343  TIP3      16557           0.0000000000
    101185     17917  TIP3      H1             29.5058686166      -25.4190431393      -35.4675939605  TIP3      16557           0.0000000000
    101186     17917  TIP3      H2             29.5009619037      -23.9093844236      -35.3540562704  TIP3      16557           0.0000000000
    101187     17918  TIP3      OH2            30.2847828291      -26.7733121061      -36.4448054648  TIP3      16558           0.0000000000
    101188     17918  TIP3      H1             29.9989812397      -27.4698640460      -37.0601644299  TIP3      16558           0.0000000000
    101189     17918  TIP3      H2             30.3198447720      -27.2659292958      -35.6045116294  TIP3      16558           0.0000000000
    101190     17919  TIP3      OH2            31.9018306596      -28.1783493236      -27.9548333114  TIP3      16559           0.0000000000
    101191     17919  TIP3      H1             32.0536613373      -28.8293982895      -28.6746928576  TIP3      16559           0.0000000000
    101192     17919  TIP3      H2             32.1057753547      -27.3285841417      -28.3827308760  TIP3      16559           0.0000000000
    101193     17920  TIP3      OH2            26.3987660539      -31.3120403147      -38.1874810767  TIP3      16560           0.0000000000
    101194     17920  TIP3      H1             25.7086701823      -30.7290323651      -38.5430536332  TIP3      16560           0.0000000000
    101195     17920  TIP3      H2             27.1099278638      -31.1994426133      -38.8493297709  TIP3      16560           0.0000000000
    101196     17921  TIP3      OH2            26.4701998231      -32.7430219167      -41.1295017971  TIP3      16561           0.0000000000
    101197     17921  TIP3      H1             27.1892204904      -32.7439066365      -40.4773735669  TIP3      16561           0.0000000000
    101198     17921  TIP3      H2             26.7620317562      -33.4404050065      -41.7251373345  TIP3      16561           0.0000000000
    101199     17922  TIP3      OH2            33.8072723782      -31.8798885070      -29.9242186144  TIP3      16562           0.0000000000
    101200     17922  TIP3      H1             33.1304431181      -31.1674381364      -29.8470804273  TIP3      16562           0.0000000000
    101201     17922  TIP3      H2             34.2592108883      -31.5892391414      -30.7321594721  TIP3      16562           0.0000000000
    101202     17923  TIP3      OH2            29.8438041446      -31.0705857616      -37.2566606814  TIP3      16563           0.0000000000
    101203     17923  TIP3      H1             29.0965209565      -30.8344091988      -36.6575004778  TIP3      16563           0.0000000000
    101204     17923  TIP3      H2             30.3150493460      -31.7451385629      -36.7441868620  TIP3      16563           0.0000000000
    101205     17924  TIP3      OH2            29.7765140640      -32.9130041998      -28.1436006344  TIP3      16564           0.0000000000
    101206     17924  TIP3      H1             29.7771008031      -32.0993649913      -27.6097705565  TIP3      16564           0.0000000000
    101207     17924  TIP3      H2             29.1457690091      -32.6189780851      -28.8336780105  TIP3      16564           0.0000000000
    101208     17925  TIP3      OH2            21.4617845085      -30.4158163290      -35.3482419127  TIP3      16565           0.0000000000
    101209     17925  TIP3      H1             21.1414473808      -30.8092553372      -36.1920411659  TIP3      16565           0.0000000000
    101210     17925  TIP3      H2             22.0736767832      -31.1102690112      -35.0126969074  TIP3      16565           0.0000000000
    101211     17926  TIP3      OH2            22.7811012647      -27.0330656219      -32.6655020510  TIP3      16566           0.0000000000
    101212     17926  TIP3      H1             22.7719461183      -27.5607396093      -33.4733177709  TIP3      16566           0.0000000000
    101213     17926  TIP3      H2             23.5648923196      -27.3902403332      -32.2089192435  TIP3      16566           0.0000000000
    101214     17927  TIP3      OH2            21.7919419251      -31.6704654868      -31.6872214183  TIP3      16567           0.0000000000
    101215     17927  TIP3      H1             22.3447632873      -31.5693194379      -32.4872039501  TIP3      16567           0.0000000000
    101216     17927  TIP3      H2             22.1772927055      -31.0086480592      -31.0739615797  TIP3      16567           0.0000000000
    101217     17928  TIP3      OH2            28.2104055097      -26.1006297396      -30.9648566219  TIP3      16568           0.0000000000
    101218     17928  TIP3      H1             27.9037240397      -25.4599490163      -30.3180007413  TIP3      16568           0.0000000000
    101219     17928  TIP3      H2             27.9428360612      -26.9596017064      -30.5582674459  TIP3      16568           0.0000000000
    101220     17929  TIP3      OH2            22.6157933349      -27.3177532835      -26.8691403000  TIP3      16569           0.0000000000
    101221     17929  TIP3      H1             22.3769385516      -26.4101978060      -26.5987686890  TIP3      16569           0.0000000000
    101222     17929  TIP3      H2             22.0925031209      -27.4346173881      -27.7105843972  TIP3      16569           0.0000000000
    101223     17930  TIP3      OH2            28.7266720748      -31.8923179823      -39.5904105498  TIP3      16570           0.0000000000
    101224     17930  TIP3      H1             29.2805356311      -31.7058388479      -38.7900656467  TIP3      16570           0.0000000000
    101225     17930  TIP3      H2             29.1453650968      -31.3700253917      -40.3061828397  TIP3      16570           0.0000000000
    101226     17931  TIP3      OH2            19.6885193770      -31.0649296260      -27.8185544550  TIP3      16571           0.0000000000
    101227     17931  TIP3      H1             19.7086526443      -30.4078886976      -27.1092900587  TIP3      16571           0.0000000000
    101228     17931  TIP3      H2             18.7506532052      -30.9973907958      -28.0616239134  TIP3      16571           0.0000000000
    101229     17932  TIP3      OH2            26.4368147455      -25.1547623394      -36.1263990702  TIP3      16572           0.0000000000
    101230     17932  TIP3      H1             26.8716196443      -24.8488597249      -35.3225656631  TIP3      16572           0.0000000000
    101231     17932  TIP3      H2             25.8777215806      -24.4060897404      -36.3624326060  TIP3      16572           0.0000000000
    101232     17933  TIP3      OH2            20.9700859160      -25.3500877317      -26.2040972274  TIP3      16573           0.0000000000
    101233     17933  TIP3      H1             20.9444344483      -25.2742437270      -27.1853778666  TIP3      16573           0.0000000000
    101234     17933  TIP3      H2             20.0138520574      -25.2600855513      -26.0169850229  TIP3      16573           0.0000000000
    101235     17934  TIP3      OH2            32.4419197289      -40.1022149436      -39.5642424004  TIP3      16574           0.0000000000
    101236     17934  TIP3      H1             31.4732431617      -40.0280695847      -39.5022564881  TIP3      16574           0.0000000000
    101237     17934  TIP3      H2             32.6661368286      -39.3581923951      -40.1684889160  TIP3      16574           0.0000000000
    101238     17935  TIP3      OH2            20.4203097425      -31.3896582631      -37.7158616662  TIP3      16575           0.0000000000
    101239     17935  TIP3      H1             20.1455478717      -30.6156035145      -38.2533445320  TIP3      16575           0.0000000000
    101240     17935  TIP3      H2             19.7778262992      -32.0593809675      -37.9670940945  TIP3      16575           0.0000000000
    101241     17936  TIP3      OH2            33.5358812170      -25.8000306363      -41.2656898454  TIP3      16576           0.0000000000
    101242     17936  TIP3      H1             33.6787856467      -24.8399929076      -41.2205613617  TIP3      16576           0.0000000000
    101243     17936  TIP3      H2             34.4502103748      -26.0921754502      -41.4347942865  TIP3      16576           0.0000000000
    101244     17937  TIP3      OH2            16.5237041174      -28.9629422501      -28.8492500925  TIP3      16577           0.0000000000
    101245     17937  TIP3      H1             16.0723275652      -29.0504884779      -29.7081478694  TIP3      16577           0.0000000000
    101246     17937  TIP3      H2             16.5962743112      -29.9090426592      -28.6169527259  TIP3      16577           0.0000000000
    101247     17938  TIP3      OH2            16.2890433004      -26.2314189983      -32.0516435883  TIP3      16578           0.0000000000
    101248     17938  TIP3      H1             17.2460155518      -26.3521653249      -32.0888332043  TIP3      16578           0.0000000000
    101249     17938  TIP3      H2             16.2210798629      -25.4157453352      -31.5441312712  TIP3      16578           0.0000000000
    101250     17939  TIP3      OH2            34.5174078190      -25.5258916374      -26.4289266673  TIP3      16579           0.0000000000
    101251     17939  TIP3      H1             34.4053866080      -26.4866133430      -26.3728588813  TIP3      16579           0.0000000000
    101252     17939  TIP3      H2             33.6804546430      -25.2683589793      -25.9721242671  TIP3      16579           0.0000000000
    101253     17940  TIP3      OH2            25.4854963028      -25.9921209322      -27.4858552994  TIP3      16580           0.0000000000
    101254     17940  TIP3      H1             25.5402143787      -25.1377007636      -26.9970485544  TIP3      16580           0.0000000000
    101255     17940  TIP3      H2             24.6114865061      -26.3409316673      -27.2579074876  TIP3      16580           0.0000000000
    101256     17941  TIP3      OH2            25.9077134694      -22.2397884767      -37.7172180289  TIP3      16581           0.0000000000
    101257     17941  TIP3      H1             25.8182513684      -22.3159134673      -38.6801501503  TIP3      16581           0.0000000000
    101258     17941  TIP3      H2             25.9384186330      -21.2812248253      -37.5594690275  TIP3      16581           0.0000000000
    101259     17942  TIP3      OH2            19.5553054322      -23.3672718230      -35.8941515435  TIP3      16582           0.0000000000
    101260     17942  TIP3      H1             19.7031362036      -23.7813484737      -35.0127919054  TIP3      16582           0.0000000000
    101261     17942  TIP3      H2             18.7056905295      -23.7734044406      -36.1293322674  TIP3      16582           0.0000000000
    101262     17943  TIP3      OH2            28.9197824182      -23.0439090680      -40.7521587364  TIP3      16583           0.0000000000
    101263     17943  TIP3      H1             29.4254259159      -23.7806099420      -41.1775827323  TIP3      16583           0.0000000000
    101264     17943  TIP3      H2             29.0135008035      -23.3055622053      -39.8183842765  TIP3      16583           0.0000000000
    101265     17944  TIP3      OH2            28.6584457206      -23.0956542419      -37.9494116031  TIP3      16584           0.0000000000
    101266     17944  TIP3      H1             27.7025194846      -23.0278123431      -37.7611125648  TIP3      16584           0.0000000000
    101267     17944  TIP3      H2             28.9081553500      -23.8415196874      -37.3848126307  TIP3      16584           0.0000000000
    101268     17945  TIP3      OH2            31.6989812394      -34.0703914272      -25.9117037046  TIP3      16585           0.0000000000
    101269     17945  TIP3      H1             31.1940690385      -33.5989564523      -26.5925696312  TIP3      16585           0.0000000000
    101270     17945  TIP3      H2             31.6552147997      -34.9838986483      -26.2231752448  TIP3      16585           0.0000000000
    101271     17946  TIP3      OH2            18.7980774329      -27.6382366042      -27.9045921451  TIP3      16586           0.0000000000
    101272     17946  TIP3      H1             18.9867068019      -28.0469983761      -27.0392710951  TIP3      16586           0.0000000000
    101273     17946  TIP3      H2             17.9354327658      -28.0395612937      -28.1527384061  TIP3      16586           0.0000000000
    101274     17947  TIP3      OH2            21.4819929395      -39.1971210954      -31.9237112686  TIP3      16587           0.0000000000
    101275     17947  TIP3      H1             20.5841965212      -39.2282423067      -32.3187696442  TIP3      16587           0.0000000000
    101276     17947  TIP3      H2             21.3780612242      -38.3577598969      -31.4415904879  TIP3      16587           0.0000000000
    101277     17948  TIP3      OH2            26.1665813607      -39.0118330900      -28.4737582947  TIP3      16588           0.0000000000
    101278     17948  TIP3      H1             26.6445522101      -39.6994477920      -28.0027475038  TIP3      16588           0.0000000000
    101279     17948  TIP3      H2             25.2936864443      -39.4333641469      -28.6126593190  TIP3      16588           0.0000000000
    101280     17949  TIP3      OH2            29.4135088347      -35.6955433985      -27.6959199348  TIP3      16589           0.0000000000
    101281     17949  TIP3      H1             28.8561711055      -35.8712484187      -26.8971880665  TIP3      16589           0.0000000000
    101282     17949  TIP3      H2             29.2309261397      -34.7672884929      -27.9218137709  TIP3      16589           0.0000000000
    101283     17950  TIP3      OH2            30.2019871179      -30.9137008400      -41.8780703391  TIP3      16590           0.0000000000
    101284     17950  TIP3      H1             30.1834925649      -31.0326377866      -42.8419276405  TIP3      16590           0.0000000000
    101285     17950  TIP3      H2             31.0097381247      -30.3939431798      -41.7461217623  TIP3      16590           0.0000000000
    101286     17951  TIP3      OH2            25.7994335738      -36.9838808755      -41.2097260264  TIP3      16591           0.0000000000
    101287     17951  TIP3      H1             25.4261563744      -36.9867893794      -40.3143752788  TIP3      16591           0.0000000000
    101288     17951  TIP3      H2             25.4710422142      -37.8346956726      -41.5116299020  TIP3      16591           0.0000000000
    101289     17952  TIP3      OH2            21.5898310604      -34.2071183524      -30.6943730889  TIP3      16592           0.0000000000
    101290     17952  TIP3      H1             20.8516532277      -34.2196934886      -30.0578510023  TIP3      16592           0.0000000000
    101291     17952  TIP3      H2             21.5401489760      -33.2961758788      -31.0637906792  TIP3      16592           0.0000000000
    101292     17953  TIP3      OH2            21.5513074165      -34.0690174179      -35.8332013856  TIP3      16593           0.0000000000
    101293     17953  TIP3      H1             20.6133826960      -34.3283077173      -35.9619677922  TIP3      16593           0.0000000000
    101294     17953  TIP3      H2             21.9266134352      -34.3795262532      -36.6787066512  TIP3      16593           0.0000000000
    101295     17954  TIP3      OH2            27.0693346192      -33.6078142973      -37.0663108607  TIP3      16594           0.0000000000
    101296     17954  TIP3      H1             26.6616012269      -32.7696446511      -37.3972868009  TIP3      16594           0.0000000000
    101297     17954  TIP3      H2             27.7622059096      -33.7394184625      -37.7399049271  TIP3      16594           0.0000000000
    101298     17955  TIP3      OH2            26.1121893312      -33.3711981383      -25.5992588380  TIP3      16595           0.0000000000
    101299     17955  TIP3      H1             25.6146801096      -34.1747292073      -25.3195307847  TIP3      16595           0.0000000000
    101300     17955  TIP3      H2             26.9629428054      -33.4991240836      -25.1337138478  TIP3      16595           0.0000000000
    101301     17956  TIP3      OH2            28.1284080889      -34.1096561987      -34.2306015301  TIP3      16596           0.0000000000
    101302     17956  TIP3      H1             27.8105585705      -33.5075491111      -34.9321538696  TIP3      16596           0.0000000000
    101303     17956  TIP3      H2             28.1721673865      -34.9356982879      -34.7108753479  TIP3      16596           0.0000000000
    101304     17957  TIP3      OH2            19.2101824673      -33.9452067525      -29.0023949999  TIP3      16597           0.0000000000
    101305     17957  TIP3      H1             19.2899761562      -33.5493760439      -28.1174153856  TIP3      16597           0.0000000000
    101306     17957  TIP3      H2             18.7627039879      -34.7812707904      -28.8030352451  TIP3      16597           0.0000000000
    101307     17958  TIP3      OH2            22.5851455086      -36.6041859952      -42.1782524132  TIP3      16598           0.0000000000
    101308     17958  TIP3      H1             22.1342779453      -36.9900009904      -41.4086420692  TIP3      16598           0.0000000000
    101309     17958  TIP3      H2             21.8956857358      -36.1355370047      -42.6633559107  TIP3      16598           0.0000000000
    101310     17959  TIP3      OH2            15.8648008305      -36.8049128429      -35.0434141783  TIP3      16599           0.0000000000
    101311     17959  TIP3      H1             16.5367717009      -36.8559809840      -34.3341764989  TIP3      16599           0.0000000000
    101312     17959  TIP3      H2             16.3166990096      -37.2062246072      -35.8047184676  TIP3      16599           0.0000000000
    101313     17960  TIP3      OH2            17.1568053745      -36.1120485291      -39.6083110796  TIP3      16600           0.0000000000
    101314     17960  TIP3      H1             17.6420558054      -35.5315047477      -40.2284032756  TIP3      16600           0.0000000000
    101315     17960  TIP3      H2             16.4564105058      -35.4943836358      -39.3151641362  TIP3      16600           0.0000000000
    101316     17961  TIP3      OH2            27.3032858021      -32.5164622261      -29.6628481176  TIP3      16601           0.0000000000
    101317     17961  TIP3      H1             27.6838687415      -33.2021331750      -30.2483342673  TIP3      16601           0.0000000000
    101318     17961  TIP3      H2             26.8393692801      -33.0406327950      -28.9846128073  TIP3      16601           0.0000000000
    101319     17962  TIP3      OH2            24.1226233288      -36.5402758498      -34.8207709387  TIP3      16602           0.0000000000
    101320     17962  TIP3      H1             23.1773795552      -36.5204119168      -34.5417872649  TIP3      16602           0.0000000000
    101321     17962  TIP3      H2             24.5645611288      -36.6896312889      -33.9728891430  TIP3      16602           0.0000000000
    101322     17963  TIP3      OH2            18.9148823286      -34.9847075299      -35.9581681543  TIP3      16603           0.0000000000
    101323     17963  TIP3      H1             18.0267991516      -34.8314019742      -36.3408759075  TIP3      16603           0.0000000000
    101324     17963  TIP3      H2             19.1896262173      -35.8316343308      -36.3523913574  TIP3      16603           0.0000000000
    101325     17964  TIP3      OH2            22.5564135201      -34.9509402591      -38.3248575254  TIP3      16604           0.0000000000
    101326     17964  TIP3      H1             23.5099536379      -34.8297841605      -38.1639964901  TIP3      16604           0.0000000000
    101327     17964  TIP3      H2             22.3133090852      -34.2770319598      -38.9930481645  TIP3      16604           0.0000000000
    101328     17965  TIP3      OH2            28.5082083102      -37.3665142224      -31.6117403766  TIP3      16605           0.0000000000
    101329     17965  TIP3      H1             27.8598242549      -37.2543642028      -30.8748181504  TIP3      16605           0.0000000000
    101330     17965  TIP3      H2             27.9352767184      -37.5631704233      -32.3491552063  TIP3      16605           0.0000000000
    101331     17966  TIP3      OH2            21.2715554468      -33.7525848807      -40.7012635751  TIP3      16606           0.0000000000
    101332     17966  TIP3      H1             20.7134587256      -34.1094905335      -41.4145616511  TIP3      16606           0.0000000000
    101333     17966  TIP3      H2             22.0730427948      -33.5357487730      -41.2033490285  TIP3      16606           0.0000000000
    101334     17967  TIP3      OH2            31.6880555969      -21.6107946535      -25.2273672573  TIP3      16607           0.0000000000
    101335     17967  TIP3      H1             31.9884359909      -21.2889835504      -26.1031383878  TIP3      16607           0.0000000000
    101336     17967  TIP3      H2             32.4613505811      -21.3687523222      -24.6923074919  TIP3      16607           0.0000000000
    101337     17968  TIP3      OH2            19.3854133251      -29.0824714017      -25.6843244781  TIP3      16608           0.0000000000
    101338     17968  TIP3      H1             20.0548431057      -29.1377491115      -25.0065031395  TIP3      16608           0.0000000000
    101339     17968  TIP3      H2             18.5634030140      -29.1205682898      -25.1344278524  TIP3      16608           0.0000000000
    101340     17969  TIP3      OH2            25.3846573156      -33.7847772365      -32.9328676171  TIP3      16609           0.0000000000
    101341     17969  TIP3      H1             25.9831455813      -34.3155604879      -33.4598065323  TIP3      16609           0.0000000000
    101342     17969  TIP3      H2             25.2347920077      -34.3145983058      -32.1383136320  TIP3      16609           0.0000000000
    101343     17970  TIP3      OH2            20.4319747565      -37.6325295335      -36.4826160284  TIP3      16610           0.0000000000
    101344     17970  TIP3      H1             20.1012055102      -38.5425403389      -36.5010884525  TIP3      16610           0.0000000000
    101345     17970  TIP3      H2             21.1950765905      -37.6973785853      -37.0629715452  TIP3      16610           0.0000000000
    101346     17971  TIP3      OH2            24.0180044320      -35.4826343965      -30.4987099387  TIP3      16611           0.0000000000
    101347     17971  TIP3      H1             23.2006033381      -34.9462682647      -30.4215150229  TIP3      16611           0.0000000000
    101348     17971  TIP3      H2             24.5830953606      -35.1091822606      -29.7931611633  TIP3      16611           0.0000000000
    101349     17972  TIP3      OH2            24.6131875525      -29.2181976501      -38.8339924133  TIP3      16612           0.0000000000
    101350     17972  TIP3      H1             23.8128143487      -29.6948717207      -39.1464950854  TIP3      16612           0.0000000000
    101351     17972  TIP3      H2             24.4010885023      -29.1107212955      -37.8850744925  TIP3      16612           0.0000000000
    101352     17973  TIP3      OH2            31.7985304598      -30.0366025388      -30.0164739853  TIP3      16613           0.0000000000
    101353     17973  TIP3      H1             32.3588749794      -29.5456291032      -30.6434496931  TIP3      16613           0.0000000000
    101354     17973  TIP3      H2             30.9369945963      -29.9763420471      -30.4792126298  TIP3      16613           0.0000000000
    101355     17974  TIP3      OH2            28.4391373974      -36.4474421011      -40.5737315241  TIP3      16614           0.0000000000
    101356     17974  TIP3      H1             27.5149879613      -36.2680801971      -40.8299620842  TIP3      16614           0.0000000000
    101357     17974  TIP3      H2             28.7766705698      -35.5601483147      -40.3446061186  TIP3      16614           0.0000000000
    101358     17975  TIP3      OH2            26.0688742290      -28.9765428896      -27.5980600131  TIP3      16615           0.0000000000
    101359     17975  TIP3      H1             25.7910232066      -29.3892372722      -26.7743726599  TIP3      16615           0.0000000000
    101360     17975  TIP3      H2             25.8675113766      -28.0443079237      -27.4804315829  TIP3      16615           0.0000000000
    101361     17976  TIP3      OH2            29.1932870614      -34.5154051969      -38.9396995886  TIP3      16616           0.0000000000
    101362     17976  TIP3      H1             30.0992767613      -34.6124414064      -38.6160583010  TIP3      16616           0.0000000000
    101363     17976  TIP3      H2             29.2551765129      -33.7075070408      -39.4795243180  TIP3      16616           0.0000000000
    101364     17977  TIP3      OH2            19.7242360871      -29.8341327432      -33.0142251541  TIP3      16617           0.0000000000
    101365     17977  TIP3      H1             20.4100322928      -29.9143938383      -33.7051197635  TIP3      16617           0.0000000000
    101366     17977  TIP3      H2             19.7801676467      -30.6959575177      -32.5634198351  TIP3      16617           0.0000000000
    101367     17978  TIP3      OH2            26.7035696109      -27.7591696903      -39.7626674429  TIP3      16618           0.0000000000
    101368     17978  TIP3      H1             26.3644824648      -26.9041180247      -39.4189093457  TIP3      16618           0.0000000000
    101369     17978  TIP3      H2             25.9595050243      -28.3692907771      -39.5482063747  TIP3      16618           0.0000000000
    101370     17979  TIP3      OH2            16.7142979689      -31.4329354011      -27.7681819859  TIP3      16619           0.0000000000
    101371     17979  TIP3      H1             16.8867973642      -31.8644919815      -26.9089179183  TIP3      16619           0.0000000000
    101372     17979  TIP3      H2             16.0882831390      -32.0451582477      -28.1956758840  TIP3      16619           0.0000000000
    101373     17980  TIP3      OH2            23.7254126585      -31.8694666346      -25.5654432111  TIP3      16620           0.0000000000
    101374     17980  TIP3      H1             23.4110117195      -32.1711105684      -26.4359606908  TIP3      16620           0.0000000000
    101375     17980  TIP3      H2             24.6515950887      -32.1928985086      -25.5871763232  TIP3      16620           0.0000000000
    101376     17981  TIP3      OH2            28.3947145903      -26.5203819336      -27.6042748732  TIP3      16621           0.0000000000
    101377     17981  TIP3      H1             27.4697132306      -26.3625584345      -27.8610393320  TIP3      16621           0.0000000000
    101378     17981  TIP3      H2             28.3574957479      -26.2895501628      -26.6758516205  TIP3      16621           0.0000000000
    101379     17982  TIP3      OH2            34.0483379446      -34.3494333750      -39.2045351643  TIP3      16622           0.0000000000
    101380     17982  TIP3      H1             33.5126937588      -34.6433097577      -39.9732462502  TIP3      16622           0.0000000000
    101381     17982  TIP3      H2             34.1497959718      -33.4159403641      -39.4963482305  TIP3      16622           0.0000000000
    101382     17983  TIP3      OH2            34.0693342419      -28.5225636495      -26.4483201295  TIP3      16623           0.0000000000
    101383     17983  TIP3      H1             33.1826341734      -28.2795744962      -26.8044887867  TIP3      16623           0.0000000000
    101384     17983  TIP3      H2             34.6211969097      -28.5505528237      -27.2528485941  TIP3      16623           0.0000000000
    101385     17984  TIP3      OH2            32.3746106627      -25.5313510440      -38.8230403715  TIP3      16624           0.0000000000
    101386     17984  TIP3      H1             31.9928263210      -26.3593659053      -38.5164521156  TIP3      16624           0.0000000000
    101387     17984  TIP3      H2             32.6637062508      -25.7155614482      -39.7463203439  TIP3      16624           0.0000000000
    101388     17985  TIP3      OH2            29.5699282236      -30.7082279890      -31.7317201691  TIP3      16625           0.0000000000
    101389     17985  TIP3      H1             28.6281447923      -30.9221142527      -31.8395129132  TIP3      16625           0.0000000000
    101390     17985  TIP3      H2             30.0002009479      -31.4697461285      -32.1643593071  TIP3      16625           0.0000000000
    101391     17986  TIP3      OH2            22.0931829138      -26.3802432556      -35.6318269596  TIP3      16626           0.0000000000
    101392     17986  TIP3      H1             22.5941637588      -25.5727607950      -35.8393165531  TIP3      16626           0.0000000000
    101393     17986  TIP3      H2             21.2154522686      -26.1458424905      -35.9617203310  TIP3      16626           0.0000000000
    101394     17987  TIP3      OH2            17.8127607011      -31.5030782021      -41.1674842291  TIP3      16627           0.0000000000
    101395     17987  TIP3      H1             18.4469139344      -30.9192183654      -40.7011453818  TIP3      16627           0.0000000000
    101396     17987  TIP3      H2             16.9742678139      -31.2361226307      -40.7454941049  TIP3      16627           0.0000000000
    101397     17988  TIP3      OH2            23.5108371442      -28.7132169011      -36.1213699173  TIP3      16628           0.0000000000
    101398     17988  TIP3      H1             23.2011553053      -27.7915428210      -36.0223559512  TIP3      16628           0.0000000000
    101399     17988  TIP3      H2             22.7908193916      -29.2020510435      -35.6740716747  TIP3      16628           0.0000000000
    101400     17989  TIP3      OH2            23.9594893047      -24.5291613782      -29.7112289126  TIP3      16629           0.0000000000
    101401     17989  TIP3      H1             24.4156633132      -23.7211218535      -29.9928260208  TIP3      16629           0.0000000000
    101402     17989  TIP3      H2             24.5797974351      -24.8671167058      -29.0457344524  TIP3      16629           0.0000000000
    101403     17990  TIP3      OH2            22.1838728018      -23.7216844195      -36.5701881552  TIP3      16630           0.0000000000
    101404     17990  TIP3      H1             21.2193004487      -23.5769710002      -36.4527574302  TIP3      16630           0.0000000000
    101405     17990  TIP3      H2             22.5467320419      -22.8793440870      -36.2377199297  TIP3      16630           0.0000000000
    101406     17991  TIP3      OH2            27.4981743153      -28.5151972981      -30.0741816940  TIP3      16631           0.0000000000
    101407     17991  TIP3      H1             27.1481544403      -28.7316314250      -29.1871162727  TIP3      16631           0.0000000000
    101408     17991  TIP3      H2             28.1254120737      -29.2359049520      -30.2529051053  TIP3      16631           0.0000000000
    101409     17992  TIP3      OH2            29.7880348460      -27.4638702620      -40.9246655496  TIP3      16632           0.0000000000
    101410     17992  TIP3      H1             30.1041224550      -27.9490668914      -40.1478461494  TIP3      16632           0.0000000000
    101411     17992  TIP3      H2             28.8359920154      -27.6498388371      -40.9161653327  TIP3      16632           0.0000000000
    101412     17993  TIP3      OH2            30.2760756461      -23.9291725702      -27.5807237565  TIP3      16633           0.0000000000
    101413     17993  TIP3      H1             29.6149956732      -24.4448871893      -28.0788326297  TIP3      16633           0.0000000000
    101414     17993  TIP3      H2             30.4914901347      -23.2506403148      -28.2581244641  TIP3      16633           0.0000000000
    101415     17994  TIP3      OH2            34.2758311609      -23.0675764950      -40.7841066257  TIP3      16634           0.0000000000
    101416     17994  TIP3      H1             35.0006274975      -22.4432876613      -40.9503260751  TIP3      16634           0.0000000000
    101417     17994  TIP3      H2             33.5653019222      -22.4721098375      -40.4578290093  TIP3      16634           0.0000000000
    101418     17995  TIP3      OH2            18.3549590347      -36.7387467928      -28.2060105434  TIP3      16635           0.0000000000
    101419     17995  TIP3      H1             17.4549818253      -36.3686179064      -28.2214011795  TIP3      16635           0.0000000000
    101420     17995  TIP3      H2             18.2309087358      -37.5863686132      -27.7486770497  TIP3      16635           0.0000000000
    101421     17996  TIP3      OH2            30.6001146368      -28.8302778084      -38.7189213845  TIP3      16636           0.0000000000
    101422     17996  TIP3      H1             30.3602997739      -29.6275017898      -38.2035388812  TIP3      16636           0.0000000000
    101423     17996  TIP3      H2             31.5549101385      -28.7783696515      -38.5625246448  TIP3      16636           0.0000000000
    101424     17997  TIP3      OH2            17.9711597202      -24.9034096548      -29.7894474234  TIP3      16637           0.0000000000
    101425     17997  TIP3      H1             18.2656554523      -25.8271529650      -29.7802496640  TIP3      16637           0.0000000000
    101426     17997  TIP3      H2             18.2271322138      -24.6077186850      -28.9083004130  TIP3      16637           0.0000000000
    101427     17998  TIP3      OH2            23.9262983527      -26.4169518999      -42.5273977013  TIP3      16638           0.0000000000
    101428     17998  TIP3      H1             24.1113344339      -27.1767632644      -43.0874361759  TIP3      16638           0.0000000000
    101429     17998  TIP3      H2             23.5068849168      -26.7947826976      -41.7278813557  TIP3      16638           0.0000000000
    101430     17999  TIP3      OH2            22.7314937563      -26.8550445854      -40.0605753502  TIP3      16639           0.0000000000
    101431     17999  TIP3      H1             22.9782632726      -27.3723842279      -39.2859301764  TIP3      16639           0.0000000000
    101432     17999  TIP3      H2             22.8028704542      -25.9237687323      -39.7491916304  TIP3      16639           0.0000000000
    101433     18000  TIP3      OH2            19.2378508366      -29.6030286596      -39.5943089688  TIP3      16640           0.0000000000
    101434     18000  TIP3      H1             18.5577062002      -29.1972452653      -39.0141162280  TIP3      16640           0.0000000000
    101435     18000  TIP3      H2             19.7714076627      -28.8292431113      -39.8473503562  TIP3      16640           0.0000000000
    101436     18001  TIP3      OH2            27.1467081829      -36.8284072630      -29.2824426783  TIP3      16641           0.0000000000
    101437     18001  TIP3      H1             27.8321268526      -36.8429498662      -28.6078450986  TIP3      16641           0.0000000000
    101438     18001  TIP3      H2             26.7386895632      -37.7132078556      -29.1136538485  TIP3      16641           0.0000000000
    101439     18002  TIP3      OH2            27.8852508400      -37.3714583913      -38.0867758293  TIP3      16642           0.0000000000
    101440     18002  TIP3      H1             28.0230014207      -36.9077917037      -38.9558358832  TIP3      16642           0.0000000000
    101441     18002  TIP3      H2             28.4376688675      -36.8024466576      -37.5457061415  TIP3      16642           0.0000000000
    101442     18003  TIP3      OH2            25.5279602215      -25.1916389790      -39.3725333407  TIP3      16643           0.0000000000
    101443     18003  TIP3      H1             24.7096802330      -24.6679668725      -39.2683125609  TIP3      16643           0.0000000000
    101444     18003  TIP3      H2             26.0491510316      -24.6503723303      -39.9804275525  TIP3      16643           0.0000000000
    101445     18004  TIP3      OH2            25.0915039740      -35.6435805393      -37.3244317555  TIP3      16644           0.0000000000
    101446     18004  TIP3      H1             25.8379995557      -35.0125679199      -37.3134120452  TIP3      16644           0.0000000000
    101447     18004  TIP3      H2             24.7856132141      -35.6807066487      -36.3994890937  TIP3      16644           0.0000000000
    101448     18005  TIP3      OH2            25.6280919009      -34.5922924738      -28.1739631911  TIP3      16645           0.0000000000
    101449     18005  TIP3      H1             25.7034949704      -34.0305933881      -27.3784592318  TIP3      16645           0.0000000000
    101450     18005  TIP3      H2             26.2665300427      -35.3071469082      -28.0445382901  TIP3      16645           0.0000000000
    101451     18006  TIP3      OH2            25.9815305999      -38.5433459951      -36.3885551829  TIP3      16646           0.0000000000
    101452     18006  TIP3      H1             25.5019366440      -37.8659182817      -35.8608162414  TIP3      16646           0.0000000000
    101453     18006  TIP3      H2             26.4870538710      -37.9606121362      -37.0106193577  TIP3      16646           0.0000000000
    101454     18007  TIP3      OH2            22.9025143368      -24.1545583946      -39.3036684944  TIP3      16647           0.0000000000
    101455     18007  TIP3      H1             23.0485620462      -23.3358791639      -39.8308205143  TIP3      16647           0.0000000000
    101456     18007  TIP3      H2             22.6476871815      -23.7947130040      -38.4309585229  TIP3      16647           0.0000000000
    101457     18008  TIP3      OH2            21.5627179386      -37.4307419650      -39.7396720939  TIP3      16648           0.0000000000
    101458     18008  TIP3      H1             21.5191552173      -36.5261609301      -39.3846023337  TIP3      16648           0.0000000000
    101459     18008  TIP3      H2             22.4726271396      -37.6671219638      -39.4741499530  TIP3      16648           0.0000000000
    101460     18009  TIP3      OH2            31.7935399481      -36.7082965616      -27.2973242205  TIP3      16649           0.0000000000
    101461     18009  TIP3      H1             30.8642026890      -36.3948739384      -27.4210682030  TIP3      16649           0.0000000000
    101462     18009  TIP3      H2             32.0928718078      -36.7289716389      -28.2231827250  TIP3      16649           0.0000000000
    101463     18010  TIP3      OH2            30.4342350991      -32.9275958604      -33.3022170807  TIP3      16650           0.0000000000
    101464     18010  TIP3      H1             29.5776098478      -33.3263307978      -33.5437046008  TIP3      16650           0.0000000000
    101465     18010  TIP3      H2             30.8807479988      -33.6033425865      -32.7557769207  TIP3      16650           0.0000000000
    101466     18011  TIP3      OH2            19.8342410870      -27.0114910976      -40.6789642090  TIP3      16651           0.0000000000
    101467     18011  TIP3      H1             20.4744571179      -26.3525066802      -40.3916016831  TIP3      16651           0.0000000000
    101468     18011  TIP3      H2             20.3287390776      -27.4559441069      -41.3948575519  TIP3      16651           0.0000000000
    101469     18012  TIP3      OH2            18.1918469318      -34.3199414919      -41.5484226750  TIP3      16652           0.0000000000
    101470     18012  TIP3      H1             18.1733133307      -33.3623034131      -41.3689079698  TIP3      16652           0.0000000000
    101471     18012  TIP3      H2             17.3080869120      -34.5293445542      -41.8543438850  TIP3      16652           0.0000000000
    101472     18013  TIP3      OH2            31.4746380858      -23.6610633619      -31.6218979277  TIP3      16653           0.0000000000
    101473     18013  TIP3      H1             31.3840967341      -22.9784415497      -32.3133983992  TIP3      16653           0.0000000000
    101474     18013  TIP3      H2             32.4402191174      -23.6039219353      -31.4457369873  TIP3      16653           0.0000000000
    101475     18014  TIP3      OH2            18.9301816106      -39.4087588096      -32.8474941935  TIP3      16654           0.0000000000
    101476     18014  TIP3      H1             18.7108744535      -39.4230835665      -33.8070231707  TIP3      16654           0.0000000000
    101477     18014  TIP3      H2             18.6040149617      -40.2944839400      -32.5853730436  TIP3      16654           0.0000000000
    101478     18015  TIP3      OH2            17.9295323031      -25.6155547231      -36.6794044004  TIP3      16655           0.0000000000
    101479     18015  TIP3      H1             17.0719590724      -25.1659541996      -36.7139015113  TIP3      16655           0.0000000000
    101480     18015  TIP3      H2             18.4038092751      -25.1453967073      -37.3760086842  TIP3      16655           0.0000000000
    101481     18016  TIP3      OH2            17.1047492426      -22.9698119862      -25.3691483957  TIP3      16656           0.0000000000
    101482     18016  TIP3      H1             17.7586547836      -23.1575471339      -24.6747081345  TIP3      16656           0.0000000000
    101483     18016  TIP3      H2             16.7177284184      -23.8330941925      -25.5948031201  TIP3      16656           0.0000000000
    101484     18017  TIP3      OH2            21.7358487650      -24.1407228544      -23.7903517238  TIP3      16657           0.0000000000
    101485     18017  TIP3      H1             22.5640449614      -24.5044626151      -23.4244015352  TIP3      16657           0.0000000000
    101486     18017  TIP3      H2             21.8190988171      -24.2925268882      -24.7442008359  TIP3      16657           0.0000000000
    101487     18018  TIP3      OH2            25.9152622732      -24.5403918520      -42.3746023241  TIP3      16658           0.0000000000
    101488     18018  TIP3      H1             25.2151743703      -25.1961068581      -42.1815912986  TIP3      16658           0.0000000000
    101489     18018  TIP3      H2             26.6472535045      -25.1252631690      -42.6093349930  TIP3      16658           0.0000000000
    101490     18019  TIP3      OH2            30.5408603314      -24.7128033615      -42.1100101525  TIP3      16659           0.0000000000
    101491     18019  TIP3      H1             30.7377118884      -25.5941959389      -41.7410419880  TIP3      16659           0.0000000000
    101492     18019  TIP3      H2             31.2619429756      -24.6081480856      -42.7369442443  TIP3      16659           0.0000000000
    101493     18020  TIP3      OH2            17.0678411900      -29.1958369981      -24.3808001538  TIP3      16660           0.0000000000
    101494     18020  TIP3      H1             17.1997932032      -30.1035163730      -24.7168451717  TIP3      16660           0.0000000000
    101495     18020  TIP3      H2             16.3146016515      -28.9285417468      -24.9454647356  TIP3      16660           0.0000000000
    101496     18021  TIP3      OH2            21.4218396463      -28.8506390275      -42.3309440048  TIP3      16661           0.0000000000
    101497     18021  TIP3      H1             21.5333518307      -29.6210898771      -41.7565332802  TIP3      16661           0.0000000000
    101498     18021  TIP3      H2             22.0770990389      -28.9962141902      -43.0153264363  TIP3      16661           0.0000000000
    101499     18022  TIP3      OH2            23.6890580425      -29.1913243547      -24.9982942881  TIP3      16662           0.0000000000
    101500     18022  TIP3      H1             23.4697939159      -28.9103288564      -25.9073277078  TIP3      16662           0.0000000000
    101501     18022  TIP3      H2             23.8553614701      -30.1614202486      -25.1095572553  TIP3      16662           0.0000000000
    101502     18023  TIP3      OH2            26.7316243063      -27.7648573900      -42.5718133156  TIP3      16663           0.0000000000
    101503     18023  TIP3      H1             26.5464564966      -27.6357503006      -41.6296434242  TIP3      16663           0.0000000000
    101504     18023  TIP3      H2             26.6131419798      -28.7129154710      -42.7104618107  TIP3      16663           0.0000000000
    101505     18024  TIP3      OH2            29.4593186185      -29.3343535284      -27.5918918179  TIP3      16664           0.0000000000
    101506     18024  TIP3      H1             30.2459343073      -28.7570512314      -27.6976459561  TIP3      16664           0.0000000000
    101507     18024  TIP3      H2             28.7479778161      -28.6820448539      -27.5923686392  TIP3      16664           0.0000000000
    101508     18025  TIP3      OH2            17.9804605002      -31.9297395756      -25.0095832801  TIP3      16665           0.0000000000
    101509     18025  TIP3      H1             18.3436841468      -32.8091309274      -25.1511485959  TIP3      16665           0.0000000000
    101510     18025  TIP3      H2             17.7011668493      -31.9890467588      -24.0846189325  TIP3      16665           0.0000000000
    101511     18026  TIP3      OH2            22.6129039108      -30.8373091205      -39.9411247803  TIP3      16666           0.0000000000
    101512     18026  TIP3      H1             22.0919450530      -31.3656785202      -39.3194378001  TIP3      16666           0.0000000000
    101513     18026  TIP3      H2             22.8982029455      -31.5139243043      -40.6032611816  TIP3      16666           0.0000000000
    101514     18027  TIP3      OH2            21.8696296320      -33.0319486164      -27.6447074216  TIP3      16667           0.0000000000
    101515     18027  TIP3      H1             21.2631008119      -32.3193904461      -27.3947220967  TIP3      16667           0.0000000000
    101516     18027  TIP3      H2             22.2557468551      -32.6610202636      -28.4562524405  TIP3      16667           0.0000000000
    101517     18028  TIP3      OH2            23.6742447926      -32.5363065534      -41.7522393516  TIP3      16668           0.0000000000
    101518     18028  TIP3      H1             23.5410149197      -32.7816777995      -42.6819239029  TIP3      16668           0.0000000000
    101519     18028  TIP3      H2             24.6511243993      -32.5520507102      -41.6465176090  TIP3      16668           0.0000000000
    101520     18029  TIP3      OH2            26.9333502853      -30.4303193476      -24.3096528286  TIP3      16669           0.0000000000
    101521     18029  TIP3      H1             27.8980638643      -30.4365045322      -24.4230613634  TIP3      16669           0.0000000000
    101522     18029  TIP3      H2             26.7770919566      -31.2234987779      -23.7936315892  TIP3      16669           0.0000000000
    101523     18030  TIP3      OH2            33.0065115106      -30.2559439347      -42.3145279252  TIP3      16670           0.0000000000
    101524     18030  TIP3      H1             32.7640537533      -30.6578559886      -43.1520145317  TIP3      16670           0.0000000000
    101525     18030  TIP3      H2             33.1018781793      -29.3175771874      -42.5344820185  TIP3      16670           0.0000000000
    101526     18031  TIP3      OH2            22.2773329542      -35.6536070789      -26.5837373347  TIP3      16671           0.0000000000
    101527     18031  TIP3      H1             22.3936038318      -36.3500870935      -27.2477856348  TIP3      16671           0.0000000000
    101528     18031  TIP3      H2             22.2326044988      -34.8484541823      -27.1435666566  TIP3      16671           0.0000000000
    101529     18032  TIP3      OH2            22.6753989153      -37.2702143043      -29.0448930261  TIP3      16672           0.0000000000
    101530     18032  TIP3      H1             23.1877824262      -36.7898421909      -29.7456700684  TIP3      16672           0.0000000000
    101531     18032  TIP3      H2             21.7799611592      -37.3561818296      -29.4462072700  TIP3      16672           0.0000000000
    101532     18033  TIP3      OH2            24.2095786095      -31.7767615366      -28.7930131898  TIP3      16673           0.0000000000
    101533     18033  TIP3      H1             24.9601244895      -31.9391498654      -29.3746319678  TIP3      16673           0.0000000000
    101534     18033  TIP3      H2             23.8407951383      -30.9389552632      -29.1257034106  TIP3      16673           0.0000000000
    101535     18034  TIP3      OH2            28.5896557951      -34.0102914623      -23.8334985202  TIP3      16674           0.0000000000
    101536     18034  TIP3      H1             28.8174787329      -34.9490139257      -23.9018669019  TIP3      16674           0.0000000000
    101537     18034  TIP3      H2             29.4564942052      -33.5773849143      -23.8026959373  TIP3      16674           0.0000000000
    101538     18035  TIP3      OH2            29.9407171931      -31.2280484280      -25.7196896362  TIP3      16675           0.0000000000
    101539     18035  TIP3      H1             29.6975559142      -30.4896107086      -26.3147580424  TIP3      16675           0.0000000000
    101540     18035  TIP3      H2             30.9004105162      -31.2393092343      -25.8798611008  TIP3      16675           0.0000000000
    101541     18036  TIP3      OH2            20.7326649788      -34.4299878713      -24.6325472434  TIP3      16676           0.0000000000
    101542     18036  TIP3      H1             19.9533604404      -34.9649326386      -24.8756433846  TIP3      16676           0.0000000000
    101543     18036  TIP3      H2             21.3788473558      -34.7763749576      -25.2824912546  TIP3      16676           0.0000000000
    101544     18037  TIP3      OH2            23.3536016933      -39.7947506114      -28.6569525123  TIP3      16677           0.0000000000
    101545     18037  TIP3      H1             23.2786233921      -38.8162105366      -28.7731195971  TIP3      16677           0.0000000000
    101546     18037  TIP3      H2             22.6116496403      -40.1135774092      -29.1643372898  TIP3      16677           0.0000000000
    101547     18038  TIP3      OH2            24.7318903443      -35.5221153567      -25.0567419341  TIP3      16678           0.0000000000
    101548     18038  TIP3      H1             24.4788920532      -35.7149249629      -24.1455706906  TIP3      16678           0.0000000000
    101549     18038  TIP3      H2             23.9195916270      -35.6839367920      -25.5736636522  TIP3      16678           0.0000000000
    101550     18039  TIP3      OH2            27.4342233270      -36.3328119059      -25.9393010302  TIP3      16679           0.0000000000
    101551     18039  TIP3      H1             26.4667945217      -36.3268075122      -25.8194726929  TIP3      16679           0.0000000000
    101552     18039  TIP3      H2             27.7396646907      -36.9855386069      -25.2733586432  TIP3      16679           0.0000000000
    101553     18040  TIP3      OH2            28.9417855400      -37.6827092672      -24.0551007508  TIP3      16680           0.0000000000
    101554     18040  TIP3      H1             29.0006720007      -38.6620019775      -24.0342671163  TIP3      16680           0.0000000000
    101555     18040  TIP3      H2             28.8019938116      -37.4289378615      -23.1165795334  TIP3      16680           0.0000000000
    101556     18041  TIP3      OH2            18.8450377575      -36.4816125828      -24.9318375822  TIP3      16681           0.0000000000
    101557     18041  TIP3      H1             19.0672886990      -37.2017641506      -25.5546514420  TIP3      16681           0.0000000000
    101558     18041  TIP3      H2             18.7086164653      -36.9567919149      -24.1084335189  TIP3      16681           0.0000000000
    101559     18042  TIP3      OH2            23.7423598787      -40.0159126249      -26.1037915514  TIP3      16682           0.0000000000
    101560     18042  TIP3      H1             24.3574402520      -40.7814212341      -26.0458287578  TIP3      16682           0.0000000000
    101561     18042  TIP3      H2             23.5173037855      -40.1199436146      -27.0521088378  TIP3      16682           0.0000000000
    101562     18043  TIP3      OH2            23.9819998649      -38.7984819584      -23.7983995423  TIP3      16683           0.0000000000
    101563     18043  TIP3      H1             23.9221517472      -39.2981227275      -24.6548685542  TIP3      16683           0.0000000000
    101564     18043  TIP3      H2             23.4321401865      -38.0504400323      -24.0192498277  TIP3      16683           0.0000000000
    101565     18044  TIP3      OH2            23.5158484703      -21.8645175077      -40.6634365744  TIP3      16684           0.0000000000
    101566     18044  TIP3      H1             24.4906145062      -21.8259517377      -40.6243616897  TIP3      16684           0.0000000000
    101567     18044  TIP3      H2             23.3327243693      -21.2832327777      -41.3998046884  TIP3      16684           0.0000000000
    101568     18045  TIP3      OH2            17.1015945755      -27.3036474306      -41.1761556033  TIP3      16685           0.0000000000
    101569     18045  TIP3      H1             18.0575789144      -27.2215492556      -40.9629695649  TIP3      16685           0.0000000000
    101570     18045  TIP3      H2             17.1553851902      -27.9093831716      -41.9222963993  TIP3      16685           0.0000000000
    101571     18046  TIP3      OH2            15.8331795473      -21.9479181022      -36.2248383757  TIP3      16686           0.0000000000
    101572     18046  TIP3      H1             15.1194378912      -22.4323318587      -36.6976212727  TIP3      16686           0.0000000000
    101573     18046  TIP3      H2             16.1174631619      -22.6038191056      -35.5669145449  TIP3      16686           0.0000000000
    101574     18047  TIP3      OH2            16.6596321215      -23.8118645897      -34.3604548575  TIP3      16687           0.0000000000
    101575     18047  TIP3      H1             16.3069217079      -24.6914531765      -34.1648075798  TIP3      16687           0.0000000000
    101576     18047  TIP3      H2             16.8826469169      -23.4821708480      -33.4737518676  TIP3      16687           0.0000000000
    101577     18048  TIP3      OH2            34.1634470195      -23.0058884775      -31.4297659602  TIP3      16688           0.0000000000
    101578     18048  TIP3      H1             34.2186349630      -22.8549716661      -30.4694921014  TIP3      16688           0.0000000000
    101579     18048  TIP3      H2             34.8917495705      -22.4460432672      -31.7308693210  TIP3      16688           0.0000000000
    101580     18049  TIP3      OH2            33.7821368957      -23.4162458210      -28.4898649662  TIP3      16689           0.0000000000
    101581     18049  TIP3      H1             33.2970289524      -24.1856499113      -28.8500904719  TIP3      16689           0.0000000000
    101582     18049  TIP3      H2             34.2735875829      -23.8613366082      -27.7780412881  TIP3      16689           0.0000000000
    101583     18050  TIP3      OH2            32.2180595990      -27.6515892311      -23.8556771604  TIP3      16690           0.0000000000
    101584     18050  TIP3      H1             31.3533654828      -27.7584851278      -23.4408244432  TIP3      16690           0.0000000000
    101585     18050  TIP3      H2             32.5871550964      -26.9145796800      -23.3613525484  TIP3      16690           0.0000000000
    101586     18051  TIP3      OH2            33.5357817507      -29.3749789372      -38.3842347098  TIP3      16691           0.0000000000
    101587     18051  TIP3      H1             34.3950422310      -28.9693981077      -38.1900708216  TIP3      16691           0.0000000000
    101588     18051  TIP3      H2             33.5171125368      -30.0900604783      -37.7100205021  TIP3      16691           0.0000000000
    101589     18052  TIP3      OH2            33.8917906270      -31.2949446583      -36.5015499902  TIP3      16692           0.0000000000
    101590     18052  TIP3      H1             33.1391892618      -31.7826792609      -36.1050361653  TIP3      16692           0.0000000000
    101591     18052  TIP3      H2             34.4827197044      -31.1473010316      -35.7412818982  TIP3      16692           0.0000000000
    101592     18053  TIP3      OH2            33.6474744949      -28.5922924148      -31.5100199375  TIP3      16693           0.0000000000
    101593     18053  TIP3      H1             34.4640701668      -28.9502658791      -31.8926459632  TIP3      16693           0.0000000000
    101594     18053  TIP3      H2             33.7862970385      -27.6388421510      -31.6764823741  TIP3      16693           0.0000000000
    101595     18054  TIP3      OH2            32.2057813918      -25.6968697370      -29.2498157396  TIP3      16694           0.0000000000
    101596     18054  TIP3      H1             31.5181565773      -25.3554368544      -28.6569461350  TIP3      16694           0.0000000000
    101597     18054  TIP3      H2             31.6627018435      -26.0978928759      -29.9609397417  TIP3      16694           0.0000000000
    101598     18055  TIP3      OH2            34.1909132607      -31.4625306873      -40.1183415482  TIP3      16695           0.0000000000
    101599     18055  TIP3      H1             33.6267037016      -31.1067299469      -40.8356567849  TIP3      16695           0.0000000000
    101600     18055  TIP3      H2             34.0982232790      -30.7606740134      -39.4470986703  TIP3      16695           0.0000000000
    101601     18056  TIP3      OH2            32.5304475193      -34.2579512632      -41.5457477285  TIP3      16696           0.0000000000
    101602     18056  TIP3      H1             32.6319248732      -33.5940347967      -42.2372364684  TIP3      16696           0.0000000000
    101603     18056  TIP3      H2             32.3756619133      -35.0724571355      -42.0669091613  TIP3      16696           0.0000000000
    101604     18057  TIP3      OH2            31.7356901119      -32.8223124998      -35.9125413048  TIP3      16697           0.0000000000
    101605     18057  TIP3      H1             31.5462639157      -33.7595385411      -35.9726340439  TIP3      16697           0.0000000000
    101606     18057  TIP3      H2             31.3716411145      -32.5804298946      -35.0395675157  TIP3      16697           0.0000000000
    101607     18058  TIP3      OH2            16.7239311824      -30.7155575135      -31.8557970200  TIP3      16698           0.0000000000
    101608     18058  TIP3      H1             16.8976733274      -30.8146787518      -32.8207541534  TIP3      16698           0.0000000000
    101609     18058  TIP3      H2             17.6155323919      -30.9076893815      -31.5060982791  TIP3      16698           0.0000000000
    101610     18059  TIP3      OH2            32.5609909861      -30.8468031478      -26.2468408704  TIP3      16699           0.0000000000
    101611     18059  TIP3      H1             33.1739195835      -31.5976982199      -26.1057952462  TIP3      16699           0.0000000000
    101612     18059  TIP3      H2             33.1760296544      -30.0832460887      -26.2385385576  TIP3      16699           0.0000000000
    101613     18060  TIP3      OH2            34.0728826800      -32.9616153722      -25.6061543104  TIP3      16700           0.0000000000
    101614     18060  TIP3      H1             33.1902980211      -33.3608667034      -25.7567215930  TIP3      16700           0.0000000000
    101615     18060  TIP3      H2             34.6490461610      -33.7424506991      -25.6527422601  TIP3      16700           0.0000000000
    101616     18061  TIP3      OH2            31.7673936830      -36.7368314840      -42.3917317202  TIP3      16701           0.0000000000
    101617     18061  TIP3      H1             32.4007793355      -37.2086390097      -41.8156941145  TIP3      16701           0.0000000000
    101618     18061  TIP3      H2             30.9367228685      -37.2187568381      -42.2842345458  TIP3      16701           0.0000000000
    101619     18062  TIP3      OH2            31.4165022001      -35.2610715806      -37.3374325200  TIP3      16702           0.0000000000
    101620     18062  TIP3      H1             31.6915256693      -36.1830407042      -37.4617357644  TIP3      16702           0.0000000000
    101621     18062  TIP3      H2             32.1138063518      -34.8135572152      -37.8588785715  TIP3      16702           0.0000000000
    101622     18063  TIP3      OH2            32.0439422202      -34.7506977205      -32.0406516412  TIP3      16703           0.0000000000
    101623     18063  TIP3      H1             32.9702004980      -34.4263056653      -32.0274413232  TIP3      16703           0.0000000000
    101624     18063  TIP3      H2             31.7991739455      -34.5484976441      -31.1109239699  TIP3      16703           0.0000000000
    101625     18064  TIP3      OH2            32.0686752573      -33.9576887883      -29.2715070224  TIP3      16704           0.0000000000
    101626     18064  TIP3      H1             31.1971046765      -33.6826044165      -28.9135860106  TIP3      16704           0.0000000000
    101627     18064  TIP3      H2             32.4882045737      -33.0942804886      -29.4711024414  TIP3      16704           0.0000000000
    101628     18065  TIP3      OH2            16.3434059752      -35.4488172199      -25.7175162805  TIP3      16705           0.0000000000
    101629     18065  TIP3      H1             17.2743131536      -35.6771863915      -25.5373754838  TIP3      16705           0.0000000000
    101630     18065  TIP3      H2             15.8685215249      -36.2631832732      -25.4430327192  TIP3      16705           0.0000000000
    101631     18066  TIP3      OH2            34.3978525975      -39.9051560560      -23.8555574143  TIP3      16706           0.0000000000
    101632     18066  TIP3      H1             34.6445068453      -40.5627273519      -24.5220812912  TIP3      16706           0.0000000000
    101633     18066  TIP3      H2             34.4263076407      -39.0825266156      -24.3570165139  TIP3      16706           0.0000000000
    101634     18067  TIP3      OH2            31.9166345323      -37.9366527893      -37.3038603963  TIP3      16707           0.0000000000
    101635     18067  TIP3      H1             32.2771132338      -38.5109552785      -36.6166013871  TIP3      16707           0.0000000000
    101636     18067  TIP3      H2             31.4342627450      -38.5663605485      -37.9082819362  TIP3      16707           0.0000000000
    101637     18068  TIP3      OH2            17.5016906155      -37.1429221703      -32.8707031275  TIP3      16708           0.0000000000
    101638     18068  TIP3      H1             18.0008273489      -37.9485917085      -32.6111966993  TIP3      16708           0.0000000000
    101639     18068  TIP3      H2             18.0632676746      -36.4543357460      -32.4847679209  TIP3      16708           0.0000000000
    101640     18069  TIP3      OH2            15.8204174424      -34.1350609882      -31.8155904332  TIP3      16709           0.0000000000
    101641     18069  TIP3      H1             16.3777220110      -34.3877165260      -32.5813486402  TIP3      16709           0.0000000000
    101642     18069  TIP3      H2             16.2841308095      -33.3302628659      -31.5519757615  TIP3      16709           0.0000000000
    101643     18070  TIP3      OH2            33.8938235652      -37.7828946673      -25.5948181405  TIP3      16710           0.0000000000
    101644     18070  TIP3      H1             32.9407252182      -37.5924566519      -25.6129629244  TIP3      16710           0.0000000000
    101645     18070  TIP3      H2             33.9207623405      -38.4375868276      -26.3088410043  TIP3      16710           0.0000000000
    101646     18071  TIP3      OH2            33.8857201122      -37.8982734425      -40.8721439524  TIP3      16711           0.0000000000
    101647     18071  TIP3      H1             34.2932548401      -38.6261882955      -41.3653635727  TIP3      16711           0.0000000000
    101648     18071  TIP3      H2             34.5973180137      -37.2403856423      -40.8364862078  TIP3      16711           0.0000000000
    101649     18072  TIP3      OH2            16.1947621066      -37.9582027452      -37.7792336967  TIP3      16712           0.0000000000
    101650     18072  TIP3      H1             15.2553866400      -37.7082286316      -37.8717995839  TIP3      16712           0.0000000000
    101651     18072  TIP3      H2             16.6084602019      -37.4054415645      -38.4666171379  TIP3      16712           0.0000000000
    101652     18073  TIP3      OH2            30.9185831219      -22.9349131809      -35.8058031290  TIP3      16713           0.0000000000
    101653     18073  TIP3      H1             31.6032559966      -23.2427532911      -36.4316512285  TIP3      16713           0.0000000000
    101654     18073  TIP3      H2             31.4397343551      -22.4353335101      -35.1580641739  TIP3      16713           0.0000000000
    101655     18074  TIP3      OH2            16.1485501304      -39.1846002848      -29.4343976937  TIP3      16714           0.0000000000
    101656     18074  TIP3      H1             15.4974100459      -39.3916899909      -28.7556783416  TIP3      16714           0.0000000000
    101657     18074  TIP3      H2             15.6985601663      -38.5489291483      -30.0152224809  TIP3      16714           0.0000000000
    101658     18075  TIP3      OH2            18.3891113305      -26.0545808706      -25.2468476007  TIP3      16715           0.0000000000
    101659     18075  TIP3      H1             17.5692809207      -25.8223825794      -25.7364206136  TIP3      16715           0.0000000000
    101660     18075  TIP3      H2             18.0418765777      -26.0923648620      -24.3693303602  TIP3      16715           0.0000000000
    101661     18076  TIP3      OH2            21.2829281206      -25.0143506626      -28.9795935601  TIP3      16716           0.0000000000
    101662     18076  TIP3      H1             20.9283956472      -24.1684018978      -29.2953880183  TIP3      16716           0.0000000000
    101663     18076  TIP3      H2             22.1930552685      -24.9287192190      -29.3347212682  TIP3      16716           0.0000000000
    101664     18077  TIP3      OH2            25.6120664943      -23.6108252637      -26.1032715487  TIP3      16717           0.0000000000
    101665     18077  TIP3      H1             25.7494059047      -23.9348598039      -25.1802009957  TIP3      16717           0.0000000000
    101666     18077  TIP3      H2             26.4948194204      -23.2820510164      -26.3615588544  TIP3      16717           0.0000000000
    101667     18078  TIP3      OH2            27.8840051437      -22.3384525575      -26.7820454728  TIP3      16718           0.0000000000
    101668     18078  TIP3      H1             28.6196585197      -22.9114186141      -27.0537570144  TIP3      16718           0.0000000000
    101669     18078  TIP3      H2             28.2664457299      -21.8904080331      -26.0025997341  TIP3      16718           0.0000000000
    101670     18079  TIP3      OH2            32.8530769455      -39.6495226163      -27.7228189332  TIP3      16719           0.0000000000
    101671     18079  TIP3      H1             31.9865292700      -39.3874824179      -28.0652890755  TIP3      16719           0.0000000000
    101672     18079  TIP3      H2             33.0174410538      -40.4959278077      -28.1020882310  TIP3      16719           0.0000000000
    101673     18080  TIP3      OH2            18.6938029527      -21.7874162089      -29.0152019825  TIP3      16720           0.0000000000
    101674     18080  TIP3      H1             17.9667980290      -21.2874109640      -29.4147643358  TIP3      16720           0.0000000000
    101675     18080  TIP3      H2             18.3763208371      -21.9817775516      -28.1223720579  TIP3      16720           0.0000000000
    101676     18081  TIP3      OH2            21.1632408826      -22.2091755251      -29.9455506655  TIP3      16721           0.0000000000
    101677     18081  TIP3      H1             20.2712307917      -22.0605608842      -29.5520578871  TIP3      16721           0.0000000000
    101678     18081  TIP3      H2             21.1067892046      -21.6184039292      -30.7194393444  TIP3      16721           0.0000000000
    101679     18082  TIP3      OH2            25.8695390552      -22.2974888010      -30.7819263548  TIP3      16722           0.0000000000
    101680     18082  TIP3      H1             25.4051646230      -21.7384296363      -31.4249163432  TIP3      16722           0.0000000000
    101681     18082  TIP3      H2             26.0015422468      -21.6676112361      -30.0416247897  TIP3      16722           0.0000000000
    101682     18083  TIP3      OH2            28.1558976236      -23.4725597629      -29.7506422831  TIP3      16723           0.0000000000
    101683     18083  TIP3      H1             27.3026563714      -23.2047022045      -30.1316512106  TIP3      16723           0.0000000000
    101684     18083  TIP3      H2             28.6361642619      -22.6337914190      -29.8562504725  TIP3      16723           0.0000000000
    101685     18084  TIP3      OH2            30.7490921272      -21.9083799523      -29.5209822179  TIP3      16724           0.0000000000
    101686     18084  TIP3      H1             30.6822242919      -20.9513246531      -29.7547890293  TIP3      16724           0.0000000000
    101687     18084  TIP3      H2             30.9548893220      -22.2816124847      -30.3991598888  TIP3      16724           0.0000000000
    101688     18085  TIP3      OH2            18.1447399370      -23.1350763875      -32.0791876490  TIP3      16725           0.0000000000
    101689     18085  TIP3      H1             18.0611495338      -23.5936728096      -31.2170293296  TIP3      16725           0.0000000000
    101690     18085  TIP3      H2             18.9622065336      -23.5109325952      -32.4654214685  TIP3      16725           0.0000000000
    101691     18086  TIP3      OH2            20.2285508445      -24.4248876193      -33.4212682090  TIP3      16726           0.0000000000
    101692     18086  TIP3      H1             20.0625804435      -25.3593133041      -33.1944819841  TIP3      16726           0.0000000000
    101693     18086  TIP3      H2             21.0838748927      -24.2736209437      -32.9664277889  TIP3      16726           0.0000000000
    101694     18087  TIP3      OH2            22.8356659849      -23.9399057359      -32.5458340528  TIP3      16727           0.0000000000
    101695     18087  TIP3      H1             22.9892980337      -24.8662400499      -32.8088796972  TIP3      16727           0.0000000000
    101696     18087  TIP3      H2             22.8764717729      -23.9991580999      -31.5804998815  TIP3      16727           0.0000000000
    101697     18088  TIP3      OH2            26.2703822623      -38.2645901682      -33.4466052480  TIP3      16728           0.0000000000
    101698     18088  TIP3      H1             25.6028154232      -38.8904345344      -33.0836240920  TIP3      16728           0.0000000000
    101699     18088  TIP3      H2             26.7982833711      -38.9123727058      -33.8783014743  TIP3      16728           0.0000000000
    101700     18089  TIP3      OH2            31.2591848143      -40.1153735138      -33.6334547433  TIP3      16729           0.0000000000
    101701     18089  TIP3      H1             31.9645211152      -39.4594577653      -33.7396479893  TIP3      16729           0.0000000000
    101702     18089  TIP3      H2             30.3828329290      -39.6992744001      -33.5155042844  TIP3      16729           0.0000000000
    101703     18090  TIP3      OH2            33.1690625996      -38.9558231191      -35.1252319887  TIP3      16730           0.0000000000
    101704     18090  TIP3      H1             33.8458999064      -39.5691103481      -35.4698537393  TIP3      16730           0.0000000000
    101705     18090  TIP3      H2             33.7832331343      -38.1946972010      -34.9551871556  TIP3      16730           0.0000000000
    101706     18091  TIP3      OH2            18.5368187807      -39.2290147406      -35.4514406049  TIP3      16731           0.0000000000
    101707     18091  TIP3      H1             17.8714070466      -39.6173639411      -36.0270419450  TIP3      16731           0.0000000000
    101708     18091  TIP3      H2             19.0926300549      -40.0389419683      -35.3938579211  TIP3      16731           0.0000000000
    101709     18092  TIP3      OH2            17.4168101900      -39.7750530550      -39.8958959656  TIP3      16732           0.0000000000
    101710     18092  TIP3      H1             17.9199779664      -39.1351187627      -40.4163673719  TIP3      16732           0.0000000000
    101711     18092  TIP3      H2             16.8288330369      -39.2514187317      -39.3225876511  TIP3      16732           0.0000000000
    101712     18093  TIP3      OH2            23.1681710521      -39.7068337380      -35.7711314089  TIP3      16733           0.0000000000
    101713     18093  TIP3      H1             24.0660189795      -39.3736144570      -35.8074092016  TIP3      16733           0.0000000000
    101714     18093  TIP3      H2             23.1089812528      -39.9702269976      -34.8514205804  TIP3      16733           0.0000000000
    101715     18094  TIP3      OH2            28.7749956126      -39.7838514326      -34.1138393462  TIP3      16734           0.0000000000
    101716     18094  TIP3      H1             28.9382632469      -39.8931847972      -35.0438069931  TIP3      16734           0.0000000000
    101717     18094  TIP3      H2             28.4806981050      -40.7123817907      -33.9172279175  TIP3      16734           0.0000000000
    101718     18095  TIP3      OH2            30.0297125927      -39.5793883212      -38.4718529114  TIP3      16735           0.0000000000
    101719     18095  TIP3      H1             29.2759103863      -39.0534066162      -38.7619982791  TIP3      16735           0.0000000000
    101720     18095  TIP3      H2             29.6977680736      -40.4852415754      -38.3876973214  TIP3      16735           0.0000000000
    101721     18096  TIP3      OH2            17.3462614730      -23.9557263524      -38.8385200805  TIP3      16736           0.0000000000
    101722     18096  TIP3      H1             16.6670995631      -23.9610020175      -39.5418891084  TIP3      16736           0.0000000000
    101723     18096  TIP3      H2             17.3686747172      -23.0070826672      -38.6630703686  TIP3      16736           0.0000000000
    101724     18097  TIP3      OH2            19.2406346819      -38.0279355540      -41.3139761028  TIP3      16737           0.0000000000
    101725     18097  TIP3      H1             19.7952982652      -38.5940716388      -41.8570626550  TIP3      16737           0.0000000000
    101726     18097  TIP3      H2             19.8990904651      -37.6277408480      -40.7129195992  TIP3      16737           0.0000000000
    101727     18098  TIP3      OH2            24.2621501219      -37.7219146747      -38.9013155893  TIP3      16738           0.0000000000
    101728     18098  TIP3      H1             24.5265999972      -38.3040254356      -38.1782641202  TIP3      16738           0.0000000000
    101729     18098  TIP3      H2             24.3199792588      -36.8537687878      -38.4494327998  TIP3      16738           0.0000000000
    101730     18099  TIP3      OH2            26.1936227336      -22.6093048370      -40.5144057647  TIP3      16739           0.0000000000
    101731     18099  TIP3      H1             27.1401940004      -22.4403219276      -40.6704252453  TIP3      16739           0.0000000000
    101732     18099  TIP3      H2             26.0058341170      -23.1878297177      -41.2866140507  TIP3      16739           0.0000000000
    101733     18100  TIP3      OH2            32.9181465032      -23.1459109548      -37.7635394392  TIP3      16740           0.0000000000
    101734     18100  TIP3      H1             32.7135699505      -23.9236698453      -38.3411608038  TIP3      16740           0.0000000000
    101735     18100  TIP3      H2             32.8295400695      -22.4103273916      -38.3999587326  TIP3      16740           0.0000000000
    101736     18101  TIP3      OH2            18.5441981476      -39.0901623844      -26.0823693697  TIP3      16741           0.0000000000
    101737     18101  TIP3      H1             18.1873274465      -39.9039701611      -25.7112218742  TIP3      16741           0.0000000000
    101738     18101  TIP3      H2             19.4613563580      -39.1699940635      -25.7692630800  TIP3      16741           0.0000000000
    101739     18102  TIP3      OH2            20.6016224282      -39.7503165814      -24.4306349676  TIP3      16742           0.0000000000
    101740     18102  TIP3      H1             21.4420551589      -40.0952061712      -24.7591485754  TIP3      16742           0.0000000000
    101741     18102  TIP3      H2             20.1872117937      -40.5733390310      -24.1373755911  TIP3      16742           0.0000000000
    101742     18103  TIP3      OH2            19.1706983966      -22.9623965276      -41.8685425777  TIP3      16743           0.0000000000
    101743     18103  TIP3      H1             18.8750961630      -22.7074554584      -40.9902793976  TIP3      16743           0.0000000000
    101744     18103  TIP3      H2             19.9082839816      -23.5533887607      -41.6959418538  TIP3      16743           0.0000000000
    101745     18104  TIP3      OH2            29.0105706029      -40.3938980166      -24.2793371140  TIP3      16744           0.0000000000
    101746     18104  TIP3      H1             29.0983837893      -40.9567511784      -23.5214859555  TIP3      16744           0.0000000000
    101747     18104  TIP3      H2             29.8759606367      -40.4998891741      -24.7051112457  TIP3      16744           0.0000000000
    101748     18105  TIP3      OH2            32.1618825113      -24.4207948528      -25.6732841304  TIP3      16745           0.0000000000
    101749     18105  TIP3      H1             31.3613813542      -24.5460910363      -26.2183196527  TIP3      16745           0.0000000000
    101750     18105  TIP3      H2             32.0551646455      -23.4766791195      -25.4593140961  TIP3      16745           0.0000000000
    101751     18106  TIP3      OH2            37.8154326917      -31.6773610800      -30.6556044403  TIP3      16746           0.0000000000
    101752     18106  TIP3      H1             37.9290588293      -32.2365274981      -29.8658199126  TIP3      16746           0.0000000000
    101753     18106  TIP3      H2             38.5113053772      -31.0137066753      -30.4604663663  TIP3      16746           0.0000000000
    101754     18107  TIP3      OH2            38.7200512989      -27.1782675880      -32.0946458824  TIP3      16747           0.0000000000
    101755     18107  TIP3      H1             38.4269301489      -28.0319562686      -32.4608188401  TIP3      16747           0.0000000000
    101756     18107  TIP3      H2             39.6899222587      -27.3169407830      -32.0655271473  TIP3      16747           0.0000000000
    101757     18108  TIP3      OH2            35.3628290628      -33.5971753107      -36.6303841699  TIP3      16748           0.0000000000
    101758     18108  TIP3      H1             34.9727965069      -32.7036928761      -36.7196052539  TIP3      16748           0.0000000000
    101759     18108  TIP3      H2             34.8251517187      -34.0977428383      -37.2589560833  TIP3      16748           0.0000000000
    101760     18109  TIP3      OH2            36.1287916356      -31.3402336328      -34.5007246888  TIP3      16749           0.0000000000
    101761     18109  TIP3      H1             36.3649763259      -32.1742219208      -34.0732224656  TIP3      16749           0.0000000000
    101762     18109  TIP3      H2             36.8260700373      -31.2591616379      -35.1748891370  TIP3      16749           0.0000000000
    101763     18110  TIP3      OH2            39.6637967771      -36.1455790022      -33.9753493445  TIP3      16750           0.0000000000
    101764     18110  TIP3      H1             40.1392687462      -35.4417922298      -34.4929140733  TIP3      16750           0.0000000000
    101765     18110  TIP3      H2             39.6878149410      -36.8246820759      -34.6464878650  TIP3      16750           0.0000000000
    101766     18111  TIP3      OH2            36.7379662203      -33.9355455867      -33.4231008799  TIP3      16751           0.0000000000
    101767     18111  TIP3      H1             37.5049395378      -34.4586407307      -33.1127730685  TIP3      16751           0.0000000000
    101768     18111  TIP3      H2             36.8218333423      -34.1796626832      -34.3723562954  TIP3      16751           0.0000000000
    101769     18112  TIP3      OH2            39.0128991286      -37.4058414946      -30.1317388723  TIP3      16752           0.0000000000
    101770     18112  TIP3      H1             38.7206466716      -36.8769882170      -30.8993404854  TIP3      16752           0.0000000000
    101771     18112  TIP3      H2             38.3236008974      -37.2055396758      -29.4562068977  TIP3      16752           0.0000000000
    101772     18113  TIP3      OH2            38.4716218739      -35.4173060965      -31.9122561843  TIP3      16753           0.0000000000
    101773     18113  TIP3      H1             39.2634091615      -34.8415107446      -31.8005790887  TIP3      16753           0.0000000000
    101774     18113  TIP3      H2             38.9230216553      -35.9036278226      -32.6794739837  TIP3      16753           0.0000000000
    101775     18114  TIP3      OH2            39.7800707108      -27.6717801116      -29.2306923208  TIP3      16754           0.0000000000
    101776     18114  TIP3      H1             39.8614098845      -26.7208081338      -29.3878274720  TIP3      16754           0.0000000000
    101777     18114  TIP3      H2             39.0054090035      -27.7280793073      -28.6245678014  TIP3      16754           0.0000000000
    101778     18115  TIP3      OH2            36.0618186132      -28.1360560175      -38.3042256709  TIP3      16755           0.0000000000
    101779     18115  TIP3      H1             35.8219814826      -27.8241865781      -39.2011055701  TIP3      16755           0.0000000000
    101780     18115  TIP3      H2             36.1230125055      -27.3005131407      -37.7963989734  TIP3      16755           0.0000000000
    101781     18116  TIP3      OH2            40.1155133801      -30.3908971404      -35.3436130111  TIP3      16756           0.0000000000
    101782     18116  TIP3      H1             39.9834880212      -30.7650924433      -36.2372391036  TIP3      16756           0.0000000000
    101783     18116  TIP3      H2             40.8504892878      -30.9485066031      -35.0013534084  TIP3      16756           0.0000000000
    101784     18117  TIP3      OH2            38.5062264179      -31.0632783257      -27.8502547458  TIP3      16757           0.0000000000
    101785     18117  TIP3      H1             38.5872635069      -30.4227433884      -27.1171796776  TIP3      16757           0.0000000000
    101786     18117  TIP3      H2             37.5667304474      -30.9540369442      -28.0258412459  TIP3      16757           0.0000000000
    101787     18118  TIP3      OH2            39.8303403567      -25.2008456016      -26.2274016002  TIP3      16758           0.0000000000
    101788     18118  TIP3      H1             39.7878319293      -25.3457013964      -27.1892588743  TIP3      16758           0.0000000000
    101789     18118  TIP3      H2             38.8945065220      -25.3493262083      -25.9789068563  TIP3      16758           0.0000000000
    101790     18119  TIP3      OH2            39.3172781407      -31.4151167543      -37.7423649602  TIP3      16759           0.0000000000
    101791     18119  TIP3      H1             39.0231923858      -30.6177983671      -38.2369777942  TIP3      16759           0.0000000000
    101792     18119  TIP3      H2             38.5940364717      -32.0208088285      -37.9341276164  TIP3      16759           0.0000000000
    101793     18120  TIP3      OH2            35.3788630550      -28.9737547535      -28.8623245095  TIP3      16760           0.0000000000
    101794     18120  TIP3      H1             34.9155044053      -29.0422246578      -29.7126706248  TIP3      16760           0.0000000000
    101795     18120  TIP3      H2             35.4351589289      -29.9138732978      -28.6156382063  TIP3      16760           0.0000000000
    101796     18121  TIP3      OH2            35.1670578102      -26.2277136606      -32.0598143971  TIP3      16761           0.0000000000
    101797     18121  TIP3      H1             36.1261628776      -26.3391725550      -32.0729614071  TIP3      16761           0.0000000000
    101798     18121  TIP3      H2             35.0723045085      -25.4116025256      -31.5493432575  TIP3      16761           0.0000000000
    101799     18122  TIP3      OH2            38.3838307118      -23.3608539787      -35.9048322395  TIP3      16762           0.0000000000
    101800     18122  TIP3      H1             38.5622672647      -23.7825895287      -35.0399152222  TIP3      16762           0.0000000000
    101801     18122  TIP3      H2             37.5520272412      -23.8114669324      -36.1302207128  TIP3      16762           0.0000000000
    101802     18123  TIP3      OH2            37.5891920178      -27.5870967111      -27.8404738993  TIP3      16763           0.0000000000
    101803     18123  TIP3      H1             37.8871650109      -28.0277861083      -27.0166439397  TIP3      16763           0.0000000000
    101804     18123  TIP3      H2             36.7925362757      -28.0817771816      -28.1170267305  TIP3      16763           0.0000000000
    101805     18124  TIP3      OH2            40.2926732641      -39.2042647735      -31.9813364380  TIP3      16764           0.0000000000
    101806     18124  TIP3      H1             39.3944873353      -39.2343312145      -32.3493331785  TIP3      16764           0.0000000000
    101807     18124  TIP3      H2             40.2663156085      -38.3471556525      -31.5286557099  TIP3      16764           0.0000000000
    101808     18125  TIP3      OH2            40.3663663094      -34.0891092371      -30.0057534457  TIP3      16765           0.0000000000
    101809     18125  TIP3      H1             39.4415325339      -34.3045531123      -29.8985477764  TIP3      16765           0.0000000000
    101810     18125  TIP3      H2             40.3036361386      -33.5317072164      -30.8044366066  TIP3      16765           0.0000000000
    101811     18126  TIP3      OH2            40.0954166009      -34.1956496186      -35.5632759913  TIP3      16766           0.0000000000
    101812     18126  TIP3      H1             39.2211520334      -34.3911704944      -35.9469278217  TIP3      16766           0.0000000000
    101813     18126  TIP3      H2             40.7150166775      -34.4567286265      -36.2470248140  TIP3      16766           0.0000000000
    101814     18127  TIP3      OH2            37.9326268959      -33.9316368597      -29.0056200734  TIP3      16767           0.0000000000
    101815     18127  TIP3      H1             38.1291793593      -33.5228445383      -28.1285392076  TIP3      16767           0.0000000000
    101816     18127  TIP3      H2             37.6682635171      -34.8218605685      -28.7255498302  TIP3      16767           0.0000000000
    101817     18128  TIP3      OH2            34.6863462522      -36.8265281205      -35.0225554687  TIP3      16768           0.0000000000
    101818     18128  TIP3      H1             35.4130423194      -36.8325642912      -34.3515035941  TIP3      16768           0.0000000000
    101819     18128  TIP3      H2             35.1962637487      -37.1485344981      -35.8016719184  TIP3      16768           0.0000000000
    101820     18129  TIP3      OH2            36.0289161667      -36.0930431877      -39.5524466830  TIP3      16769           0.0000000000
    101821     18129  TIP3      H1             36.4910413841      -35.5463916738      -40.2339388983  TIP3      16769           0.0000000000
    101822     18129  TIP3      H2             35.3105574164      -35.4748100816      -39.3255869001  TIP3      16769           0.0000000000
    101823     18130  TIP3      OH2            37.6512332211      -35.0304693807      -35.9015268543  TIP3      16770           0.0000000000
    101824     18130  TIP3      H1             36.8411028264      -34.8406660762      -36.3981922323  TIP3      16770           0.0000000000
    101825     18130  TIP3      H2             38.0370620964      -35.8379079186      -36.3060152060  TIP3      16770           0.0000000000
    101826     18131  TIP3      OH2            40.1552150399      -33.8266555698      -40.7069548944  TIP3      16771           0.0000000000
    101827     18131  TIP3      H1             39.5260189956      -34.0783029573      -41.4119372932  TIP3      16771           0.0000000000
    101828     18131  TIP3      H2             40.9051577726      -33.5233394105      -41.2137240735  TIP3      16771           0.0000000000
    101829     18132  TIP3      OH2            38.2733706264      -29.1952079659      -25.6826327234  TIP3      16772           0.0000000000
    101830     18132  TIP3      H1             38.9372242679      -28.9007251403      -25.0427378764  TIP3      16772           0.0000000000
    101831     18132  TIP3      H2             37.4738182786      -29.0614308266      -25.1194693279  TIP3      16772           0.0000000000
    101832     18133  TIP3      OH2            39.0324093689      -37.6268263278      -36.6021032653  TIP3      16773           0.0000000000
    101833     18133  TIP3      H1             38.8333229496      -38.5658339410      -36.4778978062  TIP3      16773           0.0000000000
    101834     18133  TIP3      H2             39.9895193833      -37.6381141051      -36.7385122965  TIP3      16773           0.0000000000
    101835     18134  TIP3      OH2            38.5691991887      -29.8655031547      -33.0208356907  TIP3      16774           0.0000000000
    101836     18134  TIP3      H1             39.2879069375      -29.8966588728      -33.6950171825  TIP3      16774           0.0000000000
    101837     18134  TIP3      H2             38.6889946346      -30.7094246488      -32.5656688553  TIP3      16774           0.0000000000
    101838     18135  TIP3      OH2            35.5757474570      -31.4522200748      -27.7861836621  TIP3      16775           0.0000000000
    101839     18135  TIP3      H1             35.7394439715      -31.8429029477      -26.9015839957  TIP3      16775           0.0000000000
    101840     18135  TIP3      H2             34.9060924819      -32.0403880762      -28.1696592816  TIP3      16775           0.0000000000
    101841     18136  TIP3      OH2            36.6771974369      -31.5179658569      -41.1335554883  TIP3      16776           0.0000000000
    101842     18136  TIP3      H1             37.2949927565      -30.9028298801      -40.7031159226  TIP3      16776           0.0000000000
    101843     18136  TIP3      H2             35.8244121820      -31.2371178183      -40.7593950066  TIP3      16776           0.0000000000
    101844     18137  TIP3      OH2            37.1990136590      -36.7314202578      -28.2270354198  TIP3      16777           0.0000000000
    101845     18137  TIP3      H1             36.2937431888      -36.3771180713      -28.1842675457  TIP3      16777           0.0000000000
    101846     18137  TIP3      H2             37.0937267620      -37.5792941951      -27.7523637282  TIP3      16777           0.0000000000
    101847     18138  TIP3      OH2            36.8480174434      -24.9010779138      -29.7816090694  TIP3      16778           0.0000000000
    101848     18138  TIP3      H1             37.1179474245      -25.8318092749      -29.7579142960  TIP3      16778           0.0000000000
    101849     18138  TIP3      H2             37.1125374269      -24.6152579990      -28.8987388351  TIP3      16778           0.0000000000
    101850     18139  TIP3      OH2            38.0922015691      -29.6008805919      -39.5980477908  TIP3      16779           0.0000000000
    101851     18139  TIP3      H1             37.4157573989      -29.1998110554      -39.0130517329  TIP3      16779           0.0000000000
    101852     18139  TIP3      H2             38.6009086716      -28.8177867948      -39.8497066941  TIP3      16779           0.0000000000
    101853     18140  TIP3      OH2           -41.2318404194      -37.4923303627      -39.9095405781  TIP3      16780           0.0000000000
    101854     18140  TIP3      H1            -41.1858326383      -36.6001180165      -39.5467422916  TIP3      16780           0.0000000000
    101855     18140  TIP3      H2            -40.2987471250      -37.7162423784      -39.7422028724  TIP3      16780           0.0000000000
    101856     18141  TIP3      OH2            38.7087397059      -27.0384740182      -40.6583767517  TIP3      16781           0.0000000000
    101857     18141  TIP3      H1             39.3370245597      -26.3576665296      -40.4041341108  TIP3      16781           0.0000000000
    101858     18141  TIP3      H2             39.2066296953      -27.4497959658      -41.3886974736  TIP3      16781           0.0000000000
    101859     18142  TIP3      OH2            37.0659261481      -34.3172202113      -41.4665015789  TIP3      16782           0.0000000000
    101860     18142  TIP3      H1             37.0070158760      -33.3462249704      -41.4106307649  TIP3      16782           0.0000000000
    101861     18142  TIP3      H2             36.2154846002      -34.5360923068      -41.8713213173  TIP3      16782           0.0000000000
    101862     18143  TIP3      OH2            37.7634360876      -39.3561114738      -32.8432740903  TIP3      16783           0.0000000000
    101863     18143  TIP3      H1             37.6087500463      -39.4181093683      -33.8085753765  TIP3      16783           0.0000000000
    101864     18143  TIP3      H2             37.4950738690      -40.2655498185      -32.5610266711  TIP3      16783           0.0000000000
    101865     18144  TIP3      OH2            36.7739843830      -25.6078409352      -36.6889301336  TIP3      16784           0.0000000000
    101866     18144  TIP3      H1             35.9223906489      -25.1486344312      -36.7328376483  TIP3      16784           0.0000000000
    101867     18144  TIP3      H2             37.2840740929      -25.1391662896      -37.3590747497  TIP3      16784           0.0000000000
    101868     18145  TIP3      OH2            36.0259138441      -22.9643682186      -25.4173766481  TIP3      16785           0.0000000000
    101869     18145  TIP3      H1             36.6148947675      -23.1823290477      -24.6720455757  TIP3      16785           0.0000000000
    101870     18145  TIP3      H2             35.5788934317      -23.8169748622      -25.5740002716  TIP3      16785           0.0000000000
    101871     18146  TIP3      OH2            35.9326136390      -29.2078777510      -24.4318237773  TIP3      16786           0.0000000000
    101872     18146  TIP3      H1             36.0668251419      -30.1217552075      -24.7211681031  TIP3      16786           0.0000000000
    101873     18146  TIP3      H2             35.1543763245      -28.9184728874      -24.9304531662  TIP3      16786           0.0000000000
    101874     18147  TIP3      OH2            40.2609734114      -28.8699096141      -42.3328599682  TIP3      16787           0.0000000000
    101875     18147  TIP3      H1             40.3666574970      -29.6344270487      -41.7636183745  TIP3      16787           0.0000000000
    101876     18147  TIP3      H2             40.9225431969      -28.9582537817      -43.0232423558  TIP3      16787           0.0000000000
    101877     18148  TIP3      OH2            36.8093175701      -31.9557927570      -25.0118224546  TIP3      16788           0.0000000000
    101878     18148  TIP3      H1             37.1814791202      -32.8390994190      -25.1436953279  TIP3      16788           0.0000000000
    101879     18148  TIP3      H2             36.5612301499      -31.9590167931      -24.0683408046  TIP3      16788           0.0000000000
    101880     18149  TIP3      OH2            39.4199184286      -34.2441804672      -24.8128073930  TIP3      16789           0.0000000000
    101881     18149  TIP3      H1             38.7765378045      -34.9797047371      -24.8506479406  TIP3      16789           0.0000000000
    101882     18149  TIP3      H2             40.2038349337      -34.6868866681      -25.2078761766  TIP3      16789           0.0000000000
    101883     18150  TIP3      OH2            37.7800555079      -36.4628091272      -24.9517510908  TIP3      16790           0.0000000000
    101884     18150  TIP3      H1             37.9271423854      -37.2265084639      -25.5393819145  TIP3      16790           0.0000000000
    101885     18150  TIP3      H2             37.6193474378      -36.9071622610      -24.0890333859  TIP3      16790           0.0000000000
    101886     18151  TIP3      OH2            35.9705458127      -27.3092220272      -41.1827368364  TIP3      16791           0.0000000000
    101887     18151  TIP3      H1             36.9227907418      -27.2289570208      -40.9681229148  TIP3      16791           0.0000000000
    101888     18151  TIP3      H2             36.0053992938      -27.9203716601      -41.9298949662  TIP3      16791           0.0000000000
    101889     18152  TIP3      OH2            34.6949168624      -21.9395665962      -36.2313029106  TIP3      16792           0.0000000000
    101890     18152  TIP3      H1             33.9762598082      -22.4282575815      -36.6963852415  TIP3      16792           0.0000000000
    101891     18152  TIP3      H2             34.9861371693      -22.5980099426      -35.5735462111  TIP3      16792           0.0000000000
    101892     18153  TIP3      OH2            35.5355958385      -23.8112376951      -34.3642022187  TIP3      16793           0.0000000000
    101893     18153  TIP3      H1             35.1805526019      -24.6911614888      -34.1663738364  TIP3      16793           0.0000000000
    101894     18153  TIP3      H2             35.7614390900      -23.4814335478      -33.4794792561  TIP3      16793           0.0000000000
    101895     18154  TIP3      OH2            35.5489238468      -30.8491896068      -31.8713581091  TIP3      16794           0.0000000000
    101896     18154  TIP3      H1             35.7641900351      -30.7966825265      -32.8328758014  TIP3      16794           0.0000000000
    101897     18154  TIP3      H2             36.4572190664      -30.8569662436      -31.5184262321  TIP3      16794           0.0000000000
    101898     18155  TIP3      OH2            35.2370556474      -35.4576235959      -25.7621622280  TIP3      16795           0.0000000000
    101899     18155  TIP3      H1             36.1494981169      -35.6881881412      -25.5065897869  TIP3      16795           0.0000000000
    101900     18155  TIP3      H2             34.7484255674      -36.2552665858      -25.4459701249  TIP3      16795           0.0000000000
    101901     18156  TIP3      OH2            36.3480728259      -37.1158689542      -32.8302962856  TIP3      16796           0.0000000000
    101902     18156  TIP3      H1             36.8731458333      -37.9427086037      -32.6554126394  TIP3      16796           0.0000000000
    101903     18156  TIP3      H2             36.9886548755      -36.4737779381      -32.5088374168  TIP3      16796           0.0000000000
    101904     18157  TIP3      OH2            34.6566211767      -34.1512757481      -31.8459346234  TIP3      16797           0.0000000000
    101905     18157  TIP3      H1             35.1803039179      -34.3587149628      -32.6566786216  TIP3      16797           0.0000000000
    101906     18157  TIP3      H2             34.9273191550      -33.2408533239      -31.6426056057  TIP3      16797           0.0000000000
    101907     18158  TIP3      OH2            35.0109420849      -37.9315637170      -37.7307123238  TIP3      16798           0.0000000000
    101908     18158  TIP3      H1             34.1025419510      -37.6887151599      -37.9382613543  TIP3      16798           0.0000000000
    101909     18158  TIP3      H2             35.4886732267      -37.4308583280      -38.4346439928  TIP3      16798           0.0000000000
    101910     18159  TIP3      OH2            35.0334070417      -39.1635165070      -29.4296222302  TIP3      16799           0.0000000000
    101911     18159  TIP3      H1             34.3722315705      -39.3971725369      -28.7645882550  TIP3      16799           0.0000000000
    101912     18159  TIP3      H2             34.5442286149      -38.5635407046      -30.0110626743  TIP3      16799           0.0000000000
    101913     18160  TIP3      OH2            37.1995528166      -25.9767455969      -25.2851556822  TIP3      16800           0.0000000000
    101914     18160  TIP3      H1             36.3487105868      -25.8209455677      -25.7195652125  TIP3      16800           0.0000000000
    101915     18160  TIP3      H2             36.9199135218      -26.1119327603      -24.3689290746  TIP3      16800           0.0000000000
    101916     18161  TIP3      OH2            40.1591961132      -24.9963434232      -28.9633985104  TIP3      16801           0.0000000000
    101917     18161  TIP3      H1             39.7790746112      -24.1696298945      -29.3048774546  TIP3      16801           0.0000000000
    101918     18161  TIP3      H2             41.0690180187      -24.9224950818      -29.3162036165  TIP3      16801           0.0000000000
    101919     18162  TIP3      OH2            37.5609893436      -21.7913827554      -29.0100842328  TIP3      16802           0.0000000000
    101920     18162  TIP3      H1             36.8252248524      -21.3093157127      -29.4272077415  TIP3      16802           0.0000000000
    101921     18162  TIP3      H2             37.2098356424      -21.9827086046      -28.1292849430  TIP3      16802           0.0000000000
    101922     18163  TIP3      OH2            39.8434953188      -22.4556173505      -30.1496758375  TIP3      16803           0.0000000000
    101923     18163  TIP3      H1             39.1251987777      -22.1364306027      -29.5566770223  TIP3      16803           0.0000000000
    101924     18163  TIP3      H2             39.9829138076      -21.6543062729      -30.7031881630  TIP3      16803           0.0000000000
    101925     18164  TIP3      OH2            36.9574811517      -23.1383960026      -32.0647395476  TIP3      16804           0.0000000000
    101926     18164  TIP3      H1             36.9318325075      -23.5892790888      -31.1954613288  TIP3      16804           0.0000000000
    101927     18164  TIP3      H2             37.7917841122      -23.4882050841      -32.4525290160  TIP3      16804           0.0000000000
    101928     18165  TIP3      OH2            39.0826320117      -24.4115857589      -33.3910537694  TIP3      16805           0.0000000000
    101929     18165  TIP3      H1             38.8999040050      -25.3526530048      -33.1887574406  TIP3      16805           0.0000000000
    101930     18165  TIP3      H2             39.9307108037      -24.2965678394      -32.9497994942  TIP3      16805           0.0000000000
    101931     18166  TIP3      OH2            37.3198381744      -39.2455730970      -35.4262565379  TIP3      16806           0.0000000000
    101932     18166  TIP3      H1             36.7341045796      -39.6562793340      -36.0619668640  TIP3      16806           0.0000000000
    101933     18166  TIP3      H2             37.9310929597      -40.0240380435      -35.3491325526  TIP3      16806           0.0000000000
    101934     18167  TIP3      OH2            36.2733343532      -39.7982692748      -39.8814461192  TIP3      16807           0.0000000000
    101935     18167  TIP3      H1             36.7697990578      -39.1622543281      -40.4202756016  TIP3      16807           0.0000000000
    101936     18167  TIP3      H2             35.7038423767      -39.2524510111      -39.3275411853  TIP3      16807           0.0000000000
    101937     18168  TIP3      OH2            36.1886083235      -23.9562170871      -38.8452172495  TIP3      16808           0.0000000000
    101938     18168  TIP3      H1             35.5155924039      -23.9601972895      -39.5498561346  TIP3      16808           0.0000000000
    101939     18168  TIP3      H2             36.1977557632      -23.0092701192      -38.6500542541  TIP3      16808           0.0000000000
    101940     18169  TIP3      OH2            38.0974442319      -38.0420501803      -41.2925789038  TIP3      16809           0.0000000000
    101941     18169  TIP3      H1             38.6546400385      -38.5883715216      -41.8521192042  TIP3      16809           0.0000000000
    101942     18169  TIP3      H2             38.7859285349      -37.6221142373      -40.7237793917  TIP3      16809           0.0000000000
    101943     18170  TIP3      OH2            37.4134929685      -39.1119886358      -26.0906059231  TIP3      16810           0.0000000000
    101944     18170  TIP3      H1             37.0388813542      -39.9039067475      -25.6920393197  TIP3      16810           0.0000000000
    101945     18170  TIP3      H2             38.3248294760      -39.1756798375      -25.7469474751  TIP3      16810           0.0000000000
    101946     18171  TIP3      OH2            39.4489225475      -39.7505578063      -24.5189173699  TIP3      16811           0.0000000000
    101947     18171  TIP3      H1             40.3210119861      -40.1179877134      -24.7548312558  TIP3      16811           0.0000000000
    101948     18171  TIP3      H2             39.0525875516      -40.5365317007      -24.1118655021  TIP3      16811           0.0000000000
    101949     18172  TIP3      OH2            38.0335187584      -22.9625751251      -41.8796400871  TIP3      16812           0.0000000000
    101950     18172  TIP3      H1             37.7496654580      -22.6782896491      -40.9990055618  TIP3      16812           0.0000000000
    101951     18172  TIP3      H2             38.7817096194      -23.5459626118      -41.7248417841  TIP3      16812           0.0000000000
    101952     18173  TIP3      OH2           -28.8278381256      -11.6724579951      -35.7037149761  TIP3      16813           0.0000000000
    101953     18173  TIP3      H1            -28.8320925784      -10.6906046404      -35.7407909350  TIP3      16813           0.0000000000
    101954     18173  TIP3      H2            -29.5524913170      -11.9062583821      -36.3056944619  TIP3      16813           0.0000000000
    101955     18174  TIP3      OH2           -30.0535717929      -12.3828852102      -32.1629225305  TIP3      16814           0.0000000000
    101956     18174  TIP3      H1            -29.9454896271      -13.0922271032      -31.5082777283  TIP3      16814           0.0000000000
    101957     18174  TIP3      H2            -30.2820340917      -12.9019229387      -32.9573584956  TIP3      16814           0.0000000000
    101958     18175  TIP3      OH2           -37.6025180970      -12.8057081638      -30.7069621758  TIP3      16815           0.0000000000
    101959     18175  TIP3      H1            -37.5482061155      -13.4276315710      -29.9520198813  TIP3      16815           0.0000000000
    101960     18175  TIP3      H2            -36.9436081163      -12.1579600469      -30.4207682244  TIP3      16815           0.0000000000
    101961     18176  TIP3      OH2           -26.2774534931       -9.4661820721      -33.9124579919  TIP3      16816           0.0000000000
    101962     18176  TIP3      H1            -26.7005662095      -10.1799793413      -33.4237439439  TIP3      16816           0.0000000000
    101963     18176  TIP3      H2            -26.2623597801       -8.7559152430      -33.2435042713  TIP3      16816           0.0000000000
    101964     18177  TIP3      OH2           -36.6992074835       -8.2957859993      -32.1473760925  TIP3      16817           0.0000000000
    101965     18177  TIP3      H1            -37.0135286442       -9.1672008950      -32.4650051647  TIP3      16817           0.0000000000
    101966     18177  TIP3      H2            -35.7441654046       -8.4818193107      -32.1173309331  TIP3      16817           0.0000000000
    101967     18178  TIP3      OH2           -39.7373322180      -14.4243365262      -37.2314129598  TIP3      16818           0.0000000000
    101968     18178  TIP3      H1            -40.3106081254      -13.8008469803      -36.7443608573  TIP3      16818           0.0000000000
    101969     18178  TIP3      H2            -40.3978824749      -15.0788096737      -37.4424397194  TIP3      16818           0.0000000000
    101970     18179  TIP3      OH2           -39.1759000655      -12.5525152724      -34.4536595865  TIP3      16819           0.0000000000
    101971     18179  TIP3      H1            -39.0080009867      -13.4166774653      -34.0248376941  TIP3      16819           0.0000000000
    101972     18179  TIP3      H2            -38.5369248445      -12.4728197895      -35.1715772788  TIP3      16819           0.0000000000
    101973     18180  TIP3      OH2           -29.1557125924       -4.3059107019      -33.6790206890  TIP3      16820           0.0000000000
    101974     18180  TIP3      H1            -28.5090869696       -4.9954200914      -33.9694793998  TIP3      16820           0.0000000000
    101975     18180  TIP3      H2            -29.3720599979       -4.6396834890      -32.8087800579  TIP3      16820           0.0000000000
    101976     18181  TIP3      OH2           -31.5042073333       -9.9182989652      -31.8919718970  TIP3      16821           0.0000000000
    101977     18181  TIP3      H1            -31.2034471097      -10.6178878169      -32.5070535791  TIP3      16821           0.0000000000
    101978     18181  TIP3      H2            -30.6742818253       -9.7494832347      -31.4032420852  TIP3      16821           0.0000000000
    101979     18182  TIP3      OH2           -22.9966829128      -18.3498857253      -31.0027735948  TIP3      16822           0.0000000000
    101980     18182  TIP3      H1            -22.8129640540      -17.7679477261      -30.2481710639  TIP3      16822           0.0000000000
    101981     18182  TIP3      H2            -22.4315338947      -17.9421167424      -31.6774212134  TIP3      16822           0.0000000000
    101982     18183  TIP3      OH2           -28.4208823753      -15.5434753172      -31.4189905415  TIP3      16823           0.0000000000
    101983     18183  TIP3      H1            -28.2605440915      -16.5029279938      -31.4165955134  TIP3      16823           0.0000000000
    101984     18183  TIP3      H2            -28.5294968232      -15.4036488545      -32.3795681127  TIP3      16823           0.0000000000
    101985     18184  TIP3      OH2           -35.3148700108      -17.4574755021      -34.2040313354  TIP3      16824           0.0000000000
    101986     18184  TIP3      H1            -35.1992041887      -16.6200733330      -34.6881639463  TIP3      16824           0.0000000000
    101987     18184  TIP3      H2            -35.7055275568      -18.0285736510      -34.8997362113  TIP3      16824           0.0000000000
    101988     18185  TIP3      OH2           -27.5751410802      -17.3785273376      -35.8269552562  TIP3      16825           0.0000000000
    101989     18185  TIP3      H1            -26.9183004700      -17.6895813842      -35.1615907771  TIP3      16825           0.0000000000
    101990     18185  TIP3      H2            -27.0144483552      -16.8060611520      -36.3721731038  TIP3      16825           0.0000000000
    101991     18186  TIP3      OH2           -38.4930742070      -15.0392832024      -33.5155520928  TIP3      16826           0.0000000000
    101992     18186  TIP3      H1            -37.9338153648      -15.6630243295      -33.0348771309  TIP3      16826           0.0000000000
    101993     18186  TIP3      H2            -38.5409636598      -15.4195891498      -34.4054147771  TIP3      16826           0.0000000000
    101994     18187  TIP3      OH2           -33.5218721698      -13.4841348801      -34.1262597802  TIP3      16827           0.0000000000
    101995     18187  TIP3      H1            -32.8547452247      -14.0876890685      -33.7607146459  TIP3      16827           0.0000000000
    101996     18187  TIP3      H2            -34.0438141665      -14.1322708014      -34.6440129411  TIP3      16827           0.0000000000
    101997     18188  TIP3      OH2           -22.5367814367      -16.9327143682      -28.7150757920  TIP3      16828           0.0000000000
    101998     18188  TIP3      H1            -23.2019283452      -16.2350144077      -28.9238291474  TIP3      16828           0.0000000000
    101999     18188  TIP3      H2            -22.5079246841      -17.1422766770      -27.7733909864  TIP3      16828           0.0000000000
    102000     18189  TIP3      OH2           -36.4026760981      -18.5566002200      -30.1694021752  TIP3      16829           0.0000000000
    102001     18189  TIP3      H1            -36.7028171281      -18.0020480363      -30.9200794049  TIP3      16829           0.0000000000
    102002     18189  TIP3      H2            -37.0916693121      -18.3366812171      -29.4936685301  TIP3      16829           0.0000000000
    102003     18190  TIP3      OH2           -29.1077254891       -9.0721494793      -36.6163082392  TIP3      16830           0.0000000000
    102004     18190  TIP3      H1            -29.3994887475       -9.3664832222      -37.4865962380  TIP3      16830           0.0000000000
    102005     18190  TIP3      H2            -29.4209513336       -8.1408391444      -36.5620187297  TIP3      16830           0.0000000000
    102006     18191  TIP3      OH2           -33.9872170546      -10.9149121992      -29.8949419375  TIP3      16831           0.0000000000
    102007     18191  TIP3      H1            -34.7642139288      -10.3413408252      -29.6439776030  TIP3      16831           0.0000000000
    102008     18191  TIP3      H2            -33.4619846978      -10.1897752485      -30.2082254737  TIP3      16831           0.0000000000
    102009     18192  TIP3      OH2           -25.7668114793      -18.0333061466      -33.8420674567  TIP3      16832           0.0000000000
    102010     18192  TIP3      H1            -25.9830889889      -18.8009140448      -33.3058479308  TIP3      16832           0.0000000000
    102011     18192  TIP3      H2            -25.0945353878      -17.5956752703      -33.2964696996  TIP3      16832           0.0000000000
    102012     18193  TIP3      OH2           -36.8488359345      -16.7126072599      -32.1188575037  TIP3      16833           0.0000000000
    102013     18193  TIP3      H1            -36.2281417149      -16.0132455148      -31.8060020361  TIP3      16833           0.0000000000
    102014     18193  TIP3      H2            -36.3250018473      -17.1200832498      -32.8529646733  TIP3      16833           0.0000000000
    102015     18194  TIP3      OH2           -35.4594645839       -8.9137813072      -29.1068501672  TIP3      16834           0.0000000000
    102016     18194  TIP3      H1            -35.5009034176       -7.9877281367      -29.4216084626  TIP3      16834           0.0000000000
    102017     18194  TIP3      H2            -36.3456801319       -8.9924700009      -28.6745484907  TIP3      16834           0.0000000000
    102018     18195  TIP3      OH2           -39.3796191521       -9.2769884913      -38.3051269734  TIP3      16835           0.0000000000
    102019     18195  TIP3      H1            -39.5912161016       -9.0033803710      -39.2103083987  TIP3      16835           0.0000000000
    102020     18195  TIP3      H2            -39.3027270404       -8.4408924788      -37.8124607010  TIP3      16835           0.0000000000
    102021     18196  TIP3      OH2           -25.7530254087       -7.6305606344      -31.5473113429  TIP3      16836           0.0000000000
    102022     18196  TIP3      H1            -26.7190850681       -7.5193117636      -31.4288606139  TIP3      16836           0.0000000000
    102023     18196  TIP3      H2            -25.4798602878       -6.7138379538      -31.7451258236  TIP3      16836           0.0000000000
    102024     18197  TIP3      OH2           -25.4054523302      -19.3141524944      -30.1174767743  TIP3      16837           0.0000000000
    102025     18197  TIP3      H1            -26.1648129827      -18.7366081466      -30.2696361548  TIP3      16837           0.0000000000
    102026     18197  TIP3      H2            -24.7235300957      -18.9353585442      -30.7054923130  TIP3      16837           0.0000000000
    102027     18198  TIP3      OH2           -32.4585564273      -21.2245109069      -32.6957502787  TIP3      16838           0.0000000000
    102028     18198  TIP3      H1            -32.5955906299      -22.1880914870      -32.7670593520  TIP3      16838           0.0000000000
    102029     18198  TIP3      H2            -33.3377313516      -20.9199265666      -32.3907829102  TIP3      16838           0.0000000000
    102030     18199  TIP3      OH2           -27.4914588766       -5.8440564849      -34.9595283899  TIP3      16839           0.0000000000
    102031     18199  TIP3      H1            -27.0623692050       -6.5629973635      -35.4672976258  TIP3      16839           0.0000000000
    102032     18199  TIP3      H2            -27.0667931776       -5.0535287812      -35.3540920286  TIP3      16839           0.0000000000
    102033     18200  TIP3      OH2           -26.2817709372       -7.9180087448      -36.4452974211  TIP3      16840           0.0000000000
    102034     18200  TIP3      H1            -26.5706203650       -8.6139077172      -37.0594647078  TIP3      16840           0.0000000000
    102035     18200  TIP3      H2            -26.2485343009       -8.4097006814      -35.6043110468  TIP3      16840           0.0000000000
    102036     18201  TIP3      OH2           -24.6598230698       -9.2972252677      -28.0005213948  TIP3      16841           0.0000000000
    102037     18201  TIP3      H1            -24.5120144063       -9.9597315814      -28.6969282712  TIP3      16841           0.0000000000
    102038     18201  TIP3      H2            -24.4439898739       -8.4552859988      -28.4068881450  TIP3      16841           0.0000000000
    102039     18202  TIP3      OH2           -30.1662388480      -12.4385010777      -38.1744167427  TIP3      16842           0.0000000000
    102040     18202  TIP3      H1            -30.8623638914      -11.8688138064      -38.5450066414  TIP3      16842           0.0000000000
    102041     18202  TIP3      H2            -29.4610608160      -12.3473712591      -38.8451967146  TIP3      16842           0.0000000000
    102042     18203  TIP3      OH2           -30.0969838873      -13.8858581317      -41.1301308705  TIP3      16843           0.0000000000
    102043     18203  TIP3      H1            -29.3805578765      -13.8890125377      -40.4770056363  TIP3      16843           0.0000000000
    102044     18203  TIP3      H2            -29.8061234545      -14.5850993537      -41.7242495933  TIP3      16843           0.0000000000
    102045     18204  TIP3      OH2           -22.7763881745      -13.0353151938      -29.9080234832  TIP3      16844           0.0000000000
    102046     18204  TIP3      H1            -23.4185163270      -12.2887164612      -29.8476151650  TIP3      16844           0.0000000000
    102047     18204  TIP3      H2            -22.2857634320      -12.7735657456      -30.7155482767  TIP3      16844           0.0000000000
    102048     18205  TIP3      OH2           -26.7140123173      -12.2060757931      -37.2461144136  TIP3      16845           0.0000000000
    102049     18205  TIP3      H1            -27.4690524619      -11.9787749597      -36.6537635376  TIP3      16845           0.0000000000
    102050     18205  TIP3      H2            -26.2536412077      -12.9002285822      -36.7416847059  TIP3      16845           0.0000000000
    102051     18206  TIP3      OH2           -26.7746384900      -14.0885124362      -28.2255926409  TIP3      16846           0.0000000000
    102052     18206  TIP3      H1            -26.7992128462      -13.3008267253      -27.6087329324  TIP3      16846           0.0000000000
    102053     18206  TIP3      H2            -27.4369946510      -13.7526831504      -28.8509628452  TIP3      16846           0.0000000000
    102054     18207  TIP3      OH2           -35.1068453712      -11.5562068969      -35.3431955609  TIP3      16847           0.0000000000
    102055     18207  TIP3      H1            -35.4547416168      -11.9509625398      -36.1780071878  TIP3      16847           0.0000000000
    102056     18207  TIP3      H2            -34.5006704163      -12.2596779925      -35.0241471291  TIP3      16847           0.0000000000
    102057     18208  TIP3      OH2           -33.8193883877       -8.2177605415      -32.6281256118  TIP3      16848           0.0000000000
    102058     18208  TIP3      H1            -33.8074790448       -8.6750491324      -33.4813365507  TIP3      16848           0.0000000000
    102059     18208  TIP3      H2            -32.9792094927       -8.5033092301      -32.2427609198  TIP3      16848           0.0000000000
    102060     18209  TIP3      OH2           -34.7523193354      -12.8380568565      -31.6834875564  TIP3      16849           0.0000000000
    102061     18209  TIP3      H1            -34.2402413186      -12.7229254242      -32.5111819395  TIP3      16849           0.0000000000
    102062     18209  TIP3      H2            -34.4442353069      -12.1351493011      -31.0866826229  TIP3      16849           0.0000000000
    102063     18210  TIP3      OH2           -28.3891127181       -7.2542757138      -30.9828852766  TIP3      16850           0.0000000000
    102064     18210  TIP3      H1            -28.6473144090       -6.5952144989      -30.3264356048  TIP3      16850           0.0000000000
    102065     18210  TIP3      H2            -28.5889299426       -8.1006859624      -30.5400585450  TIP3      16850           0.0000000000
    102066     18211  TIP3      OH2           -33.8228169913       -8.3885967990      -27.0001973322  TIP3      16851           0.0000000000
    102067     18211  TIP3      H1            -34.2151504500       -7.6388860375      -26.5073451466  TIP3      16851           0.0000000000
    102068     18211  TIP3      H2            -34.5369713853       -8.5734246125      -27.6516669458  TIP3      16851           0.0000000000
    102069     18212  TIP3      OH2           -27.8437024793      -13.0375535729      -39.5839263446  TIP3      16852           0.0000000000
    102070     18212  TIP3      H1            -27.2870381817      -12.8510746016      -38.7866718453  TIP3      16852           0.0000000000
    102071     18212  TIP3      H2            -27.4272857494      -12.5165237530      -40.3031276263  TIP3      16852           0.0000000000
    102072     18213  TIP3      OH2           -36.8655920110      -12.2010968867      -27.8246761937  TIP3      16853           0.0000000000
    102073     18213  TIP3      H1            -36.8570418658      -11.5386289631      -27.1066072276  TIP3      16853           0.0000000000
    102074     18213  TIP3      H2            -37.8010979982      -12.1193199131      -28.0777534788  TIP3      16853           0.0000000000
    102075     18214  TIP3      OH2           -30.1354479152       -6.3040230129      -36.1184466578  TIP3      16854           0.0000000000
    102076     18214  TIP3      H1            -29.6957424777       -5.9929733012      -35.3200084888  TIP3      16854           0.0000000000
    102077     18214  TIP3      H2            -30.6884780462       -5.5521856276      -36.3620222280  TIP3      16854           0.0000000000
    102078     18215  TIP3      OH2           -35.6060609957       -6.3791257718      -26.2498120145  TIP3      16855           0.0000000000
    102079     18215  TIP3      H1            -35.6445137675       -6.4645515614      -27.2204470448  TIP3      16855           0.0000000000
    102080     18215  TIP3      H2            -36.5441447383       -6.4643301635      -25.9950222926  TIP3      16855           0.0000000000
    102081     18216  TIP3      OH2           -24.1302911559      -21.2937722977      -39.6929227201  TIP3      16856           0.0000000000
    102082     18216  TIP3      H1            -25.0854801107      -21.1897903763      -39.4612251083  TIP3      16856           0.0000000000
    102083     18216  TIP3      H2            -23.9219462274      -20.4447328398      -40.1149781476  TIP3      16856           0.0000000000
    102084     18217  TIP3      OH2           -36.1296486471      -12.5346716162      -37.7133696655  TIP3      16857           0.0000000000
    102085     18217  TIP3      H1            -36.4194509992      -11.7578119786      -38.2364206134  TIP3      16857           0.0000000000
    102086     18217  TIP3      H2            -36.7968013617      -13.1921160635      -37.9494393381  TIP3      16857           0.0000000000
    102087     18218  TIP3      OH2           -23.0283596060       -6.9392833776      -41.2579474159  TIP3      16858           0.0000000000
    102088     18218  TIP3      H1            -22.8816821928       -5.9803177852      -41.2182386855  TIP3      16858           0.0000000000
    102089     18218  TIP3      H2            -22.1159267059       -7.2365503321      -41.4336875319  TIP3      16858           0.0000000000
    102090     18219  TIP3      OH2           -39.6232231909      -10.3502178540      -29.0364949815  TIP3      16859           0.0000000000
    102091     18219  TIP3      H1            -40.3962033273      -10.1407371318      -29.6052238963  TIP3      16859           0.0000000000
    102092     18219  TIP3      H2            -39.9899585244      -11.1369515982      -28.6029340929  TIP3      16859           0.0000000000
    102093     18220  TIP3      OH2           -40.2427787381       -7.3202875230      -32.1266049864  TIP3      16860           0.0000000000
    102094     18220  TIP3      H1            -39.3089359632       -7.5590025773      -32.0436826353  TIP3      16860           0.0000000000
    102095     18220  TIP3      H2            -40.3563995106       -6.5813332993      -31.5199745306  TIP3      16860           0.0000000000
    102096     18221  TIP3      OH2           -22.0408501728       -6.6681896753      -26.3843912244  TIP3      16861           0.0000000000
    102097     18221  TIP3      H1            -22.1774250192       -7.6328056416      -26.3837686307  TIP3      16861           0.0000000000
    102098     18221  TIP3      H2            -22.9169467624       -6.4326984917      -25.9841923796  TIP3      16861           0.0000000000
    102099     18222  TIP3      OH2           -31.0865283030       -7.1344761010      -27.5279724266  TIP3      16862           0.0000000000
    102100     18222  TIP3      H1            -31.0227434847       -6.2984419198      -27.0044027006  TIP3      16862           0.0000000000
    102101     18222  TIP3      H2            -31.9533350374       -7.4762744696      -27.2434043695  TIP3      16862           0.0000000000
    102102     18223  TIP3      OH2           -30.6623873516       -3.3833476448      -37.7179099538  TIP3      16863           0.0000000000
    102103     18223  TIP3      H1            -30.7500459084       -3.4596770505      -38.6807480901  TIP3      16863           0.0000000000
    102104     18223  TIP3      H2            -30.6298295112       -2.4250514087      -37.5596690977  TIP3      16863           0.0000000000
    102105     18224  TIP3      OH2           -37.0144577226       -4.5202052003      -35.9064155789  TIP3      16864           0.0000000000
    102106     18224  TIP3      H1            -36.8800223003       -4.9252900429      -35.0235998969  TIP3      16864           0.0000000000
    102107     18224  TIP3      H2            -37.8686044041       -4.9177259481      -36.1392181794  TIP3      16864           0.0000000000
    102108     18225  TIP3      OH2           -27.6431967450       -4.1996948832      -40.7591954727  TIP3      16865           0.0000000000
    102109     18225  TIP3      H1            -27.1375810324       -4.9357872468      -41.1728454785  TIP3      16865           0.0000000000
    102110     18225  TIP3      H2            -27.5566019939       -4.4396524074      -39.8162243760  TIP3      16865           0.0000000000
    102111     18226  TIP3      OH2           -27.9096694895       -4.2399377640      -37.9510778432  TIP3      16866           0.0000000000
    102112     18226  TIP3      H1            -28.8653194527       -4.1716475090      -37.7612060033  TIP3      16866           0.0000000000
    102113     18226  TIP3      H2            -27.6597915763       -4.9849092571      -37.3850979818  TIP3      16866           0.0000000000
    102114     18227  TIP3      OH2           -25.1066675454      -15.2809860080      -25.8055515211  TIP3      16867           0.0000000000
    102115     18227  TIP3      H1            -25.5406075717      -14.7140006193      -26.4950396761  TIP3      16867           0.0000000000
    102116     18227  TIP3      H2            -25.1339179503      -16.1721475494      -26.1891690850  TIP3      16867           0.0000000000
    102117     18228  TIP3      OH2           -37.8142390184       -8.7415102971      -27.8724314632  TIP3      16868           0.0000000000
    102118     18228  TIP3      H1            -37.5855831210       -9.1627189362      -27.0206961775  TIP3      16868           0.0000000000
    102119     18228  TIP3      H2            -38.6441412290       -9.2079511291      -28.1365393368  TIP3      16868           0.0000000000
    102120     18229  TIP3      OH2           -35.0713471127      -20.3206958149      -31.9394798981  TIP3      16869           0.0000000000
    102121     18229  TIP3      H1            -35.9784061169      -20.4350584998      -32.3117505046  TIP3      16869           0.0000000000
    102122     18229  TIP3      H2            -35.2072307974      -19.4881336189      -31.4603958733  TIP3      16869           0.0000000000
    102123     18230  TIP3      OH2           -30.4427324738      -20.6541274393      -28.5777030653  TIP3      16870           0.0000000000
    102124     18230  TIP3      H1            -30.0501998457      -21.0756460217      -27.7884587743  TIP3      16870           0.0000000000
    102125     18230  TIP3      H2            -31.4136152300      -20.7769309841      -28.4373969076  TIP3      16870           0.0000000000
    102126     18231  TIP3      OH2           -27.1099968874      -16.7881789268      -27.6487659260  TIP3      16871           0.0000000000
    102127     18231  TIP3      H1            -27.7311153090      -17.0254127459      -26.9122343121  TIP3      16871           0.0000000000
    102128     18231  TIP3      H2            -27.3653001189      -15.8908642901      -27.9250230744  TIP3      16871           0.0000000000
    102129     18232  TIP3      OH2           -26.3920888411      -12.0171207121      -41.8900450871  TIP3      16872           0.0000000000
    102130     18232  TIP3      H1            -26.3782542408      -12.1906496897      -42.8438814516  TIP3      16872           0.0000000000
    102131     18232  TIP3      H2            -25.5544545380      -11.5532859662      -41.7391247281  TIP3      16872           0.0000000000
    102132     18233  TIP3      OH2           -30.8083256857      -18.0836177309      -41.2385122770  TIP3      16873           0.0000000000
    102133     18233  TIP3      H1            -31.1236377131      -18.1250242454      -40.3177116696  TIP3      16873           0.0000000000
    102134     18233  TIP3      H2            -31.0814737424      -18.9597554556      -41.5254044487  TIP3      16873           0.0000000000
    102135     18234  TIP3      OH2           -34.9981888951      -15.3454688938      -30.6884629647  TIP3      16874           0.0000000000
    102136     18234  TIP3      H1            -35.7326398719      -15.3590275677      -30.0530323306  TIP3      16874           0.0000000000
    102137     18234  TIP3      H2            -35.0497402573      -14.4451508269      -31.0758804381  TIP3      16874           0.0000000000
    102138     18235  TIP3      OH2           -35.0159306060      -15.2139228014      -35.8155716218  TIP3      16875           0.0000000000
    102139     18235  TIP3      H1            -35.9582319868      -15.4748990073      -35.9536243822  TIP3      16875           0.0000000000
    102140     18235  TIP3      H2            -34.6411915895      -15.5207998967      -36.6660540768  TIP3      16875           0.0000000000
    102141     18236  TIP3      OH2           -29.5021726072      -14.7326924775      -37.0544861032  TIP3      16876           0.0000000000
    102142     18236  TIP3      H1            -29.9095602950      -13.9055911336      -37.4030530272  TIP3      16876           0.0000000000
    102143     18236  TIP3      H2            -28.8183625249      -14.8947238177      -37.7305057884  TIP3      16876           0.0000000000
    102144     18237  TIP3      OH2           -30.4223721489      -14.5223722699      -25.6618416675  TIP3      16877           0.0000000000
    102145     18237  TIP3      H1            -30.9489709832      -15.2832131221      -25.3120325382  TIP3      16877           0.0000000000
    102146     18237  TIP3      H2            -29.6062463791      -14.6122952203      -25.1247613941  TIP3      16877           0.0000000000
    102147     18238  TIP3      OH2           -28.4691199014      -15.2390174364      -34.2148140806  TIP3      16878           0.0000000000
    102148     18238  TIP3      H1            -28.7467065560      -14.6779360729      -34.9579693507  TIP3      16878           0.0000000000
    102149     18238  TIP3      H2            -28.3692796049      -16.0897409164      -34.6836417075  TIP3      16878           0.0000000000
    102150     18239  TIP3      OH2           -37.3598162033      -15.0666391577      -28.9795154912  TIP3      16879           0.0000000000
    102151     18239  TIP3      H1            -37.3258742922      -14.6725300010      -28.0937327778  TIP3      16879           0.0000000000
    102152     18239  TIP3      H2            -37.8080757323      -15.9084683315      -28.8041465833  TIP3      16879           0.0000000000
    102153     18240  TIP3      OH2           -33.9629784416      -17.7564303237      -42.1864254856  TIP3      16880           0.0000000000
    102154     18240  TIP3      H1            -34.4151605852      -18.1291967535      -41.4100587345  TIP3      16880           0.0000000000
    102155     18240  TIP3      H2            -34.6629965998      -17.2931527108      -42.6631430022  TIP3      16880           0.0000000000
    102156     18241  TIP3      OH2           -39.9091809826      -17.8786507606      -35.5351008058  TIP3      16881           0.0000000000
    102157     18241  TIP3      H1            -39.9956785391      -18.0728607712      -34.5665023675  TIP3      16881           0.0000000000
    102158     18241  TIP3      H2            -39.9979899882      -18.7544600998      -35.9508991488  TIP3      16881           0.0000000000
    102159     18242  TIP3      OH2           -39.2636204743      -17.0589857443      -39.4870765281  TIP3      16882           0.0000000000
    102160     18242  TIP3      H1            -38.8663521092      -16.5875274683      -40.2574837745  TIP3      16882           0.0000000000
    102161     18242  TIP3      H2            -40.0572753822      -16.5292128308      -39.3776907867  TIP3      16882           0.0000000000
    102162     18243  TIP3      OH2           -29.3436334856      -13.6350160255      -29.6801508861  TIP3      16883           0.0000000000
    102163     18243  TIP3      H1            -28.8964213700      -14.3173995383      -30.2323543410  TIP3      16883           0.0000000000
    102164     18243  TIP3      H2            -29.7111809657      -14.1966423304      -28.9696512097  TIP3      16883           0.0000000000
    102165     18244  TIP3      OH2           -32.4627858979      -17.6776921300      -34.8225880522  TIP3      16884           0.0000000000
    102166     18244  TIP3      H1            -33.3967144992      -17.6727185578      -34.5306667841  TIP3      16884           0.0000000000
    102167     18244  TIP3      H2            -31.9806165195      -17.8389913615      -33.9976238623  TIP3      16884           0.0000000000
    102168     18245  TIP3      OH2           -37.6245057765      -16.1086324086      -35.9834652597  TIP3      16885           0.0000000000
    102169     18245  TIP3      H1            -38.5149834254      -15.9834993594      -36.3524954719  TIP3      16885           0.0000000000
    102170     18245  TIP3      H2            -37.3948659993      -16.9844484588      -36.3534684765  TIP3      16885           0.0000000000
    102171     18246  TIP3      OH2           -34.0208343228      -16.0644351319      -38.3085781786  TIP3      16886           0.0000000000
    102172     18246  TIP3      H1            -33.0600933041      -15.9707845755      -38.1682002712  TIP3      16886           0.0000000000
    102173     18246  TIP3      H2            -34.2630267526      -15.4130519266      -38.9940816895  TIP3      16886           0.0000000000
    102174     18247  TIP3      OH2           -28.0532611295      -18.4454475681      -31.5793292455  TIP3      16887           0.0000000000
    102175     18247  TIP3      H1            -28.7422385130      -18.3896335140      -30.8765676098  TIP3      16887           0.0000000000
    102176     18247  TIP3      H2            -28.5673508923      -18.6914862945      -32.3636364695  TIP3      16887           0.0000000000
    102177     18248  TIP3      OH2           -35.2836053353      -14.8900356243      -40.7058943628  TIP3      16888           0.0000000000
    102178     18248  TIP3      H1            -35.8476431299      -15.2437294865      -41.4101201528  TIP3      16888           0.0000000000
    102179     18248  TIP3      H2            -34.4877786384      -14.6727343043      -41.2098656351  TIP3      16888           0.0000000000
    102180     18249  TIP3      OH2           -24.8695506633       -2.7856028766      -25.2327890466  TIP3      16889           0.0000000000
    102181     18249  TIP3      H1            -24.5753095354       -2.4304289883      -26.0919596821  TIP3      16889           0.0000000000
    102182     18249  TIP3      H2            -24.1375087853       -2.4966319220      -24.6600842828  TIP3      16889           0.0000000000
    102183     18250  TIP3      OH2           -37.0543113002      -10.3493756560      -25.7209457328  TIP3      16890           0.0000000000
    102184     18250  TIP3      H1            -36.4016884401      -10.0938554103      -25.0691273574  TIP3      16890           0.0000000000
    102185     18250  TIP3      H2            -37.8766900045      -10.2383708725      -25.1893770017  TIP3      16890           0.0000000000
    102186     18251  TIP3      OH2           -31.1796694561      -14.9099988787      -32.9082849938  TIP3      16891           0.0000000000
    102187     18251  TIP3      H1            -30.6002072461      -15.4496815474      -33.4661172308  TIP3      16891           0.0000000000
    102188     18251  TIP3      H2            -31.3324691615      -15.4881253516      -32.1480105026  TIP3      16891           0.0000000000
    102189     18252  TIP3      OH2           -36.2135836881      -18.7648179265      -36.5176960102  TIP3      16892           0.0000000000
    102190     18252  TIP3      H1            -36.4989516438      -19.6979944670      -36.5022045420  TIP3      16892           0.0000000000
    102191     18252  TIP3      H2            -35.3899905071      -18.8342284005      -37.0262264043  TIP3      16892           0.0000000000
    102192     18253  TIP3      OH2           -32.5357611944      -16.5741370820      -30.5260257241  TIP3      16893           0.0000000000
    102193     18253  TIP3      H1            -33.3769830208      -16.0874210188      -30.4181450898  TIP3      16893           0.0000000000
    102194     18253  TIP3      H2            -31.9918317497      -16.2572319290      -29.7802947586  TIP3      16893           0.0000000000
    102195     18254  TIP3      OH2           -31.9553849908      -10.3596531791      -38.8302885845  TIP3      16894           0.0000000000
    102196     18254  TIP3      H1            -32.7539881480      -10.8397386954      -39.1435210703  TIP3      16894           0.0000000000
    102197     18254  TIP3      H2            -32.1658363575      -10.2547126151      -37.8806785684  TIP3      16894           0.0000000000
    102198     18255  TIP3      OH2           -24.7525693727      -11.2311362443      -30.0549078198  TIP3      16895           0.0000000000
    102199     18255  TIP3      H1            -24.2098789992      -10.6749458603      -30.6390442427  TIP3      16895           0.0000000000
    102200     18255  TIP3      H2            -25.6347072905      -11.1100343491      -30.4615844198  TIP3      16895           0.0000000000
    102201     18256  TIP3      OH2           -28.1225110113      -17.5857925140      -40.5992813626  TIP3      16896           0.0000000000
    102202     18256  TIP3      H1            -29.0591453815      -17.4261325382      -40.8075325350  TIP3      16896           0.0000000000
    102203     18256  TIP3      H2            -27.7950137300      -16.7056547872      -40.3294171938  TIP3      16896           0.0000000000
    102204     18257  TIP3      OH2           -30.6273231268      -10.1112356652      -27.6739232217  TIP3      16897           0.0000000000
    102205     18257  TIP3      H1            -30.7528823362      -10.5154160684      -26.7927969520  TIP3      16897           0.0000000000
    102206     18257  TIP3      H2            -30.6526710855       -9.1714134521      -27.4319398971  TIP3      16897           0.0000000000
    102207     18258  TIP3      OH2           -27.3857423933      -15.6343283954      -38.9675462407  TIP3      16898           0.0000000000
    102208     18258  TIP3      H1            -26.4919276700      -15.7754067296      -38.5961829999  TIP3      16898           0.0000000000
    102209     18258  TIP3      H2            -27.3001434765      -14.8242631910      -39.4942000493  TIP3      16898           0.0000000000
    102210     18259  TIP3      OH2           -36.8179652409      -10.9615234683      -32.9852421939  TIP3      16899           0.0000000000
    102211     18259  TIP3      H1            -36.1874133531      -11.0571098084      -33.7183864412  TIP3      16899           0.0000000000
    102212     18259  TIP3      H2            -36.7993824897      -11.8413112186      -32.5725241086  TIP3      16899           0.0000000000
    102213     18260  TIP3      OH2           -29.8698672076       -8.8991707231      -39.7633834433  TIP3      16900           0.0000000000
    102214     18260  TIP3      H1            -30.2155520375       -8.0496346406      -39.4043384566  TIP3      16900           0.0000000000
    102215     18260  TIP3      H2            -30.6066301177       -9.5143753056      -39.5490261655  TIP3      16900           0.0000000000
    102216     18261  TIP3      OH2           -39.8538653713      -12.6276838770      -27.7487754095  TIP3      16901           0.0000000000
    102217     18261  TIP3      H1            -39.6446226462      -13.0403444781      -26.9014243279  TIP3      16901           0.0000000000
    102218     18261  TIP3      H2            -40.5019090145      -13.2154284072      -28.1630240143  TIP3      16901           0.0000000000
    102219     18262  TIP3      OH2           -32.8322788903      -12.9983516666      -25.6099870154  TIP3      16902           0.0000000000
    102220     18262  TIP3      H1            -33.1671368965      -13.3435761067      -26.4476165540  TIP3      16902           0.0000000000
    102221     18262  TIP3      H2            -31.9234001121      -13.3476523012      -25.5753317617  TIP3      16902           0.0000000000
    102222     18263  TIP3      OH2           -28.2007952003       -7.6865914415      -27.6279774307  TIP3      16903           0.0000000000
    102223     18263  TIP3      H1            -29.1145586056       -7.4610808379      -27.8421356190  TIP3      16903           0.0000000000
    102224     18263  TIP3      H2            -28.1752020503       -7.4059868039      -26.6875377448  TIP3      16903           0.0000000000
    102225     18264  TIP3      OH2           -22.4584689313      -15.4900042925      -39.2367955132  TIP3      16904           0.0000000000
    102226     18264  TIP3      H1            -23.0624305198      -15.7979508057      -39.9468334347  TIP3      16904           0.0000000000
    102227     18264  TIP3      H2            -22.4412379925      -14.5476891084      -39.5156940340  TIP3      16904           0.0000000000
    102228     18265  TIP3      OH2           -22.4591093653       -9.6409301377      -26.4216557632  TIP3      16905           0.0000000000
    102229     18265  TIP3      H1            -23.3884607700       -9.4505159944      -26.7324797639  TIP3      16905           0.0000000000
    102230     18265  TIP3      H2            -21.9656643241       -9.6786154121      -27.2547667810  TIP3      16905           0.0000000000
    102231     18266  TIP3      OH2           -24.1924781723       -6.6688717404      -38.8258336922  TIP3      16906           0.0000000000
    102232     18266  TIP3      H1            -24.5675083870       -7.4976601082      -38.5040306621  TIP3      16906           0.0000000000
    102233     18266  TIP3      H2            -23.8982399175       -6.8593280662      -39.7432260584  TIP3      16906           0.0000000000
    102234     18267  TIP3      OH2           -27.0064742356      -11.8427934454      -31.7547120360  TIP3      16907           0.0000000000
    102235     18267  TIP3      H1            -27.9381188726      -12.0788672093      -31.8483660099  TIP3      16907           0.0000000000
    102236     18267  TIP3      H2            -26.5601341396      -12.6065677381      -32.1671412504  TIP3      16907           0.0000000000
    102237     18268  TIP3      OH2           -34.4741763070       -7.5231781866      -35.6277880752  TIP3      16908           0.0000000000
    102238     18268  TIP3      H1            -33.9731596987       -6.7172172831      -35.8402186317  TIP3      16908           0.0000000000
    102239     18268  TIP3      H2            -35.3517077975       -7.2883527520      -35.9567523719  TIP3      16908           0.0000000000
    102240     18269  TIP3      OH2           -38.7902427497      -12.7292930587      -41.0366985402  TIP3      16909           0.0000000000
    102241     18269  TIP3      H1            -38.1277583530      -12.0771010080      -40.7203311602  TIP3      16909           0.0000000000
    102242     18269  TIP3      H2            -39.6064709900      -12.3265539296      -40.7393087870  TIP3      16909           0.0000000000
    102243     18270  TIP3      OH2           -33.0654746246       -9.8571471559      -36.1135028271  TIP3      16910           0.0000000000
    102244     18270  TIP3      H1            -33.3682836787       -8.9341441261      -36.0177676649  TIP3      16910           0.0000000000
    102245     18270  TIP3      H2            -33.7939959456      -10.3476442395      -35.6783537490  TIP3      16910           0.0000000000
    102246     18271  TIP3      OH2           -32.6130868801       -5.6955430692      -29.7097724414  TIP3      16911           0.0000000000
    102247     18271  TIP3      H1            -32.1698918467       -4.8768727706      -29.9896790565  TIP3      16911           0.0000000000
    102248     18271  TIP3      H2            -31.9965349796       -5.9942994567      -29.0198217743  TIP3      16911           0.0000000000
    102249     18272  TIP3      OH2           -34.3821492888       -4.8674714217      -36.5708281767  TIP3      16912           0.0000000000
    102250     18272  TIP3      H1            -35.3470549946       -4.7228515758      -36.4542725952  TIP3      16912           0.0000000000
    102251     18272  TIP3      H2            -34.0205792771       -4.0246906911      -36.2385017231  TIP3      16912           0.0000000000
    102252     18273  TIP3      OH2           -29.1817308907       -9.7496840974      -30.0971215606  TIP3      16913           0.0000000000
    102253     18273  TIP3      H1            -29.3173225606       -9.8364994330      -29.1327913208  TIP3      16913           0.0000000000
    102254     18273  TIP3      H2            -28.4011274430      -10.3347284593      -30.2319539840  TIP3      16913           0.0000000000
    102255     18274  TIP3      OH2           -26.7890031576       -8.6286863956      -40.9795458607  TIP3      16914           0.0000000000
    102256     18274  TIP3      H1            -26.4574722278       -9.0803795507      -40.1812272255  TIP3      16914           0.0000000000
    102257     18274  TIP3      H2            -27.7396094033       -8.7909712830      -40.8921886107  TIP3      16914           0.0000000000
    102258     18275  TIP3      OH2           -26.3001152298       -5.0751836211      -27.5876922414  TIP3      16915           0.0000000000
    102259     18275  TIP3      H1            -26.9621902815       -5.5955490320      -28.0744297366  TIP3      16915           0.0000000000
    102260     18275  TIP3      H2            -26.0867774088       -4.3929624768      -28.2596107608  TIP3      16915           0.0000000000
    102261     18276  TIP3      OH2           -22.2899790048       -4.2116110433      -40.7769712913  TIP3      16916           0.0000000000
    102262     18276  TIP3      H1            -21.5656753751       -3.5879706596      -40.9531148800  TIP3      16916           0.0000000000
    102263     18276  TIP3      H2            -22.9980780353       -3.6154839956      -40.4530127580  TIP3      16916           0.0000000000
    102264     18277  TIP3      OH2           -38.2173335981      -17.8239586729      -28.1986015461  TIP3      16917           0.0000000000
    102265     18277  TIP3      H1            -39.1223309070      -17.4849622934      -28.2047630551  TIP3      16917           0.0000000000
    102266     18277  TIP3      H2            -38.3271153887      -18.7043864887      -27.7979243506  TIP3      16917           0.0000000000
    102267     18278  TIP3      OH2           -25.9665441704       -9.9748580327      -38.7460970615  TIP3      16918           0.0000000000
    102268     18278  TIP3      H1            -26.2115175901      -10.7620777205      -38.2140476804  TIP3      16918           0.0000000000
    102269     18278  TIP3      H2            -25.0162012439       -9.9209269367      -38.5590690305  TIP3      16918           0.0000000000
    102270     18279  TIP3      OH2           -38.6204363514       -6.0628481881      -29.7500873191  TIP3      16919           0.0000000000
    102271     18279  TIP3      H1            -38.2930956715       -6.9803873339      -29.7801780338  TIP3      16919           0.0000000000
    102272     18279  TIP3      H2            -38.2691851345       -5.7639870050      -28.9018391093  TIP3      16919           0.0000000000
    102273     18280  TIP3      OH2           -32.6219012256       -7.5638485265      -42.5316061891  TIP3      16920           0.0000000000
    102274     18280  TIP3      H1            -32.4776534007       -8.3281043793      -43.0873593325  TIP3      16920           0.0000000000
    102275     18280  TIP3      H2            -33.0573639925       -7.9300704573      -41.7324201381  TIP3      16920           0.0000000000
    102276     18281  TIP3      OH2           -33.8389506650       -7.9988137983      -40.0631083698  TIP3      16921           0.0000000000
    102277     18281  TIP3      H1            -33.5896826100       -8.5134214837      -39.2866991906  TIP3      16921           0.0000000000
    102278     18281  TIP3      H2            -33.7868720933       -7.0663065829      -39.7520726767  TIP3      16921           0.0000000000
    102279     18282  TIP3      OH2           -37.3520044337      -10.7412551050      -39.6115860822  TIP3      16922           0.0000000000
    102280     18282  TIP3      H1            -38.0249943622      -10.3550009687      -39.0067207230  TIP3      16922           0.0000000000
    102281     18282  TIP3      H2            -36.8007104788       -9.9743426116      -39.8321224541  TIP3      16922           0.0000000000
    102282     18283  TIP3      OH2           -29.4758442130      -18.0663390522      -29.2498309694  TIP3      16923           0.0000000000
    102283     18283  TIP3      H1            -28.7654071667      -18.0080775423      -28.6036042731  TIP3      16923           0.0000000000
    102284     18283  TIP3      H2            -29.8595666114      -18.9433970321      -29.0495285367  TIP3      16923           0.0000000000
    102285     18284  TIP3      OH2           -28.7420567823      -18.4820149270      -38.1394741293  TIP3      16924           0.0000000000
    102286     18284  TIP3      H1            -28.4919203781      -18.0291140578      -38.9735848860  TIP3      16924           0.0000000000
    102287     18284  TIP3      H2            -28.1463141448      -18.0511941392      -37.5169196140  TIP3      16924           0.0000000000
    102288     18285  TIP3      OH2           -31.0398609145       -6.3348159210      -39.3715825470  TIP3      16925           0.0000000000
    102289     18285  TIP3      H1            -31.8586766320       -5.8120487953      -39.2683300029  TIP3      16925           0.0000000000
    102290     18285  TIP3      H2            -30.5186345736       -5.7951321583      -39.9806777837  TIP3      16925           0.0000000000
    102291     18286  TIP3      OH2           -31.5012413807      -16.7421806441      -37.3334829495  TIP3      16926           0.0000000000
    102292     18286  TIP3      H1            -30.7134159315      -16.1657570896      -37.3008925185  TIP3      16926           0.0000000000
    102293     18286  TIP3      H2            -31.7592722099      -16.8597867616      -36.4015429483  TIP3      16926           0.0000000000
    102294     18287  TIP3      OH2           -30.9473758091      -15.6974847068      -28.1742913379  TIP3      16927           0.0000000000
    102295     18287  TIP3      H1            -30.8625992591      -15.1681983672      -27.3581493546  TIP3      16927           0.0000000000
    102296     18287  TIP3      H2            -30.3014901983      -16.4090407904      -28.0596057187  TIP3      16927           0.0000000000
    102297     18288  TIP3      OH2           -30.6470855591      -19.6841869760      -36.4554307926  TIP3      16928           0.0000000000
    102298     18288  TIP3      H1            -30.9694170616      -19.0329410465      -35.8063296670  TIP3      16928           0.0000000000
    102299     18288  TIP3      H2            -29.9569434521      -19.1382781153      -36.9080549274  TIP3      16928           0.0000000000
    102300     18289  TIP3      OH2           -33.6667231679       -5.2989863286      -39.3048565965  TIP3      16929           0.0000000000
    102301     18289  TIP3      H1            -33.5168130253       -4.4816092547      -39.8331181509  TIP3      16929           0.0000000000
    102302     18289  TIP3      H2            -33.9198570992       -4.9384492793      -38.4317139796  TIP3      16929           0.0000000000
    102303     18290  TIP3      OH2           -34.9927363072      -18.5881062259      -39.7066846013  TIP3      16930           0.0000000000
    102304     18290  TIP3      H1            -35.0329719732      -17.6689498820      -39.3805555123  TIP3      16930           0.0000000000
    102305     18290  TIP3      H2            -34.0791493908      -18.8335651689      -39.4655969225  TIP3      16930           0.0000000000
    102306     18291  TIP3      OH2           -24.7254854822      -17.7583560050      -27.2814272185  TIP3      16931           0.0000000000
    102307     18291  TIP3      H1            -25.6979594186      -17.5745074084      -27.4216454085  TIP3      16931           0.0000000000
    102308     18291  TIP3      H2            -24.4903224187      -17.9069754649      -28.2192544225  TIP3      16931           0.0000000000
    102309     18292  TIP3      OH2           -26.1548919434      -14.0661355066      -33.2950677282  TIP3      16932           0.0000000000
    102310     18292  TIP3      H1            -26.9784220531      -14.5059488123      -33.5724031800  TIP3      16932           0.0000000000
    102311     18292  TIP3      H2            -25.6889250643      -14.7504917224      -32.7643644755  TIP3      16932           0.0000000000
    102312     18293  TIP3      OH2           -36.7343088892       -8.1464281047      -40.6908583060  TIP3      16933           0.0000000000
    102313     18293  TIP3      H1            -36.1028321860       -7.4849805959      -40.3954044797  TIP3      16933           0.0000000000
    102314     18293  TIP3      H2            -36.2331066143       -8.6039321121      -41.3941622466  TIP3      16933           0.0000000000
    102315     18294  TIP3      OH2           -38.4238698519      -15.4789577202      -41.5347908247  TIP3      16934           0.0000000000
    102316     18294  TIP3      H1            -38.3921276487      -14.5100189954      -41.4005092623  TIP3      16934           0.0000000000
    102317     18294  TIP3      H2            -39.2698599712      -15.6879418449      -41.9246045636  TIP3      16934           0.0000000000
    102318     18295  TIP3      OH2           -25.0927520139       -4.8031841263      -31.6295427576  TIP3      16935           0.0000000000
    102319     18295  TIP3      H1            -25.1834988567       -4.1195639959      -32.3162125060  TIP3      16935           0.0000000000
    102320     18295  TIP3      H2            -24.1291772905       -4.7469307453      -31.4440020932  TIP3      16935           0.0000000000
    102321     18296  TIP3      OH2           -37.5581887484      -20.6963393841      -32.8473529741  TIP3      16936           0.0000000000
    102322     18296  TIP3      H1            -37.8204207555      -20.6676272698      -33.7918538184  TIP3      16936           0.0000000000
    102323     18296  TIP3      H2            -38.0500384324      -21.4915868229      -32.5617247211  TIP3      16936           0.0000000000
    102324     18297  TIP3      OH2           -38.6244027725       -6.7683927748      -36.6646710215  TIP3      16937           0.0000000000
    102325     18297  TIP3      H1            -39.4877150091       -6.3357053818      -36.7054975795  TIP3      16937           0.0000000000
    102326     18297  TIP3      H2            -38.1686381350       -6.2796550486      -37.3621986756  TIP3      16937           0.0000000000
    102327     18298  TIP3      OH2           -39.4464284653       -4.1106379748      -25.3245855602  TIP3      16938           0.0000000000
    102328     18298  TIP3      H1            -38.7631065978       -4.3780503179      -24.6844847790  TIP3      16938           0.0000000000
    102329     18298  TIP3      H2            -39.8288622706       -4.9642496151      -25.5983052387  TIP3      16938           0.0000000000
    102330     18299  TIP3      OH2           -34.7557939335       -5.1681784124      -23.7621329760  TIP3      16939           0.0000000000
    102331     18299  TIP3      H1            -33.9995651109       -5.7060978592      -23.4793837521  TIP3      16939           0.0000000000
    102332     18299  TIP3      H2            -34.8089107019       -5.4536516725      -24.7023556076  TIP3      16939           0.0000000000
    102333     18300  TIP3      OH2           -30.6458969950       -5.6858175044      -42.3894383314  TIP3      16940           0.0000000000
    102334     18300  TIP3      H1            -31.3532725943       -6.3302247757      -42.1739119260  TIP3      16940           0.0000000000
    102335     18300  TIP3      H2            -29.9105523790       -6.2659303618      -42.6104386768  TIP3      16940           0.0000000000
    102336     18301  TIP3      OH2           -28.2530285279       -6.8148858848      -25.0154876586  TIP3      16941           0.0000000000
    102337     18301  TIP3      H1            -28.5404696597       -7.7177381951      -24.7678987880  TIP3      16941           0.0000000000
    102338     18301  TIP3      H2            -27.4751074730       -6.6877070250      -24.4305905840  TIP3      16941           0.0000000000
    102339     18302  TIP3      OH2           -26.0547735542       -5.9006242887      -42.1710808421  TIP3      16942           0.0000000000
    102340     18302  TIP3      H1            -25.8022070319       -6.7210947527      -41.7098820670  TIP3      16942           0.0000000000
    102341     18302  TIP3      H2            -25.2835843551       -5.7265036051      -42.7154936789  TIP3      16942           0.0000000000
    102342     18303  TIP3      OH2           -39.2977327283      -10.3516078153      -24.5598306627  TIP3      16943           0.0000000000
    102343     18303  TIP3      H1            -39.2534552641      -11.3141382792      -24.7794698427  TIP3      16943           0.0000000000
    102344     18303  TIP3      H2            -40.0434024231      -10.0646772484      -25.1174839534  TIP3      16943           0.0000000000
    102345     18304  TIP3      OH2           -35.1697532381      -10.0044428673      -42.3416294127  TIP3      16944           0.0000000000
    102346     18304  TIP3      H1            -35.0319302910      -10.7659760049      -41.7590374728  TIP3      16944           0.0000000000
    102347     18304  TIP3      H2            -34.4975209713      -10.1339965725      -43.0171127501  TIP3      16944           0.0000000000
    102348     18305  TIP3      OH2           -32.7419609204      -10.3255401029      -25.0341936226  TIP3      16945           0.0000000000
    102349     18305  TIP3      H1            -33.1779274805      -10.0371712792      -25.8471669118  TIP3      16945           0.0000000000
    102350     18305  TIP3      H2            -32.7629158838      -11.3133820474      -25.0782610677  TIP3      16945           0.0000000000
    102351     18306  TIP3      OH2           -29.8150835088       -8.9130251284      -42.5807766236  TIP3      16946           0.0000000000
    102352     18306  TIP3      H1            -30.0274948934       -8.7724895602      -41.6401004227  TIP3      16946           0.0000000000
    102353     18306  TIP3      H2            -29.9667150723       -9.8613461999      -42.6921195645  TIP3      16946           0.0000000000
    102354     18307  TIP3      OH2           -27.1934520481      -10.4586149369      -27.8314160680  TIP3      16947           0.0000000000
    102355     18307  TIP3      H1            -26.3416470438       -9.9812342414      -27.6301537230  TIP3      16947           0.0000000000
    102356     18307  TIP3      H2            -27.7922848132       -9.7825812555      -27.5224475040  TIP3      16947           0.0000000000
    102357     18308  TIP3      OH2           -38.6861088997      -13.1364925924      -25.0193107199  TIP3      16948           0.0000000000
    102358     18308  TIP3      H1            -38.1518531242      -13.9409168270      -25.1351278364  TIP3      16948           0.0000000000
    102359     18308  TIP3      H2            -38.8446575338      -13.1220264412      -24.0668065594  TIP3      16948           0.0000000000
    102360     18309  TIP3      OH2           -33.9520011080      -11.9697378005      -39.9343850438  TIP3      16949           0.0000000000
    102361     18309  TIP3      H1            -34.4749872568      -12.5075766208      -39.3163619613  TIP3      16949           0.0000000000
    102362     18309  TIP3      H2            -33.6704070623      -12.6509642868      -40.5973280326  TIP3      16949           0.0000000000
    102363     18310  TIP3      OH2           -34.6860592176      -14.1407831480      -27.6489175847  TIP3      16950           0.0000000000
    102364     18310  TIP3      H1            -35.3201646853      -13.4510914087      -27.3829960750  TIP3      16950           0.0000000000
    102365     18310  TIP3      H2            -34.3361105554      -13.7933272990      -28.4796180045  TIP3      16950           0.0000000000
    102366     18311  TIP3      OH2           -32.8986637152      -13.6775422571      -41.7439781797  TIP3      16951           0.0000000000
    102367     18311  TIP3      H1            -33.0327393680      -13.9283452644      -42.6742219365  TIP3      16951           0.0000000000
    102368     18311  TIP3      H2            -31.9217792330      -13.6962093924      -41.6450383011  TIP3      16951           0.0000000000
    102369     18312  TIP3      OH2           -29.6365910504      -11.5733512634      -24.2547855242  TIP3      16952           0.0000000000
    102370     18312  TIP3      H1            -28.6887975732      -11.5939731191      -24.4522571248  TIP3      16952           0.0000000000
    102371     18312  TIP3      H2            -29.7654084762      -12.3778845301      -23.7437080691  TIP3      16952           0.0000000000
    102372     18313  TIP3      OH2           -23.5560563457      -11.4027639120      -42.3061555003  TIP3      16953           0.0000000000
    102373     18313  TIP3      H1            -23.7896597843      -11.8094605207      -43.1433946027  TIP3      16953           0.0000000000
    102374     18313  TIP3      H2            -23.4634042148      -10.4661106676      -42.5337724147  TIP3      16953           0.0000000000
    102375     18314  TIP3      OH2           -34.2851124477      -16.7793427110      -26.5911663901  TIP3      16954           0.0000000000
    102376     18314  TIP3      H1            -34.1834000264      -17.4934478557      -27.2437798658  TIP3      16954           0.0000000000
    102377     18314  TIP3      H2            -34.3521929772      -15.9744776850      -27.1430804479  TIP3      16954           0.0000000000
    102378     18315  TIP3      OH2           -33.8987326893      -18.4024895766      -29.0482113371  TIP3      16955           0.0000000000
    102379     18315  TIP3      H1            -33.3892237507      -17.9404708235      -29.7540460364  TIP3      16955           0.0000000000
    102380     18315  TIP3      H2            -34.7915772971      -18.4841956464      -29.4555701135  TIP3      16955           0.0000000000
    102381     18316  TIP3      OH2           -32.3103337106      -12.8977874044      -28.7766012680  TIP3      16956           0.0000000000
    102382     18316  TIP3      H1            -31.5900350798      -13.1462180024      -29.3754890088  TIP3      16956           0.0000000000
    102383     18316  TIP3      H2            -32.8100322425      -12.1423449549      -29.0919812006  TIP3      16956           0.0000000000
    102384     18317  TIP3      OH2           -27.9595292705      -15.1914684576      -23.8914164500  TIP3      16957           0.0000000000
    102385     18317  TIP3      H1            -27.7138858035      -16.1200396215      -23.9011902915  TIP3      16957           0.0000000000
    102386     18317  TIP3      H2            -27.1239589863      -14.7016232598      -23.8203814872  TIP3      16957           0.0000000000
    102387     18318  TIP3      OH2           -26.7839721198      -12.7584098980      -26.0216237991  TIP3      16958           0.0000000000
    102388     18318  TIP3      H1            -26.9626923127      -11.8024188724      -26.2331668554  TIP3      16958           0.0000000000
    102389     18318  TIP3      H2            -25.8659239461      -12.4708433410      -25.8117703840  TIP3      16958           0.0000000000
    102390     18319  TIP3      OH2           -35.8906982347      -15.4934961808      -24.7208010297  TIP3      16959           0.0000000000
    102391     18319  TIP3      H1            -36.6238289777      -16.1158582493      -24.8303299863  TIP3      16959           0.0000000000
    102392     18319  TIP3      H2            -35.2020507188      -15.8760126189      -25.2909328779  TIP3      16959           0.0000000000
    102393     18320  TIP3      OH2           -33.1257635510      -20.9683473036      -28.6341337114  TIP3      16960           0.0000000000
    102394     18320  TIP3      H1            -33.2894495890      -20.0042787803      -28.7532626917  TIP3      16960           0.0000000000
    102395     18320  TIP3      H2            -33.8631346633      -21.3325459415      -29.1552615948  TIP3      16960           0.0000000000
    102396     18321  TIP3      OH2           -31.8273629708      -16.6505001542      -25.0492304975  TIP3      16961           0.0000000000
    102397     18321  TIP3      H1            -32.1362461651      -16.8668491374      -24.1491027461  TIP3      16961           0.0000000000
    102398     18321  TIP3      H2            -32.6347041571      -16.8401122144      -25.5655331976  TIP3      16961           0.0000000000
    102399     18322  TIP3      OH2           -29.1277846258      -17.5123562232      -25.9830299925  TIP3      16962           0.0000000000
    102400     18322  TIP3      H1            -30.0832122710      -17.4314258505      -25.8248382120  TIP3      16962           0.0000000000
    102401     18322  TIP3      H2            -28.8473965135      -18.1186689277      -25.2745767352  TIP3      16962           0.0000000000
    102402     18323  TIP3      OH2           -27.5104942799      -18.8634019500      -24.0256518105  TIP3      16963           0.0000000000
    102403     18323  TIP3      H1            -27.6231615118      -19.8402389297      -24.0101238311  TIP3      16963           0.0000000000
    102404     18323  TIP3      H2            -27.8080167019      -18.5901875893      -23.1300227616  TIP3      16963           0.0000000000
    102405     18324  TIP3      OH2           -37.7254757649      -17.6151107523      -24.9356333042  TIP3      16964           0.0000000000
    102406     18324  TIP3      H1            -37.4812666050      -18.3473571750      -25.5383302742  TIP3      16964           0.0000000000
    102407     18324  TIP3      H2            -37.7936915084      -18.0671636787      -24.0996493902  TIP3      16964           0.0000000000
    102408     18325  TIP3      OH2           -32.8895347871      -21.5911967610      -25.9619711602  TIP3      16965           0.0000000000
    102409     18325  TIP3      H1            -32.1977923979      -22.2824268437      -25.9806216131  TIP3      16965           0.0000000000
    102410     18325  TIP3      H2            -33.0020882915      -21.4241311975      -26.9128703258  TIP3      16965           0.0000000000
    102411     18326  TIP3      OH2           -32.5059917409      -19.9653703357      -23.8557530770  TIP3      16966           0.0000000000
    102412     18326  TIP3      H1            -32.6848086363      -20.4870522835      -24.6709104371  TIP3      16966           0.0000000000
    102413     18326  TIP3      H2            -33.1117133236      -19.2107462113      -23.9426468393  TIP3      16966           0.0000000000
    102414     18327  TIP3      OH2           -33.0529596437       -3.0092618813      -40.6629439717  TIP3      16967           0.0000000000
    102415     18327  TIP3      H1            -32.0786323903       -2.9686999682      -40.6205638187  TIP3      16967           0.0000000000
    102416     18327  TIP3      H2            -33.2363885674       -2.4253589411      -41.3959870623  TIP3      16967           0.0000000000
    102417     18328  TIP3      OH2           -39.3986624455       -8.4367626342      -41.1499498830  TIP3      16968           0.0000000000
    102418     18328  TIP3      H1            -38.4443890021       -8.3635188248      -40.9676432358  TIP3      16968           0.0000000000
    102419     18328  TIP3      H2            -39.4161226902       -9.0296608199      -41.9126041371  TIP3      16968           0.0000000000
    102420     18329  TIP3      OH2            40.7137166137       -3.0413339624      -36.2771965286  TIP3      16969           0.0000000000
    102421     18329  TIP3      H1             39.9526634104       -3.5136427650      -36.6424398878  TIP3      16969           0.0000000000
    102422     18329  TIP3      H2             40.9673914270       -3.6606519440      -35.5629281172  TIP3      16969           0.0000000000
    102423     18330  TIP3      OH2           -39.8792104749       -4.9335525350      -34.3944489190  TIP3      16970           0.0000000000
    102424     18330  TIP3      H1            -40.2394422966       -5.8225968257      -34.2154579873  TIP3      16970           0.0000000000
    102425     18330  TIP3      H2            -39.6343496693       -4.6004313042      -33.5072676520  TIP3      16970           0.0000000000
    102426     18331  TIP3      OH2           -22.3716944181       -4.1587171769      -31.4242591296  TIP3      16971           0.0000000000
    102427     18331  TIP3      H1            -22.3440637082       -3.9945114034      -30.4658183539  TIP3      16971           0.0000000000
    102428     18331  TIP3      H2            -21.6670815254       -3.5774471359      -31.7289167151  TIP3      16971           0.0000000000
    102429     18332  TIP3      OH2           -22.7962509642       -4.5598998088      -28.4754911553  TIP3      16972           0.0000000000
    102430     18332  TIP3      H1            -23.2685842979       -5.3303662355      -28.8592123257  TIP3      16972           0.0000000000
    102431     18332  TIP3      H2            -22.3038166627       -5.0099784256      -27.7684027756  TIP3      16972           0.0000000000
    102432     18333  TIP3      OH2           -24.1567820315       -8.7575112517      -23.5422060192  TIP3      16973           0.0000000000
    102433     18333  TIP3      H1            -25.1253346347       -8.8785468880      -23.5170898131  TIP3      16973           0.0000000000
    102434     18333  TIP3      H2            -23.9624598524       -7.8560338822      -23.2290106800  TIP3      16973           0.0000000000
    102435     18334  TIP3      OH2           -23.0413883690      -10.5174327474      -38.3814567443  TIP3      16974           0.0000000000
    102436     18334  TIP3      H1            -22.1841092422      -10.1058121762      -38.1889285460  TIP3      16974           0.0000000000
    102437     18334  TIP3      H2            -23.0596994820      -11.2292954271      -37.7078420523  TIP3      16974           0.0000000000
    102438     18335  TIP3      OH2           -22.6485002475      -12.4861558343      -36.4979206444  TIP3      16975           0.0000000000
    102439     18335  TIP3      H1            -23.4389063220      -12.9237136341      -36.1043136802  TIP3      16975           0.0000000000
    102440     18335  TIP3      H2            -22.0924117732      -12.2889841174      -35.7149340501  TIP3      16975           0.0000000000
    102441     18336  TIP3      OH2           -22.9299378053       -9.7369711066      -31.5048602332  TIP3      16976           0.0000000000
    102442     18336  TIP3      H1            -22.1096181232      -10.1205260391      -31.8663587059  TIP3      16976           0.0000000000
    102443     18336  TIP3      H2            -22.7738663685       -8.7842324738      -31.6757831155  TIP3      16976           0.0000000000
    102444     18337  TIP3      OH2           -24.3622363957       -6.8256018315      -29.2476133805  TIP3      16977           0.0000000000
    102445     18337  TIP3      H1            -25.0501913337       -6.5200554380      -28.6326914691  TIP3      16977           0.0000000000
    102446     18337  TIP3      H2            -24.9153706960       -7.2574365008      -29.9318767405  TIP3      16977           0.0000000000
    102447     18338  TIP3      OH2           -22.3714911897      -12.6055889301      -40.1141757117  TIP3      16978           0.0000000000
    102448     18338  TIP3      H1            -22.9440868030      -12.2576407312      -40.8302752089  TIP3      16978           0.0000000000
    102449     18338  TIP3      H2            -22.4781844264      -11.8982817743      -39.4466227709  TIP3      16978           0.0000000000
    102450     18339  TIP3      OH2           -24.0436240144      -15.4020926130      -41.5465024871  TIP3      16979           0.0000000000
    102451     18339  TIP3      H1            -23.9354000551      -14.7390512258      -42.2373268162  TIP3      16979           0.0000000000
    102452     18339  TIP3      H2            -24.1909276690      -16.2186749501      -42.0672195763  TIP3      16979           0.0000000000
    102453     18340  TIP3      OH2           -24.8558460110      -13.9611683279      -35.9253545148  TIP3      16980           0.0000000000
    102454     18340  TIP3      H1            -25.0033575520      -14.9168343081      -35.9635154576  TIP3      16980           0.0000000000
    102455     18340  TIP3      H2            -25.1903613022      -13.7428176219      -35.0385682851  TIP3      16980           0.0000000000
    102456     18341  TIP3      OH2           -39.8882067494      -11.9135918555      -31.8949323827  TIP3      16981           0.0000000000
    102457     18341  TIP3      H1            -39.6709838891      -11.9514290725      -32.8464529317  TIP3      16981           0.0000000000
    102458     18341  TIP3      H2            -39.0077006176      -12.0233740726      -31.4910360129  TIP3      16981           0.0000000000
    102459     18342  TIP3      OH2           -23.6961241899      -12.2120078807      -26.6824032516  TIP3      16982           0.0000000000
    102460     18342  TIP3      H1            -23.3030019915      -12.7340513380      -25.9880208690  TIP3      16982           0.0000000000
    102461     18342  TIP3      H2            -23.5528954224      -11.3044203561      -26.2986969806  TIP3      16982           0.0000000000
    102462     18343  TIP3      OH2           -22.4205582492      -14.0881336789      -25.3603413095  TIP3      16983           0.0000000000
    102463     18343  TIP3      H1            -23.3549253200      -14.2826466238      -25.5429849055  TIP3      16983           0.0000000000
    102464     18343  TIP3      H2            -21.8493103629      -14.8418095088      -25.5991137166  TIP3      16983           0.0000000000
    102465     18344  TIP3      OH2           -24.7742777106      -17.8893619274      -42.4045973906  TIP3      16984           0.0000000000
    102466     18344  TIP3      H1            -24.1744159128      -18.3734262627      -41.8043131847  TIP3      16984           0.0000000000
    102467     18344  TIP3      H2            -25.6315458748      -18.3305288333      -42.2849211292  TIP3      16984           0.0000000000
    102468     18345  TIP3      OH2           -25.1984680043      -16.3868934808      -37.4429843044  TIP3      16985           0.0000000000
    102469     18345  TIP3      H1            -24.8882125660      -17.3154496087      -37.3339177346  TIP3      16985           0.0000000000
    102470     18345  TIP3      H2            -24.4177967189      -15.9863060695      -37.8420220962  TIP3      16985           0.0000000000
    102471     18346  TIP3      OH2           -24.5519950092      -15.8327748343      -32.0012591298  TIP3      16986           0.0000000000
    102472     18346  TIP3      H1            -23.5926293480      -15.6014610877      -32.0476296037  TIP3      16986           0.0000000000
    102473     18346  TIP3      H2            -24.7466275276      -15.6769341349      -31.0729255854  TIP3      16986           0.0000000000
    102474     18347  TIP3      OH2           -24.4474976080      -15.0736904426      -29.0873256245  TIP3      16987           0.0000000000
    102475     18347  TIP3      H1            -25.3913632976      -14.8030577312      -28.9323595460  TIP3      16987           0.0000000000
    102476     18347  TIP3      H2            -24.0840524538      -14.2319713348      -29.4824236653  TIP3      16987           0.0000000000
    102477     18348  TIP3      OH2           -40.1520434734      -16.7418083177      -25.8784512727  TIP3      16988           0.0000000000
    102478     18348  TIP3      H1            -39.2355876568      -16.8244771603      -25.5589840014  TIP3      16988           0.0000000000
    102479     18348  TIP3      H2            -40.6388743878      -17.4282425469      -25.4154263317  TIP3      16988           0.0000000000
    102480     18349  TIP3      OH2           -22.2650536269      -21.0677733966      -23.9169457214  TIP3      16989           0.0000000000
    102481     18349  TIP3      H1            -21.8490492491      -21.7348141825      -24.4821271230  TIP3      16989           0.0000000000
    102482     18349  TIP3      H2            -22.0477506602      -20.2543059015      -24.3868451091  TIP3      16989           0.0000000000
    102483     18350  TIP3      OH2           -24.5201365652      -19.1080096442      -37.4225048456  TIP3      16990           0.0000000000
    102484     18350  TIP3      H1            -24.3117734810      -19.5404146508      -36.5661508458  TIP3      16990           0.0000000000
    102485     18350  TIP3      H2            -25.1294538503      -19.7366809779      -37.8644984548  TIP3      16990           0.0000000000
    102486     18351  TIP3      OH2           -39.0543307122      -18.3023011210      -32.8728968286  TIP3      16991           0.0000000000
    102487     18351  TIP3      H1            -38.5817332873      -19.1098159472      -32.5915074813  TIP3      16991           0.0000000000
    102488     18351  TIP3      H2            -38.5261560233      -17.6049382031      -32.4711721079  TIP3      16991           0.0000000000
    102489     18352  TIP3      OH2           -40.7815658531      -15.0316432785      -32.4514801808  TIP3      16992           0.0000000000
    102490     18352  TIP3      H1            -40.0493281122      -15.5878337970      -32.7670638407  TIP3      16992           0.0000000000
    102491     18352  TIP3      H2            -40.2432339247      -14.5549431459      -31.7918278565  TIP3      16992           0.0000000000
    102492     18353  TIP3      OH2           -22.7157882256      -18.9008749442      -25.5424433562  TIP3      16993           0.0000000000
    102493     18353  TIP3      H1            -23.6663151742      -18.7368701739      -25.6318772274  TIP3      16993           0.0000000000
    102494     18353  TIP3      H2            -22.6217555975      -19.5108081315      -26.3028831366  TIP3      16993           0.0000000000
    102495     18354  TIP3      OH2           -22.7023787213      -19.0486917409      -40.8844114172  TIP3      16994           0.0000000000
    102496     18354  TIP3      H1            -22.2646265884      -19.7687288897      -41.3591379318  TIP3      16994           0.0000000000
    102497     18354  TIP3      H2            -21.9901390449      -18.3951308650      -40.8382316782  TIP3      16994           0.0000000000
    102498     18355  TIP3      OH2           -40.2189505884      -19.1437198811      -37.7589102867  TIP3      16995           0.0000000000
    102499     18355  TIP3      H1            -41.1570843712      -18.9603007036      -37.9911453404  TIP3      16995           0.0000000000
    102500     18355  TIP3      H2            -39.7845156245      -18.5166636711      -38.3558160723  TIP3      16995           0.0000000000
    102501     18356  TIP3      OH2           -25.6487907155       -4.0808822563      -35.8035746013  TIP3      16996           0.0000000000
    102502     18356  TIP3      H1            -24.9628076194       -4.3852718918      -36.4224435098  TIP3      16996           0.0000000000
    102503     18356  TIP3      H2            -25.1317063985       -3.5786054168      -35.1530896808  TIP3      16996           0.0000000000
    102504     18357  TIP3      OH2            41.0637787997      -20.1926481741      -29.2888659283  TIP3      16997           0.0000000000
    102505     18357  TIP3      H1             40.3523119156      -20.5653420109      -28.7646364610  TIP3      16997           0.0000000000
    102506     18357  TIP3      H2             40.5407906714      -19.6748872567      -29.9246454734  TIP3      16997           0.0000000000
    102507     18358  TIP3      OH2           -38.2385261336       -7.1138055225      -25.2614326447  TIP3      16998           0.0000000000
    102508     18358  TIP3      H1            -39.0746148403       -6.9859721677      -25.7246648867  TIP3      16998           0.0000000000
    102509     18358  TIP3      H2            -38.5279237319       -7.2730318222      -24.3628839571  TIP3      16998           0.0000000000
    102510     18359  TIP3      OH2           -35.2884385353       -6.1995435958      -29.0441364724  TIP3      16999           0.0000000000
    102511     18359  TIP3      H1            -35.6585993910       -5.3329368682      -29.2804796872  TIP3      16999           0.0000000000
    102512     18359  TIP3      H2            -34.3648605867       -6.0563701387      -29.3261355871  TIP3      16999           0.0000000000
    102513     18360  TIP3      OH2           -30.9745671495       -4.7417674707      -26.0827045922  TIP3      17000           0.0000000000
    102514     18360  TIP3      H1            -30.7978855656       -5.0992424063      -25.1767928610  TIP3      17000           0.0000000000
    102515     18360  TIP3      H2            -30.0848681902       -4.4384918187      -26.3617118400  TIP3      17000           0.0000000000
    102516     18361  TIP3      OH2           -28.6935204727       -3.4825174257      -26.7881180941  TIP3      17001           0.0000000000
    102517     18361  TIP3      H1            -27.9588685681       -4.0639130249      -27.0453365717  TIP3      17001           0.0000000000
    102518     18361  TIP3      H2            -28.3165367406       -3.0479802886      -25.9962439038  TIP3      17001           0.0000000000
    102519     18362  TIP3      OH2           -23.6785751159      -20.8473031511      -27.6961457837  TIP3      17002           0.0000000000
    102520     18362  TIP3      H1            -24.5161216695      -20.5870715703      -28.1156800279  TIP3      17002           0.0000000000
    102521     18362  TIP3      H2            -23.4973419671      -21.6722327033      -28.2058102133  TIP3      17002           0.0000000000
    102522     18363  TIP3      OH2           -37.8939316561       -2.9448477182      -29.0047863575  TIP3      17003           0.0000000000
    102523     18363  TIP3      H1            -38.6085626678       -2.4268588260      -29.4142660241  TIP3      17003           0.0000000000
    102524     18363  TIP3      H2            -38.2206213394       -3.1059911861      -28.1122725318  TIP3      17003           0.0000000000
    102525     18364  TIP3      OH2           -35.4044214084       -3.3462610575      -29.9377704399  TIP3      17004           0.0000000000
    102526     18364  TIP3      H1            -36.3029981042       -3.2070964431      -29.5535472907  TIP3      17004           0.0000000000
    102527     18364  TIP3      H2            -35.4676919190       -2.7608649071      -30.7196018849  TIP3      17004           0.0000000000
    102528     18365  TIP3      OH2           -30.7000570652       -3.4374501303      -30.7716671037  TIP3      17005           0.0000000000
    102529     18365  TIP3      H1            -31.1582913046       -2.8810115335      -31.4207568664  TIP3      17005           0.0000000000
    102530     18365  TIP3      H2            -30.5630731892       -2.8041251838      -30.0352695690  TIP3      17005           0.0000000000
    102531     18366  TIP3      OH2           -28.4062173840       -4.6273323589      -29.7546010853  TIP3      17006           0.0000000000
    102532     18366  TIP3      H1            -29.2661598844       -4.3547126494      -30.1143465444  TIP3      17006           0.0000000000
    102533     18366  TIP3      H2            -27.9284850366       -3.7838965758      -29.8449865551  TIP3      17006           0.0000000000
    102534     18367  TIP3      OH2           -25.8307392867       -3.0601823997      -29.5252604140  TIP3      17007           0.0000000000
    102535     18367  TIP3      H1            -25.8901862448       -2.0982711779      -29.7501096766  TIP3      17007           0.0000000000
    102536     18367  TIP3      H2            -25.6107840151       -3.4276916627      -30.4021533260  TIP3      17007           0.0000000000
    102537     18368  TIP3      OH2           -38.4302271144       -4.3067169473      -32.0920268172  TIP3      17008           0.0000000000
    102538     18368  TIP3      H1            -38.4389616454       -4.7383404510      -31.2238623181  TIP3      17008           0.0000000000
    102539     18368  TIP3      H2            -37.5997099593       -4.6373961033      -32.4845064455  TIP3      17008           0.0000000000
    102540     18369  TIP3      OH2           -36.3628973205       -5.5699316164      -33.4112677108  TIP3      17009           0.0000000000
    102541     18369  TIP3      H1            -36.5112311031       -6.5110081644      -33.1998625971  TIP3      17009           0.0000000000
    102542     18369  TIP3      H2            -35.5030827206       -5.4092893968      -32.9659868096  TIP3      17009           0.0000000000
    102543     18370  TIP3      OH2           -33.7526725480       -5.0728295602      -32.5523439169  TIP3      17010           0.0000000000
    102544     18370  TIP3      H1            -33.5860205629       -5.9918455259      -32.8221556326  TIP3      17010           0.0000000000
    102545     18370  TIP3      H2            -33.6944192491       -5.1398126157      -31.5882873469  TIP3      17010           0.0000000000
    102546     18371  TIP3      OH2           -30.2813833006      -19.4349258752      -33.4063329865  TIP3      17011           0.0000000000
    102547     18371  TIP3      H1            -30.9573258395      -20.0768657124      -33.1303284629  TIP3      17011           0.0000000000
    102548     18371  TIP3      H2            -29.7295598548      -19.9666184628      -33.9920006488  TIP3      17011           0.0000000000
    102549     18372  TIP3      OH2           -25.1447545537      -21.3833556503      -33.3377554687  TIP3      17012           0.0000000000
    102550     18372  TIP3      H1            -24.5323728909      -20.7932654396      -33.8477100016  TIP3      17012           0.0000000000
    102551     18372  TIP3      H2            -26.0284550024      -21.0251912761      -33.5687769057  TIP3      17012           0.0000000000
    102552     18373  TIP3      OH2           -23.4661505548      -20.1337813817      -35.0610780809  TIP3      17013           0.0000000000
    102553     18373  TIP3      H1            -22.7756013047      -20.7023472120      -35.4794643496  TIP3      17013           0.0000000000
    102554     18373  TIP3      H2            -22.9717390396      -19.2938727179      -34.9581056924  TIP3      17013           0.0000000000
    102555     18374  TIP3      OH2           -37.9165939156      -20.8221624471      -35.5711547641  TIP3      17014           0.0000000000
    102556     18374  TIP3      H1            -38.7294491944      -21.0310734485      -36.0703460596  TIP3      17014           0.0000000000
    102557     18374  TIP3      H2            -37.4337656007      -21.6690202221      -35.6227172527  TIP3      17014           0.0000000000
    102558     18375  TIP3      OH2           -39.1121027021      -21.0686301554      -39.8099835253  TIP3      17015           0.0000000000
    102559     18375  TIP3      H1            -38.6637802859      -20.4216882514      -40.3834456743  TIP3      17015           0.0000000000
    102560     18375  TIP3      H2            -39.7310556055      -20.5378435788      -39.2930894459  TIP3      17015           0.0000000000
    102561     18376  TIP3      OH2           -33.4355310703      -20.8835621857      -35.7738427298  TIP3      17016           0.0000000000
    102562     18376  TIP3      H1            -32.5353309603      -20.5233432559      -35.8405869413  TIP3      17016           0.0000000000
    102563     18376  TIP3      H2            -33.4755353335      -21.1017341480      -34.8437120516  TIP3      17016           0.0000000000
    102564     18377  TIP3      OH2           -27.7309817578      -20.8656899691      -34.1465128943  TIP3      17017           0.0000000000
    102565     18377  TIP3      H1            -27.7734210652      -20.7525864106      -35.1045678526  TIP3      17017           0.0000000000
    102566     18377  TIP3      H2            -28.1067177083      -21.7723213127      -34.0244485037  TIP3      17017           0.0000000000
    102567     18378  TIP3      OH2           -26.4537948194      -20.8354415496      -38.4902848214  TIP3      17018           0.0000000000
    102568     18378  TIP3      H1            -27.1992031444      -20.2370223776      -38.6436469504  TIP3      17018           0.0000000000
    102569     18378  TIP3      H2            -26.8905788507      -21.6860021954      -38.2524599397  TIP3      17018           0.0000000000
    102570     18379  TIP3      OH2           -39.2481365547       -5.0915762588      -38.7901206345  TIP3      17019           0.0000000000
    102571     18379  TIP3      H1            -39.8591226635       -5.1093439422      -39.5395979133  TIP3      17019           0.0000000000
    102572     18379  TIP3      H2            -39.1715439243       -4.1351540775      -38.6751611434  TIP3      17019           0.0000000000
    102573     18380  TIP3      OH2           -37.3386241266      -19.1330241551      -41.3040571882  TIP3      17020           0.0000000000
    102574     18380  TIP3      H1            -36.7991466979      -19.7190988426      -41.8505566194  TIP3      17020           0.0000000000
    102575     18380  TIP3      H2            -36.6424163262      -18.7896681109      -40.7177969767  TIP3      17020           0.0000000000
    102576     18381  TIP3      OH2           -32.2804993786      -18.8596312568      -38.9203528534  TIP3      17021           0.0000000000
    102577     18381  TIP3      H1            -32.0343205800      -19.4428499578      -38.1848063487  TIP3      17021           0.0000000000
    102578     18381  TIP3      H2            -32.2197945667      -18.0006132192      -38.4462850652  TIP3      17021           0.0000000000
    102579     18382  TIP3      OH2           -30.3745692605       -3.7529111836      -40.5169087015  TIP3      17022           0.0000000000
    102580     18382  TIP3      H1            -29.4281593436       -3.5847640878      -40.6719099583  TIP3      17022           0.0000000000
    102581     18382  TIP3      H2            -30.5612633532       -4.3324455771      -41.2884123146  TIP3      17022           0.0000000000
    102582     18383  TIP3      OH2           -23.6504440610       -4.2886578583      -37.7640411597  TIP3      17023           0.0000000000
    102583     18383  TIP3      H1            -23.8540175496       -5.0675647931      -38.3404723402  TIP3      17023           0.0000000000
    102584     18383  TIP3      H2            -23.7387309711       -3.5539220053      -38.4003967156  TIP3      17023           0.0000000000
    102585     18384  TIP3      OH2           -38.0814188677      -20.2384753940      -26.0453149883  TIP3      17024           0.0000000000
    102586     18384  TIP3      H1            -38.4059226508      -21.0967819061      -25.7216704503  TIP3      17024           0.0000000000
    102587     18384  TIP3      H2            -37.1362434287      -20.3033864119      -25.7689796727  TIP3      17024           0.0000000000
    102588     18385  TIP3      OH2           -36.0138347304      -20.8909447863      -24.4691206059  TIP3      17025           0.0000000000
    102589     18385  TIP3      H1            -35.1307521645      -21.2160628938      -24.7327997997  TIP3      17025           0.0000000000
    102590     18385  TIP3      H2            -36.4044222693      -21.6976517770      -24.1081423240  TIP3      17025           0.0000000000
    102591     18386  TIP3      OH2           -37.3934595556       -4.1161446165      -41.8625653036  TIP3      17026           0.0000000000
    102592     18386  TIP3      H1            -37.6879921489       -3.8442082578      -40.9914585210  TIP3      17026           0.0000000000
    102593     18386  TIP3      H2            -36.6551548052       -4.6962094658      -41.6825229339  TIP3      17026           0.0000000000
    102594     18387  TIP3      OH2           -27.5924758287      -21.5775953426      -24.3732141005  TIP3      17027           0.0000000000
    102595     18387  TIP3      H1            -27.5573360608      -22.0437781478      -23.5045960955  TIP3      17027           0.0000000000
    102596     18387  TIP3      H2            -26.6752738110      -21.6305342255      -24.6868441472  TIP3      17027           0.0000000000
    102597     18388  TIP3      OH2           -24.3803568926       -5.5213080790      -25.7143061487  TIP3      17028           0.0000000000
    102598     18388  TIP3      H1            -25.2170829738       -5.7137288962      -26.1895608860  TIP3      17028           0.0000000000
    102599     18388  TIP3      H2            -24.5351487287       -4.5924702375      -25.4585865005  TIP3      17028           0.0000000000
    102600     18389  TIP3      OH2            -9.9703679299      -11.6729717777      -35.7058677597  TIP3      17029           0.0000000000
    102601     18389  TIP3      H1             -9.9760410425      -10.6908552571      -35.7420777749  TIP3      17029           0.0000000000
    102602     18389  TIP3      H2            -10.6959755865      -11.9064420802      -36.3048634909  TIP3      17029           0.0000000000
    102603     18390  TIP3      OH2           -11.0875982943      -12.4216916595      -32.1965239662  TIP3      17030           0.0000000000
    102604     18390  TIP3      H1            -11.1441786503      -13.0646458724      -31.4819992651  TIP3      17030           0.0000000000
    102605     18390  TIP3      H2            -11.4471134059      -12.9125332974      -32.9527692119  TIP3      17030           0.0000000000
    102606     18391  TIP3      OH2           -18.7550929271      -12.7373295025      -30.6493149553  TIP3      17031           0.0000000000
    102607     18391  TIP3      H1            -18.6588121048      -13.4232942317      -29.9570596306  TIP3      17031           0.0000000000
    102608     18391  TIP3      H2            -18.0082647954      -12.1637075572      -30.4295694934  TIP3      17031           0.0000000000
    102609     18392  TIP3      OH2            -7.4057748596       -9.4816740978      -33.9024572178  TIP3      17032           0.0000000000
    102610     18392  TIP3      H1             -7.8529018725      -10.1771510089      -33.4190726615  TIP3      17032           0.0000000000
    102611     18392  TIP3      H2             -7.4010954235       -8.7604690469      -33.2448145324  TIP3      17032           0.0000000000
    102612     18393  TIP3      OH2           -17.8294834052       -8.2902560378      -32.1436621957  TIP3      17033           0.0000000000
    102613     18393  TIP3      H1            -18.1430052764       -9.1573745284      -32.4624787386  TIP3      17033           0.0000000000
    102614     18393  TIP3      H2            -16.8748445083       -8.4770829302      -32.0959060841  TIP3      17033           0.0000000000
    102615     18394  TIP3      OH2           -21.1184637905      -14.7270044156      -36.7778180847  TIP3      17034           0.0000000000
    102616     18394  TIP3      H1            -21.6326005889      -13.8808417476      -36.6942715732  TIP3      17034           0.0000000000
    102617     18394  TIP3      H2            -21.8111077409      -15.2745025310      -37.1860948549  TIP3      17034           0.0000000000
    102618     18395  TIP3      OH2           -20.4944502860      -12.5334451898      -34.5539730049  TIP3      17035           0.0000000000
    102619     18395  TIP3      H1            -20.2102792914      -13.3098355487      -34.0378602519  TIP3      17035           0.0000000000
    102620     18395  TIP3      H2            -19.7585175962      -12.3691348249      -35.1519214517  TIP3      17035           0.0000000000
    102621     18396  TIP3      OH2           -10.2995777028       -4.3079806045      -33.6785339132  TIP3      17036           0.0000000000
    102622     18396  TIP3      H1             -9.6565880804       -5.0022363349      -33.9658537023  TIP3      17036           0.0000000000
    102623     18396  TIP3      H2            -10.5163345929       -4.6381061261      -32.8072031958  TIP3      17036           0.0000000000
    102624     18397  TIP3      OH2           -12.7393038849      -10.0104484450      -31.7385631698  TIP3      17037           0.0000000000
    102625     18397  TIP3      H1            -12.3902637010      -10.6405741199      -32.3813228851  TIP3      17037           0.0000000000
    102626     18397  TIP3      H2            -11.9320018448       -9.8545692020      -31.2117360693  TIP3      17037           0.0000000000
    102627     18398  TIP3      OH2            -4.1692978347      -18.3176122179      -31.0135477643  TIP3      17038           0.0000000000
    102628     18398  TIP3      H1             -3.9437311787      -17.7889440412      -30.2170434829  TIP3      17038           0.0000000000
    102629     18398  TIP3      H2             -3.5548333285      -17.9514701536      -31.6659313170  TIP3      17038           0.0000000000
    102630     18399  TIP3      OH2            -9.4868271101      -15.5408956524      -31.4302768783  TIP3      17039           0.0000000000
    102631     18399  TIP3      H1             -9.4308486044      -16.5148957813      -31.4181908456  TIP3      17039           0.0000000000
    102632     18399  TIP3      H2             -9.6951925241      -15.4091431272      -32.3780556056  TIP3      17039           0.0000000000
    102633     18400  TIP3      OH2           -16.4512547785      -17.4580224453      -34.2024587258  TIP3      17040           0.0000000000
    102634     18400  TIP3      H1            -16.3325131891      -16.6230986969      -34.6765718895  TIP3      17040           0.0000000000
    102635     18400  TIP3      H2            -16.8482447052      -18.0439975955      -34.8794282490  TIP3      17040           0.0000000000
    102636     18401  TIP3      OH2            -8.7239196932      -17.3791821161      -35.8333373257  TIP3      17041           0.0000000000
    102637     18401  TIP3      H1             -8.0701792582      -17.7040735441      -35.1733732225  TIP3      17041           0.0000000000
    102638     18401  TIP3      H2             -8.1578184205      -16.8062218470      -36.3721744655  TIP3      17041           0.0000000000
    102639     18402  TIP3      OH2           -19.8234036931      -15.0287716672      -33.4662687609  TIP3      17042           0.0000000000
    102640     18402  TIP3      H1            -19.1729263938      -15.5850104136      -32.9856771355  TIP3      17042           0.0000000000
    102641     18402  TIP3      H2            -19.7263413230      -15.3955679508      -34.3486506383  TIP3      17042           0.0000000000
    102642     18403  TIP3      OH2           -14.6865896721      -13.4952969276      -34.1629564727  TIP3      17043           0.0000000000
    102643     18403  TIP3      H1            -14.0106882611      -14.0634459949      -33.7552958075  TIP3      17043           0.0000000000
    102644     18403  TIP3      H2            -15.1934080374      -14.1651939282      -34.6514737000  TIP3      17043           0.0000000000
    102645     18404  TIP3      OH2            -3.6982832033      -16.9360592554      -28.7394395476  TIP3      17044           0.0000000000
    102646     18404  TIP3      H1             -4.3262984161      -16.1851881946      -28.7725940680  TIP3      17044           0.0000000000
    102647     18404  TIP3      H2             -3.6352451251      -17.0649013869      -27.7817871193  TIP3      17044           0.0000000000
    102648     18405  TIP3      OH2           -17.5476827628      -18.5560667394      -30.1566750334  TIP3      17045           0.0000000000
    102649     18405  TIP3      H1            -17.8260881703      -17.9898713876      -30.9036395435  TIP3      17045           0.0000000000
    102650     18405  TIP3      H2            -18.2294570485      -18.3280660897      -29.4786322485  TIP3      17045           0.0000000000
    102651     18406  TIP3      OH2           -10.2552168463       -9.0755250370      -36.6119338843  TIP3      17046           0.0000000000
    102652     18406  TIP3      H1            -10.5334757508       -9.3616347438      -37.4932220433  TIP3      17046           0.0000000000
    102653     18406  TIP3      H2            -10.5636438005       -8.1437078833      -36.5622426435  TIP3      17046           0.0000000000
    102654     18407  TIP3      OH2           -15.0290751710      -10.9136001295      -29.9180629518  TIP3      17047           0.0000000000
    102655     18407  TIP3      H1            -15.7381794014      -10.2699285926      -29.7037784627  TIP3      17047           0.0000000000
    102656     18407  TIP3      H2            -14.3202419414      -10.3157272101      -30.2015087063  TIP3      17047           0.0000000000
    102657     18408  TIP3      OH2            -6.9221355538      -18.0227159828      -33.8278800721  TIP3      17048           0.0000000000
    102658     18408  TIP3      H1             -7.1283631015      -18.8097892970      -33.3127778203  TIP3      17048           0.0000000000
    102659     18408  TIP3      H2             -6.2245453360      -17.6104192625      -33.2974659019  TIP3      17048           0.0000000000
    102660     18409  TIP3      OH2           -17.9899825696      -16.6792948132      -32.1570306488  TIP3      17049           0.0000000000
    102661     18409  TIP3      H1            -17.3535037683      -16.0124664048      -31.8166182024  TIP3      17049           0.0000000000
    102662     18409  TIP3      H2            -17.4497812239      -17.1224014894      -32.8580649423  TIP3      17049           0.0000000000
    102663     18410  TIP3      OH2           -16.5826779194       -8.9165649568      -29.0916870312  TIP3      17050           0.0000000000
    102664     18410  TIP3      H1            -16.6317106842       -8.0035542743      -29.4362487833  TIP3      17050           0.0000000000
    102665     18410  TIP3      H2            -17.4654500504       -8.9923646752      -28.6518596913  TIP3      17050           0.0000000000
    102666     18411  TIP3      OH2           -20.5240966422       -9.2947145043      -38.3098063142  TIP3      17051           0.0000000000
    102667     18411  TIP3      H1            -20.7379432851       -8.9735739068      -39.2092623114  TIP3      17051           0.0000000000
    102668     18411  TIP3      H2            -20.4384344569       -8.4587933171      -37.8055555097  TIP3      17051           0.0000000000
    102669     18412  TIP3      OH2            -6.8945807324       -7.6292642886      -31.5491422892  TIP3      17052           0.0000000000
    102670     18412  TIP3      H1             -7.8621990544       -7.5189023407      -31.4258649278  TIP3      17052           0.0000000000
    102671     18412  TIP3      H2             -6.6248933362       -6.7120321532      -31.7465137620  TIP3      17052           0.0000000000
    102672     18413  TIP3      OH2            -6.5726919785      -19.3235492416      -30.1450521798  TIP3      17053           0.0000000000
    102673     18413  TIP3      H1             -7.3180277854      -18.7233548572      -30.2559194025  TIP3      17053           0.0000000000
    102674     18413  TIP3      H2             -5.8634892368      -18.9402731488      -30.6977016768  TIP3      17053           0.0000000000
    102675     18414  TIP3      OH2           -13.6018383870      -21.2247222588      -32.6960463941  TIP3      17054           0.0000000000
    102676     18414  TIP3      H1            -13.7456404743      -22.1907368855      -32.7678588785  TIP3      17054           0.0000000000
    102677     18414  TIP3      H2            -14.4814093679      -20.9192023202      -32.3910629657  TIP3      17054           0.0000000000
    102678     18415  TIP3      OH2            -8.6356176202       -5.8446792803      -34.9595543587  TIP3      17055           0.0000000000
    102679     18415  TIP3      H1             -8.2060632002       -6.5629064775      -35.4676459191  TIP3      17055           0.0000000000
    102680     18415  TIP3      H2             -8.2113936661       -5.0534231749      -35.3543542592  TIP3      17055           0.0000000000
    102681     18416  TIP3      OH2            -7.4270839148       -7.9177938323      -36.4449438270  TIP3      17056           0.0000000000
    102682     18416  TIP3      H1             -7.7138869110       -8.6140459064      -37.0596007969  TIP3      17056           0.0000000000
    102683     18416  TIP3      H2             -7.3912907791       -8.4097841802      -35.6048165576  TIP3      17056           0.0000000000
    102684     18417  TIP3      OH2            -5.7610155384       -9.3400675411      -27.9532780190  TIP3      17057           0.0000000000
    102685     18417  TIP3      H1             -5.6723714255       -9.9719490379      -28.6824925504  TIP3      17057           0.0000000000
    102686     18417  TIP3      H2             -5.6259932019       -8.4799243491      -28.3807450917  TIP3      17057           0.0000000000
    102687     18418  TIP3      OH2           -11.3195758029      -12.4436245334      -38.1867669055  TIP3      17058           0.0000000000
    102688     18418  TIP3      H1            -12.0088434617      -11.8653753323      -38.5492198548  TIP3      17058           0.0000000000
    102689     18418  TIP3      H2            -10.6050844590      -12.3455471269      -38.8473295961  TIP3      17058           0.0000000000
    102690     18419  TIP3      OH2           -11.2388333581      -13.8707612662      -41.1600660251  TIP3      17059           0.0000000000
    102691     18419  TIP3      H1            -10.5362761663      -13.8814624597      -40.4850058604  TIP3      17059           0.0000000000
    102692     18419  TIP3      H2            -10.9432935746      -14.6017871476      -41.7114307427  TIP3      17059           0.0000000000
    102693     18420  TIP3      OH2            -4.0120003101      -13.0656743578      -30.0172509411  TIP3      17060           0.0000000000
    102694     18420  TIP3      H1             -4.5209208296      -12.2404383384      -29.8260942953  TIP3      17060           0.0000000000
    102695     18420  TIP3      H2             -3.3697605900      -12.7334630175      -30.6813002042  TIP3      17060           0.0000000000
    102696     18421  TIP3      OH2            -7.8553784287      -12.2078544500      -37.2505459085  TIP3      17061           0.0000000000
    102697     18421  TIP3      H1             -8.6101303592      -11.9772499214      -36.6592799008  TIP3      17061           0.0000000000
    102698     18421  TIP3      H2             -7.3955283807      -12.8997749779      -36.7447644317  TIP3      17061           0.0000000000
    102699     18422  TIP3      OH2            -7.9110998815      -14.0342885985      -28.1991050309  TIP3      17062           0.0000000000
    102700     18422  TIP3      H1             -7.9438186781      -13.2509529435      -27.6048464081  TIP3      17062           0.0000000000
    102701     18422  TIP3      H2             -8.6188918972      -13.7393553928      -28.8096466475  TIP3      17062           0.0000000000
    102702     18423  TIP3      OH2           -16.2451720202      -11.5570339663      -35.3436106743  TIP3      17063           0.0000000000
    102703     18423  TIP3      H1            -16.5525035125      -11.9393876584      -36.1976972607  TIP3      17063           0.0000000000
    102704     18423  TIP3      H2            -15.6238340197      -12.2414863287      -35.0052547498  TIP3      17063           0.0000000000
    102705     18424  TIP3      OH2           -14.9293936149       -8.1761496638      -32.6670837532  TIP3      17064           0.0000000000
    102706     18424  TIP3      H1            -14.9399534662       -8.7057071847      -33.4733695927  TIP3      17064           0.0000000000
    102707     18424  TIP3      H2            -14.1470308704       -8.5341686981      -32.2080280307  TIP3      17064           0.0000000000
    102708     18425  TIP3      OH2           -15.9197804510      -12.8160878772      -31.6864633462  TIP3      17065           0.0000000000
    102709     18425  TIP3      H1            -15.3725031587      -12.7142082611      -32.4895245367  TIP3      17065           0.0000000000
    102710     18425  TIP3      H2            -15.5310347425      -12.1510148033      -31.0761585772  TIP3      17065           0.0000000000
    102711     18426  TIP3      OH2            -9.5083967628       -7.2440345568      -30.9488975911  TIP3      17066           0.0000000000
    102712     18426  TIP3      H1             -9.8025260230       -6.6091337066      -30.2889516159  TIP3      17066           0.0000000000
    102713     18426  TIP3      H2             -9.7647510895       -8.1014269923      -30.5309474808  TIP3      17066           0.0000000000
    102714     18427  TIP3      OH2           -14.9729960204       -8.3900788175      -26.9701132274  TIP3      17067           0.0000000000
    102715     18427  TIP3      H1            -15.3769192413       -7.6341704986      -26.5061838443  TIP3      17067           0.0000000000
    102716     18427  TIP3      H2            -15.6320559638       -8.5869414889      -27.6761499430  TIP3      17067           0.0000000000
    102717     18428  TIP3      OH2            -8.9885938118      -13.0375931471      -39.5840772898  TIP3      17068           0.0000000000
    102718     18428  TIP3      H1             -8.4309682958      -12.8510584648      -38.7875432275  TIP3      17068           0.0000000000
    102719     18428  TIP3      H2             -8.5718414642      -12.5171129200      -40.3035908178  TIP3      17068           0.0000000000
    102720     18429  TIP3      OH2           -18.0128670200      -12.2336708299      -27.8072301840  TIP3      17069           0.0000000000
    102721     18429  TIP3      H1            -17.9927438974      -11.5602456261      -27.1027945608  TIP3      17069           0.0000000000
    102722     18429  TIP3      H2            -18.9380253862      -12.1188017226      -28.0787836898  TIP3      17069           0.0000000000
    102723     18430  TIP3      OH2           -11.2749715341       -6.2976798620      -36.1331188220  TIP3      17070           0.0000000000
    102724     18430  TIP3      H1            -10.8418732482       -5.9945193367      -35.3257257030  TIP3      17070           0.0000000000
    102725     18430  TIP3      H2            -11.8355083143       -5.5491028822      -36.3634186614  TIP3      17070           0.0000000000
    102726     18431  TIP3      OH2           -16.7290406133       -6.3572410344      -26.2471053373  TIP3      17071           0.0000000000
    102727     18431  TIP3      H1            -16.7773029921       -6.4596777215      -27.2131949076  TIP3      17071           0.0000000000
    102728     18431  TIP3      H2            -17.6623050680       -6.4827070797      -25.9890179285  TIP3      17071           0.0000000000
    102729     18432  TIP3      OH2            -5.2700307299      -21.2906403252      -39.6926607712  TIP3      17072           0.0000000000
    102730     18432  TIP3      H1             -6.2223879869      -21.1768591849      -39.4595948837  TIP3      17072           0.0000000000
    102731     18432  TIP3      H2             -5.0611764933      -20.4429715692      -40.1162436965  TIP3      17072           0.0000000000
    102732     18433  TIP3      OH2           -17.3028883662      -12.5338316123      -37.7001104351  TIP3      17073           0.0000000000
    102733     18433  TIP3      H1            -17.5307653118      -11.7365630837      -38.2373727907  TIP3      17073           0.0000000000
    102734     18433  TIP3      H2            -17.9396888006      -13.1446113851      -38.0254870945  TIP3      17073           0.0000000000
    102735     18434  TIP3      OH2            -4.1724792020       -6.9391171007      -41.2581169364  TIP3      17074           0.0000000000
    102736     18434  TIP3      H1             -4.0258905017       -5.9801595973      -41.2182107336  TIP3      17074           0.0000000000
    102737     18434  TIP3      H2             -3.2599647174       -7.2361879908      -41.4340373903  TIP3      17074           0.0000000000
    102738     18435  TIP3      OH2           -21.1138475790      -10.0951462029      -28.8954234074  TIP3      17075           0.0000000000
    102739     18435  TIP3      H1            -21.6577562621      -10.1872307576      -29.6937880658  TIP3      17075           0.0000000000
    102740     18435  TIP3      H2            -21.1230094736      -11.0304149199      -28.6123388020  TIP3      17075           0.0000000000
    102741     18436  TIP3      OH2           -21.4281278877       -7.3724018958      -32.0675657012  TIP3      17076           0.0000000000
    102742     18436  TIP3      H1            -20.4706733853       -7.4936357257      -32.0790787531  TIP3      17076           0.0000000000
    102743     18436  TIP3      H2            -21.5140695419       -6.5611847846      -31.5517653217  TIP3      17076           0.0000000000
    102744     18437  TIP3      OH2            -3.2050632339       -6.6753840180      -26.3881675951  TIP3      17077           0.0000000000
    102745     18437  TIP3      H1             -3.3058565291       -7.6386927842      -26.3996727556  TIP3      17077           0.0000000000
    102746     18437  TIP3      H2             -4.0718348547       -6.4394973698      -25.9740512015  TIP3      17077           0.0000000000
    102747     18438  TIP3      OH2           -12.2536819135       -7.1098168258      -27.5548334724  TIP3      17078           0.0000000000
    102748     18438  TIP3      H1            -12.1550168488       -6.3070555460      -26.9915390662  TIP3      17078           0.0000000000
    102749     18438  TIP3      H2            -13.0841966263       -7.4979446862      -27.2309956537  TIP3      17078           0.0000000000
    102750     18439  TIP3      OH2           -11.8062816499       -3.3876436425      -37.7167608115  TIP3      17079           0.0000000000
    102751     18439  TIP3      H1            -11.8938914800       -3.4597485082      -38.6808397035  TIP3      17079           0.0000000000
    102752     18439  TIP3      H2            -11.7737987854       -2.4248949956      -37.5596417856  TIP3      17079           0.0000000000
    102753     18440  TIP3      OH2           -18.1565036307       -4.5113015598      -35.8941643541  TIP3      17080           0.0000000000
    102754     18440  TIP3      H1            -18.0088398602       -4.9252808742      -35.0126519359  TIP3      17080           0.0000000000
    102755     18440  TIP3      H2            -19.0061231775       -4.9174392652      -36.1292344865  TIP3      17080           0.0000000000
    102756     18441  TIP3      OH2            -8.7879712605       -4.1994160890      -40.7586205170  TIP3      17081           0.0000000000
    102757     18441  TIP3      H1             -8.2805373864       -4.9371251981      -41.1735731269  TIP3      17081           0.0000000000
    102758     18441  TIP3      H2             -8.7005894136       -4.4396810752      -39.8171285559  TIP3      17081           0.0000000000
    102759     18442  TIP3      OH2            -9.0536020486       -4.2398181609      -37.9511968067  TIP3      17082           0.0000000000
    102760     18442  TIP3      H1            -10.0093141757       -4.1717563262      -37.7612043168  TIP3      17082           0.0000000000
    102761     18442  TIP3      H2             -8.8039062025       -4.9848327951      -37.3851338653  TIP3      17082           0.0000000000
    102762     18443  TIP3      OH2            -6.0149764051      -15.2010176577      -25.9214983682  TIP3      17083           0.0000000000
    102763     18443  TIP3      H1             -6.5273022676      -14.7507599756      -26.6063705888  TIP3      17083           0.0000000000
    102764     18443  TIP3      H2             -6.0630277935      -16.1367332867      -26.1707770279  TIP3      17083           0.0000000000
    102765     18444  TIP3      OH2           -18.9128507312       -8.8021891082      -27.8871341310  TIP3      17084           0.0000000000
    102766     18444  TIP3      H1            -18.7078076936       -9.1765273975      -27.0033800699  TIP3      17084           0.0000000000
    102767     18444  TIP3      H2            -19.7840475683       -9.1996346553      -28.1096700880  TIP3      17084           0.0000000000
    102768     18445  TIP3      OH2           -16.2322274874      -20.3117858207      -31.9559712037  TIP3      17085           0.0000000000
    102769     18445  TIP3      H1            -17.1370238305      -20.4442541298      -32.3141257133  TIP3      17085           0.0000000000
    102770     18445  TIP3      H2            -16.3638953525      -19.4808117824      -31.4719990897  TIP3      17085           0.0000000000
    102771     18446  TIP3      OH2           -11.5845899970      -20.6489244945      -28.5672583046  TIP3      17086           0.0000000000
    102772     18446  TIP3      H1            -11.2027336281      -21.0719445909      -27.7783007541  TIP3      17086           0.0000000000
    102773     18446  TIP3      H2            -12.5614575873      -20.7706791697      -28.4432420143  TIP3      17086           0.0000000000
    102774     18447  TIP3      OH2            -8.2884474568      -16.7967272170      -27.6818287634  TIP3      17087           0.0000000000
    102775     18447  TIP3      H1             -8.8517672262      -17.0167062576      -26.9006620522  TIP3      17087           0.0000000000
    102776     18447  TIP3      H2             -8.5009345413      -15.8766668633      -27.8942462609  TIP3      17087           0.0000000000
    102777     18448  TIP3      OH2            -7.5354011934      -12.0161558618      -41.8884026935  TIP3      17088           0.0000000000
    102778     18448  TIP3      H1             -7.5165216668      -12.1938349449      -42.8407388456  TIP3      17088           0.0000000000
    102779     18448  TIP3      H2             -6.6974164741      -11.5534322805      -41.7375678165  TIP3      17088           0.0000000000
    102780     18449  TIP3      OH2           -11.9539709578      -18.0826512779      -41.2381254630  TIP3      17089           0.0000000000
    102781     18449  TIP3      H1            -12.2668781413      -18.1252600429      -40.3171562735  TIP3      17089           0.0000000000
    102782     18449  TIP3      H2            -12.2243281854      -18.9600132296      -41.5241010530  TIP3      17089           0.0000000000
    102783     18450  TIP3      OH2           -16.1232708267      -15.3478274668      -30.6940308455  TIP3      17090           0.0000000000
    102784     18450  TIP3      H1            -16.8590996844      -15.3638529961      -30.0548304513  TIP3      17090           0.0000000000
    102785     18450  TIP3      H2            -16.1888829492      -14.4432131501      -31.0703917663  TIP3      17090           0.0000000000
    102786     18451  TIP3      OH2           -16.2034471489      -15.1742649157      -35.8722590683  TIP3      17091           0.0000000000
    102787     18451  TIP3      H1            -17.0892432307      -15.5502288681      -35.9125855048  TIP3      17091           0.0000000000
    102788     18451  TIP3      H2            -15.7550763879      -15.5363689015      -36.6658040831  TIP3      17091           0.0000000000
    102789     18452  TIP3      OH2           -10.6513183749      -14.7324074413      -37.0577320472  TIP3      17092           0.0000000000
    102790     18452  TIP3      H1            -11.0521827685      -13.9019357960      -37.4051210017  TIP3      17092           0.0000000000
    102791     18452  TIP3      H2             -9.9638559573      -14.8936857020      -37.7301738545  TIP3      17092           0.0000000000
    102792     18453  TIP3      OH2           -11.5902066627      -14.5299008070      -25.6046692751  TIP3      17093           0.0000000000
    102793     18453  TIP3      H1            -12.1061288237      -15.3115565917      -25.3196077953  TIP3      17093           0.0000000000
    102794     18453  TIP3      H2            -10.7371916737      -14.6145603176      -25.1425409650  TIP3      17093           0.0000000000
    102795     18454  TIP3      OH2            -9.5751037832      -15.2302434417      -34.2180169996  TIP3      17094           0.0000000000
    102796     18454  TIP3      H1             -9.9028993639      -14.6828948286      -34.9546500836  TIP3      17094           0.0000000000
    102797     18454  TIP3      H2             -9.5222627122      -16.0898524556      -34.6848817384  TIP3      17094           0.0000000000
    102798     18455  TIP3      OH2           -18.5228679686      -15.0811239494      -28.9971793951  TIP3      17095           0.0000000000
    102799     18455  TIP3      H1            -18.3942157548      -14.6937735064      -28.1121814243  TIP3      17095           0.0000000000
    102800     18455  TIP3      H2            -18.9200338443      -15.9419880740      -28.7997178981  TIP3      17095           0.0000000000
    102801     18456  TIP3      OH2           -15.1227372714      -17.7450771666      -42.1768655855  TIP3      17096           0.0000000000
    102802     18456  TIP3      H1            -15.5705433430      -18.1313288996      -41.4079515136  TIP3      17096           0.0000000000
    102803     18456  TIP3      H2            -15.8191639007      -17.2834942489      -42.6581724024  TIP3      17096           0.0000000000
    102804     18457  TIP3      OH2           -21.8174795286      -17.9348860906      -35.0542144791  TIP3      17097           0.0000000000
    102805     18457  TIP3      H1            -21.1762488950      -18.0410410411      -34.3167295799  TIP3      17097           0.0000000000
    102806     18457  TIP3      H2            -21.4027781160      -18.4006801027      -35.8000454702  TIP3      17097           0.0000000000
    102807     18458  TIP3      OH2           -20.4939897391      -17.2007090611      -39.5584223824  TIP3      17098           0.0000000000
    102808     18458  TIP3      H1            -20.0885508765      -16.6801759053      -40.2858413127  TIP3      17098           0.0000000000
    102809     18458  TIP3      H2            -21.2871613509      -16.6486132415      -39.3711588501  TIP3      17098           0.0000000000
    102810     18459  TIP3      OH2           -10.3602152807      -13.6612235352      -29.6323945976  TIP3      17099           0.0000000000
    102811     18459  TIP3      H1            -10.0527359551      -14.3493276314      -30.2499272532  TIP3      17099           0.0000000000
    102812     18459  TIP3      H2            -10.8851012670      -14.1690366274      -28.9863717809  TIP3      17099           0.0000000000
    102813     18460  TIP3      OH2           -13.6036263671      -17.6771222929      -34.8182880956  TIP3      17100           0.0000000000
    102814     18460  TIP3      H1            -14.5335326138      -17.6815119011      -34.5255659323  TIP3      17100           0.0000000000
    102815     18460  TIP3      H2            -13.1197642112      -17.8412884561      -33.9985304592  TIP3      17100           0.0000000000
    102816     18461  TIP3      OH2           -18.8230583352      -16.2785402236      -35.7800154625  TIP3      17101           0.0000000000
    102817     18461  TIP3      H1            -19.7363523427      -16.1448247276      -36.1030263361  TIP3      17101           0.0000000000
    102818     18461  TIP3      H2            -18.5057610009      -17.1004593432      -36.2292266524  TIP3      17101           0.0000000000
    102819     18462  TIP3      OH2           -15.1901043112      -16.0314518604      -38.2851493032  TIP3      17102           0.0000000000
    102820     18462  TIP3      H1            -14.2151025505      -15.9935050265      -38.1650238184  TIP3      17102           0.0000000000
    102821     18462  TIP3      H2            -15.3649091560      -15.4203607570      -39.0236977646  TIP3      17102           0.0000000000
    102822     18463  TIP3      OH2            -9.1918659575      -18.4185166935      -31.5776631403  TIP3      17103           0.0000000000
    102823     18463  TIP3      H1             -9.8838189903      -18.3940961857      -30.8794179734  TIP3      17103           0.0000000000
    102824     18463  TIP3      H2             -9.6974309927      -18.6905593407      -32.3602339115  TIP3      17103           0.0000000000
    102825     18464  TIP3      OH2           -16.4652720831      -14.9087129318      -40.6899008793  TIP3      17104           0.0000000000
    102826     18464  TIP3      H1            -16.9873174516      -15.2499286362      -41.4390186800  TIP3      17104           0.0000000000
    102827     18464  TIP3      H2            -15.6509784765      -14.6898093601      -41.1764081009  TIP3      17104           0.0000000000
    102828     18465  TIP3      OH2            -5.9951541557       -2.8108031166      -25.2358930271  TIP3      17105           0.0000000000
    102829     18465  TIP3      H1             -5.7293270792       -2.4194708050      -26.0889862259  TIP3      17105           0.0000000000
    102830     18465  TIP3      H2             -5.2830459213       -2.4858766026      -24.6596211025  TIP3      17105           0.0000000000
    102831     18466  TIP3      OH2           -18.3247699355      -10.3438221371      -25.6756563081  TIP3      17106           0.0000000000
    102832     18466  TIP3      H1            -17.6081408192      -10.0693589005      -25.0783440948  TIP3      17106           0.0000000000
    102833     18466  TIP3      H2            -19.1000302028      -10.2153382112      -25.0948125971  TIP3      17106           0.0000000000
    102834     18467  TIP3      OH2           -12.3235038885      -14.9222082064      -32.9252377420  TIP3      17107           0.0000000000
    102835     18467  TIP3      H1            -11.7303841396      -15.4581933569      -33.4643885414  TIP3      17107           0.0000000000
    102836     18467  TIP3      H2            -12.4669520057      -15.4700811105      -32.1419187538  TIP3      17107           0.0000000000
    102837     18468  TIP3      OH2           -17.3385362126      -18.7505613286      -36.5327052141  TIP3      17108           0.0000000000
    102838     18468  TIP3      H1            -17.6204943601      -19.6894338712      -36.4918744097  TIP3      17108           0.0000000000
    102839     18468  TIP3      H2            -16.5146001296      -18.8584454347      -37.0317247353  TIP3      17108           0.0000000000
    102840     18469  TIP3      OH2           -13.6872962449      -16.5912510898      -30.5156034982  TIP3      17109           0.0000000000
    102841     18469  TIP3      H1            -14.5133008919      -16.0771669609      -30.4233089750  TIP3      17109           0.0000000000
    102842     18469  TIP3      H2            -13.1358391814      -16.2442489113      -29.7874710282  TIP3      17109           0.0000000000
    102843     18470  TIP3      OH2           -13.0967841150      -10.3616178233      -38.8334950709  TIP3      17110           0.0000000000
    102844     18470  TIP3      H1            -13.8986406872      -10.8387982852      -39.1469713616  TIP3      17110           0.0000000000
    102845     18470  TIP3      H2            -13.3114331024      -10.2525888296      -37.8845852866  TIP3      17110           0.0000000000
    102846     18471  TIP3      OH2            -5.9010259967      -11.2598029425      -30.0750167587  TIP3      17111           0.0000000000
    102847     18471  TIP3      H1             -5.3577278156      -10.6623930815      -30.6289452880  TIP3      17111           0.0000000000
    102848     18471  TIP3      H2             -6.7889992595      -11.0775771415      -30.4531545415  TIP3      17111           0.0000000000
    102849     18472  TIP3      OH2            -9.2664960249      -17.5858985248      -40.5992962584  TIP3      17112           0.0000000000
    102850     18472  TIP3      H1            -10.2022346453      -17.4266614490      -40.8074875946  TIP3      17112           0.0000000000
    102851     18472  TIP3      H2             -8.9386026977      -16.7058104891      -40.3293206387  TIP3      17112           0.0000000000
    102852     18473  TIP3      OH2           -11.7020323719      -10.1195087148      -27.6237313127  TIP3      17113           0.0000000000
    102853     18473  TIP3      H1            -11.8934919179      -10.5202082957      -26.7642654891  TIP3      17113           0.0000000000
    102854     18473  TIP3      H2            -11.8161509840       -9.1836988482      -27.4474423419  TIP3      17113           0.0000000000
    102855     18474  TIP3      OH2            -8.5289567493      -15.6348325608      -38.9679027735  TIP3      17114           0.0000000000
    102856     18474  TIP3      H1             -7.6344473987      -15.7777756492      -38.5992628581  TIP3      17114           0.0000000000
    102857     18474  TIP3      H2             -8.4389153658      -14.8244684196      -39.4925796583  TIP3      17114           0.0000000000
    102858     18475  TIP3      OH2           -17.9907984041      -10.9855572635      -33.0158855632  TIP3      17115           0.0000000000
    102859     18475  TIP3      H1            -17.2911986747      -11.0457205144      -33.6923664936  TIP3      17115           0.0000000000
    102860     18475  TIP3      H2            -17.9248165733      -11.8409463073      -32.5580803271  TIP3      17115           0.0000000000
    102861     18476  TIP3      OH2           -11.0079107562       -8.8924506573      -39.7610886949  TIP3      17116           0.0000000000
    102862     18476  TIP3      H1            -11.3583155858       -8.0463355368      -39.4031702109  TIP3      17116           0.0000000000
    102863     18476  TIP3      H2            -11.7466307872       -9.5114044146      -39.5517048716  TIP3      17116           0.0000000000
    102864     18477  TIP3      OH2           -20.9862678637      -12.5787664764      -27.7483060328  TIP3      17117           0.0000000000
    102865     18477  TIP3      H1            -20.7982912192      -13.0019267330      -26.8984071763  TIP3      17117           0.0000000000
    102866     18477  TIP3      H2            -21.6273923026      -13.1475732582      -28.2031197510  TIP3      17117           0.0000000000
    102867     18478  TIP3      OH2           -13.9954320076      -13.0479208975      -25.5535212217  TIP3      17118           0.0000000000
    102868     18478  TIP3      H1            -14.2945036962      -13.2862706877      -26.4429147695  TIP3      17118           0.0000000000
    102869     18478  TIP3      H2            -13.0431489774      -13.2724979373      -25.5964870684  TIP3      17118           0.0000000000
    102870     18479  TIP3      OH2            -9.3229607246       -7.5658576440      -27.6873515681  TIP3      17119           0.0000000000
    102871     18479  TIP3      H1            -10.2705708770       -7.5090030981      -27.8408339600  TIP3      17119           0.0000000000
    102872     18479  TIP3      H2             -9.3269653218       -7.4759669431      -26.7114783080  TIP3      17119           0.0000000000
    102873     18480  TIP3      OH2            -3.6375154655      -15.4960616650      -39.2250471579  TIP3      17120           0.0000000000
    102874     18480  TIP3      H1             -4.2054266167      -15.7961363820      -39.9634146772  TIP3      17120           0.0000000000
    102875     18480  TIP3      H2             -3.5616271178      -14.5573824500      -39.5025184314  TIP3      17120           0.0000000000
    102876     18481  TIP3      OH2            -3.6295488007       -9.6310327878      -26.4173333908  TIP3      17121           0.0000000000
    102877     18481  TIP3      H1             -4.5369993324       -9.4260915533      -26.7688396440  TIP3      17121           0.0000000000
    102878     18481  TIP3      H2             -3.1020158193       -9.6872484215      -27.2404256134  TIP3      17121           0.0000000000
    102879     18482  TIP3      OH2            -5.3356377372       -6.6684200836      -38.8253446276  TIP3      17122           0.0000000000
    102880     18482  TIP3      H1             -5.7110742090       -7.4970933810      -38.5038049160  TIP3      17122           0.0000000000
    102881     18482  TIP3      H2             -5.0420755907       -6.8588480676      -39.7429089089  TIP3      17122           0.0000000000
    102882     18483  TIP3      OH2            -8.1368213771      -11.8716098542      -31.7154074456  TIP3      17123           0.0000000000
    102883     18483  TIP3      H1             -9.0890468277      -12.0389233797      -31.8457289220  TIP3      17123           0.0000000000
    102884     18483  TIP3      H2             -7.7409905134      -12.6065320973      -32.2054641436  TIP3      17123           0.0000000000
    102885     18484  TIP3      OH2           -15.6176811580       -7.5231716348      -35.6323624031  TIP3      17124           0.0000000000
    102886     18484  TIP3      H1            -15.1183534073       -6.7178058223      -35.8390808821  TIP3      17124           0.0000000000
    102887     18484  TIP3      H2            -16.4969465840       -7.2899473688      -35.9616500781  TIP3      17124           0.0000000000
    102888     18485  TIP3      OH2           -19.8754114755      -12.7075018088      -41.0600240825  TIP3      17125           0.0000000000
    102889     18485  TIP3      H1            -19.2678271981      -12.0303012994      -40.7162034415  TIP3      17125           0.0000000000
    102890     18485  TIP3      H2            -20.7423866170      -12.3676376638      -40.7711244834  TIP3      17125           0.0000000000
    102891     18486  TIP3      OH2           -14.2038018045       -9.8552689212      -36.1198050389  TIP3      17126           0.0000000000
    102892     18486  TIP3      H1            -14.5104016345       -8.9361262244      -36.0213553435  TIP3      17126           0.0000000000
    102893     18486  TIP3      H2            -14.9217929484      -10.3456522733      -35.6719097260  TIP3      17126           0.0000000000
    102894     18487  TIP3      OH2           -13.7478486373       -5.6748887687      -29.7090322243  TIP3      17127           0.0000000000
    102895     18487  TIP3      H1            -13.2913220183       -4.8680107638      -29.9894529800  TIP3      17127           0.0000000000
    102896     18487  TIP3      H2            -13.1317907510       -6.0164540514      -29.0355919712  TIP3      17127           0.0000000000
    102897     18488  TIP3      OH2           -15.5268166078       -4.8671047375      -36.5712826439  TIP3      17128           0.0000000000
    102898     18488  TIP3      H1            -16.4911451043       -4.7222592307      -36.4533931613  TIP3      17128           0.0000000000
    102899     18488  TIP3      H2            -15.1644688139       -4.0246506850      -36.2383015578  TIP3      17128           0.0000000000
    102900     18489  TIP3      OH2           -10.2553229898       -9.6711265861      -30.1049097302  TIP3      17129           0.0000000000
    102901     18489  TIP3      H1            -10.5432029188       -9.8405825712      -29.1811693340  TIP3      17129           0.0000000000
    102902     18489  TIP3      H2             -9.5863861215      -10.3615240691      -30.2292521805  TIP3      17129           0.0000000000
    102903     18490  TIP3      OH2            -7.9350583828       -8.6273010103      -40.9797795973  TIP3      17130           0.0000000000
    102904     18490  TIP3      H1             -7.6011232888       -9.0794307151      -40.1823779578  TIP3      17130           0.0000000000
    102905     18490  TIP3      H2             -8.8844869284       -8.7911466776      -40.8900442368  TIP3      17130           0.0000000000
    102906     18491  TIP3      OH2            -7.4112435428       -5.0714007055      -27.5934457709  TIP3      17131           0.0000000000
    102907     18491  TIP3      H1             -8.0975856286       -5.5977658506      -28.0550988745  TIP3      17131           0.0000000000
    102908     18491  TIP3      H2             -7.2314992801       -4.3851045430      -28.2710930753  TIP3      17131           0.0000000000
    102909     18492  TIP3      OH2            -3.4338671444       -4.2117796407      -40.7767835532  TIP3      17132           0.0000000000
    102910     18492  TIP3      H1             -2.7096552300       -3.5881548872      -40.9532267023  TIP3      17132           0.0000000000
    102911     18492  TIP3      H2             -4.1429480932       -3.6158605136      -40.4540809583  TIP3      17132           0.0000000000
    102912     18493  TIP3      OH2           -19.3560309757      -17.8334509064      -28.2094813621  TIP3      17133           0.0000000000
    102913     18493  TIP3      H1            -20.2627810897      -17.5060428211      -28.2444224791  TIP3      17133           0.0000000000
    102914     18493  TIP3      H2            -19.4390470687      -18.6867210450      -27.7480510262  TIP3      17133           0.0000000000
    102915     18494  TIP3      OH2            -7.1115779234       -9.9713866965      -38.7487160074  TIP3      17134           0.0000000000
    102916     18494  TIP3      H1             -7.3552317336      -10.7579920904      -38.2217589435  TIP3      17134           0.0000000000
    102917     18494  TIP3      H2             -6.1589028508       -9.9209829573      -38.5582600796  TIP3      17134           0.0000000000
    102918     18495  TIP3      OH2           -19.7341199090       -6.0536111210      -29.7746056551  TIP3      17135           0.0000000000
    102919     18495  TIP3      H1            -19.4421609067       -6.9768290572      -29.7706154721  TIP3      17135           0.0000000000
    102920     18495  TIP3      H2            -19.4730058565       -5.7632644634      -28.8933951367  TIP3      17135           0.0000000000
    102921     18496  TIP3      OH2           -13.7732323900       -7.5670611314      -42.5367592751  TIP3      17136           0.0000000000
    102922     18496  TIP3      H1            -13.6167463930       -8.3304412346      -43.0743917417  TIP3      17136           0.0000000000
    102923     18496  TIP3      H2            -14.2016496258       -7.9138772331      -41.7222807229  TIP3      17136           0.0000000000
    102924     18497  TIP3      OH2           -14.9810265216       -7.9879672527      -40.0597365082  TIP3      17137           0.0000000000
    102925     18497  TIP3      H1            -14.7341765515       -8.5122097000      -39.2878944286  TIP3      17137           0.0000000000
    102926     18497  TIP3      H2            -14.9115301991       -7.0594503174      -39.7484736503  TIP3      17137           0.0000000000
    102927     18498  TIP3      OH2           -18.4678849311      -10.7544637895      -39.5710398836  TIP3      17138           0.0000000000
    102928     18498  TIP3      H1            -19.1568575404      -10.3244184461      -39.0209615064  TIP3      17138           0.0000000000
    102929     18498  TIP3      H2            -17.9443640045       -9.9803453313      -39.8535935860  TIP3      17138           0.0000000000
    102930     18499  TIP3      OH2           -10.6166608703      -18.0607365858      -29.2717380291  TIP3      17139           0.0000000000
    102931     18499  TIP3      H1             -9.9117869546      -18.0009480187      -28.6159767132  TIP3      17139           0.0000000000
    102932     18499  TIP3      H2            -11.0112438456      -18.9320154978      -29.0665629247  TIP3      17139           0.0000000000
    102933     18500  TIP3      OH2            -9.8869496303      -18.4818341212      -38.1397145133  TIP3      17140           0.0000000000
    102934     18500  TIP3      H1             -9.6357292985      -18.0291681496      -38.9735729315  TIP3      17140           0.0000000000
    102935     18500  TIP3      H2             -9.2908208144      -18.0512711293      -37.5168511598  TIP3      17140           0.0000000000
    102936     18501  TIP3      OH2           -12.1843716327       -6.3354193576      -39.3728351592  TIP3      17141           0.0000000000
    102937     18501  TIP3      H1            -13.0024186142       -5.8116379652      -39.2677584211  TIP3      17141           0.0000000000
    102938     18501  TIP3      H2            -11.6623333150       -5.7942906367      -39.9799566743  TIP3      17141           0.0000000000
    102939     18502  TIP3      OH2           -12.6486662154      -16.7409770938      -37.3348136003  TIP3      17142           0.0000000000
    102940     18502  TIP3      H1            -11.8592564060      -16.1653925672      -37.3016393280  TIP3      17142           0.0000000000
    102941     18502  TIP3      H2            -12.9029836286      -16.8602223771      -36.4019509854  TIP3      17142           0.0000000000
    102942     18503  TIP3      OH2           -12.1056016447      -15.7314003007      -28.1632179084  TIP3      17143           0.0000000000
    102943     18503  TIP3      H1            -11.9994827286      -15.1347153404      -27.3963687332  TIP3      17143           0.0000000000
    102944     18503  TIP3      H2            -11.4237432899      -16.4102206916      -28.0734779935  TIP3      17143           0.0000000000
    102945     18504  TIP3      OH2           -11.7901951742      -19.6831211433      -36.4525476790  TIP3      17144           0.0000000000
    102946     18504  TIP3      H1            -12.1143749272      -19.0272286610      -35.8120854641  TIP3      17144           0.0000000000
    102947     18504  TIP3      H2            -11.1002356348      -19.1385358150      -36.9079095417  TIP3      17144           0.0000000000
    102948     18505  TIP3      OH2           -14.8093881014       -5.2981706638      -39.3040376659  TIP3      17145           0.0000000000
    102949     18505  TIP3      H1            -14.6640444012       -4.4793576761      -39.8306795860  TIP3      17145           0.0000000000
    102950     18505  TIP3      H2            -15.0642530100       -4.9389165898      -38.4309397199  TIP3      17145           0.0000000000
    102951     18506  TIP3      OH2           -16.1449307105      -18.5848576380      -39.6934448719  TIP3      17146           0.0000000000
    102952     18506  TIP3      H1            -16.1589426862      -17.6663399498      -39.3867082103  TIP3      17146           0.0000000000
    102953     18506  TIP3      H2            -15.2260048326      -18.8457846811      -39.4764231876  TIP3      17146           0.0000000000
    102954     18507  TIP3      OH2            -5.9097646905      -17.8681911045      -27.3049760680  TIP3      17147           0.0000000000
    102955     18507  TIP3      H1             -6.8365022142      -17.5460688601      -27.4248140347  TIP3      17147           0.0000000000
    102956     18507  TIP3      H2             -5.6127236486      -17.8875475731      -28.2259870272  TIP3      17147           0.0000000000
    102957     18508  TIP3      OH2            -7.2915947355      -14.0678815979      -33.1968917370  TIP3      17148           0.0000000000
    102958     18508  TIP3      H1             -8.1100134260      -14.4660021489      -33.5846178328  TIP3      17148           0.0000000000
    102959     18508  TIP3      H2             -6.8449756629      -14.8555419611      -32.8572562728  TIP3      17148           0.0000000000
    102960     18509  TIP3      OH2           -17.8783374517       -8.1589866698      -40.6786579086  TIP3      17149           0.0000000000
    102961     18509  TIP3      H1            -17.2407382353       -7.4965228145      -40.3918869650  TIP3      17149           0.0000000000
    102962     18509  TIP3      H2            -17.3824743350       -8.5991131772      -41.3961372810  TIP3      17149           0.0000000000
    102963     18510  TIP3      OH2           -19.5460023203      -15.4717136160      -41.4411851549  TIP3      17150           0.0000000000
    102964     18510  TIP3      H1            -19.5432618628      -14.4952558257      -41.4270287395  TIP3      17150           0.0000000000
    102965     18510  TIP3      H2            -20.3754442148      -15.6663355402      -41.8964049187  TIP3      17150           0.0000000000
    102966     18511  TIP3      OH2            -6.2341848830       -4.8051165877      -31.6225024317  TIP3      17151           0.0000000000
    102967     18511  TIP3      H1             -6.3279102652       -4.1211586076      -32.3144604581  TIP3      17151           0.0000000000
    102968     18511  TIP3      H2             -5.2713371762       -4.7457239367      -31.4464913909  TIP3      17151           0.0000000000
    102969     18512  TIP3      OH2           -18.7418337288      -20.6815716640      -32.8202127132  TIP3      17152           0.0000000000
    102970     18512  TIP3      H1            -18.9378472075      -20.6602907061      -33.7834036399  TIP3      17152           0.0000000000
    102971     18512  TIP3      H2            -19.1596466757      -21.5313089853      -32.5671244949  TIP3      17152           0.0000000000
    102972     18513  TIP3      OH2           -19.7824990659       -6.7595538753      -36.6795426996  TIP3      17153           0.0000000000
    102973     18513  TIP3      H1            -20.6402901278       -6.3102259935      -36.7131814652  TIP3      17153           0.0000000000
    102974     18513  TIP3      H2            -19.3080887415       -6.2893248797      -37.3759147209  TIP3      17153           0.0000000000
    102975     18514  TIP3      OH2           -20.5703851424       -4.1113546129      -25.3656088348  TIP3      17154           0.0000000000
    102976     18514  TIP3      H1            -19.9886586479       -4.3298321129      -24.6251893443  TIP3      17154           0.0000000000
    102977     18514  TIP3      H2            -20.9963666423       -4.9672005694      -25.5519698439  TIP3      17154           0.0000000000
    102978     18515  TIP3      OH2           -15.9100512545       -5.1974854023      -23.7595996004  TIP3      17155           0.0000000000
    102979     18515  TIP3      H1            -15.1305128137       -5.6899588467      -23.4683600924  TIP3      17155           0.0000000000
    102980     18515  TIP3      H2            -15.9574084573       -5.4691212047      -24.6925082077  TIP3      17155           0.0000000000
    102981     18516  TIP3      OH2           -11.7886949405       -5.6812111281      -42.3925866986  TIP3      17156           0.0000000000
    102982     18516  TIP3      H1            -12.4963218834       -6.3204029019      -42.1652643208  TIP3      17156           0.0000000000
    102983     18516  TIP3      H2            -11.0566039466       -6.2662887619      -42.6115177220  TIP3      17156           0.0000000000
    102984     18517  TIP3      OH2            -9.4523485449       -6.5413492628      -24.9681921575  TIP3      17157           0.0000000000
    102985     18517  TIP3      H1             -9.6840296802       -7.5036616803      -24.9005229529  TIP3      17157           0.0000000000
    102986     18517  TIP3      H2             -8.5980829658       -6.6408783345      -24.5074511012  TIP3      17157           0.0000000000
    102987     18518  TIP3      OH2            -7.1989874422       -5.9012371327      -42.1715185279  TIP3      17158           0.0000000000
    102988     18518  TIP3      H1             -6.9457345174       -6.7209653609      -41.7097038423  TIP3      17158           0.0000000000
    102989     18518  TIP3      H2             -6.4273877070       -5.7260488072      -42.7151392417  TIP3      17158           0.0000000000
    102990     18519  TIP3      OH2           -20.6676128990      -10.3713069935      -24.3844068681  TIP3      17159           0.0000000000
    102991     18519  TIP3      H1            -20.4849236575      -11.2331578153      -24.7846265878  TIP3      17159           0.0000000000
    102992     18519  TIP3      H2            -21.3874416237      -10.0347649421      -24.9683542724  TIP3      17159           0.0000000000
    102993     18520  TIP3      OH2           -16.2911982599      -10.0024009743      -42.3388852571  TIP3      17160           0.0000000000
    102994     18520  TIP3      H1            -16.1977098728      -10.7667923812      -41.7500273118  TIP3      17160           0.0000000000
    102995     18520  TIP3      H2            -15.6364731804      -10.1361416623      -43.0127187337  TIP3      17160           0.0000000000
    102996     18521  TIP3      OH2           -13.9756640942      -10.3406924276      -25.0190383620  TIP3      17161           0.0000000000
    102997     18521  TIP3      H1            -14.2909549248      -10.0403304957      -25.8810741855  TIP3      17161           0.0000000000
    102998     18521  TIP3      H2            -13.8457000535      -11.3114337674      -25.1184599100  TIP3      17161           0.0000000000
    102999     18522  TIP3      OH2           -11.0084290987       -8.9218485244      -42.5988239675  TIP3      17162           0.0000000000
    103000     18522  TIP3      H1            -11.1548308423       -8.7568005838      -41.6446523745  TIP3      17162           0.0000000000
    103001     18522  TIP3      H2            -11.0817480236       -9.8771614934      -42.6556151340  TIP3      17162           0.0000000000
    103002     18523  TIP3      OH2            -8.2282232998      -10.5022411281      -27.8500236080  TIP3      17163           0.0000000000
    103003     18523  TIP3      H1             -7.4834678014       -9.8995006663      -27.6414913790  TIP3      17163           0.0000000000
    103004     18523  TIP3      H2             -8.9320538280       -9.9076361093      -27.5163201702  TIP3      17163           0.0000000000
    103005     18524  TIP3      OH2           -19.7820335693      -13.1091470713      -24.9913932356  TIP3      17164           0.0000000000
    103006     18524  TIP3      H1            -19.2877686459      -13.9347864351      -25.1291415922  TIP3      17164           0.0000000000
    103007     18524  TIP3      H2            -19.9681867264      -13.1220252478      -24.0652565675  TIP3      17164           0.0000000000
    103008     18525  TIP3      OH2           -15.1116000182      -11.9699900050      -39.9719934369  TIP3      17165           0.0000000000
    103009     18525  TIP3      H1            -15.5939872253      -12.4969563782      -39.3275355669  TIP3      17165           0.0000000000
    103010     18525  TIP3      H2            -14.8008554942      -12.6614402854      -40.6043525324  TIP3      17165           0.0000000000
    103011     18526  TIP3      OH2           -15.8468933456      -14.1750501418      -27.6424674865  TIP3      17166           0.0000000000
    103012     18526  TIP3      H1            -16.4467173757      -13.4549746046      -27.3871047392  TIP3      17166           0.0000000000
    103013     18526  TIP3      H2            -15.4569825672      -13.8074420881      -28.4540980991  TIP3      17166           0.0000000000
    103014     18527  TIP3      OH2           -14.0274209740      -13.6562919037      -41.7828508988  TIP3      17167           0.0000000000
    103015     18527  TIP3      H1            -14.1690414492      -13.9723297474      -42.6824060719  TIP3      17167           0.0000000000
    103016     18527  TIP3      H2            -13.0582002866      -13.7204567114      -41.6296714371  TIP3      17167           0.0000000000
    103017     18528  TIP3      OH2           -10.8200246253      -11.7132517729      -24.3812911603  TIP3      17168           0.0000000000
    103018     18528  TIP3      H1             -9.8583515293      -11.5302486937      -24.4043128501  TIP3      17168           0.0000000000
    103019     18528  TIP3      H2            -10.9510065862      -12.3728330404      -23.6986327336  TIP3      17168           0.0000000000
    103020     18529  TIP3      OH2            -4.7027501742      -11.4021963356      -42.3066577811  TIP3      17169           0.0000000000
    103021     18529  TIP3      H1             -4.9329811678      -11.8093652695      -43.1443472619  TIP3      17169           0.0000000000
    103022     18529  TIP3      H2             -4.6066774415      -10.4659482627      -42.5342384893  TIP3      17169           0.0000000000
    103023     18530  TIP3      OH2           -15.4026269872      -16.7821582643      -26.5690289430  TIP3      17170           0.0000000000
    103024     18530  TIP3      H1            -15.3502204351      -17.4925628734      -27.2362166300  TIP3      17170           0.0000000000
    103025     18530  TIP3      H2            -15.4971335746      -15.9822768256      -27.1328886979  TIP3      17170           0.0000000000
    103026     18531  TIP3      OH2           -15.0422995053      -18.3998302015      -29.0394485109  TIP3      17171           0.0000000000
    103027     18531  TIP3      H1            -14.5333501254      -17.9422855271      -29.7481747082  TIP3      17171           0.0000000000
    103028     18531  TIP3      H2            -15.9348048514      -18.4848635557      -29.4442174860  TIP3      17171           0.0000000000
    103029     18532  TIP3      OH2           -13.5026471960      -12.9191065464      -28.7922901825  TIP3      17172           0.0000000000
    103030     18532  TIP3      H1            -12.7548625485      -13.0824982730      -29.3746618039  TIP3      17172           0.0000000000
    103031     18532  TIP3      H2            -13.8647578327      -12.0803497846      -29.1254286269  TIP3      17172           0.0000000000
    103032     18533  TIP3      OH2            -9.1324781653      -15.1781191749      -23.7883187123  TIP3      17173           0.0000000000
    103033     18533  TIP3      H1             -8.8421606030      -16.0903005651      -23.8838619428  TIP3      17173           0.0000000000
    103034     18533  TIP3      H2             -8.2828368448      -14.6973551760      -23.8460821476  TIP3      17173           0.0000000000
    103035     18534  TIP3      OH2            -7.7616273548      -12.4103234475      -25.7735378307  TIP3      17174           0.0000000000
    103036     18534  TIP3      H1             -8.0365252398      -11.5898759377      -26.2399060055  TIP3      17174           0.0000000000
    103037     18534  TIP3      H2             -6.7992361162      -12.3579044066      -25.8825903781  TIP3      17174           0.0000000000
    103038     18535  TIP3      OH2           -16.9694267553      -15.5457515751      -24.6572054344  TIP3      17175           0.0000000000
    103039     18535  TIP3      H1            -17.7515953341      -16.1081448247      -24.8329593607  TIP3      17175           0.0000000000
    103040     18535  TIP3      H2            -16.3468594663      -15.9047739548      -25.3140130540  TIP3      17175           0.0000000000
    103041     18536  TIP3      OH2           -14.2596944207      -20.9666456572      -28.6515560093  TIP3      17176           0.0000000000
    103042     18536  TIP3      H1            -14.4305085635      -20.0037697128      -28.7620585604  TIP3      17176           0.0000000000
    103043     18536  TIP3      H2            -15.0101250163      -21.3363896352      -29.1478218861  TIP3      17176           0.0000000000
    103044     18537  TIP3      OH2           -12.9900415952      -16.6668123692      -25.0402041743  TIP3      17177           0.0000000000
    103045     18537  TIP3      H1            -13.2630824979      -16.8885394518      -24.1660743780  TIP3      17177           0.0000000000
    103046     18537  TIP3      H2            -13.7740450627      -16.8277582187      -25.6112480045  TIP3      17177           0.0000000000
    103047     18538  TIP3      OH2           -10.2622056795      -17.4768360295      -25.9423423590  TIP3      17178           0.0000000000
    103048     18538  TIP3      H1            -11.2276892250      -17.4452491372      -25.8490843916  TIP3      17178           0.0000000000
    103049     18538  TIP3      H2             -9.9797368503      -18.1425350961      -25.2955673799  TIP3      17178           0.0000000000
    103050     18539  TIP3      OH2            -8.7260431972      -18.8957505981      -24.0074502576  TIP3      17179           0.0000000000
    103051     18539  TIP3      H1             -8.7271810731      -19.8494799329      -23.9957432099  TIP3      17179           0.0000000000
    103052     18539  TIP3      H2             -8.9075627494      -18.5859076525      -23.0889795218  TIP3      17179           0.0000000000
    103053     18540  TIP3      OH2           -18.9311076780      -17.5929708825      -24.9367938745  TIP3      17180           0.0000000000
    103054     18540  TIP3      H1            -18.6369890766      -18.3182180522      -25.5194241023  TIP3      17180           0.0000000000
    103055     18540  TIP3      H2            -18.9589294416      -18.0616580313      -24.0699311290  TIP3      17180           0.0000000000
    103056     18541  TIP3      OH2           -14.0019302978      -21.5448827142      -25.9660115874  TIP3      17181           0.0000000000
    103057     18541  TIP3      H1            -13.3845248642      -22.3088863613      -25.9740680729  TIP3      17181           0.0000000000
    103058     18541  TIP3      H2            -14.1587109393      -21.4254423444      -26.9268555271  TIP3      17181           0.0000000000
    103059     18542  TIP3      OH2           -13.6558285103      -19.8965807451      -23.8931147440  TIP3      17182           0.0000000000
    103060     18542  TIP3      H1            -13.8263339308      -20.4911921830      -24.6737494743  TIP3      17182           0.0000000000
    103061     18542  TIP3      H2            -14.3399600672      -19.2493842859      -24.0070712280  TIP3      17182           0.0000000000
    103062     18543  TIP3      OH2           -14.1958731727       -3.0081001120      -40.6618973836  TIP3      17183           0.0000000000
    103063     18543  TIP3      H1            -13.2221950826       -2.9678662376      -40.6199220795  TIP3      17183           0.0000000000
    103064     18543  TIP3      H2            -14.3807985634       -2.4253925651      -41.3972580712  TIP3      17183           0.0000000000
    103065     18544  TIP3      OH2           -20.6123698066       -8.4568938780      -41.1855331461  TIP3      17184           0.0000000000
    103066     18544  TIP3      H1            -19.6570231732       -8.3681643270      -40.9678858582  TIP3      17184           0.0000000000
    103067     18544  TIP3      H2            -20.5635432488       -9.0652713048      -41.9324371201  TIP3      17184           0.0000000000
    103068     18545  TIP3      OH2           -21.8781007187       -3.0867286251      -36.2319455766  TIP3      17185           0.0000000000
    103069     18545  TIP3      H1            -22.5912688474       -3.5752090231      -36.7009174066  TIP3      17185           0.0000000000
    103070     18545  TIP3      H2            -21.5946990782       -3.7427835325      -35.5699829547  TIP3      17185           0.0000000000
    103071     18546  TIP3      OH2           -21.0535367898       -4.9552288593      -34.3604259028  TIP3      17186           0.0000000000
    103072     18546  TIP3      H1            -21.4038031162       -5.8354830367      -34.1630391522  TIP3      17186           0.0000000000
    103073     18546  TIP3      H2            -20.8297974395       -4.6261679495      -33.4733720024  TIP3      17186           0.0000000000
    103074     18547  TIP3      OH2            -3.5161361332       -4.1584048421      -31.4239766666  TIP3      17187           0.0000000000
    103075     18547  TIP3      H1             -3.4853913311       -3.9973754634      -30.4642490528  TIP3      17187           0.0000000000
    103076     18547  TIP3      H2             -2.8108206952       -3.5780575464      -31.7295170652  TIP3      17187           0.0000000000
    103077     18548  TIP3      OH2            -3.9405423126       -4.5631076624      -28.4838964649  TIP3      17188           0.0000000000
    103078     18548  TIP3      H1             -4.4157620352       -5.3348372665      -28.8608270911  TIP3      17188           0.0000000000
    103079     18548  TIP3      H2             -3.4453664342       -5.0113771998      -27.7790604101  TIP3      17188           0.0000000000
    103080     18549  TIP3      OH2            -5.4874598692       -8.8662317179      -23.8182948186  TIP3      17189           0.0000000000
    103081     18549  TIP3      H1             -6.3993244211       -8.9092175733      -23.4585290897  TIP3      17189           0.0000000000
    103082     18549  TIP3      H2             -5.1366136839       -8.0517015492      -23.3932100790  TIP3      17189           0.0000000000
    103083     18550  TIP3      OH2            -4.1790259078      -10.5195136953      -38.3832444081  TIP3      17190           0.0000000000
    103084     18550  TIP3      H1             -3.3178565963      -10.1155670087      -38.1900913931  TIP3      17190           0.0000000000
    103085     18550  TIP3      H2             -4.1946282347      -11.2347064812      -37.7096198938  TIP3      17190           0.0000000000
    103086     18551  TIP3      OH2            -3.8175114498      -12.4311117613      -36.4976639618  TIP3      17191           0.0000000000
    103087     18551  TIP3      H1             -4.5661613159      -12.9415731141      -36.1218244691  TIP3      17191           0.0000000000
    103088     18551  TIP3      H2             -3.2143708365      -12.2983085321      -35.7426045932  TIP3      17191           0.0000000000
    103089     18552  TIP3      OH2            -4.0626502626       -9.7481597506      -31.4996603111  TIP3      17192           0.0000000000
    103090     18552  TIP3      H1             -3.2437136555      -10.1009075712      -31.8889069195  TIP3      17192           0.0000000000
    103091     18552  TIP3      H2             -3.9252773804       -8.7876445898      -31.6681750693  TIP3      17192           0.0000000000
    103092     18553  TIP3      OH2            -5.4990977643       -6.8268555305      -29.2429662469  TIP3      17193           0.0000000000
    103093     18553  TIP3      H1             -6.1983284241       -6.5121730186      -28.6409826726  TIP3      17193           0.0000000000
    103094     18553  TIP3      H2             -6.0434170090       -7.2329013967      -29.9525484909  TIP3      17193           0.0000000000
    103095     18554  TIP3      OH2            -3.5198389350      -12.6005191379      -40.1211722149  TIP3      17194           0.0000000000
    103096     18554  TIP3      H1             -4.0934532887      -12.2517232280      -40.8340730357  TIP3      17194           0.0000000000
    103097     18554  TIP3      H2             -3.6134105832      -11.9035672128      -39.4452909421  TIP3      17194           0.0000000000
    103098     18555  TIP3      OH2            -5.1858786031      -15.3999492442      -41.5445441056  TIP3      17195           0.0000000000
    103099     18555  TIP3      H1             -5.0793438731      -14.7388101867      -42.2365441956  TIP3      17195           0.0000000000
    103100     18555  TIP3      H2             -5.3338149807      -16.2158657438      -42.0638139442  TIP3      17195           0.0000000000
    103101     18556  TIP3      OH2            -5.9783589397      -13.9698806741      -35.9048915278  TIP3      17196           0.0000000000
    103102     18556  TIP3      H1             -6.1551759993      -14.9207521364      -35.9822370758  TIP3      17196           0.0000000000
    103103     18556  TIP3      H2             -6.3611513604      -13.7389596656      -35.0487795285  TIP3      17196           0.0000000000
    103104     18557  TIP3      OH2           -20.9938350579      -11.8750922213      -31.8783113118  TIP3      17197           0.0000000000
    103105     18557  TIP3      H1            -20.8082514914      -11.9568865708      -32.8360235308  TIP3      17197           0.0000000000
    103106     18557  TIP3      H2            -20.1026762894      -12.0506677963      -31.5106562397  TIP3      17197           0.0000000000
    103107     18558  TIP3      OH2            -5.1339717787      -12.0043096270      -26.2868077208  TIP3      17198           0.0000000000
    103108     18558  TIP3      H1             -4.5364856080      -12.7485975459      -26.0735207069  TIP3      17198           0.0000000000
    103109     18558  TIP3      H2             -4.5619738178      -11.2093333836      -26.2080688901  TIP3      17198           0.0000000000
    103110     18559  TIP3      OH2            -3.6360737733      -14.1038367353      -25.6354508664  TIP3      17199           0.0000000000
    103111     18559  TIP3      H1             -4.5192621082      -14.5210631682      -25.7297757663  TIP3      17199           0.0000000000
    103112     18559  TIP3      H2             -3.0606891890      -14.8867729371      -25.6536558126  TIP3      17199           0.0000000000
    103113     18560  TIP3      OH2            -5.9178319105      -17.8910207845      -42.4073332448  TIP3      17200           0.0000000000
    103114     18560  TIP3      H1             -5.3177431691      -18.3725383318      -41.8047131028  TIP3      17200           0.0000000000
    103115     18560  TIP3      H2             -6.7753698522      -18.3306982110      -42.2845345597  TIP3      17200           0.0000000000
    103116     18561  TIP3      OH2            -6.3339887689      -16.3815405392      -37.4479167201  TIP3      17201           0.0000000000
    103117     18561  TIP3      H1             -6.0326689851      -17.3133394869      -37.3329459041  TIP3      17201           0.0000000000
    103118     18561  TIP3      H2             -5.5448116244      -15.9847016421      -37.8403285995  TIP3      17201           0.0000000000
    103119     18562  TIP3      OH2            -5.7014727777      -16.0032841151      -32.2260395009  TIP3      17202           0.0000000000
    103120     18562  TIP3      H1             -4.7291777605      -15.8121074538      -32.1892972257  TIP3      17202           0.0000000000
    103121     18562  TIP3      H2             -5.9591357495      -16.1331614394      -31.3072596451  TIP3      17202           0.0000000000
    103122     18563  TIP3      OH2            -5.6264015914      -15.1083347163      -29.0335825619  TIP3      17203           0.0000000000
    103123     18563  TIP3      H1             -6.5497249804      -14.8363240233      -28.7803278274  TIP3      17203           0.0000000000
    103124     18563  TIP3      H2             -5.1536591924      -14.2595554927      -29.1639421310  TIP3      17203           0.0000000000
    103125     18564  TIP3      OH2           -21.4250796468      -16.5772727893      -25.7441853917  TIP3      17204           0.0000000000
    103126     18564  TIP3      H1            -20.4688084620      -16.7660912163      -25.5566006909  TIP3      17204           0.0000000000
    103127     18564  TIP3      H2            -21.7924874837      -17.4350676994      -25.4223045782  TIP3      17204           0.0000000000
    103128     18565  TIP3      OH2            -3.3267509746      -21.0510825391      -23.8800174984  TIP3      17205           0.0000000000
    103129     18565  TIP3      H1             -3.0108199964      -21.7238781577      -24.5108604114  TIP3      17205           0.0000000000
    103130     18565  TIP3      H2             -3.2505512425      -20.2377599175      -24.4214891283  TIP3      17205           0.0000000000
    103131     18566  TIP3      OH2            -5.6654189625      -19.1072875928      -37.4221768985  TIP3      17206           0.0000000000
    103132     18566  TIP3      H1             -5.4548171049      -19.5453493759      -36.5695324628  TIP3      17206           0.0000000000
    103133     18566  TIP3      H2             -6.2727300483      -19.7361284604      -37.8659267686  TIP3      17206           0.0000000000
    103134     18567  TIP3      OH2           -20.1719111379      -18.2816055532      -32.8828455641  TIP3      17207           0.0000000000
    103135     18567  TIP3      H1            -19.7187863465      -19.1070075809      -32.6072241040  TIP3      17207           0.0000000000
    103136     18567  TIP3      H2            -19.6378320871      -17.5997004471      -32.4528601818  TIP3      17207           0.0000000000
    103137     18568  TIP3      OH2           -21.8922414132      -15.2933753434      -31.7887668789  TIP3      17208           0.0000000000
    103138     18568  TIP3      H1            -21.3445705617      -15.5440730650      -32.5631047191  TIP3      17208           0.0000000000
    103139     18568  TIP3      H2            -21.4334771754      -14.4709411333      -31.5594371469  TIP3      17208           0.0000000000
    103140     18569  TIP3      OH2            -3.8308400823      -18.9881885029      -25.5299503496  TIP3      17209           0.0000000000
    103141     18569  TIP3      H1             -4.7572445310      -18.6835193276      -25.6025320972  TIP3      17209           0.0000000000
    103142     18569  TIP3      H2             -3.7788871171      -19.4963604369      -26.3547258969  TIP3      17209           0.0000000000
    103143     18570  TIP3      OH2            -3.8423525300      -19.0421505843      -40.8793150512  TIP3      17210           0.0000000000
    103144     18570  TIP3      H1             -3.4061242560      -19.7621749904      -41.3559789538  TIP3      17210           0.0000000000
    103145     18570  TIP3      H2             -3.1243838260      -18.3886900005      -40.8169109240  TIP3      17210           0.0000000000
    103146     18571  TIP3      OH2           -21.5270371016      -19.0010144518      -37.7415072907  TIP3      17211           0.0000000000
    103147     18571  TIP3      H1            -22.4771212181      -18.8576886032      -37.8858000880  TIP3      17211           0.0000000000
    103148     18571  TIP3      H2            -21.1221470883      -18.5535967802      -38.4973762202  TIP3      17211           0.0000000000
    103149     18572  TIP3      OH2            -6.7935188016       -4.0816863406      -35.8040610166  TIP3      17212           0.0000000000
    103150     18572  TIP3      H1             -6.1068717556       -4.3857199962      -36.4223137884  TIP3      17212           0.0000000000
    103151     18572  TIP3      H2             -6.2774306859       -3.5806923228      -35.1529296283  TIP3      17212           0.0000000000
    103152     18573  TIP3      OH2           -21.5728219955      -20.3472234883      -29.4344786441  TIP3      17213           0.0000000000
    103153     18573  TIP3      H1            -22.2506923307      -20.5841612032      -28.7794321408  TIP3      17213           0.0000000000
    103154     18573  TIP3      H2            -22.0440508746      -19.7060083226      -30.0016535027  TIP3      17213           0.0000000000
    103155     18574  TIP3      OH2           -19.3410243794       -7.1497574398      -25.2969645981  TIP3      17214           0.0000000000
    103156     18574  TIP3      H1            -20.1947795179       -6.9552969439      -25.7135309252  TIP3      17214           0.0000000000
    103157     18574  TIP3      H2            -19.6065187215       -7.2101668743      -24.3686136769  TIP3      17214           0.0000000000
    103158     18575  TIP3      OH2           -16.4428223846       -6.1680124533      -29.0132190294  TIP3      17215           0.0000000000
    103159     18575  TIP3      H1            -16.7785822493       -5.3037012246      -29.2884544850  TIP3      17215           0.0000000000
    103160     18575  TIP3      H2            -15.5165886527       -6.0796695260      -29.3186298842  TIP3      17215           0.0000000000
    103161     18576  TIP3      OH2           -12.1234711395       -4.7427608924      -26.1196196874  TIP3      17216           0.0000000000
    103162     18576  TIP3      H1            -11.9651911656       -5.0825970759      -25.2090707588  TIP3      17216           0.0000000000
    103163     18576  TIP3      H2            -11.2141321232       -4.4543006894      -26.3450341249  TIP3      17216           0.0000000000
    103164     18577  TIP3      OH2            -9.8236664854       -3.4806738260      -26.8174234950  TIP3      17217           0.0000000000
    103165     18577  TIP3      H1             -9.1038933766       -4.0933462350      -27.0262101737  TIP3      17217           0.0000000000
    103166     18577  TIP3      H2             -9.4560277866       -3.0548439949      -26.0112856574  TIP3      17217           0.0000000000
    103167     18578  TIP3      OH2            -4.8261620502      -20.8927338247      -27.6789294363  TIP3      17218           0.0000000000
    103168     18578  TIP3      H1             -5.6372319849      -20.5670422003      -28.1066385964  TIP3      17218           0.0000000000
    103169     18578  TIP3      H2             -4.6419956299      -21.6882129657      -28.2233362958  TIP3      17218           0.0000000000
    103170     18579  TIP3      OH2           -19.0169666039       -2.9304930114      -29.0210160524  TIP3      17219           0.0000000000
    103171     18579  TIP3      H1            -19.7474920072       -2.4309403212      -29.4180096581  TIP3      17219           0.0000000000
    103172     18579  TIP3      H2            -19.3360402018       -3.1240741464      -28.1289976770  TIP3      17219           0.0000000000
    103173     18580  TIP3      OH2           -16.5495283174       -3.3517310676      -29.9492560286  TIP3      17220           0.0000000000
    103174     18580  TIP3      H1            -17.4397002615       -3.1926477452      -29.5537086131  TIP3      17220           0.0000000000
    103175     18580  TIP3      H2            -16.6050133558       -2.7610600708      -30.7211701795  TIP3      17220           0.0000000000
    103176     18581  TIP3      OH2           -11.8438525659       -3.4396224090      -30.7732179062  TIP3      17221           0.0000000000
    103177     18581  TIP3      H1            -12.3046257750       -2.8845015581      -31.4210740588  TIP3      17221           0.0000000000
    103178     18581  TIP3      H2            -11.7081459469       -2.8078715678      -30.0376680956  TIP3      17221           0.0000000000
    103179     18582  TIP3      OH2            -9.5493882054       -4.6255367400      -29.7568314320  TIP3      17222           0.0000000000
    103180     18582  TIP3      H1            -10.4104729302       -4.3542075011      -30.1127467818  TIP3      17222           0.0000000000
    103181     18582  TIP3      H2             -9.0731727857       -3.7819935751      -29.8426620028  TIP3      17222           0.0000000000
    103182     18583  TIP3      OH2            -6.9667456894       -3.0537732916      -29.5246151187  TIP3      17223           0.0000000000
    103183     18583  TIP3      H1             -7.0316885826       -2.0956551240      -29.7533084702  TIP3      17223           0.0000000000
    103184     18583  TIP3      H2             -6.7546235345       -3.4278235410      -30.4014900948  TIP3      17223           0.0000000000
    103185     18584  TIP3      OH2           -19.5635511209       -4.2815984860      -32.0745302447  TIP3      17224           0.0000000000
    103186     18584  TIP3      H1            -19.6408510686       -4.7439703679      -31.2125927506  TIP3      17224           0.0000000000
    103187     18584  TIP3      H2            -18.7484397300       -4.6561702146      -32.4651349439  TIP3      17224           0.0000000000
    103188     18585  TIP3      OH2           -17.4831460597       -5.5690007578      -33.4222395363  TIP3      17225           0.0000000000
    103189     18585  TIP3      H1            -17.6501399675       -6.5030092466      -33.1936924543  TIP3      17225           0.0000000000
    103190     18585  TIP3      H2            -16.6275950855       -5.4183882852      -32.9672829804  TIP3      17225           0.0000000000
    103191     18586  TIP3      OH2           -14.8774117441       -5.0854425603      -32.5512694242  TIP3      17226           0.0000000000
    103192     18586  TIP3      H1            -14.7217613112       -6.0095431059      -32.8082393736  TIP3      17226           0.0000000000
    103193     18586  TIP3      H2            -14.8366031307       -5.1426028981      -31.5822255060  TIP3      17226           0.0000000000
    103194     18587  TIP3      OH2           -11.4247633183      -19.4360515535      -33.4042109575  TIP3      17227           0.0000000000
    103195     18587  TIP3      H1            -12.1018760285      -20.0776924756      -33.1303915211  TIP3      17227           0.0000000000
    103196     18587  TIP3      H2            -10.8738146412      -19.9663544504      -33.9921567117  TIP3      17227           0.0000000000
    103197     18588  TIP3      OH2            -6.2859343668      -21.3612971724      -33.3207611138  TIP3      17228           0.0000000000
    103198     18588  TIP3      H1             -5.6752617825      -20.7865417706      -33.8487398938  TIP3      17228           0.0000000000
    103199     18588  TIP3      H2             -7.1733103805      -21.0316064381      -33.5769586066  TIP3      17228           0.0000000000
    103200     18589  TIP3      OH2            -4.6206989140      -20.1316842464      -35.0592987178  TIP3      17229           0.0000000000
    103201     18589  TIP3      H1             -3.9342415766      -20.7076098719      -35.4731934237  TIP3      17229           0.0000000000
    103202     18589  TIP3      H2             -4.1164448556      -19.2937899102      -34.9572019952  TIP3      17229           0.0000000000
    103203     18590  TIP3      OH2           -19.0524327959      -20.7980143972      -35.5645793075  TIP3      17230           0.0000000000
    103204     18590  TIP3      H1            -19.8501240029      -21.0028000239      -36.0892967239  TIP3      17230           0.0000000000
    103205     18590  TIP3      H2            -18.5911953805      -21.6555837332      -35.6167277251  TIP3      17230           0.0000000000
    103206     18591  TIP3      OH2           -20.3155385637      -21.0590842111      -39.8776034766  TIP3      17231           0.0000000000
    103207     18591  TIP3      H1            -19.7975861827      -20.4060683815      -40.3851069240  TIP3      17231           0.0000000000
    103208     18591  TIP3      H2            -20.8548983012      -20.5035720679      -39.2887183660  TIP3      17231           0.0000000000
    103209     18592  TIP3      OH2           -14.5776175399      -20.8808214143      -35.7733967213  TIP3      17232           0.0000000000
    103210     18592  TIP3      H1            -13.6729297296      -20.5299550038      -35.8429728464  TIP3      17232           0.0000000000
    103211     18592  TIP3      H2            -14.6181140514      -21.1012270646      -34.8436363695  TIP3      17232           0.0000000000
    103212     18593  TIP3      OH2            -8.8739742463      -20.8665098946      -34.1478607069  TIP3      17233           0.0000000000
    103213     18593  TIP3      H1             -8.9175791343      -20.7520890923      -35.1056569497  TIP3      17233           0.0000000000
    103214     18593  TIP3      H2             -9.2509393408      -21.7726341393      -34.0252976629  TIP3      17233           0.0000000000
    103215     18594  TIP3      OH2            -7.5975982469      -20.8349270424      -38.4894103940  TIP3      17234           0.0000000000
    103216     18594  TIP3      H1             -8.3432460480      -20.2372263163      -38.6440923226  TIP3      17234           0.0000000000
    103217     18594  TIP3      H2             -8.0341995452      -21.6860546689      -38.2530493940  TIP3      17234           0.0000000000
    103218     18595  TIP3      OH2           -20.3657448416       -5.1020290818      -38.8386578165  TIP3      17235           0.0000000000
    103219     18595  TIP3      H1            -21.0450490286       -5.1052649947      -39.5422243039  TIP3      17235           0.0000000000
    103220     18595  TIP3      H2            -20.3469952107       -4.1507722765      -38.6615277832  TIP3      17235           0.0000000000
    103221     18596  TIP3      OH2           -18.4780482132      -19.1393965565      -41.2980983237  TIP3      17236           0.0000000000
    103222     18596  TIP3      H1            -17.9292623947      -19.7123876796      -41.8410765895  TIP3      17236           0.0000000000
    103223     18596  TIP3      H2            -17.7917696746      -18.7804796268      -40.7098292690  TIP3      17236           0.0000000000
    103224     18597  TIP3      OH2           -13.4354603715      -18.8585783526      -38.9153216039  TIP3      17237           0.0000000000
    103225     18597  TIP3      H1            -13.1725921999      -19.4448086697      -38.1870303541  TIP3      17237           0.0000000000
    103226     18597  TIP3      H2            -13.3637745184      -17.9995480466      -38.4433857251  TIP3      17237           0.0000000000
    103227     18598  TIP3      OH2           -11.5178053063       -3.7558595417      -40.5137107194  TIP3      17238           0.0000000000
    103228     18598  TIP3      H1            -10.5723227558       -3.5843771842      -40.6707098980  TIP3      17238           0.0000000000
    103229     18598  TIP3      H2            -11.7053546447       -4.3314986732      -41.2876861836  TIP3      17238           0.0000000000
    103230     18599  TIP3      OH2            -4.7944088895       -4.2888635732      -37.7635455175  TIP3      17239           0.0000000000
    103231     18599  TIP3      H1             -4.9979298975       -5.0675283224      -38.3403286555  TIP3      17239           0.0000000000
    103232     18599  TIP3      H2             -4.8827446183       -3.5541667144      -38.4005119696  TIP3      17239           0.0000000000
    103233     18600  TIP3      OH2           -19.1800337840      -20.2781421127      -26.0973087592  TIP3      17240           0.0000000000
    103234     18600  TIP3      H1            -19.5556925829      -21.0698513226      -25.6741247531  TIP3      17240           0.0000000000
    103235     18600  TIP3      H2            -18.2638954086      -20.3146744691      -25.7441559154  TIP3      17240           0.0000000000
    103236     18601  TIP3      OH2           -17.1550900709      -20.8966889793      -24.4817067658  TIP3      17241           0.0000000000
    103237     18601  TIP3      H1            -16.2782047678      -21.2501671417      -24.7286914592  TIP3      17241           0.0000000000
    103238     18601  TIP3      H2            -17.5411360165      -21.6938512744      -24.0648876631  TIP3      17241           0.0000000000
    103239     18602  TIP3      OH2           -18.5395387662       -4.1044066128      -41.8673119654  TIP3      17242           0.0000000000
    103240     18602  TIP3      H1            -18.8369570256       -3.8512973951      -40.9901476508  TIP3      17242           0.0000000000
    103241     18602  TIP3      H2            -17.8044054440       -4.6966736378      -41.6959434134  TIP3      17242           0.0000000000
    103242     18603  TIP3      OH2            -5.5518726891       -5.5453514130      -25.6513478056  TIP3      17243           0.0000000000
    103243     18603  TIP3      H1             -6.3553086229       -5.7106804278      -26.1954240510  TIP3      17243           0.0000000000
    103244     18603  TIP3      H2             -5.6840720006       -4.5940304297      -25.4697202779  TIP3      17243           0.0000000000
    103245     18604  TIP3      OH2             8.8837654163      -11.6713615316      -35.6986794117  TIP3      17244           0.0000000000
    103246     18604  TIP3      H1              8.8820437756      -10.6901941494      -35.7425509835  TIP3      17244           0.0000000000
    103247     18604  TIP3      H2              8.1601034087      -11.9047367003      -36.3058996039  TIP3      17244           0.0000000000
    103248     18605  TIP3      OH2             7.7336820900      -12.3949907598      -32.1694963975  TIP3      17245           0.0000000000
    103249     18605  TIP3      H1              7.7288248671      -13.0932033223      -31.5036423329  TIP3      17245           0.0000000000
    103250     18605  TIP3      H2              7.4168648392      -12.8865279163      -32.9471601473  TIP3      17245           0.0000000000
    103251     18606  TIP3      OH2             0.0802431439      -12.7440302291      -30.6376949390  TIP3      17246           0.0000000000
    103252     18606  TIP3      H1              0.1968377127      -13.4263680562      -29.9445675795  TIP3      17246           0.0000000000
    103253     18606  TIP3      H2              0.8340843149      -12.1699962568      -30.4350500954  TIP3      17246           0.0000000000
    103254     18607  TIP3      OH2            11.4394698562       -9.4697952473      -33.9263057277  TIP3      17247           0.0000000000
    103255     18607  TIP3      H1             11.0295076813      -10.1884171897      -33.4356382178  TIP3      17247           0.0000000000
    103256     18607  TIP3      H2             11.4675744268       -8.7583546481      -33.2617500459  TIP3      17247           0.0000000000
    103257     18608  TIP3      OH2             1.0245678545       -8.2939739890      -32.1414629277  TIP3      17248           0.0000000000
    103258     18608  TIP3      H1              0.7121042361       -9.1591088671      -32.4656037532  TIP3      17248           0.0000000000
    103259     18608  TIP3      H2              1.9812689129       -8.4769497647      -32.0953438625  TIP3      17248           0.0000000000
    103260     18609  TIP3      OH2            -2.3339364422      -14.7300582924      -36.6602038541  TIP3      17249           0.0000000000
    103261     18609  TIP3      H1             -2.7762790574      -13.8626642713      -36.7197312553  TIP3      17249           0.0000000000
    103262     18609  TIP3      H2             -2.9004448680      -15.2728295203      -37.2248437424  TIP3      17249           0.0000000000
    103263     18610  TIP3      OH2            -1.6399854950      -12.5152296019      -34.5005518674  TIP3      17250           0.0000000000
    103264     18610  TIP3      H1             -1.3479189655      -13.3339854486      -34.0642542013  TIP3      17250           0.0000000000
    103265     18610  TIP3      H2             -0.9446392140      -12.3992962318      -35.1689705476  TIP3      17250           0.0000000000
    103266     18611  TIP3      OH2             8.6201336855       -4.2747082558      -33.6537595275  TIP3      17251           0.0000000000
    103267     18611  TIP3      H1              9.1922428783       -5.0081218796      -33.9769992744  TIP3      17251           0.0000000000
    103268     18611  TIP3      H2              8.3082641668       -4.6379335569      -32.8317152688  TIP3      17251           0.0000000000
    103269     18612  TIP3      OH2             6.1297552831      -10.0139638841      -31.7016941637  TIP3      17252           0.0000000000
    103270     18612  TIP3      H1              6.4299369768      -10.6353649813      -32.3912991645  TIP3      17252           0.0000000000
    103271     18612  TIP3      H2              6.9686407690       -9.8785074384      -31.2651486167  TIP3      17252           0.0000000000
    103272     18613  TIP3      OH2            14.7190783329      -18.3560933168      -31.0024214352  TIP3      17253           0.0000000000
    103273     18613  TIP3      H1             14.8925991309      -17.7652722243      -30.2379677832  TIP3      17253           0.0000000000
    103274     18613  TIP3      H2             15.2812767089      -17.9305056412      -31.6660902824  TIP3      17253           0.0000000000
    103275     18614  TIP3      OH2             9.2831739588      -15.5537865469      -31.4195053876  TIP3      17254           0.0000000000
    103276     18614  TIP3      H1              9.4528239358      -16.5124780339      -31.4181045614  TIP3      17254           0.0000000000
    103277     18614  TIP3      H2              9.1854720446      -15.4075452082      -32.3803583936  TIP3      17254           0.0000000000
    103278     18615  TIP3      OH2             2.4043202217      -17.4576652347      -34.1998346076  TIP3      17255           0.0000000000
    103279     18615  TIP3      H1              2.5063420548      -16.6208002990      -34.6890981097  TIP3      17255           0.0000000000
    103280     18615  TIP3      H2              2.0012789766      -18.0301366615      -34.8879799705  TIP3      17255           0.0000000000
    103281     18616  TIP3      OH2            10.1382755029      -17.3783649049      -35.8274114857  TIP3      17256           0.0000000000
    103282     18616  TIP3      H1             10.7943751140      -17.6896775299      -35.1613402057  TIP3      17256           0.0000000000
    103283     18616  TIP3      H2             10.6992551766      -16.8055718287      -36.3721678583  TIP3      17256           0.0000000000
    103284     18617  TIP3      OH2            -1.0010281213      -15.0687069870      -33.4535558120  TIP3      17257           0.0000000000
    103285     18617  TIP3      H1             -0.2955273007      -15.5888571078      -33.0191746340  TIP3      17257           0.0000000000
    103286     18617  TIP3      H2             -0.8617436199      -15.3509116061      -34.3740655206  TIP3      17257           0.0000000000
    103287     18618  TIP3      OH2             4.1837384673      -13.4917280775      -34.1501669207  TIP3      17258           0.0000000000
    103288     18618  TIP3      H1              4.8543339212      -14.0719144162      -33.7511626037  TIP3      17258           0.0000000000
    103289     18618  TIP3      H2              3.6660880161      -14.1525624735      -34.6531039534  TIP3      17258           0.0000000000
    103290     18619  TIP3      OH2            15.1526420132      -16.9580759111      -28.7365993974  TIP3      17259           0.0000000000
    103291     18619  TIP3      H1             14.5473984175      -16.1859147778      -28.8242943029  TIP3      17259           0.0000000000
    103292     18619  TIP3      H2             15.2080290290      -17.0355135142      -27.7716814350  TIP3      17259           0.0000000000
    103293     18620  TIP3      OH2             1.3053371611      -18.5577394477      -30.1586061206  TIP3      17260           0.0000000000
    103294     18620  TIP3      H1              1.0268890211      -17.9885107027      -30.9064847153  TIP3      17260           0.0000000000
    103295     18620  TIP3      H2              0.6286901396      -18.3270106484      -29.4776925290  TIP3      17260           0.0000000000
    103296     18621  TIP3      OH2             8.6122746745       -9.0870445186      -36.6214900914  TIP3      17261           0.0000000000
    103297     18621  TIP3      H1              8.3214877377       -9.3637611892      -37.5012673491  TIP3      17261           0.0000000000
    103298     18621  TIP3      H2              8.3026669185       -8.1506062177      -36.5549403954  TIP3      17261           0.0000000000
    103299     18622  TIP3      OH2             3.8620883433      -10.9077334998      -29.8550083421  TIP3      17262           0.0000000000
    103300     18622  TIP3      H1              3.1037189495      -10.2911462864      -29.7167770701  TIP3      17262           0.0000000000
    103301     18622  TIP3      H2              4.5053809854      -10.3058362017      -30.2509413510  TIP3      17262           0.0000000000
    103302     18623  TIP3      OH2            11.9516080785      -18.0245211364      -33.8409931492  TIP3      17263           0.0000000000
    103303     18623  TIP3      H1             11.7298825923      -18.7846109344      -33.2996511536  TIP3      17263           0.0000000000
    103304     18623  TIP3      H2             12.6201410271      -17.5887825199      -33.2883156554  TIP3      17263           0.0000000000
    103305     18624  TIP3      OH2             0.8756928350      -16.6983664108      -32.1324661593  TIP3      17264           0.0000000000
    103306     18624  TIP3      H1              1.5101896111      -16.0182332884      -31.8147640418  TIP3      17264           0.0000000000
    103307     18624  TIP3      H2              1.3964818896      -17.1145347988      -32.8648437261  TIP3      17264           0.0000000000
    103308     18625  TIP3      OH2             2.2696431214       -8.9087679845      -29.1131089817  TIP3      17265           0.0000000000
    103309     18625  TIP3      H1              2.2072242886       -7.9944814354      -29.4463119296  TIP3      17265           0.0000000000
    103310     18625  TIP3      H2              1.3892596625       -8.9917035775      -28.6622362993  TIP3      17265           0.0000000000
    103311     18626  TIP3      OH2            -1.6688246300       -9.2969234840      -38.3092222859  TIP3      17266           0.0000000000
    103312     18626  TIP3      H1             -1.8811246703       -8.9743168656      -39.2099925683  TIP3      17266           0.0000000000
    103313     18626  TIP3      H2             -1.5826210913       -8.4601564256      -37.8061187451  TIP3      17266           0.0000000000
    103314     18627  TIP3      OH2            11.9550091023       -7.6257491363      -31.5277548731  TIP3      17267           0.0000000000
    103315     18627  TIP3      H1             10.9944042492       -7.5012499643      -31.4561286192  TIP3      17267           0.0000000000
    103316     18627  TIP3      H2             12.2481481677       -6.7191747983      -31.7579858456  TIP3      17267           0.0000000000
    103317     18628  TIP3      OH2            12.2689264058      -19.3738893293      -30.1831117693  TIP3      17268           0.0000000000
    103318     18628  TIP3      H1             11.5569897743      -18.7221353867      -30.2447445964  TIP3      17268           0.0000000000
    103319     18628  TIP3      H2             12.9899434678      -18.9338097875      -30.6813263636  TIP3      17268           0.0000000000
    103320     18629  TIP3      OH2             5.2476586005      -21.2259364685      -32.6920093336  TIP3      17269           0.0000000000
    103321     18629  TIP3      H1              5.0885332035      -22.1859426119      -32.7702492159  TIP3      17269           0.0000000000
    103322     18629  TIP3      H2              4.3723431063      -20.9128847131      -32.3893035937  TIP3      17269           0.0000000000
    103323     18630  TIP3      OH2            10.2620786811       -5.8567209662      -34.9234536702  TIP3      17270           0.0000000000
    103324     18630  TIP3      H1             10.6382322571       -6.5613226031      -35.4838092306  TIP3      17270           0.0000000000
    103325     18630  TIP3      H2             10.6184599003       -5.0504265357      -35.3519301457  TIP3      17270           0.0000000000
    103326     18631  TIP3      OH2            11.4294057807       -7.9174534919      -36.4472794879  TIP3      17271           0.0000000000
    103327     18631  TIP3      H1             11.1413687554       -8.6147724051      -37.0597904172  TIP3      17271           0.0000000000
    103328     18631  TIP3      H2             11.4642929102       -8.4077752543      -35.6063652535  TIP3      17271           0.0000000000
    103329     18632  TIP3      OH2            13.0055918243       -9.3208119396      -27.9589868424  TIP3      17272           0.0000000000
    103330     18632  TIP3      H1             13.2139994244       -9.9772447218      -28.6631703113  TIP3      17272           0.0000000000
    103331     18632  TIP3      H2             13.2744959663       -8.4842094325      -28.3822136913  TIP3      17272           0.0000000000
    103332     18633  TIP3      OH2             7.5454122633      -12.4378270661      -38.1736206391  TIP3      17273           0.0000000000
    103333     18633  TIP3      H1              6.8491908551      -11.8691588686      -38.5458395385  TIP3      17273           0.0000000000
    103334     18633  TIP3      H2              8.2502365332      -12.3473837996      -38.8446588533  TIP3      17273           0.0000000000
    103335     18634  TIP3      OH2             7.6145388171      -13.8813617130      -41.1245092774  TIP3      17274           0.0000000000
    103336     18634  TIP3      H1              8.3376121060      -13.8880868753      -40.4734177953  TIP3      17274           0.0000000000
    103337     18634  TIP3      H2              7.8890126094      -14.5895316857      -41.7084220593  TIP3      17274           0.0000000000
    103338     18635  TIP3      OH2            14.9331761170      -13.0113858736      -29.9119183974  TIP3      17275           0.0000000000
    103339     18635  TIP3      H1             14.2774099489      -12.2874969287      -29.8633422991  TIP3      17275           0.0000000000
    103340     18635  TIP3      H2             15.4282566577      -12.7773764616      -30.7169726756  TIP3      17275           0.0000000000
    103341     18636  TIP3      OH2            10.9968454266      -12.2065417832      -37.2466877567  TIP3      17276           0.0000000000
    103342     18636  TIP3      H1             10.2412144946      -11.9775229508      -36.6537623549  TIP3      17276           0.0000000000
    103343     18636  TIP3      H2             11.4599953241      -12.8995303710      -36.7423212610  TIP3      17276           0.0000000000
    103344     18637  TIP3      OH2            10.9025331128      -14.0699352810      -28.1336948496  TIP3      17277           0.0000000000
    103345     18637  TIP3      H1             10.9710497105      -13.2500170136      -27.6197390667  TIP3      17277           0.0000000000
    103346     18637  TIP3      H2             10.3151684956      -13.7769220523      -28.8594889354  TIP3      17277           0.0000000000
    103347     18638  TIP3      OH2             2.6037405499      -11.5631082000      -35.3465725313  TIP3      17278           0.0000000000
    103348     18638  TIP3      H1              2.2828460533      -11.9531218105      -36.1954932201  TIP3      17278           0.0000000000
    103349     18638  TIP3      H2              3.2177605965      -12.2543397846      -35.0133952831  TIP3      17278           0.0000000000
    103350     18639  TIP3      OH2             3.9105595034       -8.2103346341      -32.6257884849  TIP3      17279           0.0000000000
    103351     18639  TIP3      H1              3.9194554139       -8.6743951503      -33.4767935828  TIP3      17279           0.0000000000
    103352     18639  TIP3      H2              4.7267177820       -8.5325774718      -32.2196954283  TIP3      17279           0.0000000000
    103353     18640  TIP3      OH2             2.9373544184      -12.8125458119      -31.6836950402  TIP3      17280           0.0000000000
    103354     18640  TIP3      H1              3.4855167775      -12.7132649930      -32.4879862826  TIP3      17280           0.0000000000
    103355     18640  TIP3      H2              3.3260880974      -12.1491218805      -31.0760559864  TIP3      17280           0.0000000000
    103356     18641  TIP3      OH2             9.2976730049       -7.2419019427      -30.9940262879  TIP3      17281           0.0000000000
    103357     18641  TIP3      H1              9.0964782186       -6.5751103645      -30.3255409323  TIP3      17281           0.0000000000
    103358     18641  TIP3      H2              9.1654846321       -8.1225987448      -30.6004749834  TIP3      17281           0.0000000000
    103359     18642  TIP3      OH2             3.9295270647       -8.3856069579      -27.0330717505  TIP3      17282           0.0000000000
    103360     18642  TIP3      H1              3.5008493518       -7.6764271212      -26.5033946629  TIP3      17282           0.0000000000
    103361     18642  TIP3      H2              3.2023450465       -8.5811371462      -27.6815798647  TIP3      17282           0.0000000000
    103362     18643  TIP3      OH2             9.8684817406      -13.0383173376      -39.5841380430  TIP3      17283           0.0000000000
    103363     18643  TIP3      H1             10.4250093161      -12.8509808684      -38.7866489026  TIP3      17283           0.0000000000
    103364     18643  TIP3      H2             10.2853763820      -12.5171712822      -40.3028788621  TIP3      17283           0.0000000000
    103365     18644  TIP3      OH2             0.8205891986      -12.2362791451      -27.8188111098  TIP3      17284           0.0000000000
    103366     18644  TIP3      H1              0.8732838346      -11.5637457833      -27.1144651908  TIP3      17284           0.0000000000
    103367     18644  TIP3      H2             -0.1101797365      -12.1289066551      -28.0696445582  TIP3      17284           0.0000000000
    103368     18645  TIP3      OH2             7.6689201891       -6.3387307349      -36.1894628107  TIP3      17285           0.0000000000
    103369     18645  TIP3      H1              7.9868704814       -6.0015111001      -35.3401324487  TIP3      17285           0.0000000000
    103370     18645  TIP3      H2              7.0181358592       -5.6038251260      -36.3256549057  TIP3      17285           0.0000000000
    103371     18646  TIP3      OH2             2.1292426513       -6.3630868215      -26.2571691111  TIP3      17286           0.0000000000
    103372     18646  TIP3      H1              2.0770603892       -6.4569504074      -27.2261259232  TIP3      17286           0.0000000000
    103373     18646  TIP3      H2              1.1987578179       -6.4798625881      -25.9827111514  TIP3      17286           0.0000000000
    103374     18647  TIP3      OH2            13.5890094979      -21.2873458444      -39.6851860314  TIP3      17287           0.0000000000
    103375     18647  TIP3      H1             12.6347678202      -21.1769067356      -39.4576074541  TIP3      17287           0.0000000000
    103376     18647  TIP3      H2             13.7947099766      -20.4425994452      -40.1158606133  TIP3      17287           0.0000000000
    103377     18648  TIP3      OH2             1.5610613459      -12.5334377719      -37.7151749715  TIP3      17288           0.0000000000
    103378     18648  TIP3      H1              1.2893396918      -11.7598511919      -38.2534866290  TIP3      17288           0.0000000000
    103379     18648  TIP3      H2              0.9219701889      -13.2034359680      -37.9678577870  TIP3      17288           0.0000000000
    103380     18649  TIP3      OH2            14.6838213904       -6.9397813496      -41.2587449812  TIP3      17289           0.0000000000
    103381     18649  TIP3      H1             14.8309788785       -5.9809329302      -41.2182560644  TIP3      17289           0.0000000000
    103382     18649  TIP3      H2             15.5959205042       -7.2387324845      -41.4366337887  TIP3      17289           0.0000000000
    103383     18650  TIP3      OH2            -2.3275144465      -10.0996111200      -28.8397385201  TIP3      17290           0.0000000000
    103384     18650  TIP3      H1             -2.7794048828      -10.1819087876      -29.6988370855  TIP3      17290           0.0000000000
    103385     18650  TIP3      H2             -2.2426172025      -11.0436892711      -28.6092914400  TIP3      17290           0.0000000000
    103386     18651  TIP3      OH2            -2.5720496241       -7.3751773460      -32.0609542080  TIP3      17291           0.0000000000
    103387     18651  TIP3      H1             -1.6129943892       -7.4888044708      -32.0785241949  TIP3      17291           0.0000000000
    103388     18651  TIP3      H2             -2.6584890787       -6.5596948690      -31.5517092652  TIP3      17291           0.0000000000
    103389     18652  TIP3      OH2            15.6167166609       -6.6923826607      -26.4359919153  TIP3      17292           0.0000000000
    103390     18652  TIP3      H1             15.5513478454       -7.6537198783      -26.3720956137  TIP3      17292           0.0000000000
    103391     18652  TIP3      H2             14.7981245479       -6.4235193781      -25.9533018266  TIP3      17292           0.0000000000
    103392     18653  TIP3      OH2             6.6087066748       -7.1522579649      -27.4726113926  TIP3      17293           0.0000000000
    103393     18653  TIP3      H1              6.6777977258       -6.2842846523      -26.9930790230  TIP3      17293           0.0000000000
    103394     18653  TIP3      H2              5.6979310165       -7.4298439762      -27.2268515342  TIP3      17293           0.0000000000
    103395     18654  TIP3      OH2             7.4689363555       -3.2415393499      -37.9963524715  TIP3      17294           0.0000000000
    103396     18654  TIP3      H1              6.8971907601       -3.4404839479      -38.7475311838  TIP3      17294           0.0000000000
    103397     18654  TIP3      H2              7.0548327532       -2.4710125950      -37.5619959578  TIP3      17294           0.0000000000
    103398     18655  TIP3      OH2             0.6700193282       -4.4919012922      -35.8791415566  TIP3      17295           0.0000000000
    103399     18655  TIP3      H1              0.8604872731       -4.9213618879      -35.0147786560  TIP3      17295           0.0000000000
    103400     18655  TIP3      H2             -0.1636968637       -4.9262940568      -36.1214725938  TIP3      17295           0.0000000000
    103401     18656  TIP3      OH2            10.0631966331       -4.2020134270      -40.7557480399  TIP3      17296           0.0000000000
    103402     18656  TIP3      H1             10.5710163891       -4.9437739987      -41.1523528626  TIP3      17296           0.0000000000
    103403     18656  TIP3      H2             10.1381430326       -4.4322928687      -39.8076545408  TIP3      17296           0.0000000000
    103404     18657  TIP3      OH2             9.8525301792       -4.2742409169      -37.9677601771  TIP3      17297           0.0000000000
    103405     18657  TIP3      H1              8.8830022413       -4.1290734497      -37.7856237681  TIP3      17297           0.0000000000
    103406     18657  TIP3      H2             10.0309642774       -4.9986802678      -37.3594780279  TIP3      17297           0.0000000000
    103407     18658  TIP3      OH2            12.7909504264      -15.1986244933      -25.9112650287  TIP3      17298           0.0000000000
    103408     18658  TIP3      H1             12.3481137673      -14.7519991586      -26.6402581548  TIP3      17298           0.0000000000
    103409     18658  TIP3      H2             12.8201116525      -16.1213901085      -26.1985799788  TIP3      17298           0.0000000000
    103410     18659  TIP3      OH2            -0.0418838766       -8.8088851134      -27.8867742519  TIP3      17299           0.0000000000
    103411     18659  TIP3      H1              0.1665570152       -9.1675050416      -27.0031830953  TIP3      17299           0.0000000000
    103412     18659  TIP3      H2             -0.9179110126       -9.1917087736      -28.1065393139  TIP3      17299           0.0000000000
    103413     18660  TIP3      OH2             2.6265119992      -20.3243149919      -31.9422330601  TIP3      17300           0.0000000000
    103414     18660  TIP3      H1              1.7227280225      -20.4447722175      -32.3110281822  TIP3      17300           0.0000000000
    103415     18660  TIP3      H2              2.4989200360      -19.4901867962      -31.4616868798  TIP3      17300           0.0000000000
    103416     18661  TIP3      OH2             7.2724494839      -20.6585488525      -28.5764210075  TIP3      17301           0.0000000000
    103417     18661  TIP3      H1              7.6605484846      -21.0755449152      -27.7857463009  TIP3      17301           0.0000000000
    103418     18661  TIP3      H2              6.2984858795      -20.7757178679      -28.4413425812  TIP3      17301           0.0000000000
    103419     18662  TIP3      OH2            10.5288035806      -16.8181347490      -27.7017142532  TIP3      17302           0.0000000000
    103420     18662  TIP3      H1             10.0016614538      -17.0166038417      -26.8889331989  TIP3      17302           0.0000000000
    103421     18662  TIP3      H2             10.3990582323      -15.8790708673      -27.9011271053  TIP3      17302           0.0000000000
    103422     18663  TIP3      OH2            11.3288492793      -12.0437109083      -41.8957568774  TIP3      17303           0.0000000000
    103423     18663  TIP3      H1             11.3408586301      -12.1717205992      -42.8508999211  TIP3      17303           0.0000000000
    103424     18663  TIP3      H2             12.1488955955      -11.5483123782      -41.7327456423  TIP3      17303           0.0000000000
    103425     18664  TIP3      OH2             6.9040822898      -18.0832707654      -41.2377631998  TIP3      17304           0.0000000000
    103426     18664  TIP3      H1              6.5884322812      -18.1242616649      -40.3172259326  TIP3      17304           0.0000000000
    103427     18664  TIP3      H2              6.6303729904      -18.9592229642      -41.5220973719  TIP3      17304           0.0000000000
    103428     18665  TIP3      OH2             2.7307676389      -15.3482616764      -30.6914952381  TIP3      17305           0.0000000000
    103429     18665  TIP3      H1              1.9915455588      -15.3645925964      -30.0570795768  TIP3      17305           0.0000000000
    103430     18665  TIP3      H2              2.6828657690      -14.4402922860      -31.0641581830  TIP3      17305           0.0000000000
    103431     18666  TIP3      OH2             2.6867136039      -15.2258734591      -35.8308085723  TIP3      17306           0.0000000000
    103432     18666  TIP3      H1              1.7516440865      -15.4837190778      -35.9626783515  TIP3      17306           0.0000000000
    103433     18666  TIP3      H2              3.0696692057      -15.5223807495      -36.6793092295  TIP3      17306           0.0000000000
    103434     18667  TIP3      OH2             8.2111041625      -14.7420987409      -37.0714968754  TIP3      17307           0.0000000000
    103435     18667  TIP3      H1              7.8067164732      -13.9087153502      -37.4058439126  TIP3      17307           0.0000000000
    103436     18667  TIP3      H2              8.9006771445      -14.8952972319      -37.7395019889  TIP3      17307           0.0000000000
    103437     18668  TIP3      OH2             7.2944048319      -14.4821394918      -25.6243466656  TIP3      17308           0.0000000000
    103438     18668  TIP3      H1              6.7486313423      -15.2556142803      -25.3009411108  TIP3      17308           0.0000000000
    103439     18668  TIP3      H2              8.0981171548      -14.6722308816      -25.0929597611  TIP3      17308           0.0000000000
    103440     18669  TIP3      OH2             9.2412631115      -15.2406347081      -34.2153226940  TIP3      17309           0.0000000000
    103441     18669  TIP3      H1              8.9653554658      -14.6776416445      -34.9574593777  TIP3      17309           0.0000000000
    103442     18669  TIP3      H2              9.3428657404      -16.0905064322      -34.6845974069  TIP3      17309           0.0000000000
    103443     18670  TIP3      OH2             0.3707626843      -15.0931213091      -28.9959849560  TIP3      17310           0.0000000000
    103444     18670  TIP3      H1              0.4294023073      -14.6887347579      -28.1129213489  TIP3      17310           0.0000000000
    103445     18670  TIP3      H2             -0.0853383797      -15.9274776608      -28.8009670585  TIP3      17310           0.0000000000
    103446     18671  TIP3      OH2             3.7316007239      -17.7483234556      -42.1778730292  TIP3      17311           0.0000000000
    103447     18671  TIP3      H1              3.2815473343      -18.1296569258      -41.4066855233  TIP3      17311           0.0000000000
    103448     18671  TIP3      H2              3.0371783482      -17.2856707030      -42.6612969340  TIP3      17311           0.0000000000
    103449     18672  TIP3      OH2            -2.9885314348      -17.9832459478      -35.0324859469  TIP3      17312           0.0000000000
    103450     18672  TIP3      H1             -2.3051961419      -18.0257419497      -34.3311612468  TIP3      17312           0.0000000000
    103451     18672  TIP3      H2             -2.5424557166      -18.3642519049      -35.8071960512  TIP3      17312           0.0000000000
    103452     18673  TIP3      OH2            -1.7083276364      -17.2571486355      -39.6337572476  TIP3      17313           0.0000000000
    103453     18673  TIP3      H1             -1.2087977855      -16.6675322090      -40.2368330006  TIP3      17313           0.0000000000
    103454     18673  TIP3      H2             -2.3994717719      -16.6295803031      -39.3332853031  TIP3      17313           0.0000000000
    103455     18674  TIP3      OH2             8.4408407244      -13.6363062682      -29.6088262430  TIP3      17314           0.0000000000
    103456     18674  TIP3      H1              8.8187276033      -14.2920869924      -30.2425401076  TIP3      17314           0.0000000000
    103457     18674  TIP3      H2              7.9735474216      -14.2398514848      -29.0065608505  TIP3      17314           0.0000000000
    103458     18675  TIP3      OH2             5.2557666594      -17.6854872807      -34.8235781554  TIP3      17315           0.0000000000
    103459     18675  TIP3      H1              4.3218246606      -17.6767492472      -34.5332363555  TIP3      17315           0.0000000000
    103460     18675  TIP3      H2              5.7323924238      -17.8372665841      -33.9955644669  TIP3      17315           0.0000000000
    103461     18676  TIP3      OH2             0.0553984189      -16.1246611383      -35.9512815238  TIP3      17316           0.0000000000
    103462     18676  TIP3      H1             -0.8293186049      -15.9726611376      -36.3426567180  TIP3      17316           0.0000000000
    103463     18676  TIP3      H2              0.3418241834      -16.9584298629      -36.3600388938  TIP3      17316           0.0000000000
    103464     18677  TIP3      OH2             3.6919152393      -16.0632931300      -38.3094330921  TIP3      17317           0.0000000000
    103465     18677  TIP3      H1              4.6525373768      -15.9731392138      -38.1660765945  TIP3      17317           0.0000000000
    103466     18677  TIP3      H2              3.4617622068      -15.4174267038      -39.0030104711  TIP3      17317           0.0000000000
    103467     18678  TIP3      OH2             9.6523910391      -18.4395869876      -31.5798591859  TIP3      17318           0.0000000000
    103468     18678  TIP3      H1              8.9679375365      -18.3942394592      -30.8759140824  TIP3      17318           0.0000000000
    103469     18678  TIP3      H2              9.1365882564      -18.6713456687      -32.3669040161  TIP3      17318           0.0000000000
    103470     18679  TIP3      OH2             2.4160059329      -14.8966553207      -40.6999427082  TIP3      17319           0.0000000000
    103471     18679  TIP3      H1              1.8569212850      -15.2532494388      -41.4150260993  TIP3      17319           0.0000000000
    103472     18679  TIP3      H2              3.2174821209      -14.6793419135      -41.2040924834  TIP3      17319           0.0000000000
    103473     18680  TIP3      OH2            12.8115846972       -2.8070369501      -25.2620532516  TIP3      17320           0.0000000000
    103474     18680  TIP3      H1             13.1434659632       -2.4289512358      -26.0944953198  TIP3      17320           0.0000000000
    103475     18680  TIP3      H2             13.5462098094       -2.4957552831      -24.6736981764  TIP3      17320           0.0000000000
    103476     18681  TIP3      OH2             0.5443410106      -10.3602593427      -25.6604609452  TIP3      17321           0.0000000000
    103477     18681  TIP3      H1              1.2405377907      -10.0680834813      -25.0553483573  TIP3      17321           0.0000000000
    103478     18681  TIP3      H2             -0.2600208953      -10.2253870434      -25.1116353676  TIP3      17321           0.0000000000
    103479     18682  TIP3      OH2             6.5306811158      -14.9205355292      -32.9267488186  TIP3      17322           0.0000000000
    103480     18682  TIP3      H1              7.1270552976      -15.4563566429      -33.4639125904  TIP3      17322           0.0000000000
    103481     18682  TIP3      H2              6.3848768379      -15.4708504985      -32.1460276746  TIP3      17322           0.0000000000
    103482     18683  TIP3      OH2             1.5408869889      -18.7769342805      -36.4915264005  TIP3      17323           0.0000000000
    103483     18683  TIP3      H1              1.2304976748      -19.7005185180      -36.5056164601  TIP3      17323           0.0000000000
    103484     18683  TIP3      H2              2.3287961781      -18.8397351904      -37.0452097496  TIP3      17323           0.0000000000
    103485     18684  TIP3      OH2             5.1629082071      -16.5987466262      -30.5223322510  TIP3      17324           0.0000000000
    103486     18684  TIP3      H1              4.3420767911      -16.0787433380      -30.4246855001  TIP3      17324           0.0000000000
    103487     18684  TIP3      H2              5.7203207874      -16.2589984156      -29.7991164777  TIP3      17324           0.0000000000
    103488     18685  TIP3      OH2             5.7565076908      -10.3619173790      -38.8349353556  TIP3      17325           0.0000000000
    103489     18685  TIP3      H1              4.9566157168      -10.8396569848      -39.1468562179  TIP3      17325           0.0000000000
    103490     18685  TIP3      H2              5.5455706052      -10.2564960119      -37.8861351123  TIP3      17325           0.0000000000
    103491     18686  TIP3      OH2            12.9312695852      -11.1624634789      -30.0090185905  TIP3      17326           0.0000000000
    103492     18686  TIP3      H1             13.5029869980      -10.6914203081      -30.6391918096  TIP3      17326           0.0000000000
    103493     18686  TIP3      H2             12.0842626041      -11.1313389704      -30.4962855277  TIP3      17326           0.0000000000
    103494     18687  TIP3      OH2             9.5906018601      -17.5844265787      -40.6031520883  TIP3      17327           0.0000000000
    103495     18687  TIP3      H1              8.6558791772      -17.4243977422      -40.8164139550  TIP3      17327           0.0000000000
    103496     18687  TIP3      H2              9.9156187241      -16.7074407199      -40.3201210021  TIP3      17327           0.0000000000
    103497     18688  TIP3      OH2             7.2091045983      -10.1552326470      -27.4644654341  TIP3      17328           0.0000000000
    103498     18688  TIP3      H1              6.7460871531      -10.4838878857      -26.6943338715  TIP3      17328           0.0000000000
    103499     18688  TIP3      H2              6.8945620649       -9.2544545510      -27.3432930838  TIP3      17328           0.0000000000
    103500     18689  TIP3      OH2            10.3285800312      -15.6358260240      -38.9704206519  TIP3      17329           0.0000000000
    103501     18689  TIP3      H1             11.2212627063      -15.7765854165      -38.5957259622  TIP3      17329           0.0000000000
    103502     18689  TIP3      H2             10.4197993363      -14.8210966004      -39.4885245569  TIP3      17329           0.0000000000
    103503     18690  TIP3      OH2             0.8651717138      -10.9793486721      -33.0154504457  TIP3      17330           0.0000000000
    103504     18690  TIP3      H1              1.5533261323      -11.0578034396      -33.7043717277  TIP3      17330           0.0000000000
    103505     18690  TIP3      H2              0.9218317993      -11.8395009696      -32.5667925285  TIP3      17330           0.0000000000
    103506     18691  TIP3      OH2             7.8449855581       -8.8958816968      -39.7575554272  TIP3      17331           0.0000000000
    103507     18691  TIP3      H1              7.5003430028       -8.0449388402      -39.4000254582  TIP3      17331           0.0000000000
    103508     18691  TIP3      H2              7.1041805435       -9.5119531769      -39.5486976460  TIP3      17331           0.0000000000
    103509     18692  TIP3      OH2            -2.1419744946      -12.5715457558      -27.7514458958  TIP3      17332           0.0000000000
    103510     18692  TIP3      H1             -1.9540139665      -13.0020004943      -26.8941184699  TIP3      17332           0.0000000000
    103511     18692  TIP3      H2             -2.7504986829      -13.2014205065      -28.1600183907  TIP3      17332           0.0000000000
    103512     18693  TIP3      OH2             4.9156121422      -12.9526546032      -25.6230569078  TIP3      17333           0.0000000000
    103513     18693  TIP3      H1              4.5216498358      -13.3327611744      -26.4330724934  TIP3      17333           0.0000000000
    103514     18693  TIP3      H2              5.7370078388      -13.4518582261      -25.5153905357  TIP3      17333           0.0000000000
    103515     18694  TIP3      OH2             9.4787803098       -7.7408506359      -27.5841791421  TIP3      17334           0.0000000000
    103516     18694  TIP3      H1              8.6645941916       -7.2724323572      -27.7520969143  TIP3      17334           0.0000000000
    103517     18694  TIP3      H2              9.5860529511       -7.3820651988      -26.6631948572  TIP3      17334           0.0000000000
    103518     18695  TIP3      OH2            15.2245087230      -15.4941479766      -39.2234507066  TIP3      17335           0.0000000000
    103519     18695  TIP3      H1             14.6515454226      -15.7891714108      -39.9614099887  TIP3      17335           0.0000000000
    103520     18695  TIP3      H2             15.3062138223      -14.5488643197      -39.4818516810  TIP3      17335           0.0000000000
    103521     18696  TIP3      OH2            15.2071458370       -9.6644259243      -26.4170629533  TIP3      17336           0.0000000000
    103522     18696  TIP3      H1             14.3273569421       -9.4026432668      -26.7799129787  TIP3      17336           0.0000000000
    103523     18696  TIP3      H2             15.7659170668       -9.6740693978      -27.2213697657  TIP3      17336           0.0000000000
    103524     18697  TIP3      OH2            13.5231085923       -6.6618122721      -38.8216211775  TIP3      17337           0.0000000000
    103525     18697  TIP3      H1             13.1459789225       -7.4923852151      -38.5029234128  TIP3      17337           0.0000000000
    103526     18697  TIP3      H2             13.8145564822       -6.8556584333      -39.7391018769  TIP3      17337           0.0000000000
    103527     18698  TIP3      OH2            10.7057518465      -11.8439248858      -31.7182419645  TIP3      17338           0.0000000000
    103528     18698  TIP3      H1              9.7763766819      -12.0752098709      -31.8733327079  TIP3      17338           0.0000000000
    103529     18698  TIP3      H2             11.1482788960      -12.5986415542      -32.1556092958  TIP3      17338           0.0000000000
    103530     18699  TIP3      OH2             3.2370234566       -7.5308737194      -35.6359268574  TIP3      17339           0.0000000000
    103531     18699  TIP3      H1              3.7492054807       -6.7208033636      -35.8258539450  TIP3      17339           0.0000000000
    103532     18699  TIP3      H2              2.3691582820       -7.2670878316      -35.9664641187  TIP3      17339           0.0000000000
    103533     18700  TIP3      OH2            -1.0281655484      -12.6724018016      -41.1213951928  TIP3      17340           0.0000000000
    103534     18700  TIP3      H1             -0.4089320098      -12.0488079584      -40.7021682388  TIP3      17340           0.0000000000
    103535     18700  TIP3      H2             -1.8831856473      -12.3792067490      -40.7577711454  TIP3      17340           0.0000000000
    103536     18701  TIP3      OH2             4.6515542321       -9.8602493278      -36.1131070990  TIP3      17341           0.0000000000
    103537     18701  TIP3      H1              4.3540230273       -8.9305922162      -36.0221793576  TIP3      17341           0.0000000000
    103538     18701  TIP3      H2              3.9265184683      -10.3455575003      -35.6712677281  TIP3      17341           0.0000000000
    103539     18702  TIP3      OH2             5.1231091582       -5.6965330758      -29.7252770663  TIP3      17342           0.0000000000
    103540     18702  TIP3      H1              5.5337282993       -4.8602902565      -30.0136586559  TIP3      17342           0.0000000000
    103541     18702  TIP3      H2              5.7026460251       -5.9616494928      -29.0011797834  TIP3      17342           0.0000000000
    103542     18703  TIP3      OH2             3.1983692386       -4.8971044623      -36.6608830754  TIP3      17343           0.0000000000
    103543     18703  TIP3      H1              2.2852743763       -4.6737303561      -36.4183132439  TIP3      17343           0.0000000000
    103544     18703  TIP3      H2              3.7342184004       -4.1681073573      -36.2530078129  TIP3      17343           0.0000000000
    103545     18704  TIP3      OH2             8.7122304710       -9.7732266039      -30.1730943922  TIP3      17344           0.0000000000
    103546     18704  TIP3      H1              8.3996489878      -10.1275020170      -29.3336422693  TIP3      17344           0.0000000000
    103547     18704  TIP3      H2              9.3794825596      -10.4592277739      -30.3864335767  TIP3      17344           0.0000000000
    103548     18705  TIP3      OH2            10.9195776906       -8.6256734806      -40.9796228326  TIP3      17345           0.0000000000
    103549     18705  TIP3      H1             11.2534920338       -9.0783323226      -40.1828775091  TIP3      17345           0.0000000000
    103550     18705  TIP3      H2              9.9693310417       -8.7901532415      -40.8911942330  TIP3      17345           0.0000000000
    103551     18706  TIP3      OH2            11.4233595542       -5.0870293788      -27.5853071539  TIP3      17346           0.0000000000
    103552     18706  TIP3      H1             10.7605506965       -5.5757680400      -28.0891109517  TIP3      17346           0.0000000000
    103553     18706  TIP3      H2             11.6493029563       -4.3811369617      -28.2318624767  TIP3      17346           0.0000000000
    103554     18707  TIP3      OH2            15.4220512144       -4.2103564627      -40.7772886139  TIP3      17347           0.0000000000
    103555     18707  TIP3      H1             16.1465220666       -3.5880344068      -40.9544797872  TIP3      17347           0.0000000000
    103556     18707  TIP3      H2             14.7120018851       -3.6158435648      -40.4548466781  TIP3      17347           0.0000000000
    103557     18708  TIP3      OH2            -0.4855158300      -17.8286767316      -28.1716336198  TIP3      17348           0.0000000000
    103558     18708  TIP3      H1             -1.3926124609      -17.4894361007      -28.2055531323  TIP3      17348           0.0000000000
    103559     18708  TIP3      H2             -0.6015610644      -18.7014877672      -27.7634596069  TIP3      17348           0.0000000000
    103560     18709  TIP3      OH2            11.7449869563       -9.9748398754      -38.7469408120  TIP3      17349           0.0000000000
    103561     18709  TIP3      H1             11.5011520358      -10.7619348287      -38.2139197165  TIP3      17349           0.0000000000
    103562     18709  TIP3      H2             12.6959542473       -9.9215636219      -38.5592010092  TIP3      17349           0.0000000000
    103563     18710  TIP3      OH2            -0.8684141483       -6.0476652930      -29.7784003775  TIP3      17350           0.0000000000
    103564     18710  TIP3      H1             -0.5844222275       -6.9743344298      -29.7689744055  TIP3      17350           0.0000000000
    103565     18710  TIP3      H2             -0.6162120746       -5.7631546148      -28.8925878531  TIP3      17350           0.0000000000
    103566     18711  TIP3      OH2             5.0890931833       -7.5642848840      -42.5317251160  TIP3      17351           0.0000000000
    103567     18711  TIP3      H1              5.2340688574       -8.3284201795      -43.0870873319  TIP3      17351           0.0000000000
    103568     18711  TIP3      H2              4.6559092486       -7.9305271499      -41.7306028944  TIP3      17351           0.0000000000
    103569     18712  TIP3      OH2             3.8834966647       -7.9929401476      -40.0524525861  TIP3      17352           0.0000000000
    103570     18712  TIP3      H1              4.1295213351       -8.4999887480      -39.2720561825  TIP3      17352           0.0000000000
    103571     18712  TIP3      H2              3.9480056022       -7.0594415326      -39.7440306872  TIP3      17352           0.0000000000
    103572     18713  TIP3      OH2             0.3820201200      -10.7452627113      -39.5952126620  TIP3      17353           0.0000000000
    103573     18713  TIP3      H1             -0.2980516558      -10.3413852652      -39.0136887002  TIP3      17353           0.0000000000
    103574     18713  TIP3      H2              0.9162342796       -9.9718948815      -39.8467664683  TIP3      17353           0.0000000000
    103575     18714  TIP3      OH2             8.2329606139      -18.0662594301      -29.2473544786  TIP3      17354           0.0000000000
    103576     18714  TIP3      H1              8.9522175293      -18.0041004326      -28.6064330108  TIP3      17354           0.0000000000
    103577     18714  TIP3      H2              7.8542698063      -18.9454457641      -29.0497817150  TIP3      17354           0.0000000000
    103578     18715  TIP3      OH2             8.9701854972      -18.4804901130      -38.1430543619  TIP3      17355           0.0000000000
    103579     18715  TIP3      H1              9.2206986305      -18.0277885499      -38.9751086486  TIP3      17355           0.0000000000
    103580     18715  TIP3      H2              9.5653825060      -18.0515509834      -37.5178218521  TIP3      17355           0.0000000000
    103581     18716  TIP3      OH2             6.6491962926       -6.3656748806      -39.4258559665  TIP3      17356           0.0000000000
    103582     18716  TIP3      H1              5.8687657508       -5.8089809573      -39.2354581813  TIP3      17356           0.0000000000
    103583     18716  TIP3      H2              7.1980533790       -5.7768050245      -39.9587872938  TIP3      17356           0.0000000000
    103584     18717  TIP3      OH2             6.2108395117      -16.7431761978      -37.3334951723  TIP3      17357           0.0000000000
    103585     18717  TIP3      H1              6.9984088556      -16.1655529247      -37.3014097263  TIP3      17357           0.0000000000
    103586     18717  TIP3      H2              5.9526820255      -16.8593515942      -36.4014078520  TIP3      17357           0.0000000000
    103587     18718  TIP3      OH2             6.7755550724      -15.6995901102      -28.1631057274  TIP3      17358           0.0000000000
    103588     18718  TIP3      H1              6.8349474465      -15.1976271086      -27.3378432620  TIP3      17358           0.0000000000
    103589     18718  TIP3      H2              7.4092002242      -16.4299394830      -28.0673845761  TIP3      17358           0.0000000000
    103590     18719  TIP3      OH2             7.0783815825      -19.6875298715      -36.4463125435  TIP3      17359           0.0000000000
    103591     18719  TIP3      H1              6.7431831403      -19.0325873808      -35.8077885464  TIP3      17359           0.0000000000
    103592     18719  TIP3      H2              7.7552279553      -19.1344998286      -36.9118818992  TIP3      17359           0.0000000000
    103593     18720  TIP3      OH2             4.0179413568       -5.3003211532      -39.3193935370  TIP3      17360           0.0000000000
    103594     18720  TIP3      H1              4.2049616329       -4.4757010657      -39.8197043655  TIP3      17360           0.0000000000
    103595     18720  TIP3      H2              3.8076978566       -4.9519471652      -38.4233167242  TIP3      17360           0.0000000000
    103596     18721  TIP3      OH2             2.7176453716      -18.5878285243      -39.7063899153  TIP3      17361           0.0000000000
    103597     18721  TIP3      H1              2.6715019661      -17.6691529422      -39.3814752245  TIP3      17361           0.0000000000
    103598     18721  TIP3      H2              3.6325312722      -18.8319196430      -39.4669966297  TIP3      17361           0.0000000000
    103599     18722  TIP3      OH2            12.9376093900      -17.8530730923      -27.2984758808  TIP3      17362           0.0000000000
    103600     18722  TIP3      H1             12.0111344023      -17.5357282115      -27.4306110578  TIP3      17362           0.0000000000
    103601     18722  TIP3      H2             13.2498121562      -17.8467723852      -28.2169623693  TIP3      17362           0.0000000000
    103602     18723  TIP3      OH2            11.5350557653      -14.0627020741      -33.2781212056  TIP3      17363           0.0000000000
    103603     18723  TIP3      H1             10.7246472597      -14.5162105440      -33.5731574269  TIP3      17363           0.0000000000
    103604     18723  TIP3      H2             12.0306351009      -14.7513938266      -32.7775727372  TIP3      17363           0.0000000000
    103605     18724  TIP3      OH2             0.9789345646       -8.1552351705      -40.6793267920  TIP3      17364           0.0000000000
    103606     18724  TIP3      H1              1.6167337196       -7.4943836097      -40.3907373017  TIP3      17364           0.0000000000
    103607     18724  TIP3      H2              1.4807684835       -8.5967757021      -41.3912356244  TIP3      17364           0.0000000000
    103608     18725  TIP3      OH2            -0.6688396577      -15.4732550916      -41.5140146933  TIP3      17365           0.0000000000
    103609     18725  TIP3      H1             -0.6844018934      -14.5049715787      -41.3897148694  TIP3      17365           0.0000000000
    103610     18725  TIP3      H2             -1.5384921370      -15.6623032040      -41.8778698069  TIP3      17365           0.0000000000
    103611     18726  TIP3      OH2            12.6230703433       -4.8009632463      -31.6186786368  TIP3      17366           0.0000000000
    103612     18726  TIP3      H1             12.5201786508       -4.1284749985      -32.3161179129  TIP3      17366           0.0000000000
    103613     18726  TIP3      H2             13.5848441323       -4.7520133379      -31.4407781606  TIP3      17366           0.0000000000
    103614     18727  TIP3      OH2             0.1144127567      -20.6796850816      -32.8202884601  TIP3      17367           0.0000000000
    103615     18727  TIP3      H1             -0.0820179627      -20.6620607101      -33.7835001406  TIP3      17367           0.0000000000
    103616     18727  TIP3      H2             -0.3031532377      -21.5296280641      -32.5662708853  TIP3      17367           0.0000000000
    103617     18728  TIP3      OH2            -0.9252172414       -6.7594726316      -36.6799403442  TIP3      17368           0.0000000000
    103618     18728  TIP3      H1             -1.7823673096       -6.3064186451      -36.7160011297  TIP3      17368           0.0000000000
    103619     18728  TIP3      H2             -0.4500694576       -6.2899548021      -37.3764478861  TIP3      17368           0.0000000000
    103620     18729  TIP3      OH2            -1.7319666880       -4.0963344089      -25.3664539812  TIP3      17369           0.0000000000
    103621     18729  TIP3      H1             -1.0949751607       -4.3093692301      -24.6542906973  TIP3      17369           0.0000000000
    103622     18729  TIP3      H2             -2.1221617162       -4.9622218615      -25.5736770604  TIP3      17369           0.0000000000
    103623     18730  TIP3      OH2             2.9151662697       -5.1884494949      -23.8032487864  TIP3      17370           0.0000000000
    103624     18730  TIP3      H1              3.6866153512       -5.6529418101      -23.4416655706  TIP3      17370           0.0000000000
    103625     18730  TIP3      H2              2.9150065549       -5.4758207021      -24.7277719045  TIP3      17370           0.0000000000
    103626     18731  TIP3      OH2             7.0670147234       -5.6871041290      -42.3935648149  TIP3      17371           0.0000000000
    103627     18731  TIP3      H1              6.3596369804       -6.3314892678      -42.1722713684  TIP3      17371           0.0000000000
    103628     18731  TIP3      H2              7.8030587039       -6.2670552646      -42.6099030879  TIP3      17371           0.0000000000
    103629     18732  TIP3      OH2             9.4633608346       -6.8402969352      -25.0784957512  TIP3      17372           0.0000000000
    103630     18732  TIP3      H1              9.1333988320       -7.6820014366      -24.7142346678  TIP3      17372           0.0000000000
    103631     18732  TIP3      H2             10.2074922734       -6.6612539501      -24.4585656426  TIP3      17372           0.0000000000
    103632     18733  TIP3      OH2            11.6574373856       -5.9009903156      -42.1711059793  TIP3      17373           0.0000000000
    103633     18733  TIP3      H1             11.9095545315       -6.7211598696      -41.7095862676  TIP3      17373           0.0000000000
    103634     18733  TIP3      H2             12.4287869809       -5.7274538215      -42.7153744464  TIP3      17373           0.0000000000
    103635     18734  TIP3      OH2            -1.7954238455      -10.3605051757      -24.3786364221  TIP3      17374           0.0000000000
    103636     18734  TIP3      H1             -1.6375330846      -11.2573814982      -24.7167747235  TIP3      17374           0.0000000000
    103637     18734  TIP3      H2             -2.5361395761      -10.0654895473      -24.9413954808  TIP3      17374           0.0000000000
    103638     18735  TIP3      OH2             2.5663235338       -9.9948429374      -42.3331286718  TIP3      17375           0.0000000000
    103639     18735  TIP3      H1              2.6724035917      -10.7697878977      -41.7625651997  TIP3      17375           0.0000000000
    103640     18735  TIP3      H2              3.2208462645      -10.1381365558      -43.0203202778  TIP3      17375           0.0000000000
    103641     18736  TIP3      OH2             5.0362178892      -10.3434148545      -25.0910671821  TIP3      17376           0.0000000000
    103642     18736  TIP3      H1              4.4934682012      -10.0308799284      -25.8405686358  TIP3      17376           0.0000000000
    103643     18736  TIP3      H2              4.9216378495      -11.3252463569      -25.0934047801  TIP3      17376           0.0000000000
    103644     18737  TIP3      OH2             7.8984794469       -8.9131879486      -42.5780286926  TIP3      17377           0.0000000000
    103645     18737  TIP3      H1              7.6837396871       -8.7696732692      -41.6364568071  TIP3      17377           0.0000000000
    103646     18737  TIP3      H2              7.7442922035       -9.8610548043      -42.6918775869  TIP3      17377           0.0000000000
    103647     18738  TIP3      OH2            10.5587978898      -10.4736511432      -27.6365389978  TIP3      17378           0.0000000000
    103648     18738  TIP3      H1             11.4006843260       -9.9457316361      -27.6803752898  TIP3      17378           0.0000000000
    103649     18738  TIP3      H2              9.9385659796       -9.7496729881      -27.5528984474  TIP3      17378           0.0000000000
    103650     18739  TIP3      OH2            -0.8938031406      -13.1058309804      -25.0013237311  TIP3      17379           0.0000000000
    103651     18739  TIP3      H1             -0.4719464177      -13.9650810741      -25.1181293317  TIP3      17379           0.0000000000
    103652     18739  TIP3      H2             -1.1538231192      -13.1144792995      -24.0775021953  TIP3      17379           0.0000000000
    103653     18740  TIP3      OH2             3.7517522595      -11.9698124849      -39.9436254606  TIP3      17380           0.0000000000
    103654     18740  TIP3      H1              3.2372459490      -12.5061237521      -39.3195881006  TIP3      17380           0.0000000000
    103655     18740  TIP3      H2              4.0408889689      -12.6536460260      -40.6007423955  TIP3      17380           0.0000000000
    103656     18741  TIP3      OH2             3.0518339588      -14.1326308827      -27.6339011685  TIP3      17381           0.0000000000
    103657     18741  TIP3      H1              2.3945557923      -13.4535449363      -27.4025687212  TIP3      17381           0.0000000000
    103658     18741  TIP3      H2              3.3677817505      -13.8002953631      -28.4874439835  TIP3      17381           0.0000000000
    103659     18742  TIP3      OH2             4.8196329121      -13.6754979133      -41.7495398653  TIP3      17382           0.0000000000
    103660     18742  TIP3      H1              4.6846768007      -13.9242915193      -42.6795807261  TIP3      17382           0.0000000000
    103661     18742  TIP3      H2              5.7958375832      -13.6955674261      -41.6454487653  TIP3      17382           0.0000000000
    103662     18743  TIP3      OH2             8.0997874103      -11.6120863480      -24.3300549097  TIP3      17383           0.0000000000
    103663     18743  TIP3      H1              9.0724884080      -11.5932612622      -24.3124917819  TIP3      17383           0.0000000000
    103664     18743  TIP3      H2              7.9076259604      -12.3301317151      -23.6852841637  TIP3      17383           0.0000000000
    103665     18744  TIP3      OH2            14.1555691716      -11.3939334003      -42.2998791040  TIP3      17384           0.0000000000
    103666     18744  TIP3      H1             13.9338086907      -11.8003265659      -43.1372924216  TIP3      17384           0.0000000000
    103667     18744  TIP3      H2             14.2511157507      -10.4597789616      -42.5313051045  TIP3      17384           0.0000000000
    103668     18745  TIP3      OH2             3.4040178616      -16.7879102654      -26.5905429438  TIP3      17385           0.0000000000
    103669     18745  TIP3      H1              3.5277973640      -17.4985503014      -27.2427024701  TIP3      17385           0.0000000000
    103670     18745  TIP3      H2              3.3464486552      -15.9862972359      -27.1469954414  TIP3      17385           0.0000000000
    103671     18746  TIP3      OH2             3.8115366438      -18.4040771696      -29.0463460617  TIP3      17386           0.0000000000
    103672     18746  TIP3      H1              4.3226160923      -17.9413869752      -29.7524184739  TIP3      17386           0.0000000000
    103673     18746  TIP3      H2              2.9199804215      -18.4857000624      -29.4559932233  TIP3      17386           0.0000000000
    103674     18747  TIP3      OH2             5.4666116808      -12.8322650833      -28.7256839378  TIP3      17387           0.0000000000
    103675     18747  TIP3      H1              6.0726435909      -13.1240776236      -29.4182839407  TIP3      17387           0.0000000000
    103676     18747  TIP3      H2              4.9539525389      -12.1195666809      -29.1633447723  TIP3      17387           0.0000000000
    103677     18748  TIP3      OH2             9.7536570407      -15.1555780163      -23.8913063219  TIP3      17388           0.0000000000
    103678     18748  TIP3      H1              9.9849152133      -16.0934617340      -23.9169691735  TIP3      17388           0.0000000000
    103679     18748  TIP3      H2             10.6294738184      -14.7372462236      -23.8040970975  TIP3      17388           0.0000000000
    103680     18749  TIP3      OH2            11.0523419849      -12.3601102683      -25.7214972463  TIP3      17389           0.0000000000
    103681     18749  TIP3      H1             10.8841399268      -11.6054513161      -26.3132890142  TIP3      17389           0.0000000000
    103682     18749  TIP3      H2             12.0214214037      -12.4082110257      -25.8579541223  TIP3      17389           0.0000000000
    103683     18750  TIP3      OH2             1.8598115513      -15.5093115344      -24.6852460972  TIP3      17390           0.0000000000
    103684     18750  TIP3      H1              1.1078319304      -16.1179569734      -24.8188591682  TIP3      17390           0.0000000000
    103685     18750  TIP3      H2              2.5147423730      -15.8970698701      -25.2918543061  TIP3      17390           0.0000000000
    103686     18751  TIP3      OH2             4.6048003262      -20.9641962159      -28.6629232388  TIP3      17391           0.0000000000
    103687     18751  TIP3      H1              4.4230446499      -20.0010811480      -28.7540684612  TIP3      17391           0.0000000000
    103688     18751  TIP3      H2              3.8499162142      -21.3304086789      -29.1558314987  TIP3      17391           0.0000000000
    103689     18752  TIP3      OH2             5.8565579994      -16.6339479327      -25.0471370483  TIP3      17392           0.0000000000
    103690     18752  TIP3      H1              5.5600408052      -16.8639480202      -24.1399031160  TIP3      17392           0.0000000000
    103691     18752  TIP3      H2              5.0625049875      -16.8549656424      -25.5664855117  TIP3      17392           0.0000000000
    103692     18753  TIP3      OH2             8.5841843332      -17.4668684587      -25.9377186993  TIP3      17393           0.0000000000
    103693     18753  TIP3      H1              7.6185162747      -17.4637914504      -25.8284167642  TIP3      17393           0.0000000000
    103694     18753  TIP3      H2              8.8611215253      -18.1313733306      -25.2841857794  TIP3      17393           0.0000000000
    103695     18754  TIP3      OH2            10.1564569643      -18.8589704886      -23.9836972235  TIP3      17394           0.0000000000
    103696     18754  TIP3      H1             10.1300555247      -19.8458410101      -24.0100053025  TIP3      17394           0.0000000000
    103697     18754  TIP3      H2              9.8797637666      -18.6250559553      -23.0985665078  TIP3      17394           0.0000000000
    103698     18755  TIP3      OH2            -0.0614063716      -17.6068918070      -24.9834676176  TIP3      17395           0.0000000000
    103699     18755  TIP3      H1              0.2246336870      -18.3503942803      -25.5380713910  TIP3      17395           0.0000000000
    103700     18755  TIP3      H2             -0.1156122889      -18.0216917916      -24.1118463685  TIP3      17395           0.0000000000
    103701     18756  TIP3      OH2             4.8267206383      -21.5808581787      -25.9620355254  TIP3      17396           0.0000000000
    103702     18756  TIP3      H1              5.5080484393      -22.2822452711      -25.9818402695  TIP3      17396           0.0000000000
    103703     18756  TIP3      H2              4.7073528407      -21.4249293532      -26.9132228155  TIP3      17396           0.0000000000
    103704     18757  TIP3      OH2             5.2273502686      -19.9475666555      -23.8831703068  TIP3      17397           0.0000000000
    103705     18757  TIP3      H1              5.0170000180      -20.4793496116      -24.6838588526  TIP3      17397           0.0000000000
    103706     18757  TIP3      H2              4.5772500208      -19.2193217139      -23.9490826287  TIP3      17397           0.0000000000
    103707     18758  TIP3      OH2             4.6539892334       -3.0168625464      -40.6845045662  TIP3      17398           0.0000000000
    103708     18758  TIP3      H1              5.6272344908       -2.9723232113      -40.6105913596  TIP3      17398           0.0000000000
    103709     18758  TIP3      H2              4.4804015552       -2.4139121132      -41.4058627183  TIP3      17398           0.0000000000
    103710     18759  TIP3      OH2            -1.7564438090       -8.4563345933      -41.1850705493  TIP3      17399           0.0000000000
    103711     18759  TIP3      H1             -0.8006885609       -8.3690665391      -40.9676303961  TIP3      17399           0.0000000000
    103712     18759  TIP3      H2             -1.7107984197       -9.0660494950      -41.9322069515  TIP3      17399           0.0000000000
    103713     18760  TIP3      OH2            -3.0224686173       -3.0884027681      -36.2297744250  TIP3      17400           0.0000000000
    103714     18760  TIP3      H1             -3.7349892041       -3.5763285939      -36.7001763676  TIP3      17400           0.0000000000
    103715     18760  TIP3      H2             -2.7383454012       -3.7449195373      -35.5682026359  TIP3      17400           0.0000000000
    103716     18761  TIP3      OH2            -2.1980126213       -4.9547443424      -34.3582469906  TIP3      17401           0.0000000000
    103717     18761  TIP3      H1             -2.5483956340       -5.8342964265      -34.1586604292  TIP3      17401           0.0000000000
    103718     18761  TIP3      H2             -1.9568293543       -4.6278890895      -33.4739171988  TIP3      17401           0.0000000000
    103719     18762  TIP3      OH2            15.3108827413       -4.1132027391      -31.4508723455  TIP3      17402           0.0000000000
    103720     18762  TIP3      H1             15.3511916590       -4.0318035034      -30.4807203157  TIP3      17402           0.0000000000
    103721     18762  TIP3      H2             16.0846493579       -3.6097106627      -31.7020252220  TIP3      17402           0.0000000000
    103722     18763  TIP3      OH2            14.9062484704       -4.5664742737      -28.4927763787  TIP3      17403           0.0000000000
    103723     18763  TIP3      H1             14.4481805431       -5.3475281016      -28.8552397929  TIP3      17403           0.0000000000
    103724     18763  TIP3      H2             15.4202968553       -4.9970829397      -27.7838029064  TIP3      17403           0.0000000000
    103725     18764  TIP3      OH2            13.3316803212       -8.7938446620      -23.8655575800  TIP3      17404           0.0000000000
    103726     18764  TIP3      H1             12.4768419044       -8.8758980585      -23.4026810040  TIP3      17404           0.0000000000
    103727     18764  TIP3      H2             13.7639565405       -8.0532890455      -23.3835903001  TIP3      17404           0.0000000000
    103728     18765  TIP3      OH2            14.6658435493      -10.5127388179      -38.3825681232  TIP3      17405           0.0000000000
    103729     18765  TIP3      H1             15.5444256669      -10.1282190231      -38.1889644321  TIP3      17405           0.0000000000
    103730     18765  TIP3      H2             14.6615502987      -11.2284110465      -37.7080754099  TIP3      17405           0.0000000000
    103731     18766  TIP3      OH2            15.0135710299      -12.4340970529      -36.4951961501  TIP3      17406           0.0000000000
    103732     18766  TIP3      H1             14.2972197871      -12.9485909740      -36.0774468160  TIP3      17406           0.0000000000
    103733     18766  TIP3      H2             15.6495715547      -12.3015112386      -35.7555778362  TIP3      17406           0.0000000000
    103734     18767  TIP3      OH2            14.7888108543       -9.7440295227      -31.5280995617  TIP3      17407           0.0000000000
    103735     18767  TIP3      H1             15.6124900294      -10.1245087443      -31.8948388856  TIP3      17407           0.0000000000
    103736     18767  TIP3      H2             14.9446242124       -8.7880991939      -31.6756048197  TIP3      17407           0.0000000000
    103737     18768  TIP3      OH2            13.3379506226       -6.8482290052      -29.2487414209  TIP3      17408           0.0000000000
    103738     18768  TIP3      H1             12.6773036525       -6.4833270760      -28.6405223222  TIP3      17408           0.0000000000
    103739     18768  TIP3      H2             12.7918225678       -7.2382056764      -29.9604726159  TIP3      17408           0.0000000000
    103740     18769  TIP3      OH2            15.3131336125      -12.6268893384      -40.1281374745  TIP3      17409           0.0000000000
    103741     18769  TIP3      H1             14.7596011163      -12.2431471819      -40.8389547929  TIP3      17409           0.0000000000
    103742     18769  TIP3      H2             15.2671453660      -11.9247285644      -39.4461117396  TIP3      17409           0.0000000000
    103743     18770  TIP3      OH2            13.6461851040      -15.3928285901      -41.5461904881  TIP3      17410           0.0000000000
    103744     18770  TIP3      H1             13.7928442098      -14.7346071718      -42.2301168255  TIP3      17410           0.0000000000
    103745     18770  TIP3      H2             13.5353182557      -16.2214445667      -42.0511409231  TIP3      17410           0.0000000000
    103746     18771  TIP3      OH2            12.8529262655      -13.9660187799      -35.9241244563  TIP3      17411           0.0000000000
    103747     18771  TIP3      H1             12.7061918631      -14.9222919116      -35.9593010135  TIP3      17411           0.0000000000
    103748     18771  TIP3      H2             12.5240333254      -13.7439750574      -35.0357425921  TIP3      17411           0.0000000000
    103749     18772  TIP3      OH2            -2.1417735264      -11.9155676457      -31.8552553051  TIP3      17412           0.0000000000
    103750     18772  TIP3      H1             -1.9485578896      -11.9508538075      -32.8226583257  TIP3      17412           0.0000000000
    103751     18772  TIP3      H2             -1.2299360840      -12.0305912561      -31.5095304753  TIP3      17412           0.0000000000
    103752     18773  TIP3      OH2            13.7140037707      -11.9998673415      -26.2467011267  TIP3      17413           0.0000000000
    103753     18773  TIP3      H1             14.3183171546      -12.7565304932      -26.0716557481  TIP3      17413           0.0000000000
    103754     18773  TIP3      H2             14.3129565898      -11.2238991241      -26.2278640155  TIP3      17413           0.0000000000
    103755     18774  TIP3      OH2            15.2252910528      -14.1135461615      -25.6321140419  TIP3      17414           0.0000000000
    103756     18774  TIP3      H1             14.3321180431      -14.5147152029      -25.7126406553  TIP3      17414           0.0000000000
    103757     18774  TIP3      H2             15.7881399948      -14.9003484567      -25.6372076091  TIP3      17414           0.0000000000
    103758     18775  TIP3      OH2            12.9292603944      -17.8846783875      -42.4191000063  TIP3      17415           0.0000000000
    103759     18775  TIP3      H1             13.5372106475      -18.3623128856      -41.8131363002  TIP3      17415           0.0000000000
    103760     18775  TIP3      H2             12.0837945116      -18.3392178769      -42.2697396000  TIP3      17415           0.0000000000
    103761     18776  TIP3      OH2            12.5217592009      -16.3802528332      -37.4486782500  TIP3      17416           0.0000000000
    103762     18776  TIP3      H1             12.8281217736      -17.3088135402      -37.3379352500  TIP3      17416           0.0000000000
    103763     18776  TIP3      H2             13.3079927362      -15.9794359044      -37.8437875210  TIP3      17416           0.0000000000
    103764     18777  TIP3      OH2            13.1599716890      -15.8362424913      -32.0215571003  TIP3      17417           0.0000000000
    103765     18777  TIP3      H1             14.1204844212      -15.6046526832      -32.0363930661  TIP3      17417           0.0000000000
    103766     18777  TIP3      H2             12.9721352106      -15.6926515828      -31.0816727471  TIP3      17417           0.0000000000
    103767     18778  TIP3      OH2            13.2248220117      -15.1140424086      -29.2537706583  TIP3      17418           0.0000000000
    103768     18778  TIP3      H1             12.3547073470      -14.8288859928      -28.9063831156  TIP3      17418           0.0000000000
    103769     18778  TIP3      H2             13.6595622853      -14.2533913159      -29.4616456567  TIP3      17418           0.0000000000
    103770     18779  TIP3      OH2            -2.5316529846      -16.5924967980      -25.7231875317  TIP3      17419           0.0000000000
    103771     18779  TIP3      H1             -1.5925636470      -16.7851455226      -25.5367861002  TIP3      17419           0.0000000000
    103772     18779  TIP3      H2             -2.9806834171      -17.4060254716      -25.4177194904  TIP3      17419           0.0000000000
    103773     18780  TIP3      OH2            15.5227486579      -21.1109031749      -23.8945001899  TIP3      17420           0.0000000000
    103774     18780  TIP3      H1             15.8596400008      -21.7344785868      -24.5451965729  TIP3      17420           0.0000000000
    103775     18780  TIP3      H2             15.5943643027      -20.2590909019      -24.3818882276  TIP3      17420           0.0000000000
    103776     18781  TIP3      OH2            13.1909362430      -19.1065688300      -37.4215435097  TIP3      17421           0.0000000000
    103777     18781  TIP3      H1             13.4016738604      -19.5403827755      -36.5660280217  TIP3      17421           0.0000000000
    103778     18781  TIP3      H2             12.5840412033      -19.7365857377      -37.8646581179  TIP3      17421           0.0000000000
    103779     18782  TIP3      OH2            -1.3224371488      -18.2890098021      -32.8576318048  TIP3      17422           0.0000000000
    103780     18782  TIP3      H1             -0.8609450884      -19.1150178597      -32.6030742719  TIP3      17422           0.0000000000
    103781     18782  TIP3      H2             -0.7676127797      -17.5974467747      -32.4753691677  TIP3      17422           0.0000000000
    103782     18783  TIP3      OH2            -3.1111099936      -15.2339974069      -31.8495613695  TIP3      17423           0.0000000000
    103783     18783  TIP3      H1             -2.5002035303      -15.5497954608      -32.5617858766  TIP3      17423           0.0000000000
    103784     18783  TIP3      H2             -2.5417128070      -14.4938275150      -31.5645875832  TIP3      17423           0.0000000000
    103785     18784  TIP3      OH2            15.0292931590      -18.9798645387      -25.5399146427  TIP3      17424           0.0000000000
    103786     18784  TIP3      H1             14.0978234252      -18.6820875463      -25.5959679899  TIP3      17424           0.0000000000
    103787     18784  TIP3      H2             15.0696267356      -19.5018341763      -26.3520137431  TIP3      17424           0.0000000000
    103788     18785  TIP3      OH2            15.0122060911      -19.0397391868      -40.8838276547  TIP3      17425           0.0000000000
    103789     18785  TIP3      H1             15.4499852767      -19.7622715572      -41.3551874714  TIP3      17425           0.0000000000
    103790     18785  TIP3      H2             15.7322998492      -18.3888004402      -40.8154159056  TIP3      17425           0.0000000000
    103791     18786  TIP3      OH2            -2.6738406176      -19.0378491667      -37.7654063769  TIP3      17426           0.0000000000
    103792     18786  TIP3      H1             -3.6143643953      -18.8358958706      -37.8838208933  TIP3      17426           0.0000000000
    103793     18786  TIP3      H2             -2.2526177684      -18.5283778548      -38.4780133168  TIP3      17426           0.0000000000
    103794     18787  TIP3      OH2            12.0622542396       -4.0615800153      -35.8102774583  TIP3      17427           0.0000000000
    103795     18787  TIP3      H1             12.7369398964       -4.3949439725      -36.4259212895  TIP3      17427           0.0000000000
    103796     18787  TIP3      H2             12.5745904272       -3.5835054256      -35.1530292085  TIP3      17427           0.0000000000
    103797     18788  TIP3      OH2            -2.7216050457      -20.3765877762      -29.4482645027  TIP3      17428           0.0000000000
    103798     18788  TIP3      H1             -3.3906920458      -20.5676248315      -28.7686736627  TIP3      17428           0.0000000000
    103799     18788  TIP3      H2             -3.1764602566      -19.7056117052      -29.9943878579  TIP3      17428           0.0000000000
    103800     18789  TIP3      OH2            -0.4924065290       -7.1613298281      -25.2575463761  TIP3      17429           0.0000000000
    103801     18789  TIP3      H1             -1.3272161555       -6.9581297224      -25.7117379858  TIP3      17429           0.0000000000
    103802     18789  TIP3      H2             -0.7614620091       -7.2463520213      -24.3377859401  TIP3      17429           0.0000000000
    103803     18790  TIP3      OH2             2.4239407373       -6.1780684752      -28.9944130121  TIP3      17430           0.0000000000
    103804     18790  TIP3      H1              2.0729907773       -5.3199520321      -29.2774299187  TIP3      17430           0.0000000000
    103805     18790  TIP3      H2              3.3333953840       -6.0722690912      -29.3292814788  TIP3      17430           0.0000000000
    103806     18791  TIP3      OH2             6.7515665309       -4.7846779540      -26.1622161370  TIP3      17431           0.0000000000
    103807     18791  TIP3      H1              6.8573316357       -5.0713786636      -25.2089565796  TIP3      17431           0.0000000000
    103808     18791  TIP3      H2              7.6420907288       -4.4165874072      -26.3304962394  TIP3      17431           0.0000000000
    103809     18792  TIP3      OH2             9.0208957853       -3.5039601176      -26.7844510595  TIP3      17432           0.0000000000
    103810     18792  TIP3      H1              9.7769798989       -4.0495756456      -27.0423066092  TIP3      17432           0.0000000000
    103811     18792  TIP3      H2              9.3975316397       -3.0599152110      -25.9930986093  TIP3      17432           0.0000000000
    103812     18793  TIP3      OH2            14.0395063257      -20.8640950180      -27.7098621961  TIP3      17433           0.0000000000
    103813     18793  TIP3      H1             13.2069976727      -20.5653566154      -28.1105536459  TIP3      17433           0.0000000000
    103814     18793  TIP3      H2             14.2089193347      -21.6863964014      -28.2206443228  TIP3      17433           0.0000000000
    103815     18794  TIP3      OH2            -0.1535084771       -2.9332810647      -29.0135316968  TIP3      17434           0.0000000000
    103816     18794  TIP3      H1             -0.8882720528       -2.4364909058      -29.4142740053  TIP3      17434           0.0000000000
    103817     18794  TIP3      H2             -0.4731603755       -3.1200881106      -28.1174755385  TIP3      17434           0.0000000000
    103818     18795  TIP3      OH2             2.3096291486       -3.3589288471      -29.9405539568  TIP3      17435           0.0000000000
    103819     18795  TIP3      H1              1.4184438414       -3.2074146041      -29.5485871322  TIP3      17435           0.0000000000
    103820     18795  TIP3      H2              2.2525951679       -2.7642954906      -30.7127807874  TIP3      17435           0.0000000000
    103821     18796  TIP3      OH2             7.0066665847       -3.4570114900      -30.7352502284  TIP3      17436           0.0000000000
    103822     18796  TIP3      H1              6.5626944743       -2.9219134342      -31.4261236060  TIP3      17436           0.0000000000
    103823     18796  TIP3      H2              7.1439141501       -2.7796708397      -30.0414696042  TIP3      17436           0.0000000000
    103824     18797  TIP3      OH2             9.2873078866       -4.6477251099      -29.7480326880  TIP3      17437           0.0000000000
    103825     18797  TIP3      H1              8.4456146333       -4.3308338447      -30.1219053375  TIP3      17437           0.0000000000
    103826     18797  TIP3      H2              9.7849424059       -3.8065032977      -29.8401211991  TIP3      17437           0.0000000000
    103827     18798  TIP3      OH2            11.8874931375       -3.0601152118      -29.5176350027  TIP3      17438           0.0000000000
    103828     18798  TIP3      H1             11.8072927348       -2.1040104407      -29.7421806961  TIP3      17438           0.0000000000
    103829     18798  TIP3      H2             12.0897741212       -3.4367465614      -30.3955550924  TIP3      17438           0.0000000000
    103830     18799  TIP3      OH2            -0.7146374829       -4.2804480365      -32.0759896488  TIP3      17439           0.0000000000
    103831     18799  TIP3      H1             -0.7855035175       -4.7332824548      -31.2083486178  TIP3      17439           0.0000000000
    103832     18799  TIP3      H2              0.1020394808       -4.6556586662      -32.4657224138  TIP3      17439           0.0000000000
    103833     18800  TIP3      OH2             1.3502408048       -5.5660059404      -33.4032798524  TIP3      17440           0.0000000000
    103834     18800  TIP3      H1              1.2197192328       -6.5078230171      -33.1967397230  TIP3      17440           0.0000000000
    103835     18800  TIP3      H2              2.2326208339       -5.4091855607      -32.9890654508  TIP3      17440           0.0000000000
    103836     18801  TIP3      OH2             3.9069102366       -5.1001539718      -32.5330137108  TIP3      17441           0.0000000000
    103837     18801  TIP3      H1              4.1442319140       -5.9859209964      -32.8452961525  TIP3      17441           0.0000000000
    103838     18801  TIP3      H2              4.0318913577       -5.1462725897      -31.5812511426  TIP3      17441           0.0000000000
    103839     18802  TIP3      OH2             7.4465280369      -19.4441979941      -33.3912443395  TIP3      17442           0.0000000000
    103840     18802  TIP3      H1              6.7435736394      -20.0645778303      -33.1359480359  TIP3      17442           0.0000000000
    103841     18802  TIP3      H2              7.9722904187      -19.9582196181      -34.0099449747  TIP3      17442           0.0000000000
    103842     18803  TIP3      OH2            12.5488911119      -21.4105391726      -33.3532342776  TIP3      17443           0.0000000000
    103843     18803  TIP3      H1             13.1803653441      -20.8047586787      -33.8316189815  TIP3      17443           0.0000000000
    103844     18803  TIP3      H2             11.6868151471      -20.9998828927      -33.5772025655  TIP3      17443           0.0000000000
    103845     18804  TIP3      OH2            14.2364577894      -20.1445407424      -35.0623322894  TIP3      17444           0.0000000000
    103846     18804  TIP3      H1             14.9212753721      -20.7169275863      -35.4821570371  TIP3      17444           0.0000000000
    103847     18804  TIP3      H2             14.7391875761      -19.3040621667      -34.9593928036  TIP3      17444           0.0000000000
    103848     18805  TIP3      OH2            -0.1991540323      -20.8081384231      -35.5617788357  TIP3      17445           0.0000000000
    103849     18805  TIP3      H1             -0.9953614567      -21.0095484487      -36.0896183600  TIP3      17445           0.0000000000
    103850     18805  TIP3      H2              0.2635760029      -21.6659371100      -35.6149606308  TIP3      17445           0.0000000000
    103851     18806  TIP3      OH2            -1.4590971192      -21.0485718242      -39.8735646862  TIP3      17446           0.0000000000
    103852     18806  TIP3      H1             -0.9394068337      -20.3974676147      -40.3818480634  TIP3      17446           0.0000000000
    103853     18806  TIP3      H2             -1.9907073210      -20.4840078234      -39.2830419251  TIP3      17446           0.0000000000
    103854     18807  TIP3      OH2             4.2866871215      -20.8949740151      -35.7733641583  TIP3      17447           0.0000000000
    103855     18807  TIP3      H1              5.1810158057      -20.5227144133      -35.8395781777  TIP3      17447           0.0000000000
    103856     18807  TIP3      H2              4.2383602350      -21.1010931696      -34.8414850959  TIP3      17447           0.0000000000
    103857     18808  TIP3      OH2            10.0066475688      -20.8854103561      -34.1442547535  TIP3      17448           0.0000000000
    103858     18808  TIP3      H1              9.9400191802      -20.7300227228      -35.0954498315  TIP3      17448           0.0000000000
    103859     18808  TIP3      H2              9.5634387277      -21.7549762240      -34.0429658116  TIP3      17448           0.0000000000
    103860     18809  TIP3      OH2            11.2596539085      -20.8339479772      -38.4912401210  TIP3      17449           0.0000000000
    103861     18809  TIP3      H1             10.5124805553      -20.2374652110      -38.6434072288  TIP3      17449           0.0000000000
    103862     18809  TIP3      H2             10.8280828059      -21.6843214480      -38.2470631308  TIP3      17449           0.0000000000
    103863     18810  TIP3      OH2            -1.5119628773       -5.0997350098      -38.8378696503  TIP3      17450           0.0000000000
    103864     18810  TIP3      H1             -2.1894958398       -5.1050124052      -39.5425487226  TIP3      17450           0.0000000000
    103865     18810  TIP3      H2             -1.4900862521       -4.1510360247      -38.6617179926  TIP3      17450           0.0000000000
    103866     18811  TIP3      OH2             0.3778918895      -19.1641959055      -41.3016887984  TIP3      17451           0.0000000000
    103867     18811  TIP3      H1              0.9406653013      -19.7195939489      -41.8456574244  TIP3      17451           0.0000000000
    103868     18811  TIP3      H2              1.0451415908      -18.7683599171      -40.7087514782  TIP3      17451           0.0000000000
    103869     18812  TIP3      OH2             5.4324489542      -18.8609996850      -38.9189725772  TIP3      17452           0.0000000000
    103870     18812  TIP3      H1              5.6838546747      -19.4434802554      -38.1839431142  TIP3      17452           0.0000000000
    103871     18812  TIP3      H2              5.4919125035      -18.0005089748      -38.4461974054  TIP3      17452           0.0000000000
    103872     18813  TIP3      OH2             7.3038247245       -3.7302707708      -40.5833803316  TIP3      17453           0.0000000000
    103873     18813  TIP3      H1              8.2667107787       -3.5883953274      -40.6572536231  TIP3      17453           0.0000000000
    103874     18813  TIP3      H2              7.1545262511       -4.3533144708      -41.3198089041  TIP3      17453           0.0000000000
    103875     18814  TIP3      OH2            14.0778119510       -4.2758160420      -37.7571886186  TIP3      17454           0.0000000000
    103876     18814  TIP3      H1             13.8631935536       -5.0595861192      -38.3265478396  TIP3      17454           0.0000000000
    103877     18814  TIP3      H2             13.9717335166       -3.5510570888      -38.4011379870  TIP3      17454           0.0000000000
    103878     18815  TIP3      OH2            -0.3227587062      -20.2656657320      -26.1055772927  TIP3      17455           0.0000000000
    103879     18815  TIP3      H1             -0.6933946028      -21.0679821360      -25.6896706169  TIP3      17455           0.0000000000
    103880     18815  TIP3      H2              0.5950477895      -20.3111813846      -25.7463921807  TIP3      17455           0.0000000000
    103881     18816  TIP3      OH2             1.6896894432      -20.9083615953      -24.5062528646  TIP3      17456           0.0000000000
    103882     18816  TIP3      H1              2.5879817343      -21.2290198875      -24.6851553746  TIP3      17456           0.0000000000
    103883     18816  TIP3      H2              1.3242740488      -21.6777027555      -24.0323214661  TIP3      17456           0.0000000000
    103884     18817  TIP3      OH2             0.3143674010       -4.1065146271      -41.8654863317  TIP3      17457           0.0000000000
    103885     18817  TIP3      H1              0.0201061061       -3.8517723847      -40.9865822240  TIP3      17457           0.0000000000
    103886     18817  TIP3      H2              1.0523277266       -4.6979286094      -41.6945011966  TIP3      17457           0.0000000000
    103887     18818  TIP3      OH2            10.1043213692      -21.5731980462      -24.3458902239  TIP3      17458           0.0000000000
    103888     18818  TIP3      H1             10.1691741367      -22.0777323010      -23.5254456842  TIP3      17458           0.0000000000
    103889     18818  TIP3      H2             11.0223145310      -21.6161841376      -24.6750430523  TIP3      17458           0.0000000000
    103890     18819  TIP3      OH2            13.2944489902       -5.5542114252      -25.6738830816  TIP3      17459           0.0000000000
    103891     18819  TIP3      H1             12.4892299116       -5.6827134667      -26.2115814401  TIP3      17459           0.0000000000
    103892     18819  TIP3      H2             13.2074359893       -4.6057364396      -25.4540197239  TIP3      17459           0.0000000000
    103893     18820  TIP3      OH2            27.7406542506      -11.6721900145      -35.7048614319  TIP3      17460           0.0000000000
    103894     18820  TIP3      H1             27.7355535496      -10.6906322448      -35.7417696107  TIP3      17460           0.0000000000
    103895     18820  TIP3      H2             27.0150866048      -11.9062287883      -36.3051362889  TIP3      17460           0.0000000000
    103896     18821  TIP3      OH2            26.6206145954      -12.4154974339      -32.1921633117  TIP3      17461           0.0000000000
    103897     18821  TIP3      H1             26.5758099665      -13.0707162555      -31.4948715804  TIP3      17461           0.0000000000
    103898     18821  TIP3      H2             26.2728172122      -12.9123996806      -32.9486648173  TIP3      17461           0.0000000000
    103899     18822  TIP3      OH2            18.9536731067      -12.7480221309      -30.6379345577  TIP3      17462           0.0000000000
    103900     18822  TIP3      H1             19.0447757032      -13.4275412239      -29.9380405767  TIP3      17462           0.0000000000
    103901     18822  TIP3      H2             19.7027724737      -12.1662924137      -30.4447193847  TIP3      17462           0.0000000000
    103902     18823  TIP3      OH2            30.2909966021       -9.4661686589      -33.9180979330  TIP3      17463           0.0000000000
    103903     18823  TIP3      H1             29.8724439534      -10.1812102176      -33.4295965566  TIP3      17463           0.0000000000
    103904     18823  TIP3      H2             30.3106621434       -8.7559927795      -33.2498804549  TIP3      17463           0.0000000000
    103905     18824  TIP3      OH2            19.8836999377       -8.2888816351      -32.1175121721  TIP3      17464           0.0000000000
    103906     18824  TIP3      H1             19.5726936254       -9.1490803024      -32.4776338471  TIP3      17464           0.0000000000
    103907     18824  TIP3      H2             20.8403808297       -8.4748818111      -32.1041702479  TIP3      17464           0.0000000000
    103908     18825  TIP3      OH2            16.5023179940      -14.7553741199      -36.6426193602  TIP3      17465           0.0000000000
    103909     18825  TIP3      H1             16.1208821616      -13.8551935107      -36.7179395989  TIP3      17465           0.0000000000
    103910     18825  TIP3      H2             15.9493782196      -15.2621916071      -37.2412326725  TIP3      17465           0.0000000000
    103911     18826  TIP3      OH2            17.0381875228      -12.6500878109      -34.3597816976  TIP3      17466           0.0000000000
    103912     18826  TIP3      H1             17.5020209518      -13.4162098389      -33.9956691971  TIP3      17466           0.0000000000
    103913     18826  TIP3      H2             17.7093153368      -12.3751174798      -35.0401859648  TIP3      17466           0.0000000000
    103914     18827  TIP3      OH2            27.4124822472       -4.3079113823      -33.6785940447  TIP3      17467           0.0000000000
    103915     18827  TIP3      H1             28.0553692286       -5.0023298277      -33.9658791396  TIP3      17467           0.0000000000
    103916     18827  TIP3      H2             27.1956166681       -4.6380499243      -32.8073413883  TIP3      17467           0.0000000000
    103917     18828  TIP3      OH2            24.9752171579      -10.0134225075      -31.7344535396  TIP3      17468           0.0000000000
    103918     18828  TIP3      H1             25.3114735333      -10.6383384788      -32.3944960919  TIP3      17468           0.0000000000
    103919     18828  TIP3      H2             25.7822933914       -9.8574416645      -31.2139421933  TIP3      17468           0.0000000000
    103920     18829  TIP3      OH2            33.5745936906      -18.3544193713      -31.0004793215  TIP3      17469           0.0000000000
    103921     18829  TIP3      H1             33.7453735643      -17.7651396586      -30.2350463800  TIP3      17469           0.0000000000
    103922     18829  TIP3      H2             34.1378228702      -17.9307196108      -31.6643588129  TIP3      17469           0.0000000000
    103923     18830  TIP3      OH2            28.1426748781      -15.5456795469      -31.3997315412  TIP3      17470           0.0000000000
    103924     18830  TIP3      H1             28.3069585128      -16.5068722524      -31.4273028402  TIP3      17470           0.0000000000
    103925     18830  TIP3      H2             28.0425470819      -15.3942705823      -32.3611726330  TIP3      17470           0.0000000000
    103926     18831  TIP3      OH2            21.2590541973      -17.4548692713      -34.1992428469  TIP3      17471           0.0000000000
    103927     18831  TIP3      H1             21.3577707503      -16.6176911046      -34.6924868483  TIP3      17471           0.0000000000
    103928     18831  TIP3      H2             20.8575249742      -18.0278823194      -34.8876235677  TIP3      17471           0.0000000000
    103929     18832  TIP3      OH2            28.9937111621      -17.3776031296      -35.8276024187  TIP3      17472           0.0000000000
    103930     18832  TIP3      H1             29.6497857232      -17.6898879538      -35.1617529436  TIP3      17472           0.0000000000
    103931     18832  TIP3      H2             29.5550068487      -16.8062680080      -36.3731950292  TIP3      17472           0.0000000000
    103932     18833  TIP3      OH2            17.8679583734      -15.0896714856      -33.4449444126  TIP3      17473           0.0000000000
    103933     18833  TIP3      H1             18.5660860086      -15.6072846709      -33.0098543807  TIP3      17473           0.0000000000
    103934     18833  TIP3      H2             17.9928047859      -15.3350842760      -34.3772981872  TIP3      17473           0.0000000000
    103935     18834  TIP3      OH2            23.0309140640      -13.5070895932      -34.1347397419  TIP3      17474           0.0000000000
    103936     18834  TIP3      H1             23.7109625479      -14.0860318418      -33.7505047746  TIP3      17474           0.0000000000
    103937     18834  TIP3      H2             22.5104923494      -14.1477380094      -34.6563899111  TIP3      17474           0.0000000000
    103938     18835  TIP3      OH2            34.0350604825      -16.9527235648      -28.7211871243  TIP3      17475           0.0000000000
    103939     18835  TIP3      H1             33.4124233736      -16.2036503550      -28.8657922932  TIP3      17475           0.0000000000
    103940     18835  TIP3      H2             34.0506409525      -17.0267403234      -27.7590113153  TIP3      17475           0.0000000000
    103941     18836  TIP3      OH2            20.1623996090      -18.5578930381      -30.1583647384  TIP3      17476           0.0000000000
    103942     18836  TIP3      H1             19.8825190751      -17.9886718908      -30.9062949327  TIP3      17476           0.0000000000
    103943     18836  TIP3      H2             19.4840059029      -18.3271516599      -29.4782672528  TIP3      17476           0.0000000000
    103944     18837  TIP3      OH2            27.4571302697       -9.0739792304      -36.6136001464  TIP3      17477           0.0000000000
    103945     18837  TIP3      H1             27.1789213556       -9.3614297478      -37.4934204171  TIP3      17477           0.0000000000
    103946     18837  TIP3      H2             27.1472067837       -8.1428433145      -36.5622693091  TIP3      17477           0.0000000000
    103947     18838  TIP3      OH2            22.6835771725      -10.9142511854      -29.9124617307  TIP3      17478           0.0000000000
    103948     18838  TIP3      H1             21.9728273809      -10.2705809760      -29.7056342423  TIP3      17478           0.0000000000
    103949     18838  TIP3      H2             23.3864222467      -10.3161018587      -30.2075673604  TIP3      17478           0.0000000000
    103950     18839  TIP3      OH2            30.8004181065      -18.0323238058      -33.8423085183  TIP3      17479           0.0000000000
    103951     18839  TIP3      H1             30.5862057279      -18.8015075742      -33.3066757980  TIP3      17479           0.0000000000
    103952     18839  TIP3      H2             31.4759121544      -17.5942844837      -33.2985465928  TIP3      17479           0.0000000000
    103953     18840  TIP3      OH2            19.7301932354      -16.7019873290      -32.1290378110  TIP3      17480           0.0000000000
    103954     18840  TIP3      H1             20.3616980328      -16.0196841955      -31.8101107982  TIP3      17480           0.0000000000
    103955     18840  TIP3      H2             20.2484878112      -17.1156732644      -32.8637070601  TIP3      17480           0.0000000000
    103956     18841  TIP3      OH2            21.1236564873       -8.9019586613      -29.0956301884  TIP3      17481           0.0000000000
    103957     18841  TIP3      H1             21.0697809337       -7.9899547734      -29.4386227961  TIP3      17481           0.0000000000
    103958     18841  TIP3      H2             20.2407217924       -8.9767955044      -28.6476159280  TIP3      17481           0.0000000000
    103959     18842  TIP3      OH2            17.1364786061       -9.2759455714      -38.3362298524  TIP3      17482           0.0000000000
    103960     18842  TIP3      H1             16.9794595585       -8.9505272359      -39.2362473861  TIP3      17482           0.0000000000
    103961     18842  TIP3      H2             17.2882112415       -8.4755097849      -37.7985771333  TIP3      17482           0.0000000000
    103962     18843  TIP3      OH2            30.8165975229       -7.6290406020      -31.5502372959  TIP3      17483           0.0000000000
    103963     18843  TIP3      H1             29.8488812534       -7.5176190910      -31.4275912997  TIP3      17483           0.0000000000
    103964     18843  TIP3      H2             31.0872640860       -6.7120162932      -31.7475900373  TIP3      17483           0.0000000000
    103965     18844  TIP3      OH2            31.1321438889      -19.3425652452      -30.1546010407  TIP3      17484           0.0000000000
    103966     18844  TIP3      H1             30.4067280733      -18.7093642543      -30.2462015256  TIP3      17484           0.0000000000
    103967     18844  TIP3      H2             31.8468021214      -18.9274373344      -30.6820413802  TIP3      17484           0.0000000000
    103968     18845  TIP3      OH2            24.1091623653      -21.2242946634      -32.6941967898  TIP3      17485           0.0000000000
    103969     18845  TIP3      H1             23.9697754729      -22.1875636564      -32.7675317930  TIP3      17485           0.0000000000
    103970     18845  TIP3      H2             23.2303769805      -20.9190134143      -32.3908052039  TIP3      17485           0.0000000000
    103971     18846  TIP3      OH2            29.0770839081       -5.8441272507      -34.9594698229  TIP3      17486           0.0000000000
    103972     18846  TIP3      H1             29.5058537010       -6.5630037250      -35.4675188487  TIP3      17486           0.0000000000
    103973     18846  TIP3      H2             29.5009363672       -5.0534330083      -35.3541303226  TIP3      17486           0.0000000000
    103974     18847  TIP3      OH2            30.2854093557       -7.9177132751      -36.4454538119  TIP3      17487           0.0000000000
    103975     18847  TIP3      H1             29.9979045473       -8.6141463835      -37.0595504032  TIP3      17487           0.0000000000
    103976     18847  TIP3      H2             30.3199961799       -8.4096126594      -35.6045801583  TIP3      17487           0.0000000000
    103977     18848  TIP3      OH2            31.8833333166       -9.3477153782      -27.9456747149  TIP3      17488           0.0000000000
    103978     18848  TIP3      H1             32.0649116694       -9.9710833979      -28.6814930834  TIP3      17488           0.0000000000
    103979     18848  TIP3      H2             32.0949555346       -8.4964803462      -28.3674896113  TIP3      17488           0.0000000000
    103980     18849  TIP3      OH2            26.4016851640      -12.4411052983      -38.1854078817  TIP3      17489           0.0000000000
    103981     18849  TIP3      H1             25.7082270376      -11.8655002290      -38.5475625332  TIP3      17489           0.0000000000
    103982     18849  TIP3      H2             27.1092411635      -12.3459544799      -38.8500168916  TIP3      17489           0.0000000000
    103983     18850  TIP3      OH2            26.4696283221      -13.8865663633      -41.1337616198  TIP3      17490           0.0000000000
    103984     18850  TIP3      H1             27.1889720062      -13.8891552055      -40.4840306698  TIP3      17490           0.0000000000
    103985     18850  TIP3      H2             26.7606336939      -14.5861604542      -41.7264900989  TIP3      17490           0.0000000000
    103986     18851  TIP3      OH2            33.7923957933      -13.0096447145      -29.9063709915  TIP3      17491           0.0000000000
    103987     18851  TIP3      H1             33.1386880488      -12.2858133830      -29.8739201192  TIP3      17491           0.0000000000
    103988     18851  TIP3      H2             34.2760579216      -12.7776365858      -30.7206466335  TIP3      17491           0.0000000000
    103989     18852  TIP3      OH2            29.8549942210      -12.2063539682      -37.2487359827  TIP3      17492           0.0000000000
    103990     18852  TIP3      H1             29.0986206338      -11.9774975417      -36.6566513529  TIP3      17492           0.0000000000
    103991     18852  TIP3      H2             30.3163604593      -12.8996611945      -36.7435173439  TIP3      17492           0.0000000000
    103992     18853  TIP3      OH2            29.8077767236      -14.0307004270      -28.3060736380  TIP3      17493           0.0000000000
    103993     18853  TIP3      H1             29.9537198304      -13.1690668203      -27.8886372670  TIP3      17493           0.0000000000
    103994     18853  TIP3      H2             29.1538613512      -13.7677655363      -29.0008575338  TIP3      17493           0.0000000000
    103995     18854  TIP3      OH2            21.6346828415      -11.5354523559      -35.3448734295  TIP3      17494           0.0000000000
    103996     18854  TIP3      H1             21.0921038276      -11.8907578346      -36.0897291303  TIP3      17494           0.0000000000
    103997     18854  TIP3      H2             22.0977901171      -12.3196385541      -35.0011594585  TIP3      17494           0.0000000000
    103998     18855  TIP3      OH2            22.7743722979       -8.1795247995      -32.6718802114  TIP3      17495           0.0000000000
    103999     18855  TIP3      H1             22.7553531414       -8.7165666133      -33.4772477468  TIP3      17495           0.0000000000
    104000     18855  TIP3      H2             23.5604510316       -8.5350604680      -32.2133768728  TIP3      17495           0.0000000000
    104001     18856  TIP3      OH2            21.8255462951      -12.8422221211      -31.6566674540  TIP3      17496           0.0000000000
    104002     18856  TIP3      H1             22.3240357956      -12.7044217554      -32.4894963007  TIP3      17496           0.0000000000
    104003     18856  TIP3      H2             22.1847235158      -12.1435570150      -31.0709646686  TIP3      17496           0.0000000000
    104004     18857  TIP3      OH2            28.2000418261       -7.2438119663      -30.9727590337  TIP3      17497           0.0000000000
    104005     18857  TIP3      H1             27.9112872011       -6.6059556342      -30.3186366225  TIP3      17497           0.0000000000
    104006     18857  TIP3      H2             27.9435845380       -8.0984564645      -30.5539432997  TIP3      17497           0.0000000000
    104007     18858  TIP3      OH2            22.7321100873       -8.3864782543      -26.9544367238  TIP3      17498           0.0000000000
    104008     18858  TIP3      H1             22.3163241499       -7.6117087396      -26.5217829495  TIP3      17498           0.0000000000
    104009     18858  TIP3      H2             22.0810532854       -8.5861996556      -27.6748841548  TIP3      17498           0.0000000000
    104010     18859  TIP3      OH2            28.7244499688      -13.0376588168      -39.5844430427  TIP3      17499           0.0000000000
    104011     18859  TIP3      H1             29.2809480423      -12.8511803266      -38.7869254092  TIP3      17499           0.0000000000
    104012     18859  TIP3      H2             29.1409699302      -12.5165725621      -40.3032800554  TIP3      17499           0.0000000000
    104013     18860  TIP3      OH2            19.6782475048      -12.2292158061      -27.8094002136  TIP3      17500           0.0000000000
    104014     18860  TIP3      H1             19.7193373802      -11.5659228424      -27.0917654668  TIP3      17500           0.0000000000
    104015     18860  TIP3      H2             18.7496953999      -12.1240781082      -28.0702485339  TIP3      17500           0.0000000000
    104016     18861  TIP3      OH2            26.4375540230       -6.2982983380      -36.1269717333  TIP3      17501           0.0000000000
    104017     18861  TIP3      H1             26.8714112535       -5.9931114027      -35.3223777462  TIP3      17501           0.0000000000
    104018     18861  TIP3      H2             25.8773619763       -5.5503682022      -36.3621664696  TIP3      17501           0.0000000000
    104019     18862  TIP3      OH2            20.9944522239       -6.3931942951      -26.2476910062  TIP3      17502           0.0000000000
    104020     18862  TIP3      H1             20.9258626271       -6.4548660687      -27.2157089685  TIP3      17502           0.0000000000
    104021     18862  TIP3      H2             20.0474166480       -6.4381348318      -25.9854096976  TIP3      17502           0.0000000000
    104022     18863  TIP3      OH2            32.4467554047      -21.2888417122      -39.6783921872  TIP3      17503           0.0000000000
    104023     18863  TIP3      H1             31.4870547808      -21.1858426049      -39.4598206498  TIP3      17503           0.0000000000
    104024     18863  TIP3      H2             32.6494623479      -20.4449660457      -40.1152318803  TIP3      17503           0.0000000000
    104025     18864  TIP3      OH2            20.6289847272      -12.6746495391      -38.1107591813  TIP3      17504           0.0000000000
    104026     18864  TIP3      H1             20.1955785549      -11.7898174657      -38.1675059880  TIP3      17504           0.0000000000
    104027     18864  TIP3      H2             19.8186092336      -13.1454981887      -37.8821200760  TIP3      17504           0.0000000000
    104028     18865  TIP3      OH2            33.5416737334       -6.9430157972      -41.2564951514  TIP3      17505           0.0000000000
    104029     18865  TIP3      H1             33.6852853120       -5.9822947625      -41.2176687003  TIP3      17505           0.0000000000
    104030     18865  TIP3      H2             34.4541872770       -7.2373478445      -41.4326347678  TIP3      17505           0.0000000000
    104031     18866  TIP3      OH2            16.5144330750      -10.1144934178      -28.8397454995  TIP3      17506           0.0000000000
    104032     18866  TIP3      H1             16.0677320108      -10.1946977137      -29.6998726888  TIP3      17506           0.0000000000
    104033     18866  TIP3      H2             16.5969595976      -11.0638014170      -28.6330430290  TIP3      17506           0.0000000000
    104034     18867  TIP3      OH2            16.2854105553       -7.3815927440      -32.0594855635  TIP3      17507           0.0000000000
    104035     18867  TIP3      H1             17.2433558420       -7.5046780171      -32.0900208170  TIP3      17507           0.0000000000
    104036     18867  TIP3      H2             16.2025080966       -6.5621851193      -31.5493376120  TIP3      17507           0.0000000000
    104037     18868  TIP3      OH2            34.5259895004       -6.6682382946      -26.3953466978  TIP3      17508           0.0000000000
    104038     18868  TIP3      H1             34.4070491935       -7.6275399314      -26.3889061278  TIP3      17508           0.0000000000
    104039     18868  TIP3      H2             33.6665984355       -6.4220387685      -25.9695451700  TIP3      17508           0.0000000000
    104040     18869  TIP3      OH2            25.4764796006       -7.1318923874      -27.5103851786  TIP3      17509           0.0000000000
    104041     18869  TIP3      H1             25.5402884289       -6.2886396457      -26.9988769680  TIP3      17509           0.0000000000
    104042     18869  TIP3      H2             24.6026126669       -7.4872021383      -27.2606668119  TIP3      17509           0.0000000000
    104043     18870  TIP3      OH2            25.9131758487       -3.3820967248      -37.7201466728  TIP3      17510           0.0000000000
    104044     18870  TIP3      H1             25.8182153036       -3.4576615635      -38.6828502221  TIP3      17510           0.0000000000
    104045     18870  TIP3      H2             25.9385752999       -2.4210434732      -37.5613475284  TIP3      17510           0.0000000000
    104046     18871  TIP3      OH2            19.5572489946       -4.5084009158      -35.8928532099  TIP3      17511           0.0000000000
    104047     18871  TIP3      H1             19.7033782509       -4.9227519668      -35.0114636607  TIP3      17511           0.0000000000
    104048     18871  TIP3      H2             18.7069236079       -4.9175051836      -36.1297058819  TIP3      17511           0.0000000000
    104049     18872  TIP3      OH2            28.9238048472       -4.1995634217      -40.7591498746  TIP3      17512           0.0000000000
    104050     18872  TIP3      H1             29.4299053877       -4.9358075951      -41.1732707359  TIP3      17512           0.0000000000
    104051     18872  TIP3      H2             29.0112667769       -4.4397982500      -39.8163536107  TIP3      17512           0.0000000000
    104052     18873  TIP3      OH2            28.6585106552       -4.2400245063      -37.9511445301  TIP3      17513           0.0000000000
    104053     18873  TIP3      H1             27.7026628501       -4.1716076818      -37.7612499205  TIP3      17513           0.0000000000
    104054     18873  TIP3      H2             28.9081477398       -4.9848934436      -37.3850417139  TIP3      17513           0.0000000000
    104055     18874  TIP3      OH2            31.5191990724      -15.2321520626      -25.8705534623  TIP3      17514           0.0000000000
    104056     18874  TIP3      H1             31.2856399087      -14.7578423794      -26.6750709460  TIP3      17514           0.0000000000
    104057     18874  TIP3      H2             31.6916085557      -16.1247023825      -26.2243099942  TIP3      17514           0.0000000000
    104058     18875  TIP3      OH2            18.8111659270       -8.8116837979      -27.8924168918  TIP3      17515           0.0000000000
    104059     18875  TIP3      H1             19.0236450164       -9.1631236428      -27.0021803506  TIP3      17515           0.0000000000
    104060     18875  TIP3      H2             17.9349810741       -9.1931749518      -28.1032643144  TIP3      17515           0.0000000000
    104061     18876  TIP3      OH2            21.4827927188      -20.3245342510      -31.9418889276  TIP3      17516           0.0000000000
    104062     18876  TIP3      H1             20.5794924987      -20.4454831158      -32.3117542777  TIP3      17516           0.0000000000
    104063     18876  TIP3      H2             21.3549857208      -19.4901909939      -31.4617355764  TIP3      17516           0.0000000000
    104064     18877  TIP3      OH2            26.1227746685      -20.6450434998      -28.5867312500  TIP3      17517           0.0000000000
    104065     18877  TIP3      H1             26.5136955105      -21.0621965761      -27.7993564498  TIP3      17517           0.0000000000
    104066     18877  TIP3      H2             25.1529608658      -20.7771152081      -28.4433570715  TIP3      17517           0.0000000000
    104067     18878  TIP3      OH2            29.4449801450      -16.7807542810      -27.6286500862  TIP3      17518           0.0000000000
    104068     18878  TIP3      H1             28.8238486176      -17.0458194966      -26.9088257316  TIP3      17518           0.0000000000
    104069     18878  TIP3      H2             29.2023942889      -15.9208905952      -27.9835142111  TIP3      17518           0.0000000000
    104070     18879  TIP3      OH2            30.1759277611      -12.0166356895      -41.8900693612  TIP3      17519           0.0000000000
    104071     18879  TIP3      H1             30.1918302612      -12.1909803671      -42.8436491787  TIP3      17519           0.0000000000
    104072     18879  TIP3      H2             31.0140658102      -11.5539833000      -41.7381499372  TIP3      17519           0.0000000000
    104073     18880  TIP3      OH2            25.7590633356      -18.0834331629      -41.2387318236  TIP3      17520           0.0000000000
    104074     18880  TIP3      H1             25.4443368847      -18.1251691892      -40.3177493851  TIP3      17520           0.0000000000
    104075     18880  TIP3      H2             25.4876931774      -18.9603139446      -41.5251617628  TIP3      17520           0.0000000000
    104076     18881  TIP3      OH2            21.5850873615      -15.3466201549      -30.7014755694  TIP3      17521           0.0000000000
    104077     18881  TIP3      H1             20.8522342341      -15.3640967494      -30.0578155812  TIP3      17521           0.0000000000
    104078     18881  TIP3      H2             21.5253659276      -14.4365586739      -31.0692505796  TIP3      17521           0.0000000000
    104079     18882  TIP3      OH2            21.5575805662      -15.2672486018      -35.8204865469  TIP3      17522           0.0000000000
    104080     18882  TIP3      H1             20.6098204692      -15.4589568965      -35.9676279149  TIP3      17522           0.0000000000
    104081     18882  TIP3      H2             21.9261699228      -15.5135144915      -36.6907976598  TIP3      17522           0.0000000000
    104082     18883  TIP3      OH2            27.0611229232      -14.7295402971      -37.0533772753  TIP3      17523           0.0000000000
    104083     18883  TIP3      H1             26.6435164279      -13.9032932073      -37.3965144057  TIP3      17523           0.0000000000
    104084     18883  TIP3      H2             27.7454649543      -14.8897877366      -37.7304271710  TIP3      17523           0.0000000000
    104085     18884  TIP3      OH2            26.2154434365      -14.5591375933      -25.6896652713  TIP3      17524           0.0000000000
    104086     18884  TIP3      H1             25.5787639249      -15.2482299400      -25.3448747545  TIP3      17524           0.0000000000
    104087     18884  TIP3      H2             26.9087402009      -14.6676239090      -25.0364120664  TIP3      17524           0.0000000000
    104088     18885  TIP3      OH2            28.0985016888      -15.2399554696      -34.2133691542  TIP3      17525           0.0000000000
    104089     18885  TIP3      H1             27.8216057159      -14.6778071571      -34.9562569942  TIP3      17525           0.0000000000
    104090     18885  TIP3      H2             28.1991537637      -16.0899190448      -34.6833316284  TIP3      17525           0.0000000000
    104091     18886  TIP3      OH2            19.2110639395      -15.0916589085      -29.0025355935  TIP3      17526           0.0000000000
    104092     18886  TIP3      H1             19.2848937093      -14.6887812967      -28.1189113402  TIP3      17526           0.0000000000
    104093     18886  TIP3      H2             18.7675568842      -15.9311126159      -28.7999020806  TIP3      17526           0.0000000000
    104094     18887  TIP3      OH2            22.5870050888      -17.7507322660      -42.1796280380  TIP3      17527           0.0000000000
    104095     18887  TIP3      H1             22.1370422605      -18.1232369301      -41.4035838908  TIP3      17527           0.0000000000
    104096     18887  TIP3      H2             21.8936940471      -17.2844904664      -42.6612290681  TIP3      17527           0.0000000000
    104097     18888  TIP3      OH2            15.8643171890      -17.9849667284      -35.0332435665  TIP3      17528           0.0000000000
    104098     18888  TIP3      H1             16.5442682335      -18.0201668053      -34.3280729554  TIP3      17528           0.0000000000
    104099     18888  TIP3      H2             16.3231256998      -18.3505277041      -35.8073385556  TIP3      17528           0.0000000000
    104100     18889  TIP3      OH2            17.1352220469      -17.2678520660      -39.6513696486  TIP3      17529           0.0000000000
    104101     18889  TIP3      H1             17.6472357689      -16.6716490905      -40.2361466640  TIP3      17529           0.0000000000
    104102     18889  TIP3      H2             16.4557828203      -16.6335698224      -39.3350861569  TIP3      17529           0.0000000000
    104103     18890  TIP3      OH2            27.3873814018      -13.6770436567      -29.5681669818  TIP3      17530           0.0000000000
    104104     18890  TIP3      H1             27.6607251946      -14.3202523126      -30.2605488197  TIP3      17530           0.0000000000
    104105     18890  TIP3      H2             26.7783281887      -14.2064582444      -29.0229975808  TIP3      17530           0.0000000000
    104106     18891  TIP3      OH2            24.1056117150      -17.6788035639      -34.8237462858  TIP3      17531           0.0000000000
    104107     18891  TIP3      H1             23.1709704214      -17.6720612046      -34.5322074344  TIP3      17531           0.0000000000
    104108     18891  TIP3      H2             24.5856198628      -17.8404076303      -33.9986812580  TIP3      17531           0.0000000000
    104109     18892  TIP3      OH2            18.9089853579      -16.1423663258      -35.9291590068  TIP3      17532           0.0000000000
    104110     18892  TIP3      H1             18.0420057619      -15.9466390652      -36.3414009006  TIP3      17532           0.0000000000
    104111     18892  TIP3      H2             19.1912442710      -16.9604495328      -36.3710154857  TIP3      17532           0.0000000000
    104112     18893  TIP3      OH2            22.5464905897      -16.0638905508      -38.3104591199  TIP3      17533           0.0000000000
    104113     18893  TIP3      H1             23.5067371865      -15.9704724008      -38.1681099234  TIP3      17533           0.0000000000
    104114     18893  TIP3      H2             22.3122444660      -15.4082031579      -38.9955578597  TIP3      17533           0.0000000000
    104115     18894  TIP3      OH2            28.5090532672      -18.4484121774      -31.5821104621  TIP3      17534           0.0000000000
    104116     18894  TIP3      H1             27.8224674415      -18.3875957690      -30.8805067003  TIP3      17534           0.0000000000
    104117     18894  TIP3      H2             27.9984544563      -18.6935644137      -32.3671445258  TIP3      17534           0.0000000000
    104118     18895  TIP3      OH2            21.2735510730      -14.9066802764      -40.7102461004  TIP3      17535           0.0000000000
    104119     18895  TIP3      H1             20.7160656707      -15.2487581310      -41.4317035939  TIP3      17535           0.0000000000
    104120     18895  TIP3      H2             22.0731928261      -14.6768688580      -41.2110492323  TIP3      17535           0.0000000000
    104121     18896  TIP3      OH2            31.6853746185       -2.7831675646      -25.2273106633  TIP3      17536           0.0000000000
    104122     18896  TIP3      H1             31.9817319881       -2.4346664193      -26.0917785191  TIP3      17536           0.0000000000
    104123     18896  TIP3      H2             32.4300929334       -2.4964586258      -24.6805077150  TIP3      17536           0.0000000000
    104124     18897  TIP3      OH2            19.4049217988      -10.3468175504      -25.6845847835  TIP3      17537           0.0000000000
    104125     18897  TIP3      H1             20.0946399542      -10.0869682095      -25.0607720357  TIP3      17537           0.0000000000
    104126     18897  TIP3      H2             18.6056551163      -10.2007888082      -25.1208384959  TIP3      17537           0.0000000000
    104127     18898  TIP3      OH2            25.3883664458      -14.9205907377      -32.9254376628  TIP3      17538           0.0000000000
    104128     18898  TIP3      H1             25.9825932417      -15.4574518740      -33.4641084252  TIP3      17538           0.0000000000
    104129     18898  TIP3      H2             25.2392447412      -15.4722030578      -32.1462491294  TIP3      17538           0.0000000000
    104130     18899  TIP3      OH2            20.3955650277      -18.7770098207      -36.4925461384  TIP3      17539           0.0000000000
    104131     18899  TIP3      H1             20.0871542947      -19.7011353885      -36.5051085904  TIP3      17539           0.0000000000
    104132     18899  TIP3      H2             21.1859526453      -18.8387373721      -37.0424943065  TIP3      17539           0.0000000000
    104133     18900  TIP3      OH2            24.0187463194      -16.5974424632      -30.5159150547  TIP3      17540           0.0000000000
    104134     18900  TIP3      H1             23.1955388270      -16.0771669848      -30.4270883148  TIP3      17540           0.0000000000
    104135     18900  TIP3      H2             24.5695937921      -16.2497171972      -29.7961377717  TIP3      17540           0.0000000000
    104136     18901  TIP3      OH2            24.6049207441      -10.3612461005      -38.8273716560  TIP3      17541           0.0000000000
    104137     18901  TIP3      H1             23.8005211253      -10.8436540723      -39.1370219246  TIP3      17541           0.0000000000
    104138     18901  TIP3      H2             24.3848345410      -10.2551341901      -37.8791654663  TIP3      17541           0.0000000000
    104139     18902  TIP3      OH2            31.7776944903      -11.1819372752      -30.0040745144  TIP3      17542           0.0000000000
    104140     18902  TIP3      H1             32.3545971622      -10.6998948597      -30.6260120324  TIP3      17542           0.0000000000
    104141     18902  TIP3      H2             30.9352684985      -11.1132687933      -30.4959095490  TIP3      17542           0.0000000000
    104142     18903  TIP3      OH2            28.4455241467      -17.5857247142      -40.5994340410  TIP3      17543           0.0000000000
    104143     18903  TIP3      H1             27.5095295550      -17.4264573242      -40.8074463655  TIP3      17543           0.0000000000
    104144     18903  TIP3      H2             28.7731753000      -16.7056224731      -40.3292407040  TIP3      17543           0.0000000000
    104145     18904  TIP3      OH2            26.1344567285      -10.1185014460      -27.5587104222  TIP3      17544           0.0000000000
    104146     18904  TIP3      H1             25.7332198689      -10.5197672159      -26.7828227195  TIP3      17544           0.0000000000
    104147     18904  TIP3      H2             25.8530373771       -9.1952329274      -27.4949470292  TIP3      17544           0.0000000000
    104148     18905  TIP3      OH2            29.1836222529      -15.6353619699      -38.9676344919  TIP3      17545           0.0000000000
    104149     18905  TIP3      H1             30.0760905432      -15.7750482316      -38.5958171996  TIP3      17545           0.0000000000
    104150     18905  TIP3      H2             29.2706780602      -14.8246678444      -39.4928140132  TIP3      17545           0.0000000000
    104151     18906  TIP3      OH2            19.7743078643      -10.9601789622      -32.9467914381  TIP3      17546           0.0000000000
    104152     18906  TIP3      H1             20.3467903586      -11.0519137660      -33.7379826483  TIP3      17546           0.0000000000
    104153     18906  TIP3      H2             19.7692338526      -11.8581433592      -32.5901018923  TIP3      17546           0.0000000000
    104154     18907  TIP3      OH2            26.6996157991       -8.8978653344      -39.7619910741  TIP3      17547           0.0000000000
    104155     18907  TIP3      H1             26.3546027331       -8.0502584739      -39.4035652409  TIP3      17547           0.0000000000
    104156     18907  TIP3      H2             25.9611490246       -9.5148262279      -39.5486421016  TIP3      17547           0.0000000000
    104157     18908  TIP3      OH2            16.6966390698      -12.5680623749      -27.7456026698  TIP3      17548           0.0000000000
    104158     18908  TIP3      H1             16.9060754504      -13.0150110101      -26.9030336497  TIP3      17548           0.0000000000
    104159     18908  TIP3      H2             16.0855371439      -13.1929259124      -28.1688168327  TIP3      17548           0.0000000000
    104160     18909  TIP3      OH2            23.7385877896      -12.9988237370      -25.5837925922  TIP3      17549           0.0000000000
    104161     18909  TIP3      H1             23.3939224989      -13.3138955335      -26.4350430212  TIP3      17549           0.0000000000
    104162     18909  TIP3      H2             24.6426343860      -13.3436062755      -25.5778293399  TIP3      17549           0.0000000000
    104163     18910  TIP3      OH2            28.4040839969       -7.6790906793      -27.6317708325  TIP3      17550           0.0000000000
    104164     18910  TIP3      H1             27.4784817391       -7.5018194137      -27.8702420237  TIP3      17550           0.0000000000
    104165     18910  TIP3      H2             28.3693511531       -7.3974094376      -26.7039636707  TIP3      17550           0.0000000000
    104166     18911  TIP3      OH2            34.0702020573      -15.4938156154      -39.2247818720  TIP3      17551           0.0000000000
    104167     18911  TIP3      H1             33.5046218125      -15.7942529990      -39.9642866470  TIP3      17551           0.0000000000
    104168     18911  TIP3      H2             34.1503664589      -14.5553079099      -39.5023008363  TIP3      17551           0.0000000000
    104169     18912  TIP3      OH2            34.0785646543       -9.6703531992      -26.4294146485  TIP3      17552           0.0000000000
    104170     18912  TIP3      H1             33.1893736305       -9.4190031440      -26.7845012668  TIP3      17552           0.0000000000
    104171     18912  TIP3      H2             34.6242703793       -9.6651543857      -27.2417083695  TIP3      17552           0.0000000000
    104172     18913  TIP3      OH2            32.3691260805       -6.6744163347      -38.8248893891  TIP3      17553           0.0000000000
    104173     18913  TIP3      H1             31.9978218747       -7.5013634311      -38.5063729435  TIP3      17553           0.0000000000
    104174     18913  TIP3      H2             32.6690239039       -6.8602913957      -39.7426129137  TIP3      17553           0.0000000000
    104175     18914  TIP3      OH2            29.5651834879      -11.8695445486      -31.7052915474  TIP3      17554           0.0000000000
    104176     18914  TIP3      H1             28.6264887086      -12.0589052610      -31.8622333603  TIP3      17554           0.0000000000
    104177     18914  TIP3      H2             30.0041518586      -12.6063592510      -32.1717300905  TIP3      17554           0.0000000000
    104178     18915  TIP3      OH2            22.1030801641       -7.5095091309      -35.6175011411  TIP3      17555           0.0000000000
    104179     18915  TIP3      H1             22.5931819425       -6.7028061770      -35.8447927276  TIP3      17555           0.0000000000
    104180     18915  TIP3      H2             21.2169175827       -7.3155875707      -35.9605231417  TIP3      17555           0.0000000000
    104181     18916  TIP3      OH2            17.8130414749      -12.6517787450      -41.1734589548  TIP3      17556           0.0000000000
    104182     18916  TIP3      H1             18.4438125973      -12.0683597842      -40.6942654849  TIP3      17556           0.0000000000
    104183     18916  TIP3      H2             16.9803721212      -12.3821119486      -40.7472518611  TIP3      17556           0.0000000000
    104184     18917  TIP3      OH2            23.5392824769       -9.8395061862      -36.1080516254  TIP3      17557           0.0000000000
    104185     18917  TIP3      H1             23.1841496838       -8.9346666204      -36.0265156945  TIP3      17557           0.0000000000
    104186     18917  TIP3      H2             22.7990610060      -10.3551949872      -35.6977094871  TIP3      17557           0.0000000000
    104187     18918  TIP3      OH2            23.9667116055       -5.6760186236      -29.7073615366  TIP3      17558           0.0000000000
    104188     18918  TIP3      H1             24.4177842972       -4.8655055000      -29.9907066864  TIP3      17558           0.0000000000
    104189     18918  TIP3      H2             24.5778595496       -6.0125585156      -29.0281967959  TIP3      17558           0.0000000000
    104190     18919  TIP3      OH2            22.1864939668       -4.8691163949      -36.5723756296  TIP3      17559           0.0000000000
    104191     18919  TIP3      H1             21.2215086447       -4.7380922495      -36.4421224826  TIP3      17559           0.0000000000
    104192     18919  TIP3      H2             22.5456390181       -4.0258311723      -36.2384636142  TIP3      17559           0.0000000000
    104193     18920  TIP3      OH2            27.4866366908       -9.6749161343      -30.0888184166  TIP3      17560           0.0000000000
    104194     18920  TIP3      H1             27.1501013016       -9.8608836217      -29.1892481392  TIP3      17560           0.0000000000
    104195     18920  TIP3      H2             28.1295192083      -10.3789806117      -30.2610528540  TIP3      17560           0.0000000000
    104196     18921  TIP3      OH2            29.7776031372       -8.6270179419      -40.9791560976  TIP3      17561           0.0000000000
    104197     18921  TIP3      H1             30.1097426263       -9.0799293270      -40.1818148983  TIP3      17561           0.0000000000
    104198     18921  TIP3      H2             28.8272896748       -8.7909413308      -40.8922458984  TIP3      17561           0.0000000000
    104199     18922  TIP3      OH2            30.2828439188       -5.0782652693      -27.5725314881  TIP3      17562           0.0000000000
    104200     18922  TIP3      H1             29.6124282752       -5.5883666338      -28.0657732230  TIP3      17562           0.0000000000
    104201     18922  TIP3      H2             30.4861850892       -4.3959941064      -28.2480662046  TIP3      17562           0.0000000000
    104202     18923  TIP3      OH2            34.2611080338       -4.2054467124      -40.8001443490  TIP3      17563           0.0000000000
    104203     18923  TIP3      H1             35.0030244615       -3.5882051176      -40.9248410935  TIP3      17563           0.0000000000
    104204     18923  TIP3      H2             33.5595150747       -3.6134218966      -40.4576983240  TIP3      17563           0.0000000000
    104205     18924  TIP3      OH2            18.3643449022      -17.8310830566      -28.1945758529  TIP3      17564           0.0000000000
    104206     18924  TIP3      H1             17.4535007583      -17.4906033078      -28.2373140873  TIP3      17564           0.0000000000
    104207     18924  TIP3      H2             18.2473970993      -18.6876819966      -27.7535747058  TIP3      17564           0.0000000000
    104208     18925  TIP3      OH2            30.5968941073       -9.9746776348      -38.7461906979  TIP3      17565           0.0000000000
    104209     18925  TIP3      H1             30.3556490709      -10.7622919957      -38.2141815311  TIP3      17565           0.0000000000
    104210     18925  TIP3      H2             31.5501754075       -9.9209261398      -38.5592124355  TIP3      17565           0.0000000000
    104211     18926  TIP3      OH2            17.9782082636       -6.0430712451      -29.7698118093  TIP3      17566           0.0000000000
    104212     18926  TIP3      H1             18.2812361260       -6.9656512486      -29.7651946194  TIP3      17566           0.0000000000
    104213     18926  TIP3      H2             18.2159225912       -5.7556069908      -28.8732792693  TIP3      17566           0.0000000000
    104214     18927  TIP3      OH2            23.9458974118       -7.5642522799      -42.5312758998  TIP3      17567           0.0000000000
    104215     18927  TIP3      H1             24.0898422642       -8.3284354363      -43.0873103268  TIP3      17567           0.0000000000
    104216     18927  TIP3      H2             23.5096446736       -7.9308316018      -41.7326030336  TIP3      17567           0.0000000000
    104217     18928  TIP3      OH2            22.7340327151       -7.9990290895      -40.0609463144  TIP3      17568           0.0000000000
    104218     18928  TIP3      H1             22.9638222093       -8.5218368225      -39.2827860816  TIP3      17568           0.0000000000
    104219     18928  TIP3      H2             22.8029089765       -7.0671941453      -39.7493055670  TIP3      17568           0.0000000000
    104220     18929  TIP3      OH2            19.1956292912      -10.7340796541      -39.6662283518  TIP3      17569           0.0000000000
    104221     18929  TIP3      H1             18.5841689635      -10.3877027647      -38.9785950060  TIP3      17569           0.0000000000
    104222     18929  TIP3      H2             19.7789104631       -9.9761560870      -39.8132351127  TIP3      17569           0.0000000000
    104223     18930  TIP3      OH2            27.0922283471      -18.0373193563      -29.2280847313  TIP3      17570           0.0000000000
    104224     18930  TIP3      H1             27.8204029366      -18.0302734782      -28.6073862942  TIP3      17570           0.0000000000
    104225     18930  TIP3      H2             26.7096061415      -18.9242408511      -29.0597134595  TIP3      17570           0.0000000000
    104226     18931  TIP3      OH2            27.8257692981      -18.4818228845      -38.1394387559  TIP3      17571           0.0000000000
    104227     18931  TIP3      H1             28.0761528401      -18.0291052567      -38.9735477349  TIP3      17571           0.0000000000
    104228     18931  TIP3      H2             28.4217504834      -18.0512964001      -37.5169244423  TIP3      17571           0.0000000000
    104229     18932  TIP3      OH2            25.5276260548       -6.3352731998      -39.3724180314  TIP3      17572           0.0000000000
    104230     18932  TIP3      H1             24.7094860894       -5.8116984206      -39.2680229276  TIP3      17572           0.0000000000
    104231     18932  TIP3      H2             26.0495771532       -5.7946370584      -39.9799615551  TIP3      17572           0.0000000000
    104232     18933  TIP3      OH2            25.0667332920      -16.7419807260      -37.3337011233  TIP3      17573           0.0000000000
    104233     18933  TIP3      H1             25.8545610669      -16.1657248631      -37.3006366425  TIP3      17573           0.0000000000
    104234     18933  TIP3      H2             24.8082106420      -16.8598977514      -36.4015970634  TIP3      17573           0.0000000000
    104235     18934  TIP3      OH2            25.6785956244      -15.6808446976      -28.1793295127  TIP3      17574           0.0000000000
    104236     18934  TIP3      H1             25.6655553208      -15.1813023118      -27.3417755899  TIP3      17574           0.0000000000
    104237     18934  TIP3      H2             26.2446874186      -16.4559503448      -28.0614043615  TIP3      17574           0.0000000000
    104238     18935  TIP3      OH2            25.9234279747      -19.6854724904      -36.4539917626  TIP3      17575           0.0000000000
    104239     18935  TIP3      H1             25.5985930991      -19.0334468837      -35.8067150634  TIP3      17575           0.0000000000
    104240     18935  TIP3      H2             26.6114950488      -19.1382218376      -36.9081082299  TIP3      17575           0.0000000000
    104241     18936  TIP3      OH2            22.9026785849       -5.2994610007      -39.3047878312  TIP3      17576           0.0000000000
    104242     18936  TIP3      H1             23.0507398556       -4.4815568103      -39.8328067602  TIP3      17576           0.0000000000
    104243     18936  TIP3      H2             22.6483026240       -4.9402653780      -38.4317355514  TIP3      17576           0.0000000000
    104244     18937  TIP3      OH2            21.5761832735      -18.5944679942      -39.7103865372  TIP3      17577           0.0000000000
    104245     18937  TIP3      H1             21.5271600011      -17.6744976552      -39.3852517646  TIP3      17577           0.0000000000
    104246     18937  TIP3      H2             22.4905272489      -18.8338067691      -39.4661485299  TIP3      17577           0.0000000000
    104247     18938  TIP3      OH2            31.8093074135      -17.8289433661      -27.2690049033  TIP3      17578           0.0000000000
    104248     18938  TIP3      H1             30.8748417110      -17.5549173310      -27.4351790008  TIP3      17578           0.0000000000
    104249     18938  TIP3      H2             32.1157693633      -17.8767332979      -28.1949659779  TIP3      17578           0.0000000000
    104250     18939  TIP3      OH2            30.4130528881      -14.0614616353      -33.2937759969  TIP3      17579           0.0000000000
    104251     18939  TIP3      H1             29.5920187834      -14.5073601015      -33.5783126209  TIP3      17579           0.0000000000
    104252     18939  TIP3      H2             30.8873823226      -14.7488880779      -32.7731081278  TIP3      17579           0.0000000000
    104253     18940  TIP3      OH2            19.8299034065       -8.1236185818      -40.7117051824  TIP3      17580           0.0000000000
    104254     18940  TIP3      H1             20.4810931811       -7.4969032331      -40.3880749209  TIP3      17580           0.0000000000
    104255     18940  TIP3      H2             20.3333633543       -8.5993570281      -41.4003724017  TIP3      17580           0.0000000000
    104256     18941  TIP3      OH2            18.1889759369      -15.4714483241      -41.5125930653  TIP3      17581           0.0000000000
    104257     18941  TIP3      H1             18.1850742147      -14.5034721616      -41.3838318165  TIP3      17581           0.0000000000
    104258     18941  TIP3      H2             17.3193953669      -15.6538609306      -41.8670259286  TIP3      17581           0.0000000000
    104259     18942  TIP3      OH2            31.4713123155       -4.8053250524      -31.6221967567  TIP3      17582           0.0000000000
    104260     18942  TIP3      H1             31.3833138996       -4.1224124937      -32.3137814138  TIP3      17582           0.0000000000
    104261     18942  TIP3      H2             32.4360762545       -4.7512278869      -31.4467189043  TIP3      17582           0.0000000000
    104262     18943  TIP3      OH2            18.9725954371      -20.6821527082      -32.8201443774  TIP3      17583           0.0000000000
    104263     18943  TIP3      H1             18.7711327574      -20.6599470702      -33.7820180266  TIP3      17583           0.0000000000
    104264     18943  TIP3      H2             18.5517859094      -21.5301267365      -32.5668404455  TIP3      17583           0.0000000000
    104265     18944  TIP3      OH2            17.9355216547       -6.7236907430      -36.6579056012  TIP3      17584           0.0000000000
    104266     18944  TIP3      H1             17.0638225628       -6.3166014445      -36.7229381881  TIP3      17584           0.0000000000
    104267     18944  TIP3      H2             18.4050292502       -6.3009029564      -37.3834296757  TIP3      17584           0.0000000000
    104268     18945  TIP3      OH2            17.6583506646       -4.6321220596      -26.0805538573  TIP3      17585           0.0000000000
    104269     18945  TIP3      H1             17.8832364747       -4.3501642225      -25.1507228235  TIP3      17585           0.0000000000
    104270     18945  TIP3      H2             16.7902778426       -4.9421215438      -25.7601483386  TIP3      17585           0.0000000000
    104271     18946  TIP3      OH2            21.8340669127       -5.2045423834      -23.8085985090  TIP3      17586           0.0000000000
    104272     18946  TIP3      H1             22.5979637565       -5.6710021728      -23.4746460551  TIP3      17586           0.0000000000
    104273     18946  TIP3      H2             21.7541584485       -5.4642185185      -24.7390850526  TIP3      17586           0.0000000000
    104274     18947  TIP3      OH2            25.9154977094       -5.6867650939      -42.3961031027  TIP3      17587           0.0000000000
    104275     18947  TIP3      H1             25.2099070576       -6.3306566309      -42.1734720220  TIP3      17587           0.0000000000
    104276     18947  TIP3      H2             26.6513677798       -6.2712315605      -42.5968488265  TIP3      17587           0.0000000000
    104277     18948  TIP3      OH2            28.2921408851       -6.7792159593      -24.9834193871  TIP3      17588           0.0000000000
    104278     18948  TIP3      H1             28.0059720741       -7.7030018713      -24.8177262248  TIP3      17588           0.0000000000
    104279     18948  TIP3      H2             29.1324199092       -6.7445215556      -24.5099011503  TIP3      17588           0.0000000000
    104280     18949  TIP3      OH2            30.5049687468       -5.9030334903      -42.1585508616  TIP3      17589           0.0000000000
    104281     18949  TIP3      H1             30.7628817711       -6.7258495214      -41.7071394149  TIP3      17589           0.0000000000
    104282     18949  TIP3      H2             31.2739404353       -5.7336900667      -42.7045653706  TIP3      17589           0.0000000000
    104283     18950  TIP3      OH2            17.0829081059      -10.3256071272      -24.4612520096  TIP3      17590           0.0000000000
    104284     18950  TIP3      H1             17.2151544644      -11.2583658976      -24.6897939636  TIP3      17590           0.0000000000
    104285     18950  TIP3      H2             16.2995922473      -10.0723837416      -24.9752676239  TIP3      17590           0.0000000000
    104286     18951  TIP3      OH2            21.4183354122       -9.9952325086      -42.3270937336  TIP3      17591           0.0000000000
    104287     18951  TIP3      H1             21.5239582040      -10.7694113774      -41.7566144866  TIP3      17591           0.0000000000
    104288     18951  TIP3      H2             22.0769223636      -10.1473600631      -43.0040928911  TIP3      17591           0.0000000000
    104289     18952  TIP3      OH2            23.8068351041      -10.3401521357      -25.0134317431  TIP3      17592           0.0000000000
    104290     18952  TIP3      H1             23.4305780314      -10.0333393293      -25.8609552927  TIP3      17592           0.0000000000
    104291     18952  TIP3      H2             23.8154891980      -11.3241398961      -25.1204684734  TIP3      17592           0.0000000000
    104292     18953  TIP3      OH2            26.7533016488       -8.9129178124      -42.5803946333  TIP3      17593           0.0000000000
    104293     18953  TIP3      H1             26.5402233464       -8.7729419060      -41.6399345898  TIP3      17593           0.0000000000
    104294     18953  TIP3      H2             26.6009445070       -9.8611768022      -42.6925763918  TIP3      17593           0.0000000000
    104295     18954  TIP3      OH2            29.4488627867      -10.5043012893      -27.5895814557  TIP3      17594           0.0000000000
    104296     18954  TIP3      H1             30.2346483425       -9.9118229506      -27.6890622792  TIP3      17594           0.0000000000
    104297     18954  TIP3      H2             28.7588715560       -9.8190832623      -27.5875256030  TIP3      17594           0.0000000000
    104298     18955  TIP3      OH2            17.9653462040      -13.1063577170      -24.9926141481  TIP3      17595           0.0000000000
    104299     18955  TIP3      H1             18.3668010079      -13.9748935587      -25.0992852544  TIP3      17595           0.0000000000
    104300     18955  TIP3      H2             17.6858196560      -13.1050367368      -24.0650889867  TIP3      17595           0.0000000000
    104301     18956  TIP3      OH2            22.6413599765      -11.9760942008      -39.9436990984  TIP3      17596           0.0000000000
    104302     18956  TIP3      H1             22.0694043358      -12.4833247322      -39.3165109032  TIP3      17596           0.0000000000
    104303     18956  TIP3      H2             22.8966789487      -12.6689537362      -40.6015850309  TIP3      17596           0.0000000000
    104304     18957  TIP3      OH2            21.8622961993      -14.1582378724      -27.6561316698  TIP3      17597           0.0000000000
    104305     18957  TIP3      H1             21.2672981711      -13.4363103549      -27.3892803202  TIP3      17597           0.0000000000
    104306     18957  TIP3      H2             22.2515818392      -13.7948019661      -28.4692272879  TIP3      17597           0.0000000000
    104307     18958  TIP3      OH2            23.6789897440      -13.6819293012      -41.7462131644  TIP3      17598           0.0000000000
    104308     18958  TIP3      H1             23.5350900917      -13.9257265628      -42.6709759858  TIP3      17598           0.0000000000
    104309     18958  TIP3      H2             24.6543268950      -13.6957633918      -41.6470784529  TIP3      17598           0.0000000000
    104310     18959  TIP3      OH2            26.9359465478      -11.6199790779      -24.3189844313  TIP3      17599           0.0000000000
    104311     18959  TIP3      H1             27.8998490749      -11.5724172632      -24.3722907734  TIP3      17599           0.0000000000
    104312     18959  TIP3      H2             26.7529719300      -12.3642277700      -23.7230479211  TIP3      17599           0.0000000000
    104313     18960  TIP3      OH2            33.0091339958      -11.4014145146      -42.3064749856  TIP3      17600           0.0000000000
    104314     18960  TIP3      H1             32.7787737074      -11.8101283458      -43.1436962934  TIP3      17600           0.0000000000
    104315     18960  TIP3      H2             33.1048860411      -10.4653952044      -42.5344867151  TIP3      17600           0.0000000000
    104316     18961  TIP3      OH2            22.2633107370      -16.7793329790      -26.5774529739  TIP3      17601           0.0000000000
    104317     18961  TIP3      H1             22.3749594511      -17.4948468223      -27.2267827298  TIP3      17601           0.0000000000
    104318     18961  TIP3      H2             22.2181936022      -15.9763238232      -27.1370513845  TIP3      17601           0.0000000000
    104319     18962  TIP3      OH2            22.6693502349      -18.4060419040      -29.0465965726  TIP3      17602           0.0000000000
    104320     18962  TIP3      H1             23.1781293861      -17.9412133036      -29.7527579845  TIP3      17602           0.0000000000
    104321     18962  TIP3      H2             21.7767359359      -18.4862915772      -29.4547692010  TIP3      17602           0.0000000000
    104322     18963  TIP3      OH2            24.2412760870      -12.9046073550      -28.7672400002  TIP3      17603           0.0000000000
    104323     18963  TIP3      H1             24.9462221015      -13.0810742784      -29.3943644766  TIP3      17603           0.0000000000
    104324     18963  TIP3      H2             23.8324572972      -12.0977659124      -29.1326006841  TIP3      17603           0.0000000000
    104325     18964  TIP3      OH2            28.6217336195      -15.1506533998      -23.8692003177  TIP3      17604           0.0000000000
    104326     18964  TIP3      H1             28.8357860527      -16.0922175938      -23.9664313829  TIP3      17604           0.0000000000
    104327     18964  TIP3      H2             29.4900884003      -14.7117943554      -23.7913366151  TIP3      17604           0.0000000000
    104328     18965  TIP3      OH2            29.9924755019      -12.3229324319      -25.6914900063  TIP3      17605           0.0000000000
    104329     18965  TIP3      H1             29.7574331382      -11.5498182971      -26.2657158811  TIP3      17605           0.0000000000
    104330     18965  TIP3      H2             30.9708911619      -12.3182263551      -25.8446537721  TIP3      17605           0.0000000000
    104331     18966  TIP3      OH2            20.7563350616      -15.5703236905      -24.6766196290  TIP3      17606           0.0000000000
    104332     18966  TIP3      H1             19.9645761784      -16.1082789442      -24.8631685025  TIP3      17606           0.0000000000
    104333     18966  TIP3      H2             21.3979542547      -15.9157834154      -25.3201255014  TIP3      17606           0.0000000000
    104334     18967  TIP3      OH2            23.4495171905      -20.9767848133      -28.6295661483  TIP3      17607           0.0000000000
    104335     18967  TIP3      H1             23.2862440134      -20.0119257206      -28.7487719045  TIP3      17607           0.0000000000
    104336     18967  TIP3      H2             22.7075589325      -21.3347226628      -29.1530204124  TIP3      17607           0.0000000000
    104337     18968  TIP3      OH2            24.7436918504      -16.6603290462      -25.0432933970  TIP3      17608           0.0000000000
    104338     18968  TIP3      H1             24.4055350649      -16.8643277200      -24.1485958009  TIP3      17608           0.0000000000
    104339     18968  TIP3      H2             23.9331352432      -16.8314546031      -25.5694632577  TIP3      17608           0.0000000000
    104340     18969  TIP3      OH2            27.4611531746      -17.4322929743      -25.9030439413  TIP3      17609           0.0000000000
    104341     18969  TIP3      H1             26.4860887902      -17.4517969211      -25.8439461909  TIP3      17609           0.0000000000
    104342     18969  TIP3      H2             27.6932012067      -18.1627814769      -25.3039988233  TIP3      17609           0.0000000000
    104343     18970  TIP3      OH2            29.1124578300      -18.8250833511      -23.9159296588  TIP3      17610           0.0000000000
    104344     18970  TIP3      H1             28.9608847236      -19.7910321853      -24.0777870570  TIP3      17610           0.0000000000
    104345     18970  TIP3      H2             28.6299519753      -18.6614276005      -23.1093197315  TIP3      17610           0.0000000000
    104346     18971  TIP3      OH2            18.8468267651      -17.5935415388      -24.9225009704  TIP3      17611           0.0000000000
    104347     18971  TIP3      H1             19.0626204292      -18.3246584903      -25.5341054667  TIP3      17611           0.0000000000
    104348     18971  TIP3      H2             18.7194368146      -18.0815735463      -24.0862693671  TIP3      17611           0.0000000000
    104349     18972  TIP3      OH2            23.6710229178      -21.5873550022      -25.9499254816  TIP3      17612           0.0000000000
    104350     18972  TIP3      H1             24.3498712055      -22.2926452830      -25.9691552968  TIP3      17612           0.0000000000
    104351     18972  TIP3      H2             23.5637447167      -21.4324720065      -26.9082127744  TIP3      17612           0.0000000000
    104352     18973  TIP3      OH2            24.0541016382      -19.9646455460      -23.8553182588  TIP3      17613           0.0000000000
    104353     18973  TIP3      H1             23.8787797845      -20.4762489187      -24.6792843197  TIP3      17613           0.0000000000
    104354     18973  TIP3      H2             23.4424723971      -19.2105984357      -23.9587050543  TIP3      17613           0.0000000000
    104355     18974  TIP3      OH2            23.5147207349       -3.0083076721      -40.6621903480  TIP3      17614           0.0000000000
    104356     18974  TIP3      H1             24.4892401808       -2.9689216015      -40.6207050996  TIP3      17614           0.0000000000
    104357     18974  TIP3      H2             23.3315210794       -2.4255542469      -41.3970072476  TIP3      17614           0.0000000000
    104358     18975  TIP3      OH2            17.0982491379       -8.4481500262      -41.1919939112  TIP3      17615           0.0000000000
    104359     18975  TIP3      H1             18.0521928298       -8.3816373175      -40.9520406604  TIP3      17615           0.0000000000
    104360     18975  TIP3      H2             17.1524412899       -9.0652934998      -41.9293414625  TIP3      17615           0.0000000000
    104361     18976  TIP3      OH2            15.8177803016       -3.0737401216      -36.2007315450  TIP3      17616           0.0000000000
    104362     18976  TIP3      H1             15.1334787621       -3.5744220506      -36.7086995146  TIP3      17616           0.0000000000
    104363     18976  TIP3      H2             16.1288565997       -3.7675541919      -35.5884764598  TIP3      17616           0.0000000000
    104364     18977  TIP3      OH2            16.6333757232       -4.9274523418      -34.3538918059  TIP3      17617           0.0000000000
    104365     18977  TIP3      H1             16.3202521237       -5.8303366013      -34.1836333375  TIP3      17617           0.0000000000
    104366     18977  TIP3      H2             16.9136915673       -4.6491143782      -33.4648054601  TIP3      17617           0.0000000000
    104367     18978  TIP3      OH2            34.1583165696       -4.1537519060      -31.4370870977  TIP3      17618           0.0000000000
    104368     18978  TIP3      H1             34.2028888973       -4.0052169653      -30.4761975279  TIP3      17618           0.0000000000
    104369     18978  TIP3      H2             34.8853656982       -3.5896546036      -31.7331981845  TIP3      17618           0.0000000000
    104370     18979  TIP3      OH2            33.8226020840       -4.5616795937      -28.4905008366  TIP3      17619           0.0000000000
    104371     18979  TIP3      H1             33.3046751364       -5.3152019502      -28.8518759813  TIP3      17619           0.0000000000
    104372     18979  TIP3      H2             34.2612211031       -5.0289770704      -27.7622992451  TIP3      17619           0.0000000000
    104373     18980  TIP3      OH2            32.2234070287       -8.8581209432      -23.8337408421  TIP3      17620           0.0000000000
    104374     18980  TIP3      H1             31.3454730157       -8.8747697928      -23.4277053251  TIP3      17620           0.0000000000
    104375     18980  TIP3      H2             32.5990518896       -8.0524850878      -23.4162854020  TIP3      17620           0.0000000000
    104376     18981  TIP3      OH2            33.5344766520      -10.5201821686      -38.3826253262  TIP3      17621           0.0000000000
    104377     18981  TIP3      H1             34.3940487340      -10.1174486835      -38.1877840460  TIP3      17621           0.0000000000
    104378     18981  TIP3      H2             33.5164562022      -11.2352523539      -37.7092116862  TIP3      17621           0.0000000000
    104379     18982  TIP3      OH2            33.8921702776      -12.4368251267      -36.4914312378  TIP3      17622           0.0000000000
    104380     18982  TIP3      H1             33.1420915201      -12.9468826999      -36.1094701115  TIP3      17622           0.0000000000
    104381     18982  TIP3      H2             34.4875648101      -12.3045548056      -35.7282468805  TIP3      17622           0.0000000000
    104382     18983  TIP3      OH2            33.6487226722       -9.7427279388      -31.5094203214  TIP3      17623           0.0000000000
    104383     18983  TIP3      H1             34.4658987028      -10.1151868108      -31.8848833282  TIP3      17623           0.0000000000
    104384     18983  TIP3      H2             33.7922607702       -8.7874875111      -31.6782051214  TIP3      17623           0.0000000000
    104385     18984  TIP3      OH2            32.2091753938       -6.8399370346      -29.2448275294  TIP3      17624           0.0000000000
    104386     18984  TIP3      H1             31.5206251051       -6.4994471316      -28.6506174308  TIP3      17624           0.0000000000
    104387     18984  TIP3      H2             31.6588171395       -7.2369529673      -29.9548598229  TIP3      17624           0.0000000000
    104388     18985  TIP3      OH2            34.1941607227      -12.5998408212      -40.1212489663  TIP3      17625           0.0000000000
    104389     18985  TIP3      H1             33.6210556833      -12.2511561677      -40.8335902371  TIP3      17625           0.0000000000
    104390     18985  TIP3      H2             34.0985362889      -11.9036836924      -39.4452251343  TIP3      17625           0.0000000000
    104391     18986  TIP3      OH2            32.5280634330      -15.3971790703      -41.5380390511  TIP3      17626           0.0000000000
    104392     18986  TIP3      H1             32.6325050196      -14.7387253803      -42.2342943538  TIP3      17626           0.0000000000
    104393     18986  TIP3      H2             32.3782637272      -16.2130883578      -42.0606064359  TIP3      17626           0.0000000000
    104394     18987  TIP3      OH2            31.7119889840      -13.9629645101      -35.9248048747  TIP3      17627           0.0000000000
    104395     18987  TIP3      H1             31.5638778238      -14.9186435384      -35.9624317334  TIP3      17627           0.0000000000
    104396     18987  TIP3      H2             31.3757639895      -13.7432746218      -35.0379996538  TIP3      17627           0.0000000000
    104397     18988  TIP3      OH2            16.7163851287      -11.8627268906      -31.8422322163  TIP3      17628           0.0000000000
    104398     18988  TIP3      H1             16.8778913917      -11.9645780408      -32.8169993281  TIP3      17628           0.0000000000
    104399     18988  TIP3      H2             17.6194198281      -12.0473579577      -31.5220171944  TIP3      17628           0.0000000000
    104400     18989  TIP3      OH2            32.5551554130      -11.9950615500      -26.2102558543  TIP3      17629           0.0000000000
    104401     18989  TIP3      H1             33.1897427831      -12.7375762426      -26.1039756029  TIP3      17629           0.0000000000
    104402     18989  TIP3      H2             33.1551155963      -11.2157158886      -26.2427884711  TIP3      17629           0.0000000000
    104403     18990  TIP3      OH2            34.0619495277      -14.1025029248      -25.5849306916  TIP3      17630           0.0000000000
    104404     18990  TIP3      H1             33.1981522117      -14.5036460437      -25.7695208343  TIP3      17630           0.0000000000
    104405     18990  TIP3      H2             34.6456759609      -14.8734147842      -25.6935035749  TIP3      17630           0.0000000000
    104406     18991  TIP3      OH2            31.7915330184      -17.8883416333      -42.4068234103  TIP3      17631           0.0000000000
    104407     18991  TIP3      H1             32.3937342797      -18.3734236814      -41.8046244128  TIP3      17631           0.0000000000
    104408     18991  TIP3      H2             30.9363204593      -18.3305133462      -42.2847583858  TIP3      17631           0.0000000000
    104409     18992  TIP3      OH2            31.3783400953      -16.3829873859      -37.4469952462  TIP3      17632           0.0000000000
    104410     18992  TIP3      H1             31.6789452633      -17.3151599900      -37.3338848477  TIP3      17632           0.0000000000
    104411     18992  TIP3      H2             32.1662244035      -15.9843828539      -37.8404571235  TIP3      17632           0.0000000000
    104412     18993  TIP3      OH2            32.0228691029      -15.8441468058      -32.0279332179  TIP3      17633           0.0000000000
    104413     18993  TIP3      H1             32.9814211924      -15.6039548079      -32.0427482156  TIP3      17633           0.0000000000
    104414     18993  TIP3      H2             31.8339028604      -15.7023265380      -31.0916526701  TIP3      17633           0.0000000000
    104415     18994  TIP3      OH2            32.0909608033      -15.1133500841      -29.2195846766  TIP3      17634           0.0000000000
    104416     18994  TIP3      H1             31.1933785969      -14.8188775193      -28.9659173151  TIP3      17634           0.0000000000
    104417     18994  TIP3      H2             32.5339720560      -14.2672502006      -29.4809926357  TIP3      17634           0.0000000000
    104418     18995  TIP3      OH2            16.3303706433      -16.6115107020      -25.7602088334  TIP3      17635           0.0000000000
    104419     18995  TIP3      H1             17.2590616035      -16.7828002654      -25.5217053837  TIP3      17635           0.0000000000
    104420     18995  TIP3      H2             15.8729575390      -17.4005017628      -25.4003490024  TIP3      17635           0.0000000000
    104421     18996  TIP3      OH2            34.3129397018      -21.0487675472      -23.9133060708  TIP3      17636           0.0000000000
    104422     18996  TIP3      H1             34.6871676467      -21.7373199412      -24.4963104129  TIP3      17636           0.0000000000
    104423     18996  TIP3      H2             34.4857289210      -20.2614541062      -24.4569811941  TIP3      17636           0.0000000000
    104424     18997  TIP3      OH2            32.0421323586      -19.1028045452      -37.4198609689  TIP3      17637           0.0000000000
    104425     18997  TIP3      H1             32.2571176089      -19.5390993431      -36.5667929122  TIP3      17637           0.0000000000
    104426     18997  TIP3      H2             31.4394441947      -19.7356732847      -37.8648410254  TIP3      17637           0.0000000000
    104427     18998  TIP3      OH2            17.5356472458      -18.3097476731      -32.8546334980  TIP3      17638           0.0000000000
    104428     18998  TIP3      H1             18.0045290613      -19.1270531338      -32.5952890379  TIP3      17638           0.0000000000
    104429     18998  TIP3      H2             18.0755112480      -17.6052227557      -32.4708753332  TIP3      17638           0.0000000000
    104430     18999  TIP3      OH2            15.8177790968      -15.2880156275      -31.8228640047  TIP3      17639           0.0000000000
    104431     18999  TIP3      H1             16.3817622700      -15.5218495928      -32.5910352101  TIP3      17639           0.0000000000
    104432     18999  TIP3      H2             16.2760530778      -14.4794689326      -31.5531103495  TIP3      17639           0.0000000000
    104433     19000  TIP3      OH2            33.8599437706      -18.9655702458      -25.4849777732  TIP3      17640           0.0000000000
    104434     19000  TIP3      H1             32.9420825221      -18.6826193470      -25.6457455595  TIP3      17640           0.0000000000
    104435     19000  TIP3      H2             33.9506017329      -19.4748135988      -26.3146952213  TIP3      17640           0.0000000000
    104436     19001  TIP3      OH2            33.8684163839      -19.0425810323      -40.8814644117  TIP3      17641           0.0000000000
    104437     19001  TIP3      H1             34.3056866948      -19.7643441578      -41.3552704538  TIP3      17641           0.0000000000
    104438     19001  TIP3      H2             34.5828409441      -18.3879552818      -40.8208000656  TIP3      17641           0.0000000000
    104439     19002  TIP3      OH2            16.1721805823      -19.0503056098      -37.7692267083  TIP3      17642           0.0000000000
    104440     19002  TIP3      H1             15.2366949938      -18.8331968289      -37.8873332719  TIP3      17642           0.0000000000
    104441     19002  TIP3      H2             16.6003979690      -18.5337264689      -38.4720175470  TIP3      17642           0.0000000000
    104442     19003  TIP3      OH2            30.9224557460       -4.0793485993      -35.8094974933  TIP3      17643           0.0000000000
    104443     19003  TIP3      H1             31.6089121131       -4.3847760241      -36.4249114038  TIP3      17643           0.0000000000
    104444     19003  TIP3      H2             31.4351934542       -3.5811229922      -35.1538784115  TIP3      17643           0.0000000000
    104445     19004  TIP3      OH2            16.1353412192      -20.3657646549      -29.4523032488  TIP3      17644           0.0000000000
    104446     19004  TIP3      H1             15.4632967698      -20.5631607476      -28.7738262939  TIP3      17644           0.0000000000
    104447     19004  TIP3      H2             15.6748368978      -19.6961094251      -29.9963282440  TIP3      17644           0.0000000000
    104448     19005  TIP3      OH2            18.3553764365       -7.2373716009      -25.2769498226  TIP3      17645           0.0000000000
    104449     19005  TIP3      H1             17.5494912254       -6.8913238308      -25.7015386346  TIP3      17645           0.0000000000
    104450     19005  TIP3      H2             18.0908852604       -7.2234276501      -24.3483583443  TIP3      17645           0.0000000000
    104451     19006  TIP3      OH2            21.2638795206       -6.1684898066      -29.0151022798  TIP3      17646           0.0000000000
    104452     19006  TIP3      H1             20.9252014799       -5.3047886556      -29.2838302781  TIP3      17646           0.0000000000
    104453     19006  TIP3      H2             22.1890878908       -6.0735699725      -29.3122305658  TIP3      17646           0.0000000000
    104454     19007  TIP3      OH2            25.6107158991       -4.7627361410      -26.1210798443  TIP3      17647           0.0000000000
    104455     19007  TIP3      H1             25.7494716497       -5.0625572703      -25.1981569235  TIP3      17647           0.0000000000
    104456     19007  TIP3      H2             26.4974684311       -4.4260527975      -26.3633874566  TIP3      17647           0.0000000000
    104457     19008  TIP3      OH2            27.8791501177       -3.4978822363      -26.7917506340  TIP3      17648           0.0000000000
    104458     19008  TIP3      H1             28.6161297316       -4.0682723434      -27.0582752537  TIP3      17648           0.0000000000
    104459     19008  TIP3      H2             28.2647985192       -3.0388933586      -26.0219629682  TIP3      17648           0.0000000000
    104460     19009  TIP3      OH2            32.9019992384      -20.8626772765      -27.7049753189  TIP3      17649           0.0000000000
    104461     19009  TIP3      H1             32.0630174942      -20.5718552304      -28.1051551032  TIP3      17649           0.0000000000
    104462     19009  TIP3      H2             33.0617971206      -21.6881612920      -28.2125651850  TIP3      17649           0.0000000000
    104463     19010  TIP3      OH2            18.7016422008       -2.9185635772      -29.0171352961  TIP3      17650           0.0000000000
    104464     19010  TIP3      H1             17.9543752697       -2.4449268451      -29.3897576767  TIP3      17650           0.0000000000
    104465     19010  TIP3      H2             18.3944671802       -3.1445783969      -28.1147034730  TIP3      17650           0.0000000000
    104466     19011  TIP3      OH2            21.1749420878       -3.3491813114      -29.9605765909  TIP3      17651           0.0000000000
    104467     19011  TIP3      H1             20.2853670501       -3.1990690891      -29.5585443053  TIP3      17651           0.0000000000
    104468     19011  TIP3      H2             21.1082931775       -2.7550625639      -30.7275432082  TIP3      17651           0.0000000000
    104469     19012  TIP3      OH2            25.8696715272       -3.4380215517      -30.7794720760  TIP3      17652           0.0000000000
    104470     19012  TIP3      H1             25.4064950764       -2.8816637435      -31.4229840253  TIP3      17652           0.0000000000
    104471     19012  TIP3      H2             26.0047578603       -2.8106911717      -30.0393970395  TIP3      17652           0.0000000000
    104472     19013  TIP3      OH2            28.1621459832       -4.6249168405      -29.7526571505  TIP3      17653           0.0000000000
    104473     19013  TIP3      H1             27.3023613174       -4.3549362376      -30.1140485523  TIP3      17653           0.0000000000
    104474     19013  TIP3      H2             28.6390359146       -3.7822336387      -29.8458848366  TIP3      17653           0.0000000000
    104475     19014  TIP3      OH2            30.7470444433       -3.0537555675      -29.5212531346  TIP3      17654           0.0000000000
    104476     19014  TIP3      H1             30.6812819137       -2.0960365792      -29.7540305782  TIP3      17654           0.0000000000
    104477     19014  TIP3      H2             30.9515855782       -3.4256599474      -30.4005782333  TIP3      17654           0.0000000000
    104478     19015  TIP3      OH2            18.1517416004       -4.2810264645      -32.0720813433  TIP3      17655           0.0000000000
    104479     19015  TIP3      H1             18.0825994846       -4.7504991888      -31.2123552276  TIP3      17655           0.0000000000
    104480     19015  TIP3      H2             18.9652027946       -4.6630771602      -32.4613658311  TIP3      17655           0.0000000000
    104481     19016  TIP3      OH2            20.2247575398       -5.5748843037      -33.4216276852  TIP3      17656           0.0000000000
    104482     19016  TIP3      H1             20.0627102088       -6.5148546562      -33.2065427275  TIP3      17656           0.0000000000
    104483     19016  TIP3      H2             21.0827947699       -5.4234808655      -32.9692645673  TIP3      17656           0.0000000000
    104484     19017  TIP3      OH2            22.8251375672       -5.0862919416      -32.5451481541  TIP3      17657           0.0000000000
    104485     19017  TIP3      H1             22.9877033993       -6.0107379117      -32.8094090832  TIP3      17657           0.0000000000
    104486     19017  TIP3      H2             22.8745679126       -5.1434979815      -31.5803329548  TIP3      17657           0.0000000000
    104487     19018  TIP3      OH2            26.2866748916      -19.4350265504      -33.4060444018  TIP3      17658           0.0000000000
    104488     19018  TIP3      H1             25.6105318239      -20.0769062562      -33.1304085887  TIP3      17658           0.0000000000
    104489     19018  TIP3      H2             26.8388221124      -19.9661870983      -33.9924414822  TIP3      17658           0.0000000000
    104490     19019  TIP3      OH2            31.4223601242      -21.3816643293      -33.3425918853  TIP3      17659           0.0000000000
    104491     19019  TIP3      H1             32.0367767857      -20.7920187474      -33.8472107933  TIP3      17659           0.0000000000
    104492     19019  TIP3      H2             30.5405182794      -21.0242965956      -33.5728436397  TIP3      17659           0.0000000000
    104493     19020  TIP3      OH2            33.0960292730      -20.1387239540      -35.0649895302  TIP3      17660           0.0000000000
    104494     19020  TIP3      H1             33.7803552530      -20.7155911380      -35.4802076479  TIP3      17660           0.0000000000
    104495     19020  TIP3      H2             33.5986473498      -19.3006285478      -34.9599474112  TIP3      17660           0.0000000000
    104496     19021  TIP3      OH2            18.6571223230      -20.8081045004      -35.5618427678  TIP3      17661           0.0000000000
    104497     19021  TIP3      H1             17.8598403165      -21.0090927894      -36.0883329559  TIP3      17661           0.0000000000
    104498     19021  TIP3      H2             19.1195338197      -21.6660671545      -35.6155472959  TIP3      17661           0.0000000000
    104499     19022  TIP3      OH2            17.3971173618      -21.0474840329      -39.8737140791  TIP3      17662           0.0000000000
    104500     19022  TIP3      H1             17.9166005994      -20.3946061874      -40.3796845258  TIP3      17662           0.0000000000
    104501     19022  TIP3      H2             16.8656588366      -20.4842645315      -39.2816003773  TIP3      17662           0.0000000000
    104502     19023  TIP3      OH2            23.1335805967      -20.8850185782      -35.7746390097  TIP3      17663           0.0000000000
    104503     19023  TIP3      H1             24.0333147844      -20.5227361949      -35.8428028286  TIP3      17663           0.0000000000
    104504     19023  TIP3      H2             23.0929262446      -21.1011400133      -34.8441024852  TIP3      17663           0.0000000000
    104505     19024  TIP3      OH2            28.8352654199      -20.8636283426      -34.1459928920  TIP3      17664           0.0000000000
    104506     19024  TIP3      H1             28.7950811075      -20.7519730413      -35.1040873386  TIP3      17664           0.0000000000
    104507     19024  TIP3      H2             28.4620347137      -21.7711228215      -34.0240867142  TIP3      17664           0.0000000000
    104508     19025  TIP3      OH2            30.1140784119      -20.8349036396      -38.4892984152  TIP3      17665           0.0000000000
    104509     19025  TIP3      H1             29.3685957772      -20.2373150975      -38.6440869279  TIP3      17665           0.0000000000
    104510     19025  TIP3      H2             29.6776935879      -21.6862546141      -38.2534842907  TIP3      17665           0.0000000000
    104511     19026  TIP3      OH2            17.3415640153       -5.0919068024      -38.8358711587  TIP3      17666           0.0000000000
    104512     19026  TIP3      H1             16.6661595504       -5.1041586054      -39.5428308284  TIP3      17666           0.0000000000
    104513     19026  TIP3      H2             17.3648496289       -4.1430167821      -38.6635561317  TIP3      17666           0.0000000000
    104514     19027  TIP3      OH2            19.2337256876      -19.1608775380      -41.3044404070  TIP3      17667           0.0000000000
    104515     19027  TIP3      H1             19.7964646564      -19.7193123678      -41.8452925564  TIP3      17667           0.0000000000
    104516     19027  TIP3      H2             19.8997802174      -18.7679073482      -40.7083622996  TIP3      17667           0.0000000000
    104517     19028  TIP3      OH2            24.2883725695      -18.8593239518      -38.9186068301  TIP3      17668           0.0000000000
    104518     19028  TIP3      H1             24.5366872146      -19.4406017724      -38.1811365870  TIP3      17668           0.0000000000
    104519     19028  TIP3      H2             24.3463092670      -17.9977249163      -38.4473282706  TIP3      17668           0.0000000000
    104520     19029  TIP3      OH2            26.1940016572       -3.7564478047      -40.5149858567  TIP3      17669           0.0000000000
    104521     19029  TIP3      H1             27.1396639477       -3.5849215410      -40.6715405490  TIP3      17669           0.0000000000
    104522     19029  TIP3      H2             26.0062722120       -4.3321578375      -41.2884550938  TIP3      17669           0.0000000000
    104523     19030  TIP3      OH2            32.9193190083       -4.2888762819      -37.7631406520  TIP3      17670           0.0000000000
    104524     19030  TIP3      H1             32.7130215878       -5.0687645275      -38.3366119121  TIP3      17670           0.0000000000
    104525     19030  TIP3      H2             32.8291776822       -3.5540350345      -38.4000494132  TIP3      17670           0.0000000000
    104526     19031  TIP3      OH2            18.5286928725      -20.2580424785      -26.0923516835  TIP3      17671           0.0000000000
    104527     19031  TIP3      H1             18.1559410199      -21.0615738970      -25.6900661139  TIP3      17671           0.0000000000
    104528     19031  TIP3      H2             19.4498500596      -20.3227586414      -25.7481246954  TIP3      17671           0.0000000000
    104529     19032  TIP3      OH2            20.5501317798      -20.9141619573      -24.5195204364  TIP3      17672           0.0000000000
    104530     19032  TIP3      H1             21.4539303119      -21.2304105606      -24.6898624281  TIP3      17672           0.0000000000
    104531     19032  TIP3      H2             20.2109678486      -21.6893026319      -24.0488543000  TIP3      17672           0.0000000000
    104532     19033  TIP3      OH2            19.1737344690       -4.1029811744      -41.8667459954  TIP3      17673           0.0000000000
    104533     19033  TIP3      H1             18.8775310592       -3.8508177709      -40.9887858108  TIP3      17673           0.0000000000
    104534     19033  TIP3      H2             19.9070699770       -4.6992015853      -41.6977156129  TIP3      17673           0.0000000000
    104535     19034  TIP3      OH2            28.9599660537      -21.5730766872      -24.2915293598  TIP3      17674           0.0000000000
    104536     19034  TIP3      H1             29.0533726414      -22.0672736483      -23.4683907230  TIP3      17674           0.0000000000
    104537     19034  TIP3      H2             29.8567966101      -21.6285607742      -24.6911186943  TIP3      17674           0.0000000000
    104538     19035  TIP3      OH2            32.1559579817       -5.5530065616      -25.6722129580  TIP3      17675           0.0000000000
    104539     19035  TIP3      H1             31.3582011892       -5.6937273077      -26.2197306417  TIP3      17675           0.0000000000
    104540     19035  TIP3      H2             32.0480912895       -4.6103342449      -25.4559251833  TIP3      17675           0.0000000000
    104541     19036  TIP3      OH2            37.8117361696      -12.7454931091      -30.6538424942  TIP3      17676           0.0000000000
    104542     19036  TIP3      H1             37.8921293116      -13.4250596784      -29.9485372720  TIP3      17676           0.0000000000
    104543     19036  TIP3      H2             38.5487037514      -12.1594734439      -30.4279447926  TIP3      17676           0.0000000000
    104544     19037  TIP3      OH2            38.7196413078       -8.3208705650      -32.0953561543  TIP3      17677           0.0000000000
    104545     19037  TIP3      H1             38.4273283084       -9.1762514284      -32.4594219059  TIP3      17677           0.0000000000
    104546     19037  TIP3      H2             39.6890979978       -8.4618374982      -32.0668508962  TIP3      17677           0.0000000000
    104547     19038  TIP3      OH2            35.3844780981      -14.7308580675      -36.6740192669  TIP3      17678           0.0000000000
    104548     19038  TIP3      H1             34.9510217530      -13.8545886693      -36.7205607921  TIP3      17678           0.0000000000
    104549     19038  TIP3      H2             34.8036236756      -15.2689453415      -37.2293464413  TIP3      17678           0.0000000000
    104550     19039  TIP3      OH2            36.1252412206      -12.4938328398      -34.5175890227  TIP3      17679           0.0000000000
    104551     19039  TIP3      H1             36.3576324426      -13.3204769396      -34.0582271630  TIP3      17679           0.0000000000
    104552     19039  TIP3      H2             36.8399935860      -12.4198487111      -35.1677975253  TIP3      17679           0.0000000000
    104553     19040  TIP3      OH2            39.6722904043      -17.3228459193      -33.9849288833  TIP3      17680           0.0000000000
    104554     19040  TIP3      H1             40.1339811214      -16.6067143586      -34.4920062187  TIP3      17680           0.0000000000
    104555     19040  TIP3      H2             39.6817206502      -17.9823655239      -34.6744930242  TIP3      17680           0.0000000000
    104556     19041  TIP3      OH2            36.7586376249      -15.0457859274      -33.4722816709  TIP3      17681           0.0000000000
    104557     19041  TIP3      H1             37.4469909847      -15.5720509596      -33.0140692345  TIP3      17681           0.0000000000
    104558     19041  TIP3      H2             36.8454581226      -15.3769185743      -34.3811245898  TIP3      17681           0.0000000000
    104559     19042  TIP3      OH2            38.9884940177      -18.5811596303      -30.1435360752  TIP3      17682           0.0000000000
    104560     19042  TIP3      H1             38.7304354569      -17.9928836831      -30.8920743624  TIP3      17682           0.0000000000
    104561     19042  TIP3      H2             38.3260904587      -18.3142972946      -29.4698229654  TIP3      17682           0.0000000000
    104562     19043  TIP3      OH2            38.5030738107      -16.6139540561      -31.9048034945  TIP3      17683           0.0000000000
    104563     19043  TIP3      H1             39.2179404144      -15.9571452523      -31.7939994092  TIP3      17683           0.0000000000
    104564     19043  TIP3      H2             38.9438999968      -17.0261081049      -32.7070221667  TIP3      17683           0.0000000000
    104565     19044  TIP3      OH2            39.7822505168       -8.8267026582      -29.2250945659  TIP3      17684           0.0000000000
    104566     19044  TIP3      H1             39.8609302035       -7.8821778435      -29.4028824982  TIP3      17684           0.0000000000
    104567     19044  TIP3      H2             39.0024442190       -8.8852186558      -28.6283174673  TIP3      17684           0.0000000000
    104568     19045  TIP3      OH2            36.0634234258       -9.2798863828      -38.3038451889  TIP3      17685           0.0000000000
    104569     19045  TIP3      H1             35.8219404575       -8.9683196499      -39.2001065835  TIP3      17685           0.0000000000
    104570     19045  TIP3      H2             36.1229974561       -8.4444714068      -37.7963562074  TIP3      17685           0.0000000000
    104571     19046  TIP3      OH2            40.1164651534      -11.5371756458      -35.3431999765  TIP3      17686           0.0000000000
    104572     19046  TIP3      H1             39.9838040573      -11.9089461069      -36.2376510418  TIP3      17686           0.0000000000
    104573     19046  TIP3      H2             40.8517389145      -12.0937720738      -35.0013364287  TIP3      17686           0.0000000000
    104574     19047  TIP3      OH2            38.5069002341      -12.2089767544      -27.8160022969  TIP3      17687           0.0000000000
    104575     19047  TIP3      H1             38.5698048235      -11.5469817980      -27.1116835311  TIP3      17687           0.0000000000
    104576     19047  TIP3      H2             37.5825222797      -12.1091486635      -28.0788389620  TIP3      17687           0.0000000000
    104577     19048  TIP3      OH2            39.7886167811       -6.2531053875      -26.2477301911  TIP3      17688           0.0000000000
    104578     19048  TIP3      H1             39.8023937497       -6.5425340831      -27.1832375705  TIP3      17688           0.0000000000
    104579     19048  TIP3      H2             38.8883767018       -6.5455607230      -25.9857442453  TIP3      17688           0.0000000000
    104580     19049  TIP3      OH2            39.3120902484      -12.5567528069      -37.7478088422  TIP3      17689           0.0000000000
    104581     19049  TIP3      H1             39.0203276744      -11.7570812707      -38.2415452696  TIP3      17689           0.0000000000
    104582     19049  TIP3      H2             38.5882560073      -13.1578344420      -37.9376946000  TIP3      17689           0.0000000000
    104583     19050  TIP3      OH2            35.3574249352      -10.1030132309      -28.8397613488  TIP3      17690           0.0000000000
    104584     19050  TIP3      H1             34.9327429336      -10.1943980191      -29.7104216454  TIP3      17690           0.0000000000
    104585     19050  TIP3      H2             35.4496401722      -11.0509333329      -28.6217011604  TIP3      17690           0.0000000000
    104586     19051  TIP3      OH2            35.1751808385       -7.3704547838      -32.0506500243  TIP3      17691           0.0000000000
    104587     19051  TIP3      H1             36.1340678042       -7.4829394203      -32.0711358006  TIP3      17691           0.0000000000
    104588     19051  TIP3      H2             35.0750100999       -6.5523809798      -31.5463817860  TIP3      17691           0.0000000000
    104589     19052  TIP3      OH2            38.3814521539       -4.5052093714      -35.9073198629  TIP3      17692           0.0000000000
    104590     19052  TIP3      H1             38.5622148240       -4.9264173540      -35.0399697123  TIP3      17692           0.0000000000
    104591     19052  TIP3      H2             37.5519077571       -4.9556571705      -36.1303790302  TIP3      17692           0.0000000000
    104592     19053  TIP3      OH2            37.5851707420       -8.6995409487      -27.8310747032  TIP3      17693           0.0000000000
    104593     19053  TIP3      H1             37.8881807525       -9.1650550827      -27.0288658812  TIP3      17693           0.0000000000
    104594     19053  TIP3      H2             36.7967514227       -9.2085436534      -28.1130551802  TIP3      17693           0.0000000000
    104595     19054  TIP3      OH2            40.2954887125      -20.3219008202      -31.9487044182  TIP3      17694           0.0000000000
    104596     19054  TIP3      H1             39.4047654712      -20.4183443571      -32.3481243212  TIP3      17694           0.0000000000
    104597     19054  TIP3      H2             40.2227854208      -19.4419135850      -31.5503256456  TIP3      17694           0.0000000000
    104598     19055  TIP3      OH2            40.3909949866      -15.2320704580      -30.0038558109  TIP3      17695           0.0000000000
    104599     19055  TIP3      H1             39.4491899876      -15.4446490110      -29.9068814655  TIP3      17695           0.0000000000
    104600     19055  TIP3      H2             40.2871335214      -14.6876024003      -30.8091803406  TIP3      17695           0.0000000000
    104601     19056  TIP3      OH2            40.1122730459      -15.3800977974      -35.5649694267  TIP3      17696           0.0000000000
    104602     19056  TIP3      H1             39.2213290352      -15.5480020541      -35.9371204739  TIP3      17696           0.0000000000
    104603     19056  TIP3      H2             40.7222296191      -15.5935194540      -36.2706098642  TIP3      17696           0.0000000000
    104604     19057  TIP3      OH2            38.0004541113      -15.0471392223      -28.9723902990  TIP3      17697           0.0000000000
    104605     19057  TIP3      H1             38.1134832833      -14.6473873354      -28.0979241961  TIP3      17697           0.0000000000
    104606     19057  TIP3      H2             37.6354122411      -15.9278102599      -28.7887754394  TIP3      17697           0.0000000000
    104607     19058  TIP3      OH2            34.7257868401      -17.9847323268      -35.0328146675  TIP3      17698           0.0000000000
    104608     19058  TIP3      H1             35.4058061596      -18.0186131839      -34.3281074652  TIP3      17698           0.0000000000
    104609     19058  TIP3      H2             35.1870329057      -18.3532381970      -35.8055108511  TIP3      17698           0.0000000000
    104610     19059  TIP3      OH2            36.0259804547      -17.2327562225      -39.5889701243  TIP3      17699           0.0000000000
    104611     19059  TIP3      H1             36.4940468590      -16.6748738699      -40.2454378010  TIP3      17699           0.0000000000
    104612     19059  TIP3      H2             35.3066410393      -16.6196625009      -39.3311961937  TIP3      17699           0.0000000000
    104613     19060  TIP3      OH2            37.6958392936      -16.1550846037      -35.9452933702  TIP3      17700           0.0000000000
    104614     19060  TIP3      H1             36.8299358874      -16.0033416234      -36.3634488164  TIP3      17700           0.0000000000
    104615     19060  TIP3      H2             38.0380468154      -17.0005135473      -36.3034308845  TIP3      17700           0.0000000000
    104616     19061  TIP3      OH2            40.1530735947      -14.9609578068      -40.7056792444  TIP3      17701           0.0000000000
    104617     19061  TIP3      H1             39.5371406101      -15.2388622287      -41.4103466397  TIP3      17701           0.0000000000
    104618     19061  TIP3      H2             40.9093056269      -14.6753394668      -41.2124706894  TIP3      17701           0.0000000000
    104619     19062  TIP3      OH2            38.2757248272      -10.3534155710      -25.6653089419  TIP3      17702           0.0000000000
    104620     19062  TIP3      H1             38.9565707267      -10.0554514506      -25.0518222973  TIP3      17702           0.0000000000
    104621     19062  TIP3      H2             37.4736554593      -10.1750696442      -25.1254874675  TIP3      17702           0.0000000000
    104622     19063  TIP3      OH2            39.0186649807      -18.7928210418      -36.5632908061  TIP3      17703           0.0000000000
    104623     19063  TIP3      H1             38.8325899096      -19.7472085631      -36.4448495894  TIP3      17703           0.0000000000
    104624     19063  TIP3      H2             39.9758756430      -18.8058007692      -36.7379319854  TIP3      17703           0.0000000000
    104625     19064  TIP3      OH2            38.5764500048      -10.9905907487      -33.0239287608  TIP3      17704           0.0000000000
    104626     19064  TIP3      H1             39.2900151869      -11.0584849312      -33.6960234143  TIP3      17704           0.0000000000
    104627     19064  TIP3      H2             38.6474541870      -11.8448957050      -32.5643979783  TIP3      17704           0.0000000000
    104628     19065  TIP3      OH2            35.5715581423      -12.5593661960      -27.7431945737  TIP3      17705           0.0000000000
    104629     19065  TIP3      H1             35.7629569919      -13.0158344604      -26.9089636073  TIP3      17705           0.0000000000
    104630     19065  TIP3      H2             34.9475534396      -13.1714829469      -28.1830279920  TIP3      17705           0.0000000000
    104631     19066  TIP3      OH2            36.6773203295      -12.6607664705      -41.1348506998  TIP3      17706           0.0000000000
    104632     19066  TIP3      H1             37.2953647447      -12.0473642940      -40.7026219806  TIP3      17706           0.0000000000
    104633     19066  TIP3      H2             35.8252188245      -12.3819173606      -40.7573089586  TIP3      17706           0.0000000000
    104634     19067  TIP3      OH2            37.2257672811      -17.8388221723      -28.1770939697  TIP3      17707           0.0000000000
    104635     19067  TIP3      H1             36.3173274026      -17.4948006815      -28.2477041305  TIP3      17707           0.0000000000
    104636     19067  TIP3      H2             37.0874671745      -18.6992114330      -27.7494972838  TIP3      17707           0.0000000000
    104637     19068  TIP3      OH2            36.8735814958       -6.0290849210      -29.7793625688  TIP3      17708           0.0000000000
    104638     19068  TIP3      H1             37.1026294545       -6.9749428936      -29.7796955194  TIP3      17708           0.0000000000
    104639     19068  TIP3      H2             37.0938534292       -5.7952120558      -28.8777809658  TIP3      17708           0.0000000000
    104640     19069  TIP3      OH2            38.0924510712      -10.7442662794      -39.5982869988  TIP3      17709           0.0000000000
    104641     19069  TIP3      H1             37.4160620191      -10.3443063418      -39.0133186787  TIP3      17709           0.0000000000
    104642     19069  TIP3      H2             38.6011586168       -9.9611050163      -39.8496270666  TIP3      17709           0.0000000000
    104643     19070  TIP3      OH2           -41.2076411140      -18.6119673410      -39.9537458705  TIP3      17710           0.0000000000
    104644     19070  TIP3      H1            -41.1749174653      -17.7421303701      -39.5344658116  TIP3      17710           0.0000000000
    104645     19070  TIP3      H2            -40.2914537326      -18.8670703511      -39.7449829634  TIP3      17710           0.0000000000
    104646     19071  TIP3      OH2            38.7088702504       -8.1823485134      -40.6580169932  TIP3      17711           0.0000000000
    104647     19071  TIP3      H1             39.3371765525       -7.5015493582      -40.4046549442  TIP3      17711           0.0000000000
    104648     19071  TIP3      H2             39.2062761083       -8.5934925563      -41.3881254799  TIP3      17711           0.0000000000
    104649     19072  TIP3      OH2            37.0682856195      -15.4613343761      -41.4702845255  TIP3      17712           0.0000000000
    104650     19072  TIP3      H1             37.0061558486      -14.4920479365      -41.4095217597  TIP3      17712           0.0000000000
    104651     19072  TIP3      H2             36.2152562491      -15.6811635105      -41.8678634716  TIP3      17712           0.0000000000
    104652     19073  TIP3      OH2            37.8271568831      -20.6848892179      -32.8385954704  TIP3      17713           0.0000000000
    104653     19073  TIP3      H1             37.6194108796      -20.6457704755      -33.7961852791  TIP3      17713           0.0000000000
    104654     19073  TIP3      H2             37.4088112909      -21.5275644259      -32.5569476374  TIP3      17713           0.0000000000
    104655     19074  TIP3      OH2            36.7739775578       -6.7514869187      -36.6894185735  TIP3      17714           0.0000000000
    104656     19074  TIP3      H1             35.9222457136       -6.2927568968      -36.7329642186  TIP3      17714           0.0000000000
    104657     19074  TIP3      H2             37.2843320656       -6.2849938175      -37.3612147664  TIP3      17714           0.0000000000
    104658     19075  TIP3      OH2            36.0590748927       -4.1232993228      -25.4569952533  TIP3      17715           0.0000000000
    104659     19075  TIP3      H1             36.5527945911       -4.3383280525      -24.6502227932  TIP3      17715           0.0000000000
    104660     19075  TIP3      H2             35.5430496172       -4.9490961085      -25.5786852531  TIP3      17715           0.0000000000
    104661     19076  TIP3      OH2            35.8984024119      -10.3789793274      -24.3863509899  TIP3      17716           0.0000000000
    104662     19076  TIP3      H1             36.0755484657      -11.2467811245      -24.7778489876  TIP3      17716           0.0000000000
    104663     19076  TIP3      H2             35.1661178225      -10.0550151410      -24.9496177677  TIP3      17716           0.0000000000
    104664     19077  TIP3      OH2            40.2620731164      -10.0139290437      -42.3316810845  TIP3      17717           0.0000000000
    104665     19077  TIP3      H1             40.3679770782      -10.7789731645      -41.7628232698  TIP3      17717           0.0000000000
    104666     19077  TIP3      H2             40.9224745520      -10.1030971163      -43.0225828717  TIP3      17717           0.0000000000
    104667     19078  TIP3      OH2            36.8670949296      -13.0739626279      -24.9797555476  TIP3      17718           0.0000000000
    104668     19078  TIP3      H1             37.1730793403      -13.9664673773      -25.2012996573  TIP3      17718           0.0000000000
    104669     19078  TIP3      H2             36.4572194712      -13.1604396084      -24.1369806984  TIP3      17718           0.0000000000
    104670     19079  TIP3      OH2            39.4868033837      -15.4954029608      -24.5603657701  TIP3      17719           0.0000000000
    104671     19079  TIP3      H1             38.7850049936      -16.1102497757      -24.8603591044  TIP3      17719           0.0000000000
    104672     19079  TIP3      H2             40.1878941148      -15.7951584062      -25.1939499064  TIP3      17719           0.0000000000
    104673     19080  TIP3      OH2            37.7331527694      -17.5835160938      -24.9070534561  TIP3      17720           0.0000000000
    104674     19080  TIP3      H1             37.9120035916      -18.3194944432      -25.5308035413  TIP3      17720           0.0000000000
    104675     19080  TIP3      H2             37.6204477405      -18.0777569445      -24.0678038972  TIP3      17720           0.0000000000
    104676     19081  TIP3      OH2            35.9704154830       -8.4520211341      -41.1846255945  TIP3      17721           0.0000000000
    104677     19081  TIP3      H1             36.9223111942       -8.3725826393      -40.9679932130  TIP3      17721           0.0000000000
    104678     19081  TIP3      H2             36.0061300045       -9.0667674637      -41.9285836248  TIP3      17721           0.0000000000
    104679     19082  TIP3      OH2            34.6951199163       -3.0883184350      -36.2265544251  TIP3      17722           0.0000000000
    104680     19082  TIP3      H1             33.9760423083       -3.5732593856      -36.6953378075  TIP3      17722           0.0000000000
    104681     19082  TIP3      H2             34.9862983605       -3.7452008819      -35.5714080412  TIP3      17722           0.0000000000
    104682     19083  TIP3      OH2            35.5379158693       -4.9562789690      -34.3617583277  TIP3      17723           0.0000000000
    104683     19083  TIP3      H1             35.1791273191       -5.8344554053      -34.1631011421  TIP3      17723           0.0000000000
    104684     19083  TIP3      H2             35.7613882448       -4.6251054250      -33.4785596688  TIP3      17723           0.0000000000
    104685     19084  TIP3      OH2            35.5569924712      -11.9038392687      -31.8757059311  TIP3      17724           0.0000000000
    104686     19084  TIP3      H1             35.7732905186      -11.9642148471      -32.8318796470  TIP3      17724           0.0000000000
    104687     19084  TIP3      H2             36.4489488010      -12.0636062836      -31.5091219481  TIP3      17724           0.0000000000
    104688     19085  TIP3      OH2            35.2159760512      -16.5649144651      -25.6858145240  TIP3      17725           0.0000000000
    104689     19085  TIP3      H1             36.1476560194      -16.8104438664      -25.5333030060  TIP3      17725           0.0000000000
    104690     19085  TIP3      H2             34.7488756584      -17.3937168406      -25.4502679098  TIP3      17725           0.0000000000
    104691     19086  TIP3      OH2            36.3879005266      -18.3014077522      -32.8496645243  TIP3      17726           0.0000000000
    104692     19086  TIP3      H1             36.9024734462      -19.1103254695      -32.6426991288  TIP3      17726           0.0000000000
    104693     19086  TIP3      H2             36.9430320295      -17.5991410843      -32.4764225623  TIP3      17726           0.0000000000
    104694     19087  TIP3      OH2            34.6740684952      -15.2810454188      -31.8340724897  TIP3      17727           0.0000000000
    104695     19087  TIP3      H1             35.2625577050      -15.5325063151      -32.5803287158  TIP3      17727           0.0000000000
    104696     19087  TIP3      H2             35.1486559358      -14.4863854630      -31.5550950600  TIP3      17727           0.0000000000
    104697     19088  TIP3      OH2            35.0479650853      -19.0393575295      -37.7665909293  TIP3      17728           0.0000000000
    104698     19088  TIP3      H1             34.1023511814      -18.8368734554      -37.8843201113  TIP3      17728           0.0000000000
    104699     19088  TIP3      H2             35.4698184971      -18.5278264574      -38.4733970949  TIP3      17728           0.0000000000
    104700     19089  TIP3      OH2            35.0054034446      -20.3704224863      -29.4523409135  TIP3      17729           0.0000000000
    104701     19089  TIP3      H1             34.3313921194      -20.5683581063      -28.7788641307  TIP3      17729           0.0000000000
    104702     19089  TIP3      H2             34.5421562303      -19.7004550508      -29.9967261883  TIP3      17729           0.0000000000
    104703     19090  TIP3      OH2            37.1985063437       -7.0860083198      -25.2595032286  TIP3      17730           0.0000000000
    104704     19090  TIP3      H1             36.3474575903       -6.9885458175      -25.7213190525  TIP3      17730           0.0000000000
    104705     19090  TIP3      H2             36.8902248386       -7.2707683368      -24.3647357028  TIP3      17730           0.0000000000
    104706     19091  TIP3      OH2            40.1597673558       -6.1221327804      -28.9485009673  TIP3      17731           0.0000000000
    104707     19091  TIP3      H1             39.7838657611       -5.3309833816      -29.3643230768  TIP3      17731           0.0000000000
    104708     19091  TIP3      H2             41.0687282998       -6.0921921396      -29.3201607791  TIP3      17731           0.0000000000
    104709     19092  TIP3      OH2            37.5474302805       -2.9096933049      -28.9771806854  TIP3      17732           0.0000000000
    104710     19092  TIP3      H1             36.8388288792       -2.4425156650      -29.4767657128  TIP3      17732           0.0000000000
    104711     19092  TIP3      H2             37.0321355244       -3.1342743994      -28.1965571697  TIP3      17732           0.0000000000
    104712     19093  TIP3      OH2            39.8453978939       -3.5797266884      -30.0921396829  TIP3      17733           0.0000000000
    104713     19093  TIP3      H1             39.0569518874       -3.2457511161      -29.6420189395  TIP3      17733           0.0000000000
    104714     19093  TIP3      H2             40.0096154681       -2.8225456885      -30.7098476036  TIP3      17733           0.0000000000
    104715     19094  TIP3      OH2            36.9735611745       -4.2620265999      -32.0424915650  TIP3      17734           0.0000000000
    104716     19094  TIP3      H1             36.9245361030       -4.7504554325      -31.1984772625  TIP3      17734           0.0000000000
    104717     19094  TIP3      H2             37.7832223727       -4.6331603948      -32.4650792655  TIP3      17734           0.0000000000
    104718     19095  TIP3      OH2            39.0791399911       -5.5554020726      -33.3893397827  TIP3      17735           0.0000000000
    104719     19095  TIP3      H1             38.9002071256       -6.4965536425      -33.1892071635  TIP3      17735           0.0000000000
    104720     19095  TIP3      H2             39.9267030096       -5.4374122096      -32.9436504935  TIP3      17735           0.0000000000
    104721     19096  TIP3      OH2            37.4901556772      -20.8087509804      -35.5500451083  TIP3      17736           0.0000000000
    104722     19096  TIP3      H1             36.7035238968      -21.0251626552      -36.0856397300  TIP3      17736           0.0000000000
    104723     19096  TIP3      H2             37.9713157319      -21.6571717218      -35.5826771798  TIP3      17736           0.0000000000
    104724     19097  TIP3      OH2            36.2173975408      -21.0517591953      -39.8883557022  TIP3      17737           0.0000000000
    104725     19097  TIP3      H1             36.7735851318      -20.4079483946      -40.3695300057  TIP3      17737           0.0000000000
    104726     19097  TIP3      H2             35.7096004302      -20.4786333912      -39.2842732099  TIP3      17737           0.0000000000
    104727     19098  TIP3      OH2            36.1894941639       -5.1001722236      -38.8511365918  TIP3      17738           0.0000000000
    104728     19098  TIP3      H1             35.5133032954       -5.1032132182      -39.5518362718  TIP3      17738           0.0000000000
    104729     19098  TIP3      H2             36.1964911225       -4.1555712283      -38.6453777004  TIP3      17738           0.0000000000
    104730     19099  TIP3      OH2            38.0796664162      -19.1595822372      -41.2869602202  TIP3      17739           0.0000000000
    104731     19099  TIP3      H1             38.6327553762      -19.6858280691      -41.8705077713  TIP3      17739           0.0000000000
    104732     19099  TIP3      H2             38.7907565330      -18.7746742802      -40.7225098223  TIP3      17739           0.0000000000
    104733     19100  TIP3      OH2            37.3887462565      -20.2647468745      -26.0850409837  TIP3      17740           0.0000000000
    104734     19100  TIP3      H1             37.0381511522      -21.0773868269      -25.6878379977  TIP3      17740           0.0000000000
    104735     19100  TIP3      H2             38.3056345293      -20.3028920612      -25.7384640309  TIP3      17740           0.0000000000
    104736     19101  TIP3      OH2            39.4464629936      -20.9054883539      -24.5263720372  TIP3      17741           0.0000000000
    104737     19101  TIP3      H1             40.3106382475      -21.2615875079      -24.7805577856  TIP3      17741           0.0000000000
    104738     19101  TIP3      H2             39.0078115989      -21.6585958392      -24.0689744098  TIP3      17741           0.0000000000
    104739     19102  TIP3      OH2            38.0329118267       -4.1026033749      -41.8793999469  TIP3      17742           0.0000000000
    104740     19102  TIP3      H1             37.7524660957       -3.8238232586      -40.9958583341  TIP3      17742           0.0000000000
    104741     19102  TIP3      H2             38.7796789416       -4.6903566461      -41.7277239715  TIP3      17742           0.0000000000
    104742     19103  TIP3      OH2           -28.8272279218        7.1836162550      -35.7052781447  TIP3      17743           0.0000000000
    104743     19103  TIP3      H1            -28.8324020390        8.1649537798      -35.7417377753  TIP3      17743           0.0000000000
    104744     19103  TIP3      H2            -29.5525100691        6.9492801458      -36.3054645433  TIP3      17743           0.0000000000
    104745     19104  TIP3      OH2           -29.9716392804        6.4418201123      -32.1997938280  TIP3      17744           0.0000000000
    104746     19104  TIP3      H1            -29.9818735841        5.7912071603      -31.4863122058  TIP3      17744           0.0000000000
    104747     19104  TIP3      H2            -30.3091603055        5.9368322515      -32.9583152084  TIP3      17744           0.0000000000
    104748     19105  TIP3      OH2           -37.6098021218        6.0665413745      -30.6914400091  TIP3      17745           0.0000000000
    104749     19105  TIP3      H1            -37.5504673746        5.4172888301      -29.9609701117  TIP3      17745           0.0000000000
    104750     19105  TIP3      H2            -36.9064130357        6.6799083105      -30.4489480144  TIP3      17745           0.0000000000
    104751     19106  TIP3      OH2           -26.2774426295        9.3899282437      -33.9183993639  TIP3      17746           0.0000000000
    104752     19106  TIP3      H1            -26.6952637788        8.6738391509      -33.4294836200  TIP3      17746           0.0000000000
    104753     19106  TIP3      H2            -26.2574667056       10.0995737608      -33.2498184798  TIP3      17746           0.0000000000
    104754     19107  TIP3      OH2           -36.6943538832       10.5500566410      -32.1154969915  TIP3      17747           0.0000000000
    104755     19107  TIP3      H1            -37.0140660743        9.6890863485      -32.4601574481  TIP3      17747           0.0000000000
    104756     19107  TIP3      H2            -35.7384657488       10.3732440537      -32.1279624140  TIP3      17747           0.0000000000
    104757     19108  TIP3      OH2           -39.7365102142        4.4318314812      -37.2308962525  TIP3      17748           0.0000000000
    104758     19108  TIP3      H1            -40.3104360391        5.0556646423      -36.7445927956  TIP3      17748           0.0000000000
    104759     19108  TIP3      H2            -40.3979939070        3.7787522275      -37.4428717030  TIP3      17748           0.0000000000
    104760     19109  TIP3      OH2           -39.1782906904        6.3021098790      -34.4553047179  TIP3      17749           0.0000000000
    104761     19109  TIP3      H1            -39.0073741240        5.4397302548      -34.0245017713  TIP3      17749           0.0000000000
    104762     19109  TIP3      H2            -38.5361318509        6.3838949130      -35.1702594397  TIP3      17749           0.0000000000
    104763     19110  TIP3      OH2           -29.1557086945       14.5480347691      -33.6785482571  TIP3      17750           0.0000000000
    104764     19110  TIP3      H1            -28.5125909485       13.8537359836      -33.9658540357  TIP3      17750           0.0000000000
    104765     19110  TIP3      H2            -29.3721110296       14.2178241721      -32.8072636954  TIP3      17750           0.0000000000
    104766     19111  TIP3      OH2           -31.6039212562        8.8512496771      -31.7287414382  TIP3      17751           0.0000000000
    104767     19111  TIP3      H1            -31.2588752882        8.2234544351      -32.3845787003  TIP3      17751           0.0000000000
    104768     19111  TIP3      H2            -30.7929109327        9.0038811211      -31.2109578975  TIP3      17751           0.0000000000
    104769     19112  TIP3      OH2           -22.9910433983        0.5006660206      -31.0021404741  TIP3      17752           0.0000000000
    104770     19112  TIP3      H1            -22.8179063755        1.0919209550      -30.2381044860  TIP3      17752           0.0000000000
    104771     19112  TIP3      H2            -22.4297102459        0.9256673192      -31.6670324125  TIP3      17752           0.0000000000
    104772     19113  TIP3      OH2           -28.4267633657        3.3109946415      -31.4191271224  TIP3      17753           0.0000000000
    104773     19113  TIP3      H1            -28.2598371664        2.3518628100      -31.4163985809  TIP3      17753           0.0000000000
    104774     19113  TIP3      H2            -28.5272628010        3.4531729864      -32.3802010858  TIP3      17753           0.0000000000
    104775     19114  TIP3      OH2           -35.3148520857        1.3986273795      -34.2036129624  TIP3      17754           0.0000000000
    104776     19114  TIP3      H1            -35.1992973144        2.2358701961      -34.6881118647  TIP3      17754           0.0000000000
    104777     19114  TIP3      H2            -35.7052948293        0.8274202824      -34.8993568278  TIP3      17754           0.0000000000
    104778     19115  TIP3      OH2           -27.5741347278        1.4779828423      -35.8277724499  TIP3      17755           0.0000000000
    104779     19115  TIP3      H1            -26.9183275258        1.1661021091      -35.1615529732  TIP3      17755           0.0000000000
    104780     19115  TIP3      H2            -27.0131896017        2.0501237554      -36.3728048347  TIP3      17755           0.0000000000
    104781     19116  TIP3      OH2           -38.4930983264        3.8193248935      -33.5192940937  TIP3      17756           0.0000000000
    104782     19116  TIP3      H1            -37.9358209343        3.1955327837      -33.0365825525  TIP3      17756           0.0000000000
    104783     19116  TIP3      H2            -38.5414857871        3.4363476994      -34.4079560718  TIP3      17756           0.0000000000
    104784     19117  TIP3      OH2           -33.5285279749        5.3641494234      -34.1505214693  TIP3      17757           0.0000000000
    104785     19117  TIP3      H1            -32.8582989223        4.7831007032      -33.7507221628  TIP3      17757           0.0000000000
    104786     19117  TIP3      H2            -34.0476980401        4.7043622148      -34.6508873624  TIP3      17757           0.0000000000
    104787     19118  TIP3      OH2           -22.5579733039        1.9054716623      -28.7242811485  TIP3      17758           0.0000000000
    104788     19118  TIP3      H1            -23.1585903259        2.6751902744      -28.8344548441  TIP3      17758           0.0000000000
    104789     19118  TIP3      H2            -22.5073112927        1.8286613828      -27.7650153399  TIP3      17758           0.0000000000
    104790     19119  TIP3      OH2           -36.4013323042        0.2985036091      -30.1712169824  TIP3      17759           0.0000000000
    104791     19119  TIP3      H1            -36.6997077746        0.8551694637      -30.9205517797  TIP3      17759           0.0000000000
    104792     19119  TIP3      H2            -37.0916923375        0.5177444373      -29.4951938168  TIP3      17759           0.0000000000
    104793     19120  TIP3      OH2           -29.1099255687        9.7801368973      -36.6167889391  TIP3      17760           0.0000000000
    104794     19120  TIP3      H1            -29.3911287472        9.4947316968      -37.4973206194  TIP3      17760           0.0000000000
    104795     19120  TIP3      H2            -29.4206903794       10.7141768332      -36.5637896266  TIP3      17760           0.0000000000
    104796     19121  TIP3      OH2           -33.8703117365        7.9675823494      -29.8440071901  TIP3      17761           0.0000000000
    104797     19121  TIP3      H1            -34.6031920293        8.5962818326      -29.7543782840  TIP3      17761           0.0000000000
    104798     19121  TIP3      H2            -33.1757325115        8.5282634852      -30.2232518603  TIP3      17761           0.0000000000
    104799     19122  TIP3      OH2           -25.7666772424        0.8233662421      -33.8423384910  TIP3      17762           0.0000000000
    104800     19122  TIP3      H1            -25.9821904507        0.0551138610      -33.3057250891  TIP3      17762           0.0000000000
    104801     19122  TIP3      H2            -25.0918552621        1.2617762955      -33.2981044561  TIP3      17762           0.0000000000
    104802     19123  TIP3      OH2           -36.8538710806        2.1417445157      -32.1210606279  TIP3      17763           0.0000000000
    104803     19123  TIP3      H1            -36.2325082978        2.8391698104      -31.8054183092  TIP3      17763           0.0000000000
    104804     19123  TIP3      H2            -36.3235000403        1.7368310281      -32.8525758654  TIP3      17763           0.0000000000
    104805     19124  TIP3      OH2           -35.4386932523        9.9818459858      -28.9671811660  TIP3      17764           0.0000000000
    104806     19124  TIP3      H1            -35.4642153608       10.8154388154      -29.4881494903  TIP3      17764           0.0000000000
    104807     19124  TIP3      H2            -36.4001301720        9.8644647979      -28.7674656607  TIP3      17764           0.0000000000
    104808     19125  TIP3      OH2           -39.3869798388        9.5733681435      -38.3009865396  TIP3      17765           0.0000000000
    104809     19125  TIP3      H1            -39.6143594384        9.8409048751      -39.2040198664  TIP3      17765           0.0000000000
    104810     19125  TIP3      H2            -39.3005489093       10.4092396814      -37.8077569164  TIP3      17765           0.0000000000
    104811     19126  TIP3      OH2           -25.7501579000       11.2278621660      -31.5490348409  TIP3      17766           0.0000000000
    104812     19126  TIP3      H1            -26.7181774158       11.3359744938      -31.4302186588  TIP3      17766           0.0000000000
    104813     19126  TIP3      H2            -25.4815732495       12.1446947058      -31.7493170693  TIP3      17766           0.0000000000
    104814     19127  TIP3      OH2           -25.4322041150       -0.4895999015      -30.1565837031  TIP3      17767           0.0000000000
    104815     19127  TIP3      H1            -26.1563028419        0.1435998760      -30.2463167991  TIP3      17767           0.0000000000
    104816     19127  TIP3      H2            -24.7199206602       -0.0701500689      -30.6827475743  TIP3      17767           0.0000000000
    104817     19128  TIP3      OH2           -32.4581815319       -2.3688222240      -32.6958533514  TIP3      17768           0.0000000000
    104818     19128  TIP3      H1            -32.5945399719       -3.3325045556      -32.7665018808  TIP3      17768           0.0000000000
    104819     19128  TIP3      H2            -33.3374480442       -2.0641061569      -32.3908780819  TIP3      17768           0.0000000000
    104820     19129  TIP3      OH2           -27.4915191610       13.0115513665      -34.9595818725  TIP3      17769           0.0000000000
    104821     19129  TIP3      H1            -27.0621747410       12.2929400664      -35.4674456884  TIP3      17769           0.0000000000
    104822     19129  TIP3      H2            -27.0673219858       13.8026003638      -35.3544692761  TIP3      17769           0.0000000000
    104823     19130  TIP3      OH2           -26.2825561860       10.9382694356      -36.4453150088  TIP3      17770           0.0000000000
    104824     19130  TIP3      H1            -26.5699902265       10.2418364977      -37.0595071522  TIP3      17770           0.0000000000
    104825     19130  TIP3      H2            -26.2480012368       10.4461338763      -35.6045122867  TIP3      17770           0.0000000000
    104826     19131  TIP3      OH2           -24.6504622175        9.5297381105      -27.9587415966  TIP3      17771           0.0000000000
    104827     19131  TIP3      H1            -24.5174824228        8.8750958074      -28.6774692286  TIP3      17771           0.0000000000
    104828     19131  TIP3      H2            -24.4564677635       10.3764495320      -28.3971768631  TIP3      17771           0.0000000000
    104829     19132  TIP3      OH2           -30.1682055185        6.4135849223      -38.1866393993  TIP3      17772           0.0000000000
    104830     19132  TIP3      H1            -30.8630869500        6.9892899453      -38.5476288841  TIP3      17772           0.0000000000
    104831     19132  TIP3      H2            -29.4588517490        6.5100191760      -38.8496005745  TIP3      17772           0.0000000000
    104832     19133  TIP3      OH2           -30.0978785577        4.9695122762      -41.1296884630  TIP3      17773           0.0000000000
    104833     19133  TIP3      H1            -29.3812357360        4.9701779877      -40.4797117638  TIP3      17773           0.0000000000
    104834     19133  TIP3      H2            -29.7957743674        4.2678465269      -41.7125759887  TIP3      17773           0.0000000000
    104835     19134  TIP3      OH2           -22.7706792804        5.8480136326      -29.9144226473  TIP3      17774           0.0000000000
    104836     19134  TIP3      H1            -23.4340148836        6.5654702480      -29.8638871146  TIP3      17774           0.0000000000
    104837     19134  TIP3      H2            -22.2866369512        6.0864389641      -30.7256920325  TIP3      17774           0.0000000000
    104838     19135  TIP3      OH2           -26.7118735702        6.6473168329      -37.2481331867  TIP3      17775           0.0000000000
    104839     19135  TIP3      H1            -27.4663098573        6.8767827282      -36.6556331251  TIP3      17775           0.0000000000
    104840     19135  TIP3      H2            -26.2416968019        5.9601137374      -36.7398182698  TIP3      17775           0.0000000000
    104841     19136  TIP3      OH2           -26.7997265940        4.7935767554      -28.1487944015  TIP3      17776           0.0000000000
    104842     19136  TIP3      H1            -26.7620323415        5.6135129979      -27.6311074049  TIP3      17776           0.0000000000
    104843     19136  TIP3      H2            -27.4293026474        5.0976984369      -28.8314843363  TIP3      17776           0.0000000000
    104844     19137  TIP3      OH2           -35.1013624072        7.3037664133      -35.3427501091  TIP3      17777           0.0000000000
    104845     19137  TIP3      H1            -35.4515779457        6.9024487693      -36.1750688506  TIP3      17777           0.0000000000
    104846     19137  TIP3      H2            -34.4966943521        6.6027528894      -35.0124460394  TIP3      17777           0.0000000000
    104847     19138  TIP3      OH2           -33.8033555305       10.6764761355      -32.6530287627  TIP3      17778           0.0000000000
    104848     19138  TIP3      H1            -33.8006886660       10.1587844699      -33.4695965924  TIP3      17778           0.0000000000
    104849     19138  TIP3      H2            -33.0033544357       10.3285208442      -32.2144997820  TIP3      17778           0.0000000000
    104850     19139  TIP3      OH2           -34.7815428935        6.0437746424      -31.6853198728  TIP3      17779           0.0000000000
    104851     19139  TIP3      H1            -34.2284193859        6.1386593814      -32.4880745377  TIP3      17779           0.0000000000
    104852     19139  TIP3      H2            -34.4039599032        6.7087594031      -31.0854559376  TIP3      17779           0.0000000000
    104853     19140  TIP3      OH2           -28.3694756371       11.6112473648      -30.9846234003  TIP3      17780           0.0000000000
    104854     19140  TIP3      H1            -28.6541132398       12.2473520672      -30.3241226619  TIP3      17780           0.0000000000
    104855     19140  TIP3      H2            -28.6221207906       10.7560995071      -30.5595988760  TIP3      17780           0.0000000000
    104856     19141  TIP3      OH2           -33.6980776720       10.6356896178      -27.0373712172  TIP3      17781           0.0000000000
    104857     19141  TIP3      H1            -34.1244613347       11.3599737763      -26.5319093363  TIP3      17781           0.0000000000
    104858     19141  TIP3      H2            -34.2703192212       10.4995883418      -27.8363683426  TIP3      17781           0.0000000000
    104859     19142  TIP3      OH2           -27.8437057621        5.8186439290      -39.5842984059  TIP3      17782           0.0000000000
    104860     19142  TIP3      H1            -27.2870545975        6.0046743205      -38.7867371050  TIP3      17782           0.0000000000
    104861     19142  TIP3      H2            -27.4264875246        6.3398057050      -40.3026250092  TIP3      17782           0.0000000000
    104862     19143  TIP3      OH2           -36.8647379059        6.7044981530      -27.8083888862  TIP3      17783           0.0000000000
    104863     19143  TIP3      H1            -36.9236312015        7.3008626421      -27.0575003966  TIP3      17783           0.0000000000
    104864     19143  TIP3      H2            -37.8004930158        6.7220727822      -28.0974525863  TIP3      17783           0.0000000000
    104865     19144  TIP3      OH2           -30.1313437490       12.5571987451      -36.1262936677  TIP3      17784           0.0000000000
    104866     19144  TIP3      H1            -29.6962842942       12.8630374256      -35.3225154824  TIP3      17784           0.0000000000
    104867     19144  TIP3      H2            -30.6903127278       13.3058508133      -36.3623994415  TIP3      17784           0.0000000000
    104868     19145  TIP3      OH2           -35.6126497222       12.4577802083      -26.2576373838  TIP3      17785           0.0000000000
    104869     19145  TIP3      H1            -35.6251836958       12.3961915575      -27.2353607409  TIP3      17785           0.0000000000
    104870     19145  TIP3      H2            -36.5080854029       12.3023946483      -25.9202298022  TIP3      17785           0.0000000000
    104871     19146  TIP3      OH2           -24.1261643592       -2.4344380841      -39.6927844880  TIP3      17786           0.0000000000
    104872     19146  TIP3      H1            -25.0784551213       -2.3204792875      -39.4594761363  TIP3      17786           0.0000000000
    104873     19146  TIP3      H2            -23.9170488067       -1.5871066030      -40.1162343537  TIP3      17786           0.0000000000
    104874     19147  TIP3      OH2           -36.1307319673        6.3221131961      -37.7096896895  TIP3      17787           0.0000000000
    104875     19147  TIP3      H1            -36.4163492632        7.0973491773      -38.2378972225  TIP3      17787           0.0000000000
    104876     19147  TIP3      H2            -36.7963017198        5.6643639115      -37.9489276994  TIP3      17787           0.0000000000
    104877     19148  TIP3      OH2           -23.0282842790       11.9166988263      -41.2582085468  TIP3      17788           0.0000000000
    104878     19148  TIP3      H1            -22.8816135591       12.8756647442      -41.2182374606  TIP3      17788           0.0000000000
    104879     19148  TIP3      H2            -22.1157554835       11.6191491313      -41.4337330560  TIP3      17788           0.0000000000
    104880     19149  TIP3      OH2           -39.6051071452        8.5278417822      -29.0093711904  TIP3      17789           0.0000000000
    104881     19149  TIP3      H1            -40.3745272125        8.7283477036      -29.5936040528  TIP3      17789           0.0000000000
    104882     19149  TIP3      H2            -39.9919345935        7.7359448477      -28.5982785469  TIP3      17789           0.0000000000
    104883     19150  TIP3      OH2           -40.2486451226       11.5351086873      -32.1305042353  TIP3      17790           0.0000000000
    104884     19150  TIP3      H1            -39.3126593645       11.2976940487      -32.0565827834  TIP3      17790           0.0000000000
    104885     19150  TIP3      H2            -40.3728325950       12.2832429176      -31.5346136206  TIP3      17790           0.0000000000
    104886     19151  TIP3      OH2           -22.0518540743       12.1857747531      -26.3886310053  TIP3      17791           0.0000000000
    104887     19151  TIP3      H1            -22.1693003767       11.2257024767      -26.3795775029  TIP3      17791           0.0000000000
    104888     19151  TIP3      H2            -22.9146693299       12.4361731303      -25.9771503802  TIP3      17791           0.0000000000
    104889     19152  TIP3      OH2           -31.0889613811       11.7095482599      -27.5160884881  TIP3      17792           0.0000000000
    104890     19152  TIP3      H1            -31.0072510632       12.5501477361      -26.9998521359  TIP3      17792           0.0000000000
    104891     19152  TIP3      H2            -31.9645322757       11.3785584806      -27.2533940163  TIP3      17792           0.0000000000
    104892     19153  TIP3      OH2           -30.6653640295       15.4720025892      -37.7176857830  TIP3      17793           0.0000000000
    104893     19153  TIP3      H1            -30.7494375770       15.3969513205      -38.6814234232  TIP3      17793           0.0000000000
    104894     19153  TIP3      H2            -30.6297813474       16.4321118171      -37.5599935252  TIP3      17793           0.0000000000
    104895     19154  TIP3      OH2           -37.0151132617       14.3354512773      -35.9068356074  TIP3      17794           0.0000000000
    104896     19154  TIP3      H1            -36.8793116970       13.9310005854      -35.0243768296  TIP3      17794           0.0000000000
    104897     19154  TIP3      H2            -37.8684853280       13.9375805484      -36.1396341082  TIP3      17794           0.0000000000
    104898     19155  TIP3      OH2           -27.6446167144       14.6558338717      -40.7591524818  TIP3      17795           0.0000000000
    104899     19155  TIP3      H1            -27.1379658871       13.9204674221      -41.1728192091  TIP3      17795           0.0000000000
    104900     19155  TIP3      H2            -27.5567279380       14.4163839621      -39.8161593795  TIP3      17795           0.0000000000
    104901     19156  TIP3      OH2           -27.9097745450       14.6161536909      -37.9510797145  TIP3      17796           0.0000000000
    104902     19156  TIP3      H1            -28.8653317337       14.6841183298      -37.7610059213  TIP3      17796           0.0000000000
    104903     19156  TIP3      H2            -27.6598508819       13.8711396036      -37.3851239576  TIP3      17796           0.0000000000
    104904     19157  TIP3      OH2           -24.9892456247        3.6139190436      -25.8635752674  TIP3      17797           0.0000000000
    104905     19157  TIP3      H1            -25.3635438992        4.1145201925      -26.6117746370  TIP3      17797           0.0000000000
    104906     19157  TIP3      H2            -24.8873207510        2.7308324202      -26.2474277924  TIP3      17797           0.0000000000
    104907     19158  TIP3      OH2           -37.8116519186       10.1364643985      -27.8338919592  TIP3      17798           0.0000000000
    104908     19158  TIP3      H1            -37.6693040610        9.6602854252      -26.9955503652  TIP3      17798           0.0000000000
    104909     19158  TIP3      H2            -38.6300318012        9.6666112173      -28.1611883331  TIP3      17798           0.0000000000
    104910     19159  TIP3      OH2           -35.0717770366       -1.4652153363      -31.9393023113  TIP3      17799           0.0000000000
    104911     19159  TIP3      H1            -35.9786245493       -1.5788888905      -32.3122685322  TIP3      17799           0.0000000000
    104912     19159  TIP3      H2            -35.2070985097       -0.6321969602      -31.4604706178  TIP3      17799           0.0000000000
    104913     19160  TIP3      OH2           -30.4411918452       -1.7965729910      -28.5808516224  TIP3      17800           0.0000000000
    104914     19160  TIP3      H1            -30.0484035431       -2.2168885660      -27.7935764955  TIP3      17800           0.0000000000
    104915     19160  TIP3      H2            -31.4125083070       -1.9209242235      -28.4403503644  TIP3      17800           0.0000000000
    104916     19161  TIP3      OH2           -27.1667144645        2.0380303625      -27.7049678229  TIP3      17801           0.0000000000
    104917     19161  TIP3      H1            -27.7219869311        1.8308251407      -26.9161779447  TIP3      17801           0.0000000000
    104918     19161  TIP3      H2            -27.3230727637        2.9772715449      -27.9084354551  TIP3      17801           0.0000000000
    104919     19162  TIP3      OH2           -26.3885097426        6.8416611609      -41.8886739789  TIP3      17802           0.0000000000
    104920     19162  TIP3      H1            -26.3748073602        6.6659630765      -42.8425755168  TIP3      17802           0.0000000000
    104921     19162  TIP3      H2            -25.5487537645        7.3043953573      -41.7345132408  TIP3      17802           0.0000000000
    104922     19163  TIP3      OH2           -30.8068936376        0.7720769598      -41.2382588541  TIP3      17803           0.0000000000
    104923     19163  TIP3      H1            -31.1235091263        0.7313385725      -40.3178045400  TIP3      17803           0.0000000000
    104924     19163  TIP3      H2            -31.0829310397       -0.1022573757      -41.5248463603  TIP3      17803           0.0000000000
    104925     19164  TIP3      OH2           -34.9982712510        3.5053750812      -30.7006523683  TIP3      17804           0.0000000000
    104926     19164  TIP3      H1            -35.7297373218        3.4966313823      -30.0554550163  TIP3      17804           0.0000000000
    104927     19164  TIP3      H2            -35.0309565730        4.4165469279      -31.0649186875  TIP3      17804           0.0000000000
    104928     19165  TIP3      OH2           -35.0139229038        3.6415913225      -35.8136793647  TIP3      17805           0.0000000000
    104929     19165  TIP3      H1            -35.9559409830        3.3816417866      -35.9521839031  TIP3      17805           0.0000000000
    104930     19165  TIP3      H2            -34.6409007989        3.3363497544      -36.6634009360  TIP3      17805           0.0000000000
    104931     19166  TIP3      OH2           -29.5020958906        4.1231203239      -37.0545230893  TIP3      17806           0.0000000000
    104932     19166  TIP3      H1            -29.9076006690        4.9515173092      -37.4014945470  TIP3      17806           0.0000000000
    104933     19166  TIP3      H2            -28.8184235295        3.9612203621      -37.7305562378  TIP3      17806           0.0000000000
    104934     19167  TIP3      OH2           -30.4291971255        4.3773943982      -25.5594954268  TIP3      17807           0.0000000000
    104935     19167  TIP3      H1            -30.9706239979        3.5815121247      -25.3169032762  TIP3      17807           0.0000000000
    104936     19167  TIP3      H2            -29.5772024448        4.1575985467      -25.1666909818  TIP3      17807           0.0000000000
    104937     19168  TIP3      OH2           -28.4705708177        3.6150474704      -34.2152549431  TIP3      17808           0.0000000000
    104938     19168  TIP3      H1            -28.7468619451        4.1785249510      -34.9572011167  TIP3      17808           0.0000000000
    104939     19168  TIP3      H2            -28.3694196134        2.7653786555      -34.6847561926  TIP3      17808           0.0000000000
    104940     19169  TIP3      OH2           -37.3504680720        3.7756085540      -28.9866859497  TIP3      17809           0.0000000000
    104941     19169  TIP3      H1            -37.3352487956        4.1689086281      -28.1025195484  TIP3      17809           0.0000000000
    104942     19169  TIP3      H2            -37.8105781889        2.9422061202      -28.8055306004  TIP3      17809           0.0000000000
    104943     19170  TIP3      OH2           -33.9653228802        1.1054530308      -42.2104704295  TIP3      17810           0.0000000000
    104944     19170  TIP3      H1            -34.3988681840        0.7309968808      -41.4200993425  TIP3      17810           0.0000000000
    104945     19170  TIP3      H2            -34.6871560629        1.5633688403      -42.6522074268  TIP3      17810           0.0000000000
    104946     19171  TIP3      OH2           -39.9113750549        0.9770068372      -35.5307282722  TIP3      17811           0.0000000000
    104947     19171  TIP3      H1            -39.9955574769        0.7828909127      -34.5650196750  TIP3      17811           0.0000000000
    104948     19171  TIP3      H2            -39.9988044996        0.1026127074      -35.9495678879  TIP3      17811           0.0000000000
    104949     19172  TIP3      OH2           -39.2615956784        1.7906504428      -39.5000436852  TIP3      17812           0.0000000000
    104950     19172  TIP3      H1            -38.8644824785        2.2707992872      -40.2622058489  TIP3      17812           0.0000000000
    104951     19172  TIP3      H2            -40.0531781000        2.3241208153      -39.3788605933  TIP3      17812           0.0000000000
    104952     19173  TIP3      OH2           -29.2656668194        5.2047231735      -29.6419067314  TIP3      17813           0.0000000000
    104953     19173  TIP3      H1            -28.8927259458        4.5235161740      -30.2383301973  TIP3      17813           0.0000000000
    104954     19173  TIP3      H2            -29.7334220034        4.6706489145      -28.9770187357  TIP3      17813           0.0000000000
    104955     19174  TIP3      OH2           -32.4632811019        1.1773011538      -34.8236352933  TIP3      17814           0.0000000000
    104956     19174  TIP3      H1            -33.3967769055        1.1835598045      -34.5307779683  TIP3      17814           0.0000000000
    104957     19174  TIP3      H2            -31.9818028182        1.0156017628      -33.9990988041  TIP3      17814           0.0000000000
    104958     19175  TIP3      OH2           -37.6199070170        2.7378010059      -35.9839469934  TIP3      17815           0.0000000000
    104959     19175  TIP3      H1            -38.5104385712        2.8738022714      -36.3502671322  TIP3      17815           0.0000000000
    104960     19175  TIP3      H2            -37.3941084853        1.8669392440      -36.3555894752  TIP3      17815           0.0000000000
    104961     19176  TIP3      OH2           -34.0206719206        2.7910922059      -38.3087113841  TIP3      17816           0.0000000000
    104962     19176  TIP3      H1            -33.0600562802        2.8853162940      -38.1677845501  TIP3      17816           0.0000000000
    104963     19176  TIP3      H2            -34.2633034247        3.4428114997      -38.9936780135  TIP3      17816           0.0000000000
    104964     19177  TIP3      OH2           -28.0592591828        0.4086003300      -31.5820260654  TIP3      17817           0.0000000000
    104965     19177  TIP3      H1            -28.7450851686        0.4663414380      -30.8769853418  TIP3      17817           0.0000000000
    104966     19177  TIP3      H2            -28.5707659173        0.1629520288      -32.3659793787  TIP3      17817           0.0000000000
    104967     19178  TIP3      OH2           -35.2865427611        3.9618332702      -40.6997159518  TIP3      17818           0.0000000000
    104968     19178  TIP3      H1            -35.8575955747        3.6128826427      -41.4001342409  TIP3      17818           0.0000000000
    104969     19178  TIP3      H2            -34.4891303066        4.1784179847      -41.1992754073  TIP3      17818           0.0000000000
    104970     19179  TIP3      OH2           -24.8635314151       16.0814318231      -25.2274607496  TIP3      17819           0.0000000000
    104971     19179  TIP3      H1            -24.5851656289       16.4298857432      -26.0942713932  TIP3      17819           0.0000000000
    104972     19179  TIP3      H2            -24.1053896517       16.3485687748      -24.6840090485  TIP3      17819           0.0000000000
    104973     19180  TIP3      OH2           -37.0393965154        8.5884222011      -25.7229027755  TIP3      17820           0.0000000000
    104974     19180  TIP3      H1            -36.4912488380        8.7396744894      -24.9281553331  TIP3      17820           0.0000000000
    104975     19180  TIP3      H2            -37.9031992250        8.5884632166      -25.2244365005  TIP3      17820           0.0000000000
    104976     19181  TIP3      OH2           -31.1896122010        3.9320140302      -32.9285635001  TIP3      17821           0.0000000000
    104977     19181  TIP3      H1            -30.5902344403        3.3984165513      -33.4632437041  TIP3      17821           0.0000000000
    104978     19181  TIP3      H2            -31.3268065440        3.3850869603      -32.1435552429  TIP3      17821           0.0000000000
    104979     19182  TIP3      OH2           -36.2135329184        0.0910960549      -36.5176575262  TIP3      17822           0.0000000000
    104980     19182  TIP3      H1            -36.4989725595       -0.8420364412      -36.5022128046  TIP3      17822           0.0000000000
    104981     19182  TIP3      H2            -35.3899394561        0.0216673464      -37.0261055577  TIP3      17822           0.0000000000
    104982     19183  TIP3      OH2           -32.5439267131        2.2631077482      -30.5149989561  TIP3      17823           0.0000000000
    104983     19183  TIP3      H1            -33.3702678117        2.7794099063      -30.4235619941  TIP3      17823           0.0000000000
    104984     19183  TIP3      H2            -31.9906033882        2.6124155780      -29.7890275857  TIP3      17823           0.0000000000
    104985     19184  TIP3      OH2           -31.9553108072        8.4952036668      -38.8340716243  TIP3      17824           0.0000000000
    104986     19184  TIP3      H1            -32.7547793075        8.0158361124      -39.1456890385  TIP3      17824           0.0000000000
    104987     19184  TIP3      H2            -32.1658016573        8.6047579073      -37.8845233466  TIP3      17824           0.0000000000
    104988     19185  TIP3      OH2           -24.7748870728        7.6839548939      -30.0146121357  TIP3      17825           0.0000000000
    104989     19185  TIP3      H1            -24.2069071558        8.1658037179      -30.6431633490  TIP3      17825           0.0000000000
    104990     19185  TIP3      H2            -25.6330547295        7.7361236115      -30.4827686036  TIP3      17825           0.0000000000
    104991     19186  TIP3      OH2           -28.1221606466        1.2701794415      -40.6000937635  TIP3      17826           0.0000000000
    104992     19186  TIP3      H1            -29.0590536044        1.4298074671      -40.8070787692  TIP3      17826           0.0000000000
    104993     19186  TIP3      H2            -27.7948826385        2.1502020633      -40.3290480529  TIP3      17826           0.0000000000
    104994     19187  TIP3      OH2           -30.5112145006        8.7564147366      -27.5994812514  TIP3      17827           0.0000000000
    104995     19187  TIP3      H1            -30.7829426126        8.3318028036      -26.7850165711  TIP3      17827           0.0000000000
    104996     19187  TIP3      H2            -30.6881046959        9.6920925820      -27.4746517711  TIP3      17827           0.0000000000
    104997     19188  TIP3      OH2           -27.3841244957        3.2206323515      -38.9679894749  TIP3      17828           0.0000000000
    104998     19188  TIP3      H1            -26.4905705005        3.0797598101      -38.5960384096  TIP3      17828           0.0000000000
    104999     19188  TIP3      H2            -27.2942609494        4.0326377311      -39.4908723483  TIP3      17828           0.0000000000
    105000     19189  TIP3      OH2           -36.8490392057        7.8901885339      -33.0072674897  TIP3      17829           0.0000000000
    105001     19189  TIP3      H1            -36.1751773650        7.8040378030      -33.7029583078  TIP3      17829           0.0000000000
    105002     19189  TIP3      H2            -36.7868763540        7.0252954756      -32.5628132085  TIP3      17829           0.0000000000
    105003     19190  TIP3      OH2           -29.8700019641        9.9560667509      -39.7635963629  TIP3      17830           0.0000000000
    105004     19190  TIP3      H1            -30.2137925430       10.8059986833      -39.4042876466  TIP3      17830           0.0000000000
    105005     19190  TIP3      H2            -30.6069679631        9.3410811359      -39.5489455375  TIP3      17830           0.0000000000
    105006     19191  TIP3      OH2           -39.8426953575        6.2409569964      -27.7529889519  TIP3      17831           0.0000000000
    105007     19191  TIP3      H1            -39.6643717090        5.8167211148      -26.9062079681  TIP3      17831           0.0000000000
    105008     19191  TIP3      H2            -40.4978094778        5.6613355688      -28.1732336597  TIP3      17831           0.0000000000
    105009     19192  TIP3      OH2           -32.8204814015        5.9111827882      -25.5801507934  TIP3      17832           0.0000000000
    105010     19192  TIP3      H1            -33.1630572357        5.5217386873      -26.4099713615  TIP3      17832           0.0000000000
    105011     19192  TIP3      H2            -31.9406818884        5.4836107564      -25.5686994677  TIP3      17832           0.0000000000
    105012     19193  TIP3      OH2           -28.1685949884       11.1626892604      -27.6113514895  TIP3      17833           0.0000000000
    105013     19193  TIP3      H1            -29.0861872153       11.3592142107      -27.8623134800  TIP3      17833           0.0000000000
    105014     19193  TIP3      H2            -28.1916822751       11.4696727759      -26.6841949335  TIP3      17833           0.0000000000
    105015     19194  TIP3      OH2           -22.4933606502        3.3597124119      -39.2268556102  TIP3      17834           0.0000000000
    105016     19194  TIP3      H1            -23.0621305737        3.0594988284      -39.9641177208  TIP3      17834           0.0000000000
    105017     19194  TIP3      H2            -22.4193380381        4.2981321706      -39.5053348026  TIP3      17834           0.0000000000
    105018     19195  TIP3      OH2           -22.5032420224        9.2128589646      -26.4168645877  TIP3      17835           0.0000000000
    105019     19195  TIP3      H1            -23.3819981380        9.4351091302      -26.8134983506  TIP3      17835           0.0000000000
    105020     19195  TIP3      H2            -21.9480356954        9.1674289260      -27.2269037652  TIP3      17835           0.0000000000
    105021     19196  TIP3      OH2           -24.1926662763       12.1870867937      -38.8258035786  TIP3      17836           0.0000000000
    105022     19196  TIP3      H1            -24.5666957242       11.3584537559      -38.5042321176  TIP3      17836           0.0000000000
    105023     19196  TIP3      H2            -23.8981783602       11.9965701461      -39.7430881091  TIP3      17836           0.0000000000
    105024     19197  TIP3      OH2           -26.9891984446        7.0037031510      -31.7342800791  TIP3      17837           0.0000000000
    105025     19197  TIP3      H1            -27.9331118682        6.7916012365      -31.8403742345  TIP3      17837           0.0000000000
    105026     19197  TIP3      H2            -26.5631360537        6.2396061014      -32.1650095207  TIP3      17837           0.0000000000
    105027     19198  TIP3      OH2           -34.4723186340       11.3334314654      -35.6302250955  TIP3      17838           0.0000000000
    105028     19198  TIP3      H1            -33.9736459821       12.1382744964      -35.8395034830  TIP3      17838           0.0000000000
    105029     19198  TIP3      H2            -35.3516480146       11.5677539396      -35.9565368296  TIP3      17838           0.0000000000
    105030     19199  TIP3      OH2           -38.7852311221        6.1178370165      -41.0346097368  TIP3      17839           0.0000000000
    105031     19199  TIP3      H1            -38.1350178118        6.7846809045      -40.7208628079  TIP3      17839           0.0000000000
    105032     19199  TIP3      H2            -39.6026596331        6.5237935666      -40.7425238580  TIP3      17839           0.0000000000
    105033     19200  TIP3      OH2           -33.0635813298        8.9970217914      -36.1186131531  TIP3      17840           0.0000000000
    105034     19200  TIP3      H1            -33.3682335729        9.9195940445      -36.0227365271  TIP3      17840           0.0000000000
    105035     19200  TIP3      H2            -33.7896921260        8.5069851262      -35.6796288098  TIP3      17840           0.0000000000
    105036     19201  TIP3      OH2           -32.6217328847       13.1664361037      -29.6927802905  TIP3      17841           0.0000000000
    105037     19201  TIP3      H1            -32.1664166119       13.9725547096      -29.9894662441  TIP3      17841           0.0000000000
    105038     19201  TIP3      H2            -31.9787266358       12.8536736142      -29.0339148590  TIP3      17841           0.0000000000
    105039     19202  TIP3      OH2           -34.3819837715       13.9886081179      -36.5708160044  TIP3      17842           0.0000000000
    105040     19202  TIP3      H1            -35.3468278129       14.1334263090      -36.4547801090  TIP3      17842           0.0000000000
    105041     19202  TIP3      H2            -34.0205440820       14.8313248102      -36.2383799941  TIP3      17842           0.0000000000
    105042     19203  TIP3      OH2           -29.0867139469        9.1870450801      -30.1017613850  TIP3      17843           0.0000000000
    105043     19203  TIP3      H1            -29.4175353242        9.0043892239      -29.1972984738  TIP3      17843           0.0000000000
    105044     19203  TIP3      H2            -28.4443457919        8.4735352460      -30.2465572274  TIP3      17843           0.0000000000
    105045     19204  TIP3      OH2           -26.7902798702       10.2291353857      -40.9791075333  TIP3      17844           0.0000000000
    105046     19204  TIP3      H1            -26.4578496309        9.7761395658      -40.1819775129  TIP3      17844           0.0000000000
    105047     19204  TIP3      H2            -27.7406108879       10.0650826057      -40.8921295976  TIP3      17844           0.0000000000
    105048     19205  TIP3      OH2           -26.2737411167       13.7656443406      -27.5897227376  TIP3      17845           0.0000000000
    105049     19205  TIP3      H1            -26.9606561305       13.2747920787      -28.0829308864  TIP3      17845           0.0000000000
    105050     19205  TIP3      H2            -26.0819520508       14.4631721368      -28.2539555702  TIP3      17845           0.0000000000
    105051     19206  TIP3      OH2           -22.2901925555       14.6444320889      -40.7770956886  TIP3      17846           0.0000000000
    105052     19206  TIP3      H1            -21.5657907454       15.2681117633      -40.9530583168  TIP3      17846           0.0000000000
    105053     19206  TIP3      H2            -22.9989363011       15.2403294845      -40.4539888963  TIP3      17846           0.0000000000
    105054     19207  TIP3      OH2           -38.2106027636        1.0221254599      -28.2187647441  TIP3      17847           0.0000000000
    105055     19207  TIP3      H1            -39.1099914644        1.3819470486      -28.2097807262  TIP3      17847           0.0000000000
    105056     19207  TIP3      H2            -38.3117771533        0.1704715577      -27.7690379831  TIP3      17847           0.0000000000
    105057     19208  TIP3      OH2           -25.9666232233        8.8813068074      -38.7462937786  TIP3      17848           0.0000000000
    105058     19208  TIP3      H1            -26.2108932862        8.0938940452      -38.2141247969  TIP3      17848           0.0000000000
    105059     19208  TIP3      H2            -25.0161820287        8.9348069283      -38.5587701493  TIP3      17848           0.0000000000
    105060     19209  TIP3      OH2           -38.6076584782       12.7622981256      -29.7582015350  TIP3      17849           0.0000000000
    105061     19209  TIP3      H1            -38.2891220674       11.8472867063      -29.8094820787  TIP3      17849           0.0000000000
    105062     19209  TIP3      H2            -38.2829326059       13.1001340165      -28.9381917335  TIP3      17849           0.0000000000
    105063     19210  TIP3      OH2           -32.6218333227       11.2913554609      -42.5318864763  TIP3      17850           0.0000000000
    105064     19210  TIP3      H1            -32.4780145136       10.5268486212      -43.0875916619  TIP3      17850           0.0000000000
    105065     19210  TIP3      H2            -33.0567145829       10.9260871763      -41.7315736480  TIP3      17850           0.0000000000
    105066     19211  TIP3      OH2           -33.8331127577       10.8534970793      -40.0661347324  TIP3      17851           0.0000000000
    105067     19211  TIP3      H1            -33.5896013425       10.3413273710      -39.2858185301  TIP3      17851           0.0000000000
    105068     19211  TIP3      H2            -33.7855938561       11.7867744292      -39.7527620990  TIP3      17851           0.0000000000
    105069     19212  TIP3      OH2           -37.3430094252        8.1124450842      -39.6044120825  TIP3      17852           0.0000000000
    105070     19212  TIP3      H1            -38.0258164371        8.5017057803      -39.0088118135  TIP3      17852           0.0000000000
    105071     19212  TIP3      H2            -36.7994011226        8.8825554868      -39.8323113365  TIP3      17852           0.0000000000
    105072     19213  TIP3      OH2           -29.4779843501        0.7901550872      -29.2486588464  TIP3      17853           0.0000000000
    105073     19213  TIP3      H1            -28.7625379599        0.8495416517      -28.6067097671  TIP3      17853           0.0000000000
    105074     19213  TIP3      H2            -29.8587294010       -0.0878558542      -29.0490869195  TIP3      17853           0.0000000000
    105075     19214  TIP3      OH2           -28.7420410507        0.3740059670      -38.1395045697  TIP3      17854           0.0000000000
    105076     19214  TIP3      H1            -28.4919416585        0.8269392297      -38.9735479765  TIP3      17854           0.0000000000
    105077     19214  TIP3      H2            -28.1463448291        0.8047884926      -37.5169049721  TIP3      17854           0.0000000000
    105078     19215  TIP3      OH2           -31.0395324403       12.5211225441      -39.3715690446  TIP3      17855           0.0000000000
    105079     19215  TIP3      H1            -31.8586892101       13.0432349512      -39.2680269161  TIP3      17855           0.0000000000
    105080     19215  TIP3      H2            -30.5184178931       13.0608402582      -39.9807137188  TIP3      17855           0.0000000000
    105081     19216  TIP3      OH2           -31.5008741671        2.1137375475      -37.3335833081  TIP3      17856           0.0000000000
    105082     19216  TIP3      H1            -30.7135988774        2.6909796534      -37.3005442185  TIP3      17856           0.0000000000
    105083     19216  TIP3      H2            -31.7594222792        1.9965792419      -36.4016356140  TIP3      17856           0.0000000000
    105084     19217  TIP3      OH2           -30.9473918592        3.1383776249      -28.1519514745  TIP3      17857           0.0000000000
    105085     19217  TIP3      H1            -30.8783739714        3.7002259638      -27.3581257929  TIP3      17857           0.0000000000
    105086     19217  TIP3      H2            -30.2865226544        2.4416023748      -28.0470202953  TIP3      17857           0.0000000000
    105087     19218  TIP3      OH2           -30.6476329816       -0.8269328902      -36.4544776510  TIP3      17858           0.0000000000
    105088     19218  TIP3      H1            -30.9703706790       -0.1718803396      -35.8125899375  TIP3      17858           0.0000000000
    105089     19218  TIP3      H2            -29.9565332770       -0.2826813775      -36.9085189947  TIP3      17858           0.0000000000
    105090     19219  TIP3      OH2           -33.6638976050       13.5513553380      -39.2995335636  TIP3      17859           0.0000000000
    105091     19219  TIP3      H1            -33.4992872317       14.3675856688      -39.8219687154  TIP3      17859           0.0000000000
    105092     19219  TIP3      H2            -33.9185143604       13.9119812625      -38.4267391395  TIP3      17859           0.0000000000
    105093     19220  TIP3      OH2           -34.9914141896        0.2690906663      -39.7086571682  TIP3      17860           0.0000000000
    105094     19220  TIP3      H1            -35.0324270396        1.1870184909      -39.3791159078  TIP3      17860           0.0000000000
    105095     19220  TIP3      H2            -34.0789717623        0.0221396697      -39.4653689945  TIP3      17860           0.0000000000
    105096     19221  TIP3      OH2           -24.7709895765        1.0225116772      -27.2726701213  TIP3      17861           0.0000000000
    105097     19221  TIP3      H1            -25.7007629901        1.3150319004      -27.4402074643  TIP3      17861           0.0000000000
    105098     19221  TIP3      H2            -24.4577827659        0.9977529297      -28.1961249212  TIP3      17861           0.0000000000
    105099     19222  TIP3      OH2           -26.1764052430        4.7928322923      -33.2779360338  TIP3      17862           0.0000000000
    105100     19222  TIP3      H1            -26.9880870006        4.3413697347      -33.5722018331  TIP3      17862           0.0000000000
    105101     19222  TIP3      H2            -25.6832421739        4.1045820987      -32.7754709049  TIP3      17862           0.0000000000
    105102     19223  TIP3      OH2           -36.7250891445       10.7113141006      -40.6897959173  TIP3      17863           0.0000000000
    105103     19223  TIP3      H1            -36.0894796795       11.3718465587      -40.3947753691  TIP3      17863           0.0000000000
    105104     19223  TIP3      H2            -36.2271030222       10.2519020034      -41.3929803732  TIP3      17863           0.0000000000
    105105     19224  TIP3      OH2           -38.4234107398        3.3771419941      -41.5359259498  TIP3      17864           0.0000000000
    105106     19224  TIP3      H1            -38.3920849469        4.3461894622      -41.4001273229  TIP3      17864           0.0000000000
    105107     19224  TIP3      H2            -39.2700950402        3.1681439134      -41.9239662292  TIP3      17864           0.0000000000
    105108     19225  TIP3      OH2           -25.0906641050       14.0506182594      -31.6211910314  TIP3      17865           0.0000000000
    105109     19225  TIP3      H1            -25.1840824573       14.7344620688      -32.3140601704  TIP3      17865           0.0000000000
    105110     19225  TIP3      H2            -24.1274471038       14.1069061153      -31.4467093375  TIP3      17865           0.0000000000
    105111     19226  TIP3      OH2           -37.5589306010       -1.8395896747      -32.8471791322  TIP3      17866           0.0000000000
    105112     19226  TIP3      H1            -37.8170794998       -1.8118775992      -33.7925940952  TIP3      17866           0.0000000000
    105113     19226  TIP3      H2            -38.0501517265       -2.6352402632      -32.5613820076  TIP3      17866           0.0000000000
    105114     19227  TIP3      OH2           -38.6252619123       12.0912253730      -36.6750107735  TIP3      17867           0.0000000000
    105115     19227  TIP3      H1            -39.4906266301       12.5162116967      -36.6931462566  TIP3      17867           0.0000000000
    105116     19227  TIP3      H2            -38.1699053368       12.5820845458      -37.3718533417  TIP3      17867           0.0000000000
    105117     19228  TIP3      OH2           -39.3319224255       14.6795263312      -25.4129481489  TIP3      17868           0.0000000000
    105118     19228  TIP3      H1            -38.8688996507       14.5146022401      -24.5719738388  TIP3      17868           0.0000000000
    105119     19228  TIP3      H2            -39.9802901025       13.9460405972      -25.4917854928  TIP3      17868           0.0000000000
    105120     19229  TIP3      OH2           -34.8164089380       13.6129555054      -23.8065688227  TIP3      17869           0.0000000000
    105121     19229  TIP3      H1            -34.0205810363       13.2266016520      -23.4051806351  TIP3      17869           0.0000000000
    105122     19229  TIP3      H2            -34.7358959118       13.3761245928      -24.7341991356  TIP3      17869           0.0000000000
    105123     19230  TIP3      OH2           -30.6458989688       13.1705600586      -42.3892016980  TIP3      17870           0.0000000000
    105124     19230  TIP3      H1            -31.3532595531       12.5259258619      -42.1741306136  TIP3      17870           0.0000000000
    105125     19230  TIP3      H2            -29.9107248907       12.5901158364      -42.6105306555  TIP3      17870           0.0000000000
    105126     19231  TIP3      OH2           -28.2434920282       12.0527054872      -25.0353185633  TIP3      17871           0.0000000000
    105127     19231  TIP3      H1            -28.5652355798       11.1685426492      -24.7860414569  TIP3      17871           0.0000000000
    105128     19231  TIP3      H2            -27.4537902435       12.1734491638      -24.4796313890  TIP3      17871           0.0000000000
    105129     19232  TIP3      OH2           -26.0546924544       12.9555744715      -42.1709832466  TIP3      17872           0.0000000000
    105130     19232  TIP3      H1            -25.8023806302       12.1349453887      -41.7098827039  TIP3      17872           0.0000000000
    105131     19232  TIP3      H2            -25.2833981925       13.1294809490      -42.7153135766  TIP3      17872           0.0000000000
    105132     19233  TIP3      OH2           -39.2994137065        8.5308075174      -24.6626460038  TIP3      17873           0.0000000000
    105133     19233  TIP3      H1            -39.2937829834        7.5513886205      -24.7208630838  TIP3      17873           0.0000000000
    105134     19233  TIP3      H2            -40.1393104183        8.7646157184      -25.0776965610  TIP3      17873           0.0000000000
    105135     19234  TIP3      OH2           -35.1696671016        8.8510755009      -42.3385908853  TIP3      17874           0.0000000000
    105136     19234  TIP3      H1            -35.0330454217        8.0882098250      -41.7579945066  TIP3      17874           0.0000000000
    105137     19234  TIP3      H2            -34.4933697863        8.7194756418      -43.0075735829  TIP3      17874           0.0000000000
    105138     19235  TIP3      OH2           -32.8648427193        8.5060660645      -24.9854559022  TIP3      17875           0.0000000000
    105139     19235  TIP3      H1            -33.0185843614        8.8146994231      -25.8902433788  TIP3      17875           0.0000000000
    105140     19235  TIP3      H2            -32.7289537203        7.5273624144      -25.1316699292  TIP3      17875           0.0000000000
    105141     19236  TIP3      OH2           -29.8146058844        9.9441305369      -42.5801284523  TIP3      17876           0.0000000000
    105142     19236  TIP3      H1            -30.0275299940       10.0841902624      -41.6397953711  TIP3      17876           0.0000000000
    105143     19236  TIP3      H2            -29.9643588819        8.9962538957      -42.6892375628  TIP3      17876           0.0000000000
    105144     19237  TIP3      OH2           -27.1177266552        8.3702274454      -27.5721610226  TIP3      17877           0.0000000000
    105145     19237  TIP3      H1            -26.3308431907        8.9475519863      -27.6820489122  TIP3      17877           0.0000000000
    105146     19237  TIP3      H2            -27.8137680692        9.0413279645      -27.5997405215  TIP3      17877           0.0000000000
    105147     19238  TIP3      OH2           -38.6256294358        5.7554542639      -25.0289203909  TIP3      17878           0.0000000000
    105148     19238  TIP3      H1            -38.1968527800        4.8862871200      -25.1141939280  TIP3      17878           0.0000000000
    105149     19238  TIP3      H2            -38.8651121391        5.7117275215      -24.1025659131  TIP3      17878           0.0000000000
    105150     19239  TIP3      OH2           -33.9538918123        6.8841788043      -39.9393106988  TIP3      17879           0.0000000000
    105151     19239  TIP3      H1            -34.4727086742        6.3492280334      -39.3154157721  TIP3      17879           0.0000000000
    105152     19239  TIP3      H2            -33.6716796775        6.2026448903      -40.6012758406  TIP3      17879           0.0000000000
    105153     19240  TIP3      OH2           -34.6822369252        4.7442051362      -27.6213613994  TIP3      17880           0.0000000000
    105154     19240  TIP3      H1            -35.3373553185        5.4207493789      -27.4018077982  TIP3      17880           0.0000000000
    105155     19240  TIP3      H2            -34.3233516930        5.0462037087      -28.4770781935  TIP3      17880           0.0000000000
    105156     19241  TIP3      OH2           -32.8986863874        5.1793637807      -41.7686548345  TIP3      17881           0.0000000000
    105157     19241  TIP3      H1            -33.0189260235        4.9393817994      -42.6968871339  TIP3      17881           0.0000000000
    105158     19241  TIP3      H2            -31.9267710212        5.1644917573      -41.6338774818  TIP3      17881           0.0000000000
    105159     19242  TIP3      OH2           -29.6396515435        7.3468051107      -24.4232685725  TIP3      17882           0.0000000000
    105160     19242  TIP3      H1            -28.6918265230        7.2653875881      -24.6623184404  TIP3      17882           0.0000000000
    105161     19242  TIP3      H2            -29.9532904476        6.4507396667      -24.2369025694  TIP3      17882           0.0000000000
    105162     19243  TIP3      OH2           -23.5590870562        7.4537731118      -42.3066035909  TIP3      17883           0.0000000000
    105163     19243  TIP3      H1            -23.7890646746        7.0464221977      -43.1444380437  TIP3      17883           0.0000000000
    105164     19243  TIP3      H2            -23.4624416902        8.3899438639      -42.5342798459  TIP3      17883           0.0000000000
    105165     19244  TIP3      OH2           -34.2910055161        2.0678843602      -26.5897050459  TIP3      17884           0.0000000000
    105166     19244  TIP3      H1            -34.1882014092        1.3563020575      -27.2514721357  TIP3      17884           0.0000000000
    105167     19244  TIP3      H2            -34.3664685403        2.8799345978      -27.1295469513  TIP3      17884           0.0000000000
    105168     19245  TIP3      OH2           -33.9009513846        0.4523706586      -29.0460270366  TIP3      17885           0.0000000000
    105169     19245  TIP3      H1            -33.3894340655        0.9151122465      -29.7518605973  TIP3      17885           0.0000000000
    105170     19245  TIP3      H2            -34.7921694875        0.3717658495      -29.4563586195  TIP3      17885           0.0000000000
    105171     19246  TIP3      OH2           -32.3636758708        5.9483875883      -28.7925069667  TIP3      17886           0.0000000000
    105172     19246  TIP3      H1            -31.6076269182        5.7583051684      -29.3638006402  TIP3      17886           0.0000000000
    105173     19246  TIP3      H2            -32.7135511786        6.7718747725      -29.1612155336  TIP3      17886           0.0000000000
    105174     19247  TIP3      OH2           -27.9323280361        3.7134280000      -23.7274336819  TIP3      17887           0.0000000000
    105175     19247  TIP3      H1            -27.7957245000        2.7787784013      -23.9684083671  TIP3      17887           0.0000000000
    105176     19247  TIP3      H2            -27.0845611761        4.1484905834      -23.9121812059  TIP3      17887           0.0000000000
    105177     19248  TIP3      OH2           -26.6458723057        6.4935258804      -25.6564856028  TIP3      17888           0.0000000000
    105178     19248  TIP3      H1            -26.8635522428        7.2076436342      -26.3011884161  TIP3      17888           0.0000000000
    105179     19248  TIP3      H2            -25.6830054638        6.4563557572      -25.8419151996  TIP3      17888           0.0000000000
    105180     19249  TIP3      OH2           -35.8625528329        3.3162411919      -24.6630682853  TIP3      17889           0.0000000000
    105181     19249  TIP3      H1            -36.6404330247        2.7498402956      -24.8458415126  TIP3      17889           0.0000000000
    105182     19249  TIP3      H2            -35.2101278120        2.9536106364      -25.2913578379  TIP3      17889           0.0000000000
    105183     19250  TIP3      OH2           -33.1147715742       -2.1075427257      -28.6518126498  TIP3      17890           0.0000000000
    105184     19250  TIP3      H1            -33.2895901170       -1.1447233473      -28.7555058573  TIP3      17890           0.0000000000
    105185     19250  TIP3      H2            -33.8621634977       -2.4743518712      -29.1563291331  TIP3      17890           0.0000000000
    105186     19251  TIP3      OH2           -31.8243684124        2.2278345701      -25.0488901032  TIP3      17891           0.0000000000
    105187     19251  TIP3      H1            -32.1253046031        1.9775347957      -24.1527779116  TIP3      17891           0.0000000000
    105188     19251  TIP3      H2            -32.6249795791        2.0353122256      -25.5723311254  TIP3      17891           0.0000000000
    105189     19252  TIP3      OH2           -29.1207804375        1.3389608812      -25.9678891042  TIP3      17892           0.0000000000
    105190     19252  TIP3      H1            -30.0869872773        1.4083485380      -25.8397383474  TIP3      17892           0.0000000000
    105191     19252  TIP3      H2            -28.8700878347        0.7015734187      -25.2780936862  TIP3      17892           0.0000000000
    105192     19253  TIP3      OH2           -27.5033038180        0.0178899413      -23.9750411721  TIP3      17893           0.0000000000
    105193     19253  TIP3      H1            -27.5994728614       -0.9646994492      -24.0453362549  TIP3      17893           0.0000000000
    105194     19253  TIP3      H2            -27.8656398420        0.2198552364      -23.1100404420  TIP3      17893           0.0000000000
    105195     19254  TIP3      OH2           -37.7032921420        1.2568181707      -24.9169749702  TIP3      17894           0.0000000000
    105196     19254  TIP3      H1            -37.4969889413        0.5181181019      -25.5241594300  TIP3      17894           0.0000000000
    105197     19254  TIP3      H2            -37.8210679410        0.8059420131      -24.0667654055  TIP3      17894           0.0000000000
    105198     19255  TIP3      OH2           -32.9079847294       -2.7368145610      -25.9497282554  TIP3      17895           0.0000000000
    105199     19255  TIP3      H1            -32.2094941043       -3.4225131568      -25.9719341242  TIP3      17895           0.0000000000
    105200     19255  TIP3      H2            -32.9981204262       -2.5658147113      -26.9039980457  TIP3      17895           0.0000000000
    105201     19256  TIP3      OH2           -32.5488933365       -1.1343654922      -23.8513454376  TIP3      17896           0.0000000000
    105202     19256  TIP3      H1            -32.6829533951       -1.6190683601      -24.6986653256  TIP3      17896           0.0000000000
    105203     19256  TIP3      H2            -33.1138669154       -0.3458958430      -23.9761531943  TIP3      17896           0.0000000000
    105204     19257  TIP3      OH2           -33.0657342555       15.8495547263      -40.6751002159  TIP3      17897           0.0000000000
    105205     19257  TIP3      H1            -32.0871381200       15.8741846351      -40.6091304440  TIP3      17897           0.0000000000
    105206     19257  TIP3      H2            -33.2093047888       16.4444967828      -41.4024504619  TIP3      17897           0.0000000000
    105207     19258  TIP3      OH2           -39.3805613565       10.4214940648      -41.1520962026  TIP3      17898           0.0000000000
    105208     19258  TIP3      H1            -38.4253731170       10.4847156244      -40.9714210234  TIP3      17898           0.0000000000
    105209     19258  TIP3      H2            -39.4263495678        9.8247232435      -41.9101452282  TIP3      17898           0.0000000000
    105210     19259  TIP3      OH2            40.7153948699       15.8127818824      -36.2779759596  TIP3      17899           0.0000000000
    105211     19259  TIP3      H1             39.9508972864       15.3426295407      -36.6392645364  TIP3      17899           0.0000000000
    105212     19259  TIP3      H2             40.9671486042       15.1950861238      -35.5615422409  TIP3      17899           0.0000000000
    105213     19260  TIP3      OH2           -39.8774266406       13.9218136186      -34.3932426982  TIP3      17900           0.0000000000
    105214     19260  TIP3      H1            -40.2394100674       13.0342401336      -34.2170586927  TIP3      17900           0.0000000000
    105215     19260  TIP3      H2            -39.6354930635       14.2557974952      -33.5058374826  TIP3      17900           0.0000000000
    105216     19261  TIP3      OH2           -22.3718525683       14.6971935618      -31.4245472671  TIP3      17901           0.0000000000
    105217     19261  TIP3      H1            -22.3434561508       14.8610754683      -30.4658806962  TIP3      17901           0.0000000000
    105218     19261  TIP3      H2            -21.6670801513       15.2784149436      -31.7290271038  TIP3      17901           0.0000000000
    105219     19262  TIP3      OH2           -22.7931386819       14.2903545840      -28.4799979451  TIP3      17902           0.0000000000
    105220     19262  TIP3      H1            -23.2674318838       13.5212585113      -28.8579845355  TIP3      17902           0.0000000000
    105221     19262  TIP3      H2            -22.2961128618       13.8489495722      -27.7736163800  TIP3      17902           0.0000000000
    105222     19263  TIP3      OH2           -23.0356048758        8.3360001100      -38.3845980278  TIP3      17903           0.0000000000
    105223     19263  TIP3      H1            -22.1752058195        8.7391508459      -38.1895536760  TIP3      17903           0.0000000000
    105224     19263  TIP3      H2            -23.0528396890        7.6215253666      -37.7086776235  TIP3      17903           0.0000000000
    105225     19264  TIP3      OH2           -22.7005305830        6.4369393112      -36.4964118454  TIP3      17904           0.0000000000
    105226     19264  TIP3      H1            -23.4143112623        5.9053321836      -36.0906521161  TIP3      17904           0.0000000000
    105227     19264  TIP3      H2            -22.0701641712        6.5350592482      -35.7385183579  TIP3      17904           0.0000000000
    105228     19265  TIP3      OH2           -22.9116054238        9.1150742484      -31.5097186957  TIP3      17905           0.0000000000
    105229     19265  TIP3      H1            -22.0955666394        8.7350689804      -31.8909301822  TIP3      17905           0.0000000000
    105230     19265  TIP3      H2            -22.7709201083       10.0694082497      -31.6791594004  TIP3      17905           0.0000000000
    105231     19266  TIP3      OH2           -24.3646394141       12.0171447982      -29.2297540473  TIP3      17906           0.0000000000
    105232     19266  TIP3      H1            -25.0574472054       12.3644103089      -28.6452337956  TIP3      17906           0.0000000000
    105233     19266  TIP3      H2            -24.9102908249       11.6163508038      -29.9407741018  TIP3      17906           0.0000000000
    105234     19267  TIP3      OH2           -22.3747685541        6.2561984646      -40.1221488997  TIP3      17907           0.0000000000
    105235     19267  TIP3      H1            -22.9494122368        6.6043835857      -40.8345353505  TIP3      17907           0.0000000000
    105236     19267  TIP3      H2            -22.4713706996        6.9534449294      -39.4475423294  TIP3      17907           0.0000000000
    105237     19268  TIP3      OH2           -24.0409525152        3.4565411351      -41.5444533137  TIP3      17908           0.0000000000
    105238     19268  TIP3      H1            -23.9353461116        4.1176269695      -42.2373607509  TIP3      17908           0.0000000000
    105239     19268  TIP3      H2            -24.1898809541        2.6396977603      -42.0643685090  TIP3      17908           0.0000000000
    105240     19269  TIP3      OH2           -24.8592774838        4.8921062640      -35.9254410898  TIP3      17909           0.0000000000
    105241     19269  TIP3      H1            -25.0033424548        3.9362630198      -35.9615456826  TIP3      17909           0.0000000000
    105242     19269  TIP3      H2            -25.1909469896        5.1135287998      -35.0382090534  TIP3      17909           0.0000000000
    105243     19270  TIP3      OH2           -39.8881408035        6.9421445805      -31.8934656821  TIP3      17910           0.0000000000
    105244     19270  TIP3      H1            -39.6748010488        6.8989415187      -32.8446316875  TIP3      17910           0.0000000000
    105245     19270  TIP3      H2            -39.0053760110        6.8346741825      -31.4909289504  TIP3      17910           0.0000000000
    105246     19271  TIP3      OH2           -24.0003781678        6.8637656486      -26.2133699166  TIP3      17911           0.0000000000
    105247     19271  TIP3      H1            -23.3840114725        6.1093306103      -26.0988794311  TIP3      17911           0.0000000000
    105248     19271  TIP3      H2            -23.3984009189        7.6311669753      -26.2443154878  TIP3      17911           0.0000000000
    105249     19272  TIP3      OH2           -22.5123662977        4.7631694831      -25.6450725915  TIP3      17912           0.0000000000
    105250     19272  TIP3      H1            -23.3889543866        4.3484312486      -25.7432754668  TIP3      17912           0.0000000000
    105251     19272  TIP3      H2            -21.9257582336        3.9870468928      -25.6445583725  TIP3      17912           0.0000000000
    105252     19273  TIP3      OH2           -24.7752156072        0.9684786936      -42.4021020055  TIP3      17913           0.0000000000
    105253     19273  TIP3      H1            -24.1734864751        0.4833902470      -41.8045878858  TIP3      17913           0.0000000000
    105254     19273  TIP3      H2            -25.6312530724        0.5252170869      -42.2842031774  TIP3      17913           0.0000000000
    105255     19274  TIP3      OH2           -25.1891402520        2.4729076026      -37.4471276287  TIP3      17914           0.0000000000
    105256     19274  TIP3      H1            -24.8884767408        1.5410330184      -37.3340792042  TIP3      17914           0.0000000000
    105257     19274  TIP3      H2            -24.3998001727        2.8736040787      -37.8376321596  TIP3      17914           0.0000000000
    105258     19275  TIP3      OH2           -24.5522627422        3.0195880636      -32.0236726110  TIP3      17915           0.0000000000
    105259     19275  TIP3      H1            -23.5912159331        3.2518984130      -32.0424434667  TIP3      17915           0.0000000000
    105260     19275  TIP3      H2            -24.7390456054        3.1604341046      -31.0832901220  TIP3      17915           0.0000000000
    105261     19276  TIP3      OH2           -24.4866459587        3.7429680837      -29.2383861868  TIP3      17916           0.0000000000
    105262     19276  TIP3      H1            -25.3595862291        4.0303495463      -28.8931236344  TIP3      17916           0.0000000000
    105263     19276  TIP3      H2            -24.0531184028        4.6006431874      -29.4651608289  TIP3      17916           0.0000000000
    105264     19277  TIP3      OH2           -40.1196838776        2.0813512728      -25.9190334503  TIP3      17917           0.0000000000
    105265     19277  TIP3      H1            -39.2351313680        2.0429890216      -25.5134604400  TIP3      17917           0.0000000000
    105266     19277  TIP3      H2            -40.6447255420        1.4737070731      -25.3997972598  TIP3      17917           0.0000000000
    105267     19278  TIP3      OH2           -22.2179283169       -2.2221437883      -23.9293105609  TIP3      17918           0.0000000000
    105268     19278  TIP3      H1            -21.8684809127       -2.8943636902      -24.5306258448  TIP3      17918           0.0000000000
    105269     19278  TIP3      H2            -22.1058973884       -1.3929752927      -24.4256409077  TIP3      17918           0.0000000000
    105270     19279  TIP3      OH2           -24.5206768756       -0.2509010581      -37.4215810617  TIP3      17919           0.0000000000
    105271     19279  TIP3      H1            -24.3105415098       -0.6845854845      -36.5658439784  TIP3      17919           0.0000000000
    105272     19279  TIP3      H2            -25.1282559755       -0.8805184991      -37.8643631190  TIP3      17919           0.0000000000
    105273     19280  TIP3      OH2           -39.0588286194        0.5513198675      -32.8692727991  TIP3      17920           0.0000000000
    105274     19280  TIP3      H1            -38.5803912511       -0.2531810646      -32.5915233929  TIP3      17920           0.0000000000
    105275     19280  TIP3      H2            -38.5267702754        1.2510316375      -32.4730071062  TIP3      17920           0.0000000000
    105276     19281  TIP3      OH2           -40.7790874960        3.8248720985      -32.4438337365  TIP3      17921           0.0000000000
    105277     19281  TIP3      H1            -40.0494062211        3.2693403702      -32.7659966040  TIP3      17921           0.0000000000
    105278     19281  TIP3      H2            -40.2406617708        4.3030231518      -31.7890651516  TIP3      17921           0.0000000000
    105279     19282  TIP3      OH2           -22.6963509393       -0.0829354691      -25.5305628243  TIP3      17922           0.0000000000
    105280     19282  TIP3      H1            -23.6309886128        0.1501284886      -25.6447954207  TIP3      17922           0.0000000000
    105281     19282  TIP3      H2            -22.6198158917       -0.6453564380      -26.3182511513  TIP3      17922           0.0000000000
    105282     19283  TIP3      OH2           -22.6982794578       -0.1851380007      -40.8824161926  TIP3      17923           0.0000000000
    105283     19283  TIP3      H1            -22.2613554548       -0.9065381880      -41.3564750732  TIP3      17923           0.0000000000
    105284     19283  TIP3      H2            -21.9797246003        0.4675042932      -40.8170764544  TIP3      17923           0.0000000000
    105285     19284  TIP3      OH2           -40.2197569301       -0.2874408088      -37.7553234727  TIP3      17924           0.0000000000
    105286     19284  TIP3      H1            -41.1573704045       -0.1050158214      -37.9903351407  TIP3      17924           0.0000000000
    105287     19284  TIP3      H2            -39.7851078780        0.3370318561      -38.3538759100  TIP3      17924           0.0000000000
    105288     19285  TIP3      OH2           -25.6473476819       14.7766533511      -35.8051737341  TIP3      17925           0.0000000000
    105289     19285  TIP3      H1            -24.9627798895       14.4706827449      -36.4224632847  TIP3      17925           0.0000000000
    105290     19285  TIP3      H2            -25.1332539521       15.2752143641      -35.1529043449  TIP3      17925           0.0000000000
    105291     19286  TIP3      OH2            41.0675887002       -1.3217035519      -29.2815264470  TIP3      17926           0.0000000000
    105292     19286  TIP3      H1             40.3483193780       -1.6753787071      -28.7871861084  TIP3      17926           0.0000000000
    105293     19286  TIP3      H2             40.5678597362       -0.8071071544      -29.9449882356  TIP3      17926           0.0000000000
    105294     19287  TIP3      OH2           -38.2704524350       11.8337973848      -25.3094157155  TIP3      17927           0.0000000000
    105295     19287  TIP3      H1            -39.1583465140       11.7598822421      -25.6883655030  TIP3      17927           0.0000000000
    105296     19287  TIP3      H2            -38.4665441978       11.5515626754      -24.3942582986  TIP3      17927           0.0000000000
    105297     19288  TIP3      OH2           -35.2963537565       12.7035989771      -28.9708113129  TIP3      17928           0.0000000000
    105298     19288  TIP3      H1            -35.6388937990       13.5440822546      -29.3235710375  TIP3      17928           0.0000000000
    105299     19288  TIP3      H2            -34.3789818302       12.7802888658      -29.3234219893  TIP3      17928           0.0000000000
    105300     19289  TIP3      OH2           -30.9738144637       14.0859198450      -26.1148923778  TIP3      17929           0.0000000000
    105301     19289  TIP3      H1            -30.8395761795       13.7879153182      -25.1836437396  TIP3      17929           0.0000000000
    105302     19289  TIP3      H2            -30.0785345764       14.4213029350      -26.3399039085  TIP3      17929           0.0000000000
    105303     19290  TIP3      OH2           -28.6843775949       15.3760607835      -26.8103414062  TIP3      17930           0.0000000000
    105304     19290  TIP3      H1            -27.9543343323       14.7844720033      -27.0399906555  TIP3      17930           0.0000000000
    105305     19290  TIP3      H2            -28.3110386025       15.8058578051      -26.0120878020  TIP3      17930           0.0000000000
    105306     19291  TIP3      OH2           -23.6747449078       -2.0031965407      -27.6946116825  TIP3      17931           0.0000000000
    105307     19291  TIP3      H1            -24.5041052410       -1.7100069570      -28.1100194561  TIP3      17931           0.0000000000
    105308     19291  TIP3      H2            -23.5018912948       -2.8239501671      -28.2140938542  TIP3      17931           0.0000000000
    105309     19292  TIP3      OH2           -37.9109691496       15.8584931943      -28.9960150429  TIP3      17932           0.0000000000
    105310     19292  TIP3      H1            -38.5908558924       16.4179908927      -29.4352128225  TIP3      17932           0.0000000000
    105311     19292  TIP3      H2            -38.2682321703       15.8326085650      -28.1118190697  TIP3      17932           0.0000000000
    105312     19293  TIP3      OH2           -35.4219843954       15.5135354370      -29.9444566255  TIP3      17933           0.0000000000
    105313     19293  TIP3      H1            -36.3151406491       15.6806303579      -29.5732646185  TIP3      17933           0.0000000000
    105314     19293  TIP3      H2            -35.4576134648       16.0990131622      -30.7269997278  TIP3      17933           0.0000000000
    105315     19294  TIP3      OH2           -30.7002821655       15.4154298064      -30.7728398614  TIP3      17934           0.0000000000
    105316     19294  TIP3      H1            -31.1594902784       15.9717890122      -31.4208588203  TIP3      17934           0.0000000000
    105317     19294  TIP3      H2            -30.5641814720       16.0480160846      -30.0380196895  TIP3      17934           0.0000000000
    105318     19295  TIP3      OH2           -28.4061029903       14.2300577609      -29.7532603165  TIP3      17935           0.0000000000
    105319     19295  TIP3      H1            -29.2656935381       14.5014190341      -30.1140622210  TIP3      17935           0.0000000000
    105320     19295  TIP3      H2            -27.9288016622       15.0732683501      -29.8449255038  TIP3      17935           0.0000000000
    105321     19296  TIP3      OH2           -25.8294648522       15.7971994075      -29.5250214096  TIP3      17936           0.0000000000
    105322     19296  TIP3      H1            -25.8881159221       16.7565564224      -29.7515953983  TIP3      17936           0.0000000000
    105323     19296  TIP3      H2            -25.6108922998       15.4274246256      -30.4033212439  TIP3      17936           0.0000000000
    105324     19297  TIP3      OH2           -38.4321288070       14.5536924942      -32.0795752826  TIP3      17937           0.0000000000
    105325     19297  TIP3      H1            -38.4510031594       14.1143002845      -31.2165740828  TIP3      17937           0.0000000000
    105326     19297  TIP3      H2            -37.6070098416       14.2216614052      -32.4920738774  TIP3      17937           0.0000000000
    105327     19298  TIP3      OH2           -36.3595733787       13.2859209808      -33.4090687538  TIP3      17938           0.0000000000
    105328     19298  TIP3      H1            -36.5121381624       12.3455744296      -33.2005663642  TIP3      17938           0.0000000000
    105329     19298  TIP3      H2            -35.5011644732       13.4411515569      -32.9633149226  TIP3      17938           0.0000000000
    105330     19299  TIP3      OH2           -33.7498544050       13.7643416211      -32.5382866947  TIP3      17939           0.0000000000
    105331     19299  TIP3      H1            -33.5774301791       12.8462007130      -32.8114177198  TIP3      17939           0.0000000000
    105332     19299  TIP3      H2            -33.6863364334       13.7046771582      -31.5759368230  TIP3      17939           0.0000000000
    105333     19300  TIP3      OH2           -30.2813368026       -0.5789092240      -33.4063814269  TIP3      17940           0.0000000000
    105334     19300  TIP3      H1            -30.9574257540       -1.2207071315      -33.1303839887  TIP3      17940           0.0000000000
    105335     19300  TIP3      H2            -29.7295427864       -1.1106896524      -33.9920214829  TIP3      17940           0.0000000000
    105336     19301  TIP3      OH2           -25.1457026177       -2.5241652845      -33.3434281739  TIP3      17941           0.0000000000
    105337     19301  TIP3      H1            -24.5311954615       -1.9348363749      -33.8486987158  TIP3      17941           0.0000000000
    105338     19301  TIP3      H2            -26.0280101131       -2.1668851679      -33.5730626138  TIP3      17941           0.0000000000
    105339     19302  TIP3      OH2           -23.4771749167       -1.2864289262      -35.0630601599  TIP3      17942           0.0000000000
    105340     19302  TIP3      H1            -22.7909841709       -1.8618991842      -35.4809606588  TIP3      17942           0.0000000000
    105341     19302  TIP3      H2            -22.9715182036       -0.4474878044      -34.9591018878  TIP3      17942           0.0000000000
    105342     19303  TIP3      OH2           -37.9167697064       -1.9661364335      -35.5708667218  TIP3      17943           0.0000000000
    105343     19303  TIP3      H1            -38.7293349442       -2.1751751795      -36.0705493944  TIP3      17943           0.0000000000
    105344     19303  TIP3      H2            -37.4337047257       -2.8129210177      -35.6227344960  TIP3      17943           0.0000000000
    105345     19304  TIP3      OH2           -39.1116216162       -2.2125860731      -39.8097282285  TIP3      17944           0.0000000000
    105346     19304  TIP3      H1            -38.6636039511       -1.5652916949      -40.3827199034  TIP3      17944           0.0000000000
    105347     19304  TIP3      H2            -39.7309224191       -1.6820961811      -39.2930727061  TIP3      17944           0.0000000000
    105348     19305  TIP3      OH2           -33.4355446443       -2.0275641746      -35.7738863238  TIP3      17945           0.0000000000
    105349     19305  TIP3      H1            -32.5353422768       -1.6673422773      -35.8404999945  TIP3      17945           0.0000000000
    105350     19305  TIP3      H2            -33.4755203564       -2.2457684102      -34.8437125745  TIP3      17945           0.0000000000
    105351     19306  TIP3      OH2           -27.7313358097       -2.0096697343      -34.1471983526  TIP3      17946           0.0000000000
    105352     19306  TIP3      H1            -27.7731983428       -1.8966761101      -35.1050476671  TIP3      17946           0.0000000000
    105353     19306  TIP3      H2            -28.1065687543       -2.9164602385      -34.0248699072  TIP3      17946           0.0000000000
    105354     19307  TIP3      OH2           -26.4536238005       -1.9789673009      -38.4897635347  TIP3      17947           0.0000000000
    105355     19307  TIP3      H1            -27.1992821755       -1.3811769658      -38.6439185408  TIP3      17947           0.0000000000
    105356     19307  TIP3      H2            -26.8887812307       -2.8293313268      -38.2527656038  TIP3      17947           0.0000000000
    105357     19308  TIP3      OH2           -39.2268394381       13.7705901708      -38.8204664172  TIP3      17948           0.0000000000
    105358     19308  TIP3      H1            -39.8813149363       13.7391236769      -39.5271190220  TIP3      17948           0.0000000000
    105359     19308  TIP3      H2            -39.1871337174       14.7202686126      -38.6617406441  TIP3      17948           0.0000000000
    105360     19309  TIP3      OH2           -37.3365899125       -0.2782257570      -41.3073695051  TIP3      17949           0.0000000000
    105361     19309  TIP3      H1            -36.7978559822       -0.8640055516      -41.8500745143  TIP3      17949           0.0000000000
    105362     19309  TIP3      H2            -36.6430527938        0.0662391459      -40.7182529956  TIP3      17949           0.0000000000
    105363     19310  TIP3      OH2           -32.2805523506       -0.0036547521      -38.9201441349  TIP3      17950           0.0000000000
    105364     19310  TIP3      H1            -32.0341561698       -0.5867388495      -38.1845015818  TIP3      17950           0.0000000000
    105365     19310  TIP3      H2            -32.2197092649        0.8554252495      -38.4462494432  TIP3      17950           0.0000000000
    105366     19311  TIP3      OH2           -30.3765156196       15.1021485157      -40.5157457060  TIP3      17951           0.0000000000
    105367     19311  TIP3      H1            -29.4296921136       15.2713812773      -40.6703136068  TIP3      17951           0.0000000000
    105368     19311  TIP3      H2            -30.5613820378       14.5235243763      -41.2883356115  TIP3      17951           0.0000000000
    105369     19312  TIP3      OH2           -23.6503646899       14.5674470548      -37.7640522272  TIP3      17952           0.0000000000
    105370     19312  TIP3      H1            -23.8539672368       13.7884691127      -38.3403994485  TIP3      17952           0.0000000000
    105371     19312  TIP3      H2            -23.7387561206       15.3021233051      -38.4004851005  TIP3      17952           0.0000000000
    105372     19313  TIP3      OH2           -38.0979928877       -1.3916118573      -26.0317131390  TIP3      17953           0.0000000000
    105373     19313  TIP3      H1            -38.3935871236       -2.2403490752      -25.6753562289  TIP3      17953           0.0000000000
    105374     19313  TIP3      H2            -37.1459668613       -1.4277352565      -25.7743864043  TIP3      17953           0.0000000000
    105375     19314  TIP3      OH2           -36.0150435049       -2.0233611855      -24.4172033442  TIP3      17954           0.0000000000
    105376     19314  TIP3      H1            -35.1527594772       -2.3549138485      -24.7418064499  TIP3      17954           0.0000000000
    105377     19314  TIP3      H2            -36.4089866197       -2.8545357318      -24.0976286703  TIP3      17954           0.0000000000
    105378     19315  TIP3      OH2           -37.2844771699       14.9025832974      -41.8620766588  TIP3      17955           0.0000000000
    105379     19315  TIP3      H1            -37.7048967326       14.9695082184      -40.9885917818  TIP3      17955           0.0000000000
    105380     19315  TIP3      H2            -36.6883088171       14.1514727171      -41.7035140467  TIP3      17955           0.0000000000
    105381     19316  TIP3      OH2           -27.6127624793       -2.7237055899      -24.3060941154  TIP3      17956           0.0000000000
    105382     19316  TIP3      H1            -27.5035004732       -3.2290542111      -23.4933295814  TIP3      17956           0.0000000000
    105383     19316  TIP3      H2            -26.7040510941       -2.7828505770      -24.6701971627  TIP3      17956           0.0000000000
    105384     19317  TIP3      OH2           -24.4183273487       13.3074223925      -25.6626205284  TIP3      17957           0.0000000000
    105385     19317  TIP3      H1            -25.2157134640       13.1710174233      -26.2164415785  TIP3      17957           0.0000000000
    105386     19317  TIP3      H2            -24.5155139339       14.2606328589      -25.4779827003  TIP3      17957           0.0000000000
    105387     19318  TIP3      OH2            -9.9472142219        7.1884485139      -35.7112191202  TIP3      17958           0.0000000000
    105388     19318  TIP3      H1             -9.9716742423        8.1689269030      -35.7410443031  TIP3      17958           0.0000000000
    105389     19318  TIP3      H2            -10.6870523390        6.9512697537      -36.2970545846  TIP3      17958           0.0000000000
    105390     19319  TIP3      OH2           -11.0880233710        6.4359893213      -32.1909921011  TIP3      17959           0.0000000000
    105391     19319  TIP3      H1            -11.1291091516        5.7857327796      -31.4770287952  TIP3      17959           0.0000000000
    105392     19319  TIP3      H2            -11.4444100493        5.9455896057      -32.9478938867  TIP3      17959           0.0000000000
    105393     19320  TIP3      OH2           -18.7860056227        6.1294146492      -30.6172995652  TIP3      17960           0.0000000000
    105394     19320  TIP3      H1            -18.6600128207        5.4257282146      -29.9507856834  TIP3      17960           0.0000000000
    105395     19320  TIP3      H2            -18.0046880382        6.6819272763      -30.4656383419  TIP3      17960           0.0000000000
    105396     19321  TIP3      OH2            -7.4219928325        9.3899210564      -33.9173334475  TIP3      17961           0.0000000000
    105397     19321  TIP3      H1             -7.8397811497        8.6736508484      -33.4290499935  TIP3      17961           0.0000000000
    105398     19321  TIP3      H2             -7.4016263780       10.0995633925      -33.2488754312  TIP3      17961           0.0000000000
    105399     19322  TIP3      OH2           -17.8271983989       10.6225080547      -32.1511614372  TIP3      17962           0.0000000000
    105400     19322  TIP3      H1            -18.1272520297        9.7234294792      -32.4336806965  TIP3      17962           0.0000000000
    105401     19322  TIP3      H2            -16.8801082591       10.3931162188      -32.0888363282  TIP3      17962           0.0000000000
    105402     19323  TIP3      OH2           -21.1983088245        4.1084306232      -36.6740041569  TIP3      17963           0.0000000000
    105403     19323  TIP3      H1            -21.6180801189        4.9894588864      -36.7189538516  TIP3      17963           0.0000000000
    105404     19323  TIP3      H2            -21.7649313439        3.5795020083      -37.2358577078  TIP3      17963           0.0000000000
    105405     19324  TIP3      OH2           -20.7368471568        6.3146558196      -34.5796515432  TIP3      17964           0.0000000000
    105406     19324  TIP3      H1            -20.2745166024        5.6059284469      -34.0753210933  TIP3      17964           0.0000000000
    105407     19324  TIP3      H2            -19.9067147926        6.4795377453      -35.0893718332  TIP3      17964           0.0000000000
    105408     19325  TIP3      OH2           -10.2999282950       14.5485180250      -33.6784532548  TIP3      17965           0.0000000000
    105409     19325  TIP3      H1             -9.6567406802       13.8539477345      -33.9658516101  TIP3      17965           0.0000000000
    105410     19325  TIP3      H2            -10.5164942515       14.2179509561      -32.8073900874  TIP3      17965           0.0000000000
    105411     19326  TIP3      OH2           -12.7366801596        8.8411642352      -31.7347403520  TIP3      17966           0.0000000000
    105412     19326  TIP3      H1            -12.3972293801        8.2145913536      -32.3917226927  TIP3      17966           0.0000000000
    105413     19326  TIP3      H2            -11.9301250307        8.9986659925      -31.2134685599  TIP3      17966           0.0000000000
    105414     19327  TIP3      OH2            -4.1347700053        0.5012303318      -31.0018286907  TIP3      17967           0.0000000000
    105415     19327  TIP3      H1             -3.9615946191        1.0919573952      -30.2373949321  TIP3      17967           0.0000000000
    105416     19327  TIP3      H2             -3.5737381710        0.9252950114      -31.6666915723  TIP3      17967           0.0000000000
    105417     19328  TIP3      OH2            -9.5699629306        3.3104140133      -31.4193256500  TIP3      17968           0.0000000000
    105418     19328  TIP3      H1             -9.4038869685        2.3511701816      -31.4170900661  TIP3      17968           0.0000000000
    105419     19328  TIP3      H2             -9.6714923860        3.4531137399      -32.3803177117  TIP3      17968           0.0000000000
    105420     19329  TIP3      OH2           -16.4420484199        1.3864808831      -34.2028126218  TIP3      17969           0.0000000000
    105421     19329  TIP3      H1            -16.3628769703        2.2454600266      -34.6732690738  TIP3      17969           0.0000000000
    105422     19329  TIP3      H2            -16.8665107701        0.8409530606      -34.8955095285  TIP3      17969           0.0000000000
    105423     19330  TIP3      OH2            -8.7171356462        1.4786163450      -35.8282580987  TIP3      17970           0.0000000000
    105424     19330  TIP3      H1             -8.0612219199        1.1665624596      -35.1618858249  TIP3      17970           0.0000000000
    105425     19330  TIP3      H2             -8.1562911044        2.0530446248      -36.3757255521  TIP3      17970           0.0000000000
    105426     19331  TIP3      OH2           -19.9483616523        3.6575477452      -33.4325576258  TIP3      17971           0.0000000000
    105427     19331  TIP3      H1            -19.1375811886        3.3014434230      -33.0299421526  TIP3      17971           0.0000000000
    105428     19331  TIP3      H2            -19.6958931341        3.5678322104      -34.3677536532  TIP3      17971           0.0000000000
    105429     19332  TIP3      OH2           -14.6462358572        5.3686527822      -34.1571701173  TIP3      17972           0.0000000000
    105430     19332  TIP3      H1            -14.0128581205        4.7639890592      -33.7461801070  TIP3      17972           0.0000000000
    105431     19332  TIP3      H2            -15.2306870851        4.7399343351      -34.6361036995  TIP3      17972           0.0000000000
    105432     19333  TIP3      OH2            -3.6918399767        1.9091137660      -28.7278073832  TIP3      17973           0.0000000000
    105433     19333  TIP3      H1             -4.3098730440        2.6640995583      -28.8399163418  TIP3      17973           0.0000000000
    105434     19333  TIP3      H2             -3.6620341301        1.8211536949      -27.7679939829  TIP3      17973           0.0000000000
    105435     19334  TIP3      OH2           -17.5491287420        0.2936803315      -30.1542646621  TIP3      17974           0.0000000000
    105436     19334  TIP3      H1            -17.8267489325        0.8650758212      -30.9050770462  TIP3      17974           0.0000000000
    105437     19334  TIP3      H2            -18.2286391863        0.5286295259      -29.4776878070  TIP3      17974           0.0000000000
    105438     19335  TIP3      OH2           -10.2566306276        9.7794901828      -36.6163746049  TIP3      17975           0.0000000000
    105439     19335  TIP3      H1            -10.5351057816        9.4948807100      -37.4974634389  TIP3      17975           0.0000000000
    105440     19335  TIP3      H2            -10.5654167541       10.7141165703      -36.5642513032  TIP3      17975           0.0000000000
    105441     19336  TIP3      OH2           -15.0085580904        7.9522148578      -29.8761331358  TIP3      17976           0.0000000000
    105442     19336  TIP3      H1            -15.7459088138        8.5797749344      -29.7226605170  TIP3      17976           0.0000000000
    105443     19336  TIP3      H2            -14.3219116602        8.5477299531      -30.2074870671  TIP3      17976           0.0000000000
    105444     19337  TIP3      OH2            -6.9081146210        0.8240409607      -33.8369057613  TIP3      17977           0.0000000000
    105445     19337  TIP3      H1             -7.1269247609        0.0552875065      -33.3028950188  TIP3      17977           0.0000000000
    105446     19337  TIP3      H2             -6.2379582407        1.2623215765      -33.2851559134  TIP3      17977           0.0000000000
    105447     19338  TIP3      OH2           -17.9601160100        2.1081639486      -32.0949393531  TIP3      17978           0.0000000000
    105448     19338  TIP3      H1            -17.3642281654        2.8392461617      -31.8183159632  TIP3      17978           0.0000000000
    105449     19338  TIP3      H2            -17.4694743647        1.7599552341      -32.8782046272  TIP3      17978           0.0000000000
    105450     19339  TIP3      OH2           -16.5897912218        9.9446222186      -29.1091836110  TIP3      17979           0.0000000000
    105451     19339  TIP3      H1            -16.6332221495       10.8617770488      -29.4368943604  TIP3      17979           0.0000000000
    105452     19339  TIP3      H2            -17.4655548760        9.8703061979      -28.6524297087  TIP3      17979           0.0000000000
    105453     19340  TIP3      OH2           -20.5396307717        9.5752706950      -38.3217903179  TIP3      17980           0.0000000000
    105454     19340  TIP3      H1            -20.7417912884        9.8891129431      -39.2246855380  TIP3      17980           0.0000000000
    105455     19340  TIP3      H2            -20.4485381609       10.4134170594      -37.8247730228  TIP3      17980           0.0000000000
    105456     19341  TIP3      OH2            -6.8951678005       11.2267488549      -31.5516920860  TIP3      17981           0.0000000000
    105457     19341  TIP3      H1             -7.8631121809       11.3372060452      -31.4284899069  TIP3      17981           0.0000000000
    105458     19341  TIP3      H2             -6.6251160520       12.1441000873      -31.7477576367  TIP3      17981           0.0000000000
    105459     19342  TIP3      OH2            -6.5739837997       -0.4883426280      -30.1588828993  TIP3      17982           0.0000000000
    105460     19342  TIP3      H1             -7.2989990784        0.1433895802      -30.2465578891  TIP3      17982           0.0000000000
    105461     19342  TIP3      H2             -5.8617066448       -0.0685003841      -30.6846532464  TIP3      17982           0.0000000000
    105462     19343  TIP3      OH2           -13.6026741449       -2.3685290468      -32.6938141485  TIP3      17983           0.0000000000
    105463     19343  TIP3      H1            -13.7424797586       -3.3316639231      -32.7675983201  TIP3      17983           0.0000000000
    105464     19343  TIP3      H2            -14.4815985027       -2.0628680806      -32.3908751940  TIP3      17983           0.0000000000
    105465     19344  TIP3      OH2            -8.6367075457       13.0146714702      -34.9566610229  TIP3      17984           0.0000000000
    105466     19344  TIP3      H1             -8.2078271943       12.2945669404      -35.4659318648  TIP3      17984           0.0000000000
    105467     19344  TIP3      H2             -8.2120343833       13.8034509626      -35.3551971150  TIP3      17984           0.0000000000
    105468     19345  TIP3      OH2            -7.4307007101       10.9387552117      -36.4448114461  TIP3      17985           0.0000000000
    105469     19345  TIP3      H1             -7.7066162192       10.2378644523      -37.0648185219  TIP3      17985           0.0000000000
    105470     19345  TIP3      H2             -7.3915270663       10.4449799280      -35.6054910833  TIP3      17985           0.0000000000
    105471     19346  TIP3      OH2            -5.8016779583        9.5326846994      -27.9490895822  TIP3      17986           0.0000000000
    105472     19346  TIP3      H1             -5.6571451699        8.8812076251      -28.6713295113  TIP3      17986           0.0000000000
    105473     19346  TIP3      H2             -5.6068388973       10.3792651033      -28.3879487195  TIP3      17986           0.0000000000
    105474     19347  TIP3      OH2           -11.3039529221        6.4117011096      -38.1866037416  TIP3      17987           0.0000000000
    105475     19347  TIP3      H1            -11.9983345137        6.9910188883      -38.5507887069  TIP3      17987           0.0000000000
    105476     19347  TIP3      H2            -10.5864520631        6.5092409070      -38.8499713849  TIP3      17987           0.0000000000
    105477     19348  TIP3      OH2           -11.2544223911        4.9569743663      -41.1208509892  TIP3      17988           0.0000000000
    105478     19348  TIP3      H1            -10.5146533787        4.9788669094      -40.4861704764  TIP3      17988           0.0000000000
    105479     19348  TIP3      H2            -10.9414970788        4.2781121748      -41.7250450656  TIP3      17988           0.0000000000
    105480     19349  TIP3      OH2            -3.9205743065        5.8443852851      -29.9016839440  TIP3      17989           0.0000000000
    105481     19349  TIP3      H1             -4.5816667246        6.5636099194      -29.8619846244  TIP3      17989           0.0000000000
    105482     19349  TIP3      H2             -3.4323856171        6.0760137686      -30.7120453701  TIP3      17989           0.0000000000
    105483     19350  TIP3      OH2            -7.8572719054        6.6451364152      -37.2503964272  TIP3      17990           0.0000000000
    105484     19350  TIP3      H1             -8.6096968103        6.8727979257      -36.6606509437  TIP3      17990           0.0000000000
    105485     19350  TIP3      H2             -7.3836748949        5.9560099370      -36.7569563348  TIP3      17990           0.0000000000
    105486     19351  TIP3      OH2            -7.9298920422        4.8054145141      -28.1443293558  TIP3      17991           0.0000000000
    105487     19351  TIP3      H1             -7.9353526480        5.6211126660      -27.6135503758  TIP3      17991           0.0000000000
    105488     19351  TIP3      H2             -8.5660727042        5.0934030754      -28.8330356193  TIP3      17991           0.0000000000
    105489     19352  TIP3      OH2           -15.9385020246        7.4203429683      -35.5577615189  TIP3      17992           0.0000000000
    105490     19352  TIP3      H1            -16.5868871261        6.9391153347      -36.1137071393  TIP3      17992           0.0000000000
    105491     19352  TIP3      H2            -15.6760398029        6.6509300919      -35.0009023777  TIP3      17992           0.0000000000
    105492     19353  TIP3      OH2           -14.9328206741       10.6876649049      -32.6676848363  TIP3      17993           0.0000000000
    105493     19353  TIP3      H1            -14.9572199094       10.1379247377      -33.4643183078  TIP3      17993           0.0000000000
    105494     19353  TIP3      H2            -14.1500226213       10.3253784629      -32.2097477286  TIP3      17993           0.0000000000
    105495     19354  TIP3      OH2           -15.8664857896        5.9954326883      -31.6333446769  TIP3      17994           0.0000000000
    105496     19354  TIP3      H1            -15.4177756121        6.1410796963      -32.4943589865  TIP3      17994           0.0000000000
    105497     19354  TIP3      H2            -15.5353807863        6.7288206038      -31.0845712443  TIP3      17994           0.0000000000
    105498     19355  TIP3      OH2            -9.5073395347       11.6083922499      -30.9820388996  TIP3      17995           0.0000000000
    105499     19355  TIP3      H1             -9.7972986086       12.2464861112      -30.3253878841  TIP3      17995           0.0000000000
    105500     19355  TIP3      H2             -9.7652399503       10.7546480627      -30.5577564789  TIP3      17995           0.0000000000
    105501     19356  TIP3      OH2           -14.9738461727       10.4607681375      -26.9848132131  TIP3      17996           0.0000000000
    105502     19356  TIP3      H1            -15.3738868887       11.2176916932      -26.5153420678  TIP3      17996           0.0000000000
    105503     19356  TIP3      H2            -15.6427885937       10.2639967342      -27.6884184813  TIP3      17996           0.0000000000
    105504     19357  TIP3      OH2            -9.0026354458        5.8480297145      -39.5835003056  TIP3      17997           0.0000000000
    105505     19357  TIP3      H1             -8.3962115017        5.9909114060      -38.8109798926  TIP3      17997           0.0000000000
    105506     19357  TIP3      H2             -8.5305941203        6.3188390599      -40.3034250316  TIP3      17997           0.0000000000
    105507     19358  TIP3      OH2           -18.0304985285        6.6335555602      -27.8201150695  TIP3      17998           0.0000000000
    105508     19358  TIP3      H1            -17.9857933322        7.2951748250      -27.1020439710  TIP3      17998           0.0000000000
    105509     19358  TIP3      H2            -18.9615262961        6.7334089445      -28.0690329150  TIP3      17998           0.0000000000
    105510     19359  TIP3      OH2           -11.2744898943       12.5578019892      -36.1264951341  TIP3      17999           0.0000000000
    105511     19359  TIP3      H1            -10.8406572732       12.8633623507      -35.3221448733  TIP3      17999           0.0000000000
    105512     19359  TIP3      H2            -11.8344220626       13.3056339520      -36.3624648314  TIP3      17999           0.0000000000
    105513     19360  TIP3      OH2           -16.7516356953       12.5132348168      -26.2401848270  TIP3      18000           0.0000000000
    105514     19360  TIP3      H1            -16.7672823492       12.3989598423      -27.2055383480  TIP3      18000           0.0000000000
    105515     19360  TIP3      H2            -17.6822087700       12.3621463942      -26.0067446291  TIP3      18000           0.0000000000
    105516     19361  TIP3      OH2            -5.2697165859       -2.4459359492      -39.6879495469  TIP3      18001           0.0000000000
    105517     19361  TIP3      H1             -6.2223318787       -2.3237819356      -39.4581104306  TIP3      18001           0.0000000000
    105518     19361  TIP3      H2             -5.0623820272       -1.5956470222      -40.1136298317  TIP3      18001           0.0000000000
    105519     19362  TIP3      OH2           -17.2330393548        6.3016504090      -37.8338289729  TIP3      18002           0.0000000000
    105520     19362  TIP3      H1            -17.5860926958        7.1089478551      -38.2422854771  TIP3      18002           0.0000000000
    105521     19362  TIP3      H2            -17.9438935539        5.6624915161      -37.9135503288  TIP3      18002           0.0000000000
    105522     19363  TIP3      OH2            -4.1756233683       11.9210774864      -41.2602524292  TIP3      18003           0.0000000000
    105523     19363  TIP3      H1             -4.0249557468       12.8781175832      -41.2182695190  TIP3      18003           0.0000000000
    105524     19363  TIP3      H2             -3.2618093942       11.6185581248      -41.4330293464  TIP3      18003           0.0000000000
    105525     19364  TIP3      OH2           -21.2003311331        8.7444482081      -28.8359944409  TIP3      18004           0.0000000000
    105526     19364  TIP3      H1            -21.6450561647        8.6632470751      -29.6981591937  TIP3      18004           0.0000000000
    105527     19364  TIP3      H2            -21.1159760414        7.7969101609      -28.6218314379  TIP3      18004           0.0000000000
    105528     19365  TIP3      OH2           -21.4265888589       11.4803307191      -32.0550950219  TIP3      18005           0.0000000000
    105529     19365  TIP3      H1            -20.4685417788       11.3637695253      -32.0766903389  TIP3      18005           0.0000000000
    105530     19365  TIP3      H2            -21.5120671679       12.2967318397      -31.5493810308  TIP3      18005           0.0000000000
    105531     19366  TIP3      OH2            -3.2395856922       12.1511811054      -26.4196358420  TIP3      18006           0.0000000000
    105532     19366  TIP3      H1             -3.3102079358       11.1834878016      -26.4006966657  TIP3      18006           0.0000000000
    105533     19366  TIP3      H2             -4.0687057849       12.4254897090      -25.9767119558  TIP3      18006           0.0000000000
    105534     19367  TIP3      OH2           -12.2259278364       11.7185999117      -27.4937688525  TIP3      18007           0.0000000000
    105535     19367  TIP3      H1            -12.1825383036       12.5701445239      -26.9978367609  TIP3      18007           0.0000000000
    105536     19367  TIP3      H2            -13.1100947980       11.3707846264      -27.2676253319  TIP3      18007           0.0000000000
    105537     19368  TIP3      OH2           -11.8053119960       15.4734932162      -37.7178524879  TIP3      18008           0.0000000000
    105538     19368  TIP3      H1            -11.8932293243       15.4009022021      -38.6823429980  TIP3      18008           0.0000000000
    105539     19368  TIP3      H2            -11.7734498410       16.4325291217      -37.5654456977  TIP3      18008           0.0000000000
    105540     19369  TIP3      OH2           -18.1568571309       14.3448512122      -35.8943114195  TIP3      18009           0.0000000000
    105541     19369  TIP3      H1            -18.0085423998       13.9306564830      -35.0126993820  TIP3      18009           0.0000000000
    105542     19369  TIP3      H2            -19.0063497570       13.9384511934      -36.1289678022  TIP3      18009           0.0000000000
    105543     19370  TIP3      OH2            -8.7894843713       14.6699410769      -40.7631817814  TIP3      18010           0.0000000000
    105544     19370  TIP3      H1             -8.2892260928       13.9288959937      -41.1719779762  TIP3      18010           0.0000000000
    105545     19370  TIP3      H2             -8.7136297555       14.4325877914      -39.8192188069  TIP3      18010           0.0000000000
    105546     19371  TIP3      OH2            -9.0445302475       14.6070059722      -37.9459371997  TIP3      18011           0.0000000000
    105547     19371  TIP3      H1            -10.0052636291       14.6970456918      -37.7787868735  TIP3      18011           0.0000000000
    105548     19371  TIP3      H2             -8.8096578441       13.8616329270      -37.3762306491  TIP3      18011           0.0000000000
    105549     19372  TIP3      OH2            -6.0375109337        3.6595748746      -25.9193089394  TIP3      18012           0.0000000000
    105550     19372  TIP3      H1             -6.5176644905        4.1121823152      -26.6295786410  TIP3      18012           0.0000000000
    105551     19372  TIP3      H2             -6.0566867645        2.7345034852      -26.2059185020  TIP3      18012           0.0000000000
    105552     19373  TIP3      OH2           -18.9187267893       10.0501153050      -27.9213823516  TIP3      18013           0.0000000000
    105553     19373  TIP3      H1            -18.6914410135        9.6791847199      -27.0450987114  TIP3      18013           0.0000000000
    105554     19373  TIP3      H2            -19.7896142839        9.6557808896      -28.1186323566  TIP3      18013           0.0000000000
    105555     19374  TIP3      OH2           -16.2292638765       -1.4687172008      -31.9417292156  TIP3      18014           0.0000000000
    105556     19374  TIP3      H1            -17.1319286679       -1.5891935134      -32.3112202753  TIP3      18014           0.0000000000
    105557     19374  TIP3      H2            -16.3574944953       -0.6338962650      -31.4621910694  TIP3      18014           0.0000000000
    105558     19375  TIP3      OH2           -11.5849970252       -1.7989150342      -28.5732251571  TIP3      18015           0.0000000000
    105559     19375  TIP3      H1            -11.1973338780       -2.2164233424      -27.7791401100  TIP3      18015           0.0000000000
    105560     19375  TIP3      H2            -12.5572473641       -1.9188483952      -28.4335028444  TIP3      18015           0.0000000000
    105561     19376  TIP3      OH2            -8.2919054829        2.0489131210      -27.6808721243  TIP3      18016           0.0000000000
    105562     19376  TIP3      H1             -8.8552711420        1.8391230987      -26.8990367439  TIP3      18016           0.0000000000
    105563     19376  TIP3      H2             -8.4785143643        2.9735941670      -27.9118591498  TIP3      18016           0.0000000000
    105564     19377  TIP3      OH2            -7.6739399857        6.9986788592      -41.9873396062  TIP3      18017           0.0000000000
    105565     19377  TIP3      H1             -7.4987130835        6.6316431805      -42.8529792588  TIP3      18017           0.0000000000
    105566     19377  TIP3      H2             -6.7583829344        7.2004561091      -41.6749459493  TIP3      18017           0.0000000000
    105567     19378  TIP3      OH2           -11.9529496697        0.7721017434      -41.2388141359  TIP3      18018           0.0000000000
    105568     19378  TIP3      H1            -12.2679066920        0.7315343035      -40.3177614345  TIP3      18018           0.0000000000
    105569     19378  TIP3      H2            -12.2251874922       -0.1045442321      -41.5244446035  TIP3      18018           0.0000000000
    105570     19379  TIP3      OH2           -16.1084855799        3.5093035300      -30.6785812756  TIP3      18019           0.0000000000
    105571     19379  TIP3      H1            -16.8698049836        3.5011797373      -30.0734669851  TIP3      18019           0.0000000000
    105572     19379  TIP3      H2            -16.1782757332        4.4088071471      -31.0846728851  TIP3      18019           0.0000000000
    105573     19380  TIP3      OH2           -16.1207123681        3.5402612126      -35.8373312754  TIP3      18020           0.0000000000
    105574     19380  TIP3      H1            -17.0915892520        3.4332977012      -35.9434610073  TIP3      18020           0.0000000000
    105575     19380  TIP3      H2            -15.7900073298        3.3211332182      -36.7187121934  TIP3      18020           0.0000000000
    105576     19381  TIP3      OH2           -10.6390803917        4.1192963433      -37.0751916006  TIP3      18021           0.0000000000
    105577     19381  TIP3      H1            -11.0627687292        4.9512018270      -37.4002131133  TIP3      18021           0.0000000000
    105578     19381  TIP3      H2             -9.9462662879        3.9772980053      -37.7454636990  TIP3      18021           0.0000000000
    105579     19382  TIP3      OH2           -11.5851291947        4.3363120797      -25.6346645683  TIP3      18022           0.0000000000
    105580     19382  TIP3      H1            -12.1219274814        3.5815072733      -25.2991463004  TIP3      18022           0.0000000000
    105581     19382  TIP3      H2            -10.7553387705        4.2208328104      -25.1446441017  TIP3      18022           0.0000000000
    105582     19383  TIP3      OH2            -9.6133650855        3.6157465463      -34.2151127275  TIP3      18023           0.0000000000
    105583     19383  TIP3      H1             -9.8902624942        4.1787250329      -34.9568454500  TIP3      18023           0.0000000000
    105584     19383  TIP3      H2             -9.5127846429        2.7656893120      -34.6844635777  TIP3      18023           0.0000000000
    105585     19384  TIP3      OH2           -18.5016225101        3.7564533387      -28.9923942828  TIP3      18024           0.0000000000
    105586     19384  TIP3      H1            -18.4320493415        4.1674500977      -28.1149083293  TIP3      18024           0.0000000000
    105587     19384  TIP3      H2            -18.9509040164        2.9199221181      -28.7979941018  TIP3      18024           0.0000000000
    105588     19385  TIP3      OH2           -15.1252308493        1.1066380247      -42.1778505207  TIP3      18025           0.0000000000
    105589     19385  TIP3      H1            -15.5748017593        0.7321036915      -41.4031013018  TIP3      18025           0.0000000000
    105590     19385  TIP3      H2            -15.8179901512        1.5729676470      -42.6599394854  TIP3      18025           0.0000000000
    105591     19386  TIP3      OH2           -21.8461821797        0.8696473629      -35.0344890805  TIP3      18026           0.0000000000
    105592     19386  TIP3      H1            -21.1614397665        0.8510748196      -34.3318910187  TIP3      18026           0.0000000000
    105593     19386  TIP3      H2            -21.3901932906        0.4962738429      -35.8068161187  TIP3      18026           0.0000000000
    105594     19387  TIP3      OH2           -20.5644061578        1.5989402304      -39.6340722009  TIP3      18027           0.0000000000
    105595     19387  TIP3      H1            -20.0645994708        2.1885714961      -40.2370552724  TIP3      18027           0.0000000000
    105596     19387  TIP3      H2            -21.2558437251        2.2261761052      -39.3334429228  TIP3      18027           0.0000000000
    105597     19388  TIP3      OH2           -10.3951385886        5.2033900292      -29.6445890973  TIP3      18028           0.0000000000
    105598     19388  TIP3      H1            -10.0364397442        4.5196412581      -30.2449437122  TIP3      18028           0.0000000000
    105599     19388  TIP3      H2            -10.8737672740        4.6746133462      -28.9810437842  TIP3      18028           0.0000000000
    105600     19389  TIP3      OH2           -13.6068590376        1.1779144846      -34.8237415683  TIP3      18029           0.0000000000
    105601     19389  TIP3      H1            -14.5426880162        1.1957767458      -34.5343985256  TIP3      18029           0.0000000000
    105602     19389  TIP3      H2            -13.1278626008        1.0146994793      -33.9974249252  TIP3      18029           0.0000000000
    105603     19390  TIP3      OH2           -18.8046340733        2.7076692669      -35.9454297597  TIP3      18030           0.0000000000
    105604     19390  TIP3      H1            -19.6782465963        2.9036895464      -36.3353993528  TIP3      18030           0.0000000000
    105605     19390  TIP3      H2            -18.5206463828        1.8859938457      -36.3675242451  TIP3      18030           0.0000000000
    105606     19391  TIP3      OH2           -15.1480850870        2.7585673482      -38.3488753251  TIP3      18031           0.0000000000
    105607     19391  TIP3      H1            -14.1998886480        2.8869934800      -38.1658302264  TIP3      18031           0.0000000000
    105608     19391  TIP3      H2            -15.4016982174        3.4531540128      -38.9857014980  TIP3      18031           0.0000000000
    105609     19392  TIP3      OH2            -9.2045332876        0.4108852734      -31.5820088615  TIP3      18032           0.0000000000
    105610     19392  TIP3      H1             -9.8879185695        0.4635102098      -30.8748845688  TIP3      18032           0.0000000000
    105611     19392  TIP3      H2             -9.7149633970        0.1629610428      -32.3658510289  TIP3      18032           0.0000000000
    105612     19393  TIP3      OH2           -16.4413781976        3.9598643506      -40.6993024548  TIP3      18033           0.0000000000
    105613     19393  TIP3      H1            -16.9990419533        3.6025735896      -41.4147191827  TIP3      18033           0.0000000000
    105614     19393  TIP3      H2            -15.6391073888        4.1764380916      -41.2029680935  TIP3      18033           0.0000000000
    105615     19394  TIP3      OH2            -6.0617039852       16.0291465049      -25.3006592478  TIP3      18034           0.0000000000
    105616     19394  TIP3      H1             -5.7186069185       16.4444426133      -26.1067508151  TIP3      18034           0.0000000000
    105617     19394  TIP3      H2             -5.3564500140       16.3610405067      -24.6812751791  TIP3      18034           0.0000000000
    105618     19395  TIP3      OH2           -18.3031529303        8.5337242856      -25.6747548666  TIP3      18035           0.0000000000
    105619     19395  TIP3      H1            -17.6102680484        8.7752171868      -25.0421050239  TIP3      18035           0.0000000000
    105620     19395  TIP3      H2            -19.0931881883        8.6273051211      -25.0965741597  TIP3      18035           0.0000000000
    105621     19396  TIP3      OH2           -12.3269297979        3.9330805243      -32.9259441269  TIP3      18036           0.0000000000
    105622     19396  TIP3      H1            -11.7293023729        3.3991666802      -33.4632657843  TIP3      18036           0.0000000000
    105623     19396  TIP3      H2            -12.4692210647        3.3848197588      -32.1428737433  TIP3      18036           0.0000000000
    105624     19397  TIP3      OH2           -17.3169533764        0.0791709791      -36.4946886641  TIP3      18037           0.0000000000
    105625     19397  TIP3      H1            -17.6248012622       -0.8450834693      -36.5049547217  TIP3      18037           0.0000000000
    105626     19397  TIP3      H2            -16.5264890984        0.0155683802      -37.0456816035  TIP3      18037           0.0000000000
    105627     19398  TIP3      OH2           -13.6848108764        2.2604760882      -30.5100517326  TIP3      18038           0.0000000000
    105628     19398  TIP3      H1            -14.5130455265        2.7798685645      -30.4230395567  TIP3      18038           0.0000000000
    105629     19398  TIP3      H2            -13.1345171257        2.6131727069      -29.7866231205  TIP3      18038           0.0000000000
    105630     19399  TIP3      OH2           -13.1016610024        8.4949710237      -38.8354426605  TIP3      18039           0.0000000000
    105631     19399  TIP3      H1            -13.9034399548        8.0130904179      -39.1434652855  TIP3      18039           0.0000000000
    105632     19399  TIP3      H2            -13.3111489252        8.6023045130      -37.8836596091  TIP3      18039           0.0000000000
    105633     19400  TIP3      OH2            -5.9180528829        7.6839897052      -30.0146180739  TIP3      18040           0.0000000000
    105634     19400  TIP3      H1             -5.3499980341        8.1652513145      -30.6424971526  TIP3      18040           0.0000000000
    105635     19400  TIP3      H2             -6.7769505486        7.7366534144      -30.4814079632  TIP3      18040           0.0000000000
    105636     19401  TIP3      OH2            -9.2703564096        1.2751784456      -40.6024047634  TIP3      18041           0.0000000000
    105637     19401  TIP3      H1            -10.2078541133        1.4312837080      -40.8067487097  TIP3      18041           0.0000000000
    105638     19401  TIP3      H2             -8.9325399585        2.1541566446      -40.3324227620  TIP3      18041           0.0000000000
    105639     19402  TIP3      OH2           -11.6002656334        8.7452202975      -27.5705929467  TIP3      18042           0.0000000000
    105640     19402  TIP3      H1            -11.9515218386        8.3197129100      -26.7773619739  TIP3      18042           0.0000000000
    105641     19402  TIP3      H2            -11.8684712070        9.6664565463      -27.4797129596  TIP3      18042           0.0000000000
    105642     19403  TIP3      OH2            -8.5357281959        3.2168695961      -38.9580410103  TIP3      18043           0.0000000000
    105643     19403  TIP3      H1             -7.6333562804        3.0924552036      -38.6068871315  TIP3      18043           0.0000000000
    105644     19403  TIP3      H2             -8.4397987258        4.0236322659      -39.4897001283  TIP3      18043           0.0000000000
    105645     19404  TIP3      OH2           -17.8279258349        8.0483420508      -32.7021112308  TIP3      18044           0.0000000000
    105646     19404  TIP3      H1            -17.4115216220        7.8861334455      -33.5735494731  TIP3      18044           0.0000000000
    105647     19404  TIP3      H2            -17.9972841834        7.0983021758      -32.5489904918  TIP3      18044           0.0000000000
    105648     19405  TIP3      OH2           -11.0052628580        9.9521493473      -39.7652107481  TIP3      18045           0.0000000000
    105649     19405  TIP3      H1            -11.3460554928       10.8012194917      -39.4106993948  TIP3      18045           0.0000000000
    105650     19405  TIP3      H2            -11.7463778526        9.3384412314      -39.5531679796  TIP3      18045           0.0000000000
    105651     19406  TIP3      OH2           -21.0142366380        6.2919927150      -27.7469965790  TIP3      18046           0.0000000000
    105652     19406  TIP3      H1            -20.8122634529        5.8436359007      -26.9051363388  TIP3      18046           0.0000000000
    105653     19406  TIP3      H2            -21.6240865758        5.6639585472      -28.1739772039  TIP3      18046           0.0000000000
    105654     19407  TIP3      OH2           -13.9926391790        5.8484716315      -25.5872944754  TIP3      18047           0.0000000000
    105655     19407  TIP3      H1            -14.2932278915        5.5416865291      -26.4556601704  TIP3      18047           0.0000000000
    105656     19407  TIP3      H2            -13.0641337673        5.5451995290      -25.5743105857  TIP3      18047           0.0000000000
    105657     19408  TIP3      OH2            -9.3069150236       11.1689344392      -27.6226593622  TIP3      18048           0.0000000000
    105658     19408  TIP3      H1            -10.2283760455       11.3572479989      -27.8676171479  TIP3      18048           0.0000000000
    105659     19408  TIP3      H2             -9.3332203990       11.4820236036      -26.7026413805  TIP3      18048           0.0000000000
    105660     19409  TIP3      OH2            -3.6179370798        3.3540383727      -39.2377930057  TIP3      18049           0.0000000000
    105661     19409  TIP3      H1             -4.2191807427        3.0841740057      -39.9690393337  TIP3      18049           0.0000000000
    105662     19409  TIP3      H2             -3.6115953600        4.3004686643      -39.4957826166  TIP3      18049           0.0000000000
    105663     19410  TIP3      OH2            -3.6471032636        9.2202078664      -26.4143635349  TIP3      18050           0.0000000000
    105664     19410  TIP3      H1             -4.5312627450        9.4494491458      -26.7904065545  TIP3      18050           0.0000000000
    105665     19410  TIP3      H2             -3.0958201854        9.1797280777      -27.2236578475  TIP3      18050           0.0000000000
    105666     19411  TIP3      OH2            -5.3380440310       12.1818362273      -38.8244908512  TIP3      18051           0.0000000000
    105667     19411  TIP3      H1             -5.7096336862       11.3454137059      -38.5126447921  TIP3      18051           0.0000000000
    105668     19411  TIP3      H2             -5.0400753010       12.0003116792      -39.7416271949  TIP3      18051           0.0000000000
    105669     19412  TIP3      OH2            -8.1357624904        7.0028701614      -31.7355080418  TIP3      18052           0.0000000000
    105670     19412  TIP3      H1             -9.0799278795        6.7862709396      -31.8400922659  TIP3      18052           0.0000000000
    105671     19412  TIP3      H2             -7.7062938523        6.2404733597      -32.1645829113  TIP3      18052           0.0000000000
    105672     19413  TIP3      OH2           -15.6211606301       11.3358084283      -35.6290623579  TIP3      18053           0.0000000000
    105673     19413  TIP3      H1            -15.1183875480       12.1417357977      -35.8409072470  TIP3      18053           0.0000000000
    105674     19413  TIP3      H2            -16.4971737670       11.5652597723      -35.9623838793  TIP3      18053           0.0000000000
    105675     19414  TIP3      OH2           -19.8905221827        6.1865150956      -41.1391423734  TIP3      18054           0.0000000000
    105676     19414  TIP3      H1            -19.2673841850        6.8026175006      -40.7079668093  TIP3      18054           0.0000000000
    105677     19414  TIP3      H2            -20.7399424318        6.4759555287      -40.7596960705  TIP3      18054           0.0000000000
    105678     19415  TIP3      OH2           -14.1083819637        9.0839110440      -36.1286912479  TIP3      18055           0.0000000000
    105679     19415  TIP3      H1            -14.5212507903        9.9560149602      -36.0278732915  TIP3      18055           0.0000000000
    105680     19415  TIP3      H2            -14.8334028067        8.5160970211      -35.7316966024  TIP3      18055           0.0000000000
    105681     19416  TIP3      OH2           -13.7437148530       13.1752404914      -29.7202034369  TIP3      18056           0.0000000000
    105682     19416  TIP3      H1            -13.2968443550       13.9953313190      -29.9855699068  TIP3      18056           0.0000000000
    105683     19416  TIP3      H2            -13.1392214576       12.8434867949      -29.0302083738  TIP3      18056           0.0000000000
    105684     19417  TIP3      OH2           -15.5285048611       13.9909866518      -36.5707019558  TIP3      18057           0.0000000000
    105685     19417  TIP3      H1            -16.4930132334       14.1356373801      -36.4525063318  TIP3      18057           0.0000000000
    105686     19417  TIP3      H2            -15.1654063845       14.8332977670      -36.2376940797  TIP3      18057           0.0000000000
    105687     19418  TIP3      OH2           -10.2280407278        9.1836525558      -30.0968387815  TIP3      18058           0.0000000000
    105688     19418  TIP3      H1            -10.5554527540        8.9888576930      -29.1933807091  TIP3      18058           0.0000000000
    105689     19418  TIP3      H2             -9.5840964209        8.4748230753      -30.2562937403  TIP3      18058           0.0000000000
    105690     19419  TIP3      OH2            -7.9360264728       10.2656735708      -40.9607998991  TIP3      18059           0.0000000000
    105691     19419  TIP3      H1             -7.5890249345        9.7633602415      -40.1963988254  TIP3      18059           0.0000000000
    105692     19419  TIP3      H2             -8.8726490205       10.0383973848      -40.8942291520  TIP3      18059           0.0000000000
    105693     19420  TIP3      OH2            -7.4182943373       13.7514594003      -27.6027179717  TIP3      18060           0.0000000000
    105694     19420  TIP3      H1             -8.1093171566       13.2697959267      -28.0941165055  TIP3      18060           0.0000000000
    105695     19420  TIP3      H2             -7.2209440489       14.4660473413      -28.2449628455  TIP3      18060           0.0000000000
    105696     19421  TIP3      OH2            -3.4336714743       14.6433472089      -40.7760821824  TIP3      18061           0.0000000000
    105697     19421  TIP3      H1             -2.7100695625       15.2678330724      -40.9531331222  TIP3      18061           0.0000000000
    105698     19421  TIP3      H2             -4.1425895659       15.2409616360      -40.4528791915  TIP3      18061           0.0000000000
    105699     19422  TIP3      OH2           -19.3490882631        1.0252810159      -28.1942628135  TIP3      18062           0.0000000000
    105700     19422  TIP3      H1            -20.2597799010        1.3650674043      -28.2376085102  TIP3      18062           0.0000000000
    105701     19422  TIP3      H2            -19.4634777023        0.1680634671      -27.7535509236  TIP3      18062           0.0000000000
    105702     19423  TIP3      OH2            -7.1227386796        8.9252571422      -38.6979470681  TIP3      18063           0.0000000000
    105703     19423  TIP3      H1             -7.3413957185        8.0793375655      -38.2480535387  TIP3      18063           0.0000000000
    105704     19423  TIP3      H2             -6.1511575283        8.9026535594      -38.5924820093  TIP3      18063           0.0000000000
    105705     19424  TIP3      OH2           -19.7271885102       12.8174980206      -29.7682448124  TIP3      18064           0.0000000000
    105706     19424  TIP3      H1            -19.4441578949       11.8920278223      -29.7677263523  TIP3      18064           0.0000000000
    105707     19424  TIP3      H2            -19.4643794051       13.0965072462      -28.8831467221  TIP3      18064           0.0000000000
    105708     19425  TIP3      OH2           -13.7666955886       11.2918249765      -42.5335096987  TIP3      18065           0.0000000000
    105709     19425  TIP3      H1            -13.6217023904       10.5269146793      -43.0875735707  TIP3      18065           0.0000000000
    105710     19425  TIP3      H2            -14.2002357885       10.9262859952      -41.7312895938  TIP3      18065           0.0000000000
    105711     19426  TIP3      OH2           -14.9644048099       10.8702434640      -40.0773997223  TIP3      18066           0.0000000000
    105712     19426  TIP3      H1            -14.7354818726       10.3445217685      -39.2996980367  TIP3      18066           0.0000000000
    105713     19426  TIP3      H2            -14.9088855882       11.7964052181      -39.7528001493  TIP3      18066           0.0000000000
    105714     19427  TIP3      OH2           -18.4928853803        8.1202085878      -39.6346345730  TIP3      18067           0.0000000000
    105715     19427  TIP3      H1            -19.1404280631        8.5000367758      -39.0022066249  TIP3      18067           0.0000000000
    105716     19427  TIP3      H2            -17.9367963282        8.8884724347      -39.8476830108  TIP3      18067           0.0000000000
    105717     19428  TIP3      OH2           -10.6143802716        0.7916893029      -29.2567567336  TIP3      18068           0.0000000000
    105718     19428  TIP3      H1             -9.9051811310        0.8503005247      -28.6063261316  TIP3      18068           0.0000000000
    105719     19428  TIP3      H2            -11.0023061923       -0.0837011811      -29.0517992576  TIP3      18068           0.0000000000
    105720     19429  TIP3      OH2            -9.8850640660        0.3726310125      -38.1393203758  TIP3      18069           0.0000000000
    105721     19429  TIP3      H1             -9.6370257987        0.8262848086      -38.9731972710  TIP3      18069           0.0000000000
    105722     19429  TIP3      H2             -9.2908921089        0.8053515699      -37.5163020234  TIP3      18069           0.0000000000
    105723     19430  TIP3      OH2           -12.1836110860       12.5279104942      -39.3774689139  TIP3      18070           0.0000000000
    105724     19430  TIP3      H1            -12.9997238154       13.0544727582      -39.2705803354  TIP3      18070           0.0000000000
    105725     19430  TIP3      H2            -11.6640897362       13.0798410405      -39.9798612469  TIP3      18070           0.0000000000
    105726     19431  TIP3      OH2           -12.6443408341        2.1129411068      -37.3333303518  TIP3      18071           0.0000000000
    105727     19431  TIP3      H1            -11.8570830315        2.6907362440      -37.2991913501  TIP3      18071           0.0000000000
    105728     19431  TIP3      H2            -12.9084667962        1.9871465704      -36.4032247928  TIP3      18071           0.0000000000
    105729     19432  TIP3      OH2           -12.0980883265        3.1338232411      -28.1598710211  TIP3      18072           0.0000000000
    105730     19432  TIP3      H1            -12.0136099779        3.7071854410      -27.3726989576  TIP3      18072           0.0000000000
    105731     19432  TIP3      H2            -11.4282585675        2.4452047952      -28.0641652037  TIP3      18072           0.0000000000
    105732     19433  TIP3      OH2           -11.7915714783       -0.8269350055      -36.4557891548  TIP3      18073           0.0000000000
    105733     19433  TIP3      H1            -12.1145322303       -0.1720819958      -35.8156460370  TIP3      18073           0.0000000000
    105734     19433  TIP3      H2            -11.1000413103       -0.2826263668      -36.9089770238  TIP3      18073           0.0000000000
    105735     19434  TIP3      OH2           -14.8076463209       13.5663456437      -39.3077743821  TIP3      18074           0.0000000000
    105736     19434  TIP3      H1            -14.6514614353       14.3899314916      -39.8291815814  TIP3      18074           0.0000000000
    105737     19434  TIP3      H2            -15.0639053845       13.9187973376      -38.4324192725  TIP3      18074           0.0000000000
    105738     19435  TIP3      OH2           -16.1377109147        0.2675665560      -39.7066164528  TIP3      18075           0.0000000000
    105739     19435  TIP3      H1            -16.1818956320        1.1870688953      -39.3795040198  TIP3      18075           0.0000000000
    105740     19435  TIP3      H2            -15.2227054549        0.0242809419      -39.4658217325  TIP3      18075           0.0000000000
    105741     19436  TIP3      OH2            -5.9097680296        1.0014821914      -27.3057387870  TIP3      18076           0.0000000000
    105742     19436  TIP3      H1             -6.8377769361        1.3191581334      -27.4314878016  TIP3      18076           0.0000000000
    105743     19436  TIP3      H2             -5.6101041334        0.9969784309      -28.2287766413  TIP3      18076           0.0000000000
    105744     19437  TIP3      OH2            -7.2982639030        4.7950415013      -33.2921359962  TIP3      18077           0.0000000000
    105745     19437  TIP3      H1             -8.1216240605        4.3512389544      -33.5712172892  TIP3      18077           0.0000000000
    105746     19437  TIP3      H2             -6.8204741126        4.1054139300      -32.7774735836  TIP3      18077           0.0000000000
    105747     19438  TIP3      OH2           -17.8771311390       10.7023686914      -40.6786517723  TIP3      18078           0.0000000000
    105748     19438  TIP3      H1            -17.2367062054       11.3616692343      -40.3927920838  TIP3      18078           0.0000000000
    105749     19438  TIP3      H2            -17.3828371656       10.2554776338      -41.3940067758  TIP3      18078           0.0000000000
    105750     19439  TIP3      OH2           -19.5253901773        3.3824588883      -41.5132117716  TIP3      18079           0.0000000000
    105751     19439  TIP3      H1            -19.5399279142        4.3510163647      -41.3904559341  TIP3      18079           0.0000000000
    105752     19439  TIP3      H2            -20.3946857122        3.1939480151      -41.8781299255  TIP3      18079           0.0000000000
    105753     19440  TIP3      OH2            -6.2415413050       14.0515280958      -31.6238283451  TIP3      18080           0.0000000000
    105754     19440  TIP3      H1             -6.3294318137       14.7347536120      -32.3144234243  TIP3      18080           0.0000000000
    105755     19440  TIP3      H2             -5.2786450352       14.1030210515      -31.4507137435  TIP3      18080           0.0000000000
    105756     19441  TIP3      OH2           -18.7402035704       -1.8257322091      -32.8203718163  TIP3      18081           0.0000000000
    105757     19441  TIP3      H1            -18.9406137871       -1.8042034849      -33.7825174061  TIP3      18081           0.0000000000
    105758     19441  TIP3      H2            -19.1598292370       -2.6740606996      -32.5663752625  TIP3      18081           0.0000000000
    105759     19442  TIP3      OH2           -19.7818904178       12.0919084503      -36.6780433560  TIP3      18082           0.0000000000
    105760     19442  TIP3      H1            -20.6398064123       12.5449475460      -36.7127782094  TIP3      18082           0.0000000000
    105761     19442  TIP3      H2            -19.3083137009       12.5659786070      -37.3750094393  TIP3      18082           0.0000000000
    105762     19443  TIP3      OH2           -20.5413218249       14.7426075924      -25.4011097075  TIP3      18083           0.0000000000
    105763     19443  TIP3      H1            -20.0036003906       14.4890146791      -24.6492903319  TIP3      18083           0.0000000000
    105764     19443  TIP3      H2            -21.0212231542       13.9155182045      -25.5862748020  TIP3      18083           0.0000000000
    105765     19444  TIP3      OH2           -11.7857155805       13.1555320573      -42.3952652991  TIP3      18084           0.0000000000
    105766     19444  TIP3      H1            -12.4968481922       12.5169019415      -42.1732969725  TIP3      18084           0.0000000000
    105767     19444  TIP3      H2            -11.0494599041       12.5781873043      -42.6115929158  TIP3      18084           0.0000000000
    105768     19445  TIP3      OH2            -9.4060275117       12.0534490590      -25.0215244764  TIP3      18085           0.0000000000
    105769     19445  TIP3      H1             -9.6791765165       11.1528932453      -24.8014224584  TIP3      18085           0.0000000000
    105770     19445  TIP3      H2             -8.6115993170       12.1714656244      -24.4701427649  TIP3      18085           0.0000000000
    105771     19446  TIP3      OH2            -7.1945698179       12.9628254921      -42.1697131344  TIP3      18086           0.0000000000
    105772     19446  TIP3      H1             -6.9525894112       12.1365895232      -41.7075034141  TIP3      18086           0.0000000000
    105773     19446  TIP3      H2             -6.4232711013       13.1130414105      -42.7184819558  TIP3      18086           0.0000000000
    105774     19447  TIP3      OH2           -20.6323645368        8.5514660138      -24.4394573092  TIP3      18087           0.0000000000
    105775     19447  TIP3      H1            -20.4994684437        7.6224519965      -24.7047980310  TIP3      18087           0.0000000000
    105776     19447  TIP3      H2            -21.4206240776        8.7755711324      -24.9536063599  TIP3      18087           0.0000000000
    105777     19448  TIP3      OH2           -16.2927111799        8.8604383582      -42.3276761840  TIP3      18088           0.0000000000
    105778     19448  TIP3      H1            -16.1874061618        8.0850581532      -41.7585864098  TIP3      18088           0.0000000000
    105779     19448  TIP3      H2            -15.6343416808        8.7105488068      -43.0053397017  TIP3      18088           0.0000000000
    105780     19449  TIP3      OH2           -13.9159609870        8.5263050414      -25.0279440634  TIP3      18089           0.0000000000
    105781     19449  TIP3      H1            -14.2860996998        8.8158121755      -25.8809436663  TIP3      18089           0.0000000000
    105782     19449  TIP3      H2            -13.8864831166        7.5408813089      -25.0923083130  TIP3      18089           0.0000000000
    105783     19450  TIP3      OH2           -10.9614551624        9.9435960569      -42.5817595390  TIP3      18090           0.0000000000
    105784     19450  TIP3      H1            -11.1712713453       10.0836960617      -41.6406224905  TIP3      18090           0.0000000000
    105785     19450  TIP3      H2            -11.1087303553        8.9945170558      -42.6923141252  TIP3      18090           0.0000000000
    105786     19451  TIP3      OH2            -8.2541551423        8.3719929174      -27.6115157927  TIP3      18091           0.0000000000
    105787     19451  TIP3      H1             -7.4663591478        8.9549744021      -27.6919132876  TIP3      18091           0.0000000000
    105788     19451  TIP3      H2             -8.9593289038        9.0331415096      -27.5827304276  TIP3      18091           0.0000000000
    105789     19452  TIP3      OH2           -19.7471435884        5.7430689522      -25.0022804591  TIP3      18092           0.0000000000
    105790     19452  TIP3      H1            -19.3575482925        4.8704747100      -25.1224948321  TIP3      18092           0.0000000000
    105791     19452  TIP3      H2            -20.0301769014        5.7221055929      -24.0788029817  TIP3      18092           0.0000000000
    105792     19453  TIP3      OH2           -15.1135781621        6.8820764089      -39.9423225752  TIP3      18093           0.0000000000
    105793     19453  TIP3      H1            -15.6274844795        6.3515697001      -39.3029843176  TIP3      18093           0.0000000000
    105794     19453  TIP3      H2            -14.8182708077        6.1977149213      -40.5962557509  TIP3      18093           0.0000000000
    105795     19454  TIP3      OH2           -15.8523048739        4.6970789136      -27.6542422720  TIP3      18094           0.0000000000
    105796     19454  TIP3      H1            -16.4434402991        5.4207425410      -27.3910435469  TIP3      18094           0.0000000000
    105797     19454  TIP3      H2            -15.4589745098        5.0597698374      -28.4672429442  TIP3      18094           0.0000000000
    105798     19455  TIP3      OH2           -14.0356025071        5.1759586122      -41.7490609312  TIP3      18095           0.0000000000
    105799     19455  TIP3      H1            -14.1751424868        4.9305827352      -42.6765860537  TIP3      18095           0.0000000000
    105800     19455  TIP3      H2            -13.0597873648        5.1586718163      -41.6456722575  TIP3      18095           0.0000000000
    105801     19456  TIP3      OH2           -10.7665704428        7.2700101442      -24.3320024679  TIP3      18096           0.0000000000
    105802     19456  TIP3      H1             -9.8150002950        7.2361981197      -24.4068465288  TIP3      18096           0.0000000000
    105803     19456  TIP3      H2            -10.9735597541        6.5327173629      -23.7349009425  TIP3      18096           0.0000000000
    105804     19457  TIP3      OH2            -4.4619027598        7.5636120559      -42.4659876488  TIP3      18097           0.0000000000
    105805     19457  TIP3      H1             -4.9733898539        7.0776826805      -43.1135625530  TIP3      18097           0.0000000000
    105806     19457  TIP3      H2             -4.6583369159        8.4909614160      -42.5873683825  TIP3      18097           0.0000000000
    105807     19458  TIP3      OH2           -15.4477045592        2.0778668914      -26.5711930715  TIP3      18098           0.0000000000
    105808     19458  TIP3      H1            -15.3421098760        1.3638446925      -27.2257717009  TIP3      18098           0.0000000000
    105809     19458  TIP3      H2            -15.4915501081        2.8787894517      -27.1349375448  TIP3      18098           0.0000000000
    105810     19459  TIP3      OH2           -15.0435091144        0.4502045817      -29.0471135831  TIP3      18099           0.0000000000
    105811     19459  TIP3      H1            -14.5336361062        0.9161603814      -29.7518631056  TIP3      18099           0.0000000000
    105812     19459  TIP3      H2            -15.9359114609        0.3704759511      -29.4557349045  TIP3      18099           0.0000000000
    105813     19460  TIP3      OH2           -13.5041459099        5.9329674060      -28.8063157023  TIP3      18100           0.0000000000
    105814     19460  TIP3      H1            -12.7485891212        5.7727738525      -29.3807349545  TIP3      18100           0.0000000000
    105815     19460  TIP3      H2            -13.8663265432        6.7723915508      -29.1375917570  TIP3      18100           0.0000000000
    105816     19461  TIP3      OH2            -9.1404801376        3.6701843630      -23.8441254633  TIP3      18101           0.0000000000
    105817     19461  TIP3      H1             -8.8543191307        2.7511172115      -23.8976618851  TIP3      18101           0.0000000000
    105818     19461  TIP3      H2             -8.2858859391        4.1483429778      -23.8142906077  TIP3      18101           0.0000000000
    105819     19462  TIP3      OH2            -7.7683359050        6.4795653328      -25.7071354296  TIP3      18102           0.0000000000
    105820     19462  TIP3      H1             -8.0139126352        7.2166009384      -26.3042353251  TIP3      18102           0.0000000000
    105821     19462  TIP3      H2             -6.8085186868        6.4458815585      -25.8788659376  TIP3      18102           0.0000000000
    105822     19463  TIP3      OH2           -16.9905983560        3.3057016114      -24.6885639363  TIP3      18103           0.0000000000
    105823     19463  TIP3      H1            -17.7594638129        2.7268748526      -24.8606390700  TIP3      18103           0.0000000000
    105824     19463  TIP3      H2            -16.3330955467        2.9437422075      -25.3104921500  TIP3      18103           0.0000000000
    105825     19464  TIP3      OH2           -14.2612634145       -2.1154562871      -28.6394307033  TIP3      18104           0.0000000000
    105826     19464  TIP3      H1            -14.4296219325       -1.1511430633      -28.7503459314  TIP3      18104           0.0000000000
    105827     19464  TIP3      H2            -15.0042854984       -2.4773150153      -29.1534023935  TIP3      18104           0.0000000000
    105828     19465  TIP3      OH2           -12.9758691470        2.1856201349      -25.0590628926  TIP3      18105           0.0000000000
    105829     19465  TIP3      H1            -13.3088058106        2.0058317553      -24.1593634731  TIP3      18105           0.0000000000
    105830     19465  TIP3      H2            -13.7881680980        2.0269429379      -25.5802451524  TIP3      18105           0.0000000000
    105831     19466  TIP3      OH2           -10.2631937829        1.3556886748      -25.9417294074  TIP3      18106           0.0000000000
    105832     19466  TIP3      H1            -11.2298769304        1.4007244905      -25.8243469092  TIP3      18106           0.0000000000
    105833     19466  TIP3      H2             -9.9972528062        0.7025109869      -25.2727989889  TIP3      18106           0.0000000000
    105834     19467  TIP3      OH2            -8.6836649598       -0.0172282391      -24.0238278425  TIP3      18107           0.0000000000
    105835     19467  TIP3      H1             -8.7330250659       -0.9992604154      -23.9929951888  TIP3      18107           0.0000000000
    105836     19467  TIP3      H2             -8.9237454526        0.2519977983      -23.1206123630  TIP3      18107           0.0000000000
    105837     19468  TIP3      OH2           -18.8579190427        1.2500959274      -24.9375081019  TIP3      18108           0.0000000000
    105838     19468  TIP3      H1            -18.6428279065        0.5107552173      -25.5330927680  TIP3      18108           0.0000000000
    105839     19468  TIP3      H2            -18.9574627165        0.7928330822      -24.0713387283  TIP3      18108           0.0000000000
    105840     19469  TIP3      OH2           -14.0571669716       -2.7352476749      -25.9517177011  TIP3      18109           0.0000000000
    105841     19469  TIP3      H1            -13.3731973862       -3.4370117947      -25.9655204691  TIP3      18109           0.0000000000
    105842     19469  TIP3      H2            -14.1552432613       -2.5781873962      -26.9079194862  TIP3      18109           0.0000000000
    105843     19470  TIP3      OH2           -13.6825090876       -1.1048147910      -23.8798359607  TIP3      18110           0.0000000000
    105844     19470  TIP3      H1            -13.8549413578       -1.6203438526      -24.6997452111  TIP3      18110           0.0000000000
    105845     19470  TIP3      H2            -14.2866288686       -0.3438258087      -23.9352150391  TIP3      18110           0.0000000000
    105846     19471  TIP3      OH2           -14.1926789321       15.8433204812      -40.6776643385  TIP3      18111           0.0000000000
    105847     19471  TIP3      H1            -13.2187133607       15.9237737931      -40.6162609013  TIP3      18111           0.0000000000
    105848     19471  TIP3      H2            -14.3660755403       16.4575456749      -41.3882608641  TIP3      18111           0.0000000000
    105849     19472  TIP3      OH2           -20.6125876583       10.4009164498      -41.1859359640  TIP3      18112           0.0000000000
    105850     19472  TIP3      H1            -19.6567812129       10.4856413231      -40.9675052813  TIP3      18112           0.0000000000
    105851     19472  TIP3      H2            -20.5666962303        9.7894424023      -41.9317024272  TIP3      18112           0.0000000000
    105852     19473  TIP3      OH2           -21.8782682448       15.7644992087      -36.2259890398  TIP3      18113           0.0000000000
    105853     19473  TIP3      H1            -22.5909145579       15.2795951728      -36.6998204171  TIP3      18113           0.0000000000
    105854     19473  TIP3      H2            -21.5942260028       15.1092110527      -35.5673096449  TIP3      18113           0.0000000000
    105855     19474  TIP3      OH2           -21.0537248867       13.9004350029      -34.3600630135  TIP3      18114           0.0000000000
    105856     19474  TIP3      H1            -21.4039976442       13.0207406820      -34.1615447518  TIP3      18114           0.0000000000
    105857     19474  TIP3      H2            -20.8292338570       14.2299405857      -33.4733993548  TIP3      18114           0.0000000000
    105858     19475  TIP3      OH2            -3.5167269779       14.6870428887      -31.4262841790  TIP3      18115           0.0000000000
    105859     19475  TIP3      H1             -3.4882711804       14.8597192517      -30.4702436549  TIP3      18115           0.0000000000
    105860     19475  TIP3      H2             -2.8283597979       15.2785842728      -31.7431501822  TIP3      18115           0.0000000000
    105861     19476  TIP3      OH2            -3.9530426716       14.2873421841      -28.4912664606  TIP3      18116           0.0000000000
    105862     19476  TIP3      H1             -4.4090701725       13.5066106269      -28.8643598418  TIP3      18116           0.0000000000
    105863     19476  TIP3      H2             -3.4341292126       13.8638223316      -27.7818364843  TIP3      18116           0.0000000000
    105864     19477  TIP3      OH2            -5.4574481371       10.0225506839      -23.7369050761  TIP3      18117           0.0000000000
    105865     19477  TIP3      H1             -6.3872696551        9.9486649242      -23.4451748014  TIP3      18117           0.0000000000
    105866     19477  TIP3      H2             -5.1492142038       10.8645943383      -23.4164141665  TIP3      18117           0.0000000000
    105867     19478  TIP3      OH2            -4.2231149189        8.4044299434      -38.3054779489  TIP3      18118           0.0000000000
    105868     19478  TIP3      H1             -3.3115114316        8.7210433200      -38.2107854650  TIP3      18118           0.0000000000
    105869     19478  TIP3      H2             -4.2078142846        7.6081260470      -37.7322668218  TIP3      18118           0.0000000000
    105870     19479  TIP3      OH2            -3.8127388253        6.4150685311      -36.5025082594  TIP3      18119           0.0000000000
    105871     19479  TIP3      H1             -4.5734067278        5.9180921974      -36.1222963467  TIP3      18119           0.0000000000
    105872     19479  TIP3      H2             -3.2239907203        6.5531423359      -35.7388136520  TIP3      18119           0.0000000000
    105873     19480  TIP3      OH2            -4.0661328134        9.1109018403      -31.5208670980  TIP3      18120           0.0000000000
    105874     19480  TIP3      H1             -3.2439254513        8.7389449008      -31.8870887430  TIP3      18120           0.0000000000
    105875     19480  TIP3      H2             -3.9196624700       10.0663370024      -31.6778233889  TIP3      18120           0.0000000000
    105876     19481  TIP3      OH2            -5.5131745142       12.0103022187      -29.2456363334  TIP3      18121           0.0000000000
    105877     19481  TIP3      H1             -6.1871944782       12.3638918096      -28.6422681185  TIP3      18121           0.0000000000
    105878     19481  TIP3      H2             -6.0690574410       11.6153997133      -29.9486535035  TIP3      18121           0.0000000000
    105879     19482  TIP3      OH2            -3.0089669298        6.7477842498      -40.0110954515  TIP3      18122           0.0000000000
    105880     19482  TIP3      H1             -3.7318325059        6.6330933970      -40.6671494665  TIP3      18122           0.0000000000
    105881     19482  TIP3      H2             -3.6242555143        6.9980201036      -39.3008925503  TIP3      18122           0.0000000000
    105882     19483  TIP3      OH2            -4.9912049615        3.2017275037      -41.6195823811  TIP3      18123           0.0000000000
    105883     19483  TIP3      H1             -5.1187982475        4.0394857844      -42.1040592729  TIP3      18123           0.0000000000
    105884     19483  TIP3      H2             -5.3750399978        2.5304666628      -42.2084441452  TIP3      18123           0.0000000000
    105885     19484  TIP3      OH2            -5.9894639704        4.8873750593      -35.9095289069  TIP3      18124           0.0000000000
    105886     19484  TIP3      H1             -6.1514880060        3.9366415360      -35.9793413993  TIP3      18124           0.0000000000
    105887     19484  TIP3      H2             -6.3483654901        5.1036921034      -35.0309574994  TIP3      18124           0.0000000000
    105888     19485  TIP3      OH2           -20.9864076712        6.9955040817      -31.8729875621  TIP3      18125           0.0000000000
    105889     19485  TIP3      H1            -20.8107159112        6.8828571755      -32.8331902025  TIP3      18125           0.0000000000
    105890     19485  TIP3      H2            -20.0917975941        6.7977010704      -31.5247722447  TIP3      18125           0.0000000000
    105891     19486  TIP3      OH2            -5.1405038745        6.8558883380      -26.2402733452  TIP3      18126           0.0000000000
    105892     19486  TIP3      H1             -4.5338008240        6.0998605097      -26.0847731022  TIP3      18126           0.0000000000
    105893     19486  TIP3      H2             -4.5393721649        7.6274832332      -26.2319892256  TIP3      18126           0.0000000000
    105894     19487  TIP3      OH2            -3.6347941659        4.7497590991      -25.6048951760  TIP3      18127           0.0000000000
    105895     19487  TIP3      H1             -4.5214915623        4.3482356392      -25.7393995668  TIP3      18127           0.0000000000
    105896     19487  TIP3      H2             -3.0707279442        3.9620245800      -25.6649246410  TIP3      18127           0.0000000000
    105897     19488  TIP3      OH2            -5.9233805552        0.8753212285      -42.4756272501  TIP3      18128           0.0000000000
    105898     19488  TIP3      H1             -5.3244710424        0.5103348485      -41.7943306416  TIP3      18128           0.0000000000
    105899     19488  TIP3      H2             -6.7954358673        0.5256276803      -42.2599206775  TIP3      18128           0.0000000000
    105900     19489  TIP3      OH2            -6.3298240035        2.4670603531      -37.4208196606  TIP3      18129           0.0000000000
    105901     19489  TIP3      H1             -6.0223799566        1.5369661034      -37.3433064383  TIP3      18129           0.0000000000
    105902     19489  TIP3      H2             -5.5650770160        2.8812241420      -37.8494096902  TIP3      18129           0.0000000000
    105903     19490  TIP3      OH2            -5.6952350440        3.0192418389      -32.0216162272  TIP3      18130           0.0000000000
    105904     19490  TIP3      H1             -4.7350184259        3.2514751335      -32.0351919285  TIP3      18130           0.0000000000
    105905     19490  TIP3      H2             -5.8845462641        3.1605708651      -31.0821889047  TIP3      18130           0.0000000000
    105906     19491  TIP3      OH2            -5.6305653969        3.7395997169      -29.2425704713  TIP3      18131           0.0000000000
    105907     19491  TIP3      H1             -6.5101778593        4.0314897531      -28.9188326729  TIP3      18131           0.0000000000
    105908     19491  TIP3      H2             -5.1956878218        4.6008864532      -29.4621922887  TIP3      18131           0.0000000000
    105909     19492  TIP3      OH2           -21.3893028163        2.2781521395      -25.7280656062  TIP3      18132           0.0000000000
    105910     19492  TIP3      H1            -20.4529656413        2.0841713551      -25.5142464352  TIP3      18132           0.0000000000
    105911     19492  TIP3      H2            -21.8233291369        1.4604372658      -25.4118615008  TIP3      18132           0.0000000000
    105912     19493  TIP3      OH2            -3.3360274611       -2.2198983371      -23.8811994000  TIP3      18133           0.0000000000
    105913     19493  TIP3      H1             -2.9973318588       -2.8631973627      -24.5216240084  TIP3      18133           0.0000000000
    105914     19493  TIP3      H2             -3.2603101091       -1.3925545132      -24.3963473371  TIP3      18133           0.0000000000
    105915     19494  TIP3      OH2            -5.6649854269       -0.2513055850      -37.4217756826  TIP3      18134           0.0000000000
    105916     19494  TIP3      H1             -5.4549412275       -0.6843809674      -36.5655642645  TIP3      18134           0.0000000000
    105917     19494  TIP3      H2             -6.2718508430       -0.8814026689      -37.8644385272  TIP3      18134           0.0000000000
    105918     19495  TIP3      OH2           -20.1821314422        0.5598045749      -32.8529833364  TIP3      18135           0.0000000000
    105919     19495  TIP3      H1            -19.7086458844       -0.2549500010      -32.5966482709  TIP3      18135           0.0000000000
    105920     19495  TIP3      H2            -19.6333976146        1.2742652442      -32.4886380650  TIP3      18135           0.0000000000
    105921     19496  TIP3      OH2           -21.9047891146        3.5793201174      -31.8073655904  TIP3      18136           0.0000000000
    105922     19496  TIP3      H1            -21.3289563418        3.3349182631      -32.5775925614  TIP3      18136           0.0000000000
    105923     19496  TIP3      H2            -21.4211222606        4.3811851368      -31.5638306260  TIP3      18136           0.0000000000
    105924     19497  TIP3      OH2            -3.8159128563       -0.1141203065      -25.5470834562  TIP3      18137           0.0000000000
    105925     19497  TIP3      H1             -4.7541038783        0.1707816508      -25.5933226400  TIP3      18137           0.0000000000
    105926     19497  TIP3      H2             -3.7971014593       -0.6500540196      -26.3554770815  TIP3      18137           0.0000000000
    105927     19498  TIP3      OH2            -3.8449515899       -0.1895848023      -40.8795071146  TIP3      18138           0.0000000000
    105928     19498  TIP3      H1             -3.4040719071       -0.9052242127      -41.3587626541  TIP3      18138           0.0000000000
    105929     19498  TIP3      H2             -3.1352592558        0.4729797169      -40.8215941641  TIP3      18138           0.0000000000
    105930     19499  TIP3      OH2           -21.5302217723       -0.1825938543      -37.7682927071  TIP3      18139           0.0000000000
    105931     19499  TIP3      H1            -22.4702843228        0.0202795279      -37.8833865281  TIP3      18139           0.0000000000
    105932     19499  TIP3      H2            -21.1084682943        0.3281053538      -38.4779027026  TIP3      18139           0.0000000000
    105933     19500  TIP3      OH2            -6.7932261485       14.7739315473      -35.8036505014  TIP3      18140           0.0000000000
    105934     19500  TIP3      H1             -6.1049383007       14.4703521552      -36.4235517340  TIP3      18140           0.0000000000
    105935     19500  TIP3      H2             -6.2760423497       15.2754002344      -35.1530984656  TIP3      18140           0.0000000000
    105936     19501  TIP3      OH2           -21.5780911373       -1.5107597466      -29.4521989585  TIP3      18141           0.0000000000
    105937     19501  TIP3      H1            -22.2495320375       -1.7077032244      -28.7737016835  TIP3      18141           0.0000000000
    105938     19501  TIP3      H2            -22.0375328946       -0.8399490373      -29.9956593686  TIP3      18141           0.0000000000
    105939     19502  TIP3      OH2           -19.3454599972       11.7275613341      -25.2493593425  TIP3      18142           0.0000000000
    105940     19502  TIP3      H1            -20.1791292017       11.8854738478      -25.7264191884  TIP3      18142           0.0000000000
    105941     19502  TIP3      H2            -19.6616506956       11.5831306143      -24.3567118633  TIP3      18142           0.0000000000
    105942     19503  TIP3      OH2           -16.4439928544       12.6863867080      -29.0159349740  TIP3      18143           0.0000000000
    105943     19503  TIP3      H1            -16.7833423859       13.5490430971      -29.2912662190  TIP3      18143           0.0000000000
    105944     19503  TIP3      H2            -15.5172781093       12.7767463826      -29.3179164104  TIP3      18143           0.0000000000
    105945     19504  TIP3      OH2           -12.1111104518       14.1113343942      -26.1316280779  TIP3      18144           0.0000000000
    105946     19504  TIP3      H1            -11.9758304257       13.7850705512      -25.2130813816  TIP3      18144           0.0000000000
    105947     19504  TIP3      H2            -11.2135575694       14.4244075054      -26.3597546378  TIP3      18144           0.0000000000
    105948     19505  TIP3      OH2            -9.8289295007       15.3826983096      -26.7979586541  TIP3      18145           0.0000000000
    105949     19505  TIP3      H1             -9.1028487741       14.7900134156      -27.0391231638  TIP3      18145           0.0000000000
    105950     19505  TIP3      H2             -9.4424897087       15.8145514142      -26.0051726228  TIP3      18145           0.0000000000
    105951     19506  TIP3      OH2            -4.8144585915       -2.0073082778      -27.6975078940  TIP3      18146           0.0000000000
    105952     19506  TIP3      H1             -5.6459714572       -1.7092650353      -28.1071162647  TIP3      18146           0.0000000000
    105953     19506  TIP3      H2             -4.6467391919       -2.8272519061      -28.2168258686  TIP3      18146           0.0000000000
    105954     19507  TIP3      OH2           -19.0207535601       15.9287215584      -29.0312300318  TIP3      18147           0.0000000000
    105955     19507  TIP3      H1            -19.7525061605       16.4281089001      -29.4223935274  TIP3      18147           0.0000000000
    105956     19507  TIP3      H2            -19.3401544174       15.7406775294      -28.1382171914  TIP3      18147           0.0000000000
    105957     19508  TIP3      OH2           -16.5480432756       15.5053338390      -29.9539012307  TIP3      18148           0.0000000000
    105958     19508  TIP3      H1            -17.4356917916       15.6477483101      -29.5462636258  TIP3      18148           0.0000000000
    105959     19508  TIP3      H2            -16.6092845229       16.0981451737      -30.7257672605  TIP3      18148           0.0000000000
    105960     19509  TIP3      OH2           -11.8432003771       15.4151815655      -30.7712950850  TIP3      18149           0.0000000000
    105961     19509  TIP3      H1            -12.3067242150       15.9685279653      -31.4221036921  TIP3      18149           0.0000000000
    105962     19509  TIP3      H2            -11.7078937752       16.0531392697      -30.0361356619  TIP3      18149           0.0000000000
    105963     19510  TIP3      OH2            -9.5560141967       14.2244298753      -29.7711074909  TIP3      18150           0.0000000000
    105964     19510  TIP3      H1            -10.4167586571       14.5037994592      -30.1181334140  TIP3      18150           0.0000000000
    105965     19510  TIP3      H2             -9.0763322449       15.0692305450      -29.8458922360  TIP3      18150           0.0000000000
    105966     19511  TIP3      OH2            -6.9650048696       15.8068382071      -29.5197887929  TIP3      18151           0.0000000000
    105967     19511  TIP3      H1             -7.0389876396       16.7669759779      -29.7443472729  TIP3      18151           0.0000000000
    105968     19511  TIP3      H2             -6.7634108354       15.4367575483      -30.4013472613  TIP3      18151           0.0000000000
    105969     19512  TIP3      OH2           -19.5640664318       14.5746403076      -32.0749115793  TIP3      18152           0.0000000000
    105970     19512  TIP3      H1            -19.6426765945       14.1180491440      -31.2087736314  TIP3      18152           0.0000000000
    105971     19512  TIP3      H2            -18.7484841633       14.1995140449      -32.4650311148  TIP3      18152           0.0000000000
    105972     19513  TIP3      OH2           -17.4827919779       13.2874636014      -33.4246731835  TIP3      18153           0.0000000000
    105973     19513  TIP3      H1            -17.6491612638       12.3534273054      -33.1904227371  TIP3      18153           0.0000000000
    105974     19513  TIP3      H2            -16.6268975377       13.4362353289      -32.9694727321  TIP3      18153           0.0000000000
    105975     19514  TIP3      OH2           -14.8803319154       13.7705951934      -32.5455212233  TIP3      18154           0.0000000000
    105976     19514  TIP3      H1            -14.7285358214       12.8445953841      -32.8084947953  TIP3      18154           0.0000000000
    105977     19514  TIP3      H2            -14.8370016668       13.7126960006      -31.5810353242  TIP3      18154           0.0000000000
    105978     19515  TIP3      OH2           -11.4256951892       -0.5776999904      -33.4080482524  TIP3      18155           0.0000000000
    105979     19515  TIP3      H1            -12.1009033262       -1.2196562113      -33.1305163044  TIP3      18155           0.0000000000
    105980     19515  TIP3      H2            -10.8731254996       -1.1103880041      -33.9921817276  TIP3      18155           0.0000000000
    105981     19516  TIP3      OH2            -6.2904388241       -2.5246525539      -33.3427635486  TIP3      18156           0.0000000000
    105982     19516  TIP3      H1             -5.6759582245       -1.9357570083      -33.8487410032  TIP3      18156           0.0000000000
    105983     19516  TIP3      H2             -7.1722860978       -2.1669047546      -33.5730030829  TIP3      18156           0.0000000000
    105984     19517  TIP3      OH2            -4.6208225279       -1.2887703934      -35.0608071464  TIP3      18157           0.0000000000
    105985     19517  TIP3      H1             -3.9352167369       -1.8634498102      -35.4808222421  TIP3      18157           0.0000000000
    105986     19517  TIP3      H2             -4.1170551590       -0.4487573039      -34.9590509304  TIP3      18157           0.0000000000
    105987     19518  TIP3      OH2           -19.0552383493       -1.9518710323      -35.5619467369  TIP3      18158           0.0000000000
    105988     19518  TIP3      H1            -19.8522168201       -2.1530737679      -36.0886074393  TIP3      18158           0.0000000000
    105989     19518  TIP3      H2            -18.5923192352       -2.8100625500      -35.6154822008  TIP3      18158           0.0000000000
    105990     19519  TIP3      OH2           -20.3148308728       -2.1920015348      -39.8735367207  TIP3      18159           0.0000000000
    105991     19519  TIP3      H1            -19.7951583081       -1.5383723819      -40.3786439520  TIP3      18159           0.0000000000
    105992     19519  TIP3      H2            -20.8468318351       -1.6284971641      -39.2825903004  TIP3      18159           0.0000000000
    105993     19520  TIP3      OH2           -14.5753297762       -2.0361779991      -35.7753417441  TIP3      18160           0.0000000000
    105994     19520  TIP3      H1            -13.6785720028       -1.6663422980      -35.8434758489  TIP3      18160           0.0000000000
    105995     19520  TIP3      H2            -14.6190909506       -2.2446793283      -34.8434726481  TIP3      18160           0.0000000000
    105996     19521  TIP3      OH2            -8.8756336673       -2.0097353221      -34.1470761014  TIP3      18161           0.0000000000
    105997     19521  TIP3      H1             -8.9170832400       -1.8966978164      -35.1049708870  TIP3      18161           0.0000000000
    105998     19521  TIP3      H2             -9.2503909668       -2.9167370413      -34.0249068713  TIP3      18161           0.0000000000
    105999     19522  TIP3      OH2            -7.5974400852       -1.9782120318      -38.4900986682  TIP3      18162           0.0000000000
    106000     19522  TIP3      H1             -8.3437197329       -1.3814143178      -38.6436672564  TIP3      18162           0.0000000000
    106001     19522  TIP3      H2             -8.0317666792       -2.8279522180      -38.2546084260  TIP3      18162           0.0000000000
    106002     19523  TIP3      OH2           -20.3689415478       13.7613896961      -38.8363814928  TIP3      18163           0.0000000000
    106003     19523  TIP3      H1            -21.0454923111       13.7519392933      -39.5423098934  TIP3      18163           0.0000000000
    106004     19523  TIP3      H2            -20.3477896062       14.7101103058      -38.6614003104  TIP3      18163           0.0000000000
    106005     19524  TIP3      OH2           -18.4784343085       -0.3080862013      -41.3014637849  TIP3      18164           0.0000000000
    106006     19524  TIP3      H1            -17.9151632667       -0.8632506655      -41.8453071317  TIP3      18164           0.0000000000
    106007     19524  TIP3      H2            -17.8118044268        0.0882400496      -40.7079945668  TIP3      18164           0.0000000000
    106008     19525  TIP3      OH2           -13.4229829090       -0.0044363431      -38.9198265594  TIP3      18165           0.0000000000
    106009     19525  TIP3      H1            -13.1753609809       -0.5846576763      -38.1818999132  TIP3      18165           0.0000000000
    106010     19525  TIP3      H2            -13.3657587239        0.8568275337      -38.4476285255  TIP3      18165           0.0000000000
    106011     19526  TIP3      OH2           -11.5151774221       15.0729648213      -40.5042968886  TIP3      18166           0.0000000000
    106012     19526  TIP3      H1            -10.5801992144       15.2860219390      -40.6712481098  TIP3      18166           0.0000000000
    106013     19526  TIP3      H2            -11.7050683660       14.5252952375      -41.2948546443  TIP3      18166           0.0000000000
    106014     19527  TIP3      OH2            -4.7937036402       14.5668881752      -37.7644911608  TIP3      18167           0.0000000000
    106015     19527  TIP3      H1             -4.9987276887       13.7879303910      -38.3401874276  TIP3      18167           0.0000000000
    106016     19527  TIP3      H2             -4.8830181816       15.3018860727      -38.4004009321  TIP3      18167           0.0000000000
    106017     19528  TIP3      OH2           -19.1658057234       -1.4069473941      -26.1173318045  TIP3      18168           0.0000000000
    106018     19528  TIP3      H1            -19.5578787122       -2.1939818892      -25.6976755659  TIP3      18168           0.0000000000
    106019     19528  TIP3      H2            -18.2617370271       -1.4569815660      -25.7225962021  TIP3      18168           0.0000000000
    106020     19529  TIP3      OH2           -17.1705016736       -2.0631356704      -24.4925177845  TIP3      18169           0.0000000000
    106021     19529  TIP3      H1            -16.2727525290       -2.3761080179      -24.7193795616  TIP3      18169           0.0000000000
    106022     19529  TIP3      H2            -17.4974887239       -2.8457145637      -24.0215908113  TIP3      18169           0.0000000000
    106023     19530  TIP3      OH2           -18.5415331038       14.7497283201      -41.8684601133  TIP3      18170           0.0000000000
    106024     19530  TIP3      H1            -18.8366504801       15.0045996042      -40.9900881551  TIP3      18170           0.0000000000
    106025     19530  TIP3      H2            -17.8042229824       14.1581858040      -41.6965879514  TIP3      18170           0.0000000000
    106026     19531  TIP3      OH2            -8.7347846354       -2.7267047900      -24.3640904296  TIP3      18171           0.0000000000
    106027     19531  TIP3      H1             -8.6938073451       -3.1878200178      -23.4967660152  TIP3      18171           0.0000000000
    106028     19531  TIP3      H2             -7.8116101268       -2.7826857217      -24.6667271406  TIP3      18171           0.0000000000
    106029     19532  TIP3      OH2            -5.5968605817       13.2861484781      -25.6032055206  TIP3      18172           0.0000000000
    106030     19532  TIP3      H1             -6.3579284698       13.1696536696      -26.2162431301  TIP3      18172           0.0000000000
    106031     19532  TIP3      H2             -5.6561887665       14.2608837030      -25.4776107785  TIP3      18172           0.0000000000
    106032     19533  TIP3      OH2             8.8846330438        7.1827214825      -35.7051995314  TIP3      18173           0.0000000000
    106033     19533  TIP3      H1              8.8791393848        8.1634825984      -35.7429289984  TIP3      18173           0.0000000000
    106034     19533  TIP3      H2              8.1594874431        6.9490388715      -36.3055167455  TIP3      18173           0.0000000000
    106035     19534  TIP3      OH2             7.7436496549        6.4450273118      -32.1993217917  TIP3      18174           0.0000000000
    106036     19534  TIP3      H1              7.7292108816        5.7905730799      -31.4869915168  TIP3      18174           0.0000000000
    106037     19534  TIP3      H2              7.4092271680        5.9403792412      -32.9610423257  TIP3      18174           0.0000000000
    106038     19535  TIP3      OH2             0.0979413736        6.1172323127      -30.6366436286  TIP3      18175           0.0000000000
    106039     19535  TIP3      H1              0.1818769149        5.4257488320      -29.9512657116  TIP3      18175           0.0000000000
    106040     19535  TIP3      H2              0.8480301728        6.6923644249      -30.4383283770  TIP3      18175           0.0000000000
    106041     19536  TIP3      OH2            11.4342777856        9.3899169890      -33.9182767126  TIP3      18176           0.0000000000
    106042     19536  TIP3      H1             11.0168182538        8.6737777355      -33.4291954990  TIP3      18176           0.0000000000
    106043     19536  TIP3      H2             11.4546235116       10.0993799448      -33.2493788280  TIP3      18176           0.0000000000
    106044     19537  TIP3      OH2             1.0246318863       10.5624925839      -32.1413918349  TIP3      18177           0.0000000000
    106045     19537  TIP3      H1              0.7099515454        9.6971534017      -32.4667312026  TIP3      18177           0.0000000000
    106046     19537  TIP3      H2              1.9798826322       10.3776753957      -32.0972700050  TIP3      18177           0.0000000000
    106047     19538  TIP3      OH2            -2.3416920728        4.1179474225      -36.6415977864  TIP3      18178           0.0000000000
    106048     19538  TIP3      H1             -2.7711232516        4.9935085277      -36.7268689524  TIP3      18178           0.0000000000
    106049     19538  TIP3      H2             -2.8975074499        3.5956051048      -37.2376924323  TIP3      18178           0.0000000000
    106050     19539  TIP3      OH2            -1.6286204404        6.3470207501      -34.5110809782  TIP3      18179           0.0000000000
    106051     19539  TIP3      H1             -1.3575194285        5.5268274648      -34.0599412026  TIP3      18179           0.0000000000
    106052     19539  TIP3      H2             -0.9253656816        6.4543525003      -35.1677313501  TIP3      18179           0.0000000000
    106053     19540  TIP3      OH2             8.5563205597       14.5483091763      -33.6778632853  TIP3      18180           0.0000000000
    106054     19540  TIP3      H1              9.1992575758       13.8540074980      -33.9661515939  TIP3      18180           0.0000000000
    106055     19540  TIP3      H2              8.3398910076       14.2165086728      -32.8074908750  TIP3      18180           0.0000000000
    106056     19541  TIP3      OH2             6.1180881184        8.8430194028      -31.7339290406  TIP3      18181           0.0000000000
    106057     19541  TIP3      H1              6.4582823095        8.2148945947      -32.3894086140  TIP3      18181           0.0000000000
    106058     19541  TIP3      H2              6.9251454323        8.9999589010      -31.2130259684  TIP3      18181           0.0000000000
    106059     19542  TIP3      OH2            14.7631170321        0.4896176176      -31.0549348925  TIP3      18182           0.0000000000
    106060     19542  TIP3      H1             14.8668758618        1.0461193798      -30.2372202392  TIP3      18182           0.0000000000
    106061     19542  TIP3      H2             15.3041294156        1.0413141075      -31.6169370880  TIP3      18182           0.0000000000
    106062     19543  TIP3      OH2             9.2892347958        3.3077833908      -31.4202291919  TIP3      18183           0.0000000000
    106063     19543  TIP3      H1              9.4474862684        2.3462910554      -31.4178437638  TIP3      18183           0.0000000000
    106064     19543  TIP3      H2              9.1831927657        3.4521061954      -32.3808665137  TIP3      18183           0.0000000000
    106065     19544  TIP3      OH2             2.3969527024        1.4042305230      -34.1950393278  TIP3      18184           0.0000000000
    106066     19544  TIP3      H1              2.5092060924        2.2353069964      -34.6899919461  TIP3      18184           0.0000000000
    106067     19544  TIP3      H2              2.0066580858        0.8252856948      -34.8853852536  TIP3      18184           0.0000000000
    106068     19545  TIP3      OH2            10.1357127007        1.5062116412      -35.8165718286  TIP3      18185           0.0000000000
    106069     19545  TIP3      H1             10.7854111739        1.1711272645      -35.1632348740  TIP3      18185           0.0000000000
    106070     19545  TIP3      H2             10.7057612197        2.0553843094      -36.3733065004  TIP3      18185           0.0000000000
    106071     19546  TIP3      OH2            -0.9744464744        3.8097818138      -33.4624543033  TIP3      18186           0.0000000000
    106072     19546  TIP3      H1             -0.3016123056        3.2633435343      -33.0116374976  TIP3      18186           0.0000000000
    106073     19546  TIP3      H2             -0.8723969519        3.4957056044      -34.3749305120  TIP3      18186           0.0000000000
    106074     19547  TIP3      OH2             4.1834979474        5.3652026271      -34.1487208578  TIP3      18187           0.0000000000
    106075     19547  TIP3      H1              4.8507251939        4.7839621565      -33.7451974105  TIP3      18187           0.0000000000
    106076     19547  TIP3      H2              3.6666382118        4.7039017723      -34.6511814221  TIP3      18187           0.0000000000
    106077     19548  TIP3      OH2            15.1562143190        1.9083482800      -28.7573449446  TIP3      18188           0.0000000000
    106078     19548  TIP3      H1             14.5481291335        2.6807754238      -28.8281759767  TIP3      18188           0.0000000000
    106079     19548  TIP3      H2             15.2035260140        1.8091426453      -27.7908133922  TIP3      18188           0.0000000000
    106080     19549  TIP3      OH2             1.3041035406        0.2940437236      -30.1596019321  TIP3      18189           0.0000000000
    106081     19549  TIP3      H1              1.0311129664        0.8666598535      -30.9073124587  TIP3      18189           0.0000000000
    106082     19549  TIP3      H2              0.6267518812        0.5286968295      -29.4803138083  TIP3      18189           0.0000000000
    106083     19550  TIP3      OH2             8.6001699224        9.7800496573      -36.6176937645  TIP3      18190           0.0000000000
    106084     19550  TIP3      H1              8.3201712083        9.4949430453      -37.4984882551  TIP3      18190           0.0000000000
    106085     19550  TIP3      H2              8.2906645394       10.7143708890      -36.5642454200  TIP3      18190           0.0000000000
    106086     19551  TIP3      OH2             3.8308890705        7.9391880322      -29.8796305179  TIP3      18191           0.0000000000
    106087     19551  TIP3      H1              3.1159240663        8.5916640236      -29.7181120421  TIP3      18191           0.0000000000
    106088     19551  TIP3      H2              4.5247790341        8.5344002715      -30.2162979396  TIP3      18191           0.0000000000
    106089     19552  TIP3      OH2            12.0098334337        0.7908062382      -33.8491719081  TIP3      18192           0.0000000000
    106090     19552  TIP3      H1             11.6861100981        0.0719301478      -33.2932111095  TIP3      18192           0.0000000000
    106091     19552  TIP3      H2             12.5682794668        1.3021179028      -33.2425856677  TIP3      18192           0.0000000000
    106092     19553  TIP3      OH2             0.8730850681        2.1608853751      -32.1259464079  TIP3      18193           0.0000000000
    106093     19553  TIP3      H1              1.5037403071        2.8443769317      -31.8063573536  TIP3      18193           0.0000000000
    106094     19553  TIP3      H2              1.3998448912        1.7465550390      -32.8521659357  TIP3      18193           0.0000000000
    106095     19554  TIP3      OH2             2.2713665630        9.9455275940      -29.0889385248  TIP3      18194           0.0000000000
    106096     19554  TIP3      H1              2.2240817814       10.8552242562      -29.4393595927  TIP3      18194           0.0000000000
    106097     19554  TIP3      H2              1.3845923708        9.8783184589      -28.6486084534  TIP3      18194           0.0000000000
    106098     19555  TIP3      OH2            -1.6374185754        9.5757548125      -38.2972996702  TIP3      18195           0.0000000000
    106099     19555  TIP3      H1             -1.8940092130        9.8590515943      -39.2020631682  TIP3      18195           0.0000000000
    106100     19555  TIP3      H2             -1.5834380065       10.4175770181      -37.8071496845  TIP3      18195           0.0000000000
    106101     19556  TIP3      OH2            11.9610849223       11.2274339021      -31.5499317863  TIP3      18196           0.0000000000
    106102     19556  TIP3      H1             10.9930995242       11.3374687193      -31.4297741705  TIP3      18196           0.0000000000
    106103     19556  TIP3      H2             12.2309666376       12.1442323932      -31.7487583427  TIP3      18196           0.0000000000
    106104     19557  TIP3      OH2            12.2762337390       -0.4971054481      -30.1766179336  TIP3      18197           0.0000000000
    106105     19557  TIP3      H1             11.5450969721        0.1365785018      -30.2285856380  TIP3      18197           0.0000000000
    106106     19557  TIP3      H2             12.9809072507       -0.0499438363      -30.6698329881  TIP3      18197           0.0000000000
    106107     19558  TIP3      OH2             5.2617808998       -2.3589771298      -32.6349593708  TIP3      18198           0.0000000000
    106108     19558  TIP3      H1              5.1487280509       -3.3123712102      -32.8296164048  TIP3      18198           0.0000000000
    106109     19558  TIP3      H2              4.3561853746       -2.0760586588      -32.4176330267  TIP3      18198           0.0000000000
    106110     19559  TIP3      OH2            10.2204050921       13.0117087141      -34.9594302772  TIP3      18199           0.0000000000
    106111     19559  TIP3      H1             10.6497500582       12.2930610975      -35.4673340116  TIP3      18199           0.0000000000
    106112     19559  TIP3      H2             10.6446609948       13.8026589659      -35.3544574727  TIP3      18199           0.0000000000
    106113     19560  TIP3      OH2            11.4296527504       10.9380750922      -36.4453757251  TIP3      18200           0.0000000000
    106114     19560  TIP3      H1             11.1418103119       10.2418312877      -37.0595188985  TIP3      18200           0.0000000000
    106115     19560  TIP3      H2             11.4638037067       10.4462255422      -35.6044000450  TIP3      18200           0.0000000000
    106116     19561  TIP3      OH2            13.0506070206        9.5308540349      -27.9514616844  TIP3      18201           0.0000000000
    106117     19561  TIP3      H1             13.1968622020        8.8807735284      -28.6735192758  TIP3      18201           0.0000000000
    106118     19561  TIP3      H2             13.2542576290       10.3775763806      -28.3867272760  TIP3      18201           0.0000000000
    106119     19562  TIP3      OH2             7.5432637306        6.4137678920      -38.1869218109  TIP3      18202           0.0000000000
    106120     19562  TIP3      H1              6.8483220840        6.9889477455      -38.5485757212  TIP3      18202           0.0000000000
    106121     19562  TIP3      H2              8.2526294861        6.5106758326      -38.8497588490  TIP3      18202           0.0000000000
    106122     19563  TIP3      OH2             7.6160437589        4.9701897941      -41.1298099404  TIP3      18203           0.0000000000
    106123     19563  TIP3      H1              8.3343686833        4.9671291100      -40.4769947153  TIP3      18203           0.0000000000
    106124     19563  TIP3      H2              7.9059763144        4.2708134262      -41.7242805323  TIP3      18203           0.0000000000
    106125     19564  TIP3      OH2            14.9331692183        5.8433078841      -29.9042899575  TIP3      18204           0.0000000000
    106126     19564  TIP3      H1             14.2723456594        6.5636696570      -29.8638413966  TIP3      18204           0.0000000000
    106127     19564  TIP3      H2             15.4219316912        6.0798137510      -30.7122519593  TIP3      18204           0.0000000000
    106128     19565  TIP3      OH2            10.9983389035        6.6493207975      -37.2490703052  TIP3      18205           0.0000000000
    106129     19565  TIP3      H1             10.2441024359        6.8780015588      -36.6562127709  TIP3      18205           0.0000000000
    106130     19565  TIP3      H2             11.4607633565        5.9571651579      -36.7428906679  TIP3      18205           0.0000000000
    106131     19566  TIP3      OH2            10.9198834345        4.7980065968      -28.1412637046  TIP3      18206           0.0000000000
    106132     19566  TIP3      H1             10.9290624935        5.6162223269      -27.6158212800  TIP3      18206           0.0000000000
    106133     19566  TIP3      H2             10.2908620641        5.0923295422      -28.8322847383  TIP3      18206           0.0000000000
    106134     19567  TIP3      OH2             2.6041886613        7.2918316464      -35.3455690617  TIP3      18207           0.0000000000
    106135     19567  TIP3      H1              2.2834236912        6.9028235800      -36.1950311025  TIP3      18207           0.0000000000
    106136     19567  TIP3      H2              3.2186854395        6.6004437281      -35.0131743449  TIP3      18207           0.0000000000
    106137     19568  TIP3      OH2             3.9267875706       10.6793215932      -32.6677975078  TIP3      18208           0.0000000000
    106138     19568  TIP3      H1              3.9159358433       10.1501804981      -33.4744556583  TIP3      18208           0.0000000000
    106139     19568  TIP3      H2              4.7092765882       10.3201285876      -32.2107567967  TIP3      18208           0.0000000000
    106140     19569  TIP3      OH2             2.9441768115        6.0303957974      -31.6651418851  TIP3      18209           0.0000000000
    106141     19569  TIP3      H1              3.4799149387        6.1350351978      -32.4795058610  TIP3      18209           0.0000000000
    106142     19569  TIP3      H2              3.3242216700        6.7193619444      -31.0836292838  TIP3      18209           0.0000000000
    106143     19570  TIP3      OH2             9.3421617233       11.6115248749      -30.9781075863  TIP3      18210           0.0000000000
    106144     19570  TIP3      H1              9.0561128640       12.2484232287      -30.3220837932  TIP3      18210           0.0000000000
    106145     19570  TIP3      H2              9.0908022945       10.7559495587      -30.5574427195  TIP3      18210           0.0000000000
    106146     19571  TIP3      OH2             3.8627786784       10.4347863902      -26.9499887712  TIP3      18211           0.0000000000
    106147     19571  TIP3      H1              3.4649669346       11.2136260747      -26.5076361083  TIP3      18211           0.0000000000
    106148     19571  TIP3      H2              3.2211134735       10.2825087382      -27.6886569217  TIP3      18211           0.0000000000
    106149     19572  TIP3      OH2             9.8685944744        5.8179142921      -39.5840347178  TIP3      18212           0.0000000000
    106150     19572  TIP3      H1             10.4249869558        6.0052374577      -38.7867289341  TIP3      18212           0.0000000000
    106151     19572  TIP3      H2             10.2849314816        6.3390157916      -40.3033367291  TIP3      18212           0.0000000000
    106152     19573  TIP3      OH2             0.8420023903        6.6012076710      -27.7751759628  TIP3      18213           0.0000000000
    106153     19573  TIP3      H1              0.8492098517        7.3321492884      -27.1249016895  TIP3      18213           0.0000000000
    106154     19573  TIP3      H2             -0.0821446905        6.7126193855      -28.0736039238  TIP3      18213           0.0000000000
    106155     19574  TIP3      OH2             7.5806831712       12.5572177808      -36.1265118016  TIP3      18214           0.0000000000
    106156     19574  TIP3      H1              8.0159553149       12.8628743989      -35.3228783648  TIP3      18214           0.0000000000
    106157     19574  TIP3      H2              7.0216939547       13.3058392892      -36.3626520674  TIP3      18214           0.0000000000
    106158     19575  TIP3      OH2             2.1251128781       12.4869804350      -26.2549421441  TIP3      18215           0.0000000000
    106159     19575  TIP3      H1              2.0616681165       12.3723662175      -27.2166526880  TIP3      18215           0.0000000000
    106160     19575  TIP3      H2              1.1862692842       12.3993480760      -25.9753219862  TIP3      18215           0.0000000000
    106161     19576  TIP3      OH2            13.5816203330       -2.4348822518      -39.6900383472  TIP3      18216           0.0000000000
    106162     19576  TIP3      H1             12.6248207496       -2.3353179168      -39.4621524302  TIP3      18216           0.0000000000
    106163     19576  TIP3      H2             13.7962762531       -1.5798846995      -40.0964508250  TIP3      18216           0.0000000000
    106164     19577  TIP3      OH2             1.5659233069        6.3203841733      -37.7191791430  TIP3      18217           0.0000000000
    106165     19577  TIP3      H1              1.2892126744        7.0962449144      -38.2532734297  TIP3      18217           0.0000000000
    106166     19577  TIP3      H2              0.9221494837        5.6542528701      -37.9686049451  TIP3      18217           0.0000000000
    106167     19578  TIP3      OH2            14.6837820416       11.9167742102      -41.2580871079  TIP3      18218           0.0000000000
    106168     19578  TIP3      H1             14.8301634445       12.8757411967      -41.2182339952  TIP3      18218           0.0000000000
    106169     19578  TIP3      H2             15.5960252773       11.6191307917      -41.4338731013  TIP3      18218           0.0000000000
    106170     19579  TIP3      OH2            -2.3377694864        8.7428013783      -28.8387400940  TIP3      18219           0.0000000000
    106171     19579  TIP3      H1             -2.7852211300        8.6592230058      -29.7010560999  TIP3      18219           0.0000000000
    106172     19579  TIP3      H2             -2.2611048889        7.7936682263      -28.6211656906  TIP3      18219           0.0000000000
    106173     19580  TIP3      OH2            -2.5681098582       11.4776927236      -32.0536207431  TIP3      18220           0.0000000000
    106174     19580  TIP3      H1             -1.6118541745       11.3621176125      -32.0788381430  TIP3      18220           0.0000000000
    106175     19580  TIP3      H2             -2.6579770632       12.2959191737      -31.5482180859  TIP3      18220           0.0000000000
    106176     19581  TIP3      OH2            15.6554139154       12.1874872583      -26.4022013759  TIP3      18221           0.0000000000
    106177     19581  TIP3      H1             15.5490429704       11.2250445015      -26.3915660378  TIP3      18221           0.0000000000
    106178     19581  TIP3      H2             14.8047156032       12.4380830412      -25.9736320825  TIP3      18221           0.0000000000
    106179     19582  TIP3      OH2             6.6174343262       11.7219708599      -27.5190056266  TIP3      18222           0.0000000000
    106180     19582  TIP3      H1              6.6847890599       12.5606543474      -27.0046655676  TIP3      18222           0.0000000000
    106181     19582  TIP3      H2              5.7488010716       11.3704155384      -27.2492592986  TIP3      18222           0.0000000000
    106182     19583  TIP3      OH2             7.0492446990       15.4730888455      -37.7177224285  TIP3      18223           0.0000000000
    106183     19583  TIP3      H1              6.9620663091       15.3962058835      -38.6806651098  TIP3      18223           0.0000000000
    106184     19583  TIP3      H2              7.0823844164       16.4313012824      -37.5597628847  TIP3      18223           0.0000000000
    106185     19584  TIP3      OH2             0.6994614278       14.3454461516      -35.8939762835  TIP3      18224           0.0000000000
    106186     19584  TIP3      H1              0.8450806360       13.9256933770      -35.0156186161  TIP3      18224           0.0000000000
    106187     19584  TIP3      H2             -0.1493882301       13.9388231366      -36.1301220129  TIP3      18224           0.0000000000
    106188     19585  TIP3      OH2            10.0689458414       14.6563780618      -40.7592653186  TIP3      18225           0.0000000000
    106189     19585  TIP3      H1             10.5744553512       13.9202065264      -41.1728493584  TIP3      18225           0.0000000000
    106190     19585  TIP3      H2             10.1553312663       14.4163765671      -39.8162570843  TIP3      18225           0.0000000000
    106191     19586  TIP3      OH2             9.8023719400       14.6161177666      -37.9511023092  TIP3      18226           0.0000000000
    106192     19586  TIP3      H1              8.8466843359       14.6842490967      -37.7611946283  TIP3      18226           0.0000000000
    106193     19586  TIP3      H2             10.0521158968       13.8711098727      -37.3850673714  TIP3      18226           0.0000000000
    106194     19587  TIP3      OH2            12.8146641415        3.6393791399      -25.9209248355  TIP3      18227           0.0000000000
    106195     19587  TIP3      H1             12.3325828334        4.0998110729      -26.6248084104  TIP3      18227           0.0000000000
    106196     19587  TIP3      H2             12.8112164796        2.7157204635      -26.2139352069  TIP3      18227           0.0000000000
    106197     19588  TIP3      OH2            -0.0575104456       10.0859771382      -27.9073759763  TIP3      18228           0.0000000000
    106198     19588  TIP3      H1              0.1487952714        9.7371860687      -27.0181258456  TIP3      18228           0.0000000000
    106199     19588  TIP3      H2             -0.9202403208        9.6708824758      -28.1119691137  TIP3      18228           0.0000000000
    106200     19589  TIP3      OH2             2.6154686908       -1.4690599180      -31.9142210554  TIP3      18229           0.0000000000
    106201     19589  TIP3      H1              1.7312482514       -1.5913529199      -32.3229853668  TIP3      18229           0.0000000000
    106202     19589  TIP3      H2              2.4891345129       -0.6226456303      -31.4614584027  TIP3      18229           0.0000000000
    106203     19590  TIP3      OH2             7.2719440293       -1.7936939988      -28.5737095004  TIP3      18230           0.0000000000
    106204     19590  TIP3      H1              7.6590610311       -2.2218339144      -27.7872126823  TIP3      18230           0.0000000000
    106205     19590  TIP3      H2              6.2980697725       -1.9116546003      -28.4368796768  TIP3      18230           0.0000000000
    106206     19591  TIP3      OH2            10.5595021914        2.0404643285      -27.6820259276  TIP3      18231           0.0000000000
    106207     19591  TIP3      H1              9.9964449407        1.8463657465      -26.8918154656  TIP3      18231           0.0000000000
    106208     19591  TIP3      H2             10.3944734435        2.9696519153      -27.9064085117  TIP3      18231           0.0000000000
    106209     19592  TIP3      OH2            11.3264973703        6.8276647393      -41.8830788741  TIP3      18232           0.0000000000
    106210     19592  TIP3      H1             11.3351215981        6.6647375989      -42.8395459870  TIP3      18232           0.0000000000
    106211     19592  TIP3      H2             12.1577921818        7.3048362853      -41.7389594685  TIP3      18232           0.0000000000
    106212     19593  TIP3      OH2             6.9017297589        0.7744259529      -41.2391765669  TIP3      18233           0.0000000000
    106213     19593  TIP3      H1              6.5895580215        0.7315825399      -40.3172345555  TIP3      18233           0.0000000000
    106214     19593  TIP3      H2              6.6339692491       -0.1045019416      -41.5233337487  TIP3      18233           0.0000000000
    106215     19594  TIP3      OH2             2.7367095668        3.5042500854      -30.6923326861  TIP3      18234           0.0000000000
    106216     19594  TIP3      H1              1.9907690094        3.4936280441      -30.0665852493  TIP3      18234           0.0000000000
    106217     19594  TIP3      H2              2.6822115710        4.4099337382      -31.0718897862  TIP3      18234           0.0000000000
    106218     19595  TIP3      OH2             2.6880449679        3.6345835093      -35.8313012156  TIP3      18235           0.0000000000
    106219     19595  TIP3      H1              1.7537936066        3.3693886305      -35.9626657200  TIP3      18235           0.0000000000
    106220     19595  TIP3      H2              3.0701414137        3.3321623213      -36.6778653068  TIP3      18235           0.0000000000
    106221     19596  TIP3      OH2             8.2097729596        4.1217294592      -37.0539913055  TIP3      18236           0.0000000000
    106222     19596  TIP3      H1              7.8037726740        4.9484113071      -37.4024666715  TIP3      18236           0.0000000000
    106223     19596  TIP3      H2              8.8933078664        3.9607635701      -37.7297704781  TIP3      18236           0.0000000000
    106224     19597  TIP3      OH2             7.2477511578        4.3402708448      -25.6057300571  TIP3      18237           0.0000000000
    106225     19597  TIP3      H1              6.7598708327        3.5452941042      -25.2804967342  TIP3      18237           0.0000000000
    106226     19597  TIP3      H2              8.1092786273        4.2415568678      -25.1498601979  TIP3      18237           0.0000000000
    106227     19598  TIP3      OH2             9.2428645695        3.6167627919      -34.2135610201  TIP3      18238           0.0000000000
    106228     19598  TIP3      H1              8.9648388318        4.1785816382      -34.9563215225  TIP3      18238           0.0000000000
    106229     19598  TIP3      H2              9.3439378843        2.7668652405      -34.6852095837  TIP3      18238           0.0000000000
    106230     19599  TIP3      OH2             0.3481439888        3.7518015600      -29.0036151522  TIP3      18239           0.0000000000
    106231     19599  TIP3      H1              0.3931879473        4.1632971593      -28.1301518325  TIP3      18239           0.0000000000
    106232     19599  TIP3      H2             -0.1066883875        2.9152248111      -28.8144769660  TIP3      18239           0.0000000000
    106233     19600  TIP3      OH2             3.7310944981        1.1066842034      -42.1773891242  TIP3      18240           0.0000000000
    106234     19600  TIP3      H1              3.2812830000        0.7252395271      -41.4060138107  TIP3      18240           0.0000000000
    106235     19600  TIP3      H2              3.0369448101        1.5693381589      -42.6612351289  TIP3      18240           0.0000000000
    106236     19601  TIP3      OH2            -2.9904486867        0.8701705506      -35.0343908197  TIP3      18241           0.0000000000
    106237     19601  TIP3      H1             -2.3106745038        0.8346967042      -34.3285448386  TIP3      18241           0.0000000000
    106238     19601  TIP3      H2             -2.5373549868        0.4910504508      -35.8073629432  TIP3      18241           0.0000000000
    106239     19602  TIP3      OH2            -1.6949593780        1.5981114826      -39.6238604505  TIP3      18242           0.0000000000
    106240     19602  TIP3      H1             -1.2171685062        2.1918733381      -40.2394959946  TIP3      18242           0.0000000000
    106241     19602  TIP3      H2             -2.4022678715        2.2260259480      -39.3475116127  TIP3      18242           0.0000000000
    106242     19603  TIP3      OH2             8.4491223006        5.2047751815      -29.6568072405  TIP3      18243           0.0000000000
    106243     19603  TIP3      H1              8.8233995714        4.5212068150      -30.2472475067  TIP3      18243           0.0000000000
    106244     19603  TIP3      H2              7.9972319328        4.6685891714      -28.9852205622  TIP3      18243           0.0000000000
    106245     19604  TIP3      OH2             5.2533488076        1.2447874219      -34.8013525822  TIP3      18244           0.0000000000
    106246     19604  TIP3      H1              4.3174970031        1.1490688897      -34.5376132332  TIP3      18244           0.0000000000
    106247     19604  TIP3      H2              5.7239120348        1.0023594463      -33.9907765777  TIP3      18244           0.0000000000
    106248     19605  TIP3      OH2             0.0573044523        2.7305846795      -35.9528936219  TIP3      18245           0.0000000000
    106249     19605  TIP3      H1             -0.8278396470        2.8835156196      -36.3423436060  TIP3      18245           0.0000000000
    106250     19605  TIP3      H2              0.3431072260        1.8956599082      -36.3600218586  TIP3      18245           0.0000000000
    106251     19606  TIP3      OH2             3.6913446862        2.7932792876      -38.3108287629  TIP3      18246           0.0000000000
    106252     19606  TIP3      H1              4.6519427102        2.8821205461      -38.1650338063  TIP3      18246           0.0000000000
    106253     19606  TIP3      H2              3.4610753683        3.4393847085      -39.0042423802  TIP3      18246           0.0000000000
    106254     19607  TIP3      OH2             9.6536379548        0.4142057463      -31.5873995877  TIP3      18247           0.0000000000
    106255     19607  TIP3      H1              8.9687371628        0.4643276232      -30.8822184439  TIP3      18247           0.0000000000
    106256     19607  TIP3      H2              9.1409749823        0.1606873447      -32.3680868266  TIP3      18247           0.0000000000
    106257     19608  TIP3      OH2             2.4148016796        3.9583731992      -40.6996826892  TIP3      18248           0.0000000000
    106258     19608  TIP3      H1              1.8411910308        3.6165396148      -41.4089939318  TIP3      18248           0.0000000000
    106259     19608  TIP3      H2              3.2141797852        4.1748321494      -41.2055944791  TIP3      18248           0.0000000000
    106260     19609  TIP3      OH2            12.8440971482       16.0728262797      -25.2181251132  TIP3      18249           0.0000000000
    106261     19609  TIP3      H1             13.1223108874       16.4177801657      -26.0913724218  TIP3      18249           0.0000000000
    106262     19609  TIP3      H2             13.6034280727       16.3557343281      -24.6896685027  TIP3      18249           0.0000000000
    106263     19610  TIP3      OH2             0.5656209448        8.4471817952      -25.6544935659  TIP3      18250           0.0000000000
    106264     19610  TIP3      H1              1.2281920471        8.8143401586      -25.0513868478  TIP3      18250           0.0000000000
    106265     19610  TIP3      H2             -0.2484729085        8.6421689451      -25.1326645645  TIP3      18250           0.0000000000
    106266     19611  TIP3      OH2             6.5294557237        3.9355781121      -32.9265341507  TIP3      18251           0.0000000000
    106267     19611  TIP3      H1              7.1248250623        3.3986904612      -33.4643921882  TIP3      18251           0.0000000000
    106268     19611  TIP3      H2              6.3825645416        3.3853598186      -32.1462812621  TIP3      18251           0.0000000000
    106269     19612  TIP3      OH2             1.5264604093        0.0797204544      -36.5029273842  TIP3      18252           0.0000000000
    106270     19612  TIP3      H1              1.2518237222       -0.8545584139      -36.4951156679  TIP3      18252           0.0000000000
    106271     19612  TIP3      H2              2.3337746330        0.0151525027      -37.0260810102  TIP3      18252           0.0000000000
    106272     19613  TIP3      OH2             5.1648188289        2.2498140252      -30.5114218087  TIP3      18253           0.0000000000
    106273     19613  TIP3      H1              4.3427044705        2.7763318003      -30.4382100427  TIP3      18253           0.0000000000
    106274     19613  TIP3      H2              5.7293446136        2.6084122441      -29.8004896992  TIP3      18253           0.0000000000
    106275     19614  TIP3      OH2             5.7588397581        8.4949044189      -38.8339250941  TIP3      18254           0.0000000000
    106276     19614  TIP3      H1              4.9586516455        8.0116148117      -39.1446629345  TIP3      18254           0.0000000000
    106277     19614  TIP3      H2              5.5449168061        8.6030944543      -37.8851237826  TIP3      18254           0.0000000000
    106278     19615  TIP3      OH2            12.9377524754        7.6830193726      -30.0153557537  TIP3      18255           0.0000000000
    106279     19615  TIP3      H1             13.5048179415        8.1666413167      -30.6426044058  TIP3      18255           0.0000000000
    106280     19615  TIP3      H2             12.0786736021        7.7369920356      -30.4814700344  TIP3      18255           0.0000000000
    106281     19616  TIP3      OH2             9.6021634977        1.2882688801      -40.6199946574  TIP3      18256           0.0000000000
    106282     19616  TIP3      H1              8.6581572357        1.4323330821      -40.8071212327  TIP3      18256           0.0000000000
    106283     19616  TIP3      H2              9.9173798071        2.1626563377      -40.3254293244  TIP3      18256           0.0000000000
    106284     19617  TIP3      OH2             7.2314814252        8.7424516015      -27.5773723312  TIP3      18257           0.0000000000
    106285     19617  TIP3      H1              6.9314704152        8.3398677081      -26.7577958453  TIP3      18257           0.0000000000
    106286     19617  TIP3      H2              6.9976245881        9.6692905285      -27.4748234018  TIP3      18257           0.0000000000
    106287     19618  TIP3      OH2            10.3284546131        3.2211237377      -38.9655385383  TIP3      18258           0.0000000000
    106288     19618  TIP3      H1             11.2214378058        3.0837982991      -38.5965439364  TIP3      18258           0.0000000000
    106289     19618  TIP3      H2             10.4138181307        4.0312886531      -39.4927477960  TIP3      18258           0.0000000000
    106290     19619  TIP3      OH2             0.8673231402        7.8763611322      -33.0143704771  TIP3      18259           0.0000000000
    106291     19619  TIP3      H1              1.5530970237        7.7973482978      -33.7054233959  TIP3      18259           0.0000000000
    106292     19619  TIP3      H2              0.9254482000        7.0168849447      -32.5621524347  TIP3      18259           0.0000000000
    106293     19620  TIP3      OH2             7.8455228052        9.9596404849      -39.7609428724  TIP3      18260           0.0000000000
    106294     19620  TIP3      H1              7.4994216992       10.8072096562      -39.4034648777  TIP3      18260           0.0000000000
    106295     19620  TIP3      H2              7.1054026601        9.3427122750      -39.5498735950  TIP3      18260           0.0000000000
    106296     19621  TIP3      OH2            -2.1308121522        6.2757615244      -27.7543829102  TIP3      18261           0.0000000000
    106297     19621  TIP3      H1             -1.9858807003        5.8345847790      -26.9001751232  TIP3      18261           0.0000000000
    106298     19621  TIP3      H2             -2.7593742025        5.6733249054      -28.1934026189  TIP3      18261           0.0000000000
    106299     19622  TIP3      OH2             4.8832640314        5.7977561773      -25.6032095108  TIP3      18262           0.0000000000
    106300     19622  TIP3      H1              4.7644820329        5.6815550031      -26.5538350033  TIP3      18262           0.0000000000
    106301     19622  TIP3      H2              5.8469578152        5.5777068965      -25.5231219008  TIP3      18262           0.0000000000
    106302     19623  TIP3      OH2             9.5493429547       11.1721797896      -27.6111578724  TIP3      18263           0.0000000000
    106303     19623  TIP3      H1              8.6285692695       11.3536701187      -27.8679851001  TIP3      18263           0.0000000000
    106304     19623  TIP3      H2              9.5027782257       11.4708297312      -26.6907931360  TIP3      18263           0.0000000000
    106305     19624  TIP3      OH2            15.2315602033        3.3581128747      -39.2398283091  TIP3      18264           0.0000000000
    106306     19624  TIP3      H1             14.6343455658        3.0690023619      -39.9601619579  TIP3      18264           0.0000000000
    106307     19624  TIP3      H2             15.2817207309        4.3056639886      -39.4972135843  TIP3      18264           0.0000000000
    106308     19625  TIP3      OH2            15.2185913720        9.2047872950      -26.4314962052  TIP3      18265           0.0000000000
    106309     19625  TIP3      H1             14.3349437059        9.4330532233      -26.8109535104  TIP3      18265           0.0000000000
    106310     19625  TIP3      H2             15.7677185130        9.1703452126      -27.2397299094  TIP3      18265           0.0000000000
    106311     19626  TIP3      OH2            13.5196023629       12.1869984494      -38.8256924392  TIP3      18266           0.0000000000
    106312     19626  TIP3      H1             13.1444781244       11.3582303649      -38.5040349978  TIP3      18266           0.0000000000
    106313     19626  TIP3      H2             13.8137881100       11.9967057268      -39.7431779700  TIP3      18266           0.0000000000
    106314     19627  TIP3      OH2            10.7177808597        7.0031900787      -31.7335788072  TIP3      18267           0.0000000000
    106315     19627  TIP3      H1              9.7773084124        6.7907752097      -31.8408133424  TIP3      18267           0.0000000000
    106316     19627  TIP3      H2             11.1488719588        6.2417090231      -32.1650622766  TIP3      18267           0.0000000000
    106317     19628  TIP3      OH2             3.2368015723       11.3322704890      -35.6312459691  TIP3      18268           0.0000000000
    106318     19628  TIP3      H1              3.7380999582       12.1391924615      -35.8396668642  TIP3      18268           0.0000000000
    106319     19628  TIP3      H2              2.3592836138       11.5660057185      -35.9620241504  TIP3      18268           0.0000000000
    106320     19629  TIP3      OH2            -0.8741082796        6.1691120083      -41.2337429055  TIP3      18269           0.0000000000
    106321     19629  TIP3      H1             -0.3661431140        6.8070949492      -40.7096025198  TIP3      18269           0.0000000000
    106322     19629  TIP3      H2             -1.7506639074        6.4096304579      -40.8401350650  TIP3      18269           0.0000000000
    106323     19630  TIP3      OH2             4.6543793637        9.0074058129      -36.1119089616  TIP3      18270           0.0000000000
    106324     19630  TIP3      H1              4.3432961040        9.9272173225      -36.0241735468  TIP3      18270           0.0000000000
    106325     19630  TIP3      H2              3.9344530953        8.5121962134      -35.6730849075  TIP3      18270           0.0000000000
    106326     19631  TIP3      OH2             5.0936433949       13.2044715518      -29.6878036294  TIP3      18271           0.0000000000
    106327     19631  TIP3      H1              5.5837913041       13.9783621803      -30.0037831312  TIP3      18271           0.0000000000
    106328     19631  TIP3      H2              5.7269334582       12.8296230445      -29.0448591361  TIP3      18271           0.0000000000
    106329     19632  TIP3      OH2             3.3297091922       13.9886097310      -36.5711373707  TIP3      18272           0.0000000000
    106330     19632  TIP3      H1              2.3648106315       14.1324847400      -36.4574819209  TIP3      18272           0.0000000000
    106331     19632  TIP3      H2              3.6911787940       14.8313730285      -36.2387716189  TIP3      18272           0.0000000000
    106332     19633  TIP3      OH2             8.6295897681        9.1858343340      -30.0937699962  TIP3      18273           0.0000000000
    106333     19633  TIP3      H1              8.2988535339        8.9902425233      -29.1918535150  TIP3      18273           0.0000000000
    106334     19633  TIP3      H2              9.2704741516        8.4748113379      -30.2553573758  TIP3      18273           0.0000000000
    106335     19634  TIP3      OH2            10.9229112369       10.2272285430      -40.9796008962  TIP3      18274           0.0000000000
    106336     19634  TIP3      H1             11.2545885382        9.7756361580      -40.1813248757  TIP3      18274           0.0000000000
    106337     19634  TIP3      H2              9.9722929301       10.0650962885      -40.8921924849  TIP3      18274           0.0000000000
    106338     19635  TIP3      OH2            11.4299723493       13.7781599214      -27.5757141064  TIP3      18275           0.0000000000
    106339     19635  TIP3      H1             10.7576577859       13.2694401593      -28.0695305623  TIP3      18275           0.0000000000
    106340     19635  TIP3      H2             11.6307461726       14.4608183249      -28.2525773289  TIP3      18275           0.0000000000
    106341     19636  TIP3      OH2            15.4222915060       14.6442267339      -40.7772531606  TIP3      18276           0.0000000000
    106342     19636  TIP3      H1             16.1459281911       15.2685943397      -40.9527967817  TIP3      18276           0.0000000000
    106343     19636  TIP3      H2             14.7139209465       15.2402125726      -40.4530072278  TIP3      18276           0.0000000000
    106344     19637  TIP3      OH2            -0.4814546898        1.0406022878      -28.1837014282  TIP3      18277           0.0000000000
    106345     19637  TIP3      H1             -1.3952539881        1.3730076708      -28.2293643253  TIP3      18277           0.0000000000
    106346     19637  TIP3      H2             -0.5958617183        0.1787891912      -27.7517432291  TIP3      18277           0.0000000000
    106347     19638  TIP3      OH2            11.7431197813        8.8813171875      -38.7460465137  TIP3      18278           0.0000000000
    106348     19638  TIP3      H1             11.5008665240        8.0939913771      -38.2143618826  TIP3      18278           0.0000000000
    106349     19638  TIP3      H2             12.6960930923        8.9349124650      -38.5590877889  TIP3      18278           0.0000000000
    106350     19639  TIP3      OH2            -0.8520755126       12.8344714302      -29.7684485562  TIP3      18279           0.0000000000
    106351     19639  TIP3      H1             -0.6027820112       11.8899167007      -29.7712593094  TIP3      18279           0.0000000000
    106352     19639  TIP3      H2             -0.6484152723       13.0777462305      -28.8562937733  TIP3      18279           0.0000000000
    106353     19640  TIP3      OH2             5.0904033524       11.2921422578      -42.5310616914  TIP3      18280           0.0000000000
    106354     19640  TIP3      H1              5.2339864604       10.5280138385      -43.0873112986  TIP3      18280           0.0000000000
    106355     19640  TIP3      H2              4.6552619623       10.9248797675      -41.7312006368  TIP3      18280           0.0000000000
    106356     19641  TIP3      OH2             3.8826352403       10.8584364920      -40.0611296751  TIP3      18281           0.0000000000
    106357     19641  TIP3      H1              4.1222724363       10.3397577562      -39.2855134703  TIP3      18281           0.0000000000
    106358     19641  TIP3      H2              3.9465887469       11.7895205763      -39.7493124376  TIP3      18281           0.0000000000
    106359     19642  TIP3      OH2             0.3894241811        8.1115434393      -39.5880896325  TIP3      18282           0.0000000000
    106360     19642  TIP3      H1             -0.3055939290        8.5087804925      -39.0215687187  TIP3      18282           0.0000000000
    106361     19642  TIP3      H2              0.9133493942        8.8867722058      -39.8456260687  TIP3      18282           0.0000000000
    106362     19643  TIP3      OH2             8.2368554838        0.7885600550      -29.2529020400  TIP3      18283           0.0000000000
    106363     19643  TIP3      H1              8.9485510156        0.8496062699      -28.6065005005  TIP3      18283           0.0000000000
    106364     19643  TIP3      H2              7.8520608103       -0.0876480940      -29.0499331495  TIP3      18283           0.0000000000
    106365     19644  TIP3      OH2             8.9717283194        0.3831949414      -38.1425842256  TIP3      18284           0.0000000000
    106366     19644  TIP3      H1              9.2248682324        0.8302522226      -38.9772629657  TIP3      18284           0.0000000000
    106367     19644  TIP3      H2              9.5700365996        0.8066821967      -37.5192677004  TIP3      18284           0.0000000000
    106368     19645  TIP3      OH2             6.6717744472       12.5208682685      -39.3719694721  TIP3      18285           0.0000000000
    106369     19645  TIP3      H1              5.8534976778       13.0443463299      -39.2682021029  TIP3      18285           0.0000000000
    106370     19645  TIP3      H2              7.1934137913       13.0609687129      -39.9804703390  TIP3      18285           0.0000000000
    106371     19646  TIP3      OH2             6.2076834483        2.1106726028      -37.3337472661  TIP3      18286           0.0000000000
    106372     19646  TIP3      H1              7.0008282656        2.6791700699      -37.3022446622  TIP3      18286           0.0000000000
    106373     19646  TIP3      H2              5.9512004679        1.9967041524      -36.3999452639  TIP3      18286           0.0000000000
    106374     19647  TIP3      OH2             6.7553756575        3.1373871793      -28.1450116466  TIP3      18287           0.0000000000
    106375     19647  TIP3      H1              6.8922703922        3.7107706398      -27.3693425592  TIP3      18287           0.0000000000
    106376     19647  TIP3      H2              7.4266424378        2.4401418454      -28.0692153551  TIP3      18287           0.0000000000
    106377     19648  TIP3      OH2             7.0675350248       -0.8033517585      -36.4618620603  TIP3      18288           0.0000000000
    106378     19648  TIP3      H1              6.7319836196       -0.1712972517      -35.8115206067  TIP3      18288           0.0000000000
    106379     19648  TIP3      H2              7.7642835966       -0.2768603487      -36.9159637001  TIP3      18288           0.0000000000
    106380     19649  TIP3      OH2             4.0464091175       13.5573970044      -39.3039217278  TIP3      18289           0.0000000000
    106381     19649  TIP3      H1              4.1927717145       14.3757715746      -39.8315338355  TIP3      18289           0.0000000000
    106382     19649  TIP3      H2              3.7917741338       13.9172263246      -38.4310380276  TIP3      18289           0.0000000000
    106383     19650  TIP3      OH2             2.7232994543        0.2625259444      -39.7060347664  TIP3      18290           0.0000000000
    106384     19650  TIP3      H1              2.6730530598        1.1814736254      -39.3809503042  TIP3      18290           0.0000000000
    106385     19650  TIP3      H2              3.6365347907        0.0230903995      -39.4594633941  TIP3      18290           0.0000000000
    106386     19651  TIP3      OH2            12.9416876318        1.0035593904      -27.2978966146  TIP3      18291           0.0000000000
    106387     19651  TIP3      H1             12.0139286544        1.3120557696      -27.4210614699  TIP3      18291           0.0000000000
    106388     19651  TIP3      H2             13.2436082557        1.0024377645      -28.2168981473  TIP3      18291           0.0000000000
    106389     19652  TIP3      OH2            11.5548431310        4.7982769945      -33.2926072399  TIP3      18292           0.0000000000
    106390     19652  TIP3      H1             10.7306712872        4.3550317958      -33.5734612484  TIP3      18292           0.0000000000
    106391     19652  TIP3      H2             12.0214325258        4.1166670466      -32.7659351533  TIP3      18292           0.0000000000
    106392     19653  TIP3      OH2             0.9855580518       10.7181105061      -40.6822643779  TIP3      18293           0.0000000000
    106393     19653  TIP3      H1              1.6319639940       11.3677329388      -40.3945179346  TIP3      18293           0.0000000000
    106394     19653  TIP3      H2              1.4679827754       10.2499144753      -41.3909558918  TIP3      18293           0.0000000000
    106395     19654  TIP3      OH2            -0.6627882687        3.3782716103      -41.5233090370  TIP3      18294           0.0000000000
    106396     19654  TIP3      H1             -0.6851951104        4.3490914101      -41.3916785797  TIP3      18294           0.0000000000
    106397     19654  TIP3      H2             -1.5456918713        3.2012274041      -41.8677097129  TIP3      18294           0.0000000000
    106398     19655  TIP3      OH2            12.6210125467       14.0514619619      -31.6208656198  TIP3      18295           0.0000000000
    106399     19655  TIP3      H1             12.5281734740       14.7344772395      -32.3143338061  TIP3      18295           0.0000000000
    106400     19655  TIP3      H2             13.5844874422       14.1074897843      -31.4468445549  TIP3      18295           0.0000000000
    106401     19656  TIP3      OH2             0.1154985521       -1.8254177236      -32.8207616290  TIP3      18296           0.0000000000
    106402     19656  TIP3      H1             -0.0842550920       -1.8040034786      -33.7829368323  TIP3      18296           0.0000000000
    106403     19656  TIP3      H2             -0.3041013991       -2.6736557406      -32.5665309576  TIP3      18296           0.0000000000
    106404     19657  TIP3      OH2            -0.9259771617       12.0982381154      -36.6783189715  TIP3      18297           0.0000000000
    106405     19657  TIP3      H1             -1.7846052029       12.5457280644      -36.7137062853  TIP3      18297           0.0000000000
    106406     19657  TIP3      H2             -0.4524565534       12.5650100111      -37.3777674755  TIP3      18297           0.0000000000
    106407     19658  TIP3      OH2            -1.3290932890       14.0663136826      -25.6121173910  TIP3      18298           0.0000000000
    106408     19658  TIP3      H1             -1.1716771837       14.5679443479      -24.7733487852  TIP3      18298           0.0000000000
    106409     19658  TIP3      H2             -2.2582531922       13.8401000857      -25.5425512566  TIP3      18298           0.0000000000
    106410     19659  TIP3      OH2             2.9574261977       13.6111330287      -23.7659756545  TIP3      18299           0.0000000000
    106411     19659  TIP3      H1              3.7502167554       13.1552033478      -23.4736649792  TIP3      18299           0.0000000000
    106412     19659  TIP3      H2              2.8993276596       13.3830607154      -24.7148109867  TIP3      18299           0.0000000000
    106413     19660  TIP3      OH2             7.0657637915       13.1703770146      -42.3901963690  TIP3      18300           0.0000000000
    106414     19660  TIP3      H1              6.3588435824       12.5255084328      -42.1741603303  TIP3      18300           0.0000000000
    106415     19660  TIP3      H2              7.8019089984       12.5908626121      -42.6105129180  TIP3      18300           0.0000000000
    106416     19661  TIP3      OH2             9.4442887083       12.0692524560      -24.9962652666  TIP3      18301           0.0000000000
    106417     19661  TIP3      H1              9.1201676801       11.1586274460      -24.8028631237  TIP3      18301           0.0000000000
    106418     19661  TIP3      H2             10.2654504669       12.1138151650      -24.5072350382  TIP3      18301           0.0000000000
    106419     19662  TIP3      OH2            11.6574228527       12.9552235830      -42.1710867767  TIP3      18302           0.0000000000
    106420     19662  TIP3      H1             11.9096168517       12.1348077521      -41.7097122238  TIP3      18302           0.0000000000
    106421     19662  TIP3      H2             12.4287288445       13.1283495666      -42.7156110325  TIP3      18302           0.0000000000
    106422     19663  TIP3      OH2            -1.8315300928        8.4890771279      -24.3711966937  TIP3      18303           0.0000000000
    106423     19663  TIP3      H1             -1.6501328929        7.6024959055      -24.7253645514  TIP3      18303           0.0000000000
    106424     19663  TIP3      H2             -2.5307762809        8.7984382927      -24.9758543143  TIP3      18303           0.0000000000
    106425     19664  TIP3      OH2             2.5682824209        8.8615684996      -42.3344621063  TIP3      18304           0.0000000000
    106426     19664  TIP3      H1              2.6723956219        8.0861351241      -41.7639695209  TIP3      18304           0.0000000000
    106427     19664  TIP3      H2              3.2251581549        8.7200295490      -43.0210409105  TIP3      18304           0.0000000000
    106428     19665  TIP3      OH2             4.9002282261        8.4992645552      -25.0077716396  TIP3      18305           0.0000000000
    106429     19665  TIP3      H1              4.5812023789        8.8448172370      -25.8663397051  TIP3      18305           0.0000000000
    106430     19665  TIP3      H2              5.0135844057        7.5346500498      -25.1305779779  TIP3      18305           0.0000000000
    106431     19666  TIP3      OH2             7.8974081836        9.9429600364      -42.5803181013  TIP3      18306           0.0000000000
    106432     19666  TIP3      H1              7.6842514101       10.0834625663      -41.6400231114  TIP3      18306           0.0000000000
    106433     19666  TIP3      H2              7.7451172723        8.9948265523      -42.6925084589  TIP3      18306           0.0000000000
    106434     19667  TIP3      OH2            10.5983302008        8.3688941570      -27.6012479547  TIP3      18307           0.0000000000
    106435     19667  TIP3      H1             11.3839604637        8.9527766185      -27.6904963102  TIP3      18307           0.0000000000
    106436     19667  TIP3      H2              9.8943953117        9.0319949110      -27.5855407640  TIP3      18307           0.0000000000
    106437     19668  TIP3      OH2            -0.8563291218        5.7665059408      -24.9957451401  TIP3      18308           0.0000000000
    106438     19668  TIP3      H1             -0.5318069957        4.8729511821      -25.1210893796  TIP3      18308           0.0000000000
    106439     19668  TIP3      H2             -1.1713038070        5.7546615764      -24.0809630355  TIP3      18308           0.0000000000
    106440     19669  TIP3      OH2             3.7535719854        6.8861722923      -39.9411334252  TIP3      18309           0.0000000000
    106441     19669  TIP3      H1              3.2376854507        6.3491941285      -39.3190576651  TIP3      18309           0.0000000000
    106442     19669  TIP3      H2              4.0407547523        6.2031516035      -40.6000186606  TIP3      18309           0.0000000000
    106443     19670  TIP3      OH2             2.8548708631        4.6924086915      -28.0277257293  TIP3      18310           0.0000000000
    106444     19670  TIP3      H1              2.3444379918        5.4554182335      -27.7132216974  TIP3      18310           0.0000000000
    106445     19670  TIP3      H2              3.4662878460        5.1300590027      -28.6604569003  TIP3      18310           0.0000000000
    106446     19671  TIP3      OH2             4.8192612255        5.1758403191      -41.7411397508  TIP3      18311           0.0000000000
    106447     19671  TIP3      H1              4.6629353067        4.9320639181      -42.6654626754  TIP3      18311           0.0000000000
    106448     19671  TIP3      H2              5.7961353494        5.1579610298      -41.6496118064  TIP3      18311           0.0000000000
    106449     19672  TIP3      OH2             8.0608434367        7.2610654126      -24.2819396166  TIP3      18312           0.0000000000
    106450     19672  TIP3      H1              9.0190714552        7.2377363784      -24.4191494881  TIP3      18312           0.0000000000
    106451     19672  TIP3      H2              7.9254339619        6.4930659786      -23.7024475028  TIP3      18312           0.0000000000
    106452     19673  TIP3      OH2            14.1525001968        7.4587695758      -42.3072433495  TIP3      18313           0.0000000000
    106453     19673  TIP3      H1             13.9233928790        7.0470777251      -43.1432566093  TIP3      18313           0.0000000000
    106454     19673  TIP3      H2             14.2435177624        8.3961388944      -42.5357484414  TIP3      18313           0.0000000000
    106455     19674  TIP3      OH2             3.4143387170        2.1539267684      -26.6103385299  TIP3      18314           0.0000000000
    106456     19674  TIP3      H1              3.5156170895        1.3602166139      -27.1903489080  TIP3      18314           0.0000000000
    106457     19674  TIP3      H2              3.3636523457        2.8287592023      -27.2944655798  TIP3      18314           0.0000000000
    106458     19675  TIP3      OH2             3.8043338359        0.4900075565      -29.0229071946  TIP3      18315           0.0000000000
    106459     19675  TIP3      H1              4.3248401190        0.8967659153      -29.7618903910  TIP3      18315           0.0000000000
    106460     19675  TIP3      H2              2.9253251328        0.3596338092      -29.4502339169  TIP3      18315           0.0000000000
    106461     19676  TIP3      OH2             5.3363097030        5.9370695325      -28.7913482729  TIP3      18316           0.0000000000
    106462     19676  TIP3      H1              6.0970151790        5.7697924625      -29.3702267887  TIP3      18316           0.0000000000
    106463     19676  TIP3      H2              4.9999361623        6.7778929980      -29.1519426216  TIP3      18316           0.0000000000
    106464     19677  TIP3      OH2             9.7401321438        3.6871720238      -23.8641877266  TIP3      18317           0.0000000000
    106465     19677  TIP3      H1              9.9847359041        2.7574184608      -23.8932269482  TIP3      18317           0.0000000000
    106466     19677  TIP3      H2             10.6040968905        4.1330990860      -23.7874208859  TIP3      18317           0.0000000000
    106467     19678  TIP3      OH2            11.0888073579        6.4878050067      -25.7037405512  TIP3      18318           0.0000000000
    106468     19678  TIP3      H1             10.8403651116        7.2139847237      -26.3132271474  TIP3      18318           0.0000000000
    106469     19678  TIP3      H2             12.0498664621        6.4543745992      -25.8753287350  TIP3      18318           0.0000000000
    106470     19679  TIP3      OH2             1.8333525692        3.3398359197      -24.7279269485  TIP3      18319           0.0000000000
    106471     19679  TIP3      H1              1.0718436862        2.7270350288      -24.8104789590  TIP3      18319           0.0000000000
    106472     19679  TIP3      H2              2.4900712128        2.8157404890      -25.2270196542  TIP3      18319           0.0000000000
    106473     19680  TIP3      OH2             4.6011578823       -2.1057341474      -28.6594919498  TIP3      18320           0.0000000000
    106474     19680  TIP3      H1              4.4263407293       -1.1455758095      -28.7626629364  TIP3      18320           0.0000000000
    106475     19680  TIP3      H2              3.8509718023       -2.4758976162      -29.1569728425  TIP3      18320           0.0000000000
    106476     19681  TIP3      OH2             5.8448475157        2.2321886592      -25.0468828615  TIP3      18321           0.0000000000
    106477     19681  TIP3      H1              5.6232196889        1.9943590204      -24.1304923585  TIP3      18321           0.0000000000
    106478     19681  TIP3      H2              5.0674199770        1.9698593195      -25.5673832968  TIP3      18321           0.0000000000
    106479     19682  TIP3      OH2             8.5958326512        1.3507983060      -25.9517523361  TIP3      18322           0.0000000000
    106480     19682  TIP3      H1              7.6388622533        1.3919255042      -25.8223108865  TIP3      18322           0.0000000000
    106481     19682  TIP3      H2              8.8781909557        0.7172264504      -25.2706950208  TIP3      18322           0.0000000000
    106482     19683  TIP3      OH2            10.1796282387       -0.0140124669      -23.9983474126  TIP3      18323           0.0000000000
    106483     19683  TIP3      H1             10.1141132404       -0.9911602012      -24.0218885306  TIP3      18323           0.0000000000
    106484     19683  TIP3      H2              9.8782897713        0.2488001185      -23.1287772630  TIP3      18323           0.0000000000
    106485     19684  TIP3      OH2             0.0011918391        1.2579213869      -24.9367615369  TIP3      18324           0.0000000000
    106486     19684  TIP3      H1              0.1981377201        0.5087861162      -25.5308528546  TIP3      18324           0.0000000000
    106487     19684  TIP3      H2             -0.1443248936        0.8022584369      -24.0953721464  TIP3      18324           0.0000000000
    106488     19685  TIP3      OH2             4.8406321803       -2.7106993696      -25.9505024769  TIP3      18325           0.0000000000
    106489     19685  TIP3      H1              5.5048119708       -3.4294885495      -25.9789520244  TIP3      18325           0.0000000000
    106490     19685  TIP3      H2              4.7022947488       -2.5702542025      -26.9069288960  TIP3      18325           0.0000000000
    106491     19686  TIP3      OH2             5.1978279740       -1.0296048212      -23.8775738287  TIP3      18326           0.0000000000
    106492     19686  TIP3      H1              5.0340303247       -1.6197818760      -24.6577173920  TIP3      18326           0.0000000000
    106493     19686  TIP3      H2              4.5185637659       -0.3718111402      -23.9824033285  TIP3      18326           0.0000000000
    106494     19687  TIP3      OH2             4.6597547775       15.8473625952      -40.6619007808  TIP3      18327           0.0000000000
    106495     19687  TIP3      H1              5.6334801247       15.8874484107      -40.6205535358  TIP3      18327           0.0000000000
    106496     19687  TIP3      H2              4.4745663059       16.4307941043      -41.3965210178  TIP3      18327           0.0000000000
    106497     19688  TIP3      OH2            -1.7572718487       10.4110227179      -41.1921145213  TIP3      18328           0.0000000000
    106498     19688  TIP3      H1             -0.8014133607       10.4822348617      -40.9700116579  TIP3      18328           0.0000000000
    106499     19688  TIP3      H2             -1.7295059962        9.7683300844      -41.9154073679  TIP3      18328           0.0000000000
    106500     19689  TIP3      OH2            -3.0226361277       15.7654836790      -36.2270237263  TIP3      18329           0.0000000000
    106501     19689  TIP3      H1             -3.7349502889       15.2793825562      -36.6998768510  TIP3      18329           0.0000000000
    106502     19689  TIP3      H2             -2.7381717397       15.1081814345      -35.5668081153  TIP3      18329           0.0000000000
    106503     19690  TIP3      OH2            -2.1921328595       13.9010747539      -34.3553242088  TIP3      18330           0.0000000000
    106504     19690  TIP3      H1             -2.5486648769       13.0222494998      -34.1595937645  TIP3      18330           0.0000000000
    106505     19690  TIP3      H2             -1.9720621153       14.2313650832      -33.4714940450  TIP3      18330           0.0000000000
    106506     19691  TIP3      OH2            15.3401394107       14.6973938514      -31.4252492748  TIP3      18331           0.0000000000
    106507     19691  TIP3      H1             15.3679557260       14.8609853970      -30.4663159268  TIP3      18331           0.0000000000
    106508     19691  TIP3      H2             16.0449674263       15.2786420044      -31.7289460100  TIP3      18331           0.0000000000
    106509     19692  TIP3      OH2            14.9226893777       14.2970868934      -28.4906802657  TIP3      18332           0.0000000000
    106510     19692  TIP3      H1             14.4394653065       13.5239895632      -28.8533406542  TIP3      18332           0.0000000000
    106511     19692  TIP3      H2             15.4152085732       13.8514856892      -27.7808984569  TIP3      18332           0.0000000000
    106512     19693  TIP3      OH2            13.3545265576       10.0337378882      -23.8630600481  TIP3      18333           0.0000000000
    106513     19693  TIP3      H1             12.5004375549        9.9356939481      -23.4470787402  TIP3      18333           0.0000000000
    106514     19693  TIP3      H2             13.7620293174       10.7977773624      -23.4076948359  TIP3      18333           0.0000000000
    106515     19694  TIP3      OH2            14.6851021076        8.3253789454      -38.3914918463  TIP3      18334           0.0000000000
    106516     19694  TIP3      H1             15.5343134708        8.7469261230      -38.1851379645  TIP3      18334           0.0000000000
    106517     19694  TIP3      H2             14.6579847680        7.6253796074      -37.7032836795  TIP3      18334           0.0000000000
    106518     19695  TIP3      OH2            15.0407745997        6.4097551847      -36.4907047276  TIP3      18335           0.0000000000
    106519     19695  TIP3      H1             14.2858298199        5.9078360269      -36.1081562506  TIP3      18335           0.0000000000
    106520     19695  TIP3      H2             15.6327587315        6.5510287811      -35.7258998771  TIP3      18335           0.0000000000
    106521     19696  TIP3      OH2            14.7923787073        9.1139267370      -31.5104313590  TIP3      18336           0.0000000000
    106522     19696  TIP3      H1             15.6107741787        8.7409441000      -31.8834304062  TIP3      18336           0.0000000000
    106523     19696  TIP3      H2             14.9367342198       10.0691273707      -31.6784975934  TIP3      18336           0.0000000000
    106524     19697  TIP3      OH2            13.3510796645       12.0192504261      -29.2454205075  TIP3      18337           0.0000000000
    106525     19697  TIP3      H1             12.6636161818       12.3576131315      -28.6548733488  TIP3      18337           0.0000000000
    106526     19697  TIP3      H2             12.8005864780       11.6140591939      -29.9488981122  TIP3      18337           0.0000000000
    106527     19698  TIP3      OH2            15.3612907521        6.2515991262      -40.1330770137  TIP3      18338           0.0000000000
    106528     19698  TIP3      H1             14.7692488080        6.5965855974      -40.8333715638  TIP3      18338           0.0000000000
    106529     19698  TIP3      H2             15.2498485331        6.9414464769      -39.4493384259  TIP3      18338           0.0000000000
    106530     19699  TIP3      OH2            13.6692614714        3.4561739796      -41.5432652797  TIP3      18339           0.0000000000
    106531     19699  TIP3      H1             13.7777909241        4.1173351362      -42.2349000347  TIP3      18339           0.0000000000
    106532     19699  TIP3      H2             13.5236949950        2.6406355568      -42.0630432406  TIP3      18339           0.0000000000
    106533     19700  TIP3      OH2            12.8538985896        4.9008256912      -35.9261550416  TIP3      18340           0.0000000000
    106534     19700  TIP3      H1             12.6933056161        3.9480902330      -35.9734108634  TIP3      18340           0.0000000000
    106535     19700  TIP3      H2             12.5191485544        5.1166390553      -35.0381715332  TIP3      18340           0.0000000000
    106536     19701  TIP3      OH2            -2.1382216383        6.9742069775      -31.8618628241  TIP3      18341           0.0000000000
    106537     19701  TIP3      H1             -1.9557018760        6.8955376878      -32.8258056915  TIP3      18341           0.0000000000
    106538     19701  TIP3      H2             -1.2424341101        6.7978135543      -31.5022499524  TIP3      18341           0.0000000000
    106539     19702  TIP3      OH2            13.7103440603        6.8691357755      -26.2233410883  TIP3      18342           0.0000000000
    106540     19702  TIP3      H1             14.3157550691        6.1065530042      -26.1056020009  TIP3      18342           0.0000000000
    106541     19702  TIP3      H2             14.3241620121        7.6319259963      -26.2497206617  TIP3      18342           0.0000000000
    106542     19703  TIP3      OH2            15.2176892234        4.7532789792      -25.6085708623  TIP3      18343           0.0000000000
    106543     19703  TIP3      H1             14.3342365245        4.3472435736      -25.7441383059  TIP3      18343           0.0000000000
    106544     19703  TIP3      H2             15.7895251336        3.9666972868      -25.6593042247  TIP3      18343           0.0000000000
    106545     19704  TIP3      OH2            12.9390880317        0.9613085874      -42.4127780493  TIP3      18344           0.0000000000
    106546     19704  TIP3      H1             13.5338326465        0.4809447532      -41.8055133583  TIP3      18344           0.0000000000
    106547     19704  TIP3      H2             12.0800275849        0.5261378020      -42.2861097058  TIP3      18344           0.0000000000
    106548     19705  TIP3      OH2            12.5426448569        2.4768512291      -37.4267191432  TIP3      18345           0.0000000000
    106549     19705  TIP3      H1             12.8216816413        1.5370887625      -37.3541637828  TIP3      18345           0.0000000000
    106550     19705  TIP3      H2             13.3104462092        2.8762918891      -37.8646633176  TIP3      18345           0.0000000000
    106551     19706  TIP3      OH2            13.1776407046        2.9809378424      -32.0240984486  TIP3      18346           0.0000000000
    106552     19706  TIP3      H1             14.1170208599        3.2854560172      -32.0325009922  TIP3      18346           0.0000000000
    106553     19706  TIP3      H2             12.9567888335        3.1731823757      -31.0960276865  TIP3      18346           0.0000000000
    106554     19707  TIP3      OH2            13.2261473875        3.7443461041      -29.2380853738  TIP3      18347           0.0000000000
    106555     19707  TIP3      H1             12.3455409476        4.0327900561      -28.9178376944  TIP3      18347           0.0000000000
    106556     19707  TIP3      H2             13.6615346766        4.6043813093      -29.4617639833  TIP3      18347           0.0000000000
    106557     19708  TIP3      OH2            -2.5343911658        2.2657691463      -25.7196600630  TIP3      18348           0.0000000000
    106558     19708  TIP3      H1             -1.5998823951        2.0681334759      -25.5285862690  TIP3      18348           0.0000000000
    106559     19708  TIP3      H2             -2.9877125853        1.4478046355      -25.4195618688  TIP3      18348           0.0000000000
    106560     19709  TIP3      OH2            14.8777857707       -1.7730269921      -24.0738388905  TIP3      18349           0.0000000000
    106561     19709  TIP3      H1             15.3814731801       -2.6046248673      -24.2884479558  TIP3      18349           0.0000000000
    106562     19709  TIP3      H2             15.5829716054       -1.1932386213      -24.4012697261  TIP3      18349           0.0000000000
    106563     19710  TIP3      OH2            13.1864936253       -0.2575475422      -37.4140460356  TIP3      18350           0.0000000000
    106564     19710  TIP3      H1             13.3702369033       -0.7115520999      -36.5765212244  TIP3      18350           0.0000000000
    106565     19710  TIP3      H2             12.5650709838       -0.8697374434      -37.8766338661  TIP3      18350           0.0000000000
    106566     19711  TIP3      OH2            -1.3224128288        0.5674293350      -32.8620961019  TIP3      18351           0.0000000000
    106567     19711  TIP3      H1             -0.8603152340       -0.2563873292      -32.6012597513  TIP3      18351           0.0000000000
    106568     19711  TIP3      H2             -0.7781430232        1.2624077640      -32.4717338192  TIP3      18351           0.0000000000
    106569     19712  TIP3      OH2            -3.0381374950        3.5675388827      -31.8217057737  TIP3      18352           0.0000000000
    106570     19712  TIP3      H1             -2.4767012660        3.3224101261      -32.5857060266  TIP3      18352           0.0000000000
    106571     19712  TIP3      H2             -2.5770152664        4.3755553856      -31.5538945228  TIP3      18352           0.0000000000
    106572     19713  TIP3      OH2            15.0694792719        0.0973094034      -25.7292571386  TIP3      18353           0.0000000000
    106573     19713  TIP3      H1             14.0987755111        0.1752116840      -25.6191265859  TIP3      18353           0.0000000000
    106574     19713  TIP3      H2             15.0609568431       -0.6520040282      -26.3425718896  TIP3      18353           0.0000000000
    106575     19714  TIP3      OH2            15.0200121484       -0.1845610122      -40.8788962031  TIP3      18354           0.0000000000
    106576     19714  TIP3      H1             15.4345968767       -0.9150813420      -41.3564649711  TIP3      18354           0.0000000000
    106577     19714  TIP3      H2             15.7317490282        0.4700602970      -40.8276531823  TIP3      18354           0.0000000000
    106578     19715  TIP3      OH2            -2.6721708481       -0.1829314350      -37.7653456194  TIP3      18355           0.0000000000
    106579     19715  TIP3      H1             -3.6137024654        0.0205273990      -37.8846885135  TIP3      18355           0.0000000000
    106580     19715  TIP3      H2             -2.2492415447        0.3252419833      -38.4754771903  TIP3      18355           0.0000000000
    106581     19716  TIP3      OH2            12.0626501440       14.7776349788      -35.8054371564  TIP3      18356           0.0000000000
    106582     19716  TIP3      H1             12.7493668896       14.4704894364      -36.4228366404  TIP3      18356           0.0000000000
    106583     19716  TIP3      H2             12.5794252187       15.2757165412      -35.1538981697  TIP3      18356           0.0000000000
    106584     19717  TIP3      OH2            -2.7228152306       -1.5129739562      -29.4522766881  TIP3      18357           0.0000000000
    106585     19717  TIP3      H1             -3.3929858399       -1.7079708673      -28.7736215457  TIP3      18357           0.0000000000
    106586     19717  TIP3      H2             -3.1821117890       -0.8401979245      -29.9954220793  TIP3      18357           0.0000000000
    106587     19718  TIP3      OH2            -0.5123995011       11.5302550127      -25.2568125469  TIP3      18358           0.0000000000
    106588     19718  TIP3      H1             -1.2682955760       11.9667813915      -25.7037862993  TIP3      18358           0.0000000000
    106589     19718  TIP3      H2             -0.7503574164       11.6720870888      -24.3403820839  TIP3      18358           0.0000000000
    106590     19719  TIP3      OH2             2.4247181721       12.6913308307      -28.9984630151  TIP3      18359           0.0000000000
    106591     19719  TIP3      H1              2.0728248361       13.5278930046      -29.3036265935  TIP3      18359           0.0000000000
    106592     19719  TIP3      H2              3.3488293965       12.7596436847      -29.3209698487  TIP3      18359           0.0000000000
    106593     19720  TIP3      OH2             6.7468848483       14.1050390286      -26.0957963636  TIP3      18360           0.0000000000
    106594     19720  TIP3      H1              6.9010106777       13.7558827206      -25.1965659537  TIP3      18360           0.0000000000
    106595     19720  TIP3      H2              7.6369009127       14.4102326717      -26.3738745721  TIP3      18360           0.0000000000
    106596     19721  TIP3      OH2             9.0203569736       15.3568963570      -26.7723181954  TIP3      18361           0.0000000000
    106597     19721  TIP3      H1              9.7569720590       14.8018192828      -27.0641614285  TIP3      18361           0.0000000000
    106598     19721  TIP3      H2              9.4143866230       15.8214711441      -26.0112978192  TIP3      18361           0.0000000000
    106599     19722  TIP3      OH2            14.0324619221       -1.9958617150      -27.7034490893  TIP3      18362           0.0000000000
    106600     19722  TIP3      H1             13.1951571255       -1.7154020825      -28.1076948761  TIP3      18362           0.0000000000
    106601     19722  TIP3      H2             14.2097944671       -2.8351491869      -28.1915863255  TIP3      18362           0.0000000000
    106602     19723  TIP3      OH2            -0.1159069432       15.9959284602      -28.9789040651  TIP3      18363           0.0000000000
    106603     19723  TIP3      H1             -0.9160262550       16.3660193399      -29.4068406324  TIP3      18363           0.0000000000
    106604     19723  TIP3      H2             -0.4905090788       15.6875343897      -28.1242843715  TIP3      18363           0.0000000000
    106605     19724  TIP3      OH2             2.3220759942       15.5606727464      -29.9243019245  TIP3      18364           0.0000000000
    106606     19724  TIP3      H1              1.3739576402       15.5017088403      -29.6601877364  TIP3      18364           0.0000000000
    106607     19724  TIP3      H2              2.2592342089       16.0323125122      -30.7879245070  TIP3      18364           0.0000000000
    106608     19725  TIP3      OH2             6.9798550395       15.3998020296      -30.7519933724  TIP3      18365           0.0000000000
    106609     19725  TIP3      H1              6.5739714161       15.9648499424      -31.4300377750  TIP3      18365           0.0000000000
    106610     19725  TIP3      H2              7.1704088051       16.0489000323      -30.0406280463  TIP3      18365           0.0000000000
    106611     19726  TIP3      OH2             9.3051449935       14.2314993770      -29.7515900651  TIP3      18366           0.0000000000
    106612     19726  TIP3      H1              8.4459177356       14.5005179010      -30.1134773755  TIP3      18366           0.0000000000
    106613     19726  TIP3      H2              9.7877976754       15.0710597656      -29.8467293224  TIP3      18366           0.0000000000
    106614     19727  TIP3      OH2            11.8815929725       15.7970262728      -29.5232599858  TIP3      18367           0.0000000000
    106615     19727  TIP3      H1             11.8196658539       16.7598511583      -29.7464759677  TIP3      18367           0.0000000000
    106616     19727  TIP3      H2             12.1023210961       15.4300444043      -30.4019229851  TIP3      18367           0.0000000000
    106617     19728  TIP3      OH2            -0.6790580395       14.6049661061      -32.0444935803  TIP3      18368           0.0000000000
    106618     19728  TIP3      H1             -0.7915175970       14.0973735141      -31.2147452989  TIP3      18368           0.0000000000
    106619     19728  TIP3      H2              0.0973434253       14.1862477785      -32.4772453121  TIP3      18368           0.0000000000
    106620     19729  TIP3      OH2             1.3684242864       13.2837034584      -33.4238089828  TIP3      18369           0.0000000000
    106621     19729  TIP3      H1              1.2037840549       12.3500279456      -33.1948734039  TIP3      18369           0.0000000000
    106622     19729  TIP3      H2              2.2325577843       13.4252320938      -32.9836299081  TIP3      18369           0.0000000000
    106623     19730  TIP3      OH2             3.9644162974       13.7737956517      -32.5355151669  TIP3      18370           0.0000000000
    106624     19730  TIP3      H1              4.1312101565       12.8566807640      -32.8139650130  TIP3      18370           0.0000000000
    106625     19730  TIP3      H2              4.0328936838       13.6959066030      -31.5771397562  TIP3      18370           0.0000000000
    106626     19731  TIP3      OH2             7.4485194452       -0.5794831948      -33.3853678850  TIP3      18371           0.0000000000
    106627     19731  TIP3      H1              6.7490036516       -1.2192596705      -33.1552048598  TIP3      18371           0.0000000000
    106628     19731  TIP3      H2              7.9596756280       -1.1126401445      -34.0080257789  TIP3      18371           0.0000000000
    106629     19732  TIP3      OH2            12.5819598557       -2.4976597525      -33.3139739657  TIP3      18372           0.0000000000
    106630     19732  TIP3      H1             13.1501934578       -1.9478464798      -33.8882644397  TIP3      18372           0.0000000000
    106631     19732  TIP3      H2             11.6758424708       -2.1957357267      -33.5585814007  TIP3      18372           0.0000000000
    106632     19733  TIP3      OH2            14.2552638166       -1.3027058927      -35.0361288880  TIP3      18373           0.0000000000
    106633     19733  TIP3      H1             14.8683374286       -1.9050587306      -35.5492349522  TIP3      18373           0.0000000000
    106634     19733  TIP3      H2             14.6381030634       -0.4174621114      -35.1933042698  TIP3      18373           0.0000000000
    106635     19734  TIP3      OH2            -0.1997104543       -1.9502061179      -35.5620037032  TIP3      18374           0.0000000000
    106636     19734  TIP3      H1             -0.9932938859       -2.1561729179      -36.0889403269  TIP3      18374           0.0000000000
    106637     19734  TIP3      H2              0.2756369912       -2.8066179676      -35.6137796028  TIP3      18374           0.0000000000
    106638     19735  TIP3      OH2            -1.4552888576       -2.1982694844      -39.8731587955  TIP3      18375           0.0000000000
    106639     19735  TIP3      H1             -0.9404229879       -1.5451152179      -40.3839749063  TIP3      18375           0.0000000000
    106640     19735  TIP3      H2             -1.9906568221       -1.6331168254      -39.2865808010  TIP3      18375           0.0000000000
    106641     19736  TIP3      OH2             4.1656378783       -1.6630007493      -35.6808830272  TIP3      18376           0.0000000000
    106642     19736  TIP3      H1              5.1191207319       -1.7197881149      -35.8831352409  TIP3      18376           0.0000000000
    106643     19736  TIP3      H2              4.2222046321       -2.2842941294      -34.9409847094  TIP3      18376           0.0000000000
    106644     19737  TIP3      OH2            10.0290835853       -2.0107040883      -34.1516253726  TIP3      18377           0.0000000000
    106645     19737  TIP3      H1              9.9125595386       -1.8980534338      -35.1040874975  TIP3      18377           0.0000000000
    106646     19737  TIP3      H2              9.5888480875       -2.8951781977      -34.0190315166  TIP3      18377           0.0000000000
    106647     19738  TIP3      OH2            11.2520146123       -1.9844445796      -38.4855238851  TIP3      18378           0.0000000000
    106648     19738  TIP3      H1             10.5092067477       -1.3845082009      -38.6449047762  TIP3      18378           0.0000000000
    106649     19738  TIP3      H2             10.8022246583       -2.8308849791      -38.2421923440  TIP3      18378           0.0000000000
    106650     19739  TIP3      OH2            -1.5102822895       13.7541839120      -38.8381701330  TIP3      18379           0.0000000000
    106651     19739  TIP3      H1             -2.1889186697       13.7505376619      -39.5422925771  TIP3      18379           0.0000000000
    106652     19739  TIP3      H2             -1.4925015445       14.7053167964      -38.6607096547  TIP3      18379           0.0000000000
    106653     19740  TIP3      OH2             0.3777893656       -0.3082888490      -41.3019223009  TIP3      18380           0.0000000000
    106654     19740  TIP3      H1              0.9411557672       -0.8636389404      -41.8452780586  TIP3      18380           0.0000000000
    106655     19740  TIP3      H2              1.0436321099        0.0883808800      -40.7079825630  TIP3      18380           0.0000000000
    106656     19741  TIP3      OH2             5.4325855862        0.0008580250      -38.9245198616  TIP3      18381           0.0000000000
    106657     19741  TIP3      H1              5.6812102002       -0.5924672919      -38.1896948574  TIP3      18381           0.0000000000
    106658     19741  TIP3      H2              5.4930324508        0.8489869126      -38.4326411741  TIP3      18381           0.0000000000
    106659     19742  TIP3      OH2             7.3380497099       15.1004484090      -40.5140232137  TIP3      18382           0.0000000000
    106660     19742  TIP3      H1              8.2837090834       15.2714486758      -40.6707549355  TIP3      18382           0.0000000000
    106661     19742  TIP3      H2              7.1504412944       14.5239061166      -41.2873654923  TIP3      18382           0.0000000000
    106662     19743  TIP3      OH2            14.0616735432       14.5673779602      -37.7640552427  TIP3      18383           0.0000000000
    106663     19743  TIP3      H1             13.8579692731       13.7884889896      -38.3404618392  TIP3      18383           0.0000000000
    106664     19743  TIP3      H2             13.9732539720       15.3020949708      -38.4004032555  TIP3      18383           0.0000000000
    106665     19744  TIP3      OH2            -0.3376286246       -1.4131862498      -26.0979105761  TIP3      18384           0.0000000000
    106666     19744  TIP3      H1             -0.7004229027       -2.2154202246      -25.6795525704  TIP3      18384           0.0000000000
    106667     19744  TIP3      H2              0.5867213945       -1.4652165354      -25.7525613595  TIP3      18384           0.0000000000
    106668     19745  TIP3      OH2             1.6901081603       -2.0515371120      -24.5493821458  TIP3      18385           0.0000000000
    106669     19745  TIP3      H1              2.5895052322       -2.3847677116      -24.6806025683  TIP3      18385           0.0000000000
    106670     19745  TIP3      H2              1.3186364721       -2.8165459073      -24.0691920755  TIP3      18385           0.0000000000
    106671     19746  TIP3      OH2             0.3149048634       14.7506679107      -41.8686642948  TIP3      18386           0.0000000000
    106672     19746  TIP3      H1              0.0190641211       15.0042722621      -40.9902030983  TIP3      18386           0.0000000000
    106673     19746  TIP3      H2              1.0511829729       14.1580367122      -41.6964291144  TIP3      18386           0.0000000000
    106674     19747  TIP3      OH2            10.1188332649       -2.7371875182      -24.3149234521  TIP3      18387           0.0000000000
    106675     19747  TIP3      H1             10.1883108720       -3.2479199649      -23.4997137957  TIP3      18387           0.0000000000
    106676     19747  TIP3      H2             11.0312073149       -2.7980516151      -24.6675961392  TIP3      18387           0.0000000000
    106677     19748  TIP3      OH2            13.2636155216       13.2886246484      -25.6307386608  TIP3      18388           0.0000000000
    106678     19748  TIP3      H1             12.5083282920       13.1743582196      -26.2436568582  TIP3      18388           0.0000000000
    106679     19748  TIP3      H2             13.2032625565       14.2516356975      -25.4852269417  TIP3      18388           0.0000000000
    106680     19749  TIP3      OH2            27.7397557065        7.1838785118      -35.7035752070  TIP3      18389           0.0000000000
    106681     19749  TIP3      H1             27.7353578116        8.1651215062      -35.7418746701  TIP3      18389           0.0000000000
    106682     19749  TIP3      H2             27.0163311854        6.9495073605      -36.3044502027  TIP3      18389           0.0000000000
    106683     19750  TIP3      OH2            26.5935427453        6.4440068990      -32.1936992948  TIP3      18390           0.0000000000
    106684     19750  TIP3      H1             26.5863455263        5.7891499766      -31.4841639905  TIP3      18390           0.0000000000
    106685     19750  TIP3      H2             26.2604512217        5.9402538109      -32.9543855780  TIP3      18390           0.0000000000
    106686     19751  TIP3      OH2            18.9546324196        6.1149289704      -30.6467854331  TIP3      18391           0.0000000000
    106687     19751  TIP3      H1             19.0377847339        5.4315448655      -29.9483118004  TIP3      18391           0.0000000000
    106688     19751  TIP3      H2             19.7027150937        6.6882569478      -30.4271273160  TIP3      18391           0.0000000000
    106689     19752  TIP3      OH2            30.2869368079        9.3813115108      -33.9055001216  TIP3      18392           0.0000000000
    106690     19752  TIP3      H1             29.8685618388        8.6673379971      -33.4191116804  TIP3      18392           0.0000000000
    106691     19752  TIP3      H2             30.3083369957       10.0982087946      -33.2452521049  TIP3      18392           0.0000000000
    106692     19753  TIP3      OH2            19.8811487825       10.5638374234      -32.1424343450  TIP3      18393           0.0000000000
    106693     19753  TIP3      H1             19.5670683316        9.6971076301      -32.4656317303  TIP3      18393           0.0000000000
    106694     19753  TIP3      H2             20.8363378126       10.3780422497      -32.0964694226  TIP3      18393           0.0000000000
    106695     19754  TIP3      OH2            16.5277482984        4.1049959173      -36.6659989064  TIP3      18394           0.0000000000
    106696     19754  TIP3      H1             16.0995476491        4.9835888952      -36.7193454693  TIP3      18394           0.0000000000
    106697     19754  TIP3      H2             15.9441452697        3.5904046629      -37.2336791454  TIP3      18394           0.0000000000
    106698     19755  TIP3      OH2            17.2301807916        6.3479881187      -34.5146887144  TIP3      18395           0.0000000000
    106699     19755  TIP3      H1             17.4968409260        5.5286744239      -34.0615918304  TIP3      18395           0.0000000000
    106700     19755  TIP3      H2             17.9292950800        6.4518103864      -35.1775736452  TIP3      18395           0.0000000000
    106701     19756  TIP3      OH2            27.4049090057       14.5455210767      -33.6823601923  TIP3      18396           0.0000000000
    106702     19756  TIP3      H1             28.0544740353       13.8542367545      -33.9657837318  TIP3      18396           0.0000000000
    106703     19756  TIP3      H2             27.1956101213       14.2176888260      -32.8076708364  TIP3      18396           0.0000000000
    106704     19757  TIP3      OH2            24.9762744583        8.8432119072      -31.7354701294  TIP3      18397           0.0000000000
    106705     19757  TIP3      H1             25.3153142665        8.2131611874      -32.3898188129  TIP3      18397           0.0000000000
    106706     19757  TIP3      H2             25.7827896554        8.9992123742      -31.2141580514  TIP3      18397           0.0000000000
    106707     19758  TIP3      OH2            33.5757699267        0.4999645743      -31.0000727475  TIP3      18398           0.0000000000
    106708     19758  TIP3      H1             33.7439019929        1.0903974822      -30.2337391433  TIP3      18398           0.0000000000
    106709     19758  TIP3      H2             34.1384343013        0.9251485598      -31.6636035628  TIP3      18398           0.0000000000
    106710     19759  TIP3      OH2            28.1430703334        3.3107437341      -31.4195066584  TIP3      18399           0.0000000000
    106711     19759  TIP3      H1             28.3081065020        2.3513015848      -31.4169938960  TIP3      18399           0.0000000000
    106712     19759  TIP3      H2             28.0402954040        3.4526748553      -32.3804089225  TIP3      18399           0.0000000000
    106713     19760  TIP3      OH2            21.2673582293        1.3998273510      -34.2029125365  TIP3      18400           0.0000000000
    106714     19760  TIP3      H1             21.3626229317        2.2384278855      -34.6879804929  TIP3      18400           0.0000000000
    106715     19760  TIP3      H2             20.8774928904        0.8282905583      -34.8959743028  TIP3      18400           0.0000000000
    106716     19761  TIP3      OH2            28.9939612056        1.4779576776      -35.8276753377  TIP3      18401           0.0000000000
    106717     19761  TIP3      H1             29.6498871324        1.1661416738      -35.1616533027  TIP3      18401           0.0000000000
    106718     19761  TIP3      H2             29.5551083098        2.0498762461      -36.3728169783  TIP3      18401           0.0000000000
    106719     19762  TIP3      OH2            17.8473995062        3.7626806069      -33.4639559205  TIP3      18402           0.0000000000
    106720     19762  TIP3      H1             18.5719685911        3.2820115640      -33.0158709829  TIP3      18402           0.0000000000
    106721     19762  TIP3      H2             18.0074274350        3.5186735154      -34.3882453724  TIP3      18402           0.0000000000
    106722     19763  TIP3      OH2            23.0421462949        5.3643293123      -34.1526917245  TIP3      18403           0.0000000000
    106723     19763  TIP3      H1             23.7098054852        4.7842362956      -33.7461286403  TIP3      18403           0.0000000000
    106724     19763  TIP3      H2             22.5224505312        4.7037436924      -34.6516774431  TIP3      18403           0.0000000000
    106725     19764  TIP3      OH2            34.0299039731        1.9060282754      -28.7247291855  TIP3      18404           0.0000000000
    106726     19764  TIP3      H1             33.4149876969        2.6651304583      -28.8390653246  TIP3      18404           0.0000000000
    106727     19764  TIP3      H2             34.0547923959        1.8104757353      -27.7649198311  TIP3      18404           0.0000000000
    106728     19765  TIP3      OH2            20.1426984180        0.2821837930      -30.1691275630  TIP3      18405           0.0000000000
    106729     19765  TIP3      H1             19.8940641503        0.8842090832      -30.9004667677  TIP3      18405           0.0000000000
    106730     19765  TIP3      H2             19.4937505245        0.5316727878      -29.4685622689  TIP3      18405           0.0000000000
    106731     19766  TIP3      OH2            27.4552465795        9.7828461674      -36.6165309601  TIP3      18406           0.0000000000
    106732     19766  TIP3      H1             27.1933352742        9.5034650162      -37.5046222031  TIP3      18406           0.0000000000
    106733     19766  TIP3      H2             27.1470640396       10.7131645221      -36.5597337674  TIP3      18406           0.0000000000
    106734     19767  TIP3      OH2            22.6815777127        7.9412988657      -29.9136189775  TIP3      18407           0.0000000000
    106735     19767  TIP3      H1             21.9714146611        8.5848121716      -29.7057177134  TIP3      18407           0.0000000000
    106736     19767  TIP3      H2             23.3861406192        8.5401811894      -30.2074947290  TIP3      18407           0.0000000000
    106737     19768  TIP3      OH2            30.8039491334        0.8243051947      -33.8374811193  TIP3      18408           0.0000000000
    106738     19768  TIP3      H1             30.5850641845        0.0554432314      -33.3033430356  TIP3      18408           0.0000000000
    106739     19768  TIP3      H2             31.4737518497        1.2629169796      -33.2872481203  TIP3      18408           0.0000000000
    106740     19769  TIP3      OH2            19.7136317132        2.1406338985      -32.1488328438  TIP3      18409           0.0000000000
    106741     19769  TIP3      H1             20.3394740371        2.8263998387      -31.8145166156  TIP3      18409           0.0000000000
    106742     19769  TIP3      H2             20.2642276070        1.7402262121      -32.8652176420  TIP3      18409           0.0000000000
    106743     19770  TIP3      OH2            21.1268137640        9.9451430648      -29.0998116429  TIP3      18410           0.0000000000
    106744     19770  TIP3      H1             21.0768930983       10.8555346586      -29.4458646229  TIP3      18410           0.0000000000
    106745     19770  TIP3      H2             20.2440850068        9.8653833027      -28.6555777458  TIP3      18410           0.0000000000
    106746     19771  TIP3      OH2            17.1889385509        9.5609769922      -38.3080894061  TIP3      18411           0.0000000000
    106747     19771  TIP3      H1             16.9713505856        9.8854701708      -39.2057069512  TIP3      18411           0.0000000000
    106748     19771  TIP3      H2             17.2738496603       10.3965066074      -37.8036785282  TIP3      18411           0.0000000000
    106749     19772  TIP3      OH2            30.8174599918       11.2279693806      -31.5497750067  TIP3      18412           0.0000000000
    106750     19772  TIP3      H1             29.8488836898       11.3370010474      -31.4297421735  TIP3      18412           0.0000000000
    106751     19772  TIP3      H2             31.0862621416       12.1448338635      -31.7494677225  TIP3      18412           0.0000000000
    106752     19773  TIP3      OH2            31.1301727277       -0.4861731162      -30.1592740538  TIP3      18413           0.0000000000
    106753     19773  TIP3      H1             30.4088363771        0.1474709022      -30.2480672739  TIP3      18413           0.0000000000
    106754     19773  TIP3      H2             31.8446737371       -0.0702778687      -30.6842783947  TIP3      18413           0.0000000000
    106755     19774  TIP3      OH2            24.1091621777       -2.3688419160      -32.6957621502  TIP3      18414           0.0000000000
    106756     19774  TIP3      H1             23.9711935950       -3.3323377823      -32.7664964231  TIP3      18414           0.0000000000
    106757     19774  TIP3      H2             23.2311108014       -2.0634663779      -32.3894058837  TIP3      18414           0.0000000000
    106758     19775  TIP3      OH2            29.0761921759       13.0110314525      -34.9586324658  TIP3      18415           0.0000000000
    106759     19775  TIP3      H1             29.5055830492       12.2926828453      -35.4674954991  TIP3      18415           0.0000000000
    106760     19775  TIP3      H2             29.5033292905       13.8019899896      -35.3504331377  TIP3      18415           0.0000000000
    106761     19776  TIP3      OH2            30.2815365572       10.9380162025      -36.4419395866  TIP3      18416           0.0000000000
    106762     19776  TIP3      H1             29.9997531179       10.2424528900      -37.0601728512  TIP3      18416           0.0000000000
    106763     19776  TIP3      H2             30.3195122722       10.4441031578      -35.6033330991  TIP3      18416           0.0000000000
    106764     19777  TIP3      OH2            31.8871485052        9.5417346987      -27.9427767614  TIP3      18417           0.0000000000
    106765     19777  TIP3      H1             32.0513808922        8.8826727556      -28.6565145882  TIP3      18417           0.0000000000
    106766     19777  TIP3      H2             32.1170693236       10.3756759657      -28.3943198688  TIP3      18417           0.0000000000
    106767     19778  TIP3      OH2            26.4020883557        6.4123039792      -38.1862531394  TIP3      18418           0.0000000000
    106768     19778  TIP3      H1             25.7073493477        6.9894967014      -38.5452302634  TIP3      18418           0.0000000000
    106769     19778  TIP3      H2             27.1146211042        6.5136140252      -38.8458319623  TIP3      18418           0.0000000000
    106770     19779  TIP3      OH2            26.4687686294        4.9711403011      -41.1316878508  TIP3      18419           0.0000000000
    106771     19779  TIP3      H1             27.1802079551        4.9619240772      -40.4721831610  TIP3      18419           0.0000000000
    106772     19779  TIP3      H2             26.7667748757        4.2726897817      -41.7238520697  TIP3      18419           0.0000000000
    106773     19780  TIP3      OH2            33.7867098508        5.8436654586      -29.9034407542  TIP3      18420           0.0000000000
    106774     19780  TIP3      H1             33.1302379514        6.5656946149      -29.8579582721  TIP3      18420           0.0000000000
    106775     19780  TIP3      H2             34.2701467414        6.0797915019      -30.7151562329  TIP3      18420           0.0000000000
    106776     19781  TIP3      OH2            29.8477769447        6.6458421593      -37.2396000058  TIP3      18421           0.0000000000
    106777     19781  TIP3      H1             29.0941231003        6.8781188922      -36.6489796816  TIP3      18421           0.0000000000
    106778     19781  TIP3      H2             30.3156507496        5.9548653367      -36.7387781042  TIP3      18421           0.0000000000
    106779     19782  TIP3      OH2            29.7698976461        4.7978418704      -28.1332748014  TIP3      18422           0.0000000000
    106780     19782  TIP3      H1             29.7876984181        5.6169370014      -27.6112038708  TIP3      18422           0.0000000000
    106781     19782  TIP3      H2             29.1471473685        5.0940342286      -28.8307959230  TIP3      18422           0.0000000000
    106782     19783  TIP3      OH2            21.4545629615        7.2916726087      -35.3522037976  TIP3      18423           0.0000000000
    106783     19783  TIP3      H1             21.1411020769        6.9002164995      -36.1986548652  TIP3      18423           0.0000000000
    106784     19783  TIP3      H2             22.0732110296        6.6025804402      -35.0140238963  TIP3      18423           0.0000000000
    106785     19784  TIP3      OH2            22.7824046951       10.6804417519      -32.6678609012  TIP3      18424           0.0000000000
    106786     19784  TIP3      H1             22.7712052023       10.1502772011      -33.4734779072  TIP3      18424           0.0000000000
    106787     19784  TIP3      H2             23.5640292210       10.3200296232      -32.2113847764  TIP3      18424           0.0000000000
    106788     19785  TIP3      OH2            21.7925459705        6.0403942676      -31.6878256500  TIP3      18425           0.0000000000
    106789     19785  TIP3      H1             22.3469797314        6.1455284960      -32.4858045135  TIP3      18425           0.0000000000
    106790     19785  TIP3      H2             22.1767981992        6.7042919798      -31.0741957561  TIP3      18425           0.0000000000
    106791     19786  TIP3      OH2            28.2048035528       11.6088053553      -30.9759752423  TIP3      18426           0.0000000000
    106792     19786  TIP3      H1             27.9122714353       12.2479514434      -30.3234268699  TIP3      18426           0.0000000000
    106793     19786  TIP3      H2             27.9475300038       10.7544916085      -30.5554955921  TIP3      18426           0.0000000000
    106794     19787  TIP3      OH2            22.7304491159       10.4661471243      -26.9618819698  TIP3      18427           0.0000000000
    106795     19787  TIP3      H1             22.3317433836       11.2361980347      -26.5161402979  TIP3      18427           0.0000000000
    106796     19787  TIP3      H2             22.0699022905       10.2696270911      -27.6703865153  TIP3      18427           0.0000000000
    106797     19788  TIP3      OH2            28.7231581308        5.8192824971      -39.5828869532  TIP3      18428           0.0000000000
    106798     19788  TIP3      H1             29.2811485750        6.0036328372      -38.7869382928  TIP3      18428           0.0000000000
    106799     19788  TIP3      H2             29.1411389942        6.3372944696      -40.3044062996  TIP3      18428           0.0000000000
    106800     19789  TIP3      OH2            19.6740619012        6.6172858644      -27.7974546766  TIP3      18429           0.0000000000
    106801     19789  TIP3      H1             19.7263854618        7.3021658794      -27.1024809970  TIP3      18429           0.0000000000
    106802     19789  TIP3      H2             18.7489511779        6.7305270361      -28.0669996112  TIP3      18429           0.0000000000
    106803     19790  TIP3      OH2            26.4374672594       12.5578810699      -36.1272545553  TIP3      18430           0.0000000000
    106804     19790  TIP3      H1             26.8714193532       12.8625494336      -35.3222782771  TIP3      18430           0.0000000000
    106805     19790  TIP3      H2             25.8767883261       13.3058428219      -36.3617606901  TIP3      18430           0.0000000000
    106806     19791  TIP3      OH2            20.9881814459       12.5015837524      -26.2586725153  TIP3      18431           0.0000000000
    106807     19791  TIP3      H1             20.9228042360       12.3987673074      -27.2212732025  TIP3      18431           0.0000000000
    106808     19791  TIP3      H2             20.0610016441       12.3765816209      -25.9740653062  TIP3      18431           0.0000000000
    106809     19792  TIP3      OH2            32.4449200170       -2.4343472118      -39.6803005901  TIP3      18432           0.0000000000
    106810     19792  TIP3      H1             31.4858388310       -2.3327947244      -39.4507485731  TIP3      18432           0.0000000000
    106811     19792  TIP3      H2             32.6484567892       -1.5882032480      -40.1127665358  TIP3      18432           0.0000000000
    106812     19793  TIP3      OH2            20.4461236826        6.3043646266      -37.7656277075  TIP3      18433           0.0000000000
    106813     19793  TIP3      H1             20.1462612013        7.1074558954      -38.2440073535  TIP3      18433           0.0000000000
    106814     19793  TIP3      H2             19.7571190049        5.6672202401      -37.9489010313  TIP3      18433           0.0000000000
    106815     19794  TIP3      OH2            33.5230119060       12.0988891721      -41.0356991994  TIP3      18434           0.0000000000
    106816     19794  TIP3      H1             33.7326877559       13.0246939053      -41.2223644138  TIP3      18434           0.0000000000
    106817     19794  TIP3      H2             34.2650586536       11.6324386849      -41.4757389361  TIP3      18434           0.0000000000
    106818     19795  TIP3      OH2            16.5244738585        8.7460743414      -28.8477609978  TIP3      18435           0.0000000000
    106819     19795  TIP3      H1             16.0722824528        8.6634801631      -29.7058724457  TIP3      18435           0.0000000000
    106820     19795  TIP3      H2             16.5946146748        7.7970497434      -28.6220900384  TIP3      18435           0.0000000000
    106821     19796  TIP3      OH2            16.2806185347       11.4804630197      -32.0585118781  TIP3      18436           0.0000000000
    106822     19796  TIP3      H1             17.2388130850       11.3632646647      -32.0786189569  TIP3      18436           0.0000000000
    106823     19796  TIP3      H2             16.1973258812       12.2965624832      -31.5503378668  TIP3      18436           0.0000000000
    106824     19797  TIP3      OH2            34.5176455472       12.1870735431      -26.3997593626  TIP3      18437           0.0000000000
    106825     19797  TIP3      H1             34.4036129482       11.2247718458      -26.3918177987  TIP3      18437           0.0000000000
    106826     19797  TIP3      H2             33.6666201220       12.4365833496      -25.9723171019  TIP3      18437           0.0000000000
    106827     19798  TIP3      OH2            25.4973152478       11.6982286887      -27.4674228565  TIP3      18438           0.0000000000
    106828     19798  TIP3      H1             25.5267542339       12.5769118941      -27.0144060897  TIP3      18438           0.0000000000
    106829     19798  TIP3      H2             24.5938547414       11.3789088758      -27.2705010596  TIP3      18438           0.0000000000
    106830     19799  TIP3      OH2            25.8752658834       15.4833205371      -37.7243719396  TIP3      18439           0.0000000000
    106831     19799  TIP3      H1             25.8416178406       15.3947779873      -38.6850891664  TIP3      18439           0.0000000000
    106832     19799  TIP3      H2             25.9584245369       16.4383077411      -37.5523960450  TIP3      18439           0.0000000000
    106833     19800  TIP3      OH2            19.5570293766       14.3435735609      -35.8922704170  TIP3      18440           0.0000000000
    106834     19800  TIP3      H1             19.7020532323       13.9294643163      -35.0107729685  TIP3      18440           0.0000000000
    106835     19800  TIP3      H2             18.7067553763       13.9392763018      -36.1292326758  TIP3      18440           0.0000000000
    106836     19801  TIP3      OH2            28.8969301288       14.6545188264      -40.7469062602  TIP3      18441           0.0000000000
    106837     19801  TIP3      H1             29.4299306143       13.9420983310      -41.1880858378  TIP3      18441           0.0000000000
    106838     19801  TIP3      H2             29.0253346355       14.4051753163      -39.8153073169  TIP3      18441           0.0000000000
    106839     19802  TIP3      OH2            28.6636483048       14.6080482737      -37.9479313079  TIP3      18442           0.0000000000
    106840     19802  TIP3      H1             27.7097800290       14.6822202413      -37.7603185177  TIP3      18442           0.0000000000
    106841     19802  TIP3      H2             28.9106544905       13.8643295473      -37.3769416414  TIP3      18442           0.0000000000
    106842     19803  TIP3      OH2            31.6756244521        3.6499909256      -25.9490669149  TIP3      18443           0.0000000000
    106843     19803  TIP3      H1             31.1803295567        4.1043736097      -26.6445678317  TIP3      18443           0.0000000000
    106844     19803  TIP3      H2             31.6571613187        2.7240534826      -26.2244783206  TIP3      18443           0.0000000000
    106845     19804  TIP3      OH2            18.8092704791       10.0478559661      -27.8962136330  TIP3      18444           0.0000000000
    106846     19804  TIP3      H1             19.0285104625        9.6896663082      -27.0089894997  TIP3      18444           0.0000000000
    106847     19804  TIP3      H2             17.9353727899        9.6605214178      -28.1070610750  TIP3      18444           0.0000000000
    106848     19805  TIP3      OH2            21.4971935063       -1.4721499351      -31.9372254345  TIP3      18445           0.0000000000
    106849     19805  TIP3      H1             20.5998152979       -1.6002116822      -32.3013964210  TIP3      18445           0.0000000000
    106850     19805  TIP3      H2             21.3559185840       -0.6367909412      -31.4622226457  TIP3      18445           0.0000000000
    106851     19806  TIP3      OH2            26.1286523294       -1.7966589184      -28.5765399042  TIP3      18446           0.0000000000
    106852     19806  TIP3      H1             26.5160124775       -2.2126385370      -27.7843139537  TIP3      18446           0.0000000000
    106853     19806  TIP3      H2             25.1576203219       -1.9184593064      -28.4319522129  TIP3      18446           0.0000000000
    106854     19807  TIP3      OH2            29.4209047376        2.0457889056      -27.6841247002  TIP3      18447           0.0000000000
    106855     19807  TIP3      H1             28.8572441444        1.8337124352      -26.9045988854  TIP3      18447           0.0000000000
    106856     19807  TIP3      H2             29.2356611076        2.9709387540      -27.9157604771  TIP3      18447           0.0000000000
    106857     19808  TIP3      OH2            30.1570350629        6.8263979340      -41.8823523363  TIP3      18448           0.0000000000
    106858     19808  TIP3      H1             30.1996902655        6.6831686896      -42.8400554064  TIP3      18448           0.0000000000
    106859     19808  TIP3      H2             31.0033348394        7.2961013916      -41.7410315359  TIP3      18448           0.0000000000
    106860     19809  TIP3      OH2            25.7649303484        0.7726377343      -41.2435141871  TIP3      18449           0.0000000000
    106861     19809  TIP3      H1             25.4450054618        0.7351712729      -40.3238597211  TIP3      18449           0.0000000000
    106862     19809  TIP3      H2             25.4886059494       -0.1023323812      -41.5265396032  TIP3      18449           0.0000000000
    106863     19810  TIP3      OH2            21.5843822646        3.5028295710      -30.6973764009  TIP3      18450           0.0000000000
    106864     19810  TIP3      H1             20.8505939039        3.4937539379      -30.0560509324  TIP3      18450           0.0000000000
    106865     19810  TIP3      H2             21.5406374859        4.4155544899      -31.0631765036  TIP3      18450           0.0000000000
    106866     19811  TIP3      OH2            21.5382109220        3.6399297314      -35.8419287721  TIP3      18451           0.0000000000
    106867     19811  TIP3      H1             20.6062624409        3.3653739638      -35.9528829836  TIP3      18451           0.0000000000
    106868     19811  TIP3      H2             21.9316105032        3.3263775160      -36.6739036530  TIP3      18451           0.0000000000
    106869     19812  TIP3      OH2            27.0565491868        4.1233937859      -37.0610509272  TIP3      18452           0.0000000000
    106870     19812  TIP3      H1             26.6671378705        4.9596043054      -37.4070627880  TIP3      18452           0.0000000000
    106871     19812  TIP3      H2             27.7470328092        3.9623471629      -37.7297039252  TIP3      18452           0.0000000000
    106872     19813  TIP3      OH2            26.1208747485        4.3452222444      -25.6101921056  TIP3      18453           0.0000000000
    106873     19813  TIP3      H1             25.5894120746        3.5668202691      -25.3226384944  TIP3      18453           0.0000000000
    106874     19813  TIP3      H2             26.9627477642        4.2190792642      -25.1498954590  TIP3      18453           0.0000000000
    106875     19814  TIP3      OH2            28.0987958341        3.6159524762      -34.2148246881  TIP3      18454           0.0000000000
    106876     19814  TIP3      H1             27.8212155413        4.1786983588      -34.9567149214  TIP3      18454           0.0000000000
    106877     19814  TIP3      H2             28.1988617271        2.7658076350      -34.6842105847  TIP3      18454           0.0000000000
    106878     19815  TIP3      OH2            19.2104269737        3.7632918833      -29.0025814853  TIP3      18455           0.0000000000
    106879     19815  TIP3      H1             19.2865812171        4.1652241838      -28.1177882258  TIP3      18455           0.0000000000
    106880     19815  TIP3      H2             18.7679074785        2.9225283526      -28.8045164808  TIP3      18455           0.0000000000
    106881     19816  TIP3      OH2            22.5927278935        1.1631264013      -42.1496558640  TIP3      18456           0.0000000000
    106882     19816  TIP3      H1             22.1613975781        0.6947663648      -41.4119853734  TIP3      18456           0.0000000000
    106883     19816  TIP3      H2             21.9142050657        1.5205236313      -42.7218381067  TIP3      18456           0.0000000000
    106884     19817  TIP3      OH2            15.8868410209        0.8916084956      -35.0990218825  TIP3      18457           0.0000000000
    106885     19817  TIP3      H1             16.6285393526        1.0369414104      -34.4837266438  TIP3      18457           0.0000000000
    106886     19817  TIP3      H2             16.3386039114        0.5404110726      -35.9003070114  TIP3      18457           0.0000000000
    106887     19818  TIP3      OH2            17.1756226367        1.6097484345      -39.6162919507  TIP3      18458           0.0000000000
    106888     19818  TIP3      H1             17.5540836735        2.2436201628      -40.2441765478  TIP3      18458           0.0000000000
    106889     19818  TIP3      H2             16.4433489248        2.1919606950      -39.3074696885  TIP3      18458           0.0000000000
    106890     19819  TIP3      OH2            27.2994246771        5.2027611790      -29.6525952966  TIP3      18459           0.0000000000
    106891     19819  TIP3      H1             27.6770459136        4.5191487341      -30.2418549795  TIP3      18459           0.0000000000
    106892     19819  TIP3      H2             26.8364196456        4.6719295300      -28.9800979413  TIP3      18459           0.0000000000
    106893     19820  TIP3      OH2            24.1064490428        1.1777654554      -34.8240001353  TIP3      18460           0.0000000000
    106894     19820  TIP3      H1             23.1746115494        1.1808549837      -34.5309303274  TIP3      18460           0.0000000000
    106895     19820  TIP3      H2             24.5867880960        1.0150641689      -33.9990612875  TIP3      18460           0.0000000000
    106896     19821  TIP3      OH2            18.8998652824        2.7131019712      -35.9502033186  TIP3      18461           0.0000000000
    106897     19821  TIP3      H1             18.0239311622        2.8928474392      -36.3505515177  TIP3      18461           0.0000000000
    106898     19821  TIP3      H2             19.2099931017        1.8950727201      -36.3759755890  TIP3      18461           0.0000000000
    106899     19822  TIP3      OH2            22.5389081277        2.7740676896      -38.3484027144  TIP3      18462           0.0000000000
    106900     19822  TIP3      H1             23.4962395081        2.8737041135      -38.1497108082  TIP3      18462           0.0000000000
    106901     19822  TIP3      H2             22.3364796905        3.4711131743      -38.9917422146  TIP3      18462           0.0000000000
    106902     19823  TIP3      OH2            28.5098885558        0.4094168985      -31.5841586678  TIP3      18463           0.0000000000
    106903     19823  TIP3      H1             27.8236783309        0.4665087697      -30.8794951311  TIP3      18463           0.0000000000
    106904     19823  TIP3      H2             27.9978096501        0.1626396620      -32.3672601941  TIP3      18463           0.0000000000
    106905     19824  TIP3      OH2            21.3323822150        3.9593946405      -40.7089108171  TIP3      18464           0.0000000000
    106906     19824  TIP3      H1             20.8981160656        3.7863953710      -41.5331981524  TIP3      18464           0.0000000000
    106907     19824  TIP3      H2             22.1721743213        4.2324282826      -41.1352212626  TIP3      18464           0.0000000000
    106908     19825  TIP3      OH2            31.7013146606       16.0758083469      -25.2246578067  TIP3      18465           0.0000000000
    106909     19825  TIP3      H1             31.9912554059       16.4221336403      -26.0897740310  TIP3      18465           0.0000000000
    106910     19825  TIP3      H2             32.4576378724       16.3461384067      -24.6730683141  TIP3      18465           0.0000000000
    106911     19826  TIP3      OH2            19.3946486252        8.5102338844      -25.6730286348  TIP3      18466           0.0000000000
    106912     19826  TIP3      H1             20.1032732376        8.7892805215      -25.0675138857  TIP3      18466           0.0000000000
    106913     19826  TIP3      H2             18.6044074138        8.6303258037      -25.1038970413  TIP3      18466           0.0000000000
    106914     19827  TIP3      OH2            25.3796337444        3.9317498758      -32.9290481622  TIP3      18467           0.0000000000
    106915     19827  TIP3      H1             25.9852418598        3.4005546034      -33.4593209327  TIP3      18467           0.0000000000
    106916     19827  TIP3      H2             25.2399775674        3.3852095450      -32.1446236301  TIP3      18467           0.0000000000
    106917     19828  TIP3      OH2            20.3643406892        0.0846826126      -36.5217446878  TIP3      18468           0.0000000000
    106918     19828  TIP3      H1             20.0981421638       -0.8509300264      -36.5112991843  TIP3      18468           0.0000000000
    106919     19828  TIP3      H2             21.1881091025        0.0112804218      -37.0206011685  TIP3      18468           0.0000000000
    106920     19829  TIP3      OH2            24.0244957210        2.2619220011      -30.5140805306  TIP3      18469           0.0000000000
    106921     19829  TIP3      H1             23.1982434581        2.7796104286      -30.4234726567  TIP3      18469           0.0000000000
    106922     19829  TIP3      H2             24.5772150959        2.6128985987      -29.7886268036  TIP3      18469           0.0000000000
    106923     19830  TIP3      OH2            24.6068179635        8.4948326526      -38.8342488847  TIP3      18470           0.0000000000
    106924     19830  TIP3      H1             23.8078375632        8.0155576245      -39.1427974049  TIP3      18470           0.0000000000
    106925     19830  TIP3      H2             24.4035147769        8.6069697758      -37.8828343680  TIP3      18470           0.0000000000
    106926     19831  TIP3      OH2            31.7925813171        7.6858391565      -30.0133630062  TIP3      18471           0.0000000000
    106927     19831  TIP3      H1             32.3601206226        8.1663906494      -30.6424813116  TIP3      18471           0.0000000000
    106928     19831  TIP3      H2             30.9349128070        7.7366832636      -30.4817811457  TIP3      18471           0.0000000000
    106929     19832  TIP3      OH2            28.4489501940        1.2739405170      -40.6127359137  TIP3      18472           0.0000000000
    106930     19832  TIP3      H1             27.5089841934        1.4301533211      -40.8092168714  TIP3      18472           0.0000000000
    106931     19832  TIP3      H2             28.7723876271        2.1496637727      -40.3232018282  TIP3      18472           0.0000000000
    106932     19833  TIP3      OH2            26.1464447776        8.7648850800      -27.5400161969  TIP3      18473           0.0000000000
    106933     19833  TIP3      H1             25.7375529322        8.3120600632      -26.7944076424  TIP3      18473           0.0000000000
    106934     19833  TIP3      H2             25.8117495380        9.6651861180      -27.4789268173  TIP3      18473           0.0000000000
    106935     19834  TIP3      OH2            29.1833299836        3.2198682513      -38.9679214159  TIP3      18474           0.0000000000
    106936     19834  TIP3      H1             30.0760833249        3.0808938334      -38.5963093410  TIP3      18474           0.0000000000
    106937     19834  TIP3      H2             29.2707355456        4.0305678100      -39.4936735793  TIP3      18474           0.0000000000
    106938     19835  TIP3      OH2            19.7249129894        7.8779995135      -33.0141562382  TIP3      18475           0.0000000000
    106939     19835  TIP3      H1             20.4112240676        7.7982718490      -33.7045416793  TIP3      18475           0.0000000000
    106940     19835  TIP3      H2             19.7818437887        7.0171768362      -32.5621340631  TIP3      18475           0.0000000000
    106941     19836  TIP3      OH2            26.6989358270        9.9533563266      -39.7642456628  TIP3      18476           0.0000000000
    106942     19836  TIP3      H1             26.3571914080       10.8007420827      -39.4009109494  TIP3      18476           0.0000000000
    106943     19836  TIP3      H2             25.9618711588        9.3403950443      -39.5502500262  TIP3      18476           0.0000000000
    106944     19837  TIP3      OH2            16.7125571829        6.2864247763      -27.7495760479  TIP3      18477           0.0000000000
    106945     19837  TIP3      H1             16.8858611341        5.8382642428      -26.9010790426  TIP3      18477           0.0000000000
    106946     19837  TIP3      H2             16.0945370778        5.6731429752      -28.1889982762  TIP3      18477           0.0000000000
    106947     19838  TIP3      OH2            23.7152439784        5.8457689828      -25.5667203531  TIP3      18478           0.0000000000
    106948     19838  TIP3      H1             23.4069646726        5.5478066215      -26.4387050844  TIP3      18478           0.0000000000
    106949     19838  TIP3      H2             24.6456257345        5.5480692326      -25.5892281220  TIP3      18478           0.0000000000
    106950     19839  TIP3      OH2            28.3996636964       11.1526442664      -27.6078002911  TIP3      18479           0.0000000000
    106951     19839  TIP3      H1             27.4883775693       11.3557926157      -27.8916068704  TIP3      18479           0.0000000000
    106952     19839  TIP3      H2             28.3659296865       11.5279514516      -26.7235753991  TIP3      18479           0.0000000000
    106953     19840  TIP3      OH2            34.0713254035        3.3629563777      -39.2288032073  TIP3      18480           0.0000000000
    106954     19840  TIP3      H1             33.5036733351        3.0629137363      -39.9649587338  TIP3      18480           0.0000000000
    106955     19840  TIP3      H2             34.1487477572        4.3026387384      -39.5021434161  TIP3      18480           0.0000000000
    106956     19841  TIP3      OH2            34.0674168444        9.2121714122      -26.4354547797  TIP3      18481           0.0000000000
    106957     19841  TIP3      H1             33.1831017319        9.4336542832      -26.8149672984  TIP3      18481           0.0000000000
    106958     19841  TIP3      H2             34.6241920632        9.1817171943      -27.2383681979  TIP3      18481           0.0000000000
    106959     19842  TIP3      OH2            32.3231597777       12.1971072553      -38.7875907673  TIP3      18482           0.0000000000
    106960     19842  TIP3      H1             32.0039101092       11.3355360236      -38.5163983045  TIP3      18482           0.0000000000
    106961     19842  TIP3      H2             32.6917963451       12.0296771528      -39.6971838532  TIP3      18482           0.0000000000
    106962     19843  TIP3      OH2            29.5706679045        7.0029430480      -31.7343250015  TIP3      18483           0.0000000000
    106963     19843  TIP3      H1             28.6300566529        6.7899984270      -31.8398862433  TIP3      18483           0.0000000000
    106964     19843  TIP3      H2             30.0038187523        6.2414293793      -32.1645957690  TIP3      18483           0.0000000000
    106965     19844  TIP3      OH2            22.0883291070       11.3305507237      -35.6284451301  TIP3      18484           0.0000000000
    106966     19844  TIP3      H1             22.5934215385       12.1336635720      -35.8386666345  TIP3      18484           0.0000000000
    106967     19844  TIP3      H2             21.2125293979       11.5654989020      -35.9625253137  TIP3      18484           0.0000000000
    106968     19845  TIP3      OH2            17.8499275673        6.1750753040      -41.1140815766  TIP3      18485           0.0000000000
    106969     19845  TIP3      H1             18.4411878086        6.8312328700      -40.6983753249  TIP3      18485           0.0000000000
    106970     19845  TIP3      H2             16.9822371197        6.4755744138      -40.7681923966  TIP3      18485           0.0000000000
    106971     19846  TIP3      OH2            23.5096604862        9.0006635876      -36.1195991258  TIP3      18486           0.0000000000
    106972     19846  TIP3      H1             23.2013860683        9.9199980745      -36.0215429167  TIP3      18486           0.0000000000
    106973     19846  TIP3      H2             22.7911212000        8.5100986763      -35.6721872214  TIP3      18486           0.0000000000
    106974     19847  TIP3      OH2            23.9652013478       13.1803213830      -29.7062849770  TIP3      18487           0.0000000000
    106975     19847  TIP3      H1             24.4167804229       13.9907192524      -29.9918568397  TIP3      18487           0.0000000000
    106976     19847  TIP3      H2             24.5777053394       12.8450259032      -29.0298752324  TIP3      18487           0.0000000000
    106977     19848  TIP3      OH2            22.1919161621       14.0083186068      -36.6014960944  TIP3      18488           0.0000000000
    106978     19848  TIP3      H1             21.2255689601       14.1245700494      -36.4492404880  TIP3      18488           0.0000000000
    106979     19848  TIP3      H2             22.5473294108       14.8260911599      -36.2148608854  TIP3      18488           0.0000000000
    106980     19849  TIP3      OH2            27.4868586232        9.1837694911      -30.1019454694  TIP3      18489           0.0000000000
    106981     19849  TIP3      H1             27.1507252854        8.9873797889      -29.2037183385  TIP3      18489           0.0000000000
    106982     19849  TIP3      H2             28.1260854989        8.4708611278      -30.2639313533  TIP3      18489           0.0000000000
    106983     19850  TIP3      OH2            29.7594930528       10.2373313675      -40.9708141627  TIP3      18490           0.0000000000
    106984     19850  TIP3      H1             30.1106742277        9.7743211778      -40.1889336735  TIP3      18490           0.0000000000
    106985     19850  TIP3      H2             28.8176240453       10.0561864599      -40.8885257454  TIP3      18490           0.0000000000
    106986     19851  TIP3      OH2            30.2888769904       13.7522234897      -27.5791090883  TIP3      18491           0.0000000000
    106987     19851  TIP3      H1             29.6135327496       13.2711976534      -28.0928622595  TIP3      18491           0.0000000000
    106988     19851  TIP3      H2             30.4875638363       14.4554598554      -28.2355854468  TIP3      18491           0.0000000000
    106989     19852  TIP3      OH2            34.3094531084       14.6632731264      -40.7422355815  TIP3      18492           0.0000000000
    106990     19852  TIP3      H1             35.0051120578       15.2861551493      -40.9729825797  TIP3      18492           0.0000000000
    106991     19852  TIP3      H2             33.5633925477       15.2459325218      -40.4758496392  TIP3      18492           0.0000000000
    106992     19853  TIP3      OH2            18.3654644392        1.0052726637      -28.1831691553  TIP3      18493           0.0000000000
    106993     19853  TIP3      H1             17.4631115855        1.3708785593      -28.2043150387  TIP3      18493           0.0000000000
    106994     19853  TIP3      H2             18.2367159673        0.1502088793      -27.7457207334  TIP3      18493           0.0000000000
    106995     19854  TIP3      OH2            30.5899649349        8.8868533709      -38.7215340430  TIP3      18494           0.0000000000
    106996     19854  TIP3      H1             30.3589862762        8.0872248673      -38.2043369204  TIP3      18494           0.0000000000
    106997     19854  TIP3      H2             31.5526058644        8.9340594448      -38.5789509094  TIP3      18494           0.0000000000
    106998     19855  TIP3      OH2            17.9785884977       12.8031088033      -29.7758712259  TIP3      18495           0.0000000000
    106999     19855  TIP3      H1             18.2712735948       11.8805143156      -29.7715271788  TIP3      18495           0.0000000000
    107000     19855  TIP3      H2             18.2384806506       13.0923986377      -28.8949675802  TIP3      18495           0.0000000000
    107001     19856  TIP3      OH2            23.9327814768       11.2856442213      -42.5310748777  TIP3      18496           0.0000000000
    107002     19856  TIP3      H1             24.0888421266       10.5223170618      -43.0882217657  TIP3      18496           0.0000000000
    107003     19856  TIP3      H2             23.5071464459       10.9195412560      -41.7277865891  TIP3      18496           0.0000000000
    107004     19857  TIP3      OH2            22.7363689692       10.8583693435      -40.0613037263  TIP3      18497           0.0000000000
    107005     19857  TIP3      H1             22.9776914120       10.3393536131      -39.2855874236  TIP3      18497           0.0000000000
    107006     19857  TIP3      H2             22.8014801529       11.7888686725      -39.7489017493  TIP3      18497           0.0000000000
    107007     19858  TIP3      OH2            19.2356682147        8.0956450868      -39.6048687221  TIP3      18498           0.0000000000
    107008     19858  TIP3      H1             18.5607099882        8.5012217717      -39.0202376605  TIP3      18498           0.0000000000
    107009     19858  TIP3      H2             19.7714527185        8.8693200233      -39.8495307691  TIP3      18498           0.0000000000
    107010     19859  TIP3      OH2            27.0974894820        0.7930684027      -29.2520310741  TIP3      18499           0.0000000000
    107011     19859  TIP3      H1             27.8090862399        0.8503771544      -28.6059398970  TIP3      18499           0.0000000000
    107012     19859  TIP3      H2             26.7102648875       -0.0823401388      -29.0520753909  TIP3      18499           0.0000000000
    107013     19860  TIP3      OH2            27.8259582693        0.3748752909      -38.1415060673  TIP3      18500           0.0000000000
    107014     19860  TIP3      H1             28.0767814634        0.8277188707      -38.9747215521  TIP3      18500           0.0000000000
    107015     19860  TIP3      H2             28.4209877285        0.8058916675      -37.5176132059  TIP3      18500           0.0000000000
    107016     19861  TIP3      OH2            25.5352815892       12.5068202673      -39.3700431073  TIP3      18501           0.0000000000
    107017     19861  TIP3      H1             24.7138173905       13.0242373824      -39.2626459108  TIP3      18501           0.0000000000
    107018     19861  TIP3      H2             26.0580406050       13.0389559065      -39.9832277360  TIP3      18501           0.0000000000
    107019     19862  TIP3      OH2            25.0649112188        2.1137178534      -37.3330787421  TIP3      18502           0.0000000000
    107020     19862  TIP3      H1             25.8529889723        2.6910320250      -37.3015975982  TIP3      18502           0.0000000000
    107021     19862  TIP3      H2             24.8093912576        1.9961304266      -36.4005372931  TIP3      18502           0.0000000000
    107022     19863  TIP3      OH2            25.6223658584        3.1427038567      -28.1573255029  TIP3      18503           0.0000000000
    107023     19863  TIP3      H1             25.7049877856        3.7120859845      -27.3705862705  TIP3      18503           0.0000000000
    107024     19863  TIP3      H2             26.2844521654        2.4461388207      -28.0634997155  TIP3      18503           0.0000000000
    107025     19864  TIP3      OH2            25.9205698510       -0.8273335374      -36.4544588696  TIP3      18504           0.0000000000
    107026     19864  TIP3      H1             25.5989063868       -0.1777343975      -35.8056232134  TIP3      18504           0.0000000000
    107027     19864  TIP3      H2             26.6117826368       -0.2823455755      -36.9077989967  TIP3      18504           0.0000000000
    107028     19865  TIP3      OH2            22.9106614269       13.5696401559      -39.3104852057  TIP3      18505           0.0000000000
    107029     19865  TIP3      H1             23.0453169722       14.3806876151      -39.8263520314  TIP3      18505           0.0000000000
    107030     19865  TIP3      H2             22.6457610294       13.8996215014      -38.4245741566  TIP3      18505           0.0000000000
    107031     19866  TIP3      OH2            21.5798880864        0.3162147497      -39.7459798495  TIP3      18506           0.0000000000
    107032     19866  TIP3      H1             21.5694148158        1.1872427335      -39.3181561358  TIP3      18506           0.0000000000
    107033     19866  TIP3      H2             22.4739825506        0.0032254143      -39.4659600266  TIP3      18506           0.0000000000
    107034     19867  TIP3      OH2            31.8048928240        1.0046853573      -27.2982134936  TIP3      18507           0.0000000000
    107035     19867  TIP3      H1             30.8756677844        1.3196577034      -27.4297641346  TIP3      18507           0.0000000000
    107036     19867  TIP3      H2             32.1037856663        0.9983160566      -28.2246258548  TIP3      18507           0.0000000000
    107037     19868  TIP3      OH2            30.4143132345        4.7930974276      -33.2916091349  TIP3      18508           0.0000000000
    107038     19868  TIP3      H1             29.5898005203        4.3500045706      -33.5692067567  TIP3      18508           0.0000000000
    107039     19868  TIP3      H2             30.8889171794        4.1050900949      -32.7729890785  TIP3      18508           0.0000000000
    107040     19869  TIP3      OH2            19.8330511137       10.6998957908      -40.6788371887  TIP3      18509           0.0000000000
    107041     19869  TIP3      H1             20.4723237337       11.3596289092      -40.3916390895  TIP3      18509           0.0000000000
    107042     19869  TIP3      H2             20.3288141828       10.2554159772      -41.3943354854  TIP3      18509           0.0000000000
    107043     19870  TIP3      OH2            17.8327741831        3.5032282962      -41.3995746748  TIP3      18510           0.0000000000
    107044     19870  TIP3      H1             17.9286368948        4.4875387956      -41.4362588225  TIP3      18510           0.0000000000
    107045     19870  TIP3      H2             17.0612482249        3.3057131622      -41.9572981387  TIP3      18510           0.0000000000
    107046     19871  TIP3      OH2            31.4755691498       14.0496514486      -31.6214566100  TIP3      18511           0.0000000000
    107047     19871  TIP3      H1             31.3839032839       14.7339897278      -32.3137226409  TIP3      18511           0.0000000000
    107048     19871  TIP3      H2             32.4398540990       14.1081480254      -31.4473347485  TIP3      18511           0.0000000000
    107049     19872  TIP3      OH2            18.9002727685       -1.7947992446      -32.8168012743  TIP3      18512           0.0000000000
    107050     19872  TIP3      H1             18.8101241976       -1.8310137574      -33.7954722992  TIP3      18512           0.0000000000
    107051     19872  TIP3      H2             18.5861068913       -2.6906210490      -32.5633343322  TIP3      18512           0.0000000000
    107052     19873  TIP3      OH2            17.9293600923       12.0960946868      -36.6793234486  TIP3      18513           0.0000000000
    107053     19873  TIP3      H1             17.0703053917       12.5440137508      -36.7092928922  TIP3      18513           0.0000000000
    107054     19873  TIP3      H2             18.4032981972       12.5670498060      -37.3759082635  TIP3      18513           0.0000000000
    107055     19874  TIP3      OH2            17.1627665068       14.7306902806      -25.3762656397  TIP3      18514           0.0000000000
    107056     19874  TIP3      H1             17.7512688441       14.5100110995      -24.6309760040  TIP3      18514           0.0000000000
    107057     19874  TIP3      H2             16.7224287777       13.8864095673      -25.5731368933  TIP3      18514           0.0000000000
    107058     19875  TIP3      OH2            21.7924977869       13.6513322597      -23.7921623545  TIP3      18515           0.0000000000
    107059     19875  TIP3      H1             22.5635684198       13.1852868964      -23.4619136775  TIP3      18515           0.0000000000
    107060     19875  TIP3      H2             21.7707390770       13.3829269829      -24.7325375777  TIP3      18515           0.0000000000
    107061     19876  TIP3      OH2            25.9127310347       13.1790684965      -42.3746163463  TIP3      18516           0.0000000000
    107062     19876  TIP3      H1             25.2150842903       12.5203736683      -42.1756017268  TIP3      18516           0.0000000000
    107063     19876  TIP3      H2             26.6597855730       12.6106985113      -42.6115807268  TIP3      18516           0.0000000000
    107064     19877  TIP3      OH2            28.3053052991       12.2721003379      -25.1751875915  TIP3      18517           0.0000000000
    107065     19877  TIP3      H1             27.9385278483       11.3756001610      -25.1458721964  TIP3      18517           0.0000000000
    107066     19877  TIP3      H2             29.1258781077       12.3411353188      -24.6404427279  TIP3      18517           0.0000000000
    107067     19878  TIP3      OH2            30.5118547832       12.9733366817      -42.0874375651  TIP3      18518           0.0000000000
    107068     19878  TIP3      H1             30.8023963904       12.1264526736      -41.7094087857  TIP3      18518           0.0000000000
    107069     19878  TIP3      H2             31.2119342020       13.1571608311      -42.7452270763  TIP3      18518           0.0000000000
    107070     19879  TIP3      OH2            17.0512620878        8.5020348960      -24.4056095302  TIP3      18519           0.0000000000
    107071     19879  TIP3      H1             17.2099088267        7.6044950885      -24.7426880437  TIP3      18519           0.0000000000
    107072     19879  TIP3      H2             16.3109250823        8.8073254672      -24.9632217733  TIP3      18519           0.0000000000
    107073     19880  TIP3      OH2            21.4192275361        8.8678033640      -42.3305186241  TIP3      18520           0.0000000000
    107074     19880  TIP3      H1             21.5313924212        8.1029316808      -41.7522050819  TIP3      18520           0.0000000000
    107075     19880  TIP3      H2             22.0807359836        8.7106591961      -43.0042186402  TIP3      18520           0.0000000000
    107076     19881  TIP3      OH2            23.8417685075        8.5127523027      -25.0195322809  TIP3      18521           0.0000000000
    107077     19881  TIP3      H1             23.4096391770        8.8058852404      -25.8519240041  TIP3      18521           0.0000000000
    107078     19881  TIP3      H2             23.8241822627        7.5278300986      -25.1272453487  TIP3      18521           0.0000000000
    107079     19882  TIP3      OH2            26.7545673406        9.9433026300      -42.5800441655  TIP3      18522           0.0000000000
    107080     19882  TIP3      H1             26.5385782890       10.0845001187      -41.6408069374  TIP3      18522           0.0000000000
    107081     19882  TIP3      H2             26.5998652802        8.9973838657      -42.6959955259  TIP3      18522           0.0000000000
    107082     19883  TIP3      OH2            29.4534040215        8.3815230431      -27.5642587087  TIP3      18523           0.0000000000
    107083     19883  TIP3      H1             30.2447883756        8.9511204168      -27.6975122842  TIP3      18523           0.0000000000
    107084     19883  TIP3      H2             28.7490353819        9.0411965871      -27.6047571807  TIP3      18523           0.0000000000
    107085     19884  TIP3      OH2            17.9741518955        5.7457520656      -24.9890215461  TIP3      18524           0.0000000000
    107086     19884  TIP3      H1             18.3523793302        4.8687264642      -25.1341220422  TIP3      18524           0.0000000000
    107087     19884  TIP3      H2             17.6591956597        5.7233103210      -24.0844171906  TIP3      18524           0.0000000000
    107088     19885  TIP3      OH2            22.5784883567        6.8723420812      -39.9607130271  TIP3      18525           0.0000000000
    107089     19885  TIP3      H1             22.0978081932        6.3459981373      -39.3060049780  TIP3      18525           0.0000000000
    107090     19885  TIP3      H2             22.9113305321        6.1982287546      -40.5987257821  TIP3      18525           0.0000000000
    107091     19886  TIP3      OH2            21.8567718971        4.6962233636      -27.6532138012  TIP3      18526           0.0000000000
    107092     19886  TIP3      H1             21.2743079625        5.4218944933      -27.3705115801  TIP3      18526           0.0000000000
    107093     19886  TIP3      H2             22.2494839508        5.0624705257      -28.4644993580  TIP3      18526           0.0000000000
    107094     19887  TIP3      OH2            23.6476741286        5.1353293609      -41.7494213464  TIP3      18527           0.0000000000
    107095     19887  TIP3      H1             23.5663874814        4.9527276670      -42.6988939467  TIP3      18527           0.0000000000
    107096     19887  TIP3      H2             24.6273036522        5.1658926717      -41.6339094365  TIP3      18527           0.0000000000
    107097     19888  TIP3      OH2            26.9485810788        7.3096469238      -24.2490476174  TIP3      18528           0.0000000000
    107098     19888  TIP3      H1             27.8859771196        7.1910085796      -24.4486525602  TIP3      18528           0.0000000000
    107099     19888  TIP3      H2             26.7214131082        6.4890227461      -23.7851530617  TIP3      18528           0.0000000000
    107100     19889  TIP3      OH2            32.8791365175        7.3369077704      -42.2795534657  TIP3      18529           0.0000000000
    107101     19889  TIP3      H1             32.7942441851        7.0453910071      -43.1804309266  TIP3      18529           0.0000000000
    107102     19889  TIP3      H2             33.1614723073        8.2870382731      -42.4679850612  TIP3      18529           0.0000000000
    107103     19890  TIP3      OH2            22.2881103101        2.0819983881      -26.5912321359  TIP3      18530           0.0000000000
    107104     19890  TIP3      H1             22.3788881509        1.3680233370      -27.2478734512  TIP3      18530           0.0000000000
    107105     19890  TIP3      H2             22.2105179604        2.8892728965      -27.1366208855  TIP3      18530           0.0000000000
    107106     19891  TIP3      OH2            22.6660130503        0.4514746786      -29.0464978733  TIP3      18531           0.0000000000
    107107     19891  TIP3      H1             23.1829736829        0.9153612042      -29.7483570035  TIP3      18531           0.0000000000
    107108     19891  TIP3      H2             21.7765188819        0.3690558814      -29.4578742863  TIP3      18531           0.0000000000
    107109     19892  TIP3      OH2            24.2119789550        5.9382131959      -28.7808529394  TIP3      18532           0.0000000000
    107110     19892  TIP3      H1             24.9572840096        5.7701357357      -29.3716024522  TIP3      18532           0.0000000000
    107111     19892  TIP3      H2             23.8461248494        6.7672893824      -29.1336140504  TIP3      18532           0.0000000000
    107112     19893  TIP3      OH2            28.5777226655        3.6752817697      -23.7790262572  TIP3      18533           0.0000000000
    107113     19893  TIP3      H1             28.8658140756        2.7705562305      -23.9506936857  TIP3      18533           0.0000000000
    107114     19893  TIP3      H2             29.4396952037        4.1372589550      -23.8212227055  TIP3      18533           0.0000000000
    107115     19894  TIP3      OH2            29.9374485442        6.5039162861      -25.6838489882  TIP3      18534           0.0000000000
    107116     19894  TIP3      H1             29.7020789060        7.2020118825      -26.3299270541  TIP3      18534           0.0000000000
    107117     19894  TIP3      H2             30.8989913199        6.4394692220      -25.8743272791  TIP3      18534           0.0000000000
    107118     19895  TIP3      OH2            20.7321642625        3.3138439442      -24.6431066469  TIP3      18535           0.0000000000
    107119     19895  TIP3      H1             19.9575058650        2.7608955359      -24.8545152916  TIP3      18535           0.0000000000
    107120     19895  TIP3      H2             21.3713954914        2.9604457932      -25.2895367914  TIP3      18535           0.0000000000
    107121     19896  TIP3      OH2            23.4582353377       -2.1151420062      -28.6562613531  TIP3      18536           0.0000000000
    107122     19896  TIP3      H1             23.2889433185       -1.1506059184      -28.7469752658  TIP3      18536           0.0000000000
    107123     19896  TIP3      H2             22.7062007195       -2.4758140264      -29.1581536986  TIP3      18536           0.0000000000
    107124     19897  TIP3      OH2            24.7433561735        2.1866503793      -25.0154173577  TIP3      18537           0.0000000000
    107125     19897  TIP3      H1             24.3680143941        1.9834235077      -24.1473191244  TIP3      18537           0.0000000000
    107126     19897  TIP3      H2             23.9522125294        2.0308852604      -25.5816656140  TIP3      18537           0.0000000000
    107127     19898  TIP3      OH2            27.4482777700        1.3892252735      -25.9276792383  TIP3      18538           0.0000000000
    107128     19898  TIP3      H1             26.4792701884        1.4023647848      -25.8508370788  TIP3      18538           0.0000000000
    107129     19898  TIP3      H2             27.7174715498        0.7020736115      -25.2942293927  TIP3      18538           0.0000000000
    107130     19899  TIP3      OH2            28.9700512231        0.0064743021      -24.0034182464  TIP3      18539           0.0000000000
    107131     19899  TIP3      H1             28.9775700835       -0.9735857735      -24.0506438832  TIP3      18539           0.0000000000
    107132     19899  TIP3      H2             28.7507350190        0.2285273908      -23.0968540301  TIP3      18539           0.0000000000
    107133     19900  TIP3      OH2            18.8132086381        1.2481860356      -24.9225853378  TIP3      18540           0.0000000000
    107134     19900  TIP3      H1             19.0700472397        0.5245178094      -25.5266670352  TIP3      18540           0.0000000000
    107135     19900  TIP3      H2             18.7283293292        0.7860067935      -24.0902050860  TIP3      18540           0.0000000000
    107136     19901  TIP3      OH2            23.6857565916       -2.7200536177      -25.9638047421  TIP3      18541           0.0000000000
    107137     19901  TIP3      H1             24.3402259087       -3.4471979783      -25.9726590186  TIP3      18541           0.0000000000
    107138     19901  TIP3      H2             23.5452009112       -2.5694649042      -26.9178811578  TIP3      18541           0.0000000000
    107139     19902  TIP3      OH2            24.0668652263       -1.0681278414      -23.8568599401  TIP3      18542           0.0000000000
    107140     19902  TIP3      H1             23.8803535403       -1.6183755427      -24.6548823757  TIP3      18542           0.0000000000
    107141     19902  TIP3      H2             23.4130028244       -0.3611047902      -23.9412664482  TIP3      18542           0.0000000000
    107142     19903  TIP3      OH2            23.5277569729       16.0272735332      -40.6116176970  TIP3      18543           0.0000000000
    107143     19903  TIP3      H1             24.4951558673       15.8070257244      -40.6412463856  TIP3      18543           0.0000000000
    107144     19903  TIP3      H2             23.3482092983       16.2898902864      -41.5210070394  TIP3      18543           0.0000000000
    107145     19904  TIP3      OH2            17.1000963281       10.3952711370      -41.1843401034  TIP3      18544           0.0000000000
    107146     19904  TIP3      H1             18.0555343786       10.4860367858      -40.9676377311  TIP3      18544           0.0000000000
    107147     19904  TIP3      H2             17.1480403832        9.7896268392      -41.9325420109  TIP3      18544           0.0000000000
    107148     19905  TIP3      OH2            15.8338312326       15.7686134814      -36.2306563744  TIP3      18545           0.0000000000
    107149     19905  TIP3      H1             15.1208930433       15.2804869996      -36.7005356113  TIP3      18545           0.0000000000
    107150     19905  TIP3      H2             16.1173873881       15.1119139730      -35.5693238663  TIP3      18545           0.0000000000
    107151     19906  TIP3      OH2            16.6585037156       13.9001244743      -34.3595057995  TIP3      18546           0.0000000000
    107152     19906  TIP3      H1             16.3066880717       13.0217041910      -34.1580701527  TIP3      18546           0.0000000000
    107153     19906  TIP3      H2             16.8833652564       14.2307890058      -33.4737584535  TIP3      18546           0.0000000000
    107154     19907  TIP3      OH2            34.1640181709       14.7058520023      -31.4292788774  TIP3      18547           0.0000000000
    107155     19907  TIP3      H1             34.2188609938       14.8580062935      -30.4696927131  TIP3      18547           0.0000000000
    107156     19907  TIP3      H2             34.8919305110       15.2661102212      -31.7309024246  TIP3      18547           0.0000000000
    107157     19908  TIP3      OH2            33.7657452976       14.2941792515      -28.4723670262  TIP3      18548           0.0000000000
    107158     19908  TIP3      H1             33.2999279964       13.5217692124      -28.8603122655  TIP3      18548           0.0000000000
    107159     19908  TIP3      H2             34.2656083025       13.8446523450      -27.7715101700  TIP3      18548           0.0000000000
    107160     19909  TIP3      OH2            32.1807648600       10.0386781383      -23.8728907691  TIP3      18549           0.0000000000
    107161     19909  TIP3      H1             31.3641737068        9.9523543969      -23.3843306906  TIP3      18549           0.0000000000
    107162     19909  TIP3      H2             32.6255330929       10.7976867142      -23.4360712127  TIP3      18549           0.0000000000
    107163     19910  TIP3      OH2            33.5157915164        8.3429351213      -38.3563303401  TIP3      18550           0.0000000000
    107164     19910  TIP3      H1             34.3905190091        8.7398193637      -38.2142578388  TIP3      18550           0.0000000000
    107165     19910  TIP3      H2             33.5282756738        7.6120741675      -37.7067271477  TIP3      18550           0.0000000000
    107166     19911  TIP3      OH2            33.8936194658        6.4176375551      -36.4898135322  TIP3      18551           0.0000000000
    107167     19911  TIP3      H1             33.1416884709        5.9094451117      -36.1085097686  TIP3      18551           0.0000000000
    107168     19911  TIP3      H2             34.4884036580        6.5528530854      -35.7266882503  TIP3      18551           0.0000000000
    107169     19912  TIP3      OH2            33.6503124503        9.1174040514      -31.5074092806  TIP3      18552           0.0000000000
    107170     19912  TIP3      H1             34.4657250098        8.7419136896      -31.8836187980  TIP3      18552           0.0000000000
    107171     19912  TIP3      H2             33.7935762771       10.0718478796      -31.6789534592  TIP3      18552           0.0000000000
    107172     19913  TIP3      OH2            32.2073346779       12.0163206548      -29.2394921003  TIP3      18553           0.0000000000
    107173     19913  TIP3      H1             31.5174857610       12.3693756484      -28.6594105810  TIP3      18553           0.0000000000
    107174     19913  TIP3      H2             31.6602210518       11.6146068715      -29.9499487347  TIP3      18553           0.0000000000
    107175     19914  TIP3      OH2            34.1666591025        6.2339523202      -40.1030544792  TIP3      18554           0.0000000000
    107176     19914  TIP3      H1             33.6372105057        6.6158684501      -40.8411465496  TIP3      18554           0.0000000000
    107177     19914  TIP3      H2             34.1080798183        6.9662387934      -39.4623026156  TIP3      18554           0.0000000000
    107178     19915  TIP3      OH2            32.5307488246        3.4613956634      -41.5370112585  TIP3      18555           0.0000000000
    107179     19915  TIP3      H1             32.6415168184        4.1332390879      -42.2231453092  TIP3      18555           0.0000000000
    107180     19915  TIP3      H2             32.3793392488        2.6481784680      -42.0631005436  TIP3      18555           0.0000000000
    107181     19916  TIP3      OH2            31.7123246138        4.8942086217      -35.9248287036  TIP3      18556           0.0000000000
    107182     19916  TIP3      H1             31.5651499498        3.9386014825      -35.9636342938  TIP3      18556           0.0000000000
    107183     19916  TIP3      H2             31.3756183209        5.1131231007      -35.0379706190  TIP3      18556           0.0000000000
    107184     19917  TIP3      OH2            16.7164554045        6.9789644088      -31.8638950600  TIP3      18557           0.0000000000
    107185     19917  TIP3      H1             16.8963037936        6.8982496961      -32.8252676203  TIP3      18557           0.0000000000
    107186     19917  TIP3      H2             17.6093195918        6.8051480381      -31.5085301739  TIP3      18557           0.0000000000
    107187     19918  TIP3      OH2            32.5542029875        6.8602099943      -26.2302711057  TIP3      18558           0.0000000000
    107188     19918  TIP3      H1             33.1700753789        6.1068285206      -26.0863402268  TIP3      18558           0.0000000000
    107189     19918  TIP3      H2             33.1575334954        7.6314323068      -26.2362760524  TIP3      18558           0.0000000000
    107190     19919  TIP3      OH2            34.0704808968        4.7453518326      -25.6248219363  TIP3      18559           0.0000000000
    107191     19919  TIP3      H1             33.1880156589        4.3351806996      -25.7424111779  TIP3      18559           0.0000000000
    107192     19919  TIP3      H2             34.6537174202        3.9676775477      -25.6687480228  TIP3      18559           0.0000000000
    107193     19920  TIP3      OH2            31.7942804700        0.9614716957      -42.4197941278  TIP3      18560           0.0000000000
    107194     19920  TIP3      H1             32.3946291182        0.4875977304      -41.8042867395  TIP3      18560           0.0000000000
    107195     19920  TIP3      H2             30.9371367805        0.5261252462      -42.2793438672  TIP3      18560           0.0000000000
    107196     19921  TIP3      OH2            31.3784400494        2.4748957673      -37.4476001453  TIP3      18561           0.0000000000
    107197     19921  TIP3      H1             31.6831543972        1.5447925312      -37.3375208430  TIP3      18561           0.0000000000
    107198     19921  TIP3      H2             32.1661213832        2.8731479593      -37.8408018280  TIP3      18561           0.0000000000
    107199     19922  TIP3      OH2            32.0225471763        3.0073046314      -32.0176678191  TIP3      18562           0.0000000000
    107200     19922  TIP3      H1             32.9796853693        3.2515396699      -32.0385473418  TIP3      18562           0.0000000000
    107201     19922  TIP3      H2             31.8291385855        3.1605492682      -31.0811917149  TIP3      18562           0.0000000000
    107202     19923  TIP3      OH2            32.0767996186        3.7404664511      -29.2406998829  TIP3      18563           0.0000000000
    107203     19923  TIP3      H1             31.2000386729        4.0298243782      -28.9135905187  TIP3      18563           0.0000000000
    107204     19923  TIP3      H2             32.5143616635        4.5980823962      -29.4611826288  TIP3      18563           0.0000000000
    107205     19924  TIP3      OH2            16.3592896289        2.3091251644      -25.6954492086  TIP3      18564           0.0000000000
    107206     19924  TIP3      H1             17.2841131150        2.0560936510      -25.5318911523  TIP3      18564           0.0000000000
    107207     19924  TIP3      H2             15.8776067619        1.4810376636      -25.4475665589  TIP3      18564           0.0000000000
    107208     19925  TIP3      OH2            34.4730635096       -2.1913244611      -23.8996310090  TIP3      18565           0.0000000000
    107209     19925  TIP3      H1             34.6652057524       -2.8807243409      -24.5477029236  TIP3      18565           0.0000000000
    107210     19925  TIP3      H2             34.4348827537       -1.3762720313      -24.4387251938  TIP3      18565           0.0000000000
    107211     19926  TIP3      OH2            32.0432571037       -0.2486175527      -37.4209101331  TIP3      18566           0.0000000000
    107212     19926  TIP3      H1             32.2567940307       -0.6835157086      -36.5668435857  TIP3      18566           0.0000000000
    107213     19926  TIP3      H2             31.4387860156       -0.8805540494      -37.8647537750  TIP3      18566           0.0000000000
    107214     19927  TIP3      OH2            17.5088747778        0.5429720212      -32.8538610645  TIP3      18567           0.0000000000
    107215     19927  TIP3      H1             18.0476489086       -0.2474874475      -32.6041388786  TIP3      18567           0.0000000000
    107216     19927  TIP3      H2             18.0717813269        1.2588784527      -32.4914218700  TIP3      18567           0.0000000000
    107217     19928  TIP3      OH2            15.8227168736        3.5429332657      -31.8270950392  TIP3      18568           0.0000000000
    107218     19928  TIP3      H1             16.4009266213        3.3553664415      -32.5933082055  TIP3      18568           0.0000000000
    107219     19928  TIP3      H2             16.2578375650        4.3667654705      -31.5419694018  TIP3      18568           0.0000000000
    107220     19929  TIP3      OH2            33.8849908993       -0.1207645848      -25.5432371608  TIP3      18569           0.0000000000
    107221     19929  TIP3      H1             32.9537846748        0.1762670813      -25.5963331979  TIP3      18569           0.0000000000
    107222     19929  TIP3      H2             33.8986736400       -0.6476434570      -26.3532879235  TIP3      18569           0.0000000000
    107223     19930  TIP3      OH2            33.8635129314       -0.1820537101      -40.8782475773  TIP3      18570           0.0000000000
    107224     19930  TIP3      H1             34.3083619726       -0.9055044628      -41.3370432202  TIP3      18570           0.0000000000
    107225     19930  TIP3      H2             34.5787528177        0.4713018519      -40.8183468852  TIP3      18570           0.0000000000
    107226     19931  TIP3      OH2            16.1851894213       -0.1515727995      -37.7337098192  TIP3      18571           0.0000000000
    107227     19931  TIP3      H1             15.2468557659        0.0196010037      -37.9057719006  TIP3      18571           0.0000000000
    107228     19931  TIP3      H2             16.6027748537        0.3118554437      -38.4781350945  TIP3      18571           0.0000000000
    107229     19932  TIP3      OH2            30.9181495624       14.7798160648      -35.8004633435  TIP3      18572           0.0000000000
    107230     19932  TIP3      H1             31.5964427425       14.4701077537      -36.4280042809  TIP3      18572           0.0000000000
    107231     19932  TIP3      H2             31.4372869330       15.2767434239      -35.1516679510  TIP3      18572           0.0000000000
    107232     19933  TIP3      OH2            16.1261190225       -1.5238428975      -29.4606116623  TIP3      18573           0.0000000000
    107233     19933  TIP3      H1             15.4870360070       -1.7188581682      -28.7469097895  TIP3      18573           0.0000000000
    107234     19933  TIP3      H2             15.6671712087       -0.8292654591      -29.9673336602  TIP3      18573           0.0000000000
    107235     19934  TIP3      OH2            18.3439108501       11.6897015295      -25.2958929468  TIP3      18574           0.0000000000
    107236     19934  TIP3      H1             17.4975828055       11.8902991054      -25.7215211905  TIP3      18574           0.0000000000
    107237     19934  TIP3      H2             18.0716521208       11.6179734346      -24.3736161674  TIP3      18574           0.0000000000
    107238     19935  TIP3      OH2            21.2698426105       12.6879367610      -29.0129051964  TIP3      18575           0.0000000000
    107239     19935  TIP3      H1             20.9319988847       13.5513368215      -29.2868764211  TIP3      18575           0.0000000000
    107240     19935  TIP3      H2             22.1949014380       12.7764464179      -29.3205002012  TIP3      18575           0.0000000000
    107241     19936  TIP3      OH2            25.6050679495       14.0774493767      -26.1320071012  TIP3      18576           0.0000000000
    107242     19936  TIP3      H1             25.7303451640       13.8043389106      -25.2012925236  TIP3      18576           0.0000000000
    107243     19936  TIP3      H2             26.4918377805       14.4272616930      -26.3593971235  TIP3      18576           0.0000000000
    107244     19937  TIP3      OH2            27.8796968290       15.3509824030      -26.7923345037  TIP3      18577           0.0000000000
    107245     19937  TIP3      H1             28.6225705434       14.7968974098      -27.0657421156  TIP3      18577           0.0000000000
    107246     19937  TIP3      H2             28.2713587806       15.8177333629      -26.0324640006  TIP3      18577           0.0000000000
    107247     19938  TIP3      OH2            32.8989887562       -2.0068471483      -27.7220568029  TIP3      18578           0.0000000000
    107248     19938  TIP3      H1             32.0558251428       -1.7139451941      -28.1094610586  TIP3      18578           0.0000000000
    107249     19938  TIP3      H2             33.0470373230       -2.8356830858      -28.2216242611  TIP3      18578           0.0000000000
    107250     19939  TIP3      OH2            18.6960717094       15.9254594135      -29.0164188523  TIP3      18579           0.0000000000
    107251     19939  TIP3      H1             17.9634826198       16.4217159112      -29.4157344878  TIP3      18579           0.0000000000
    107252     19939  TIP3      H2             18.3804475228       15.7314508335      -28.1228347552  TIP3      18579           0.0000000000
    107253     19940  TIP3      OH2            21.1668280167       15.4986408813      -29.9399034160  TIP3      18580           0.0000000000
    107254     19940  TIP3      H1             20.2738896260       15.6515371533      -29.5496998587  TIP3      18580           0.0000000000
    107255     19940  TIP3      H2             21.1072911167       16.0897134140      -30.7141747686  TIP3      18580           0.0000000000
    107256     19941  TIP3      OH2            25.8704609982       15.4183352692      -30.7754802006  TIP3      18581           0.0000000000
    107257     19941  TIP3      H1             25.4068578691       15.9735792010      -31.4228165628  TIP3      18581           0.0000000000
    107258     19941  TIP3      H2             26.0040087756       16.0522142659      -30.0364525291  TIP3      18581           0.0000000000
    107259     19942  TIP3      OH2            28.1613560924       14.2315015661      -29.7521914137  TIP3      18582           0.0000000000
    107260     19942  TIP3      H1             27.3029908029       14.5029634187      -30.1170859122  TIP3      18582           0.0000000000
    107261     19942  TIP3      H2             28.6384421344       15.0742242716      -29.8477998096  TIP3      18582           0.0000000000
    107262     19943  TIP3      OH2            30.7483106517       15.8049159144      -29.5208524518  TIP3      18583           0.0000000000
    107263     19943  TIP3      H1             30.6785516258       16.7630821042      -29.7504183435  TIP3      18583           0.0000000000
    107264     19943  TIP3      H2             30.9551836801       15.4381045194      -30.4021947367  TIP3      18583           0.0000000000
    107265     19944  TIP3      OH2            18.1483201572       14.5754336488      -32.0749748362  TIP3      18584           0.0000000000
    107266     19944  TIP3      H1             18.0689027087       14.1181923123      -31.2095019295  TIP3      18584           0.0000000000
    107267     19944  TIP3      H2             18.9633174308       14.1996658819      -32.4652207128  TIP3      18584           0.0000000000
    107268     19945  TIP3      OH2            20.2293461510       13.2868507099      -33.4226892295  TIP3      18585           0.0000000000
    107269     19945  TIP3      H1             20.0617790696       12.3530137357      -33.1935311604  TIP3      18585           0.0000000000
    107270     19945  TIP3      H2             21.0835357361       13.4380301620      -32.9654449104  TIP3      18585           0.0000000000
    107271     19946  TIP3      OH2            22.8335636361       13.7704202839      -32.5482876284  TIP3      18586           0.0000000000
    107272     19946  TIP3      H1             22.9857682535       12.8493300116      -32.8174661536  TIP3      18586           0.0000000000
    107273     19946  TIP3      H2             22.8750321563       13.7119995173      -31.5815678619  TIP3      18586           0.0000000000
    107274     19947  TIP3      OH2            26.2864282110       -0.5787062688      -33.4069488529  TIP3      18587           0.0000000000
    107275     19947  TIP3      H1             25.6107334529       -1.2206312282      -33.1302021347  TIP3      18587           0.0000000000
    107276     19947  TIP3      H2             26.8389418586       -1.1102927625      -33.9924198596  TIP3      18587           0.0000000000
    107277     19948  TIP3      OH2            31.4223498956       -2.5258602093      -33.3425122999  TIP3      18588           0.0000000000
    107278     19948  TIP3      H1             32.0366078491       -1.9360375195      -33.8473300655  TIP3      18588           0.0000000000
    107279     19948  TIP3      H2             30.5407431876       -2.1675284650      -33.5723886304  TIP3      18588           0.0000000000
    107280     19949  TIP3      OH2            33.0969778752       -1.2842635909      -35.0631682610  TIP3      18589           0.0000000000
    107281     19949  TIP3      H1             33.7793273722       -1.8612964504      -35.4813716060  TIP3      18589           0.0000000000
    107282     19949  TIP3      H2             33.5990155062       -0.4455153514      -34.9601943257  TIP3      18589           0.0000000000
    107283     19950  TIP3      OH2            18.6245144018       -1.9604185781      -35.5254667282  TIP3      18590           0.0000000000
    107284     19950  TIP3      H1             17.8751327243       -2.1624656988      -36.1101054140  TIP3      18590           0.0000000000
    107285     19950  TIP3      H2             19.1295328902       -2.7958995123      -35.6170346072  TIP3      18590           0.0000000000
    107286     19951  TIP3      OH2            17.4149948960       -2.1872055167      -39.8726875813  TIP3      18591           0.0000000000
    107287     19951  TIP3      H1             17.9082486686       -1.5340546134      -40.3878766603  TIP3      18591           0.0000000000
    107288     19951  TIP3      H2             16.8569550558       -1.6471560457      -39.2837650588  TIP3      18591           0.0000000000
    107289     19952  TIP3      OH2            23.1320195485       -2.0255502762      -35.7738776221  TIP3      18592           0.0000000000
    107290     19952  TIP3      H1             24.0339090524       -1.6675350498      -35.8452251436  TIP3      18592           0.0000000000
    107291     19952  TIP3      H2             23.0945098910       -2.2456590810      -34.8438435834  TIP3      18592           0.0000000000
    107292     19953  TIP3      OH2            28.8365875128       -2.0098615933      -34.1471133698  TIP3      18593           0.0000000000
    107293     19953  TIP3      H1             28.7948077613       -1.8967006138      -35.1050031269  TIP3      18593           0.0000000000
    107294     19953  TIP3      H2             28.4615268707       -2.9167222634      -34.0249337600  TIP3      18593           0.0000000000
    107295     19954  TIP3      OH2            30.1139248750       -1.9802945297      -38.4904634277  TIP3      18594           0.0000000000
    107296     19954  TIP3      H1             29.3687957028       -1.3814216132      -38.6435964449  TIP3      18594           0.0000000000
    107297     19954  TIP3      H2             29.6770310819       -2.8307330029      -38.2511597836  TIP3      18594           0.0000000000
    107298     19955  TIP3      OH2            17.3464977113       13.7539078963      -38.8390015433  TIP3      18595           0.0000000000
    107299     19955  TIP3      H1             16.6664271208       13.7507502737      -39.5415713589  TIP3      18595           0.0000000000
    107300     19955  TIP3      H2             17.3653690927       14.7053351962      -38.6613374339  TIP3      18595           0.0000000000
    107301     19956  TIP3      OH2            19.2941718310       -0.1650309580      -41.3682822231  TIP3      18596           0.0000000000
    107302     19956  TIP3      H1             19.7580063558       -0.8836070813      -41.8282488729  TIP3      18596           0.0000000000
    107303     19956  TIP3      H2             19.9394718946        0.0059146384      -40.6614215982  TIP3      18596           0.0000000000
    107304     19957  TIP3      OH2            24.2525143719        0.0054617905      -38.9160996444  TIP3      18597           0.0000000000
    107305     19957  TIP3      H1             24.5317061060       -0.5847891502      -38.1960529278  TIP3      18597           0.0000000000
    107306     19957  TIP3      H2             24.3636697741        0.8563982817      -38.4375090488  TIP3      18597           0.0000000000
    107307     19958  TIP3      OH2            26.1632479464       15.1520970160      -40.5468179927  TIP3      18598           0.0000000000
    107308     19958  TIP3      H1             27.1311988680       15.2597740571      -40.6650369402  TIP3      18598           0.0000000000
    107309     19958  TIP3      H2             26.0202628413       14.5123293821      -41.2819864189  TIP3      18598           0.0000000000
    107310     19959  TIP3      OH2            32.9178389733       14.5679560060      -37.7618936088  TIP3      18599           0.0000000000
    107311     19959  TIP3      H1             32.7211592348       13.7871048515      -38.3404054966  TIP3      18599           0.0000000000
    107312     19959  TIP3      H2             32.8303283732       15.3008260679      -38.4016807680  TIP3      18599           0.0000000000
    107313     19960  TIP3      OH2            18.5213724114       -1.3966002624      -26.0568977886  TIP3      18600           0.0000000000
    107314     19960  TIP3      H1             18.1590332093       -2.2270768386      -25.6898401486  TIP3      18600           0.0000000000
    107315     19960  TIP3      H2             19.4498754552       -1.4665214218      -25.7223549968  TIP3      18600           0.0000000000
    107316     19961  TIP3      OH2            20.5395581506       -2.0483827689      -24.5148694506  TIP3      18601           0.0000000000
    107317     19961  TIP3      H1             21.4273238758       -2.3991655415      -24.7100116551  TIP3      18601           0.0000000000
    107318     19961  TIP3      H2             20.1667565128       -2.8356555424      -24.0415991580  TIP3      18601           0.0000000000
    107319     19962  TIP3      OH2            19.2065905245       14.7913215432      -41.8667895221  TIP3      18602           0.0000000000
    107320     19962  TIP3      H1             18.8608745235       14.9925324992      -40.9897916949  TIP3      18602           0.0000000000
    107321     19962  TIP3      H2             19.8904266513       14.1394584907      -41.6971293470  TIP3      18602           0.0000000000
    107322     19963  TIP3      OH2            28.9698275458       -2.7245861016      -24.3089255170  TIP3      18603           0.0000000000
    107323     19963  TIP3      H1             29.0812242200       -3.2116461121      -23.5000219005  TIP3      18603           0.0000000000
    107324     19963  TIP3      H2             29.8669184490       -2.7656866980      -24.7142188579  TIP3      18603           0.0000000000
    107325     19964  TIP3      OH2            32.1236042946       13.2783263464      -25.6289758099  TIP3      18604           0.0000000000
    107326     19964  TIP3      H1             31.3649454099       13.1787455818      -26.2403386784  TIP3      18604           0.0000000000
    107327     19964  TIP3      H2             32.0685064430       14.2441590036      -25.4729033404  TIP3      18604           0.0000000000
    107328     19965  TIP3      OH2            37.8132016423        6.1074874381      -30.6544169572  TIP3      18605           0.0000000000
    107329     19965  TIP3      H1             37.8900800354        5.4331929302      -29.9435706939  TIP3      18605           0.0000000000
    107330     19965  TIP3      H2             38.5479931663        6.6962726398      -30.4265538691  TIP3      18605           0.0000000000
    107331     19966  TIP3      OH2            38.7227575308       10.5346708977      -32.0886995576  TIP3      18606           0.0000000000
    107332     19966  TIP3      H1             38.4280653159        9.6826439078      -32.4588593936  TIP3      18606           0.0000000000
    107333     19966  TIP3      H2             39.6927063700       10.3939119561      -32.0669155301  TIP3      18606           0.0000000000
    107334     19967  TIP3      OH2            35.3842703331        4.1239145806      -36.6714974384  TIP3      18607           0.0000000000
    107335     19967  TIP3      H1             34.9518262792        5.0007157077      -36.7200822943  TIP3      18607           0.0000000000
    107336     19967  TIP3      H2             34.8043381646        3.5874687674      -37.2291304088  TIP3      18607           0.0000000000
    107337     19968  TIP3      OH2            36.1252356497        6.3627322807      -34.5177579254  TIP3      18608           0.0000000000
    107338     19968  TIP3      H1             36.3568316048        5.5351356820      -34.0599298820  TIP3      18608           0.0000000000
    107339     19968  TIP3      H2             36.8402818398        6.4362952611      -35.1676884174  TIP3      18608           0.0000000000
    107340     19969  TIP3      OH2            39.6727759854        1.5326807611      -33.9848011761  TIP3      18609           0.0000000000
    107341     19969  TIP3      H1             40.1336001535        2.2497151652      -34.4917297509  TIP3      18609           0.0000000000
    107342     19969  TIP3      H2             39.6812574319        0.8743519743      -34.6754654757  TIP3      18609           0.0000000000
    107343     19970  TIP3      OH2            36.7589117931        3.8116765308      -33.4723529247  TIP3      18610           0.0000000000
    107344     19970  TIP3      H1             37.4465525725        3.2839980280      -33.0146241230  TIP3      18610           0.0000000000
    107345     19970  TIP3      H2             36.8419944891        3.4790142516      -34.3810808581  TIP3      18610           0.0000000000
    107346     19971  TIP3      OH2            38.9746260925        0.2568061783      -30.1384426523  TIP3      18611           0.0000000000
    107347     19971  TIP3      H1             38.7402103464        0.8574000625      -30.8888355180  TIP3      18611           0.0000000000
    107348     19971  TIP3      H2             38.3122680350        0.5596159954      -29.4755541875  TIP3      18611           0.0000000000
    107349     19972  TIP3      OH2            38.5059003040        2.2366176042      -31.9051032557  TIP3      18612           0.0000000000
    107350     19972  TIP3      H1             39.2177913025        2.8987293473      -31.7940385555  TIP3      18612           0.0000000000
    107351     19972  TIP3      H2             38.9453255921        1.8295120450      -32.7089702577  TIP3      18612           0.0000000000
    107352     19973  TIP3      OH2            39.8014742423       10.0612790129      -29.1964632817  TIP3      18613           0.0000000000
    107353     19973  TIP3      H1             39.8388708504       10.9972788891      -29.4118674272  TIP3      18613           0.0000000000
    107354     19973  TIP3      H2             39.0062355546        9.9884721515      -28.6223650551  TIP3      18613           0.0000000000
    107355     19974  TIP3      OH2            36.0531552543        9.5646096217      -38.2707061213  TIP3      18614           0.0000000000
    107356     19974  TIP3      H1             35.8505310605        9.8660459914      -39.2021122430  TIP3      18614           0.0000000000
    107357     19974  TIP3      H2             36.1188124309       10.4210999664      -37.8109739506  TIP3      18614           0.0000000000
    107358     19975  TIP3      OH2            40.1157941223        7.3192456765      -35.3433208822  TIP3      18615           0.0000000000
    107359     19975  TIP3      H1             39.9838020069        6.9480174222      -36.2384630368  TIP3      18615           0.0000000000
    107360     19975  TIP3      H2             40.8514688579        6.7625115928      -35.0019697942  TIP3      18615           0.0000000000
    107361     19976  TIP3      OH2            38.5295509458        6.6751293629      -27.8460650402  TIP3      18616           0.0000000000
    107362     19976  TIP3      H1             38.5668596196        7.3101890989      -27.1095710017  TIP3      18616           0.0000000000
    107363     19976  TIP3      H2             37.5855429517        6.7402269877      -28.0430816619  TIP3      18616           0.0000000000
    107364     19977  TIP3      OH2            39.8612147946       12.5250249599      -26.2182328298  TIP3      18617           0.0000000000
    107365     19977  TIP3      H1             39.7729407879       12.3659310629      -27.1823781645  TIP3      18617           0.0000000000
    107366     19977  TIP3      H2             38.9201418237       12.3684406564      -25.9731922178  TIP3      18617           0.0000000000
    107367     19978  TIP3      OH2            39.3150374836        6.2946968310      -37.7466334455  TIP3      18618           0.0000000000
    107368     19978  TIP3      H1             39.0244474935        7.0969453482      -38.2368086764  TIP3      18618           0.0000000000
    107369     19978  TIP3      H2             38.5851872766        5.7045434784      -37.9411892953  TIP3      18618           0.0000000000
    107370     19979  TIP3      OH2            35.3533218574        8.7488164870      -28.8474331925  TIP3      18619           0.0000000000
    107371     19979  TIP3      H1             34.9305277181        8.6593086797      -29.7181188429  TIP3      18619           0.0000000000
    107372     19979  TIP3      H2             35.4420184839        7.8027817425      -28.6176374459  TIP3      18619           0.0000000000
    107373     19980  TIP3      OH2            35.1770205400       11.4884529810      -32.0537460347  TIP3      18620           0.0000000000
    107374     19980  TIP3      H1             36.1328743285       11.3748235748      -32.0702662344  TIP3      18620           0.0000000000
    107375     19980  TIP3      H2             35.0711054418       12.3034582818      -31.5469167066  TIP3      18620           0.0000000000
    107376     19981  TIP3      OH2            38.3866312955       14.3535036871      -35.9015124950  TIP3      18621           0.0000000000
    107377     19981  TIP3      H1             38.5621657051       13.9297434620      -35.0370630913  TIP3      18621           0.0000000000
    107378     19981  TIP3      H2             37.5547494558       13.9028822368      -36.1304402591  TIP3      18621           0.0000000000
    107379     19982  TIP3      OH2            37.5906275709       10.1236092499      -27.8438689835  TIP3      18622           0.0000000000
    107380     19982  TIP3      H1             37.8955457893        9.6840555904      -27.0232369213  TIP3      18622           0.0000000000
    107381     19982  TIP3      H2             36.7917269987        9.6304050939      -28.1141493029  TIP3      18622           0.0000000000
    107382     19983  TIP3      OH2            40.2806072200       -1.4853401434      -31.9119431045  TIP3      18623           0.0000000000
    107383     19983  TIP3      H1             39.4117215009       -1.5557281716      -32.3655322932  TIP3      18623           0.0000000000
    107384     19983  TIP3      H2             40.2327922556       -0.5789407139      -31.5733936505  TIP3      18623           0.0000000000
    107385     19984  TIP3      OH2            40.3910805617        3.6212759703      -30.0042685559  TIP3      18624           0.0000000000
    107386     19984  TIP3      H1             39.4502931795        3.4112906939      -29.9057561826  TIP3      18624           0.0000000000
    107387     19984  TIP3      H2             40.2879904931        4.1683562570      -30.8069229778  TIP3      18624           0.0000000000
    107388     19985  TIP3      OH2            40.1122967755        3.4757629191      -35.5650277417  TIP3      18625           0.0000000000
    107389     19985  TIP3      H1             39.2213648484        3.3089973905      -35.9378238645  TIP3      18625           0.0000000000
    107390     19985  TIP3      H2             40.7223321444        3.2625656785      -36.2706370017  TIP3      18625           0.0000000000
    107391     19986  TIP3      OH2            38.0068602545        3.7950613375      -28.9610851113  TIP3      18626           0.0000000000
    107392     19986  TIP3      H1             38.1049826223        4.2026600127      -28.0865054359  TIP3      18626           0.0000000000
    107393     19986  TIP3      H2             37.6327429951        2.9195920004      -28.7847814774  TIP3      18626           0.0000000000
    107394     19987  TIP3      OH2            34.7259918793        0.8713728137      -35.0323355277  TIP3      18627           0.0000000000
    107395     19987  TIP3      H1             35.4059979622        0.8371999362      -34.3276607394  TIP3      18627           0.0000000000
    107396     19987  TIP3      H2             35.1868079654        0.5032809778      -35.8054719249  TIP3      18627           0.0000000000
    107397     19988  TIP3      OH2            36.0259450398        1.6227739325      -39.5899514287  TIP3      18628           0.0000000000
    107398     19988  TIP3      H1             36.4938718522        2.1820769516      -40.2454338875  TIP3      18628           0.0000000000
    107399     19988  TIP3      H2             35.3070984005        2.2363390285      -39.3311601300  TIP3      18628           0.0000000000
    107400     19989  TIP3      OH2            37.6960573506        2.7007546634      -35.9444166363  TIP3      18629           0.0000000000
    107401     19989  TIP3      H1             36.8302794073        2.8537343254      -36.3624414856  TIP3      18629           0.0000000000
    107402     19989  TIP3      H2             38.0387212521        1.8563262741      -36.3043808772  TIP3      18629           0.0000000000
    107403     19990  TIP3      OH2            40.1520233112        3.8942584321      -40.7063021618  TIP3      18630           0.0000000000
    107404     19990  TIP3      H1             39.5351475883        3.6180736085      -41.4114098796  TIP3      18630           0.0000000000
    107405     19990  TIP3      H2             40.9083653890        4.1803746534      -41.2121352163  TIP3      18630           0.0000000000
    107406     19991  TIP3      OH2            38.2636900288        8.5394105750      -25.6809987656  TIP3      18631           0.0000000000
    107407     19991  TIP3      H1             38.9515120411        8.7918816381      -25.0614080724  TIP3      18631           0.0000000000
    107408     19991  TIP3      H2             37.4682426363        8.6496431091      -25.1002258368  TIP3      18631           0.0000000000
    107409     19992  TIP3      OH2            39.0180866827        0.0632415052      -36.5622874392  TIP3      18632           0.0000000000
    107410     19992  TIP3      H1             38.8324040899       -0.8913183226      -36.4451162820  TIP3      18632           0.0000000000
    107411     19992  TIP3      H2             39.9752305566        0.0503744941      -36.7378232516  TIP3      18632           0.0000000000
    107412     19993  TIP3      OH2            38.5803346967        7.8661426326      -33.0232312691  TIP3      18633           0.0000000000
    107413     19993  TIP3      H1             39.2887242327        7.7978696581      -33.7023761181  TIP3      18633           0.0000000000
    107414     19993  TIP3      H2             38.6530618234        7.0104275366      -32.5644234512  TIP3      18633           0.0000000000
    107415     19994  TIP3      OH2            35.5639750643        6.2843852650      -27.7598127428  TIP3      18634           0.0000000000
    107416     19994  TIP3      H1             35.7518407794        5.8501192395      -26.9037448414  TIP3      18634           0.0000000000
    107417     19994  TIP3      H2             34.9389079547        5.6693587885      -28.1876609705  TIP3      18634           0.0000000000
    107418     19995  TIP3      OH2            36.6909910861        6.1577016327      -41.0977789959  TIP3      18635           0.0000000000
    107419     19995  TIP3      H1             37.2835373444        6.8241631036      -40.7163357741  TIP3      18635           0.0000000000
    107420     19995  TIP3      H2             35.8308582252        6.4782185339      -40.7783952315  TIP3      18635           0.0000000000
    107421     19996  TIP3      OH2            37.2260399450        0.9973479323      -28.1926341704  TIP3      18636           0.0000000000
    107422     19996  TIP3      H1             36.3288089729        1.3860753554      -28.2366691156  TIP3      18636           0.0000000000
    107423     19996  TIP3      H2             37.0661090355        0.1613559024      -27.7399180081  TIP3      18636           0.0000000000
    107424     19997  TIP3      OH2            36.8512538967       12.8102748657      -29.7824304769  TIP3      18637           0.0000000000
    107425     19997  TIP3      H1             37.1176398835       11.8780219378      -29.7599980275  TIP3      18637           0.0000000000
    107426     19997  TIP3      H2             37.1125726980       13.0963743148      -28.8982500735  TIP3      18637           0.0000000000
    107427     19998  TIP3      OH2            38.1281948774        8.1020229493      -39.5527385319  TIP3      18638           0.0000000000
    107428     19998  TIP3      H1             37.4019179281        8.5158054013      -39.0400742374  TIP3      18638           0.0000000000
    107429     19998  TIP3      H2             38.5778924707        8.8987538403      -39.8672768363  TIP3      18638           0.0000000000
    107430     19999  TIP3      OH2           -41.2086845555        0.2423061397      -39.9516444757  TIP3      18639           0.0000000000
    107431     19999  TIP3      H1            -41.1750906202        1.1134902549      -39.5348858596  TIP3      18639           0.0000000000
    107432     19999  TIP3      H2            -40.2921035027       -0.0108659641      -39.7436518032  TIP3      18639           0.0000000000
    107433     20000  TIP3      OH2            38.7806149330       10.6660691799      -40.6319245226  TIP3      18640           0.0000000000
    107434     20000  TIP3      H1             39.3606199991       11.3848133085      -40.4132978315  TIP3      18640           0.0000000000
    107435     20000  TIP3      H2             39.2224105137       10.2682313101      -41.4049624233  TIP3      18640           0.0000000000
    107436     20001  TIP3      OH2            37.0690054053        3.3926243773      -41.4725436165  TIP3      18641           0.0000000000
    107437     20001  TIP3      H1             37.0070580447        4.3627064107      -41.4070171007  TIP3      18641           0.0000000000
    107438     20001  TIP3      H2             36.2152720681        3.1736879913      -41.8683184780  TIP3      18641           0.0000000000
    107439     20002  TIP3      OH2            37.8292054676       -1.8327340878      -32.8261799063  TIP3      18642           0.0000000000
    107440     20002  TIP3      H1             37.6251649684       -1.7845377950      -33.7859664767  TIP3      18642           0.0000000000
    107441     20002  TIP3      H2             37.4010578425       -2.6755105633      -32.5663658394  TIP3      18642           0.0000000000
    107442     20003  TIP3      OH2            36.7762490264       12.1085179383      -36.6828828511  TIP3      18643           0.0000000000
    107443     20003  TIP3      H1             35.9220851663       12.5617700316      -36.7344835328  TIP3      18643           0.0000000000
    107444     20003  TIP3      H2             37.2819975850       12.5707772130      -37.3609397149  TIP3      18643           0.0000000000
    107445     20004  TIP3      OH2            36.0027128540       14.7242670117      -25.3876839765  TIP3      18644           0.0000000000
    107446     20004  TIP3      H1             36.6096878228       14.5217578391      -24.6542113962  TIP3      18644           0.0000000000
    107447     20004  TIP3      H2             35.5621354923       13.8748632242      -25.5648915498  TIP3      18644           0.0000000000
    107448     20005  TIP3      OH2            35.9183469375        8.5213853693      -24.3974883024  TIP3      18645           0.0000000000
    107449     20005  TIP3      H1             36.0699387962        7.6058030962      -24.6895379802  TIP3      18645           0.0000000000
    107450     20005  TIP3      H2             35.1729814835        8.8076002550      -24.9432599331  TIP3      18645           0.0000000000
    107451     20006  TIP3      OH2            40.2551277258        8.8387484816      -42.3408976425  TIP3      18646           0.0000000000
    107452     20006  TIP3      H1             40.3708333812        8.0818486408      -41.7612491862  TIP3      18646           0.0000000000
    107453     20006  TIP3      H2             40.9249861696        8.7530566097      -43.0239272921  TIP3      18646           0.0000000000
    107454     20007  TIP3      OH2            36.8147197398        5.7679429330      -25.0027827003  TIP3      18647           0.0000000000
    107455     20007  TIP3      H1             37.1941048764        4.8904409371      -25.1150662826  TIP3      18647           0.0000000000
    107456     20007  TIP3      H2             36.5626352553        5.7575439018      -24.0599358257  TIP3      18647           0.0000000000
    107457     20008  TIP3      OH2            39.5100898310        3.3748927563      -24.6226717344  TIP3      18648           0.0000000000
    107458     20008  TIP3      H1             38.7794191741        2.7645718548      -24.8367876846  TIP3      18648           0.0000000000
    107459     20008  TIP3      H2             40.2143568616        3.0269034035      -25.1998442858  TIP3      18648           0.0000000000
    107460     20009  TIP3      OH2            37.7357002604        1.2396931677      -24.9630159339  TIP3      18649           0.0000000000
    107461     20009  TIP3      H1             37.9323326264        0.5001506844      -25.5428097262  TIP3      18649           0.0000000000
    107462     20009  TIP3      H2             37.6169288968        0.8386057622      -24.0740015119  TIP3      18649           0.0000000000
    107463     20010  TIP3      OH2            36.2389089925       10.3365046546      -40.8072477486  TIP3      18650           0.0000000000
    107464     20010  TIP3      H1             37.1802779931       10.4947446512      -40.9618445383  TIP3      18650           0.0000000000
    107465     20010  TIP3      H2             35.9548831711        9.9566184202      -41.6835490556  TIP3      18650           0.0000000000
    107466     20011  TIP3      OH2            34.6945906547       15.7695709596      -36.2279151451  TIP3      18651           0.0000000000
    107467     20011  TIP3      H1             33.9754146075       15.2835712027      -36.6957338708  TIP3      18651           0.0000000000
    107468     20011  TIP3      H2             34.9865493358       15.1125867881      -35.5731276342  TIP3      18651           0.0000000000
    107469     20012  TIP3      OH2            35.5354902153       13.9011264831      -34.3649450787  TIP3      18652           0.0000000000
    107470     20012  TIP3      H1             35.1819561880       13.0198942406      -34.1706478538  TIP3      18652           0.0000000000
    107471     20012  TIP3      H2             35.7560407650       14.2328594222      -33.4799892707  TIP3      18652           0.0000000000
    107472     20013  TIP3      OH2            35.5563927922        6.9551521617      -31.8744393946  TIP3      18653           0.0000000000
    107473     20013  TIP3      H1             35.7729017608        6.8932348386      -32.8298726242  TIP3      18653           0.0000000000
    107474     20013  TIP3      H2             36.4479779199        6.7926181599      -31.5084490621  TIP3      18653           0.0000000000
    107475     20014  TIP3      OH2            35.2093243938        2.2715070884      -25.7165023961  TIP3      18654           0.0000000000
    107476     20014  TIP3      H1             36.1434949852        2.0639224698      -25.5179246853  TIP3      18654           0.0000000000
    107477     20014  TIP3      H2             34.7398028414        1.4589551265      -25.4304455301  TIP3      18654           0.0000000000
    107478     20015  TIP3      OH2            36.3882769703        0.5518821179      -32.8468192815  TIP3      18655           0.0000000000
    107479     20015  TIP3      H1             36.9036227420       -0.2553751079      -32.6408211384  TIP3      18655           0.0000000000
    107480     20015  TIP3      H2             36.9426547367        1.2571899091      -32.4757963519  TIP3      18655           0.0000000000
    107481     20016  TIP3      OH2            34.6758900130        3.5752466658      -31.8342349885  TIP3      18656           0.0000000000
    107482     20016  TIP3      H1             35.2622750412        3.3233283419      -32.5803739866  TIP3      18656           0.0000000000
    107483     20016  TIP3      H2             35.1458789911        4.3717350395      -31.5579823646  TIP3      18656           0.0000000000
    107484     20017  TIP3      OH2            35.0488146649       -0.1827728867      -37.7667171416  TIP3      18657           0.0000000000
    107485     20017  TIP3      H1             34.1029607375        0.0190303409      -37.8842341259  TIP3      18657           0.0000000000
    107486     20017  TIP3      H2             35.4697364080        0.3290442269      -38.4738515964  TIP3      18657           0.0000000000
    107487     20018  TIP3      OH2            35.0149404733       -1.5045286946      -29.4349680745  TIP3      18658           0.0000000000
    107488     20018  TIP3      H1             34.3146929939       -1.7066791008      -28.7862304096  TIP3      18658           0.0000000000
    107489     20018  TIP3      H2             34.5467788854       -0.8495836879      -29.9981534433  TIP3      18658           0.0000000000
    107490     20019  TIP3      OH2            37.1926999333       11.7188442830      -25.2789224585  TIP3      18659           0.0000000000
    107491     20019  TIP3      H1             36.3533496535       11.8956846446      -25.7320397174  TIP3      18659           0.0000000000
    107492     20019  TIP3      H2             36.9101091473       11.5973620294      -24.3661628469  TIP3      18659           0.0000000000
    107493     20020  TIP3      OH2            40.1753315039       12.7446740008      -28.9275576131  TIP3      18660           0.0000000000
    107494     20020  TIP3      H1             39.7585588340       13.5351895326      -29.3185995127  TIP3      18660           0.0000000000
    107495     20020  TIP3      H2             41.0505785204       12.7823776727      -29.3579817324  TIP3      18660           0.0000000000
    107496     20021  TIP3      OH2            37.5548933034       15.9199805797      -29.0128437793  TIP3      18661           0.0000000000
    107497     20021  TIP3      H1             36.8236754999       16.4100185411      -29.4270876041  TIP3      18661           0.0000000000
    107498     20021  TIP3      H2             37.2045321244       15.7304290735      -28.1301507334  TIP3      18661           0.0000000000
    107499     20022  TIP3      OH2            39.8651487194       15.2578770156      -30.1329897890  TIP3      18662           0.0000000000
    107500     20022  TIP3      H1             39.1198192635       15.5789008424      -29.5704660257  TIP3      18662           0.0000000000
    107501     20022  TIP3      H2             39.9846153128       16.0588844317      -30.7020050893  TIP3      18662           0.0000000000
    107502     20023  TIP3      OH2            36.9568586568       14.5736306177      -32.0630874320  TIP3      18663           0.0000000000
    107503     20023  TIP3      H1             36.9302187702       14.1207556313      -31.1956403541  TIP3      18663           0.0000000000
    107504     20023  TIP3      H2             37.7926981251       14.2288237950      -32.4502339736  TIP3      18663           0.0000000000
    107505     20024  TIP3      OH2            39.0786493624       13.2998684376      -33.3900036538  TIP3      18664           0.0000000000
    107506     20024  TIP3      H1             38.8997238604       12.3595364414      -33.1896517006  TIP3      18664           0.0000000000
    107507     20024  TIP3      H2             39.9311069988       13.4164091429      -32.9492556671  TIP3      18664           0.0000000000
    107508     20025  TIP3      OH2            37.4896442100       -1.9523174745      -35.5495492139  TIP3      18665           0.0000000000
    107509     20025  TIP3      H1             36.7032326864       -2.1689223227      -36.0856609778  TIP3      18665           0.0000000000
    107510     20025  TIP3      H2             37.9710760425       -2.8004008276      -35.5828355910  TIP3      18665           0.0000000000
    107511     20026  TIP3      OH2            36.2156377365       -2.1931981535      -39.8883606460  TIP3      18666           0.0000000000
    107512     20026  TIP3      H1             36.7756114216       -1.5498767802      -40.3671533006  TIP3      18666           0.0000000000
    107513     20026  TIP3      H2             35.7167057500       -1.6194685266      -39.2742281141  TIP3      18666           0.0000000000
    107514     20027  TIP3      OH2            36.2076832998       13.7697041809      -38.8181126323  TIP3      18667           0.0000000000
    107515     20027  TIP3      H1             35.5341381913       13.7316271910      -39.5352550804  TIP3      18667           0.0000000000
    107516     20027  TIP3      H2             36.1926572982       14.7190115025      -38.6489507489  TIP3      18667           0.0000000000
    107517     20028  TIP3      OH2            38.0791391922       -0.3071104301      -41.2869849019  TIP3      18668           0.0000000000
    107518     20028  TIP3      H1             38.6357750205       -0.8293360258      -41.8702403568  TIP3      18668           0.0000000000
    107519     20028  TIP3      H2             38.7894358399        0.0809535421      -40.7226165192  TIP3      18668           0.0000000000
    107520     20029  TIP3      OH2            37.4667198289       -1.5066512019      -26.2077413584  TIP3      18669           0.0000000000
    107521     20029  TIP3      H1             36.9859623122       -2.1533356580      -25.6512388197  TIP3      18669           0.0000000000
    107522     20029  TIP3      H2             38.2676021464       -1.3662258223      -25.6566462786  TIP3      18669           0.0000000000
    107523     20030  TIP3      OH2            39.4232470947       -2.1046226308      -24.6264098736  TIP3      18670           0.0000000000
    107524     20030  TIP3      H1             40.3506914598       -2.3663341048      -24.7051439575  TIP3      18670           0.0000000000
    107525     20030  TIP3      H2             39.0185824827       -2.7968353472      -24.0502980001  TIP3      18670           0.0000000000
    107526     20031  TIP3      OH2            38.0443457037       14.7504474076      -41.8785280752  TIP3      18671           0.0000000000
    107527     20031  TIP3      H1             37.7424873113       15.0326175114      -41.0012588957  TIP3      18671           0.0000000000
    107528     20031  TIP3      H2             38.7809728706       14.1602306846      -41.7194755942  TIP3      18671           0.0000000000
    107529     20032  TIP3      OH2           -28.8273105169       26.0399224149      -35.7051208799  TIP3      18672           0.0000000000
    107530     20032  TIP3      H1            -28.8320993711       27.0212158679      -35.7415419827  TIP3      18672           0.0000000000
    107531     20032  TIP3      H2            -29.5527390840       25.8062906532      -36.3053701780  TIP3      18672           0.0000000000
    107532     20033  TIP3      OH2           -29.9700977542       25.2975111227      -32.1996701061  TIP3      18673           0.0000000000
    107533     20033  TIP3      H1            -29.9819173650       24.6470714082      -31.4863325931  TIP3      18673           0.0000000000
    107534     20033  TIP3      H2            -30.3127396326       24.7939902138      -32.9569105647  TIP3      18673           0.0000000000
    107535     20034  TIP3      OH2           -37.4676816782       24.9410905373      -30.8121026922  TIP3      18674           0.0000000000
    107536     20034  TIP3      H1            -37.6169478875       24.3524118268      -30.0271085487  TIP3      18674           0.0000000000
    107537     20034  TIP3      H2            -36.8818873957       25.5868982649      -30.3997526557  TIP3      18674           0.0000000000
    107538     20035  TIP3      OH2           -26.2778526222       28.2459441441      -33.9179084465  TIP3      18675           0.0000000000
    107539     20035  TIP3      H1            -26.6952048874       27.5297054976      -33.4288838732  TIP3      18675           0.0000000000
    107540     20035  TIP3      H2            -26.2574528562       28.9552937111      -33.2489085364  TIP3      18675           0.0000000000
    107541     20036  TIP3      OH2           -36.6991723314       29.4205901575      -32.1624306683  TIP3      18676           0.0000000000
    107542     20036  TIP3      H1            -37.0134037120       28.5425866965      -32.4634711496  TIP3      18676           0.0000000000
    107543     20036  TIP3      H2            -35.7456104264       29.2267512719      -32.1020574018  TIP3      18676           0.0000000000
    107544     20037  TIP3      OH2           -39.7372388115       23.2814835852      -37.2175685597  TIP3      18677           0.0000000000
    107545     20037  TIP3      H1            -40.3143517109       23.9137359621      -36.7553746442  TIP3      18677           0.0000000000
    107546     20037  TIP3      H2            -40.3910543412       22.6270549445      -37.4515634427  TIP3      18677           0.0000000000
    107547     20038  TIP3      OH2           -39.1881554929       25.1477388499      -34.4842305963  TIP3      18678           0.0000000000
    107548     20038  TIP3      H1            -38.9738022456       24.3078572012      -34.0168345705  TIP3      18678           0.0000000000
    107549     20038  TIP3      H2            -38.5173846403       25.2499373359      -35.1700844288  TIP3      18678           0.0000000000
    107550     20039  TIP3      OH2           -29.1521215836       33.4078161239      -33.6818871016  TIP3      18679           0.0000000000
    107551     20039  TIP3      H1            -28.5121557522       32.7104300501      -33.9665241360  TIP3      18679           0.0000000000
    107552     20039  TIP3      H2            -29.3719464671       33.0748452715      -32.8093803026  TIP3      18679           0.0000000000
    107553     20040  TIP3      OH2           -31.5907599990       27.7008016056      -31.7366650959  TIP3      18680           0.0000000000
    107554     20040  TIP3      H1            -31.2531122686       27.0688255171      -32.3895958769  TIP3      18680           0.0000000000
    107555     20040  TIP3      H2            -30.7857510622       27.8549261527      -31.2132074121  TIP3      18680           0.0000000000
    107556     20041  TIP3      OH2           -22.9909071896       19.3569589435      -31.0020346981  TIP3      18681           0.0000000000
    107557     20041  TIP3      H1            -22.8180456832       19.9472452608      -30.2375264282  TIP3      18681           0.0000000000
    107558     20041  TIP3      H2            -22.4295766982       19.7813981646      -31.6663755016  TIP3      18681           0.0000000000
    107559     20042  TIP3      OH2           -28.4256003737       22.1665793830      -31.4195739905  TIP3      18682           0.0000000000
    107560     20042  TIP3      H1            -28.2598966945       21.2072855028      -31.4169300313  TIP3      18682           0.0000000000
    107561     20042  TIP3      H2            -28.5275379861       22.3088073522      -32.3805370672  TIP3      18682           0.0000000000
    107562     20043  TIP3      OH2           -35.3119260909       20.2550676172      -34.2038500841  TIP3      18683           0.0000000000
    107563     20043  TIP3      H1            -35.2081652820       21.1014255704      -34.6762189473  TIP3      18683           0.0000000000
    107564     20043  TIP3      H2            -35.7048148976       19.6861045668      -34.9002805213  TIP3      18683           0.0000000000
    107565     20044  TIP3      OH2           -27.5740590933       20.3339250417      -35.8276176901  TIP3      18684           0.0000000000
    107566     20044  TIP3      H1            -26.9181883875       20.0221027798      -35.1614891825  TIP3      18684           0.0000000000
    107567     20044  TIP3      H2            -27.0131265578       20.9060805481      -36.3726960580  TIP3      18684           0.0000000000
    107568     20045  TIP3      OH2           -38.4529255358       22.6881059318      -33.5527226919  TIP3      18685           0.0000000000
    107569     20045  TIP3      H1            -37.9359674908       22.0591284154      -33.0236398174  TIP3      18685           0.0000000000
    107570     20045  TIP3      H2            -38.5165351856       22.2692147790      -34.4204891856  TIP3      18685           0.0000000000
    107571     20046  TIP3      OH2           -33.5221479601       24.2219616528      -34.1549984357  TIP3      18686           0.0000000000
    107572     20046  TIP3      H1            -32.8589930421       23.6388542867      -33.7484845731  TIP3      18686           0.0000000000
    107573     20046  TIP3      H2            -34.0477126660       23.5609696659      -34.6490068191  TIP3      18686           0.0000000000
    107574     20047  TIP3      OH2           -22.5549490917       20.7550244385      -28.7255642668  TIP3      18687           0.0000000000
    107575     20047  TIP3      H1            -23.1600020194       21.5237101903      -28.8312167811  TIP3      18687           0.0000000000
    107576     20047  TIP3      H2            -22.5184832134       20.6733944522      -27.7625324212  TIP3      18687           0.0000000000
    107577     20048  TIP3      OH2           -36.4111611144       19.1378558282      -30.1746646512  TIP3      18688           0.0000000000
    107578     20048  TIP3      H1            -36.7065795551       19.7195071137      -30.9068818707  TIP3      18688           0.0000000000
    107579     20048  TIP3      H2            -37.0873117985       19.3921649300      -29.4903395453  TIP3      18688           0.0000000000
    107580     20049  TIP3      OH2           -29.1107470202       28.6394886694      -36.6175065139  TIP3      18689           0.0000000000
    107581     20049  TIP3      H1            -29.3911809994       28.3509084998      -37.4973682045  TIP3      18689           0.0000000000
    107582     20049  TIP3      H2            -29.4209210660       29.5706757716      -36.5637857103  TIP3      18689           0.0000000000
    107583     20050  TIP3      OH2           -33.8785677239       26.8020312262      -29.9328715445  TIP3      18690           0.0000000000
    107584     20050  TIP3      H1            -34.5898685337       27.4349962190      -29.6968007845  TIP3      18690           0.0000000000
    107585     20050  TIP3      H2            -33.1773896348       27.4063931589      -30.2020228500  TIP3      18690           0.0000000000
    107586     20051  TIP3      OH2           -25.7662074455       19.6788717323      -33.8402438810  TIP3      18691           0.0000000000
    107587     20051  TIP3      H1            -25.9827323719       18.9119347986      -33.3023676979  TIP3      18691           0.0000000000
    107588     20051  TIP3      H2            -25.0925090051       20.1181792487      -33.2955329769  TIP3      18691           0.0000000000
    107589     20052  TIP3      OH2           -36.8500633783       20.9831252858      -32.1231379013  TIP3      18692           0.0000000000
    107590     20052  TIP3      H1            -36.2501407699       21.6962832946      -31.7992561046  TIP3      18692           0.0000000000
    107591     20052  TIP3      H2            -36.3181070228       20.5935471374      -32.8557838808  TIP3      18692           0.0000000000
    107592     20053  TIP3      OH2           -35.4759959454       28.7824464109      -29.0998725785  TIP3      18693           0.0000000000
    107593     20053  TIP3      H1            -35.4863418063       29.7005901802      -29.4306292032  TIP3      18693           0.0000000000
    107594     20053  TIP3      H2            -36.3595501314       28.7249863479      -28.6753649993  TIP3      18693           0.0000000000
    107595     20054  TIP3      OH2           -39.3700535633       28.4349502313      -38.3047483549  TIP3      18694           0.0000000000
    107596     20054  TIP3      H1            -39.5911814416       28.7058097982      -39.2078597310  TIP3      18694           0.0000000000
    107597     20054  TIP3      H2            -39.3019628136       29.2709356939      -37.8105606778  TIP3      18694           0.0000000000
    107598     20055  TIP3      OH2           -25.7507347830       30.0833500390      -31.5495833644  TIP3      18695           0.0000000000
    107599     20055  TIP3      H1            -26.7184680250       30.1925828786      -31.4283730687  TIP3      18695           0.0000000000
    107600     20055  TIP3      H2            -25.4811116407       31.0003567132      -31.7483576583  TIP3      18695           0.0000000000
    107601     20056  TIP3      OH2           -25.4304002088       18.3666522370      -30.1583867900  TIP3      18696           0.0000000000
    107602     20056  TIP3      H1            -26.1549931103       18.9992381602      -30.2464397455  TIP3      18696           0.0000000000
    107603     20056  TIP3      H2            -24.7181318803       18.7871037567      -30.6842365969  TIP3      18696           0.0000000000
    107604     20057  TIP3      OH2           -32.4583655204       16.4872062074      -32.6953540593  TIP3      18697           0.0000000000
    107605     20057  TIP3      H1            -32.5953752173       15.5239829481      -32.7672140297  TIP3      18697           0.0000000000
    107606     20057  TIP3      H2            -33.3375966179       16.7924776391      -32.3910276913  TIP3      18697           0.0000000000
    107607     20058  TIP3      OH2           -27.4915840608       31.8674187325      -34.9595865916  TIP3      18698           0.0000000000
    107608     20058  TIP3      H1            -27.0621985432       31.1489764374      -35.4673777448  TIP3      18698           0.0000000000
    107609     20058  TIP3      H2            -27.0671577588       32.6585046422      -35.3542751278  TIP3      18698           0.0000000000
    107610     20059  TIP3      OH2           -26.2823417250       29.7943417003      -36.4454421285  TIP3      18699           0.0000000000
    107611     20059  TIP3      H1            -26.5701116812       29.0978576845      -37.0593304668  TIP3      18699           0.0000000000
    107612     20059  TIP3      H2            -26.2484759611       29.3029514894      -35.6041957148  TIP3      18699           0.0000000000
    107613     20060  TIP3      OH2           -24.6603639503       28.3882086503      -27.9488695331  TIP3      18700           0.0000000000
    107614     20060  TIP3      H1            -24.5154272447       27.7372088427      -28.6713740876  TIP3      18700           0.0000000000
    107615     20060  TIP3      H2            -24.4599431978       29.2338860002      -28.3878674302  TIP3      18700           0.0000000000
    107616     20061  TIP3      OH2           -30.1676884019       25.2696640721      -38.1862095318  TIP3      18701           0.0000000000
    107617     20061  TIP3      H1            -30.8628614279       25.8449932450      -38.5468405040  TIP3      18701           0.0000000000
    107618     20061  TIP3      H2            -29.4588817281       25.3659128931      -38.8497475716  TIP3      18701           0.0000000000
    107619     20062  TIP3      OH2           -30.1004988588       23.8192408791      -41.1262716122  TIP3      18702           0.0000000000
    107620     20062  TIP3      H1            -29.3803328423       23.8202132818      -40.4760141343  TIP3      18702           0.0000000000
    107621     20062  TIP3      H2            -29.8058075979       23.1258368791      -41.7253326058  TIP3      18702           0.0000000000
    107622     20063  TIP3      OH2           -22.7779977304       24.6986066829      -29.9038968050  TIP3      18703           0.0000000000
    107623     20063  TIP3      H1            -23.4362569908       25.4211445611      -29.8606006557  TIP3      18703           0.0000000000
    107624     20063  TIP3      H2            -22.2864778160       24.9313387899      -30.7123320208  TIP3      18703           0.0000000000
    107625     20064  TIP3      OH2           -26.7131411010       25.5052340313      -37.2488256000  TIP3      18704           0.0000000000
    107626     20064  TIP3      H1            -27.4672550278       25.7337085939      -36.6560506521  TIP3      18704           0.0000000000
    107627     20064  TIP3      H2            -26.2517446910       24.8124739181      -36.7430629029  TIP3      18704           0.0000000000
    107628     20065  TIP3      OH2           -26.7929610363       23.6561984557      -28.1461252403  TIP3      18705           0.0000000000
    107629     20065  TIP3      H1            -26.7788315338       24.4675681367      -27.6098758325  TIP3      18705           0.0000000000
    107630     20065  TIP3      H2            -27.4242250424       23.9519691354      -28.8340785475  TIP3      18705           0.0000000000
    107631     20066  TIP3      OH2           -35.1005019256       26.1618448611      -35.3458747047  TIP3      18706           0.0000000000
    107632     20066  TIP3      H1            -35.4489452266       25.7570731299      -36.1749704551  TIP3      18706           0.0000000000
    107633     20066  TIP3      H2            -34.4950945230       25.4593167120      -35.0138702703  TIP3      18706           0.0000000000
    107634     20067  TIP3      OH2           -33.7952127599       29.5388073068      -32.6631743986  TIP3      18707           0.0000000000
    107635     20067  TIP3      H1            -33.7997407253       29.0103057723      -33.4710826160  TIP3      18707           0.0000000000
    107636     20067  TIP3      H2            -33.0089012583       29.1815943387      -32.2094612205  TIP3      18707           0.0000000000
    107637     20068  TIP3      OH2           -34.7500989751       24.8868228829      -31.7067910254  TIP3      18708           0.0000000000
    107638     20068  TIP3      H1            -34.2014487741       25.0129719068      -32.5015821838  TIP3      18708           0.0000000000
    107639     20068  TIP3      H2            -34.4262677289       25.5634773958      -31.0776395188  TIP3      18708           0.0000000000
    107640     20069  TIP3      OH2           -28.3678931989       30.4662378834      -30.9834653116  TIP3      18709           0.0000000000
    107641     20069  TIP3      H1            -28.6537091459       31.1014403985      -30.3227103370  TIP3      18709           0.0000000000
    107642     20069  TIP3      H2            -28.6211421577       29.6114752758      -30.5573640789  TIP3      18709           0.0000000000
    107643     20070  TIP3      OH2           -33.8442422158       29.3109757343      -26.9596234186  TIP3      18710           0.0000000000
    107644     20070  TIP3      H1            -34.2361369745       30.0821160575      -26.5103650482  TIP3      18710           0.0000000000
    107645     20070  TIP3      H2            -34.5094366002       29.1211361063      -27.6630937775  TIP3      18710           0.0000000000
    107646     20071  TIP3      OH2           -27.8436646847       24.6743936892      -39.5844004507  TIP3      18711           0.0000000000
    107647     20071  TIP3      H1            -27.2870518392       24.8607916807      -38.7869785394  TIP3      18711           0.0000000000
    107648     20071  TIP3      H2            -27.4270407702       25.1953909783      -40.3032796745  TIP3      18711           0.0000000000
    107649     20072  TIP3      OH2           -36.9047522059       25.4778521444      -27.7965865533  TIP3      18712           0.0000000000
    107650     20072  TIP3      H1            -36.8641196229       26.1876628853      -27.1325219290  TIP3      18712           0.0000000000
    107651     20072  TIP3      H2            -37.8136105878       25.5669789940      -28.1143759905  TIP3      18712           0.0000000000
    107652     20073  TIP3      OH2           -30.1315796943       31.4138483223      -36.1261395446  TIP3      18713           0.0000000000
    107653     20073  TIP3      H1            -29.6967004496       31.7216582139      -35.3230575155  TIP3      18713           0.0000000000
    107654     20073  TIP3      H2            -30.6907910570       32.1619248773      -36.3630801492  TIP3      18713           0.0000000000
    107655     20074  TIP3      OH2           -35.6075521747       31.3189252921      -26.2324211018  TIP3      18714           0.0000000000
    107656     20074  TIP3      H1            -35.6534317655       31.2508467160      -27.2018452656  TIP3      18714           0.0000000000
    107657     20074  TIP3      H2            -36.5514267594       31.2585971748      -25.9904529715  TIP3      18714           0.0000000000
    107658     20075  TIP3      OH2           -24.1256027716       16.4218912930      -39.6916552272  TIP3      18715           0.0000000000
    107659     20075  TIP3      H1            -25.0782856053       16.5355257980      -39.4595271817  TIP3      18715           0.0000000000
    107660     20075  TIP3      H2            -23.9171864221       17.2690430654      -40.1163258786  TIP3      18715           0.0000000000
    107661     20076  TIP3      OH2           -36.1400303459       25.1797411518      -37.7052371378  TIP3      18716           0.0000000000
    107662     20076  TIP3      H1            -36.4180870322       25.9545986601      -38.2374369911  TIP3      18716           0.0000000000
    107663     20076  TIP3      H2            -36.8001310889       24.5188303259      -37.9508844809  TIP3      18716           0.0000000000
    107664     20077  TIP3      OH2           -23.0266573816       30.7769190035      -41.2602361149  TIP3      18717           0.0000000000
    107665     20077  TIP3      H1            -22.8819714617       31.7331978907      -41.2179749839  TIP3      18717           0.0000000000
    107666     20077  TIP3      H2            -22.1158294979       30.4769521280      -41.4347597268  TIP3      18717           0.0000000000
    107667     20078  TIP3      OH2           -39.6265225951       27.3508172568      -29.0339495987  TIP3      18718           0.0000000000
    107668     20078  TIP3      H1            -40.3945578643       27.5816557353      -29.6038874858  TIP3      18718           0.0000000000
    107669     20078  TIP3      H2            -40.0010122982       26.5814171749      -28.5928654065  TIP3      18718           0.0000000000
    107670     20079  TIP3      OH2           -40.2459372517       30.3989870820      -32.1218477726  TIP3      18719           0.0000000000
    107671     20079  TIP3      H1            -39.3117298556       30.1551992273      -32.0410295580  TIP3      18719           0.0000000000
    107672     20079  TIP3      H2            -40.3598507323       31.1329933876      -31.5060262122  TIP3      18719           0.0000000000
    107673     20080  TIP3      OH2           -22.0617233314       31.0440207421      -26.3947953659  TIP3      18720           0.0000000000
    107674     20080  TIP3      H1            -22.1679670309       30.0820092369      -26.3874219503  TIP3      18720           0.0000000000
    107675     20080  TIP3      H2            -22.9170892800       31.2939349129      -25.9599258291  TIP3      18720           0.0000000000
    107676     20081  TIP3      OH2           -31.0856547922       30.5877950235      -27.5337450486  TIP3      18721           0.0000000000
    107677     20081  TIP3      H1            -31.0297575727       31.4129586158      -26.9980479553  TIP3      18721           0.0000000000
    107678     20081  TIP3      H2            -31.9430388185       30.2218356123      -27.2547459035  TIP3      18721           0.0000000000
    107679     20082  TIP3      OH2           -30.6653315041       34.3284867187      -37.7106477361  TIP3      18722           0.0000000000
    107680     20082  TIP3      H1            -30.7490743590       34.2578537663      -38.6732137221  TIP3      18722           0.0000000000
    107681     20082  TIP3      H2            -30.6274931853       35.2903466040      -37.5585571660  TIP3      18722           0.0000000000
    107682     20083  TIP3      OH2           -37.0142196756       33.1871004799      -35.9062440072  TIP3      18723           0.0000000000
    107683     20083  TIP3      H1            -36.8793679516       32.7873077921      -35.0222043510  TIP3      18723           0.0000000000
    107684     20083  TIP3      H2            -37.8677294182       32.7930572981      -36.1374385050  TIP3      18723           0.0000000000
    107685     20084  TIP3      OH2           -27.6419360606       33.5134908105      -40.7587421492  TIP3      18724           0.0000000000
    107686     20084  TIP3      H1            -27.1376120714       32.7765973946      -41.1727294198  TIP3      18724           0.0000000000
    107687     20084  TIP3      H2            -27.5565701143       33.2722083317      -39.8158226465  TIP3      18724           0.0000000000
    107688     20085  TIP3      OH2           -27.9077976660       33.4752874665      -37.9507145757  TIP3      18725           0.0000000000
    107689     20085  TIP3      H1            -28.8638477605       33.5408551575      -37.7617126839  TIP3      18725           0.0000000000
    107690     20085  TIP3      H2            -27.6592602127       32.7284217330      -37.3860662503  TIP3      18725           0.0000000000
    107691     20086  TIP3      OH2           -24.8892522407       22.4981016607      -25.9109934063  TIP3      18726           0.0000000000
    107692     20086  TIP3      H1            -25.3592373108       22.9662215243      -26.6176424694  TIP3      18726           0.0000000000
    107693     20086  TIP3      H2            -24.9127152963       21.5798686874      -26.2106839783  TIP3      18726           0.0000000000
    107694     20087  TIP3      OH2           -37.8193542352       28.9926353465      -27.8707843231  TIP3      18727           0.0000000000
    107695     20087  TIP3      H1            -37.5796255482       28.5455128865      -27.0371805473  TIP3      18727           0.0000000000
    107696     20087  TIP3      H2            -38.6347642031       28.5045571967      -28.1496819540  TIP3      18727           0.0000000000
    107697     20088  TIP3      OH2           -35.0710860321       17.3920275789      -31.9395901819  TIP3      18728           0.0000000000
    107698     20088  TIP3      H1            -35.9780501947       17.2764236763      -32.3092461106  TIP3      18728           0.0000000000
    107699     20088  TIP3      H2            -35.2067968597       18.2241550449      -31.4588957728  TIP3      18728           0.0000000000
    107700     20089  TIP3      OH2           -30.4413905117       17.0573028251      -28.5732657817  TIP3      18729           0.0000000000
    107701     20089  TIP3      H1            -30.0551374621       16.6384476634      -27.7801779499  TIP3      18729           0.0000000000
    107702     20089  TIP3      H2            -31.4130486870       16.9377747265      -28.4337318300  TIP3      18729           0.0000000000
    107703     20090  TIP3      OH2           -27.1467882828       20.9040196427      -27.6804728576  TIP3      18730           0.0000000000
    107704     20090  TIP3      H1            -27.7104645541       20.6944792939      -26.8995478939  TIP3      18730           0.0000000000
    107705     20090  TIP3      H2            -27.3338840449       21.8289643515      -27.9124775000  TIP3      18730           0.0000000000
    107706     20091  TIP3      OH2           -26.3922005665       25.6953711593      -41.8900836324  TIP3      18731           0.0000000000
    107707     20091  TIP3      H1            -26.3764343598       25.5210626645      -42.8436800466  TIP3      18731           0.0000000000
    107708     20091  TIP3      H2            -25.5540027797       26.1579892403      -41.7382729910  TIP3      18731           0.0000000000
    107709     20092  TIP3      OH2           -30.8089130987       19.6296472206      -41.2385586988  TIP3      18732           0.0000000000
    107710     20092  TIP3      H1            -31.1169770157       19.5877690007      -40.3156725660  TIP3      18732           0.0000000000
    107711     20092  TIP3      H2            -31.0806944396       18.7526417656      -41.5238597031  TIP3      18732           0.0000000000
    107712     20093  TIP3      OH2           -34.9817931864       22.3577388747      -30.7156277533  TIP3      18733           0.0000000000
    107713     20093  TIP3      H1            -35.7116485054       22.3299213476      -30.0524170672  TIP3      18733           0.0000000000
    107714     20093  TIP3      H2            -35.0651943109       23.2726615429      -31.0656257057  TIP3      18733           0.0000000000
    107715     20094  TIP3      OH2           -35.0151408286       22.4991347078      -35.8114798695  TIP3      18734           0.0000000000
    107716     20094  TIP3      H1            -35.9565536479       22.2382039951      -35.9521663303  TIP3      18734           0.0000000000
    107717     20094  TIP3      H2            -34.6405274000       22.1936103368      -36.6600196432  TIP3      18734           0.0000000000
    107718     20095  TIP3      OH2           -29.5024084583       22.9793661209      -37.0546594241  TIP3      18735           0.0000000000
    107719     20095  TIP3      H1            -29.9095202374       23.8064194715      -37.4032258545  TIP3      18735           0.0000000000
    107720     20095  TIP3      H2            -28.8186688856       22.8173460186      -37.7305963509  TIP3      18735           0.0000000000
    107721     20096  TIP3      OH2           -30.4417486824       23.1877637207      -25.6256519104  TIP3      18736           0.0000000000
    107722     20096  TIP3      H1            -30.9772424321       22.4235337903      -25.3076443370  TIP3      18736           0.0000000000
    107723     20096  TIP3      H2            -29.6107880312       23.0806766704      -25.1374381258  TIP3      18736           0.0000000000
    107724     20097  TIP3      OH2           -28.4691788223       22.4719030504      -34.2148169625  TIP3      18737           0.0000000000
    107725     20097  TIP3      H1            -28.7466719690       23.0345842244      -34.9569596340  TIP3      18737           0.0000000000
    107726     20097  TIP3      H2            -28.3691341538       21.6218493221      -34.6842660283  TIP3      18737           0.0000000000
    107727     20098  TIP3      OH2           -36.9291148106       22.3591554686      -28.8060364283  TIP3      18738           0.0000000000
    107728     20098  TIP3      H1            -37.2957965054       23.0498058186      -28.2161500565  TIP3      18738           0.0000000000
    107729     20098  TIP3      H2            -37.7767230493       21.8808773189      -28.8735539217  TIP3      18738           0.0000000000
    107730     20099  TIP3      OH2           -33.9932697863       19.8844184152      -42.2343468869  TIP3      18739           0.0000000000
    107731     20099  TIP3      H1            -34.3925339732       19.6194058125      -41.3861423028  TIP3      18739           0.0000000000
    107732     20099  TIP3      H2            -34.6474602281       20.4647375040      -42.6454304117  TIP3      18739           0.0000000000
    107733     20100  TIP3      OH2           -39.9186228226       19.8416025995      -35.5401476339  TIP3      18740           0.0000000000
    107734     20100  TIP3      H1            -39.9836552635       19.6294424964      -34.5747068544  TIP3      18740           0.0000000000
    107735     20100  TIP3      H2            -39.9990927488       18.9653419160      -35.9552498844  TIP3      18740           0.0000000000
    107736     20101  TIP3      OH2           -39.2550610553       20.6432649160      -39.4964725867  TIP3      18741           0.0000000000
    107737     20101  TIP3      H1            -38.8675601333       21.1419724442      -40.2514764602  TIP3      18741           0.0000000000
    107738     20101  TIP3      H2            -40.0507715433       21.1695383867      -39.3735039249  TIP3      18741           0.0000000000
    107739     20102  TIP3      OH2           -29.2508888177       24.0600153101      -29.6459797395  TIP3      18742           0.0000000000
    107740     20102  TIP3      H1            -28.8904921335       23.3750746220      -30.2433536462  TIP3      18742           0.0000000000
    107741     20102  TIP3      H2            -29.7297796765       23.5313412323      -28.9820951095  TIP3      18742           0.0000000000
    107742     20103  TIP3      OH2           -32.4632234176       20.0331621581      -34.8238311849  TIP3      18743           0.0000000000
    107743     20103  TIP3      H1            -33.3969429046       20.0399428505      -34.5309423090  TIP3      18743           0.0000000000
    107744     20103  TIP3      H2            -31.9819979253       19.8716620250      -33.9990845941  TIP3      18743           0.0000000000
    107745     20104  TIP3      OH2           -37.6225211592       21.5952014513      -35.9925455731  TIP3      18744           0.0000000000
    107746     20104  TIP3      H1            -38.5072794049       21.7219038042      -36.3697875496  TIP3      18744           0.0000000000
    107747     20104  TIP3      H2            -37.3903838272       20.7212277496      -36.3539112325  TIP3      18744           0.0000000000
    107748     20105  TIP3      OH2           -34.0228759985       21.6458729985      -38.3086426865  TIP3      18745           0.0000000000
    107749     20105  TIP3      H1            -33.0612101649       21.7412439710      -38.1672688755  TIP3      18745           0.0000000000
    107750     20105  TIP3      H2            -34.2632298649       22.2995955034      -38.9931409430  TIP3      18745           0.0000000000
    107751     20106  TIP3      OH2           -28.0622226158       19.2672933613      -31.5806374051  TIP3      18746           0.0000000000
    107752     20106  TIP3      H1            -28.7442998231       19.3213380284      -30.8768653337  TIP3      18746           0.0000000000
    107753     20106  TIP3      H2            -28.5707252276       19.0188628287      -32.3661209813  TIP3      18746           0.0000000000
    107754     20107  TIP3      OH2           -35.2780800360       22.8234378833      -40.7023576267  TIP3      18747           0.0000000000
    107755     20107  TIP3      H1            -35.8513998959       22.4901896694      -41.4078165558  TIP3      18747           0.0000000000
    107756     20107  TIP3      H2            -34.4863005527       23.0417837255      -41.2103980228  TIP3      18747           0.0000000000
    107757     20108  TIP3      OH2           -24.8435768976       34.9574645341      -25.2173610241  TIP3      18748           0.0000000000
    107758     20108  TIP3      H1            -24.5959283791       35.2826910035      -26.1074492610  TIP3      18748           0.0000000000
    107759     20108  TIP3      H2            -24.0525319757       35.1729248437      -24.7216886129  TIP3      18748           0.0000000000
    107760     20109  TIP3      OH2           -37.0518989808       27.3269082020      -25.6842786302  TIP3      18749           0.0000000000
    107761     20109  TIP3      H1            -36.3836154680       27.6704091607      -25.0905301278  TIP3      18749           0.0000000000
    107762     20109  TIP3      H2            -37.8872272679       27.4943765538      -25.1980769182  TIP3      18749           0.0000000000
    107763     20110  TIP3      OH2           -31.1878382675       22.7878433287      -32.9290438506  TIP3      18750           0.0000000000
    107764     20110  TIP3      H1            -30.5859864721       22.2556759132      -33.4629906459  TIP3      18750           0.0000000000
    107765     20110  TIP3      H2            -31.3273830914       22.2413223833      -32.1438782573  TIP3      18750           0.0000000000
    107766     20111  TIP3      OH2           -36.2159365752       18.9472295675      -36.5190096502  TIP3      18751           0.0000000000
    107767     20111  TIP3      H1            -36.4993049697       18.0136267574      -36.5005067672  TIP3      18751           0.0000000000
    107768     20111  TIP3      H2            -35.3917887785       18.8752165564      -37.0256247916  TIP3      18751           0.0000000000
    107769     20112  TIP3      OH2           -32.5378376351       21.1178432728      -30.5170373882  TIP3      18752           0.0000000000
    107770     20112  TIP3      H1            -33.3680839364       21.6325926929      -30.4237916705  TIP3      18752           0.0000000000
    107771     20112  TIP3      H2            -31.9914941391       21.4683840972      -29.7864965514  TIP3      18752           0.0000000000
    107772     20113  TIP3      OH2           -31.9533103363       27.3520026267      -38.8334107081  TIP3      18753           0.0000000000
    107773     20113  TIP3      H1            -32.7546805169       26.8715359747      -39.1456480445  TIP3      18753           0.0000000000
    107774     20113  TIP3      H2            -32.1664848335       27.4603680082      -37.8837106200  TIP3      18753           0.0000000000
    107775     20114  TIP3      OH2           -24.7743345433       26.5401701796      -30.0148721975  TIP3      18754           0.0000000000
    107776     20114  TIP3      H1            -24.2071000143       27.0221201909      -30.6429811816  TIP3      18754           0.0000000000
    107777     20114  TIP3      H2            -25.6333331767       26.5926536462      -30.4812093862  TIP3      18754           0.0000000000
    107778     20115  TIP3      OH2           -28.1220226349       20.1262705157      -40.5991433202  TIP3      18755           0.0000000000
    107779     20115  TIP3      H1            -29.0574103636       20.2870612906      -40.8078855896  TIP3      18755           0.0000000000
    107780     20115  TIP3      H2            -27.7944303710       21.0063894733      -40.3292248132  TIP3      18755           0.0000000000
    107781     20116  TIP3      OH2           -30.4561687737       27.5990829309      -27.5849002721  TIP3      18756           0.0000000000
    107782     20116  TIP3      H1            -30.8059679972       27.1768343666      -26.7904834868  TIP3      18756           0.0000000000
    107783     20116  TIP3      H2            -30.7192385717       28.5196266929      -27.4697966326  TIP3      18756           0.0000000000
    107784     20117  TIP3      OH2           -27.3841201387       22.0765566529      -38.9676419709  TIP3      18757           0.0000000000
    107785     20117  TIP3      H1            -26.4905058194       21.9356023735      -38.5960368066  TIP3      18757           0.0000000000
    107786     20117  TIP3      H2            -27.2946483591       22.8871559004      -39.4919711539  TIP3      18757           0.0000000000
    107787     20118  TIP3      OH2           -36.8418677194       26.7524215986      -33.0191122952  TIP3      18758           0.0000000000
    107788     20118  TIP3      H1            -36.1630713755       26.6591207590      -33.7084321530  TIP3      18758           0.0000000000
    107789     20118  TIP3      H2            -36.7821835187       25.8889936139      -32.5620032036  TIP3      18758           0.0000000000
    107790     20119  TIP3      OH2           -29.8719320640       28.8118961798      -39.7642666760  TIP3      18759           0.0000000000
    107791     20119  TIP3      H1            -30.2149307030       29.6617318903      -39.4043618877  TIP3      18759           0.0000000000
    107792     20119  TIP3      H2            -30.6061431755       28.1973742530      -39.5490169787  TIP3      18759           0.0000000000
    107793     20120  TIP3      OH2           -40.2256957702       25.3906523714      -27.1743920569  TIP3      18760           0.0000000000
    107794     20120  TIP3      H1            -39.5635621415       24.7388852111      -26.8876255776  TIP3      18760           0.0000000000
    107795     20120  TIP3      H2            -40.3932318688       24.8391174707      -28.0018993964  TIP3      18760           0.0000000000
    107796     20121  TIP3      OH2           -32.8431111755       24.7103650054      -25.5750065694  TIP3      18761           0.0000000000
    107797     20121  TIP3      H1            -33.1559584144       24.3949816378      -26.4409615838  TIP3      18761           0.0000000000
    107798     20121  TIP3      H2            -31.9207496552       24.4011868322      -25.5815056387  TIP3      18761           0.0000000000
    107799     20122  TIP3      OH2           -28.1655528353       30.0437745529      -27.6235630202  TIP3      18762           0.0000000000
    107800     20122  TIP3      H1            -29.0923360636       30.2163565316      -27.8578968746  TIP3      18762           0.0000000000
    107801     20122  TIP3      H2            -28.1984024350       30.3294569406      -26.6895194337  TIP3      18762           0.0000000000
    107802     20123  TIP3      OH2           -22.4932071308       22.2159356887      -39.2250526336  TIP3      18763           0.0000000000
    107803     20123  TIP3      H1            -23.0614961928       21.9159298819      -39.9632150070  TIP3      18763           0.0000000000
    107804     20123  TIP3      H2            -22.4175497781       23.1547742738      -39.5018093397  TIP3      18763           0.0000000000
    107805     20124  TIP3      OH2           -22.5018571968       28.0625635867      -26.4216927159  TIP3      18764           0.0000000000
    107806     20124  TIP3      H1            -23.3903846229       28.2953750705      -26.7920602140  TIP3      18764           0.0000000000
    107807     20124  TIP3      H2            -21.9540474093       28.0251601140      -27.2345587318  TIP3      18764           0.0000000000
    107808     20125  TIP3      OH2           -24.1935967602       31.0422293432      -38.8267526011  TIP3      18765           0.0000000000
    107809     20125  TIP3      H1            -24.5669653854       30.2133770085      -38.5048167751  TIP3      18765           0.0000000000
    107810     20125  TIP3      H2            -23.8983635522       30.8516770910      -39.7438876406  TIP3      18765           0.0000000000
    107811     20126  TIP3      OH2           -26.9945055216       25.8599617545      -31.7352810732  TIP3      18766           0.0000000000
    107812     20126  TIP3      H1            -27.9352823933       25.6468463963      -31.8385717184  TIP3      18766           0.0000000000
    107813     20126  TIP3      H2            -26.5627110068       25.0970126122      -32.1640277487  TIP3      18766           0.0000000000
    107814     20127  TIP3      OH2           -34.4729698660       30.1892493602      -35.6315207744  TIP3      18767           0.0000000000
    107815     20127  TIP3      H1            -33.9739513182       30.9941482771      -35.8394083077  TIP3      18767           0.0000000000
    107816     20127  TIP3      H2            -35.3523482648       30.4227170373      -35.9582793017  TIP3      18767           0.0000000000
    107817     20128  TIP3      OH2           -38.7826063102       24.9784561194      -41.0361812459  TIP3      18768           0.0000000000
    107818     20128  TIP3      H1            -38.1240877084       25.6339749626      -40.7206968687  TIP3      18768           0.0000000000
    107819     20128  TIP3      H2            -39.5952698375       25.3735402053      -40.7255089817  TIP3      18768           0.0000000000
    107820     20129  TIP3      OH2           -33.0653725989       27.8545432261      -36.1155725499  TIP3      18769           0.0000000000
    107821     20129  TIP3      H1            -33.3681922977       28.7752220363      -36.0204032142  TIP3      18769           0.0000000000
    107822     20129  TIP3      H2            -33.7889259261       27.3635866682      -35.6719064906  TIP3      18769           0.0000000000
    107823     20130  TIP3      OH2           -32.6141265213       32.0388147909      -29.7048565840  TIP3      18770           0.0000000000
    107824     20130  TIP3      H1            -32.1552744486       32.8435699538      -29.9922240319  TIP3      18770           0.0000000000
    107825     20130  TIP3      H2            -31.9912577585       31.6954531394      -29.0400295970  TIP3      18770           0.0000000000
    107826     20131  TIP3      OH2           -34.3810958151       32.8428849010      -36.5713488103  TIP3      18771           0.0000000000
    107827     20131  TIP3      H1            -35.3467892527       32.9738873839      -36.4426160737  TIP3      18771           0.0000000000
    107828     20131  TIP3      H2            -34.0232101873       33.6863348499      -36.2379657380  TIP3      18771           0.0000000000
    107829     20132  TIP3      OH2           -29.0767991809       28.0424852354      -30.0825967804  TIP3      18772           0.0000000000
    107830     20132  TIP3      H1            -29.4100442893       27.8462404461      -29.1822417484  TIP3      18772           0.0000000000
    107831     20132  TIP3      H2            -28.4407109597       27.3290300614      -30.2520139824  TIP3      18772           0.0000000000
    107832     20133  TIP3      OH2           -26.7902813607       29.0851170770      -40.9791249053  TIP3      18773           0.0000000000
    107833     20133  TIP3      H1            -26.4578204494       28.6321719506      -40.1819966721  TIP3      18773           0.0000000000
    107834     20133  TIP3      H2            -27.7406348519       28.9210984488      -40.8921161968  TIP3      18773           0.0000000000
    107835     20134  TIP3      OH2           -26.2738563288       32.6237880488      -27.5926466315  TIP3      18774           0.0000000000
    107836     20134  TIP3      H1            -26.9592280101       32.1217474149      -28.0728896433  TIP3      18774           0.0000000000
    107837     20134  TIP3      H2            -26.0817795978       33.3194388812      -28.2564990840  TIP3      18774           0.0000000000
    107838     20135  TIP3      OH2           -22.2854805611       33.5039370184      -40.7780065841  TIP3      18775           0.0000000000
    107839     20135  TIP3      H1            -21.5673993193       34.1318654006      -40.9639335295  TIP3      18775           0.0000000000
    107840     20135  TIP3      H2            -22.9944936308       34.0968353012      -40.4503806003  TIP3      18775           0.0000000000
    107841     20136  TIP3      OH2           -38.2266013379       19.8601105264      -28.2362906985  TIP3      18776           0.0000000000
    107842     20136  TIP3      H1            -39.1074656370       20.2626319594      -28.2184593069  TIP3      18776           0.0000000000
    107843     20136  TIP3      H2            -38.3501340992       19.0298519670      -27.7654189620  TIP3      18776           0.0000000000
    107844     20137  TIP3      OH2           -25.9690002252       27.7371335432      -38.7463777885  TIP3      18777           0.0000000000
    107845     20137  TIP3      H1            -26.2110430049       26.9500376609      -38.2142854727  TIP3      18777           0.0000000000
    107846     20137  TIP3      H2            -25.0158850871       27.7909629445      -38.5587780546  TIP3      18777           0.0000000000
    107847     20138  TIP3      OH2           -38.6066704618       31.6389743434      -29.7712560431  TIP3      18778           0.0000000000
    107848     20138  TIP3      H1            -38.2801588822       30.7222583762      -29.7752071595  TIP3      18778           0.0000000000
    107849     20138  TIP3      H2            -38.2987931777       31.9552363618      -28.9081401020  TIP3      18778           0.0000000000
    107850     20139  TIP3      OH2           -32.6219307153       30.1478229720      -42.5308723272  TIP3      18779           0.0000000000
    107851     20139  TIP3      H1            -32.4777691599       29.3842721863      -43.0878435147  TIP3      18779           0.0000000000
    107852     20139  TIP3      H2            -33.0574283957       29.7813190067      -41.7321876026  TIP3      18779           0.0000000000
    107853     20140  TIP3      OH2           -33.8415994118       29.7128926382      -40.0643228950  TIP3      18780           0.0000000000
    107854     20140  TIP3      H1            -33.5898011845       29.1978440942      -39.2873853367  TIP3      18780           0.0000000000
    107855     20140  TIP3      H2            -33.7862085671       30.6432681982      -39.7532258584  TIP3      18780           0.0000000000
    107856     20141  TIP3      OH2           -37.3621814581       26.9695901640      -39.6117406920  TIP3      18781           0.0000000000
    107857     20141  TIP3      H1            -38.0263306233       27.3594617583      -39.0022838838  TIP3      18781           0.0000000000
    107858     20141  TIP3      H2            -36.8034812378       27.7337286614      -39.8303982503  TIP3      18781           0.0000000000
    107859     20142  TIP3      OH2           -29.4716747366       19.6504073476      -29.2547514924  TIP3      18782           0.0000000000
    107860     20142  TIP3      H1            -28.7658809047       19.7084549846      -28.6033197778  TIP3      18782           0.0000000000
    107861     20142  TIP3      H2            -29.8576970708       18.7741951086      -29.0519699437  TIP3      18782           0.0000000000
    107862     20143  TIP3      OH2           -28.7420912277       19.2299831634      -38.1394699113  TIP3      18783           0.0000000000
    107863     20143  TIP3      H1            -28.4919322909       19.6829148469      -38.9735832395  TIP3      18783           0.0000000000
    107864     20143  TIP3      H2            -28.1463432100       19.6607907018      -37.5169037880  TIP3      18783           0.0000000000
    107865     20144  TIP3      OH2           -31.0400878593       31.3765426903      -39.3719274160  TIP3      18784           0.0000000000
    107866     20144  TIP3      H1            -31.8585071999       31.8998383075      -39.2684162556  TIP3      18784           0.0000000000
    107867     20144  TIP3      H2            -30.5187245754       31.9173160799      -39.9803604941  TIP3      18784           0.0000000000
    107868     20145  TIP3      OH2           -31.5010296477       20.9697058094      -37.3337324666  TIP3      18785           0.0000000000
    107869     20145  TIP3      H1            -30.7137524042       21.5470318447      -37.3006926959  TIP3      18785           0.0000000000
    107870     20145  TIP3      H2            -31.7593761170       20.8526103120      -36.4016556617  TIP3      18785           0.0000000000
    107871     20146  TIP3      OH2           -30.9467116761       21.9978294768      -28.1581408982  TIP3      18786           0.0000000000
    107872     20146  TIP3      H1            -30.8656562069       22.5684926748      -27.3700976179  TIP3      18786           0.0000000000
    107873     20146  TIP3      H2            -30.2832716896       21.3015023516      -28.0632089924  TIP3      18786           0.0000000000
    107874     20147  TIP3      OH2           -30.6477822485       18.0291869649      -36.4547318538  TIP3      18787           0.0000000000
    107875     20147  TIP3      H1            -30.9703360967       18.6841338860      -35.8125889348  TIP3      18787           0.0000000000
    107876     20147  TIP3      H2            -29.9564250511       18.5734185324      -36.9084500290  TIP3      18787           0.0000000000
    107877     20148  TIP3      OH2           -33.6665347489       32.4126126142      -39.3046773818  TIP3      18788           0.0000000000
    107878     20148  TIP3      H1            -33.5167489848       33.2299041678      -39.8336794232  TIP3      18788           0.0000000000
    107879     20148  TIP3      H2            -33.9201542221       32.7735252791      -38.4318964242  TIP3      18788           0.0000000000
    107880     20149  TIP3      OH2           -34.9897371854       19.1270926478      -39.7244274080  TIP3      18789           0.0000000000
    107881     20149  TIP3      H1            -35.0307386028       20.0393966912      -39.3698473196  TIP3      18789           0.0000000000
    107882     20149  TIP3      H2            -34.0804428005       18.8802056261      -39.4559173763  TIP3      18789           0.0000000000
    107883     20150  TIP3      OH2           -24.7628091312       19.8588683720      -27.2872005121  TIP3      18790           0.0000000000
    107884     20150  TIP3      H1            -25.6905601670       20.1733695015      -27.4238764014  TIP3      18790           0.0000000000
    107885     20150  TIP3      H2            -24.4640140718       19.8494301504      -28.2146172591  TIP3      18790           0.0000000000
    107886     20151  TIP3      OH2           -26.1534738884       23.6504281473      -33.2928379814  TIP3      18791           0.0000000000
    107887     20151  TIP3      H1            -26.9777375217       23.2071412553      -33.5706496486  TIP3      18791           0.0000000000
    107888     20151  TIP3      H2            -25.6776016484       22.9618096065      -32.7751206688  TIP3      18791           0.0000000000
    107889     20152  TIP3      OH2           -36.7445444901       29.5731460472      -40.6957250330  TIP3      18792           0.0000000000
    107890     20152  TIP3      H1            -36.1012840039       30.2247728680      -40.3925975674  TIP3      18792           0.0000000000
    107891     20152  TIP3      H2            -36.2338786957       29.1071254164      -41.3890272188  TIP3      18792           0.0000000000
    107892     20153  TIP3      OH2           -38.4241896666       22.2140454335      -41.5477317927  TIP3      18793           0.0000000000
    107893     20153  TIP3      H1            -38.3787298280       23.1847421331      -41.4012777993  TIP3      18793           0.0000000000
    107894     20153  TIP3      H2            -39.2832993316       22.0471673973      -41.9226896405  TIP3      18793           0.0000000000
    107895     20154  TIP3      OH2           -25.0886672981       32.9035982845      -31.6220391196  TIP3      18794           0.0000000000
    107896     20154  TIP3      H1            -25.1839609577       33.5885137859      -32.3131375969  TIP3      18794           0.0000000000
    107897     20154  TIP3      H2            -24.1255269195       32.9629849513      -31.4465737702  TIP3      18794           0.0000000000
    107898     20155  TIP3      OH2           -37.5573392833       17.0144789954      -32.8471577870  TIP3      18795           0.0000000000
    107899     20155  TIP3      H1            -37.8187908199       17.0434808555      -33.7919866475  TIP3      18795           0.0000000000
    107900     20155  TIP3      H2            -38.0501982674       16.2202620027      -32.5607144307  TIP3      18795           0.0000000000
    107901     20156  TIP3      OH2           -38.6271336359       30.9426424222      -36.6633814222  TIP3      18796           0.0000000000
    107902     20156  TIP3      H1            -39.4870987679       31.3775801565      -36.7051376751  TIP3      18796           0.0000000000
    107903     20156  TIP3      H2            -38.1603038718       31.4355524944      -37.3534103359  TIP3      18796           0.0000000000
    107904     20157  TIP3      OH2           -39.3765840119       33.5850108224      -25.3994004077  TIP3      18797           0.0000000000
    107905     20157  TIP3      H1            -38.8142383794       33.3784282942      -24.6317980043  TIP3      18797           0.0000000000
    107906     20157  TIP3      H2            -39.8642621238       32.7649264086      -25.5758721716  TIP3      18797           0.0000000000
    107907     20158  TIP3      OH2           -34.7860642151       32.4828847722      -23.7652401103  TIP3      18798           0.0000000000
    107908     20158  TIP3      H1            -33.9744709992       32.0572464708      -23.4479907319  TIP3      18798           0.0000000000
    107909     20158  TIP3      H2            -34.7950111118       32.2485044124      -24.7152295568  TIP3      18798           0.0000000000
    107910     20159  TIP3      OH2           -30.6480894278       32.0253951620      -42.3948542670  TIP3      18799           0.0000000000
    107911     20159  TIP3      H1            -31.3538572174       31.3805868683      -42.1744452911  TIP3      18799           0.0000000000
    107912     20159  TIP3      H2            -29.9106548028       31.4458495215      -42.6107154944  TIP3      18799           0.0000000000
    107913     20160  TIP3      OH2           -28.2466873796       30.8954326911      -25.0573958780  TIP3      18800           0.0000000000
    107914     20160  TIP3      H1            -28.5690276813       30.0254572565      -24.7462384274  TIP3      18800           0.0000000000
    107915     20160  TIP3      H2            -27.4764345408       31.0441242917      -24.4727394211  TIP3      18800           0.0000000000
    107916     20161  TIP3      OH2           -26.0549542270       31.8112794158      -42.1710383564  TIP3      18801           0.0000000000
    107917     20161  TIP3      H1            -25.8021559500       30.9908707663      -41.7099529363  TIP3      18801           0.0000000000
    107918     20161  TIP3      H2            -25.2837875863       31.9861226421      -42.7154448301  TIP3      18801           0.0000000000
    107919     20162  TIP3      OH2           -39.2887929762       27.3373036849      -24.5377510277  TIP3      18802           0.0000000000
    107920     20162  TIP3      H1            -39.2122768566       26.4016456298      -24.8377113660  TIP3      18802           0.0000000000
    107921     20162  TIP3      H2            -40.0050873965       27.6656271418      -25.1207019425  TIP3      18802           0.0000000000
    107922     20163  TIP3      OH2           -35.1735888506       27.7045667751      -42.3372329202  TIP3      18803           0.0000000000
    107923     20163  TIP3      H1            -35.0325904705       26.9444675547      -41.7557919019  TIP3      18803           0.0000000000
    107924     20163  TIP3      H2            -34.4941593290       27.5756330773      -43.0028324543  TIP3      18803           0.0000000000
    107925     20164  TIP3      OH2           -32.7897795693       27.3618246579      -25.0165647355  TIP3      18804           0.0000000000
    107926     20164  TIP3      H1            -33.1484307488       27.6716230535      -25.8677727353  TIP3      18804           0.0000000000
    107927     20164  TIP3      H2            -32.7444826640       26.3814693483      -25.1247240034  TIP3      18804           0.0000000000
    107928     20165  TIP3      OH2           -29.8148490805       28.7989679736      -42.5803496723  TIP3      18805           0.0000000000
    107929     20165  TIP3      H1            -30.0275746941       28.9394375356      -41.6399632089  TIP3      18805           0.0000000000
    107930     20165  TIP3      H2            -29.9667154583       27.8507834259      -42.6925391870  TIP3      18805           0.0000000000
    107931     20166  TIP3      OH2           -27.1133328943       27.2234736899      -27.6157261981  TIP3      18806           0.0000000000
    107932     20166  TIP3      H1            -26.3281491510       27.8115247256      -27.6827558853  TIP3      18806           0.0000000000
    107933     20166  TIP3      H2            -27.8151539624       27.8890578742      -27.5757480357  TIP3      18806           0.0000000000
    107934     20167  TIP3      OH2           -38.7024764936       24.5742275963      -24.9820033863  TIP3      18807           0.0000000000
    107935     20167  TIP3      H1            -38.1551597599       23.7763342947      -25.1448519837  TIP3      18807           0.0000000000
    107936     20167  TIP3      H2            -38.7904759633       24.5641568087      -24.0282596761  TIP3      18807           0.0000000000
    107937     20168  TIP3      OH2           -33.9568434301       25.7422815217      -39.9431183894  TIP3      18808           0.0000000000
    107938     20168  TIP3      H1            -34.4726290268       25.2132793494      -39.3121879923  TIP3      18808           0.0000000000
    107939     20168  TIP3      H2            -33.6707759934       25.0575472751      -40.5992730069  TIP3      18808           0.0000000000
    107940     20169  TIP3      OH2           -34.6448266061       23.5908869773      -27.6084147629  TIP3      18809           0.0000000000
    107941     20169  TIP3      H1            -35.3323194612       24.2487152025      -27.4002308452  TIP3      18809           0.0000000000
    107942     20169  TIP3      H2            -34.3265568108       23.9099449078      -28.4687911068  TIP3      18809           0.0000000000
    107943     20170  TIP3      OH2           -32.8962381325       24.0327271754      -41.7490750793  TIP3      18810           0.0000000000
    107944     20170  TIP3      H1            -33.0255312990       23.7901136433      -42.6804914710  TIP3      18810           0.0000000000
    107945     20170  TIP3      H2            -31.9198570591       24.0159081821      -41.6448328283  TIP3      18810           0.0000000000
    107946     20171  TIP3      OH2           -29.6451954000       26.1370740501      -24.2954675996  TIP3      18811           0.0000000000
    107947     20171  TIP3      H1            -28.6924849930       26.1029124841      -24.4504689088  TIP3      18811           0.0000000000
    107948     20171  TIP3      H2            -29.8121219319       25.3610316537      -23.7371180337  TIP3      18811           0.0000000000
    107949     20172  TIP3      OH2           -23.5588042098       26.3098342096      -42.3066228386  TIP3      18812           0.0000000000
    107950     20172  TIP3      H1            -23.7889994125       25.9025034664      -43.1443370605  TIP3      18812           0.0000000000
    107951     20172  TIP3      H2            -23.4626402164       27.2460322295      -42.5342602077  TIP3      18812           0.0000000000
    107952     20173  TIP3      OH2           -34.2564557654       20.9460851073      -26.5990261493  TIP3      18813           0.0000000000
    107953     20173  TIP3      H1            -34.2006766298       20.2247975085      -27.2490920153  TIP3      18813           0.0000000000
    107954     20173  TIP3      H2            -34.3876943749       21.7417541075      -27.1542327965  TIP3      18813           0.0000000000
    107955     20174  TIP3      OH2           -33.8977898838       19.3022190345      -29.0510459051  TIP3      18814           0.0000000000
    107956     20174  TIP3      H1            -33.3872377593       19.7766702856      -29.7512243933  TIP3      18814           0.0000000000
    107957     20174  TIP3      H2            -34.7929093998       19.2295948034      -29.4540890885  TIP3      18814           0.0000000000
    107958     20175  TIP3      OH2           -32.3620336294       24.7872523760      -28.8100706198  TIP3      18815           0.0000000000
    107959     20175  TIP3      H1            -31.6191534617       24.6196012982      -29.3914536889  TIP3      18815           0.0000000000
    107960     20175  TIP3      H2            -32.7218073224       25.6293555177      -29.1296914039  TIP3      18815           0.0000000000
    107961     20176  TIP3      OH2           -27.9696735539       22.5287980494      -23.7726657696  TIP3      18816           0.0000000000
    107962     20176  TIP3      H1            -27.7366278166       21.6064873503      -23.9424870464  TIP3      18816           0.0000000000
    107963     20176  TIP3      H2            -27.1129473833       22.9909343572      -23.8441183014  TIP3      18816           0.0000000000
    107964     20177  TIP3      OH2           -26.6170775622       25.3371308509      -25.6930162386  TIP3      18817           0.0000000000
    107965     20177  TIP3      H1            -26.8708086759       26.0654163634      -26.3033764808  TIP3      18817           0.0000000000
    107966     20177  TIP3      H2            -25.6552974094       25.3108586672      -25.8796810492  TIP3      18817           0.0000000000
    107967     20178  TIP3      OH2           -35.8644057080       22.1789520861      -24.6478229874  TIP3      18818           0.0000000000
    107968     20178  TIP3      H1            -36.6360228302       21.6135954883      -24.8570926369  TIP3      18818           0.0000000000
    107969     20178  TIP3      H2            -35.2137278706       21.8405285495      -25.2908996122  TIP3      18818           0.0000000000
    107970     20179  TIP3      OH2           -33.1162681423       16.7452851635      -28.6385462644  TIP3      18819           0.0000000000
    107971     20179  TIP3      H1            -33.2899547482       17.7101139913      -28.7497642870  TIP3      18819           0.0000000000
    107972     20179  TIP3      H2            -33.8452137355       16.3879815237      -29.1690536099  TIP3      18819           0.0000000000
    107973     20180  TIP3      OH2           -31.8335787117       21.0369614230      -25.0608304271  TIP3      18820           0.0000000000
    107974     20180  TIP3      H1            -32.1660454612       20.8639754256      -24.1609962782  TIP3      18820           0.0000000000
    107975     20180  TIP3      H2            -32.6527899312       20.8827026659      -25.5761794855  TIP3      18820           0.0000000000
    107976     20181  TIP3      OH2           -29.1257317402       20.2182005657      -25.9383605150  TIP3      18821           0.0000000000
    107977     20181  TIP3      H1            -30.0915970459       20.2591692109      -25.8240688256  TIP3      18821           0.0000000000
    107978     20181  TIP3      H2            -28.8633090420       19.5623156845      -25.2710610901  TIP3      18821           0.0000000000
    107979     20182  TIP3      OH2           -27.4831096949       18.8391098002      -23.9971814992  TIP3      18822           0.0000000000
    107980     20182  TIP3      H1            -27.6261136045       17.8672116467      -24.0329607849  TIP3      18822           0.0000000000
    107981     20182  TIP3      H2            -27.8229645342       19.1157708338      -23.1255999605  TIP3      18822           0.0000000000
    107982     20183  TIP3      OH2           -37.7054888958       20.0968639716      -24.9151042138  TIP3      18823           0.0000000000
    107983     20183  TIP3      H1            -37.4904093369       19.3779621527      -25.5298298794  TIP3      18823           0.0000000000
    107984     20183  TIP3      H2            -37.8088545193       19.6432673226      -24.0541310191  TIP3      18823           0.0000000000
    107985     20184  TIP3      OH2           -32.9474447390       16.0905228265      -25.9488394166  TIP3      18824           0.0000000000
    107986     20184  TIP3      H1            -32.2432069161       15.4067894223      -25.9540376040  TIP3      18824           0.0000000000
    107987     20184  TIP3      H2            -32.9933965564       16.2866683751      -26.9032986396  TIP3      18824           0.0000000000
    107988     20185  TIP3      OH2           -32.5556789447       17.7497437688      -23.8945063034  TIP3      18825           0.0000000000
    107989     20185  TIP3      H1            -32.7131241374       17.2359381393      -24.7155399399  TIP3      18825           0.0000000000
    107990     20185  TIP3      H2            -33.1384794200       18.5244724426      -23.9508714840  TIP3      18825           0.0000000000
    107991     20186  TIP3      OH2           -33.0556445390       34.6987270520      -40.6631668266  TIP3      18826           0.0000000000
    107992     20186  TIP3      H1            -32.0806208078       34.7424813667      -40.6205632608  TIP3      18826           0.0000000000
    107993     20186  TIP3      H2            -33.2366371800       35.2858086539      -41.3952058282  TIP3      18826           0.0000000000
    107994     20187  TIP3      OH2           -39.4282234645       29.2474001804      -41.1639274699  TIP3      18827           0.0000000000
    107995     20187  TIP3      H1            -38.4751010190       29.3554180427      -40.9627516997  TIP3      18827           0.0000000000
    107996     20187  TIP3      H2            -39.3770424672       28.6733762134      -41.9281328325  TIP3      18827           0.0000000000
    107997     20188  TIP3      OH2            40.7179932967       34.6613152797      -36.2843989615  TIP3      18828           0.0000000000
    107998     20188  TIP3      H1             39.9550739962       34.1656158137      -36.6084640504  TIP3      18828           0.0000000000
    107999     20188  TIP3      H2             40.9770622300       34.0591273863      -35.5538409107  TIP3      18828           0.0000000000
    108000     20189  TIP3      OH2           -39.8799292751       32.7776385639      -34.3941189098  TIP3      18829           0.0000000000
    108001     20189  TIP3      H1            -40.2394788280       31.8889399516      -34.2112531929  TIP3      18829           0.0000000000
    108002     20189  TIP3      H2            -39.6355318635       33.1151061345      -33.5081276807  TIP3      18829           0.0000000000
    108003     20190  TIP3      OH2           -22.3729157138       33.5547460939      -31.4248400262  TIP3      18830           0.0000000000
    108004     20190  TIP3      H1            -22.3424478916       33.7162188107      -30.4655715578  TIP3      18830           0.0000000000
    108005     20190  TIP3      H2            -21.6664666383       34.1340236245      -31.7287393760  TIP3      18830           0.0000000000
    108006     20191  TIP3      OH2           -22.7786767582       33.1464988737      -28.4834008620  TIP3      18831           0.0000000000
    108007     20191  TIP3      H1            -23.2725409397       32.3835938120      -28.8526508551  TIP3      18831           0.0000000000
    108008     20191  TIP3      H2            -22.3053385600       32.6947076020      -27.7618232522  TIP3      18831           0.0000000000
    108009     20192  TIP3      OH2           -24.3561661464       28.8678697712      -23.8032785940  TIP3      18832           0.0000000000
    108010     20192  TIP3      H1            -25.2488512253       28.8382617479      -23.4058533380  TIP3      18832           0.0000000000
    108011     20192  TIP3      H2            -23.9702706137       29.6652608592      -23.3787719510  TIP3      18832           0.0000000000
    108012     20193  TIP3      OH2           -23.0350297167       27.1911943520      -38.3824027876  TIP3      18833           0.0000000000
    108013     20193  TIP3      H1            -22.1743711577       27.5944962088      -38.1887841298  TIP3      18833           0.0000000000
    108014     20193  TIP3      H2            -23.0512250402       26.4763422624      -37.7089422917  TIP3      18833           0.0000000000
    108015     20194  TIP3      OH2           -22.6758230885       25.2750163556      -36.4914145465  TIP3      18834           0.0000000000
    108016     20194  TIP3      H1            -23.4259077388       24.7654077432      -36.1089516374  TIP3      18834           0.0000000000
    108017     20194  TIP3      H2            -22.0794894486       25.4077934222      -35.7273281481  TIP3      18834           0.0000000000
    108018     20195  TIP3      OH2           -22.9196759012       27.9694368501      -31.5115613989  TIP3      18835           0.0000000000
    108019     20195  TIP3      H1            -22.1009609341       27.5963351232      -31.8837655062  TIP3      18835           0.0000000000
    108020     20195  TIP3      H2            -22.7750534447       28.9249275632      -31.6793545711  TIP3      18835           0.0000000000
    108021     20196  TIP3      OH2           -24.3651347893       30.8852571451      -29.2395310620  TIP3      18836           0.0000000000
    108022     20196  TIP3      H1            -25.0549494402       31.2215111489      -28.6426500464  TIP3      18836           0.0000000000
    108023     20196  TIP3      H2            -24.9127812172       30.4726700830      -29.9419813594  TIP3      18836           0.0000000000
    108024     20197  TIP3      OH2           -22.3750162896       25.1123051171      -40.1218254494  TIP3      18837           0.0000000000
    108025     20197  TIP3      H1            -22.9496401670       25.4603236121      -40.8343075036  TIP3      18837           0.0000000000
    108026     20197  TIP3      H2            -22.4698295732       25.8088827755      -39.4457526757  TIP3      18837           0.0000000000
    108027     20198  TIP3      OH2           -24.0408853089       22.3135741763      -41.5418018349  TIP3      18838           0.0000000000
    108028     20198  TIP3      H1            -23.9353180454       22.9734340551      -42.2363761441  TIP3      18838           0.0000000000
    108029     20198  TIP3      H2            -24.1897715561       21.4963974898      -42.0632340080  TIP3      18838           0.0000000000
    108030     20199  TIP3      OH2           -24.8561407658       23.7491944086      -35.9249255069  TIP3      18839           0.0000000000
    108031     20199  TIP3      H1            -25.0038574348       22.7935032756      -35.9623131567  TIP3      18839           0.0000000000
    108032     20199  TIP3      H2            -25.1923458363       23.9690181067      -35.0380465582  TIP3      18839           0.0000000000
    108033     20200  TIP3      OH2           -39.9003040890       25.8095065928      -31.9309988088  TIP3      18840           0.0000000000
    108034     20200  TIP3      H1            -39.6134028506       25.7589017761      -32.8613585562  TIP3      18840           0.0000000000
    108035     20200  TIP3      H2            -39.0418780420       25.6736458469      -31.4695015101  TIP3      18840           0.0000000000
    108036     20201  TIP3      OH2           -23.9912576822       25.7142649900      -26.2462558119  TIP3      18841           0.0000000000
    108037     20201  TIP3      H1            -23.3833845396       24.9588840482      -26.0921464609  TIP3      18841           0.0000000000
    108038     20201  TIP3      H2            -23.3923865571       26.4908236449      -26.2298509854  TIP3      18841           0.0000000000
    108039     20202  TIP3      OH2           -22.4985627152       23.6145223520      -25.6227663406  TIP3      18842           0.0000000000
    108040     20202  TIP3      H1            -23.3763376691       23.1996665055      -25.7534096567  TIP3      18842           0.0000000000
    108041     20202  TIP3      H2            -21.9168199064       22.8352462834      -25.6587484389  TIP3      18842           0.0000000000
    108042     20203  TIP3      OH2           -24.7747075343       19.8230802617      -42.4045349836  TIP3      18843           0.0000000000
    108043     20203  TIP3      H1            -24.1735560780       19.3393508736      -41.8045829822  TIP3      18843           0.0000000000
    108044     20203  TIP3      H2            -25.6314442646       19.3812632894      -42.2844259224  TIP3      18843           0.0000000000
    108045     20204  TIP3      OH2           -25.1898277983       21.3287406866      -37.4471440151  TIP3      18844           0.0000000000
    108046     20204  TIP3      H1            -24.8885158274       20.3971880249      -37.3339304473  TIP3      18844           0.0000000000
    108047     20204  TIP3      H2            -24.4020419876       21.7275497865      -37.8404142650  TIP3      18844           0.0000000000
    108048     20205  TIP3      OH2           -24.5508793345       21.8753652781      -32.0224373278  TIP3      18845           0.0000000000
    108049     20205  TIP3      H1            -23.5905010914       22.1078412540      -32.0389614382  TIP3      18845           0.0000000000
    108050     20205  TIP3      H2            -24.7400150776       22.0164076478      -31.0826123862  TIP3      18845           0.0000000000
    108051     20206  TIP3      OH2           -24.4845585363       22.5978195404      -29.2389460157  TIP3      18846           0.0000000000
    108052     20206  TIP3      H1            -25.3657175718       22.8861938422      -28.9149348219  TIP3      18846           0.0000000000
    108053     20206  TIP3      H2            -24.0519814492       23.4569230103      -29.4623479871  TIP3      18846           0.0000000000
    108054     20207  TIP3      OH2           -40.1381179875       20.9758735999      -25.8455179744  TIP3      18847           0.0000000000
    108055     20207  TIP3      H1            -39.2137285005       20.8735800013      -25.5515052775  TIP3      18847           0.0000000000
    108056     20207  TIP3      H2            -40.6223844450       20.2673292772      -25.4141203148  TIP3      18847           0.0000000000
    108057     20208  TIP3      OH2           -22.2576790643       16.6310054992      -23.9096629175  TIP3      18848           0.0000000000
    108058     20208  TIP3      H1            -21.8816550611       15.9764602609      -24.5172665308  TIP3      18848           0.0000000000
    108059     20208  TIP3      H2            -22.0908468343       17.4734992338      -24.3715802610  TIP3      18848           0.0000000000
    108060     20209  TIP3      OH2           -24.5204707858       18.6050459033      -37.4215981248  TIP3      18849           0.0000000000
    108061     20209  TIP3      H1            -24.3106704445       18.1714075954      -36.5658074073  TIP3      18849           0.0000000000
    108062     20209  TIP3      H2            -25.1282499047       17.9755753688      -37.8643770897  TIP3      18849           0.0000000000
    108063     20210  TIP3      OH2           -39.0457099384       19.3968501167      -32.8943135133  TIP3      18850           0.0000000000
    108064     20210  TIP3      H1            -38.5782069575       18.5947895143      -32.5929858251  TIP3      18850           0.0000000000
    108065     20210  TIP3      H2            -38.5365417100       20.0982387642      -32.4661571178  TIP3      18850           0.0000000000
    108066     20211  TIP3      OH2           -40.7315006292       22.8582988808      -32.5635912618  TIP3      18851           0.0000000000
    108067     20211  TIP3      H1            -40.0839339522       22.1426411059      -32.7557702667  TIP3      18851           0.0000000000
    108068     20211  TIP3      H2            -40.2379509717       23.1461929469      -31.7643445384  TIP3      18851           0.0000000000
    108069     20212  TIP3      OH2           -22.7005962222       18.7396471587      -25.5339998908  TIP3      18852           0.0000000000
    108070     20212  TIP3      H1            -23.6270079619       19.0329196860      -25.6172781712  TIP3      18852           0.0000000000
    108071     20212  TIP3      H2            -22.6456527780       18.2118413597      -26.3461896199  TIP3      18852           0.0000000000
    108072     20213  TIP3      OH2           -22.6983154170       18.6708313357      -40.8827735238  TIP3      18853           0.0000000000
    108073     20213  TIP3      H1            -22.2613025895       17.9493401799      -41.3565682605  TIP3      18853           0.0000000000
    108074     20213  TIP3      H2            -21.9797337879       19.3234018163      -40.8171621200  TIP3      18853           0.0000000000
    108075     20214  TIP3      OH2           -40.2231257837       18.5676800447      -37.7600510384  TIP3      18854           0.0000000000
    108076     20214  TIP3      H1            -41.1611473723       18.7496285009      -37.9907428376  TIP3      18854           0.0000000000
    108077     20214  TIP3      H2            -39.7917548811       19.2098633935      -38.3405133802  TIP3      18854           0.0000000000
    108078     20215  TIP3      OH2           -25.6476591432       33.6245917836      -35.8030470962  TIP3      18855           0.0000000000
    108079     20215  TIP3      H1            -24.9614733033       33.3191765683      -36.4209487694  TIP3      18855           0.0000000000
    108080     20215  TIP3      H2            -25.1310622372       34.1318212207      -35.1565078118  TIP3      18855           0.0000000000
    108081     20216  TIP3      OH2            41.0714183744       17.5388188079      -29.2760363841  TIP3      18856           0.0000000000
    108082     20216  TIP3      H1             40.3478332627       17.1578096996      -28.7815188506  TIP3      18856           0.0000000000
    108083     20216  TIP3      H2             40.5559936300       18.0552060642      -29.9204891324  TIP3      18856           0.0000000000
    108084     20217  TIP3      OH2           -38.2423441874       30.5795254386      -25.2472535919  TIP3      18857           0.0000000000
    108085     20217  TIP3      H1            -39.0783845549       30.7453023293      -25.7087545839  TIP3      18857           0.0000000000
    108086     20217  TIP3      H2            -38.5277992688       30.4952795770      -24.3346530666  TIP3      18857           0.0000000000
    108087     20218  TIP3      OH2           -35.3003599672       31.5437626780      -29.0117733264  TIP3      18858           0.0000000000
    108088     20218  TIP3      H1            -35.6616471931       32.4016302117      -29.2847956393  TIP3      18858           0.0000000000
    108089     20218  TIP3      H2            -34.3746458339       31.6401619684      -29.3211925175  TIP3      18858           0.0000000000
    108090     20219  TIP3      OH2           -30.9773709728       32.9595997478      -26.1283180234  TIP3      18859           0.0000000000
    108091     20219  TIP3      H1            -30.8346437328       32.6346615093      -25.2021449745  TIP3      18859           0.0000000000
    108092     20219  TIP3      H2            -30.0745870091       33.2640329480      -26.3530824915  TIP3      18859           0.0000000000
    108093     20220  TIP3      OH2           -28.6939383204       34.2198879392      -26.7755961986  TIP3      18860           0.0000000000
    108094     20220  TIP3      H1            -27.9595111001       33.6474422391      -27.0541575678  TIP3      18860           0.0000000000
    108095     20220  TIP3      H2            -28.2956980930       34.6603745965      -26.0196241872  TIP3      18860           0.0000000000
    108096     20221  TIP3      OH2           -23.6766691393       16.8499413590      -27.7071656460  TIP3      18861           0.0000000000
    108097     20221  TIP3      H1            -24.5061930023       17.1478625042      -28.1144609819  TIP3      18861           0.0000000000
    108098     20221  TIP3      H2            -23.5061731033       16.0279962030      -28.2231978355  TIP3      18861           0.0000000000
    108099     20222  TIP3      OH2           -37.8935582584       34.7396625066      -28.9983061965  TIP3      18862           0.0000000000
    108100     20222  TIP3      H1            -38.6061966958       35.2684890127      -29.4063653251  TIP3      18862           0.0000000000
    108101     20222  TIP3      H2            -38.2347890665       34.6004176742      -28.1038386995  TIP3      18862           0.0000000000
    108102     20223  TIP3      OH2           -35.4039021584       34.3509545708      -29.9384070350  TIP3      18863           0.0000000000
    108103     20223  TIP3      H1            -36.3000677881       34.5081199818      -29.5533873670  TIP3      18863           0.0000000000
    108104     20223  TIP3      H2            -35.4612789512       34.9430919279      -30.7154558361  TIP3      18863           0.0000000000
    108105     20224  TIP3      OH2           -30.6922493129       34.2740912394      -30.7668118097  TIP3      18864           0.0000000000
    108106     20224  TIP3      H1            -31.1525580105       34.8209586466      -31.4217759980  TIP3      18864           0.0000000000
    108107     20224  TIP3      H2            -30.5596998936       34.9227279841      -30.0388419037  TIP3      18864           0.0000000000
    108108     20225  TIP3      OH2           -28.4099253495       33.0925306950      -29.7332273214  TIP3      18865           0.0000000000
    108109     20225  TIP3      H1            -29.2648797933       33.3560031332      -30.1115095049  TIP3      18865           0.0000000000
    108110     20225  TIP3      H2            -27.9274870038       33.9289800469      -29.8516850128  TIP3      18865           0.0000000000
    108111     20226  TIP3      OH2           -25.8436078844       34.6648122225      -29.5178959535  TIP3      18866           0.0000000000
    108112     20226  TIP3      H1            -25.8973513149       35.6268864861      -29.7481744719  TIP3      18866           0.0000000000
    108113     20226  TIP3      H2            -25.6174093853       34.2886113699      -30.3904133109  TIP3      18866           0.0000000000
    108114     20227  TIP3      OH2           -38.4373808248       33.4052820436      -32.0921276062  TIP3      18867           0.0000000000
    108115     20227  TIP3      H1            -38.4545750362       32.9828037732      -31.2159230176  TIP3      18867           0.0000000000
    108116     20227  TIP3      H2            -37.6032004469       33.0739962957      -32.4781757372  TIP3      18867           0.0000000000
    108117     20228  TIP3      OH2           -36.3610388976       32.1418853524      -33.4096691220  TIP3      18868           0.0000000000
    108118     20228  TIP3      H1            -36.5124481626       31.2005920655      -33.2002200693  TIP3      18868           0.0000000000
    108119     20228  TIP3      H2            -35.5007461728       32.2960428056      -32.9628659431  TIP3      18868           0.0000000000
    108120     20229  TIP3      OH2           -33.7470917537       32.6211167482      -32.5431145619  TIP3      18869           0.0000000000
    108121     20229  TIP3      H1            -33.5821868686       31.7023968992      -32.8107820073  TIP3      18869           0.0000000000
    108122     20229  TIP3      H2            -33.7066415263       32.5493947106      -31.5765866564  TIP3      18869           0.0000000000
    108123     20230  TIP3      OH2           -30.2813524783       18.2770714535      -33.4064248368  TIP3      18870           0.0000000000
    108124     20230  TIP3      H1            -30.9573971519       17.6353450107      -33.1303980415  TIP3      18870           0.0000000000
    108125     20230  TIP3      H2            -29.7294831510       17.7453219161      -33.9920071465  TIP3      18870           0.0000000000
    108126     20231  TIP3      OH2           -25.1443310084       16.3237033394      -33.3352042161  TIP3      18871           0.0000000000
    108127     20231  TIP3      H1            -24.5325729975       16.9155141761      -33.8443497466  TIP3      18871           0.0000000000
    108128     20231  TIP3      H2            -26.0252694688       16.6849633276      -33.5696419929  TIP3      18871           0.0000000000
    108129     20232  TIP3      OH2           -23.4755142657       17.5680988066      -35.0640016364  TIP3      18872           0.0000000000
    108130     20232  TIP3      H1            -22.7912736867       16.9938759351      -35.4807180412  TIP3      18872           0.0000000000
    108131     20232  TIP3      H2            -22.9725214723       18.4080841758      -34.9595807954  TIP3      18872           0.0000000000
    108132     20233  TIP3      OH2           -37.9168035377       16.8900796662      -35.5712272156  TIP3      18873           0.0000000000
    108133     20233  TIP3      H1            -38.7293256410       16.6803602655      -36.0702666608  TIP3      18873           0.0000000000
    108134     20233  TIP3      H2            -37.4326481998       16.0438907979      -35.6223979473  TIP3      18873           0.0000000000
    108135     20234  TIP3      OH2           -39.1152808903       16.6450777525      -39.8397113877  TIP3      18874           0.0000000000
    108136     20234  TIP3      H1            -38.6710639035       17.3302081217      -40.3531377420  TIP3      18874           0.0000000000
    108137     20234  TIP3      H2            -39.7341497857       17.1408689662      -39.2777737623  TIP3      18874           0.0000000000
    108138     20235  TIP3      OH2           -33.4346984034       16.8288569139      -35.7744357740  TIP3      18875           0.0000000000
    108139     20235  TIP3      H1            -32.5338895947       17.1889652345      -35.8447173487  TIP3      18875           0.0000000000
    108140     20235  TIP3      H2            -33.4747376715       16.6110807970      -34.8439086071  TIP3      18875           0.0000000000
    108141     20236  TIP3      OH2           -27.7309659255       16.8460054544      -34.1470967632  TIP3      18876           0.0000000000
    108142     20236  TIP3      H1            -27.7731966480       16.9592823322      -35.1049352777  TIP3      18876           0.0000000000
    108143     20236  TIP3      H2            -28.1063997238       15.9392931169      -34.0248698182  TIP3      18876           0.0000000000
    108144     20237  TIP3      OH2           -26.4536207546       16.8770293578      -38.4898057251  TIP3      18877           0.0000000000
    108145     20237  TIP3      H1            -27.1992702583       17.4748397244      -38.6439286785  TIP3      18877           0.0000000000
    108146     20237  TIP3      H2            -26.8887956638       16.0266685673      -38.2527464013  TIP3      18877           0.0000000000
    108147     20238  TIP3      OH2           -39.2463349639       32.6253813041      -38.7908421451  TIP3      18878           0.0000000000
    108148     20238  TIP3      H1            -39.8456517848       32.5974203558      -39.5455340370  TIP3      18878           0.0000000000
    108149     20238  TIP3      H2            -39.1557386285       33.5776677596      -38.6720202118  TIP3      18878           0.0000000000
    108150     20239  TIP3      OH2           -37.3214367086       18.5764684838      -41.3057621485  TIP3      18879           0.0000000000
    108151     20239  TIP3      H1            -36.6540447541       18.0733383390      -41.7266336106  TIP3      18879           0.0000000000
    108152     20239  TIP3      H2            -36.7066527764       18.9910902164      -40.6633692501  TIP3      18879           0.0000000000
    108153     20240  TIP3      OH2           -32.2821563023       18.8526880279      -38.9180978169  TIP3      18880           0.0000000000
    108154     20240  TIP3      H1            -32.0298937126       18.2703269411      -38.1828524682  TIP3      18880           0.0000000000
    108155     20240  TIP3      H2            -32.2196729761       19.7131844741      -38.4460386741  TIP3      18880           0.0000000000
    108156     20241  TIP3      OH2           -30.3722855326       33.9482747283      -40.5138613207  TIP3      18881           0.0000000000
    108157     20241  TIP3      H1            -29.4274038488       34.1283807311      -40.6718159152  TIP3      18881           0.0000000000
    108158     20241  TIP3      H2            -30.5588317863       33.3798765489      -41.2947394086  TIP3      18881           0.0000000000
    108159     20242  TIP3      OH2           -23.6475335227       33.4232975262      -37.7633754323  TIP3      18882           0.0000000000
    108160     20242  TIP3      H1            -23.8551817477       32.6452766546      -38.3383906399  TIP3      18882           0.0000000000
    108161     20242  TIP3      H2            -23.7380738010       34.1573519572      -38.4006088732  TIP3      18882           0.0000000000
    108162     20243  TIP3      OH2           -38.0672829896       17.4187526708      -26.1110867453  TIP3      18883           0.0000000000
    108163     20243  TIP3      H1            -38.4221946385       16.6558886467      -25.6395033618  TIP3      18883           0.0000000000
    108164     20243  TIP3      H2            -37.1443552164       17.4435377311      -25.7463886135  TIP3      18883           0.0000000000
    108165     20244  TIP3      OH2           -36.0381571915       16.7851060162      -24.5381409834  TIP3      18884           0.0000000000
    108166     20244  TIP3      H1            -35.1139571708       16.5057677482      -24.6888590744  TIP3      18884           0.0000000000
    108167     20244  TIP3      H2            -36.3511920891       16.0323560115      -24.0160904847  TIP3      18884           0.0000000000
    108168     20245  TIP3      OH2           -37.3631839263       33.6147318568      -41.8663209501  TIP3      18885           0.0000000000
    108169     20245  TIP3      H1            -37.6875732258       33.8778129070      -40.9989685864  TIP3      18885           0.0000000000
    108170     20245  TIP3      H2            -36.6476050172       33.0135263583      -41.6761259180  TIP3      18885           0.0000000000
    108171     20246  TIP3      OH2           -27.5968357893       16.1437336308      -24.3179116339  TIP3      18886           0.0000000000
    108172     20246  TIP3      H1            -27.5568748715       15.6406053108      -23.4810541328  TIP3      18886           0.0000000000
    108173     20246  TIP3      H2            -26.6969538825       16.0711061948      -24.6933059907  TIP3      18886           0.0000000000
    108174     20247  TIP3      OH2           -24.4162474018       32.1572480198      -25.6719404676  TIP3      18887           0.0000000000
    108175     20247  TIP3      H1            -25.2163135235       32.0097120200      -26.2196638056  TIP3      18887           0.0000000000
    108176     20247  TIP3      H2            -24.5291913064       33.1046129057      -25.4717548446  TIP3      18887           0.0000000000
    108177     20248  TIP3      OH2            -9.9690762665       26.0508608320      -35.6861367071  TIP3      18888           0.0000000000
    108178     20248  TIP3      H1             -9.9751770243       27.0268925612      -35.7413865072  TIP3      18888           0.0000000000
    108179     20248  TIP3      H2            -10.6875768729       25.8102841155      -36.2959553696  TIP3      18888           0.0000000000
    108180     20249  TIP3      OH2           -11.1140588116       25.2983153800      -32.1981941509  TIP3      18889           0.0000000000
    108181     20249  TIP3      H1            -11.1266789916       24.6465528944      -31.4844261655  TIP3      18889           0.0000000000
    108182     20249  TIP3      H2            -11.4543253857       24.7952983957      -32.9567130328  TIP3      18889           0.0000000000
    108183     20250  TIP3      OH2           -18.7574131408       24.9705201956      -30.6490831098  TIP3      18890           0.0000000000
    108184     20250  TIP3      H1            -18.6747478748       24.2872895485      -29.9504963942  TIP3      18890           0.0000000000
    108185     20250  TIP3      H2            -18.0104250428       25.5445013955      -30.4261533681  TIP3      18890           0.0000000000
    108186     20251  TIP3      OH2            -7.4239066580       28.2439670493      -33.9141485360  TIP3      18891           0.0000000000
    108187     20251  TIP3      H1             -7.8398146700       27.5272762024      -33.4242733638  TIP3      18891           0.0000000000
    108188     20251  TIP3      H2             -7.4024426925       28.9542704125      -33.2462506681  TIP3      18891           0.0000000000
    108189     20252  TIP3      OH2           -17.8306810421       29.4217177938      -32.1465381125  TIP3      18892           0.0000000000
    108190     20252  TIP3      H1            -18.1448685170       28.5533620071      -32.4653979818  TIP3      18892           0.0000000000
    108191     20252  TIP3      H2            -16.8759756716       29.2341972974      -32.0961233365  TIP3      18892           0.0000000000
    108192     20253  TIP3      OH2           -21.1911349687       22.9814969937      -36.6588017175  TIP3      18893           0.0000000000
    108193     20253  TIP3      H1            -21.6311356097       23.8501660531      -36.7215157030  TIP3      18893           0.0000000000
    108194     20253  TIP3      H2            -21.7555240869       22.4394749746      -37.2262625740  TIP3      18893           0.0000000000
    108195     20254  TIP3      OH2           -20.4826073111       25.2046919374      -34.5150179107  TIP3      18894           0.0000000000
    108196     20254  TIP3      H1            -20.2133834848       24.3843368286      -34.0620326057  TIP3      18894           0.0000000000
    108197     20254  TIP3      H2            -19.7824606435       25.3074664519      -35.1772210089  TIP3      18894           0.0000000000
    108198     20255  TIP3      OH2           -10.3001143553       33.4044011664      -33.6790767364  TIP3      18895           0.0000000000
    108199     20255  TIP3      H1             -9.6559211215       32.7105834808      -33.9647385366  TIP3      18895           0.0000000000
    108200     20255  TIP3      H2            -10.5160188742       33.0743806055      -32.8076156085  TIP3      18895           0.0000000000
    108201     20256  TIP3      OH2           -12.7354909610       27.6991557503      -31.7361307294  TIP3      18896           0.0000000000
    108202     20256  TIP3      H1            -12.3962378694       27.0689680417      -32.3898668631  TIP3      18896           0.0000000000
    108203     20256  TIP3      H2            -11.9295231204       27.8552656214      -31.2136463678  TIP3      18896           0.0000000000
    108204     20257  TIP3      OH2            -4.1366257588       19.3586835450      -30.9996233466  TIP3      18897           0.0000000000
    108205     20257  TIP3      H1             -3.9626784706       19.9487614879      -30.2355609827  TIP3      18897           0.0000000000
    108206     20257  TIP3      H2             -3.5738281605       19.7807636163      -31.6647516066  TIP3      18897           0.0000000000
    108207     20258  TIP3      OH2            -9.5693680475       22.1674273937      -31.4189543248  TIP3      18898           0.0000000000
    108208     20258  TIP3      H1             -9.4041982604       21.2077567134      -31.4165611369  TIP3      18898           0.0000000000
    108209     20258  TIP3      H2             -9.6718667365       22.3091451793      -32.3800833752  TIP3      18898           0.0000000000
    108210     20259  TIP3      OH2           -16.4530904611       20.2547088227      -34.1991138891  TIP3      18899           0.0000000000
    108211     20259  TIP3      H1            -16.3493184063       21.0910802009      -34.6894155996  TIP3      18899           0.0000000000
    108212     20259  TIP3      H2            -16.8540252350       19.6819457589      -34.8884209542  TIP3      18899           0.0000000000
    108213     20260  TIP3      OH2            -8.7175165278       20.3358210418      -35.8266615898  TIP3      18900           0.0000000000
    108214     20260  TIP3      H1             -8.0615805879       20.0220220043      -35.1618303463  TIP3      18900           0.0000000000
    108215     20260  TIP3      H2             -8.1563083515       20.9068736283      -36.3726115292  TIP3      18900           0.0000000000
    108216     20261  TIP3      OH2           -19.8286133896       22.6643016385      -33.4645285859  TIP3      18901           0.0000000000
    108217     20261  TIP3      H1            -19.1580659908       22.1173448895      -33.0132089263  TIP3      18901           0.0000000000
    108218     20261  TIP3      H2            -19.7279460319       22.3516421487      -34.3766645541  TIP3      18901           0.0000000000
    108219     20262  TIP3      OH2           -14.6709834345       24.2208131705      -34.1514231404  TIP3      18902           0.0000000000
    108220     20262  TIP3      H1            -14.0019589595       23.6402366861      -33.7506124284  TIP3      18902           0.0000000000
    108221     20262  TIP3      H2            -15.1899436049       23.5597651234      -34.6515431578  TIP3      18902           0.0000000000
    108222     20263  TIP3      OH2            -3.6554998651       20.7723286143      -28.7169670478  TIP3      18903           0.0000000000
    108223     20263  TIP3      H1             -4.2923756633       21.5148698912      -28.8322980259  TIP3      18903           0.0000000000
    108224     20263  TIP3      H2             -3.6697001206       20.6489598043      -27.7563460920  TIP3      18903           0.0000000000
    108225     20264  TIP3      OH2           -17.5490097550       19.1541447400      -30.1591715250  TIP3      18904           0.0000000000
    108226     20264  TIP3      H1            -17.8286702884       19.7232781294      -30.9066087011  TIP3      18904           0.0000000000
    108227     20264  TIP3      H2            -18.2281482856       19.3843079784      -29.4788613316  TIP3      18904           0.0000000000
    108228     20265  TIP3      OH2           -10.2568497687       28.6421584126      -36.6171194956  TIP3      18905           0.0000000000
    108229     20265  TIP3      H1            -10.5330551556       28.3503175246      -37.4972399068  TIP3      18905           0.0000000000
    108230     20265  TIP3      H2            -10.5591696044       29.5808609595      -36.5780982447  TIP3      18905           0.0000000000
    108231     20266  TIP3      OH2           -15.0319251452       26.8013675574      -29.9183860048  TIP3      18906           0.0000000000
    108232     20266  TIP3      H1            -15.7402355440       27.4435997277      -29.7044582201  TIP3      18906           0.0000000000
    108233     20266  TIP3      H2            -14.3234249848       27.3978447441      -30.2058325031  TIP3      18906           0.0000000000
    108234     20267  TIP3      OH2            -6.9079581074       19.6800215821      -33.8375497488  TIP3      18907           0.0000000000
    108235     20267  TIP3      H1             -7.1270084149       18.9116291815      -33.3028157018  TIP3      18907           0.0000000000
    108236     20267  TIP3      H2             -6.2381779283       20.1195411875      -33.2867866052  TIP3      18907           0.0000000000
    108237     20268  TIP3      OH2           -17.9820985659       21.0127663003      -32.1326469307  TIP3      18908           0.0000000000
    108238     20268  TIP3      H1            -17.3521682051       21.6983352803      -31.8151606486  TIP3      18908           0.0000000000
    108239     20268  TIP3      H2            -17.4628489621       20.5999847348      -32.8693384058  TIP3      18908           0.0000000000
    108240     20269  TIP3      OH2           -16.5878826238       28.8042801546      -29.1040866095  TIP3      18909           0.0000000000
    108241     20269  TIP3      H1            -16.6359719510       29.7184228034      -29.4390202423  TIP3      18909           0.0000000000
    108242     20269  TIP3      H2            -17.4691754318       28.7233471117      -28.6579734523  TIP3      18909           0.0000000000
    108243     20270  TIP3      OH2           -20.5243957677       28.4156414752      -38.3087956603  TIP3      18910           0.0000000000
    108244     20270  TIP3      H1            -20.7369618835       28.7377263746      -39.2096532460  TIP3      18910           0.0000000000
    108245     20270  TIP3      H2            -20.4385123702       29.2526427187      -37.8058788359  TIP3      18910           0.0000000000
    108246     20271  TIP3      OH2            -6.8945301950       30.0836034145      -31.5494419308  TIP3      18911           0.0000000000
    108247     20271  TIP3      H1             -7.8626855957       30.1929076381      -31.4290364230  TIP3      18911           0.0000000000
    108248     20271  TIP3      H2             -6.6256551552       31.0005516994      -31.7492985177  TIP3      18911           0.0000000000
    108249     20272  TIP3      OH2            -6.5768456014       18.3678948795      -30.1581068048  TIP3      18912           0.0000000000
    108250     20272  TIP3      H1             -7.3007822719       19.0006150914      -30.2465507294  TIP3      18912           0.0000000000
    108251     20272  TIP3      H2             -5.8636078759       18.7862014923      -30.6834904053  TIP3      18912           0.0000000000
    108252     20273  TIP3      OH2           -13.6025782899       16.4870613625      -32.6940890211  TIP3      18913           0.0000000000
    108253     20273  TIP3      H1            -13.7412532092       15.5237032000      -32.7670338700  TIP3      18913           0.0000000000
    108254     20273  TIP3      H2            -14.4814203294       16.7925428932      -32.3906850135  TIP3      18913           0.0000000000
    108255     20274  TIP3      OH2            -8.6253028137       31.8598772777      -34.9361966059  TIP3      18914           0.0000000000
    108256     20274  TIP3      H1             -8.2077278606       31.1489365786      -35.4630847076  TIP3      18914           0.0000000000
    108257     20274  TIP3      H2             -8.2150380982       32.6536991695      -35.3440467458  TIP3      18914           0.0000000000
    108258     20275  TIP3      OH2            -7.3890861425       29.7921726886      -36.4690484338  TIP3      18915           0.0000000000
    108259     20275  TIP3      H1             -7.7245860844       29.0944980166      -37.0584889766  TIP3      18915           0.0000000000
    108260     20275  TIP3      H2             -7.3865265205       29.3162366670      -35.6159811265  TIP3      18915           0.0000000000
    108261     20276  TIP3      OH2            -5.7916858302       28.3926953274      -27.9550399309  TIP3      18916           0.0000000000
    108262     20276  TIP3      H1             -5.6580364002       27.7385264777      -28.6761394251  TIP3      18916           0.0000000000
    108263     20276  TIP3      H2             -5.6034831902       29.2390326613      -28.3941624897  TIP3      18916           0.0000000000
    108264     20277  TIP3      OH2           -11.3040803070       25.3023249710      -38.1621164006  TIP3      18917           0.0000000000
    108265     20277  TIP3      H1            -12.0117825134       25.8283868990      -38.5627065108  TIP3      18917           0.0000000000
    108266     20277  TIP3      H2            -10.6157498650       25.3459239764      -38.8587303064  TIP3      18917           0.0000000000
    108267     20278  TIP3      OH2           -11.0679018748       24.1109430905      -41.2196242159  TIP3      18918           0.0000000000
    108268     20278  TIP3      H1            -10.5304157076       23.8345826453      -40.4606722986  TIP3      18918           0.0000000000
    108269     20278  TIP3      H2            -11.0861065910       23.2157145546      -41.6383500906  TIP3      18918           0.0000000000
    108270     20279  TIP3      OH2            -3.9228385793       24.7015889271      -29.9021477903  TIP3      18919           0.0000000000
    108271     20279  TIP3      H1             -4.5832465831       25.4211383973      -29.8592329254  TIP3      18919           0.0000000000
    108272     20279  TIP3      H2             -3.4408296873       24.9399781539      -30.7128424207  TIP3      18919           0.0000000000
    108273     20280  TIP3      OH2            -7.8570855592       25.5089469723      -37.2471075098  TIP3      18920           0.0000000000
    108274     20280  TIP3      H1             -8.6138869387       25.7356550727      -36.6555498567  TIP3      18920           0.0000000000
    108275     20280  TIP3      H2             -7.3941769280       24.8151871095      -36.7473348206  TIP3      18920           0.0000000000
    108276     20281  TIP3      OH2            -7.9278102769       23.6619460870      -28.1487537091  TIP3      18921           0.0000000000
    108277     20281  TIP3      H1             -7.9290424327       24.4681358774      -27.6007267086  TIP3      18921           0.0000000000
    108278     20281  TIP3      H2             -8.5653283748       23.9524064213      -28.8314799125  TIP3      18921           0.0000000000
    108279     20282  TIP3      OH2           -16.2511629095       26.1514724647      -35.3497063617  TIP3      18922           0.0000000000
    108280     20282  TIP3      H1            -16.5732314813       25.7584850836      -36.1955927219  TIP3      18922           0.0000000000
    108281     20282  TIP3      H2            -15.6383461243       25.4575348224      -35.0133350964  TIP3      18922           0.0000000000
    108282     20283  TIP3      OH2           -14.9290418524       29.5369000835      -32.6669267727  TIP3      18923           0.0000000000
    108283     20283  TIP3      H1            -14.9402913090       29.0066694723      -33.4728084374  TIP3      18923           0.0000000000
    108284     20283  TIP3      H2            -14.1473939871       29.1782355308      -32.2076417048  TIP3      18923           0.0000000000
    108285     20284  TIP3      OH2           -15.9200488213       24.8956607160      -31.6878833374  TIP3      18924           0.0000000000
    108286     20284  TIP3      H1            -15.3680235425       24.9987726705      -32.4878476419  TIP3      18924           0.0000000000
    108287     20284  TIP3      H2            -15.5345856616       25.5603576736      -31.0756447751  TIP3      18924           0.0000000000
    108288     20285  TIP3      OH2            -9.5062417800       30.4652666339      -30.9813375137  TIP3      18925           0.0000000000
    108289     20285  TIP3      H1             -9.7967956867       31.1015062673      -30.3236868412  TIP3      18925           0.0000000000
    108290     20285  TIP3      H2             -9.7635970776       29.6114146280      -30.5584074976  TIP3      18925           0.0000000000
    108291     20286  TIP3      OH2           -14.9703236440       29.3145794734      -26.9782214017  TIP3      18926           0.0000000000
    108292     20286  TIP3      H1            -15.3668727280       30.0666470274      -26.4947768504  TIP3      18926           0.0000000000
    108293     20286  TIP3      H2            -15.6465119045       29.1271939260      -27.6746452895  TIP3      18926           0.0000000000
    108294     20287  TIP3      OH2            -8.9763087259       24.6937562586      -39.5634109568  TIP3      18927           0.0000000000
    108295     20287  TIP3      H1             -8.4123522487       24.8609881617      -38.7764585339  TIP3      18927           0.0000000000
    108296     20287  TIP3      H2             -8.5686720513       25.1897756012      -40.3126268085  TIP3      18927           0.0000000000
    108297     20288  TIP3      OH2           -18.0323271819       25.4961814343      -27.8382986122  TIP3      18928           0.0000000000
    108298     20288  TIP3      H1            -17.9761552946       26.1412763570      -27.1039384865  TIP3      18928           0.0000000000
    108299     20288  TIP3      H2            -18.9739212225       25.5827576936      -28.0529088032  TIP3      18928           0.0000000000
    108300     20289  TIP3      OH2           -11.2749652840       31.4135473318      -36.1286624172  TIP3      18929           0.0000000000
    108301     20289  TIP3      H1            -10.8342070053       31.7254590276      -35.3321258415  TIP3      18929           0.0000000000
    108302     20289  TIP3      H2            -11.8350912656       32.1616255980      -36.3639369421  TIP3      18929           0.0000000000
    108303     20290  TIP3      OH2           -16.7228222670       31.3511946744      -26.2569211930  TIP3      18930           0.0000000000
    108304     20290  TIP3      H1            -16.7872940796       31.2548797322      -27.2201079321  TIP3      18930           0.0000000000
    108305     20290  TIP3      H2            -17.6526830969       31.2368479987      -25.9743830440  TIP3      18930           0.0000000000
    108306     20291  TIP3      OH2            -5.2697365511       16.4208493230      -39.6928876876  TIP3      18931           0.0000000000
    108307     20291  TIP3      H1             -6.2217829284       16.5328903585      -39.4589421582  TIP3      18931           0.0000000000
    108308     20291  TIP3      H2             -5.0612389942       17.2686886445      -40.1158777107  TIP3      18931           0.0000000000
    108309     20292  TIP3      OH2           -17.2877541575       25.1788997796      -37.7150306204  TIP3      18932           0.0000000000
    108310     20292  TIP3      H1            -17.5640420901       25.9510523853      -38.2539739585  TIP3      18932           0.0000000000
    108311     20292  TIP3      H2            -17.9308253247       24.5096732919      -37.9669152756  TIP3      18932           0.0000000000
    108312     20293  TIP3      OH2            -4.1080025410       30.9798325865      -41.3482727246  TIP3      18933           0.0000000000
    108313     20293  TIP3      H1             -3.9536136987       31.9230623283      -41.1896374929  TIP3      18933           0.0000000000
    108314     20293  TIP3      H2             -3.2342953054       30.5747038494      -41.5112195663  TIP3      18933           0.0000000000
    108315     20294  TIP3      OH2           -21.1962062732       27.5988618644      -28.8397552294  TIP3      18934           0.0000000000
    108316     20294  TIP3      H1            -21.6391468854       27.5198012736      -29.7032691392  TIP3      18934           0.0000000000
    108317     20294  TIP3      H2            -21.1178986051       26.6516610104      -28.6219998300  TIP3      18934           0.0000000000
    108318     20295  TIP3      OH2           -21.4287651452       30.3389070079      -32.0637454873  TIP3      18935           0.0000000000
    108319     20295  TIP3      H1            -20.4701755323       30.2215028556      -32.0763629761  TIP3      18935           0.0000000000
    108320     20295  TIP3      H2            -21.5144507168       31.1510187525      -31.5510998089  TIP3      18935           0.0000000000
    108321     20296  TIP3      OH2            -3.1881945438       31.0474971089      -26.3829549852  TIP3      18936           0.0000000000
    108322     20296  TIP3      H1             -3.3057639952       30.0861500151      -26.3885597977  TIP3      18936           0.0000000000
    108323     20296  TIP3      H2             -4.0602639678       31.2923771322      -25.9846910775  TIP3      18936           0.0000000000
    108324     20297  TIP3      OH2           -12.2380264755       30.5833893155      -27.5123185699  TIP3      18937           0.0000000000
    108325     20297  TIP3      H1            -12.1713553939       31.4122702901      -26.9826581374  TIP3      18937           0.0000000000
    108326     20297  TIP3      H2            -13.1051017658       30.2195374815      -27.2472622798  TIP3      18937           0.0000000000
    108327     20298  TIP3      OH2           -11.8210536006       34.3320678246      -37.7211848766  TIP3      18938           0.0000000000
    108328     20298  TIP3      H1            -11.8743932498       34.2592464682      -38.6882998193  TIP3      18938           0.0000000000
    108329     20298  TIP3      H2            -11.7725985552       35.2886284423      -37.5599897696  TIP3      18938           0.0000000000
    108330     20299  TIP3      OH2           -18.1551471443       33.1983851599      -35.8932798540  TIP3      18939           0.0000000000
    108331     20299  TIP3      H1            -18.0093169185       32.7859388295      -35.0110131050  TIP3      18939           0.0000000000
    108332     20299  TIP3      H2            -19.0060438750       32.7950719845      -36.1291412847  TIP3      18939           0.0000000000
    108333     20300  TIP3      OH2            -8.9838708006       33.3308147599      -40.7226566968  TIP3      18940           0.0000000000
    108334     20300  TIP3      H1             -8.2794019411       32.8064933363      -41.1798073164  TIP3      18940           0.0000000000
    108335     20300  TIP3      H2             -8.6737827063       33.2771792323      -39.8043952609  TIP3      18940           0.0000000000
    108336     20301  TIP3      OH2            -9.0498200364       33.4784849505      -37.9288720602  TIP3      18941           0.0000000000
    108337     20301  TIP3      H1            -10.0083294754       33.5372340768      -37.7718403628  TIP3      18941           0.0000000000
    108338     20301  TIP3      H2             -8.8011532739       32.7206614094      -37.3871341673  TIP3      18941           0.0000000000
    108339     20302  TIP3      OH2            -6.0463250775       22.5014107508      -25.9367418791  TIP3      18942           0.0000000000
    108340     20302  TIP3      H1             -6.5332672175       22.9557419685      -26.6393034846  TIP3      18942           0.0000000000
    108341     20302  TIP3      H2             -6.0393946552       21.5734059121      -26.2114178929  TIP3      18942           0.0000000000
    108342     20303  TIP3      OH2           -18.9105319344       28.9103968758      -27.9086986046  TIP3      18943           0.0000000000
    108343     20303  TIP3      H1            -18.6869978602       28.5518903718      -27.0196994735  TIP3      18943           0.0000000000
    108344     20303  TIP3      H2            -19.7824994346       28.5152616864      -28.1109481613  TIP3      18943           0.0000000000
    108345     20304  TIP3      OH2           -16.2290638403       17.3885717607      -31.9432133414  TIP3      18944           0.0000000000
    108346     20304  TIP3      H1            -17.1321437914       17.2665464785      -32.3111719758  TIP3      18944           0.0000000000
    108347     20304  TIP3      H2            -16.3570628715       18.2219915408      -31.4616621990  TIP3      18944           0.0000000000
    108348     20305  TIP3      OH2           -11.5847879531       17.0590958558      -28.5813234665  TIP3      18945           0.0000000000
    108349     20305  TIP3      H1            -11.1922180977       16.6383790324      -27.7937395301  TIP3      18945           0.0000000000
    108350     20305  TIP3      H2            -12.5568149783       16.9362332663      -28.4396409018  TIP3      18945           0.0000000000
    108351     20306  TIP3      OH2            -8.2924010756       20.9047791856      -27.6765385420  TIP3      18946           0.0000000000
    108352     20306  TIP3      H1             -8.8615325112       20.6960689554      -26.8962371678  TIP3      18946           0.0000000000
    108353     20306  TIP3      H2             -8.4656175251       21.8332543091      -27.8982999185  TIP3      18946           0.0000000000
    108354     20307  TIP3      OH2            -7.5028685328       25.6124852435      -41.8640903963  TIP3      18947           0.0000000000
    108355     20307  TIP3      H1             -7.5240577971       25.5599735258      -42.8346639594  TIP3      18947           0.0000000000
    108356     20307  TIP3      H2             -6.7336815088       26.2040509678      -41.7485776069  TIP3      18947           0.0000000000
    108357     20308  TIP3      OH2           -11.8749260972       18.5654942513      -40.8881190172  TIP3      18948           0.0000000000
    108358     20308  TIP3      H1            -12.1319833912       19.4166719236      -40.4593719857  TIP3      18948           0.0000000000
    108359     20308  TIP3      H2            -12.3809211011       18.7233343417      -41.6773963037  TIP3      18948           0.0000000000
    108360     20309  TIP3      OH2           -16.1235162089       22.3605682680      -30.6964873983  TIP3      18949           0.0000000000
    108361     20309  TIP3      H1            -16.8607956914       22.3488366325      -30.0572563836  TIP3      18949           0.0000000000
    108362     20309  TIP3      H2            -16.1717449892       23.2727071944      -31.0632798454  TIP3      18949           0.0000000000
    108363     20310  TIP3      OH2           -16.1673940442       22.4882900283      -35.8259018037  TIP3      18950           0.0000000000
    108364     20310  TIP3      H1            -17.1013303994       22.2260471663      -35.9631167601  TIP3      18950           0.0000000000
    108365     20310  TIP3      H2            -15.7848431551       22.1920292316      -36.6756858173  TIP3      18950           0.0000000000
    108366     20311  TIP3      OH2           -10.6305859090       22.9966287805      -37.0535358491  TIP3      18951           0.0000000000
    108367     20311  TIP3      H1            -11.0424327797       23.8154294293      -37.4150143329  TIP3      18951           0.0000000000
    108368     20311  TIP3      H2             -9.9758241150       22.8052280770      -37.7508358755  TIP3      18951           0.0000000000
    108369     20312  TIP3      OH2           -11.5540139788       23.1337118941      -25.7053546985  TIP3      18952           0.0000000000
    108370     20312  TIP3      H1            -12.1305097838       22.4620627188      -25.2682151716  TIP3      18952           0.0000000000
    108371     20312  TIP3      H2            -10.7721592383       23.0963473804      -25.1239507920  TIP3      18952           0.0000000000
    108372     20313  TIP3      OH2            -9.6132806668       22.4718306566      -34.2146347395  TIP3      18953           0.0000000000
    108373     20313  TIP3      H1             -9.8901954046       23.0348350368      -34.9571281165  TIP3      18953           0.0000000000
    108374     20313  TIP3      H2             -9.5126902585       21.6220446555      -34.6843842146  TIP3      18953           0.0000000000
    108375     20314  TIP3      OH2           -18.5023443748       22.6203266619      -29.0049840947  TIP3      18954           0.0000000000
    108376     20314  TIP3      H1            -18.4253189129       23.0247650237      -28.1224203938  TIP3      18954           0.0000000000
    108377     20314  TIP3      H2            -18.9452756646       21.7813706286      -28.8009677727  TIP3      18954           0.0000000000
    108378     20315  TIP3      OH2           -15.1545518834       19.9083913344      -42.2139761173  TIP3      18955           0.0000000000
    108379     20315  TIP3      H1            -15.5652559539       19.5870125019      -41.3966121517  TIP3      18955           0.0000000000
    108380     20315  TIP3      H2            -15.8298291977       20.4298133202      -42.6565800035  TIP3      18955           0.0000000000
    108381     20316  TIP3      OH2           -21.8460512346       19.7274792361      -35.0360837923  TIP3      18956           0.0000000000
    108382     20316  TIP3      H1            -21.1672861433       19.6904354848      -34.3291956748  TIP3      18956           0.0000000000
    108383     20316  TIP3      H2            -21.3929713261       19.3462634441      -35.8079967142  TIP3      18956           0.0000000000
    108384     20317  TIP3      OH2           -20.5644966584       20.4546106109      -39.6341244610  TIP3      18957           0.0000000000
    108385     20317  TIP3      H1            -20.0648116961       21.0443822719      -40.2368110214  TIP3      18957           0.0000000000
    108386     20317  TIP3      H2            -21.2542913726       21.0827211212      -39.3331946275  TIP3      18957           0.0000000000
    108387     20318  TIP3      OH2           -10.4124715157       24.0614195016      -29.6410803326  TIP3      18958           0.0000000000
    108388     20318  TIP3      H1            -10.0377972113       23.3818522464      -30.2376649570  TIP3      18958           0.0000000000
    108389     20318  TIP3      H2            -10.8763620823       23.5241241388      -28.9751787369  TIP3      18958           0.0000000000
    108390     20319  TIP3      OH2           -13.6074101452       20.0334818847      -34.8217745875  TIP3      18959           0.0000000000
    108391     20319  TIP3      H1            -14.5420788439       20.0387840603      -34.5306076890  TIP3      18959           0.0000000000
    108392     20319  TIP3      H2            -13.1265070901       19.8711529063      -33.9976547542  TIP3      18959           0.0000000000
    108393     20320  TIP3      OH2           -18.7980293347       21.5827321190      -35.9539832888  TIP3      18960           0.0000000000
    108394     20320  TIP3      H1            -19.6831585199       21.7360625608      -36.3441838078  TIP3      18960           0.0000000000
    108395     20320  TIP3      H2            -18.5016204114       20.7526892310      -36.3673273462  TIP3      18960           0.0000000000
    108396     20321  TIP3      OH2           -15.1792417997       21.6796323422      -38.2744275775  TIP3      18961           0.0000000000
    108397     20321  TIP3      H1            -14.2045768792       21.7157348169      -38.1868699332  TIP3      18961           0.0000000000
    108398     20321  TIP3      H2            -15.3808738509       22.2789528327      -39.0167065055  TIP3      18961           0.0000000000
    108399     20322  TIP3      OH2            -9.2029142380       19.2660681425      -31.5838701891  TIP3      18962           0.0000000000
    108400     20322  TIP3      H1             -9.8896604569       19.3209511923      -30.8784563038  TIP3      18962           0.0000000000
    108401     20322  TIP3      H2             -9.7136236170       19.0192812244      -32.3668745068  TIP3      18962           0.0000000000
    108402     20323  TIP3      OH2           -16.4442840982       22.8077648444      -40.7041980601  TIP3      18963           0.0000000000
    108403     20323  TIP3      H1            -17.0155240637       22.4672209373      -41.4170499386  TIP3      18963           0.0000000000
    108404     20323  TIP3      H2            -15.6336655155       23.0191739627      -41.1996327135  TIP3      18963           0.0000000000
    108405     20324  TIP3      OH2            -5.9965871401       34.9044630073      -25.2422212698  TIP3      18964           0.0000000000
    108406     20324  TIP3      H1             -5.7273246377       35.2990823288      -26.0947251210  TIP3      18964           0.0000000000
    108407     20324  TIP3      H2             -5.2746552119       35.2149540855      -24.6748933073  TIP3      18964           0.0000000000
    108408     20325  TIP3      OH2           -18.3352955506       27.4023103515      -25.6885533903  TIP3      18965           0.0000000000
    108409     20325  TIP3      H1            -17.6191825496       27.6336385815      -25.0737244691  TIP3      18965           0.0000000000
    108410     20325  TIP3      H2            -19.1116715391       27.4784829300      -25.0913412523  TIP3      18965           0.0000000000
    108411     20326  TIP3      OH2           -12.3267945075       22.7901374296      -32.9281341010  TIP3      18966           0.0000000000
    108412     20326  TIP3      H1            -11.7284640916       22.2553650521      -33.4637609049  TIP3      18966           0.0000000000
    108413     20326  TIP3      H2            -12.4713595758       22.2417858707      -32.1457165519  TIP3      18966           0.0000000000
    108414     20327  TIP3      OH2           -17.3159018031       18.9353357102      -36.4905641398  TIP3      18967           0.0000000000
    108415     20327  TIP3      H1            -17.6242673877       18.0113742326      -36.5061843732  TIP3      18967           0.0000000000
    108416     20327  TIP3      H2            -16.5263704500       18.8737120513      -37.0446120331  TIP3      18967           0.0000000000
    108417     20328  TIP3      OH2           -13.6881077185       21.1200238196      -30.5146652620  TIP3      18968           0.0000000000
    108418     20328  TIP3      H1            -14.5133200000       21.6353853821      -30.4232482045  TIP3      18968           0.0000000000
    108419     20328  TIP3      H2            -13.1346685756       21.4676929884      -29.7882967362  TIP3      18968           0.0000000000
    108420     20329  TIP3      OH2           -13.0985475626       27.3486779578      -38.8343993039  TIP3      18969           0.0000000000
    108421     20329  TIP3      H1            -13.9016156326       26.8736349589      -39.1461657371  TIP3      18969           0.0000000000
    108422     20329  TIP3      H2            -13.3104937177       27.4585811293      -37.8851762961  TIP3      18969           0.0000000000
    108423     20330  TIP3      OH2            -5.9181519783       26.5402736788      -30.0152068059  TIP3      18970           0.0000000000
    108424     20330  TIP3      H1             -5.3523962718       27.0229091994      -30.6438727373  TIP3      18970           0.0000000000
    108425     20330  TIP3      H2             -6.7776267310       26.5926050548      -30.4808001137  TIP3      18970           0.0000000000
    108426     20331  TIP3      OH2            -9.2353558945       20.1155568866      -40.5792891699  TIP3      18971           0.0000000000
    108427     20331  TIP3      H1            -10.1719439931       20.3011755660      -40.8170855962  TIP3      18971           0.0000000000
    108428     20331  TIP3      H2             -8.9533114451       21.0142542971      -40.3400152635  TIP3      18971           0.0000000000
    108429     20332  TIP3      OH2           -11.6122208832       27.6113845643      -27.5959782096  TIP3      18972           0.0000000000
    108430     20332  TIP3      H1            -11.9537181859       27.1824662981      -26.8005319846  TIP3      18972           0.0000000000
    108431     20332  TIP3      H2            -11.8557281138       28.5318694667      -27.4646990741  TIP3      18972           0.0000000000
    108432     20333  TIP3      OH2            -8.5285524701       22.0877660933      -38.9434387697  TIP3      18973           0.0000000000
    108433     20333  TIP3      H1             -7.6264907717       21.9369803964      -38.6064648735  TIP3      18973           0.0000000000
    108434     20333  TIP3      H2             -8.4582930743       22.8685409074      -39.5126520374  TIP3      18973           0.0000000000
    108435     20334  TIP3      OH2           -17.9866387345       26.7351189442      -33.0141668285  TIP3      18974           0.0000000000
    108436     20334  TIP3      H1            -17.3010751153       26.6537861565      -33.7051437422  TIP3      18974           0.0000000000
    108437     20334  TIP3      H2            -17.9303827587       25.8739131518      -32.5623811099  TIP3      18974           0.0000000000
    108438     20335  TIP3      OH2           -11.0216165706       28.8063754524      -39.7544154988  TIP3      18975           0.0000000000
    108439     20335  TIP3      H1            -11.3597681274       29.6595195886      -39.4074404269  TIP3      18975           0.0000000000
    108440     20335  TIP3      H2            -11.7584647114       28.1959877397      -39.5471020199  TIP3      18975           0.0000000000
    108441     20336  TIP3      OH2           -20.9980762541       25.1401413139      -27.7597393965  TIP3      18976           0.0000000000
    108442     20336  TIP3      H1            -20.8256561218       24.6979280253      -26.9042802898  TIP3      18976           0.0000000000
    108443     20336  TIP3      H2            -21.6210115245       24.5268617554      -28.1913111220  TIP3      18976           0.0000000000
    108444     20337  TIP3      OH2           -14.0044196249       24.7245957084      -25.6215439938  TIP3      18977           0.0000000000
    108445     20337  TIP3      H1            -14.2958775439       24.3687311751      -26.4641651807  TIP3      18977           0.0000000000
    108446     20337  TIP3      H2            -13.1056126083       24.3553365261      -25.5211152839  TIP3      18977           0.0000000000
    108447     20338  TIP3      OH2            -9.3073680174       30.0275120584      -27.6317320036  TIP3      18978           0.0000000000
    108448     20338  TIP3      H1            -10.2334980172       30.2133781115      -27.8588666128  TIP3      18978           0.0000000000
    108449     20338  TIP3      H2             -9.3319385415       30.3279631999      -26.7053190907  TIP3      18978           0.0000000000
    108450     20339  TIP3      OH2            -3.6375368595       22.2159081181      -39.2250462576  TIP3      18979           0.0000000000
    108451     20339  TIP3      H1             -4.2053320249       21.9162804902      -39.9636406732  TIP3      18979           0.0000000000
    108452     20339  TIP3      H2             -3.5614088177       23.1545813217      -39.5027417073  TIP3      18979           0.0000000000
    108453     20340  TIP3      OH2            -3.6398179763       28.0651613668      -26.4381777560  TIP3      18980           0.0000000000
    108454     20340  TIP3      H1             -4.5260911075       28.2936491546      -26.8108325658  TIP3      18980           0.0000000000
    108455     20340  TIP3      H2             -3.0915154288       28.0254435678      -27.2454802602  TIP3      18980           0.0000000000
    108456     20341  TIP3      OH2            -5.2760277784       31.0109108388      -38.7954672080  TIP3      18981           0.0000000000
    108457     20341  TIP3      H1             -5.7361108652       30.2024765156      -38.5398696410  TIP3      18981           0.0000000000
    108458     20341  TIP3      H2             -5.0948895038       30.8756058277      -39.7506048294  TIP3      18981           0.0000000000
    108459     20342  TIP3      OH2            -8.1380940081       25.8610390110      -31.7374593194  TIP3      18982           0.0000000000
    108460     20342  TIP3      H1             -9.0787280689       25.6474811006      -31.8403367087  TIP3      18982           0.0000000000
    108461     20342  TIP3      H2             -7.7067675642       25.0966738172      -32.1644936857  TIP3      18982           0.0000000000
    108462     20343  TIP3      OH2           -15.6211416282       30.1862412561      -35.6300301738  TIP3      18983           0.0000000000
    108463     20343  TIP3      H1            -15.1187687169       30.9923903978      -35.8386640374  TIP3      18983           0.0000000000
    108464     20343  TIP3      H2            -16.4977909228       30.4214795915      -35.9619397576  TIP3      18983           0.0000000000
    108465     20344  TIP3      OH2           -19.8843286542       25.0393365003      -41.1211359304  TIP3      18984           0.0000000000
    108466     20344  TIP3      H1            -19.2648352457       25.6631332494      -40.7024637345  TIP3      18984           0.0000000000
    108467     20344  TIP3      H2            -20.7394747908       25.3328641488      -40.7579293705  TIP3      18984           0.0000000000
    108468     20345  TIP3      OH2           -14.2020990266       27.8571423540      -36.1188854109  TIP3      18985           0.0000000000
    108469     20345  TIP3      H1            -14.5108323326       28.7765322370      -36.0215709746  TIP3      18985           0.0000000000
    108470     20345  TIP3      H2            -14.9211749170       27.3661770861      -35.6723362037  TIP3      18985           0.0000000000
    108471     20346  TIP3      OH2           -13.7469976597       32.0365079741      -29.7086121756  TIP3      18986           0.0000000000
    108472     20346  TIP3      H1            -13.2944123612       32.8466531266      -29.9917511329  TIP3      18986           0.0000000000
    108473     20346  TIP3      H2            -13.1293542200       31.6957988473      -29.0376973691  TIP3      18986           0.0000000000
    108474     20347  TIP3      OH2           -15.5255204258       32.8423997841      -36.5708629213  TIP3      18987           0.0000000000
    108475     20347  TIP3      H1            -16.4906938972       32.9744047561      -36.4423346770  TIP3      18987           0.0000000000
    108476     20347  TIP3      H2            -15.1669746715       33.6859687057      -36.2383673193  TIP3      18987           0.0000000000
    108477     20348  TIP3      OH2           -10.2248625889       28.0398008804      -30.1024224739  TIP3      18988           0.0000000000
    108478     20348  TIP3      H1            -10.5576057191       27.8508797644      -29.2012573307  TIP3      18988           0.0000000000
    108479     20348  TIP3      H2             -9.5818236853       27.3282114450      -30.2480851442  TIP3      18988           0.0000000000
    108480     20349  TIP3      OH2            -8.0617624987       29.2414477223      -40.7326134636  TIP3      18989           0.0000000000
    108481     20349  TIP3      H1             -7.6300732716       28.5776657451      -40.1709325384  TIP3      18989           0.0000000000
    108482     20349  TIP3      H2             -8.9366061377       28.8712689777      -40.8670032106  TIP3      18989           0.0000000000
    108483     20350  TIP3      OH2            -7.4203508534       32.6303994445      -27.5830359373  TIP3      18990           0.0000000000
    108484     20350  TIP3      H1             -8.1012844709       32.1247829464      -28.0657663857  TIP3      18990           0.0000000000
    108485     20350  TIP3      H2             -7.2271268177       33.3192063885      -28.2533771291  TIP3      18990           0.0000000000
    108486     20351  TIP3      OH2            -3.4483568593       33.5730702529      -40.7923544035  TIP3      18991           0.0000000000
    108487     20351  TIP3      H1             -2.7293876150       34.1782473665      -40.9825152948  TIP3      18991           0.0000000000
    108488     20351  TIP3      H2             -4.1774987911       34.1445089787      -40.4656745044  TIP3      18991           0.0000000000
    108489     20352  TIP3      OH2           -19.3505154889       19.8739698814      -28.2097856975  TIP3      18992           0.0000000000
    108490     20352  TIP3      H1            -20.2576567557       20.2253870150      -28.2296695806  TIP3      18992           0.0000000000
    108491     20352  TIP3      H2            -19.4625409135       19.0284520498      -27.7469520250  TIP3      18992           0.0000000000
    108492     20353  TIP3      OH2            -7.1062635024       27.7562885430      -38.6957261891  TIP3      18993           0.0000000000
    108493     20353  TIP3      H1             -7.3487268050       26.9368700069      -38.2189130031  TIP3      18993           0.0000000000
    108494     20353  TIP3      H2             -6.1431858974       27.7913092911      -38.5742703068  TIP3      18993           0.0000000000
    108495     20354  TIP3      OH2           -19.7337073658       31.6592630753      -29.7768220938  TIP3      18994           0.0000000000
    108496     20354  TIP3      H1            -19.4400815302       30.7354068948      -29.7704982995  TIP3      18994           0.0000000000
    108497     20354  TIP3      H2            -19.4730773485       31.9506425209      -28.8939906014  TIP3      18994           0.0000000000
    108498     20355  TIP3      OH2           -13.7693497507       30.1485218313      -42.5291189280  TIP3      18995           0.0000000000
    108499     20355  TIP3      H1            -13.6216737457       29.3843104992      -43.0856878432  TIP3      18995           0.0000000000
    108500     20355  TIP3      H2            -14.2070783317       29.7823200682      -41.7294255984  TIP3      18995           0.0000000000
    108501     20356  TIP3      OH2           -14.9815587919       29.7263267687      -40.0591579459  TIP3      18996           0.0000000000
    108502     20356  TIP3      H1            -14.7343478582       29.2005237950      -39.2880964519  TIP3      18996           0.0000000000
    108503     20356  TIP3      H2            -14.9096696031       30.6551130140      -39.7450778492  TIP3      18996           0.0000000000
    108504     20357  TIP3      OH2           -18.4731380305       26.9678716617      -39.5966693145  TIP3      18997           0.0000000000
    108505     20357  TIP3      H1            -19.1516559056       27.3660963933      -39.0146133815  TIP3      18997           0.0000000000
    108506     20357  TIP3      H2            -17.9393617297       27.7398695506      -39.8470332307  TIP3      18997           0.0000000000
    108507     20358  TIP3      OH2           -10.6166623483       19.6424958022      -29.2650239143  TIP3      18998           0.0000000000
    108508     20358  TIP3      H1             -9.9128866779       19.7078174507      -28.6083499500  TIP3      18998           0.0000000000
    108509     20358  TIP3      H2            -11.0040812725       18.7696076077      -29.0505511422  TIP3      18998           0.0000000000
    108510     20359  TIP3      OH2            -9.8639483303       19.2108706538      -38.1225226184  TIP3      18999           0.0000000000
    108511     20359  TIP3      H1             -9.6708020223       19.6709966517      -38.9750181657  TIP3      18999           0.0000000000
    108512     20359  TIP3      H2             -9.2796631911       19.6734207327      -37.5192348942  TIP3      18999           0.0000000000
    108513     20360  TIP3      OH2           -12.1794274922       31.3742711384      -39.3725609248  TIP3      19000           0.0000000000
    108514     20360  TIP3      H1            -12.9950528530       31.8969223794      -39.2723925900  TIP3      19000           0.0000000000
    108515     20360  TIP3      H2            -11.6578798419       31.9158878998      -39.9790974773  TIP3      19000           0.0000000000
    108516     20361  TIP3      OH2           -12.6562046947       20.9741270560      -37.3172364768  TIP3      19001           0.0000000000
    108517     20361  TIP3      H1            -11.8602472224       21.5409120994      -37.3193396861  TIP3      19001           0.0000000000
    108518     20361  TIP3      H2            -12.9023376114       20.8410860780      -36.3859265691  TIP3      19001           0.0000000000
    108519     20362  TIP3      OH2           -12.1010129648       21.9927327354      -28.1531783229  TIP3      19002           0.0000000000
    108520     20362  TIP3      H1            -12.0183079778       22.5522594936      -27.3529256083  TIP3      19002           0.0000000000
    108521     20362  TIP3      H2            -11.4338331219       21.3052768374      -28.0399499395  TIP3      19002           0.0000000000
    108522     20363  TIP3      OH2           -11.7842962106       18.0323176307      -36.4512627295  TIP3      19003           0.0000000000
    108523     20363  TIP3      H1            -12.1138520653       18.6878281533      -35.8110565007  TIP3      19003           0.0000000000
    108524     20363  TIP3      H2            -11.1103089846       18.5808013357      -36.9270748157  TIP3      19003           0.0000000000
    108525     20364  TIP3      OH2           -14.8091211493       32.4131266517      -39.3037413129  TIP3      19004           0.0000000000
    108526     20364  TIP3      H1            -14.6572473926       33.2312908300      -39.8309793739  TIP3      19004           0.0000000000
    108527     20364  TIP3      H2            -15.0640931606       32.7737694740      -38.4315165006  TIP3      19004           0.0000000000
    108528     20365  TIP3      OH2           -16.1537855426       19.1173310646      -39.6949187191  TIP3      19005           0.0000000000
    108529     20365  TIP3      H1            -16.1701579770       20.0406744807      -39.3894885116  TIP3      19005           0.0000000000
    108530     20365  TIP3      H2            -15.2191733449       18.8864370678      -39.4760557457  TIP3      19005           0.0000000000
    108531     20366  TIP3      OH2            -5.9089061556       19.8625656520      -27.3149195518  TIP3      19006           0.0000000000
    108532     20366  TIP3      H1             -6.8402714590       20.1682098478      -27.4282851519  TIP3      19006           0.0000000000
    108533     20366  TIP3      H2             -5.6158470476       19.8540676589      -28.2397645724  TIP3      19006           0.0000000000
    108534     20367  TIP3      OH2            -7.2980499144       23.6533256311      -33.2836544344  TIP3      19007           0.0000000000
    108535     20367  TIP3      H1             -8.1203552291       23.2081724925      -33.5698957080  TIP3      19007           0.0000000000
    108536     20367  TIP3      H2             -6.8208390163       22.9607629583      -32.7748641502  TIP3      19007           0.0000000000
    108537     20368  TIP3      OH2           -17.8790835285       29.5562201640      -40.6794254699  TIP3      19008           0.0000000000
    108538     20368  TIP3      H1            -17.2401053789       30.2165738523      -40.3919743737  TIP3      19008           0.0000000000
    108539     20368  TIP3      H2            -17.3835586600       29.1121589464      -41.3947334796  TIP3      19008           0.0000000000
    108540     20369  TIP3      OH2           -19.5243868714       22.2387148495      -41.5138438899  TIP3      19009           0.0000000000
    108541     20369  TIP3      H1            -19.5405763207       23.2070883631      -41.3898840864  TIP3      19009           0.0000000000
    108542     20369  TIP3      H2            -20.3941486898       22.0495921415      -41.8779964736  TIP3      19009           0.0000000000
    108543     20370  TIP3      OH2            -6.2323225450       32.9029949270      -31.6227415577  TIP3      19010           0.0000000000
    108544     20370  TIP3      H1             -6.3284377385       33.5885844307      -32.3130005214  TIP3      19010           0.0000000000
    108545     20370  TIP3      H2             -5.2696457401       32.9628244742      -31.4465540742  TIP3      19010           0.0000000000
    108546     20371  TIP3      OH2           -18.7411154942       17.0316508661      -32.8198122429  TIP3      19011           0.0000000000
    108547     20371  TIP3      H1            -18.9404068801       17.0516167812      -33.7819547930  TIP3      19011           0.0000000000
    108548     20371  TIP3      H2            -19.1592925002       16.1822803754      -32.5661174127  TIP3      19011           0.0000000000
    108549     20372  TIP3      OH2           -19.7850403704       30.9529778652      -36.6778315185  TIP3      19012           0.0000000000
    108550     20372  TIP3      H1            -20.6412281106       31.4028464788      -36.7139524580  TIP3      19012           0.0000000000
    108551     20372  TIP3      H2            -19.3080489048       31.4232816741      -37.3753313999  TIP3      19012           0.0000000000
    108552     20373  TIP3      OH2           -20.5811639520       33.6159704448      -25.3893852292  TIP3      19013           0.0000000000
    108553     20373  TIP3      H1            -19.9515607554       33.4124794281      -24.6640897999  TIP3      19013           0.0000000000
    108554     20373  TIP3      H2            -20.9627353138       32.7350597403      -25.5611748371  TIP3      19013           0.0000000000
    108555     20374  TIP3      OH2           -15.9313658896       32.5139236897      -23.7554192643  TIP3      19014           0.0000000000
    108556     20374  TIP3      H1            -15.1394919953       32.0600901435      -23.4328048609  TIP3      19014           0.0000000000
    108557     20374  TIP3      H2            -15.9584568451       32.2412045773      -24.6856604017  TIP3      19014           0.0000000000
    108558     20375  TIP3      OH2           -11.7825349522       32.0253345714      -42.3946015721  TIP3      19015           0.0000000000
    108559     20375  TIP3      H1            -12.4880587652       31.3790640308      -42.1749626720  TIP3      19015           0.0000000000
    108560     20375  TIP3      H2            -11.0286947889       31.4572652901      -42.5996222790  TIP3      19015           0.0000000000
    108561     20376  TIP3      OH2            -9.4004098808       30.8971409636      -25.0512686830  TIP3      19016           0.0000000000
    108562     20376  TIP3      H1             -9.6962209744       30.0130122416      -24.7660225919  TIP3      19016           0.0000000000
    108563     20376  TIP3      H2             -8.6266517167       31.0416197871      -24.4607986338  TIP3      19016           0.0000000000
    108564     20377  TIP3      OH2            -7.2224797179       31.8173028883      -42.1623345645  TIP3      19017           0.0000000000
    108565     20377  TIP3      H1             -6.9497931830       30.9720950327      -41.7486399395  TIP3      19017           0.0000000000
    108566     20377  TIP3      H2             -6.4435938797       32.0019958658      -42.6922621922  TIP3      19017           0.0000000000
    108567     20378  TIP3      OH2           -20.6615592288       27.3600667887      -24.4127058425  TIP3      19018           0.0000000000
    108568     20378  TIP3      H1            -20.4993076770       26.4462241749      -24.7143690814  TIP3      19018           0.0000000000
    108569     20378  TIP3      H2            -21.4065403915       27.6347224732      -24.9714358497  TIP3      19018           0.0000000000
    108570     20379  TIP3      OH2           -16.2892704048       27.7177593098      -42.3330190395  TIP3      19019           0.0000000000
    108571     20379  TIP3      H1            -16.1820589672       26.9421712073      -41.7634007900  TIP3      19019           0.0000000000
    108572     20379  TIP3      H2            -15.6349789487       27.5747037535      -43.0208514301  TIP3      19019           0.0000000000
    108573     20380  TIP3      OH2           -13.9308550088       27.3768141052      -25.0521136497  TIP3      19020           0.0000000000
    108574     20380  TIP3      H1            -14.3046094461       27.6649213917      -25.9011408869  TIP3      19020           0.0000000000
    108575     20380  TIP3      H2            -13.8881804106       26.3862421573      -25.0991336790  TIP3      19020           0.0000000000
    108576     20381  TIP3      OH2           -11.0115489600       28.8049998461      -42.5904622794  TIP3      19021           0.0000000000
    108577     20381  TIP3      H1            -11.1522039750       28.9387192969      -41.6366527660  TIP3      19021           0.0000000000
    108578     20381  TIP3      H2            -11.0859567954       27.8466854635      -42.6888923762  TIP3      19021           0.0000000000
    108579     20382  TIP3      OH2            -8.2479059334       27.2345158605      -27.6364042834  TIP3      19022           0.0000000000
    108580     20382  TIP3      H1             -7.4642213806       27.8175523428      -27.6899538589  TIP3      19022           0.0000000000
    108581     20382  TIP3      H2             -8.9560665743       27.8920323235      -27.5611922300  TIP3      19022           0.0000000000
    108582     20383  TIP3      OH2           -19.8149731632       24.5836959260      -25.0328327332  TIP3      19023           0.0000000000
    108583     20383  TIP3      H1            -19.3420368568       23.7458507869      -25.1092688488  TIP3      19023           0.0000000000
    108584     20383  TIP3      H2            -19.9853310138       24.6105139831      -24.0764383090  TIP3      19023           0.0000000000
    108585     20384  TIP3      OH2           -15.1104710586       25.7475901546      -39.9402667833  TIP3      19024           0.0000000000
    108586     20384  TIP3      H1            -15.6090256779       25.1990081784      -39.3166337284  TIP3      19024           0.0000000000
    108587     20384  TIP3      H2            -14.8004407385       25.0632845493      -40.5958649733  TIP3      19024           0.0000000000
    108588     20385  TIP3      OH2           -15.8577933819       23.5462970734      -27.6653352438  TIP3      19025           0.0000000000
    108589     20385  TIP3      H1            -16.4400409884       24.2698547397      -27.3842370960  TIP3      19025           0.0000000000
    108590     20385  TIP3      H2            -15.4627381255       23.9180554436      -28.4731182110  TIP3      19025           0.0000000000
    108591     20386  TIP3      OH2           -14.0452484409       24.0700722369      -41.7726403801  TIP3      19026           0.0000000000
    108592     20386  TIP3      H1            -14.1515097436       23.7522868641      -42.6812471389  TIP3      19026           0.0000000000
    108593     20386  TIP3      H2            -13.0752206524       23.9649425250      -41.6389598050  TIP3      19026           0.0000000000
    108594     20387  TIP3      OH2            -4.5676774285       26.2380880424      -42.3201351588  TIP3      19027           0.0000000000
    108595     20387  TIP3      H1             -4.9648994252       25.9229910089      -43.1309661601  TIP3      19027           0.0000000000
    108596     20387  TIP3      H2             -4.6961978534       27.2170101985      -42.5024273636  TIP3      19027           0.0000000000
    108597     20388  TIP3      OH2           -15.4469174719       20.9347546104      -26.6054144673  TIP3      19028           0.0000000000
    108598     20388  TIP3      H1            -15.3345452970       20.2150126014      -27.2508036610  TIP3      19028           0.0000000000
    108599     20388  TIP3      H2            -15.4883868913       21.7422555545      -27.1542907136  TIP3      19028           0.0000000000
    108600     20389  TIP3      OH2           -15.0441528423       19.3070325500      -29.0468687585  TIP3      19029           0.0000000000
    108601     20389  TIP3      H1            -14.5333126567       19.7713866139      -29.7520074034  TIP3      19029           0.0000000000
    108602     20389  TIP3      H2            -15.9360060021       19.2261858274      -29.4562416867  TIP3      19029           0.0000000000
    108603     20390  TIP3      OH2           -13.5079278540       24.7929537625      -28.8016653391  TIP3      19030           0.0000000000
    108604     20390  TIP3      H1            -12.7494071905       24.6267831385      -29.3724630452  TIP3      19030           0.0000000000
    108605     20390  TIP3      H2            -13.8752046132       25.6232302358      -29.1475273586  TIP3      19030           0.0000000000
    108606     20391  TIP3      OH2            -9.1198586719       22.5509634920      -23.8491783171  TIP3      19031           0.0000000000
    108607     20391  TIP3      H1             -8.8721416286       21.6255818751      -23.8782475822  TIP3      19031           0.0000000000
    108608     20391  TIP3      H2             -8.2504774375       22.9827452707      -23.7715839824  TIP3      19031           0.0000000000
    108609     20392  TIP3      OH2            -7.7601214846       25.3384243719      -25.7197549416  TIP3      19032           0.0000000000
    108610     20392  TIP3      H1             -8.0186598802       26.0766664870      -26.3073007101  TIP3      19032           0.0000000000
    108611     20392  TIP3      H2             -6.8035186371       25.3285868212      -25.8591219768  TIP3      19032           0.0000000000
    108612     20393  TIP3      OH2           -17.0021917448       22.1730961454      -24.6804979206  TIP3      19033           0.0000000000
    108613     20393  TIP3      H1            -17.7651398812       21.5929358290      -24.8529975236  TIP3      19033           0.0000000000
    108614     20393  TIP3      H2            -16.3299456005       21.8122160638      -25.2812641489  TIP3      19033           0.0000000000
    108615     20394  TIP3      OH2           -14.2546006926       16.7451517753      -28.6488045749  TIP3      19034           0.0000000000
    108616     20394  TIP3      H1            -14.4308517182       17.7077175210      -28.7539804744  TIP3      19034           0.0000000000
    108617     20394  TIP3      H2            -15.0062624975       16.3754262493      -29.1446698022  TIP3      19034           0.0000000000
    108618     20395  TIP3      OH2           -12.9676613903       21.0300335426      -25.0423524658  TIP3      19035           0.0000000000
    108619     20395  TIP3      H1            -13.2821772171       20.8754966216      -24.1306977582  TIP3      19035           0.0000000000
    108620     20395  TIP3      H2            -13.7746420520       20.9020661503      -25.5720827040  TIP3      19035           0.0000000000
    108621     20396  TIP3      OH2           -10.2585452166       20.1532053114      -25.9964003654  TIP3      19036           0.0000000000
    108622     20396  TIP3      H1            -11.2124443435       20.2857922560      -25.8315989666  TIP3      19036           0.0000000000
    108623     20396  TIP3      H2            -10.0016316371       19.5842465688      -25.2513282503  TIP3      19036           0.0000000000
    108624     20397  TIP3      OH2            -8.6863998829       18.8538570722      -23.9827723721  TIP3      19037           0.0000000000
    108625     20397  TIP3      H1             -8.7257713895       17.8745741615      -24.0153040768  TIP3      19037           0.0000000000
    108626     20397  TIP3      H2             -8.9554793220       19.1044212383      -23.0925804905  TIP3      19037           0.0000000000
    108627     20398  TIP3      OH2           -18.9042630412       20.0995045493      -24.9343151245  TIP3      19038           0.0000000000
    108628     20398  TIP3      H1            -18.6437046397       19.3638169106      -25.5158058409  TIP3      19038           0.0000000000
    108629     20398  TIP3      H2            -18.9836714044       19.6735423408      -24.0554216566  TIP3      19038           0.0000000000
    108630     20399  TIP3      OH2           -14.0663600169       16.1146649476      -25.9421012118  TIP3      19039           0.0000000000
    108631     20399  TIP3      H1            -13.3667346903       15.4287842840      -25.9690485400  TIP3      19039           0.0000000000
    108632     20399  TIP3      H2            -14.1579147243       16.2823518317      -26.8971723504  TIP3      19039           0.0000000000
    108633     20400  TIP3      OH2           -13.6732223619       17.7415759194      -23.8572728626  TIP3      19040           0.0000000000
    108634     20400  TIP3      H1            -13.8212073031       17.2490849321      -24.6989783390  TIP3      19040           0.0000000000
    108635     20400  TIP3      H2            -14.2665360834       18.5154227214      -23.9687488350  TIP3      19040           0.0000000000
    108636     20401  TIP3      OH2           -14.2019498803       34.6972860911      -40.6567722368  TIP3      19041           0.0000000000
    108637     20401  TIP3      H1            -13.2243527936       34.7364540286      -40.6177485392  TIP3      19041           0.0000000000
    108638     20401  TIP3      H2            -14.3738758164       35.2811367465      -41.3904422904  TIP3      19041           0.0000000000
    108639     20402  TIP3      OH2           -20.6123054992       29.2556691492      -41.1844419097  TIP3      19042           0.0000000000
    108640     20402  TIP3      H1            -19.6566735706       29.3430946392      -40.9671961814  TIP3      19042           0.0000000000
    108641     20402  TIP3      H2            -20.5628571817       28.6465915296      -41.9308906570  TIP3      19042           0.0000000000
    108642     20403  TIP3      OH2           -21.8641834245       34.6194640720      -36.2352339310  TIP3      19043           0.0000000000
    108643     20403  TIP3      H1            -22.5847853206       34.1395998268      -36.7014314215  TIP3      19043           0.0000000000
    108644     20403  TIP3      H2            -21.5928682513       33.9687406350      -35.5683810169  TIP3      19043           0.0000000000
    108645     20404  TIP3      OH2           -21.0534903111       32.7562640149      -34.3594897778  TIP3      19044           0.0000000000
    108646     20404  TIP3      H1            -21.4049184298       31.8772475359      -34.1596651674  TIP3      19044           0.0000000000
    108647     20404  TIP3      H2            -20.8295363922       33.0860550505      -33.4730786792  TIP3      19044           0.0000000000
    108648     20405  TIP3      OH2            -3.5174597662       33.5525941530      -31.4306812626  TIP3      19045           0.0000000000
    108649     20405  TIP3      H1             -3.4942342445       33.7060434958      -30.4707477359  TIP3      19045           0.0000000000
    108650     20405  TIP3      H2             -2.8100439590       34.1344781120      -31.7264677871  TIP3      19045           0.0000000000
    108651     20406  TIP3      OH2            -3.9421253064       33.1449793150      -28.4700960033  TIP3      19046           0.0000000000
    108652     20406  TIP3      H1             -4.4128070240       32.3790182088      -28.8584279867  TIP3      19046           0.0000000000
    108653     20406  TIP3      H2             -3.4425729220       32.6914391741      -27.7688021030  TIP3      19046           0.0000000000
    108654     20407  TIP3      OH2            -5.4687870172       28.8644768430      -23.8301529484  TIP3      19047           0.0000000000
    108655     20407  TIP3      H1             -6.3528495077       28.8145137188      -23.4442687931  TIP3      19047           0.0000000000
    108656     20407  TIP3      H2             -5.0890045788       29.6649369875      -23.3940517167  TIP3      19047           0.0000000000
    108657     20408  TIP3      OH2            -4.1870969993       27.1673267524      -38.3618160799  TIP3      19048           0.0000000000
    108658     20408  TIP3      H1             -3.3282593268       27.5869295018      -38.2020740530  TIP3      19048           0.0000000000
    108659     20408  TIP3      H2             -4.1838893246       26.4599217072      -37.6876661712  TIP3      19048           0.0000000000
    108660     20409  TIP3      OH2            -3.8177963217       25.2710258789      -36.4884834651  TIP3      19049           0.0000000000
    108661     20409  TIP3      H1             -4.5702532705       24.7648461878      -36.1071794048  TIP3      19049           0.0000000000
    108662     20409  TIP3      H2             -3.2228552648       25.4069452578      -35.7243090959  TIP3      19049           0.0000000000
    108663     20410  TIP3      OH2            -4.0622628307       27.9750743835      -31.5060054794  TIP3      19050           0.0000000000
    108664     20410  TIP3      H1             -3.2453118175       27.5977616351      -31.8809328044  TIP3      19050           0.0000000000
    108665     20410  TIP3      H2             -3.9189246280       28.9273036025      -31.6801444460  TIP3      19050           0.0000000000
    108666     20411  TIP3      OH2            -5.5072844143       30.8804268019      -29.2405929226  TIP3      19051           0.0000000000
    108667     20411  TIP3      H1             -6.1973674427       31.2165411389      -28.6459215878  TIP3      19051           0.0000000000
    108668     20411  TIP3      H2             -6.0575528047       30.4705432245      -29.9415713049  TIP3      19051           0.0000000000
    108669     20412  TIP3      OH2            -3.5142046652       25.1231565899      -40.1189414782  TIP3      19052           0.0000000000
    108670     20412  TIP3      H1             -4.0874773876       25.4736141321      -40.8438409051  TIP3      19052           0.0000000000
    108671     20412  TIP3      H2             -3.6272836307       25.8213621853      -39.4514804364  TIP3      19052           0.0000000000
    108672     20413  TIP3      OH2            -5.1844041135       22.3181214062      -41.5438829299  TIP3      19053           0.0000000000
    108673     20413  TIP3      H1             -5.0882498190       22.9884465881      -42.2336625606  TIP3      19053           0.0000000000
    108674     20413  TIP3      H2             -5.3347895875       21.5015564771      -42.0661118117  TIP3      19053           0.0000000000
    108675     20414  TIP3      OH2            -5.9995778412       23.7463955499      -35.9249607917  TIP3      19054           0.0000000000
    108676     20414  TIP3      H1             -6.1506785716       22.7910288953      -35.9604557399  TIP3      19054           0.0000000000
    108677     20414  TIP3      H2             -6.3396819627       23.9703333377      -35.0407729292  TIP3      19054           0.0000000000
    108678     20415  TIP3      OH2           -20.9960043572       25.8330157148      -31.8660686326  TIP3      19055           0.0000000000
    108679     20415  TIP3      H1            -20.8134584536       25.7516542655      -32.8284554726  TIP3      19055           0.0000000000
    108680     20415  TIP3      H2            -20.1035741037       25.6608283555      -31.5090860228  TIP3      19055           0.0000000000
    108681     20416  TIP3      OH2            -5.1567182993       25.7260043162      -26.2230240323  TIP3      19056           0.0000000000
    108682     20416  TIP3      H1             -4.5518168174       24.9624582962      -26.0777020979  TIP3      19056           0.0000000000
    108683     20416  TIP3      H2             -4.5391603693       26.4858095894      -26.2378793577  TIP3      19056           0.0000000000
    108684     20417  TIP3      OH2            -3.6498831110       23.6159815812      -25.6455346152  TIP3      19057           0.0000000000
    108685     20417  TIP3      H1             -4.5282953386       23.1933066032      -25.7314476474  TIP3      19057           0.0000000000
    108686     20417  TIP3      H2             -3.0811087813       22.8309410748      -25.6340971397  TIP3      19057           0.0000000000
    108687     20418  TIP3      OH2            -5.9274627681       19.8199800469      -42.4028792728  TIP3      19058           0.0000000000
    108688     20418  TIP3      H1             -5.3226621495       19.3385887939      -41.8050730267  TIP3      19058           0.0000000000
    108689     20418  TIP3      H2             -6.7913982340       19.3913570871      -42.2763899672  TIP3      19058           0.0000000000
    108690     20419  TIP3      OH2            -6.3312921419       21.3296714694      -37.4468028403  TIP3      19059           0.0000000000
    108691     20419  TIP3      H1             -6.0314784081       20.3971962844      -37.3334497400  TIP3      19059           0.0000000000
    108692     20419  TIP3      H2             -5.5507670967       21.7343526185      -37.8505619581  TIP3      19059           0.0000000000
    108693     20420  TIP3      OH2            -5.7000159336       21.8735343698      -32.0223443146  TIP3      19060           0.0000000000
    108694     20420  TIP3      H1             -4.7420992377       22.1076538539      -32.0443784223  TIP3      19060           0.0000000000
    108695     20420  TIP3      H2             -5.8840609739       22.0168529093      -31.0821419682  TIP3      19060           0.0000000000
    108696     20421  TIP3      OH2            -5.6191811771       22.6003258857      -29.2353861112  TIP3      19061           0.0000000000
    108697     20421  TIP3      H1             -6.5052548581       22.8820805845      -28.9087708684  TIP3      19061           0.0000000000
    108698     20421  TIP3      H2             -5.1942033958       23.4586377645      -29.4619743138  TIP3      19061           0.0000000000
    108699     20422  TIP3      OH2           -21.3918579167       21.1245972795      -25.7242559741  TIP3      19062           0.0000000000
    108700     20422  TIP3      H1            -20.4523953563       20.9362845050      -25.5271319120  TIP3      19062           0.0000000000
    108701     20422  TIP3      H2            -21.8289092243       20.3065523385      -25.4109596824  TIP3      19062           0.0000000000
    108702     20423  TIP3      OH2            -4.1811555232       16.6106977512      -23.7534136707  TIP3      19063           0.0000000000
    108703     20423  TIP3      H1             -3.5840396793       15.9587355115      -24.1499155692  TIP3      19063           0.0000000000
    108704     20423  TIP3      H2             -3.5266827090       17.2937316486      -24.0556635224  TIP3      19063           0.0000000000
    108705     20424  TIP3      OH2            -5.6632680700       18.6048229391      -37.4219541751  TIP3      19064           0.0000000000
    108706     20424  TIP3      H1             -5.4550605546       18.1714158682      -36.5657265244  TIP3      19064           0.0000000000
    108707     20424  TIP3      H2             -6.2729934125       17.9761876364      -37.8638580391  TIP3      19064           0.0000000000
    108708     20425  TIP3      OH2           -20.1776923061       19.4237753458      -32.8625887106  TIP3      19065           0.0000000000
    108709     20425  TIP3      H1            -19.7164667655       18.5994557510      -32.6015498933  TIP3      19065           0.0000000000
    108710     20425  TIP3      H2            -19.6331824945       20.1181520632      -32.4696890943  TIP3      19065           0.0000000000
    108711     20426  TIP3      OH2           -21.8944412152       22.4239644852      -31.8223444623  TIP3      19066           0.0000000000
    108712     20426  TIP3      H1            -21.3322748300       22.1782224480      -32.5853670684  TIP3      19066           0.0000000000
    108713     20426  TIP3      H2            -21.4324881769       23.2310894383      -31.5532008175  TIP3      19066           0.0000000000
    108714     20427  TIP3      OH2            -3.8368758334       18.8414665800      -25.5870834773  TIP3      19067           0.0000000000
    108715     20427  TIP3      H1             -4.7907680927       19.0176611110      -25.5976678842  TIP3      19067           0.0000000000
    108716     20427  TIP3      H2             -3.7687506123       18.1938353240      -26.3026852691  TIP3      19067           0.0000000000
    108717     20428  TIP3      OH2            -3.8422688928       18.6710394692      -40.8835488963  TIP3      19068           0.0000000000
    108718     20428  TIP3      H1             -3.4051672853       17.9492181572      -41.3567565155  TIP3      19068           0.0000000000
    108719     20428  TIP3      H2             -3.1235479462       19.3233376113      -40.8173572421  TIP3      19068           0.0000000000
    108720     20429  TIP3      OH2           -21.5311223769       18.6728284489      -37.7662877336  TIP3      19069           0.0000000000
    108721     20429  TIP3      H1            -22.4703569140       18.8761317077      -37.8835886035  TIP3      19069           0.0000000000
    108722     20429  TIP3      H2            -21.1085183094       19.1837681040      -38.4781213511  TIP3      19069           0.0000000000
    108723     20430  TIP3      OH2            -6.7875531025       33.6176465749      -35.8087919015  TIP3      19070           0.0000000000
    108724     20430  TIP3      H1             -6.1037630626       33.3360068821      -36.4415619452  TIP3      19070           0.0000000000
    108725     20430  TIP3      H2             -6.2776284344       34.1245116929      -35.1560157461  TIP3      19070           0.0000000000
    108726     20431  TIP3      OH2           -21.5787029980       17.3407214445      -29.4529505624  TIP3      19071           0.0000000000
    108727     20431  TIP3      H1            -22.2491525002       17.1481641691      -28.7740321578  TIP3      19071           0.0000000000
    108728     20431  TIP3      H2            -22.0367510363       18.0150275323      -29.9951024188  TIP3      19071           0.0000000000
    108729     20432  TIP3      OH2           -19.3462319437       30.5407760037      -25.2858440596  TIP3      19072           0.0000000000
    108730     20432  TIP3      H1            -20.1847354272       30.7591465945      -25.7144712708  TIP3      19072           0.0000000000
    108731     20432  TIP3      H2            -19.6191629709       30.4820084301      -24.3636991282  TIP3      19072           0.0000000000
    108732     20433  TIP3      OH2           -16.4440351505       31.5438131933      -29.0153474573  TIP3      19073           0.0000000000
    108733     20433  TIP3      H1            -16.7799950018       32.4089025265      -29.2875620733  TIP3      19073           0.0000000000
    108734     20433  TIP3      H2            -15.5176894027       31.6321618657      -29.3194155371  TIP3      19073           0.0000000000
    108735     20434  TIP3      OH2           -12.1128169127       32.9805651804      -26.1112651318  TIP3      19074           0.0000000000
    108736     20434  TIP3      H1            -11.9639206261       32.6196119359      -25.2025977126  TIP3      19074           0.0000000000
    108737     20434  TIP3      H2            -11.2133566082       33.2714969178      -26.3587607920  TIP3      19074           0.0000000000
    108738     20435  TIP3      OH2            -9.8289396919       34.2360913362      -26.7869911681  TIP3      19075           0.0000000000
    108739     20435  TIP3      H1             -9.1022178865       33.6487949799      -27.0474927480  TIP3      19075           0.0000000000
    108740     20435  TIP3      H2             -9.4485325245       34.6637948812      -25.9918788109  TIP3      19075           0.0000000000
    108741     20436  TIP3      OH2            -4.8228321886       16.8557870877      -27.7024552860  TIP3      19076           0.0000000000
    108742     20436  TIP3      H1             -5.6579971460       17.1405640575      -28.1106590709  TIP3      19076           0.0000000000
    108743     20436  TIP3      H2             -4.6326362885       16.0332057032      -28.2059985232  TIP3      19076           0.0000000000
    108744     20437  TIP3      OH2           -19.0323937741       34.7451371674      -29.0105900196  TIP3      19077           0.0000000000
    108745     20437  TIP3      H1            -19.7381134797       35.2812331499      -29.4107927773  TIP3      19077           0.0000000000
    108746     20437  TIP3      H2            -19.3429981520       34.6005087310      -28.1072747385  TIP3      19077           0.0000000000
    108747     20438  TIP3      OH2           -16.5500336205       34.3454039156      -29.9512165239  TIP3      19078           0.0000000000
    108748     20438  TIP3      H1            -17.4373533932       34.5176954178      -29.5545588767  TIP3      19078           0.0000000000
    108749     20438  TIP3      H2            -16.5983748353       34.9453791290      -30.7197807581  TIP3      19078           0.0000000000
    108750     20439  TIP3      OH2           -11.8369008802       34.2725237552      -30.7653180633  TIP3      19079           0.0000000000
    108751     20439  TIP3      H1            -12.2966891739       34.8199782104      -31.4222190041  TIP3      19079           0.0000000000
    108752     20439  TIP3      H2            -11.7039296580       34.9234345687      -30.0395448636  TIP3      19079           0.0000000000
    108753     20440  TIP3      OH2            -9.5505231190       33.0867195122      -29.7513779485  TIP3      19080           0.0000000000
    108754     20440  TIP3      H1            -10.4097743852       33.3571233146      -30.1143711622  TIP3      19080           0.0000000000
    108755     20440  TIP3      H2             -9.0728568044       33.9295525830      -29.8441146710  TIP3      19080           0.0000000000
    108756     20441  TIP3      OH2            -6.9801765663       34.6603664325      -29.5254394571  TIP3      19081           0.0000000000
    108757     20441  TIP3      H1             -7.0429432851       35.6241962366      -29.7472067651  TIP3      19081           0.0000000000
    108758     20441  TIP3      H2             -6.7565527838       34.2820619249      -30.3986989232  TIP3      19081           0.0000000000
    108759     20442  TIP3      OH2           -19.5620015628       33.4319192890      -32.0761086809  TIP3      19082           0.0000000000
    108760     20442  TIP3      H1            -19.6349944676       32.9696336864      -31.2136438182  TIP3      19082           0.0000000000
    108761     20442  TIP3      H2            -18.7473357915       33.0571954336      -32.4668821153  TIP3      19082           0.0000000000
    108762     20443  TIP3      OH2           -17.4830127073       32.1429381573      -33.4225884769  TIP3      19083           0.0000000000
    108763     20443  TIP3      H1            -17.6501187169       31.2089149634      -33.1935791980  TIP3      19083           0.0000000000
    108764     20443  TIP3      H2            -16.6285287469       32.2940894605      -32.9657759666  TIP3      19083           0.0000000000
    108765     20444  TIP3      OH2           -14.8792553092       32.6229134617      -32.5431358412  TIP3      19084           0.0000000000
    108766     20444  TIP3      H1            -14.7222199388       31.7032724487      -32.8136944675  TIP3      19084           0.0000000000
    108767     20444  TIP3      H2            -14.8475215513       32.5494044557      -31.5765025412  TIP3      19084           0.0000000000
    108768     20445  TIP3      OH2           -11.4256721506       18.2794692926      -33.4090578183  TIP3      19085           0.0000000000
    108769     20445  TIP3      H1            -12.1001953524       17.6372251167      -33.1306776893  TIP3      19085           0.0000000000
    108770     20445  TIP3      H2            -10.8732871809       17.7462245807      -33.9928121054  TIP3      19085           0.0000000000
    108771     20446  TIP3      OH2            -6.2851764500       16.3277937469      -33.3398645613  TIP3      19086           0.0000000000
    108772     20446  TIP3      H1             -5.6765111343       16.9187131555      -33.8481341138  TIP3      19086           0.0000000000
    108773     20446  TIP3      H2             -7.1694731503       16.6866453305      -33.5714318056  TIP3      19086           0.0000000000
    108774     20447  TIP3      OH2            -4.6212951995       17.5692901771      -35.0624498790  TIP3      19087           0.0000000000
    108775     20447  TIP3      H1             -3.9349151045       16.9942644181      -35.4807332418  TIP3      19087           0.0000000000
    108776     20447  TIP3      H2             -4.1166391237       18.4085622897      -34.9595030143  TIP3      19087           0.0000000000
    108777     20448  TIP3      OH2           -19.0551802124       16.9038812085      -35.5613402989  TIP3      19088           0.0000000000
    108778     20448  TIP3      H1            -19.8519564303       16.7028952386      -36.0885336778  TIP3      19088           0.0000000000
    108779     20448  TIP3      H2            -18.5905112296       16.0475772840      -35.6182299429  TIP3      19088           0.0000000000
    108780     20449  TIP3      OH2           -20.3152219406       16.6634958259      -39.8737428083  TIP3      19089           0.0000000000
    108781     20449  TIP3      H1            -19.7952463268       17.3144408422      -40.3818780862  TIP3      19089           0.0000000000
    108782     20449  TIP3      H2            -20.8465390310       17.2280278671      -39.2829223773  TIP3      19089           0.0000000000
    108783     20450  TIP3      OH2           -14.5766928821       16.8253748918      -35.7773894074  TIP3      19090           0.0000000000
    108784     20450  TIP3      H1            -13.6791885418       17.1933845877      -35.8573302355  TIP3      19090           0.0000000000
    108785     20450  TIP3      H2            -14.6159277888       16.6129358271      -34.8458650935  TIP3      19090           0.0000000000
    108786     20451  TIP3      OH2            -8.8750968901       16.8459385644      -34.1462405132  TIP3      19091           0.0000000000
    108787     20451  TIP3      H1             -8.9173495732       16.9591597156      -35.1042422771  TIP3      19091           0.0000000000
    108788     20451  TIP3      H2             -9.2504310840       15.9391096193      -34.0248987154  TIP3      19091           0.0000000000
    108789     20452  TIP3      OH2            -7.5995884906       16.8845791508      -38.4840121513  TIP3      19092           0.0000000000
    108790     20452  TIP3      H1             -8.3450298717       17.4843983977      -38.6554701471  TIP3      19092           0.0000000000
    108791     20452  TIP3      H2             -8.0522440845       16.0390797812      -38.2695957807  TIP3      19092           0.0000000000
    108792     20453  TIP3      OH2           -20.3652680609       32.6108748008      -38.8388483072  TIP3      19093           0.0000000000
    108793     20453  TIP3      H1            -21.0449999458       32.6067129691      -39.5420253809  TIP3      19093           0.0000000000
    108794     20453  TIP3      H2            -20.3475089324       33.5627635748      -38.6639885370  TIP3      19093           0.0000000000
    108795     20454  TIP3      OH2           -18.4777203239       18.5480862144      -41.3024509408  TIP3      19094           0.0000000000
    108796     20454  TIP3      H1            -17.9112486656       17.9923104365      -41.8419388511  TIP3      19094           0.0000000000
    108797     20454  TIP3      H2            -17.8120574897       18.9400444958      -40.7050584074  TIP3      19094           0.0000000000
    108798     20455  TIP3      OH2           -13.5849137413       18.8641624232      -38.8286031818  TIP3      19095           0.0000000000
    108799     20455  TIP3      H1            -13.1518773247       18.2826255399      -38.1909111736  TIP3      19095           0.0000000000
    108800     20455  TIP3      H2            -13.3408345846       19.7338488030      -38.4513709445  TIP3      19095           0.0000000000
    108801     20456  TIP3      OH2           -11.5548064955       33.9934564386      -40.5298683246  TIP3      19096           0.0000000000
    108802     20456  TIP3      H1            -10.5836068722       34.1253832352      -40.6574257199  TIP3      19096           0.0000000000
    108803     20456  TIP3      H2            -11.6916780128       33.3836076965      -41.2913217760  TIP3      19096           0.0000000000
    108804     20457  TIP3      OH2            -4.7359887361       33.4051462889      -37.7650468147  TIP3      19097           0.0000000000
    108805     20457  TIP3      H1             -5.0152206636       32.6421655333      -38.3321963860  TIP3      19097           0.0000000000
    108806     20457  TIP3      H2             -4.9080218179       34.1472337571      -38.3868210403  TIP3      19097           0.0000000000
    108807     20458  TIP3      OH2           -19.1615509482       17.4349176549      -26.1034324428  TIP3      19098           0.0000000000
    108808     20458  TIP3      H1            -19.5667175884       16.6476310518      -25.6983868800  TIP3      19098           0.0000000000
    108809     20458  TIP3      H2            -18.2508321859       17.4064609507      -25.7273759559  TIP3      19098           0.0000000000
    108810     20459  TIP3      OH2           -17.1565820261       16.7993840891      -24.4800273608  TIP3      19099           0.0000000000
    108811     20459  TIP3      H1            -16.2563580500       16.4950874788      -24.7125404948  TIP3      19099           0.0000000000
    108812     20459  TIP3      H2            -17.5355208466       16.0254560367      -24.0673810455  TIP3      19099           0.0000000000
    108813     20460  TIP3      OH2           -18.5407252770       33.6084144572      -41.8686735866  TIP3      19100           0.0000000000
    108814     20460  TIP3      H1            -18.8371505077       33.8582085911      -40.9895990876  TIP3      19100           0.0000000000
    108815     20460  TIP3      H2            -17.8048318901       33.0141418539      -41.6974229639  TIP3      19100           0.0000000000
    108816     20461  TIP3      OH2            -8.7571483636       16.1296706339      -24.3361065012  TIP3      19101           0.0000000000
    108817     20461  TIP3      H1             -8.6623595032       15.6744832201      -23.4797268693  TIP3      19101           0.0000000000
    108818     20461  TIP3      H2             -7.8409843106       16.0885928087      -24.6893264512  TIP3      19101           0.0000000000
    108819     20462  TIP3      OH2            -5.5474789928       32.1605242772      -25.6811812965  TIP3      19102           0.0000000000
    108820     20462  TIP3      H1             -6.3598389556       32.0250782506      -26.2139145259  TIP3      19102           0.0000000000
    108821     20462  TIP3      H2             -5.6656638298       33.1089559328      -25.4737518640  TIP3      19102           0.0000000000
    108822     20463  TIP3      OH2             8.8854007839       26.0409272009      -35.7024776161  TIP3      19103           0.0000000000
    108823     20463  TIP3      H1              8.8797580603       27.0212363423      -35.7415857920  TIP3      19103           0.0000000000
    108824     20463  TIP3      H2              8.1592997656       25.8063795560      -36.3054066949  TIP3      19103           0.0000000000
    108825     20464  TIP3      OH2             7.7421784369       25.2985380578      -32.1984463159  TIP3      19104           0.0000000000
    108826     20464  TIP3      H1              7.7302471162       24.6472318921      -31.4857919820  TIP3      19104           0.0000000000
    108827     20464  TIP3      H2              7.4016190819       24.7950485478      -32.9563651229  TIP3      19104           0.0000000000
    108828     20465  TIP3      OH2             0.1093096522       24.9517368571      -30.6515356651  TIP3      19105           0.0000000000
    108829     20465  TIP3      H1              0.1840037183       24.3021383389      -29.9345607269  TIP3      19105           0.0000000000
    108830     20465  TIP3      H2              0.8360924009       25.5585195823      -30.4382261333  TIP3      19105           0.0000000000
    108831     20466  TIP3      OH2            11.4341625912       28.2459608086      -33.9178924885  TIP3      19106           0.0000000000
    108832     20466  TIP3      H1             11.0167613407       27.5297707461      -33.4288959769  TIP3      19106           0.0000000000
    108833     20466  TIP3      H2             11.4544985058       28.9553208987      -33.2488990067  TIP3      19106           0.0000000000
    108834     20467  TIP3      OH2             1.0252224113       29.4195527332      -32.1413065991  TIP3      19107           0.0000000000
    108835     20467  TIP3      H1              0.7115666480       28.5535645562      -32.4652102804  TIP3      19107           0.0000000000
    108836     20467  TIP3      H2              1.9804991162       29.2344699216      -32.0961558370  TIP3      19107           0.0000000000
    108837     20468  TIP3      OH2            -2.3356620133       22.9822408210      -36.6588937878  TIP3      19108           0.0000000000
    108838     20468  TIP3      H1             -2.7758108947       23.8517349698      -36.7246435809  TIP3      19108           0.0000000000
    108839     20468  TIP3      H2             -2.9000482600       22.4396248158      -37.2259476590  TIP3      19108           0.0000000000
    108840     20469  TIP3      OH2            -1.6264349844       25.2055234982      -34.5150421793  TIP3      19109           0.0000000000
    108841     20469  TIP3      H1             -1.3586250436       24.3844509184      -34.0645912385  TIP3      19109           0.0000000000
    108842     20469  TIP3      H2             -0.9266067095       25.3076725986      -35.1775934969  TIP3      19109           0.0000000000
    108843     20470  TIP3      OH2             8.5387595801       33.4000253321      -33.6947028995  TIP3      19110           0.0000000000
    108844     20470  TIP3      H1              9.1959383955       32.7130668941      -33.9682957612  TIP3      19110           0.0000000000
    108845     20470  TIP3      H2              8.3391659468       33.0777062920      -32.8125977551  TIP3      19110           0.0000000000
    108846     20471  TIP3      OH2             6.1207462513       27.6995173397      -31.7364730719  TIP3      19111           0.0000000000
    108847     20471  TIP3      H1              6.4595586354       27.0685910616      -32.3897290373  TIP3      19111           0.0000000000
    108848     20471  TIP3      H2              6.9263512568       27.8552256107      -31.2134768586  TIP3      19111           0.0000000000
    108849     20472  TIP3      OH2            14.7209483241       19.3572586957      -31.0019164057  TIP3      19112           0.0000000000
    108850     20472  TIP3      H1             14.8933448689       19.9471643780      -30.2372481459  TIP3      19112           0.0000000000
    108851     20472  TIP3      H2             15.2824450955       19.7814909080      -31.6662419414  TIP3      19112           0.0000000000
    108852     20473  TIP3      OH2             9.2857036693       22.1667122755      -31.4190344262  TIP3      19113           0.0000000000
    108853     20473  TIP3      H1              9.4525056418       21.2072915555      -31.4169749635  TIP3      19113           0.0000000000
    108854     20473  TIP3      H2              9.1848068028       22.3088455648      -32.3803631882  TIP3      19113           0.0000000000
    108855     20474  TIP3      OH2             2.3971170863       20.2541688750      -34.1982911575  TIP3      19114           0.0000000000
    108856     20474  TIP3      H1              2.5080450143       21.0911786083      -34.6912246075  TIP3      19114           0.0000000000
    108857     20474  TIP3      H2              2.0019614376       19.6819450306      -34.8893358758  TIP3      19114           0.0000000000
    108858     20475  TIP3      OH2            10.1379027505       20.3340171827      -35.8277547681  TIP3      19115           0.0000000000
    108859     20475  TIP3      H1             10.7937380283       20.0221169023      -35.1615454039  TIP3      19115           0.0000000000
    108860     20475  TIP3      H2             10.6989549041       20.9060644594      -36.3728400737  TIP3      19115           0.0000000000
    108861     20476  TIP3      OH2            -0.9740238764       22.6609691307      -33.4654472504  TIP3      19116           0.0000000000
    108862     20476  TIP3      H1             -0.3027731276       22.1143248425      -33.0282613179  TIP3      19116           0.0000000000
    108863     20476  TIP3      H2             -0.8762602297       22.3552724125      -34.3800220732  TIP3      19116           0.0000000000
    108864     20477  TIP3      OH2             4.1837077355       24.2201095181      -34.1498320205  TIP3      19117           0.0000000000
    108865     20477  TIP3      H1              4.8544866201       23.6405890589      -33.7505748785  TIP3      19117           0.0000000000
    108866     20477  TIP3      H2              3.6664696921       23.5596185572      -34.6520808866  TIP3      19117           0.0000000000
    108867     20478  TIP3      OH2            15.1599667845       20.7625972264      -28.7217164662  TIP3      19118           0.0000000000
    108868     20478  TIP3      H1             14.5520411171       21.5246287393      -28.8306123364  TIP3      19118           0.0000000000
    108869     20478  TIP3      H2             15.1939057037       20.6738513694      -27.7607740778  TIP3      19118           0.0000000000
    108870     20479  TIP3      OH2             1.3059834106       19.1664543896      -30.0798681151  TIP3      19119           0.0000000000
    108871     20479  TIP3      H1              1.0592430300       19.6764578446      -30.9053073539  TIP3      19119           0.0000000000
    108872     20479  TIP3      H2              0.5318789335       19.3958234044      -29.5191067123  TIP3      19119           0.0000000000
    108873     20480  TIP3      OH2             8.5990353014       28.6376700634      -36.6178624456  TIP3      19120           0.0000000000
    108874     20480  TIP3      H1              8.3199408788       28.3509107953      -37.4988506259  TIP3      19120           0.0000000000
    108875     20480  TIP3      H2              8.2909592305       29.5696337122      -36.5642994950  TIP3      19120           0.0000000000
    108876     20481  TIP3      OH2             3.8270687158       26.8049604898      -29.9181071765  TIP3      19121           0.0000000000
    108877     20481  TIP3      H1              3.1158930859       27.4444942463      -29.7043974300  TIP3      19121           0.0000000000
    108878     20481  TIP3      H2              4.5320629274       27.3999119342      -30.2084693492  TIP3      19121           0.0000000000
    108879     20482  TIP3      OH2            11.9452952737       19.6787103027      -33.8409411944  TIP3      19122           0.0000000000
    108880     20482  TIP3      H1             11.7294737111       18.9120470652      -33.3022655081  TIP3      19122           0.0000000000
    108881     20482  TIP3      H2             12.6197508607       20.1182660149      -33.2974147917  TIP3      19122           0.0000000000
    108882     20483  TIP3      OH2             0.9146018597       20.9773130799      -32.0838339246  TIP3      19123           0.0000000000
    108883     20483  TIP3      H1              1.5048101477       21.7230843255      -31.8524009303  TIP3      19123           0.0000000000
    108884     20483  TIP3      H2              1.3808287000       20.6111486357      -32.8852873953  TIP3      19123           0.0000000000
    108885     20484  TIP3      OH2             2.2704303886       28.8002654871      -29.0968726711  TIP3      19124           0.0000000000
    108886     20484  TIP3      H1              2.2237843707       29.7113528072      -29.4422323759  TIP3      19124           0.0000000000
    108887     20484  TIP3      H2              1.3871886277       28.7219622114      -28.6547355377  TIP3      19124           0.0000000000
    108888     20485  TIP3      OH2            -1.6768492408       28.4086994978      -38.3177001009  TIP3      19125           0.0000000000
    108889     20485  TIP3      H1             -1.8897253416       28.7395699747      -39.2177262107  TIP3      19125           0.0000000000
    108890     20485  TIP3      H2             -1.5982331221       29.2439041391      -37.8114293863  TIP3      19125           0.0000000000
    108891     20486  TIP3      OH2            11.9611197092       30.0841228415      -31.5500540406  TIP3      19126           0.0000000000
    108892     20486  TIP3      H1             10.9923819138       30.1934138250      -31.4308246455  TIP3      19126           0.0000000000
    108893     20486  TIP3      H2             12.2297051876       31.0010307692      -31.7506529084  TIP3      19126           0.0000000000
    108894     20487  TIP3      OH2            12.2837437056       18.3672272858      -30.1598192929  TIP3      19127           0.0000000000
    108895     20487  TIP3      H1             11.5571108680       18.9996723564      -30.2467396434  TIP3      19127           0.0000000000
    108896     20487  TIP3      H2             12.9939130095       18.7866045861      -30.6839891445  TIP3      19127           0.0000000000
    108897     20488  TIP3      OH2             5.2533260931       16.4895136818      -32.6758757679  TIP3      19128           0.0000000000
    108898     20488  TIP3      H1              5.1243070856       15.5262616710      -32.7811411909  TIP3      19128           0.0000000000
    108899     20488  TIP3      H2              4.3687375362       16.7901566167      -32.4076964110  TIP3      19128           0.0000000000
    108900     20489  TIP3      OH2            10.2208038626       31.8679313690      -34.9588384984  TIP3      19129           0.0000000000
    108901     20489  TIP3      H1             10.6495097081       31.1492415213      -35.4671304999  TIP3      19129           0.0000000000
    108902     20489  TIP3      H2             10.6448322351       32.6587582889      -35.3546625204  TIP3      19129           0.0000000000
    108903     20490  TIP3      OH2            11.4293973052       29.7943658148      -36.4454016647  TIP3      19130           0.0000000000
    108904     20490  TIP3      H1             11.1419867231       29.0977991218      -37.0593694824  TIP3      19130           0.0000000000
    108905     20490  TIP3      H2             11.4635689441       29.3029275820      -35.6041921853  TIP3      19130           0.0000000000
    108906     20491  TIP3      OH2            13.0440813121       28.3880678816      -27.9517722111  TIP3      19131           0.0000000000
    108907     20491  TIP3      H1             13.1963362222       27.7366970376      -28.6722705981  TIP3      19131           0.0000000000
    108908     20491  TIP3      H2             13.2524989758       29.2336401033      -28.3866884263  TIP3      19131           0.0000000000
    108909     20492  TIP3      OH2             7.5430449073       25.2702132977      -38.1868932957  TIP3      19132           0.0000000000
    108910     20492  TIP3      H1              6.8482966409       25.8452214248      -38.5489962391  TIP3      19132           0.0000000000
    108911     20492  TIP3      H2              8.2526521716       25.3661166752      -38.8497077514  TIP3      19132           0.0000000000
    108912     20493  TIP3      OH2             7.6177245823       23.8246492713      -41.1303231765  TIP3      19133           0.0000000000
    108913     20493  TIP3      H1              8.3386974220       23.8208617979      -40.4755080103  TIP3      19133           0.0000000000
    108914     20493  TIP3      H2              7.9059261671       23.1270668724      -41.7240505372  TIP3      19133           0.0000000000
    108915     20494  TIP3      OH2            14.9340567083       24.6994188835      -29.9037403557  TIP3      19134           0.0000000000
    108916     20494  TIP3      H1             14.2734397482       25.4199883436      -29.8640924736  TIP3      19134           0.0000000000
    108917     20494  TIP3      H2             15.4251048723       24.9313017630      -30.7122139238  TIP3      19134           0.0000000000
    108918     20495  TIP3      OH2            10.9986184709       25.5054263076      -37.2485726045  TIP3      19135           0.0000000000
    108919     20495  TIP3      H1             10.2425604268       25.7345276402      -36.6560553982  TIP3      19135           0.0000000000
    108920     20495  TIP3      H2             11.4603005750       24.8125185123      -36.7431035100  TIP3      19135           0.0000000000
    108921     20496  TIP3      OH2            10.9184613734       23.6547736049      -28.1397947229  TIP3      19136           0.0000000000
    108922     20496  TIP3      H1             10.9215589128       24.4710431436      -27.6104534589  TIP3      19136           0.0000000000
    108923     20496  TIP3      H2             10.2913092990       23.9486679431      -28.8330088305  TIP3      19136           0.0000000000
    108924     20497  TIP3      OH2             2.5999538936       26.1447899108      -35.3389767339  TIP3      19137           0.0000000000
    108925     20497  TIP3      H1              2.2855614019       25.7631228929      -36.1954055720  TIP3      19137           0.0000000000
    108926     20497  TIP3      H2              3.2210528948       25.4527954950      -35.0121721534  TIP3      19137           0.0000000000
    108927     20498  TIP3      OH2             3.9246359029       29.5364405533      -32.6612669469  TIP3      19138           0.0000000000
    108928     20498  TIP3      H1              3.9140131839       29.0094790006      -33.4705944407  TIP3      19138           0.0000000000
    108929     20498  TIP3      H2              4.7118377394       29.1767340472      -32.2127031778  TIP3      19138           0.0000000000
    108930     20499  TIP3      OH2             2.9442710267       24.8682071918      -31.6610302081  TIP3      19139           0.0000000000
    108931     20499  TIP3      H1              3.4744968721       24.9872329038      -32.4765423449  TIP3      19139           0.0000000000
    108932     20499  TIP3      H2              3.3210789128       25.5692322300      -31.0825350801  TIP3      19139           0.0000000000
    108933     20500  TIP3      OH2             9.3493522784       30.4649465770      -30.9806319629  TIP3      19140           0.0000000000
    108934     20500  TIP3      H1              9.0599191469       31.1009904965      -30.3220292279  TIP3      19140           0.0000000000
    108935     20500  TIP3      H2              9.0906580076       29.6105272560      -30.5576655823  TIP3      19140           0.0000000000
    108936     20501  TIP3      OH2             3.8884539334       29.3183543108      -26.9921993461  TIP3      19141           0.0000000000
    108937     20501  TIP3      H1              3.4837916519       30.0659818936      -26.5069376322  TIP3      19141           0.0000000000
    108938     20501  TIP3      H2              3.2122936041       29.1285523861      -27.6888097865  TIP3      19141           0.0000000000
    108939     20502  TIP3      OH2             9.8685603688       24.6743147730      -39.5840819181  TIP3      19142           0.0000000000
    108940     20502  TIP3      H1             10.4251772815       24.8609428740      -38.7867985408  TIP3      19142           0.0000000000
    108941     20502  TIP3      H2             10.2847922788       25.1953588124      -40.3032312961  TIP3      19142           0.0000000000
    108942     20503  TIP3      OH2             0.8119556013       25.4706386282      -27.8382313630  TIP3      19143           0.0000000000
    108943     20503  TIP3      H1              0.8788507398       26.1423900918      -27.1260766804  TIP3      19143           0.0000000000
    108944     20503  TIP3      H2             -0.1247160571       25.6008969649      -28.0547260562  TIP3      19143           0.0000000000
    108945     20504  TIP3      OH2             7.5798413788       31.4137786722      -36.1261868687  TIP3      19144           0.0000000000
    108946     20504  TIP3      H1              8.0153808731       31.7216067210      -35.3230228805  TIP3      19144           0.0000000000
    108947     20504  TIP3      H2              7.0219871550       32.1626726609      -36.3626584131  TIP3      19144           0.0000000000
    108948     20505  TIP3      OH2             2.1312669297       31.3433503928      -26.2941100142  TIP3      19145           0.0000000000
    108949     20505  TIP3      H1              2.0532974922       31.2448114159      -27.2565539361  TIP3      19145           0.0000000000
    108950     20505  TIP3      H2              1.2151146200       31.2305469026      -25.9628492073  TIP3      19145           0.0000000000
    108951     20506  TIP3      OH2            13.5858884222       16.4211721533      -39.6927372333  TIP3      19146           0.0000000000
    108952     20506  TIP3      H1             12.6335825331       16.5351609758      -39.4595137268  TIP3      19146           0.0000000000
    108953     20506  TIP3      H2             13.7948468173       17.2689928077      -40.1161518216  TIP3      19146           0.0000000000
    108954     20507  TIP3      OH2             1.5615370410       25.1786764175      -37.7146552778  TIP3      19147           0.0000000000
    108955     20507  TIP3      H1              1.2893484455       25.9514778030      -38.2541008587  TIP3      19147           0.0000000000
    108956     20507  TIP3      H2              0.9226094745       24.5085784959      -37.9679037180  TIP3      19147           0.0000000000
    108957     20508  TIP3      OH2            14.6831237717       30.7736837634      -41.2578915711  TIP3      19148           0.0000000000
    108958     20508  TIP3      H1             14.8297348913       31.7324835097      -41.2180606285  TIP3      19148           0.0000000000
    108959     20508  TIP3      H2             15.5954270902       30.4768404876      -41.4350295331  TIP3      19148           0.0000000000
    108960     20509  TIP3      OH2            -2.3291859434       27.5975429836      -28.8498774817  TIP3      19149           0.0000000000
    108961     20509  TIP3      H1             -2.7850356317       27.5190865530      -29.7051581331  TIP3      19149           0.0000000000
    108962     20509  TIP3      H2             -2.2610533920       26.6515553045      -28.6246988700  TIP3      19149           0.0000000000
    108963     20510  TIP3      OH2            -2.5764270873       30.3448125851      -32.0667406768  TIP3      19150           0.0000000000
    108964     20510  TIP3      H1             -1.6188407101       30.2218456475      -32.0778563251  TIP3      19150           0.0000000000
    108965     20510  TIP3      H2             -2.6581417668       31.1539640594      -31.5471099128  TIP3      19150           0.0000000000
    108966     20511  TIP3      OH2            15.6547656948       31.0379788324      -26.3898307529  TIP3      19151           0.0000000000
    108967     20511  TIP3      H1             15.5498181690       30.0743998210      -26.3739539868  TIP3      19151           0.0000000000
    108968     20511  TIP3      H2             14.7957310483       31.2872099002      -25.9652470604  TIP3      19151           0.0000000000
    108969     20512  TIP3      OH2             6.6173185656       30.5779435425      -27.5202251958  TIP3      19152           0.0000000000
    108970     20512  TIP3      H1              6.6868036287       31.4157244587      -27.0010553854  TIP3      19152           0.0000000000
    108971     20512  TIP3      H2              5.7487834152       30.2277804009      -27.2482219627  TIP3      19152           0.0000000000
    108972     20513  TIP3      OH2             7.0492742966       34.3261654006      -37.7093805105  TIP3      19153           0.0000000000
    108973     20513  TIP3      H1              6.9645224025       34.2577849804      -38.6729822595  TIP3      19153           0.0000000000
    108974     20513  TIP3      H2              7.0845965276       35.2900912350      -37.5577880216  TIP3      19153           0.0000000000
    108975     20514  TIP3      OH2             0.6568021508       33.2364607506      -35.9101670980  TIP3      19154           0.0000000000
    108976     20514  TIP3      H1              0.8640646885       32.8063835663      -35.0407991255  TIP3      19154           0.0000000000
    108977     20514  TIP3      H2             -0.1588332530       32.7352262166      -36.0907055676  TIP3      19154           0.0000000000
    108978     20515  TIP3      OH2            10.0679173449       33.5129443907      -40.7585070488  TIP3      19155           0.0000000000
    108979     20515  TIP3      H1             10.5736466127       32.7771214604      -41.1725986826  TIP3      19155           0.0000000000
    108980     20515  TIP3      H2             10.1551028392       33.2723526511      -39.8155336176  TIP3      19155           0.0000000000
    108981     20516  TIP3      OH2             9.8044509087       33.4751217210      -37.9508560154  TIP3      19156           0.0000000000
    108982     20516  TIP3      H1              8.8485572632       33.5412520447      -37.7615971851  TIP3      19156           0.0000000000
    108983     20516  TIP3      H2             10.0526983243       32.7283609987      -37.3860270094  TIP3      19156           0.0000000000
    108984     20517  TIP3      OH2            12.8407329111       22.4964534834      -25.9355560133  TIP3      19157           0.0000000000
    108985     20517  TIP3      H1             12.3254804186       22.9596190844      -26.6152177217  TIP3      19157           0.0000000000
    108986     20517  TIP3      H2             12.7958194408       21.5774818405      -26.2256711803  TIP3      19157           0.0000000000
    108987     20518  TIP3      OH2            -0.0486795777       28.9069672437      -27.8847771853  TIP3      19158           0.0000000000
    108988     20518  TIP3      H1              0.1630788564       28.5385428063      -26.9976318784  TIP3      19158           0.0000000000
    108989     20518  TIP3      H2             -0.9191542905       28.5165358681      -28.1066589989  TIP3      19158           0.0000000000
    108990     20519  TIP3      OH2             2.5982136292       17.3746882098      -31.8689879237  TIP3      19159           0.0000000000
    108991     20519  TIP3      H1              1.7372146661       17.2715434106      -32.3428328519  TIP3      19159           0.0000000000
    108992     20519  TIP3      H2              2.5069205118       18.2661415537      -31.5191488803  TIP3      19159           0.0000000000
    108993     20520  TIP3      OH2             7.2457375727       17.0564068439      -28.5794934096  TIP3      19160           0.0000000000
    108994     20520  TIP3      H1              7.6690485179       16.6386551303      -27.8019573005  TIP3      19160           0.0000000000
    108995     20520  TIP3      H2              6.2888167524       16.9243140386      -28.4112484776  TIP3      19160           0.0000000000
    108996     20521  TIP3      OH2            10.5666570306       20.9005721408      -27.6824548293  TIP3      19161           0.0000000000
    108997     20521  TIP3      H1             10.0017834178       20.6906633302      -26.8972581823  TIP3      19161           0.0000000000
    108998     20521  TIP3      H2             10.3785631705       21.8262853566      -27.9084697180  TIP3      19161           0.0000000000
    108999     20522  TIP3      OH2            11.3198982772       25.6953251512      -41.8900466826  TIP3      19162           0.0000000000
    109000     20522  TIP3      H1             11.3354962213       25.5210723227      -42.8436654380  TIP3      19162           0.0000000000
    109001     20522  TIP3      H2             12.1580193711       26.1580538529      -41.7382992831  TIP3      19162           0.0000000000
    109002     20523  TIP3      OH2             6.9033833727       19.6287376154      -41.2384225426  TIP3      19163           0.0000000000
    109003     20523  TIP3      H1              6.5884570037       19.5872871153      -40.3176032431  TIP3      19163           0.0000000000
    109004     20523  TIP3      H2              6.6309997744       18.7521416892      -41.5240432847  TIP3      19163           0.0000000000
    109005     20524  TIP3      OH2             2.7308973654       22.3576048978      -30.6425883808  TIP3      19164           0.0000000000
    109006     20524  TIP3      H1              1.9339701169       22.4065573162      -30.1002875104  TIP3      19164           0.0000000000
    109007     20524  TIP3      H2              2.7117844143       23.2477094877      -31.0784392035  TIP3      19164           0.0000000000
    109008     20525  TIP3      OH2             2.6898770355       22.4862354372      -35.8307607721  TIP3      19165           0.0000000000
    109009     20525  TIP3      H1              1.7535631600       22.2283934616      -35.9633888530  TIP3      19165           0.0000000000
    109010     20525  TIP3      H2              3.0700314686       22.1905172793      -36.6833778532  TIP3      19165           0.0000000000
    109011     20526  TIP3      OH2             8.2097891093       22.9797150255      -37.0551879936  TIP3      19166           0.0000000000
    109012     20526  TIP3      H1              7.8042293524       23.8065799672      -37.4043948609  TIP3      19166           0.0000000000
    109013     20526  TIP3      H2              8.8936607804       22.8175353937      -37.7308845769  TIP3      19166           0.0000000000
    109014     20527  TIP3      OH2             7.2799591563       23.1960774859      -25.6266551643  TIP3      19167           0.0000000000
    109015     20527  TIP3      H1              6.7583879617       22.4267815544      -25.3005771671  TIP3      19167           0.0000000000
    109016     20527  TIP3      H2              8.1092865131       23.0785491799      -25.1315549544  TIP3      19167           0.0000000000
    109017     20528  TIP3      OH2             9.2427081030       22.4714389459      -34.2149445086  TIP3      19168           0.0000000000
    109018     20528  TIP3      H1              8.9652608876       23.0346395748      -34.9566841387  TIP3      19168           0.0000000000
    109019     20528  TIP3      H2              9.3456548866       21.6223800148      -34.6867466398  TIP3      19168           0.0000000000
    109020     20529  TIP3      OH2             0.4120535982       22.5522168819      -28.9753081683  TIP3      19169           0.0000000000
    109021     20529  TIP3      H1              0.3282333757       23.1052693012      -28.1664921485  TIP3      19169           0.0000000000
    109022     20529  TIP3      H2             -0.2472959891       21.8542788569      -28.8645371270  TIP3      19169           0.0000000000
    109023     20530  TIP3      OH2             3.7311208336       19.9629756093      -42.1770448143  TIP3      19170           0.0000000000
    109024     20530  TIP3      H1              3.2805411051       19.5820341127      -41.4061083902  TIP3      19170           0.0000000000
    109025     20530  TIP3      H2              3.0373776999       20.4258954339      -42.6613027257  TIP3      19170           0.0000000000
    109026     20531  TIP3      OH2            -2.9895693385       19.7285475618      -35.0350800305  TIP3      19171           0.0000000000
    109027     20531  TIP3      H1             -2.3120417392       19.6896852333      -34.3277281536  TIP3      19171           0.0000000000
    109028     20531  TIP3      H2             -2.5374625083       19.3445884816      -35.8060463420  TIP3      19171           0.0000000000
    109029     20532  TIP3      OH2            -1.7083007739       20.4548435911      -39.6337670864  TIP3      19172           0.0000000000
    109030     20532  TIP3      H1             -1.2088547783       21.0445443666      -40.2369315185  TIP3      19172           0.0000000000
    109031     20532  TIP3      H2             -2.3994980269       21.0823552904      -39.3333033169  TIP3      19172           0.0000000000
    109032     20533  TIP3      OH2             8.4385160684       24.0573381688      -29.6517634259  TIP3      19173           0.0000000000
    109033     20533  TIP3      H1              8.8205266370       23.3763162364      -30.2424231726  TIP3      19173           0.0000000000
    109034     20533  TIP3      H2              7.9810874954       23.5274842260      -28.9790000109  TIP3      19173           0.0000000000
    109035     20534  TIP3      OH2             5.2447218765       20.0320416545      -34.8082422115  TIP3      19174           0.0000000000
    109036     20534  TIP3      H1              4.3102947073       20.0383518552      -34.5227928459  TIP3      19174           0.0000000000
    109037     20534  TIP3      H2              5.7302778604       19.8700630665      -33.9884660161  TIP3      19174           0.0000000000
    109038     20535  TIP3      OH2             0.0549060519       21.5859125560      -35.9509672389  TIP3      19175           0.0000000000
    109039     20535  TIP3      H1             -0.8288458891       21.7391805396      -36.3437689102  TIP3      19175           0.0000000000
    109040     20535  TIP3      H2              0.3422968241       20.7531809406      -36.3610131427  TIP3      19175           0.0000000000
    109041     20536  TIP3      OH2             3.6904437470       21.6488376235      -38.3053732110  TIP3      19176           0.0000000000
    109042     20536  TIP3      H1              4.6521026237       21.7385348203      -38.1659018463  TIP3      19176           0.0000000000
    109043     20536  TIP3      H2              3.4617850202       22.2936893733      -39.0018262291  TIP3      19176           0.0000000000
    109044     20537  TIP3      OH2             9.6505902459       19.2679660606      -31.5818655978  TIP3      19177           0.0000000000
    109045     20537  TIP3      H1              8.9681375260       19.3234742663      -30.8776969095  TIP3      19177           0.0000000000
    109046     20537  TIP3      H2              9.1433692754       19.0194631943      -32.3672159727  TIP3      19177           0.0000000000
    109047     20538  TIP3      OH2             2.4166332865       22.8144106946      -40.7025657319  TIP3      19178           0.0000000000
    109048     20538  TIP3      H1              1.8567573820       22.4585838030      -41.4145875168  TIP3      19178           0.0000000000
    109049     20538  TIP3      H2              3.2172988522       23.0320132947      -41.2046076020  TIP3      19178           0.0000000000
    109050     20539  TIP3      OH2            12.8711257180       34.9012375526      -25.2536083476  TIP3      19179           0.0000000000
    109051     20539  TIP3      H1             13.1399126879       35.3053091800      -26.0988594168  TIP3      19179           0.0000000000
    109052     20539  TIP3      H2             13.5711499270       35.2259011583      -24.6654263805  TIP3      19179           0.0000000000
    109053     20540  TIP3      OH2             0.5309376678       27.4060362595      -25.6902973557  TIP3      19180           0.0000000000
    109054     20540  TIP3      H1              1.2330964230       27.6341931042      -25.0613594216  TIP3      19180           0.0000000000
    109055     20540  TIP3      H2             -0.2564217002       27.4760396549      -25.1052692019  TIP3      19180           0.0000000000
    109056     20541  TIP3      OH2             6.5283176740       22.7901267111      -32.9275960737  TIP3      19181           0.0000000000
    109057     20541  TIP3      H1              7.1228569913       22.2534081832      -33.4651334290  TIP3      19181           0.0000000000
    109058     20541  TIP3      H2              6.3871423205       22.2425808203      -32.1470976512  TIP3      19181           0.0000000000
    109059     20542  TIP3      OH2             1.5421892980       18.9341596644      -36.4913147387  TIP3      19182           0.0000000000
    109060     20542  TIP3      H1              1.2306244179       18.0110100893      -36.5064195270  TIP3      19182           0.0000000000
    109061     20542  TIP3      H2              2.3283068824       18.8704737131      -37.0486495978  TIP3      19182           0.0000000000
    109062     20543  TIP3      OH2             5.1177424856       21.0685937889      -30.4415789197  TIP3      19183           0.0000000000
    109063     20543  TIP3      H1              4.3599780332       21.6809181072      -30.4509559972  TIP3      19183           0.0000000000
    109064     20543  TIP3      H2              5.7428705865       21.4853287399      -29.8123439128  TIP3      19183           0.0000000000
    109065     20544  TIP3      OH2             5.7566825883       27.3508456155      -38.8355567475  TIP3      19184           0.0000000000
    109066     20544  TIP3      H1              4.9571274647       26.8719840031      -39.1465187841  TIP3      19184           0.0000000000
    109067     20544  TIP3      H2              5.5482258570       27.4516498134      -37.8856146631  TIP3      19184           0.0000000000
    109068     20545  TIP3      OH2            12.9377119138       26.5397770151      -30.0152244917  TIP3      19185           0.0000000000
    109069     20545  TIP3      H1             13.5048897484       27.0223276845      -30.6428790797  TIP3      19185           0.0000000000
    109070     20545  TIP3      H2             12.0785866987       26.5927403638      -30.4812182806  TIP3      19185           0.0000000000
    109071     20546  TIP3      OH2             9.5895503272       20.1262300255      -40.5992818303  TIP3      19186           0.0000000000
    109072     20546  TIP3      H1              8.6535949005       20.2856994733      -40.8074194085  TIP3      19186           0.0000000000
    109073     20546  TIP3      H2              9.9175147088       21.0065282140      -40.3301727760  TIP3      19186           0.0000000000
    109074     20547  TIP3      OH2             7.2475279519       27.6014138088      -27.5948290993  TIP3      19187           0.0000000000
    109075     20547  TIP3      H1              6.9116188228       27.1819471744      -26.7941031747  TIP3      19187           0.0000000000
    109076     20547  TIP3      H2              7.0010919196       28.5261074265      -27.4772120088  TIP3      19187           0.0000000000
    109077     20548  TIP3      OH2            10.3277690167       22.0768034643      -38.9674610617  TIP3      19188           0.0000000000
    109078     20548  TIP3      H1             11.2213593664       21.9357231848      -38.5958172811  TIP3      19188           0.0000000000
    109079     20548  TIP3      H2             10.4174532224       22.8872565579      -39.4920056285  TIP3      19188           0.0000000000
    109080     20549  TIP3      OH2             0.8678281440       26.7336983450      -33.0141582215  TIP3      19189           0.0000000000
    109081     20549  TIP3      H1              1.5539596405       26.6541127244      -33.7052066737  TIP3      19189           0.0000000000
    109082     20549  TIP3      H2              0.9260428942       25.8738121878      -32.5627426929  TIP3      19189           0.0000000000
    109083     20550  TIP3      OH2             7.8460445291       28.8135996486      -39.7624941078  TIP3      19190           0.0000000000
    109084     20550  TIP3      H1              7.5020472770       29.6613656121      -39.4047768086  TIP3      19190           0.0000000000
    109085     20550  TIP3      H2              7.1060603454       28.1975956308      -39.5493907082  TIP3      19190           0.0000000000
    109086     20551  TIP3      OH2            -2.1216187251       25.1118883493      -27.7708662756  TIP3      19191           0.0000000000
    109087     20551  TIP3      H1             -1.9913443199       24.7101189091      -26.8895761356  TIP3      19191           0.0000000000
    109088     20551  TIP3      H2             -2.7893001161       24.5315457235      -28.1798407536  TIP3      19191           0.0000000000
    109089     20552  TIP3      OH2             4.8638610458       24.7001554537      -25.5661249444  TIP3      19192           0.0000000000
    109090     20552  TIP3      H1              4.5806924462       24.4167289117      -26.4461249274  TIP3      19192           0.0000000000
    109091     20552  TIP3      H2              5.7894563864       24.3838253904      -25.5463463538  TIP3      19192           0.0000000000
    109092     20553  TIP3      OH2             9.5490674395       30.0322689647      -27.6292883361  TIP3      19193           0.0000000000
    109093     20553  TIP3      H1              8.6237330536       30.2131921124      -27.8619113910  TIP3      19193           0.0000000000
    109094     20553  TIP3      H2              9.5177285228       30.3265070061      -26.6979893076  TIP3      19193           0.0000000000
    109095     20554  TIP3      OH2            15.2184607038       22.2158190342      -39.2250495673  TIP3      19194           0.0000000000
    109096     20554  TIP3      H1             14.6502692031       21.9160925068      -39.9633051406  TIP3      19194           0.0000000000
    109097     20554  TIP3      H2             15.2945236945       23.1546548428      -39.5017559154  TIP3      19194           0.0000000000
    109098     20555  TIP3      OH2            15.1969885713       28.0820695325      -26.4414385637  TIP3      19195           0.0000000000
    109099     20555  TIP3      H1             14.3083452885       28.2946103043      -26.8122178427  TIP3      19195           0.0000000000
    109100     20555  TIP3      H2             15.7552445198       28.0264363271      -27.2445722076  TIP3      19195           0.0000000000
    109101     20556  TIP3      OH2            13.5189750887       31.0418739939      -38.8264181149  TIP3      19196           0.0000000000
    109102     20556  TIP3      H1             13.1445217927       30.2134173371      -38.5049919543  TIP3      19196           0.0000000000
    109103     20556  TIP3      H2             13.8134234134       30.8518763742      -39.7440691504  TIP3      19196           0.0000000000
    109104     20557  TIP3      OH2            10.7185045377       25.8596785553      -31.7347560411  TIP3      19197           0.0000000000
    109105     20557  TIP3      H1              9.7780844592       25.6510835979      -31.8463882616  TIP3      19197           0.0000000000
    109106     20557  TIP3      H2             11.1488172560       25.0967309078      -32.1645764296  TIP3      19197           0.0000000000
    109107     20558  TIP3      OH2             3.2484628907       30.1804519655      -35.6240502081  TIP3      19198           0.0000000000
    109108     20558  TIP3      H1              3.7526017007       30.9797223178      -35.8338441256  TIP3      19198           0.0000000000
    109109     20558  TIP3      H2              2.3681196039       30.4004345116      -35.9556761534  TIP3      19198           0.0000000000
    109110     20559  TIP3      OH2            -1.0271534796       25.0359778773      -41.1224289900  TIP3      19199           0.0000000000
    109111     20559  TIP3      H1             -0.4114499624       25.6622817049      -40.7016601091  TIP3      19199           0.0000000000
    109112     20559  TIP3      H2             -1.8878651596       25.3245415671      -40.7643851403  TIP3      19199           0.0000000000
    109113     20560  TIP3      OH2             4.6545036101       27.8553155298      -36.1208610812  TIP3      19200           0.0000000000
    109114     20560  TIP3      H1              4.3473636869       28.7797233371      -36.0278947249  TIP3      19200           0.0000000000
    109115     20560  TIP3      H2              3.9352347563       27.3671280614      -35.6720031054  TIP3      19200           0.0000000000
    109116     20561  TIP3      OH2             5.1053650905       32.0367132732      -29.7069987460  TIP3      19201           0.0000000000
    109117     20561  TIP3      H1              5.5626440389       32.8457298623      -29.9909868914  TIP3      19201           0.0000000000
    109118     20561  TIP3      H2              5.7193757054       31.6982103363      -29.0283577586  TIP3      19201           0.0000000000
    109119     20562  TIP3      OH2             3.3104710797       32.8708197453      -36.6048166397  TIP3      19202           0.0000000000
    109120     20562  TIP3      H1              2.3593769112       32.9652444510      -36.4109482210  TIP3      19202           0.0000000000
    109121     20562  TIP3      H2              3.7088839023       33.6741700700      -36.2192170838  TIP3      19202           0.0000000000
    109122     20563  TIP3      OH2             8.6281051089       28.0405067103      -30.0964073025  TIP3      19203           0.0000000000
    109123     20563  TIP3      H1              8.3015826599       27.8512386006      -29.1911063925  TIP3      19203           0.0000000000
    109124     20563  TIP3      H2              9.2713090606       27.3309871846      -30.2549038757  TIP3      19203           0.0000000000
    109125     20564  TIP3      OH2            10.9217007906       29.0851478148      -40.9791282187  TIP3      19204           0.0000000000
    109126     20564  TIP3      H1             11.2541760911       28.6321570152      -40.1820163092  TIP3      19204           0.0000000000
    109127     20564  TIP3      H2              9.9713421464       28.9210169796      -40.8921518870  TIP3      19204           0.0000000000
    109128     20565  TIP3      OH2            11.4368023179       32.6295520061      -27.5827265437  TIP3      19205           0.0000000000
    109129     20565  TIP3      H1             10.7545795896       32.1250396214      -28.0650931632  TIP3      19205           0.0000000000
    109130     20565  TIP3      H2             11.6286155550       33.3191397269      -28.2527059066  TIP3      19205           0.0000000000
    109131     20566  TIP3      OH2            15.4330698091       33.4994170462      -40.7735112398  TIP3      19206           0.0000000000
    109132     20566  TIP3      H1             16.1462342075       34.1312222393      -40.9647006858  TIP3      19206           0.0000000000
    109133     20566  TIP3      H2             14.7205694816       34.0932663381      -40.4518182076  TIP3      19206           0.0000000000
    109134     20567  TIP3      OH2            -0.4428344358       19.8860058259      -28.1660752426  TIP3      19207           0.0000000000
    109135     20567  TIP3      H1             -1.3732276295       20.2152459043      -28.2371607174  TIP3      19207           0.0000000000
    109136     20567  TIP3      H2             -0.6402949798       19.0250860859      -27.7377532839  TIP3      19207           0.0000000000
    109137     20568  TIP3      OH2            11.7455544797       27.7373803823      -38.7462857693  TIP3      19208           0.0000000000
    109138     20568  TIP3      H1             11.5007566554       26.9499365828      -38.2142965791  TIP3      19208           0.0000000000
    109139     20568  TIP3      H2             12.6957032156       27.7909698800      -38.5588306829  TIP3      19208           0.0000000000
    109140     20569  TIP3      OH2            -0.8794052399       31.6625206414      -29.7754350108  TIP3      19209           0.0000000000
    109141     20569  TIP3      H1             -0.5855604774       30.7370169208      -29.7707905690  TIP3      19209           0.0000000000
    109142     20569  TIP3      H2             -0.6176964135       31.9495473891      -28.8957674123  TIP3      19209           0.0000000000
    109143     20570  TIP3      OH2             5.0911177858       30.1481351735      -42.5304399431  TIP3      19210           0.0000000000
    109144     20570  TIP3      H1              5.2336370279       29.3842162080      -43.0874702737  TIP3      19210           0.0000000000
    109145     20570  TIP3      H2              4.6550272800       29.7803025419      -41.7312449106  TIP3      19210           0.0000000000
    109146     20571  TIP3      OH2             3.8853089636       29.7142976331      -40.0614999062  TIP3      19211           0.0000000000
    109147     20571  TIP3      H1              4.1217985570       29.1940791780      -39.2852409723  TIP3      19211           0.0000000000
    109148     20571  TIP3      H2              3.9604660069       30.6421824127      -39.7540557752  TIP3      19211           0.0000000000
    109149     20572  TIP3      OH2             0.3883826674       26.9552920081      -39.5945914085  TIP3      19212           0.0000000000
    109150     20572  TIP3      H1             -0.2944008468       27.3578524817      -39.0177321044  TIP3      19212           0.0000000000
    109151     20572  TIP3      H2              0.9179210603       27.7290514936      -39.8497538377  TIP3      19212           0.0000000000
    109152     20573  TIP3      OH2             8.2417234950       19.6442713604      -29.2658654671  TIP3      19213           0.0000000000
    109153     20573  TIP3      H1              8.9473151693       19.7067556008      -28.6099671724  TIP3      19213           0.0000000000
    109154     20573  TIP3      H2              7.8500107054       18.7736876934      -29.0524867743  TIP3      19213           0.0000000000
    109155     20574  TIP3      OH2             8.9698256210       19.2300800048      -38.1394507345  TIP3      19214           0.0000000000
    109156     20574  TIP3      H1              9.2201215142       19.6829153121      -38.9736074210  TIP3      19214           0.0000000000
    109157     20574  TIP3      H2              9.5657304856       19.6607578879      -37.5169479255  TIP3      19214           0.0000000000
    109158     20575  TIP3      OH2             6.6682547915       31.3774112835      -39.3724666858  TIP3      19215           0.0000000000
    109159     20575  TIP3      H1              5.8542044557       31.9022676034      -39.2684254823  TIP3      19215           0.0000000000
    109160     20575  TIP3      H2              7.1935496617       31.9163865934      -39.9800557397  TIP3      19215           0.0000000000
    109161     20576  TIP3      OH2             6.2118076137       20.9695874693      -37.3360594035  TIP3      19216           0.0000000000
    109162     20576  TIP3      H1              6.9985308102       21.5471927830      -37.3008116286  TIP3      19216           0.0000000000
    109163     20576  TIP3      H2              5.9529905751       20.8522372288      -36.4066402947  TIP3      19216           0.0000000000
    109164     20577  TIP3      OH2             6.7270207305       21.9666447783      -28.1357553718  TIP3      19217           0.0000000000
    109165     20577  TIP3      H1              6.8617905316       22.5618952922      -27.3702981887  TIP3      19217           0.0000000000
    109166     20577  TIP3      H2              7.4331527829       21.3096991499      -28.0502962188  TIP3      19217           0.0000000000
    109167     20578  TIP3      OH2             7.0659519343       18.0284377591      -36.4561173815  TIP3      19218           0.0000000000
    109168     20578  TIP3      H1              6.7396080746       18.6867260469      -35.8187010955  TIP3      19218           0.0000000000
    109169     20578  TIP3      H2              7.7564182718       18.5728333253      -36.9093382159  TIP3      19218           0.0000000000
    109170     20579  TIP3      OH2             3.9784678403       32.4246342813      -39.3133345587  TIP3      19219           0.0000000000
    109171     20579  TIP3      H1              4.2061608253       33.2315556302      -39.8319531091  TIP3      19219           0.0000000000
    109172     20579  TIP3      H2              3.8207228480       32.7772275949      -38.4176050475  TIP3      19219           0.0000000000
    109173     20580  TIP3      OH2             2.7186353135       19.1231991331      -39.7064146326  TIP3      19220           0.0000000000
    109174     20580  TIP3      H1              2.6714382950       20.0419109113      -39.3819192723  TIP3      19220           0.0000000000
    109175     20580  TIP3      H2              3.6335358907       18.8798786729      -39.4660026468  TIP3      19220           0.0000000000
    109176     20581  TIP3      OH2            12.9479229304       19.8472594529      -27.2818555359  TIP3      19221           0.0000000000
    109177     20581  TIP3      H1             12.0232137937       20.1714703074      -27.4210233503  TIP3      19221           0.0000000000
    109178     20581  TIP3      H2             13.2494614097       19.8519109823      -28.2085671209  TIP3      19221           0.0000000000
    109179     20582  TIP3      OH2            11.5582617045       23.6504515436      -33.2926917698  TIP3      19222           0.0000000000
    109180     20582  TIP3      H1             10.7340268390       23.2072333750      -33.5708040953  TIP3      19222           0.0000000000
    109181     20582  TIP3      H2             12.0337005905       22.9617571917      -32.7747744025  TIP3      19222           0.0000000000
    109182     20583  TIP3      OH2             0.9824217420       29.5476870102      -40.6822573789  TIP3      19223           0.0000000000
    109183     20583  TIP3      H1              1.6315089057       30.1977996359      -40.4000974224  TIP3      19223           0.0000000000
    109184     20583  TIP3      H2              1.4729781338       29.1021280408      -41.3999405350  TIP3      19223           0.0000000000
    109185     20584  TIP3      OH2            -0.6688133876       22.2383827131      -41.5134025036  TIP3      19224           0.0000000000
    109186     20584  TIP3      H1             -0.6844881500       23.2071563623      -41.3902815233  TIP3      19224           0.0000000000
    109187     20584  TIP3      H2             -1.5383562274       22.0501783742      -41.8782397648  TIP3      19224           0.0000000000
    109188     20585  TIP3      OH2            12.6235123481       32.9030869910      -31.6230173946  TIP3      19225           0.0000000000
    109189     20585  TIP3      H1             12.5276277469       33.5890987336      -32.3132724597  TIP3      19225           0.0000000000
    109190     20585  TIP3      H2             13.5863865908       32.9628783482      -31.4470170524  TIP3      19225           0.0000000000
    109191     20586  TIP3      OH2             0.1228692416       17.0297677891      -32.8107590331  TIP3      19226           0.0000000000
    109192     20586  TIP3      H1             -0.0789143977       17.0590256916      -33.7779986088  TIP3      19226           0.0000000000
    109193     20586  TIP3      H2             -0.3128451191       16.1799233607      -32.5812920835  TIP3      19226           0.0000000000
    109194     20587  TIP3      OH2            -0.9199415906       31.0200949987      -36.6526949236  TIP3      19227           0.0000000000
    109195     20587  TIP3      H1             -1.8111544232       31.3958782771      -36.7392590814  TIP3      19227           0.0000000000
    109196     20587  TIP3      H2             -0.4421415779       31.3820616568      -37.3968822225  TIP3      19227           0.0000000000
    109197     20588  TIP3      OH2            -1.7117590803       33.6110467318      -25.3932400733  TIP3      19228           0.0000000000
    109198     20588  TIP3      H1             -1.1206551040       33.3772183473      -24.6644459653  TIP3      19228           0.0000000000
    109199     20588  TIP3      H2             -2.1421643864       32.7543734502      -25.5487608486  TIP3      19228           0.0000000000
    109200     20589  TIP3      OH2             2.9240896899       32.5196789290      -23.8110765317  TIP3      19229           0.0000000000
    109201     20589  TIP3      H1              3.6981258570       32.0722335659      -23.4288861247  TIP3      19229           0.0000000000
    109202     20589  TIP3      H2              2.9188032041       32.2235877284      -24.7328868884  TIP3      19229           0.0000000000
    109203     20590  TIP3      OH2             7.0653880414       32.0259898024      -42.3903148728  TIP3      19230           0.0000000000
    109204     20590  TIP3      H1              6.3586328794       31.3807246421      -42.1749270233  TIP3      19230           0.0000000000
    109205     20590  TIP3      H2              7.8015082483       31.4464299842      -42.6110269843  TIP3      19230           0.0000000000
    109206     20591  TIP3      OH2             9.4639226661       30.9039683960      -25.0508097499  TIP3      19231           0.0000000000
    109207     20591  TIP3      H1              9.1449435063       30.0222083295      -24.7637131521  TIP3      19231           0.0000000000
    109208     20591  TIP3      H2             10.2204917758       31.0487679062      -24.4443072765  TIP3      19231           0.0000000000
    109209     20592  TIP3      OH2            11.6571783003       31.8115506263      -42.1708013568  TIP3      19232           0.0000000000
    109210     20592  TIP3      H1             11.9097566586       30.9909031202      -41.7099633651  TIP3      19232           0.0000000000
    109211     20592  TIP3      H2             12.4283415489       31.9860075696      -42.7153095242  TIP3      19232           0.0000000000
    109212     20593  TIP3      OH2            -1.7976895488       27.3781822609      -24.4114827417  TIP3      19233           0.0000000000
    109213     20593  TIP3      H1             -1.6460189532       26.4602979346      -24.7037040885  TIP3      19233           0.0000000000
    109214     20593  TIP3      H2             -2.5543297887       27.6292905331      -24.9639372451  TIP3      19233           0.0000000000
    109215     20594  TIP3      OH2             2.5666933293       27.7167146345      -42.3337380571  TIP3      19234           0.0000000000
    109216     20594  TIP3      H1              2.6721619035       26.9422203031      -41.7625556511  TIP3      19234           0.0000000000
    109217     20594  TIP3      H2              3.2211677895       27.5709317904      -43.0209840039  TIP3      19234           0.0000000000
    109218     20595  TIP3      OH2             4.8929603733       27.3548002858      -24.9874980123  TIP3      19235           0.0000000000
    109219     20595  TIP3      H1              4.5788351334       27.6829389872      -25.8539481997  TIP3      19235           0.0000000000
    109220     20595  TIP3      H2              4.9882169433       26.3846251741      -25.1304650730  TIP3      19235           0.0000000000
    109221     20596  TIP3      OH2             7.8973413517       28.7989500044      -42.5805198379  TIP3      19236           0.0000000000
    109222     20596  TIP3      H1              7.6843510944       28.9391950101      -41.6401525643  TIP3      19236           0.0000000000
    109223     20596  TIP3      H2              7.7452010576       27.8507851351      -42.6925621182  TIP3      19236           0.0000000000
    109224     20597  TIP3      OH2            10.5972973461       27.2236327953      -27.6180547557  TIP3      19237           0.0000000000
    109225     20597  TIP3      H1             11.3833943617       27.8110858530      -27.6827121745  TIP3      19237           0.0000000000
    109226     20597  TIP3      H2              9.8962752372       27.8890966510      -27.5767188874  TIP3      19237           0.0000000000
    109227     20598  TIP3      OH2            -0.9075572002       24.6084826587      -25.0080827818  TIP3      19238           0.0000000000
    109228     20598  TIP3      H1             -0.5171642412       23.7417320679      -25.0918415788  TIP3      19238           0.0000000000
    109229     20598  TIP3      H2             -1.1309054119       24.6198429076      -24.0449440347  TIP3      19238           0.0000000000
    109230     20599  TIP3      OH2             3.7520333610       25.7421513139      -39.9437540716  TIP3      19239           0.0000000000
    109231     20599  TIP3      H1              3.2371818357       25.2058392962      -39.3198220334  TIP3      19239           0.0000000000
    109232     20599  TIP3      H2              4.0410036701       25.0582893876      -40.6007224856  TIP3      19239           0.0000000000
    109233     20600  TIP3      OH2             2.9207834645       23.4913041397      -27.7077456706  TIP3      19240           0.0000000000
    109234     20600  TIP3      H1              2.4511271508       24.2821059520      -27.3808623426  TIP3      19240           0.0000000000
    109235     20600  TIP3      H2              3.4137688270       23.9159421444      -28.4474398389  TIP3      19240           0.0000000000
    109236     20601  TIP3      OH2             4.8221204642       24.0285451831      -41.7507322182  TIP3      19241           0.0000000000
    109237     20601  TIP3      H1              4.6848193591       23.7854758602      -42.6799108900  TIP3      19241           0.0000000000
    109238     20601  TIP3      H2              5.7972722238       24.0154595862      -41.6462704718  TIP3      19241           0.0000000000
    109239     20602  TIP3      OH2             8.0692378267       26.1390215983      -24.3107163423  TIP3      19242           0.0000000000
    109240     20602  TIP3      H1              9.0308285113       26.1051758805      -24.4174374134  TIP3      19242           0.0000000000
    109241     20602  TIP3      H2              7.9104461793       25.3564000610      -23.7762239716  TIP3      19242           0.0000000000
    109242     20603  TIP3      OH2            14.1535285677       26.3099322055      -42.3064804714  TIP3      19243           0.0000000000
    109243     20603  TIP3      H1             13.9230413839       25.9025121143      -43.1441343074  TIP3      19243           0.0000000000
    109244     20603  TIP3      H2             14.2492318613       27.2461111045      -42.5344538778  TIP3      19243           0.0000000000
    109245     20604  TIP3      OH2             3.3994390000       20.9109776716      -26.5943880450  TIP3      19244           0.0000000000
    109246     20604  TIP3      H1              3.6978346027       20.1990419515      -27.1993499580  TIP3      19244           0.0000000000
    109247     20604  TIP3      H2              3.5780417859       21.7659611489      -27.0582919644  TIP3      19244           0.0000000000
    109248     20605  TIP3      OH2             3.7351734417       19.3320841975      -29.0316132553  TIP3      19245           0.0000000000
    109249     20605  TIP3      H1              4.3422928913       19.7486463094      -29.7121448830  TIP3      19245           0.0000000000
    109250     20605  TIP3      H2              2.9294715388       19.2494204675      -29.5705237706  TIP3      19245           0.0000000000
    109251     20606  TIP3      OH2             5.3180636033       24.7635043203      -28.8158968946  TIP3      19246           0.0000000000
    109252     20606  TIP3      H1              6.1086194288       24.6352345619      -29.3592656579  TIP3      19246           0.0000000000
    109253     20606  TIP3      H2              5.0020335033       25.6318484819      -29.1234869539  TIP3      19246           0.0000000000
    109254     20607  TIP3      OH2             9.7368793793       22.5513555992      -23.8999232394  TIP3      19247           0.0000000000
    109255     20607  TIP3      H1              9.9882050536       21.6212180203      -23.8745114115  TIP3      19247           0.0000000000
    109256     20607  TIP3      H2             10.5935493644       22.9967441418      -23.7794710437  TIP3      19247           0.0000000000
    109257     20608  TIP3      OH2            11.0876895793       25.3331396252      -25.7108638198  TIP3      19248           0.0000000000
    109258     20608  TIP3      H1             10.8442816366       26.0719471715      -26.3102386842  TIP3      19248           0.0000000000
    109259     20608  TIP3      H2             12.0540504830       25.3091835553      -25.8699406454  TIP3      19248           0.0000000000
    109260     20609  TIP3      OH2             1.8402663012       22.1802467232      -24.6658094272  TIP3      19249           0.0000000000
    109261     20609  TIP3      H1              1.0843471781       21.5734938496      -24.8109478252  TIP3      19249           0.0000000000
    109262     20609  TIP3      H2              2.5469045157       21.8284615446      -25.2311548595  TIP3      19249           0.0000000000
    109263     20610  TIP3      OH2             4.4975544215       16.7735356154      -28.5770220216  TIP3      19250           0.0000000000
    109264     20610  TIP3      H1              4.4935139122       17.7215666653      -28.8119106881  TIP3      19250           0.0000000000
    109265     20610  TIP3      H2              3.9353379558       16.3399574986      -29.2388192877  TIP3      19250           0.0000000000
    109266     20611  TIP3      OH2             5.8833902338       21.0699914568      -25.0423950001  TIP3      19251           0.0000000000
    109267     20611  TIP3      H1              5.5947381154       20.8327052096      -24.1437307765  TIP3      19251           0.0000000000
    109268     20611  TIP3      H2              5.0857258580       20.8796779144      -25.5551281881  TIP3      19251           0.0000000000
    109269     20612  TIP3      OH2             8.5884657361       20.1671700220      -25.9918533885  TIP3      19252           0.0000000000
    109270     20612  TIP3      H1              7.6350156053       20.2729660152      -25.8341588553  TIP3      19252           0.0000000000
    109271     20612  TIP3      H2              8.8637221894       19.5824875479      -25.2659658731  TIP3      19252           0.0000000000
    109272     20613  TIP3      OH2            10.1536369891       18.8485939793      -24.0507888816  TIP3      19253           0.0000000000
    109273     20613  TIP3      H1             10.1088532757       17.8779876249      -24.0201607946  TIP3      19253           0.0000000000
    109274     20613  TIP3      H2              9.9273560810       19.1512761855      -23.1390065793  TIP3      19253           0.0000000000
    109275     20614  TIP3      OH2             0.0440758682       20.0823245898      -24.9584496905  TIP3      19254           0.0000000000
    109276     20614  TIP3      H1              0.1601063542       19.2841298346      -25.4983854850  TIP3      19254           0.0000000000
    109277     20614  TIP3      H2             -0.1828850305       19.6695153609      -24.0971373591  TIP3      19254           0.0000000000
    109278     20615  TIP3      OH2             4.8072584188       16.1196995266      -25.9651642066  TIP3      19255           0.0000000000
    109279     20615  TIP3      H1              5.4944281818       15.4199876419      -25.9604559522  TIP3      19255           0.0000000000
    109280     20615  TIP3      H2              4.7480906030       16.2801973262      -26.9203494839  TIP3      19255           0.0000000000
    109281     20616  TIP3      OH2             5.2303629515       17.7663653103      -23.8706526734  TIP3      19256           0.0000000000
    109282     20616  TIP3      H1              5.0073646997       17.2322535372      -24.6668966324  TIP3      19256           0.0000000000
    109283     20616  TIP3      H2              4.5807175984       18.4895179035      -23.9213977278  TIP3      19256           0.0000000000
    109284     20617  TIP3      OH2             4.6403357420       34.7122269565      -40.6501655350  TIP3      19257           0.0000000000
    109285     20617  TIP3      H1              5.6164229899       34.7365956049      -40.6130251881  TIP3      19257           0.0000000000
    109286     20617  TIP3      H2              4.4852249471       35.2792993582      -41.4059750350  TIP3      19257           0.0000000000
    109287     20618  TIP3      OH2            -1.7564578258       29.2538907857      -41.1675484676  TIP3      19258           0.0000000000
    109288     20618  TIP3      H1             -0.8016521030       29.3442996046      -40.9718525171  TIP3      19258           0.0000000000
    109289     20618  TIP3      H2             -1.7405478671       28.6584709704      -41.9297160550  TIP3      19258           0.0000000000
    109290     20619  TIP3      OH2            -2.9497661492       34.6015852211      -36.2711482070  TIP3      19259           0.0000000000
    109291     20619  TIP3      H1             -3.7276636452       34.1480557940      -36.6928499477  TIP3      19259           0.0000000000
    109292     20619  TIP3      H2             -2.7639545067       33.9584973575      -35.5526179174  TIP3      19259           0.0000000000
    109293     20620  TIP3      OH2            -2.1738946159       32.7669441922      -34.3607558053  TIP3      19260           0.0000000000
    109294     20620  TIP3      H1             -2.5482030812       31.8884215209      -34.1703259099  TIP3      19260           0.0000000000
    109295     20620  TIP3      H2             -1.9812283158       33.0802197152      -33.4605512611  TIP3      19260           0.0000000000
    109296     20621  TIP3      OH2            15.3386079012       33.5513148632      -31.4302429888  TIP3      19261           0.0000000000
    109297     20621  TIP3      H1             15.3597706902       33.7088720770      -30.4718303486  TIP3      19261           0.0000000000
    109298     20621  TIP3      H2             16.0449358069       34.1345802137      -31.7275866098  TIP3      19261           0.0000000000
    109299     20622  TIP3      OH2            14.9160826240       33.1442632774      -28.4702881221  TIP3      19262           0.0000000000
    109300     20622  TIP3      H1             14.4436008658       32.3788904055      -28.8578474638  TIP3      19262           0.0000000000
    109301     20622  TIP3      H2             15.4132563574       32.6897946667      -27.7680162589  TIP3      19262           0.0000000000
    109302     20623  TIP3      OH2            13.3584113115       28.8718889888      -23.8294298052  TIP3      19263           0.0000000000
    109303     20623  TIP3      H1             12.4722403741       28.8345128929      -23.4263554076  TIP3      19263           0.0000000000
    109304     20623  TIP3      H2             13.7301204388       29.6651003467      -23.3907345176  TIP3      19263           0.0000000000
    109305     20624  TIP3      OH2            14.6796573672       27.1924287139      -38.3826473876  TIP3      19264           0.0000000000
    109306     20624  TIP3      H1             15.5389312180       27.5936711200      -38.1869589887  TIP3      19264           0.0000000000
    109307     20624  TIP3      H2             14.6604822969       26.4767732057      -37.7094432060  TIP3      19264           0.0000000000
    109308     20625  TIP3      OH2            15.0363798437       25.2754949167      -36.4912558967  TIP3      19265           0.0000000000
    109309     20625  TIP3      H1             14.2863642166       24.7654592047      -36.1090484580  TIP3      19265           0.0000000000
    109310     20625  TIP3      H2             15.6327900867       25.4080628277      -35.7269863989  TIP3      19265           0.0000000000
    109311     20626  TIP3      OH2            14.7928559594       27.9729906188      -31.5059133006  TIP3      19266           0.0000000000
    109312     20626  TIP3      H1             15.6106080178       27.5978371960      -31.8818645347  TIP3      19266           0.0000000000
    109313     20626  TIP3      H2             14.9364969828       28.9258707741      -31.6733929321  TIP3      19266           0.0000000000
    109314     20627  TIP3      OH2            13.3465590855       30.8838494034      -29.2390954197  TIP3      19267           0.0000000000
    109315     20627  TIP3      H1             12.6580698984       31.2166438264      -28.6458427699  TIP3      19267           0.0000000000
    109316     20627  TIP3      H2             12.7999046851       30.4725655328      -29.9434415131  TIP3      19267           0.0000000000
    109317     20628  TIP3      OH2            15.3371742998       25.1128641249      -40.1218455204  TIP3      19268           0.0000000000
    109318     20628  TIP3      H1             14.7620158982       25.4600554738      -40.8343793890  TIP3      19268           0.0000000000
    109319     20628  TIP3      H2             15.2415112931       25.8086915316      -39.4454289438  TIP3      19268           0.0000000000
    109320     20629  TIP3      OH2            13.6711982958       22.3135138037      -41.5417896541  TIP3      19269           0.0000000000
    109321     20629  TIP3      H1             13.7766628216       22.9734405247      -42.2363592449  TIP3      19269           0.0000000000
    109322     20629  TIP3      H2             13.5221362610       21.4964212309      -42.0632814496  TIP3      19269           0.0000000000
    109323     20630  TIP3      OH2            12.8559252946       23.7487609746      -35.9249408804  TIP3      19270           0.0000000000
    109324     20630  TIP3      H1             12.7076889251       22.7931217273      -35.9619845467  TIP3      19270           0.0000000000
    109325     20630  TIP3      H2             12.5198190396       23.9690243888      -35.0381437712  TIP3      19270           0.0000000000
    109326     20631  TIP3      OH2            -2.1396755711       25.8318588782      -31.8645184328  TIP3      19271           0.0000000000
    109327     20631  TIP3      H1             -1.9586259982       25.7526764657      -32.8276999796  TIP3      19271           0.0000000000
    109328     20631  TIP3      H2             -1.2469810988       25.6608661561      -31.5102317118  TIP3      19271           0.0000000000
    109329     20632  TIP3      OH2            13.7193781908       25.7113129484      -26.2593346400  TIP3      19272           0.0000000000
    109330     20632  TIP3      H1             14.3252265877       24.9574175383      -26.0847271759  TIP3      19272           0.0000000000
    109331     20632  TIP3      H2             14.3150255760       26.4874152823      -26.2262368217  TIP3      19272           0.0000000000
    109332     20633  TIP3      OH2            15.2165884813       23.6076402672      -25.6127372624  TIP3      19273           0.0000000000
    109333     20633  TIP3      H1             14.3333294714       23.2040144382      -25.7545195827  TIP3      19273           0.0000000000
    109334     20633  TIP3      H2             15.7925425081       22.8255758788      -25.6625370507  TIP3      19273           0.0000000000
    109335     20634  TIP3      OH2            12.9373950193       19.8230450627      -42.4045654874  TIP3      19274           0.0000000000
    109336     20634  TIP3      H1             13.5380639770       19.3391611528      -41.8043174620  TIP3      19274           0.0000000000
    109337     20634  TIP3      H2             12.0805675046       19.3813352079      -42.2844916418  TIP3      19274           0.0000000000
    109338     20635  TIP3      OH2            12.5221860764       21.3287316069      -37.4471075415  TIP3      19275           0.0000000000
    109339     20635  TIP3      H1             12.8234624240       20.3971576823      -37.3339632782  TIP3      19275           0.0000000000
    109340     20635  TIP3      H2             13.3099459462       21.7275448874      -37.8404365092  TIP3      19275           0.0000000000
    109341     20636  TIP3      OH2            13.1609221800       21.8750070502      -32.0223381108  TIP3      19276           0.0000000000
    109342     20636  TIP3      H1             14.1211362854       22.1079352252      -32.0407362098  TIP3      19276           0.0000000000
    109343     20636  TIP3      H2             12.9726039924       22.0162819845      -31.0826053523  TIP3      19276           0.0000000000
    109344     20637  TIP3      OH2            13.2299848609       22.5985650446      -29.2360409113  TIP3      19277           0.0000000000
    109345     20637  TIP3      H1             12.3467051516       22.8873572144      -28.9194497572  TIP3      19277           0.0000000000
    109346     20637  TIP3      H2             13.6613087847       23.4576115048      -29.4616626315  TIP3      19277           0.0000000000
    109347     20638  TIP3      OH2            -2.5047175940       21.1312355736      -25.7584875349  TIP3      19278           0.0000000000
    109348     20638  TIP3      H1             -1.6033970817       20.9179949958      -25.4698324046  TIP3      19278           0.0000000000
    109349     20638  TIP3      H2             -2.9950680523       20.3350082000      -25.4224187778  TIP3      19278           0.0000000000
    109350     20639  TIP3      OH2            15.4913263919       16.6643633313      -23.8644439142  TIP3      19279           0.0000000000
    109351     20639  TIP3      H1             15.8388496103       16.0047980855      -24.4961592832  TIP3      19279           0.0000000000
    109352     20639  TIP3      H2             15.6105847921       17.4693411950      -24.4065052463  TIP3      19279           0.0000000000
    109353     20640  TIP3      OH2            13.1914805601       18.6051150436      -37.4215661581  TIP3      19280           0.0000000000
    109354     20640  TIP3      H1             13.4013416138       18.1713811848      -36.5658288879  TIP3      19280           0.0000000000
    109355     20640  TIP3      H2             12.5838017991       17.9755877980      -37.8644042434  TIP3      19280           0.0000000000
    109356     20641  TIP3      OH2            -1.3248960757       19.4167149222      -32.8586200408  TIP3      19281           0.0000000000
    109357     20641  TIP3      H1             -0.8575939180       18.5961425226      -32.6109264801  TIP3      19281           0.0000000000
    109358     20641  TIP3      H2             -0.7844798372       20.1228655710      -32.4944334839  TIP3      19281           0.0000000000
    109359     20642  TIP3      OH2            -3.0379334374       22.4233306385      -31.8217046785  TIP3      19282           0.0000000000
    109360     20642  TIP3      H1             -2.4773012103       22.1784854882      -32.5859225192  TIP3      19282           0.0000000000
    109361     20642  TIP3      H2             -2.5805515768       23.2336326608      -31.5562694072  TIP3      19282           0.0000000000
    109362     20643  TIP3      OH2            15.0044628760       18.7320295282      -25.5156471184  TIP3      19283           0.0000000000
    109363     20643  TIP3      H1             14.0817598943       19.0352960696      -25.6154010706  TIP3      19283           0.0000000000
    109364     20643  TIP3      H2             15.0742176745       18.2179967720      -26.3393408820  TIP3      19283           0.0000000000
    109365     20644  TIP3      OH2            15.0080107983       18.6678134698      -40.8800461050  TIP3      19284           0.0000000000
    109366     20644  TIP3      H1             15.4481216713       17.9499476057      -41.3561650115  TIP3      19284           0.0000000000
    109367     20644  TIP3      H2             15.7222809432       19.3238949484      -40.8182997575  TIP3      19284           0.0000000000
    109368     20645  TIP3      OH2            -2.6715264145       18.6754393799      -37.7670035648  TIP3      19285           0.0000000000
    109369     20645  TIP3      H1             -3.6142600146       18.8760545055      -37.8833034413  TIP3      19285           0.0000000000
    109370     20645  TIP3      H2             -2.2526567920       19.1838152167      -38.4781560665  TIP3      19285           0.0000000000
    109371     20646  TIP3      OH2            12.0648752926       33.6249967151      -35.8036018549  TIP3      19286           0.0000000000
    109372     20646  TIP3      H1             12.7518915448       33.3194398686      -36.4209406539  TIP3      19286           0.0000000000
    109373     20646  TIP3      H2             12.5797528203       34.1310066946      -35.1545167774  TIP3      19286           0.0000000000
    109374     20647  TIP3      OH2            -2.7133731712       17.3444434588      -29.4628699809  TIP3      19287           0.0000000000
    109375     20647  TIP3      H1             -3.3784123307       17.1503921935      -28.7695143207  TIP3      19287           0.0000000000
    109376     20647  TIP3      H2             -3.1930943130       18.0177879787      -29.9914324067  TIP3      19287           0.0000000000
    109377     20648  TIP3      OH2            -0.4790544517       30.5805330011      -25.2625876265  TIP3      19288           0.0000000000
    109378     20648  TIP3      H1             -1.3320445518       30.7462972896      -25.7006534107  TIP3      19288           0.0000000000
    109379     20648  TIP3      H2             -0.7498209185       30.4712014463      -24.3429009300  TIP3      19288           0.0000000000
    109380     20649  TIP3      OH2             2.4106247424       31.5407906396      -29.0213151279  TIP3      19289           0.0000000000
    109381     20649  TIP3      H1              2.0747315802       32.4083996752      -29.2847907023  TIP3      19289           0.0000000000
    109382     20649  TIP3      H2              3.3384266759       31.6323983346      -29.3198654254  TIP3      19289           0.0000000000
    109383     20650  TIP3      OH2             6.7463120110       32.9468152719      -26.1276400869  TIP3      19290           0.0000000000
    109384     20650  TIP3      H1              6.8775297255       32.6376427440      -25.1941250112  TIP3      19290           0.0000000000
    109385     20650  TIP3      H2              7.6414171370       33.2770496415      -26.3384936023  TIP3      19290           0.0000000000
    109386     20651  TIP3      OH2             9.0269187550       34.2461557539      -26.7771413556  TIP3      19291           0.0000000000
    109387     20651  TIP3      H1              9.7514804808       33.6546552735      -27.0334247493  TIP3      19291           0.0000000000
    109388     20651  TIP3      H2              9.3828578220       34.6700487874      -25.9604905950  TIP3      19291           0.0000000000
    109389     20652  TIP3      OH2            14.0452402527       16.8535976215      -27.7083740093  TIP3      19292           0.0000000000
    109390     20652  TIP3      H1             13.2058380805       17.1432777872      -28.1058765874  TIP3      19292           0.0000000000
    109391     20652  TIP3      H2             14.2067679358       16.0243000142      -28.2136461656  TIP3      19292           0.0000000000
    109392     20653  TIP3      OH2            -0.1739178551       34.7470756326      -29.0150176192  TIP3      19293           0.0000000000
    109393     20653  TIP3      H1             -0.8826124145       35.2810805353      -29.4133127511  TIP3      19293           0.0000000000
    109394     20653  TIP3      H2             -0.4894767979       34.5988560649      -28.1165640905  TIP3      19293           0.0000000000
    109395     20654  TIP3      OH2             2.3020598833       34.3437658756      -29.9543570877  TIP3      19294           0.0000000000
    109396     20654  TIP3      H1              1.4164062635       34.5189930724      -29.5557069763  TIP3      19294           0.0000000000
    109397     20654  TIP3      H2              2.2575178852       34.9465380535      -30.7201613548  TIP3      19294           0.0000000000
    109398     20655  TIP3      OH2             7.0189820663       34.2714003196      -30.7697894563  TIP3      19295           0.0000000000
    109399     20655  TIP3      H1              6.5586301232       34.8199969059      -31.4226443966  TIP3      19295           0.0000000000
    109400     20655  TIP3      H2              7.1497425632       34.9185914121      -30.0429250349  TIP3      19295           0.0000000000
    109401     20656  TIP3      OH2             9.3058201809       33.0867837080      -29.7525902512  TIP3      19296           0.0000000000
    109402     20656  TIP3      H1              8.4460997153       33.3571621386      -30.1141021354  TIP3      19296           0.0000000000
    109403     20656  TIP3      H2              9.7837330605       33.9294178408      -29.8448762088  TIP3      19296           0.0000000000
    109404     20657  TIP3      OH2            11.8797087117       34.6613435973      -29.5293255820  TIP3      19297           0.0000000000
    109405     20657  TIP3      H1             11.8201594940       35.6209119566      -29.7548975835  TIP3      19297           0.0000000000
    109406     20657  TIP3      H2             12.1031276488       34.2837232496      -30.4032312217  TIP3      19297           0.0000000000
    109407     20658  TIP3      OH2            -0.7041603235       33.4318076664      -32.0651755409  TIP3      19298           0.0000000000
    109408     20658  TIP3      H1             -0.7897788154       32.9763333332      -31.2018953245  TIP3      19298           0.0000000000
    109409     20658  TIP3      H2              0.1096421816       33.0488776312      -32.4468260186  TIP3      19298           0.0000000000
    109410     20659  TIP3      OH2             1.3745474723       32.1534941203      -33.4567699718  TIP3      19299           0.0000000000
    109411     20659  TIP3      H1              1.2003759495       31.2242678240      -33.2050511704  TIP3      19299           0.0000000000
    109412     20659  TIP3      H2              2.2183743052       32.3021327756      -32.9765958115  TIP3      19299           0.0000000000
    109413     20660  TIP3      OH2             3.9755709629       32.6240415879      -32.5418839389  TIP3      19300           0.0000000000
    109414     20660  TIP3      H1              4.1340369487       31.7029588213      -32.8138218242  TIP3      19300           0.0000000000
    109415     20660  TIP3      H2              4.0089380022       32.5476165017      -31.5768727955  TIP3      19300           0.0000000000
    109416     20661  TIP3      OH2             7.4287446456       18.2766500266      -33.4030207497  TIP3      19301           0.0000000000
    109417     20661  TIP3      H1              6.7537844494       17.6343037722      -33.1294570188  TIP3      19301           0.0000000000
    109418     20661  TIP3      H2              7.9826271170       17.7482810332      -33.9928982218  TIP3      19301           0.0000000000
    109419     20662  TIP3      OH2            12.5663711159       16.3300549443      -33.3418829541  TIP3      19302           0.0000000000
    109420     20662  TIP3      H1             13.1799038462       16.9197463635      -33.8480459306  TIP3      19302           0.0000000000
    109421     20662  TIP3      H2             11.6847669714       16.6884300778      -33.5725128672  TIP3      19302           0.0000000000
    109422     20663  TIP3      OH2            14.2368134914       17.5684132518      -35.0643997567  TIP3      19303           0.0000000000
    109423     20663  TIP3      H1             14.9208608779       16.9939896895      -35.4810262633  TIP3      19303           0.0000000000
    109424     20663  TIP3      H2             14.7396824930       18.4083127775      -34.9596796809  TIP3      19303           0.0000000000
    109425     20664  TIP3      OH2            -0.1999989092       16.9028289975      -35.5602283783  TIP3      19304           0.0000000000
    109426     20664  TIP3      H1             -0.9961035476       16.7031958451      -36.0894331565  TIP3      19304           0.0000000000
    109427     20664  TIP3      H2              0.2625367364       16.0442360204      -35.6166394880  TIP3      19304           0.0000000000
    109428     20665  TIP3      OH2            -1.4591742653       16.6635315651      -39.8733963768  TIP3      19305           0.0000000000
    109429     20665  TIP3      H1             -0.9394522086       17.3144497343      -40.3818916022  TIP3      19305           0.0000000000
    109430     20665  TIP3      H2             -1.9912020078       17.2282073092      -39.2834178690  TIP3      19305           0.0000000000
    109431     20666  TIP3      OH2             4.2777793812       16.8280559946      -35.7725431982  TIP3      19306           0.0000000000
    109432     20666  TIP3      H1              5.1780795151       17.1891973234      -35.8454968548  TIP3      19306           0.0000000000
    109433     20666  TIP3      H2              4.2371558278       16.6137080244      -34.8416668184  TIP3      19306           0.0000000000
    109434     20667  TIP3      OH2             9.9801119664       16.8461754047      -34.1470497068  TIP3      19307           0.0000000000
    109435     20667  TIP3      H1              9.9390412763       16.9593256806      -35.1049631084  TIP3      19307           0.0000000000
    109436     20667  TIP3      H2              9.6058405246       15.9390273202      -34.0252312069  TIP3      19307           0.0000000000
    109437     20668  TIP3      OH2            11.2583699679       16.8770439023      -38.4897394837  TIP3      19308           0.0000000000
    109438     20668  TIP3      H1             10.5127263012       17.4748187111      -38.6439194395  TIP3      19308           0.0000000000
    109439     20668  TIP3      H2             10.8232213866       16.0266512838      -38.2527652780  TIP3      19308           0.0000000000
    109440     20669  TIP3      OH2            -2.1076575220       31.7395470688      -39.2127244361  TIP3      19309           0.0000000000
    109441     20669  TIP3      H1             -2.8411549671       31.4741734280      -39.8240668076  TIP3      19309           0.0000000000
    109442     20669  TIP3      H2             -2.1330730324       32.7062405489      -39.1833453334  TIP3      19309           0.0000000000
    109443     20670  TIP3      OH2             0.3776998357       18.5479572762      -41.3016169121  TIP3      19310           0.0000000000
    109444     20670  TIP3      H1              0.9407319791       17.9925760600      -41.8453817596  TIP3      19310           0.0000000000
    109445     20670  TIP3      H2              1.0440646742       18.9442973716      -40.7080474921  TIP3      19310           0.0000000000
    109446     20671  TIP3      OH2             5.4323770880       18.8510491766      -38.9191169087  TIP3      19311           0.0000000000
    109447     20671  TIP3      H1              5.6841008805       18.2687461739      -38.1837992244  TIP3      19311           0.0000000000
    109448     20671  TIP3      H2              5.4918828031       19.7113830122      -38.4461824020  TIP3      19311           0.0000000000
    109449     20672  TIP3      OH2             7.3370811292       33.9484246524      -40.5140311826  TIP3      19312           0.0000000000
    109450     20672  TIP3      H1              8.2828711435       34.1285249841      -40.6707836751  TIP3      19312           0.0000000000
    109451     20672  TIP3      H2              7.1538027998       33.3796581436      -41.2954329272  TIP3      19312           0.0000000000
    109452     20673  TIP3      OH2            14.0645935852       33.4232197678      -37.7633644206  TIP3      19313           0.0000000000
    109453     20673  TIP3      H1             13.8568396560       32.6453404744      -38.3384574549  TIP3      19313           0.0000000000
    109454     20673  TIP3      H2             13.9739760963       34.1573283996      -38.4005466145  TIP3      19313           0.0000000000
    109455     20674  TIP3      OH2             0.1889430023       17.5123493920      -26.5269734150  TIP3      19314           0.0000000000
    109456     20674  TIP3      H1             -0.4693123231       16.9149104141      -26.0362161851  TIP3      19314           0.0000000000
    109457     20674  TIP3      H2              0.7253791418       17.4602120781      -25.6905606006  TIP3      19314           0.0000000000
    109458     20675  TIP3      OH2             1.7208765777       16.8066079641      -24.5776739496  TIP3      19315           0.0000000000
    109459     20675  TIP3      H1              2.6038319560       16.4338020290      -24.6703203108  TIP3      19315           0.0000000000
    109460     20675  TIP3      H2              1.2922894477       16.0853963208      -24.0541647814  TIP3      19315           0.0000000000
    109461     20676  TIP3      OH2             0.3347441166       33.6268836571      -41.8655884971  TIP3      19316           0.0000000000
    109462     20676  TIP3      H1              0.0269205710       33.8473330701      -40.9934323406  TIP3      19316           0.0000000000
    109463     20676  TIP3      H2              1.0537662739       33.0050763139      -41.7215080171  TIP3      19316           0.0000000000
    109464     20677  TIP3      OH2            10.1127122625       16.1227394530      -24.2818291817  TIP3      19317           0.0000000000
    109465     20677  TIP3      H1             10.2594185396       15.6506629033      -23.4736905853  TIP3      19317           0.0000000000
    109466     20677  TIP3      H2             10.9979719758       16.0986361785      -24.7159508518  TIP3      19317           0.0000000000
    109467     20678  TIP3      OH2            13.3044907852       32.1484297231      -25.6683428677  TIP3      19318           0.0000000000
    109468     20678  TIP3      H1             12.4978093876       32.0144371954      -26.2093893388  TIP3      19318           0.0000000000
    109469     20678  TIP3      H2             13.1926341245       33.0978388771      -25.4617882618  TIP3      19318           0.0000000000
    109470     20679  TIP3      OH2            27.7531891263       26.0349076461      -35.6971896768  TIP3      19319           0.0000000000
    109471     20679  TIP3      H1             27.7532766928       27.0161872697      -35.7334263544  TIP3      19319           0.0000000000
    109472     20679  TIP3      H2             27.0331498988       25.7970817165      -36.3009944906  TIP3      19319           0.0000000000
    109473     20680  TIP3      OH2            26.6003502159       25.3003955240      -32.1993343830  TIP3      19320           0.0000000000
    109474     20680  TIP3      H1             26.5860331444       24.6472481199      -31.4860182648  TIP3      19320           0.0000000000
    109475     20680  TIP3      H2             26.2568053347       24.7952900133      -32.9562736029  TIP3      19320           0.0000000000
    109476     20681  TIP3      OH2            18.9621202807       24.9679594048      -30.6609299442  TIP3      19321           0.0000000000
    109477     20681  TIP3      H1             19.0353219315       24.2905861134      -29.9534039783  TIP3      19321           0.0000000000
    109478     20681  TIP3      H2             19.7024150803       25.5460876088      -30.4272921960  TIP3      19321           0.0000000000
    109479     20682  TIP3      OH2            30.2890541518       28.2435237195      -33.9146208115  TIP3      19322           0.0000000000
    109480     20682  TIP3      H1             29.8706794364       27.5278981913      -33.4248993022  TIP3      19322           0.0000000000
    109481     20682  TIP3      H2             30.3090019673       28.9545195623      -33.2463645673  TIP3      19322           0.0000000000
    109482     20683  TIP3      OH2            19.8811391428       29.4230607298      -32.1486980419  TIP3      19323           0.0000000000
    109483     20683  TIP3      H1             19.5659868268       28.5538856042      -32.4656957718  TIP3      19323           0.0000000000
    109484     20683  TIP3      H2             20.8334200058       29.2334554416      -32.0874093646  TIP3      19323           0.0000000000
    109485     20684  TIP3      OH2            16.5233101312       22.9831111185      -36.6603107300  TIP3      19324           0.0000000000
    109486     20684  TIP3      H1             16.0813819863       23.8514178959      -36.7212949669  TIP3      19324           0.0000000000
    109487     20684  TIP3      H2             15.9568519253       22.4403819991      -37.2250187999  TIP3      19324           0.0000000000
    109488     20685  TIP3      OH2            17.2293572629       25.2046229272      -34.5151116250  TIP3      19325           0.0000000000
    109489     20685  TIP3      H1             17.4983994946       24.3842786959      -34.0619212842  TIP3      19325           0.0000000000
    109490     20685  TIP3      H2             17.9291617703       25.3078055001      -35.1775795955  TIP3      19325           0.0000000000
    109491     20686  TIP3      OH2            27.4134223752       33.4078581060      -33.6817638011  TIP3      19326           0.0000000000
    109492     20686  TIP3      H1             28.0550067823       32.7104064108      -33.9660061810  TIP3      19326           0.0000000000
    109493     20686  TIP3      H2             27.1943960209       33.0737303491      -32.8089146338  TIP3      19326           0.0000000000
    109494     20687  TIP3      OH2            24.9758197876       27.6998537017      -31.7362177017  TIP3      19327           0.0000000000
    109495     20687  TIP3      H1             25.3157230831       27.0689507385      -32.3893305587  TIP3      19327           0.0000000000
    109496     20687  TIP3      H2             25.7815269817       27.8550599186      -31.2134658796  TIP3      19327           0.0000000000
    109497     20688  TIP3      OH2            33.5752574421       19.3577771830      -31.0000645111  TIP3      19328           0.0000000000
    109498     20688  TIP3      H1             33.7460141268       19.9470041407      -30.2344727458  TIP3      19328           0.0000000000
    109499     20688  TIP3      H2             34.1391413475       19.7794597863      -31.6644559556  TIP3      19328           0.0000000000
    109500     20689  TIP3      OH2            28.1433514893       22.1668030183      -31.4195300223  TIP3      19329           0.0000000000
    109501     20689  TIP3      H1             28.3081361705       21.2073150920      -31.4170223071  TIP3      19329           0.0000000000
    109502     20689  TIP3      H2             28.0401096012       22.3087823514      -32.3804853731  TIP3      19329           0.0000000000
    109503     20690  TIP3      OH2            21.2597737666       20.2540752853      -34.2000923634  TIP3      19330           0.0000000000
    109504     20690  TIP3      H1             21.3622979436       21.0915711636      -34.6879678294  TIP3      19330           0.0000000000
    109505     20690  TIP3      H2             20.8561269121       19.6822284688      -34.8871991991  TIP3      19330           0.0000000000
    109506     20691  TIP3      OH2            28.9896231146       20.3306445076      -35.8256103905  TIP3      19331           0.0000000000
    109507     20691  TIP3      H1             29.6514745627       20.0241141850      -35.1622576547  TIP3      19331           0.0000000000
    109508     20691  TIP3      H2             29.5415953944       20.9014799585      -36.3817970086  TIP3      19331           0.0000000000
    109509     20692  TIP3      OH2            17.8837175459       22.6645585837      -33.4646294419  TIP3      19332           0.0000000000
    109510     20692  TIP3      H1             18.5538632270       22.1173248372      -33.0130386814  TIP3      19332           0.0000000000
    109511     20692  TIP3      H2             17.9839506142       22.3514933951      -34.3766508890  TIP3      19332           0.0000000000
    109512     20693  TIP3      OH2            23.0381737061       24.2359086428      -34.1500821853  TIP3      19333           0.0000000000
    109513     20693  TIP3      H1             23.7065667421       23.6545379438      -33.7470698169  TIP3      19333           0.0000000000
    109514     20693  TIP3      H2             22.5241636078       23.5690480477      -34.6497511648  TIP3      19333           0.0000000000
    109515     20694  TIP3      OH2            34.0448401711       20.7756420562      -28.7218815080  TIP3      19334           0.0000000000
    109516     20694  TIP3      H1             33.4061706339       21.5141445868      -28.8483317162  TIP3      19334           0.0000000000
    109517     20694  TIP3      H2             34.0438814640       20.6707297242      -27.7598459144  TIP3      19334           0.0000000000
    109518     20695  TIP3      OH2            20.1639659148       19.1537151082      -30.1601745188  TIP3      19335           0.0000000000
    109519     20695  TIP3      H1             19.8827674591       19.7234495184      -30.9065700499  TIP3      19335           0.0000000000
    109520     20695  TIP3      H2             19.4870673486       19.3856132892      -29.4813257336  TIP3      19335           0.0000000000
    109521     20696  TIP3      OH2            27.4127415386       28.6309001794      -36.6057699289  TIP3      19336           0.0000000000
    109522     20696  TIP3      H1             27.2260869884       28.3628620225      -37.5140834607  TIP3      19336           0.0000000000
    109523     20696  TIP3      H2             27.1668469909       29.5816458463      -36.5627709467  TIP3      19336           0.0000000000
    109524     20697  TIP3      OH2            22.6793891971       26.7973711958      -29.9145667946  TIP3      19337           0.0000000000
    109525     20697  TIP3      H1             21.9706802224       27.4403346725      -29.6993170135  TIP3      19337           0.0000000000
    109526     20697  TIP3      H2             23.3867052921       27.3956985744      -30.2024058010  TIP3      19337           0.0000000000
    109527     20698  TIP3      OH2            30.8015100623       19.6785896433      -33.8406238034  TIP3      19338           0.0000000000
    109528     20698  TIP3      H1             30.5853938701       18.9119291713      -33.3023771088  TIP3      19338           0.0000000000
    109529     20698  TIP3      H2             31.4738187987       20.1175847556      -33.2961483833  TIP3      19338           0.0000000000
    109530     20699  TIP3      OH2            19.7283083816       21.0120709728      -32.1294181571  TIP3      19339           0.0000000000
    109531     20699  TIP3      H1             20.3588700029       21.6951198775      -31.8076111634  TIP3      19339           0.0000000000
    109532     20699  TIP3      H2             20.2501960364       20.5989522683      -32.8623272628  TIP3      19339           0.0000000000
    109533     20700  TIP3      OH2            21.1190371512       28.8021822283      -29.1173381600  TIP3      19340           0.0000000000
    109534     20700  TIP3      H1             21.0759154820       29.7207296007      -29.4412986124  TIP3      19340           0.0000000000
    109535     20700  TIP3      H2             20.2480274218       28.7255093136      -28.6509492490  TIP3      19340           0.0000000000
    109536     20701  TIP3      OH2            17.2228873109       28.4200881571      -38.3155047144  TIP3      19341           0.0000000000
    109537     20701  TIP3      H1             16.9565653504       28.7338635029      -39.2052448797  TIP3      19341           0.0000000000
    109538     20701  TIP3      H2             17.2547559282       29.2561908044      -37.8054599338  TIP3      19341           0.0000000000
    109539     20702  TIP3      OH2            30.8197522213       30.0834527114      -31.5483645057  TIP3      19342           0.0000000000
    109540     20702  TIP3      H1             29.8508670328       30.1898042169      -31.4289597815  TIP3      19342           0.0000000000
    109541     20702  TIP3      H2             31.0859510580       31.0009057245      -31.7499563475  TIP3      19342           0.0000000000
    109542     20703  TIP3      OH2            31.1400293137       18.3684854446      -30.1592129239  TIP3      19343           0.0000000000
    109543     20703  TIP3      H1             30.4126540343       18.9997448987      -30.2477980751  TIP3      19343           0.0000000000
    109544     20703  TIP3      H2             31.8499241379       18.7866494570      -30.6845390119  TIP3      19343           0.0000000000
    109545     20704  TIP3      OH2            24.1070460807       16.4861636215      -32.6952857050  TIP3      19344           0.0000000000
    109546     20704  TIP3      H1             23.9703982046       15.5215495139      -32.7595158938  TIP3      19344           0.0000000000
    109547     20704  TIP3      H2             23.2303912007       16.7903769782      -32.3829323260  TIP3      19344           0.0000000000
    109548     20705  TIP3      OH2            29.0729406856       31.8676416715      -34.9629705083  TIP3      19345           0.0000000000
    109549     20705  TIP3      H1             29.5070406295       31.1490941252      -35.4666215528  TIP3      19345           0.0000000000
    109550     20705  TIP3      H2             29.5008639977       32.6589060940      -35.3542852098  TIP3      19345           0.0000000000
    109551     20706  TIP3      OH2            30.2813590032       29.7939403887      -36.4451155418  TIP3      19346           0.0000000000
    109552     20706  TIP3      H1             30.0000893120       29.0965457159      -37.0600913642  TIP3      19346           0.0000000000
    109553     20706  TIP3      H2             30.3205594476       29.3025091798      -35.6040559357  TIP3      19346           0.0000000000
    109554     20707  TIP3      OH2            31.9089007363       28.3884286513      -27.9622469182  TIP3      19347           0.0000000000
    109555     20707  TIP3      H1             32.0524680730       27.7334859933      -28.6804602088  TIP3      19347           0.0000000000
    109556     20707  TIP3      H2             32.1204520871       29.2260511010      -28.4079977229  TIP3      19347           0.0000000000
    109557     20708  TIP3      OH2            26.3907415117       25.2979997703      -38.1829511226  TIP3      19348           0.0000000000
    109558     20708  TIP3      H1             25.7029854673       25.8359171798      -38.5891763101  TIP3      19348           0.0000000000
    109559     20708  TIP3      H2             27.1142589606       25.3536929162      -38.8417183360  TIP3      19348           0.0000000000
    109560     20709  TIP3      OH2            26.4766048776       23.8337968214      -41.1264273282  TIP3      19349           0.0000000000
    109561     20709  TIP3      H1             27.1950045265       23.8202592491      -40.4735003563  TIP3      19349           0.0000000000
    109562     20709  TIP3      H2             26.7758815498       23.1504177146      -41.7309050002  TIP3      19349           0.0000000000
    109563     20710  TIP3      OH2            33.8056236528       24.6994244418      -29.9186860494  TIP3      19350           0.0000000000
    109564     20710  TIP3      H1             33.1358681546       25.4134785410      -29.8562265677  TIP3      19350           0.0000000000
    109565     20710  TIP3      H2             34.2639376812       24.9472952032      -30.7373270369  TIP3      19350           0.0000000000
    109566     20711  TIP3      OH2            29.8578914056       25.5038387657      -37.2510119406  TIP3      19351           0.0000000000
    109567     20711  TIP3      H1             29.1075717149       25.7318233723      -36.6542013080  TIP3      19351           0.0000000000
    109568     20711  TIP3      H2             30.3188121287       24.8126581002      -36.7432875683  TIP3      19351           0.0000000000
    109569     20712  TIP3      OH2            29.7727062715       23.6561131361      -28.1574997172  TIP3      19352           0.0000000000
    109570     20712  TIP3      H1             29.7832722867       24.4712541132      -27.6256197292  TIP3      19352           0.0000000000
    109571     20712  TIP3      H2             29.1392860300       23.9502781510      -28.8408439483  TIP3      19352           0.0000000000
    109572     20713  TIP3      OH2            21.4972695464       26.1706418130      -35.3769367679  TIP3      19353           0.0000000000
    109573     20713  TIP3      H1             21.1108189544       25.7340982233      -36.1751939052  TIP3      19353           0.0000000000
    109574     20713  TIP3      H2             22.0592548665       25.4508853441      -34.9988039405  TIP3      19353           0.0000000000
    109575     20714  TIP3      OH2            22.7923565262       29.5569275620      -32.6907039059  TIP3      19354           0.0000000000
    109576     20714  TIP3      H1             22.7712535698       28.9804272908      -33.4542938375  TIP3      19354           0.0000000000
    109577     20714  TIP3      H2             23.5524083529       29.1877028310      -32.1987349590  TIP3      19354           0.0000000000
    109578     20715  TIP3      OH2            21.7911843334       24.8972224944      -31.6889184494  TIP3      19355           0.0000000000
    109579     20715  TIP3      H1             22.3455491744       24.9993880133      -32.4870936683  TIP3      19355           0.0000000000
    109580     20715  TIP3      H2             22.1775800907       25.5583034550      -31.0733736432  TIP3      19355           0.0000000000
    109581     20716  TIP3      OH2            28.2087441799       30.4631049125      -30.9728333560  TIP3      19356           0.0000000000
    109582     20716  TIP3      H1             27.8988320301       31.1028675737      -30.3318076609  TIP3      19356           0.0000000000
    109583     20716  TIP3      H2             27.9467602003       29.6092485318      -30.5550433003  TIP3      19356           0.0000000000
    109584     20717  TIP3      OH2            22.7445555989       29.3321128005      -26.9861131376  TIP3      19357           0.0000000000
    109585     20717  TIP3      H1             22.3236814501       30.0732706604      -26.5112357466  TIP3      19357           0.0000000000
    109586     20717  TIP3      H2             22.0745769821       29.1245401043      -27.6799030973  TIP3      19357           0.0000000000
    109587     20718  TIP3      OH2            28.7220065177       24.6758290916      -39.5828819999  TIP3      19358           0.0000000000
    109588     20718  TIP3      H1             29.2806765968       24.8592298752      -38.7864331475  TIP3      19358           0.0000000000
    109589     20718  TIP3      H2             29.1387373948       25.1961215789      -40.3028889309  TIP3      19358           0.0000000000
    109590     20719  TIP3      OH2            19.6786299030       25.4952151096      -27.8374053076  TIP3      19359           0.0000000000
    109591     20719  TIP3      H1             19.7305895159       26.1403424284      -27.1023856815  TIP3      19359           0.0000000000
    109592     20719  TIP3      H2             18.7371743109       25.5836695178      -28.0474158570  TIP3      19359           0.0000000000
    109593     20720  TIP3      OH2            26.4004447704       31.3999972053      -36.1189635176  TIP3      19360           0.0000000000
    109594     20720  TIP3      H1             26.8788821329       31.7082688193      -35.3375918330  TIP3      19360           0.0000000000
    109595     20720  TIP3      H2             25.8944559655       32.1833299382      -36.3598081134  TIP3      19360           0.0000000000
    109596     20721  TIP3      OH2            21.0022088111       31.3507172197      -26.2383863325  TIP3      19361           0.0000000000
    109597     20721  TIP3      H1             20.9377487772       31.2572541681      -27.2043823018  TIP3      19361           0.0000000000
    109598     20721  TIP3      H2             20.0649817990       31.2309306515      -25.9792009452  TIP3      19361           0.0000000000
    109599     20722  TIP3      OH2            32.4395292423       16.4239328434      -39.6720861612  TIP3      19362           0.0000000000
    109600     20722  TIP3      H1             31.4794725860       16.5259847611      -39.4477135049  TIP3      19362           0.0000000000
    109601     20722  TIP3      H2             32.6382676262       17.2549563089      -40.1361803975  TIP3      19362           0.0000000000
    109602     20723  TIP3      OH2            20.4281940380       25.1961392132      -37.7217263101  TIP3      19363           0.0000000000
    109603     20723  TIP3      H1             20.1133453583       25.9436758665      -38.2709174155  TIP3      19363           0.0000000000
    109604     20723  TIP3      H2             19.7949671456       24.5048767641      -37.9524853103  TIP3      19363           0.0000000000
    109605     20724  TIP3      OH2            33.5404313770       30.7618478496      -41.2708140387  TIP3      19364           0.0000000000
    109606     20724  TIP3      H1             33.6651430306       31.7249746808      -41.2144034243  TIP3      19364           0.0000000000
    109607     20724  TIP3      H2             34.4578696805       30.4930045337      -41.4281069895  TIP3      19364           0.0000000000
    109608     20725  TIP3      OH2            16.5207345630       27.5981599270      -28.8494197633  TIP3      19365           0.0000000000
    109609     20725  TIP3      H1             16.0713809891       27.5170112528      -29.7085691705  TIP3      19365           0.0000000000
    109610     20725  TIP3      H2             16.5940999020       26.6548034743      -28.6170235392  TIP3      19365           0.0000000000
    109611     20726  TIP3      OH2            16.2803187225       30.3397480078      -32.0612920078  TIP3      19366           0.0000000000
    109612     20726  TIP3      H1             17.2383692603       30.2214289679      -32.0766411529  TIP3      19366           0.0000000000
    109613     20726  TIP3      H2             16.1970423216       31.1534645241      -31.5499175026  TIP3      19366           0.0000000000
    109614     20727  TIP3      OH2            34.5005991284       31.0505932385      -26.4052124064  TIP3      19367           0.0000000000
    109615     20727  TIP3      H1             34.4073637452       30.0862531741      -26.3919037335  TIP3      19367           0.0000000000
    109616     20727  TIP3      H2             33.6636699087       31.2917693441      -25.9590083788  TIP3      19367           0.0000000000
    109617     20728  TIP3      OH2            25.4950815376       30.5797166044      -27.4820505185  TIP3      19368           0.0000000000
    109618     20728  TIP3      H1             25.5116734128       31.4323085054      -27.0012081700  TIP3      19368           0.0000000000
    109619     20728  TIP3      H2             24.6080831561       30.2096789820      -27.2773907933  TIP3      19368           0.0000000000
    109620     20729  TIP3      OH2            25.9203937470       34.3349707426      -37.7152151501  TIP3      19369           0.0000000000
    109621     20729  TIP3      H1             25.8194474898       34.2611044690      -38.6754968721  TIP3      19369           0.0000000000
    109622     20729  TIP3      H2             25.9404154803       35.2955433157      -37.5597685938  TIP3      19369           0.0000000000
    109623     20730  TIP3      OH2            19.5739493030       33.1750739165      -35.8969295083  TIP3      19370           0.0000000000
    109624     20730  TIP3      H1             19.6914538291       32.7966490883      -34.9954589675  TIP3      19370           0.0000000000
    109625     20730  TIP3      H2             18.6995438294       32.8145233761      -36.1201945631  TIP3      19370           0.0000000000
    109626     20731  TIP3      OH2            28.9280491592       33.5128773095      -40.7593493990  TIP3      19371           0.0000000000
    109627     20731  TIP3      H1             29.4313927781       32.7752781945      -41.1731240439  TIP3      19371           0.0000000000
    109628     20731  TIP3      H2             29.0117393675       33.2720697220      -39.8163403716  TIP3      19371           0.0000000000
    109629     20732  TIP3      OH2            28.6606443839       33.4746441723      -37.9518778146  TIP3      19372           0.0000000000
    109630     20732  TIP3      H1             27.7044430402       33.5426877607      -37.7616509087  TIP3      19372           0.0000000000
    109631     20732  TIP3      H2             28.9095779135       32.7290201174      -37.3850292482  TIP3      19372           0.0000000000
    109632     20733  TIP3      OH2            31.6456658791       22.4828736963      -25.8837759515  TIP3      19373           0.0000000000
    109633     20733  TIP3      H1             31.2002963360       22.9596502629      -26.6061469643  TIP3      19373           0.0000000000
    109634     20733  TIP3      H2             31.6507224020       21.5760129060      -26.2210171322  TIP3      19373           0.0000000000
    109635     20734  TIP3      OH2            18.8048570856       28.9174350474      -27.8975366950  TIP3      19374           0.0000000000
    109636     20734  TIP3      H1             19.0318664840       28.5509860530      -27.0123735486  TIP3      19374           0.0000000000
    109637     20734  TIP3      H2             17.9387997796       28.5138614139      -28.1134876467  TIP3      19374           0.0000000000
    109638     20735  TIP3      OH2            21.4825397271       17.3868446481      -31.9412704800  TIP3      19375           0.0000000000
    109639     20735  TIP3      H1             20.5799650179       17.2664217380      -32.3108987163  TIP3      19375           0.0000000000
    109640     20735  TIP3      H2             21.3551540116       18.2216134314      -31.4616514772  TIP3      19375           0.0000000000
    109641     20736  TIP3      OH2            26.1280047934       17.0609899749      -28.5690042605  TIP3      19376           0.0000000000
    109642     20736  TIP3      H1             26.5127995186       16.6395535029      -27.7800461615  TIP3      19376           0.0000000000
    109643     20736  TIP3      H2             25.1554359729       16.9381383705      -28.4327767879  TIP3      19376           0.0000000000
    109644     20737  TIP3      OH2            29.4249677730       20.9067880149      -27.6852198802  TIP3      19377           0.0000000000
    109645     20737  TIP3      H1             28.8564765790       20.6970840421      -26.9081384569  TIP3      19377           0.0000000000
    109646     20737  TIP3      H2             29.2345724889       21.8304333467      -27.9153310030  TIP3      19377           0.0000000000
    109647     20738  TIP3      OH2            30.1566244052       25.7242801734      -41.8948099443  TIP3      19378           0.0000000000
    109648     20738  TIP3      H1             30.2006407599       25.5015277764      -42.8353869231  TIP3      19378           0.0000000000
    109649     20738  TIP3      H2             31.0089794596       26.1596117665      -41.7332128836  TIP3      19378           0.0000000000
    109650     20739  TIP3      OH2            25.6486796178       19.6342276949      -41.2283023530  TIP3      19379           0.0000000000
    109651     20739  TIP3      H1             25.5578794286       19.5819594896      -40.2598559342  TIP3      19379           0.0000000000
    109652     20739  TIP3      H2             25.5997789527       18.7327917291      -41.5632957946  TIP3      19379           0.0000000000
    109653     20740  TIP3      OH2            21.5855854459       22.3666373244      -30.7031435021  TIP3      19380           0.0000000000
    109654     20740  TIP3      H1             20.8540343292       22.3502862166      -30.0603726737  TIP3      19380           0.0000000000
    109655     20740  TIP3      H2             21.5393414447       23.2798445992      -31.0654645675  TIP3      19380           0.0000000000
    109656     20741  TIP3      OH2            21.5397916658       22.4913698538      -35.8237258620  TIP3      19381           0.0000000000
    109657     20741  TIP3      H1             20.6058345799       22.2292842972      -35.9601048976  TIP3      19381           0.0000000000
    109658     20741  TIP3      H2             21.9263476132       22.2034708864      -36.6677921284  TIP3      19381           0.0000000000
    109659     20742  TIP3      OH2            27.0723037562       22.9865224738      -37.0516793326  TIP3      19382           0.0000000000
    109660     20742  TIP3      H1             26.6583795613       23.8059699870      -37.4042994418  TIP3      19382           0.0000000000
    109661     20742  TIP3      H2             27.7491337282       22.8162532319      -37.7318828191  TIP3      19382           0.0000000000
    109662     20743  TIP3      OH2            26.1506522979       23.1766441313      -25.6555657131  TIP3      19383           0.0000000000
    109663     20743  TIP3      H1             25.5787010183       22.4549088538      -25.2970791998  TIP3      19383           0.0000000000
    109664     20743  TIP3      H2             26.9433090577       23.0808905473      -25.1048455989  TIP3      19383           0.0000000000
    109665     20744  TIP3      OH2            28.1005779973       22.4698108808      -34.2128836723  TIP3      19384           0.0000000000
    109666     20744  TIP3      H1             27.8219748330       23.0348689424      -34.9550079141  TIP3      19384           0.0000000000
    109667     20744  TIP3      H2             28.1991277844       21.6222604353      -34.6851927854  TIP3      19384           0.0000000000
    109668     20745  TIP3      OH2            19.2108334380       22.6205121527      -29.0027082952  TIP3      19385           0.0000000000
    109669     20745  TIP3      H1             19.2866838199       23.0220523423      -28.1187264707  TIP3      19385           0.0000000000
    109670     20745  TIP3      H2             18.7670761912       21.7815427041      -28.8013749780  TIP3      19385           0.0000000000
    109671     20746  TIP3      OH2            22.5910472139       19.9294007260      -42.1084866946  TIP3      19386           0.0000000000
    109672     20746  TIP3      H1             21.9981213061       19.6277757618      -41.4189541585  TIP3      19386           0.0000000000
    109673     20746  TIP3      H2             21.9698867873       20.3984795311      -42.7045627275  TIP3      19386           0.0000000000
    109674     20747  TIP3      OH2            15.8661911364       19.7278326051      -35.0348379136  TIP3      19387           0.0000000000
    109675     20747  TIP3      H1             16.5453652450       19.6903659625      -34.3283429606  TIP3      19387           0.0000000000
    109676     20747  TIP3      H2             16.3184408446       19.3466185939      -35.8072679129  TIP3      19387           0.0000000000
    109677     20748  TIP3      OH2            17.1478786784       20.4545304920      -39.6333053006  TIP3      19388           0.0000000000
    109678     20748  TIP3      H1             17.6466847882       21.0444000982      -40.2368599144  TIP3      19388           0.0000000000
    109679     20748  TIP3      H2             16.4546615638       21.0805682916      -39.3342586847  TIP3      19388           0.0000000000
    109680     20749  TIP3      OH2            27.2994237690       24.0587843698      -29.6530983509  TIP3      19389           0.0000000000
    109681     20749  TIP3      H1             27.6755910506       23.3742632307      -30.2429939369  TIP3      19389           0.0000000000
    109682     20749  TIP3      H2             26.8366144549       23.5284715518      -28.9798769243  TIP3      19389           0.0000000000
    109683     20750  TIP3      OH2            24.0984516293       20.0141734100      -34.8392575101  TIP3      19390           0.0000000000
    109684     20750  TIP3      H1             23.1700038483       20.0399203004      -34.5336774967  TIP3      19390           0.0000000000
    109685     20750  TIP3      H2             24.5870308813       19.8726235753      -34.0132045028  TIP3      19390           0.0000000000
    109686     20751  TIP3      OH2            18.9119181876       21.5876287349      -35.9540283629  TIP3      19391           0.0000000000
    109687     20751  TIP3      H1             18.0244504517       21.7404754616      -36.3404268445  TIP3      19391           0.0000000000
    109688     20751  TIP3      H2             19.1969157648       20.7523547434      -36.3611264796  TIP3      19391           0.0000000000
    109689     20752  TIP3      OH2            22.5698452774       21.5811398507      -38.3823905783  TIP3      19392           0.0000000000
    109690     20752  TIP3      H1             23.4995179835       21.7722793858      -38.1378673014  TIP3      19392           0.0000000000
    109691     20752  TIP3      H2             22.3078441863       22.3113256296      -38.9807338341  TIP3      19392           0.0000000000
    109692     20753  TIP3      OH2            28.5095248197       19.2659959299      -31.5839058115  TIP3      19393           0.0000000000
    109693     20753  TIP3      H1             27.8244880956       19.3230219169      -30.8794584792  TIP3      19393           0.0000000000
    109694     20753  TIP3      H2             27.9978177128       19.0185883044      -32.3669827215  TIP3      19393           0.0000000000
    109695     20754  TIP3      OH2            21.2911554921       22.7657876394      -40.6963675785  TIP3      19394           0.0000000000
    109696     20754  TIP3      H1             20.7003636656       22.4817646521      -41.4190428742  TIP3      19394           0.0000000000
    109697     20754  TIP3      H2             22.0639913745       23.0524232800      -41.2129882208  TIP3      19394           0.0000000000
    109698     20755  TIP3      OH2            31.6612714617       34.8977559153      -25.2508217856  TIP3      19395           0.0000000000
    109699     20755  TIP3      H1             31.9901005636       35.3066387288      -26.0869267109  TIP3      19395           0.0000000000
    109700     20755  TIP3      H2             32.4038658597       35.2149687188      -24.6777326663  TIP3      19395           0.0000000000
    109701     20756  TIP3      OH2            19.3963235070       27.4025156087      -25.7133623102  TIP3      19396           0.0000000000
    109702     20756  TIP3      H1             20.0862150628       27.6303558127      -25.0689584401  TIP3      19396           0.0000000000
    109703     20756  TIP3      H2             18.6168976563       27.4773997450      -25.1140989730  TIP3      19396           0.0000000000
    109704     20757  TIP3      OH2            25.3847011543       22.7900848045      -32.9277206621  TIP3      19397           0.0000000000
    109705     20757  TIP3      H1             25.9873333633       22.2556756740      -33.4567718878  TIP3      19397           0.0000000000
    109706     20757  TIP3      H2             25.2400463971       22.2424349323      -32.1450957918  TIP3      19397           0.0000000000
    109707     20758  TIP3      OH2            20.3867146342       18.9404534167      -36.5043311908  TIP3      19398           0.0000000000
    109708     20758  TIP3      H1             20.0725153482       18.0152677841      -36.4849854047  TIP3      19398           0.0000000000
    109709     20758  TIP3      H2             21.1858419924       18.8589348714      -37.0293898362  TIP3      19398           0.0000000000
    109710     20759  TIP3      OH2            24.0239144059       21.1210499930      -30.5151745344  TIP3      19399           0.0000000000
    109711     20759  TIP3      H1             23.1984479725       21.6358231292      -30.4236389835  TIP3      19399           0.0000000000
    109712     20759  TIP3      H2             24.5772993759       21.4686136430      -29.7888342271  TIP3      19399           0.0000000000
    109713     20760  TIP3      OH2            24.4993737896       27.4646009518      -38.8158576428  TIP3      19400           0.0000000000
    109714     20760  TIP3      H1             23.8405289140       26.8063112920      -39.1564623850  TIP3      19400           0.0000000000
    109715     20760  TIP3      H2             24.4641343497       27.3537226426      -37.8466488769  TIP3      19400           0.0000000000
    109716     20761  TIP3      OH2            31.7951362347       26.5328687229      -30.0261907300  TIP3      19401           0.0000000000
    109717     20761  TIP3      H1             32.3583749127       27.0252369037      -30.6489897395  TIP3      19401           0.0000000000
    109718     20761  TIP3      H2             30.9330460216       26.5936306273      -30.4861507513  TIP3      19401           0.0000000000
    109719     20762  TIP3      OH2            28.4164714595       20.1281975141      -40.5816288136  TIP3      19402           0.0000000000
    109720     20762  TIP3      H1             27.5039762441       20.3089135752      -40.8143519900  TIP3      19402           0.0000000000
    109721     20762  TIP3      H2             28.7821164518       20.9995465491      -40.3309609221  TIP3      19402           0.0000000000
    109722     20763  TIP3      OH2            26.1044494996       27.5975011029      -27.5929777063  TIP3      19403           0.0000000000
    109723     20763  TIP3      H1             25.7742591584       27.1794976838      -26.7846154062  TIP3      19403           0.0000000000
    109724     20763  TIP3      H2             25.8550262148       28.5199014048      -27.4725583406  TIP3      19403           0.0000000000
    109725     20764  TIP3      OH2            29.1956293729       22.0803157289      -38.9740172535  TIP3      19404           0.0000000000
    109726     20764  TIP3      H1             30.0840159281       21.9388067739      -38.5949437682  TIP3      19404           0.0000000000
    109727     20764  TIP3      H2             29.2798842208       22.8936830806      -39.4919282198  TIP3      19404           0.0000000000
    109728     20765  TIP3      OH2            19.7239000194       26.7351125083      -33.0167064983  TIP3      19405           0.0000000000
    109729     20765  TIP3      H1             20.4072223881       26.6446841886      -33.6997569157  TIP3      19405           0.0000000000
    109730     20765  TIP3      H2             19.7772246440       25.8748703718      -32.5581568628  TIP3      19405           0.0000000000
    109731     20766  TIP3      OH2            26.6953487239       28.8004026693      -39.7669844274  TIP3      19406           0.0000000000
    109732     20766  TIP3      H1             26.3767810615       29.6617859390      -39.4167678306  TIP3      19406           0.0000000000
    109733     20766  TIP3      H2             25.9626895291       28.1911160916      -39.5605199137  TIP3      19406           0.0000000000
    109734     20767  TIP3      OH2            16.7202005584       25.1283220417      -27.7585867773  TIP3      19407           0.0000000000
    109735     20767  TIP3      H1             16.8851118460       24.6988048116      -26.8939584355  TIP3      19407           0.0000000000
    109736     20767  TIP3      H2             16.0903876258       24.5210453153      -28.1874843042  TIP3      19407           0.0000000000
    109737     20768  TIP3      OH2            23.7280900934       24.7515510882      -25.6018953135  TIP3      19408           0.0000000000
    109738     20768  TIP3      H1             23.4089463048       24.3814136389      -26.4293559395  TIP3      19408           0.0000000000
    109739     20768  TIP3      H2             24.6294962406       24.3875803942      -25.5350440683  TIP3      19408           0.0000000000
    109740     20769  TIP3      OH2            28.4322164535       30.0862257567      -27.6137439263  TIP3      19409           0.0000000000
    109741     20769  TIP3      H1             27.4964127573       30.1813674758      -27.8803031040  TIP3      19409           0.0000000000
    109742     20769  TIP3      H2             28.3489042260       30.2829056225      -26.6784098909  TIP3      19409           0.0000000000
    109743     20770  TIP3      OH2            34.0760947359       22.2186597619      -39.2193426354  TIP3      19410           0.0000000000
    109744     20770  TIP3      H1             33.5069099422       21.9160415239      -39.9602490899  TIP3      19410           0.0000000000
    109745     20770  TIP3      H2             34.1472283114       23.1543169345      -39.5064656569  TIP3      19410           0.0000000000
    109746     20771  TIP3      OH2            34.0708339727       28.0655887440      -26.4343438847  TIP3      19411           0.0000000000
    109747     20771  TIP3      H1             33.1884836746       28.2908636391      -26.8159751558  TIP3      19411           0.0000000000
    109748     20771  TIP3      H2             34.6250234851       28.0400151884      -27.2385089882  TIP3      19411           0.0000000000
    109749     20772  TIP3      OH2            32.3397282758       31.0292134789      -38.8267623910  TIP3      19412           0.0000000000
    109750     20772  TIP3      H1             31.9913554293       30.1925652148      -38.5087944569  TIP3      19412           0.0000000000
    109751     20772  TIP3      H2             32.6711946742       30.8464434594      -39.7317462966  TIP3      19412           0.0000000000
    109752     20773  TIP3      OH2            29.5654306121       25.8641977071      -31.7299292757  TIP3      19413           0.0000000000
    109753     20773  TIP3      H1             28.6261744415       25.6462235818      -31.8390860324  TIP3      19413           0.0000000000
    109754     20773  TIP3      H2             30.0003524641       25.1017113251      -32.1625663050  TIP3      19413           0.0000000000
    109755     20774  TIP3      OH2            22.1076053244       30.1452889030      -35.8065951135  TIP3      19414           0.0000000000
    109756     20774  TIP3      H1             22.5750275410       31.0095456413      -35.7802046076  TIP3      19414           0.0000000000
    109757     20774  TIP3      H2             21.1902076402       30.4578262757      -35.8937716274  TIP3      19414           0.0000000000
    109758     20775  TIP3      OH2            17.8230930508       25.0376495089      -41.1234295840  TIP3      19415           0.0000000000
    109759     20775  TIP3      H1             18.4417437220       25.6577192992      -40.7068294558  TIP3      19415           0.0000000000
    109760     20775  TIP3      H2             16.9694861338       25.3315939748      -40.7570161880  TIP3      19415           0.0000000000
    109761     20776  TIP3      OH2            23.4723338964       27.8626241750      -36.1403294249  TIP3      19416           0.0000000000
    109762     20776  TIP3      H1             23.2525290679       28.7728322504      -35.8509151713  TIP3      19416           0.0000000000
    109763     20776  TIP3      H2             22.8170912168       27.3299932355      -35.6275256878  TIP3      19416           0.0000000000
    109764     20777  TIP3      OH2            23.9657273673       32.0364065265      -29.7095459744  TIP3      19417           0.0000000000
    109765     20777  TIP3      H1             24.4177028023       32.8470265392      -29.9925164664  TIP3      19417           0.0000000000
    109766     20777  TIP3      H2             24.5832874794       31.6963998157      -29.0407937720  TIP3      19417           0.0000000000
    109767     20778  TIP3      OH2            22.1851663668       32.8266838926      -36.5621648675  TIP3      19418           0.0000000000
    109768     20778  TIP3      H1             21.2185536934       32.9888071920      -36.4396905379  TIP3      19418           0.0000000000
    109769     20778  TIP3      H2             22.5458977876       33.6778391504      -36.2441550027  TIP3      19418           0.0000000000
    109770     20779  TIP3      OH2            27.4899453201       28.0417089222      -30.0817295820  TIP3      19419           0.0000000000
    109771     20779  TIP3      H1             27.1517091985       27.8383393770      -29.1851721028  TIP3      19419           0.0000000000
    109772     20779  TIP3      H2             28.1265103539       27.3290881240      -30.2534301130  TIP3      19419           0.0000000000
    109773     20780  TIP3      OH2            29.7694084421       29.0690674714      -41.0013014397  TIP3      19420           0.0000000000
    109774     20780  TIP3      H1             30.0991713898       28.6351572101      -40.1910863161  TIP3      19420           0.0000000000
    109775     20780  TIP3      H2             28.8236347439       28.9253895085      -40.8761699118  TIP3      19420           0.0000000000
    109776     20781  TIP3      OH2            30.1707466193       32.7043490963      -27.5046957942  TIP3      19421           0.0000000000
    109777     20781  TIP3      H1             29.6400727334       32.1137338769      -28.0903498624  TIP3      19421           0.0000000000
    109778     20781  TIP3      H2             30.5039903419       33.2949235304      -28.2321681913  TIP3      19421           0.0000000000
    109779     20782  TIP3      OH2            34.2835383086       33.4992499004      -40.7718860328  TIP3      19422           0.0000000000
    109780     20782  TIP3      H1             34.9834747600       34.1357423946      -40.9720968251  TIP3      19422           0.0000000000
    109781     20782  TIP3      H2             33.5592324550       34.0833806604      -40.4604702208  TIP3      19422           0.0000000000
    109782     20783  TIP3      OH2            18.3640742940       19.8779947428      -28.1950365189  TIP3      19423           0.0000000000
    109783     20783  TIP3      H1             17.4556135789       20.2255408775      -28.2290270112  TIP3      19423           0.0000000000
    109784     20783  TIP3      H2             18.2486924118       19.0286210146      -27.7450213952  TIP3      19423           0.0000000000
    109785     20784  TIP3      OH2            30.5963399090       27.7383802323      -38.7458278494  TIP3      19424           0.0000000000
    109786     20784  TIP3      H1             30.3567737178       26.9497870999      -38.2144947978  TIP3      19424           0.0000000000
    109787     20784  TIP3      H2             31.5498326657       27.7913448112      -38.5595163763  TIP3      19424           0.0000000000
    109788     20785  TIP3      OH2            17.9825271954       31.6635243216      -29.7788691325  TIP3      19425           0.0000000000
    109789     20785  TIP3      H1             18.2744544087       30.7365341636      -29.7718956170  TIP3      19425           0.0000000000
    109790     20785  TIP3      H2             18.2392279221       31.9495530044      -28.8957861442  TIP3      19425           0.0000000000
    109791     20786  TIP3      OH2            23.9767080659       30.1381398422      -42.5192392962  TIP3      19426           0.0000000000
    109792     20786  TIP3      H1             24.0735639629       29.3871481379      -43.1014735762  TIP3      19426           0.0000000000
    109793     20786  TIP3      H2             23.5029348913       29.7757460476      -41.7481598807  TIP3      19426           0.0000000000
    109794     20787  TIP3      OH2            22.6669691444       29.7373945533      -40.0625460951  TIP3      19427           0.0000000000
    109795     20787  TIP3      H1             23.1444566814       29.1892056369      -39.4549872350  TIP3      19427           0.0000000000
    109796     20787  TIP3      H2             22.8203484513       30.6831711255      -39.8004413475  TIP3      19427           0.0000000000
    109797     20788  TIP3      OH2            19.2829350850       26.9704223204      -39.5472161252  TIP3      19428           0.0000000000
    109798     20788  TIP3      H1             18.5547392953       27.3637720687      -39.0219976433  TIP3      19428           0.0000000000
    109799     20788  TIP3      H2             19.7414839513       27.7556728050      -39.8827159303  TIP3      19428           0.0000000000
    109800     20789  TIP3      OH2            27.0959371519       19.6475969209      -29.2540169761  TIP3      19429           0.0000000000
    109801     20789  TIP3      H1             27.8051947155       19.7058612380      -28.6047986547  TIP3      19429           0.0000000000
    109802     20789  TIP3      H2             26.7094142415       18.7712498156      -29.0495960234  TIP3      19429           0.0000000000
    109803     20790  TIP3      OH2            27.8205871262       19.2428868444      -38.1380073038  TIP3      19430           0.0000000000
    109804     20790  TIP3      H1             28.0961102532       19.6893796536      -38.9683436633  TIP3      19430           0.0000000000
    109805     20790  TIP3      H2             28.4287594110       19.6522539934      -37.5106514195  TIP3      19430           0.0000000000
    109806     20791  TIP3      OH2            25.4953826978       31.3570278131      -39.3825105229  TIP3      19431           0.0000000000
    109807     20791  TIP3      H1             24.7180926589       31.9347426034      -39.2739547121  TIP3      19431           0.0000000000
    109808     20791  TIP3      H2             26.0554177626       31.9042054155      -39.9613099977  TIP3      19431           0.0000000000
    109809     20792  TIP3      OH2            25.0355315649       21.0480678589      -37.3079877120  TIP3      19432           0.0000000000
    109810     20792  TIP3      H1             25.8703186007       21.5594702837      -37.2782828874  TIP3      19432           0.0000000000
    109811     20792  TIP3      H2             24.8279105628       20.8656661312      -36.3727363496  TIP3      19432           0.0000000000
    109812     20793  TIP3      OH2            25.6164414168       21.9949719192      -28.1571385770  TIP3      19433           0.0000000000
    109813     20793  TIP3      H1             25.7043477577       22.5679630109      -27.3700940836  TIP3      19433           0.0000000000
    109814     20793  TIP3      H2             26.2821021936       21.3026088643      -28.0570047819  TIP3      19433           0.0000000000
    109815     20794  TIP3      OH2            25.9120692459       18.0251320794      -36.4620030139  TIP3      19434           0.0000000000
    109816     20794  TIP3      H1             25.6110657922       18.6698446108      -35.7981542705  TIP3      19434           0.0000000000
    109817     20794  TIP3      H2             26.6169807632       18.5655787523      -36.9015438227  TIP3      19434           0.0000000000
    109818     20795  TIP3      OH2            22.9027255750       32.3968883292      -39.2874500815  TIP3      19435           0.0000000000
    109819     20795  TIP3      H1             23.0459617731       33.2129779479      -39.8336714347  TIP3      19435           0.0000000000
    109820     20795  TIP3      H2             22.6455891828       32.8001104328      -38.4338982671  TIP3      19435           0.0000000000
    109821     20796  TIP3      OH2            21.5849371869       19.1694010989      -39.7301882436  TIP3      19436           0.0000000000
    109822     20796  TIP3      H1             21.4460529584       20.0804683475      -39.3793453437  TIP3      19436           0.0000000000
    109823     20796  TIP3      H2             22.3712566993       18.9499886055      -39.2403017042  TIP3      19436           0.0000000000
    109824     20797  TIP3      OH2            31.8016523749       19.8600269773      -27.2850653554  TIP3      19437           0.0000000000
    109825     20797  TIP3      H1             30.8748405354       20.1743481523      -27.4244924206  TIP3      19437           0.0000000000
    109826     20797  TIP3      H2             32.1026741876       19.8526272564      -28.2119616001  TIP3      19437           0.0000000000
    109827     20798  TIP3      OH2            30.4209262834       23.6486071845      -33.2969431812  TIP3      19438           0.0000000000
    109828     20798  TIP3      H1             29.5920056747       23.2124709011      -33.5723965715  TIP3      19438           0.0000000000
    109829     20798  TIP3      H2             30.8693355293       22.9557733189      -32.7644065525  TIP3      19438           0.0000000000
    109830     20799  TIP3      OH2            19.8655255104       29.5095516533      -40.6369866377  TIP3      19439           0.0000000000
    109831     20799  TIP3      H1             20.4440593344       30.2477107254      -40.4257737543  TIP3      19439           0.0000000000
    109832     20799  TIP3      H2             20.3241626609       29.1207916674      -41.4103011273  TIP3      19439           0.0000000000
    109833     20800  TIP3      OH2            18.1874147246       22.2395526586      -41.5132909330  TIP3      19440           0.0000000000
    109834     20800  TIP3      H1             18.1702152236       23.2073514001      -41.3898138047  TIP3      19440           0.0000000000
    109835     20800  TIP3      H2             17.3180218542       22.0493634921      -41.8778291266  TIP3      19440           0.0000000000
    109836     20801  TIP3      OH2            31.4772610995       32.9027422061      -31.6219768815  TIP3      19441           0.0000000000
    109837     20801  TIP3      H1             31.3831951388       33.5888770581      -32.3123628387  TIP3      19441           0.0000000000
    109838     20801  TIP3      H2             32.4414010392       32.9638507296      -31.4481410163  TIP3      19441           0.0000000000
    109839     20802  TIP3      OH2            18.9707446993       17.0315277398      -32.8203361266  TIP3      19442           0.0000000000
    109840     20802  TIP3      H1             18.7710597340       17.0515695066      -33.7823315811  TIP3      19442           0.0000000000
    109841     20802  TIP3      H2             18.5521335484       16.1824529489      -32.5663277864  TIP3      19442           0.0000000000
    109842     20803  TIP3      OH2            17.9354493104       30.9507038789      -36.6758657534  TIP3      19443           0.0000000000
    109843     20803  TIP3      H1             17.0752022604       31.3915778527      -36.7067285851  TIP3      19443           0.0000000000
    109844     20803  TIP3      H2             18.3879821844       31.4374237225      -37.3761946417  TIP3      19443           0.0000000000
    109845     20804  TIP3      OH2            17.1247815397       33.6221030953      -25.3756948217  TIP3      19444           0.0000000000
    109846     20804  TIP3      H1             17.7485492431       33.3994292470      -24.6592033893  TIP3      19444           0.0000000000
    109847     20804  TIP3      H2             16.7251057501       32.7561068596      -25.5668579689  TIP3      19444           0.0000000000
    109848     20805  TIP3      OH2            21.7855437062       32.5155526620      -23.7873448317  TIP3      19445           0.0000000000
    109849     20805  TIP3      H1             22.5510973210       32.0459898245      -23.4747032092  TIP3      19445           0.0000000000
    109850     20805  TIP3      H2             21.7467372672       32.2554693163      -24.7272909808  TIP3      19445           0.0000000000
    109851     20806  TIP3      OH2            25.9331697449       32.0420050988      -42.4129433814  TIP3      19446           0.0000000000
    109852     20806  TIP3      H1             25.2221903480       31.4083257850      -42.1854453041  TIP3      19446           0.0000000000
    109853     20806  TIP3      H2             26.6676315195       31.4550404544      -42.5966402553  TIP3      19446           0.0000000000
    109854     20807  TIP3      OH2            28.3448582660       30.9974480080      -24.9843335794  TIP3      19447           0.0000000000
    109855     20807  TIP3      H1             27.9796562916       30.0759669016      -24.8332923973  TIP3      19447           0.0000000000
    109856     20807  TIP3      H2             29.1474588611       30.8808154524      -24.4710810196  TIP3      19447           0.0000000000
    109857     20808  TIP3      OH2            30.5123712327       31.8098269717      -42.1720144956  TIP3      19448           0.0000000000
    109858     20808  TIP3      H1             30.7672071333       30.9911512103      -41.7091038840  TIP3      19448           0.0000000000
    109859     20808  TIP3      H2             31.2836972337       31.9884538404      -42.7148067780  TIP3      19448           0.0000000000
    109860     20809  TIP3      OH2            17.0796517461       27.3587378617      -24.4705019209  TIP3      19449           0.0000000000
    109861     20809  TIP3      H1             17.2093255421       26.4339679258      -24.7302851797  TIP3      19449           0.0000000000
    109862     20809  TIP3      H2             16.3026639495       27.6387432547      -24.9720433316  TIP3      19449           0.0000000000
    109863     20810  TIP3      OH2            21.4588056914       27.7361942592      -42.3015293314  TIP3      19450           0.0000000000
    109864     20810  TIP3      H1             21.5218468005       26.9232477372      -41.7822623860  TIP3      19450           0.0000000000
    109865     20810  TIP3      H2             22.0634069788       27.5731562535      -43.0320038417  TIP3      19450           0.0000000000
    109866     20811  TIP3      OH2            23.7886883430       27.3593316388      -25.0100075258  TIP3      19451           0.0000000000
    109867     20811  TIP3      H1             23.4197486984       27.6606193722      -25.8601799692  TIP3      19451           0.0000000000
    109868     20811  TIP3      H2             23.8329272234       26.3751718605      -25.1104023853  TIP3      19451           0.0000000000
    109869     20812  TIP3      OH2            26.7700990043       28.7840556188      -42.6161053795  TIP3      19452           0.0000000000
    109870     20812  TIP3      H1             26.5632770074       28.9550559685      -41.6732042957  TIP3      19452           0.0000000000
    109871     20812  TIP3      H2             26.5931181459       27.8380081587      -42.6709887361  TIP3      19452           0.0000000000
    109872     20813  TIP3      OH2            29.4569889058       27.2206676928      -27.5993616637  TIP3      19453           0.0000000000
    109873     20813  TIP3      H1             30.2418482933       27.8045711228      -27.6946391815  TIP3      19453           0.0000000000
    109874     20813  TIP3      H2             28.7444022030       27.8725802395      -27.5800208228  TIP3      19453           0.0000000000
    109875     20814  TIP3      OH2            17.9414859363       24.5956084567      -25.0288910384  TIP3      19454           0.0000000000
    109876     20814  TIP3      H1             18.3680334108       23.7364586319      -25.1203107590  TIP3      19454           0.0000000000
    109877     20814  TIP3      H2             17.7375381052       24.6029753470      -24.0775105794  TIP3      19454           0.0000000000
    109878     20815  TIP3      OH2            22.6245615972       25.7606957119      -39.9251528479  TIP3      19455           0.0000000000
    109879     20815  TIP3      H1             22.0907727412       25.1977971463      -39.3356398930  TIP3      19455           0.0000000000
    109880     20815  TIP3      H2             22.8985465034       25.0795460587      -40.5962118060  TIP3      19455           0.0000000000
    109881     20816  TIP3      OH2            21.8559643321       23.5487774857      -27.6628177059  TIP3      19456           0.0000000000
    109882     20816  TIP3      H1             21.2634814336       24.2702362882      -27.3915347578  TIP3      19456           0.0000000000
    109883     20816  TIP3      H2             22.2499004673       23.9168407583      -28.4733005601  TIP3      19456           0.0000000000
    109884     20817  TIP3      OH2            23.6757901965       23.9995768008      -41.7381817828  TIP3      19457           0.0000000000
    109885     20817  TIP3      H1             23.5394575656       23.8031541185      -42.6810640268  TIP3      19457           0.0000000000
    109886     20817  TIP3      H2             24.6509257007       24.0260033903      -41.6465193324  TIP3      19457           0.0000000000
    109887     20818  TIP3      OH2            26.9305907831       26.1114914502      -24.2826603860  TIP3      19458           0.0000000000
    109888     20818  TIP3      H1             27.8849030147       26.1037375007      -24.4352710014  TIP3      19458           0.0000000000
    109889     20818  TIP3      H2             26.7424004228       25.3272977302      -23.7288158279  TIP3      19458           0.0000000000
    109890     20819  TIP3      OH2            33.0739136757       26.3102598426      -42.3282310471  TIP3      19459           0.0000000000
    109891     20819  TIP3      H1             32.7500459215       25.9004652612      -43.1357708893  TIP3      19459           0.0000000000
    109892     20819  TIP3      H2             33.0633709311       27.2543879975      -42.5326291452  TIP3      19459           0.0000000000
    109893     20820  TIP3      OH2            22.2635950536       20.9184669949      -26.6008106280  TIP3      19460           0.0000000000
    109894     20820  TIP3      H1             22.3718265362       20.2101574366      -27.2584802419  TIP3      19460           0.0000000000
    109895     20820  TIP3      H2             22.2238495736       21.7346739598      -27.1409370173  TIP3      19460           0.0000000000
    109896     20821  TIP3      OH2            22.6702666385       19.3061085557      -29.0553833119  TIP3      19461           0.0000000000
    109897     20821  TIP3      H1             23.1794520840       19.7692443270      -29.7595662661  TIP3      19461           0.0000000000
    109898     20821  TIP3      H2             21.7756999800       19.2264942437      -29.4576604216  TIP3      19461           0.0000000000
    109899     20822  TIP3      OH2            24.2090259186       24.7884062689      -28.8097060574  TIP3      19462           0.0000000000
    109900     20822  TIP3      H1             24.9677542490       24.6273843205      -29.3766245686  TIP3      19462           0.0000000000
    109901     20822  TIP3      H2             23.8488060973       25.6296333891      -29.1303859093  TIP3      19462           0.0000000000
    109902     20823  TIP3      OH2            28.6048663080       22.5437979123      -23.8196268389  TIP3      19463           0.0000000000
    109903     20823  TIP3      H1             28.8610026080       21.6268100885      -23.9302789544  TIP3      19463           0.0000000000
    109904     20823  TIP3      H2             29.4670205455       22.9880795384      -23.8274427240  TIP3      19463           0.0000000000
    109905     20824  TIP3      OH2            29.9385357757       25.3378570540      -25.6835107470  TIP3      19464           0.0000000000
    109906     20824  TIP3      H1             29.6921521657       26.0610137101      -26.3006815267  TIP3      19464           0.0000000000
    109907     20824  TIP3      H2             30.8996490120       25.3142904617      -25.8630484848  TIP3      19464           0.0000000000
    109908     20825  TIP3      OH2            20.7063128840       22.1854672948      -24.6956786329  TIP3      19465           0.0000000000
    109909     20825  TIP3      H1             19.9499602236       21.5883812656      -24.8401707316  TIP3      19465           0.0000000000
    109910     20825  TIP3      H2             21.3770296359       21.8140406852      -25.2940957021  TIP3      19465           0.0000000000
    109911     20826  TIP3      OH2            23.4559773058       16.7432625985      -28.6553790396  TIP3      19466           0.0000000000
    109912     20826  TIP3      H1             23.2822337445       17.7068383210      -28.7522147899  TIP3      19466           0.0000000000
    109913     20826  TIP3      H2             22.7053565751       16.3796768437      -29.1569405368  TIP3      19466           0.0000000000
    109914     20827  TIP3      OH2            24.7358218243       21.0128001906      -25.0179844450  TIP3      19467           0.0000000000
    109915     20827  TIP3      H1             24.3573641155       20.9034327752      -24.1289940680  TIP3      19467           0.0000000000
    109916     20827  TIP3      H2             23.9484817463       20.9001383069      -25.5904377876  TIP3      19467           0.0000000000
    109917     20828  TIP3      OH2            27.4537677756       20.1879220099      -25.9679604360  TIP3      19468           0.0000000000
    109918     20828  TIP3      H1             26.4889125872       20.2772006817      -25.8551750391  TIP3      19468           0.0000000000
    109919     20828  TIP3      H2             27.7132314656       19.5717113977      -25.2701371293  TIP3      19468           0.0000000000
    109920     20829  TIP3      OH2            28.9900326070       18.8670723457      -24.0107954530  TIP3      19469           0.0000000000
    109921     20829  TIP3      H1             28.9988199608       17.8829806669      -24.0509220419  TIP3      19469           0.0000000000
    109922     20829  TIP3      H2             28.7706867858       19.1303939937      -23.1164537569  TIP3      19469           0.0000000000
    109923     20830  TIP3      OH2            18.7889318243       20.0950821802      -24.9782708467  TIP3      19470           0.0000000000
    109924     20830  TIP3      H1             19.0739407103       19.3575917229      -25.5372107535  TIP3      19470           0.0000000000
    109925     20830  TIP3      H2             18.7338154789       19.6879373453      -24.0940773281  TIP3      19470           0.0000000000
    109926     20831  TIP3      OH2            23.6931801242       16.1426265743      -25.9590590848  TIP3      19471           0.0000000000
    109927     20831  TIP3      H1             24.3444883181       15.4142814862      -25.9828828726  TIP3      19471           0.0000000000
    109928     20831  TIP3      H2             23.5611824484       16.2890530357      -26.9157984337  TIP3      19471           0.0000000000
    109929     20832  TIP3      OH2            24.0671460944       17.7461960695      -23.8567994107  TIP3      19472           0.0000000000
    109930     20832  TIP3      H1             23.8797912181       17.2452030861      -24.6903197155  TIP3      19472           0.0000000000
    109931     20832  TIP3      H2             23.4408537805       18.5020327991      -23.9438538470  TIP3      19472           0.0000000000
    109932     20833  TIP3      OH2            23.5117206515       34.6946830185      -40.6626875638  TIP3      19473           0.0000000000
    109933     20833  TIP3      H1             24.4864051903       34.7426511641      -40.6188717678  TIP3      19473           0.0000000000
    109934     20833  TIP3      H2             23.3291394703       35.2891228553      -41.3900472471  TIP3      19473           0.0000000000
    109935     20834  TIP3      OH2            17.0936400450       29.2560705781      -41.1901091810  TIP3      19474           0.0000000000
    109936     20834  TIP3      H1             18.0440153135       29.3472087102      -40.9724218651  TIP3      19474           0.0000000000
    109937     20834  TIP3      H2             17.1528619553       28.6446982466      -41.9327862442  TIP3      19474           0.0000000000
    109938     20835  TIP3      OH2            15.8481263286       34.6214202474      -36.2380089015  TIP3      19475           0.0000000000
    109939     20835  TIP3      H1             15.1273861915       34.1403705047      -36.7013912512  TIP3      19475           0.0000000000
    109940     20835  TIP3      H2             16.1185729094       33.9690789645      -35.5683876275  TIP3      19475           0.0000000000
    109941     20836  TIP3      OH2            16.6600090619       32.7567070416      -34.3604012001  TIP3      19476           0.0000000000
    109942     20836  TIP3      H1             16.3086860200       31.8762059689      -34.1658200840  TIP3      19476           0.0000000000
    109943     20836  TIP3      H2             16.8823690975       33.0858684864      -33.4733732976  TIP3      19476           0.0000000000
    109944     20837  TIP3      OH2            34.1612905035       33.5601141778      -31.4356672667  TIP3      19477           0.0000000000
    109945     20837  TIP3      H1             34.2103857993       33.7058052188      -30.4763325589  TIP3      19477           0.0000000000
    109946     20837  TIP3      H2             34.8915408893       34.1209918935      -31.7301508818  TIP3      19477           0.0000000000
    109947     20838  TIP3      OH2            33.7476208736       33.1463862090      -28.4601246025  TIP3      19478           0.0000000000
    109948     20838  TIP3      H1             33.3064293611       32.3722562622      -28.8595121319  TIP3      19478           0.0000000000
    109949     20838  TIP3      H2             34.2990523461       32.7007529564      -27.7944460536  TIP3      19478           0.0000000000
    109950     20839  TIP3      OH2            33.5336259369       27.1913953783      -38.3791182871  TIP3      19479           0.0000000000
    109951     20839  TIP3      H1             34.3869521091       27.5992787553      -38.1732223215  TIP3      19479           0.0000000000
    109952     20839  TIP3      H2             33.5153496786       26.4754232864      -37.7077673873  TIP3      19479           0.0000000000
    109953     20840  TIP3      OH2            33.8827629004       25.2717892173      -36.4967554865  TIP3      19480           0.0000000000
    109954     20840  TIP3      H1             33.1372522389       24.7631708730      -36.1097023533  TIP3      19480           0.0000000000
    109955     20840  TIP3      H2             34.4701814247       25.4226473668      -35.7334179786  TIP3      19480           0.0000000000
    109956     20841  TIP3      OH2            33.6427822426       27.9811432580      -31.4998514721  TIP3      19481           0.0000000000
    109957     20841  TIP3      H1             34.4532014387       27.6074063981      -31.8843914330  TIP3      19481           0.0000000000
    109958     20841  TIP3      H2             33.7893917023       28.9312565389      -31.6736720418  TIP3      19481           0.0000000000
    109959     20842  TIP3      OH2            32.1961568534       30.8872014251      -29.2365243827  TIP3      19482           0.0000000000
    109960     20842  TIP3      H1             31.5055416463       31.2068792282      -28.6542211202  TIP3      19482           0.0000000000
    109961     20842  TIP3      H2             31.6659540685       30.4666795855      -29.9514170573  TIP3      19482           0.0000000000
    109962     20843  TIP3      OH2            34.2254055614       25.1358470885      -40.1411647732  TIP3      19483           0.0000000000
    109963     20843  TIP3      H1             33.6128961859       25.4639501812      -40.8326185608  TIP3      19483           0.0000000000
    109964     20843  TIP3      H2             34.0805518404       25.7979581124      -39.4373195078  TIP3      19483           0.0000000000
    109965     20844  TIP3      OH2            32.5244548705       22.3199312226      -41.5412638108  TIP3      19484           0.0000000000
    109966     20844  TIP3      H1             32.6345046940       22.9743417137      -42.2377691184  TIP3      19484           0.0000000000
    109967     20844  TIP3      H2             32.3788304987       21.4993870206      -42.0599332131  TIP3      19484           0.0000000000
    109968     20845  TIP3      OH2            31.7126925039       23.7469084728      -35.9237137428  TIP3      19485           0.0000000000
    109969     20845  TIP3      H1             31.5611872103       22.7916716563      -35.9607482436  TIP3      19485           0.0000000000
    109970     20845  TIP3      H2             31.3772448886       23.9676864866      -35.0350147122  TIP3      19485           0.0000000000
    109971     20846  TIP3      OH2            16.7154606704       25.8315103492      -31.8660448871  TIP3      19486           0.0000000000
    109972     20846  TIP3      H1             16.8971555790       25.7525070319      -32.8282862700  TIP3      19486           0.0000000000
    109973     20846  TIP3      H2             17.6082692083       25.6607244433      -31.5096769838  TIP3      19486           0.0000000000
    109974     20847  TIP3      OH2            32.5472699463       25.7250559615      -26.2355581380  TIP3      19487           0.0000000000
    109975     20847  TIP3      H1             33.1515529746       24.9702776466      -26.0746434117  TIP3      19487           0.0000000000
    109976     20847  TIP3      H2             33.1708202159       26.4809317520      -26.2306403882  TIP3      19487           0.0000000000
    109977     20848  TIP3      OH2            34.0616257705       23.6274262426      -25.5861136024  TIP3      19488           0.0000000000
    109978     20848  TIP3      H1             33.1883676060       23.2163285007      -25.7550501275  TIP3      19488           0.0000000000
    109979     20848  TIP3      H2             34.6328793200       22.8452228806      -25.6767757846  TIP3      19488           0.0000000000
    109980     20849  TIP3      OH2            31.7937873417       19.8288482072      -42.4034726484  TIP3      19489           0.0000000000
    109981     20849  TIP3      H1             32.3926908494       19.3284758659      -41.8151903334  TIP3      19489           0.0000000000
    109982     20849  TIP3      H2             30.9452826098       19.3638785135      -42.3020826828  TIP3      19489           0.0000000000
    109983     20850  TIP3      OH2            31.3770979666       21.3271204823      -37.4467382372  TIP3      19490           0.0000000000
    109984     20850  TIP3      H1             31.6764216178       20.3949403694      -37.3309297975  TIP3      19490           0.0000000000
    109985     20850  TIP3      H2             32.1657440931       21.7249499958      -37.8395283328  TIP3      19490           0.0000000000
    109986     20851  TIP3      OH2            32.0186863194       21.8732229590      -32.0200189666  TIP3      19491           0.0000000000
    109987     20851  TIP3      H1             32.9784130358       22.1093445679      -32.0365693268  TIP3      19491           0.0000000000
    109988     20851  TIP3      H2             31.8226558095       22.0167434450      -31.0809880619  TIP3      19491           0.0000000000
    109989     20852  TIP3      OH2            32.0805056231       22.5985406375      -29.2467353143  TIP3      19492           0.0000000000
    109990     20852  TIP3      H1             31.2045182525       22.8867026407      -28.9081955674  TIP3      19492           0.0000000000
    109991     20852  TIP3      H2             32.5156832304       23.4599886542      -29.4540291414  TIP3      19492           0.0000000000
    109992     20853  TIP3      OH2            16.3188985799       21.1299172305      -25.7144603500  TIP3      19493           0.0000000000
    109993     20853  TIP3      H1             17.2605211891       20.9300820413      -25.5284307152  TIP3      19493           0.0000000000
    109994     20853  TIP3      H2             15.8835506687       20.3054214418      -25.4221674702  TIP3      19493           0.0000000000
    109995     20854  TIP3      OH2            34.3027374095       16.6419722051      -23.9225044490  TIP3      19494           0.0000000000
    109996     20854  TIP3      H1             34.7021414887       15.9868143457      -24.5166880267  TIP3      19494           0.0000000000
    109997     20854  TIP3      H2             34.4806277027       17.4831659414      -24.3793990782  TIP3      19494           0.0000000000
    109998     20855  TIP3      OH2            32.0407422187       18.6080239335      -37.4204366039  TIP3      19495           0.0000000000
    109999     20855  TIP3      H1             32.2571379612       18.1721479185      -36.5675336622  TIP3      19495           0.0000000000
    110000     20855  TIP3      H2             31.4410695746       17.9733702593      -37.8666317859  TIP3      19495           0.0000000000
    110001     20856  TIP3      OH2            17.5317533851       19.4229224841      -32.8616505484  TIP3      19496           0.0000000000
    110002     20856  TIP3      H1             17.9954352285       18.5994109930      -32.6013354887  TIP3      19496           0.0000000000
    110003     20856  TIP3      H2             18.0786967543       20.1174381782      -32.4692984597  TIP3      19496           0.0000000000
    110004     20857  TIP3      OH2            15.8174172443       22.4233836722      -31.8228089019  TIP3      19497           0.0000000000
    110005     20857  TIP3      H1             16.3799318294       22.1780263508      -32.5856715620  TIP3      19497           0.0000000000
    110006     20857  TIP3      H2             16.2791996976       23.2305206676      -31.5533764352  TIP3      19497           0.0000000000
    110007     20858  TIP3      OH2            33.8877035138       18.7655367879      -25.5374906994  TIP3      19498           0.0000000000
    110008     20858  TIP3      H1             32.9513303299       19.0241180634      -25.6185021765  TIP3      19498           0.0000000000
    110009     20858  TIP3      H2             33.9303792870       18.2069635396      -26.3301987706  TIP3      19498           0.0000000000
    110010     20859  TIP3      OH2            33.8711921007       18.6635127800      -40.8863368358  TIP3      19499           0.0000000000
    110011     20859  TIP3      H1             34.2876140212       17.9281721450      -41.3625433194  TIP3      19499           0.0000000000
    110012     20859  TIP3      H2             34.5856932409       19.3161974899      -40.8259521692  TIP3      19499           0.0000000000
    110013     20860  TIP3      OH2            16.1807891902       18.6730108006      -37.7661197159  TIP3      19500           0.0000000000
    110014     20860  TIP3      H1             15.2415090226       18.8759340035      -37.8835686322  TIP3      19500           0.0000000000
    110015     20860  TIP3      H2             16.6030682888       19.1837845229      -38.4782070788  TIP3      19500           0.0000000000
    110016     20861  TIP3      OH2            30.9259808342       33.6233240818      -35.8054796729  TIP3      19501           0.0000000000
    110017     20861  TIP3      H1             31.6076822832       33.3163146601      -36.4229899988  TIP3      19501           0.0000000000
    110018     20861  TIP3      H2             31.4407481175       34.1334232326      -35.1610875455  TIP3      19501           0.0000000000
    110019     20862  TIP3      OH2            16.1335787941       17.3433687518      -29.4527752699  TIP3      19502           0.0000000000
    110020     20862  TIP3      H1             15.4625645946       17.1485599650      -28.7745726024  TIP3      19502           0.0000000000
    110021     20862  TIP3      H2             15.6742737709       18.0157870683      -29.9958585466  TIP3      19502           0.0000000000
    110022     20863  TIP3      OH2            18.3736735930       30.5732338533      -25.3053121235  TIP3      19503           0.0000000000
    110023     20863  TIP3      H1             17.5163709016       30.7500997577      -25.7175739659  TIP3      19503           0.0000000000
    110024     20863  TIP3      H2             18.1053505520       30.4556159847      -24.3833637400  TIP3      19503           0.0000000000
    110025     20864  TIP3      OH2            21.2584966257       31.5431032016      -29.0286975858  TIP3      19504           0.0000000000
    110026     20864  TIP3      H1             20.9325052105       32.4138808785      -29.2928309106  TIP3      19504           0.0000000000
    110027     20864  TIP3      H2             22.1926161852       31.6298945559      -29.3118901515  TIP3      19504           0.0000000000
    110028     20865  TIP3      OH2            25.6139651388       32.9578399205      -26.0770980455  TIP3      19505           0.0000000000
    110029     20865  TIP3      H1             25.7735177294       32.5991434893      -25.2000553182  TIP3      19505           0.0000000000
    110030     20865  TIP3      H2             26.4703005834       33.2842584524      -26.4050566911  TIP3      19505           0.0000000000
    110031     20866  TIP3      OH2            27.8275742368       34.2346434185      -26.8400597863  TIP3      19506           0.0000000000
    110032     20866  TIP3      H1             28.5625065315       33.7401246351      -27.2510046206  TIP3      19506           0.0000000000
    110033     20866  TIP3      H2             28.1822310972       34.8487490495      -26.1669443373  TIP3      19506           0.0000000000
    110034     20867  TIP3      OH2            32.8941170420       16.8473713159      -27.7073891790  TIP3      19507           0.0000000000
    110035     20867  TIP3      H1             32.0630704671       17.1472888318      -28.1149135164  TIP3      19507           0.0000000000
    110036     20867  TIP3      H2             33.0623007042       16.0277066480      -28.2237168453  TIP3      19507           0.0000000000
    110037     20868  TIP3      OH2            18.6814432157       34.7444609979      -29.0102436649  TIP3      19508           0.0000000000
    110038     20868  TIP3      H1             17.9743631856       35.2805097888      -29.4119124434  TIP3      19508           0.0000000000
    110039     20868  TIP3      H2             18.3678521737       34.5993746539      -28.1083101062  TIP3      19508           0.0000000000
    110040     20869  TIP3      OH2            21.1622962401       34.3459396239      -29.9501357544  TIP3      19509           0.0000000000
    110041     20869  TIP3      H1             20.2741461092       34.5171161353      -29.5551749926  TIP3      19509           0.0000000000
    110042     20869  TIP3      H2             21.1138490083       34.9451547756      -30.7195467701  TIP3      19509           0.0000000000
    110043     20870  TIP3      OH2            25.8743565464       34.2732815076      -30.7747940711  TIP3      19510           0.0000000000
    110044     20870  TIP3      H1             25.4064643247       34.8096832732      -31.4332098575  TIP3      19510           0.0000000000
    110045     20870  TIP3      H2             25.9990274068       34.9297446581      -30.0524185189  TIP3      19510           0.0000000000
    110046     20871  TIP3      OH2            28.1433418461       33.0960048507      -29.7130267313  TIP3      19511           0.0000000000
    110047     20871  TIP3      H1             27.3015782884       33.3481505800      -30.1324583263  TIP3      19511           0.0000000000
    110048     20871  TIP3      H2             28.6273254118       33.9279524842      -29.8650047198  TIP3      19511           0.0000000000
    110049     20872  TIP3      OH2            30.7202207398       34.6592790526      -29.5136178568  TIP3      19512           0.0000000000
    110050     20872  TIP3      H1             30.6742136422       35.6226205469      -29.7496054476  TIP3      19512           0.0000000000
    110051     20872  TIP3      H2             30.9570166790       34.2937480912      -30.3928484059  TIP3      19512           0.0000000000
    110052     20873  TIP3      OH2            18.1492107713       33.4317824721      -32.0754014248  TIP3      19513           0.0000000000
    110053     20873  TIP3      H1             18.0693472017       32.9750623375      -31.2089129812  TIP3      19513           0.0000000000
    110054     20873  TIP3      H2             18.9639092741       33.0570233393      -32.4640290052  TIP3      19513           0.0000000000
    110055     20874  TIP3      OH2            20.2406108079       32.1324103225      -33.4421602492  TIP3      19514           0.0000000000
    110056     20874  TIP3      H1             20.0482341652       31.2148228584      -33.1698455785  TIP3      19514           0.0000000000
    110057     20874  TIP3      H2             21.0833756683       32.2936973295      -32.9661550953  TIP3      19514           0.0000000000
    110058     20875  TIP3      OH2            22.8370270509       32.6243538987      -32.5458144222  TIP3      19515           0.0000000000
    110059     20875  TIP3      H1             22.9988964889       31.7018378905      -32.7965921273  TIP3      19515           0.0000000000
    110060     20875  TIP3      H2             22.8753940746       32.5721599705      -31.5797740993  TIP3      19515           0.0000000000
    110061     20876  TIP3      OH2            26.2864555010       18.2787702133      -33.4099186560  TIP3      19516           0.0000000000
    110062     20876  TIP3      H1             25.6037723321       17.6389795284      -33.1482863352  TIP3      19516           0.0000000000
    110063     20876  TIP3      H2             26.8413587461       17.7467476310      -33.9921616417  TIP3      19516           0.0000000000
    110064     20877  TIP3      OH2            31.4218275369       16.3287961926      -33.3406648584  TIP3      19517           0.0000000000
    110065     20877  TIP3      H1             32.0363408501       16.9182122570      -33.8458020383  TIP3      19517           0.0000000000
    110066     20877  TIP3      H2             30.5416930378       16.6874838602      -33.5726373935  TIP3      19517           0.0000000000
    110067     20878  TIP3      OH2            33.0965088316       17.5694881633      -35.0633824693  TIP3      19518           0.0000000000
    110068     20878  TIP3      H1             33.7751522005       16.9886650204      -35.4862916878  TIP3      19518           0.0000000000
    110069     20878  TIP3      H2             33.5989880104       18.4085235239      -34.9614415066  TIP3      19518           0.0000000000
    110070     20879  TIP3      OH2            18.6580664596       16.9052197698      -35.5628228430  TIP3      19519           0.0000000000
    110071     20879  TIP3      H1             17.8584057244       16.7023727259      -36.0862878892  TIP3      19519           0.0000000000
    110072     20879  TIP3      H2             19.1187523147       16.0460843193      -35.6148611182  TIP3      19519           0.0000000000
    110073     20880  TIP3      OH2            17.3918694064       16.6602549405      -39.8694580070  TIP3      19520           0.0000000000
    110074     20880  TIP3      H1             17.8962503389       17.3120643165      -40.3883809448  TIP3      19520           0.0000000000
    110075     20880  TIP3      H2             16.8624858210       17.2267684249      -39.2799907498  TIP3      19520           0.0000000000
    110076     20881  TIP3      OH2            23.1391208905       16.8453193253      -35.7903274160  TIP3      19521           0.0000000000
    110077     20881  TIP3      H1             24.0479517825       17.1850198740      -35.8217546119  TIP3      19521           0.0000000000
    110078     20881  TIP3      H2             23.0834584019       16.6105475601      -34.8593633620  TIP3      19521           0.0000000000
    110079     20882  TIP3      OH2            28.8231286177       16.8521864004      -34.1600601638  TIP3      19522           0.0000000000
    110080     20882  TIP3      H1             28.7805872198       16.9629444679      -35.1187897515  TIP3      19522           0.0000000000
    110081     20882  TIP3      H2             28.4624400112       15.9404156725      -34.0301466000  TIP3      19522           0.0000000000
    110082     20883  TIP3      OH2            30.1272312061       16.8616635575      -38.4962999785  TIP3      19523           0.0000000000
    110083     20883  TIP3      H1             29.3875554836       17.4718716166      -38.6431307639  TIP3      19523           0.0000000000
    110084     20883  TIP3      H2             29.6681204508       16.0260647389      -38.2517715206  TIP3      19523           0.0000000000
    110085     20884  TIP3      OH2            17.3458508995       32.6106055328      -38.8375337086  TIP3      19524           0.0000000000
    110086     20884  TIP3      H1             16.6671512770       32.6072156664      -39.5420639777  TIP3      19524           0.0000000000
    110087     20884  TIP3      H2             17.3632086506       33.5622419259      -38.6623422178  TIP3      19524           0.0000000000
    110088     20885  TIP3      OH2            19.2411372447       18.5430299261      -41.3073561145  TIP3      19525           0.0000000000
    110089     20885  TIP3      H1             19.7953804915       17.9898763214      -41.8614368024  TIP3      19525           0.0000000000
    110090     20885  TIP3      H2             19.8829331192       18.9525846116      -40.7051645849  TIP3      19525           0.0000000000
    110091     20886  TIP3      OH2            24.5318556062       18.8971132303      -38.7409787107  TIP3      19526           0.0000000000
    110092     20886  TIP3      H1             24.6060840994       18.2957037252      -37.9745278678  TIP3      19526           0.0000000000
    110093     20886  TIP3      H2             24.4230115944       19.7666411240      -38.2645749027  TIP3      19526           0.0000000000
    110094     20887  TIP3      OH2            26.1957098261       33.9446125225      -40.5108811322  TIP3      19527           0.0000000000
    110095     20887  TIP3      H1             27.1396757184       34.1286588015      -40.6709720324  TIP3      19527           0.0000000000
    110096     20887  TIP3      H2             26.0088949364       33.3797040353      -41.2951496549  TIP3      19527           0.0000000000
    110097     20888  TIP3      OH2            32.9152361302       33.4182661507      -37.7614463732  TIP3      19528           0.0000000000
    110098     20888  TIP3      H1             32.7105022703       32.6429180942      -38.3390416079  TIP3      19528           0.0000000000
    110099     20888  TIP3      H2             32.8104606502       34.1524409508      -38.3952448956  TIP3      19528           0.0000000000
    110100     20889  TIP3      OH2            18.5346651442       17.4445182719      -26.0930924134  TIP3      19529           0.0000000000
    110101     20889  TIP3      H1             18.1654925531       16.6416677265      -25.6898644332  TIP3      19529           0.0000000000
    110102     20889  TIP3      H2             19.4552682595       17.4013932215      -25.7505042901  TIP3      19529           0.0000000000
    110103     20890  TIP3      OH2            20.5506735660       16.8023081004      -24.4477764646  TIP3      19530           0.0000000000
    110104     20890  TIP3      H1             21.4279507410       16.4689511598      -24.7293705206  TIP3      19530           0.0000000000
    110105     20890  TIP3      H2             20.1648001647       15.9905898039      -24.0639522402  TIP3      19530           0.0000000000
    110106     20891  TIP3      OH2            19.1729184581       33.6080054946      -41.8685228767  TIP3      19531           0.0000000000
    110107     20891  TIP3      H1             18.8749593744       33.8604838966      -40.9908798131  TIP3      19531           0.0000000000
    110108     20891  TIP3      H2             19.9076533444       33.0151027752      -41.6965265514  TIP3      19531           0.0000000000
    110109     20892  TIP3      OH2            28.9611721608       16.1406487497      -24.3182069978  TIP3      19532           0.0000000000
    110110     20892  TIP3      H1             29.0588539441       15.6150177698      -23.5032179857  TIP3      19532           0.0000000000
    110111     20892  TIP3      H2             29.8618092002       16.0712688427      -24.7120216422  TIP3      19532           0.0000000000
    110112     20893  TIP3      OH2            32.1069737895       32.1724335333      -25.6174365355  TIP3      19533           0.0000000000
    110113     20893  TIP3      H1             31.3947293196       32.0069496361      -26.2555158999  TIP3      19533           0.0000000000
    110114     20893  TIP3      H2             32.0931841361       33.1388513011      -25.4918722218  TIP3      19533           0.0000000000
    110115     20894  TIP3      OH2            37.8845259630       24.9438221734      -30.7326825818  TIP3      19534           0.0000000000
    110116     20894  TIP3      H1             37.8685116258       24.3043853909      -29.9706975814  TIP3      19534           0.0000000000
    110117     20894  TIP3      H2             38.5522372351       25.5571631380      -30.3681648984  TIP3      19534           0.0000000000
    110118     20895  TIP3      OH2            38.7231377826       29.3810447439      -32.0837309949  TIP3      19535           0.0000000000
    110119     20895  TIP3      H1             38.4248527290       28.5464922858      -32.4727947121  TIP3      19535           0.0000000000
    110120     20895  TIP3      H2             39.6964471257       29.2673928158      -32.0653869383  TIP3      19535           0.0000000000
    110121     20896  TIP3      OH2            35.3879245129       22.9914294914      -36.6623632987  TIP3      19536           0.0000000000
    110122     20896  TIP3      H1             34.9463795330       23.8607310441      -36.7263161933  TIP3      19536           0.0000000000
    110123     20896  TIP3      H2             34.8142304370       22.4444512199      -37.2192914012  TIP3      19536           0.0000000000
    110124     20897  TIP3      OH2            36.1755942332       25.2453415072      -34.4807282167  TIP3      19537           0.0000000000
    110125     20897  TIP3      H1             36.2861273250       24.3591474178      -34.0901524902  TIP3      19537           0.0000000000
    110126     20897  TIP3      H2             36.8101836958       25.2806256965      -35.2115274348  TIP3      19537           0.0000000000
    110127     20898  TIP3      OH2            39.6882486876       20.4047921038      -33.9921493952  TIP3      19538           0.0000000000
    110128     20898  TIP3      H1             40.1578564053       21.0906611898      -34.5200470442  TIP3      19538           0.0000000000
    110129     20898  TIP3      H2             39.6845358426       19.7235729723      -34.6649653521  TIP3      19538           0.0000000000
    110130     20899  TIP3      OH2            36.8715599060       22.7500161631      -33.4782885655  TIP3      19539           0.0000000000
    110131     20899  TIP3      H1             37.4083551969       22.0700979112      -33.0039596488  TIP3      19539           0.0000000000
    110132     20899  TIP3      H2             36.8108045260       22.3198969064      -34.3603212340  TIP3      19539           0.0000000000
    110133     20900  TIP3      OH2            38.9539747040       19.0891275110      -30.1604038787  TIP3      19540           0.0000000000
    110134     20900  TIP3      H1             38.7471028538       19.7259749722      -30.8756386758  TIP3      19540           0.0000000000
    110135     20900  TIP3      H2             38.3397038324       19.4164097443      -29.4638542832  TIP3      19540           0.0000000000
    110136     20901  TIP3      OH2            38.3886478514       21.1119271421      -32.0338923452  TIP3      19541           0.0000000000
    110137     20901  TIP3      H1             39.1627213120       21.6491975878      -31.7041853687  TIP3      19541           0.0000000000
    110138     20901  TIP3      H2             38.9494116104       20.6632858879      -32.7238129235  TIP3      19541           0.0000000000
    110139     20902  TIP3      OH2            39.7735521618       28.8870820792      -29.2425285781  TIP3      19542           0.0000000000
    110140     20902  TIP3      H1             39.8620216976       29.8413690123      -29.3856704200  TIP3      19542           0.0000000000
    110141     20902  TIP3      H2             38.9973796634       28.8425318274      -28.6378392037  TIP3      19542           0.0000000000
    110142     20903  TIP3      OH2            36.0763799696       28.4286608864      -38.3144323773  TIP3      19543           0.0000000000
    110143     20903  TIP3      H1             35.7910639366       28.7482059800      -39.1882299699  TIP3      19543           0.0000000000
    110144     20903  TIP3      H2             36.1177752518       29.2559304228      -37.7841785118  TIP3      19543           0.0000000000
    110145     20904  TIP3      OH2            40.0448351537       26.1013228985      -35.2810809802  TIP3      19544           0.0000000000
    110146     20904  TIP3      H1             39.9833144172       25.8315609910      -36.2228349268  TIP3      19544           0.0000000000
    110147     20904  TIP3      H2             40.8825045422       25.6403562331      -35.0397768982  TIP3      19544           0.0000000000
    110148     20905  TIP3      OH2            38.4779099318       25.5048108151      -27.8474505465  TIP3      19545           0.0000000000
    110149     20905  TIP3      H1             38.5750438546       26.1787071718      -27.1587237328  TIP3      19545           0.0000000000
    110150     20905  TIP3      H2             37.5432367332       25.5881125846      -28.0527398645  TIP3      19545           0.0000000000
    110151     20906  TIP3      OH2            39.8300644923       31.3681676673      -26.2247156221  TIP3      19546           0.0000000000
    110152     20906  TIP3      H1             39.7866936381       31.2213885583      -27.1878072794  TIP3      19546           0.0000000000
    110153     20906  TIP3      H2             38.9024570791       31.2211462092      -25.9587369697  TIP3      19546           0.0000000000
    110154     20907  TIP3      OH2            39.3002806114       25.1575284470      -37.7174716275  TIP3      19547           0.0000000000
    110155     20907  TIP3      H1             39.0329853575       25.9491097295      -38.2303392686  TIP3      19547           0.0000000000
    110156     20907  TIP3      H2             38.5979771603       24.5510203526      -37.9633829221  TIP3      19547           0.0000000000
    110157     20908  TIP3      OH2            35.3662640296       27.6035286289      -28.8605599658  TIP3      19548           0.0000000000
    110158     20908  TIP3      H1             34.9221740040       27.5198341633      -29.7193454727  TIP3      19548           0.0000000000
    110159     20908  TIP3      H2             35.4370623701       26.6607993712      -28.6209966320  TIP3      19548           0.0000000000
    110160     20909  TIP3      OH2            35.1678068364       30.3456377026      -32.0644919392  TIP3      19549           0.0000000000
    110161     20909  TIP3      H1             36.1262584712       30.2279871513      -32.0733477708  TIP3      19549           0.0000000000
    110162     20909  TIP3      H2             35.0735216640       31.1579876743      -31.5487781751  TIP3      19549           0.0000000000
    110163     20910  TIP3      OH2            38.3753402719       33.2075688569      -35.9120980170  TIP3      19550           0.0000000000
    110164     20910  TIP3      H1             38.5667327765       32.7907137243      -35.0391869153  TIP3      19550           0.0000000000
    110165     20910  TIP3      H2             37.5474928168       32.7426002062      -36.1133343843  TIP3      19550           0.0000000000
    110166     20911  TIP3      OH2            37.5940956395       28.9574086846      -27.8513037475  TIP3      19551           0.0000000000
    110167     20911  TIP3      H1             37.8754429495       28.5467038780      -27.0167131789  TIP3      19551           0.0000000000
    110168     20911  TIP3      H2             36.7745116647       28.4910778776      -28.1129950760  TIP3      19551           0.0000000000
    110169     20912  TIP3      OH2            40.2968388847       17.3876077886      -31.9490616676  TIP3      19552           0.0000000000
    110170     20912  TIP3      H1             39.4052061945       17.2886425577      -32.3483021445  TIP3      19552           0.0000000000
    110171     20912  TIP3      H2             40.2191002136       18.2674062072      -31.5503593892  TIP3      19552           0.0000000000
    110172     20913  TIP3      OH2            39.9707545667       22.0124973470      -30.3771799461  TIP3      19553           0.0000000000
    110173     20913  TIP3      H1             39.3340750562       22.3446027939      -29.7376771125  TIP3      19553           0.0000000000
    110174     20913  TIP3      H2             40.3096171822       22.8743862631      -30.6905954389  TIP3      19553           0.0000000000
    110175     20914  TIP3      OH2            40.0935437275       22.3681604895      -35.5586869685  TIP3      19554           0.0000000000
    110176     20914  TIP3      H1             39.2237399620       22.1384513969      -35.9456409538  TIP3      19554           0.0000000000
    110177     20914  TIP3      H2             40.7271242058       22.1220459008      -36.2422905522  TIP3      19554           0.0000000000
    110178     20915  TIP3      OH2            37.9603015398       22.7024836229      -28.9415820464  TIP3      19555           0.0000000000
    110179     20915  TIP3      H1             38.1274369881       23.0441577458      -28.0575704682  TIP3      19555           0.0000000000
    110180     20915  TIP3      H2             37.6650098015       21.7871743199      -28.7866458912  TIP3      19555           0.0000000000
    110181     20916  TIP3      OH2            34.7236919017       19.7278153490      -35.0350738290  TIP3      19556           0.0000000000
    110182     20916  TIP3      H1             35.3995322753       19.6794978791      -34.3289535673  TIP3      19556           0.0000000000
    110183     20916  TIP3      H2             35.1861761526       19.3586622195      -35.8061537806  TIP3      19556           0.0000000000
    110184     20917  TIP3      OH2            36.0287172944       20.4814555891      -39.5880246498  TIP3      19557           0.0000000000
    110185     20917  TIP3      H1             36.4940453642       21.0381138157      -40.2458510241  TIP3      19557           0.0000000000
    110186     20917  TIP3      H2             35.3061318013       21.0913468756      -39.3315590104  TIP3      19557           0.0000000000
    110187     20918  TIP3      OH2            37.6872408607       21.5549200712      -35.9289323640  TIP3      19558           0.0000000000
    110188     20918  TIP3      H1             36.8339615308       21.7051426136      -36.3716033482  TIP3      19558           0.0000000000
    110189     20918  TIP3      H2             38.0380131655       20.7187733226      -36.3006228840  TIP3      19558           0.0000000000
    110190     20919  TIP3      OH2            40.1328464734       22.8003538248      -40.7165283392  TIP3      19559           0.0000000000
    110191     20919  TIP3      H1             39.5443770390       22.4531658718      -41.4126131079  TIP3      19559           0.0000000000
    110192     20919  TIP3      H2             40.9113777568       23.0329270326      -41.2142346110  TIP3      19559           0.0000000000
    110193     20920  TIP3      OH2            38.3025103317       27.3109397942      -25.6420172884  TIP3      19560           0.0000000000
    110194     20920  TIP3      H1             38.9427990198       27.7423110100      -25.0582402713  TIP3      19560           0.0000000000
    110195     20920  TIP3      H2             37.4838079544       27.5299909561      -25.1287877619  TIP3      19560           0.0000000000
    110196     20921  TIP3      OH2            39.0177080701       18.9163324438      -36.5630506035  TIP3      19561           0.0000000000
    110197     20921  TIP3      H1             38.8342306486       17.9612549977      -36.4480726536  TIP3      19561           0.0000000000
    110198     20921  TIP3      H2             39.9749196795       18.9072276689      -36.7372343314  TIP3      19561           0.0000000000
    110199     20922  TIP3      OH2            38.5576589198       26.7403503624      -33.0605761067  TIP3      19562           0.0000000000
    110200     20922  TIP3      H1             39.3106272378       26.7280106277      -33.7015203436  TIP3      19562           0.0000000000
    110201     20922  TIP3      H2             38.6980393226       26.0641001778      -32.3963726919  TIP3      19562           0.0000000000
    110202     20923  TIP3      OH2            35.5701170200       25.1402009385      -27.7508523549  TIP3      19563           0.0000000000
    110203     20923  TIP3      H1             35.7323518047       24.6887871638      -26.9068285808  TIP3      19563           0.0000000000
    110204     20923  TIP3      H2             34.9422336648       24.5364025157      -28.1905042888  TIP3      19563           0.0000000000
    110205     20924  TIP3      OH2            36.6732305316       25.1667721250      -41.2339129896  TIP3      19564           0.0000000000
    110206     20924  TIP3      H1             37.2956983072       25.6266240018      -40.6385900217  TIP3      19564           0.0000000000
    110207     20924  TIP3      H2             35.8275632531       25.2901607962      -40.7444438871  TIP3      19564           0.0000000000
    110208     20925  TIP3      OH2            37.2175023807       19.8735105571      -28.1876568474  TIP3      19565           0.0000000000
    110209     20925  TIP3      H1             36.3114798487       20.2272615422      -28.2341867339  TIP3      19565           0.0000000000
    110210     20925  TIP3      H2             37.0837653560       19.0106804307      -27.7576940187  TIP3      19565           0.0000000000
    110211     20926  TIP3      OH2            36.8453267355       31.6654617865      -29.7829613414  TIP3      19566           0.0000000000
    110212     20926  TIP3      H1             37.1167835447       30.7348626182      -29.7603117267  TIP3      19566           0.0000000000
    110213     20926  TIP3      H2             37.1128296370       31.9575809460      -28.9029246072  TIP3      19566           0.0000000000
    110214     20927  TIP3      OH2            38.0768034691       26.9807956550      -39.6493559633  TIP3      19567           0.0000000000
    110215     20927  TIP3      H1             37.4286180593       27.3528392823      -39.0074094442  TIP3      19567           0.0000000000
    110216     20927  TIP3      H2             38.6296958625       27.7590551736      -39.8000168641  TIP3      19567           0.0000000000
    110217     20928  TIP3      OH2           -41.1888219149       19.0914958532      -39.9739627688  TIP3      19568           0.0000000000
    110218     20928  TIP3      H1            -41.1772040177       19.9587869375      -39.5454308423  TIP3      19568           0.0000000000
    110219     20928  TIP3      H2            -40.2828266494       18.8446541524      -39.7292501654  TIP3      19568           0.0000000000
    110220     20929  TIP3      OH2            38.6990222605       29.5161995574      -40.7052407860  TIP3      19569           0.0000000000
    110221     20929  TIP3      H1             39.3143760680       30.1853003760      -40.3843974428  TIP3      19569           0.0000000000
    110222     20929  TIP3      H2             39.2639785528       29.1280209428      -41.3819092061  TIP3      19569           0.0000000000
    110223     20930  TIP3      OH2            37.0719512738       22.2623892686      -41.4827580233  TIP3      19570           0.0000000000
    110224     20930  TIP3      H1             36.9947325537       23.2200599288      -41.4036896352  TIP3      19570           0.0000000000
    110225     20930  TIP3      H2             36.2157361756       22.0158317848      -41.8642820947  TIP3      19570           0.0000000000
    110226     20931  TIP3      OH2            37.8258112070       17.0205025752      -32.8419446474  TIP3      19571           0.0000000000
    110227     20931  TIP3      H1             37.6183314257       17.0654488787      -33.7982346803  TIP3      19571           0.0000000000
    110228     20931  TIP3      H2             37.4061944050       16.1821029765      -32.5575026514  TIP3      19571           0.0000000000
    110229     20932  TIP3      OH2            36.7744256426       30.9413640022      -36.6856887175  TIP3      19572           0.0000000000
    110230     20932  TIP3      H1             35.9266881541       31.4112039154      -36.7239632170  TIP3      19572           0.0000000000
    110231     20932  TIP3      H2             37.2891282942       31.4081873476      -37.3470685127  TIP3      19572           0.0000000000
    110232     20933  TIP3      OH2            36.0602326968       33.5787446169      -25.4362521466  TIP3      19573           0.0000000000
    110233     20933  TIP3      H1             36.6132847195       33.3762765450      -24.6598138554  TIP3      19573           0.0000000000
    110234     20933  TIP3      H2             35.5736797963       32.7504729783      -25.5763276844  TIP3      19573           0.0000000000
    110235     20934  TIP3      OH2            35.9227480967       27.3454387577      -24.3824229053  TIP3      19574           0.0000000000
    110236     20934  TIP3      H1             36.0683605900       26.4549855148      -24.7434085943  TIP3      19574           0.0000000000
    110237     20934  TIP3      H2             35.1835515466       27.6784997858      -24.9401700261  TIP3      19574           0.0000000000
    110238     20935  TIP3      OH2            40.1659097783       27.6082164483      -42.3931221615  TIP3      19575           0.0000000000
    110239     20935  TIP3      H1             40.4156637451       26.9442326829      -41.7401080069  TIP3      19575           0.0000000000
    110240     20935  TIP3      H2             40.9305699394       27.6382390757      -42.9907091196  TIP3      19575           0.0000000000
    110241     20936  TIP3      OH2            36.9207794742       24.6173681143      -24.9742188869  TIP3      19576           0.0000000000
    110242     20936  TIP3      H1             37.1250138960       23.6921969549      -25.1625947586  TIP3      19576           0.0000000000
    110243     20936  TIP3      H2             36.5274087721       24.5748959710      -24.0900811575  TIP3      19576           0.0000000000
    110244     20937  TIP3      OH2            39.5020148917       22.2823534433      -24.6027804113  TIP3      19577           0.0000000000
    110245     20937  TIP3      H1             38.7958618934       21.6300406024      -24.8247766624  TIP3      19577           0.0000000000
    110246     20937  TIP3      H2             40.1979533084       21.9025924850      -25.1944762270  TIP3      19577           0.0000000000
    110247     20938  TIP3      OH2            37.7676770875       20.1321573761      -24.9612634383  TIP3      19578           0.0000000000
    110248     20938  TIP3      H1             37.9274101197       19.3703390300      -25.5480368103  TIP3      19578           0.0000000000
    110249     20938  TIP3      H2             37.6262119262       19.6914846177      -24.0909569274  TIP3      19578           0.0000000000
    110250     20939  TIP3      OH2            35.9880415893       29.2767865388      -41.1872849227  TIP3      19579           0.0000000000
    110251     20939  TIP3      H1             36.9335863134       29.3578606184      -40.9383306662  TIP3      19579           0.0000000000
    110252     20939  TIP3      H2             35.9398032947       28.6638851610      -41.9123424759  TIP3      19579           0.0000000000
    110253     20940  TIP3      OH2            34.7138502849       34.6178615827      -36.2533402012  TIP3      19580           0.0000000000
    110254     20940  TIP3      H1             33.9663303439       34.1387818325      -36.6847213763  TIP3      19580           0.0000000000
    110255     20940  TIP3      H2             34.9782479274       33.9736748351      -35.5650762709  TIP3      19580           0.0000000000
    110256     20941  TIP3      OH2            35.5344721449       32.7590141375      -34.3637340713  TIP3      19581           0.0000000000
    110257     20941  TIP3      H1             35.1819832938       31.8765782387      -34.1705885759  TIP3      19581           0.0000000000
    110258     20941  TIP3      H2             35.7614885808       33.0854669522      -33.4780941703  TIP3      19581           0.0000000000
    110259     20942  TIP3      OH2            35.5435100580       25.8006536339      -31.8749523270  TIP3      19582           0.0000000000
    110260     20942  TIP3      H1             35.7522394114       25.7648847305      -32.8346992616  TIP3      19582           0.0000000000
    110261     20942  TIP3      H2             36.4240677821       25.6683294441      -31.4911959674  TIP3      19582           0.0000000000
    110262     20943  TIP3      OH2            35.2198179288       21.1207742506      -25.7300642499  TIP3      19583           0.0000000000
    110263     20943  TIP3      H1             36.1468253641       20.8999710551      -25.5217911614  TIP3      19583           0.0000000000
    110264     20943  TIP3      H2             34.7431507868       20.3148786576      -25.4329572506  TIP3      19583           0.0000000000
    110265     20944  TIP3      OH2            36.3900266245       19.4235577638      -32.8551459945  TIP3      19584           0.0000000000
    110266     20944  TIP3      H1             36.8989445581       18.6097392096      -32.6460066169  TIP3      19584           0.0000000000
    110267     20944  TIP3      H2             36.9512519704       20.1130864026      -32.4649391778  TIP3      19584           0.0000000000
    110268     20945  TIP3      OH2            34.6812810658       22.4326060413      -31.8446689591  TIP3      19585           0.0000000000
    110269     20945  TIP3      H1             35.2525410590       22.1656504328      -32.5875605067  TIP3      19585           0.0000000000
    110270     20945  TIP3      H2             35.1345659577       23.2292181754      -31.5486703802  TIP3      19585           0.0000000000
    110271     20946  TIP3      OH2            35.0422408514       18.6709113180      -37.7647985662  TIP3      19586           0.0000000000
    110272     20946  TIP3      H1             34.0999572488       18.8718150816      -37.8902963162  TIP3      19586           0.0000000000
    110273     20946  TIP3      H2             35.4686657617       19.1815929430      -38.4723687228  TIP3      19586           0.0000000000
    110274     20947  TIP3      OH2            35.0008978195       17.3448058386      -29.4498738534  TIP3      19587           0.0000000000
    110275     20947  TIP3      H1             34.3258482683       17.1472955223      -28.7761832939  TIP3      19587           0.0000000000
    110276     20947  TIP3      H2             34.5350306972       18.0155646568      -29.9950180721  TIP3      19587           0.0000000000
    110277     20948  TIP3      OH2            37.1879583729       30.5013949952      -25.2901916411  TIP3      19588           0.0000000000
    110278     20948  TIP3      H1             36.3546127147       30.7652600080      -25.7074200796  TIP3      19588           0.0000000000
    110279     20948  TIP3      H2             36.9181434770       30.5163163685      -24.3625926153  TIP3      19588           0.0000000000
    110280     20949  TIP3      OH2            40.1568041317       31.5725048895      -28.9624806059  TIP3      19589           0.0000000000
    110281     20949  TIP3      H1             39.7783921908       32.3997788794      -29.3059022422  TIP3      19589           0.0000000000
    110282     20949  TIP3      H2             41.0671270662       31.6449361083      -29.3142892831  TIP3      19589           0.0000000000
    110283     20950  TIP3      OH2            37.5478640930       34.7355208506      -29.0096162584  TIP3      19590           0.0000000000
    110284     20950  TIP3      H1             36.8376482215       35.2641173967      -29.4205819138  TIP3      19590           0.0000000000
    110285     20950  TIP3      H2             37.2053073036       34.5842427618      -28.1205054871  TIP3      19590           0.0000000000
    110286     20951  TIP3      OH2            39.8443337214       34.1204243266      -30.1515488543  TIP3      19591           0.0000000000
    110287     20951  TIP3      H1             39.1235038373       34.4438755038      -29.5626096756  TIP3      19591           0.0000000000
    110288     20951  TIP3      H2             39.9862026421       34.9197590248      -30.7020338033  TIP3      19591           0.0000000000
    110289     20952  TIP3      OH2            36.9586929166       33.4301878655      -32.0650899006  TIP3      19592           0.0000000000
    110290     20952  TIP3      H1             36.9393424627       32.9743036953      -31.1986137952  TIP3      19592           0.0000000000
    110291     20952  TIP3      H2             37.7930986320       33.0831177758      -32.4529571149  TIP3      19592           0.0000000000
    110292     20953  TIP3      OH2            39.0825998854       32.1574211698      -33.3920044969  TIP3      19593           0.0000000000
    110293     20953  TIP3      H1             38.8996474385       31.2164884329      -33.1899845671  TIP3      19593           0.0000000000
    110294     20953  TIP3      H2             39.9275533749       32.2738511690      -32.9446673632  TIP3      19593           0.0000000000
    110295     20954  TIP3      OH2            37.4884549107       16.9035106255      -35.5485399623  TIP3      19594           0.0000000000
    110296     20954  TIP3      H1             36.7033032743       16.6863230881      -36.0860505138  TIP3      19594           0.0000000000
    110297     20954  TIP3      H2             37.9713375415       16.0565064659      -35.5792189321  TIP3      19594           0.0000000000
    110298     20955  TIP3      OH2            36.2183783254       16.6589738146      -39.8910311311  TIP3      19595           0.0000000000
    110299     20955  TIP3      H1             36.7685410672       17.3081009240      -40.3727968242  TIP3      19595           0.0000000000
    110300     20955  TIP3      H2             35.7047227645       17.2197174004      -39.2888959319  TIP3      19595           0.0000000000
    110301     20956  TIP3      OH2            36.2185572860       32.6341929451      -38.8803136763  TIP3      19596           0.0000000000
    110302     20956  TIP3      H1             35.4917014989       32.5895756607      -39.5331210144  TIP3      19596           0.0000000000
    110303     20956  TIP3      H2             36.1424172305       33.5572724605      -38.6207368033  TIP3      19596           0.0000000000
    110304     20957  TIP3      OH2            38.0733383275       18.5594494339      -41.2849900977  TIP3      19597           0.0000000000
    110305     20957  TIP3      H1             38.6192430094       18.0230563199      -41.8661950676  TIP3      19597           0.0000000000
    110306     20957  TIP3      H2             38.7876064287       18.9366911158      -40.7217564138  TIP3      19597           0.0000000000
    110307     20958  TIP3      OH2            37.3999116616       17.4455150260      -26.1143581442  TIP3      19598           0.0000000000
    110308     20958  TIP3      H1             37.0337254008       16.6468262165      -25.6943339561  TIP3      19598           0.0000000000
    110309     20958  TIP3      H2             38.3040233740       17.4105519603      -25.7322919030  TIP3      19598           0.0000000000
    110310     20959  TIP3      OH2            39.4293851111       16.7759189382      -24.5536546761  TIP3      19599           0.0000000000
    110311     20959  TIP3      H1             40.3273220010       16.4740888943      -24.7276837350  TIP3      19599           0.0000000000
    110312     20959  TIP3      H2             39.0016857196       16.0535133454      -24.0495399197  TIP3      19599           0.0000000000
    110313     20960  TIP3      OH2            38.0997118474       33.7361261988      -41.8269466215  TIP3      19600           0.0000000000
    110314     20960  TIP3      H1             37.6947675368       33.7546032803      -40.9667386161  TIP3      19600           0.0000000000
    110315     20960  TIP3      H2             38.7580490175       33.0233719489      -41.7635648111  TIP3      19600           0.0000000000
    110316     20961  TIP3      OH2           -22.9072990111       38.1397830476      -30.9776138354  TIP3      19601           0.0000000000
    110317     20961  TIP3      H1            -22.8132860178       38.8010842205      -30.2589475982  TIP3      19601           0.0000000000
    110318     20961  TIP3      H2            -22.4729258892       38.6359950574      -31.6818570978  TIP3      19601           0.0000000000
    110319     20962  TIP3      OH2           -35.2790070223       39.1293543941      -34.1844127208  TIP3      19602           0.0000000000
    110320     20962  TIP3      H1            -35.2080681479       39.9350824371      -34.7033548335  TIP3      19602           0.0000000000
    110321     20962  TIP3      H2            -35.7047731397       38.5549426099      -34.8628531572  TIP3      19602           0.0000000000
    110322     20963  TIP3      OH2           -27.5902949818       39.2089741066      -35.8427568232  TIP3      19603           0.0000000000
    110323     20963  TIP3      H1            -26.9408560765       38.9065735843      -35.1601505055  TIP3      19603           0.0000000000
    110324     20963  TIP3      H2            -26.9669327133       39.7587775371      -36.3456708335  TIP3      19603           0.0000000000
    110325     20964  TIP3      OH2           -22.4919245466       39.5810769590      -28.7480927508  TIP3      19604           0.0000000000
    110326     20964  TIP3      H1            -23.1063700543       40.2870086909      -28.9153725993  TIP3      19604           0.0000000000
    110327     20964  TIP3      H2            -22.4450168541       39.5209176065      -27.7790648444  TIP3      19604           0.0000000000
    110328     20965  TIP3      OH2           -36.4094410415       37.9974048722      -30.1504136556  TIP3      19605           0.0000000000
    110329     20965  TIP3      H1            -36.7167636246       38.5520996997      -30.9047529793  TIP3      19605           0.0000000000
    110330     20965  TIP3      H2            -37.0943336074       38.2401264465      -29.4782016528  TIP3      19605           0.0000000000
    110331     20966  TIP3      OH2           -25.7830575501       38.4961823110      -33.8548238226  TIP3      19606           0.0000000000
    110332     20966  TIP3      H1            -25.9998162791       37.7590597747      -33.2864929567  TIP3      19606           0.0000000000
    110333     20966  TIP3      H2            -25.1512221653       39.0008298992      -33.3171234464  TIP3      19606           0.0000000000
    110334     20967  TIP3      OH2           -36.7907083839       39.7529636046      -32.0478410038  TIP3      19607           0.0000000000
    110335     20967  TIP3      H1            -36.2957296630       40.5642125466      -31.8396753389  TIP3      19607           0.0000000000
    110336     20967  TIP3      H2            -36.3242047657       39.4541258230      -32.8646011374  TIP3      19607           0.0000000000
    110337     20968  TIP3      OH2           -25.4154646220       37.2615216974      -30.1302182146  TIP3      19608           0.0000000000
    110338     20968  TIP3      H1            -26.1745556091       37.8438049625      -30.2734405792  TIP3      19608           0.0000000000
    110339     20968  TIP3      H2            -24.7154764382       37.6589875691      -30.6838288112  TIP3      19608           0.0000000000
    110340     20969  TIP3      OH2           -32.4572338473       35.3516979973      -32.6948131752  TIP3      19609           0.0000000000
    110341     20969  TIP3      H1            -32.5993334798       34.3903728699      -32.7621129431  TIP3      19609           0.0000000000
    110342     20969  TIP3      H2            -33.3336690039       35.6658344192      -32.3918695417  TIP3      19609           0.0000000000
    110343     20970  TIP3      OH2           -24.1290086934       35.2653451636      -39.6943703331  TIP3      19610           0.0000000000
    110344     20970  TIP3      H1            -25.0735131045       35.4133420207      -39.4621540026  TIP3      19610           0.0000000000
    110345     20970  TIP3      H2            -23.9127139355       36.1140332036      -40.1240684210  TIP3      19610           0.0000000000
    110346     20971  TIP3      OH2           -35.0748743580       36.2573536607      -31.9460656393  TIP3      19611           0.0000000000
    110347     20971  TIP3      H1            -35.9842509404       36.1256553551      -32.3095924692  TIP3      19611           0.0000000000
    110348     20971  TIP3      H2            -35.2117528626       37.0910684374      -31.4674609764  TIP3      19611           0.0000000000
    110349     20972  TIP3      OH2           -30.4443658722       35.9343193322      -28.5549708457  TIP3      19612           0.0000000000
    110350     20972  TIP3      H1            -30.0549548809       35.4833558256      -27.7836465484  TIP3      19612           0.0000000000
    110351     20972  TIP3      H2            -31.4166425982       35.7812927503      -28.4431679358  TIP3      19612           0.0000000000
    110352     20973  TIP3      OH2           -27.1521243649       39.7640511415      -27.6921067407  TIP3      19613           0.0000000000
    110353     20973  TIP3      H1            -27.6847132043       39.5738912846      -26.8859584321  TIP3      19613           0.0000000000
    110354     20973  TIP3      H2            -27.4041992875       40.6590049849      -27.9116255204  TIP3      19613           0.0000000000
    110355     20974  TIP3      OH2           -30.7819949791       38.4742859241      -41.2215728172  TIP3      19614           0.0000000000
    110356     20974  TIP3      H1            -31.1293025188       38.4487470859      -40.3118953193  TIP3      19614           0.0000000000
    110357     20974  TIP3      H2            -31.0743131186       37.6142368207      -41.5325343593  TIP3      19614           0.0000000000
    110358     20975  TIP3      OH2           -33.9615384627       38.8306554522      -42.2056562750  TIP3      19615           0.0000000000
    110359     20975  TIP3      H1            -34.4064403022       38.4703521336      -41.4162571333  TIP3      19615           0.0000000000
    110360     20975  TIP3      H2            -34.6788726524       39.2752253583      -42.6630846660  TIP3      19615           0.0000000000
    110361     20976  TIP3      OH2           -39.9856468810       38.7019971121      -35.5165078841  TIP3      19616           0.0000000000
    110362     20976  TIP3      H1            -39.9795415615       38.4563172457      -34.5563950720  TIP3      19616           0.0000000000
    110363     20976  TIP3      H2            -39.9612182698       37.8441369057      -35.9568796319  TIP3      19616           0.0000000000
    110364     20977  TIP3      OH2           -39.3143381385       39.3170696469      -39.5409503267  TIP3      19617           0.0000000000
    110365     20977  TIP3      H1            -38.8650111802       39.9173164134      -40.1838946107  TIP3      19617           0.0000000000
    110366     20977  TIP3      H2            -39.9925543467       39.9780902285      -39.3367069947  TIP3      19617           0.0000000000
    110367     20978  TIP3      OH2           -32.4696171252       38.8942674027      -34.8286537558  TIP3      19618           0.0000000000
    110368     20978  TIP3      H1            -33.4063007413       38.8708021933      -34.5468810109  TIP3      19618           0.0000000000
    110369     20978  TIP3      H2            -31.9631013337       38.7331053336      -34.0143682797  TIP3      19618           0.0000000000
    110370     20979  TIP3      OH2           -37.6604101224       39.9152389208      -36.0464358416  TIP3      19619           0.0000000000
    110371     20979  TIP3      H1            -38.4715336543       40.2273895312      -36.4684427207  TIP3      19619           0.0000000000
    110372     20979  TIP3      H2            -37.3127421841       39.2173244325      -36.6210754559  TIP3      19619           0.0000000000
    110373     20980  TIP3      OH2           -34.0050380691      -40.9973836328      -38.4108690336  TIP3      19620           0.0000000000
    110374     20980  TIP3      H1            -33.0859763180      -40.8322430295      -38.1300939848  TIP3      19620           0.0000000000
    110375     20980  TIP3      H2            -34.2070983607      -40.2529201840      -38.9793648798  TIP3      19620           0.0000000000
    110376     20981  TIP3      OH2           -28.0510416949       38.0538288118      -31.5636344125  TIP3      19621           0.0000000000
    110377     20981  TIP3      H1            -28.7488149901       38.2024001424      -30.8957505582  TIP3      19621           0.0000000000
    110378     20981  TIP3      H2            -28.5631979183       37.9009479764      -32.3678550571  TIP3      19621           0.0000000000
    110379     20982  TIP3      OH2           -36.1771838338       37.7740291991      -36.5208217471  TIP3      19622           0.0000000000
    110380     20982  TIP3      H1            -36.4804360725       36.8504577569      -36.5145814978  TIP3      19622           0.0000000000
    110381     20982  TIP3      H2            -35.3681148852       37.7295823174      -37.0428482899  TIP3      19622           0.0000000000
    110382     20983  TIP3      OH2           -32.5205385996       39.9208226726      -30.5760748359  TIP3      19623           0.0000000000
    110383     20983  TIP3      H1            -33.3070927372       40.4537543652      -30.4447679211  TIP3      19623           0.0000000000
    110384     20983  TIP3      H2            -32.0015289219       40.2585463548      -29.8203425788  TIP3      19623           0.0000000000
    110385     20984  TIP3      OH2           -28.1265221478       39.0395858174      -40.5290486639  TIP3      19624           0.0000000000
    110386     20984  TIP3      H1            -29.0463409745       39.1733048417      -40.8152098606  TIP3      19624           0.0000000000
    110387     20984  TIP3      H2            -27.7776033713       39.9205988405      -40.3889220201  TIP3      19624           0.0000000000
    110388     20985  TIP3      OH2           -38.2262655535       38.7268069802      -28.1382919617  TIP3      19625           0.0000000000
    110389     20985  TIP3      H1            -39.1181145477       39.0819159627      -28.2190296640  TIP3      19625           0.0000000000
    110390     20985  TIP3      H2            -38.3678812360       37.8473372198      -27.7624002596  TIP3      19625           0.0000000000
    110391     20986  TIP3      OH2           -29.4896200929       38.5488505606      -29.3080214484  TIP3      19626           0.0000000000
    110392     20986  TIP3      H1            -28.7955025406       38.5681864425      -28.6358783664  TIP3      19626           0.0000000000
    110393     20986  TIP3      H2            -29.8859935955       37.6731130185      -29.1002557902  TIP3      19626           0.0000000000
    110394     20987  TIP3      OH2           -28.7470805910       38.0973365137      -38.1381933466  TIP3      19627           0.0000000000
    110395     20987  TIP3      H1            -28.4737925161       38.5262102650      -38.9766391022  TIP3      19627           0.0000000000
    110396     20987  TIP3      H2            -28.1512856651       38.5107504559      -37.4924315214  TIP3      19627           0.0000000000
    110397     20988  TIP3      OH2           -31.4732862221       39.8598431650      -37.3545671521  TIP3      19628           0.0000000000
    110398     20988  TIP3      H1            -30.6813109162       40.4098554306      -37.2736982257  TIP3      19628           0.0000000000
    110399     20988  TIP3      H2            -31.7634878204       39.7116564467      -36.4288828250  TIP3      19628           0.0000000000
    110400     20989  TIP3      OH2           -31.1478254797      -41.2281064392      -27.7434012190  TIP3      19629           0.0000000000
    110401     20989  TIP3      H1            -31.0312207216      -40.3177511090      -27.4070564517  TIP3      19629           0.0000000000
    110402     20989  TIP3      H2            -30.2785139936      -41.4568478282      -28.1103975537  TIP3      19629           0.0000000000
    110403     20990  TIP3      OH2           -30.6210111720       36.9097924500      -36.4151525339  TIP3      19630           0.0000000000
    110404     20990  TIP3      H1            -30.9636386205       37.5614028723      -35.7747694683  TIP3      19630           0.0000000000
    110405     20990  TIP3      H2            -29.9580615635       37.4473210951      -36.9157373285  TIP3      19630           0.0000000000
    110406     20991  TIP3      OH2           -34.9534469274       38.0085353506      -39.7602662183  TIP3      19631           0.0000000000
    110407     20991  TIP3      H1            -35.0227161583       38.8954022539      -39.3602711119  TIP3      19631           0.0000000000
    110408     20991  TIP3      H2            -34.0669643966       37.7232875431      -39.4671557709  TIP3      19631           0.0000000000
    110409     20992  TIP3      OH2           -24.7524149179       38.7087837572      -27.3034978068  TIP3      19632           0.0000000000
    110410     20992  TIP3      H1            -25.6821547172       39.0187407351      -27.4220197654  TIP3      19632           0.0000000000
    110411     20992  TIP3      H2            -24.4588797427       38.6961400954      -28.2220541567  TIP3      19632           0.0000000000
    110412     20993  TIP3      OH2           -37.5533444649       35.8765803290      -32.8508220972  TIP3      19633           0.0000000000
    110413     20993  TIP3      H1            -37.8166646402       35.9030501989      -33.7942242944  TIP3      19633           0.0000000000
    110414     20993  TIP3      H2            -38.0517088461       35.0887763493      -32.5679078983  TIP3      19633           0.0000000000
    110415     20994  TIP3      OH2           -34.6789799126       39.6368421229      -26.6470354876  TIP3      19634           0.0000000000
    110416     20994  TIP3      H1            -34.2277350873       39.0074078685      -27.2432119444  TIP3      19634           0.0000000000
    110417     20994  TIP3      H2            -34.4089303171       40.4822556549      -27.0260396281  TIP3      19634           0.0000000000
    110418     20995  TIP3      OH2           -33.9239909893       38.1824509838      -29.0526306566  TIP3      19635           0.0000000000
    110419     20995  TIP3      H1            -33.3711740555       38.6059875485      -29.7413136230  TIP3      19635           0.0000000000
    110420     20995  TIP3      H2            -34.8091812064       38.0806117795      -29.4788100797  TIP3      19635           0.0000000000
    110421     20996  TIP3      OH2           -33.1181182915       35.6261545055      -28.6281324512  TIP3      19636           0.0000000000
    110422     20996  TIP3      H1            -33.2936404061       36.5846399801      -28.7324276299  TIP3      19636           0.0000000000
    110423     20996  TIP3      H2            -33.8514819657       35.2590761723      -29.1485583684  TIP3      19636           0.0000000000
    110424     20997  TIP3      OH2           -31.6909891839       39.4974772432      -24.8995571098  TIP3      19637           0.0000000000
    110425     20997  TIP3      H1            -32.0663408166       39.6865785038      -24.0171822135  TIP3      19637           0.0000000000
    110426     20997  TIP3      H2            -32.5065769997       39.5959560851      -25.4051757500  TIP3      19637           0.0000000000
    110427     20998  TIP3      OH2           -29.0835901281       39.0269563587      -26.0132024213  TIP3      19638           0.0000000000
    110428     20998  TIP3      H1            -30.0454976929       39.1187150388      -25.8433993736  TIP3      19638           0.0000000000
    110429     20998  TIP3      H2            -28.8370098350       38.4788194173      -25.2614592234  TIP3      19638           0.0000000000
    110430     20999  TIP3      OH2           -27.4282064833       37.6643618088      -23.9336607748  TIP3      19639           0.0000000000
    110431     20999  TIP3      H1            -27.6500425201       36.7264180883      -24.0093190718  TIP3      19639           0.0000000000
    110432     20999  TIP3      H2            -27.8253486674       37.9821769281      -23.1024258884  TIP3      19639           0.0000000000
    110433     21000  TIP3      OH2           -37.6716603858       38.9851202622      -24.8869061387  TIP3      19640           0.0000000000
    110434     21000  TIP3      H1            -37.5065560781       38.2528930560      -25.5139606256  TIP3      19640           0.0000000000
    110435     21000  TIP3      H2            -37.8315579955       38.4874029148      -24.0641891537  TIP3      19640           0.0000000000
    110436     21001  TIP3      OH2           -32.8751748010       34.9880743172      -25.9597901287  TIP3      19641           0.0000000000
    110437     21001  TIP3      H1            -32.2123114903       34.2688448956      -25.9752315125  TIP3      19641           0.0000000000
    110438     21001  TIP3      H2            -33.0146671932       35.1373006107      -26.9161105607  TIP3      19641           0.0000000000
    110439     21002  TIP3      OH2           -32.5202611339       36.6205330932      -23.8526178865  TIP3      19642           0.0000000000
    110440     21002  TIP3      H1            -32.6894105560       36.1141572168      -24.6868399585  TIP3      19642           0.0000000000
    110441     21002  TIP3      H2            -33.1410238175       37.3681628637      -23.9506143926  TIP3      19642           0.0000000000
    110442     21003  TIP3      OH2           -24.8048002031       38.6118059238      -42.4157790203  TIP3      19643           0.0000000000
    110443     21003  TIP3      H1            -24.1646323948       38.2327578327      -41.7885049403  TIP3      19643           0.0000000000
    110444     21003  TIP3      H2            -25.6535946656       38.2077308949      -42.2477193704  TIP3      19643           0.0000000000
    110445     21004  TIP3      OH2           -25.1149491154       40.0850763564      -37.3084503940  TIP3      19644           0.0000000000
    110446     21004  TIP3      H1            -24.8084786711       39.1544565642      -37.3408113389  TIP3      19644           0.0000000000
    110447     21004  TIP3      H2            -24.4375199659       40.5428003401      -37.8380320868  TIP3      19644           0.0000000000
    110448     21005  TIP3      OH2           -24.1862277793      -41.0060730198      -31.4311161137  TIP3      19645           0.0000000000
    110449     21005  TIP3      H1            -23.6819990512      -40.4365149484      -32.0323460971  TIP3      19645           0.0000000000
    110450     21005  TIP3      H2            -24.8400098451      -40.4097819001      -31.0656373058  TIP3      19645           0.0000000000
    110451     21006  TIP3      OH2           -40.2308553288       39.9501708678      -25.7309421502  TIP3      19646           0.0000000000
    110452     21006  TIP3      H1            -39.2950959269       39.7547499656      -25.5743939882  TIP3      19646           0.0000000000
    110453     21006  TIP3      H2            -40.6777186943       39.1628577707      -25.3980298791  TIP3      19646           0.0000000000
    110454     21007  TIP3      OH2           -22.2934417816       35.5382475188      -23.9325329322  TIP3      19647           0.0000000000
    110455     21007  TIP3      H1            -21.8617128484       34.8386229521      -24.4658598224  TIP3      19647           0.0000000000
    110456     21007  TIP3      H2            -22.0521708570       36.3286651988      -24.4570619649  TIP3      19647           0.0000000000
    110457     21008  TIP3      OH2           -24.5099078144       37.4652407204      -37.4258116977  TIP3      19648           0.0000000000
    110458     21008  TIP3      H1            -24.3125484421       37.0189290645      -36.5760873601  TIP3      19648           0.0000000000
    110459     21008  TIP3      H2            -25.1380997985       36.8518729007      -37.8549524812  TIP3      19648           0.0000000000
    110460     21009  TIP3      OH2           -39.0446540789       38.2769590854      -32.8968858199  TIP3      19649           0.0000000000
    110461     21009  TIP3      H1            -38.5704713168       37.4736255550      -32.6007290281  TIP3      19649           0.0000000000
    110462     21009  TIP3      H2            -38.5449336602       38.9734961620      -32.4584307671  TIP3      19649           0.0000000000
    110463     21010  TIP3      OH2           -22.7595039880       37.5886443236      -25.4855352875  TIP3      19650           0.0000000000
    110464     21010  TIP3      H1            -23.6547550577       37.9225988324      -25.6670302676  TIP3      19650           0.0000000000
    110465     21010  TIP3      H2            -22.6238163789       37.0692281330      -26.3014177115  TIP3      19650           0.0000000000
    110466     21011  TIP3      OH2           -22.6933583181       37.4961445556      -40.8706589915  TIP3      19651           0.0000000000
    110467     21011  TIP3      H1            -22.2512073010       36.8316509964      -41.4028888388  TIP3      19651           0.0000000000
    110468     21011  TIP3      H2            -22.0042483036       38.1779648941      -40.8062684859  TIP3      19651           0.0000000000
    110469     21012  TIP3      OH2           -40.2051925948       37.3840364774      -37.7712235481  TIP3      19652           0.0000000000
    110470     21012  TIP3      H1            -41.1397882350       37.6303687683      -37.9723599394  TIP3      19652           0.0000000000
    110471     21012  TIP3      H2            -39.7540943278       38.0420952150      -38.3330413860  TIP3      19652           0.0000000000
    110472     21013  TIP3      OH2            41.0640565559       36.3809494588      -29.2801121592  TIP3      19653           0.0000000000
    110473     21013  TIP3      H1             40.3568907072       35.9969262906      -28.7578879783  TIP3      19653           0.0000000000
    110474     21013  TIP3      H2             40.5372362380       36.8897007931      -29.9231270095  TIP3      19653           0.0000000000
    110475     21014  TIP3      OH2           -23.6881570220       35.7057959952      -27.6775966545  TIP3      19654           0.0000000000
    110476     21014  TIP3      H1            -24.4939683304       36.0111169250      -28.1348410047  TIP3      19654           0.0000000000
    110477     21014  TIP3      H2            -23.4829042335       34.9074360546      -28.2207341362  TIP3      19654           0.0000000000
    110478     21015  TIP3      OH2           -30.3189476162       37.1581281528      -33.4452635299  TIP3      19655           0.0000000000
    110479     21015  TIP3      H1            -30.9477915417       36.4811599573      -33.1295515318  TIP3      19655           0.0000000000
    110480     21015  TIP3      H2            -29.7289201632       36.6257873137      -33.9931592638  TIP3      19655           0.0000000000
    110481     21016  TIP3      OH2           -25.1534051419       35.1934489160      -33.3397840311  TIP3      19656           0.0000000000
    110482     21016  TIP3      H1            -24.5340945279       35.7869250999      -33.8402674264  TIP3      19656           0.0000000000
    110483     21016  TIP3      H2            -26.0252039651       35.5796080506      -33.5690705750  TIP3      19656           0.0000000000
    110484     21017  TIP3      OH2           -23.4813060619       36.3774435060      -35.0688768191  TIP3      19657           0.0000000000
    110485     21017  TIP3      H1            -22.7659648706       35.8556104098      -35.4974860142  TIP3      19657           0.0000000000
    110486     21017  TIP3      H2            -23.0101351982       37.2334036751      -34.9394886371  TIP3      19657           0.0000000000
    110487     21018  TIP3      OH2           -37.9113447794       35.7279590887      -35.5754322872  TIP3      19658           0.0000000000
    110488     21018  TIP3      H1            -38.7281803095       35.5369125571      -36.0708656680  TIP3      19658           0.0000000000
    110489     21018  TIP3      H2            -37.4326067599       34.8822394415      -35.6263945131  TIP3      19658           0.0000000000
    110490     21019  TIP3      OH2           -39.1616366650       35.5249317791      -39.8499521775  TIP3      19659           0.0000000000
    110491     21019  TIP3      H1            -38.6421119478       36.1744302690      -40.3644518439  TIP3      19659           0.0000000000
    110492     21019  TIP3      H2            -39.6922812329       36.0663783818      -39.2576074508  TIP3      19659           0.0000000000
    110493     21020  TIP3      OH2           -33.4279203212       35.7150243250      -35.7660610877  TIP3      19660           0.0000000000
    110494     21020  TIP3      H1            -32.5165584912       36.0425439366      -35.8366380817  TIP3      19660           0.0000000000
    110495     21020  TIP3      H2            -33.4740589819       35.4637938720      -34.8452478739  TIP3      19660           0.0000000000
    110496     21021  TIP3      OH2           -27.7402823133       35.7175340721      -34.1466056119  TIP3      19661           0.0000000000
    110497     21021  TIP3      H1            -27.7714933167       35.8213140785      -35.1058558519  TIP3      19661           0.0000000000
    110498     21021  TIP3      H2            -28.1078475754       34.8122164579      -34.0185583987  TIP3      19661           0.0000000000
    110499     21022  TIP3      OH2           -26.4536147798       35.7830202948      -38.4879982362  TIP3      19662           0.0000000000
    110500     21022  TIP3      H1            -27.2028398287       36.3736848356      -38.6443606099  TIP3      19662           0.0000000000
    110501     21022  TIP3      H2            -26.8689242761       34.9215664366      -38.2571776407  TIP3      19662           0.0000000000
    110502     21023  TIP3      OH2           -37.3052255828       37.4612672764      -41.3252125482  TIP3      19663           0.0000000000
    110503     21023  TIP3      H1            -36.7892087827       36.8468007316      -41.8559152232  TIP3      19663           0.0000000000
    110504     21023  TIP3      H2            -36.6275658246       37.7786997996      -40.7011450086  TIP3      19663           0.0000000000
    110505     21024  TIP3      OH2           -32.2751655785       37.7151909602      -38.9201248866  TIP3      19664           0.0000000000
    110506     21024  TIP3      H1            -32.0258083499       37.1245586429      -38.1937430190  TIP3      19664           0.0000000000
    110507     21024  TIP3      H2            -32.2431185492       38.5750015625      -38.4381921112  TIP3      19664           0.0000000000
    110508     21025  TIP3      OH2           -38.0731851556       36.3025115388      -26.1051540094  TIP3      19665           0.0000000000
    110509     21025  TIP3      H1            -38.4096233799       35.5013077424      -25.6633977010  TIP3      19665           0.0000000000
    110510     21025  TIP3      H2            -37.1412657199       36.2580238260      -25.7748937376  TIP3      19665           0.0000000000
    110511     21026  TIP3      OH2           -36.0262605905       35.6746062792      -24.5132879963  TIP3      19666           0.0000000000
    110512     21026  TIP3      H1            -35.1404580480       35.3313993887      -24.6986464348  TIP3      19666           0.0000000000
    110513     21026  TIP3      H2            -36.4131640050       34.9047592105      -24.0570196708  TIP3      19666           0.0000000000
    110514     21027  TIP3      OH2            -4.0540337005       38.1406642222      -30.9686548597  TIP3      19667           0.0000000000
    110515     21027  TIP3      H1             -3.9571180711       38.7975170406      -30.2486840924  TIP3      19667           0.0000000000
    110516     21027  TIP3      H2             -3.6206485411       38.6488549305      -31.6603560570  TIP3      19667           0.0000000000
    110517     21028  TIP3      OH2           -16.4203959792       39.1331960586      -34.1830290694  TIP3      19668           0.0000000000
    110518     21028  TIP3      H1            -16.3464818188       39.9360886974      -34.7037218626  TIP3      19668           0.0000000000
    110519     21028  TIP3      H2            -16.8467002362       38.5510741752      -34.8548368816  TIP3      19668           0.0000000000
    110520     21029  TIP3      OH2            -8.7234022118       39.2029421380      -35.8472370220  TIP3      19669           0.0000000000
    110521     21029  TIP3      H1             -8.0887154096       38.9074481559      -35.1524307508  TIP3      19669           0.0000000000
    110522     21029  TIP3      H2             -8.1195197305       39.7739496929      -36.3411033716  TIP3      19669           0.0000000000
    110523     21030  TIP3      OH2            -3.6368002375       39.5774084819      -28.7362292156  TIP3      19670           0.0000000000
    110524     21030  TIP3      H1             -4.2548763539       40.2820406064      -28.9171439120  TIP3      19670           0.0000000000
    110525     21030  TIP3      H2             -3.6017367795       39.5206510364      -27.7624589614  TIP3      19670           0.0000000000
    110526     21031  TIP3      OH2           -17.5382854083       37.9850475803      -30.1589762862  TIP3      19671           0.0000000000
    110527     21031  TIP3      H1            -17.8356029652       38.5542566499      -30.9046455803  TIP3      19671           0.0000000000
    110528     21031  TIP3      H2            -18.2144023053       38.2404788357      -29.4814198263  TIP3      19671           0.0000000000
    110529     21032  TIP3      OH2            -6.8583058133       38.4750128513      -33.8766836241  TIP3      19672           0.0000000000
    110530     21032  TIP3      H1             -7.1659650439       37.7773749213      -33.2911189802  TIP3      19672           0.0000000000
    110531     21032  TIP3      H2             -6.3308008663       39.0162097582      -33.2633862798  TIP3      19672           0.0000000000
    110532     21033  TIP3      OH2           -17.9110434062       39.7552288396      -32.0611868409  TIP3      19673           0.0000000000
    110533     21033  TIP3      H1            -17.4117784618       40.5608535406      -31.8451971412  TIP3      19673           0.0000000000
    110534     21033  TIP3      H2            -17.4369883379       39.4521723581      -32.8711459426  TIP3      19673           0.0000000000
    110535     21034  TIP3      OH2            -6.5605448852       37.2639720489      -30.1317223059  TIP3      19674           0.0000000000
    110536     21034  TIP3      H1             -7.3174784399       37.8497067758      -30.2730112183  TIP3      19674           0.0000000000
    110537     21034  TIP3      H2             -5.8540505730       37.6610059042      -30.6798805775  TIP3      19674           0.0000000000
    110538     21035  TIP3      OH2           -13.6018371873       35.3521372475      -32.6937503398  TIP3      19675           0.0000000000
    110539     21035  TIP3      H1            -13.7464989881       34.3910739925      -32.7620228981  TIP3      19675           0.0000000000
    110540     21035  TIP3      H2            -14.4777614051       35.6666703257      -32.3916374873  TIP3      19675           0.0000000000
    110541     21036  TIP3      OH2            -5.1152115699       35.3594854193      -39.4114262821  TIP3      19676           0.0000000000
    110542     21036  TIP3      H1             -6.1041070917       35.3285628674      -39.5144028196  TIP3      19676           0.0000000000
    110543     21036  TIP3      H2             -5.0729045736       36.0210044241      -40.1333204350  TIP3      19676           0.0000000000
    110544     21037  TIP3      OH2           -16.2304559615       36.2485718372      -31.9461592552  TIP3      19677           0.0000000000
    110545     21037  TIP3      H1            -17.1383601536       36.1169474565      -32.3045667185  TIP3      19677           0.0000000000
    110546     21037  TIP3      H2            -16.3598042275       37.0868086978      -31.4710434503  TIP3      19677           0.0000000000
    110547     21038  TIP3      OH2           -11.5898537523       35.9334477741      -28.5692754295  TIP3      19678           0.0000000000
    110548     21038  TIP3      H1            -11.1923303394       35.4934283192      -27.7939561462  TIP3      19678           0.0000000000
    110549     21038  TIP3      H2            -12.5581340515       35.7770007298      -28.4416007282  TIP3      19678           0.0000000000
    110550     21039  TIP3      OH2            -8.2918005359       39.7668027495      -27.7134224351  TIP3      19679           0.0000000000
    110551     21039  TIP3      H1             -8.8147647254       39.5661016313      -26.8934214509  TIP3      19679           0.0000000000
    110552     21039  TIP3      H2             -8.5501649208       40.6624134145      -27.9163030324  TIP3      19679           0.0000000000
    110553     21040  TIP3      OH2           -11.9908506522       38.5056847274      -41.2366883292  TIP3      19680           0.0000000000
    110554     21040  TIP3      H1            -12.2605763751       38.4471530035      -40.3017852384  TIP3      19680           0.0000000000
    110555     21040  TIP3      H2            -12.1735690539       37.6045083750      -41.5204915736  TIP3      19680           0.0000000000
    110556     21041  TIP3      OH2           -15.0971984274       38.8372852576      -42.1688204308  TIP3      19681           0.0000000000
    110557     21041  TIP3      H1            -15.5335779989       38.4454595048      -41.3814696329  TIP3      19681           0.0000000000
    110558     21041  TIP3      H2            -15.7761326622       39.1837734161      -42.6921707213  TIP3      19681           0.0000000000
    110559     21042  TIP3      OH2           -21.8468354299       38.5950702831      -35.0221602491  TIP3      19682           0.0000000000
    110560     21042  TIP3      H1            -21.1771166417       38.5268489617      -34.3079744728  TIP3      19682           0.0000000000
    110561     21042  TIP3      H2            -21.3865534495       38.2344819570      -35.8027197354  TIP3      19682           0.0000000000
    110562     21043  TIP3      OH2           -20.6274190269       39.1829808901      -39.6764245673  TIP3      19683           0.0000000000
    110563     21043  TIP3      H1            -20.1284180775       39.8757385076      -40.1580667620  TIP3      19683           0.0000000000
    110564     21043  TIP3      H2            -21.2651350418       39.8249561953      -39.3246791121  TIP3      19683           0.0000000000
    110565     21044  TIP3      OH2           -13.6141596144       38.8896388903      -34.8290392362  TIP3      19684           0.0000000000
    110566     21044  TIP3      H1            -14.5502045445       38.8818762055      -34.5464617326  TIP3      19684           0.0000000000
    110567     21044  TIP3      H2            -13.1070492537       38.7398973598      -34.0135581423  TIP3      19684           0.0000000000
    110568     21045  TIP3      OH2           -18.9164072036       39.8392826283      -35.9924062691  TIP3      19685           0.0000000000
    110569     21045  TIP3      H1            -19.6031964859       40.2742848392      -36.5096270331  TIP3      19685           0.0000000000
    110570     21045  TIP3      H2            -18.4238797033       39.2663533567      -36.6142194256  TIP3      19685           0.0000000000
    110571     21046  TIP3      OH2           -15.1471873030      -41.0290642228      -38.4646381603  TIP3      19686           0.0000000000
    110572     21046  TIP3      H1            -14.2490093106      -40.8353555871      -38.1194754007  TIP3      19686           0.0000000000
    110573     21046  TIP3      H2            -15.3498918487      -40.2340777441      -38.9568934269  TIP3      19686           0.0000000000
    110574     21047  TIP3      OH2            -9.1892978494       38.0534833136      -31.5695677359  TIP3      19687           0.0000000000
    110575     21047  TIP3      H1             -9.8863368777       38.2007791147      -30.9000105225  TIP3      19687           0.0000000000
    110576     21047  TIP3      H2             -9.7074950169       37.8991064849      -32.3697527856  TIP3      19687           0.0000000000
    110577     21048  TIP3      OH2           -17.2845246306       37.7710627499      -36.4928012237  TIP3      19688           0.0000000000
    110578     21048  TIP3      H1            -17.6112599530       36.8548068663      -36.5116179368  TIP3      19688           0.0000000000
    110579     21048  TIP3      H2            -16.5104065614       37.7270529014      -37.0572108004  TIP3      19688           0.0000000000
    110580     21049  TIP3      OH2           -13.6650154370       39.9183236270      -30.5754129982  TIP3      19689           0.0000000000
    110581     21049  TIP3      H1            -14.4512096485       40.4527889820      -30.4485268205  TIP3      19689           0.0000000000
    110582     21049  TIP3      H2            -13.1459366499       40.2585409778      -29.8201366643  TIP3      19689           0.0000000000
    110583     21050  TIP3      OH2            -9.2894037417       39.0550205353      -40.5022551338  TIP3      19690           0.0000000000
    110584     21050  TIP3      H1            -10.1906379240       39.1766472294      -40.8271523148  TIP3      19690           0.0000000000
    110585     21050  TIP3      H2             -8.9165247327       39.9279576306      -40.4026719952  TIP3      19690           0.0000000000
    110586     21051  TIP3      OH2           -19.3591863240       38.7326548149      -28.1766488612  TIP3      19691           0.0000000000
    110587     21051  TIP3      H1            -20.2562687336       39.0934081317      -28.2339911677  TIP3      19691           0.0000000000
    110588     21051  TIP3      H2            -19.4971065302       37.8848774617      -27.7323041536  TIP3      19691           0.0000000000
    110589     21052  TIP3      OH2           -10.6277441544       38.5411515748      -29.3028774726  TIP3      19692           0.0000000000
    110590     21052  TIP3      H1             -9.9371898328       38.5639927994      -28.6265062074  TIP3      19692           0.0000000000
    110591     21052  TIP3      H2            -11.0229112140       37.6662292955      -29.0863371153  TIP3      19692           0.0000000000
    110592     21053  TIP3      OH2            -9.9382106922       38.1443007777      -38.1252894176  TIP3      19693           0.0000000000
    110593     21053  TIP3      H1             -9.6061430285       38.5029172589      -38.9815974955  TIP3      19693           0.0000000000
    110594     21053  TIP3      H2             -9.2968361246       38.5069229685      -37.4957167619  TIP3      19693           0.0000000000
    110595     21054  TIP3      OH2           -12.6185437387       39.8609252522      -37.3538310034  TIP3      19694           0.0000000000
    110596     21054  TIP3      H1            -11.8278856625       40.4121672781      -37.2747926950  TIP3      19694           0.0000000000
    110597     21054  TIP3      H2            -12.9033956783       39.7172237627      -36.4273582144  TIP3      19694           0.0000000000
    110598     21055  TIP3      OH2           -12.2919259637      -41.2283180310      -27.7469108280  TIP3      19695           0.0000000000
    110599     21055  TIP3      H1            -12.1737070660      -40.3216418938      -27.3970919026  TIP3      19695           0.0000000000
    110600     21055  TIP3      H2            -11.4203477374      -41.4592969535      -28.1041936003  TIP3      19695           0.0000000000
    110601     21056  TIP3      OH2           -11.7620318924       36.9047149766      -36.4173773370  TIP3      19696           0.0000000000
    110602     21056  TIP3      H1            -12.1090723280       37.5585336104      -35.7822798886  TIP3      19696           0.0000000000
    110603     21056  TIP3      H2            -11.1008371150       37.4478485336      -36.9175478601  TIP3      19696           0.0000000000
    110604     21057  TIP3      OH2           -16.0861758534       38.0199284494      -39.7931519149  TIP3      19697           0.0000000000
    110605     21057  TIP3      H1            -16.1665156202       38.8774437893      -39.3282208312  TIP3      19697           0.0000000000
    110606     21057  TIP3      H2            -15.2193066656       37.7084813586      -39.4568143168  TIP3      19697           0.0000000000
    110607     21058  TIP3      OH2            -5.8859271052       38.7255068649      -27.3124636116  TIP3      19698           0.0000000000
    110608     21058  TIP3      H1             -6.8268163569       39.0080054841      -27.4091354217  TIP3      19698           0.0000000000
    110609     21058  TIP3      H2             -5.6005640476       38.6987155875      -28.2292412348  TIP3      19698           0.0000000000
    110610     21059  TIP3      OH2           -18.7358871064       35.8929112153      -32.8254720895  TIP3      19699           0.0000000000
    110611     21059  TIP3      H1            -18.9364407198       35.9103611294      -33.7875902848  TIP3      19699           0.0000000000
    110612     21059  TIP3      H2            -19.1628556269       35.0520164809      -32.5712246053  TIP3      19699           0.0000000000
    110613     21060  TIP3      OH2           -15.8282699013       39.6342909194      -26.6468332449  TIP3      19700           0.0000000000
    110614     21060  TIP3      H1            -15.3685128410       39.0065046158      -27.2385926727  TIP3      19700           0.0000000000
    110615     21060  TIP3      H2            -15.5561094184       40.4811397430      -27.0225236571  TIP3      19700           0.0000000000
    110616     21061  TIP3      OH2           -15.0650629317       38.1795115706      -29.0477124924  TIP3      19701           0.0000000000
    110617     21061  TIP3      H1            -14.5090673509       38.6017995357      -29.7364062462  TIP3      19701           0.0000000000
    110618     21061  TIP3      H2            -15.9501481456       38.0838425211      -29.4768792322  TIP3      19701           0.0000000000
    110619     21062  TIP3      OH2           -14.2589986356       35.6246803610      -28.6291649731  TIP3      19702           0.0000000000
    110620     21062  TIP3      H1            -14.4347893214       36.5835181570      -28.7298749391  TIP3      19702           0.0000000000
    110621     21062  TIP3      H2            -14.9956364357       35.2579947492      -29.1475328435  TIP3      19702           0.0000000000
    110622     21063  TIP3      OH2           -12.8328249778       39.4987069233      -24.9105248277  TIP3      19703           0.0000000000
    110623     21063  TIP3      H1            -13.1861246241       39.6934635132      -24.0110546463  TIP3      19703           0.0000000000
    110624     21063  TIP3      H2            -13.6634811415       39.6029049688      -25.3785993558  TIP3      19703           0.0000000000
    110625     21064  TIP3      OH2           -10.2281162017       39.0152492098      -26.0368052750  TIP3      19704           0.0000000000
    110626     21064  TIP3      H1            -11.1798852815       39.1182600968      -25.8160353835  TIP3      19704           0.0000000000
    110627     21064  TIP3      H2             -9.9518166104       38.4899455813      -25.2653984948  TIP3      19704           0.0000000000
    110628     21065  TIP3      OH2            -8.6933206915       37.6852956398      -24.0354468315  TIP3      19705           0.0000000000
    110629     21065  TIP3      H1             -8.7768808325       36.7113667368      -24.0121994969  TIP3      19705           0.0000000000
    110630     21065  TIP3      H2             -8.9325897240       37.9950148849      -23.1303925861  TIP3      19705           0.0000000000
    110631     21066  TIP3      OH2           -18.8581900605       39.0125703337      -24.9408937196  TIP3      19706           0.0000000000
    110632     21066  TIP3      H1            -18.6317415474       38.2612829774      -25.5264010214  TIP3      19706           0.0000000000
    110633     21066  TIP3      H2            -18.9667863621       38.5170483395      -24.1174491217  TIP3      19706           0.0000000000
    110634     21067  TIP3      OH2           -14.0337640530       34.9794176473      -25.9614002435  TIP3      19707           0.0000000000
    110635     21067  TIP3      H1            -13.3568357954       34.2719435499      -25.9745040098  TIP3      19707           0.0000000000
    110636     21067  TIP3      H2            -14.1459099326       35.1486228578      -26.9167844042  TIP3      19707           0.0000000000
    110637     21068  TIP3      OH2           -13.6882505567       36.6027801957      -23.8435500008  TIP3      19708           0.0000000000
    110638     21068  TIP3      H1            -13.8464404760       36.1145116157      -24.6873662756  TIP3      19708           0.0000000000
    110639     21068  TIP3      H2            -14.2786561463       37.3766704467      -23.9224381932  TIP3      19708           0.0000000000
    110640     21069  TIP3      OH2            -5.9626683547       38.6712544382      -42.3769433482  TIP3      19709           0.0000000000
    110641     21069  TIP3      H1             -5.3238883604       38.2083510899      -41.8194869296  TIP3      19709           0.0000000000
    110642     21069  TIP3      H2             -6.7742997320       38.1538053461      -42.2649219372  TIP3      19709           0.0000000000
    110643     21070  TIP3      OH2            -6.1905091447       40.0791336910      -37.2629196506  TIP3      19710           0.0000000000
    110644     21070  TIP3      H1             -6.0192886324       39.1288061655      -37.4077157521  TIP3      19710           0.0000000000
    110645     21070  TIP3      H2             -5.6271554628       40.5695002977      -37.8917144397  TIP3      19710           0.0000000000
    110646     21071  TIP3      OH2            -5.3403466483      -41.0033338438      -31.4307621224  TIP3      19711           0.0000000000
    110647     21071  TIP3      H1             -4.8244331881      -40.4256714806      -32.0116409409  TIP3      19711           0.0000000000
    110648     21071  TIP3      H2             -5.9820901246      -40.4010908668      -31.0538956166  TIP3      19711           0.0000000000
    110649     21072  TIP3      OH2           -21.3864094758       39.9076286993      -25.8273536975  TIP3      19712           0.0000000000
    110650     21072  TIP3      H1            -20.4491817384       39.7825472418      -25.5627743893  TIP3      19712           0.0000000000
    110651     21072  TIP3      H2            -21.8297710817       39.1369616998      -25.4226077095  TIP3      19712           0.0000000000
    110652     21073  TIP3      OH2            -3.3908134800       35.5344929148      -23.9012291194  TIP3      19713           0.0000000000
    110653     21073  TIP3      H1             -3.0081272338       34.8478634094      -24.4772386574  TIP3      19713           0.0000000000
    110654     21073  TIP3      H2             -3.2431244122       36.3362995754      -24.4344533798  TIP3      19713           0.0000000000
    110655     21074  TIP3      OH2            -5.6171604438       37.4997841561      -37.3976494224  TIP3      19714           0.0000000000
    110656     21074  TIP3      H1             -5.5101255138       36.9792686231      -36.5730103266  TIP3      19714           0.0000000000
    110657     21074  TIP3      H2             -6.2513249825       36.8908193006      -37.8670015226  TIP3      19714           0.0000000000
    110658     21075  TIP3      OH2           -20.1700425531       38.2855364296      -32.8677826778  TIP3      19715           0.0000000000
    110659     21075  TIP3      H1            -19.7070247702       37.4605186487      -32.6154428950  TIP3      19715           0.0000000000
    110660     21075  TIP3      H2            -19.6324815849       38.9703647922      -32.4477583405  TIP3      19715           0.0000000000
    110661     21076  TIP3      OH2            -3.8689804240       37.6086690096      -25.5265600380  TIP3      19716           0.0000000000
    110662     21076  TIP3      H1             -4.8008497723       37.8977912750      -25.6053319731  TIP3      19716           0.0000000000
    110663     21076  TIP3      H2             -3.7967392289       37.0518675999      -26.3254017465  TIP3      19716           0.0000000000
    110664     21077  TIP3      OH2            -3.7552734027       37.4791283775      -40.7955753649  TIP3      19717           0.0000000000
    110665     21077  TIP3      H1             -3.4550899158       36.8230886233      -41.4314114459  TIP3      19717           0.0000000000
    110666     21077  TIP3      H2             -3.1096662247       38.1880367747      -40.8901420204  TIP3      19717           0.0000000000
    110667     21078  TIP3      OH2           -21.5272177887       37.4851428310      -37.7844525732  TIP3      19718           0.0000000000
    110668     21078  TIP3      H1            -22.4646592972       37.7095473117      -37.8917475951  TIP3      19718           0.0000000000
    110669     21078  TIP3      H2            -21.1011856247       38.0253527972      -38.4707446943  TIP3      19718           0.0000000000
    110670     21079  TIP3      OH2           -21.5818851229       36.2128613362      -29.4435860393  TIP3      19719           0.0000000000
    110671     21079  TIP3      H1            -22.2567893548       36.0212699484      -28.7746386083  TIP3      19719           0.0000000000
    110672     21079  TIP3      H2            -22.0395237548       36.8833446598      -29.9966858387  TIP3      19719           0.0000000000
    110673     21080  TIP3      OH2            -4.8149347231       35.7126903734      -27.7042753755  TIP3      19720           0.0000000000
    110674     21080  TIP3      H1             -5.6442246676       36.0087779103      -28.1189232089  TIP3      19720           0.0000000000
    110675     21080  TIP3      H2             -4.6376900436       34.8936596601      -28.2169959863  TIP3      19720           0.0000000000
    110676     21081  TIP3      OH2           -11.4548988411       37.1584547449      -33.4293852617  TIP3      19721           0.0000000000
    110677     21081  TIP3      H1            -12.0926009150       36.4853277448      -33.1281784044  TIP3      19721           0.0000000000
    110678     21081  TIP3      H2            -10.8757485439       36.6261911904      -33.9911501655  TIP3      19721           0.0000000000
    110679     21082  TIP3      OH2            -6.3022613891       35.1866955715      -33.3415638178  TIP3      19722           0.0000000000
    110680     21082  TIP3      H1             -5.6820814456       35.7809578750      -33.8303881317  TIP3      19722           0.0000000000
    110681     21082  TIP3      H2             -7.1680353618       35.5829821037      -33.5773177975  TIP3      19722           0.0000000000
    110682     21083  TIP3      OH2            -4.6280103885       36.3822934188      -35.0981988329  TIP3      19723           0.0000000000
    110683     21083  TIP3      H1             -3.9272463958       35.8158740675      -35.4832638511  TIP3      19723           0.0000000000
    110684     21083  TIP3      H2             -4.1530920222       37.2117274886      -34.8809014721  TIP3      19723           0.0000000000
    110685     21084  TIP3      OH2           -19.0552161641       35.7514375014      -35.5767790746  TIP3      19724           0.0000000000
    110686     21084  TIP3      H1            -19.8614997908       35.5548350554      -36.0872528627  TIP3      19724           0.0000000000
    110687     21084  TIP3      H2            -18.5949369312       34.8936741189      -35.6203758510  TIP3      19724           0.0000000000
    110688     21085  TIP3      OH2           -20.3120769472       35.5288537245      -39.8716136090  TIP3      19725           0.0000000000
    110689     21085  TIP3      H1            -19.8064278228       36.1867616983      -40.3714891068  TIP3      19725           0.0000000000
    110690     21085  TIP3      H2            -20.8510998260       36.0892281680      -39.2834438429  TIP3      19725           0.0000000000
    110691     21086  TIP3      OH2           -14.5729994851       35.7172332460      -35.7658908555  TIP3      19726           0.0000000000
    110692     21086  TIP3      H1            -13.6611853468       36.0424776109      -35.8378535268  TIP3      19726           0.0000000000
    110693     21086  TIP3      H2            -14.6180987351       35.4687050828      -34.8447602210  TIP3      19726           0.0000000000
    110694     21087  TIP3      OH2            -8.8915733179       35.7220846959      -34.1392709070  TIP3      19727           0.0000000000
    110695     21087  TIP3      H1             -8.9126444408       35.8220889899      -35.0992307510  TIP3      19727           0.0000000000
    110696     21087  TIP3      H2             -9.2553542147       34.8121488621      -34.0145279142  TIP3      19727           0.0000000000
    110697     21088  TIP3      OH2            -7.6038973229       35.8176921251      -38.3252708512  TIP3      19728           0.0000000000
    110698     21088  TIP3      H1             -8.3130213913       36.3441088511      -38.7201227820  TIP3      19728           0.0000000000
    110699     21088  TIP3      H2             -8.0055973958       34.9264886051      -38.2722002687  TIP3      19728           0.0000000000
    110700     21089  TIP3      OH2           -18.3967864468       37.5474271542      -41.4009103832  TIP3      19729           0.0000000000
    110701     21089  TIP3      H1            -17.9479764854       36.8055069256      -41.8171539146  TIP3      19729           0.0000000000
    110702     21089  TIP3      H2            -17.7959563353       37.7465541042      -40.6558132270  TIP3      19729           0.0000000000
    110703     21090  TIP3      OH2           -13.4194774710       37.7138808603      -38.9162702423  TIP3      19730           0.0000000000
    110704     21090  TIP3      H1            -13.1673261486       37.1258836555      -38.1905217513  TIP3      19730           0.0000000000
    110705     21090  TIP3      H2            -13.3874374481       38.5770415525      -38.4389199053  TIP3      19730           0.0000000000
    110706     21091  TIP3      OH2           -19.1812407736       36.3149120016      -26.0907768406  TIP3      19731           0.0000000000
    110707     21091  TIP3      H1            -19.5292837881       35.5051893517      -25.6780513523  TIP3      19731           0.0000000000
    110708     21091  TIP3      H2            -18.2585128169       36.2633528832      -25.7257741182  TIP3      19731           0.0000000000
    110709     21092  TIP3      OH2           -17.1721965998       35.6417028321      -24.5566241811  TIP3      19732           0.0000000000
    110710     21092  TIP3      H1            -16.2613172949       35.3207344047      -24.6754524120  TIP3      19732           0.0000000000
    110711     21092  TIP3      H2            -17.5326123034       34.9111044850      -24.0080474166  TIP3      19732           0.0000000000
    110712     21093  TIP3      OH2            -8.7501746842       34.9965705568      -24.3185285105  TIP3      19733           0.0000000000
    110713     21093  TIP3      H1             -8.6521236980       34.4904006845      -23.5039971896  TIP3      19733           0.0000000000
    110714     21093  TIP3      H2             -7.8498832911       34.9414418811      -24.6980467436  TIP3      19733           0.0000000000
    110715     21094  TIP3      OH2            14.8044989602       38.1407474375      -30.9779816423  TIP3      19734           0.0000000000
    110716     21094  TIP3      H1             14.8985363267       38.7988161467      -30.2577896690  TIP3      19734           0.0000000000
    110717     21094  TIP3      H2             15.2388848565       38.6386532020      -31.6810838919  TIP3      19734           0.0000000000
    110718     21095  TIP3      OH2             2.4444604235       39.1356181256      -34.1772612941  TIP3      19735           0.0000000000
    110719     21095  TIP3      H1              2.5130488529       39.9381403759      -34.7020618810  TIP3      19735           0.0000000000
    110720     21095  TIP3      H2              2.0258693989       38.5537098515      -34.8429777521  TIP3      19735           0.0000000000
    110721     21096  TIP3      OH2            10.1214692477       39.2094375391      -35.8424483034  TIP3      19736           0.0000000000
    110722     21096  TIP3      H1             10.7711408836       38.9070501231      -35.1601566337  TIP3      19736           0.0000000000
    110723     21096  TIP3      H2             10.7444812142       39.7595792815      -36.3454221364  TIP3      19736           0.0000000000
    110724     21097  TIP3      OH2            15.2262630361       39.5740128217      -28.7357172787  TIP3      19737           0.0000000000
    110725     21097  TIP3      H1             14.6057680074       40.2774802303      -28.9092275064  TIP3      19737           0.0000000000
    110726     21097  TIP3      H2             15.2491300090       39.5172880725      -27.7616388796  TIP3      19737           0.0000000000
    110727     21098  TIP3      OH2             1.3150577742       37.9861486001      -30.1528795322  TIP3      19738           0.0000000000
    110728     21098  TIP3      H1              1.0254457325       38.5593859671      -30.8967146010  TIP3      19738           0.0000000000
    110729     21098  TIP3      H2              0.6344085735       38.2456245199      -29.4806753975  TIP3      19738           0.0000000000
    110730     21099  TIP3      OH2            11.9307312635       38.4969340336      -33.8520983305  TIP3      19739           0.0000000000
    110731     21099  TIP3      H1             11.7115015785       37.7591230226      -33.2870464119  TIP3      19739           0.0000000000
    110732     21099  TIP3      H2             12.5599220121       39.0000157247      -33.3097757966  TIP3      19739           0.0000000000
    110733     21100  TIP3      OH2             0.9451345799       39.7505628639      -32.0627412988  TIP3      19740           0.0000000000
    110734     21100  TIP3      H1              1.4433166182       40.5581450228      -31.8406534948  TIP3      19740           0.0000000000
    110735     21100  TIP3      H2              1.4189950194       39.4508437986      -32.8734351060  TIP3      19740           0.0000000000
    110736     21101  TIP3      OH2            12.2946128665       37.2631461204      -30.1311481272  TIP3      19741           0.0000000000
    110737     21101  TIP3      H1             11.5386900026       37.8493867573      -30.2736847411  TIP3      19741           0.0000000000
    110738     21101  TIP3      H2             12.9961355943       37.6600729828      -30.6833217191  TIP3      19741           0.0000000000
    110739     21102  TIP3      OH2             5.2512212303       35.3515135420      -32.6992149327  TIP3      19742           0.0000000000
    110740     21102  TIP3      H1              5.1087552157       34.3897681558      -32.7608993604  TIP3      19742           0.0000000000
    110741     21102  TIP3      H2              4.3772545219       35.6657738253      -32.3909862511  TIP3      19742           0.0000000000
    110742     21103  TIP3      OH2            13.5838306986       35.2669821611      -39.6932721211  TIP3      19743           0.0000000000
    110743     21103  TIP3      H1             12.6387557217       35.4131147519      -39.4612531057  TIP3      19743           0.0000000000
    110744     21103  TIP3      H2             13.7992243997       36.1140214926      -40.1238171876  TIP3      19743           0.0000000000
    110745     21104  TIP3      OH2             2.6281547708       36.2440382459      -31.9330260737  TIP3      19744           0.0000000000
    110746     21104  TIP3      H1              1.7196541414       36.1165582783      -32.2945293781  TIP3      19744           0.0000000000
    110747     21104  TIP3      H2              2.5018594363       37.0873129056      -31.4663254682  TIP3      19744           0.0000000000
    110748     21105  TIP3      OH2             7.2684173290       35.9340931376      -28.5621752894  TIP3      19745           0.0000000000
    110749     21105  TIP3      H1              7.6632149554       35.4887363715      -27.7881341725  TIP3      19745           0.0000000000
    110750     21105  TIP3      H2              6.2997012621       35.7796517506      -28.4352065812  TIP3      19745           0.0000000000
    110751     21106  TIP3      OH2            10.5604810685       39.7699901717      -27.7004118517  TIP3      19746           0.0000000000
    110752     21106  TIP3      H1             10.0396379384       39.5650122650      -26.8875850264  TIP3      19746           0.0000000000
    110753     21106  TIP3      H2             10.3082018497       40.6630482808      -27.9251443275  TIP3      19746           0.0000000000
    110754     21107  TIP3      OH2             6.9290549422       38.4746963628      -41.2219895144  TIP3      19747           0.0000000000
    110755     21107  TIP3      H1              6.5830883297       38.4486620044      -40.3115927968  TIP3      19747           0.0000000000
    110756     21107  TIP3      H2              6.6389678472       37.6135283795      -41.5318667603  TIP3      19747           0.0000000000
    110757     21108  TIP3      OH2             3.7380309377       38.8391146550      -42.2030315693  TIP3      19748           0.0000000000
    110758     21108  TIP3      H1              3.2960289200       38.4793641478      -41.4174850517  TIP3      19748           0.0000000000
    110759     21108  TIP3      H2              3.0231179186       39.2796515010      -42.6672947774  TIP3      19748           0.0000000000
    110760     21109  TIP3      OH2            -2.9412558341       38.5962297050      -35.0024420678  TIP3      19749           0.0000000000
    110761     21109  TIP3      H1             -2.3390323113       38.5520688636      -34.2122135285  TIP3      19749           0.0000000000
    110762     21109  TIP3      H2             -2.4031227307       38.1330473064      -35.6528008706  TIP3      19749           0.0000000000
    110763     21110  TIP3      OH2            -1.7953596582       39.2094010138      -39.5742964709  TIP3      19750           0.0000000000
    110764     21110  TIP3      H1             -1.2551497399       39.8039816700      -40.1579935741  TIP3      19750           0.0000000000
    110765     21110  TIP3      H2             -2.4079040428       39.9416092462      -39.4233574443  TIP3      19750           0.0000000000
    110766     21111  TIP3      OH2             5.2406682414       38.8881421926      -34.8246944924  TIP3      19751           0.0000000000
    110767     21111  TIP3      H1              4.3056765720       38.8824627210      -34.5444371570  TIP3      19751           0.0000000000
    110768     21111  TIP3      H2              5.7495749017       38.7402192378      -34.0122074567  TIP3      19751           0.0000000000
    110769     21112  TIP3      OH2            -0.1781997214       39.7548335618      -36.0061829581  TIP3      19752           0.0000000000
    110770     21112  TIP3      H1             -0.6734643464       40.3837224362      -36.5287766947  TIP3      19752           0.0000000000
    110771     21112  TIP3      H2              0.4837892000       39.3511964320      -36.6121051817  TIP3      19752           0.0000000000
    110772     21113  TIP3      OH2             3.7025527501      -41.0080863237      -38.4228396387  TIP3      19753           0.0000000000
    110773     21113  TIP3      H1              4.6175413700      -40.8307230040      -38.1334360272  TIP3      19753           0.0000000000
    110774     21113  TIP3      H2              3.4983340039      -40.2550027970      -38.9796880896  TIP3      19753           0.0000000000
    110775     21114  TIP3      OH2             9.6600954309       38.0538276981      -31.5619288477  TIP3      19754           0.0000000000
    110776     21114  TIP3      H1              8.9629252746       38.2025621596      -30.8955702965  TIP3      19754           0.0000000000
    110777     21114  TIP3      H2              9.1489085686       37.9013806981      -32.3672684454  TIP3      19754           0.0000000000
    110778     21115  TIP3      OH2             1.5332435095       37.7879204339      -36.5544033780  TIP3      19755           0.0000000000
    110779     21115  TIP3      H1              1.3137705788       36.8547114522      -36.4483249540  TIP3      19755           0.0000000000
    110780     21115  TIP3      H2              2.3646018913       37.7461040900      -37.0413313024  TIP3      19755           0.0000000000
    110781     21116  TIP3      OH2             5.1904201304       39.9172972198      -30.5746705999  TIP3      19756           0.0000000000
    110782     21116  TIP3      H1              4.4055694378       40.4537604369      -30.4454098709  TIP3      19756           0.0000000000
    110783     21116  TIP3      H2              5.7100025511       40.2584275800      -29.8208844553  TIP3      19756           0.0000000000
    110784     21117  TIP3      OH2             9.5860039554       39.0389824463      -40.5299787746  TIP3      19757           0.0000000000
    110785     21117  TIP3      H1              8.6656704244       39.1735379184      -40.8151128684  TIP3      19757           0.0000000000
    110786     21117  TIP3      H2              9.9343871628       39.9211288521      -40.3888094096  TIP3      19757           0.0000000000
    110787     21118  TIP3      OH2            -0.5141902519       38.7095112173      -28.1961882035  TIP3      19758           0.0000000000
    110788     21118  TIP3      H1             -1.4035699901       39.0909373228      -28.2345000810  TIP3      19758           0.0000000000
    110789     21118  TIP3      H2             -0.6443869262       37.8825432485      -27.7151749765  TIP3      19758           0.0000000000
    110790     21119  TIP3      OH2             8.2248849850       38.5496402127      -29.2866948898  TIP3      19759           0.0000000000
    110791     21119  TIP3      H1              8.9289052716       38.5601793506      -28.6252131586  TIP3      19759           0.0000000000
    110792     21119  TIP3      H2              7.8345414211       37.6682670550      -29.0857510133  TIP3      19759           0.0000000000
    110793     21120  TIP3      OH2             8.9650187676       38.0972989848      -38.1381778317  TIP3      19760           0.0000000000
    110794     21120  TIP3      H1              9.2381555025       38.5262194434      -38.9765830769  TIP3      19760           0.0000000000
    110795     21120  TIP3      H2              9.5606875273       38.5107813838      -37.4924074445  TIP3      19760           0.0000000000
    110796     21121  TIP3      OH2             6.2426450132       39.8585616915      -37.3551902557  TIP3      19761           0.0000000000
    110797     21121  TIP3      H1              7.0311219991       40.4131699540      -37.2758703055  TIP3      19761           0.0000000000
    110798     21121  TIP3      H2              5.9630513842       39.7106307448      -36.4275115566  TIP3      19761           0.0000000000
    110799     21122  TIP3      OH2             6.5713935748      -41.2312089570      -27.7283214028  TIP3      19762           0.0000000000
    110800     21122  TIP3      H1              6.6757813638      -40.3063086338      -27.4195400881  TIP3      19762           0.0000000000
    110801     21122  TIP3      H2              7.4361674045      -41.4589282903      -28.1086458935  TIP3      19762           0.0000000000
    110802     21123  TIP3      OH2             7.0927480996       36.9061233478      -36.4167724544  TIP3      19763           0.0000000000
    110803     21123  TIP3      H1              6.7485385138       37.5575978993      -35.7771277904  TIP3      19763           0.0000000000
    110804     21123  TIP3      H2              7.7533135580       37.4465539864      -36.9172092995  TIP3      19763           0.0000000000
    110805     21124  TIP3      OH2             2.7375803285       37.9887172423      -39.7261491777  TIP3      19764           0.0000000000
    110806     21124  TIP3      H1              2.6856033721       38.8917687592      -39.3590910080  TIP3      19764           0.0000000000
    110807     21124  TIP3      H2              3.6546017800       37.7376872718      -39.4821654310  TIP3      19764           0.0000000000
    110808     21125  TIP3      OH2            12.9700979854       38.7174129843      -27.3175646080  TIP3      19765           0.0000000000
    110809     21125  TIP3      H1             12.0286921661       39.0026503773      -27.4020245222  TIP3      19765           0.0000000000
    110810     21125  TIP3      H2             13.2532675861       38.7007616689      -28.2348158746  TIP3      19765           0.0000000000
    110811     21126  TIP3      OH2             0.1315622382       35.8809184072      -32.8357763839  TIP3      19766           0.0000000000
    110812     21126  TIP3      H1             -0.0827775018       35.8999672977      -33.7806675487  TIP3      19766           0.0000000000
    110813     21126  TIP3      H2             -0.3063194505       35.0533960153      -32.5523056638  TIP3      19766           0.0000000000
    110814     21127  TIP3      OH2             3.0488537350       39.6337557898      -26.6392363312  TIP3      19767           0.0000000000
    110815     21127  TIP3      H1              3.4882940390       39.0060483319      -27.2454984426  TIP3      19767           0.0000000000
    110816     21127  TIP3      H2              3.2986733910       40.4809499106      -27.0293100438  TIP3      19767           0.0000000000
    110817     21128  TIP3      OH2             3.7931397614       38.1772149167      -29.0454594314  TIP3      19768           0.0000000000
    110818     21128  TIP3      H1              4.3461490673       38.6005884947      -29.7334120480  TIP3      19768           0.0000000000
    110819     21128  TIP3      H2              2.9052515592       38.0842405435      -29.4666287019  TIP3      19768           0.0000000000
    110820     21129  TIP3      OH2             4.6074996549       35.6324339212      -28.6526649269  TIP3      19769           0.0000000000
    110821     21129  TIP3      H1              4.4192433230       36.5885651456      -28.7437078142  TIP3      19769           0.0000000000
    110822     21129  TIP3      H2              3.8604812683       35.2590559020      -29.1504046542  TIP3      19769           0.0000000000
    110823     21130  TIP3      OH2             6.0040355839       39.4709085741      -24.9034409671  TIP3      19770           0.0000000000
    110824     21130  TIP3      H1              5.7021633857       39.7075601046      -24.0109197508  TIP3      19770           0.0000000000
    110825     21130  TIP3      H2              5.1968507418       39.6115192570      -25.4140693324  TIP3      19770           0.0000000000
    110826     21131  TIP3      OH2             8.6421225442       39.0978133325      -25.9369712136  TIP3      19771           0.0000000000
    110827     21131  TIP3      H1              7.6680686347       39.0946971971      -25.8197239529  TIP3      19771           0.0000000000
    110828     21131  TIP3      H2              8.9076109107       38.4481713461      -25.2624586949  TIP3      19771           0.0000000000
    110829     21132  TIP3      OH2            10.2872206763       37.6165466210      -24.0890267334  TIP3      19772           0.0000000000
    110830     21132  TIP3      H1             10.0743260100       36.6659064286      -24.0381159654  TIP3      19772           0.0000000000
    110831     21132  TIP3      H2              9.9171229946       37.9338347349      -23.2279640498  TIP3      19772           0.0000000000
    110832     21133  TIP3      OH2             0.0293493995       38.9852339725      -24.8759547559  TIP3      19773           0.0000000000
    110833     21133  TIP3      H1              0.2128009000       38.2863954086      -25.5470472063  TIP3      19773           0.0000000000
    110834     21133  TIP3      H2             -0.1338044921       38.4432504278      -24.1101917778  TIP3      19773           0.0000000000
    110835     21134  TIP3      OH2             4.7921781062       34.9803717101      -25.9576028238  TIP3      19774           0.0000000000
    110836     21134  TIP3      H1              5.4820647275       34.2836470711      -25.9428290322  TIP3      19774           0.0000000000
    110837     21134  TIP3      H2              4.7066727464       35.1446378763      -26.9126585394  TIP3      19774           0.0000000000
    110838     21135  TIP3      OH2             5.1043889598       36.6305586316      -23.8456463175  TIP3      19775           0.0000000000
    110839     21135  TIP3      H1              5.0534213915       36.1043278701      -24.6792755718  TIP3      19775           0.0000000000
    110840     21135  TIP3      H2              4.5587566743       37.3842199421      -24.0338181272  TIP3      19775           0.0000000000
    110841     21136  TIP3      OH2            12.9089107132       38.6134130419      -42.4138814671  TIP3      19776           0.0000000000
    110842     21136  TIP3      H1             13.5481382561       38.2336320879      -41.7888206752  TIP3      19776           0.0000000000
    110843     21136  TIP3      H2             12.0583543389       38.2073084881      -42.2476130282  TIP3      19776           0.0000000000
    110844     21137  TIP3      OH2            12.5965579774       40.0850257200      -37.3086684209  TIP3      19777           0.0000000000
    110845     21137  TIP3      H1             12.9033126294       39.1545680894      -37.3408080278  TIP3      19777           0.0000000000
    110846     21137  TIP3      H2             13.2740024385       40.5425304532      -37.8384089835  TIP3      19777           0.0000000000
    110847     21138  TIP3      OH2            13.5229890188      -41.0055118476      -31.4320782563  TIP3      19778           0.0000000000
    110848     21138  TIP3      H1             14.0303382617      -40.4366918232      -32.0314988792  TIP3      19778           0.0000000000
    110849     21138  TIP3      H2             12.8781382908      -40.4020143844      -31.0602178211  TIP3      19778           0.0000000000
    110850     21139  TIP3      OH2            -2.5428328910       39.9298802399      -25.7849830810  TIP3      19779           0.0000000000
    110851     21139  TIP3      H1             -1.6016930173       39.7746501722      -25.5721031557  TIP3      19779           0.0000000000
    110852     21139  TIP3      H2             -2.9807411911       39.1338149025      -25.4212770365  TIP3      19779           0.0000000000
    110853     21140  TIP3      OH2            15.4861582227       35.5091182340      -23.9198816914  TIP3      19780           0.0000000000
    110854     21140  TIP3      H1             15.8347242697       34.8325457560      -24.5286054837  TIP3      19780           0.0000000000
    110855     21140  TIP3      H2             15.6079358383       36.3293279697      -24.4288177890  TIP3      19780           0.0000000000
    110856     21141  TIP3      OH2            13.2022186857       37.4670007258      -37.4260713379  TIP3      19781           0.0000000000
    110857     21141  TIP3      H1             13.3995394636       37.0186358164      -36.5759212678  TIP3      19781           0.0000000000
    110858     21141  TIP3      H2             12.5735433832       36.8513149920      -37.8550648522  TIP3      19781           0.0000000000
    110859     21142  TIP3      OH2            -1.3020672322       38.2938025720      -32.8877450913  TIP3      19782           0.0000000000
    110860     21142  TIP3      H1             -0.8614205817       37.4693926028      -32.5917069080  TIP3      19782           0.0000000000
    110861     21142  TIP3      H2             -0.7779900792       38.9697860518      -32.4256152347  TIP3      19782           0.0000000000
    110862     21143  TIP3      OH2            15.0061849847       37.6050300097      -25.5210207649  TIP3      19783           0.0000000000
    110863     21143  TIP3      H1             14.0697004759       37.8782331536      -25.6110081546  TIP3      19783           0.0000000000
    110864     21143  TIP3      H2             15.0636640742       37.0453537894      -26.3148507241  TIP3      19783           0.0000000000
    110865     21144  TIP3      OH2            15.0268432585       37.5018538714      -40.8723726585  TIP3      19784           0.0000000000
    110866     21144  TIP3      H1             15.4613563392       36.8309808410      -41.4040458011  TIP3      19784           0.0000000000
    110867     21144  TIP3      H2             15.7244508715       38.1797571577      -40.8170755079  TIP3      19784           0.0000000000
    110868     21145  TIP3      OH2            -2.5812613693       37.2746246225      -37.9441733523  TIP3      19785           0.0000000000
    110869     21145  TIP3      H1             -3.5486370328       37.3432368485      -38.0766535638  TIP3      19785           0.0000000000
    110870     21145  TIP3      H2             -2.1766592582       37.9116339689      -38.5819103768  TIP3      19785           0.0000000000
    110871     21146  TIP3      OH2            -2.7217425191       36.2177765794      -29.4396570982  TIP3      19786           0.0000000000
    110872     21146  TIP3      H1             -3.4010719678       36.0209310743      -28.7745819154  TIP3      19786           0.0000000000
    110873     21146  TIP3      H2             -3.1830847052       36.8884955779      -29.9918832185  TIP3      19786           0.0000000000
    110874     21147  TIP3      OH2            14.0421698357       35.7085135286      -27.7189724636  TIP3      19787           0.0000000000
    110875     21147  TIP3      H1             13.2108511555       36.0095065217      -28.1267309194  TIP3      19787           0.0000000000
    110876     21147  TIP3      H2             14.2088128177       34.8810550264      -28.2247387207  TIP3      19787           0.0000000000
    110877     21148  TIP3      OH2             7.4000942580       37.1534528714      -33.4395301742  TIP3      19788           0.0000000000
    110878     21148  TIP3      H1              6.7633925907       36.4834544570      -33.1293154458  TIP3      19788           0.0000000000
    110879     21148  TIP3      H2              7.9836734678       36.6234705502      -33.9938958723  TIP3      19788           0.0000000000
    110880     21149  TIP3      OH2            12.5579666036       35.1953155768      -33.3421729191  TIP3      19789           0.0000000000
    110881     21149  TIP3      H1             13.1776975010       35.7868104947      -33.8404353022  TIP3      19789           0.0000000000
    110882     21149  TIP3      H2             11.6867330530       35.5798258216      -33.5690835628  TIP3      19789           0.0000000000
    110883     21150  TIP3      OH2            14.2303932813       36.3773861400      -35.0699516264  TIP3      19790           0.0000000000
    110884     21150  TIP3      H1             14.9461280972       35.8555479370      -35.4978509719  TIP3      19790           0.0000000000
    110885     21150  TIP3      H2             14.7016822233       37.2331559275      -34.9394700904  TIP3      19790           0.0000000000
    110886     21151  TIP3      OH2            -0.1584965168       35.7519504857      -35.6903579351  TIP3      19791           0.0000000000
    110887     21151  TIP3      H1             -1.0654206677       35.5188946833      -35.9725778010  TIP3      19791           0.0000000000
    110888     21151  TIP3      H2              0.2615816288       34.8876707707      -35.4959742911  TIP3      19791           0.0000000000
    110889     21152  TIP3      OH2            -1.2945324553       35.5536021333      -39.7534962153  TIP3      19792           0.0000000000
    110890     21152  TIP3      H1             -0.9635485956       36.1850470176      -40.4321159409  TIP3      19792           0.0000000000
    110891     21152  TIP3      H2             -2.0532793475       36.0461836803      -39.3685578678  TIP3      19792           0.0000000000
    110892     21153  TIP3      OH2             4.2623160301       35.7251028852      -35.7654295696  TIP3      19793           0.0000000000
    110893     21153  TIP3      H1              5.1837593704       36.0383531981      -35.8440417262  TIP3      19793           0.0000000000
    110894     21153  TIP3      H2              4.2513712969       35.4695879611      -34.8428022302  TIP3      19793           0.0000000000
    110895     21154  TIP3      OH2             9.9714328760       35.7164497831      -34.1456958832  TIP3      19794           0.0000000000
    110896     21154  TIP3      H1              9.9403411975       35.8207755057      -35.1049930887  TIP3      19794           0.0000000000
    110897     21154  TIP3      H2              9.6038141808       34.8118819093      -34.0188260185  TIP3      19794           0.0000000000
    110898     21155  TIP3      OH2            11.2579195238       35.7827363188      -38.4864812664  TIP3      19795           0.0000000000
    110899     21155  TIP3      H1             10.5090635411       36.3735401636      -38.6442647156  TIP3      19795           0.0000000000
    110900     21155  TIP3      H2             10.8425124446       34.9209638238      -38.2569169190  TIP3      19795           0.0000000000
    110901     21156  TIP3      OH2             0.3829783745       37.4014836445      -41.2685583804  TIP3      19796           0.0000000000
    110902     21156  TIP3      H1              0.9198630268       36.8765761124      -41.8734459256  TIP3      19796           0.0000000000
    110903     21156  TIP3      H2              1.0897283951       37.7928165427      -40.7165448955  TIP3      19796           0.0000000000
    110904     21157  TIP3      OH2             5.4381416134       37.7192193106      -38.9222861525  TIP3      19797           0.0000000000
    110905     21157  TIP3      H1              5.6833296443       37.1255797064      -38.1967888148  TIP3      19797           0.0000000000
    110906     21157  TIP3      H2              5.4688919390       38.5769767902      -38.4366277580  TIP3      19797           0.0000000000
    110907     21158  TIP3      OH2            -0.3409041846       36.3366977963      -26.0431018242  TIP3      19798           0.0000000000
    110908     21158  TIP3      H1             -0.6801405470       35.5013486161      -25.6809095441  TIP3      19798           0.0000000000
    110909     21158  TIP3      H2              0.6025225599       36.2636112240      -25.7768069044  TIP3      19798           0.0000000000
    110910     21159  TIP3      OH2             1.7074371655       35.6774942377      -24.4565125458  TIP3      19799           0.0000000000
    110911     21159  TIP3      H1              2.5914178492       35.3260449555      -24.6969242198  TIP3      19799           0.0000000000
    110912     21159  TIP3      H2              1.3331998621       34.8843806839      -24.0455590877  TIP3      19799           0.0000000000
    110913     21160  TIP3      OH2            10.1054494997       34.9455470544      -24.3374586018  TIP3      19800           0.0000000000
    110914     21160  TIP3      H1             10.1837646761       34.5133922639      -23.4702050497  TIP3      19800           0.0000000000
    110915     21160  TIP3      H2             11.0236744132       34.9471719087      -24.6738514438  TIP3      19800           0.0000000000
    110916     21161  TIP3      OH2            33.6397689978       38.1502021351      -30.9943379217  TIP3      19801           0.0000000000
    110917     21161  TIP3      H1             33.7559059577       38.7750131712      -30.2428223836  TIP3      19801           0.0000000000
    110918     21161  TIP3      H2             34.1236533124       38.6406286160      -31.6615608238  TIP3      19801           0.0000000000
    110919     21162  TIP3      OH2            21.2922173632       39.1327148064      -34.1831245538  TIP3      19802           0.0000000000
    110920     21162  TIP3      H1             21.3652347173       39.9355252147      -34.7038542271  TIP3      19802           0.0000000000
    110921     21162  TIP3      H2             20.8653907588       38.5509199298      -34.8550548294  TIP3      19802           0.0000000000
    110922     21163  TIP3      OH2            28.9715410601       39.2851758786      -35.7961080158  TIP3      19803           0.0000000000
    110923     21163  TIP3      H1             29.5977312165       38.8515517536      -35.1667930479  TIP3      19803           0.0000000000
    110924     21163  TIP3      H2             29.5856780405       39.6991975241      -36.4113204985  TIP3      19803           0.0000000000
    110925     21164  TIP3      OH2            34.0728228411       39.5724822625      -28.7475957936  TIP3      19804           0.0000000000
    110926     21164  TIP3      H1             33.4739867752       40.2898819090      -28.9306216800  TIP3      19804           0.0000000000
    110927     21164  TIP3      H2             34.1093748963       39.5199401371      -27.7718658185  TIP3      19804           0.0000000000
    110928     21165  TIP3      OH2            20.1695771073       37.9866138507      -30.1558546685  TIP3      19805           0.0000000000
    110929     21165  TIP3      H1             19.8757829880       38.5543591616      -30.9037716830  TIP3      19805           0.0000000000
    110930     21165  TIP3      H2             19.4887112228       38.2437250276      -29.4834881753  TIP3      19805           0.0000000000
    110931     21166  TIP3      OH2            30.8452248918       38.5562262105      -33.8832583377  TIP3      19806           0.0000000000
    110932     21166  TIP3      H1             30.5426417415       37.7874437326      -33.3631775720  TIP3      19806           0.0000000000
    110933     21166  TIP3      H2             31.4120087036       38.9518418862      -33.2005872454  TIP3      19806           0.0000000000
    110934     21167  TIP3      OH2            19.8014764723       39.7539804301      -32.0610468350  TIP3      19807           0.0000000000
    110935     21167  TIP3      H1             20.3001260429       40.5601725943      -31.8453205385  TIP3      19807           0.0000000000
    110936     21167  TIP3      H2             20.2750410978       39.4519618829      -32.8721950284  TIP3      19807           0.0000000000
    110937     21168  TIP3      OH2            31.1433679451       37.2550740134      -30.1275260064  TIP3      19808           0.0000000000
    110938     21168  TIP3      H1             30.3899974610       37.8472748410      -30.2592961129  TIP3      19808           0.0000000000
    110939     21168  TIP3      H2             31.8507655238       37.6579108592      -30.6661146342  TIP3      19808           0.0000000000
    110940     21169  TIP3      OH2            24.1096299201       35.3519100174      -32.6944062196  TIP3      19809           0.0000000000
    110941     21169  TIP3      H1             23.9652169563       34.3908471445      -32.7630487602  TIP3      19809           0.0000000000
    110942     21169  TIP3      H2             23.2338365878       35.6663754792      -32.3916038281  TIP3      19809           0.0000000000
    110943     21170  TIP3      OH2            32.4498145177       35.2627973949      -39.6985175441  TIP3      19810           0.0000000000
    110944     21170  TIP3      H1             31.5036937444       35.4008956662      -39.4630289141  TIP3      19810           0.0000000000
    110945     21170  TIP3      H2             32.6421482801       36.1125898029      -40.1312154426  TIP3      19810           0.0000000000
    110946     21171  TIP3      OH2            21.4812629263       36.2483452893      -31.9463056508  TIP3      19811           0.0000000000
    110947     21171  TIP3      H1             20.5725902784       36.1172504811      -32.3049265212  TIP3      19811           0.0000000000
    110948     21171  TIP3      H2             21.3521460600       37.0862916398      -31.4709188946  TIP3      19811           0.0000000000
    110949     21172  TIP3      OH2            26.1268942445       35.9280023607      -28.5698966385  TIP3      19812           0.0000000000
    110950     21172  TIP3      H1             26.5067287409       35.5052564019      -27.7873972918  TIP3      19812           0.0000000000
    110951     21172  TIP3      H2             25.1545853753       35.7857273301      -28.4465286438  TIP3      19812           0.0000000000
    110952     21173  TIP3      OH2            29.4189290482       39.7679721468      -27.7096905206  TIP3      19813           0.0000000000
    110953     21173  TIP3      H1             28.8958246917       39.5683056430      -26.8949558031  TIP3      19813           0.0000000000
    110954     21173  TIP3      H2             29.1625434944       40.6647635950      -27.9127654969  TIP3      19813           0.0000000000
    110955     21174  TIP3      OH2            25.7918009493       38.4789096668      -41.2168689308  TIP3      19814           0.0000000000
    110956     21174  TIP3      H1             25.4328669755       38.4504542956      -40.3121947760  TIP3      19814           0.0000000000
    110957     21174  TIP3      H2             25.4940985068       37.6188964575      -41.5299826386  TIP3      19814           0.0000000000
    110958     21175  TIP3      OH2            22.5915152026       38.8341074023      -42.1991886244  TIP3      19815           0.0000000000
    110959     21175  TIP3      H1             22.1440882301       38.4737946813      -41.4127250540  TIP3      19815           0.0000000000
    110960     21175  TIP3      H2             21.8769324987       39.2778558491      -42.6641503045  TIP3      19815           0.0000000000
    110961     21176  TIP3      OH2            15.8643224803       38.5957877180      -35.0193886982  TIP3      19816           0.0000000000
    110962     21176  TIP3      H1             16.5361522998       38.5278480806      -34.3070646183  TIP3      19816           0.0000000000
    110963     21176  TIP3      H2             16.3220191633       38.2401962808      -35.8026024397  TIP3      19816           0.0000000000
    110964     21177  TIP3      OH2            17.0759860153       39.1841782031      -39.6640447485  TIP3      19817           0.0000000000
    110965     21177  TIP3      H1             17.5957407018       39.8526226158      -40.1674811504  TIP3      19817           0.0000000000
    110966     21177  TIP3      H2             16.4524118868       39.8479893320      -39.3325059167  TIP3      19817           0.0000000000
    110967     21178  TIP3      OH2            24.1133431445       38.9034450343      -34.8253707256  TIP3      19818           0.0000000000
    110968     21178  TIP3      H1             23.1729359858       38.8845077682      -34.5572330451  TIP3      19818           0.0000000000
    110969     21178  TIP3      H2             24.5977128550       38.7217427726      -34.0056246131  TIP3      19818           0.0000000000
    110970     21179  TIP3      OH2            18.7958822837       39.8389438533      -35.9935481771  TIP3      19819           0.0000000000
    110971     21179  TIP3      H1             18.1090806048       40.2722821934      -36.5099996311  TIP3      19819           0.0000000000
    110972     21179  TIP3      H2             19.2882338213       39.2655237930      -36.6153689158  TIP3      19819           0.0000000000
    110973     21180  TIP3      OH2            22.5504468933      -41.0134361947      -38.4276585092  TIP3      19820           0.0000000000
    110974     21180  TIP3      H1             23.4653186934      -40.8408091229      -38.1397366175  TIP3      19820           0.0000000000
    110975     21180  TIP3      H2             22.3520494862      -40.2560114046      -38.9811300465  TIP3      19820           0.0000000000
    110976     21181  TIP3      OH2            28.5240218806       38.0714977461      -31.5850134267  TIP3      19821           0.0000000000
    110977     21181  TIP3      H1             27.8313594300       38.2162226471      -30.9100763574  TIP3      19821           0.0000000000
    110978     21181  TIP3      H2             27.9876739049       37.8812103039      -32.3615191251  TIP3      19821           0.0000000000
    110979     21182  TIP3      OH2            20.4286404511       37.7705727269      -36.4905723801  TIP3      19822           0.0000000000
    110980     21182  TIP3      H1             20.1006422033       36.8550377082      -36.5128622343  TIP3      19822           0.0000000000
    110981     21182  TIP3      H2             21.1996018217       37.7280768360      -37.0588627967  TIP3      19822           0.0000000000
    110982     21183  TIP3      OH2            24.0469116681       39.9223245432      -30.5766964805  TIP3      19823           0.0000000000
    110983     21183  TIP3      H1             23.2598282954       40.4537580095      -30.4428444681  TIP3      19823           0.0000000000
    110984     21183  TIP3      H2             24.5663530516       40.2579736133      -29.8205065027  TIP3      19823           0.0000000000
    110985     21184  TIP3      OH2            28.4387266267       39.0340182457      -40.5299715394  TIP3      19824           0.0000000000
    110986     21184  TIP3      H1             27.5180323803       39.1721747122      -40.8160610463  TIP3      19824           0.0000000000
    110987     21184  TIP3      H2             28.7884373236       39.9160500159      -40.4129373760  TIP3      19824           0.0000000000
    110988     21185  TIP3      OH2            18.3524111316       38.7155925844      -28.1767739365  TIP3      19825           0.0000000000
    110989     21185  TIP3      H1             17.4594084576       39.0903498956      -28.2351902156  TIP3      19825           0.0000000000
    110990     21185  TIP3      H2             18.2080097021       37.8770200587      -27.7209761925  TIP3      19825           0.0000000000
    110991     21186  TIP3      OH2            27.0744261144       38.5349193286      -29.2850931162  TIP3      19826           0.0000000000
    110992     21186  TIP3      H1             27.7765612877       38.5594021484      -28.6209709314  TIP3      19826           0.0000000000
    110993     21186  TIP3      H2             26.6872433249       37.6558245504      -29.0794991219  TIP3      19826           0.0000000000
    110994     21187  TIP3      OH2            27.8064116974       38.1310635988      -38.1270214288  TIP3      19827           0.0000000000
    110995     21187  TIP3      H1             28.0853619131       38.5061404057      -38.9931644461  TIP3      19827           0.0000000000
    110996     21187  TIP3      H2             28.4324697612       38.4992844285      -37.5023014850  TIP3      19827           0.0000000000
    110997     21188  TIP3      OH2            25.0891139964       39.8746866259      -37.3528882548  TIP3      19828           0.0000000000
    110998     21188  TIP3      H1             25.8925214710       40.3973511193      -37.2778346148  TIP3      19828           0.0000000000
    110999     21188  TIP3      H2             24.8017382686       39.6952905205      -36.4308944106  TIP3      19828           0.0000000000
    111000     21189  TIP3      OH2            25.4223998776      -41.2297486687      -27.7276742074  TIP3      19829           0.0000000000
    111001     21189  TIP3      H1             25.5384632954      -40.3115446990      -27.4131551725  TIP3      19829           0.0000000000
    111002     21189  TIP3      H2             26.2833759288      -41.4552212050      -28.1145315780  TIP3      19829           0.0000000000
    111003     21190  TIP3      OH2            25.9510439902       36.9035716119      -36.4166494726  TIP3      19830           0.0000000000
    111004     21190  TIP3      H1             25.6009523821       37.5523575432      -35.7796366760  TIP3      19830           0.0000000000
    111005     21190  TIP3      H2             26.6073528113       37.4445427561      -36.9197764664  TIP3      19830           0.0000000000
    111006     21191  TIP3      OH2            21.6087688107       38.0072092856      -39.7665968389  TIP3      19831           0.0000000000
    111007     21191  TIP3      H1             21.5421952171       38.8913857137      -39.3561762723  TIP3      19831           0.0000000000
    111008     21191  TIP3      H2             22.4984496377       37.7244496130      -39.4692216943  TIP3      19831           0.0000000000
    111009     21192  TIP3      OH2            31.8105163057       38.7116289668      -27.3331390766  TIP3      19832           0.0000000000
    111010     21192  TIP3      H1             30.8784938932       39.0084215474      -27.4170265953  TIP3      19832           0.0000000000
    111011     21192  TIP3      H2             32.1103560935       38.7081870281      -28.2456563110  TIP3      19832           0.0000000000
    111012     21193  TIP3      OH2            18.9764531512       35.8927322957      -32.8254901586  TIP3      19833           0.0000000000
    111013     21193  TIP3      H1             18.7753167157       35.9106146086      -33.7874649996  TIP3      19833           0.0000000000
    111014     21193  TIP3      H2             18.5488273450       35.0525801307      -32.5703463987  TIP3      19833           0.0000000000
    111015     21194  TIP3      OH2            21.9017876408       39.6351920652      -26.6645330014  TIP3      19834           0.0000000000
    111016     21194  TIP3      H1             22.3509670218       39.0046158519      -27.2585005312  TIP3      19834           0.0000000000
    111017     21194  TIP3      H2             22.1563755208       40.4862713097      -27.0363303688  TIP3      19834           0.0000000000
    111018     21195  TIP3      OH2            22.6467341361       38.1728725954      -29.0562294775  TIP3      19835           0.0000000000
    111019     21195  TIP3      H1             23.2019940940       38.6016531606      -29.7375883379  TIP3      19835           0.0000000000
    111020     21195  TIP3      H2             21.7592882688       38.0845108284      -29.4797257181  TIP3      19835           0.0000000000
    111021     21196  TIP3      OH2            23.4567893303       35.6282279342      -28.6364320159  TIP3      19836           0.0000000000
    111022     21196  TIP3      H1             23.2746521813       36.5871751209      -28.7334386960  TIP3      19836           0.0000000000
    111023     21196  TIP3      H2             22.7172220738       35.2593182395      -29.1490710999  TIP3      19836           0.0000000000
    111024     21197  TIP3      OH2            24.8789948976       39.5011309678      -24.8907819209  TIP3      19837           0.0000000000
    111025     21197  TIP3      H1             24.4741271605       39.6777240574      -24.0213697662  TIP3      19837           0.0000000000
    111026     21197  TIP3      H2             24.0695955014       39.5936305607      -25.4064731584  TIP3      19837           0.0000000000
    111027     21198  TIP3      OH2            27.4870702878       39.0359894449      -26.0195024737  TIP3      19838           0.0000000000
    111028     21198  TIP3      H1             26.5254448050       39.1147241607      -25.8399089718  TIP3      19838           0.0000000000
    111029     21198  TIP3      H2             27.7490558025       38.4988834617      -25.2601226506  TIP3      19838           0.0000000000
    111030     21199  TIP3      OH2            29.0242814058       37.7439005089      -23.9725732212  TIP3      19839           0.0000000000
    111031     21199  TIP3      H1             28.9674343366       36.7763932389      -24.0153960987  TIP3      19839           0.0000000000
    111032     21199  TIP3      H2             28.7557074610       37.9743005076      -23.0879656998  TIP3      19839           0.0000000000
    111033     21200  TIP3      OH2            18.8529119831       39.0053691545      -24.8906184171  TIP3      19840           0.0000000000
    111034     21200  TIP3      H1             19.0710152687       38.2863612134      -25.5241308184  TIP3      19840           0.0000000000
    111035     21200  TIP3      H2             18.7553963916       38.4776433630      -24.0956475833  TIP3      19840           0.0000000000
    111036     21201  TIP3      OH2            23.6977192023       34.9686613134      -25.9624185352  TIP3      19841           0.0000000000
    111037     21201  TIP3      H1             24.3521786043       34.2539486230      -26.0120427382  TIP3      19841           0.0000000000
    111038     21201  TIP3      H2             23.5485573456       35.1582296749      -26.9129382335  TIP3      19841           0.0000000000
    111039     21202  TIP3      OH2            24.0079910902       36.6040599742      -23.8492648414  TIP3      19842           0.0000000000
    111040     21202  TIP3      H1             23.8683550491       36.1224468801      -24.6974630480  TIP3      19842           0.0000000000
    111041     21202  TIP3      H2             23.4441479366       37.3889696093      -23.9474121751  TIP3      19842           0.0000000000
    111042     21203  TIP3      OH2            31.7476017549       38.6326046224      -42.4112585124  TIP3      19843           0.0000000000
    111043     21203  TIP3      H1             32.3950010793       38.2372690349      -41.8006169543  TIP3      19843           0.0000000000
    111044     21203  TIP3      H2             30.9051699634       38.2066032298      -42.2554318043  TIP3      19843           0.0000000000
    111045     21204  TIP3      OH2            31.5130548134       40.0679580195      -37.3105815628  TIP3      19844           0.0000000000
    111046     21204  TIP3      H1             31.7320486694       39.1168141043      -37.4627691353  TIP3      19844           0.0000000000
    111047     21204  TIP3      H2             32.1114698677       40.4999520477      -37.9664875245  TIP3      19844           0.0000000000
    111048     21205  TIP3      OH2            32.3811203761      -41.0218997076      -31.4364420266  TIP3      19845           0.0000000000
    111049     21205  TIP3      H1             32.9221681975      -40.4258331754      -31.9631580080  TIP3      19845           0.0000000000
    111050     21205  TIP3      H2             31.7464835714      -40.4402295828      -31.0162097757  TIP3      19845           0.0000000000
    111051     21206  TIP3      OH2            16.3379553562       39.9645644258      -25.7600048443  TIP3      19846           0.0000000000
    111052     21206  TIP3      H1             17.2747411589       39.7620199786      -25.5695528866  TIP3      19846           0.0000000000
    111053     21206  TIP3      H2             15.8730991741       39.1593574553      -25.4432784198  TIP3      19846           0.0000000000
    111054     21207  TIP3      OH2            34.2568037235       35.4819598833      -23.9725466890  TIP3      19847           0.0000000000
    111055     21207  TIP3      H1             34.7515265494       34.8422759528      -24.4986462113  TIP3      19847           0.0000000000
    111056     21207  TIP3      H2             34.4459834870       36.3282618101      -24.4096051780  TIP3      19847           0.0000000000
    111057     21208  TIP3      OH2            32.0164531737       37.5012652095      -37.3848247822  TIP3      19848           0.0000000000
    111058     21208  TIP3      H1             32.2698875651       36.9741477147      -36.5947312713  TIP3      19848           0.0000000000
    111059     21208  TIP3      H2             31.4490931950       36.8569210330      -37.8700250491  TIP3      19848           0.0000000000
    111060     21209  TIP3      OH2            17.5424540636       38.2855129890      -32.8680596209  TIP3      19849           0.0000000000
    111061     21209  TIP3      H1             18.0048543583       37.4602421614      -32.6155499906  TIP3      19849           0.0000000000
    111062     21209  TIP3      H2             18.0793227916       38.9700920520      -32.4468511787  TIP3      19849           0.0000000000
    111063     21210  TIP3      OH2            33.8710119109       37.6318377991      -25.5672386574  TIP3      19850           0.0000000000
    111064     21210  TIP3      H1             32.9282645965       37.8930699661      -25.5845003313  TIP3      19850           0.0000000000
    111065     21210  TIP3      H2             33.9109802447       37.0305749777      -26.3260799447  TIP3      19850           0.0000000000
    111066     21211  TIP3      OH2            33.8842849559       37.4906221046      -40.8438651665  TIP3      19851           0.0000000000
    111067     21211  TIP3      H1             34.2842448554       36.8402240608      -41.4244018236  TIP3      19851           0.0000000000
    111068     21211  TIP3      H2             34.5498107772       38.2002041316      -40.8353660271  TIP3      19851           0.0000000000
    111069     21212  TIP3      OH2            16.1846355804       37.4844366096      -37.7845969729  TIP3      19852           0.0000000000
    111070     21212  TIP3      H1             15.2480820463       37.7092970316      -37.8919378381  TIP3      19852           0.0000000000
    111071     21212  TIP3      H2             16.6102522502       38.0248748727      -38.4697999199  TIP3      19852           0.0000000000
    111072     21213  TIP3      OH2            16.1318252753       36.2146965051      -29.4453783236  TIP3      19853           0.0000000000
    111073     21213  TIP3      H1             15.4541211125       36.0216488349      -28.7763556877  TIP3      19853           0.0000000000
    111074     21213  TIP3      H2             15.6729265088       36.8877993196      -29.9949861589  TIP3      19853           0.0000000000
    111075     21214  TIP3      OH2            32.8703566153       35.6976404650      -27.6744550332  TIP3      19854           0.0000000000
    111076     21214  TIP3      H1             32.0759857457       36.0215091282      -28.1312737865  TIP3      19854           0.0000000000
    111077     21214  TIP3      H2             33.0852436574       34.9048583806      -28.2164001261  TIP3      19854           0.0000000000
    111078     21215  TIP3      OH2            26.2518387135       37.1459623782      -33.4368040464  TIP3      19855           0.0000000000
    111079     21215  TIP3      H1             25.6147737449       36.4773881772      -33.1279410796  TIP3      19855           0.0000000000
    111080     21215  TIP3      H2             26.8365544173       36.6150038733      -33.9929975667  TIP3      19855           0.0000000000
    111081     21216  TIP3      OH2            31.4191185109       35.2051545159      -33.3322308947  TIP3      19856           0.0000000000
    111082     21216  TIP3      H1             32.0388751219       35.7782952710      -33.8436877448  TIP3      19856           0.0000000000
    111083     21216  TIP3      H2             30.5382254029       35.5636418992      -33.5696792813  TIP3      19856           0.0000000000
    111084     21217  TIP3      OH2            33.0892098375       36.3981975478      -35.0897132230  TIP3      19857           0.0000000000
    111085     21217  TIP3      H1             33.7963891848       35.8414951225      -35.4919369436  TIP3      19857           0.0000000000
    111086     21217  TIP3      H2             33.5972339789       37.2179686068      -34.9283236207  TIP3      19857           0.0000000000
    111087     21218  TIP3      OH2            18.6565681441       35.7487531387      -35.5761020612  TIP3      19858           0.0000000000
    111088     21218  TIP3      H1             17.8504089194       35.5548327496      -36.0880372495  TIP3      19858           0.0000000000
    111089     21218  TIP3      H2             19.1188302118       34.8933262104      -35.6217908005  TIP3      19858           0.0000000000
    111090     21219  TIP3      OH2            17.4026144758       35.5369720435      -39.8811826389  TIP3      19859           0.0000000000
    111091     21219  TIP3      H1             17.9172926449       36.2006896653      -40.3766417860  TIP3      19859           0.0000000000
    111092     21219  TIP3      H2             16.8644042635       36.0913093133      -39.2863645455  TIP3      19859           0.0000000000
    111093     21220  TIP3      OH2            23.1385106105       35.7178988803      -35.7662158789  TIP3      19860           0.0000000000
    111094     21220  TIP3      H1             24.0505875229       36.0418479054      -35.8374564565  TIP3      19860           0.0000000000
    111095     21220  TIP3      H2             23.0930570489       35.4675410359      -34.8458252050  TIP3      19860           0.0000000000
    111096     21221  TIP3      OH2            28.8518691776       35.7127409793      -34.1587772249  TIP3      19861           0.0000000000
    111097     21221  TIP3      H1             28.7826434119       35.7992431170      -35.1140925142  TIP3      19861           0.0000000000
    111098     21221  TIP3      H2             28.4646753960       34.8130959239      -34.0148924535  TIP3      19861           0.0000000000
    111099     21222  TIP3      OH2            30.1189484433       35.7947665934      -38.4748748011  TIP3      19862           0.0000000000
    111100     21222  TIP3      H1             29.3593954896       36.3623877114      -38.6576618564  TIP3      19862           0.0000000000
    111101     21222  TIP3      H2             29.7024777591       34.9276728030      -38.2569916091  TIP3      19862           0.0000000000
    111102     21223  TIP3      OH2            19.2539567933       37.4477067035      -41.3178694404  TIP3      19863           0.0000000000
    111103     21223  TIP3      H1             19.7822883888       36.8474329954      -41.8455607533  TIP3      19863           0.0000000000
    111104     21223  TIP3      H2             19.9225471207       37.7814612196      -40.6894452721  TIP3      19863           0.0000000000
    111105     21224  TIP3      OH2            24.2980215889       37.7248976178      -38.9160078376  TIP3      19864           0.0000000000
    111106     21224  TIP3      H1             24.5430702740       37.1278667731      -38.1929233767  TIP3      19864           0.0000000000
    111107     21224  TIP3      H2             24.3253045601       38.5811964548      -38.4326424761  TIP3      19864           0.0000000000
    111108     21225  TIP3      OH2            18.5182423793       36.3449514911      -26.0533350402  TIP3      19865           0.0000000000
    111109     21225  TIP3      H1             18.1698126968       35.5030287874      -25.7055259784  TIP3      19865           0.0000000000
    111110     21225  TIP3      H2             19.4554268268       36.2665470633      -25.7412089655  TIP3      19865           0.0000000000
    111111     21226  TIP3      OH2            20.5241208555       35.6596160211      -24.5091025275  TIP3      19866           0.0000000000
    111112     21226  TIP3      H1             21.4205401593       35.3434004292      -24.7112870822  TIP3      19866           0.0000000000
    111113     21226  TIP3      H2             20.1621514563       34.8990769662      -24.0117951147  TIP3      19866           0.0000000000
    111114     21227  TIP3      OH2            28.9754026735       35.0252836611      -24.2648184819  TIP3      19867           0.0000000000
    111115     21227  TIP3      H1             29.0833311412       34.6360467920      -23.3863789199  TIP3      19867           0.0000000000
    111116     21227  TIP3      H2             29.9033988147       35.1670565335      -24.5831161732  TIP3      19867           0.0000000000
    111117     21228  TIP3      OH2            39.6092238100       39.3718629099      -34.0436239700  TIP3      19868           0.0000000000
    111118     21228  TIP3      H1             40.2363863581       39.9394088125      -34.5176740195  TIP3      19868           0.0000000000
    111119     21228  TIP3      H2             39.6697625095       38.6213706459      -34.6452360623  TIP3      19868           0.0000000000
    111120     21229  TIP3      OH2            38.9817181894       37.9408518143      -30.1486858899  TIP3      19869           0.0000000000
    111121     21229  TIP3      H1             38.7317794742       38.5677210731      -30.8724583991  TIP3      19869           0.0000000000
    111122     21229  TIP3      H2             38.3446475042       38.2573352563      -29.4660326167  TIP3      19869           0.0000000000
    111123     21230  TIP3      OH2            38.5381552825       39.8323043702      -31.8522988590  TIP3      19870           0.0000000000
    111124     21230  TIP3      H1             39.1639401483       40.5744273428      -31.7521120388  TIP3      19870           0.0000000000
    111125     21230  TIP3      H2             38.9620109424       39.4875727599      -32.6873017936  TIP3      19870           0.0000000000
    111126     21231  TIP3      OH2            40.2968599102       36.2361018377      -31.9565852277  TIP3      19871           0.0000000000
    111127     21231  TIP3      H1             39.3997010934       36.1394485697      -32.3448683669  TIP3      19871           0.0000000000
    111128     21231  TIP3      H2             40.2197912459       37.1137393403      -31.5485194098  TIP3      19871           0.0000000000
    111129     21232  TIP3      OH2            34.6884407883       38.6140229852      -35.0060819530  TIP3      19872           0.0000000000
    111130     21232  TIP3      H1             35.3825865670       38.5130437967      -34.3091853313  TIP3      19872           0.0000000000
    111131     21232  TIP3      H2             35.1621956888       38.2441060483      -35.7838069654  TIP3      19872           0.0000000000
    111132     21233  TIP3      OH2            35.9464652821       39.1717565775      -39.6376273342  TIP3      19873           0.0000000000
    111133     21233  TIP3      H1             36.4362237663       39.8538795915      -40.1592340316  TIP3      19873           0.0000000000
    111134     21233  TIP3      H2             35.3084250830       39.8404717822      -39.3483008946  TIP3      19873           0.0000000000
    111135     21234  TIP3      OH2            37.6397768023       39.8571352809      -36.0262921969  TIP3      19874           0.0000000000
    111136     21234  TIP3      H1             36.9538055569       40.2861382211      -36.5395127778  TIP3      19874           0.0000000000
    111137     21234  TIP3      H2             38.1238208252       39.2366946627      -36.5995805174  TIP3      19874           0.0000000000
    111138     21235  TIP3      OH2            39.0348768784       37.7413900182      -36.6729416981  TIP3      19875           0.0000000000
    111139     21235  TIP3      H1             38.8737970789       36.8128890053      -36.4117103718  TIP3      19875           0.0000000000
    111140     21235  TIP3      H2             40.0056763226       37.7620974965      -36.7288194972  TIP3      19875           0.0000000000
    111141     21236  TIP3      OH2            37.2144584498       38.7144760389      -28.1812605006  TIP3      19876           0.0000000000
    111142     21236  TIP3      H1             36.3253303141       39.0983571428      -28.2353345820  TIP3      19876           0.0000000000
    111143     21236  TIP3      H2             37.0600622372       37.8815753583      -27.7148784946  TIP3      19876           0.0000000000
    111144     21237  TIP3      OH2           -41.2861474741       37.8772512883      -39.9139134561  TIP3      19877           0.0000000000
    111145     21237  TIP3      H1            -41.1857755605       38.7775152452      -39.5656498024  TIP3      19877           0.0000000000
    111146     21237  TIP3      H2            -40.3182974052       37.7041365308      -39.7914302858  TIP3      19877           0.0000000000
    111147     21238  TIP3      OH2            37.8324246969       35.8893418149      -32.8488270760  TIP3      19878           0.0000000000
    111148     21238  TIP3      H1             37.6220564635       35.9261966435      -33.8029804078  TIP3      19878           0.0000000000
    111149     21238  TIP3      H2             37.4063960544       35.0557040353      -32.5609396613  TIP3      19878           0.0000000000
    111150     21239  TIP3      OH2            37.7739953241       38.9949501014      -24.9220417147  TIP3      19879           0.0000000000
    111151     21239  TIP3      H1             37.9239531837       38.2481232765      -25.5333653883  TIP3      19879           0.0000000000
    111152     21239  TIP3      H2             37.6365527219       38.5086142378      -24.0786701133  TIP3      19879           0.0000000000
    111153     21240  TIP3      OH2            35.2076567815       39.9163347033      -25.8074950698  TIP3      19880           0.0000000000
    111154     21240  TIP3      H1             36.1335612950       39.7525475843      -25.5398274610  TIP3      19880           0.0000000000
    111155     21240  TIP3      H2             34.7384953491       39.1394883959      -25.4219933745  TIP3      19880           0.0000000000
    111156     21241  TIP3      OH2            36.3807276701       38.2929374109      -32.8662036206  TIP3      19881           0.0000000000
    111157     21241  TIP3      H1             36.8792237663       37.4696213196      -32.6568850842  TIP3      19881           0.0000000000
    111158     21241  TIP3      H2             36.9594091179       38.9575348097      -32.4564640128  TIP3      19881           0.0000000000
    111159     21242  TIP3      OH2            35.0580873785       37.4807090465      -37.7983344782  TIP3      19882           0.0000000000
    111160     21242  TIP3      H1             34.1143487546       37.6925637524      -37.8945655063  TIP3      19882           0.0000000000
    111161     21242  TIP3      H2             35.4697349665       38.0487094550      -38.4703533832  TIP3      19882           0.0000000000
    111162     21243  TIP3      OH2            34.9963244226       36.2150949394      -29.4401628136  TIP3      19883           0.0000000000
    111163     21243  TIP3      H1             34.3175768836       36.0209626133      -28.7756401372  TIP3      19883           0.0000000000
    111164     21243  TIP3      H2             34.5389552134       36.8808384934      -29.9939509110  TIP3      19883           0.0000000000
    111165     21244  TIP3      OH2            37.5118448328       35.7648940728      -35.6263116074  TIP3      19884           0.0000000000
    111166     21244  TIP3      H1             36.6783703700       35.5281771084      -36.0661802421  TIP3      19884           0.0000000000
    111167     21244  TIP3      H2             37.9624481359       34.9028241773      -35.5662100281  TIP3      19884           0.0000000000
    111168     21245  TIP3      OH2            36.0732639390       35.5327594157      -39.8124807181  TIP3      19885           0.0000000000
    111169     21245  TIP3      H1             36.3649498744       36.1845690029      -40.4577689716  TIP3      19885           0.0000000000
    111170     21245  TIP3      H2             35.5497652787       36.0987442216      -39.1926059628  TIP3      19885           0.0000000000
    111171     21246  TIP3      OH2            38.1222475451       37.5613363883      -41.4022512993  TIP3      19886           0.0000000000
    111172     21246  TIP3      H1             38.6569501092       37.0258758119      -42.0182533145  TIP3      19886           0.0000000000
    111173     21246  TIP3      H2             38.8407496759       37.9138289195      -40.8116786384  TIP3      19886           0.0000000000
    111174     21247  TIP3      OH2            37.3762865119       36.3262987327      -26.0907386122  TIP3      19887           0.0000000000
    111175     21247  TIP3      H1             37.0360953852       35.5052489211      -25.6878488405  TIP3      19887           0.0000000000
    111176     21247  TIP3      H2             38.3014708143       36.2640318973      -25.7634099669  TIP3      19887           0.0000000000
    111177     21248  TIP3      OH2            39.4156135675       35.6439913780      -24.5972179415  TIP3      19888           0.0000000000
    111178     21248  TIP3      H1             40.3206471322       35.3222994200      -24.7216578631  TIP3      19888           0.0000000000
    111179     21248  TIP3      H2             39.0303512085       34.9186528461      -24.0551131868  TIP3      19888           0.0000000000
    111180     21249  TIP3      OH2           -27.5140705342      -22.9895729605      -21.8333415156  TIP3      19889           0.0000000000
    111181     21249  TIP3      H1            -27.2032134115      -23.7877834676      -22.2934107242  TIP3      19889           0.0000000000
    111182     21249  TIP3      H2            -27.6573953381      -23.2883962759      -20.9176796044  TIP3      19889           0.0000000000
    111183     21250  TIP3      OH2           -30.7876377354      -36.9953764749      -22.3696394307  TIP3      19890           0.0000000000
    111184     21250  TIP3      H1            -31.1275401744      -36.9816561725      -21.4774749222  TIP3      19890           0.0000000000
    111185     21250  TIP3      H2            -31.1396120692      -37.8337134120      -22.7242891204  TIP3      19890           0.0000000000
    111186     21251  TIP3      OH2           -33.9413157897      -36.5789789212      -23.2896189804  TIP3      19891           0.0000000000
    111187     21251  TIP3      H1            -34.4287876441      -36.9645267706      -22.5230440532  TIP3      19891           0.0000000000
    111188     21251  TIP3      H2            -34.6563999644      -36.1484881433      -23.7840851667  TIP3      19891           0.0000000000
    111189     21252  TIP3      OH2           -35.2441313135      -33.8462308511      -21.9345939163  TIP3      19892           0.0000000000
    111190     21252  TIP3      H1            -35.8709809307      -34.1436009443      -22.6165732854  TIP3      19892           0.0000000000
    111191     21252  TIP3      H2            -34.5046733113      -33.5454502855      -22.4344343221  TIP3      19892           0.0000000000
    111192     21253  TIP3      OH2           -28.1256204696      -36.4715748949      -21.8110507441  TIP3      19893           0.0000000000
    111193     21253  TIP3      H1            -29.0586428660      -36.2512513564      -21.9544051029  TIP3      19893           0.0000000000
    111194     21253  TIP3      H2            -27.7793074881      -35.6210872461      -21.4338625921  TIP3      19893           0.0000000000
    111195     21254  TIP3      OH2           -27.3868259743      -34.5455154003      -20.2851715500  TIP3      19894           0.0000000000
    111196     21254  TIP3      H1            -26.5414310445      -34.6733146627      -19.8077603893  TIP3      19894           0.0000000000
    111197     21254  TIP3      H2            -27.2684575071      -33.6706535011      -20.6762723417  TIP3      19894           0.0000000000
    111198     21255  TIP3      OH2           -29.8956735062      -27.7350764608      -20.9661261633  TIP3      19895           0.0000000000
    111199     21255  TIP3      H1            -30.1681945862      -26.9150777249      -20.5257853669  TIP3      19895           0.0000000000
    111200     21255  TIP3      H2            -30.5763222664      -28.3621464911      -20.7157944919  TIP3      19895           0.0000000000
    111201     21256  TIP3      OH2           -38.7819248429      -31.4586109944      -22.3010268756  TIP3      19896           0.0000000000
    111202     21256  TIP3      H1            -38.1190707554      -30.9577493352      -21.7654999523  TIP3      19896           0.0000000000
    111203     21256  TIP3      H2            -39.5946774757      -31.2323000741      -21.8379565676  TIP3      19896           0.0000000000
    111204     21257  TIP3      OH2           -26.7413103903      -27.4942423230      -22.1411133853  TIP3      19897           0.0000000000
    111205     21257  TIP3      H1            -26.4501428104      -27.9468793734      -21.3270519901  TIP3      19897           0.0000000000
    111206     21257  TIP3      H2            -27.7004821966      -27.6448385473      -22.0638501448  TIP3      19897           0.0000000000
    111207     21258  TIP3      OH2           -32.6298601128      -26.4073011185      -23.6755206721  TIP3      19898           0.0000000000
    111208     21258  TIP3      H1            -32.5205950720      -27.1840509645      -24.2436419186  TIP3      19898           0.0000000000
    111209     21258  TIP3      H2            -33.0350747636      -26.8128189391      -22.8803127772  TIP3      19898           0.0000000000
    111210     21259  TIP3      OH2           -33.7162561227      -26.8289832896      -21.2115541229  TIP3      19899           0.0000000000
    111211     21259  TIP3      H1            -33.6647999451      -27.3923711329      -20.4177625692  TIP3      19899           0.0000000000
    111212     21259  TIP3      H2            -33.7149707866      -25.9431177658      -20.8574713824  TIP3      19899           0.0000000000
    111213     21260  TIP3      OH2           -37.4031706002      -29.6118183252      -20.7989234176  TIP3      19900           0.0000000000
    111214     21260  TIP3      H1            -37.9841727260      -29.2701353938      -20.0995348551  TIP3      19900           0.0000000000
    111215     21260  TIP3      H2            -36.8043828056      -28.8628936310      -20.9360818035  TIP3      19900           0.0000000000
    111216     21261  TIP3      OH2           -34.9924944209      -37.3881931618      -20.9526724632  TIP3      19901           0.0000000000
    111217     21261  TIP3      H1            -35.0781611758      -36.5449506074      -20.4830465324  TIP3      19901           0.0000000000
    111218     21261  TIP3      H2            -34.1794486712      -37.7297696094      -20.5516342385  TIP3      19901           0.0000000000
    111219     21262  TIP3      OH2           -36.7464985671      -26.9610412203      -21.8899487586  TIP3      19902           0.0000000000
    111220     21262  TIP3      H1            -36.0663731397      -26.3802719205      -21.5526868675  TIP3      19902           0.0000000000
    111221     21262  TIP3      H2            -36.2309701546      -27.4776058776      -22.5407212882  TIP3      19902           0.0000000000
    111222     21263  TIP3      OH2           -38.3862616478      -34.2885712290      -22.7797750042  TIP3      19903           0.0000000000
    111223     21263  TIP3      H1            -38.4243854391      -33.3719274128      -22.4612844322  TIP3      19903           0.0000000000
    111224     21263  TIP3      H2            -39.2956530615      -34.5771343446      -22.9184521057  TIP3      19903           0.0000000000
    111225     21264  TIP3      OH2           -30.6356064782      -24.5374007120      -23.5456352910  TIP3      19904           0.0000000000
    111226     21264  TIP3      H1            -31.3051454563      -25.1897477500      -23.2732862599  TIP3      19904           0.0000000000
    111227     21264  TIP3      H2            -29.8871191170      -25.1043236757      -23.7557622602  TIP3      19904           0.0000000000
    111228     21265  TIP3      OH2           -26.0635592975      -24.7600265180      -23.3577082330  TIP3      19905           0.0000000000
    111229     21265  TIP3      H1            -25.7742150662      -25.5178198797      -22.8352482933  TIP3      19905           0.0000000000
    111230     21265  TIP3      H2            -25.3080715790      -24.5413366048      -23.9214071687  TIP3      19905           0.0000000000
    111231     21266  TIP3      OH2           -35.1760780471      -28.8254633572      -23.4928039911  TIP3      19906           0.0000000000
    111232     21266  TIP3      H1            -35.0677270339      -29.6029728848      -22.9211362217  TIP3      19906           0.0000000000
    111233     21266  TIP3      H2            -34.4470521245      -28.9638553617      -24.1320033108  TIP3      19906           0.0000000000
    111234     21267  TIP3      OH2           -29.7387668177      -27.7432246570      -23.7351474778  TIP3      19907           0.0000000000
    111235     21267  TIP3      H1            -29.9937644146      -27.6220059390      -22.8049112100  TIP3      19907           0.0000000000
    111236     21267  TIP3      H2            -29.9395381594      -28.6935689243      -23.8893685907  TIP3      19907           0.0000000000
    111237     21268  TIP3      OH2           -23.4286831324      -30.2762644032      -23.4791712525  TIP3      19908           0.0000000000
    111238     21268  TIP3      H1            -23.8096321629      -30.6665027409      -24.2744982181  TIP3      19908           0.0000000000
    111239     21268  TIP3      H2            -23.4829459522      -29.3189885423      -23.6426703574  TIP3      19908           0.0000000000
    111240     21269  TIP3      OH2           -39.4227292550      -27.2534997452      -22.4470592829  TIP3      19909           0.0000000000
    111241     21269  TIP3      H1            -38.5065011745      -27.2470723751      -22.0943309677  TIP3      19909           0.0000000000
    111242     21269  TIP3      H2            -39.3914667135      -28.0016232129      -23.0397803779  TIP3      19909           0.0000000000
    111243     21270  TIP3      OH2           -39.1146284606      -39.7635993844      -21.0882726145  TIP3      19910           0.0000000000
    111244     21270  TIP3      H1            -38.6432828414      -39.0827532353      -21.5396042935  TIP3      19910           0.0000000000
    111245     21270  TIP3      H2            -39.6936453427      -39.3083048944      -20.4633828606  TIP3      19910           0.0000000000
    111246     21271  TIP3      OH2           -37.2662153286      -37.9071780411      -22.5634957051  TIP3      19911           0.0000000000
    111247     21271  TIP3      H1            -36.7677002520      -38.6083655424      -23.0108521756  TIP3      19911           0.0000000000
    111248     21271  TIP3      H2            -36.6653780407      -37.6708631709      -21.8239379597  TIP3      19911           0.0000000000
    111249     21272  TIP3      OH2           -37.4111179485      -22.9571732843      -22.9941506830  TIP3      19912           0.0000000000
    111250     21272  TIP3      H1            -37.6099254254      -22.7189107743      -22.1175445433  TIP3      19912           0.0000000000
    111251     21272  TIP3      H2            -36.6365451918      -23.5636223522      -22.9312367831  TIP3      19912           0.0000000000
    111252     21273  TIP3      OH2           -11.2580915220      -32.7773321775      -22.3370780922  TIP3      19913           0.0000000000
    111253     21273  TIP3      H1            -10.5859778603      -32.7864833976      -21.6492839940  TIP3      19913           0.0000000000
    111254     21273  TIP3      H2            -10.9043251162      -33.4392858645      -22.9418751652  TIP3      19913           0.0000000000
    111255     21274  TIP3      OH2            -5.2522092489      -40.1048621309      -21.2694666872  TIP3      19914           0.0000000000
    111256     21274  TIP3      H1             -5.9843723659      -40.1251634988      -20.5941669781  TIP3      19914           0.0000000000
    111257     21274  TIP3      H2             -5.0203402406      -39.1686416367      -21.2919152059  TIP3      19914           0.0000000000
    111258     21275  TIP3      OH2            -4.1507718663      -25.7697279021      -22.5479631712  TIP3      19915           0.0000000000
    111259     21275  TIP3      H1             -4.0137472537      -24.8338903652      -22.3074465693  TIP3      19915           0.0000000000
    111260     21275  TIP3      H2             -3.2314987864      -26.0589491536      -22.5291510330  TIP3      19915           0.0000000000
    111261     21276  TIP3      OH2            -7.5887322518      -30.7288706523      -23.0215678447  TIP3      19916           0.0000000000
    111262     21276  TIP3      H1             -7.5274162319      -31.1046617546      -23.9349734225  TIP3      19916           0.0000000000
    111263     21276  TIP3      H2             -6.6578187475      -30.4807115283      -22.8892020029  TIP3      19916           0.0000000000
    111264     21277  TIP3      OH2           -15.1102407151      -36.6075670474      -23.3770783637  TIP3      19917           0.0000000000
    111265     21277  TIP3      H1            -15.4636770091      -36.9303592323      -22.5280972228  TIP3      19917           0.0000000000
    111266     21277  TIP3      H2            -15.8354620833      -36.1144702316      -23.7728780639  TIP3      19917           0.0000000000
    111267     21278  TIP3      OH2           -16.4993474542      -33.7848348174      -21.8962429793  TIP3      19918           0.0000000000
    111268     21278  TIP3      H1            -16.9989861038      -34.1469482340      -22.6347090123  TIP3      19918           0.0000000000
    111269     21278  TIP3      H2            -15.6447667415      -33.5504417585      -22.3053602885  TIP3      19918           0.0000000000
    111270     21279  TIP3      OH2            -9.2662763921      -36.3837565910      -21.9211254896  TIP3      19919           0.0000000000
    111271     21279  TIP3      H1            -10.2225703425      -36.2754684759      -21.8428474289  TIP3      19919           0.0000000000
    111272     21279  TIP3      H2             -8.9448071779      -35.6140932123      -21.4058392382  TIP3      19919           0.0000000000
    111273     21280  TIP3      OH2            -8.5203113932      -34.5348009470      -20.2366493688  TIP3      19920           0.0000000000
    111274     21280  TIP3      H1             -7.6775761503      -34.6085774689      -19.7751363437  TIP3      19920           0.0000000000
    111275     21280  TIP3      H2             -8.4312465337      -33.6605342728      -20.6197589695  TIP3      19920           0.0000000000
    111276     21281  TIP3      OH2           -19.8828867199      -31.5648035008      -22.1987840996  TIP3      19921           0.0000000000
    111277     21281  TIP3      H1            -19.3005528643      -30.9268793642      -21.7872654416  TIP3      19921           0.0000000000
    111278     21281  TIP3      H2            -20.7531092428      -31.2072993604      -21.9723109704  TIP3      19921           0.0000000000
    111279     21282  TIP3      OH2            -3.4368859929      -23.0987661060      -21.9375701351  TIP3      19922           0.0000000000
    111280     21282  TIP3      H1             -2.6865987152      -22.4999464085      -22.0500285555  TIP3      19922           0.0000000000
    111281     21282  TIP3      H2             -4.1047960446      -22.5070397728      -21.5817848942  TIP3      19922           0.0000000000
    111282     21283  TIP3      OH2           -19.5387404224      -34.3114028587      -22.8235035949  TIP3      19923           0.0000000000
    111283     21283  TIP3      H1            -19.5743836481      -33.3990212129      -22.4702564061  TIP3      19923           0.0000000000
    111284     21283  TIP3      H2            -20.4584522902      -34.5828509012      -22.8795779540  TIP3      19923           0.0000000000
    111285     21284  TIP3      OH2           -11.7601917937      -24.5472728046      -23.5235710759  TIP3      19924           0.0000000000
    111286     21284  TIP3      H1            -12.4595575473      -25.1780514571      -23.2358267444  TIP3      19924           0.0000000000
    111287     21284  TIP3      H2            -11.0662180890      -25.1516122030      -23.8117214380  TIP3      19924           0.0000000000
    111288     21285  TIP3      OH2            -7.2240299866      -24.7843283702      -23.3263422547  TIP3      19925           0.0000000000
    111289     21285  TIP3      H1             -6.8671062653      -25.5281576008      -22.8339233338  TIP3      19925           0.0000000000
    111290     21285  TIP3      H2             -6.4784166806      -24.5703786459      -23.9172951032  TIP3      19925           0.0000000000
    111291     21286  TIP3      OH2           -10.7347986749      -27.7894042314      -23.6261260848  TIP3      19926           0.0000000000
    111292     21286  TIP3      H1            -11.3196789420      -27.6167738546      -22.8793139086  TIP3      19926           0.0000000000
    111293     21286  TIP3      H2            -11.1195763826      -28.6624538945      -23.9089348710  TIP3      19926           0.0000000000
    111294     21287  TIP3      OH2           -14.0349171571      -32.7586026990      -22.9025621833  TIP3      19927           0.0000000000
    111295     21287  TIP3      H1            -14.2135733724      -32.6895914418      -23.8502408727  TIP3      19927           0.0000000000
    111296     21287  TIP3      H2            -13.1043182300      -32.4894439179      -22.8186061726  TIP3      19927           0.0000000000
    111297     21288  TIP3      OH2            -4.7316979553      -30.2792557863      -23.4115509567  TIP3      19928           0.0000000000
    111298     21288  TIP3      H1             -4.8830056953      -30.6714668338      -24.2878489283  TIP3      19928           0.0000000000
    111299     21288  TIP3      H2             -4.5940474901      -29.3359304236      -23.6303733153  TIP3      19928           0.0000000000
    111300     21289  TIP3      OH2           -14.1870436536      -21.9116854209      -21.8601383212  TIP3      19929           0.0000000000
    111301     21289  TIP3      H1            -13.2300298428      -21.8311981044      -21.7049906021  TIP3      19929           0.0000000000
    111302     21289  TIP3      H2            -14.3639601772      -21.2817283267      -22.5511108148  TIP3      19929           0.0000000000
    111303     21290  TIP3      OH2            -3.5783199636      -31.5125485409      -21.2376762866  TIP3      19930           0.0000000000
    111304     21290  TIP3      H1             -4.0419196808      -31.1070060382      -21.9953831283  TIP3      19930           0.0000000000
    111305     21290  TIP3      H2             -3.6011266825      -30.7951358558      -20.5896640747  TIP3      19930           0.0000000000
    111306     21291  TIP3      OH2            -5.1649857916      -34.2196409775      -22.6911007888  TIP3      19931           0.0000000000
    111307     21291  TIP3      H1             -5.0653260517      -33.5570763491      -23.3779247257  TIP3      19931           0.0000000000
    111308     21291  TIP3      H2             -5.3210117910      -35.0504778369      -23.1781251163  TIP3      19931           0.0000000000
    111309     21292  TIP3      OH2            -5.9392308956      -36.7495990903      -23.5656074744  TIP3      19932           0.0000000000
    111310     21292  TIP3      H1             -5.2948509545      -37.2171020872      -22.9927421826  TIP3      19932           0.0000000000
    111311     21292  TIP3      H2             -6.7516876376      -37.2605603495      -23.4127888872  TIP3      19932           0.0000000000
    111312     21293  TIP3      OH2            -3.8456006220      -37.8552907148      -22.0574945353  TIP3      19933           0.0000000000
    111313     21293  TIP3      H1             -3.4290056919      -38.6308096243      -22.5000890797  TIP3      19933           0.0000000000
    111314     21293  TIP3      H2             -3.1005488010      -37.2609502364      -21.9336417153  TIP3      19933           0.0000000000
    111315     21294  TIP3      OH2           -18.3452809861      -37.9212219438      -22.5477477954  TIP3      19934           0.0000000000
    111316     21294  TIP3      H1            -17.8830045379      -38.6114419425      -23.0396701907  TIP3      19934           0.0000000000
    111317     21294  TIP3      H2            -17.7614442194      -37.6502958485      -21.8376511008  TIP3      19934           0.0000000000
    111318     21295  TIP3      OH2           -11.5645509334      -22.6875275565      -21.6007963472  TIP3      19935           0.0000000000
    111319     21295  TIP3      H1            -10.7107513828      -22.3659589716      -21.8375297081  TIP3      19935           0.0000000000
    111320     21295  TIP3      H2            -11.7970920570      -23.1989250578      -22.4025090832  TIP3      19935           0.0000000000
    111321     21296  TIP3      OH2           -18.5241533453      -22.9737434889      -23.0195019826  TIP3      19936           0.0000000000
    111322     21296  TIP3      H1            -18.8236185825      -22.7132894731      -22.1358970520  TIP3      19936           0.0000000000
    111323     21296  TIP3      H2            -17.7968313571      -23.5987970288      -22.8393353659  TIP3      19936           0.0000000000
    111324     21297  TIP3      OH2            14.7757472912      -25.8172166085      -22.4274816255  TIP3      19937           0.0000000000
    111325     21297  TIP3      H1             14.7210003161      -24.8612296856      -22.4612424056  TIP3      19937           0.0000000000
    111326     21297  TIP3      H2             15.6630860457      -26.0778841008      -22.6243764981  TIP3      19937           0.0000000000
    111327     21298  TIP3      OH2            11.3343116372      -30.8963900527      -23.0482502294  TIP3      19938           0.0000000000
    111328     21298  TIP3      H1             11.3332906021      -31.0525232199      -24.0076585799  TIP3      19938           0.0000000000
    111329     21298  TIP3      H2             12.1434195056      -30.4062915092      -22.8462633079  TIP3      19938           0.0000000000
    111330     21299  TIP3      OH2             6.9577051722      -36.9937379895      -22.4501302591  TIP3      19939           0.0000000000
    111331     21299  TIP3      H1              6.6311775305      -36.8941345671      -21.5332758433  TIP3      19939           0.0000000000
    111332     21299  TIP3      H2              6.5615886303      -37.8418496564      -22.7205305063  TIP3      19939           0.0000000000
    111333     21300  TIP3      OH2             3.7859916312      -36.5582971967      -23.3345039742  TIP3      19940           0.0000000000
    111334     21300  TIP3      H1              3.3428254450      -36.9625241547      -22.5520415676  TIP3      19940           0.0000000000
    111335     21300  TIP3      H2              3.0389017076      -36.1151456172      -23.7547595237  TIP3      19940           0.0000000000
    111336     21301  TIP3      OH2             2.4039052626      -33.7960148777      -22.0024940219  TIP3      19941           0.0000000000
    111337     21301  TIP3      H1              1.8550861585      -34.1787866202      -22.7028756062  TIP3      19941           0.0000000000
    111338     21301  TIP3      H2              3.2519698279      -33.5772764832      -22.4218638172  TIP3      19941           0.0000000000
    111339     21302  TIP3      OH2             9.5949980583      -36.4656019884      -21.8196176848  TIP3      19942           0.0000000000
    111340     21302  TIP3      H1              8.6415501484      -36.2450015089      -21.8703505279  TIP3      19942           0.0000000000
    111341     21302  TIP3      H2              9.8957438553      -35.6291919591      -21.3636233421  TIP3      19942           0.0000000000
    111342     21303  TIP3      OH2            10.3746456032      -34.5246651717      -20.3066151551  TIP3      19943           0.0000000000
    111343     21303  TIP3      H1             11.1625446080      -34.6552980434      -19.7588147919  TIP3      19943           0.0000000000
    111344     21303  TIP3      H2             10.4027242650      -33.6182886637      -20.6119225403  TIP3      19943           0.0000000000
    111345     21304  TIP3      OH2             7.7814920055      -27.7150462717      -21.0051172693  TIP3      19944           0.0000000000
    111346     21304  TIP3      H1              7.4849204359      -26.9594402179      -20.4979020486  TIP3      19944           0.0000000000
    111347     21304  TIP3      H2              7.1657175329      -28.4154125431      -20.7416466417  TIP3      19944           0.0000000000
    111348     21305  TIP3      OH2            15.3011795740      -34.3246065548      -20.4536780741  TIP3      19945           0.0000000000
    111349     21305  TIP3      H1             14.6619932675      -34.7338348299      -21.0750263455  TIP3      19945           0.0000000000
    111350     21305  TIP3      H2             15.2861658183      -33.4357082323      -20.7758718086  TIP3      19945           0.0000000000
    111351     21306  TIP3      OH2            10.9527865128      -27.4776124397      -22.1404199223  TIP3      19946           0.0000000000
    111352     21306  TIP3      H1             11.2873298152      -27.9970632650      -21.3823746705  TIP3      19946           0.0000000000
    111353     21306  TIP3      H2             10.0073635825      -27.6601691265      -22.0435809097  TIP3      19946           0.0000000000
    111354     21307  TIP3      OH2             5.0903466918      -26.4033682182      -23.6624511183  TIP3      19947           0.0000000000
    111355     21307  TIP3      H1              5.1882361057      -27.1765406986      -24.2348404496  TIP3      19947           0.0000000000
    111356     21307  TIP3      H2              4.6398024390      -26.8103929353      -22.8867756083  TIP3      19947           0.0000000000
    111357     21308  TIP3      OH2             3.9873098397      -26.8805209117      -21.2039187220  TIP3      19948           0.0000000000
    111358     21308  TIP3      H1              4.0531941716      -27.3830569107      -20.3897327473  TIP3      19948           0.0000000000
    111359     21308  TIP3      H2              3.9107101806      -25.9740377520      -20.8716800004  TIP3      19948           0.0000000000
    111360     21309  TIP3      OH2             2.7351440241      -37.4099812259      -20.9542310322  TIP3      19949           0.0000000000
    111361     21309  TIP3      H1              2.6060023415      -36.5612564643      -20.5030971046  TIP3      19949           0.0000000000
    111362     21309  TIP3      H2              3.5847248540      -37.7101417807      -20.6041248811  TIP3      19949           0.0000000000
    111363     21310  TIP3      OH2            -0.6530372227      -34.2874208316      -22.8011817184  TIP3      19950           0.0000000000
    111364     21310  TIP3      H1             -0.7114364161      -33.3994468398      -22.4474174665  TIP3      19950           0.0000000000
    111365     21310  TIP3      H2             -1.5678393364      -34.5644021846      -22.9055011525  TIP3      19950           0.0000000000
    111366     21311  TIP3      OH2             7.0652994706      -24.5276583836      -23.5944755572  TIP3      19951           0.0000000000
    111367     21311  TIP3      H1              6.4044607861      -25.1917292062      -23.3174248238  TIP3      19951           0.0000000000
    111368     21311  TIP3      H2              7.8296557378      -25.0963998902      -23.7537553001  TIP3      19951           0.0000000000
    111369     21312  TIP3      OH2            11.6452248997      -24.7516439493      -23.3747245833  TIP3      19952           0.0000000000
    111370     21312  TIP3      H1             11.8969073660      -25.5219042356      -22.8409888850  TIP3      19952           0.0000000000
    111371     21312  TIP3      H2             12.4039183740      -24.5524216038      -23.9236805722  TIP3      19952           0.0000000000
    111372     21313  TIP3      OH2             2.5379162704      -28.8621282756      -23.5208353478  TIP3      19953           0.0000000000
    111373     21313  TIP3      H1              2.6694536571      -29.5995335437      -22.9068266921  TIP3      19953           0.0000000000
    111374     21313  TIP3      H2              3.2973953340      -28.9659167599      -24.1175041615  TIP3      19953           0.0000000000
    111375     21314  TIP3      OH2             7.9327721199      -27.7295526608      -23.7505913619  TIP3      19954           0.0000000000
    111376     21314  TIP3      H1              7.7137829025      -27.6490509827      -22.8074780327  TIP3      19954           0.0000000000
    111377     21314  TIP3      H2              7.7971530383      -28.6996430178      -23.8517194637  TIP3      19954           0.0000000000
    111378     21315  TIP3      OH2             3.6932601522      -30.8545316697      -21.1426510400  TIP3      19955           0.0000000000
    111379     21315  TIP3      H1              3.2725094117      -31.4366395283      -20.5341029190  TIP3      19955           0.0000000000
    111380     21315  TIP3      H2              4.0451619736      -31.5085087052      -21.7848938736  TIP3      19955           0.0000000000
    111381     21316  TIP3      OH2             4.8081778772      -32.6199719947      -22.8878816210  TIP3      19956           0.0000000000
    111382     21316  TIP3      H1              4.6475529178      -32.7174084216      -23.8479371445  TIP3      19956           0.0000000000
    111383     21316  TIP3      H2              5.7744125593      -32.5505921528      -22.8331069179  TIP3      19956           0.0000000000
    111384     21317  TIP3      OH2            14.2645519774      -30.2879633879      -23.4569764739  TIP3      19957           0.0000000000
    111385     21317  TIP3      H1             13.9656501032      -30.6682500510      -24.2978986776  TIP3      19957           0.0000000000
    111386     21317  TIP3      H2             14.2165592881      -29.3267082776      -23.6549820396  TIP3      19957           0.0000000000
    111387     21318  TIP3      OH2             4.7091851771      -21.9681808911      -21.8702949431  TIP3      19958           0.0000000000
    111388     21318  TIP3      H1              5.6438302363      -21.7938708984      -21.7325219331  TIP3      19958           0.0000000000
    111389     21318  TIP3      H2              4.4847765751      -21.3002729295      -22.5216803370  TIP3      19958           0.0000000000
    111390     21319  TIP3      OH2            13.7658571142      -34.2111936408      -22.7072797944  TIP3      19959           0.0000000000
    111391     21319  TIP3      H1             13.7534593419      -33.5676312579      -23.4264907156  TIP3      19959           0.0000000000
    111392     21319  TIP3      H2             13.5158797066      -35.0331563664      -23.1849709676  TIP3      19959           0.0000000000
    111393     21320  TIP3      OH2            12.9609119371      -36.7631948273      -23.5999036822  TIP3      19960           0.0000000000
    111394     21320  TIP3      H1             13.5727772032      -37.2149941840      -22.9864747317  TIP3      19960           0.0000000000
    111395     21320  TIP3      H2             12.1131925934      -37.1985889326      -23.4393324743  TIP3      19960           0.0000000000
    111396     21321  TIP3      OH2            15.0212034078      -37.9286681935      -21.9848897395  TIP3      19961           0.0000000000
    111397     21321  TIP3      H1             15.4140498108      -38.6451979616      -22.5309218777  TIP3      19961           0.0000000000
    111398     21321  TIP3      H2             15.6982514061      -37.2526051238      -21.9574355266  TIP3      19961           0.0000000000
    111399     21322  TIP3      OH2             0.4657278868      -37.8832452875      -22.5848560351  TIP3      19962           0.0000000000
    111400     21322  TIP3      H1              0.9516506446      -38.5823326323      -23.0239167561  TIP3      19962           0.0000000000
    111401     21322  TIP3      H2              1.0223362464      -37.6891246018      -21.8013652041  TIP3      19962           0.0000000000
    111402     21323  TIP3      OH2             0.2687817873      -22.9648057851      -23.0267699881  TIP3      19963           0.0000000000
    111403     21323  TIP3      H1              0.0669184055      -22.7393695226      -22.1147359126  TIP3      19963           0.0000000000
    111404     21323  TIP3      H2              1.0550294456      -23.5432727257      -22.8920249203  TIP3      19963           0.0000000000
    111405     21324  TIP3      OH2            30.1302161487      -30.8773103805      -23.0251325300  TIP3      19964           0.0000000000
    111406     21324  TIP3      H1             30.1695715900      -31.0627317826      -23.9828421348  TIP3      19964           0.0000000000
    111407     21324  TIP3      H2             31.0040587536      -30.4866871235      -22.8674161631  TIP3      19964           0.0000000000
    111408     21325  TIP3      OH2            25.6913007119      -36.9665705853      -22.4052189386  TIP3      19965           0.0000000000
    111409     21325  TIP3      H1             25.4915675921      -36.9871005873      -21.4712503779  TIP3      19965           0.0000000000
    111410     21325  TIP3      H2             25.4447850510      -37.8616210906      -22.6978590386  TIP3      19965           0.0000000000
    111411     21326  TIP3      OH2            21.3139016265      -33.8251376344      -21.9291785146  TIP3      19966           0.0000000000
    111412     21326  TIP3      H1             20.7225964456      -34.1007922750      -22.6525467000  TIP3      19966           0.0000000000
    111413     21326  TIP3      H2             22.0990349624      -33.5257229886      -22.4029663363  TIP3      19966           0.0000000000
    111414     21327  TIP3      OH2            28.4576045127      -36.4204212837      -21.7426254305  TIP3      19967           0.0000000000
    111415     21327  TIP3      H1             27.5217824659      -36.2452840292      -21.9176405171  TIP3      19967           0.0000000000
    111416     21327  TIP3      H2             28.7821432836      -35.5588115957      -21.4321834755  TIP3      19967           0.0000000000
    111417     21328  TIP3      OH2            34.0950149221      -34.3008506903      -20.4094323108  TIP3      19968           0.0000000000
    111418     21328  TIP3      H1             33.4763090051      -34.6675917164      -21.0723625525  TIP3      19968           0.0000000000
    111419     21328  TIP3      H2             34.1407935053      -33.3910933406      -20.7051379786  TIP3      19968           0.0000000000
    111420     21329  TIP3      OH2            17.7687738352      -31.5059281433      -22.2462682049  TIP3      19969           0.0000000000
    111421     21329  TIP3      H1             18.4383920324      -30.9599689010      -21.8063725803  TIP3      19969           0.0000000000
    111422     21329  TIP3      H2             16.9275889968      -31.1415589241      -21.9782974579  TIP3      19969           0.0000000000
    111423     21330  TIP3      OH2            34.2213656257      -23.0944511916      -21.9330314924  TIP3      19970           0.0000000000
    111424     21330  TIP3      H1             35.0004004328      -22.5395939017      -22.0580419290  TIP3      19970           0.0000000000
    111425     21330  TIP3      H2             33.5705737036      -22.5121840326      -21.5684070450  TIP3      19970           0.0000000000
    111426     21331  TIP3      OH2            23.7991430100      -26.4023372010      -23.7340273442  TIP3      19971           0.0000000000
    111427     21331  TIP3      H1             24.1503307128      -27.1697202274      -24.2031716612  TIP3      19971           0.0000000000
    111428     21331  TIP3      H2             23.6217887484      -26.8007367797      -22.8651295893  TIP3      19971           0.0000000000
    111429     21332  TIP3      OH2            25.4682219588      -25.2667952050      -20.5659552024  TIP3      19972           0.0000000000
    111430     21332  TIP3      H1             24.6984675583      -24.6936055239      -20.4166601361  TIP3      19972           0.0000000000
    111431     21332  TIP3      H2             26.0677310297      -24.6687817076      -21.0192768282  TIP3      19972           0.0000000000
    111432     21333  TIP3      OH2            22.8219019805      -24.1502883205      -20.5235573579  TIP3      19973           0.0000000000
    111433     21333  TIP3      H1             23.0056536195      -23.3224805753      -21.0249375957  TIP3      19973           0.0000000000
    111434     21333  TIP3      H2             22.7068413332      -23.7852279913      -19.6330011629  TIP3      19973           0.0000000000
    111435     21334  TIP3      OH2            18.1405091142      -34.2710108787      -22.7775972260  TIP3      19974           0.0000000000
    111436     21334  TIP3      H1             18.1322680762      -33.3349505488      -22.5185647866  TIP3      19974           0.0000000000
    111437     21334  TIP3      H2             17.2286844771      -34.5056869078      -22.9670187532  TIP3      19974           0.0000000000
    111438     21335  TIP3      OH2            25.9091348972      -24.5408788355      -23.5863579317  TIP3      19975           0.0000000000
    111439     21335  TIP3      H1             25.2653675093      -25.1803539224      -23.2159881339  TIP3      19975           0.0000000000
    111440     21335  TIP3      H2             26.6555184752      -25.1439060345      -23.7010812195  TIP3      19975           0.0000000000
    111441     21336  TIP3      OH2            21.4837107721      -28.9461117184      -23.3345002943  TIP3      19976           0.0000000000
    111442     21336  TIP3      H1             21.5539530140      -29.7721588031      -22.8120319476  TIP3      19976           0.0000000000
    111443     21336  TIP3      H2             22.2273438550      -29.1054541508      -23.9516941710  TIP3      19976           0.0000000000
    111444     21337  TIP3      OH2            26.7396314768      -27.7395171131      -23.7272452261  TIP3      19977           0.0000000000
    111445     21337  TIP3      H1             26.5754122948      -27.6317998827      -22.7857634951  TIP3      19977           0.0000000000
    111446     21337  TIP3      H2             26.6478654967      -28.7101742570      -23.8594204040  TIP3      19977           0.0000000000
    111447     21338  TIP3      OH2            22.5897504427      -30.8498576983      -21.1693127498  TIP3      19978           0.0000000000
    111448     21338  TIP3      H1             22.1122989217      -31.3346431204      -20.4708481810  TIP3      19978           0.0000000000
    111449     21338  TIP3      H2             22.8394495048      -31.5715227717      -21.7736932992  TIP3      19978           0.0000000000
    111450     21339  TIP3      OH2            23.6644346210      -32.6581820069      -22.8991074832  TIP3      19979           0.0000000000
    111451     21339  TIP3      H1             23.4995622657      -32.7184622888      -23.8638391943  TIP3      19979           0.0000000000
    111452     21339  TIP3      H2             24.6173287891      -32.5453075119      -22.9170025444  TIP3      19979           0.0000000000
    111453     21340  TIP3      OH2            33.0168732016      -30.2947870265      -23.4587641608  TIP3      19980           0.0000000000
    111454     21340  TIP3      H1             32.8141583457      -30.6718558751      -24.3211773710  TIP3      19980           0.0000000000
    111455     21340  TIP3      H2             33.1205770899      -29.3330822920      -23.6303363945  TIP3      19980           0.0000000000
    111456     21341  TIP3      OH2            23.5113506167      -21.9335294763      -21.8908720701  TIP3      19981           0.0000000000
    111457     21341  TIP3      H1             24.4705898151      -21.8245221484      -21.7233478125  TIP3      19981           0.0000000000
    111458     21341  TIP3      H2             23.3533021395      -21.2632059842      -22.5559995504  TIP3      19981           0.0000000000
    111459     21342  TIP3      OH2            32.6436879656      -34.2457136250      -22.7345478511  TIP3      19982           0.0000000000
    111460     21342  TIP3      H1             32.6058773551      -33.5497855797      -23.3991970089  TIP3      19982           0.0000000000
    111461     21342  TIP3      H2             32.3779023662      -35.0486777892      -23.1912949755  TIP3      19982           0.0000000000
    111462     21343  TIP3      OH2            17.4420663043      -39.8997770228      -20.9292713280  TIP3      19983           0.0000000000
    111463     21343  TIP3      H1             17.8458505506      -39.2882997951      -21.5432620132  TIP3      19983           0.0000000000
    111464     21343  TIP3      H2             16.8085357989      -39.3297027941      -20.4761937291  TIP3      19983           0.0000000000
    111465     21344  TIP3      OH2            26.1672894795      -22.5999314169      -21.6962427665  TIP3      19984           0.0000000000
    111466     21344  TIP3      H1             27.0853703241      -22.3874421902      -21.8269992728  TIP3      19984           0.0000000000
    111467     21344  TIP3      H2             25.9643026362      -23.1750111630      -22.4593896809  TIP3      19984           0.0000000000
    111468     21345  TIP3      OH2            19.0631814953      -23.1438623913      -22.9844290230  TIP3      19985           0.0000000000
    111469     21345  TIP3      H1             18.9084538378      -22.6519187389      -22.1562413965  TIP3      19985           0.0000000000
    111470     21345  TIP3      H2             19.9643066786      -23.5117833815      -22.8657803661  TIP3      19985           0.0000000000
    111471     21346  TIP3      OH2            35.9768387815      -36.1083962954      -20.8739023411  TIP3      19986           0.0000000000
    111472     21346  TIP3      H1             36.5181927086      -35.4836749049      -21.3775834896  TIP3      19986           0.0000000000
    111473     21346  TIP3      H2             35.2956321828      -35.5436548767      -20.4654323122  TIP3      19986           0.0000000000
    111474     21347  TIP3      OH2            40.2335494464      -34.4131371746      -22.3932180956  TIP3      19987           0.0000000000
    111475     21347  TIP3      H1             39.4391241713      -34.1464906223      -22.8945219634  TIP3      19987           0.0000000000
    111476     21347  TIP3      H2             40.7678177014      -33.6006503037      -22.4231768228  TIP3      19987           0.0000000000
    111477     21348  TIP3      OH2            36.6681499798      -31.5638495957      -22.1608561937  TIP3      19988           0.0000000000
    111478     21348  TIP3      H1             37.2687172898      -30.8977191499      -21.7777890758  TIP3      19988           0.0000000000
    111479     21348  TIP3      H2             35.8198057907      -31.1461280455      -21.9560681118  TIP3      19988           0.0000000000
    111480     21349  TIP3      OH2           -41.0436986543      -37.4225147316      -21.1022617431  TIP3      19989           0.0000000000
    111481     21349  TIP3      H1            -41.1380501334      -36.5914367525      -20.5892899612  TIP3      19989           0.0000000000
    111482     21349  TIP3      H2            -40.1912263429      -37.6499298492      -20.6689012566  TIP3      19989           0.0000000000
    111483     21350  TIP3      OH2            38.6963582856      -26.9029588543      -21.9367249642  TIP3      19990           0.0000000000
    111484     21350  TIP3      H1             39.3729832743      -26.4034197519      -21.4794070387  TIP3      19990           0.0000000000
    111485     21350  TIP3      H2             39.2020658918      -27.5204176068      -22.4878964512  TIP3      19990           0.0000000000
    111486     21351  TIP3      OH2            37.0502091444      -34.3165764186      -22.7306291716  TIP3      19991           0.0000000000
    111487     21351  TIP3      H1             37.0116593105      -33.3699029921      -22.5081214900  TIP3      19991           0.0000000000
    111488     21351  TIP3      H2             36.1434564942      -34.5595077745      -22.9403839301  TIP3      19991           0.0000000000
    111489     21352  TIP3      OH2            39.9556964293      -28.9110968425      -23.3958197518  TIP3      19992           0.0000000000
    111490     21352  TIP3      H1             40.2310944150      -29.6017383654      -22.7874141408  TIP3      19992           0.0000000000
    111491     21352  TIP3      H2             40.7730981045      -28.9026856406      -23.9144690921  TIP3      19992           0.0000000000
    111492     21353  TIP3      OH2            36.3269230800      -39.7752331820      -20.9638005912  TIP3      19993           0.0000000000
    111493     21353  TIP3      H1             36.7803788473      -39.1292811867      -21.5187693629  TIP3      19993           0.0000000000
    111494     21353  TIP3      H2             35.7088631402      -39.2258567154      -20.4602705354  TIP3      19993           0.0000000000
    111495     21354  TIP3      OH2            38.1752155778      -37.9549331718      -22.5191528048  TIP3      19994           0.0000000000
    111496     21354  TIP3      H1             38.7034732600      -38.6003984393      -23.0113973781  TIP3      19994           0.0000000000
    111497     21354  TIP3      H2             38.8326588966      -37.6780698139      -21.8371199860  TIP3      19994           0.0000000000
    111498     21355  TIP3      OH2            38.0861343516      -22.9442780815      -23.0294239076  TIP3      19995           0.0000000000
    111499     21355  TIP3      H1             37.7411416812      -22.7223290926      -22.1501205178  TIP3      19995           0.0000000000
    111500     21355  TIP3      H2             38.7477648410      -23.6186229811      -22.8299249278  TIP3      19995           0.0000000000
    111501     21356  TIP3      OH2           -22.9885452245       -6.8158508171      -22.5522532959  TIP3      19996           0.0000000000
    111502     21356  TIP3      H1            -22.8312856400       -5.9067289295      -22.2789846902  TIP3      19996           0.0000000000
    111503     21356  TIP3      H2            -22.1154174204       -7.2351162234      -22.4578441210  TIP3      19996           0.0000000000
    111504     21357  TIP3      OH2           -26.3187911298      -12.1548627404      -22.9884721464  TIP3      19997           0.0000000000
    111505     21357  TIP3      H1            -26.4187365954      -12.1063784755      -23.9603355591  TIP3      19997           0.0000000000
    111506     21357  TIP3      H2            -25.6362797752      -11.4821482111      -22.8911238319  TIP3      19997           0.0000000000
    111507     21358  TIP3      OH2           -30.8519724003      -18.1116228778      -22.4095683137  TIP3      19998           0.0000000000
    111508     21358  TIP3      H1            -31.1148551272      -18.1624082162      -21.4936464604  TIP3      19998           0.0000000000
    111509     21358  TIP3      H2            -31.1013073427      -19.0069954034      -22.7183845782  TIP3      19998           0.0000000000
    111510     21359  TIP3      OH2           -33.9340916560      -17.7002444630      -23.2805251170  TIP3      19999           0.0000000000
    111511     21359  TIP3      H1            -34.3942293730      -18.1097119111      -22.5409621678  TIP3      19999           0.0000000000
    111512     21359  TIP3      H2            -34.6414923659      -17.2697009564      -23.7913310799  TIP3      19999           0.0000000000
    111513     21360  TIP3      OH2           -28.0541146618      -17.5152676297      -21.7662490343  TIP3      20000           0.0000000000
    111514     21360  TIP3      H1            -29.0146396818      -17.4569934218      -21.9281126735  TIP3      20000           0.0000000000
    111515     21360  TIP3      H2            -27.8212143672      -16.6426058658      -21.4327321724  TIP3      20000           0.0000000000
    111516     21361  TIP3      OH2           -29.9367751804       -8.9243280462      -21.0093406854  TIP3      20001           0.0000000000
    111517     21361  TIP3      H1            -30.1225099291       -8.0773933162      -20.5569950222  TIP3      20001           0.0000000000
    111518     21361  TIP3      H2            -30.6143332537       -9.5090302898      -20.6902234615  TIP3      20001           0.0000000000
    111519     21362  TIP3      OH2           -22.4297492354      -15.4719756843      -20.4580525908  TIP3      20002           0.0000000000
    111520     21362  TIP3      H1            -23.1042077922      -15.7713046705      -21.0801158177  TIP3      20002           0.0000000000
    111521     21362  TIP3      H2            -22.4305815507      -14.5390914745      -20.6045754415  TIP3      20002           0.0000000000
    111522     21363  TIP3      OH2           -38.7435956989      -12.6381725885      -22.2586996438  TIP3      20003           0.0000000000
    111523     21363  TIP3      H1            -38.1155449685      -12.0863707720      -21.7521287811  TIP3      20003           0.0000000000
    111524     21363  TIP3      H2            -39.5752177873      -12.3537672453      -21.8730909001  TIP3      20003           0.0000000000
    111525     21364  TIP3      OH2           -22.3119596774       -4.2400424311      -22.0045402111  TIP3      20004           0.0000000000
    111526     21364  TIP3      H1            -21.5258789087       -3.6669710056      -22.0033194702  TIP3      20004           0.0000000000
    111527     21364  TIP3      H2            -22.9706470292       -3.6643040299      -21.5692870413  TIP3      20004           0.0000000000
    111528     21365  TIP3      OH2           -32.7027285611       -7.5344349758      -23.6606882983  TIP3      20005           0.0000000000
    111529     21365  TIP3      H1            -32.4876245349       -8.3001069157      -24.2286261740  TIP3      20005           0.0000000000
    111530     21365  TIP3      H2            -32.9663259349       -8.0087268824      -22.8651142277  TIP3      20005           0.0000000000
    111531     21366  TIP3      OH2           -31.0658380403       -6.3485924953      -20.4948230471  TIP3      20006           0.0000000000
    111532     21366  TIP3      H1            -31.8663027021       -5.8167535198      -20.4506076315  TIP3      20006           0.0000000000
    111533     21366  TIP3      H2            -30.4790383756       -5.8288450189      -21.0680774202  TIP3      20006           0.0000000000
    111534     21367  TIP3      OH2           -33.6960720841       -5.2588155957      -20.5463613276  TIP3      20007           0.0000000000
    111535     21367  TIP3      H1            -33.5340521772       -4.4699253100      -21.0482094565  TIP3      20007           0.0000000000
    111536     21367  TIP3      H2            -33.8990431972       -4.9975463627      -19.6321230168  TIP3      20007           0.0000000000
    111537     21368  TIP3      OH2           -38.4759853709      -15.5169534655      -22.6191207154  TIP3      20008           0.0000000000
    111538     21368  TIP3      H1            -38.3893919912      -14.5429759286      -22.5108584855  TIP3      20008           0.0000000000
    111539     21368  TIP3      H2            -39.3094197741      -15.6682848987      -23.0443902002  TIP3      20008           0.0000000000
    111540     21369  TIP3      OH2           -30.6406114893       -5.6712906896      -23.5424243806  TIP3      20009           0.0000000000
    111541     21369  TIP3      H1            -31.2917215032       -6.3537809728      -23.2742765062  TIP3      20009           0.0000000000
    111542     21369  TIP3      H2            -29.8899659025       -6.2549246990      -23.7490860406  TIP3      20009           0.0000000000
    111543     21370  TIP3      OH2           -26.0577698209       -5.8964516119      -23.4255765653  TIP3      20010           0.0000000000
    111544     21370  TIP3      H1            -25.8093037175       -6.6266151217      -22.8287308798  TIP3      20010           0.0000000000
    111545     21370  TIP3      H2            -25.2465788784       -5.7301857604      -23.9097609723  TIP3      20010           0.0000000000
    111546     21371  TIP3      OH2           -29.8239650076       -8.8769100141      -23.7497540301  TIP3      20011           0.0000000000
    111547     21371  TIP3      H1            -29.9187618437       -8.8196514528      -22.7782905105  TIP3      20011           0.0000000000
    111548     21371  TIP3      H2            -29.9106197435       -9.8523244676      -23.8758923396  TIP3      20011           0.0000000000
    111549     21372  TIP3      OH2           -32.8882490011      -13.8000540933      -22.8806429173  TIP3      20012           0.0000000000
    111550     21372  TIP3      H1            -33.1097151595      -13.8602605284      -23.8267424898  TIP3      20012           0.0000000000
    111551     21372  TIP3      H2            -31.9467710461      -13.6483940251      -22.9038596465  TIP3      20012           0.0000000000
    111552     21373  TIP3      OH2           -39.3728872235       -8.3493912830      -22.4084996287  TIP3      20013           0.0000000000
    111553     21373  TIP3      H1            -38.4655350966       -8.3834897780      -22.0824933397  TIP3      20013           0.0000000000
    111554     21373  TIP3      H2            -39.3953424324       -9.0841039694      -23.0355032725  TIP3      20013           0.0000000000
    111555     21374  TIP3      OH2           -23.8630225888      -15.3852466931      -22.7647338391  TIP3      20014           0.0000000000
    111556     21374  TIP3      H1            -24.0473466298      -14.6719458996      -23.3891428419  TIP3      20014           0.0000000000
    111557     21374  TIP3      H2            -24.2651416520      -16.1606401115      -23.1666477659  TIP3      20014           0.0000000000
    111558     21375  TIP3      OH2           -30.4316281641       -3.7376764774      -21.6788050261  TIP3      20015           0.0000000000
    111559     21375  TIP3      H1            -29.5024158904       -3.5477856558      -21.8412554265  TIP3      20015           0.0000000000
    111560     21375  TIP3      H2            -30.5907095344       -4.3160374560      -22.4544355293  TIP3      20015           0.0000000000
    111561     21376  TIP3      OH2           -37.4147611925       -4.1060508908      -22.9850270023  TIP3      20016           0.0000000000
    111562     21376  TIP3      H1            -37.6673783894       -3.8615093629      -22.0888751363  TIP3      20016           0.0000000000
    111563     21376  TIP3      H2            -36.6506066489       -4.7050486792      -22.8804275296  TIP3      20016           0.0000000000
    111564     21377  TIP3      OH2           -11.2936943334      -14.0668313779      -22.3134818177  TIP3      20017           0.0000000000
    111565     21377  TIP3      H1            -10.5619220569      -13.8505693360      -21.6930177457  TIP3      20017           0.0000000000
    111566     21377  TIP3      H2            -10.8206242959      -14.5493113024      -22.9986783740  TIP3      20017           0.0000000000
    111567     21378  TIP3      OH2            -4.1302704575       -7.0034734635      -22.6338794178  TIP3      20018           0.0000000000
    111568     21378  TIP3      H1             -4.0955510113       -6.0835171822      -22.3822835540  TIP3      20018           0.0000000000
    111569     21378  TIP3      H2             -3.2002122877       -7.2956833669      -22.5384021180  TIP3      20018           0.0000000000
    111570     21379  TIP3      OH2            -8.7397483514       -4.1924179225      -21.8604130552  TIP3      20019           0.0000000000
    111571     21379  TIP3      H1             -8.2908088470       -4.9411145720      -22.3034804201  TIP3      20019           0.0000000000
    111572     21379  TIP3      H2             -8.6673689652       -4.3978139949      -20.9130610034  TIP3      20019           0.0000000000
    111573     21380  TIP3      OH2            -7.5147280453      -12.0045733336      -23.0346306547  TIP3      20020           0.0000000000
    111574     21380  TIP3      H1             -7.5366840416      -12.1767970714      -23.9982785544  TIP3      20020           0.0000000000
    111575     21380  TIP3      H2             -6.6689983850      -11.5690023570      -22.8880468537  TIP3      20020           0.0000000000
    111576     21381  TIP3      OH2           -20.6330663210      -17.2661060233      -20.9247576564  TIP3      20021           0.0000000000
    111577     21381  TIP3      H1            -20.0258438036      -16.6393223870      -21.3489451820  TIP3      20021           0.0000000000
    111578     21381  TIP3      H2            -21.2125063678      -16.6694820221      -20.3982867369  TIP3      20021           0.0000000000
    111579     21382  TIP3      OH2            -9.2744073460      -17.5506468502      -21.7620295865  TIP3      20022           0.0000000000
    111580     21382  TIP3      H1            -10.2027020416      -17.3627553244      -21.8407503924  TIP3      20022           0.0000000000
    111581     21382  TIP3      H2             -8.9065623390      -16.7131793583      -21.4293351157  TIP3      20022           0.0000000000
    111582     21383  TIP3      OH2            -7.8700628618       -8.6240776326      -22.1115265669  TIP3      20023           0.0000000000
    111583     21383  TIP3      H1             -7.6010351870       -9.0747221756      -21.3060142831  TIP3      20023           0.0000000000
    111584     21383  TIP3      H2             -8.8219033258       -8.8104238523      -22.1014762757  TIP3      20023           0.0000000000
    111585     21384  TIP3      OH2           -13.8717136854       -7.4978452412      -23.6418414939  TIP3      20024           0.0000000000
    111586     21384  TIP3      H1            -13.6218073589       -8.2473536510      -24.2267647501  TIP3      20024           0.0000000000
    111587     21384  TIP3      H2            -14.1189618677       -8.0342481556      -22.8738717501  TIP3      20024           0.0000000000
    111588     21385  TIP3      OH2           -18.4170479431      -10.6901719637      -20.7607489342  TIP3      20025           0.0000000000
    111589     21385  TIP3      H1            -19.0484478797      -10.3919475563      -20.0865235478  TIP3      20025           0.0000000000
    111590     21385  TIP3      H2            -17.8890064460       -9.9066629732      -20.9620880083  TIP3      20025           0.0000000000
    111591     21386  TIP3      OH2           -17.8862663775       -8.1559200076      -21.8356236505  TIP3      20026           0.0000000000
    111592     21386  TIP3      H1            -17.2859248441       -7.4604946418      -21.5438077274  TIP3      20026           0.0000000000
    111593     21386  TIP3      H2            -17.3719953109       -8.6085625181      -22.5263522821  TIP3      20026           0.0000000000
    111594     21387  TIP3      OH2           -19.5760889060      -15.4451342930      -22.7679522879  TIP3      20027           0.0000000000
    111595     21387  TIP3      H1            -19.5250906223      -14.5344730328      -22.4817266129  TIP3      20027           0.0000000000
    111596     21387  TIP3      H2            -20.4717355901      -15.6957982115      -22.9722092137  TIP3      20027           0.0000000000
    111597     21388  TIP3      OH2           -11.7775489977       -5.6697511193      -23.5143157070  TIP3      20028           0.0000000000
    111598     21388  TIP3      H1            -12.4479677502       -6.3533686695      -23.3246169003  TIP3      20028           0.0000000000
    111599     21388  TIP3      H2            -11.0444520140       -6.2420428849      -23.7959945953  TIP3      20028           0.0000000000
    111600     21389  TIP3      OH2            -7.1796279284       -5.9047903204      -23.3070901794  TIP3      20029           0.0000000000
    111601     21389  TIP3      H1             -6.9233595524       -6.7232458953      -22.8584330745  TIP3      20029           0.0000000000
    111602     21389  TIP3      H2             -6.4646114153       -5.7310405026      -23.9317799343  TIP3      20029           0.0000000000
    111603     21390  TIP3      OH2           -16.2976541884       -9.9639300905      -23.4674695397  TIP3      20030           0.0000000000
    111604     21390  TIP3      H1            -16.1634552349      -10.7460694016      -22.9026001535  TIP3      20030           0.0000000000
    111605     21390  TIP3      H2            -15.5730280112      -10.1030465126      -24.1119933649  TIP3      20030           0.0000000000
    111606     21391  TIP3      OH2           -11.4598569359       -8.9049656677      -23.5169222798  TIP3      20031           0.0000000000
    111607     21391  TIP3      H1            -11.1584841125       -8.8810344513      -22.6134540150  TIP3      20031           0.0000000000
    111608     21391  TIP3      H2            -11.0887822567       -9.7638955432      -23.8347290932  TIP3      20031           0.0000000000
    111609     21392  TIP3      OH2           -15.1931558846      -12.0178940677      -21.1805540644  TIP3      20032           0.0000000000
    111610     21392  TIP3      H1            -15.5655203376      -12.4999926485      -20.4289892256  TIP3      20032           0.0000000000
    111611     21392  TIP3      H2            -14.8328146842      -12.6886596673      -21.7680971966  TIP3      20032           0.0000000000
    111612     21393  TIP3      OH2           -14.0024171583      -13.9439203843      -22.8798426594  TIP3      20033           0.0000000000
    111613     21393  TIP3      H1            -14.2278717556      -13.8021245751      -23.8243631254  TIP3      20033           0.0000000000
    111614     21393  TIP3      H2            -13.0682249284      -13.6502873272      -22.8277669020  TIP3      20033           0.0000000000
    111615     21394  TIP3      OH2            -4.6065519965      -11.4476871500      -23.4371364130  TIP3      20034           0.0000000000
    111616     21394  TIP3      H1             -4.9427413898      -11.8149573667      -24.2696257058  TIP3      20034           0.0000000000
    111617     21394  TIP3      H2             -4.6391326557      -10.4837631243      -23.6255065022  TIP3      20034           0.0000000000
    111618     21395  TIP3      OH2           -14.1269327618       -3.1455919533      -21.8885774604  TIP3      20035           0.0000000000
    111619     21395  TIP3      H1            -13.2267102002       -2.8443753881      -21.7595304269  TIP3      20035           0.0000000000
    111620     21395  TIP3      H2            -14.3757935758       -2.4426353913      -22.5117055608  TIP3      20035           0.0000000000
    111621     21396  TIP3      OH2           -20.6256026814       -8.4566932434      -22.4089357674  TIP3      20036           0.0000000000
    111622     21396  TIP3      H1            -19.6792645166       -8.3759088457      -22.1481400329  TIP3      20036           0.0000000000
    111623     21396  TIP3      H2            -20.5848049642       -9.1013201626      -23.1384497175  TIP3      20036           0.0000000000
    111624     21397  TIP3      OH2            -5.0804768045      -15.3458624940      -22.6979562692  TIP3      20037           0.0000000000
    111625     21397  TIP3      H1             -5.0795559985      -14.7017020012      -23.4117264857  TIP3      20037           0.0000000000
    111626     21397  TIP3      H2             -5.3406234141      -16.1607933338      -23.1714673451  TIP3      20037           0.0000000000
    111627     21398  TIP3      OH2            -5.9300991377      -17.9258089954      -23.5733089558  TIP3      20038           0.0000000000
    111628     21398  TIP3      H1             -5.3117593807      -18.3234384932      -22.9333716520  TIP3      20038           0.0000000000
    111629     21398  TIP3      H2             -6.7679434509      -18.3565304528      -23.3805782118  TIP3      20038           0.0000000000
    111630     21399  TIP3      OH2            -3.8453969898      -19.0650866136      -22.0501569044  TIP3      20039           0.0000000000
    111631     21399  TIP3      H1             -3.4124981297      -19.7866567415      -22.5466255032  TIP3      20039           0.0000000000
    111632     21399  TIP3      H2             -3.1682690998      -18.3940635986      -21.9971413411  TIP3      20039           0.0000000000
    111633     21400  TIP3      OH2           -18.3695600868      -19.0401106905      -22.5776866895  TIP3      20040           0.0000000000
    111634     21400  TIP3      H1            -17.9023907790      -19.7560371154      -23.0177578610  TIP3      20040           0.0000000000
    111635     21400  TIP3      H2            -17.8474003334      -18.8077199948      -21.8012975421  TIP3      20040           0.0000000000
    111636     21401  TIP3      OH2             7.6345278601      -13.8669134267      -22.4323093721  TIP3      20041           0.0000000000
    111637     21401  TIP3      H1              8.2295706692      -13.8707351420      -21.6472469063  TIP3      20041           0.0000000000
    111638     21401  TIP3      H2              7.9691398495      -14.6334777839      -22.9025193268  TIP3      20041           0.0000000000
    111639     21402  TIP3      OH2             9.8767930000      -13.0768947595      -20.7184969821  TIP3      20042           0.0000000000
    111640     21402  TIP3      H1             10.4568857141      -12.8938715183      -19.9646188906  TIP3      20042           0.0000000000
    111641     21402  TIP3      H2             10.2907047933      -12.5698869405      -21.4426880595  TIP3      20042           0.0000000000
    111642     21403  TIP3      OH2            14.7025005106       -6.9120920273      -22.5697597664  TIP3      20043           0.0000000000
    111643     21403  TIP3      H1             14.8516364592       -5.9918828493      -22.2700544635  TIP3      20043           0.0000000000
    111644     21403  TIP3      H2             15.6260133198       -7.2224328921      -22.4979607409  TIP3      20043           0.0000000000
    111645     21404  TIP3      OH2            11.2835570524      -11.9695142952      -22.9847831000  TIP3      20044           0.0000000000
    111646     21404  TIP3      H1             11.3595235238      -12.2407478650      -23.9206681376  TIP3      20044           0.0000000000
    111647     21404  TIP3      H2             12.1773524304      -11.5935552447      -22.8648442690  TIP3      20044           0.0000000000
    111648     21405  TIP3      OH2             6.9775631758      -18.1816920337      -22.4477520594  TIP3      20045           0.0000000000
    111649     21405  TIP3      H1              6.6037654843      -18.0708892822      -21.5605830759  TIP3      20045           0.0000000000
    111650     21405  TIP3      H2              6.5309942018      -19.0003368990      -22.7356750045  TIP3      20045           0.0000000000
    111651     21406  TIP3      OH2             3.7474128075      -17.7543151722      -23.3248975373  TIP3      20046           0.0000000000
    111652     21406  TIP3      H1              3.3221886881      -18.0936862581      -22.5105386736  TIP3      20046           0.0000000000
    111653     21406  TIP3      H2              3.0418824563      -17.2721099127      -23.7729696759  TIP3      20046           0.0000000000
    111654     21407  TIP3      OH2             7.8754415613       -8.9248863280      -20.9322571138  TIP3      20047           0.0000000000
    111655     21407  TIP3      H1              7.6015548594       -8.0358116891      -20.6358043336  TIP3      20047           0.0000000000
    111656     21407  TIP3      H2              7.1237924996       -9.4853590997      -20.7185908267  TIP3      20047           0.0000000000
    111657     21408  TIP3      OH2            -1.0462217790      -12.7042717571      -22.0668915294  TIP3      20048           0.0000000000
    111658     21408  TIP3      H1             -0.4390211465      -11.9896743387      -21.8194467680  TIP3      20048           0.0000000000
    111659     21408  TIP3      H2             -1.9130925641      -12.2771552741      -21.9950370929  TIP3      20048           0.0000000000
    111660     21409  TIP3      OH2            10.9312817952       -8.6678258323      -22.1609770887  TIP3      20049           0.0000000000
    111661     21409  TIP3      H1             11.2805345254       -9.0369529621      -21.3462874844  TIP3      20049           0.0000000000
    111662     21409  TIP3      H2              9.9709681202       -8.7457588605      -22.0305360313  TIP3      20049           0.0000000000
    111663     21410  TIP3      OH2            15.2160296822       -4.3122947129      -21.4981135808  TIP3      20050           0.0000000000
    111664     21410  TIP3      H1             15.9631600067       -3.8922566321      -21.9800512855  TIP3      20050           0.0000000000
    111665     21410  TIP3      H2             14.5779180248       -3.5907459999      -21.4989114148  TIP3      20050           0.0000000000
    111666     21411  TIP3      OH2             5.0778623170       -7.5737922580      -23.6729760400  TIP3      20051           0.0000000000
    111667     21411  TIP3      H1              5.1761852355       -8.3396589302      -24.2394728516  TIP3      20051           0.0000000000
    111668     21411  TIP3      H2              4.6748480003       -7.9579129085      -22.8610111484  TIP3      20051           0.0000000000
    111669     21412  TIP3      OH2             3.9948009510       -8.0229322023      -21.2152213923  TIP3      20052           0.0000000000
    111670     21412  TIP3      H1              4.0736113520       -8.4791031262      -20.3774854563  TIP3      20052           0.0000000000
    111671     21412  TIP3      H2              3.9646240992       -7.1068900846      -20.8923681652  TIP3      20052           0.0000000000
    111672     21413  TIP3      OH2             0.9297173901       -8.0900419702      -21.9329283227  TIP3      20053           0.0000000000
    111673     21413  TIP3      H1              1.5913648029       -7.5352183856      -21.4838803344  TIP3      20053           0.0000000000
    111674     21413  TIP3      H2              1.4951051985       -8.6001955096      -22.5253066064  TIP3      20053           0.0000000000
    111675     21414  TIP3      OH2            -0.6999490689      -15.4651703051      -22.6485511466  TIP3      20054           0.0000000000
    111676     21414  TIP3      H1             -0.7049094864      -14.5047680077      -22.5171711045  TIP3      20054           0.0000000000
    111677     21414  TIP3      H2             -1.5703202799      -15.6814580671      -22.9890175705  TIP3      20054           0.0000000000
    111678     21415  TIP3      OH2             7.0390885803       -5.6730840007      -23.6638582941  TIP3      20055           0.0000000000
    111679     21415  TIP3      H1              6.4262625863       -6.3058669447      -23.2426657358  TIP3      20055           0.0000000000
    111680     21415  TIP3      H2              7.8306181269       -6.2231874709      -23.6849781121  TIP3      20055           0.0000000000
    111681     21416  TIP3      OH2            11.6130977054       -5.9559602132      -23.4202497416  TIP3      20056           0.0000000000
    111682     21416  TIP3      H1             11.9452531715       -6.6479672266      -22.8274229253  TIP3      20056           0.0000000000
    111683     21416  TIP3      H2             12.4264510383       -5.6970755077      -23.8757883903  TIP3      20056           0.0000000000
    111684     21417  TIP3      OH2             2.5473774937       -9.9620034785      -23.4887801700  TIP3      20057           0.0000000000
    111685     21417  TIP3      H1              2.6730912869      -10.7608769471      -22.9752622181  TIP3      20057           0.0000000000
    111686     21417  TIP3      H2              3.2589409480      -10.0705457984      -24.1366256317  TIP3      20057           0.0000000000
    111687     21418  TIP3      OH2             7.9505844246       -8.9096252343      -23.7860154770  TIP3      20058           0.0000000000
    111688     21418  TIP3      H1              7.7399916620       -8.7407497170      -22.8485161617  TIP3      20058           0.0000000000
    111689     21418  TIP3      H2              7.7756278860       -9.8667755540      -23.8350950867  TIP3      20058           0.0000000000
    111690     21419  TIP3      OH2             4.7775026338      -13.6774401175      -22.9048479581  TIP3      20059           0.0000000000
    111691     21419  TIP3      H1              4.6501727951      -13.9119510220      -23.8350915760  TIP3      20059           0.0000000000
    111692     21419  TIP3      H2              5.7517694058      -13.7246527385      -22.7745016581  TIP3      20059           0.0000000000
    111693     21420  TIP3      OH2            14.1427516501      -11.4108553345      -23.4636689341  TIP3      20060           0.0000000000
    111694     21420  TIP3      H1             13.9603597454      -11.8148026955      -24.3202523216  TIP3      20060           0.0000000000
    111695     21420  TIP3      H2             14.2664935323      -10.4614400587      -23.6491860856  TIP3      20060           0.0000000000
    111696     21421  TIP3      OH2             4.6499744872       -3.0502039224      -21.8621520359  TIP3      20061           0.0000000000
    111697     21421  TIP3      H1              5.6034765145       -3.0012452653      -21.7376761974  TIP3      20061           0.0000000000
    111698     21421  TIP3      H2              4.5121552697       -2.4209918078      -22.5625124680  TIP3      20061           0.0000000000
    111699     21422  TIP3      OH2            -1.7786763732       -8.4106818311      -22.4202552280  TIP3      20062           0.0000000000
    111700     21422  TIP3      H1             -0.8329199860       -8.3724338189      -22.1298548847  TIP3      20062           0.0000000000
    111701     21422  TIP3      H2             -1.7274162374       -9.1360264854      -23.0812140568  TIP3      20062           0.0000000000
    111702     21423  TIP3      OH2            12.9451876613      -17.9159893512      -23.5491870658  TIP3      20063           0.0000000000
    111703     21423  TIP3      H1             13.5773626266      -18.3453606463      -22.9352204090  TIP3      20063           0.0000000000
    111704     21423  TIP3      H2             12.1151057797      -18.3785460594      -23.4285593775  TIP3      20063           0.0000000000
    111705     21424  TIP3      OH2            15.0028683420      -19.0324636316      -22.0890117451  TIP3      20064           0.0000000000
    111706     21424  TIP3      H1             15.4300458148      -19.7866092666      -22.5278439490  TIP3      20064           0.0000000000
    111707     21424  TIP3      H2             15.7135046430      -18.4005309774      -21.9349671639  TIP3      20064           0.0000000000
    111708     21425  TIP3      OH2             0.2796198217       -4.1335382970      -23.0132968810  TIP3      20065           0.0000000000
    111709     21425  TIP3      H1              0.0643620589       -3.8680193526      -22.1087445768  TIP3      20065           0.0000000000
    111710     21425  TIP3      H2              1.0757110974       -4.6884975943      -22.8499737531  TIP3      20065           0.0000000000
    111711     21426  TIP3      OH2            26.4744359058      -13.9070984914      -22.3189301429  TIP3      20066           0.0000000000
    111712     21426  TIP3      H1             27.1700250839      -13.8800808621      -21.6503807117  TIP3      20066           0.0000000000
    111713     21426  TIP3      H2             26.7978750631      -14.5775032068      -22.9322687802  TIP3      20066           0.0000000000
    111714     21427  TIP3      OH2            33.5560495133       -6.8920438138      -22.6073806403  TIP3      20067           0.0000000000
    111715     21427  TIP3      H1             33.7046097074       -5.9905646280      -22.2763992016  TIP3      20067           0.0000000000
    111716     21427  TIP3      H2             34.4619967498       -7.2269765036      -22.4860645575  TIP3      20067           0.0000000000
    111717     21428  TIP3      OH2            30.1513903458      -12.0324449537      -23.0237900268  TIP3      20068           0.0000000000
    111718     21428  TIP3      H1             30.2141997645      -12.1691832390      -23.9847402581  TIP3      20068           0.0000000000
    111719     21428  TIP3      H2             30.9995973809      -11.5890735492      -22.8371882493  TIP3      20068           0.0000000000
    111720     21429  TIP3      OH2            25.8046956729      -18.1264437638      -22.3719324817  TIP3      20069           0.0000000000
    111721     21429  TIP3      H1             25.4614087301      -18.1663082322      -21.4815376114  TIP3      20069           0.0000000000
    111722     21429  TIP3      H2             25.4528931027      -18.9669999536      -22.7344941751  TIP3      20069           0.0000000000
    111723     21430  TIP3      OH2            22.5822160662      -17.7341366986      -23.3030033013  TIP3      20070           0.0000000000
    111724     21430  TIP3      H1             22.1284555141      -18.1360712291      -22.5544178534  TIP3      20070           0.0000000000
    111725     21430  TIP3      H2             21.8979756718      -17.2645007824      -23.8154741510  TIP3      20070           0.0000000000
    111726     21431  TIP3      OH2            17.1449802446      -17.1997656269      -20.8246992187  TIP3      20071           0.0000000000
    111727     21431  TIP3      H1             17.5840615311      -16.5867594080      -21.4103136798  TIP3      20071           0.0000000000
    111728     21431  TIP3      H2             16.3982243440      -16.6638691165      -20.5101473175  TIP3      20071           0.0000000000
    111729     21432  TIP3      OH2            34.1477741776      -15.5022364702      -20.4821014186  TIP3      20072           0.0000000000
    111730     21432  TIP3      H1             33.5118332377      -15.7671977978      -21.1464904404  TIP3      20072           0.0000000000
    111731     21432  TIP3      H2             34.1433323741      -14.5322251413      -20.6148933839  TIP3      20072           0.0000000000
    111732     21433  TIP3      OH2            29.7880852310       -8.5906434662      -22.1177139883  TIP3      20073           0.0000000000
    111733     21433  TIP3      H1             30.1830857407       -9.0793139858      -21.3802734723  TIP3      20073           0.0000000000
    111734     21433  TIP3      H2             28.8676484092       -8.8578077493      -22.0722710289  TIP3      20073           0.0000000000
    111735     21434  TIP3      OH2            34.2235688893       -4.2443542730      -21.9908202597  TIP3      20074           0.0000000000
    111736     21434  TIP3      H1             34.9812339262       -3.6609399487      -22.0475085698  TIP3      20074           0.0000000000
    111737     21434  TIP3      H2             33.5752449845       -3.6670365310      -21.5493427636  TIP3      20074           0.0000000000
    111738     21435  TIP3      OH2            24.0235870325       -7.5958222197      -23.5888105798  TIP3      20075           0.0000000000
    111739     21435  TIP3      H1             24.0159464580       -8.2928199691      -24.2743061222  TIP3      20075           0.0000000000
    111740     21435  TIP3      H2             23.4774070207       -7.9842708325      -22.8929728761  TIP3      20075           0.0000000000
    111741     21436  TIP3      OH2            19.8507513847       -8.1063496253      -21.8691076719  TIP3      20076           0.0000000000
    111742     21436  TIP3      H1             20.5016468679       -7.4831766353      -21.5324531450  TIP3      20076           0.0000000000
    111743     21436  TIP3      H2             20.3316609829       -8.6312257433      -22.5242316183  TIP3      20076           0.0000000000
    111744     21437  TIP3      OH2            25.9763482202       -5.6844072796      -23.5279866155  TIP3      20077           0.0000000000
    111745     21437  TIP3      H1             25.2420985519       -6.3026785233      -23.3066157343  TIP3      20077           0.0000000000
    111746     21437  TIP3      H2             26.6613257509       -6.2794981832      -23.8504661415  TIP3      20077           0.0000000000
    111747     21438  TIP3      OH2            21.4948882148       -9.9111070876      -23.4297347784  TIP3      20078           0.0000000000
    111748     21438  TIP3      H1             21.4549610826      -10.7565822128      -22.9479670296  TIP3      20078           0.0000000000
    111749     21438  TIP3      H2             22.1330400366      -10.1294024300      -24.1304640122  TIP3      20078           0.0000000000
    111750     21439  TIP3      OH2            26.9010071055       -8.9378211576      -23.7056987142  TIP3      20079           0.0000000000
    111751     21439  TIP3      H1             26.5149694808       -8.7864455998      -22.8656181529  TIP3      20079           0.0000000000
    111752     21439  TIP3      H2             26.6231525569       -9.8639913350      -23.9035152130  TIP3      20079           0.0000000000
    111753     21440  TIP3      OH2            23.6926903692      -13.8567821277      -22.8697994289  TIP3      20080           0.0000000000
    111754     21440  TIP3      H1             23.4738222832      -13.8540153734      -23.8223382499  TIP3      20080           0.0000000000
    111755     21440  TIP3      H2             24.6403249527      -13.6679607337      -22.8448956585  TIP3      20080           0.0000000000
    111756     21441  TIP3      OH2            33.0648109773      -11.4309280724      -23.4583534811  TIP3      20081           0.0000000000
    111757     21441  TIP3      H1             32.8084237913      -11.7936020798      -24.3177702731  TIP3      20081           0.0000000000
    111758     21441  TIP3      H2             33.0805222599      -10.4609600647      -23.6512996820  TIP3      20081           0.0000000000
    111759     21442  TIP3      OH2            23.5110292197       -3.0794654793      -21.8863835886  TIP3      20082           0.0000000000
    111760     21442  TIP3      H1             24.4537705514       -2.9668545356      -21.6728005062  TIP3      20082           0.0000000000
    111761     21442  TIP3      H2             23.3732314566       -2.4054110515      -22.5464372834  TIP3      20082           0.0000000000
    111762     21443  TIP3      OH2            17.0886746854       -8.4215206446      -22.4606992531  TIP3      20083           0.0000000000
    111763     21443  TIP3      H1             18.0105547491       -8.3909157514      -22.1146082691  TIP3      20083           0.0000000000
    111764     21443  TIP3      H2             17.1360768563       -9.1861646634      -23.0603398640  TIP3      20083           0.0000000000
    111765     21444  TIP3      OH2            34.1850065971      -12.6175389671      -21.2851295498  TIP3      20084           0.0000000000
    111766     21444  TIP3      H1             33.6242258842      -12.2286501861      -21.9893738015  TIP3      20084           0.0000000000
    111767     21444  TIP3      H2             34.0574491881      -11.9582918767      -20.5842387528  TIP3      20084           0.0000000000
    111768     21445  TIP3      OH2            32.5104636190      -15.3960625045      -22.7048753865  TIP3      20085           0.0000000000
    111769     21445  TIP3      H1             32.6617401500      -14.6972305033      -23.3636006687  TIP3      20085           0.0000000000
    111770     21445  TIP3      H2             32.4188709511      -16.1888414193      -23.2584639172  TIP3      20085           0.0000000000
    111771     21446  TIP3      OH2            31.7440176618      -17.8533956096      -23.4912572190  TIP3      20086           0.0000000000
    111772     21446  TIP3      H1             32.3977316029      -18.3493485966      -23.0146470312  TIP3      20086           0.0000000000
    111773     21446  TIP3      H2             30.9559238585      -18.4228057220      -23.5131152792  TIP3      20086           0.0000000000
    111774     21447  TIP3      OH2            17.4699941586      -20.9605911634      -21.0516078867  TIP3      20087           0.0000000000
    111775     21447  TIP3      H1             17.9174220327      -20.2613315791      -21.5428276058  TIP3      20087           0.0000000000
    111776     21447  TIP3      H2             16.8369125048      -20.4424173460      -20.5146934093  TIP3      20087           0.0000000000
    111777     21448  TIP3      OH2            19.3399200240      -19.0628377806      -22.5230193043  TIP3      20088           0.0000000000
    111778     21448  TIP3      H1             19.8031540263      -19.7527695857      -23.0245857373  TIP3      20088           0.0000000000
    111779     21448  TIP3      H2             19.9277809778      -18.8518894607      -21.7979726665  TIP3      20088           0.0000000000
    111780     21449  TIP3      OH2            26.2745292567       -3.8243200926      -21.6273439586  TIP3      20089           0.0000000000
    111781     21449  TIP3      H1             27.0883792780       -3.4574359754      -21.9122681656  TIP3      20089           0.0000000000
    111782     21449  TIP3      H2             25.9578043920       -4.3313921421      -22.4076171029  TIP3      20089           0.0000000000
    111783     21450  TIP3      OH2            19.5558404407       -3.9694632792      -22.8797843645  TIP3      20090           0.0000000000
    111784     21450  TIP3      H1             18.8810699644       -4.0035529001      -22.1770205219  TIP3      20090           0.0000000000
    111785     21450  TIP3      H2             20.0202004120       -4.8135899826      -22.8011763682  TIP3      20090           0.0000000000
    111786     21451  TIP3      OH2            40.0269518433      -14.8637791385      -21.9406645527  TIP3      20091           0.0000000000
    111787     21451  TIP3      H1             39.5706629728      -15.3072176328      -22.6669840980  TIP3      20091           0.0000000000
    111788     21451  TIP3      H2             40.8973287041      -14.6830778451      -22.3074075047  TIP3      20091           0.0000000000
    111789     21452  TIP3      OH2           -41.2934275314      -18.5526472556      -20.9228955215  TIP3      20092           0.0000000000
    111790     21452  TIP3      H1            -41.2694794561      -17.6437884671      -20.5832079226  TIP3      20092           0.0000000000
    111791     21452  TIP3      H2            -40.4950327663      -18.8746578546      -20.5197302706  TIP3      20092           0.0000000000
    111792     21453  TIP3      OH2            38.6752836921       -8.0492398577      -21.9085630043  TIP3      20093           0.0000000000
    111793     21453  TIP3      H1             39.3664321852       -7.5187131831      -21.5029848725  TIP3      20093           0.0000000000
    111794     21453  TIP3      H2             39.1838101275       -8.6369865088      -22.4963863820  TIP3      20093           0.0000000000
    111795     21454  TIP3      OH2            39.9467399050      -10.0492802945      -23.3470725970  TIP3      20094           0.0000000000
    111796     21454  TIP3      H1             40.2964775212      -10.7459970886      -22.7948812827  TIP3      20094           0.0000000000
    111797     21454  TIP3      H2             40.7255785317      -10.0005022376      -23.9259545497  TIP3      20094           0.0000000000
    111798     21455  TIP3      OH2            35.9493804923       -8.4359743175      -22.3942756559  TIP3      20095           0.0000000000
    111799     21455  TIP3      H1             36.8903034032       -8.3463654149      -22.1348433266  TIP3      20095           0.0000000000
    111800     21455  TIP3      H2             35.9720936813       -9.1261882727      -23.0813727934  TIP3      20095           0.0000000000
    111801     21456  TIP3      OH2            38.1566440250      -19.0433857049      -22.5427654250  TIP3      20096           0.0000000000
    111802     21456  TIP3      H1             38.6492985983      -19.7182652343      -23.0298620532  TIP3      20096           0.0000000000
    111803     21456  TIP3      H2             38.7766524947      -18.8093180269      -21.8140848297  TIP3      20096           0.0000000000
    111804     21457  TIP3      OH2            38.2462976260       -3.9538049581      -23.0552659916  TIP3      20097           0.0000000000
    111805     21457  TIP3      H1             37.7079053272       -3.8805845761      -22.2377769769  TIP3      20097           0.0000000000
    111806     21457  TIP3      H2             38.7244994720       -4.7828289372      -22.8966263467  TIP3      20097           0.0000000000
    111807     21458  TIP3      OH2           -30.1257717973        4.8543283145      -22.3178430963  TIP3      20098           0.0000000000
    111808     21458  TIP3      H1            -29.4946776146        4.7662260029      -21.5730885625  TIP3      20098           0.0000000000
    111809     21458  TIP3      H2            -29.8223926316        4.1430876242      -22.9054842084  TIP3      20098           0.0000000000
    111810     21459  TIP3      OH2           -27.9290618217        5.9143459274      -20.7635497347  TIP3      20099           0.0000000000
    111811     21459  TIP3      H1            -27.3645527354        5.9459761001      -19.9467435100  TIP3      20099           0.0000000000
    111812     21459  TIP3      H2            -27.2982167129        6.3158790529      -21.3605201618  TIP3      20099           0.0000000000
    111813     21460  TIP3      OH2           -24.1557148737       -2.4294945970      -20.8637350820  TIP3      20100           0.0000000000
    111814     21460  TIP3      H1            -25.0621233527       -2.2903269024      -20.5949177133  TIP3      20100           0.0000000000
    111815     21460  TIP3      H2            -23.8886854706       -1.6091219854      -21.3085979622  TIP3      20100           0.0000000000
    111816     21461  TIP3      OH2           -23.0122954239       11.9434517054      -22.5924406583  TIP3      20101           0.0000000000
    111817     21461  TIP3      H1            -22.8703305579       12.8601445625      -22.3153941088  TIP3      20101           0.0000000000
    111818     21461  TIP3      H2            -22.1093813909       11.6004993911      -22.4805162883  TIP3      20101           0.0000000000
    111819     21462  TIP3      OH2           -27.5417282343       14.7376206178      -21.7976857864  TIP3      20102           0.0000000000
    111820     21462  TIP3      H1            -27.1967916515       13.9752452854      -22.3177150514  TIP3      20102           0.0000000000
    111821     21462  TIP3      H2            -27.5667511806       14.3630953475      -20.9191169986  TIP3      20102           0.0000000000
    111822     21463  TIP3      OH2           -30.7779728944        0.7126455129      -22.4383751281  TIP3      20103           0.0000000000
    111823     21463  TIP3      H1            -31.0725558890        0.7819348867      -21.5164042305  TIP3      20103           0.0000000000
    111824     21463  TIP3      H2            -31.1211162175       -0.1432657335      -22.7266560871  TIP3      20103           0.0000000000
    111825     21464  TIP3      OH2           -33.9906492142        1.0667981655      -23.3323459009  TIP3      20104           0.0000000000
    111826     21464  TIP3      H1            -34.3926196481        0.8348180191      -22.4930738081  TIP3      20104           0.0000000000
    111827     21464  TIP3      H2            -34.6561836226        1.6024571459      -23.7870895729  TIP3      20104           0.0000000000
    111828     21465  TIP3      OH2           -35.3269008259        4.0185999562      -21.9157784299  TIP3      20105           0.0000000000
    111829     21465  TIP3      H1            -35.8677066271        3.5476100711      -22.5628000959  TIP3      20105           0.0000000000
    111830     21465  TIP3      H2            -34.5052711491        4.0903346766      -22.3723011661  TIP3      20105           0.0000000000
    111831     21466  TIP3      OH2           -22.2976332463       14.6051089785      -21.9660610511  TIP3      20106           0.0000000000
    111832     21466  TIP3      H1            -21.5500966755       15.2260857305      -22.0238255751  TIP3      20106           0.0000000000
    111833     21466  TIP3      H2            -22.9665510020       15.1773531306      -21.5959047491  TIP3      20106           0.0000000000
    111834     21467  TIP3      OH2           -32.6563624640       11.2918365027      -23.6541407185  TIP3      20107           0.0000000000
    111835     21467  TIP3      H1            -32.5060490305       10.5531748086      -24.2507848737  TIP3      20107           0.0000000000
    111836     21467  TIP3      H2            -33.0547978892       10.9159022467      -22.8666616025  TIP3      20107           0.0000000000
    111837     21468  TIP3      OH2           -37.3018232689        8.1118000879      -20.7371821069  TIP3      20108           0.0000000000
    111838     21468  TIP3      H1            -37.9848867184        8.4258073046      -20.1481144041  TIP3      20108           0.0000000000
    111839     21468  TIP3      H2            -36.8259769809        8.9100428598      -20.9670985763  TIP3      20108           0.0000000000
    111840     21469  TIP3      OH2           -33.5864049089       13.5632909334      -20.4814614861  TIP3      20109           0.0000000000
    111841     21469  TIP3      H1            -33.5764449789       14.3813520729      -21.0370716125  TIP3      20109           0.0000000000
    111842     21469  TIP3      H2            -33.9069889055       13.9219605356      -19.6491115734  TIP3      20109           0.0000000000
    111843     21470  TIP3      OH2           -38.3813330066        3.4738581609      -22.8791834426  TIP3      20110           0.0000000000
    111844     21470  TIP3      H1            -38.4296274135        4.3027934118      -22.3786067125  TIP3      20110           0.0000000000
    111845     21470  TIP3      H2            -39.2781977102        3.1394701648      -22.8978422434  TIP3      20110           0.0000000000
    111846     21471  TIP3      OH2           -30.6272737471       13.1683474566      -23.5365737571  TIP3      20111           0.0000000000
    111847     21471  TIP3      H1            -31.3164927649       12.5328584083      -23.2606981795  TIP3      20111           0.0000000000
    111848     21471  TIP3      H2            -29.8965428741       12.5955200393      -23.7913223772  TIP3      20111           0.0000000000
    111849     21472  TIP3      OH2           -26.0856173547       12.9190675240      -23.3437429390  TIP3      20112           0.0000000000
    111850     21472  TIP3      H1            -25.6999670469       12.1582725666      -22.8784871683  TIP3      20112           0.0000000000
    111851     21472  TIP3      H2            -25.3168898736       13.1602863891      -23.8855125925  TIP3      20112           0.0000000000
    111852     21473  TIP3      OH2           -35.2554212043        8.7902385605      -23.6581182670  TIP3      20113           0.0000000000
    111853     21473  TIP3      H1            -35.1663818362        8.1114783927      -22.9793829540  TIP3      20113           0.0000000000
    111854     21473  TIP3      H2            -34.4039450323        8.7467888436      -24.1241170928  TIP3      20113           0.0000000000
    111855     21474  TIP3      OH2           -29.6778144518        9.9385450294      -23.6808585280  TIP3      20114           0.0000000000
    111856     21474  TIP3      H1            -30.0689947945       10.1295080476      -22.8320207727  TIP3      20114           0.0000000000
    111857     21474  TIP3      H2            -29.9733810218        9.0364861653      -23.9180652374  TIP3      20114           0.0000000000
    111858     21475  TIP3      OH2           -23.6019486270        7.4610631885      -23.4547686126  TIP3      20115           0.0000000000
    111859     21475  TIP3      H1            -23.7460137361        7.0478184809      -24.3216384411  TIP3      20115           0.0000000000
    111860     21475  TIP3      H2            -23.4436575176        8.3900601449      -23.6435654270  TIP3      20115           0.0000000000
    111861     21476  TIP3      OH2           -33.0228600891       15.7561087036      -21.8835121720  TIP3      20116           0.0000000000
    111862     21476  TIP3      H1            -32.0944763760       15.9665971701      -21.7236768303  TIP3      20116           0.0000000000
    111863     21476  TIP3      H2            -33.2163231503       16.4381833223      -22.5314768420  TIP3      20116           0.0000000000
    111864     21477  TIP3      OH2           -22.5175535212        6.1822689407      -21.2325245051  TIP3      20117           0.0000000000
    111865     21477  TIP3      H1            -22.9143792855        6.6494336910      -21.9781428607  TIP3      20117           0.0000000000
    111866     21477  TIP3      H2            -22.3569442322        6.8981687382      -20.5973314606  TIP3      20117           0.0000000000
    111867     21478  TIP3      OH2           -22.7249266101       -0.2267490677      -22.0389471805  TIP3      20118           0.0000000000
    111868     21478  TIP3      H1            -22.2623504187       -0.9433303789      -22.5250801829  TIP3      20118           0.0000000000
    111869     21478  TIP3      H2            -22.0279231116        0.4382190189      -21.9628829303  TIP3      20118           0.0000000000
    111870     21479  TIP3      OH2           -38.8825974082       -2.0721150117      -20.8478536090  TIP3      20119           0.0000000000
    111871     21479  TIP3      H1            -38.6065748378       -1.4259477485      -21.5205371314  TIP3      20119           0.0000000000
    111872     21479  TIP3      H2            -39.6252094603       -1.6006484248      -20.4053156096  TIP3      20119           0.0000000000
    111873     21480  TIP3      OH2           -37.2803228873       -0.3096162972      -22.4365251318  TIP3      20120           0.0000000000
    111874     21480  TIP3      H1            -36.7658965239       -0.8441744577      -23.0676287645  TIP3      20120           0.0000000000
    111875     21480  TIP3      H2            -36.6456892204        0.1240309972      -21.8423991646  TIP3      20120           0.0000000000
    111876     21481  TIP3      OH2           -11.2874322763        4.9223984543      -22.3278796450  TIP3      20121           0.0000000000
    111877     21481  TIP3      H1            -10.5773561037        5.0293424642      -21.6617070550  TIP3      20121           0.0000000000
    111878     21481  TIP3      H2            -10.8808568888        4.2920112099      -22.9259735608  TIP3      20121           0.0000000000
    111879     21482  TIP3      OH2            -9.0214458933        5.7865532932      -20.7248008097  TIP3      20122           0.0000000000
    111880     21482  TIP3      H1             -8.4072780569        5.9585328909      -19.9882830120  TIP3      20122           0.0000000000
    111881     21482  TIP3      H2             -8.5695961460        6.2740658611      -21.4390704164  TIP3      20122           0.0000000000
    111882     21483  TIP3      OH2            -8.7669117665       14.6581583846      -21.8510139833  TIP3      20123           0.0000000000
    111883     21483  TIP3      H1             -8.2901720956       13.9433713483      -22.3161180347  TIP3      20123           0.0000000000
    111884     21483  TIP3      H2             -8.6688718012       14.3836534216      -20.9335971433  TIP3      20123           0.0000000000
    111885     21484  TIP3      OH2            -7.5304872017        6.8815697488      -23.0174737129  TIP3      20124           0.0000000000
    111886     21484  TIP3      H1             -7.5187212903        6.6437110082      -23.9715812681  TIP3      20124           0.0000000000
    111887     21484  TIP3      H2             -6.6492201402        7.2537106511      -22.8751070010  TIP3      20124           0.0000000000
    111888     21485  TIP3      OH2           -15.1074314014        1.1337752257      -23.3478163780  TIP3      20125           0.0000000000
    111889     21485  TIP3      H1            -15.4915667675        0.8108791921      -22.5101364522  TIP3      20125           0.0000000000
    111890     21485  TIP3      H2            -15.8494532365        1.5822855846      -23.7697973272  TIP3      20125           0.0000000000
    111891     21486  TIP3      OH2           -16.4180822948        3.8759422975      -21.8910595965  TIP3      20126           0.0000000000
    111892     21486  TIP3      H1            -16.9735379939        3.5653214497      -22.6063565455  TIP3      20126           0.0000000000
    111893     21486  TIP3      H2            -15.6243461096        4.1914345648      -22.3432868739  TIP3      20126           0.0000000000
    111894     21487  TIP3      OH2            -9.2537055131        1.3125099206      -21.7005235488  TIP3      20127           0.0000000000
    111895     21487  TIP3      H1            -10.1910803461        1.4537896821      -21.8880665764  TIP3      20127           0.0000000000
    111896     21487  TIP3      H2             -8.9042217038        2.1927824040      -21.5003435809  TIP3      20127           0.0000000000
    111897     21488  TIP3      OH2            -7.8666671949       10.2729066823      -22.1343560131  TIP3      20128           0.0000000000
    111898     21488  TIP3      H1             -7.5892386243        9.7692903596      -21.3513052989  TIP3      20128           0.0000000000
    111899     21488  TIP3      H2             -8.8061729846       10.0132475441      -22.0695381929  TIP3      20128           0.0000000000
    111900     21489  TIP3      OH2           -13.7543781100       11.3114586040      -23.6404282350  TIP3      20129           0.0000000000
    111901     21489  TIP3      H1            -13.6820235515       10.5508032152      -24.2422778504  TIP3      20129           0.0000000000
    111902     21489  TIP3      H2            -14.1795261094       10.8750252063      -22.8801777332  TIP3      20129           0.0000000000
    111903     21490  TIP3      OH2           -14.9404332581       10.8581469328      -21.2147582745  TIP3      20130           0.0000000000
    111904     21490  TIP3      H1            -14.7900495387       10.3114220633      -20.4300811279  TIP3      20130           0.0000000000
    111905     21490  TIP3      H2            -14.8310460797       11.7355420624      -20.8462717876  TIP3      20130           0.0000000000
    111906     21491  TIP3      OH2           -11.7856725321       13.1901972314      -23.5467920321  TIP3      20131           0.0000000000
    111907     21491  TIP3      H1            -12.4571140424       12.5216620262      -23.2867056763  TIP3      20131           0.0000000000
    111908     21491  TIP3      H2            -11.0392921414       12.6218537588      -23.7806792975  TIP3      20131           0.0000000000
    111909     21492  TIP3      OH2            -7.2115696097       12.9317819252      -23.3279455463  TIP3      20132           0.0000000000
    111910     21492  TIP3      H1             -6.9219383262       12.1462093336      -22.8524281905  TIP3      20132           0.0000000000
    111911     21492  TIP3      H2             -6.4639998913       13.1754173380      -23.9062401323  TIP3      20132           0.0000000000
    111912     21493  TIP3      OH2           -16.2594531764        8.9094689144      -23.4906924732  TIP3      20133           0.0000000000
    111913     21493  TIP3      H1            -16.1839254980        8.1161198545      -22.9325745591  TIP3      20133           0.0000000000
    111914     21493  TIP3      H2            -15.5503618933        8.7469124599      -24.1358332253  TIP3      20133           0.0000000000
    111915     21494  TIP3      OH2           -14.0667844199        5.0700607460      -22.9157433560  TIP3      20134           0.0000000000
    111916     21494  TIP3      H1            -14.2005614639        5.0191057020      -23.8735521821  TIP3      20134           0.0000000000
    111917     21494  TIP3      H2            -13.0986678866        5.1696872537      -22.8090331470  TIP3      20134           0.0000000000
    111918     21495  TIP3      OH2            -4.6692228803        7.4218567933      -23.4376632178  TIP3      20135           0.0000000000
    111919     21495  TIP3      H1             -4.8989755991        7.0226225358      -24.2915691127  TIP3      20135           0.0000000000
    111920     21495  TIP3      H2             -4.6090409493        8.3693187328      -23.6493837935  TIP3      20135           0.0000000000
    111921     21496  TIP3      OH2           -14.2173230775       15.7814947273      -21.8741637858  TIP3      20136           0.0000000000
    111922     21496  TIP3      H1            -13.2574579882       15.8632574675      -21.7296878067  TIP3      20136           0.0000000000
    111923     21496  TIP3      H2            -14.3352399798       16.4335589949      -22.5703005492  TIP3      20136           0.0000000000
    111924     21497  TIP3      OH2           -20.5659411334       10.5117033992      -22.4771447129  TIP3      20137           0.0000000000
    111925     21497  TIP3      H1            -19.6836809217       10.4032506081      -22.1096345821  TIP3      20137           0.0000000000
    111926     21497  TIP3      H2            -20.6090457398        9.7097780059      -23.0521990897  TIP3      20137           0.0000000000
    111927     21498  TIP3      OH2            -5.0977052906        3.4830655851      -22.7325944477  TIP3      20138           0.0000000000
    111928     21498  TIP3      H1             -5.0887760712        4.1615860810      -23.4050051492  TIP3      20138           0.0000000000
    111929     21498  TIP3      H2             -5.3209639736        2.6615799807      -23.2008775514  TIP3      20138           0.0000000000
    111930     21499  TIP3      OH2            -5.9054152955        0.9131679593      -23.5930384419  TIP3      20139           0.0000000000
    111931     21499  TIP3      H1             -5.3131221139        0.5228612107      -22.9252516265  TIP3      20139           0.0000000000
    111932     21499  TIP3      H2             -6.7577048229        0.5057542476      -23.3935067381  TIP3      20139           0.0000000000
    111933     21500  TIP3      OH2            -3.8420106494       -0.1977937808      -21.9991952267  TIP3      20140           0.0000000000
    111934     21500  TIP3      H1             -3.4566813096       -0.9142130472      -22.5406804333  TIP3      20140           0.0000000000
    111935     21500  TIP3      H2             -3.1554310238        0.4764604337      -21.9510503505  TIP3      20140           0.0000000000
    111936     21501  TIP3      OH2           -18.3673639482       -0.1463608134      -22.5723322156  TIP3      20141           0.0000000000
    111937     21501  TIP3      H1            -17.9172098704       -0.8994674319      -22.9731904591  TIP3      20141           0.0000000000
    111938     21501  TIP3      H2            -17.8149762643        0.0101077700      -21.7943602791  TIP3      20141           0.0000000000
    111939     21502  TIP3      OH2           -11.5573235299       15.0530627390      -21.6540150582  TIP3      20142           0.0000000000
    111940     21502  TIP3      H1            -10.6342891223       15.2716133765      -21.8631140792  TIP3      20142           0.0000000000
    111941     21502  TIP3      H2            -11.7514530987       14.4895767187      -22.4305086191  TIP3      20142           0.0000000000
    111942     21503  TIP3      OH2             7.6206533789        4.9704752420      -22.4025064070  TIP3      20143           0.0000000000
    111943     21503  TIP3      H1              8.2334689810        4.9272566862      -21.6431079542  TIP3      20143           0.0000000000
    111944     21503  TIP3      H2              7.9689516718        4.2326039331      -22.9115916075  TIP3      20143           0.0000000000
    111945     21504  TIP3      OH2            13.5515650238       -2.3644620727      -20.8550858290  TIP3      20144           0.0000000000
    111946     21504  TIP3      H1             12.6377607912       -2.3321699048      -20.5984235767  TIP3      20144           0.0000000000
    111947     21504  TIP3      H2             13.7790610680       -1.5454147489      -21.3081093033  TIP3      20144           0.0000000000
    111948     21505  TIP3      OH2            14.6720509043       11.9624657493      -22.5732561698  TIP3      20145           0.0000000000
    111949     21505  TIP3      H1             14.8982440021       12.8716525387      -22.3070158190  TIP3      20145           0.0000000000
    111950     21505  TIP3      H2             15.5897487327       11.6053907735      -22.5089231382  TIP3      20145           0.0000000000
    111951     21506  TIP3      OH2            11.2953054617        6.8928318376      -23.0564377846  TIP3      20146           0.0000000000
    111952     21506  TIP3      H1             11.3302323773        6.6185740456      -23.9918466950  TIP3      20146           0.0000000000
    111953     21506  TIP3      H2             12.1832303171        7.2410511842      -22.8912322475  TIP3      20146           0.0000000000
    111954     21507  TIP3      OH2             6.9462576326        0.6986993938      -22.3880441450  TIP3      20147           0.0000000000
    111955     21507  TIP3      H1              6.5738614029        0.7453435826      -21.4964788111  TIP3      20147           0.0000000000
    111956     21507  TIP3      H2              6.5618863334       -0.1327469712      -22.7122376680  TIP3      20147           0.0000000000
    111957     21508  TIP3      OH2            -1.7817822042        1.5990901689      -20.8776398359  TIP3      20148           0.0000000000
    111958     21508  TIP3      H1             -1.2191076494        2.2120012788      -21.3927730935  TIP3      20148           0.0000000000
    111959     21508  TIP3      H2             -2.4618412512        2.1709681519      -20.4928025867  TIP3      20148           0.0000000000
    111960     21509  TIP3      OH2             2.3328090102        3.9626432884      -21.9597668779  TIP3      20149           0.0000000000
    111961     21509  TIP3      H1              1.8844494059        3.5197392857      -22.6693144647  TIP3      20149           0.0000000000
    111962     21509  TIP3      H2              3.2286064457        4.1518604147      -22.2705031200  TIP3      20149           0.0000000000
    111963     21510  TIP3      OH2            15.3227966585        3.3257096742      -20.4854850321  TIP3      20150           0.0000000000
    111964     21510  TIP3      H1             14.6211187734        3.0606518121      -21.0984522275  TIP3      20150           0.0000000000
    111965     21510  TIP3      H2             15.2967690059        4.2938237039      -20.6331434625  TIP3      20150           0.0000000000
    111966     21511  TIP3      OH2            -1.0364805083        6.1286577449      -22.1032189358  TIP3      20151           0.0000000000
    111967     21511  TIP3      H1             -0.4124103756        6.8389538355      -21.8265506036  TIP3      20151           0.0000000000
    111968     21511  TIP3      H2             -1.8991128994        6.5526131153      -22.0209200605  TIP3      20151           0.0000000000
    111969     21512  TIP3      OH2            15.4190123826       14.6106882160      -21.9047280576  TIP3      20152           0.0000000000
    111970     21512  TIP3      H1             16.1500611634       15.2141529944      -22.0991276907  TIP3      20152           0.0000000000
    111971     21512  TIP3      H2             14.7442395158       15.2074763997      -21.5717205771  TIP3      20152           0.0000000000
    111972     21513  TIP3      OH2             5.0618089501       11.3048752707      -23.6353501796  TIP3      20153           0.0000000000
    111973     21513  TIP3      H1              5.1981618154       10.5549823351      -24.2387914729  TIP3      20153           0.0000000000
    111974     21513  TIP3      H2              4.7023324648       10.8496468300      -22.8600960963  TIP3      20153           0.0000000000
    111975     21514  TIP3      OH2             0.3258540640        8.0880536970      -20.7341142972  TIP3      20154           0.0000000000
    111976     21514  TIP3      H1             -0.2940239049        8.5033020134      -20.1399988319  TIP3      20154           0.0000000000
    111977     21514  TIP3      H2              0.9004213985        8.8350663409      -20.9847017215  TIP3      20154           0.0000000000
    111978     21515  TIP3      OH2             0.9132179369       10.7324884735      -21.8621969674  TIP3      20155           0.0000000000
    111979     21515  TIP3      H1              1.5911145506       11.3584008573      -21.5448190379  TIP3      20155           0.0000000000
    111980     21515  TIP3      H2              1.4423230706       10.2770588129      -22.5435551529  TIP3      20155           0.0000000000
    111981     21516  TIP3      OH2            -0.7009393447        3.3783925320      -22.7058025115  TIP3      20156           0.0000000000
    111982     21516  TIP3      H1             -0.6624291913        4.3421751664      -22.5327059443  TIP3      20156           0.0000000000
    111983     21516  TIP3      H2             -1.6118590042        3.2189243967      -22.9777592096  TIP3      20156           0.0000000000
    111984     21517  TIP3      OH2             7.1351751089       13.1895858184      -23.4906071186  TIP3      20157           0.0000000000
    111985     21517  TIP3      H1              6.3947578698       12.5626581905      -23.2966460259  TIP3      20157           0.0000000000
    111986     21517  TIP3      H2              7.7832490594       12.5593471624      -23.8135356715  TIP3      20157           0.0000000000
    111987     21518  TIP3      OH2             2.5424927368        8.8554655424      -23.4951033666  TIP3      20158           0.0000000000
    111988     21518  TIP3      H1              2.6699474512        8.0957012485      -22.9063438133  TIP3      20158           0.0000000000
    111989     21518  TIP3      H2              3.2931591909        8.7475773419      -24.1090432337  TIP3      20158           0.0000000000
    111990     21519  TIP3      OH2             8.0401837150        9.9666830609      -23.6734566139  TIP3      20159           0.0000000000
    111991     21519  TIP3      H1              7.6167640201       10.0727450081      -22.8195543275  TIP3      20159           0.0000000000
    111992     21519  TIP3      H2              7.7711192765        9.0361757417      -23.8817956400  TIP3      20159           0.0000000000
    111993     21520  TIP3      OH2             4.7997614913        5.0692302991      -22.9158184382  TIP3      20160           0.0000000000
    111994     21520  TIP3      H1              4.7130125879        4.9777729948      -23.8585229302  TIP3      20160           0.0000000000
    111995     21520  TIP3      H2              5.7665146577        5.1602061919      -22.7548817483  TIP3      20160           0.0000000000
    111996     21521  TIP3      OH2            14.1933255054        7.4434524573      -23.4856078742  TIP3      20161           0.0000000000
    111997     21521  TIP3      H1             13.9489067430        7.0547641389      -24.3388626234  TIP3      20161           0.0000000000
    111998     21521  TIP3      H2             14.2552915369        8.4025328969      -23.6681319921  TIP3      20161           0.0000000000
    111999     21522  TIP3      OH2            -1.8076475936       10.3561126707      -22.3439577699  TIP3      20162           0.0000000000
    112000     21522  TIP3      H1             -0.8482500838       10.5119618337      -22.1716260433  TIP3      20162           0.0000000000
    112001     21522  TIP3      H2             -1.7264503141        9.7341125930      -23.1021395666  TIP3      20162           0.0000000000
    112002     21523  TIP3      OH2            15.3638439111        6.2336832683      -21.2843940529  TIP3      20163           0.0000000000
    112003     21523  TIP3      H1             14.7742942002        6.6348267936      -21.9473721892  TIP3      20163           0.0000000000
    112004     21523  TIP3      H2             15.2961141631        6.8723687297      -20.5506472192  TIP3      20163           0.0000000000
    112005     21524  TIP3      OH2            13.7178071739        3.4929153118      -22.7257784982  TIP3      20164           0.0000000000
    112006     21524  TIP3      H1             13.7839171783        4.1607416261      -23.4133572625  TIP3      20164           0.0000000000
    112007     21524  TIP3      H2             13.5103718396        2.6777105659      -23.2184552766  TIP3      20164           0.0000000000
    112008     21525  TIP3      OH2            12.9411630322        0.9410660042      -23.5605010070  TIP3      20165           0.0000000000
    112009     21525  TIP3      H1             13.5592633965        0.4908450177      -22.9578169671  TIP3      20165           0.0000000000
    112010     21525  TIP3      H2             12.0957600305        0.4935093777      -23.4356740401  TIP3      20165           0.0000000000
    112011     21526  TIP3      OH2            14.9817766428       -0.1893136798      -22.0098342969  TIP3      20166           0.0000000000
    112012     21526  TIP3      H1             15.3496377701       -0.9089534560      -22.5754769743  TIP3      20166           0.0000000000
    112013     21526  TIP3      H2             15.6562895194        0.4971063336      -22.0062815958  TIP3      20166           0.0000000000
    112014     21527  TIP3      OH2            -1.4038770549       -2.1482654124      -20.9524632272  TIP3      20167           0.0000000000
    112015     21527  TIP3      H1             -0.9125544929       -1.5424816911      -21.5103756351  TIP3      20167           0.0000000000
    112016     21527  TIP3      H2             -2.0035354877       -1.5685513673      -20.4711054341  TIP3      20167           0.0000000000
    112017     21528  TIP3      OH2             0.3186508850       14.6994037000      -22.9949676113  TIP3      20168           0.0000000000
    112018     21528  TIP3      H1              0.0482782666       14.9980018633      -22.1159581636  TIP3      20168           0.0000000000
    112019     21528  TIP3      H2              1.1004154820       14.1584367231      -22.8526071907  TIP3      20168           0.0000000000
    112020     21529  TIP3      OH2            26.4040026564        4.8671736767      -22.3128456989  TIP3      20169           0.0000000000
    112021     21529  TIP3      H1             27.1349374704        5.0051717431      -21.6819021934  TIP3      20169           0.0000000000
    112022     21529  TIP3      H2             26.8730138896        4.3301151149      -22.9744454509  TIP3      20169           0.0000000000
    112023     21530  TIP3      OH2            31.0081894537        8.5187804800      -18.8983778779  TIP3      20170           0.0000000000
    112024     21530  TIP3      H1             30.6134752466        7.7931329906      -18.3410659729  TIP3      20170           0.0000000000
    112025     21530  TIP3      H2             30.6326627296        8.1334834701      -19.6574247879  TIP3      20170           0.0000000000
    112026     21531  TIP3      OH2            32.3582764379       -2.4490015447      -20.9725431969  TIP3      20171           0.0000000000
    112027     21531  TIP3      H1             31.5319090921       -2.2564231709      -20.5257370324  TIP3      20171           0.0000000000
    112028     21531  TIP3      H2             32.6622903859       -1.5795191836      -21.2878875899  TIP3      20171           0.0000000000
    112029     21532  TIP3      OH2            33.5527771104       11.9691823375      -22.6319680131  TIP3      20172           0.0000000000
    112030     21532  TIP3      H1             33.7348763498       12.8801561202      -22.3150909006  TIP3      20172           0.0000000000
    112031     21532  TIP3      H2             34.4581496380       11.6402876977      -22.5019742623  TIP3      20172           0.0000000000
    112032     21533  TIP3      OH2            28.9179105359       14.6116803097      -21.9105356688  TIP3      20173           0.0000000000
    112033     21533  TIP3      H1             29.4495814203       13.9203530938      -22.3434620441  TIP3      20173           0.0000000000
    112034     21533  TIP3      H2             28.9851309188       14.4215545249      -20.9556774708  TIP3      20173           0.0000000000
    112035     21534  TIP3      OH2            30.1396427953        6.9555339868      -23.0136417438  TIP3      20174           0.0000000000
    112036     21534  TIP3      H1             30.1861047230        6.5751395096      -23.9211908823  TIP3      20174           0.0000000000
    112037     21534  TIP3      H2             31.0698972375        7.2048372216      -22.8879141867  TIP3      20174           0.0000000000
    112038     21535  TIP3      OH2            22.6258010600        1.2046585701      -23.3042558365  TIP3      20175           0.0000000000
    112039     21535  TIP3      H1             22.1687473806        0.7255036838      -22.5782502076  TIP3      20175           0.0000000000
    112040     21535  TIP3      H2             21.8925027366        1.5678955699      -23.8245772628  TIP3      20175           0.0000000000
    112041     21536  TIP3      OH2            29.8263723387       10.1869226666      -22.0013180263  TIP3      20176           0.0000000000
    112042     21536  TIP3      H1             30.2080202500        9.7126396488      -21.2645248631  TIP3      20176           0.0000000000
    112043     21536  TIP3      H2             28.8943224439        9.9363827068      -21.8898144388  TIP3      20176           0.0000000000
    112044     21537  TIP3      OH2            34.2257807077       14.5893185033      -21.9477134972  TIP3      20177           0.0000000000
    112045     21537  TIP3      H1             34.9806771869       15.1887705688      -22.0677132232  TIP3      20177           0.0000000000
    112046     21537  TIP3      H2             33.5729562475       15.2222522487      -21.5906646827  TIP3      20177           0.0000000000
    112047     21538  TIP3      OH2            24.0546880173       11.2608527259      -23.5902661711  TIP3      20178           0.0000000000
    112048     21538  TIP3      H1             24.0035394749       10.5649031749      -24.2732983375  TIP3      20178           0.0000000000
    112049     21538  TIP3      H2             23.4618820785       10.8847588268      -22.9419735082  TIP3      20178           0.0000000000
    112050     21539  TIP3      OH2            21.6069160118        0.3136504099      -20.9262576184  TIP3      20179           0.0000000000
    112051     21539  TIP3      H1             21.5176449558        1.1556119720      -20.4785140982  TIP3      20179           0.0000000000
    112052     21539  TIP3      H2             22.4598247545       -0.0159745643      -20.6035030597  TIP3      20179           0.0000000000
    112053     21540  TIP3      OH2            18.1749088104        3.3627180667      -22.8509011187  TIP3      20180           0.0000000000
    112054     21540  TIP3      H1             18.1374603248        4.2602411990      -22.5047978802  TIP3      20180           0.0000000000
    112055     21540  TIP3      H2             17.2432357597        3.1524120995      -22.9584549512  TIP3      20180           0.0000000000
    112056     21541  TIP3      OH2            25.9487122582       13.1731108957      -23.4771414113  TIP3      20181           0.0000000000
    112057     21541  TIP3      H1             25.2334221317       12.5325738996      -23.2868365338  TIP3      20181           0.0000000000
    112058     21541  TIP3      H2             26.6489434479       12.6253848427      -23.8154108923  TIP3      20181           0.0000000000
    112059     21542  TIP3      OH2            30.4395097107       12.8343890571      -23.3797030730  TIP3      20182           0.0000000000
    112060     21542  TIP3      H1             30.9049207576       12.1880514244      -22.8345113415  TIP3      20182           0.0000000000
    112061     21542  TIP3      H2             31.2097577027       13.1869204164      -23.8888977233  TIP3      20182           0.0000000000
    112062     21543  TIP3      OH2            21.5267129063        8.8319977166      -23.6182659536  TIP3      20183           0.0000000000
    112063     21543  TIP3      H1             21.5603788380        8.0764062310      -23.0320315854  TIP3      20183           0.0000000000
    112064     21543  TIP3      H2             22.2796260358        8.6679788277      -24.2223532942  TIP3      20183           0.0000000000
    112065     21544  TIP3      OH2            26.6980716520        9.8979377052      -23.6727330523  TIP3      20184           0.0000000000
    112066     21544  TIP3      H1             26.3653470733        9.9701663452      -22.7894548844  TIP3      20184           0.0000000000
    112067     21544  TIP3      H2             26.5287242427        8.9382410854      -23.9044578347  TIP3      20184           0.0000000000
    112068     21545  TIP3      OH2            23.6523208435        5.0112051266      -22.8828486928  TIP3      20185           0.0000000000
    112069     21545  TIP3      H1             23.4687303297        4.9884059811      -23.8438990328  TIP3      20185           0.0000000000
    112070     21545  TIP3      H2             24.6075558012        5.2139802937      -22.8798979608  TIP3      20185           0.0000000000
    112071     21546  TIP3      OH2            32.9646334914        7.4507814848      -23.4551261119  TIP3      20186           0.0000000000
    112072     21546  TIP3      H1             32.8328326882        7.0308488991      -24.3156274717  TIP3      20186           0.0000000000
    112073     21546  TIP3      H2             33.1375531963        8.3896809839      -23.6748202778  TIP3      20186           0.0000000000
    112074     21547  TIP3      OH2            23.5025619083       15.8113958278      -21.8342690734  TIP3      20187           0.0000000000
    112075     21547  TIP3      H1             24.4521353542       15.8758270806      -21.7270984777  TIP3      20187           0.0000000000
    112076     21547  TIP3      H2             23.3721879643       16.4228525053      -22.5674776998  TIP3      20187           0.0000000000
    112077     21548  TIP3      OH2            17.1122927621       10.4617441155      -22.4678880251  TIP3      20188           0.0000000000
    112078     21548  TIP3      H1             18.0111772068       10.4653703282      -22.1117101055  TIP3      20188           0.0000000000
    112079     21548  TIP3      H2             17.1290932378        9.7051636230      -23.0860056291  TIP3      20188           0.0000000000
    112080     21549  TIP3      OH2            34.2680466747        6.3373331927      -21.2542126002  TIP3      20189           0.0000000000
    112081     21549  TIP3      H1             33.6514646848        6.5838239252      -21.9793240936  TIP3      20189           0.0000000000
    112082     21549  TIP3      H2             34.0675708533        6.9643783587      -20.5570569327  TIP3      20189           0.0000000000
    112083     21550  TIP3      OH2            32.6110695634        3.4933314050      -22.7499937726  TIP3      20190           0.0000000000
    112084     21550  TIP3      H1             32.6457155134        4.1560813551      -23.4316916759  TIP3      20190           0.0000000000
    112085     21550  TIP3      H2             32.3801449375        2.6653090292      -23.1930528338  TIP3      20190           0.0000000000
    112086     21551  TIP3      OH2            31.8111896646        0.9253295529      -23.6101237911  TIP3      20191           0.0000000000
    112087     21551  TIP3      H1             32.4168007998        0.5476855082      -22.9463462995  TIP3      20191           0.0000000000
    112088     21551  TIP3      H2             30.9644353651        0.5141448034      -23.4074958952  TIP3      20191           0.0000000000
    112089     21552  TIP3      OH2            33.8063712966       -0.3302055954      -22.2212899527  TIP3      20192           0.0000000000
    112090     21552  TIP3      H1             34.3301653672       -1.0314655117      -22.6466759760  TIP3      20192           0.0000000000
    112091     21552  TIP3      H2             34.4412957015        0.3956712283      -22.0544886424  TIP3      20192           0.0000000000
    112092     21553  TIP3      OH2            19.1923979925       14.7896934374      -23.0183114566  TIP3      20193           0.0000000000
    112093     21553  TIP3      H1             18.8647045049       14.9189545929      -22.1285167081  TIP3      20193           0.0000000000
    112094     21553  TIP3      H2             19.8991176803       14.1222707575      -22.8829158288  TIP3      20193           0.0000000000
    112095     21554  TIP3      OH2            39.9343986081        3.9320270835      -22.0708930033  TIP3      20194           0.0000000000
    112096     21554  TIP3      H1             39.5183551861        3.5147279741      -22.8234665726  TIP3      20194           0.0000000000
    112097     21554  TIP3      H2             40.8463639312        4.1521580635      -22.2950731676  TIP3      20194           0.0000000000
    112098     21555  TIP3      OH2            36.7384972548        6.1662273190      -22.2015417560  TIP3      20195           0.0000000000
    112099     21555  TIP3      H1             37.2858795354        6.8670558269      -21.8072619552  TIP3      20195           0.0000000000
    112100     21555  TIP3      H2             35.8295590392        6.4674983873      -21.9786731996  TIP3      20195           0.0000000000
    112101     21556  TIP3      OH2            37.9219341134        8.2272597921      -21.0482745728  TIP3      20196           0.0000000000
    112102     21556  TIP3      H1             37.2761455691        8.5582683569      -20.3940704554  TIP3      20196           0.0000000000
    112103     21556  TIP3      H2             38.5219209545        8.9904663467      -21.1346083668  TIP3      20196           0.0000000000
    112104     21557  TIP3      OH2           -40.9148317307        0.2072393757      -20.9852407276  TIP3      20197           0.0000000000
    112105     21557  TIP3      H1            -41.0480331143        1.0896342003      -20.5798293401  TIP3      20197           0.0000000000
    112106     21557  TIP3      H2            -40.0408324962        0.0797002081      -20.6288902749  TIP3      20197           0.0000000000
    112107     21558  TIP3      OH2            38.7423277491       10.7118601350      -21.8514496784  TIP3      20198           0.0000000000
    112108     21558  TIP3      H1             39.3069547098       11.4136620058      -21.5194097352  TIP3      20198           0.0000000000
    112109     21558  TIP3      H2             39.1943414851       10.2527065726      -22.5783004549  TIP3      20198           0.0000000000
    112110     21559  TIP3      OH2            37.0612098360        3.3803278068      -22.7378500450  TIP3      20199           0.0000000000
    112111     21559  TIP3      H1             37.0123552162        4.3285268600      -22.4879127281  TIP3      20199           0.0000000000
    112112     21559  TIP3      H2             36.1476458936        3.1883455083      -22.9534561889  TIP3      20199           0.0000000000
    112113     21560  TIP3      OH2            40.0472355991        8.8836201456      -23.3181485596  TIP3      20200           0.0000000000
    112114     21560  TIP3      H1             40.2510300384        8.0859306016      -22.8274535662  TIP3      20200           0.0000000000
    112115     21560  TIP3      H2             40.8230976608        8.8345260867      -23.8955271122  TIP3      20200           0.0000000000
    112116     21561  TIP3      OH2            36.9629250124       -1.5499819512      -20.6899214987  TIP3      20201           0.0000000000
    112117     21561  TIP3      H1             36.8600266347       -1.4382216346      -21.6224573366  TIP3      20201           0.0000000000
    112118     21561  TIP3      H2             36.0860798204       -1.6530113346      -20.3707954552  TIP3      20201           0.0000000000
    112119     21562  TIP3      OH2            38.1812948694       -0.2046293098      -22.5529623692  TIP3      20202           0.0000000000
    112120     21562  TIP3      H1             38.7009348871       -0.8315205300      -23.0447668745  TIP3      20202           0.0000000000
    112121     21562  TIP3      H2             38.8161266036        0.0605893965      -21.8455797474  TIP3      20202           0.0000000000
    112122     21563  TIP3      OH2            38.0723683710       14.7153104349      -23.0581461963  TIP3      20203           0.0000000000
    112123     21563  TIP3      H1             37.7476768093       15.0035900760      -22.1836513163  TIP3      20203           0.0000000000
    112124     21563  TIP3      H2             38.7873671799       14.1269470636      -22.8117452646  TIP3      20203           0.0000000000
    112125     21564  TIP3      OH2           -30.0806366566       23.8403474168      -22.3445809905  TIP3      20204           0.0000000000
    112126     21564  TIP3      H1            -29.4369449337       23.8314156959      -21.6311998809  TIP3      20204           0.0000000000
    112127     21564  TIP3      H2            -29.7563472189       23.1371623450      -22.9148602742  TIP3      20204           0.0000000000
    112128     21565  TIP3      OH2           -22.9849161385       30.7649409761      -22.5385797103  TIP3      20205           0.0000000000
    112129     21565  TIP3      H1            -22.8571218322       31.6978589638      -22.2954988366  TIP3      20205           0.0000000000
    112130     21565  TIP3      H2            -22.0562434549       30.4774776975      -22.4779413565  TIP3      20205           0.0000000000
    112131     21566  TIP3      OH2           -26.3491533156       25.7055247531      -23.0214275391  TIP3      20206           0.0000000000
    112132     21566  TIP3      H1            -26.3824862925       25.5127972231      -23.9836942301  TIP3      20206           0.0000000000
    112133     21566  TIP3      H2            -25.5084950590       26.1727740424      -22.9394278218  TIP3      20206           0.0000000000
    112134     21567  TIP3      OH2           -33.9462310761       20.0098629372      -23.3365191160  TIP3      20207           0.0000000000
    112135     21567  TIP3      H1            -34.3698467091       19.6273181540      -22.5303347517  TIP3      20207           0.0000000000
    112136     21567  TIP3      H2            -34.6917447593       20.4324651217      -23.7877130491  TIP3      20207           0.0000000000
    112137     21568  TIP3      OH2           -39.2103796017       20.6585303528      -20.6949051185  TIP3      20208           0.0000000000
    112138     21568  TIP3      H1            -38.8571880876       21.1988341905      -21.4153375528  TIP3      20208           0.0000000000
    112139     21568  TIP3      H2            -40.0275186073       21.1052832261      -20.4543979121  TIP3      20208           0.0000000000
    112140     21569  TIP3      OH2           -35.3440363126       22.7685145476      -21.9475449430  TIP3      20209           0.0000000000
    112141     21569  TIP3      H1            -35.8536636976       22.3865098300      -22.6696474969  TIP3      20209           0.0000000000
    112142     21569  TIP3      H2            -34.4830997346       22.9607666219      -22.3567952110  TIP3      20209           0.0000000000
    112143     21570  TIP3      OH2           -28.0980412808       20.1711063843      -21.7223418070  TIP3      20210           0.0000000000
    112144     21570  TIP3      H1            -29.0495544313       20.2681851631      -21.8883891145  TIP3      20210           0.0000000000
    112145     21570  TIP3      H2            -27.8181207765       21.0552928449      -21.4879034340  TIP3      20210           0.0000000000
    112146     21571  TIP3      OH2           -38.7692974915       25.1165450322      -22.2992045059  TIP3      20211           0.0000000000
    112147     21571  TIP3      H1            -38.1260199505       25.5840652773      -21.7437510577  TIP3      20211           0.0000000000
    112148     21571  TIP3      H2            -39.5933113719       25.3209687925      -21.8362457694  TIP3      20211           0.0000000000
    112149     21572  TIP3      OH2           -26.7524825719       29.0223988543      -22.1555768567  TIP3      20212           0.0000000000
    112150     21572  TIP3      H1            -26.4632764313       28.6582461362      -21.3115405928  TIP3      20212           0.0000000000
    112151     21572  TIP3      H2            -27.7123325436       28.9311603868      -22.0460990791  TIP3      20212           0.0000000000
    112152     21573  TIP3      OH2           -22.3642265552       33.4719670895      -22.1107461744  TIP3      20213           0.0000000000
    112153     21573  TIP3      H1            -21.5644931470       34.0220085657      -22.0702229790  TIP3      20213           0.0000000000
    112154     21573  TIP3      H2            -22.9714859745       34.0205941587      -21.5824540192  TIP3      20213           0.0000000000
    112155     21574  TIP3      OH2           -32.6569602500       30.1492317632      -23.6511462435  TIP3      20214           0.0000000000
    112156     21574  TIP3      H1            -32.5090568169       29.3951022206      -24.2469606351  TIP3      20214           0.0000000000
    112157     21574  TIP3      H2            -32.9994489044       29.7417124653      -22.8515552370  TIP3      20214           0.0000000000
    112158     21575  TIP3      OH2           -35.0064681096       19.1882081162      -20.9406380244  TIP3      20215           0.0000000000
    112159     21575  TIP3      H1            -35.0382782978       20.0398684890      -20.4805387071  TIP3      20215           0.0000000000
    112160     21575  TIP3      H2            -34.1476992612       18.8643611542      -20.6019542492  TIP3      20215           0.0000000000
    112161     21576  TIP3      OH2           -38.4128140996       22.2381946600      -22.7704116072  TIP3      20216           0.0000000000
    112162     21576  TIP3      H1            -38.4187213168       23.1670389359      -22.4971046230  TIP3      20216           0.0000000000
    112163     21576  TIP3      H2            -39.2952917287       21.9702700657      -23.0065125745  TIP3      20216           0.0000000000
    112164     21577  TIP3      OH2           -30.6475340501       32.0428066998      -23.5716467593  TIP3      20217           0.0000000000
    112165     21577  TIP3      H1            -31.2980308357       31.3973975645      -23.2360151530  TIP3      20217           0.0000000000
    112166     21577  TIP3      H2            -29.9033751493       31.4561723080      -23.7261117114  TIP3      20217           0.0000000000
    112167     21578  TIP3      OH2           -26.0697424566       31.7754126972      -23.3624543803  TIP3      20218           0.0000000000
    112168     21578  TIP3      H1            -25.7703326628       31.0150482513      -22.8445681707  TIP3      20218           0.0000000000
    112169     21578  TIP3      H2            -25.3066093896       31.9953336819      -23.9099305571  TIP3      20218           0.0000000000
    112170     21579  TIP3      OH2           -29.7060460037       28.8159582145      -23.7205367687  TIP3      20219           0.0000000000
    112171     21579  TIP3      H1            -30.0446373071       28.9314360497      -22.8323427650  TIP3      20219           0.0000000000
    112172     21579  TIP3      H2            -29.9219997967       27.8664825096      -23.8752729512  TIP3      20219           0.0000000000
    112173     21580  TIP3      OH2           -32.9119520214       23.9401138137      -22.9033613367  TIP3      20220           0.0000000000
    112174     21580  TIP3      H1            -33.0459183767       23.8510583260      -23.8628949468  TIP3      20220           0.0000000000
    112175     21580  TIP3      H2            -31.9391892784       24.0219894464      -22.8080787169  TIP3      20220           0.0000000000
    112176     21581  TIP3      OH2           -23.5427197335       26.2758758485      -23.4290718815  TIP3      20221           0.0000000000
    112177     21581  TIP3      H1            -23.7444957310       25.8983259103      -24.3032291226  TIP3      20221           0.0000000000
    112178     21581  TIP3      H2            -23.4694553159       27.2348464160      -23.6406457621  TIP3      20221           0.0000000000
    112179     21582  TIP3      OH2           -33.0113165857       34.6376565870      -21.8411672645  TIP3      20222           0.0000000000
    112180     21582  TIP3      H1            -32.0639782040       34.7664213996      -21.7539154216  TIP3      20222           0.0000000000
    112181     21582  TIP3      H2            -33.2286981855       35.2661632811      -22.5408499822  TIP3      20222           0.0000000000
    112182     21583  TIP3      OH2           -39.3985889556       29.3168816755      -22.4356551256  TIP3      20223           0.0000000000
    112183     21583  TIP3      H1            -38.5102549726       29.3715341408      -22.0899183322  TIP3      20223           0.0000000000
    112184     21583  TIP3      H2            -39.3641678730       28.6126060954      -23.0695848570  TIP3      20223           0.0000000000
    112185     21584  TIP3      OH2           -22.4280078488       25.0788287263      -21.1972786604  TIP3      20224           0.0000000000
    112186     21584  TIP3      H1            -22.8811906025       25.4613651516      -21.9815982051  TIP3      20224           0.0000000000
    112187     21584  TIP3      H2            -22.4349390911       25.8106885750      -20.5851707620  TIP3      20224           0.0000000000
    112188     21585  TIP3      OH2           -24.1153312931       22.3812039839      -22.6979603457  TIP3      20225           0.0000000000
    112189     21585  TIP3      H1            -23.8834844333       23.0011621110      -23.3958455308  TIP3      20225           0.0000000000
    112190     21585  TIP3      H2            -24.1452921324       21.5360957157      -23.1894211757  TIP3      20225           0.0000000000
    112191     21586  TIP3      OH2           -24.7714437492       19.8149134003      -23.5578555007  TIP3      20226           0.0000000000
    112192     21586  TIP3      H1            -24.1490492065       19.3657797470      -22.9883220379  TIP3      20226           0.0000000000
    112193     21586  TIP3      H2            -25.6194104769       19.3563765802      -23.4336602205  TIP3      20226           0.0000000000
    112194     21587  TIP3      OH2           -37.2634107925       18.6911535519      -22.5455883048  TIP3      20227           0.0000000000
    112195     21587  TIP3      H1            -36.7598992063       17.9917906787      -22.9780505183  TIP3      20227           0.0000000000
    112196     21587  TIP3      H2            -36.6433315340       18.8999442063      -21.8185793571  TIP3      20227           0.0000000000
    112197     21588  TIP3      OH2           -37.4052072948       33.6082574425      -23.0105612614  TIP3      20228           0.0000000000
    112198     21588  TIP3      H1            -37.7226035318       33.8932458166      -22.1499904944  TIP3      20228           0.0000000000
    112199     21588  TIP3      H2            -36.6166008229       33.0617702152      -22.8476078656  TIP3      20228           0.0000000000
    112200     21589  TIP3      OH2           -11.3135250707       23.6839801768      -22.2868927492  TIP3      20229           0.0000000000
    112201     21589  TIP3      H1            -10.5780637567       23.8762978704      -21.6919429078  TIP3      20229           0.0000000000
    112202     21589  TIP3      H2            -10.8742680946       23.1518141468      -22.9478443154  TIP3      20229           0.0000000000
    112203     21590  TIP3      OH2            -4.1457127128       30.7743976241      -22.5748459062  TIP3      20230           0.0000000000
    112204     21590  TIP3      H1             -3.9932863085       31.6908928293      -22.2912672244  TIP3      20230           0.0000000000
    112205     21590  TIP3      H2             -3.2294207551       30.4522887006      -22.4767270407  TIP3      20230           0.0000000000
    112206     21591  TIP3      OH2            -7.4673397741       25.6831311762      -23.0017948354  TIP3      20231           0.0000000000
    112207     21591  TIP3      H1             -7.5527698447       25.4971685250      -23.9577840754  TIP3      20231           0.0000000000
    112208     21591  TIP3      H2             -6.6392639617       26.1409935299      -22.8918865948  TIP3      20231           0.0000000000
    112209     21592  TIP3      OH2           -11.9786519270       19.5730651793      -22.4083810120  TIP3      20232           0.0000000000
    112210     21592  TIP3      H1            -12.2293658373       19.6390852656      -21.4782346534  TIP3      20232           0.0000000000
    112211     21592  TIP3      H2            -12.2922348393       18.7028051065      -22.7114939129  TIP3      20232           0.0000000000
    112212     21593  TIP3      OH2           -15.1121439452       19.9324672000      -23.3322175729  TIP3      20233           0.0000000000
    112213     21593  TIP3      H1            -15.5524859299       19.6243029135      -22.5079893360  TIP3      20233           0.0000000000
    112214     21593  TIP3      H2            -15.7898433411       20.4646605706      -23.7759712134  TIP3      20233           0.0000000000
    112215     21594  TIP3      OH2           -19.8689450652       25.0646016861      -22.2651396026  TIP3      20234           0.0000000000
    112216     21594  TIP3      H1            -19.2578881699       25.6690593214      -21.7865100377  TIP3      20234           0.0000000000
    112217     21594  TIP3      H2            -20.7390699196       25.3127073392      -21.9124816360  TIP3      20234           0.0000000000
    112218     21595  TIP3      OH2            -3.4563031706       33.5019140737      -21.9674041432  TIP3      20235           0.0000000000
    112219     21595  TIP3      H1             -2.6782835324       34.0826603986      -22.0363784114  TIP3      20235           0.0000000000
    112220     21595  TIP3      H2             -4.1230648126       34.0584649563      -21.5731029629  TIP3      20235           0.0000000000
    112221     21596  TIP3      OH2           -13.8039233255       30.1609731918      -23.6616244088  TIP3      20236           0.0000000000
    112222     21596  TIP3      H1            -13.6218817488       29.3776110274      -24.2049170981  TIP3      20236           0.0000000000
    112223     21596  TIP3      H2            -14.1491717501       29.7216807692      -22.8652395620  TIP3      20236           0.0000000000
    112224     21597  TIP3      OH2           -18.5694085354       26.9755828059      -20.8118703515  TIP3      20237           0.0000000000
    112225     21597  TIP3      H1            -19.1149923549       27.3576085822      -20.1329168995  TIP3      20237           0.0000000000
    112226     21597  TIP3      H2            -17.9144514699       27.6758250663      -20.9521918647  TIP3      20237           0.0000000000
    112227     21598  TIP3      OH2           -16.0318184772       19.1031309983      -21.0306155575  TIP3      20238           0.0000000000
    112228     21598  TIP3      H1            -16.2112254096       19.9522341255      -20.5845799470  TIP3      20238           0.0000000000
    112229     21598  TIP3      H2            -15.1991474696       18.8640794322      -20.6159179364  TIP3      20238           0.0000000000
    112230     21599  TIP3      OH2           -19.5304713514       22.2519532622      -22.7347576932  TIP3      20239           0.0000000000
    112231     21599  TIP3      H1            -19.5557541274       23.1927674100      -22.4828109313  TIP3      20239           0.0000000000
    112232     21599  TIP3      H2            -20.4401644619       22.0390108800      -22.9318814693  TIP3      20239           0.0000000000
    112233     21600  TIP3      OH2           -11.7786745909       32.0365801926      -23.5499486177  TIP3      20240           0.0000000000
    112234     21600  TIP3      H1            -12.4469710324       31.3741006482      -23.2624411580  TIP3      20240           0.0000000000
    112235     21600  TIP3      H2            -11.0420442732       31.4479435861      -23.7526551192  TIP3      20240           0.0000000000
    112236     21601  TIP3      OH2            -7.2356541627       31.7344297762      -23.4791620793  TIP3      20241           0.0000000000
    112237     21601  TIP3      H1             -6.9072895587       31.0772576611      -22.8495298930  TIP3      20241           0.0000000000
    112238     21601  TIP3      H2             -6.4201822612       32.0260989888      -23.8978001576  TIP3      20241           0.0000000000
    112239     21602  TIP3      OH2           -16.3149676461       27.6991116847      -23.5094271298  TIP3      20242           0.0000000000
    112240     21602  TIP3      H1            -16.2062025820       26.9434417464      -22.9104513733  TIP3      20242           0.0000000000
    112241     21602  TIP3      H2            -15.5594153341       27.5902617183      -24.1127888712  TIP3      20242           0.0000000000
    112242     21603  TIP3      OH2            -4.5770132572       26.2794371946      -23.4937049856  TIP3      20243           0.0000000000
    112243     21603  TIP3      H1             -4.9147795649       25.9017620643      -24.3191887701  TIP3      20243           0.0000000000
    112244     21603  TIP3      H2             -4.6430544033       27.2484213088      -23.6304268913  TIP3      20243           0.0000000000
    112245     21604  TIP3      OH2           -14.1393575646       34.6058300754      -21.8398203064  TIP3      20244           0.0000000000
    112246     21604  TIP3      H1            -13.1954461511       34.7889733420      -21.7670027325  TIP3      20244           0.0000000000
    112247     21604  TIP3      H2            -14.4047227869       35.2605092510      -22.4969833081  TIP3      20244           0.0000000000
    112248     21605  TIP3      OH2           -20.6370166487       29.2622029984      -22.4260023508  TIP3      20245           0.0000000000
    112249     21605  TIP3      H1            -19.7167429990       29.3397282621      -22.1240117544  TIP3      20245           0.0000000000
    112250     21605  TIP3      H2            -20.5712918638       28.5700888154      -23.1146264363  TIP3      20245           0.0000000000
    112251     21606  TIP3      OH2            -3.5363975363       25.1485478750      -21.2518284193  TIP3      20246           0.0000000000
    112252     21606  TIP3      H1             -4.0768771109       25.5048435617      -21.9828518342  TIP3      20246           0.0000000000
    112253     21606  TIP3      H2             -3.5928298372       25.7947035157      -20.5425121213  TIP3      20246           0.0000000000
    112254     21607  TIP3      OH2            -5.2362313191       22.3836056631      -22.7125779394  TIP3      20247           0.0000000000
    112255     21607  TIP3      H1             -5.0362428773       23.0194963584      -23.3928367916  TIP3      20247           0.0000000000
    112256     21607  TIP3      H2             -5.2972687431       21.5350858020      -23.1815624577  TIP3      20247           0.0000000000
    112257     21608  TIP3      OH2            -5.9320183752       19.8134994026      -23.5795586105  TIP3      20248           0.0000000000
    112258     21608  TIP3      H1             -5.3095754217       19.3658053217      -22.9639136359  TIP3      20248           0.0000000000
    112259     21608  TIP3      H2             -6.7484296142       19.3396201372      -23.4052277870  TIP3      20248           0.0000000000
    112260     21609  TIP3      OH2            -3.8678449740       18.6989086028      -22.0340790571  TIP3      20249           0.0000000000
    112261     21609  TIP3      H1             -3.4694273780       17.9475379376      -22.5104769488  TIP3      20249           0.0000000000
    112262     21609  TIP3      H2             -3.1375406429       19.3161612681      -21.9068959277  TIP3      20249           0.0000000000
    112263     21610  TIP3      OH2           -20.2783176789       16.6798848189      -20.9815812284  TIP3      20250           0.0000000000
    112264     21610  TIP3      H1            -19.8159037291       17.3528957301      -21.5014165614  TIP3      20250           0.0000000000
    112265     21610  TIP3      H2            -20.8331103457       17.2766584595      -20.4518351007  TIP3      20250           0.0000000000
    112266     21611  TIP3      OH2           -18.4296456500       18.6463066131      -22.4818264039  TIP3      20251           0.0000000000
    112267     21611  TIP3      H1            -17.9354572238       18.0174553719      -23.0248583247  TIP3      20251           0.0000000000
    112268     21611  TIP3      H2            -17.7566563104       18.9135312011      -21.8274379005  TIP3      20251           0.0000000000
    112269     21612  TIP3      OH2           -11.5012106362       33.9428787852      -21.6114867389  TIP3      20252           0.0000000000
    112270     21612  TIP3      H1            -10.6164268316       34.1927027095      -21.8626721305  TIP3      20252           0.0000000000
    112271     21612  TIP3      H2            -11.7524418062       33.3921052957      -22.3891785085  TIP3      20252           0.0000000000
    112272     21613  TIP3      OH2           -18.5748916717       33.6072967336      -23.0283345502  TIP3      20253           0.0000000000
    112273     21613  TIP3      H1            -18.7913075158       33.8438737100      -22.1127191429  TIP3      20253           0.0000000000
    112274     21613  TIP3      H2            -17.8150157761       33.0064319830      -22.8403197573  TIP3      20253           0.0000000000
    112275     21614  TIP3      OH2            14.7102075912       30.8122984056      -22.5774230630  TIP3      20254           0.0000000000
    112276     21614  TIP3      H1             14.8523601052       31.7279537535      -22.2843270234  TIP3      20254           0.0000000000
    112277     21614  TIP3      H2             15.6103021378       30.4810115479      -22.4658393807  TIP3      20254           0.0000000000
    112278     21615  TIP3      OH2            11.3073406767       25.7461036870      -23.0289249621  TIP3      20255           0.0000000000
    112279     21615  TIP3      H1             11.3232398040       25.4934083475      -23.9722731427  TIP3      20255           0.0000000000
    112280     21615  TIP3      H2             12.1802160602       26.1323637504      -22.8937284888  TIP3      20255           0.0000000000
    112281     21616  TIP3      OH2             6.9166402201       19.5535054008      -22.3914456954  TIP3      20256           0.0000000000
    112282     21616  TIP3      H1              6.6156146714       19.5847679964      -21.4815811604  TIP3      20256           0.0000000000
    112283     21616  TIP3      H2              6.5195393990       18.7408305127      -22.7530183759  TIP3      20256           0.0000000000
    112284     21617  TIP3      OH2             3.7701385217       20.0569029926      -23.2806994926  TIP3      20257           0.0000000000
    112285     21617  TIP3      H1              3.3029424151       19.5780369000      -22.5550995867  TIP3      20257           0.0000000000
    112286     21617  TIP3      H2              3.0268377854       20.4041975790      -23.7800485550  TIP3      20257           0.0000000000
    112287     21618  TIP3      OH2             2.4773097096       22.7064869687      -21.8737355580  TIP3      20258           0.0000000000
    112288     21618  TIP3      H1              1.8382858524       22.4512832688      -22.5646132278  TIP3      20258           0.0000000000
    112289     21618  TIP3      H2              3.1870911377       23.0141402565      -22.4317910654  TIP3      20258           0.0000000000
    112290     21619  TIP3      OH2             9.6102005690       20.1364853502      -21.7962998193  TIP3      20259           0.0000000000
    112291     21619  TIP3      H1              8.6671835828       20.3255074453      -21.9123120136  TIP3      20259           0.0000000000
    112292     21619  TIP3      H2              9.9323359381       20.9817254818      -21.4224262645  TIP3      20259           0.0000000000
    112293     21620  TIP3      OH2             7.8204929263       28.8455494819      -21.0245292729  TIP3      20260           0.0000000000
    112294     21620  TIP3      H1              7.5747419681       29.6475906330      -20.5506533627  TIP3      20260           0.0000000000
    112295     21620  TIP3      H2              7.1808801447       28.2089820345      -20.6774577656  TIP3      20260           0.0000000000
    112296     21621  TIP3      OH2            -1.0005004346       25.1231543501      -22.3053106058  TIP3      20261           0.0000000000
    112297     21621  TIP3      H1             -0.4188834517       25.6462056673      -21.7297792560  TIP3      20261           0.0000000000
    112298     21621  TIP3      H2             -1.8816959248       25.2880479102      -21.9102401310  TIP3      20261           0.0000000000
    112299     21622  TIP3      OH2            10.9428246690       29.0750695216      -22.1878422396  TIP3      20262           0.0000000000
    112300     21622  TIP3      H1             11.2577349243       28.6837392241      -21.3657882956  TIP3      20262           0.0000000000
    112301     21622  TIP3      H2              9.9884931491       28.9552877030      -22.0545866328  TIP3      20262           0.0000000000
    112302     21623  TIP3      OH2            15.3907284855       33.4618947582      -21.9335560290  TIP3      20263           0.0000000000
    112303     21623  TIP3      H1             16.1309789411       34.0618493281      -22.0685296785  TIP3      20263           0.0000000000
    112304     21623  TIP3      H2             14.6960336206       34.0426873209      -21.5642067095  TIP3      20263           0.0000000000
    112305     21624  TIP3      OH2             5.0568310021       30.1520618883      -23.6738750118  TIP3      20264           0.0000000000
    112306     21624  TIP3      H1              5.1806509575       29.3834178938      -24.2424148461  TIP3      20264           0.0000000000
    112307     21624  TIP3      H2              4.6579804181       29.7559096043      -22.8696828161  TIP3      20264           0.0000000000
    112308     21625  TIP3      OH2             3.9826540993       29.6950470385      -21.2594529216  TIP3      20265           0.0000000000
    112309     21625  TIP3      H1              4.1038881583       29.2323849085      -20.4325490298  TIP3      20265           0.0000000000
    112310     21625  TIP3      H2              3.8977137697       30.6264319729      -20.9428233955  TIP3      20265           0.0000000000
    112311     21626  TIP3      OH2             0.4502155267       26.9642511004      -20.7230284259  TIP3      20266           0.0000000000
    112312     21626  TIP3      H1             -0.2922100661       27.2672196505      -20.1812623403  TIP3      20266           0.0000000000
    112313     21626  TIP3      H2              0.8800632323       27.7861624478      -21.0098489347  TIP3      20266           0.0000000000
    112314     21627  TIP3      OH2             2.7603837576       19.2343025854      -20.9543564183  TIP3      20267           0.0000000000
    112315     21627  TIP3      H1              2.6437237686       20.0478359875      -20.4554186181  TIP3      20267           0.0000000000
    112316     21627  TIP3      H2              3.5481334077       18.8364612388      -20.5671347258  TIP3      20267           0.0000000000
    112317     21628  TIP3      OH2             0.9710590471       29.5168201474      -21.8514659727  TIP3      20268           0.0000000000
    112318     21628  TIP3      H1              1.5690948985       30.2327204466      -21.5693293757  TIP3      20268           0.0000000000
    112319     21628  TIP3      H2              1.5054304903       29.1198284484      -22.5586198995  TIP3      20268           0.0000000000
    112320     21629  TIP3      OH2             7.0858570467       32.0365877922      -23.5698275851  TIP3      20269           0.0000000000
    112321     21629  TIP3      H1              6.4144626001       31.3953679355      -23.2716963803  TIP3      20269           0.0000000000
    112322     21629  TIP3      H2              7.8253760758       31.4567240384      -23.7602065782  TIP3      20269           0.0000000000
    112323     21630  TIP3      OH2            11.6232871212       31.7779129388      -23.3497242880  TIP3      20270           0.0000000000
    112324     21630  TIP3      H1             11.9489888025       31.0474996904      -22.8033343253  TIP3      20270           0.0000000000
    112325     21630  TIP3      H2             12.3938894469       32.0362582859      -23.8704961398  TIP3      20270           0.0000000000
    112326     21631  TIP3      OH2             2.5558216998       27.7386884119      -23.4840016246  TIP3      20271           0.0000000000
    112327     21631  TIP3      H1              2.6558261372       26.9661614411      -22.9232297096  TIP3      20271           0.0000000000
    112328     21631  TIP3      H2              3.2830942053       27.6158538189      -24.1221307597  TIP3      20271           0.0000000000
    112329     21632  TIP3      OH2             7.9498583895       28.8270554510      -23.7452454457  TIP3      20272           0.0000000000
    112330     21632  TIP3      H1              7.7330722714       28.9315017865      -22.8039468482  TIP3      20272           0.0000000000
    112331     21632  TIP3      H2              7.7806679628       27.8621927108      -23.8520016721  TIP3      20272           0.0000000000
    112332     21633  TIP3      OH2            14.1417348990       26.2739749843      -23.4514026271  TIP3      20273           0.0000000000
    112333     21633  TIP3      H1             13.9565431563       25.8951438848      -24.3227806926  TIP3      20273           0.0000000000
    112334     21633  TIP3      H2             14.2637206559       27.2332389538      -23.6350979857  TIP3      20273           0.0000000000
    112335     21634  TIP3      OH2            -1.7903337178       29.2873978714      -22.4231800166  TIP3      20274           0.0000000000
    112336     21634  TIP3      H1             -0.8480036143       29.3505013681      -22.1388877005  TIP3      20274           0.0000000000
    112337     21634  TIP3      H2             -1.7320676273       28.5525575919      -23.0722542277  TIP3      20274           0.0000000000
    112338     21635  TIP3      OH2            15.3133468390       25.0677490435      -21.2479228514  TIP3      20275           0.0000000000
    112339     21635  TIP3      H1             14.8288715850       25.4858355102      -21.9889127974  TIP3      20275           0.0000000000
    112340     21635  TIP3      H2             15.3418155286       25.8104086105      -20.6290034796  TIP3      20275           0.0000000000
    112341     21636  TIP3      OH2            13.7706230884       22.3183810364      -22.7124350862  TIP3      20276           0.0000000000
    112342     21636  TIP3      H1             13.7731811431       23.0279407624      -23.3608520970  TIP3      20276           0.0000000000
    112343     21636  TIP3      H2             13.4934748588       21.5439818564      -23.2212697390  TIP3      20276           0.0000000000
    112344     21637  TIP3      OH2            12.9339051363       19.7989731131      -23.6012600865  TIP3      20277           0.0000000000
    112345     21637  TIP3      H1             13.5261521037       19.3925802618      -22.9845248362  TIP3      20277           0.0000000000
    112346     21637  TIP3      H2             12.0664838960       19.3933725546      -23.4319755184  TIP3      20277           0.0000000000
    112347     21638  TIP3      OH2            26.4585453249       23.7985067434      -22.3278158878  TIP3      20278           0.0000000000
    112348     21638  TIP3      H1             27.1398807176       23.8070476249      -21.6392121231  TIP3      20278           0.0000000000
    112349     21638  TIP3      H2             26.8104463187       23.1426245232      -22.9325890095  TIP3      20278           0.0000000000
    112350     21639  TIP3      OH2            28.7171349381       24.6558250469      -20.7127889062  TIP3      20279           0.0000000000
    112351     21639  TIP3      H1             29.2627067531       24.8657140070      -19.9515309002  TIP3      20279           0.0000000000
    112352     21639  TIP3      H2             29.1229982970       25.1496633142      -21.4538808481  TIP3      20279           0.0000000000
    112353     21640  TIP3      OH2            32.4173405371       16.4439778461      -20.8967304219  TIP3      20280           0.0000000000
    112354     21640  TIP3      H1             31.5401681813       16.5571812557      -20.5400110843  TIP3      20280           0.0000000000
    112355     21640  TIP3      H2             32.6502793100       17.2783407150      -21.2864770658  TIP3      20280           0.0000000000
    112356     21641  TIP3      OH2            33.5436266544       30.8309933880      -22.5808233222  TIP3      20281           0.0000000000
    112357     21641  TIP3      H1             33.7815009191       31.7286702278      -22.3177620920  TIP3      20281           0.0000000000
    112358     21641  TIP3      H2             34.4399730279       30.4565371669      -22.4993675181  TIP3      20281           0.0000000000
    112359     21642  TIP3      OH2            30.1728880827       25.6641956610      -23.0225212683  TIP3      20282           0.0000000000
    112360     21642  TIP3      H1             30.1587301616       25.4745851335      -23.9875297480  TIP3      20282           0.0000000000
    112361     21642  TIP3      H2             31.0193905526       26.1009561361      -22.9194190312  TIP3      20282           0.0000000000
    112362     21643  TIP3      OH2            22.5716575469       19.8939125548      -23.3570522679  TIP3      20283           0.0000000000
    112363     21643  TIP3      H1             22.1797378630       19.6786146475      -22.5045408699  TIP3      20283           0.0000000000
    112364     21643  TIP3      H2             21.9097037469       20.4792471744      -23.7510705560  TIP3      20283           0.0000000000
    112365     21644  TIP3      OH2            17.0765622345       20.4461293855      -20.8674979342  TIP3      20284           0.0000000000
    112366     21644  TIP3      H1             17.6483552834       21.0711328732      -21.3680043013  TIP3      20284           0.0000000000
    112367     21644  TIP3      H2             16.4277922536       21.0510739039      -20.4811351398  TIP3      20284           0.0000000000
    112368     21645  TIP3      OH2            29.2368167735       21.9589048347      -20.2198397209  TIP3      20285           0.0000000000
    112369     21645  TIP3      H1             30.0761568726       21.9703272689      -19.7625702411  TIP3      20285           0.0000000000
    112370     21645  TIP3      H2             29.1939147728       22.8306907495      -20.6511638205  TIP3      20285           0.0000000000
    112371     21646  TIP3      OH2            17.8605400560       25.0349661816      -22.2149893517  TIP3      20286           0.0000000000
    112372     21646  TIP3      H1             18.4188816582       25.6908060415      -21.7860886914  TIP3      20286           0.0000000000
    112373     21646  TIP3      H2             16.9724050787       25.3563635479      -21.9407272514  TIP3      20286           0.0000000000
    112374     21647  TIP3      OH2            34.1720273538       33.4962370222      -22.0147685249  TIP3      20287           0.0000000000
    112375     21647  TIP3      H1             34.9945394973       34.0495137023      -22.0397054692  TIP3      20287           0.0000000000
    112376     21647  TIP3      H2             33.6287703467       34.1369712876      -21.5385850780  TIP3      20287           0.0000000000
    112377     21648  TIP3      OH2            19.8331930404       29.6387296105      -21.9045970668  TIP3      20288           0.0000000000
    112378     21648  TIP3      H1             20.4653459235       30.2142805189      -21.4722184354  TIP3      20288           0.0000000000
    112379     21648  TIP3      H2             20.3495246967       29.0872027115      -22.5106174129  TIP3      20288           0.0000000000
    112380     21649  TIP3      OH2            18.1471187202       22.2482111007      -22.6907395806  TIP3      20289           0.0000000000
    112381     21649  TIP3      H1             18.1386715591       23.2120812977      -22.4896036511  TIP3      20289           0.0000000000
    112382     21649  TIP3      H2             17.2548321006       22.0631022300      -22.9868293738  TIP3      20289           0.0000000000
    112383     21650  TIP3      OH2            21.4149655330       27.7205782514      -23.4983950410  TIP3      20290           0.0000000000
    112384     21650  TIP3      H1             21.5299635114       26.9695106703      -22.8834986131  TIP3      20290           0.0000000000
    112385     21650  TIP3      H2             22.1561320513       27.5844976357      -24.1183094160  TIP3      20290           0.0000000000
    112386     21651  TIP3      OH2            26.8780398760       28.8204494947      -23.7043033090  TIP3      20291           0.0000000000
    112387     21651  TIP3      H1             26.5096853885       28.8430257296      -22.8301532898  TIP3      20291           0.0000000000
    112388     21651  TIP3      H2             26.6291558865       27.8798019972      -23.9204365503  TIP3      20291           0.0000000000
    112389     21652  TIP3      OH2            22.5977101675       25.7070545339      -21.1552250957  TIP3      20292           0.0000000000
    112390     21652  TIP3      H1             22.1386500426       25.1921380989      -20.4873485674  TIP3      20292           0.0000000000
    112391     21652  TIP3      H2             22.8922060630       25.0082267108      -21.7492846366  TIP3      20292           0.0000000000
    112392     21653  TIP3      OH2            23.5599619632       34.5993644809      -21.8966870706  TIP3      20293           0.0000000000
    112393     21653  TIP3      H1             24.4773858319       34.8225297255      -21.7024324412  TIP3      20293           0.0000000000
    112394     21653  TIP3      H2             23.3427793836       35.3041049838      -22.5242733075  TIP3      20293           0.0000000000
    112395     21654  TIP3      OH2            34.2273557489       25.1166160118      -21.2688499697  TIP3      20294           0.0000000000
    112396     21654  TIP3      H1             33.6433799851       25.4542764143      -21.9535063726  TIP3      20294           0.0000000000
    112397     21654  TIP3      H2             34.0638360478       25.7573535237      -20.5504510148  TIP3      20294           0.0000000000
    112398     21655  TIP3      OH2            32.6050834292       22.3604018103      -22.6756101556  TIP3      20295           0.0000000000
    112399     21655  TIP3      H1             32.6344246101       23.0133301244      -23.3854884752  TIP3      20295           0.0000000000
    112400     21655  TIP3      H2             32.3870304923       21.5471869498      -23.1781537273  TIP3      20295           0.0000000000
    112401     21656  TIP3      OH2            31.7944847688       19.8279122785      -23.5140420270  TIP3      20296           0.0000000000
    112402     21656  TIP3      H1             32.4072677400       19.3308993627      -22.9751248684  TIP3      20296           0.0000000000
    112403     21656  TIP3      H2             30.9566515129       19.3481266602      -23.4451373527  TIP3      20296           0.0000000000
    112404     21657  TIP3      OH2            19.2942326654       18.5582931938      -22.4163208433  TIP3      20297           0.0000000000
    112405     21657  TIP3      H1             19.8121529662       18.0205415055      -23.0438505361  TIP3      20297           0.0000000000
    112406     21657  TIP3      H2             19.9538540008       18.9932152237      -21.8560011868  TIP3      20297           0.0000000000
    112407     21658  TIP3      OH2            26.3435302330       33.7650436034      -21.6329017416  TIP3      20298           0.0000000000
    112408     21658  TIP3      H1             27.0779073146       34.3189891166      -21.8551408781  TIP3      20298           0.0000000000
    112409     21658  TIP3      H2             25.9536009564       33.4859274493      -22.4617867831  TIP3      20298           0.0000000000
    112410     21659  TIP3      OH2            19.1560444549       33.5890886263      -23.0120184641  TIP3      20299           0.0000000000
    112411     21659  TIP3      H1             18.8930536855       33.8172106338      -22.1151622653  TIP3      20299           0.0000000000
    112412     21659  TIP3      H2             19.9209903189       33.0061704084      -22.8444644961  TIP3      20299           0.0000000000
    112413     21660  TIP3      OH2            40.0913930602       22.9048891728      -21.9495329444  TIP3      20300           0.0000000000
    112414     21660  TIP3      H1             39.5755507334       22.3649773901      -22.5865203044  TIP3      20300           0.0000000000
    112415     21660  TIP3      H2             40.9583555877       22.9510386108      -22.3335386925  TIP3      20300           0.0000000000
    112416     21661  TIP3      OH2            36.7192549114       25.0488182125      -22.1469867815  TIP3      20301           0.0000000000
    112417     21661  TIP3      H1             37.2986171568       25.7455919277      -21.8174022764  TIP3      20301           0.0000000000
    112418     21661  TIP3      H2             35.8056481921       25.3613482308      -21.9541383634  TIP3      20301           0.0000000000
    112419     21662  TIP3      OH2           -41.1228006300       18.9706832624      -20.8634837189  TIP3      20302           0.0000000000
    112420     21662  TIP3      H1            -41.1748418837       19.8837771866      -20.5587018997  TIP3      20302           0.0000000000
    112421     21662  TIP3      H2            -40.1734299257       18.8706611425      -20.7251937891  TIP3      20302           0.0000000000
    112422     21663  TIP3      OH2            37.0446612265       22.2818836128      -22.6915030307  TIP3      20303           0.0000000000
    112423     21663  TIP3      H1             36.9616279968       23.2213601478      -22.4809159982  TIP3      20303           0.0000000000
    112424     21663  TIP3      H2             36.1743775265       22.0197950833      -23.0082675978  TIP3      20303           0.0000000000
    112425     21664  TIP3      OH2            39.9193465833       27.4835057333      -23.4625749575  TIP3      20304           0.0000000000
    112426     21664  TIP3      H1             40.3063322484       27.0740423665      -22.6862822474  TIP3      20304           0.0000000000
    112427     21664  TIP3      H2             40.7500731508       27.7628494908      -23.8909466587  TIP3      20304           0.0000000000
    112428     21665  TIP3      OH2            35.9714954870       29.2976794042      -22.4292707865  TIP3      20305           0.0000000000
    112429     21665  TIP3      H1             36.8907496403       29.3552471907      -22.1050322682  TIP3      20305           0.0000000000
    112430     21665  TIP3      H2             35.9825422020       28.5854733045      -23.0930691568  TIP3      20305           0.0000000000
    112431     21666  TIP3      OH2            38.1788867543       18.6684237661      -22.5210309460  TIP3      20306           0.0000000000
    112432     21666  TIP3      H1             38.6814769078       18.0095424804      -23.0148801257  TIP3      20306           0.0000000000
    112433     21666  TIP3      H2             38.8172537939       18.8947198712      -21.8032795532  TIP3      20306           0.0000000000
    112434     21667  TIP3      OH2            38.0898327903       33.6597786394      -23.0656085443  TIP3      20307           0.0000000000
    112435     21667  TIP3      H1             37.7453844186       33.8493516888      -22.1613768175  TIP3      20307           0.0000000000
    112436     21667  TIP3      H2             38.7510130694       32.9844708992      -22.8417307124  TIP3      20307           0.0000000000
    112437     21668  TIP3      OH2           -24.1773574182       35.3396144625      -21.1447225010  TIP3      20308           0.0000000000
    112438     21668  TIP3      H1            -24.9344155731       35.3622934318      -20.5235417193  TIP3      20308           0.0000000000
    112439     21668  TIP3      H2            -23.8017083608       36.2166045303      -21.0219498016  TIP3      20308           0.0000000000
    112440     21669  TIP3      OH2           -30.7126166529       38.4340468391      -22.3105668211  TIP3      20309           0.0000000000
    112441     21669  TIP3      H1            -31.1401436643       38.3880733043      -21.4613010864  TIP3      20309           0.0000000000
    112442     21669  TIP3      H2            -31.1229591691       37.6454016996      -22.7470617015  TIP3      20309           0.0000000000
    112443     21670  TIP3      OH2           -33.9740585822       38.9006036785      -23.2589587817  TIP3      20310           0.0000000000
    112444     21670  TIP3      H1            -34.4329919973       38.4620128793      -22.5278977279  TIP3      20310           0.0000000000
    112445     21670  TIP3      H2            -34.6988954231       39.2706773177      -23.7769336267  TIP3      20310           0.0000000000
    112446     21671  TIP3      OH2           -28.1120757522       39.0553000631      -21.7200697373  TIP3      20311           0.0000000000
    112447     21671  TIP3      H1            -29.0417596679       39.1680358241      -22.0483409201  TIP3      20311           0.0000000000
    112448     21671  TIP3      H2            -27.7579578727       39.9258588388      -21.5174895707  TIP3      20311           0.0000000000
    112449     21672  TIP3      OH2           -24.7907520818       38.6316522384      -23.6351132969  TIP3      20312           0.0000000000
    112450     21672  TIP3      H1            -24.1629374811       38.5274222851      -22.9027010075  TIP3      20312           0.0000000000
    112451     21672  TIP3      H2            -25.6841564492       38.3262738522      -23.4055079746  TIP3      20312           0.0000000000
    112452     21673  TIP3      OH2           -22.6071726161       37.4896051954      -21.9795516142  TIP3      20313           0.0000000000
    112453     21673  TIP3      H1            -22.0859064039       36.8318158365      -22.4745198430  TIP3      20313           0.0000000000
    112454     21673  TIP3      H2            -21.9195898585       38.2108693443      -21.8984418475  TIP3      20313           0.0000000000
    112455     21674  TIP3      OH2           -11.8526599074       38.3653145345      -22.3741533452  TIP3      20314           0.0000000000
    112456     21674  TIP3      H1            -12.2482819240       38.4694429462      -21.5043129102  TIP3      20314           0.0000000000
    112457     21674  TIP3      H2            -12.3084744442       37.5814502399      -22.7308064907  TIP3      20314           0.0000000000
    112458     21675  TIP3      OH2           -15.1189703883       38.8525971330      -23.3102560833  TIP3      20315           0.0000000000
    112459     21675  TIP3      H1            -15.5367097366       38.4797188368      -22.4959240803  TIP3      20315           0.0000000000
    112460     21675  TIP3      H2            -15.8507854356       39.2547458001      -23.7804693576  TIP3      20315           0.0000000000
    112461     21676  TIP3      OH2           -20.7526826112       39.1880125900      -21.4814443246  TIP3      20316           0.0000000000
    112462     21676  TIP3      H1            -20.0608899112       39.8554494904      -21.5066122345  TIP3      20316           0.0000000000
    112463     21676  TIP3      H2            -21.1592187551       39.6271703459      -20.6813267594  TIP3      20316           0.0000000000
    112464     21677  TIP3      OH2            -9.2185017550       39.0748257105      -21.8257834148  TIP3      20317           0.0000000000
    112465     21677  TIP3      H1            -10.1856005271       39.1829539484      -21.9116024219  TIP3      20317           0.0000000000
    112466     21677  TIP3      H2             -8.9767472635       39.8995513957      -21.3940754862  TIP3      20317           0.0000000000
    112467     21678  TIP3      OH2            -5.9309255113       38.6248776275      -23.5862674236  TIP3      20318           0.0000000000
    112468     21678  TIP3      H1             -5.3446286765       38.2415343026      -22.9644188663  TIP3      20318           0.0000000000
    112469     21678  TIP3      H2             -6.8016354809       38.2364588541      -23.4277596267  TIP3      20318           0.0000000000
    112470     21679  TIP3      OH2            13.5553514542       35.3063499946      -20.8643672180  TIP3      20319           0.0000000000
    112471     21679  TIP3      H1             12.6314052084       35.3649721307      -20.5623714860  TIP3      20319           0.0000000000
    112472     21679  TIP3      H2             13.7074648430       36.1148939948      -21.3288395717  TIP3      20319           0.0000000000
    112473     21680  TIP3      OH2             6.8393566280       38.4657494882      -22.3786367337  TIP3      20320           0.0000000000
    112474     21680  TIP3      H1              6.6324784484       38.3750353313      -21.4455400084  TIP3      20320           0.0000000000
    112475     21680  TIP3      H2              6.6236147162       37.5647473766      -22.7049694602  TIP3      20320           0.0000000000
    112476     21681  TIP3      OH2            -1.7667095322       39.3098948949      -20.8444898775  TIP3      20321           0.0000000000
    112477     21681  TIP3      H1             -1.2743958345       39.9573105748      -21.3785756905  TIP3      20321           0.0000000000
    112478     21681  TIP3      H2             -2.4208107027       39.9223123635      -20.4574772941  TIP3      20321           0.0000000000
    112479     21682  TIP3      OH2             9.4310508663       38.9063382196      -22.1580597295  TIP3      20322           0.0000000000
    112480     21682  TIP3      H1              8.4783036851       39.0260555442      -21.9814978865  TIP3      20322           0.0000000000
    112481     21682  TIP3      H2              9.7918681203       39.7099566696      -21.8235425626  TIP3      20322           0.0000000000
    112482     21683  TIP3      OH2            12.9054467249       38.6620961570      -23.5526013231  TIP3      20323           0.0000000000
    112483     21683  TIP3      H1             13.5156454487       38.2230243998      -22.9782784973  TIP3      20323           0.0000000000
    112484     21683  TIP3      H2             12.0521538326       38.1987912780      -23.4572969497  TIP3      20323           0.0000000000
    112485     21684  TIP3      OH2            -1.4988468432       35.5741500908      -21.0164219429  TIP3      20324           0.0000000000
    112486     21684  TIP3      H1             -0.9176893917       36.1434418832      -21.5151132093  TIP3      20324           0.0000000000
    112487     21684  TIP3      H2             -2.0090834944       36.1333723102      -20.4408392420  TIP3      20324           0.0000000000
    112488     21685  TIP3      OH2            22.6094819931       38.9338588436      -23.2892969922  TIP3      20325           0.0000000000
    112489     21685  TIP3      H1             22.1944049941       38.4520115135      -22.5309027801  TIP3      20325           0.0000000000
    112490     21685  TIP3      H2             21.8586670115       39.2268190246      -23.8111926894  TIP3      20325           0.0000000000
    112491     21686  TIP3      OH2            21.6078877333       38.0182097776      -20.9535930840  TIP3      20326           0.0000000000
    112492     21686  TIP3      H1             21.5370706862       38.8535575891      -20.4749847013  TIP3      20326           0.0000000000
    112493     21686  TIP3      H2             22.4389212227       37.6881247582      -20.5669162991  TIP3      20326           0.0000000000
    112494     21687  TIP3      OH2            31.8072255108       38.6067745661      -23.6130483735  TIP3      20327           0.0000000000
    112495     21687  TIP3      H1             32.4329087033       38.2535801376      -22.9460439563  TIP3      20327           0.0000000000
    112496     21687  TIP3      H2             30.9606280614       38.2283952893      -23.3975930522  TIP3      20327           0.0000000000
    112497     21688  TIP3      OH2            33.8547814079       37.5044879432      -22.0285908837  TIP3      20328           0.0000000000
    112498     21688  TIP3      H1             34.3113419323       36.7951697395      -22.5180333562  TIP3      20328           0.0000000000
    112499     21688  TIP3      H2             34.5710260938       38.1585448734      -21.9016316728  TIP3      20328           0.0000000000
    112500     21689  TIP3      OH2            35.9062266912       39.1738961926      -20.8749427593  TIP3      20329           0.0000000000
    112501     21689  TIP3      H1             36.4325157243       39.8864332388      -21.3018974686  TIP3      20329           0.0000000000
    112502     21689  TIP3      H2             35.3057704415       39.8089701269      -20.4497765209  TIP3      20329           0.0000000000
    112503     21690  TIP3      OH2           -41.2195390173       38.0765753107      -21.2184805162  TIP3      20330           0.0000000000
    112504     21690  TIP3      H1            -41.0803397316       38.8681452330      -20.6550313311  TIP3      20330           0.0000000000
    112505     21690  TIP3      H2            -40.4369482110       37.6835712786      -20.7869615729  TIP3      20330           0.0000000000
    112506     21691  TIP3      OH2            35.9874301770       35.5458255104      -21.5781325591  TIP3      20331           0.0000000000
    112507     21691  TIP3      H1             36.7743793269       36.1131187287      -21.6327096654  TIP3      20331           0.0000000000
    112508     21691  TIP3      H2             35.6889402140       35.9174968818      -20.7229630922  TIP3      20331           0.0000000000
    112509     21692  TIP3      OH2            38.1280217825       37.4804839957      -22.5307957706  TIP3      20332           0.0000000000
    112510     21692  TIP3      H1             38.6818525045       36.8604099581      -23.0186017710  TIP3      20332           0.0000000000
    112511     21692  TIP3      H2             38.8072252057       37.7658038641      -21.8461128759  TIP3      20332           0.0000000000
    112512     21693  TIP3      OH2           -30.1105880417      -32.7759358524      -44.8357422688  TIP3      20333           0.0000000000
    112513     21693  TIP3      H1            -29.4088053698      -32.7389088316      -44.1717554868  TIP3      20333           0.0000000000
    112514     21693  TIP3      H2            -29.8038434084      -33.4678960553      -45.4187424822  TIP3      20333           0.0000000000
    112515     21694  TIP3      OH2           -24.1380985745      -40.0683755992      -43.2998887541  TIP3      20334           0.0000000000
    112516     21694  TIP3      H1            -25.0772606948      -40.0448928219      -43.0977734988  TIP3      20334           0.0000000000
    112517     21694  TIP3      H2            -23.9569427981      -39.2653271612      -43.7968366970  TIP3      20334           0.0000000000
    112518     21695  TIP3      OH2           -23.1180814594      -25.8614726047      -44.4389116397  TIP3      20335           0.0000000000
    112519     21695  TIP3      H1            -22.9987570106      -24.8973454106      -44.5685842950  TIP3      20335           0.0000000000
    112520     21695  TIP3      H2            -22.2419896483      -26.1408470032      -44.7674218989  TIP3      20335           0.0000000000
    112521     21696  TIP3      OH2           -27.5715520968      -23.0405595765      -44.2848440875  TIP3      20336           0.0000000000
    112522     21696  TIP3      H1            -27.1596835867      -23.7670676070      -44.7748941047  TIP3      20336           0.0000000000
    112523     21696  TIP3      H2            -27.5210551816      -23.3374329524      -43.3737548562  TIP3      20336           0.0000000000
    112524     21697  TIP3      OH2           -26.4389318165      -30.9798739802      -45.4328131154  TIP3      20337           0.0000000000
    112525     21697  TIP3      H1            -26.4463119554      -30.9800083333      -46.3990285314  TIP3      20337           0.0000000000
    112526     21697  TIP3      H2            -25.5780955373      -30.5195412735      -45.4044696645  TIP3      20337           0.0000000000
    112527     21698  TIP3      OH2           -30.7538252782      -37.0069770155      -44.8716064431  TIP3      20338           0.0000000000
    112528     21698  TIP3      H1            -31.1209297624      -36.9447093628      -43.9782296922  TIP3      20338           0.0000000000
    112529     21698  TIP3      H2            -31.0910259019      -37.8516041892      -45.1772757674  TIP3      20338           0.0000000000
    112530     21699  TIP3      OH2           -35.3598463357      -33.7402877565      -44.3592516541  TIP3      20339           0.0000000000
    112531     21699  TIP3      H1            -35.8344278913      -34.1884908247      -45.0759806032  TIP3      20339           0.0000000000
    112532     21699  TIP3      H2            -34.5058390652      -33.5834187822      -44.7973455648  TIP3      20339           0.0000000000
    112533     21700  TIP3      OH2           -28.1143735782      -36.3674782935      -44.4457232632  TIP3      20340           0.0000000000
    112534     21700  TIP3      H1            -29.0848788090      -36.2896834146      -44.3886022438  TIP3      20340           0.0000000000
    112535     21700  TIP3      H2            -27.7897206815      -35.6334839174      -43.8815457729  TIP3      20340           0.0000000000
    112536     21701  TIP3      OH2           -27.3997121936      -34.4269115311      -42.5987684176  TIP3      20341           0.0000000000
    112537     21701  TIP3      H1            -26.4882723778      -34.6551979581      -42.3431698576  TIP3      20341           0.0000000000
    112538     21701  TIP3      H2            -27.2543756272      -33.6991436614      -43.1924874988  TIP3      20341           0.0000000000
    112539     21702  TIP3      OH2           -38.7839333101      -31.5316244669      -44.7640732755  TIP3      20342           0.0000000000
    112540     21702  TIP3      H1            -38.1460298228      -30.9729772214      -44.2888046974  TIP3      20342           0.0000000000
    112541     21702  TIP3      H2            -39.6157204256      -31.2017155087      -44.4148454282  TIP3      20342           0.0000000000
    112542     21703  TIP3      OH2           -26.8199228974      -27.5410036458      -44.6420129357  TIP3      20343           0.0000000000
    112543     21703  TIP3      H1            -26.4825549073      -27.8922093603      -43.8308297373  TIP3      20343           0.0000000000
    112544     21703  TIP3      H2            -27.7682636111      -27.6504248650      -44.5369296584  TIP3      20343           0.0000000000
    112545     21704  TIP3      OH2           -22.3534995518      -23.0829755003      -44.4719371884  TIP3      20344           0.0000000000
    112546     21704  TIP3      H1            -21.5552525807      -22.5401923969      -44.4880942553  TIP3      20344           0.0000000000
    112547     21704  TIP3      H2            -23.0248806137      -22.4645498301      -44.1307632530  TIP3      20344           0.0000000000
    112548     21705  TIP3      OH2           -36.7449049212      -27.0446064521      -44.3003920223  TIP3      20345           0.0000000000
    112549     21705  TIP3      H1            -36.1371553179      -26.3429775955      -44.0056676781  TIP3      20345           0.0000000000
    112550     21705  TIP3      H2            -36.2300673637      -27.4098829997      -45.0194482176  TIP3      20345           0.0000000000
    112551     21706  TIP3      OH2           -38.4120462636      -34.3093987268      -45.2521265343  TIP3      20346           0.0000000000
    112552     21706  TIP3      H1            -38.4387363899      -33.3626857564      -45.0181441337  TIP3      20346           0.0000000000
    112553     21706  TIP3      H2            -39.2897366975      -34.5940503461      -45.4973495904  TIP3      20346           0.0000000000
    112554     21707  TIP3      OH2           -32.8922054086      -32.5911863232      -45.3530582033  TIP3      20347           0.0000000000
    112555     21707  TIP3      H1            -33.0659920662      -32.7570315573      -46.2984482168  TIP3      20347           0.0000000000
    112556     21707  TIP3      H2            -31.9317674261      -32.4999966141      -45.3001293610  TIP3      20347           0.0000000000
    112557     21708  TIP3      OH2           -33.0058758117      -21.8688982809      -44.2575487112  TIP3      20348           0.0000000000
    112558     21708  TIP3      H1            -32.0498948026      -21.8066390368      -44.2729554268  TIP3      20348           0.0000000000
    112559     21708  TIP3      H2            -33.2621982343      -21.3119336512      -44.9984748890  TIP3      20348           0.0000000000
    112560     21709  TIP3      OH2           -39.4353995151      -27.4341335793      -44.7794424738  TIP3      20349           0.0000000000
    112561     21709  TIP3      H1            -38.4977076290      -27.1830226260      -44.6185305700  TIP3      20349           0.0000000000
    112562     21709  TIP3      H2            -39.3777890048      -27.9272241382      -45.5967773478  TIP3      20349           0.0000000000
    112563     21710  TIP3      OH2           -24.0507968557      -34.2121774745      -45.1785953309  TIP3      20350           0.0000000000
    112564     21710  TIP3      H1            -24.0217301880      -33.5617948317      -45.8762403904  TIP3      20350           0.0000000000
    112565     21710  TIP3      H2            -24.1753931322      -35.0502119777      -45.6569647036  TIP3      20350           0.0000000000
    112566     21711  TIP3      OH2           -22.6439765874      -37.9250866704      -44.5022905022  TIP3      20351           0.0000000000
    112567     21711  TIP3      H1            -22.2957052045      -38.6380793505      -45.0519274548  TIP3      20351           0.0000000000
    112568     21711  TIP3      H2            -21.9631775711      -37.2569018770      -44.4710335131  TIP3      20351           0.0000000000
    112569     21712  TIP3      OH2           -39.0246305968      -39.6479764766      -43.3662182202  TIP3      20352           0.0000000000
    112570     21712  TIP3      H1            -38.6922363682      -39.0695263186      -44.0538269250  TIP3      20352           0.0000000000
    112571     21712  TIP3      H2            -39.8039915976      -39.2454878822      -42.9841447388  TIP3      20352           0.0000000000
    112572     21713  TIP3      OH2           -37.0873280984      -37.6196509858      -44.8398160787  TIP3      20353           0.0000000000
    112573     21713  TIP3      H1            -36.7180883812      -38.2353365116      -45.4732517849  TIP3      20353           0.0000000000
    112574     21713  TIP3      H2            -36.4265421699      -37.5740406788      -44.1534101464  TIP3      20353           0.0000000000
    112575     21714  TIP3      OH2           -37.4418350680      -23.1150655440      -45.4751394243  TIP3      20354           0.0000000000
    112576     21714  TIP3      H1            -37.6933179963      -22.7678715428      -44.6075033604  TIP3      20354           0.0000000000
    112577     21714  TIP3      H2            -36.5922838281      -23.5613300752      -45.3512154692  TIP3      20354           0.0000000000
    112578     21715  TIP3      OH2           -11.2562139698      -32.7764719657      -44.8361993143  TIP3      20355           0.0000000000
    112579     21715  TIP3      H1            -10.5550600805      -32.7411800327      -44.1725426943  TIP3      20355           0.0000000000
    112580     21715  TIP3      H2            -10.9478100986      -33.4679632109      -45.4189359822  TIP3      20355           0.0000000000
    112581     21716  TIP3      OH2            -5.2792702476      -40.0589403501      -43.2983766188  TIP3      20356           0.0000000000
    112582     21716  TIP3      H1             -6.2199990862      -40.0513898678      -43.0990378308  TIP3      20356           0.0000000000
    112583     21716  TIP3      H2             -5.1033177587      -39.2543100563      -43.7971758768  TIP3      20356           0.0000000000
    112584     21717  TIP3      OH2            -4.2656273028      -25.8483025426      -44.4569105125  TIP3      20357           0.0000000000
    112585     21717  TIP3      H1             -4.1413912842      -24.8863482229      -44.5576490583  TIP3      20357           0.0000000000
    112586     21717  TIP3      H2             -3.3874843043      -26.1470446055      -44.7539529342  TIP3      20357           0.0000000000
    112587     21718  TIP3      OH2            -8.7102743184      -23.0543289301      -44.2798444972  TIP3      20358           0.0000000000
    112588     21718  TIP3      H1             -8.2960382558      -23.7819356290      -44.7646930566  TIP3      20358           0.0000000000
    112589     21718  TIP3      H2             -8.6550789832      -23.3535592810      -43.3677647977  TIP3      20358           0.0000000000
    112590     21719  TIP3      OH2            -7.5851407358      -31.0025688930      -45.4472006581  TIP3      20359           0.0000000000
    112591     21719  TIP3      H1             -7.5752158668      -30.9720554228      -46.4096490260  TIP3      20359           0.0000000000
    112592     21719  TIP3      H2             -6.7423922506      -30.5144224434      -45.3816563221  TIP3      20359           0.0000000000
    112593     21720  TIP3      OH2           -11.8995104452      -37.0033400427      -44.8724393005  TIP3      20360           0.0000000000
    112594     21720  TIP3      H1            -12.2637679025      -36.9441921843      -43.9782895985  TIP3      20360           0.0000000000
    112595     21720  TIP3      H2            -12.2305987038      -37.8475429058      -45.1757835036  TIP3      20360           0.0000000000
    112596     21721  TIP3      OH2           -16.5124606564      -33.7376609567      -44.3510335463  TIP3      20361           0.0000000000
    112597     21721  TIP3      H1            -16.9746402824      -34.1873437439      -45.0724801693  TIP3      20361           0.0000000000
    112598     21721  TIP3      H2            -15.6577503418      -33.5776943985      -44.7870080577  TIP3      20361           0.0000000000
    112599     21722  TIP3      OH2            -9.2579653768      -36.3563910971      -44.4471104627  TIP3      20362           0.0000000000
    112600     21722  TIP3      H1            -10.2287055531      -36.2880850986      -44.3865825030  TIP3      20362           0.0000000000
    112601     21722  TIP3      H2             -8.9323881182      -35.6270804686      -43.8798769648  TIP3      20362           0.0000000000
    112602     21723  TIP3      OH2            -8.5405866901      -34.4273019100      -42.6080280594  TIP3      20363           0.0000000000
    112603     21723  TIP3      H1             -7.6315497951      -34.6550141716      -42.3444255159  TIP3      20363           0.0000000000
    112604     21723  TIP3      H2             -8.3928763071      -33.6845110460      -43.1824958937  TIP3      20363           0.0000000000
    112605     21724  TIP3      OH2           -19.9012925113      -31.4681740245      -44.8179233359  TIP3      20364           0.0000000000
    112606     21724  TIP3      H1            -19.2718819861      -30.9739121585      -44.2725853069  TIP3      20364           0.0000000000
    112607     21724  TIP3      H2            -20.7320195298      -31.1888872066      -44.4279523440  TIP3      20364           0.0000000000
    112608     21725  TIP3      OH2            -7.9682488473      -27.5432910652      -44.6505064956  TIP3      20365           0.0000000000
    112609     21725  TIP3      H1             -7.5866234129      -27.8588174253      -43.8255684187  TIP3      20365           0.0000000000
    112610     21725  TIP3      H2             -8.9063551918      -27.6585356112      -44.5044036993  TIP3      20365           0.0000000000
    112611     21726  TIP3      OH2            -3.4975280860      -23.0828919767      -44.4713029203  TIP3      20366           0.0000000000
    112612     21726  TIP3      H1             -2.6991702312      -22.5402027573      -44.4881446142  TIP3      20366           0.0000000000
    112613     21726  TIP3      H2             -4.1689176838      -22.4642424388      -44.1306635182  TIP3      20366           0.0000000000
    112614     21727  TIP3      OH2           -17.8608617577      -27.0084561315      -44.3043734886  TIP3      20367           0.0000000000
    112615     21727  TIP3      H1            -17.2215161475      -26.3466551102      -43.9967285070  TIP3      20367           0.0000000000
    112616     21727  TIP3      H2            -17.3698261846      -27.4151449236      -45.0170275355  TIP3      20367           0.0000000000
    112617     21728  TIP3      OH2           -19.5517997405      -34.2902657722      -45.2319675336  TIP3      20368           0.0000000000
    112618     21728  TIP3      H1            -19.6075711102      -33.3501549843      -44.9963281305  TIP3      20368           0.0000000000
    112619     21728  TIP3      H2            -20.4404988108      -34.5457742229      -45.4627777547  TIP3      20368           0.0000000000
    112620     21729  TIP3      OH2           -14.0312774596      -32.5937848064      -45.3533873704  TIP3      20369           0.0000000000
    112621     21729  TIP3      H1            -14.2070772788      -32.7579507740      -46.2986345744  TIP3      20369           0.0000000000
    112622     21729  TIP3      H2            -13.0694951349      -32.4998130460      -45.3009984640  TIP3      20369           0.0000000000
    112623     21730  TIP3      OH2           -14.1519892793      -21.8672836653      -44.2546094231  TIP3      20370           0.0000000000
    112624     21730  TIP3      H1            -13.1955282721      -21.8085043252      -44.2737824100  TIP3      20370           0.0000000000
    112625     21730  TIP3      H2            -14.4062707125      -21.3113864816      -44.9963092922  TIP3      20370           0.0000000000
    112626     21731  TIP3      OH2           -20.5628974048      -27.3407388799      -44.7790712201  TIP3      20371           0.0000000000
    112627     21731  TIP3      H1            -19.6153313311      -27.2022685616      -44.6098538532  TIP3      20371           0.0000000000
    112628     21731  TIP3      H2            -20.5668652274      -27.9395631948      -45.5296043226  TIP3      20371           0.0000000000
    112629     21732  TIP3      OH2            -5.1939285603      -34.2123550876      -45.1796358414  TIP3      20372           0.0000000000
    112630     21732  TIP3      H1             -5.1654360832      -33.5613463099      -45.8769476786  TIP3      20372           0.0000000000
    112631     21732  TIP3      H2             -5.3169332432      -35.0502058593      -45.6585619171  TIP3      20372           0.0000000000
    112632     21733  TIP3      OH2            -3.7884334898      -37.9232292611      -44.4982502237  TIP3      20373           0.0000000000
    112633     21733  TIP3      H1             -3.4388109521      -38.6382659366      -45.0473969736  TIP3      20373           0.0000000000
    112634     21733  TIP3      H2             -3.1063830020      -37.2552365384      -44.4785390116  TIP3      20373           0.0000000000
    112635     21734  TIP3      OH2           -20.0991164636      -39.7563810537      -43.4036232220  TIP3      20374           0.0000000000
    112636     21734  TIP3      H1            -19.8453245434      -39.0768698313      -44.0389524263  TIP3      20374           0.0000000000
    112637     21734  TIP3      H2            -20.8702160934      -39.3385585563      -42.9680307079  TIP3      20374           0.0000000000
    112638     21735  TIP3      OH2           -18.2427267190      -37.7065729190      -44.7867716822  TIP3      20375           0.0000000000
    112639     21735  TIP3      H1            -17.8150071436      -38.1882673492      -45.4992851663  TIP3      20375           0.0000000000
    112640     21735  TIP3      H2            -17.5383189317      -37.5085776682      -44.1778124001  TIP3      20375           0.0000000000
    112641     21736  TIP3      OH2           -18.5549361719      -23.1206320680      -45.4940123377  TIP3      20376           0.0000000000
    112642     21736  TIP3      H1            -18.8249412927      -22.7800645535      -44.6318020399  TIP3      20376           0.0000000000
    112643     21736  TIP3      H2            -17.7129935824      -23.5687298654      -45.3490116094  TIP3      20376           0.0000000000
    112644     21737  TIP3      OH2             7.6001147115      -32.7755872403      -44.8366903526  TIP3      20377           0.0000000000
    112645     21737  TIP3      H1              8.2996679171      -32.7425128623      -44.1709409241  TIP3      20377           0.0000000000
    112646     21737  TIP3      H2              7.9081437044      -33.4684305578      -45.4180186968  TIP3      20377           0.0000000000
    112647     21738  TIP3      OH2            13.5729125904      -40.0684481974      -43.2988090802  TIP3      20378           0.0000000000
    112648     21738  TIP3      H1             12.6340518744      -40.0446460825      -43.0975276234  TIP3      20378           0.0000000000
    112649     21738  TIP3      H2             13.7562633757      -39.2665143902      -43.7969850086  TIP3      20378           0.0000000000
    112650     21739  TIP3      OH2            14.5907961899      -25.8469182763      -44.4588114118  TIP3      20379           0.0000000000
    112651     21739  TIP3      H1             14.7106275293      -24.8845721209      -44.5587645366  TIP3      20379           0.0000000000
    112652     21739  TIP3      H2             15.4732681125      -26.1293107124      -44.7524718175  TIP3      20379           0.0000000000
    112653     21740  TIP3      OH2            10.1512484956      -23.0548601204      -44.2720974247  TIP3      20380           0.0000000000
    112654     21740  TIP3      H1             10.5572080241      -23.7815262450      -44.7659507543  TIP3      20380           0.0000000000
    112655     21740  TIP3      H2             10.2022904396      -23.3660211400      -43.3656176014  TIP3      20380           0.0000000000
    112656     21741  TIP3      OH2            11.2726163854      -31.0339636371      -45.4431593733  TIP3      20381           0.0000000000
    112657     21741  TIP3      H1             11.2562120223      -30.9623827946      -46.4072276200  TIP3      20381           0.0000000000
    112658     21741  TIP3      H2             12.0828180308      -30.4851522126      -45.3839565288  TIP3      20381           0.0000000000
    112659     21742  TIP3      OH2             6.9584826013      -37.0073094472      -44.8718853416  TIP3      20382           0.0000000000
    112660     21742  TIP3      H1              6.5923924108      -36.9455998147      -43.9787308360  TIP3      20382           0.0000000000
    112661     21742  TIP3      H2              6.6229678500      -37.8521677783      -45.1762016970  TIP3      20382           0.0000000000
    112662     21743  TIP3      OH2             2.3436230822      -33.7302061932      -44.3530103865  TIP3      20383           0.0000000000
    112663     21743  TIP3      H1              1.8821237965      -34.1891721707      -45.0706192286  TIP3      20383           0.0000000000
    112664     21743  TIP3      H2              3.1996209572      -33.5781110112      -44.7877930797  TIP3      20383           0.0000000000
    112665     21744  TIP3      OH2             9.5985657193      -36.3672985124      -44.4425476696  TIP3      20384           0.0000000000
    112666     21744  TIP3      H1              8.6293765439      -36.2840276950      -44.3881299542  TIP3      20384           0.0000000000
    112667     21744  TIP3      H2              9.9234738784      -35.6307077722      -43.8816306809  TIP3      20384           0.0000000000
    112668     21745  TIP3      OH2            10.3138976722      -34.4303092161      -42.6082644134  TIP3      20385           0.0000000000
    112669     21745  TIP3      H1             11.2246593178      -34.6511149597      -42.3447531708  TIP3      20385           0.0000000000
    112670     21745  TIP3      H2             10.4511149556      -33.6830172366      -43.1784889116  TIP3      20385           0.0000000000
    112671     21746  TIP3      OH2            -1.0510893270      -31.4645647253      -44.8156939092  TIP3      20386           0.0000000000
    112672     21746  TIP3      H1             -0.4163255838      -30.9736564694      -44.2725492326  TIP3      20386           0.0000000000
    112673     21746  TIP3      H2             -1.8813295680      -31.1827593947      -44.4183936316  TIP3      20386           0.0000000000
    112674     21747  TIP3      OH2            10.8847155206      -27.5447212239      -44.6522322203  TIP3      20387           0.0000000000
    112675     21747  TIP3      H1             11.2751136585      -27.8564109764      -43.8275964833  TIP3      20387           0.0000000000
    112676     21747  TIP3      H2              9.9456703809      -27.6505256128      -44.5006787329  TIP3      20387           0.0000000000
    112677     21748  TIP3      OH2            15.3574656585      -23.0852618336      -44.4709242198  TIP3      20388           0.0000000000
    112678     21748  TIP3      H1             16.1581098504      -22.5410582181      -44.4891814247  TIP3      20388           0.0000000000
    112679     21748  TIP3      H2             14.6874637927      -22.4648631156      -44.1310526841  TIP3      20388           0.0000000000
    112680     21749  TIP3      OH2             0.9919466001      -27.0067695850      -44.3064748019  TIP3      20389           0.0000000000
    112681     21749  TIP3      H1              1.6312322877      -26.3472777914      -43.9971127719  TIP3      20389           0.0000000000
    112682     21749  TIP3      H2              1.4954731842      -27.4169967162      -45.0057547628  TIP3      20389           0.0000000000
    112683     21750  TIP3      OH2            -0.6980567220      -34.2889700052      -45.2316816947  TIP3      20390           0.0000000000
    112684     21750  TIP3      H1             -0.7552205830      -33.3483592192      -44.9929001847  TIP3      20390           0.0000000000
    112685     21750  TIP3      H2             -1.5828721914      -34.5466529803      -45.4625796668  TIP3      20390           0.0000000000
    112686     21751  TIP3      OH2             4.8220266729      -32.5929140513      -45.3537740062  TIP3      20391           0.0000000000
    112687     21751  TIP3      H1              4.6502477775      -32.7628014677      -46.2977226644  TIP3      20391           0.0000000000
    112688     21751  TIP3      H2              5.7838064748      -32.4997668391      -45.2974530720  TIP3      20391           0.0000000000
    112689     21752  TIP3      OH2             4.7066464461      -21.8703225836      -44.2574264735  TIP3      20392           0.0000000000
    112690     21752  TIP3      H1              5.6652449893      -21.8053835994      -44.2831301283  TIP3      20392           0.0000000000
    112691     21752  TIP3      H2              4.4619885063      -21.3127681263      -45.0065950820  TIP3      20392           0.0000000000
    112692     21753  TIP3      OH2            -1.6911643745      -27.2962929599      -44.8058219978  TIP3      20393           0.0000000000
    112693     21753  TIP3      H1             -0.7438137190      -27.2106946090      -44.6139786930  TIP3      20393           0.0000000000
    112694     21753  TIP3      H2             -1.7474293329      -27.9642818976      -45.4901047476  TIP3      20393           0.0000000000
    112695     21754  TIP3      OH2            13.7489266791      -34.1655767010      -45.2074755182  TIP3      20394           0.0000000000
    112696     21754  TIP3      H1             13.6026537708      -33.5943034250      -45.9492392365  TIP3      20394           0.0000000000
    112697     21754  TIP3      H2             13.5224655550      -35.0365931169      -45.6066368084  TIP3      20394           0.0000000000
    112698     21755  TIP3      OH2            15.0636131694      -37.9288222165      -44.5017556217  TIP3      20395           0.0000000000
    112699     21755  TIP3      H1             15.4174005443      -38.6399302656      -45.0497116337  TIP3      20395           0.0000000000
    112700     21755  TIP3      H2             15.7509521410      -37.2714211933      -44.4629352579  TIP3      20395           0.0000000000
    112701     21756  TIP3      OH2            -1.3073284262      -39.7650149008      -43.4233947864  TIP3      20396           0.0000000000
    112702     21756  TIP3      H1             -0.9590570938      -39.0947402681      -44.0201756790  TIP3      20396           0.0000000000
    112703     21756  TIP3      H2             -2.0273544374      -39.3144890227      -42.9584253218  TIP3      20396           0.0000000000
    112704     21757  TIP3      OH2             0.6315856284      -37.6420603508      -44.8302468044  TIP3      20397           0.0000000000
    112705     21757  TIP3      H1              1.0307894841      -38.2281706616      -45.4741356599  TIP3      20397           0.0000000000
    112706     21757  TIP3      H2              1.3004906294      -37.5611026853      -44.1588071171  TIP3      20397           0.0000000000
    112707     21758  TIP3      OH2             0.3006191370      -23.0995551371      -45.4844350420  TIP3      20398           0.0000000000
    112708     21758  TIP3      H1              0.0283475550      -22.7771720994      -44.6176023734  TIP3      20398           0.0000000000
    112709     21758  TIP3      H2              1.1358510817      -23.5626413793      -45.3471523649  TIP3      20398           0.0000000000
    112710     21759  TIP3      OH2            26.4315298291      -32.8158058272      -44.8154218847  TIP3      20399           0.0000000000
    112711     21759  TIP3      H1             27.1519456517      -32.7417744571      -44.1739261822  TIP3      20399           0.0000000000
    112712     21759  TIP3      H2             26.7766416109      -33.4560849844      -45.4294407115  TIP3      20399           0.0000000000
    112713     21760  TIP3      OH2            32.4291728430      -40.0661612423      -43.2926651206  TIP3      20400           0.0000000000
    112714     21760  TIP3      H1             31.4885052677      -40.0442155304      -43.1024850453  TIP3      20400           0.0000000000
    112715     21760  TIP3      H2             32.6133394151      -39.2675144735      -43.7973401142  TIP3      20400           0.0000000000
    112716     21761  TIP3      OH2            33.4491284319      -25.8473739066      -44.4672753035  TIP3      20401           0.0000000000
    112717     21761  TIP3      H1             33.5684282495      -24.8855980168      -44.5633099838  TIP3      20401           0.0000000000
    112718     21761  TIP3      H2             34.3289549864      -26.1462136683      -44.7543403089  TIP3      20401           0.0000000000
    112719     21762  TIP3      OH2            29.0311082125      -23.0429088789      -44.2803881035  TIP3      20402           0.0000000000
    112720     21762  TIP3      H1             29.3905620084      -23.7998445847      -44.7737976726  TIP3      20402           0.0000000000
    112721     21762  TIP3      H2             29.0517845305      -23.3758063120      -43.3782160237  TIP3      20402           0.0000000000
    112722     21763  TIP3      OH2            30.1432632882      -31.0314453855      -45.4616075364  TIP3      20403           0.0000000000
    112723     21763  TIP3      H1             30.1284376799      -30.9507255987      -46.4245771249  TIP3      20403           0.0000000000
    112724     21763  TIP3      H2             30.9589639631      -30.4983878583      -45.3881378906  TIP3      20403           0.0000000000
    112725     21764  TIP3      OH2            25.8151618998      -37.0079576310      -44.8719872614  TIP3      20404           0.0000000000
    112726     21764  TIP3      H1             25.4478505031      -36.9450009902      -43.9786795245  TIP3      20404           0.0000000000
    112727     21764  TIP3      H2             25.4855361537      -37.8559764886      -45.1761657750  TIP3      20404           0.0000000000
    112728     21765  TIP3      OH2            21.1814972478      -33.7145409408      -44.3595729881  TIP3      20405           0.0000000000
    112729     21765  TIP3      H1             20.7537052060      -34.2041547215      -45.0749860052  TIP3      20405           0.0000000000
    112730     21765  TIP3      H2             22.0497893024      -33.5746983582      -44.7796283900  TIP3      20405           0.0000000000
    112731     21766  TIP3      OH2            28.4528789296      -36.3708721923      -44.4377186516  TIP3      20406           0.0000000000
    112732     21766  TIP3      H1             27.4842134356      -36.2859217488      -44.3884537778  TIP3      20406           0.0000000000
    112733     21766  TIP3      H2             28.7792517722      -35.6302314120      -43.8833420563  TIP3      20406           0.0000000000
    112734     21767  TIP3      OH2            29.1730605206      -34.4295009334      -42.6041500006  TIP3      20407           0.0000000000
    112735     21767  TIP3      H1             30.0836378664      -34.6522351782      -42.3460090619  TIP3      20407           0.0000000000
    112736     21767  TIP3      H2             29.3184316689      -33.6860330886      -43.1820486893  TIP3      20407           0.0000000000
    112737     21768  TIP3      OH2            17.7691992786      -31.4342058955      -44.7979197428  TIP3      20408           0.0000000000
    112738     21768  TIP3      H1             18.4959708437      -31.0089057011      -44.2933844153  TIP3      20408           0.0000000000
    112739     21768  TIP3      H2             17.0562249505      -31.0890988517      -44.2663855697  TIP3      20408           0.0000000000
    112740     21769  TIP3      OH2            29.9028488917      -27.1956067468      -44.0034053712  TIP3      20409           0.0000000000
    112741     21769  TIP3      H1             30.1910217730      -28.0341194935      -43.6801563137  TIP3      20409           0.0000000000
    112742     21769  TIP3      H2             29.1002273445      -27.5034790518      -44.4921775873  TIP3      20409           0.0000000000
    112743     21770  TIP3      OH2            34.2230576601      -23.0749993110      -44.4725739441  TIP3      20410           0.0000000000
    112744     21770  TIP3      H1             35.0170181906      -22.5323617205      -44.4854605601  TIP3      20410           0.0000000000
    112745     21770  TIP3      H2             33.5392147530      -22.4706931681      -44.1302163233  TIP3      20410           0.0000000000
    112746     21771  TIP3      OH2            19.8533416678      -27.0065329560      -44.3074602197  TIP3      20411           0.0000000000
    112747     21771  TIP3      H1             20.4921038647      -26.3461301356      -43.9954840465  TIP3      20411           0.0000000000
    112748     21771  TIP3      H2             20.3494995409      -27.4152322136      -45.0171255199  TIP3      20411           0.0000000000
    112749     21772  TIP3      OH2            18.1563814805      -34.2871409457      -45.2425698909  TIP3      20412           0.0000000000
    112750     21772  TIP3      H1             18.1239414804      -33.3600293633      -44.9799070115  TIP3      20412           0.0000000000
    112751     21772  TIP3      H2             17.2857937760      -34.5967525456      -45.4785692842  TIP3      20412           0.0000000000
    112752     21773  TIP3      OH2            23.6788588317      -32.5878376624      -45.3528321671  TIP3      20413           0.0000000000
    112753     21773  TIP3      H1             23.5030349566      -32.7569766565      -46.2976448937  TIP3      20413           0.0000000000
    112754     21773  TIP3      H2             24.6415012438      -32.4850844934      -45.2999536378  TIP3      20413           0.0000000000
    112755     21774  TIP3      OH2            23.5602672981      -21.8724535541      -44.2613890657  TIP3      20414           0.0000000000
    112756     21774  TIP3      H1             24.5173098234      -21.8082104536      -44.2760901863  TIP3      20414           0.0000000000
    112757     21774  TIP3      H2             23.2991815069      -21.3095999905      -44.9969848898  TIP3      20414           0.0000000000
    112758     21775  TIP3      OH2            17.1520540253      -27.3605681271      -44.7850163818  TIP3      20415           0.0000000000
    112759     21775  TIP3      H1             18.0975597392      -27.1908312579      -44.6158825509  TIP3      20415           0.0000000000
    112760     21775  TIP3      H2             17.1563270854      -27.9304296058      -45.5492472088  TIP3      20415           0.0000000000
    112761     21776  TIP3      OH2            32.5322463659      -34.2222076631      -45.1654425941  TIP3      20416           0.0000000000
    112762     21776  TIP3      H1             32.5510342655      -33.5710867874      -45.8657165454  TIP3      20416           0.0000000000
    112763     21776  TIP3      H2             32.3849671534      -35.0515102419      -45.6494889851  TIP3      20416           0.0000000000
    112764     21777  TIP3      OH2            33.9265774273      -37.9223496542      -44.4949163366  TIP3      20417           0.0000000000
    112765     21777  TIP3      H1             34.2704954907      -38.6391337847      -45.0445005745  TIP3      20417           0.0000000000
    112766     21777  TIP3      H2             34.6150206277      -37.2599658000      -44.4790837859  TIP3      20417           0.0000000000
    112767     21778  TIP3      OH2            17.5493393878      -39.7646189023      -43.4226264378  TIP3      20418           0.0000000000
    112768     21778  TIP3      H1             17.8970804343      -39.0957245454      -44.0196570397  TIP3      20418           0.0000000000
    112769     21778  TIP3      H2             16.8283117883      -39.3154047472      -42.9583085689  TIP3      20418           0.0000000000
    112770     21779  TIP3      OH2            19.4875295982      -37.6419188481      -44.8305845084  TIP3      20419           0.0000000000
    112771     21779  TIP3      H1             19.8867048689      -38.2285462247      -45.4738596244  TIP3      20419           0.0000000000
    112772     21779  TIP3      H2             20.1559442942      -37.5611766480      -44.1584427904  TIP3      20419           0.0000000000
    112773     21780  TIP3      OH2            19.1577436228      -23.1199081218      -45.4943008155  TIP3      20420           0.0000000000
    112774     21780  TIP3      H1             18.8874062469      -22.7820421290      -44.6308635786  TIP3      20420           0.0000000000
    112775     21780  TIP3      H2             19.9992845237      -23.5685501420      -45.3491422941  TIP3      20420           0.0000000000
    112776     21781  TIP3      OH2            40.0973694988      -33.7508530172      -44.3979668131  TIP3      20421           0.0000000000
    112777     21781  TIP3      H1             39.5311405627      -34.1640950427      -45.0709845730  TIP3      20421           0.0000000000
    112778     21781  TIP3      H2             40.9216429837      -33.5856049910      -44.8439789371  TIP3      20421           0.0000000000
    112779     21782  TIP3      OH2            36.6570035894      -31.4678269557      -44.8043053406  TIP3      20422           0.0000000000
    112780     21782  TIP3      H1             37.2967721040      -30.9603015285      -44.2797491258  TIP3      20422           0.0000000000
    112781     21782  TIP3      H2             35.8252203017      -31.1783996620      -44.4187822194  TIP3      20422           0.0000000000
    112782     21783  TIP3      OH2           -40.9835431528      -37.4663053554      -43.3018336573  TIP3      20423           0.0000000000
    112783     21783  TIP3      H1            -41.0727878212      -36.5337493034      -43.0511198562  TIP3      20423           0.0000000000
    112784     21783  TIP3      H2            -40.0622090582      -37.6303039820      -43.1472957090  TIP3      20423           0.0000000000
    112785     21784  TIP3      OH2            38.7022680864      -27.0279579839      -44.3114838807  TIP3      20424           0.0000000000
    112786     21784  TIP3      H1             39.3400530299      -26.3518279223      -44.0312781585  TIP3      20424           0.0000000000
    112787     21784  TIP3      H2             39.2164060250      -27.4098430782      -45.0242297523  TIP3      20424           0.0000000000
    112788     21785  TIP3      OH2            37.0313051498      -34.3008781588      -45.1902306054  TIP3      20425           0.0000000000
    112789     21785  TIP3      H1             36.9578972622      -33.3508404668      -44.9996123786  TIP3      20425           0.0000000000
    112790     21785  TIP3      H2             36.1498337268      -34.5650504394      -45.4508749121  TIP3      20425           0.0000000000
    112791     21786  TIP3      OH2            36.0057797876      -27.3167123502      -44.7952926253  TIP3      20426           0.0000000000
    112792     21786  TIP3      H1             36.9552720397      -27.2030391162      -44.6227543791  TIP3      20426           0.0000000000
    112793     21786  TIP3      H2             35.9757556396      -27.9528039264      -45.5138064320  TIP3      20426           0.0000000000
    112794     21787  TIP3      OH2            36.3993649466      -39.7754722227      -43.4292327870  TIP3      20427           0.0000000000
    112795     21787  TIP3      H1             36.7673720010      -39.1110123196      -44.0195539673  TIP3      20427           0.0000000000
    112796     21787  TIP3      H2             35.7096278917      -39.3008971560      -42.9474134401  TIP3      20427           0.0000000000
    112797     21788  TIP3      OH2            38.3528295514      -37.6166442853      -44.8439010953  TIP3      20428           0.0000000000
    112798     21788  TIP3      H1             38.7614981893      -38.2425130577      -45.4458708653  TIP3      20428           0.0000000000
    112799     21788  TIP3      H2             39.0279902120      -37.5826182466      -44.1450889619  TIP3      20428           0.0000000000
    112800     21789  TIP3      OH2            38.0020309937      -23.1012100071      -45.4877876772  TIP3      20429           0.0000000000
    112801     21789  TIP3      H1             37.7428838653      -22.7858839230      -44.6178537261  TIP3      20429           0.0000000000
    112802     21789  TIP3      H2             38.8474342212      -23.5624827372      -45.3628732780  TIP3      20429           0.0000000000
    112803     21790  TIP3      OH2           -30.1088266984      -13.9168469994      -44.8376821112  TIP3      20430           0.0000000000
    112804     21790  TIP3      H1            -29.4092578622      -13.8875656916      -44.1710282189  TIP3      20430           0.0000000000
    112805     21790  TIP3      H2            -29.8030990734      -14.6090764565      -45.4208733943  TIP3      20430           0.0000000000
    112806     21791  TIP3      OH2           -24.1226366024      -21.2442964899      -43.2694993793  TIP3      20431           0.0000000000
    112807     21791  TIP3      H1            -25.0760836378      -21.1868725874      -43.1123932147  TIP3      20431           0.0000000000
    112808     21791  TIP3      H2            -23.9692940265      -20.4393876479      -43.7959029840  TIP3      20431           0.0000000000
    112809     21792  TIP3      OH2           -23.1234066779       -6.9936635767      -44.4569495225  TIP3      20432           0.0000000000
    112810     21792  TIP3      H1            -22.9967722466       -6.0306816411      -44.5588080278  TIP3      20432           0.0000000000
    112811     21792  TIP3      H2            -22.2441179046       -7.2916331123      -44.7552153196  TIP3      20432           0.0000000000
    112812     21793  TIP3      OH2           -27.5665141904       -4.1981422342      -44.2798211019  TIP3      20433           0.0000000000
    112813     21793  TIP3      H1            -27.1519517583       -4.9256249541      -44.7646847043  TIP3      20433           0.0000000000
    112814     21793  TIP3      H2            -27.5110736277       -4.4974537361      -43.3677560514  TIP3      20433           0.0000000000
    112815     21794  TIP3      OH2           -26.4411516000      -12.1453718624      -45.4469946823  TIP3      20434           0.0000000000
    112816     21794  TIP3      H1            -26.4319767565      -12.1192152025      -46.4092245068  TIP3      20434           0.0000000000
    112817     21794  TIP3      H2            -25.5964220255      -11.6594065543      -45.3798914266  TIP3      20434           0.0000000000
    112818     21795  TIP3      OH2           -30.7953829959      -18.1117631351      -44.8652891371  TIP3      20435           0.0000000000
    112819     21795  TIP3      H1            -31.1271199897      -18.1112698461      -43.9625525852  TIP3      20435           0.0000000000
    112820     21795  TIP3      H2            -31.0737801769      -18.9709407987      -45.1943485957  TIP3      20435           0.0000000000
    112821     21796  TIP3      OH2           -35.3611591151      -14.8725295849      -44.3549811649  TIP3      20436           0.0000000000
    112822     21796  TIP3      H1            -35.8336697754      -15.3293449930      -45.0683146317  TIP3      20436           0.0000000000
    112823     21796  TIP3      H2            -34.5057553903      -14.7265899085      -44.7958008610  TIP3      20436           0.0000000000
    112824     21797  TIP3      OH2           -28.1100170825      -17.4774046075      -44.4287199726  TIP3      20437           0.0000000000
    112825     21797  TIP3      H1            -29.0831350971      -17.4614304595      -44.3929587850  TIP3      20437           0.0000000000
    112826     21797  TIP3      H2            -27.8018873768      -16.7408337062      -43.8623910678  TIP3      20437           0.0000000000
    112827     21798  TIP3      OH2           -27.3958325025      -15.5669724397      -42.6024205752  TIP3      20438           0.0000000000
    112828     21798  TIP3      H1            -26.4866444264      -15.7921116303      -42.3429323319  TIP3      20438           0.0000000000
    112829     21798  TIP3      H2            -27.2468905500      -14.8267001163      -43.1813541263  TIP3      20438           0.0000000000
    112830     21799  TIP3      OH2           -38.7833410118      -12.6753098339      -44.7666281112  TIP3      20439           0.0000000000
    112831     21799  TIP3      H1            -38.1469085235      -12.1159532624      -44.2906118149  TIP3      20439           0.0000000000
    112832     21799  TIP3      H2            -39.6148678060      -12.3455161676      -44.4157285008  TIP3      20439           0.0000000000
    112833     21800  TIP3      OH2           -26.8249011233       -8.6877961119      -44.6512952561  TIP3      20440           0.0000000000
    112834     21800  TIP3      H1            -26.4424625670       -9.0029921877      -43.8263872737  TIP3      20440           0.0000000000
    112835     21800  TIP3      H2            -27.7626142778       -8.8023088026      -44.5035893328  TIP3      20440           0.0000000000
    112836     21801  TIP3      OH2           -22.3554017093       -4.2289629497      -44.4706086317  TIP3      20441           0.0000000000
    112837     21801  TIP3      H1            -21.5553614295       -3.6834904490      -44.4889354921  TIP3      20441           0.0000000000
    112838     21801  TIP3      H2            -23.0249668115       -3.6080269463      -44.1306806552  TIP3      20441           0.0000000000
    112839     21802  TIP3      OH2           -36.7453293791       -8.1553103555      -44.3178266047  TIP3      20442           0.0000000000
    112840     21802  TIP3      H1            -36.1257968937       -7.4843529112      -43.9927069647  TIP3      20442           0.0000000000
    112841     21802  TIP3      H2            -36.2259283340       -8.5624302500      -45.0067232288  TIP3      20442           0.0000000000
    112842     21803  TIP3      OH2           -38.4064312349      -15.4506472522      -45.2492219072  TIP3      20443           0.0000000000
    112843     21803  TIP3      H1            -38.4377346749      -14.5050569992      -45.0137206955  TIP3      20443           0.0000000000
    112844     21803  TIP3      H2            -39.2885856144      -15.7320829956      -45.4907550447  TIP3      20443           0.0000000000
    112845     21804  TIP3      OH2           -32.8928296536      -13.7345227030      -45.3537372184  TIP3      20444           0.0000000000
    112846     21804  TIP3      H1            -33.0654919548      -13.9014527787      -46.2989704240  TIP3      20444           0.0000000000
    112847     21804  TIP3      H2            -31.9321732436      -13.6442642297      -45.2999915953  TIP3      20444           0.0000000000
    112848     21805  TIP3      OH2           -33.0097211582       -3.0209963765      -44.2649437953  TIP3      20445           0.0000000000
    112849     21805  TIP3      H1            -32.0529805867       -2.9514048784      -44.2728728749  TIP3      20445           0.0000000000
    112850     21805  TIP3      H2            -33.2622891969       -2.4530626358      -44.9967624909  TIP3      20445           0.0000000000
    112851     21806  TIP3      OH2           -39.4254394699       -8.5596960957      -44.7970201541  TIP3      20446           0.0000000000
    112852     21806  TIP3      H1            -38.4889693842       -8.3213349322      -44.6281854223  TIP3      20446           0.0000000000
    112853     21806  TIP3      H2            -39.3761115556       -9.0759403845      -45.6004073833  TIP3      20446           0.0000000000
    112854     21807  TIP3      OH2           -24.0547583154      -15.3481765972      -45.1712586021  TIP3      20447           0.0000000000
    112855     21807  TIP3      H1            -24.0212592886      -14.7043135304      -45.8762250469  TIP3      20447           0.0000000000
    112856     21807  TIP3      H2            -24.1812216427      -16.1895344176      -45.6498503465  TIP3      20447           0.0000000000
    112857     21808  TIP3      OH2           -22.6558637522      -19.1106889322      -44.4939374195  TIP3      20448           0.0000000000
    112858     21808  TIP3      H1            -22.2683830531      -19.7821848466      -45.0613084710  TIP3      20448           0.0000000000
    112859     21808  TIP3      H2            -21.9958579976      -18.4193046205      -44.4672578265  TIP3      20448           0.0000000000
    112860     21809  TIP3      OH2           -39.0749407230      -20.9882036159      -43.4134947734  TIP3      20449           0.0000000000
    112861     21809  TIP3      H1            -38.6991075593      -20.3283414421      -43.9985877236  TIP3      20449           0.0000000000
    112862     21809  TIP3      H2            -39.7701467955      -20.5133670932      -42.9535454102  TIP3      20449           0.0000000000
    112863     21810  TIP3      OH2           -37.0935058964      -18.7785876371      -44.8014781429  TIP3      20450           0.0000000000
    112864     21810  TIP3      H1            -36.7112796735      -19.3516228131      -45.4732931357  TIP3      20450           0.0000000000
    112865     21810  TIP3      H2            -36.4112665446      -18.7208399412      -44.1482835647  TIP3      20450           0.0000000000
    112866     21811  TIP3      OH2           -37.4348323720       -4.2555892340      -45.4904425365  TIP3      20451           0.0000000000
    112867     21811  TIP3      H1            -37.6944191735       -3.9103006778      -44.6253097510  TIP3      20451           0.0000000000
    112868     21811  TIP3      H2            -36.5949986083       -4.7040788485      -45.3381539407  TIP3      20451           0.0000000000
    112869     21812  TIP3      OH2           -11.2670553364      -13.8815010036      -44.8544665234  TIP3      20452           0.0000000000
    112870     21812  TIP3      H1            -10.5676353030      -13.8956949643      -44.1773788924  TIP3      20452           0.0000000000
    112871     21812  TIP3      H2            -10.9544365667      -14.6021939681      -45.4130547675  TIP3      20452           0.0000000000
    112872     21813  TIP3      OH2            -5.2665548334      -21.2463060000      -43.2686854805  TIP3      20453           0.0000000000
    112873     21813  TIP3      H1             -6.2199257690      -21.1875248766      -43.1119718773  TIP3      20453           0.0000000000
    112874     21813  TIP3      H2             -5.1121007325      -20.4432601312      -43.7942252937  TIP3      20453           0.0000000000
    112875     21814  TIP3      OH2            -4.2654033673       -6.9928410480      -44.4559790378  TIP3      20454           0.0000000000
    112876     21814  TIP3      H1             -4.1403959368       -6.0312867261      -44.5598551451  TIP3      20454           0.0000000000
    112877     21814  TIP3      H2             -3.3878879052       -7.2919347878      -44.7545591873  TIP3      20454           0.0000000000
    112878     21815  TIP3      OH2            -8.7104591518       -4.1985294568      -44.2801426060  TIP3      20455           0.0000000000
    112879     21815  TIP3      H1             -8.2956833797       -4.9259943720      -44.7644040522  TIP3      20455           0.0000000000
    112880     21815  TIP3      H2             -8.6550795744       -4.4972873912      -43.3678575112  TIP3      20455           0.0000000000
    112881     21816  TIP3      OH2            -7.6064100276      -12.1398446924      -45.4489625998  TIP3      20456           0.0000000000
    112882     21816  TIP3      H1             -7.5665442444      -12.1223166572      -46.4110448579  TIP3      20456           0.0000000000
    112883     21816  TIP3      H2             -6.7570542129      -11.6613290700      -45.3770770189  TIP3      20456           0.0000000000
    112884     21817  TIP3      OH2           -11.9423242399      -18.1112178890      -44.8659731299  TIP3      20457           0.0000000000
    112885     21817  TIP3      H1            -12.2694964676      -18.1120550605      -43.9618902878  TIP3      20457           0.0000000000
    112886     21817  TIP3      H2            -12.2234667475      -18.9713879896      -45.1937952339  TIP3      20457           0.0000000000
    112887     21818  TIP3      OH2           -16.5048382416      -14.8404760773      -44.3648894690  TIP3      20458           0.0000000000
    112888     21818  TIP3      H1            -16.9846578795      -15.3381425599      -45.0503049268  TIP3      20458           0.0000000000
    112889     21818  TIP3      H2            -15.6512051746      -14.7590304594      -44.8044660054  TIP3      20458           0.0000000000
    112890     21819  TIP3      OH2            -9.2539334003      -17.4771306492      -44.4291879193  TIP3      20459           0.0000000000
    112891     21819  TIP3      H1            -10.2266742736      -17.4618262962      -44.3928784547  TIP3      20459           0.0000000000
    112892     21819  TIP3      H2             -8.9453631362      -16.7411924085      -43.8621960198  TIP3      20459           0.0000000000
    112893     21820  TIP3      OH2            -8.5407255500      -15.5682504153      -42.6023198066  TIP3      20460           0.0000000000
    112894     21820  TIP3      H1             -7.6313001592      -15.7922287977      -42.3425433257  TIP3      20460           0.0000000000
    112895     21820  TIP3      H2             -8.3920649437      -14.8269129258      -43.1802253443  TIP3      20460           0.0000000000
    112896     21821  TIP3      OH2           -19.9134499734      -12.6065471425      -44.8097278508  TIP3      20461           0.0000000000
    112897     21821  TIP3      H1            -19.2714785744      -12.1171808971      -44.2699496547  TIP3      20461           0.0000000000
    112898     21821  TIP3      H2            -20.7436850184      -12.3201806500      -44.4119216342  TIP3      20461           0.0000000000
    112899     21822  TIP3      OH2            -7.9631936239       -8.6897170411      -44.6532529556  TIP3      20462           0.0000000000
    112900     21822  TIP3      H1             -7.5860616530       -9.0056437580      -43.8267252557  TIP3      20462           0.0000000000
    112901     21822  TIP3      H2             -8.8999665033       -8.7872132196      -44.4992175621  TIP3      20462           0.0000000000
    112902     21823  TIP3      OH2            -3.4968416279       -4.2328756245      -44.4724275113  TIP3      20463           0.0000000000
    112903     21823  TIP3      H1             -2.7025991219       -3.6792910907      -44.4860284251  TIP3      20463           0.0000000000
    112904     21823  TIP3      H2             -4.1691597054       -3.6103664840      -44.1316680192  TIP3      20463           0.0000000000
    112905     21824  TIP3      OH2           -17.8392675068       -8.1748830454      -44.2908797548  TIP3      20464           0.0000000000
    112906     21824  TIP3      H1            -17.2330230043       -7.4751634970      -43.9975582730  TIP3      20464           0.0000000000
    112907     21824  TIP3      H2            -17.3675880816       -8.5419069818      -45.0328754800  TIP3      20464           0.0000000000
    112908     21825  TIP3      OH2           -19.5497234095      -15.4356867013      -45.2187271327  TIP3      20465           0.0000000000
    112909     21825  TIP3      H1            -19.6104369348      -14.4930770562      -44.9923405724  TIP3      20465           0.0000000000
    112910     21825  TIP3      H2            -20.4368626613      -15.7006811280      -45.4524182055  TIP3      20465           0.0000000000
    112911     21826  TIP3      OH2           -13.9827319575      -13.5518375958      -45.4047595773  TIP3      20466           0.0000000000
    112912     21826  TIP3      H1            -14.2330829342      -13.9496055881      -46.2735727289  TIP3      20466           0.0000000000
    112913     21826  TIP3      H2            -13.0421566147      -13.7850028852      -45.3140580236  TIP3      20466           0.0000000000
    112914     21827  TIP3      OH2           -14.1491862313       -3.0189170361      -44.2628850527  TIP3      20467           0.0000000000
    112915     21827  TIP3      H1            -13.1934703864       -2.9508057541      -44.2735219777  TIP3      20467           0.0000000000
    112916     21827  TIP3      H2            -14.4054377103       -2.4545095038      -44.9973992353  TIP3      20467           0.0000000000
    112917     21828  TIP3      OH2           -20.5401738082       -8.4496120978      -44.8101495763  TIP3      20468           0.0000000000
    112918     21828  TIP3      H1            -19.5962097407       -8.3537874896      -44.6148987576  TIP3      20468           0.0000000000
    112919     21828  TIP3      H2            -20.5761091737       -9.0945168377      -45.5192049892  TIP3      20468           0.0000000000
    112920     21829  TIP3      OH2            -5.1940408008      -15.3531642157      -45.1768320372  TIP3      20469           0.0000000000
    112921     21829  TIP3      H1             -5.1649448401      -14.7055183955      -45.8773554413  TIP3      20469           0.0000000000
    112922     21829  TIP3      H2             -5.3299799973      -16.1914650945      -45.6505475807  TIP3      20469           0.0000000000
    112923     21830  TIP3      OH2            -3.8005185902      -19.1110563051      -44.4942816853  TIP3      20470           0.0000000000
    112924     21830  TIP3      H1             -3.4124105815      -19.7823462388      -45.0613091713  TIP3      20470           0.0000000000
    112925     21830  TIP3      H2             -3.1402887150      -18.4197131718      -44.4659816942  TIP3      20470           0.0000000000
    112926     21831  TIP3      OH2           -20.2054341731      -20.9953816165      -43.4437785407  TIP3      20471           0.0000000000
    112927     21831  TIP3      H1            -19.7967325731      -20.3002179746      -43.9750714301  TIP3      20471           0.0000000000
    112928     21831  TIP3      H2            -20.8521406910      -20.4862557873      -42.9443152730  TIP3      20471           0.0000000000
    112929     21832  TIP3      OH2           -18.1932682060      -18.7758252020      -44.8290062549  TIP3      20472           0.0000000000
    112930     21832  TIP3      H1            -17.8329235418      -19.3875592429      -45.4677412951  TIP3      20472           0.0000000000
    112931     21832  TIP3      H2            -17.5348967590      -18.7099898842      -44.1521048054  TIP3      20472           0.0000000000
    112932     21833  TIP3      OH2           -18.5553022652       -4.2658996048      -45.4934090476  TIP3      20473           0.0000000000
    112933     21833  TIP3      H1            -18.8248163396       -3.9238345923      -44.6316747323  TIP3      20473           0.0000000000
    112934     21833  TIP3      H2            -17.7126541176       -4.7125441258      -45.3489837469  TIP3      20473           0.0000000000
    112935     21834  TIP3      OH2             7.6262777510      -13.9188784164      -44.8687378328  TIP3      20474           0.0000000000
    112936     21834  TIP3      H1              8.2846795521      -13.8917279526      -44.1622398962  TIP3      20474           0.0000000000
    112937     21834  TIP3      H2              7.8804109385      -14.6476681757      -45.4312153088  TIP3      20474           0.0000000000
    112938     21835  TIP3      OH2            13.5898515560      -21.2447063787      -43.2687686912  TIP3      20475           0.0000000000
    112939     21835  TIP3      H1             12.6362813702      -21.1867891729      -43.1118669798  TIP3      20475           0.0000000000
    112940     21835  TIP3      H2             13.7420657911      -20.4420973512      -43.7947811441  TIP3      20475           0.0000000000
    112941     21836  TIP3      OH2            14.5896344731       -6.9911712416      -44.4558440743  TIP3      20476           0.0000000000
    112942     21836  TIP3      H1             14.7163058415       -6.0294457277      -44.5590489117  TIP3      20476           0.0000000000
    112943     21836  TIP3      H2             15.4677630863       -7.2917424226      -44.7555041234  TIP3      20476           0.0000000000
    112944     21837  TIP3      OH2            10.1477674474       -4.1976334433      -44.2781437956  TIP3      20477           0.0000000000
    112945     21837  TIP3      H1             10.5598261869       -4.9265984149      -44.7645656094  TIP3      20477           0.0000000000
    112946     21837  TIP3      H2             10.2009466606       -4.4974320122      -43.3679672957  TIP3      20477           0.0000000000
    112947     21838  TIP3      OH2            11.2921563521      -12.2225651174      -45.4657844037  TIP3      20478           0.0000000000
    112948     21838  TIP3      H1             11.2747772301      -12.0728219115      -46.4205838067  TIP3      20478           0.0000000000
    112949     21838  TIP3      H2             12.0854651848      -11.6562784555      -45.3701929918  TIP3      20478           0.0000000000
    112950     21839  TIP3      OH2             6.9770645060      -18.1119457100      -44.8296355949  TIP3      20479           0.0000000000
    112951     21839  TIP3      H1              6.5558279641      -18.1220844090      -43.9662072988  TIP3      20479           0.0000000000
    112952     21839  TIP3      H2              6.6248395992      -18.9217397333      -45.2352409557  TIP3      20479           0.0000000000
    112953     21840  TIP3      OH2             2.3440164054      -14.8760873933      -44.3496197175  TIP3      20480           0.0000000000
    112954     21840  TIP3      H1              1.8789348283      -15.3285473837      -45.0696678053  TIP3      20480           0.0000000000
    112955     21840  TIP3      H2              3.1979562692      -14.7200188606      -44.7857456222  TIP3      20480           0.0000000000
    112956     21841  TIP3      OH2             9.6241285849      -17.3578608045      -44.5253424800  TIP3      20481           0.0000000000
    112957     21841  TIP3      H1              8.6534846095      -17.5048653839      -44.4017663606  TIP3      20481           0.0000000000
    112958     21841  TIP3      H2              9.8826260513      -16.7689577219      -43.7791806375  TIP3      20481           0.0000000000
    112959     21842  TIP3      OH2            10.3250519915      -15.5982884281      -42.6470333758  TIP3      20482           0.0000000000
    112960     21842  TIP3      H1             11.2179235087      -15.7863178764      -42.3039894106  TIP3      20482           0.0000000000
    112961     21842  TIP3      H2             10.4500537250      -14.7853538214      -43.1167469665  TIP3      20482           0.0000000000
    112962     21843  TIP3      OH2            -1.0577433973      -12.6084785937      -44.8138188286  TIP3      20483           0.0000000000
    112963     21843  TIP3      H1             -0.4192807376      -12.1191424953      -44.2743040562  TIP3      20483           0.0000000000
    112964     21843  TIP3      H2             -1.8857359047      -12.3227388699      -44.4157791996  TIP3      20483           0.0000000000
    112965     21844  TIP3      OH2            10.8868318465       -8.6890753166      -44.6518463239  TIP3      20484           0.0000000000
    112966     21844  TIP3      H1             11.2691374137       -9.0020520792      -43.8250255527  TIP3      20484           0.0000000000
    112967     21844  TIP3      H2              9.9490697213       -8.8014084159      -44.5041304820  TIP3      20484           0.0000000000
    112968     21845  TIP3      OH2            15.3578593397       -4.2245089758      -44.4719131438  TIP3      20485           0.0000000000
    112969     21845  TIP3      H1             16.1570262665       -3.6841200015      -44.4893784237  TIP3      20485           0.0000000000
    112970     21845  TIP3      H2             14.6852939786       -3.6094361624      -44.1255281945  TIP3      20485           0.0000000000
    112971     21846  TIP3      OH2             0.9968010673       -8.1537174859      -44.3020532742  TIP3      20486           0.0000000000
    112972     21846  TIP3      H1              1.6336693201       -7.4895979312      -43.9958435842  TIP3      20486           0.0000000000
    112973     21846  TIP3      H2              1.4893627505       -8.5587052189      -45.0135792222  TIP3      20486           0.0000000000
    112974     21847  TIP3      OH2            -0.6905756770      -15.4363053450      -45.2461287687  TIP3      20487           0.0000000000
    112975     21847  TIP3      H1             -0.7515624451      -14.4983348215      -44.9935922481  TIP3      20487           0.0000000000
    112976     21847  TIP3      H2             -1.5837062013      -15.6944139657      -45.4601829811  TIP3      20487           0.0000000000
    112977     21848  TIP3      OH2             4.8158919341      -13.7129744673      -45.3529048614  TIP3      20488           0.0000000000
    112978     21848  TIP3      H1              4.6509295353      -13.9181466843      -46.2942532553  TIP3      20488           0.0000000000
    112979     21848  TIP3      H2              5.7779753914      -13.6493299056      -45.3043890712  TIP3      20488           0.0000000000
    112980     21849  TIP3      OH2             4.7082491785       -3.0183359243      -44.2582176336  TIP3      20489           0.0000000000
    112981     21849  TIP3      H1              5.6633902290       -2.9508646937      -44.2722674502  TIP3      20489           0.0000000000
    112982     21849  TIP3      H2              4.4511216068       -2.4559795762      -44.9954577644  TIP3      20489           0.0000000000
    112983     21850  TIP3      OH2            -1.6858407735       -8.4498246689      -44.8106940678  TIP3      20490           0.0000000000
    112984     21850  TIP3      H1             -0.7411648534       -8.3520438585      -44.6154274510  TIP3      20490           0.0000000000
    112985     21850  TIP3      H2             -1.7205913679       -9.0947651063      -45.5198289608  TIP3      20490           0.0000000000
    112986     21851  TIP3      OH2            13.4606148013      -15.3474406597      -45.2348244708  TIP3      20491           0.0000000000
    112987     21851  TIP3      H1             13.7951157932      -14.7068007266      -45.8684597193  TIP3      20491           0.0000000000
    112988     21851  TIP3      H2             13.6300658734      -16.2160109653      -45.6545141817  TIP3      20491           0.0000000000
    112989     21852  TIP3      OH2            15.0422405351      -19.0825694867      -44.5074806699  TIP3      20492           0.0000000000
    112990     21852  TIP3      H1             15.4299022671      -19.7754900812      -45.0516436555  TIP3      20492           0.0000000000
    112991     21852  TIP3      H2             15.7382859478      -18.4293815580      -44.4525678173  TIP3      20492           0.0000000000
    112992     21853  TIP3      OH2            -1.3457252054      -20.9934086237      -43.4478801549  TIP3      20493           0.0000000000
    112993     21853  TIP3      H1             -0.9395887100      -20.2984719591      -43.9761227328  TIP3      20493           0.0000000000
    112994     21853  TIP3      H2             -1.9962355913      -20.4935718739      -42.9428101798  TIP3      20493           0.0000000000
    112995     21854  TIP3      OH2             0.6638278705      -18.7761553481      -44.8276808649  TIP3      20494           0.0000000000
    112996     21854  TIP3      H1              1.0254764329      -19.3836206895      -45.4696624019  TIP3      20494           0.0000000000
    112997     21854  TIP3      H2              1.3221675560      -18.7085641590      -44.1522610988  TIP3      20494           0.0000000000
    112998     21855  TIP3      OH2             0.3013178392       -4.2641630788      -45.4939583810  TIP3      20495           0.0000000000
    112999     21855  TIP3      H1              0.0309973118       -3.9242909380      -44.6317425397  TIP3      20495           0.0000000000
    113000     21855  TIP3      H2              1.1428606956       -4.7131032598      -45.3492201960  TIP3      20495           0.0000000000
    113001     21856  TIP3      OH2            26.4629402307      -13.9170223438      -44.8402720877  TIP3      20496           0.0000000000
    113002     21856  TIP3      H1             27.1595927519      -13.8877484811      -44.1683631080  TIP3      20496           0.0000000000
    113003     21856  TIP3      H2             26.7680878147      -14.6107967036      -45.4213951612  TIP3      20496           0.0000000000
    113004     21857  TIP3      OH2            32.4453730225      -21.2458312273      -43.2684545137  TIP3      20497           0.0000000000
    113005     21857  TIP3      H1             31.4926479098      -21.1879330511      -43.1119594689  TIP3      20497           0.0000000000
    113006     21857  TIP3      H2             32.6002746467      -20.4434128615      -43.7943402714  TIP3      20497           0.0000000000
    113007     21858  TIP3      OH2            33.4394596620       -6.9879070357      -44.4649560178  TIP3      20498           0.0000000000
    113008     21858  TIP3      H1             33.5806579073       -6.0363598926      -44.5447141291  TIP3      20498           0.0000000000
    113009     21858  TIP3      H2             34.3187805560       -7.3198590695      -44.7378179502  TIP3      20498           0.0000000000
    113010     21859  TIP3      OH2            29.0588242347       -4.1851298423      -44.2890732628  TIP3      20499           0.0000000000
    113011     21859  TIP3      H1             29.3999504276       -4.9513356207      -44.7649213066  TIP3      20499           0.0000000000
    113012     21859  TIP3      H2             29.0577931738       -4.4923631625      -43.3767825604  TIP3      20499           0.0000000000
    113013     21860  TIP3      OH2            30.1264851805      -12.1473168285      -45.4469252880  TIP3      20500           0.0000000000
    113014     21860  TIP3      H1             30.1379273936      -12.1181608047      -46.4096329235  TIP3      20500           0.0000000000
    113015     21860  TIP3      H2             30.9691288598      -11.6587895208      -45.3817852580  TIP3      20500           0.0000000000
    113016     21861  TIP3      OH2            25.8003846560      -18.1354273922      -44.8519147687  TIP3      20501           0.0000000000
    113017     21861  TIP3      H1             25.4409789652      -18.1143039351      -43.9603694045  TIP3      20501           0.0000000000
    113018     21861  TIP3      H2             25.4899287324      -18.9801358369      -45.1914089424  TIP3      20501           0.0000000000
    113019     21862  TIP3      OH2            21.1884670789      -14.8497936066      -44.3611396396  TIP3      20502           0.0000000000
    113020     21862  TIP3      H1             20.7348424999      -15.3507160881      -45.0539393883  TIP3      20502           0.0000000000
    113021     21862  TIP3      H2             22.0583093136      -14.7318061844      -44.7742320426  TIP3      20502           0.0000000000
    113022     21863  TIP3      OH2            28.4646999579      -17.4731897948      -44.4332388444  TIP3      20503           0.0000000000
    113023     21863  TIP3      H1             27.4907685539      -17.4666029380      -44.3894007704  TIP3      20503           0.0000000000
    113024     21863  TIP3      H2             28.7678575170      -16.7397923164      -43.8611370469  TIP3      20503           0.0000000000
    113025     21864  TIP3      OH2            29.1719072054      -15.5669625478      -42.6021097316  TIP3      20504           0.0000000000
    113026     21864  TIP3      H1             30.0811922396      -15.7920383951      -42.3428807978  TIP3      20504           0.0000000000
    113027     21864  TIP3      H2             29.3206472767      -14.8269250329      -43.1813159964  TIP3      20504           0.0000000000
    113028     21865  TIP3      OH2            17.8225552480      -12.6011281970      -44.8356116941  TIP3      20505           0.0000000000
    113029     21865  TIP3      H1             18.4358508357      -12.1134003713      -44.2620036780  TIP3      20505           0.0000000000
    113030     21865  TIP3      H2             16.9890504682      -12.3368373295      -44.4301528612  TIP3      20505           0.0000000000
    113031     21866  TIP3      OH2            29.7430246727       -8.6869729122      -44.6512642734  TIP3      20506           0.0000000000
    113032     21866  TIP3      H1             30.1249341075       -9.0014490954      -43.8268629818  TIP3      20506           0.0000000000
    113033     21866  TIP3      H2             28.8053270011       -8.8028763552      -44.5043727372  TIP3      20506           0.0000000000
    113034     21867  TIP3      OH2            34.2187879216       -4.1455979404      -44.5804395689  TIP3      20507           0.0000000000
    113035     21867  TIP3      H1             35.0532189126       -3.6920252089      -44.3653695634  TIP3      20507           0.0000000000
    113036     21867  TIP3      H2             33.5619222931       -3.6325507256      -44.0498938516  TIP3      20507           0.0000000000
    113037     21868  TIP3      OH2            19.8512320223       -8.1533288379      -44.3052640515  TIP3      20508           0.0000000000
    113038     21868  TIP3      H1             20.4893625364       -7.4933946874      -43.9937033300  TIP3      20508           0.0000000000
    113039     21868  TIP3      H2             20.3441231032       -8.5598118453      -45.0159579553  TIP3      20508           0.0000000000
    113040     21869  TIP3      OH2            18.1767670915      -15.4151961199      -45.2763534767  TIP3      20509           0.0000000000
    113041     21869  TIP3      H1             18.0908913337      -14.4990851936      -44.9666191526  TIP3      20509           0.0000000000
    113042     21869  TIP3      H2             17.2827060782      -15.7084183326      -45.4469265694  TIP3      20509           0.0000000000
    113043     21870  TIP3      OH2            23.7279562690      -13.6936725245      -45.2926840701  TIP3      20510           0.0000000000
    113044     21870  TIP3      H1             23.5276347965      -13.9182209705      -46.2132687408  TIP3      20510           0.0000000000
    113045     21870  TIP3      H2             24.6931039076      -13.6402486825      -45.2665991771  TIP3      20510           0.0000000000
    113046     21871  TIP3      OH2            23.5583145242       -3.0152293897      -44.2589601916  TIP3      20511           0.0000000000
    113047     21871  TIP3      H1             24.5149745154       -2.9507538301      -44.2767526556  TIP3      20511           0.0000000000
    113048     21871  TIP3      H2             23.2936091281       -2.4508757560      -44.9909915744  TIP3      20511           0.0000000000
    113049     21872  TIP3      OH2            17.1692328097       -8.4456503144      -44.8167441643  TIP3      20512           0.0000000000
    113050     21872  TIP3      H1             18.1136106053       -8.3573267032      -44.6049573545  TIP3      20512           0.0000000000
    113051     21872  TIP3      H2             17.1369959923       -9.0966669992      -45.5185673846  TIP3      20512           0.0000000000
    113052     21873  TIP3      OH2            32.5094630776      -15.3500229894      -45.1738962187  TIP3      20513           0.0000000000
    113053     21873  TIP3      H1             32.5465147126      -14.7046660183      -45.8757773391  TIP3      20513           0.0000000000
    113054     21873  TIP3      H2             32.3857554923      -16.1904193118      -45.6506931055  TIP3      20513           0.0000000000
    113055     21874  TIP3      OH2            33.9160104823      -19.1064943085      -44.4970226837  TIP3      20514           0.0000000000
    113056     21874  TIP3      H1             34.2990352039      -19.7840397634      -45.0607670343  TIP3      20514           0.0000000000
    113057     21874  TIP3      H2             34.5864721919      -18.4246950376      -44.4634182297  TIP3      20514           0.0000000000
    113058     21875  TIP3      OH2            17.5076648135      -20.9906032468      -43.4464306925  TIP3      20515           0.0000000000
    113059     21875  TIP3      H1             17.9169668569      -20.2963841685      -43.9762121307  TIP3      20515           0.0000000000
    113060     21875  TIP3      H2             16.8582851639      -20.4902789309      -42.9406681794  TIP3      20515           0.0000000000
    113061     21876  TIP3      OH2            19.5201118814      -18.7702016002      -44.8311490594  TIP3      20516           0.0000000000
    113062     21876  TIP3      H1             19.8824177823      -19.3808767046      -45.4707573068  TIP3      20516           0.0000000000
    113063     21876  TIP3      H2             20.1769227802      -18.7062394428      -44.1538112473  TIP3      20516           0.0000000000
    113064     21877  TIP3      OH2            19.1577716299       -4.2538083991      -45.5160301362  TIP3      20517           0.0000000000
    113065     21877  TIP3      H1             18.8843894361       -3.9256467664      -44.6478585587  TIP3      20517           0.0000000000
    113066     21877  TIP3      H2             19.9931589290       -4.7118919125      -45.3581297551  TIP3      20517           0.0000000000
    113067     21878  TIP3      OH2            40.0929516910      -14.8825758626      -44.4004984924  TIP3      20518           0.0000000000
    113068     21878  TIP3      H1             39.5348951276      -15.3169191044      -45.0675966193  TIP3      20518           0.0000000000
    113069     21878  TIP3      H2             40.9217473257      -14.7320473772      -44.8434838755  TIP3      20518           0.0000000000
    113070     21879  TIP3      OH2            36.6557577834      -12.6114633322      -44.8045180299  TIP3      20519           0.0000000000
    113071     21879  TIP3      H1             37.2970781238      -12.1063541003      -44.2794732518  TIP3      20519           0.0000000000
    113072     21879  TIP3      H2             35.8253039633      -12.3241932692      -44.4152341059  TIP3      20519           0.0000000000
    113073     21880  TIP3      OH2           -40.9771657219      -18.5889783870      -43.3280001570  TIP3      20520           0.0000000000
    113074     21880  TIP3      H1            -41.0757902509      -17.6725073075      -43.0404773295  TIP3      20520           0.0000000000
    113075     21880  TIP3      H2            -40.0686152356      -18.7812561596      -43.1282974486  TIP3      20520           0.0000000000
    113076     21881  TIP3      OH2            38.6950207043       -8.1624274686      -44.3148755808  TIP3      20521           0.0000000000
    113077     21881  TIP3      H1             39.3375842984       -7.4933556540      -44.0280844754  TIP3      20521           0.0000000000
    113078     21881  TIP3      H2             39.2193977688       -8.5538628808      -45.0191192144  TIP3      20521           0.0000000000
    113079     21882  TIP3      OH2            37.0295415338      -15.4365333030      -45.1984296829  TIP3      20522           0.0000000000
    113080     21882  TIP3      H1             36.9577876590      -14.4908711323      -44.9984876507  TIP3      20522           0.0000000000
    113081     21882  TIP3      H2             36.1548307400      -15.7151119491      -45.4576468457  TIP3      20522           0.0000000000
    113082     21883  TIP3      OH2            36.0123465882       -8.4122917225      -44.8303701586  TIP3      20523           0.0000000000
    113083     21883  TIP3      H1             36.9576698885       -8.3417017465      -44.6218796489  TIP3      20523           0.0000000000
    113084     21883  TIP3      H2             35.9784316338       -9.0890601190      -45.5118601844  TIP3      20523           0.0000000000
    113085     21884  TIP3      OH2            36.3106227650      -21.0000344724      -43.4756410340  TIP3      20524           0.0000000000
    113086     21884  TIP3      H1             36.7644330815      -20.3034956287      -43.9628125139  TIP3      20524           0.0000000000
    113087     21884  TIP3      H2             35.7270546976      -20.4761291685      -42.9209909086  TIP3      20524           0.0000000000
    113088     21885  TIP3      OH2            38.3503575356      -18.7336282665      -44.8520232011  TIP3      20525           0.0000000000
    113089     21885  TIP3      H1             38.7388479159      -19.3765140135      -45.4390348621  TIP3      20525           0.0000000000
    113090     21885  TIP3      H2             39.0248459533      -18.7119750404      -44.1513113372  TIP3      20525           0.0000000000
    113091     21886  TIP3      OH2            37.9686093757       -4.2529671810      -45.4939217329  TIP3      20526           0.0000000000
    113092     21886  TIP3      H1             37.7681930074       -3.9336558754      -44.6084232658  TIP3      20526           0.0000000000
    113093     21886  TIP3      H2             38.8360017525       -4.6948603624      -45.3877921140  TIP3      20526           0.0000000000
    113094     21887  TIP3      OH2           -30.1376641968        4.9038416052      -44.8604818639  TIP3      20527           0.0000000000
    113095     21887  TIP3      H1            -29.4384700289        4.9864056263      -44.1829432052  TIP3      20527           0.0000000000
    113096     21887  TIP3      H2            -29.7497461717        4.2425638159      -45.4246394724  TIP3      20527           0.0000000000
    113097     21888  TIP3      OH2           -24.1214018926       -2.3908156534      -43.2684888671  TIP3      20528           0.0000000000
    113098     21888  TIP3      H1            -25.0742040813       -2.3349473190      -43.1088924707  TIP3      20528           0.0000000000
    113099     21888  TIP3      H2            -23.9685702352       -1.5874155278      -43.7942146533  TIP3      20528           0.0000000000
    113100     21889  TIP3      OH2           -23.1211751435       11.8628433085      -44.4558034059  TIP3      20529           0.0000000000
    113101     21889  TIP3      H1            -22.9960424400       12.8240477361      -44.5607697330  TIP3      20529           0.0000000000
    113102     21889  TIP3      H2            -22.2441309156       11.5639994936      -44.7558619422  TIP3      20529           0.0000000000
    113103     21890  TIP3      OH2           -27.5663682263       14.6574692155      -44.2800823632  TIP3      20530           0.0000000000
    113104     21890  TIP3      H1            -27.1518932371       13.9299126377      -44.7647366161  TIP3      20530           0.0000000000
    113105     21890  TIP3      H2            -27.5109899680       14.3584695005      -43.3677967474  TIP3      20530           0.0000000000
    113106     21891  TIP3      OH2           -26.4410717100        6.7100800242      -45.4460145721  TIP3      20531           0.0000000000
    113107     21891  TIP3      H1            -26.4240826790        6.7426413818      -46.4076794017  TIP3      20531           0.0000000000
    113108     21891  TIP3      H2            -25.5975693744        7.1973901794      -45.3802991076  TIP3      20531           0.0000000000
    113109     21892  TIP3      OH2           -30.8599745764        0.7754368984      -44.8853792434  TIP3      20532           0.0000000000
    113110     21892  TIP3      H1            -31.1021631613        0.7286303608      -43.9532775708  TIP3      20532           0.0000000000
    113111     21892  TIP3      H2            -31.0479974632       -0.1230460170      -45.1818188607  TIP3      20532           0.0000000000
    113112     21893  TIP3      OH2           -35.3642645192        3.9632885271      -44.3562806636  TIP3      20533           0.0000000000
    113113     21893  TIP3      H1            -35.8743701396        3.5266180364      -45.0580458176  TIP3      20533           0.0000000000
    113114     21893  TIP3      H2            -34.5221135123        4.1604366892      -44.7600112004  TIP3      20533           0.0000000000
    113115     21894  TIP3      OH2           -28.1149290344        1.3849863779      -44.4396736937  TIP3      20534           0.0000000000
    113116     21894  TIP3      H1            -29.0803961215        1.3874034285      -44.3812708854  TIP3      20534           0.0000000000
    113117     21894  TIP3      H2            -27.8027097133        2.1133615159      -43.8632541606  TIP3      20534           0.0000000000
    113118     21895  TIP3      OH2           -27.3962985194        3.2879848907      -42.6024851552  TIP3      20535           0.0000000000
    113119     21895  TIP3      H1            -26.4869887703        3.0639676218      -42.3425230832  TIP3      20535           0.0000000000
    113120     21895  TIP3      H2            -27.2476626862        4.0286844207      -43.1808984631  TIP3      20535           0.0000000000
    113121     21896  TIP3      OH2           -38.7723008028        6.1773699476      -44.7681325854  TIP3      20536           0.0000000000
    113122     21896  TIP3      H1            -38.1436323056        6.7412714049      -44.2889743437  TIP3      20536           0.0000000000
    113123     21896  TIP3      H2            -39.6065203957        6.5028119416      -44.4259982317  TIP3      20536           0.0000000000
    113124     21897  TIP3      OH2           -26.8245128534       10.1686721470      -44.6508851352  TIP3      20537           0.0000000000
    113125     21897  TIP3      H1            -26.4426544455        9.8526821397      -43.8261637877  TIP3      20537           0.0000000000
    113126     21897  TIP3      H2            -27.7624706203       10.0537299700      -44.5042358579  TIP3      20537           0.0000000000
    113127     21898  TIP3      OH2           -22.3555448847       14.6273275791      -44.4708060861  TIP3      20538           0.0000000000
    113128     21898  TIP3      H1            -21.5552167831       15.1721613782      -44.4880360181  TIP3      20538           0.0000000000
    113129     21898  TIP3      H2            -23.0249964104       15.2480866975      -44.1304832676  TIP3      20538           0.0000000000
    113130     21899  TIP3      OH2           -36.7354803448       10.6956942247      -44.3289709067  TIP3      20539           0.0000000000
    113131     21899  TIP3      H1            -36.1080237581       11.3526818156      -43.9941563374  TIP3      20539           0.0000000000
    113132     21899  TIP3      H2            -36.2231110351       10.2932134769      -45.0249160686  TIP3      20539           0.0000000000
    113133     21900  TIP3      OH2           -38.3910570798        3.4164461087      -45.2652799369  TIP3      20540           0.0000000000
    113134     21900  TIP3      H1            -38.4528989977        4.3544239609      -45.0047398614  TIP3      20540           0.0000000000
    113135     21900  TIP3      H2            -39.2728859519        3.1171986759      -45.4869498195  TIP3      20540           0.0000000000
    113136     21901  TIP3      OH2           -32.8263137705        5.2690085424      -45.2388620559  TIP3      20541           0.0000000000
    113137     21901  TIP3      H1            -33.0357878319        5.4011922266      -46.1743397040  TIP3      20541           0.0000000000
    113138     21901  TIP3      H2            -31.8489840751        5.3152007287      -45.1812607375  TIP3      20541           0.0000000000
    113139     21902  TIP3      OH2           -33.0200604819       15.8625506064      -44.2506074523  TIP3      20542           0.0000000000
    113140     21902  TIP3      H1            -32.0579870752       15.8862999610      -44.2706489441  TIP3      20542           0.0000000000
    113141     21902  TIP3      H2            -33.2360046033       16.3947881958      -45.0206257670  TIP3      20542           0.0000000000
    113142     21903  TIP3      OH2           -39.4117773917       10.2990909289      -44.7932164393  TIP3      20543           0.0000000000
    113143     21903  TIP3      H1            -38.4773420980       10.5315824410      -44.6294944269  TIP3      20543           0.0000000000
    113144     21903  TIP3      H2            -39.3757094979        9.7802980276      -45.5959932630  TIP3      20543           0.0000000000
    113145     21904  TIP3      OH2           -24.0593838432        3.5086804890      -45.1797441388  TIP3      20544           0.0000000000
    113146     21904  TIP3      H1            -24.0139450281        4.1466008348      -45.8900768485  TIP3      20544           0.0000000000
    113147     21904  TIP3      H2            -24.1801267229        2.6653938209      -45.6510527230  TIP3      20544           0.0000000000
    113148     21905  TIP3      OH2           -22.6565352522       -0.2549433449      -44.4941561482  TIP3      20545           0.0000000000
    113149     21905  TIP3      H1            -22.2684523862       -0.9263181499      -45.0611455196  TIP3      20545           0.0000000000
    113150     21905  TIP3      H2            -21.9961262867        0.4363419994      -44.4661771787  TIP3      20545           0.0000000000
    113151     21906  TIP3      OH2           -39.0678684961       -2.1410087531      -43.4224200196  TIP3      20546           0.0000000000
    113152     21906  TIP3      H1            -38.6923810800       -1.4741996792      -43.9996038193  TIP3      20546           0.0000000000
    113153     21906  TIP3      H2            -39.7619443482       -1.6679628542      -42.9586942368  TIP3      20546           0.0000000000
    113154     21907  TIP3      OH2           -37.0606465398        0.1106343889      -44.8389200880  TIP3      20547           0.0000000000
    113155     21907  TIP3      H1            -36.7132190277       -0.5244903546      -45.4696520490  TIP3      20547           0.0000000000
    113156     21907  TIP3      H2            -36.4285634872        0.1063436951      -44.1351091792  TIP3      20547           0.0000000000
    113157     21908  TIP3      OH2           -37.3891786503       14.6690876520      -45.4857377394  TIP3      20548           0.0000000000
    113158     21908  TIP3      H1            -37.7266680466       14.8654798065      -44.6125971405  TIP3      20548           0.0000000000
    113159     21908  TIP3      H2            -36.6000175374       14.1168037174      -45.3657571978  TIP3      20548           0.0000000000
    113160     21909  TIP3      OH2           -11.2555462014        4.9367325911      -44.8369121953  TIP3      20549           0.0000000000
    113161     21909  TIP3      H1            -10.5535091831        4.9716151295      -44.1734712151  TIP3      20549           0.0000000000
    113162     21909  TIP3      H2            -10.9465949026        4.2468149647      -45.4208943232  TIP3      20549           0.0000000000
    113163     21910  TIP3      OH2            -5.2709498661       -2.4097599637      -43.2849702871  TIP3      20550           0.0000000000
    113164     21910  TIP3      H1             -6.2162854866       -2.3149884051      -43.1034240968  TIP3      20550           0.0000000000
    113165     21910  TIP3      H2             -5.1082764227       -1.5935083980      -43.7901701494  TIP3      20550           0.0000000000
    113166     21911  TIP3      OH2            -4.2664562012       11.8641342378      -44.4560065166  TIP3      20551           0.0000000000
    113167     21911  TIP3      H1             -4.1395399055       12.8261123716      -44.5601491197  TIP3      20551           0.0000000000
    113168     21911  TIP3      H2             -3.3887645973       11.5626812955      -44.7535760804  TIP3      20551           0.0000000000
    113169     21912  TIP3      OH2            -8.7120707491       14.6610738023      -44.2795441016  TIP3      20552           0.0000000000
    113170     21912  TIP3      H1             -8.2964253576       13.9299935687      -44.7592641633  TIP3      20552           0.0000000000
    113171     21912  TIP3      H2             -8.6649368340       14.3709922776      -43.3624120894  TIP3      20552           0.0000000000
    113172     21913  TIP3      OH2            -7.6009406606        6.7124886847      -45.4752825358  TIP3      20553           0.0000000000
    113173     21913  TIP3      H1             -7.5635406934        6.7480097652      -46.4338376144  TIP3      20553           0.0000000000
    113174     21913  TIP3      H2             -6.7517699214        7.1863264054      -45.3688901705  TIP3      20553           0.0000000000
    113175     21914  TIP3      OH2           -11.9407920085        0.7441234730      -44.8646705406  TIP3      20554           0.0000000000
    113176     21914  TIP3      H1            -12.2703148914        0.7447272477      -43.9612929880  TIP3      20554           0.0000000000
    113177     21914  TIP3      H2            -12.2233447675       -0.1133264666      -45.1926283315  TIP3      20554           0.0000000000
    113178     21915  TIP3      OH2           -16.5118863846        3.9833920774      -44.3519209840  TIP3      20555           0.0000000000
    113179     21915  TIP3      H1            -16.9746761970        3.5250236060      -45.0692529828  TIP3      20555           0.0000000000
    113180     21915  TIP3      H2            -15.6564123681        4.1339582247      -44.7887038599  TIP3      20555           0.0000000000
    113181     21916  TIP3      OH2            -9.2581090280        1.3700819840      -44.4331061179  TIP3      20556           0.0000000000
    113182     21916  TIP3      H1            -10.2302175021        1.3931188353      -44.3940904166  TIP3      20556           0.0000000000
    113183     21916  TIP3      H2             -8.9486680910        2.1064121494      -43.8673416831  TIP3      20556           0.0000000000
    113184     21917  TIP3      OH2            -8.5609148264        3.2668776259      -42.6358079399  TIP3      20557           0.0000000000
    113185     21917  TIP3      H1             -7.6561458337        3.0704803086      -42.3313797743  TIP3      20557           0.0000000000
    113186     21917  TIP3      H2             -8.3874780351        4.0432227950      -43.1604384070  TIP3      20557           0.0000000000
    113187     21918  TIP3      OH2           -19.9130691726        6.2493117974      -44.8094136535  TIP3      20558           0.0000000000
    113188     21918  TIP3      H1            -19.2737923410        6.7393598243      -44.2704692913  TIP3      20558           0.0000000000
    113189     21918  TIP3      H2            -20.7440879969        6.5341701730      -44.4119180361  TIP3      20558           0.0000000000
    113190     21919  TIP3      OH2            -7.9631481966       10.1662535650      -44.6387896211  TIP3      20559           0.0000000000
    113191     21919  TIP3      H1             -7.5876852000        9.8318624632      -43.8153444828  TIP3      20559           0.0000000000
    113192     21919  TIP3      H2             -8.9034856219       10.0523515458      -44.5026241674  TIP3      20559           0.0000000000
    113193     21920  TIP3      OH2            -3.4995794578       14.6270953195      -44.4710281476  TIP3      20560           0.0000000000
    113194     21920  TIP3      H1             -2.6985233536       15.1709366091      -44.4884958095  TIP3      20560           0.0000000000
    113195     21920  TIP3      H2             -4.1688119084       15.2481715603      -44.1304601003  TIP3      20560           0.0000000000
    113196     21921  TIP3      OH2           -17.8594232198       10.7015346686      -44.3029662185  TIP3      20561           0.0000000000
    113197     21921  TIP3      H1            -17.2219743919       11.3653210574      -43.9968832697  TIP3      20561           0.0000000000
    113198     21921  TIP3      H2            -17.3690627340       10.2974681710      -45.0167251435  TIP3      20561           0.0000000000
    113199     21922  TIP3      OH2           -19.5495911153        3.4232433039      -45.2287729711  TIP3      20562           0.0000000000
    113200     21922  TIP3      H1            -19.6109336562        4.3632488526      -44.9929563152  TIP3      20562           0.0000000000
    113201     21922  TIP3      H2            -20.4355798769        3.1597816321      -45.4657401877  TIP3      20562           0.0000000000
    113202     21923  TIP3      OH2           -14.0342066659        5.1218144309      -45.3528268487  TIP3      20563           0.0000000000
    113203     21923  TIP3      H1            -14.2091315247        4.9539897872      -46.2980660635  TIP3      20563           0.0000000000
    113204     21923  TIP3      H2            -13.0724236019        5.2119070654      -45.2988075548  TIP3      20563           0.0000000000
    113205     21924  TIP3      OH2           -14.1527837217       15.8421534130      -44.2619622374  TIP3      20564           0.0000000000
    113206     21924  TIP3      H1            -13.1956901945       15.9021995416      -44.2705190598  TIP3      20564           0.0000000000
    113207     21924  TIP3      H2            -14.4065796244       16.3943975159      -45.0058895709  TIP3      20564           0.0000000000
    113208     21925  TIP3      OH2           -20.5429219630       10.4049054901      -44.8100947202  TIP3      20565           0.0000000000
    113209     21925  TIP3      H1            -19.5984516371       10.5035574186      -44.6151271899  TIP3      20565           0.0000000000
    113210     21925  TIP3      H2            -20.5768426598        9.7608615447      -45.5201971184  TIP3      20565           0.0000000000
    113211     21926  TIP3      OH2            -5.1951129163        3.4995463520      -45.1764853376  TIP3      20566           0.0000000000
    113212     21926  TIP3      H1             -5.1648591436        4.1593960033      -45.8650529872  TIP3      20566           0.0000000000
    113213     21926  TIP3      H2             -5.3248232109        2.6641994583      -45.6592017056  TIP3      20566           0.0000000000
    113214     21927  TIP3      OH2            -3.7998136688       -0.2556695783      -44.4971364170  TIP3      20567           0.0000000000
    113215     21927  TIP3      H1             -3.4108271508       -0.9271859227      -45.0618161786  TIP3      20567           0.0000000000
    113216     21927  TIP3      H2             -3.1405480729        0.4365157365      -44.4647697269  TIP3      20567           0.0000000000
    113217     21928  TIP3      OH2           -20.2026156499       -2.1363002492      -43.4465438880  TIP3      20568           0.0000000000
    113218     21928  TIP3      H1            -19.7963049182       -1.4419254794      -43.9757101783  TIP3      20568           0.0000000000
    113219     21928  TIP3      H2            -20.8532525884       -1.6357550463      -42.9422771312  TIP3      20568           0.0000000000
    113220     21929  TIP3      OH2           -18.1926621977        0.0799549386      -44.8279572939  TIP3      20569           0.0000000000
    113221     21929  TIP3      H1            -17.8297937598       -0.5279820377      -45.4690538434  TIP3      20569           0.0000000000
    113222     21929  TIP3      H2            -17.5346967493        0.1479079855      -44.1524372885  TIP3      20569           0.0000000000
    113223     21930  TIP3      OH2           -18.5546015542       14.5915047295      -45.4939643332  TIP3      20570           0.0000000000
    113224     21930  TIP3      H1            -18.8249203444       14.9318369955      -44.6318029106  TIP3      20570           0.0000000000
    113225     21930  TIP3      H2            -17.7129830538       14.1429764938      -45.3490187731  TIP3      20570           0.0000000000
    113226     21931  TIP3      OH2             7.6009398743        4.9378585855      -44.8374260262  TIP3      20571           0.0000000000
    113227     21931  TIP3      H1              8.3021346761        4.9706466815      -44.1727052608  TIP3      20571           0.0000000000
    113228     21931  TIP3      H2              7.9090397439        4.2464321899      -45.4201752106  TIP3      20571           0.0000000000
    113229     21932  TIP3      OH2            13.5895000307       -2.3907267197      -43.2691756531  TIP3      20572           0.0000000000
    113230     21932  TIP3      H1             12.6361914203       -2.3316433545      -43.1116828726  TIP3      20572           0.0000000000
    113231     21932  TIP3      H2             13.7437790502       -1.5866785888      -43.7937795781  TIP3      20572           0.0000000000
    113232     21933  TIP3      OH2            14.5903532722       11.8630812255      -44.4558398465  TIP3      20573           0.0000000000
    113233     21933  TIP3      H1             14.7153800398       12.8244937860      -44.5602197494  TIP3      20573           0.0000000000
    113234     21933  TIP3      H2             15.4673835423       11.5634940840      -44.7552219134  TIP3      20573           0.0000000000
    113235     21934  TIP3      OH2            10.1457171594       14.6576481228      -44.2798841077  TIP3      20574           0.0000000000
    113236     21934  TIP3      H1             10.5599880266       13.9300611760      -44.7647258540  TIP3      20574           0.0000000000
    113237     21934  TIP3      H2             10.2009343034       14.3584309055      -43.3677725166  TIP3      20574           0.0000000000
    113238     21935  TIP3      OH2            11.2704192891        6.7096747312      -45.4462827880  TIP3      20575           0.0000000000
    113239     21935  TIP3      H1             11.2799545055        6.7376256526      -46.4091878161  TIP3      20575           0.0000000000
    113240     21935  TIP3      H2             12.1141497232        7.1974882299      -45.3821966973  TIP3      20575           0.0000000000
    113241     21936  TIP3      OH2             6.9149873563        0.7411528178      -44.8652159016  TIP3      20576           0.0000000000
    113242     21936  TIP3      H1              6.5858894939        0.7462505769      -43.9617531997  TIP3      20576           0.0000000000
    113243     21936  TIP3      H2              6.6319960744       -0.1191512634      -45.1875308664  TIP3      20576           0.0000000000
    113244     21937  TIP3      OH2             2.3372051748        3.9850450843      -44.3474435191  TIP3      20577           0.0000000000
    113245     21937  TIP3      H1              1.8807270452        3.5245680499      -45.0681548471  TIP3      20577           0.0000000000
    113246     21937  TIP3      H2              3.1941732082        4.1380425623      -44.7819890031  TIP3      20577           0.0000000000
    113247     21938  TIP3      OH2             9.6019576153        1.3785657596      -44.4290652422  TIP3      20578           0.0000000000
    113248     21938  TIP3      H1              8.6289830143        1.3947690464      -44.3929253075  TIP3      20578           0.0000000000
    113249     21938  TIP3      H2              9.9100099117        2.1148976609      -43.8622250222  TIP3      20578           0.0000000000
    113250     21939  TIP3      OH2            10.3115119496        3.2906837472      -42.6045131137  TIP3      20579           0.0000000000
    113251     21939  TIP3      H1             11.2179901678        3.0621901766      -42.3422501325  TIP3      20579           0.0000000000
    113252     21939  TIP3      H2             10.4646659164        4.0303624490      -43.1820963140  TIP3      20579           0.0000000000
    113253     21940  TIP3      OH2            -1.0640608080        6.2557998383      -44.8199497683  TIP3      20580           0.0000000000
    113254     21940  TIP3      H1             -0.4231563942        6.7371771826      -44.2731892657  TIP3      20580           0.0000000000
    113255     21940  TIP3      H2             -1.8915240845        6.5285433229      -44.3974158427  TIP3      20580           0.0000000000
    113256     21941  TIP3      OH2            10.8875713733       10.1688256477      -44.6506582285  TIP3      20581           0.0000000000
    113257     21941  TIP3      H1             11.2693165101        9.8526900979      -43.8260827397  TIP3      20581           0.0000000000
    113258     21941  TIP3      H2              9.9494811833       10.0535074587      -44.5045736292  TIP3      20581           0.0000000000
    113259     21942  TIP3      OH2            15.3564970441       14.6271941930      -44.4706911664  TIP3      20582           0.0000000000
    113260     21942  TIP3      H1             16.1567874877       15.1725107800      -44.4888311400  TIP3      20582           0.0000000000
    113261     21942  TIP3      H2             14.6871189776       15.2482944240      -44.1307720824  TIP3      20582           0.0000000000
    113262     21943  TIP3      OH2             0.9958559931       10.7021158888      -44.3039341767  TIP3      20583           0.0000000000
    113263     21943  TIP3      H1              1.6334605645       11.3654787590      -43.9974745655  TIP3      20583           0.0000000000
    113264     21943  TIP3      H2              1.4868499404       10.2974930750      -45.0167837347  TIP3      20583           0.0000000000
    113265     21944  TIP3      OH2            -0.6932635976        3.4214809691      -45.2348941026  TIP3      20584           0.0000000000
    113266     21944  TIP3      H1             -0.7531633294        4.3615147595      -44.9938837202  TIP3      20584           0.0000000000
    113267     21944  TIP3      H2             -1.5826078663        3.1604228389      -45.4644240147  TIP3      20584           0.0000000000
    113268     21945  TIP3      OH2             4.8202560552        5.1217803931      -45.3532987484  TIP3      20585           0.0000000000
    113269     21945  TIP3      H1              4.6469586281        4.9537423691      -46.2983375544  TIP3      20585           0.0000000000
    113270     21945  TIP3      H2              5.7821276095        5.2118657570      -45.2989198438  TIP3      20585           0.0000000000
    113271     21946  TIP3      OH2             4.7067751514       15.8372808809      -44.2625826996  TIP3      20586           0.0000000000
    113272     21946  TIP3      H1              5.6625115658       15.9051222866      -44.2736261545  TIP3      20586           0.0000000000
    113273     21946  TIP3      H2              4.4505582814       16.4013382795      -44.9974198296  TIP3      20586           0.0000000000
    113274     21947  TIP3      OH2            -1.6899826610       10.3942375162      -44.7980239781  TIP3      20587           0.0000000000
    113275     21947  TIP3      H1             -0.7441738252       10.5027444787      -44.6137550192  TIP3      20587           0.0000000000
    113276     21947  TIP3      H2             -1.7226627907        9.7603889308      -45.5176348778  TIP3      20587           0.0000000000
    113277     21948  TIP3      OH2            13.6675589629        3.5004836563      -45.1796023661  TIP3      20588           0.0000000000
    113278     21948  TIP3      H1             13.6902172497        4.1514005318      -45.8773293081  TIP3      20588           0.0000000000
    113279     21948  TIP3      H2             13.5289863216        2.6631286512      -45.6542628980  TIP3      20588           0.0000000000
    113280     21949  TIP3      OH2            15.0499757285       -0.2645038976      -44.4959441254  TIP3      20589           0.0000000000
    113281     21949  TIP3      H1             15.4433375641       -0.9298869899      -45.0642496226  TIP3      20589           0.0000000000
    113282     21949  TIP3      H2             15.6989382824        0.4352209609      -44.4805002246  TIP3      20589           0.0000000000
    113283     21950  TIP3      OH2            -1.3509956054       -2.1317574286      -43.4428706812  TIP3      20590           0.0000000000
    113284     21950  TIP3      H1             -0.9404221546       -1.4424099869      -43.9754581514  TIP3      20590           0.0000000000
    113285     21950  TIP3      H2             -2.0020160740       -1.6246060296      -42.9426478237  TIP3      20590           0.0000000000
    113286     21951  TIP3      OH2             0.6625312446        0.0796293439      -44.8272046560  TIP3      20591           0.0000000000
    113287     21951  TIP3      H1              1.0249911748       -0.5278382964      -45.4693744254  TIP3      20591           0.0000000000
    113288     21951  TIP3      H2              1.3210060750        0.1481589550      -44.1522027753  TIP3      20591           0.0000000000
    113289     21952  TIP3      OH2             0.3012284717       14.5911237848      -45.4938706334  TIP3      20592           0.0000000000
    113290     21952  TIP3      H1              0.0311088457       14.9318026122      -44.6317791729  TIP3      20592           0.0000000000
    113291     21952  TIP3      H2              1.1430988406       14.1430124366      -45.3489864054  TIP3      20592           0.0000000000
    113292     21953  TIP3      OH2            26.4635945685        4.9315032755      -44.8452953759  TIP3      20593           0.0000000000
    113293     21953  TIP3      H1             27.1587442649        4.9675610178      -44.1745475989  TIP3      20593           0.0000000000
    113294     21953  TIP3      H2             26.7794965943        4.2391778219      -45.4306025795  TIP3      20593           0.0000000000
    113295     21954  TIP3      OH2            32.4504218836       -2.4124124657      -43.3384061303  TIP3      20594           0.0000000000
    113296     21954  TIP3      H1             31.5105551888       -2.3460846467      -43.0933382957  TIP3      20594           0.0000000000
    113297     21954  TIP3      H2             32.5840342646       -1.5488305913      -43.7652808350  TIP3      20594           0.0000000000
    113298     21955  TIP3      OH2            33.3582742701       11.9356704558      -44.5757090254  TIP3      20595           0.0000000000
    113299     21955  TIP3      H1             33.5355624505       12.8918724258      -44.5924050861  TIP3      20595           0.0000000000
    113300     21955  TIP3      H2             34.2596031229       11.5683432425      -44.7074857396  TIP3      20595           0.0000000000
    113301     21956  TIP3      OH2            28.5957136702       14.5253668374      -44.1560921311  TIP3      20596           0.0000000000
    113302     21956  TIP3      H1             29.3266745781       14.1430293728      -44.7111428189  TIP3      20596           0.0000000000
    113303     21956  TIP3      H2             29.0633053968       14.4022885829      -43.3267721161  TIP3      20596           0.0000000000
    113304     21957  TIP3      OH2            30.1201279684        6.7318707025      -45.4399785419  TIP3      20597           0.0000000000
    113305     21957  TIP3      H1             30.1508081433        6.7269911776      -46.4056326902  TIP3      20597           0.0000000000
    113306     21957  TIP3      H2             30.9668233524        7.2209407512      -45.3689217842  TIP3      20597           0.0000000000
    113307     21958  TIP3      OH2            25.7674957675        0.7435965507      -44.8631902219  TIP3      20598           0.0000000000
    113308     21958  TIP3      H1             25.4441474811        0.7421890903      -43.9593781594  TIP3      20598           0.0000000000
    113309     21958  TIP3      H2             25.4895760776       -0.1133508294      -45.1958338932  TIP3      20598           0.0000000000
    113310     21959  TIP3      OH2            21.1905448601        3.9333445597      -44.3159166107  TIP3      20599           0.0000000000
    113311     21959  TIP3      H1             20.7461728486        3.5386167703      -45.0871858836  TIP3      20599           0.0000000000
    113312     21959  TIP3      H2             22.0360010418        4.1432845712      -44.7678868907  TIP3      20599           0.0000000000
    113313     21960  TIP3      OH2            28.4612475140        1.3232061493      -44.3201618599  TIP3      20600           0.0000000000
    113314     21960  TIP3      H1             27.4956722735        1.4011871904      -44.4288152373  TIP3      20600           0.0000000000
    113315     21960  TIP3      H2             28.7635685310        2.1335653218      -43.8741765906  TIP3      20600           0.0000000000
    113316     21961  TIP3      OH2            29.1749504962        3.2956603947      -42.6005152565  TIP3      20601           0.0000000000
    113317     21961  TIP3      H1             30.0822004208        3.0662628970      -42.3408161741  TIP3      20601           0.0000000000
    113318     21961  TIP3      H2             29.3199688558        4.0336730719      -43.1814884911  TIP3      20601           0.0000000000
    113319     21962  TIP3      OH2            17.8045376364        6.2072967191      -44.7672103997  TIP3      20602           0.0000000000
    113320     21962  TIP3      H1             18.4346846206        6.7622568668      -44.2814630079  TIP3      20602           0.0000000000
    113321     21962  TIP3      H2             16.9660826922        6.5448085217      -44.4275490611  TIP3      20602           0.0000000000
    113322     21963  TIP3      OH2            29.7140063944       10.1130567847      -44.6704747663  TIP3      20603           0.0000000000
    113323     21963  TIP3      H1             30.1483499157        9.8870912323      -43.8356106418  TIP3      20603           0.0000000000
    113324     21963  TIP3      H2             28.7892778667       10.0731143287      -44.4738245334  TIP3      20603           0.0000000000
    113325     21964  TIP3      OH2            34.3149773213       14.6462331015      -44.4077963428  TIP3      20604           0.0000000000
    113326     21964  TIP3      H1             35.0264502521       15.2643168946      -44.4970930281  TIP3      20604           0.0000000000
    113327     21964  TIP3      H2             33.5182372378       15.1797324482      -44.1859778830  TIP3      20604           0.0000000000
    113328     21965  TIP3      OH2            19.8527035252       10.7026900495      -44.3032920278  TIP3      20605           0.0000000000
    113329     21965  TIP3      H1             20.4907462355       11.3668213218      -43.9984528960  TIP3      20605           0.0000000000
    113330     21965  TIP3      H2             20.3434611383       10.2975223849      -45.0162854882  TIP3      20605           0.0000000000
    113331     21966  TIP3      OH2            18.1541668607        3.4051399448      -45.1706521239  TIP3      20606           0.0000000000
    113332     21966  TIP3      H1             18.0964581028        4.3670450966      -45.0195151087  TIP3      20606           0.0000000000
    113333     21966  TIP3      H2             17.2880488884        3.1625958541      -45.4933258514  TIP3      20606           0.0000000000
    113334     21967  TIP3      OH2            23.6810595736        5.1261383517      -45.3537994401  TIP3      20607           0.0000000000
    113335     21967  TIP3      H1             23.5126535861        4.9464040345      -46.2987146614  TIP3      20607           0.0000000000
    113336     21967  TIP3      H2             24.6488285929        5.1955261547      -45.3070722192  TIP3      20607           0.0000000000
    113337     21968  TIP3      OH2            23.5568012419       15.8590823835      -44.2232345287  TIP3      20608           0.0000000000
    113338     21968  TIP3      H1             24.5171125079       15.8897831840      -44.2952104920  TIP3      20608           0.0000000000
    113339     21968  TIP3      H2             23.3222158605       16.4105142331      -44.9995577759  TIP3      20608           0.0000000000
    113340     21969  TIP3      OH2            17.1691678020       10.4042951442      -44.8097585502  TIP3      20609           0.0000000000
    113341     21969  TIP3      H1             18.1137760558       10.5041956990      -44.6155993275  TIP3      20609           0.0000000000
    113342     21969  TIP3      H2             17.1350643737        9.7615473208      -45.5207039874  TIP3      20609           0.0000000000
    113343     21970  TIP3      OH2            32.5287038617        3.5087056253      -45.1701518920  TIP3      20610           0.0000000000
    113344     21970  TIP3      H1             32.5313832326        4.1443541798      -45.8880543402  TIP3      20610           0.0000000000
    113345     21970  TIP3      H2             32.3783424588        2.6771251599      -45.6545717919  TIP3      20610           0.0000000000
    113346     21971  TIP3      OH2            33.8945331037       -0.2412554680      -44.5470885162  TIP3      20611           0.0000000000
    113347     21971  TIP3      H1             34.3405756009       -0.9103603934      -45.0486452921  TIP3      20611           0.0000000000
    113348     21971  TIP3      H2             34.5586209485        0.4476937565      -44.4433454486  TIP3      20611           0.0000000000
    113349     21972  TIP3      OH2            17.5284553032       -2.1245987551      -43.4370430686  TIP3      20612           0.0000000000
    113350     21972  TIP3      H1             17.9029938561       -1.4419244807      -43.9943190109  TIP3      20612           0.0000000000
    113351     21972  TIP3      H2             16.8392363246       -1.6511652815      -42.9554902344  TIP3      20612           0.0000000000
    113352     21973  TIP3      OH2            19.5230204588        0.0812210166      -44.8229128099  TIP3      20613           0.0000000000
    113353     21973  TIP3      H1             19.8630306706       -0.5292647296      -45.4862249604  TIP3      20613           0.0000000000
    113354     21973  TIP3      H2             20.2003261497        0.1101057649      -44.1678039657  TIP3      20613           0.0000000000
    113355     21974  TIP3      OH2            19.1608963278       14.5920986237      -45.4940950668  TIP3      20614           0.0000000000
    113356     21974  TIP3      H1             18.8879612802       14.9323838717      -44.6323214526  TIP3      20614           0.0000000000
    113357     21974  TIP3      H2             20.0125847037       14.1610150162      -45.3525740999  TIP3      20614           0.0000000000
    113358     21975  TIP3      OH2            40.0953947645        3.9717045295      -44.3999131035  TIP3      20615           0.0000000000
    113359     21975  TIP3      H1             39.5362578367        3.5364397190      -45.0655415233  TIP3      20615           0.0000000000
    113360     21975  TIP3      H2             40.9206021324        4.1243396268      -44.8463360494  TIP3      20615           0.0000000000
    113361     21976  TIP3      OH2            36.6677854087        6.2307472592      -44.7977424598  TIP3      20616           0.0000000000
    113362     21976  TIP3      H1             37.2887823410        6.7631646514      -44.2767688585  TIP3      20616           0.0000000000
    113363     21976  TIP3      H2             35.8330645738        6.5458800738      -44.4219586918  TIP3      20616           0.0000000000
    113364     21977  TIP3      OH2           -40.9779269613        0.2664144309      -43.3304196269  TIP3      20617           0.0000000000
    113365     21977  TIP3      H1            -41.0807726176        1.1822273459      -43.0415915827  TIP3      20617           0.0000000000
    113366     21977  TIP3      H2            -40.0710611241        0.0749383035      -43.1278813344  TIP3      20617           0.0000000000
    113367     21978  TIP3      OH2            38.7273672890       10.6740809710      -44.3008431690  TIP3      20618           0.0000000000
    113368     21978  TIP3      H1             39.3425541450       11.3689207065      -44.0325974454  TIP3      20618           0.0000000000
    113369     21978  TIP3      H2             39.2238072149       10.2982570093      -45.0265083807  TIP3      20618           0.0000000000
    113370     21979  TIP3      OH2            37.0452875068        3.4144947180      -45.1792137497  TIP3      20619           0.0000000000
    113371     21979  TIP3      H1             36.9523393179        4.3620749872      -45.0018372915  TIP3      20619           0.0000000000
    113372     21979  TIP3      H2             36.1691930839        3.1421933946      -45.4536837932  TIP3      20619           0.0000000000
    113373     21980  TIP3      OH2            36.1045082592       10.5406468586      -45.0540238987  TIP3      20620           0.0000000000
    113374     21980  TIP3      H1             36.9536345346       10.4658130787      -44.5936567927  TIP3      20620           0.0000000000
    113375     21980  TIP3      H2             35.9523439043        9.6971875267      -45.4796679198  TIP3      20620           0.0000000000
    113376     21981  TIP3      OH2            36.2466599215       -2.1484509456      -43.5433921609  TIP3      20621           0.0000000000
    113377     21981  TIP3      H1             36.7878339781       -1.4444173867      -43.9310478510  TIP3      20621           0.0000000000
    113378     21981  TIP3      H2             35.7491724368       -1.6263441474      -42.9035954464  TIP3      20621           0.0000000000
    113379     21982  TIP3      OH2            38.3405850744        0.0978606981      -44.8570457617  TIP3      20622           0.0000000000
    113380     21982  TIP3      H1             38.7681196051       -0.5191562231      -45.4419153309  TIP3      20622           0.0000000000
    113381     21982  TIP3      H2             39.0124371140        0.1486440889      -44.1547138726  TIP3      20622           0.0000000000
    113382     21983  TIP3      OH2            38.0085942544       14.6177992695      -45.4935031719  TIP3      20623           0.0000000000
    113383     21983  TIP3      H1             37.7437711807       14.9399687385      -44.6282767865  TIP3      20623           0.0000000000
    113384     21983  TIP3      H2             38.8507467083       14.1523217726      -45.3673105526  TIP3      20623           0.0000000000
    113385     21984  TIP3      OH2           -30.1111560752       23.7928829406      -44.8363824158  TIP3      20624           0.0000000000
    113386     21984  TIP3      H1            -29.4096109720       23.8268407158      -44.1730382258  TIP3      20624           0.0000000000
    113387     21984  TIP3      H2            -29.8028446172       23.1028792447      -45.4208251687  TIP3      20624           0.0000000000
    113388     21985  TIP3      OH2           -24.1226271769       16.4657220192      -43.2686226142  TIP3      20625           0.0000000000
    113389     21985  TIP3      H1            -25.0759852973       16.5245171449      -43.1120142856  TIP3      20625           0.0000000000
    113390     21985  TIP3      H2            -23.9680851622       17.2687145432      -43.7942502546  TIP3      20625           0.0000000000
    113391     21986  TIP3      OH2           -23.1207845104       30.7201950424      -44.4553390966  TIP3      20626           0.0000000000
    113392     21986  TIP3      H1            -22.9967010340       31.6808419984      -44.5602168933  TIP3      20626           0.0000000000
    113393     21986  TIP3      H2            -22.2437660854       30.4197498542      -44.7543433387  TIP3      20626           0.0000000000
    113394     21987  TIP3      OH2           -27.5707812202       33.5118128480      -44.2812951188  TIP3      20627           0.0000000000
    113395     21987  TIP3      H1            -27.1514330937       32.7855299175      -44.7654287356  TIP3      20627           0.0000000000
    113396     21987  TIP3      H2            -27.5108221431       33.2155386706      -43.3696465810  TIP3      20627           0.0000000000
    113397     21988  TIP3      OH2           -26.4408568499       25.5655669003      -45.4462432920  TIP3      20628           0.0000000000
    113398     21988  TIP3      H1            -26.4307711023       25.5932824650      -46.4090708206  TIP3      20628           0.0000000000
    113399     21988  TIP3      H2            -25.5976886622       26.0537828651      -45.3820138083  TIP3      20628           0.0000000000
    113400     21989  TIP3      OH2           -30.7956757109       19.6003695516      -44.8652625002  TIP3      20629           0.0000000000
    113401     21989  TIP3      H1            -31.1271426969       19.6002623691      -43.9624125584  TIP3      20629           0.0000000000
    113402     21989  TIP3      H2            -31.0755369288       18.7411352663      -45.1923568107  TIP3      20629           0.0000000000
    113403     21990  TIP3      OH2           -35.3645872165       22.8414317462      -44.3554369379  TIP3      20630           0.0000000000
    113404     21990  TIP3      H1            -35.8333899395       22.4050023626      -45.0817713150  TIP3      20630           0.0000000000
    113405     21990  TIP3      H2            -34.5074706291       22.9874450595      -44.7912751681  TIP3      20630           0.0000000000
    113406     21991  TIP3      OH2           -28.1098970336       20.2346425546      -44.4287618706  TIP3      20631           0.0000000000
    113407     21991  TIP3      H1            -29.0830265726       20.2507297673      -44.3930406547  TIP3      20631           0.0000000000
    113408     21991  TIP3      H2            -27.8017751455       20.9711430081      -43.8623543674  TIP3      20631           0.0000000000
    113409     21992  TIP3      OH2           -27.3961685722       22.1444783350      -42.6019451855  TIP3      20632           0.0000000000
    113410     21992  TIP3      H1            -26.4868212429       21.9198062571      -42.3426503798  TIP3      20632           0.0000000000
    113411     21992  TIP3      H2            -27.2478193074       22.8846782490      -43.1810008240  TIP3      20632           0.0000000000
    113412     21993  TIP3      OH2           -38.7675543764       25.0220674665      -44.7678603039  TIP3      20633           0.0000000000
    113413     21993  TIP3      H1            -38.1410513202       25.5915464897      -44.2913013512  TIP3      20633           0.0000000000
    113414     21993  TIP3      H2            -39.5985055367       25.3528720711      -44.4300341985  TIP3      20633           0.0000000000
    113415     21994  TIP3      OH2           -26.8243051722       29.0249206774      -44.6504569957  TIP3      20634           0.0000000000
    113416     21994  TIP3      H1            -26.4426948945       28.7089319692      -43.8257288507  TIP3      20634           0.0000000000
    113417     21994  TIP3      H2            -27.7624287667       28.9094985837      -44.5044778742  TIP3      20634           0.0000000000
    113418     21995  TIP3      OH2           -22.3419188818       33.5114488578      -44.4666421487  TIP3      20635           0.0000000000
    113419     21995  TIP3      H1            -21.5479235591       34.0566989312      -44.4824759247  TIP3      20635           0.0000000000
    113420     21995  TIP3      H2            -23.0179265409       34.1260654172      -44.1264228368  TIP3      20635           0.0000000000
    113421     21996  TIP3      OH2           -36.7470367946       29.5538227655      -44.3263804543  TIP3      20636           0.0000000000
    113422     21996  TIP3      H1            -36.1279020014       30.2257119336      -43.9959842215  TIP3      20636           0.0000000000
    113423     21996  TIP3      H2            -36.2255646186       29.1523515474      -45.0199717534  TIP3      20636           0.0000000000
    113424     21997  TIP3      OH2           -38.4125759912       22.2369468846      -45.2305681241  TIP3      20637           0.0000000000
    113425     21997  TIP3      H1            -38.4255273685       23.1895899749      -45.0132136820  TIP3      20637           0.0000000000
    113426     21997  TIP3      H2            -39.2913000687       21.9903847546      -45.5016230695  TIP3      20637           0.0000000000
    113427     21998  TIP3      OH2           -32.8875516177       23.9744435496      -45.3536969372  TIP3      20638           0.0000000000
    113428     21998  TIP3      H1            -33.0634565561       23.8102501464      -46.2987756628  TIP3      20638           0.0000000000
    113429     21998  TIP3      H2            -31.9266457589       24.0677510952      -45.3012449452  TIP3      20638           0.0000000000
    113430     21999  TIP3      OH2           -33.0070486887       34.6960768354      -44.2666669937  TIP3      20639           0.0000000000
    113431     21999  TIP3      H1            -32.0504878564       34.7593012649      -44.2733843417  TIP3      20639           0.0000000000
    113432     21999  TIP3      H2            -33.2556638054       35.2671391379      -44.9999447128  TIP3      20639           0.0000000000
    113433     22000  TIP3      OH2           -39.4300246806       29.1301347902      -44.7877543288  TIP3      20640           0.0000000000
    113434     22000  TIP3      H1            -38.4977212558       29.3911661876      -44.6236702669  TIP3      20640           0.0000000000
    113435     22000  TIP3      H2            -39.3603974374       28.6455479158      -45.6095831919  TIP3      20640           0.0000000000
    113436     22001  TIP3      OH2           -24.0572159941       22.3613069294      -45.1744836840  TIP3      20641           0.0000000000
    113437     22001  TIP3      H1            -24.0210373528       23.0070902658      -45.8765753973  TIP3      20641           0.0000000000
    113438     22001  TIP3      H2            -24.1821976477       21.5215737561      -45.6513363544  TIP3      20641           0.0000000000
    113439     22002  TIP3      OH2           -22.6565337496       18.6009305456      -44.4942301840  TIP3      20642           0.0000000000
    113440     22002  TIP3      H1            -22.2683393482       17.9296875819      -45.0612028484  TIP3      20642           0.0000000000
    113441     22002  TIP3      H2            -21.9962253420       19.2923329304      -44.4660704797  TIP3      20642           0.0000000000
    113442     22003  TIP3      OH2           -39.1026123349       16.7411017043      -43.4189215469  TIP3      20643           0.0000000000
    113443     22003  TIP3      H1            -38.8977723495       17.3807473276      -44.1118665711  TIP3      20643           0.0000000000
    113444     22003  TIP3      H2            -39.8476601506       17.1609305836      -42.9662741333  TIP3      20643           0.0000000000
    113445     22004  TIP3      OH2           -37.0785586843       18.7400986772      -44.6625438717  TIP3      20644           0.0000000000
    113446     22004  TIP3      H1            -36.7118232636       18.4200823596      -45.5146202670  TIP3      20644           0.0000000000
    113447     22004  TIP3      H2            -36.3258354914       19.1395686389      -44.2444196064  TIP3      20644           0.0000000000
    113448     22005  TIP3      OH2           -37.4376157460       33.4402274439      -45.4874179517  TIP3      20645           0.0000000000
    113449     22005  TIP3      H1            -37.6995267806       33.8153776236      -44.6309586891  TIP3      20645           0.0000000000
    113450     22005  TIP3      H2            -36.5895653534       33.0075177196      -45.3339851840  TIP3      20645           0.0000000000
    113451     22006  TIP3      OH2           -11.2556549412       23.8039811117      -44.8413274947  TIP3      20646           0.0000000000
    113452     22006  TIP3      H1            -10.5734055925       23.8134256127      -44.1532832006  TIP3      20646           0.0000000000
    113453     22006  TIP3      H2            -10.9530573434       23.1083163173      -45.4202923011  TIP3      20646           0.0000000000
    113454     22007  TIP3      OH2            -5.2666605145       16.4659922308      -43.2685447900  TIP3      20647           0.0000000000
    113455     22007  TIP3      H1             -6.2199428432       16.5249535357      -43.1118138713  TIP3      20647           0.0000000000
    113456     22007  TIP3      H2             -5.1120913970       17.2688936503      -43.7942566281  TIP3      20647           0.0000000000
    113457     22008  TIP3      OH2            -4.2626417122       30.7695016356      -44.5265694144  TIP3      20648           0.0000000000
    113458     22008  TIP3      H1             -4.1207690640       31.7251363013      -44.5437148113  TIP3      20648           0.0000000000
    113459     22008  TIP3      H2             -3.3801880326       30.4254812325      -44.7344750591  TIP3      20648           0.0000000000
    113460     22009  TIP3      OH2            -8.7693869016       33.4837387178      -44.2961834788  TIP3      20649           0.0000000000
    113461     22009  TIP3      H1             -8.2698189339       32.7861235101      -44.7393325212  TIP3      20649           0.0000000000
    113462     22009  TIP3      H2             -8.6214302887       33.2590343519      -43.3651857119  TIP3      20649           0.0000000000
    113463     22010  TIP3      OH2            -7.5862865049       25.5450201450      -45.4595195737  TIP3      20650           0.0000000000
    113464     22010  TIP3      H1             -7.5571959694       25.6021503861      -46.4188028736  TIP3      20650           0.0000000000
    113465     22010  TIP3      H2             -6.7669871240       26.0712034015      -45.3585384850  TIP3      20650           0.0000000000
    113466     22011  TIP3      OH2           -11.9459786408       19.5923572939      -44.8848407681  TIP3      20651           0.0000000000
    113467     22011  TIP3      H1            -12.2497489266       19.6333875287      -43.9669642132  TIP3      20651           0.0000000000
    113468     22011  TIP3      H2            -12.2292893746       18.7243714080      -45.1726742715  TIP3      20651           0.0000000000
    113469     22012  TIP3      OH2           -16.5392288837       22.8615764602      -44.3682334165  TIP3      20652           0.0000000000
    113470     22012  TIP3      H1            -16.9757645253       22.3783350835      -45.0856930644  TIP3      20652           0.0000000000
    113471     22012  TIP3      H2            -15.6562322489       22.9793702063      -44.7692904376  TIP3      20652           0.0000000000
    113472     22013  TIP3      OH2            -9.2503245723       20.2617572733      -44.4729666869  TIP3      20653           0.0000000000
    113473     22013  TIP3      H1            -10.2226337354       20.2485020389      -44.3670843252  TIP3      20653           0.0000000000
    113474     22013  TIP3      H2             -8.9596106992       20.9592581807      -43.8446332037  TIP3      20653           0.0000000000
    113475     22014  TIP3      OH2            -8.5172579806       22.1327478414      -42.6048582549  TIP3      20654           0.0000000000
    113476     22014  TIP3      H1             -7.6150009261       21.9261563948      -42.3340195609  TIP3      20654           0.0000000000
    113477     22014  TIP3      H2             -8.4079506199       22.8915676559      -43.1665243664  TIP3      20654           0.0000000000
    113478     22015  TIP3      OH2           -19.9154785451       25.1039258509      -44.8142489128  TIP3      20655           0.0000000000
    113479     22015  TIP3      H1            -19.2746973332       25.5921679103      -44.2746724429  TIP3      20655           0.0000000000
    113480     22015  TIP3      H2            -20.7428524758       25.3894892804      -44.4152344502  TIP3      20655           0.0000000000
    113481     22016  TIP3      OH2            -8.2614919191       28.9941353785      -44.8952752714  TIP3      20656           0.0000000000
    113482     22016  TIP3      H1             -7.6591131857       28.7735264193      -44.1269029146  TIP3      20656           0.0000000000
    113483     22016  TIP3      H2             -9.0961085710       28.9166589387      -44.4652313467  TIP3      20656           0.0000000000
    113484     22017  TIP3      OH2            -3.4420811972       33.4867409361      -44.4994516110  TIP3      20657           0.0000000000
    113485     22017  TIP3      H1             -2.6847512101       34.0717822922      -44.4856818546  TIP3      20657           0.0000000000
    113486     22017  TIP3      H2             -4.1539293894       34.0752710364      -44.1387948604  TIP3      20657           0.0000000000
    113487     22018  TIP3      OH2           -17.8597286988       29.5577540929      -44.3029181289  TIP3      20658           0.0000000000
    113488     22018  TIP3      H1            -17.2224044092       30.2216329614      -43.9968679174  TIP3      20658           0.0000000000
    113489     22018  TIP3      H2            -17.3685395680       29.1532315045      -45.0157062191  TIP3      20658           0.0000000000
    113490     22019  TIP3      OH2           -19.5506897565       22.2788459241      -45.2296982995  TIP3      20659           0.0000000000
    113491     22019  TIP3      H1            -19.6096755732       23.2188685076      -44.9927990809  TIP3      20659           0.0000000000
    113492     22019  TIP3      H2            -20.4372375110       22.0171928441      -45.4652583247  TIP3      20659           0.0000000000
    113493     22020  TIP3      OH2           -14.0399329283       24.0102557353      -45.3639923364  TIP3      20660           0.0000000000
    113494     22020  TIP3      H1            -14.1874163781       23.7974876850      -46.3050608077  TIP3      20660           0.0000000000
    113495     22020  TIP3      H2            -13.0718339308       24.0450874106      -45.2914119403  TIP3      20660           0.0000000000
    113496     22021  TIP3      OH2           -14.1462717678       34.6866991175      -44.2724913464  TIP3      20661           0.0000000000
    113497     22021  TIP3      H1            -13.1906526767       34.7579544805      -44.2716251645  TIP3      20661           0.0000000000
    113498     22021  TIP3      H2            -14.3900084950       35.2504586598      -45.0130175808  TIP3      20661           0.0000000000
    113499     22022  TIP3      OH2           -20.5428796959       29.2609810840      -44.8102985665  TIP3      20662           0.0000000000
    113500     22022  TIP3      H1            -19.5983955361       29.3597282729      -44.6154097046  TIP3      20662           0.0000000000
    113501     22022  TIP3      H2            -20.5772327976       28.6167762037      -45.5203075378  TIP3      20662           0.0000000000
    113502     22023  TIP3      OH2            -5.1976548556       22.3647779089      -45.1752555152  TIP3      20663           0.0000000000
    113503     22023  TIP3      H1             -5.1770288564       23.0087078190      -45.8815545773  TIP3      20663           0.0000000000
    113504     22023  TIP3      H2             -5.3297297326       21.5264763606      -45.6466613448  TIP3      20663           0.0000000000
    113505     22024  TIP3      OH2            -3.8002004968       18.6006981573      -44.4937274940  TIP3      20664           0.0000000000
    113506     22024  TIP3      H1             -3.4123615050       17.9296929442      -45.0612662744  TIP3      20664           0.0000000000
    113507     22024  TIP3      H2             -3.1401832720       19.2923477060      -44.4661569460  TIP3      20664           0.0000000000
    113508     22025  TIP3      OH2           -20.2028808204       16.7200604909      -43.4463082053  TIP3      20665           0.0000000000
    113509     22025  TIP3      H1            -19.7962099383       17.4141522887      -43.9755110751  TIP3      20665           0.0000000000
    113510     22025  TIP3      H2            -20.8521449944       17.2215880370      -42.9414069805  TIP3      20665           0.0000000000
    113511     22026  TIP3      OH2           -18.1920242376       18.9376118832      -44.8304120399  TIP3      20666           0.0000000000
    113512     22026  TIP3      H1            -17.8289468972       18.3275438878      -45.4698662502  TIP3      20666           0.0000000000
    113513     22026  TIP3      H2            -17.5368202246       19.0037503622      -44.1517457849  TIP3      20666           0.0000000000
    113514     22027  TIP3      OH2           -18.5580690465       33.4591178108      -45.4920628101  TIP3      20667           0.0000000000
    113515     22027  TIP3      H1            -18.8262333961       33.8034992742      -44.6295960830  TIP3      20667           0.0000000000
    113516     22027  TIP3      H2            -17.7185381393       33.0017896855      -45.3481373548  TIP3      20667           0.0000000000
    113517     22028  TIP3      OH2             7.6007926815       23.7936172112      -44.8372112207  TIP3      20668           0.0000000000
    113518     22028  TIP3      H1              8.3016014441       23.8265719220      -44.1731555149  TIP3      20668           0.0000000000
    113519     22028  TIP3      H2              7.9090369940       23.1025735946      -45.4203463437  TIP3      20668           0.0000000000
    113520     22029  TIP3      OH2            13.5901174901       16.4659378551      -43.2682062963  TIP3      20669           0.0000000000
    113521     22029  TIP3      H1             12.6366275888       16.5246846067      -43.1122464280  TIP3      20669           0.0000000000
    113522     22029  TIP3      H2             13.7449578388       17.2685774222      -43.7942813109  TIP3      20669           0.0000000000
    113523     22030  TIP3      OH2            14.5888091745       30.7185777636      -44.4567036606  TIP3      20670           0.0000000000
    113524     22030  TIP3      H1             14.7153387870       31.6808120634      -44.5601417922  TIP3      20670           0.0000000000
    113525     22030  TIP3      H2             15.4679933811       30.4199143666      -44.7550044403  TIP3      20670           0.0000000000
    113526     22031  TIP3      OH2            10.1395144753       33.5109187429      -44.2836043113  TIP3      20671           0.0000000000
    113527     22031  TIP3      H1             10.5605834587       32.7855132637      -44.7654404635  TIP3      20671           0.0000000000
    113528     22031  TIP3      H2             10.2010994109       33.2155423675      -43.3696592118  TIP3      20671           0.0000000000
    113529     22032  TIP3      OH2            11.2711175188       25.5655840916      -45.4462907261  TIP3      20672           0.0000000000
    113530     22032  TIP3      H1             11.2807187050       25.5935396237      -46.4091449973  TIP3      20672           0.0000000000
    113531     22032  TIP3      H2             12.1143253574       26.0537436096      -45.3821553650  TIP3      20672           0.0000000000
    113532     22033  TIP3      OH2             6.9159408592       19.5990893049      -44.8657492872  TIP3      20673           0.0000000000
    113533     22033  TIP3      H1              6.5856284455       19.6012678053      -43.9625726247  TIP3      20673           0.0000000000
    113534     22033  TIP3      H2              6.6308923072       18.7413661361      -45.1936165613  TIP3      20673           0.0000000000
    113535     22034  TIP3      OH2             2.3436241409       22.8391771581      -44.3513603309  TIP3      20674           0.0000000000
    113536     22034  TIP3      H1              1.8813615638       22.3808392792      -45.0692641229  TIP3      20674           0.0000000000
    113537     22034  TIP3      H2              3.1993980096       22.9903142186      -44.7870997279  TIP3      20674           0.0000000000
    113538     22035  TIP3      OH2             9.6019996955       20.2345700452      -44.4287449909  TIP3      20675           0.0000000000
    113539     22035  TIP3      H1              8.6289374609       20.2507082224      -44.3930369814  TIP3      20675           0.0000000000
    113540     22035  TIP3      H2              9.9101552682       20.9711168317      -43.8623996702  TIP3      20675           0.0000000000
    113541     22036  TIP3      OH2            10.3158462887       22.1443612785      -42.6019884750  TIP3      20676           0.0000000000
    113542     22036  TIP3      H1             11.2252017119       21.9198379669      -42.3426613747  TIP3      20676           0.0000000000
    113543     22036  TIP3      H2             10.4641085728       22.8847071354      -43.1809303266  TIP3      20676           0.0000000000
    113544     22037  TIP3      OH2            -1.0672155725       25.1089488671      -44.8060014545  TIP3      20677           0.0000000000
    113545     22037  TIP3      H1             -0.4218042094       25.5955704857      -44.2715145934  TIP3      20677           0.0000000000
    113546     22037  TIP3      H2             -1.8973343606       25.4031673711      -44.4068058442  TIP3      20677           0.0000000000
    113547     22038  TIP3      OH2            10.8876729738       29.0249458912      -44.6504654680  TIP3      20678           0.0000000000
    113548     22038  TIP3      H1             11.2693033911       28.7089258316      -43.8257453170  TIP3      20678           0.0000000000
    113549     22038  TIP3      H2              9.9495680824       28.9094785161      -44.5044665531  TIP3      20678           0.0000000000
    113550     22039  TIP3      OH2            15.3665387023       33.5053602936      -44.4666957747  TIP3      20679           0.0000000000
    113551     22039  TIP3      H1             16.1621127833       34.0535015793      -44.4823229517  TIP3      20679           0.0000000000
    113552     22039  TIP3      H2             14.6934547376       34.1253082640      -44.1266408041  TIP3      20679           0.0000000000
    113553     22040  TIP3      OH2             1.0026698297       29.5539157630      -44.3021211620  TIP3      20680           0.0000000000
    113554     22040  TIP3      H1              1.6357397869       30.2231966411      -43.9995051405  TIP3      20680           0.0000000000
    113555     22040  TIP3      H2              1.4925343746       29.1536862212      -45.0186617140  TIP3      20680           0.0000000000
    113556     22041  TIP3      OH2            -0.6939749060       22.2797982084      -45.2297172514  TIP3      20681           0.0000000000
    113557     22041  TIP3      H1             -0.7551959859       23.2193774558      -44.9924111069  TIP3      20681           0.0000000000
    113558     22041  TIP3      H2             -1.5805984677       22.0170085200      -45.4652478050  TIP3      20681           0.0000000000
    113559     22042  TIP3      OH2             4.8202736446       23.9778304699      -45.3533051475  TIP3      20682           0.0000000000
    113560     22042  TIP3      H1              4.6467813686       23.8099694077      -46.2984136135  TIP3      20682           0.0000000000
    113561     22042  TIP3      H2              5.7820142378       24.0680576618      -45.2988428876  TIP3      20682           0.0000000000
    113562     22043  TIP3      OH2             4.7043164397       34.6990152471      -44.2639119916  TIP3      20683           0.0000000000
    113563     22043  TIP3      H1              5.6609410528       34.7592793980      -44.2735979755  TIP3      20683           0.0000000000
    113564     22043  TIP3      H2              4.4564735932       35.2672876478      -44.9997986937  TIP3      20683           0.0000000000
    113565     22044  TIP3      OH2            -1.6720699796       29.2840698677      -44.8185522506  TIP3      20684           0.0000000000
    113566     22044  TIP3      H1             -0.7303194038       29.3480819068      -44.6184252523  TIP3      20684           0.0000000000
    113567     22044  TIP3      H2             -1.7480254747       28.6110481846      -45.4996327921  TIP3      20684           0.0000000000
    113568     22045  TIP3      OH2            13.6529199099       22.3618320699      -45.1739551952  TIP3      20685           0.0000000000
    113569     22045  TIP3      H1             13.6909659013       23.0072229618      -45.8764032224  TIP3      20685           0.0000000000
    113570     22045  TIP3      H2             13.5307014372       21.5219499312      -45.6514525848  TIP3      20685           0.0000000000
    113571     22046  TIP3      OH2            15.0552265084       18.6011873690      -44.4944742106  TIP3      20686           0.0000000000
    113572     22046  TIP3      H1             15.4440701383       17.9295668268      -45.0609038274  TIP3      20686           0.0000000000
    113573     22046  TIP3      H2             15.7161643386       19.2918794028      -44.4660532894  TIP3      20686           0.0000000000
    113574     22047  TIP3      OH2            -1.3470225810       16.7200902295      -43.4461666016  TIP3      20687           0.0000000000
    113575     22047  TIP3      H1             -0.9404830324       17.4141772214      -43.9755720439  TIP3      20687           0.0000000000
    113576     22047  TIP3      H2             -1.9977323816       17.2207747138      -42.9420940796  TIP3      20687           0.0000000000
    113577     22048  TIP3      OH2             0.6633244606       18.9364480330      -44.8282195268  TIP3      20688           0.0000000000
    113578     22048  TIP3      H1              1.0250302094       18.3275678608      -45.4694883281  TIP3      20688           0.0000000000
    113579     22048  TIP3      H2              1.3210265460       19.0038570854      -44.1523625292  TIP3      20688           0.0000000000
    113580     22049  TIP3      OH2             0.2955679086       33.4503524816      -45.4845142277  TIP3      20689           0.0000000000
    113581     22049  TIP3      H1              0.0145921098       33.7885829561      -44.6220882240  TIP3      20689           0.0000000000
    113582     22049  TIP3      H2              1.1390348712       33.0021046116      -45.3434387328  TIP3      20689           0.0000000000
    113583     22050  TIP3      OH2            26.4802570075       23.8238568577      -44.8667120263  TIP3      20690           0.0000000000
    113584     22050  TIP3      H1             27.1471575814       23.8021736838      -44.1653084013  TIP3      20690           0.0000000000
    113585     22050  TIP3      H2             26.7366719779       23.0756698092      -45.4123615411  TIP3      20690           0.0000000000
    113586     22051  TIP3      OH2            32.4899311214       16.5964102899      -43.1135952270  TIP3      20691           0.0000000000
    113587     22051  TIP3      H1             31.5237868180       16.4642675445      -43.1613946192  TIP3      20691           0.0000000000
    113588     22051  TIP3      H2             32.5931799941       17.2490244001      -43.8235489837  TIP3      20691           0.0000000000
    113589     22052  TIP3      OH2            33.4607283946       30.7122023796      -44.4386559263  TIP3      20692           0.0000000000
    113590     22052  TIP3      H1             33.5529568701       31.6776396164      -44.5625838667  TIP3      20692           0.0000000000
    113591     22052  TIP3      H2             34.3224265260       30.4363157454      -44.7772255973  TIP3      20692           0.0000000000
    113592     22053  TIP3      OH2            28.9920219938       33.5012859149      -44.2745475555  TIP3      20693           0.0000000000
    113593     22053  TIP3      H1             29.4366310414       32.7950605746      -44.7569531776  TIP3      20693           0.0000000000
    113594     22053  TIP3      H2             29.0661346797       33.2284624049      -43.3572612587  TIP3      20693           0.0000000000
    113595     22054  TIP3      OH2            30.0977848312       25.6194929112      -45.4508808970  TIP3      20694           0.0000000000
    113596     22054  TIP3      H1             30.1708150133       25.5533298731      -46.4095870000  TIP3      20694           0.0000000000
    113597     22054  TIP3      H2             30.9808266346       26.0415292214      -45.3748426633  TIP3      20694           0.0000000000
    113598     22055  TIP3      OH2            25.9486920310       19.5657076648      -44.7587336215  TIP3      20695           0.0000000000
    113599     22055  TIP3      H1             25.4059117891       19.5910947124      -43.9760223878  TIP3      20695           0.0000000000
    113600     22055  TIP3      H2             25.4476900256       18.8644310107      -45.2574593595  TIP3      20695           0.0000000000
    113601     22056  TIP3      OH2            21.1855517112       22.8732063919      -44.3623569142  TIP3      20696           0.0000000000
    113602     22056  TIP3      H1             20.7566732151       22.3592395704      -45.0685263893  TIP3      20696           0.0000000000
    113603     22056  TIP3      H2             22.0541263548       22.9644461483      -44.7890151173  TIP3      20696           0.0000000000
    113604     22057  TIP3      OH2            28.4937194511       20.2454664244      -44.4260095187  TIP3      20697           0.0000000000
    113605     22057  TIP3      H1             27.5063291885       20.2273888433      -44.4125343027  TIP3      20697           0.0000000000
    113606     22057  TIP3      H2             28.7675783701       20.9851465756      -43.8541285450  TIP3      20697           0.0000000000
    113607     22058  TIP3      OH2            29.1735442506       22.1473880295      -42.5948684903  TIP3      20698           0.0000000000
    113608     22058  TIP3      H1             30.0840644668       21.9075202126      -42.3479499250  TIP3      20698           0.0000000000
    113609     22058  TIP3      H2             29.3215982258       22.8829159736      -43.1812563458  TIP3      20698           0.0000000000
    113610     22059  TIP3      OH2            17.7844776072       25.1149448090      -44.8128330028  TIP3      20699           0.0000000000
    113611     22059  TIP3      H1             18.4293463188       25.6002747559      -44.2778665032  TIP3      20699           0.0000000000
    113612     22059  TIP3      H2             16.9590044980       25.3931121337      -44.4068127420  TIP3      20699           0.0000000000
    113613     22060  TIP3      OH2            29.6711500725       28.9500486072      -44.6972617916  TIP3      20700           0.0000000000
    113614     22060  TIP3      H1             30.1603344154       28.7483704814      -43.8761307448  TIP3      20700           0.0000000000
    113615     22060  TIP3      H2             28.7944790757       28.9653006366      -44.3507024988  TIP3      20700           0.0000000000
    113616     22061  TIP3      OH2            34.2143381359       33.4904135000      -44.4796461644  TIP3      20701           0.0000000000
    113617     22061  TIP3      H1             35.0070577636       34.0408413533      -44.5046016332  TIP3      20701           0.0000000000
    113618     22061  TIP3      H2             33.5509374087       34.1166697099      -44.1287099829  TIP3      20701           0.0000000000
    113619     22062  TIP3      OH2            19.8534194078       29.5553168783      -44.2997609266  TIP3      20702           0.0000000000
    113620     22062  TIP3      H1             20.4900738917       30.2220468407      -43.9981495996  TIP3      20702           0.0000000000
    113621     22062  TIP3      H2             20.3383150757       29.1535887424      -45.0192977247  TIP3      20702           0.0000000000
    113622     22063  TIP3      OH2            18.1607126100       22.2749362268      -45.2301266295  TIP3      20703           0.0000000000
    113623     22063  TIP3      H1             18.0994548212       23.2166843815      -44.9978066325  TIP3      20703           0.0000000000
    113624     22063  TIP3      H2             17.2746211080       22.0168751119      -45.4663566945  TIP3      20703           0.0000000000
    113625     22064  TIP3      OH2            23.6733424591       23.9886893826      -45.3623073701  TIP3      20704           0.0000000000
    113626     22064  TIP3      H1             23.4989200339       23.7874721063      -46.3000311063  TIP3      20704           0.0000000000
    113627     22064  TIP3      H2             24.6360524287       24.0308796614      -45.3021493718  TIP3      20704           0.0000000000
    113628     22065  TIP3      OH2            23.5635986750       34.6907169442      -44.2730766670  TIP3      20705           0.0000000000
    113629     22065  TIP3      H1             24.5192673323       34.7617200482      -44.2719404718  TIP3      20705           0.0000000000
    113630     22065  TIP3      H2             23.3129511155       35.2688193137      -45.0001773016  TIP3      20705           0.0000000000
    113631     22066  TIP3      OH2            17.1694021268       29.2606237495      -44.8096970694  TIP3      20706           0.0000000000
    113632     22066  TIP3      H1             18.1137535173       29.3600273789      -44.6162587470  TIP3      20706           0.0000000000
    113633     22066  TIP3      H2             17.1343910515       28.6169942878      -45.5204222827  TIP3      20706           0.0000000000
    113634     22067  TIP3      OH2            32.5066455252       22.3627322703      -45.1729311417  TIP3      20707           0.0000000000
    113635     22067  TIP3      H1             32.5481619515       23.0054609320      -45.8764920892  TIP3      20707           0.0000000000
    113636     22067  TIP3      H2             32.3868983217       21.5216229587      -45.6502735538  TIP3      20707           0.0000000000
    113637     22068  TIP3      OH2            33.9194426023       18.6329748271      -44.5132803114  TIP3      20708           0.0000000000
    113638     22068  TIP3      H1             34.2782504743       17.9196256821      -45.0503172074  TIP3      20708           0.0000000000
    113639     22068  TIP3      H2             34.6066395228       19.2874600968      -44.4701956930  TIP3      20708           0.0000000000
    113640     22069  TIP3      OH2            17.5092704149       16.7209547317      -43.4471007878  TIP3      20709           0.0000000000
    113641     22069  TIP3      H1             17.9199053450       17.4157934598      -43.9760939168  TIP3      20709           0.0000000000
    113642     22069  TIP3      H2             16.8608446978       17.2239499737      -42.9434651484  TIP3      20709           0.0000000000
    113643     22070  TIP3      OH2            19.4882106289       18.8935999342      -44.7900464592  TIP3      20710           0.0000000000
    113644     22070  TIP3      H1             19.8962095766       18.3529980179      -45.4741544553  TIP3      20710           0.0000000000
    113645     22070  TIP3      H2             20.1991744024       19.0296959975      -44.1879111055  TIP3      20710           0.0000000000
    113646     22071  TIP3      OH2            19.1532955830       33.4475892204      -45.4899742068  TIP3      20711           0.0000000000
    113647     22071  TIP3      H1             18.8857481497       33.8042269649      -44.6320371965  TIP3      20711           0.0000000000
    113648     22071  TIP3      H2             19.9969056587       33.0012713737      -45.3466660771  TIP3      20711           0.0000000000
    113649     22072  TIP3      OH2            40.0727477598       22.8829702242      -44.4039708284  TIP3      20712           0.0000000000
    113650     22072  TIP3      H1             39.5368312384       22.4053741995      -45.0605701143  TIP3      20712           0.0000000000
    113651     22072  TIP3      H2             40.9176204774       22.9877433654      -44.8297541721  TIP3      20712           0.0000000000
    113652     22073  TIP3      OH2            36.6599793204       25.1189522390      -44.8131117472  TIP3      20713           0.0000000000
    113653     22073  TIP3      H1             37.3254197469       25.5550883443      -44.2895372269  TIP3      20713           0.0000000000
    113654     22073  TIP3      H2             35.8130397367       25.3588182495      -44.4218419059  TIP3      20713           0.0000000000
    113655     22074  TIP3      OH2           -40.9670600032       19.1167127929      -43.3306556261  TIP3      20714           0.0000000000
    113656     22074  TIP3      H1            -41.0948627877       20.0358899809      -43.0462824570  TIP3      20714           0.0000000000
    113657     22074  TIP3      H2            -40.0655879431       18.9521225625      -43.1122748181  TIP3      20714           0.0000000000
    113658     22075  TIP3      OH2            38.6995094152       29.4829265536      -44.2715309496  TIP3      20715           0.0000000000
    113659     22075  TIP3      H1             39.3117165928       30.2133815819      -44.0383042740  TIP3      20715           0.0000000000
    113660     22075  TIP3      H2             39.2148098343       29.1914539267      -45.0367705411  TIP3      20715           0.0000000000
    113661     22076  TIP3      OH2            37.0347118136       22.2824856505      -45.1791377581  TIP3      20716           0.0000000000
    113662     22076  TIP3      H1             36.9473350298       23.2275365850      -45.0028218226  TIP3      20716           0.0000000000
    113663     22076  TIP3      H2             36.1586781506       21.9988968045      -45.4565313992  TIP3      20716           0.0000000000
    113664     22077  TIP3      OH2            36.0396690570       29.0938955952      -44.6995018485  TIP3      20717           0.0000000000
    113665     22077  TIP3      H1             36.9493939456       29.4426710618      -44.6932032232  TIP3      20717           0.0000000000
    113666     22077  TIP3      H2             35.9583851386       28.6801634104      -45.5698225590  TIP3      20717           0.0000000000
    113667     22078  TIP3      OH2            36.3378400791       16.7225572082      -43.4575274782  TIP3      20718           0.0000000000
    113668     22078  TIP3      H1             36.7634475598       17.4211334442      -43.9629724164  TIP3      20718           0.0000000000
    113669     22078  TIP3      H2             35.7051785966       17.2244394077      -42.9341252490  TIP3      20718           0.0000000000
    113670     22079  TIP3      OH2            38.3510452245       18.9879695103      -44.8594306526  TIP3      20719           0.0000000000
    113671     22079  TIP3      H1             38.7420426436       18.3348336318      -45.4367327888  TIP3      20719           0.0000000000
    113672     22079  TIP3      H2             39.0081716543       19.0065778116      -44.1472332121  TIP3      20719           0.0000000000
    113673     22080  TIP3      OH2            38.0076522953       33.4627946206      -45.4785722997  TIP3      20720           0.0000000000
    113674     22080  TIP3      H1             37.7380680991       33.7961975742      -44.6198227574  TIP3      20720           0.0000000000
    113675     22080  TIP3      H2             38.8520006156       33.0087590528      -45.3470704598  TIP3      20720           0.0000000000
    113676     22081  TIP3      OH2           -24.1332551848       35.2948456694      -43.2836765168  TIP3      20721           0.0000000000
    113677     22081  TIP3      H1            -25.0736962879       35.4097426689      -43.1006032540  TIP3      20721           0.0000000000
    113678     22081  TIP3      H2            -23.9538255617       36.1121534726      -43.7870851270  TIP3      20721           0.0000000000
    113679     22082  TIP3      OH2           -30.7666418197       38.4309103508      -44.8240899233  TIP3      20722           0.0000000000
    113680     22082  TIP3      H1            -31.1576713121       38.4495304330      -43.9526156805  TIP3      20722           0.0000000000
    113681     22082  TIP3      H2            -31.1002474805       37.6170931716      -45.2057939218  TIP3      20722           0.0000000000
    113682     22083  TIP3      OH2           -39.3174940554       39.3319662281      -43.2330151787  TIP3      20723           0.0000000000
    113683     22083  TIP3      H1            -38.9237743001       39.8963037149      -43.9132319400  TIP3      20723           0.0000000000
    113684     22083  TIP3      H2            -40.0254882310       39.9292004596      -42.9932846534  TIP3      20723           0.0000000000
    113685     22084  TIP3      OH2           -28.0924253436       39.0706748633      -44.3173770660  TIP3      20724           0.0000000000
    113686     22084  TIP3      H1            -29.0593686031       39.1347620957      -44.4193744327  TIP3      20724           0.0000000000
    113687     22084  TIP3      H2            -27.7758944651       39.8980255330      -43.9562261329  TIP3      20724           0.0000000000
    113688     22085  TIP3      OH2           -22.6625691532       37.4483475746      -44.5089301506  TIP3      20725           0.0000000000
    113689     22085  TIP3      H1            -22.2375657945       36.8017582314      -45.0691166835  TIP3      20725           0.0000000000
    113690     22085  TIP3      H2            -22.0149720392       38.1638942141      -44.4335833044  TIP3      20725           0.0000000000
    113691     22086  TIP3      OH2           -39.0644862605       35.5910502056      -43.3997723129  TIP3      20726           0.0000000000
    113692     22086  TIP3      H1            -38.7143264932       36.2632990574      -43.9946612601  TIP3      20726           0.0000000000
    113693     22086  TIP3      H2            -39.7729472476       36.0726589906      -42.9702242505  TIP3      20726           0.0000000000
    113694     22087  TIP3      OH2           -37.0156299831       37.8430100310      -44.8616912821  TIP3      20727           0.0000000000
    113695     22087  TIP3      H1            -36.7121740543       37.1956207837      -45.4934730727  TIP3      20727           0.0000000000
    113696     22087  TIP3      H2            -36.4278612663       37.7896401886      -44.1280601066  TIP3      20727           0.0000000000
    113697     22088  TIP3      OH2            -5.1551925668       35.2430949654      -43.6499132659  TIP3      20728           0.0000000000
    113698     22088  TIP3      H1             -6.0291348942       35.3247340817      -43.1777239803  TIP3      20728           0.0000000000
    113699     22088  TIP3      H2             -5.0495743822       36.1843656737      -43.8510947176  TIP3      20728           0.0000000000
    113700     22089  TIP3      OH2           -11.9462691597       38.4410119651      -44.8263096063  TIP3      20729           0.0000000000
    113701     22089  TIP3      H1            -12.2852883900       38.4312774737      -43.9380865358  TIP3      20729           0.0000000000
    113702     22089  TIP3      H2            -12.2320209041       37.6017071790      -45.1976897822  TIP3      20729           0.0000000000
    113703     22090  TIP3      OH2           -20.6353688605       39.1736852364      -43.3191640797  TIP3      20730           0.0000000000
    113704     22090  TIP3      H1            -20.1943114693       39.8613736039      -43.8437472272  TIP3      20730           0.0000000000
    113705     22090  TIP3      H2            -21.3214794214       39.7708889508      -42.9779074038  TIP3      20730           0.0000000000
    113706     22091  TIP3      OH2            -9.2434786609       39.0834594557      -44.3611764942  TIP3      20731           0.0000000000
    113707     22091  TIP3      H1            -10.2124418125       39.1298634760      -44.4073870902  TIP3      20731           0.0000000000
    113708     22091  TIP3      H2             -8.9170971405       39.8801148302      -43.9396214189  TIP3      20731           0.0000000000
    113709     22092  TIP3      OH2            -3.7883872272       37.4888559707      -44.5290321088  TIP3      20732           0.0000000000
    113710     22092  TIP3      H1             -3.3942731710       36.8014654294      -45.0614158628  TIP3      20732           0.0000000000
    113711     22092  TIP3      H2             -3.1147326544       38.1777909659      -44.4433285484  TIP3      20732           0.0000000000
    113712     22093  TIP3      OH2           -20.1899801745       35.6069255522      -43.4262545418  TIP3      20733           0.0000000000
    113713     22093  TIP3      H1            -19.8237572132       36.2947822539      -43.9945521609  TIP3      20733           0.0000000000
    113714     22093  TIP3      H2            -20.8733567721       36.0924360074      -42.9465253081  TIP3      20733           0.0000000000
    113715     22094  TIP3      OH2           -18.0918541130       37.9076179560      -44.8416568436  TIP3      20734           0.0000000000
    113716     22094  TIP3      H1            -17.9015787813       37.2029024533      -45.4805426987  TIP3      20734           0.0000000000
    113717     22094  TIP3      H2            -17.5515764182       37.6776118208      -44.1122441315  TIP3      20734           0.0000000000
    113718     22095  TIP3      OH2            13.5789647297       35.2951796138      -43.2833353642  TIP3      20735           0.0000000000
    113719     22095  TIP3      H1             12.6383689209       35.4101488831      -43.1009136317  TIP3      20735           0.0000000000
    113720     22095  TIP3      H2             13.7585807025       36.1119333250      -43.7874517685  TIP3      20735           0.0000000000
    113721     22096  TIP3      OH2             6.9476420127       38.4290883241      -44.8214345677  TIP3      20736           0.0000000000
    113722     22096  TIP3      H1              6.5532992569       38.4495532285      -43.9520072459  TIP3      20736           0.0000000000
    113723     22096  TIP3      H2              6.6108636998       37.6181722780      -45.2062086664  TIP3      20736           0.0000000000
    113724     22097  TIP3      OH2            -1.8414399194       39.1559773651      -43.3622074646  TIP3      20737           0.0000000000
    113725     22097  TIP3      H1             -1.2875117253       39.8337386795      -43.7995745270  TIP3      20737           0.0000000000
    113726     22097  TIP3      H2             -2.4511052156       39.8076679447      -42.9932099695  TIP3      20737           0.0000000000
    113727     22098  TIP3      OH2             9.6193232400       39.0697677058      -44.3164863680  TIP3      20738           0.0000000000
    113728     22098  TIP3      H1              8.6520061297       39.1351627346      -44.4223189347  TIP3      20738           0.0000000000
    113729     22098  TIP3      H2              9.9357125208       39.8978405867      -43.9567830864  TIP3      20738           0.0000000000
    113730     22099  TIP3      OH2            15.0553993153       37.4566223300      -44.5127503848  TIP3      20739           0.0000000000
    113731     22099  TIP3      H1             15.4754518629       36.8014672112      -45.0670210695  TIP3      20739           0.0000000000
    113732     22099  TIP3      H2             15.7170502262       38.1652880084      -44.4229595687  TIP3      20739           0.0000000000
    113733     22100  TIP3      OH2            -1.3251901474       35.5977518253      -43.4287857684  TIP3      20740           0.0000000000
    113734     22100  TIP3      H1             -0.9444964904       36.3002911316      -43.9738948155  TIP3      20740           0.0000000000
    113735     22100  TIP3      H2             -2.0260918905       36.0839909653      -42.9737511673  TIP3      20740           0.0000000000
    113736     22101  TIP3      OH2             0.6986496703       37.8438758984      -44.8496303033  TIP3      20741           0.0000000000
    113737     22101  TIP3      H1              1.0071641577       37.1839974104      -45.4687462191  TIP3      20741           0.0000000000
    113738     22101  TIP3      H2              1.3028270217       37.7972851577      -44.1272657270  TIP3      20741           0.0000000000
    113739     22102  TIP3      OH2            32.4356189112       35.2964490934      -43.2843323529  TIP3      20742           0.0000000000
    113740     22102  TIP3      H1             31.4948254756       35.4125650498      -43.1019528535  TIP3      20742           0.0000000000
    113741     22102  TIP3      H2             32.6166139615       36.1122386281      -43.7886357078  TIP3      20742           0.0000000000
    113742     22103  TIP3      OH2            25.8037816991       38.4287805714      -44.8212811465  TIP3      20743           0.0000000000
    113743     22103  TIP3      H1             25.4091802060       38.4497583416      -43.9520053715  TIP3      20743           0.0000000000
    113744     22103  TIP3      H2             25.4663580530       37.6183295230      -45.2062215314  TIP3      20743           0.0000000000
    113745     22104  TIP3      OH2            17.0129840461       39.1585231458      -43.3633869545  TIP3      20744           0.0000000000
    113746     22104  TIP3      H1             17.5687744564       39.8324751243      -43.7973843907  TIP3      20744           0.0000000000
    113747     22104  TIP3      H2             16.4032337947       39.8005983584      -42.9803339633  TIP3      20744           0.0000000000
    113748     22105  TIP3      OH2            28.4750821819       39.0694416622      -44.3166167203  TIP3      20745           0.0000000000
    113749     22105  TIP3      H1             27.5078479830       39.1350135557      -44.4224675587  TIP3      20745           0.0000000000
    113750     22105  TIP3      H2             28.7913617253       39.8978090552      -43.9581536580  TIP3      20745           0.0000000000
    113751     22106  TIP3      OH2            33.9158266358       37.4573559604      -44.5073156027  TIP3      20746           0.0000000000
    113752     22106  TIP3      H1             34.3285098005       36.8021079343      -45.0638251333  TIP3      20746           0.0000000000
    113753     22106  TIP3      H2             34.5794435026       38.1641308296      -44.4305540125  TIP3      20746           0.0000000000
    113754     22107  TIP3      OH2            17.5146735197       35.6013390370      -43.4377891394  TIP3      20747           0.0000000000
    113755     22107  TIP3      H1             17.9055966944       36.3010048113      -43.9733767315  TIP3      20747           0.0000000000
    113756     22107  TIP3      H2             16.8542485630       36.1030418091      -42.9420014580  TIP3      20747           0.0000000000
    113757     22108  TIP3      OH2            19.5552645635       37.8418124103      -44.8525900005  TIP3      20748           0.0000000000
    113758     22108  TIP3      H1             19.8672954332       37.1841366241      -45.4722681366  TIP3      20748           0.0000000000
    113759     22108  TIP3      H2             20.1560866865       37.7976713586      -44.1266521814  TIP3      20748           0.0000000000
    113760     22109  TIP3      OH2            35.9221516439       39.1480774188      -43.3330051671  TIP3      20749           0.0000000000
    113761     22109  TIP3      H1             36.4614173194       39.8188506456      -43.8080278691  TIP3      20749           0.0000000000
    113762     22109  TIP3      H2             35.2884214478       39.7991575015      -43.0000633994  TIP3      20749           0.0000000000
    113763     22110  TIP3      OH2           -41.1477411594       37.7220468401      -43.1563348351  TIP3      20750           0.0000000000
    113764     22110  TIP3      H1            -41.1721722726       38.7036727456      -43.1411050064  TIP3      20750           0.0000000000
    113765     22110  TIP3      H2            -40.1679959717       37.7467456346      -43.2353210377  TIP3      20750           0.0000000000
    113766     22111  TIP3      OH2            36.3642363428       35.6140751303      -43.3995018680  TIP3      20751           0.0000000000
    113767     22111  TIP3      H1             36.7469768068       36.2875789278      -43.9882282608  TIP3      20751           0.0000000000
    113768     22111  TIP3      H2             35.6845755907       36.1401183152      -42.9702747966  TIP3      20751           0.0000000000
    113769     22112  TIP3      OH2            38.3224787376       37.8242386647      -44.8305569741  TIP3      20752           0.0000000000
    113770     22112  TIP3      H1             38.7338449934       37.2449101225      -45.4762703602  TIP3      20752           0.0000000000
    113771     22112  TIP3      H2             39.0332971986       37.8391732774      -44.1795280608  TIP3      20752           0.0000000000
    113772     22113  CAL       CAL            29.4321704000       39.5485454000       19.8751262000  IONS      1               2.0000000000
    113773     22114  CAL       CAL            -5.3340612100       12.4227819000       18.1311366000  IONS      2               2.0000000000
    113774     22115  CAL       CAL            32.7718426000      -35.2586512000       17.6415432000  IONS      3               2.0000000000
    113775     22116  CAL       CAL            10.5026132000      -21.4109115000       18.7592136000  IONS      4               2.0000000000
    113776     22117  CAL       CAL            -7.4752244800        1.2823011100       18.7515492000  IONS      5               2.0000000000
    113777     22118  CAL       CAL            14.5492633000      -21.3348914000       14.5706253000  IONS      6               2.0000000000
    113778     22119  CAL       CAL           -10.5184482000       27.7812937000       17.6998950000  IONS      7               2.0000000000
    113779     22120  CAL       CAL           -36.0130577000       -8.5353497700       19.0875142000  IONS      8               2.0000000000
    113780     22121  CAL       CAL            16.7320752000        2.3463740500       17.2107091000  IONS      9               2.0000000000
    113781     22122  CAL       CAL            -2.6412838500       -7.6990484800       19.9612623000  IONS      10              2.0000000000
    113782     22123  CAL       CAL           -34.3446157000       31.4554333000       20.4954280000  IONS      11              2.0000000000
    113783     22124  CAL       CAL             4.6775925900       25.8023602000       21.4790329000  IONS      12              2.0000000000
    113784     22125  CAL       CAL             7.4957439600      -16.0867158000       21.3467957000  IONS      13              2.0000000000
    113785     22126  CAL       CAL            32.4938735000      -33.6616746000       13.4652270000  IONS      14              2.0000000000
    113786     22127  CAL       CAL            40.0404716000       13.5808028000       22.2084072000  IONS      15              2.0000000000
    113787     22128  CAL       CAL            -5.4564933600      -30.6524570000       18.6136631000  IONS      16              2.0000000000
    113788     22129  CAL       CAL             7.4287372500       40.6808407000       14.6054413000  IONS      17              2.0000000000
    113789     22130  CAL       CAL           -20.9713664000       23.5511603000       14.9039515000  IONS      18              2.0000000000
    113790     22131  CAL       CAL            29.4865256000      -37.4963270000       17.0221706000  IONS      19              2.0000000000
    113791     22132  CAL       CAL            16.4342635000      -19.6550617000       20.2749905000  IONS      20              2.0000000000
    113792     22133  CAL       CAL           -14.0200697000      -40.6688556000       21.2213080000  IONS      21              2.0000000000
    113793     22134  CAL       CAL            34.7348308000      -22.9723918000       10.1994780000  IONS      22              2.0000000000
    113794     22135  CAL       CAL            38.0193499000      -33.2865002000       14.3134449000  IONS      23              2.0000000000
    113795     22136  CAL       CAL           -18.3945454000       25.7677125000       18.8689421000  IONS      24              2.0000000000
    113796     22137  CAL       CAL            36.2596234000      -37.6324660000       20.5062705000  IONS      25              2.0000000000
    113797     22138  CAL       CAL            10.7861018000      -16.7038699000       15.2254592000  IONS      26              2.0000000000
    113798     22139  CAL       CAL            34.6998785000       39.4820359000       23.9952129000  IONS      27              2.0000000000
    113799     22140  CAL       CAL            -9.2969784000       40.5804137000       21.0192637000  IONS      28              2.0000000000
    113800     22141  CAL       CAL             9.3453313400       22.9685096000       20.5025823000  IONS      29              2.0000000000
    113801     22142  CAL       CAL            21.6628019000      -38.6530301000       22.3320484000  IONS      30              2.0000000000
    113802     22143  CAL       CAL            21.9127040000       14.1689455000       18.7286835000  IONS      31              2.0000000000
    113803     22144  CAL       CAL           -34.8401315000       34.4275970000       15.8366446000  IONS      32              2.0000000000
    113804     22145  CAL       CAL           -14.1945670000       24.5396529000       18.6611853000  IONS      33              2.0000000000
    113805     22146  CAL       CAL            -9.3175304600      -17.0154026000       21.2270480000  IONS      34              2.0000000000
    113806     22147  CAL       CAL           -35.7493809000       -5.9885181000       13.5411227000  IONS      35              2.0000000000
    113807     22148  CAL       CAL            35.6714570000      -26.7611574000       16.6299758000  IONS      36              2.0000000000
    113808     22149  CAL       CAL            -7.0422615100       17.2360571000       18.9275592000  IONS      37              2.0000000000
    113809     22150  CAL       CAL            25.1892232000       10.6192393000       19.1187260000  IONS      38              2.0000000000
    113810     22151  CAL       CAL            37.7943712000      -22.6430075000       18.1227161000  IONS      39              2.0000000000
    113811     22152  CAL       CAL           -36.2529984000       -0.7143195100       19.6054904000  IONS      40              2.0000000000
    113812     22153  CAL       CAL            30.8323829000       -5.3881384100       20.7519318000  IONS      41              2.0000000000
    113813     22154  CAL       CAL            15.6420181000       -8.8683890900       22.1864458000  IONS      42              2.0000000000
    113814     22155  CAL       CAL             4.1131230900      -13.1231490000       17.1278329000  IONS      43              2.0000000000
    113815     22156  CAL       CAL            11.9597549000       40.4975733000       18.8287297000  IONS      44              2.0000000000
    113816     22157  CAL       CAL            17.3155756000      -24.3823347000       15.4416360000  IONS      45              2.0000000000
    113817     22158  CAL       CAL           -26.6289198000       19.5904253000       21.0640533000  IONS      46              2.0000000000
    113818     22159  CAL       CAL            32.9862061000       40.0670590000       14.6646514000  IONS      47              2.0000000000
    113819     22160  CAL       CAL           -40.0520040000      -23.7689982000       21.4865377000  IONS      48              2.0000000000
    113820     22161  CAL       CAL            19.9559636000        9.4405444100       20.2701876000  IONS      49              2.0000000000
    113821     22162  CAL       CAL           -27.6111546000      -11.8498860000       21.4260923000  IONS      50              2.0000000000
    113822     22163  CAL       CAL           -21.8039357000      -34.8028127000       18.9839958000  IONS      51              2.0000000000
    113823     22164  CAL       CAL           -36.6639037000        0.4419858810       10.1468580000  IONS      52              2.0000000000
    113824     22165  CAL       CAL           -21.1808738000      -29.4487849000       20.3165752000  IONS      53              2.0000000000
    113825     22166  CAL       CAL           -13.7435545000       37.5431273000       18.1105841000  IONS      54              2.0000000000
    113826     22167  CAL       CAL            27.5715597000      -40.0495400000       20.1154151000  IONS      55              2.0000000000
    113827     22168  CAL       CAL            -9.1036834400       39.9570953000       14.5513329000  IONS      56              2.0000000000
    113828     22169  CAL       CAL            -5.7248763300       22.1457502000       12.3929907000  IONS      57              2.0000000000
    113829     22170  CAL       CAL           -14.2400108000        1.0482668800       19.5259102000  IONS      58              2.0000000000
    113830     22171  CAL       CAL            18.1486844000       31.9658449000       17.3906901000  IONS      59              2.0000000000
    113831     22172  CAL       CAL            15.2013239000       18.3447680000       18.1165386000  IONS      60              2.0000000000
    113832     22173  CAL       CAL            20.7137803000      -20.3645371000       20.4612416000  IONS      61              2.0000000000
    113833     22174  CAL       CAL             8.1971711800      -10.1240007000       19.0833609000  IONS      62              2.0000000000
    113834     22175  CAL       CAL            20.5607769000       -8.2366510500       16.6451321000  IONS      63              2.0000000000
    113835     22176  CAL       CAL            -7.6471742300      -17.4253453000       16.4746088000  IONS      64              2.0000000000
    113836     22177  CAL       CAL            39.6639649000       -6.7136728100       18.8283713000  IONS      65              2.0000000000
    113837     22178  CAL       CAL            39.8683245000      -18.8953591000       18.8588156000  IONS      66              2.0000000000
    113838     22179  CAL       CAL            22.6703103000       32.3792304000       20.9766432000  IONS      67              2.0000000000
    113839     22180  CAL       CAL             1.8004214200       20.8355377000       20.2877417000  IONS      68              2.0000000000
    113840     22181  CAL       CAL            11.0700558000       23.0840448000       16.7308544000  IONS      69              2.0000000000
    113841     22182  CAL       CAL            18.7120574000        2.8437479900       24.1234453000  IONS      70              2.0000000000
    113842     22183  CAL       CAL           -31.6633825000      -31.5010234000       34.1568332000  IONS      71              2.0000000000
    113843     22184  CAL       CAL            -5.5812986700      -31.0470279000       35.8320419000  IONS      72              2.0000000000
    113844     22185  CAL       CAL            39.1990430000       32.9727606000       40.9354880000  IONS      73              2.0000000000
    113845     22186  CAL       CAL           -39.4219522000       -6.7613297600       32.4625071000  IONS      74              2.0000000000
    113846     22187  CAL       CAL            -6.6858527100        3.2213522200       35.3638594000  IONS      75              2.0000000000
    113847     22188  CAL       CAL             3.6362050300       -8.3170009900       29.8976496000  IONS      76              2.0000000000
    113848     22189  CAL       CAL            11.5014013000       21.1653465000       43.5739034000  IONS      77              2.0000000000
    113849     22190  CAL       CAL            34.0714902000      -27.9619027000       23.0147285000  IONS      78              2.0000000000
    113850     22191  CAL       CAL            14.6289424000       27.5173986000       38.3682274000  IONS      79              2.0000000000
    113851     22192  CAL       CAL           -20.5783995000       23.1269571000       37.2367562000  IONS      80              2.0000000000
    113852     22193  CAL       CAL            37.0093456000       -6.6360932200       41.7410473000  IONS      81              2.0000000000
    113853     22194  CAL       CAL            38.3839828000       34.5943128000       28.4592021000  IONS      82              2.0000000000
    113854     22195  CAL       CAL           -30.5693447000       10.4738650000       35.2548295000  IONS      83              2.0000000000
    113855     22196  CAL       CAL            24.8979354000       26.0732481000       36.9082991000  IONS      84              2.0000000000
    113856     22197  CAL       CAL            36.7695549000      -32.8862582000       31.5535166000  IONS      85              2.0000000000
    113857     22198  CAL       CAL           -35.5236118000       36.1008269000       23.9264641000  IONS      86              2.0000000000
    113858     22199  CAL       CAL            29.8104660000      -40.2257906000       28.9587577000  IONS      87              2.0000000000
    113859     22200  CAL       CAL            -5.6312664800      -29.0293701000       42.3299950000  IONS      88              2.0000000000
    113860     22201  CAL       CAL           -34.4124344000      -40.4752453000       22.3963875000  IONS      89              2.0000000000
    113861     22202  CAL       CAL             2.9109885100       -8.0382398600       39.6755840000  IONS      90              2.0000000000
    113862     22203  CAL       CAL            18.3424938000       16.1989815000       22.1342508000  IONS      91              2.0000000000
    113863     22204  CAL       CAL            31.2272788000      -33.5419277000       46.1454159000  IONS      92              2.0000000000
    113864     22205  CAL       CAL           -28.6025142000        3.7047205800       47.6283841000  IONS      93              2.0000000000
    113865     22206  CAL       CAL            -3.4294751400      -32.1175192000       40.6150026000  IONS      94              2.0000000000
    113866     22207  CAL       CAL            15.0209993000       17.5492311000       45.5520668000  IONS      95              2.0000000000
    113867     22208  CAL       CAL           -17.9286374000      -25.3513572000       33.8201917000  IONS      96              2.0000000000
    113868     22209  CAL       CAL           -28.4906099000       36.7636032000       28.2675907000  IONS      97              2.0000000000
    113869     22210  CAL       CAL            16.8970039000        0.6939892130       46.0506348000  IONS      98              2.0000000000
    113870     22211  CAL       CAL           -22.0504753000       21.6743952000       41.8042210000  IONS      99              2.0000000000
    113871     22212  CAL       CAL           -22.4258970000       38.8239783000       35.6526937000  IONS      100             2.0000000000
    113872     22213  CAL       CAL           -27.7007846000      -13.4707187000       32.9556567000  IONS      101             2.0000000000
    113873     22214  CAL       CAL            39.9856520000        6.8323080500       33.5430608000  IONS      102             2.0000000000
    113874     22215  CAL       CAL            37.7431559000       34.7159087000       37.6130899000  IONS      103             2.0000000000
    113875     22216  CAL       CAL           -31.1667618000        7.0199890200       22.1388321000  IONS      104             2.0000000000
    113876     22217  CAL       CAL            18.2865322000       -4.0761979900       35.1710592000  IONS      105             2.0000000000
    113877     22218  CAL       CAL            -9.5837348200       40.5681599000       44.7059455000  IONS      106             2.0000000000
    113878     22219  CAL       CAL           -24.8919880000       25.0594157000       36.3061268000  IONS      107             2.0000000000
    113879     22220  CAL       CAL            36.9476899000       -5.6222443000       35.0546789000  IONS      108             2.0000000000
    113880     22221  CAL       CAL            26.3133708000      -22.2142766000       38.8198312000  IONS      109             2.0000000000
    113881     22222  CAL       CAL            18.3511408000      -23.8542168000       38.6602460000  IONS      110             2.0000000000
    113882     22223  CAL       CAL            29.0821522000      -16.4941623000       34.6307382000  IONS      111             2.0000000000
    113883     22224  CAL       CAL            21.6509353000       31.9362388000       34.5762569000  IONS      112             2.0000000000
    113884     22225  CAL       CAL           -37.5900000000       -6.1159614200       23.4987148000  IONS      113             2.0000000000
    113885     22226  CAL       CAL            34.6628272000      -28.4243732000       40.4155207000  IONS      114             2.0000000000
    113886     22227  CAL       CAL           -38.8743211000      -36.3305216000       38.1191885000  IONS      115             2.0000000000
    113887     22228  CAL       CAL            20.0222238000        2.4536907500       33.3372345000  IONS      116             2.0000000000
    113888     22229  CAL       CAL            40.4596645000      -21.5589286000       23.9790597000  IONS      117             2.0000000000
    113889     22230  CAL       CAL             2.6926045500      -28.8632145000       24.6645956000  IONS      118             2.0000000000
    113890     22231  CAL       CAL            -5.4989288600       22.7515090000       29.4190489000  IONS      119             2.0000000000
    113891     22232  CAL       CAL           -29.8393102000       -9.5226359400       37.7014860000  IONS      120             2.0000000000
    113892     22233  CAL       CAL            27.8695850000      -38.7677670000       40.9458293000  IONS      121             2.0000000000
    113893     22234  CAL       CAL           -11.1402991000       33.8809056000       46.7860056000  IONS      122             2.0000000000
    113894     22235  CAL       CAL            26.3732702000      -21.8458310000       23.3405975000  IONS      123             2.0000000000
    113895     22236  CAL       CAL           -37.0698324000      -37.3526529000       28.3073935000  IONS      124             2.0000000000
    113896     22237  CAL       CAL            16.9390064000      -36.9890658000       37.4251428000  IONS      125             2.0000000000
    113897     22238  CAL       CAL            -6.3803927500      -26.1401070000       46.1501698000  IONS      126             2.0000000000
    113898     22239  CAL       CAL           -20.8969809000       -7.9211973400       47.8014821000  IONS      127             2.0000000000
    113899     22240  CAL       CAL           -12.1156761000       32.1848958000       33.1879330000  IONS      128             2.0000000000
    113900     22241  CAL       CAL            40.4410867000      -21.5246754000       39.3279981000  IONS      129             2.0000000000
    113901     22242  CAL       CAL            36.3563712000        7.2141468400       39.1937378000  IONS      130             2.0000000000
    113902     22243  CAL       CAL           -37.1481255000        2.6259076400       22.9875554000  IONS      131             2.0000000000
    113903     22244  CAL       CAL             3.1154007000      -30.7825945000       39.9507418000  IONS      132             2.0000000000
    113904     22245  CAL       CAL            30.3866363000        1.3880295700       34.1912286000  IONS      133             2.0000000000
    113905     22246  CAL       CAL           -13.2868610000       24.4979518000       47.5237993000  IONS      134             2.0000000000
    113906     22247  CAL       CAL            25.0379003000      -12.0985754000       34.0033556000  IONS      135             2.0000000000
    113907     22248  CAL       CAL           -37.6224910000       34.1857049000       44.3865156000  IONS      136             2.0000000000
    113908     22249  CAL       CAL             9.2525825500       21.8200886000       26.7883649000  IONS      137             2.0000000000
    113909     22250  CAL       CAL            40.1828750000      -10.2174007000       38.2162397000  IONS      138             2.0000000000
    113910     22251  CAL       CAL            25.6879653000       13.3186084000       47.5910105000  IONS      139             2.0000000000
    113911     22252  CAL       CAL             9.9395447100      -39.0242800000       36.2202245000  IONS      140             2.0000000000
    113912     22253  CAL       CAL           -36.1444657000       33.1461785000       36.7621966000  IONS      141             2.0000000000
    113913     22254  CAL       CAL            13.0603190000       22.8656202000       28.1685445000  IONS      142             2.0000000000
    113914     22255  CAL       CAL           -18.5406008000       21.3383953000       32.7220574000  IONS      143             2.0000000000
    113915     22256  CAL       CAL           -36.8737037000       -1.5048312700       37.2874535000  IONS      144             2.0000000000
    113916     22257  CAL       CAL            13.5332825000      -15.9476993000       32.0703352000  IONS      145             2.0000000000
    113917     22258  CAL       CAL            21.9421451000      -39.1026857000       36.4509313000  IONS      146             2.0000000000
    113918     22259  CAL       CAL           -21.2201434000      -31.3391239000       36.8474325000  IONS      147             2.0000000000
    113919     22260  CAL       CAL            -5.7331927500       19.5820893000       45.2899027000  IONS      148             2.0000000000
    113920     22261  CAL       CAL           -21.3094387000       -3.1790237300       39.4467846000  IONS      149             2.0000000000
    113921     22262  CAL       CAL           -19.9561679000      -29.2921058000       31.4224337000  IONS      150             2.0000000000
    113922     22263  CAL       CAL            28.0054449000      -20.9837253000       47.3133186000  IONS      151             2.0000000000
    113923     22264  CAL       CAL            -0.0374915975       39.3467545000       37.1479427000  IONS      152             2.0000000000
    113924     22265  CAL       CAL             1.0516828100       -4.3776361100       25.4115212000  IONS      153             2.0000000000
    113925     22266  CAL       CAL           -24.3053829000       -9.3416212500       37.3308060000  IONS      154             2.0000000000
    113926     22267  CAL       CAL            -1.2887462800      -29.6799181000       31.0660058000  IONS      155             2.0000000000
    113927     22268  CAL       CAL           -19.3434400000       -6.7765700500       36.8706509000  IONS      156             2.0000000000
    113928     22269  CAL       CAL             4.6477302200       36.1613402000       35.6189088000  IONS      157             2.0000000000
    113929     22270  SOD       SOD            -0.0210038933       35.0472870417      -37.9669929635  IONS      158             1.0000000000
    113930     22271  SOD       SOD             2.9924809124        4.7352193912      -25.8583921167  IONS      159             1.0000000000
    113931     22272  SOD       SOD            21.1436216533      -27.4444326596      -24.9283682442  IONS      160             1.0000000000
    113932     22273  SOD       SOD             7.6516851294       -8.3954463812      -28.8615396532  IONS      161             1.0000000000
    113933     22274  SOD       SOD           -23.3290337993      -15.4379583942      -27.0925670991  IONS      162             1.0000000000
    113934     22275  SOD       SOD             1.7554076234       17.2223073474      -28.5026401600  IONS      163             1.0000000000
    113935     22276  SOD       SOD            17.8461205401       -2.3689480534      -50.8293179007  IONS      164             1.0000000000
    113936     22277  SOD       SOD           -26.4827229980      -16.6088503628       52.5607880266  IONS      165             1.0000000000
    113937     22278  SOD       SOD           -36.8432298024      -35.9063839217       62.1623498260  IONS      166             1.0000000000
    113938     22279  SOD       SOD            32.2431800392      -21.2841257629       48.0622757445  IONS      167             1.0000000000
    113939     22280  SOD       SOD            -5.8350799412      -25.8593456485      -65.5255350128  IONS      168             1.0000000000
    113940     22281  SOD       SOD            22.8870560980      -22.1291579132      -66.1923012095  IONS      169             1.0000000000
    113941     22282  SOD       SOD           -13.3634899710      -11.4004057096      -45.2691176806  IONS      170             1.0000000000
    113942     22283  SOD       SOD            29.6805542656      -24.0261647603      -71.8079535302  IONS      171             1.0000000000
    113943     22284  SOD       SOD           -33.0305279529        3.6013050635      -46.6797625427  IONS      172             1.0000000000
    113944     22285  SOD       SOD            20.1627399603      -13.1353331190      -59.6941622858  IONS      173             1.0000000000
    113945     22286  SOD       SOD            -3.5517542637       39.1363782226      -37.1621091690  IONS      174             1.0000000000
    113946     22287  SOD       SOD            38.8915220171       -3.1674503310      -27.1581816253  IONS      175             1.0000000000
    113947     22288  SOD       SOD            -0.0201806542       40.4375093292      -65.5998577665  IONS      176             1.0000000000
    113948     22289  SOD       SOD            39.7813255220       25.3194908643      -24.4549747991  IONS      177             1.0000000000
    113949     22290  SOD       SOD           -37.9809155183       13.5477116627      -26.7400959612  IONS      178             1.0000000000
    113950     22291  SOD       SOD            15.5381088806       -0.4842763932      -33.3972844529  IONS      179             1.0000000000
    113951     22292  SOD       SOD            39.0626102206      -38.9448641794       56.2341853604  IONS      180             1.0000000000
    113952     22293  SOD       SOD            31.2063815378      -11.4265805067      -60.0779221270  IONS      181             1.0000000000
    113953     22294  SOD       SOD           -21.5073152791       -6.9376373780      -88.8021111347  IONS      182             1.0000000000
    113954     22295  SOD       SOD            15.6537350189      -31.8949785083      -45.3293687479  IONS      183             1.0000000000
    113955     22296  SOD       SOD            33.0626700949      -17.6724904121      -53.0530624634  IONS      184             1.0000000000
    113956     22297  SOD       SOD            -5.0563467254       16.0941512645       76.5621085391  IONS      185             1.0000000000
    113957     22298  SOD       SOD            10.5166295976      -24.4938411543      -32.5026909141  IONS      186             1.0000000000
    113958     22299  SOD       SOD            -9.7403978943       -1.6411847404       70.4457376966  IONS      187             1.0000000000
    113959     22300  SOD       SOD            32.3487053759      -36.7826037334      -35.0832435244  IONS      188             1.0000000000
    113960     22301  SOD       SOD            22.5102483413       28.8898931410      -37.7978455597  IONS      189             1.0000000000
    113961     22302  SOD       SOD           -38.1231343763       37.3541525505      -78.6272521499  IONS      190             1.0000000000
    113962     22303  SOD       SOD           -20.9066597778       38.1840808451      -88.5051372333  IONS      191             1.0000000000
    113963     22304  SOD       SOD            38.2605276019       35.8885137110      -40.0046388132  IONS      192             1.0000000000
    113964     22305  SOD       SOD           -17.2480736648       40.1895004537      -43.1416002218  IONS      193             1.0000000000
    113965     22306  SOD       SOD           -19.7448920642      -13.0860040887      -52.5546892645  IONS      194             1.0000000000
    113966     22307  SOD       SOD           -31.6924823581      -10.8299310587      -29.8936967741  IONS      195             1.0000000000
    113967     22308  SOD       SOD             1.6905089898       21.2358021113      -27.8588073604  IONS      196             1.0000000000
    113968     22309  SOD       SOD            32.5247732505      -23.9471196465      -54.3258495418  IONS      197             1.0000000000
    113969     22310  SOD       SOD            23.5329547658       18.2644713508      -40.5413859017  IONS      198             1.0000000000
    113970     22311  SOD       SOD            19.7140478132        2.5033004116      -41.4113396510  IONS      199             1.0000000000
    113971     22312  SOD       SOD            17.1684638871       -6.1025768200       86.7499591291  IONS      200             1.0000000000
    113972     22313  SOD       SOD           -37.1953677956       28.6293285323      -53.7028196946  IONS      201             1.0000000000
    113973     22314  SOD       SOD            21.8989694050        9.4483553034       15.4807006741  IONS      202             1.0000000000
    113974     22315  SOD       SOD            37.3827565741       27.5061766396      -43.0709582155  IONS      203             1.0000000000
    113975     22316  SOD       SOD           -36.0070219923       34.2664099245      -97.1024845785  IONS      204             1.0000000000
    113976     22317  SOD       SOD            29.1481524516       33.1198864574      -25.3847386441  IONS      205             1.0000000000
    113977     22318  SOD       SOD            21.2161537170      -13.5380929666      -49.0974647689  IONS      206             1.0000000000
    113978     22319  SOD       SOD             1.4637536332      -29.1653095085      -50.0742147690  IONS      207             1.0000000000
    113979     22320  SOD       SOD           -30.9796112619      -12.3825640047       64.7923121059  IONS      208             1.0000000000
    113980     22321  SOD       SOD            28.6754413121      -13.9060154123      -26.3949230472  IONS      209             1.0000000000
    113981     22322  SOD       SOD           -35.9899969304        4.2781616143       74.5373774067  IONS      210             1.0000000000
    113982     22323  SOD       SOD           -20.9721245338      -34.3786736264      -27.8767546427  IONS      211             1.0000000000
    113983     22324  SOD       SOD            27.8809698220      -38.2443690397      -35.4248728696  IONS      212             1.0000000000
    113984     22325  SOD       SOD            38.8711070875       24.3462818184      -33.0610613114  IONS      213             1.0000000000
    113985     22326  SOD       SOD            11.2412090894      -15.3326183110      -45.9870523798  IONS      214             1.0000000000
    113986     22327  SOD       SOD           -11.0319981440       32.9774679712       65.0263672934  IONS      215             1.0000000000
    113987     22328  SOD       SOD            36.7506725275      -34.0731108916      -31.0416320799  IONS      216             1.0000000000
    113988     22329  SOD       SOD            40.6690289978       -5.0444923152      -72.9735068937  IONS      217             1.0000000000
    113989     22330  SOD       SOD            36.1649097304       25.9560316336      -67.9602616195  IONS      218             1.0000000000
    113990     22331  SOD       SOD            32.1130321839      -41.1839420645      -35.2701680244  IONS      219             1.0000000000
    113991     22332  SOD       SOD            18.8240584760      -24.9009214213      -96.4917937199  IONS      220             1.0000000000
    113992     22333  SOD       SOD            28.6688434516       10.7089608792      -23.6849965336  IONS      221             1.0000000000
    113993     22334  SOD       SOD            -0.7193226033      -29.8246388522      -91.9805862542  IONS      222             1.0000000000
    113994     22335  SOD       SOD            34.1882263505       -3.3077220647      -46.6134960914  IONS      223             1.0000000000
    113995     22336  SOD       SOD            12.5405482876      -12.0534365113       29.8547599770  IONS      224             1.0000000000
    113996     22337  SOD       SOD           -38.7302292585      -38.3866919183      -66.0517914805  IONS      225             1.0000000000
    113997     22338  SOD       SOD           -34.8055013130       -9.4185597066      -50.7785280065  IONS      226             1.0000000000
    113998     22339  SOD       SOD           -18.9878823831      -15.1228047119      -37.6662107759  IONS      227             1.0000000000
    113999     22340  SOD       SOD           -39.6968774508      -36.0576491337      -71.8686196544  IONS      228             1.0000000000
    114000     22341  SOD       SOD           -34.8401847132       20.0982307053      -57.5892230948  IONS      229             1.0000000000
    114001     22342  SOD       SOD           -40.0154288921      -16.8560480947      -57.1675555457  IONS      230             1.0000000000
    114002     22343  SOD       SOD           -16.6393035467       14.6383605001      -58.3640434232  IONS      231             1.0000000000
    114003     22344  SOD       SOD           -10.6273948932       23.4853389680      -66.3321923203  IONS      232             1.0000000000
    114004     22345  SOD       SOD             3.1483514392      -12.1352071235       20.8312517534  IONS      233             1.0000000000
    114005     22346  SOD       SOD            37.7578840631      -37.1816111677      -54.5804393739  IONS      234             1.0000000000
    114006     22347  SOD       SOD           -29.1513313523        6.8143681081      -22.3897453592  IONS      235             1.0000000000
    114007     22348  SOD       SOD           -40.0389007018       31.4264780650      -87.7762794747  IONS      236             1.0000000000
    114008     22349  SOD       SOD           -24.3575683334       36.5305421974      -22.9454489861  IONS      237             1.0000000000
    114009     22350  SOD       SOD           -21.5028410640       -1.4616112369       95.1204657485  IONS      238             1.0000000000
    114010     22351  SOD       SOD            22.7974385501        9.0929215707       90.8086349558  IONS      239             1.0000000000
    114011     22352  SOD       SOD            31.8680661576      -25.8532949886      -89.4542846260  IONS      240             1.0000000000
    114012     22353  SOD       SOD            -4.6613013083      -20.2363227853      -95.3042069346  IONS      241             1.0000000000
    114013     22354  SOD       SOD            -9.0619547359        6.5135632259      -66.5181299283  IONS      242             1.0000000000
    114014     22355  SOD       SOD           -35.2563523347        9.1735405574      -26.7607568464  IONS      243             1.0000000000
    114015     22356  SOD       SOD             1.3273620274      -13.7799157791       49.0460176667  IONS      244             1.0000000000
    114016     22357  SOD       SOD            40.7769759461        9.4506416674      -96.7844020061  IONS      245             1.0000000000
    114017     22358  SOD       SOD            39.3935954785      -22.9438081015      -67.6378579207  IONS      246             1.0000000000
    114018     22359  SOD       SOD             2.3845790259      -18.3331316359      -52.2797642580  IONS      247             1.0000000000
    114019     22360  SOD       SOD             7.5770298780      -12.2108202264      -26.4006389134  IONS      248             1.0000000000
    114020     22361  SOD       SOD            28.7961032887      -37.9181625611       95.9184503634  IONS      249             1.0000000000
    114021     22362  SOD       SOD            33.6922080577      -35.6026767450       52.2434449646  IONS      250             1.0000000000
    114022     22363  SOD       SOD            -6.7202438747       -1.7539157983      -55.9247191369  IONS      251             1.0000000000
    114023     22364  SOD       SOD           -24.9723644077      -28.3819658721      -41.6572571833  IONS      252             1.0000000000
    114024     22365  SOD       SOD            -5.5240372244       23.9422230685      -89.2904856494  IONS      253             1.0000000000
    114025     22366  SOD       SOD           -37.7124403837       34.9816102559       54.3917159437  IONS      254             1.0000000000
    114026     22367  SOD       SOD           -33.0301412554      -34.4991220563      -33.0606164740  IONS      255             1.0000000000
    114027     22368  SOD       SOD           -13.8693456418       25.5169060096      -74.3429606402  IONS      256             1.0000000000
    114028     22369  SOD       SOD            14.6967338826       -4.2847751093      -68.5010137128  IONS      257             1.0000000000
    114029     22370  SOD       SOD           -29.5472838814        5.5876208191      -88.9170082672  IONS      258             1.0000000000
    114030     22371  SOD       SOD            39.5038814283       17.3523263106       91.2767418414  IONS      259             1.0000000000
    114031     22372  SOD       SOD           -30.2662577069      -11.1407940543      -73.0979680421  IONS      260             1.0000000000
    114032     22373  SOD       SOD            14.9006366773       22.7493614344       34.9224390364  IONS      261             1.0000000000
    114033     22374  SOD       SOD             4.2023276016       38.8868264166      -74.5698590321  IONS      262             1.0000000000
    114034     22375  SOD       SOD            -5.6269570971      -14.1003952616      -31.0591445322  IONS      263             1.0000000000
    114035     22376  SOD       SOD            27.8898476777       28.2496462757      -46.2768302842  IONS      264             1.0000000000
    114036     22377  SOD       SOD            11.1982902259       21.1181075060      -74.7168894477  IONS      265             1.0000000000
    114037     22378  SOD       SOD           -37.0000424420       17.0010547351      -43.0940914997  IONS      266             1.0000000000
    114038     22379  SOD       SOD           -34.0700041867      -28.3591266383      -80.6023479415  IONS      267             1.0000000000
    114039     22380  SOD       SOD           -34.9569902597      -38.8590673817      -49.7820249030  IONS      268             1.0000000000
    114040     22381  SOD       SOD            17.4013331123       -6.6452460808       27.3834727295  IONS      269             1.0000000000
    114041     22382  SOD       SOD            38.0026070563       27.6894264921      -87.4116858171  IONS      270             1.0000000000
    114042     22383  SOD       SOD           -31.6683454976      -22.9786340727      -58.9985013666  IONS      271             1.0000000000
    114043     22384  CLA       CLA            17.0516702247      -24.7303319635       83.3377974016  IONS      272            -1.0000000000
    114044     22385  CLA       CLA           -35.5778173847      -24.1122956198       63.7328744302  IONS      273            -1.0000000000
    114045     22386  CLA       CLA           -19.5212100107      -12.6615659826      -57.0455676806  IONS      274            -1.0000000000
    114046     22387  CLA       CLA            30.2595900360        2.1595602102      -49.3075056256  IONS      275            -1.0000000000
    114047     22388  CLA       CLA           -12.7169849663       28.0995631414      -94.1775286925  IONS      276            -1.0000000000
    114048     22389  CLA       CLA             9.2742245785       11.9964826711      -60.9332568682  IONS      277            -1.0000000000
    114049     22390  CLA       CLA             1.7922348107       37.0085344780      -68.5101978988  IONS      278            -1.0000000000
    114050     22391  CLA       CLA           -17.9748238780        5.7440329681      -34.5067197102  IONS      279            -1.0000000000
    114051     22392  CLA       CLA            33.5513372760        7.1984166686      -53.5510636043  IONS      280            -1.0000000000
    114052     22393  CLA       CLA            13.4586899847      -30.0934795454      -61.3859034063  IONS      281            -1.0000000000
    114053     22394  CLA       CLA            -6.0015368880       28.6256869079      -42.9723535553  IONS      282            -1.0000000000
    114054     22395  CLA       CLA             6.3100876400      -18.4262147440      -48.5833838425  IONS      283            -1.0000000000
    114055     22396  CLA       CLA             0.9630560039       28.9076312479       70.1274204351  IONS      284            -1.0000000000
    114056     22397  CLA       CLA            25.3179269746       39.9660521070      -72.3132336315  IONS      285            -1.0000000000
    114057     22398  CLA       CLA           -29.6499706999      -16.1654167665      -61.0315006995  IONS      286            -1.0000000000
    114058     22399  CLA       CLA            31.3655609747       14.4852991942      -45.0835251970  IONS      287            -1.0000000000
    114059     22400  CLA       CLA            34.3000046671        9.7345025190      -42.7939441834  IONS      288            -1.0000000000
    114060     22401  CLA       CLA           -35.7056032883      -24.3827247834      -50.8160544901  IONS      289            -1.0000000000
    114061     22402  CLA       CLA             3.1272035892       -9.5410969064      -80.3870858603  IONS      290            -1.0000000000
    114062     22403  CLA       CLA            16.0937280113       -5.7297623882       83.4599442888  IONS      291            -1.0000000000
    114063     22404  CLA       CLA             6.7501701368      -12.1076240093      -84.9118647436  IONS      292            -1.0000000000
    114064     22405  CLA       CLA            28.2667492068      -28.2358523099      -46.0937814476  IONS      293            -1.0000000000
    114065     22406  CLA       CLA            -1.5646140289       16.7868845221      -24.5220166300  IONS      294            -1.0000000000
    114066     22407  CLA       CLA           -32.5860383475      -12.7672521528      -80.3034221774  IONS      295            -1.0000000000
    114067     22408  CLA       CLA            23.6277391708       18.5859361078      -46.2562602074  IONS      296            -1.0000000000
    114068     22409  CLA       CLA           -25.7525297689       -9.5754687073      -67.8320183980  IONS      297            -1.0000000000
    114069     22410  CLA       CLA           -12.1160201452       23.2107406202      -50.7022533319  IONS      298            -1.0000000000
    114070     22411  CLA       CLA           -20.5348643239        2.2845914797      -53.4300697678  IONS      299            -1.0000000000
    114071     22412  CLA       CLA            -9.6323824304        9.1419290880      -97.3126891997  IONS      300            -1.0000000000
    114072     22413  CLA       CLA           -19.3782442525      -39.0168047945       33.2090183679  IONS      301            -1.0000000000
    114073     22414  CLA       CLA             5.8365453953       -4.0831318696      -35.5947205437  IONS      302            -1.0000000000
    114074     22415  CLA       CLA           -36.7743138443       33.9368517504       73.7763363557  IONS      303            -1.0000000000
    114075     22416  CLA       CLA            16.8471025476       -3.6105896995      -23.6633691666  IONS      304            -1.0000000000
    114076     22417  CLA       CLA           -31.3244108295       32.5906739295       69.9264531847  IONS      305            -1.0000000000
    114077     22418  CLA       CLA            -5.6643130488        5.7128248631      -40.2610107888  IONS      306            -1.0000000000
    114078     22419  CLA       CLA            18.7729265271      -11.3438412466      -36.2548946587  IONS      307            -1.0000000000
    114079     22420  CLA       CLA           -15.4282087234        1.3212893836      -56.1232697546  IONS      308            -1.0000000000
    114080     22421  CLA       CLA           -11.9103065994       21.3713481538      -41.4967395091  IONS      309            -1.0000000000
    114081     22422  CLA       CLA             9.4079235954       24.2292607757      -90.4402335700  IONS      310            -1.0000000000
    114082     22423  CLA       CLA            11.7041757314      -25.5794020816       67.4836328018  IONS      311            -1.0000000000
    114083     22424  CLA       CLA            -7.0764604854       35.6513854743      -41.5532784286  IONS      312            -1.0000000000
    114084     22425  CLA       CLA           -39.5166073057       23.5703116551      -29.1755197098  IONS      313            -1.0000000000
    114085     22426  CLA       CLA           -30.5218383526      -37.8793725269      -73.6111900450  IONS      314            -1.0000000000
    114086     22427  CLA       CLA           -37.9777870232       25.3346879036       70.2394072983  IONS      315            -1.0000000000
    114087     22428  CLA       CLA           -25.5923535677      -10.4224710465      -25.2587821052  IONS      316            -1.0000000000
    114088     22429  CLA       CLA           -40.7181859218       39.4610209917      -46.8720348566  IONS      317            -1.0000000000
    114089     22430  CLA       CLA            -9.0093679729       -9.3878206023      -25.1756734205  IONS      318            -1.0000000000
    114090     22431  CLA       CLA            -5.5344758892       11.7938064496       41.6252040031  IONS      319            -1.0000000000
